/*--------------------------------*- C++ -*----------------------------------*\
  =========                 |
  \\      /  F ield         | OpenFOAM: The Open Source CFD Toolbox
   \\    /   O peration     | Website:  https://openfoam.org
    \\  /    A nd           | Version:  10
     \\/     M anipulation  |
\*---------------------------------------------------------------------------*/
FoamFile
{
    format      ascii;
    class       volScalarField;
    location    "0.4";
    object      k;
}
// * * * * * * * * * * * * * * * * * * * * * * * * * * * * * * * * * * * * * //

dimensions      [0 2 -2 0 0 0 0];

internalField   nonuniform List<scalar> 
12920
(
0.00292251
0.00317739
0.0040389
0.00294266
0.0026948
0.00250391
0.0021275
0.00177977
0.00145776
0.00122316
0.00109851
0.00105605
0.00104817
0.00104718
0.00104702
0.00104706
0.0010469
0.00104691
0.00104687
0.00104694
0.00181205
0.00339056
0.00364406
0.00385463
0.00407262
0.002846
0.00198925
0.00142492
0.00116442
0.00107959
0.0010551
0.00104822
0.0010472
0.00104714
0.00104714
0.00104714
0.001047
0.00104702
0.00104693
0.00104697
0.00147795
0.00266884
0.00248053
0.00254935
0.00381491
0.00361023
0.00203798
0.00126089
0.00108629
0.00105487
0.0010485
0.00104739
0.00104721
0.0010472
0.00104719
0.00104717
0.00104695
0.00104695
0.00104685
0.00104695
0.00774844
0.0183425
0.00538651
0.00647583
0.00621961
0.00228776
0.00135538
0.00108984
0.00105341
0.00104838
0.00104736
0.00104719
0.00104716
0.00104712
0.001047
0.00104716
0.00104707
0.00104707
0.00104696
0.00104697
0.0134434
0.0112122
0.00682647
0.00548693
0.00470167
0.00161717
0.00120768
0.00107331
0.00105187
0.00104761
0.00104688
0.00104684
0.00104698
0.00104713
0.00104716
0.00104716
0.00104704
0.00104701
0.00104693
0.00104699
0.0107786
0.00711982
0.00467867
0.00639184
0.0027404
0.00130302
0.001354
0.00109996
0.00107549
0.00105
0.00105102
0.00104775
0.00104699
0.001047
0.00104694
0.00104706
0.00104711
0.00104702
0.00104698
0.00104698
0.0085785
0.00502471
0.00601812
0.0100455
0.00391372
0.00163658
0.0012231
0.00107246
0.00128711
0.00113649
0.0011419
0.00106807
0.00104262
0.00104147
0.00103933
0.00104156
0.00104448
0.00104624
0.00104678
0.00104699
0.00389683
0.00419477
0.00391608
0.00370483
0.0025224
0.00170239
0.00138896
0.001078
0.0010939
0.00118218
0.0011144
0.00110079
0.00109665
0.001097
0.000961533
0.000969401
0.00099553
0.00102439
0.00103841
0.00104479
0.00331845
0.00287971
0.00222169
0.00196338
0.00169924
0.00167621
0.00156019
0.00115803
0.00114179
0.0012145
0.00121792
0.00122471
0.00121827
0.00121539
0.00105244
0.000917235
0.000953566
0.000996136
0.00102399
0.00104018
0.00307798
0.00377053
0.00341899
0.00218796
0.00153828
0.00126946
0.00122005
0.001144
0.00116822
0.00123743
0.0012082
0.00120894
0.00120901
0.00120952
0.000995631
0.000888808
0.000934942
0.000986789
0.0010201
0.00103905
0.00510663
0.0110112
0.0107697
0.00679059
0.0027297
0.00156249
0.00157823
0.00125513
0.00116526
0.00120746
0.00120976
0.00120444
0.00120676
0.00120603
0.000992423
0.000889177
0.000935013
0.000986511
0.00101991
0.00103899
0.00330754
0.00381954
0.00408976
0.00462723
0.00425669
0.00424423
0.00507725
0.00221966
0.00119037
0.00118226
0.00120933
0.00120918
0.0012095
0.00120971
0.0010117
0.000925112
0.000954806
0.000995874
0.00102381
0.0010401
0.00900606
0.00306283
0.00372303
0.010295
0.0117946
0.010034
0.00690861
0.00262266
0.00126106
0.00110192
0.00109618
0.00109322
0.00109069
0.00109329
0.000962596
0.000972391
0.00100024
0.00102589
0.00103897
0.00104494
0.0073766
0.00364104
0.00673676
0.0154334
0.0153601
0.0136661
0.00862611
0.00440309
0.00204023
0.00129417
0.00109527
0.00105384
0.0010465
0.00104507
0.00104491
0.00104521
0.00104607
0.00104676
0.00104705
0.00104711
0.00954592
0.0081944
0.00680973
0.0109199
0.0128087
0.0120886
0.0081108
0.00458953
0.00267406
0.00157545
0.00115734
0.00106264
0.00104897
0.00104738
0.00104722
0.00104721
0.00104721
0.00104721
0.00104718
0.00104714
0.00391715
0.00938804
0.00802056
0.00668038
0.00678747
0.00655595
0.00543084
0.00336358
0.00199866
0.0012642
0.00108165
0.00105092
0.00104758
0.00104717
0.00104723
0.00104717
0.00104722
0.00104722
0.0010472
0.00104715
0.0248543
0.0166939
0.00968255
0.00524857
0.00405642
0.00322916
0.00244193
0.00150692
0.00118555
0.00107142
0.00105128
0.00104777
0.0010473
0.00104715
0.00104722
0.00104716
0.00104722
0.00104722
0.00104719
0.00104716
0.0150671
0.00898989
0.0100234
0.00812642
0.00348161
0.00297906
0.00222558
0.00138969
0.00112788
0.00106285
0.00105007
0.00104762
0.00104726
0.00104717
0.00104717
0.00104711
0.00104721
0.00104722
0.0010472
0.00104716
0.0137354
0.00217048
0.00302993
0.00317692
0.00400882
0.00214548
0.00148024
0.00113931
0.00106519
0.00104773
0.00104591
0.00104644
0.00104689
0.00104712
0.00104717
0.00104712
0.00104721
0.00104722
0.00104719
0.00104717
0.00223029
0.00121967
0.00112261
0.00118384
0.00139073
0.00113767
0.00107733
0.00105143
0.00104779
0.00104725
0.00104703
0.00104716
0.00104717
0.00104716
0.00104717
0.0010471
0.00104714
0.00104716
0.00104719
0.00104719
0.00163477
0.00338189
0.007354
0.00565139
0.0045435
0.00429441
0.00398473
0.00313092
0.00199107
0.00131893
0.00108825
0.00103237
0.00102071
0.00101826
0.00101733
0.00101723
0.00101699
0.0010173
0.00101741
0.00101798
0.00204756
0.0165816
0.0207434
0.0138156
0.0106784
0.0063497
0.00481625
0.00331882
0.00225025
0.00149918
0.00107607
0.000872895
0.00079421
0.000764436
0.000749877
0.000744052
0.000739962
0.000737626
0.000737479
0.000737761
0.00110636
0.00354883
0.0112753
0.0149676
0.0150972
0.0110315
0.00436595
0.00195157
0.00120092
0.000964539
0.000846212
0.000785165
0.000759147
0.000745812
0.000739899
0.00073662
0.000735052
0.000734154
0.000734632
0.000735988
0.0120077
0.0807236
0.0615285
0.0634931
0.024185
0.00929165
0.0039355
0.00143539
0.00113841
0.000889352
0.00085141
0.000777909
0.000763475
0.000745309
0.000741166
0.000736855
0.000735583
0.000734386
0.000734913
0.000736208
0.00909073
0.0484136
0.0409569
0.0381124
0.0211999
0.00563399
0.00452646
0.00159244
0.00113956
0.000872641
0.000817827
0.000766324
0.0007566
0.000743295
0.000740356
0.000736678
0.000735352
0.000734456
0.000734949
0.000736321
0.00382898
0.0398597
0.0401073
0.0518696
0.0165865
0.00320233
0.00620173
0.00248646
0.00179255
0.000973951
0.000887056
0.000779578
0.000764866
0.000745323
0.000741167
0.00073775
0.000736061
0.000734887
0.000735316
0.000736568
0.0121674
0.0380169
0.0392749
0.0244589
0.0148921
0.00489107
0.00445847
0.00209792
0.00262642
0.00130755
0.00109533
0.000847248
0.000793872
0.000755699
0.000745845
0.000739771
0.00073687
0.000735473
0.000735754
0.000736827
0.00567731
0.00951442
0.00983669
0.00559846
0.00244492
0.00319463
0.0023116
0.00515055
0.00623997
0.00522228
0.00221328
0.00138795
0.000979488
0.000850614
0.000771191
0.000755049
0.000745063
0.000738597
0.000737516
0.000737484
0.00644351
0.00344394
0.00271694
0.00222878
0.00173077
0.0018524
0.00193236
0.00141476
0.00371755
0.00248528
0.000970321
0.000939441
0.000855087
0.000844948
0.000810951
0.000770559
0.000758364
0.00074615
0.000741672
0.000739141
0.0175893
0.0184325
0.00742607
0.00248497
0.00168594
0.00149245
0.00135517
0.00147971
0.00230786
0.00106134
0.000812974
0.000773145
0.000754817
0.000745174
0.000744102
0.000743024
0.000738523
0.000736736
0.000736876
0.000737552
0.0285339
0.0158294
0.0190079
0.0043964
0.00278859
0.00431737
0.00742368
0.00413093
0.00237255
0.00124235
0.000814185
0.000761528
0.000750626
0.000751473
0.000746956
0.000742332
0.000739514
0.000736843
0.000736969
0.000737528
0.0102249
0.00551024
0.00362489
0.00793582
0.00693508
0.00989171
0.0156945
0.0101238
0.00362808
0.00179116
0.00094222
0.000785054
0.000766051
0.000757626
0.00076943
0.000772464
0.000758423
0.000745794
0.000741483
0.000739216
0.00994083
0.00685634
0.00548873
0.0275267
0.0195024
0.0161196
0.0118516
0.00840115
0.00415008
0.00183764
0.00132607
0.000935978
0.000825202
0.000782383
0.000757759
0.000747808
0.000742755
0.000738041
0.000737805
0.000737692
0.00689747
0.00535657
0.0107479
0.025386
0.0220345
0.0212687
0.0135379
0.00735103
0.00393658
0.00193463
0.00118315
0.000866675
0.000786989
0.000750963
0.000744386
0.000738621
0.000736935
0.00073563
0.000735994
0.000736985
0.0147249
0.0186362
0.0148415
0.01729
0.0212058
0.0207606
0.0105778
0.00414766
0.00270863
0.00213232
0.00133452
0.000912259
0.000783957
0.00075227
0.000742254
0.000737768
0.00073598
0.000734971
0.000735364
0.000736597
0.0148342
0.0527785
0.0327507
0.0259194
0.0120599
0.00589858
0.00383662
0.00256883
0.00209971
0.00182044
0.00110466
0.000842567
0.000765398
0.000747718
0.000739465
0.000736747
0.000735129
0.000734524
0.000734936
0.000736307
0.0318776
0.0605533
0.0401717
0.0254103
0.00675817
0.0049334
0.0026276
0.00221674
0.001499
0.00108392
0.000849
0.000786692
0.000752337
0.000744328
0.000738241
0.000736595
0.000735018
0.000734416
0.000734775
0.000736135
0.0138113
0.0204856
0.0219543
0.0680237
0.0436466
0.0160213
0.00535101
0.00246332
0.00133001
0.00098087
0.000829489
0.000781843
0.000753039
0.000744863
0.000738261
0.000736446
0.000734687
0.000734159
0.000734526
0.000735965
0.00941194
0.00545736
0.0165946
0.0289134
0.0230621
0.00755345
0.00345029
0.00152671
0.00110347
0.000885496
0.000808997
0.000772627
0.000752296
0.000747553
0.000740916
0.000740329
0.000737882
0.000737001
0.000736653
0.000737196
0.00148553
0.00117801
0.00142746
0.00136414
0.0016081
0.0012031
0.00115797
0.00105242
0.00102056
0.00101288
0.00100621
0.00101021
0.001011
0.00101423
0.00101518
0.00101666
0.00101704
0.00101758
0.00101774
0.00101809
0.00120045
0.00329599
0.00772839
0.00670378
0.00430171
0.00262081
0.00209244
0.00158958
0.00131964
0.00110258
0.00103467
0.00102037
0.00101802
0.00101758
0.00101715
0.00101716
0.00101698
0.00101729
0.00101741
0.00101798
0.00349478
0.0180349
0.021215
0.0275326
0.0155939
0.00532082
0.0036886
0.00191587
0.00165488
0.00107512
0.000958467
0.000834285
0.000785067
0.000761976
0.00074912
0.000743758
0.000739811
0.000737501
0.000737368
0.000737639
0.0016797
0.00373747
0.0125433
0.0237194
0.0253654
0.0132968
0.00488347
0.00183399
0.00112719
0.000899222
0.000818979
0.000774785
0.000755582
0.000744492
0.000739451
0.000736394
0.000734925
0.000734041
0.000734525
0.000735865
0.00607201
0.0364065
0.0562638
0.120859
0.0391285
0.0300775
0.0113571
0.00196217
0.00124128
0.000891041
0.000848854
0.000775967
0.000762624
0.000744907
0.000740982
0.000736718
0.000735472
0.000734273
0.000734805
0.000736085
0.0197705
0.0462089
0.0523744
0.078691
0.0335462
0.00979088
0.00564534
0.00195323
0.00121247
0.00089129
0.000820924
0.000766735
0.000756545
0.000743137
0.000740251
0.000736553
0.000735247
0.000734348
0.000734848
0.000736188
0.144971
0.165955
0.163096
0.214099
0.0635964
0.00424166
0.00687796
0.0025397
0.00177099
0.000971459
0.000885972
0.000778924
0.000764582
0.000745058
0.000741013
0.000737618
0.000735956
0.000734779
0.000735213
0.000736424
0.029469
0.0575012
0.0503095
0.032357
0.0357051
0.00835229
0.00715506
0.0022127
0.00274049
0.00130031
0.0011011
0.000848491
0.000794882
0.000756269
0.000745967
0.000739723
0.000736734
0.00073531
0.00073561
0.000736677
0.00884785
0.00816826
0.00704133
0.00994646
0.00990536
0.00538194
0.00833371
0.0101217
0.00717716
0.00551203
0.0021778
0.00138012
0.000970005
0.00084632
0.000771009
0.000754941
0.000744959
0.000738487
0.000737381
0.000737305
0.0142166
0.008204
0.00666674
0.00849587
0.00795555
0.00974666
0.00594259
0.00766219
0.00432229
0.00286187
0.000986838
0.000939768
0.000855077
0.000844829
0.00080932
0.00077088
0.000758343
0.00074605
0.000741528
0.000738946
0.0614731
0.0668401
0.0326001
0.00927152
0.00377758
0.00406569
0.00611941
0.00473785
0.00198453
0.00104007
0.000829752
0.000797633
0.000794362
0.000779847
0.000797177
0.000759578
0.000741308
0.000737008
0.000736875
0.000737375
0.0248849
0.0289885
0.114177
0.0205334
0.0070462
0.00564173
0.00596273
0.00410355
0.00256907
0.00131543
0.00107543
0.00115465
0.00116305
0.00146688
0.00097939
0.000760782
0.000743044
0.000737271
0.000737024
0.000737368
0.0214576
0.0204042
0.00778421
0.02078
0.0157214
0.0122736
0.015934
0.00965955
0.0036669
0.00208274
0.000943334
0.000783993
0.000767684
0.000758872
0.000769277
0.000772309
0.000758316
0.000745708
0.000741348
0.000739016
0.0601658
0.0195045
0.0105491
0.017133
0.0202544
0.0219558
0.0149819
0.00725547
0.00341146
0.00178262
0.00127647
0.000926126
0.000821009
0.000781137
0.00075742
0.000747705
0.000742669
0.000737917
0.000737652
0.000737507
0.0097547
0.00987529
0.0120372
0.0151363
0.0247364
0.024186
0.0131601
0.00552974
0.00271918
0.00147835
0.00103087
0.000828812
0.00077681
0.000748709
0.000743638
0.00073831
0.000736751
0.000735478
0.000735844
0.000736852
0.0105303
0.0172518
0.0201038
0.0649812
0.0416295
0.0156092
0.00761973
0.00647028
0.00416324
0.00211233
0.00115686
0.000856836
0.000772027
0.000749105
0.000741388
0.000737442
0.000735831
0.000734849
0.000735251
0.000736459
0.013846
0.0829656
0.059851
0.048475
0.0211404
0.00880706
0.00417077
0.00336792
0.0030317
0.00162397
0.000962819
0.000806063
0.000756977
0.000745498
0.000738803
0.000736471
0.000734984
0.000734397
0.000734822
0.00073617
0.0292215
0.0619098
0.049197
0.0319302
0.0127988
0.00974741
0.00457035
0.00247744
0.00142779
0.00102585
0.000832535
0.000781137
0.00075061
0.000743665
0.000737973
0.000736424
0.000734898
0.0007343
0.000734664
0.000735996
0.00356742
0.0125408
0.0160057
0.0651416
0.0441025
0.0131693
0.00507528
0.00208464
0.00118286
0.00093201
0.000812921
0.000776543
0.000751085
0.000744131
0.00073796
0.000736261
0.000734566
0.000734037
0.000734413
0.000735826
0.00496943
0.00531498
0.00992427
0.0375183
0.0110481
0.00531956
0.00487459
0.00181306
0.0011752
0.000887355
0.000806881
0.000771436
0.000751878
0.000747318
0.000740774
0.000740187
0.000737761
0.000736882
0.000736543
0.000737058
0.00126219
0.00142874
0.00170392
0.00204668
0.00173683
0.00130297
0.00135045
0.00109506
0.00102611
0.00101236
0.00100563
0.00100991
0.00101085
0.00101424
0.00101518
0.00101666
0.00101704
0.00101758
0.00101774
0.00101809
0.00135013
0.00291619
0.00577435
0.00693513
0.00509562
0.0018963
0.00123163
0.00107845
0.00104867
0.00102567
0.00101973
0.00101834
0.00101773
0.00101753
0.00101712
0.00101715
0.00101697
0.00101729
0.00101741
0.00101798
0.00499453
0.00969032
0.0201188
0.0887471
0.043742
0.0130585
0.00621273
0.00372625
0.00458911
0.0017621
0.000978627
0.000824575
0.000782346
0.000761534
0.000749742
0.000744543
0.000740622
0.000738795
0.000739089
0.000739724
0.00181327
0.00388076
0.0106216
0.0200757
0.0836276
0.0424294
0.0214879
0.00542582
0.00232148
0.00101263
0.0008217
0.000773193
0.000755671
0.000745095
0.000740341
0.000737272
0.000735893
0.00073521
0.000736343
0.000737957
0.00852092
0.0232217
0.0673846
0.0849481
0.0634611
0.077414
0.0478592
0.00712455
0.00466626
0.00114464
0.000895257
0.000777841
0.000763207
0.000745517
0.000741783
0.000737578
0.000736364
0.000735574
0.000736599
0.000738174
0.0314756
0.0735253
0.145075
0.22953
0.156684
0.0224556
0.0222383
0.0042789
0.00145976
0.000927352
0.000819954
0.000767368
0.000757185
0.000743992
0.000741287
0.000737773
0.000736661
0.000735741
0.000736969
0.000738065
0.146263
0.394412
0.299992
0.558853
0.258842
0.0299149
0.0374911
0.00610587
0.00263569
0.00106883
0.000935114
0.000788892
0.000773714
0.000752872
0.000747313
0.0007409
0.000738119
0.000735992
0.00073677
0.000737962
0.0231677
0.0527178
0.06093
0.090551
0.171219
0.0520964
0.0342272
0.00221056
0.00251876
0.00126729
0.00108459
0.000843049
0.000793202
0.000755608
0.000747192
0.000742419
0.000743478
0.00074185
0.0007424
0.000740666
0.00368168
0.0191165
0.0432643
0.0538759
0.0911589
0.0228823
0.016521
0.00926322
0.00644999
0.00538541
0.00212842
0.00136964
0.000966561
0.000845199
0.000777518
0.000756349
0.000745638
0.000739248
0.000738765
0.00073971
0.0313801
0.0231859
0.0560957
0.069127
0.0852463
0.0345494
0.0172355
0.0164095
0.00593095
0.00279243
0.000981925
0.000939247
0.000855102
0.000844898
0.000809787
0.000778197
0.000759288
0.000746546
0.000742214
0.000740852
0.0246863
0.0680626
0.115089
0.0191144
0.0121548
0.0285631
0.0197936
0.0244983
0.00555549
0.00105452
0.000825103
0.000777958
0.000774354
0.000761955
0.000755508
0.000747675
0.000739206
0.000737196
0.000737465
0.000739002
0.0199748
0.0287872
0.359988
0.0460896
0.0103096
0.00705781
0.00770571
0.00452348
0.00242212
0.00115587
0.000903466
0.000886576
0.00088039
0.000932713
0.000778941
0.000748173
0.000741077
0.000737362
0.000737556
0.000738617
0.0529481
0.115315
0.0345295
0.0658958
0.103709
0.0291573
0.0331286
0.0166166
0.00524432
0.00188688
0.000930989
0.00078408
0.000767643
0.000758435
0.000769289
0.000778271
0.000759331
0.000745816
0.000742631
0.000743439
0.0660592
0.0821594
0.0401872
0.0611471
0.122775
0.0905673
0.0458361
0.010986
0.00430578
0.00196574
0.00132281
0.0009305
0.000820738
0.000781065
0.000763642
0.000749623
0.000743306
0.000739407
0.000743738
0.000745438
0.0235528
0.0446794
0.0846665
0.0466769
0.0918519
0.0604024
0.0211731
0.00555717
0.00229125
0.0012485
0.000963859
0.00080995
0.00077333
0.000748278
0.000744568
0.000739783
0.000737969
0.000737549
0.00074041
0.000741528
0.0133755
0.0704931
0.107151
0.0930157
0.0421781
0.0190364
0.00859495
0.00504526
0.00290754
0.00157719
0.00101982
0.000832047
0.000769155
0.00074986
0.000742845
0.000738937
0.000737356
0.000736349
0.000738603
0.000739424
0.0144701
0.144081
0.321416
0.162554
0.0347454
0.011897
0.00671508
0.00407679
0.00236162
0.00125167
0.000897746
0.000796226
0.000757367
0.000746723
0.000740302
0.000737932
0.000736442
0.000735893
0.0007378
0.000739125
0.10732
0.358565
0.199561
0.0595495
0.0159866
0.0102141
0.00474815
0.00250513
0.00140996
0.00101959
0.000831976
0.000780838
0.000751946
0.000745029
0.000739622
0.000737972
0.000736501
0.000735866
0.000737723
0.000738811
0.00500643
0.0291317
0.0229605
0.0158164
0.0367918
0.024934
0.0240842
0.0094525
0.00362318
0.00135203
0.00085318
0.000780888
0.000752843
0.000745518
0.000739541
0.000737699
0.000736113
0.000735534
0.000737305
0.000738556
0.00481894
0.00493842
0.00307152
0.00294043
0.00391168
0.00628953
0.0290282
0.0106842
0.00669704
0.00224037
0.00136435
0.000900515
0.0007935
0.000754624
0.000743735
0.000741915
0.000739636
0.000738506
0.00073982
0.00073987
0.00115266
0.00146555
0.00147787
0.00150159
0.00141095
0.00119418
0.00200159
0.00135309
0.00130091
0.00105598
0.00101958
0.00101301
0.00101201
0.00101408
0.00101514
0.00101666
0.00101704
0.00101758
0.00101774
0.00101809
0.00274156
0.00250936
0.00284933
0.00646047
0.00791462
0.00419576
0.00193219
0.00128995
0.00108982
0.00103265
0.00102399
0.00102522
0.00103803
0.00104971
0.00109535
0.00109405
0.00112957
0.00109359
0.00109372
0.0010435
0.00359894
0.00349855
0.00480578
0.0214842
0.143322
0.0370003
0.009365
0.00589175
0.0278328
0.0223967
0.0487045
0.040276
0.0546638
0.0498081
0.0567792
0.054655
0.0581583
0.0576251
0.058716
0.0606653
0.00197217
0.00212394
0.00470524
0.0192458
0.359636
0.168399
0.162558
0.0623347
0.0862995
0.0546608
0.0717984
0.0563001
0.0652063
0.0574296
0.0621191
0.0588114
0.0613958
0.0602648
0.0609696
0.0621955
0.0153199
0.00971468
0.033055
0.0517707
0.149397
0.0803221
0.117976
0.0509583
0.0692485
0.0408477
0.0570014
0.0447143
0.0545567
0.0501883
0.0560219
0.0549447
0.0583566
0.0584629
0.0595552
0.0615955
0.0364763
0.0269691
0.0571954
0.137904
0.366145
0.136752
0.179312
0.0632229
0.0845277
0.0504849
0.0644472
0.0511221
0.06064
0.0552811
0.0609196
0.0590742
0.0620917
0.0615062
0.0622314
0.0635112
0.0786728
0.0633667
0.0631143
0.0820109
0.481747
0.293779
0.343978
0.0885901
0.0719754
0.0415764
0.0497861
0.0440839
0.0513218
0.0509476
0.0552559
0.0561946
0.0597609
0.060424
0.0613897
0.0632589
0.00513919
0.00712673
0.0168703
0.0321671
0.418639
0.191896
0.539379
0.114121
0.143198
0.0461331
0.0720591
0.0493951
0.0667737
0.0579255
0.062724
0.0606204
0.0634171
0.0635096
0.064104
0.0653567
0.0176757
0.0548698
0.0802357
0.0901808
0.385312
0.208416
0.031996
0.0794421
0.0178199
0.0143378
0.00308724
0.00975406
0.00234435
0.0176953
0.160116
0.0743634
0.0561845
0.0548202
0.05911
0.0645837
0.316697
0.0875324
0.0992112
0.0742362
0.236612
0.131024
0.0946896
0.0289135
0.0107054
0.00280221
0.000944594
0.000913287
0.000849991
0.000844537
0.195314
0.15989
0.0588877
0.0459912
0.051119
0.0635082
0.0637125
0.241234
0.337189
0.557639
0.233622
0.137417
0.0421485
0.0473664
0.00440111
0.00118755
0.000819244
0.00077034
0.000753277
0.000746226
0.00360211
0.171561
0.0620437
0.0481069
0.0528534
0.0648064
0.00767445
0.00828895
0.720737
0.804796
0.354754
0.0831025
0.0167255
0.0103455
0.00583708
0.00240978
0.000888785
0.000760876
0.000749521
0.000747537
0.00363478
0.184609
0.065495
0.0497161
0.0542296
0.0666732
0.0100982
1.22038
1.58158
0.694311
0.468433
0.165101
0.107745
0.0577901
0.0152871
0.0036365
0.000976573
0.000783819
0.000765324
0.000757157
0.00390603
0.195517
0.0692132
0.0517996
0.0558735
0.0682799
0.190651
1.05125
1.05338
0.386086
0.634306
0.419094
0.359298
0.130987
0.0384477
0.00592503
0.00688694
0.0026183
0.00273635
0.00170216
0.188679
0.0943158
0.070412
0.0672891
0.0699039
0.0744627
0.00951379
0.0325889
0.23252
0.129738
0.764696
0.419209
0.30077
0.138342
0.119513
0.10506
0.1065
0.0945274
0.0940988
0.0851432
0.0839434
0.0804423
0.0803623
0.0787768
0.0775762
0.0775179
0.00977373
0.104809
0.480971
0.205436
0.539494
0.225712
0.215814
0.137993
0.142637
0.124543
0.128335
0.114151
0.108677
0.0956407
0.0923744
0.0859933
0.0845782
0.0816524
0.0802101
0.0801871
0.01893
0.178536
1.15257
0.345568
0.455633
0.196809
0.189413
0.116712
0.147577
0.116002
0.123847
0.101604
0.101239
0.0894861
0.0891751
0.0839915
0.0838072
0.0815828
0.0806654
0.080819
0.0764606
0.679838
0.65191
0.3917
0.629526
0.262181
0.269328
0.128845
0.155679
0.107223
0.120525
0.0995967
0.103067
0.0925149
0.0926762
0.0872584
0.086529
0.0837449
0.0824298
0.0825506
0.00185267
0.00280989
0.00698775
0.00527688
0.172443
0.0967582
0.2108
0.104636
0.141538
0.0937874
0.111297
0.0894564
0.0969117
0.0863518
0.0893425
0.0842102
0.0850674
0.0827565
0.0822981
0.0827025
0.0041343
0.00369377
0.00281365
0.0016084
0.00167873
0.00539506
0.166848
0.0734305
0.123614
0.0778831
0.102563
0.0829545
0.0944867
0.0851971
0.0897287
0.0848871
0.08611
0.0837689
0.0833988
0.0837167
0.00138133
0.00129126
0.00123946
0.00119732
0.00113256
0.00111518
0.0012763
0.00141829
0.00470192
0.00274045
0.00353631
0.00206964
0.00198827
0.00141489
0.00133402
0.00114971
0.00112635
0.00107437
0.00106611
0.00104223
0.00085338
0.00117712
0.00109116
0.00103171
0.000854455
0.0011303
0.0010752
0.000799656
0.00111262
0.00122638
0.000830934
0.000800482
0.00111336
0.00124373
0.00107007
0.00204184
0.00105033
0.00124783
0.00105791
0.00186387
0.00102714
0.00118985
0.000911203
0.000775954
0.00106698
0.00118561
0.000899578
0.000774887
0.00122808
0.00146926
0.00117267
0.00161228
0.00135512
0.00152032
0.0013205
0.00114257
0.00114947
0.00115045
0.00131111
0.00137419
0.00128549
0.0013286
0.00117795
0.00116181
0.00122087
0.00159452
0.00286839
0.00153126
0.00163507
0.00122559
0.00123274
0.00121362
0.00291873
0.00111444
0.00133151
0.000877631
0.00122644
0.00120817
0.00120914
0.000989684
0.000876127
0.000825028
0.000778579
0.00122227
0.00120967
0.00120977
0.000935819
0.000873456
0.000772183
0.000755982
0.00122091
0.00120988
0.00120976
0.000854295
0.000827168
0.000753471
0.000748094
0.00124164
0.00120986
0.00129351
0.000844651
0.000826758
0.000747959
0.000744059
0.0011436
0.00125359
0.00119708
0.00125358
0.00123163
0.00160012
0.00182634
0.00116073
0.00117511
0.00116255
0.00125214
0.00138264
0.0018156
0.00188188
0.00122822
0.00116662
0.00118637
0.00157824
0.00152006
0.00187815
0.00157492
0.00121556
0.00121063
0.00121817
0.00128449
0.000883885
0.00133583
0.000910532
0.00120842
0.00121011
0.00120574
0.000833105
0.00077735
0.000847657
0.000775584
0.00120879
0.00120647
0.00120699
0.000771042
0.000757251
0.000768672
0.000757602
0.00120925
0.00120521
0.00120777
0.000753621
0.000746924
0.000757164
0.000753184
0.00129578
0.00120786
0.00129104
0.000746276
0.000742522
0.000753189
0.000750462
0.0013434
0.00414127
0.00292011
0.00325536
0.00317001
0.0149736
0.0138989
0.00116511
0.00212815
0.00123663
0.00255166
0.00185562
0.0113633
0.00372315
0.00118506
0.00118976
0.00117842
0.00187846
0.00181556
0.0026722
0.00199822
0.00121746
0.00118655
0.00121321
0.00149985
0.000903862
0.00195568
0.00116714
0.00120444
0.00120996
0.00120769
0.0008385
0.000768433
0.000970288
0.000781154
0.00120752
0.00120804
0.00120878
0.00076106
0.000750519
0.000767342
0.000751469
0.00120601
0.00120849
0.00120917
0.000749533
0.000749944
0.000749764
0.000746063
0.00129231
0.00120918
0.00129657
0.000748351
0.000745499
0.000745193
0.000742243
0.00316748
0.00620792
0.00360179
0.015443
0.0140549
0.0094339
0.00948808
0.00123723
0.00251177
0.00132096
0.0116675
0.00406307
0.00680427
0.00189691
0.00117547
0.00120141
0.00113772
0.00297284
0.00195395
0.00159403
0.00174832
0.00121236
0.0011356
0.00114957
0.00187123
0.00119771
0.00172932
0.00144194
0.00120867
0.0011446
0.00115156
0.00100017
0.00079952
0.00136892
0.000968781
0.00120986
0.00115472
0.00115863
0.00078666
0.000767503
0.000915805
0.000832024
0.00120986
0.00115668
0.00116347
0.000765536
0.000758728
0.000821826
0.00080866
0.00129142
0.00115828
0.00117751
0.000757155
0.00074652
0.000800044
0.000764637
0.00148503
0.00157064
0.00136439
0.00272716
0.00366399
0.00240555
0.004747
0.00365421
0.00135103
0.00360761
0.00581127
0.00510766
0.00564448
0.00433093
0.00257939
0.00381566
0.00134977
0.00412519
0.0027652
0.00329458
0.00124745
0.00107456
0.00111713
0.000837375
0.00266285
0.00108303
0.00107328
0.000838989
0.000878178
0.000805223
0.000778733
0.000973506
0.000878928
0.000808872
0.000783005
0.000875157
0.000773652
0.000756892
0.000939419
0.000875241
0.000777411
0.000760758
0.000827723
0.000754072
0.00074823
0.000855128
0.000827556
0.000758524
0.000752989
0.000829954
0.000748201
0.000743915
0.00084492
0.000830476
0.000752452
0.000747015
0.00135065
0.0029499
0.00381899
0.00311724
0.00488489
0.00515161
0.00427132
0.00274213
0.00338685
0.00243391
0.00460308
0.00244038
0.00367956
0.00257794
0.0011922
0.00223054
0.00132516
0.00180773
0.00111798
0.00236493
0.00136583
0.000842152
0.0011194
0.00086478
0.0010235
0.000846436
0.00115052
0.000930285
0.000778091
0.000825637
0.000780474
0.000823534
0.000783671
0.000912131
0.000935749
0.000759792
0.00077032
0.000763576
0.000777892
0.000776859
0.00093153
0.000957542
0.000746401
0.000763358
0.000765922
0.00077395
0.000764989
0.000950451
0.000945954
0.000741889
0.000765672
0.000755355
0.000762415
0.000748336
0.000933738
0.000907693
0.00513095
0.0158178
0.0121167
0.00643369
0.00485689
0.0141084
0.0114092
0.00249267
0.0101441
0.00444424
0.00420092
0.00271722
0.00934834
0.00521236
0.00157678
0.00321437
0.00209275
0.00257798
0.00159454
0.00409391
0.00240706
0.000856004
0.00186059
0.00105056
0.00126859
0.000916826
0.00195872
0.0010423
0.000766915
0.000914182
0.000777681
0.000899058
0.000903436
0.000908628
0.000776581
0.000751988
0.000766187
0.000752837
0.00088668
0.000873224
0.000765769
0.000752439
0.000750483
0.000751188
0.000746497
0.000878582
0.000945336
0.000751123
0.000748292
0.000749663
0.000745699
0.000742958
0.000936218
0.000865397
0.00074747
0.000743163
0.011388
0.0126273
0.0103379
0.0147823
0.0108393
0.0133538
0.0098151
0.00485933
0.00841399
0.00356245
0.00908386
0.00559703
0.00713277
0.00361418
0.0020224
0.00294736
0.00203019
0.00489278
0.00250755
0.00310359
0.00204988
0.00108489
0.00173521
0.00128046
0.00197363
0.00107876
0.00173699
0.00126536
0.000794662
0.00120471
0.000937175
0.000937218
0.000794046
0.00118168
0.00092558
0.000768105
0.000902756
0.000827493
0.000784179
0.000769252
0.000897427
0.000825721
0.000759262
0.000816155
0.000806679
0.000767764
0.000759814
0.000814889
0.000806272
0.000747
0.000798048
0.000780531
0.00075804
0.0007469
0.000797252
0.000784176
0.00530723
0.00541181
0.0064109
0.0134252
0.0158101
0.0209584
0.011686
0.00552322
0.0058645
0.0046433
0.0141415
0.00676386
0.0099095
0.00970502
0.00297269
0.00410428
0.001384
0.00518562
0.00279967
0.00717748
0.00140574
0.00111097
0.00113523
0.000847173
0.00265795
0.00109598
0.00113025
0.000846605
0.000880001
0.000812879
0.000788002
0.000981036
0.000879799
0.000812609
0.000788181
0.000875203
0.00078272
0.000765117
0.000939704
0.000875179
0.000782935
0.000765147
0.000827568
0.000761338
0.000755753
0.000855048
0.000827549
0.000761405
0.000755986
0.000830376
0.000755066
0.000748712
0.00084482
0.000830381
0.000755375
0.000748878
0.00539139
0.00626644
0.00466004
0.0163554
0.0110854
0.00792898
0.00502272
0.00275142
0.00389179
0.00260961
0.0106807
0.00624782
0.00401088
0.00246715
0.00114414
0.0023384
0.00133177
0.00279824
0.00112993
0.00218536
0.00124769
0.000960566
0.000953955
0.0010568
0.0010348
0.000972443
0.000947011
0.00104643
0.0010216
0.000815274
0.000887127
0.000852115
0.000876852
0.000845377
0.000997055
0.000800474
0.00121772
0.00128593
0.000798248
0.000800934
0.00123737
0.00132744
0.000783048
0.00129716
0.00146959
0.000794852
0.000784059
0.00133728
0.00153387
0.000751739
0.00146778
0.00113572
0.000781054
0.000752649
0.00153518
0.00117691
0.00482998
0.0143636
0.012076
0.00576657
0.00472006
0.0214235
0.0177614
0.00270747
0.00959277
0.00435124
0.00376607
0.00244752
0.0139722
0.00570136
0.00152352
0.00342319
0.00247764
0.00229184
0.00138789
0.00420458
0.00223328
0.00122417
0.00117761
0.00145058
0.00131018
0.00119201
0.00108921
0.00147156
0.00089741
0.00108797
0.00086282
0.000972645
0.000824937
0.000967458
0.000917628
0.00113917
0.000766674
0.000754404
0.00114961
0.00114663
0.000766222
0.000754434
0.0014717
0.000752721
0.000750978
0.00117593
0.00152698
0.000752662
0.000750886
0.00109085
0.000750655
0.000746381
0.00152198
0.00110876
0.00075054
0.00074621
0.0116945
0.0164107
0.0100177
0.025294
0.0174392
0.0304279
0.0165818
0.00457726
0.00681562
0.00367747
0.0140541
0.00617599
0.009151
0.00502816
0.00254054
0.00318558
0.00212219
0.00459775
0.00227037
0.00404832
0.00233017
0.00109544
0.00180241
0.00127902
0.00189699
0.00107428
0.00192624
0.00132132
0.000794483
0.00118315
0.000926073
0.000934368
0.000793838
0.00120356
0.000930406
0.000769115
0.00089757
0.000826147
0.000783876
0.000769299
0.000899209