/*--------------------------------*- C++ -*----------------------------------*\
  =========                 |
  \\      /  F ield         | OpenFOAM: The Open Source CFD Toolbox
   \\    /   O peration     | Website:  https://openfoam.org
    \\  /    A nd           | Version:  10
     \\/     M anipulation  |
\*---------------------------------------------------------------------------*/
FoamFile
{
    format      ascii;
    class       volScalarField;
    location    "0.4";
    object      k_0;
}
// * * * * * * * * * * * * * * * * * * * * * * * * * * * * * * * * * * * * * //

dimensions      [0 2 -2 0 0 0 0];

internalField   nonuniform List<scalar> 
12920
(
0.00293812
0.00316416
0.00398403
0.00291803
0.00268252
0.00249385
0.00211965
0.00177279
0.00145317
0.00122058
0.00109752
0.00105579
0.00104804
0.00104706
0.00104692
0.00104693
0.00104678
0.00104678
0.00104675
0.00104682
0.00176831
0.00338985
0.00363707
0.00384123
0.00406638
0.00284411
0.00198251
0.00142236
0.00116288
0.00107911
0.00105485
0.00104808
0.00104708
0.00104702
0.00104701
0.00104702
0.00104688
0.0010469
0.00104681
0.00104684
0.0014875
0.00266211
0.00245669
0.0025394
0.00381318
0.00359945
0.0020296
0.00125909
0.00108597
0.0010547
0.00104837
0.00104726
0.00104709
0.00104707
0.00104707
0.00104704
0.00104683
0.00104682
0.00104673
0.00104682
0.00800093
0.0183241
0.00541673
0.00646412
0.00622895
0.00227999
0.00135151
0.00108956
0.00105327
0.00104825
0.00104723
0.00104707
0.00104703
0.001047
0.00104688
0.00104703
0.00104695
0.00104694
0.00104684
0.00104685
0.0131444
0.0111744
0.0067937
0.00541759
0.00467237
0.00161631
0.00120604
0.00107317
0.00105174
0.00104749
0.00104675
0.00104672
0.00104687
0.00104701
0.00104704
0.00104703
0.00104692
0.00104689
0.00104681
0.00104686
0.010899
0.00713096
0.00462017
0.00628483
0.00272987
0.00129945
0.00135151
0.00110009
0.00107515
0.0010499
0.00105086
0.00104763
0.00104687
0.00104687
0.00104682
0.00104694
0.00104698
0.0010469
0.00104686
0.00104686
0.00848865
0.00498896
0.00587037
0.00999478
0.00390115
0.00163823
0.0012225
0.00107122
0.00128438
0.00113665
0.00114121
0.0010681
0.00104254
0.00104135
0.00103922
0.00104143
0.00104436
0.00104612
0.00104666
0.00104687
0.00360667
0.00413327
0.00385331
0.00365817
0.00251165
0.00170217
0.0013905
0.00107801
0.00109274
0.00118212
0.00111419
0.0011006
0.00109642
0.00109679
0.000961458
0.000969267
0.000995399
0.00102426
0.00103828
0.00104467
0.00316311
0.00287228
0.00221306
0.00195798
0.00169774
0.00167509
0.00155994
0.0011579
0.0011413
0.00121268
0.00121731
0.00122443
0.00121811
0.00121529
0.00105228
0.000917192
0.000953427
0.00099599
0.00102385
0.00104006
0.00303431
0.00374046
0.00339704
0.00217625
0.00153633
0.00126784
0.00121704
0.00114342
0.00116745
0.00123644
0.00120805
0.00120855
0.00120852
0.00120912
0.000995316
0.000888695
0.000934819
0.00098664
0.00101995
0.00103893
0.00546549
0.0110833
0.0107542
0.00667218
0.00270075
0.00156086
0.00157168
0.00125283
0.00116462
0.00120659
0.00120922
0.00120427
0.00120657
0.00120587
0.000992111
0.000889085
0.000934901
0.000986361
0.00101976
0.00103887
0.00321307
0.00378197
0.00402775
0.00462178
0.00426043
0.00421087
0.00505719
0.00221728
0.00118986
0.00118153
0.00120871
0.00120879
0.00120923
0.00120946
0.00101131
0.00092505
0.000954697
0.000995728
0.00102368
0.00103998
0.00875409
0.00302834
0.00367142
0.0102558
0.0117778
0.00999427
0.00689565
0.0026257
0.00126105
0.00110167
0.00109594
0.00109301
0.00109049
0.00109299
0.000962487
0.000972248
0.00100015
0.00102575
0.00103884
0.00104481
0.0069042
0.00359458
0.00671477
0.0153752
0.01532
0.0136127
0.0085793
0.00438114
0.00203502
0.00129271
0.00109488
0.00105372
0.00104639
0.00104494
0.00104479
0.00104508
0.00104595
0.00104664
0.00104693
0.00104699
0.00952937
0.00816731
0.00680478
0.0108692
0.0127508
0.012018
0.00805235
0.00456123
0.00265827
0.00156878
0.00115593
0.00106242
0.00104885
0.00104726
0.00104709
0.00104708
0.00104708
0.00104709
0.00104706
0.00104702
0.00366534
0.00943359
0.00797151
0.0066289
0.00674884
0.00650471
0.00537413
0.00333266
0.00198264
0.0012605
0.001081
0.00105077
0.00104745
0.00104713
0.00104711
0.0010471
0.0010471
0.0010471
0.00104708
0.00104703
0.0248331
0.0160663
0.00955246
0.00521406
0.00403387
0.00321241
0.00242691
0.00150238
0.00118347
0.00107117
0.00105113
0.00104765
0.00104718
0.00104711
0.0010471
0.0010471
0.0010471
0.0010471
0.00104707
0.00104704
0.0154542
0.00881321
0.00986273
0.00793749
0.00346184
0.00297625
0.00222392
0.0013897
0.00112772
0.00106274
0.00104995
0.0010475
0.00104714
0.00104705
0.00104705
0.00104707
0.00104709
0.0010471
0.00104708
0.00104704
0.013984
0.00211293
0.00294252
0.00307181
0.00396384
0.00214388
0.00147919
0.00113945
0.00106507
0.00104764
0.0010458
0.00104632
0.00104677
0.001047
0.00104705
0.00104709
0.00104709
0.0010471
0.00104707
0.00104704
0.0019158
0.00121599
0.00111976
0.00117864
0.00138112
0.00113734
0.00107707
0.00105132
0.00104767
0.00104713
0.00104691
0.00104704
0.00104705
0.00104704
0.00104704
0.00104706
0.00104707
0.00104709
0.0010471
0.00104709
0.00166603
0.00338578
0.00733718
0.00561987
0.00453921
0.00429198
0.0039775
0.00311555
0.00197962
0.0013143
0.00108712
0.00103214
0.00102063
0.00101821
0.00101728
0.00101719
0.00101695
0.00101725
0.00101736
0.00101794
0.00196709
0.0164765
0.020623
0.0137726
0.0106581
0.00634726
0.00479889
0.0033045
0.00224251
0.00149376
0.00107425
0.000872213
0.000794315
0.000764702
0.0007503
0.00074448
0.000740436
0.000738094
0.000737968
0.00073825
0.00110804
0.00363924
0.0112109
0.014839
0.0149822
0.0109702
0.00434414
0.00194506
0.00120002
0.000963593
0.000846135
0.000785434
0.00075954
0.000746245
0.000740371
0.0007371
0.000735542
0.000734644
0.000735126
0.000736484
0.012674
0.0795215
0.0612681
0.063359
0.024316
0.00922318
0.00391235
0.00143403
0.00113854
0.000889636
0.000851518
0.000778343
0.00076387
0.000745783
0.000741641
0.000737348
0.000736073
0.000734881
0.000735407
0.000736705
0.00940381
0.0475173
0.0406506
0.0374392
0.0211107
0.00561867
0.00450188
0.00159377
0.00113948
0.000873127
0.000818007
0.00076682
0.000756981
0.000743789
0.000740807
0.000737174
0.000735838
0.00073495
0.000735443
0.000736817
0.00375517
0.0405399
0.0398222
0.0505906
0.0164467
0.00316624
0.00615398
0.00249244
0.00178753
0.000975268
0.000886955
0.000780142
0.000765257
0.00074583
0.000741638
0.000738251
0.000736551
0.000735383
0.000735809
0.000737065
0.0121721
0.0374671
0.0384682
0.0242002
0.014681
0.00487804
0.00443366
0.00209228
0.00260739
0.00131112
0.00109432
0.000848068
0.000794182
0.000756243
0.000746268
0.000740273
0.00073736
0.000735969
0.000736249
0.000737324
0.00542294
0.00925029
0.00958554
0.00561082
0.0024378
0.00316662
0.00230594
0.00516646
0.0062052
0.00517328
0.00221365
0.00138176
0.000978834
0.000850028
0.000771689
0.000755561
0.000745572
0.000739096
0.00073801
0.000737981
0.00674166
0.00341204
0.00271258
0.00223024
0.00172892
0.00184449
0.00192973
0.0014073
0.00371362
0.0024653
0.000971247
0.000936491
0.000855363
0.000844081
0.000811506
0.000771092
0.000758892
0.000746661
0.000742176
0.000739638
0.016174
0.0176605
0.00707522
0.00246511
0.00168562
0.00149407
0.0013558
0.00148498
0.00230509
0.00106204
0.000813503
0.000773613
0.000755325
0.000745669
0.000744591
0.000743524
0.000739024
0.000737233
0.000737373
0.000738049
0.0304328
0.0155188
0.0179862
0.00430751
0.00277166
0.00427827
0.00737775
0.00410964
0.00237247
0.00124228
0.000814678
0.000762054
0.000751123
0.00075199
0.000747453
0.000742822
0.000740015
0.000737339
0.000737466
0.000738024
0.0104755
0.00543541
0.00358188
0.00796375
0.00695853
0.00974319
0.0156607
0.0101244
0.00362209
0.00179127
0.000942952
0.000785473
0.000766408
0.000758025
0.000769462
0.000772989
0.000758951
0.000746306
0.000741989
0.000739714
0.0100817
0.0068334
0.00545514
0.0274709
0.0195219
0.0160478
0.0118143
0.0084319
0.00415118
0.00183801
0.00132556
0.000936309
0.000825395
0.00078267
0.000758245
0.000748313
0.000743265
0.00073854
0.000738303
0.00073819
0.00637669
0.00526579
0.0106382
0.0251745
0.0219742
0.0211754
0.0134942
0.00732353
0.00392559
0.00193155
0.00118204
0.000866917
0.00078738
0.00075145
0.000744849
0.00073912
0.000737432
0.000736126
0.000736489
0.000737483
0.0142998
0.0181566
0.0145949
0.01715
0.0211216
0.0204958
0.010393
0.0041092
0.00269736
0.00212536
0.00133061
0.000911899
0.00078435
0.000752734
0.000742747
0.000738262
0.000736478
0.000735466
0.000735858
0.000737093
0.0142035
0.0514737
0.0321752
0.0253171
0.0118453
0.0058319
0.00379803
0.00255508
0.00209494
0.00181352
0.00110176
0.000842262
0.000765798
0.000748154
0.00073996
0.000737235
0.000735624
0.000735017
0.00073543
0.000736803
0.0321373
0.0602024
0.0396188
0.0251173
0.00677157
0.00490888
0.00262533
0.00221545
0.00149499
0.00108244
0.000848892
0.000786947
0.00075281
0.000744797
0.000738737
0.000737088
0.000735513
0.00073491
0.000735269
0.00073663
0.0137076
0.0197871
0.0215222
0.0671613
0.0431537
0.0160003
0.00535595
0.00246308
0.00133051
0.000981312
0.00082986
0.000782266
0.000753519
0.000745345
0.000738753
0.000736938
0.00073518
0.000734652
0.00073502
0.000736461
0.00911758
0.005242
0.0158628
0.027981
0.0228175
0.00756812
0.00344555
0.00152822
0.00110348
0.000886156
0.000809289
0.000773125
0.000752737
0.000748041
0.000741397
0.000740814
0.00073837
0.000737485
0.000737145
0.000737686
0.00145375
0.00117337
0.00141274
0.00133687
0.00159199
0.00120131
0.00115647
0.00105249
0.00102049
0.00101288
0.00100628
0.00101018
0.00101102
0.00101419
0.00101515
0.00101665
0.001017
0.00101753
0.00101769
0.00101805
0.00121662
0.00334452
0.00774296
0.00668466
0.00428075
0.00261475
0.00208921
0.00158642
0.0013162
0.0011013
0.0010343
0.00102029
0.00101797
0.00101754
0.0010171
0.00101712
0.00101693
0.00101724
0.00101736
0.00101794
0.00354983
0.0178305
0.0211239
0.0271388
0.0154482
0.00530017
0.00367905
0.00190913
0.00164923
0.00107466
0.000957391
0.000834165
0.000785278
0.000762277
0.000749553
0.000744188
0.000740286
0.000737971
0.000737857
0.000738129
0.00167786
0.00375829
0.0125677
0.0235805
0.0250546
0.0131605
0.00483214
0.0018285
0.00112667
0.000899282
0.000819262
0.000775151
0.000756005
0.000744937
0.000739927
0.000736876
0.000735416
0.000734532
0.00073502
0.000736363
0.00568073
0.0348799
0.0555355
0.120838
0.0390743
0.0296795
0.0112472
0.00196224
0.00124061
0.000891523
0.000849021
0.000776436
0.000763031
0.000745384
0.000741459
0.000737211
0.000735963
0.000734767
0.0007353
0.000736584
0.0199584
0.0450544
0.0511196
0.0771776
0.0331328
0.00969136
0.00560959
0.00195277
0.00121267
0.000891817
0.000821136
0.000767231
0.00075693
0.000743632
0.000740703
0.000737049
0.000735734
0.000734843
0.000735342
0.000736687
0.139414
0.169658
0.161181
0.209389
0.0627526
0.0041744
0.00681687
0.00254435
0.00176628
0.000972643
0.000885874
0.000779489
0.000764976
0.000745566
0.000741485
0.000738119
0.000736447
0.000735276
0.000735707
0.000736923
0.0280909
0.0550148
0.0491962
0.0313554
0.0348181
0.00825348
0.00708542
0.00220543
0.00271952
0.00130393
0.00110003
0.000849315
0.00079519
0.000756797
0.00074639
0.000740225
0.000737224
0.000735807
0.000736105
0.000737176
0.00828466
0.0079692
0.00695624
0.00988891
0.00985059
0.00534687
0.00811869
0.0102746
0.00714542
0.00545857
0.00217869
0.00137408
0.000969401
0.000845878
0.000771509
0.000755454
0.000745469
0.000738987
0.000737876
0.000737804
0.0152177
0.00826096
0.00657079
0.00850513
0.00791107
0.00978768
0.005949
0.00757679
0.00432476
0.00283703
0.000987847
0.000936817
0.000855356
0.000843959
0.000809866
0.000771407
0.000758872
0.000746562
0.000742034
0.000739445
0.0636067
0.0655077
0.0305533
0.00921996
0.00378746
0.00406377
0.00610699
0.00474551
0.00198764
0.00104089
0.000830198
0.000798029
0.000794821
0.000780319
0.000797741
0.000760091
0.000741813
0.000737505
0.000737373
0.000737873
0.0224415
0.0280531
0.110025
0.0205507
0.00712452
0.00561261
0.00593119
0.00410134
0.00256914
0.00130997
0.00107534
0.00115136
0.00116398
0.00146799
0.000980282
0.000761294
0.000743554
0.000737768
0.000737522
0.000737865
0.0223017
0.0203328
0.00746004
0.0206501
0.0156874
0.0121576
0.0158975
0.00965765
0.00366248
0.00208206
0.000944104
0.000784409
0.000768059
0.000759282
0.000769313
0.000772831
0.000758844
0.000746221
0.000741855
0.000739516
0.0535506
0.0194146
0.0105849
0.0169123
0.0199664
0.0217396
0.0149165
0.00728348
0.00341559
0.00178376
0.00127653
0.000926567
0.000821244
0.000781431
0.000757912
0.00074821
0.00074318
0.000738416
0.00073815
0.000738007
0.00816087
0.00960989
0.0118163
0.0150387
0.0245526
0.024032
0.0130871
0.00551077
0.00271687
0.00147717
0.00103066
0.000829264
0.000777262
0.00074921
0.00074411
0.000738811
0.000737249
0.000735974
0.00073634
0.000737351
0.0101193
0.0166741
0.019651
0.0639983
0.0415051
0.0154917
0.00756937
0.00643498
0.00415049
0.00210663
0.00115524
0.00085705
0.000772493
0.000749594
0.000741887
0.000737938
0.00073633
0.000735344
0.000735746
0.000736958
0.0123636
0.080484
0.0590695
0.0479966
0.0210227
0.00871095
0.00415085
0.00336423
0.00301602
0.00161616
0.000961694
0.000806216
0.000757461
0.000745956
0.000739304
0.000736961
0.00073548
0.000734891
0.000735317
0.000736669
0.0280354
0.0604899
0.0481668
0.0316937
0.01271
0.00970056
0.00456254
0.00247386
0.00142548
0.00102575
0.000832827
0.000781513
0.000751109
0.000744144
0.000738472
0.000736918
0.000735394
0.000734794
0.000735159
0.000736494
0.0032347
0.0123109
0.0158576
0.0645822
0.0435531
0.0131167
0.00505951
0.00208343
0.00118307
0.000932498
0.000813356
0.000776982
0.000751576
0.000744616
0.000738454
0.000736755
0.00073506
0.000734532
0.000734908
0.000736324
0.00485356
0.00520592
0.00957353
0.0372525
0.0111005
0.00529528
0.00482963
0.00181361
0.00117383
0.000887954
0.000807155
0.000771933
0.000752319
0.000747807
0.000741255
0.000740673
0.000738249
0.000737366
0.000737036
0.000737551
0.00124425
0.00143136
0.00169113
0.00201531
0.00173182
0.00130168
0.00134528
0.00109523
0.00102593
0.00101237
0.00100571
0.00100989
0.00101086
0.0010142
0.00101516
0.00101664
0.00101699
0.00101753
0.00101769
0.00101804
0.00139116
0.0029163
0.00579403
0.00692375
0.00503578
0.00188193
0.00122925
0.00107816
0.00104824
0.00102552
0.00101965
0.00101829
0.00101769
0.00101748
0.00101708
0.0010171
0.00101692
0.00101724
0.00101736
0.00101794
0.00496306
0.0093196
0.0197367
0.0864142
0.0428989
0.01294
0.0061811
0.00370533
0.0045398
0.00175863
0.000978394
0.000824653
0.000782594
0.000761845
0.000750168
0.000744965
0.000741087
0.000739254
0.000739554
0.000740199
0.00179523
0.0038366
0.0104982
0.0198479
0.0816941
0.0416236
0.0210541
0.00537106
0.00229018
0.00101137
0.000821969
0.000773572
0.00075609
0.000745532
0.000740806
0.000737743
0.000736373
0.000735688
0.000736805
0.000738439
0.00786683
0.0226143
0.0658023
0.0824182
0.0626333
0.0763671
0.04747
0.00709811
0.00462022
0.00114629
0.000894982
0.000778324
0.000763608
0.000745987
0.000742249
0.000738062
0.000736845
0.000736054
0.000737066
0.000738656
0.0294093
0.0718347
0.141692
0.224549
0.154766
0.022249
0.0218657
0.00427033
0.00145905
0.0009273
0.000820229
0.000767846
0.000757566
0.000744476
0.000741728
0.000738256
0.000737137
0.000736204
0.000737422
0.000738546
0.14112
0.378325
0.296832
0.548192
0.256911
0.0292119
0.0369187
0.00612653
0.00263077
0.00107042
0.000935051
0.000789492
0.000774102
0.000753315
0.000747738
0.000741361
0.000738599
0.000736468
0.00073724
0.000738444
0.0204398
0.0514548
0.0597105
0.088306
0.168015
0.0515454
0.0335927
0.00221152
0.0024982
0.00127189
0.00108345
0.00084391
0.00079351
0.000756134
0.000747603
0.000742906
0.00074392
0.000742287
0.000742807
0.000741146
0.0035222
0.0185195
0.0426365
0.0527897
0.0901267
0.0227729
0.0162573
0.00947284
0.00641527
0.00533441
0.00212908
0.00136376
0.000965946
0.000844763
0.000777927
0.000756846
0.000746138
0.000739737
0.000739248
0.000740191
0.0312105
0.0228109
0.0554206
0.0681817
0.0846661
0.0347292
0.0170468
0.0162376
0.00592025
0.0027686
0.000982901
0.000936309
0.000855378
0.000844028
0.000810371
0.00077867
0.000759808
0.00074705
0.000742709
0.000741339
0.0238704
0.0657537
0.11303
0.0191156
0.0120993
0.0281154
0.0196587
0.0243715
0.0055337
0.00105548
0.000825607
0.00077842
0.000774813
0.00076244
0.000756014
0.000748141
0.000739693
0.000737685
0.000737953
0.000739483
0.0174468
0.0264569
0.354107
0.0457707
0.0102921
0.00697525
0.00765736
0.00452827
0.00242372
0.00115206
0.000903603
0.000886945
0.000881036
0.000933381
0.000779503
0.00074858
0.000741539
0.000737849
0.000738044
0.000739101
0.0491766
0.114383
0.0329356
0.0642518
0.103081
0.0291854
0.0330202
0.0165613
0.00522699
0.00188721
0.000931722
0.000784495
0.000768013
0.000758835
0.000769328
0.000778691
0.000759847
0.000746318
0.000743124
0.000743916
0.0588154
0.0808145
0.039913
0.0593072
0.120337
0.0894192
0.0456308
0.0110307
0.00430926
0.00196754
0.00132312
0.000930957
0.00082099
0.000781361
0.000764037
0.000750103
0.000743801
0.00073989
0.0007442
0.000745898
0.0227946
0.0426306
0.0818645
0.046337
0.0893406
0.0597273
0.0210396
0.00555762
0.00229322
0.00124947
0.000964048
0.000810488
0.000773772
0.000748767
0.000745018
0.000740267
0.000738448
0.00073799
0.000740891
0.000741943
0.012228
0.0685068
0.106812
0.0930365
0.0422567
0.0189578
0.0085682
0.00504442
0.00290296
0.00157564
0.0010195
0.000832397
0.000769612
0.000750329
0.000743321
0.000739414
0.000737835
0.00073682
0.000738917
0.000739906
0.0134971
0.140536
0.318848
0.161879
0.0346718
0.0118748
0.00670853
0.00406723
0.00235042
0.00125011
0.000897513
0.000796519
0.000757832
0.000747164
0.000740782
0.000738403
0.000736918
0.000736368
0.000738214
0.000739607
0.1015
0.345854
0.19612
0.058745
0.0159637
0.0101206
0.00474255
0.00250624
0.00140944
0.00101992
0.000832343
0.000781219
0.000752417
0.000745488
0.000740097
0.000738445
0.000736977
0.000736341
0.0007381
0.000739292
0.00540264
0.0274211
0.0224149
0.0156154
0.0364491
0.0248161
0.0238581
0.00940915
0.00359743
0.00135045
0.000853732
0.00078133
0.00075331
0.000745983
0.000740015
0.000738172
0.000736587
0.000736009
0.000737685
0.000739036
0.0048386
0.00476396
0.00302813
0.00294662
0.00387887
0.00614455
0.0286121
0.0106654
0.00663955
0.00223559
0.00135989
0.000900507
0.000793651
0.000755064
0.000744185
0.000742379
0.000740104
0.000738969
0.000740191
0.000740345
0.00113207
0.00146571
0.0014708
0.00149847
0.00140797
0.00119008
0.00197963
0.00135228
0.00129503
0.00105581
0.00101934
0.00101297
0.001012
0.00101403
0.00101512
0.00101665
0.001017
0.00101753
0.00101769
0.00101804
0.00275085
0.00249325
0.00285891
0.00649077
0.0078112
0.00411894
0.00191281
0.00128612
0.00108903
0.00103253
0.00102394
0.00102518
0.00103799
0.00104965
0.00109531
0.00109398
0.00112955
0.00109353
0.0010937
0.00104344
0.00345392
0.00339122
0.00482768
0.0217181
0.141216
0.0362223
0.00931317
0.00588556
0.0278095
0.0223564
0.0488633
0.0403962
0.0548402
0.0499659
0.0569635
0.0548297
0.0583483
0.0578122
0.0589024
0.0608639
0.00193604
0.00210629
0.004777
0.019494
0.357972
0.166494
0.162058
0.062272
0.0864417
0.0547322
0.0719836
0.0564451
0.0654036
0.0576022
0.0623216
0.058999
0.0615999
0.0604619
0.0611677
0.0624009
0.0146799
0.00931819
0.0333389
0.0516682
0.146926
0.0792955
0.117635
0.0503533
0.0693732
0.0406888
0.0571332
0.0447601
0.0547138
0.050317
0.0561988
0.0551121
0.0585464
0.0586516
0.059746
0.0617981
0.034372
0.0255311
0.0581973
0.137141
0.366008
0.133655
0.179334
0.0628983
0.0847396
0.0504492
0.0646469
0.0512143
0.060837
0.0554366
0.0611219
0.0592628
0.0623002
0.0617099
0.0624357
0.0637233
0.0683263
0.0577714
0.0616692
0.0812093
0.48107
0.283369
0.34384
0.0873888
0.0721318
0.0414333
0.0499192
0.0441384
0.0514739
0.0510835
0.055429
0.0563677
0.0599566
0.060622
0.0615891
0.0634699
0.00462021
0.00694269
0.0166799
0.0318954
0.418541
0.187362
0.535565
0.110604
0.141329
0.0455932
0.0719713
0.0493976
0.0668594
0.0580791
0.0629123
0.0608157
0.0636321
0.0637237
0.0643176
0.0655785
0.0173806
0.0532927
0.0781248
0.0865155
0.384887
0.200965
0.0306409
0.0781802
0.0158722
0.0140448
0.00311683
0.00959528
0.00223902
0.0175549
0.160442
0.0746081
0.0563496
0.0549873
0.0592969
0.0648023
0.294475
0.0848231
0.0977937
0.0715038
0.236399
0.130063
0.0942383
0.0289079
0.0106782
0.00277826
0.000945574
0.000910164
0.000850085
0.000843219
0.195455
0.160386
0.0590562
0.0461111
0.0512635
0.063723
0.0602193
0.230258
0.334088
0.536039
0.233883
0.138415
0.0419714
0.0469845
0.00439022
0.00118852
0.000819807
0.000770819
0.000753778
0.000746712
0.00330671
0.172103
0.0622206
0.0482365
0.0530063
0.0650278
0.00668172
0.00786126
0.705043
0.762466
0.359728
0.0859232
0.0169124
0.010352
0.00583438
0.00240977
0.000889528
0.00076138
0.000750026
0.000748053
0.00336655
0.185205
0.065687
0.0498522
0.0543887
0.0669044
0.00959374
1.15095
1.55227
0.669492
0.463939
0.166345
0.107577
0.05759
0.0152281
0.00363635
0.000977495
0.000784238
0.000765681
0.000757556
0.00367341
0.196172
0.0694273
0.0519435
0.0560393
0.0685192
0.1786
0.968023
1.02564
0.371286
0.633215
0.418083
0.356853
0.131297
0.038226
0.00587407
0.00682398
0.00259131
0.00270781
0.0016774
0.189263
0.0946713
0.0706487
0.0675166
0.070145
0.0747322
0.0078772
0.0267059
0.226421
0.127568
0.765807
0.419397
0.300996
0.138437
0.119954
0.105262
0.106899
0.0948579
0.0944018
0.0854481
0.0842657
0.0807449
0.0806672
0.0790729
0.0778607
0.0778027
0.00855742
0.0943814
0.488784
0.19499
0.542671
0.222905
0.21686
0.13818
0.143452
0.125142
0.129013
0.114682
0.109156
0.0960364
0.0927509
0.0863303
0.0849079
0.0819666
0.0805096
0.0804869
0.0160168
0.165709
1.15847
0.340007
0.456367
0.19599
0.190538
0.117008
0.148451
0.116604
0.124426
0.102038
0.101667
0.0898371
0.0895338
0.0843144
0.0841331
0.0818957
0.0809678
0.0811223
0.0722324
0.65352
0.66158
0.371868
0.634722
0.260467
0.270796
0.129003
0.156288
0.107583
0.121029
0.0999883
0.103505
0.0928809
0.0930553
0.0876002
0.0868701
0.0840708
0.0827421
0.0828636
0.00173812
0.00283041
0.00709017
0.00526081
0.172197
0.0963756
0.2114
0.104486
0.142009
0.0939782
0.11174
0.089763
0.097311
0.0866754
0.0897031
0.0845325
0.0854013
0.0830756
0.0826099
0.0830165
0.00408362
0.00365559
0.00279404
0.00159562
0.00167636
0.00503837
0.167553
0.072746
0.124099
0.0779025
0.102977
0.0831974
0.0948761
0.0855076
0.0900904
0.0852113
0.0864479
0.0840937
0.0837155
0.0840365
0.00138403
0.0012898
0.0012379
0.00119686
0.00113226
0.00111499
0.00127608
0.00141
0.00462923
0.00273192
0.00348538
0.00206387
0.00196727
0.00141321
0.0013258
0.0011497
0.00112424
0.00107432
0.00106553
0.00104218
0.00085385
0.00117365
0.00109027
0.00103251
0.000854917
0.00112762
0.00107449
0.000799949
0.00111246
0.0012249
0.000831372
0.000800776
0.0011134
0.00124245
0.00107016
0.00204164
0.00105109
0.00124202
0.00105771
0.00186439
0.00102794
0.00118479
0.000911937
0.000776457
0.0010668
0.00118052
0.000900319
0.000775385
0.00122801
0.00146574
0.00117197
0.00161203
0.00135449
0.00151697
0.00131738
0.001142
0.00114893
0.0011498
0.00131007
0.00137362
0.00128338
0.00132765
0.00117712
0.00116104
0.00121986
0.00159683
0.00285225
0.00153072
0.00163458
0.0012253
0.00123176
0.00121301
0.00289908
0.0011192
0.00133305
0.000878365
0.00122568
0.00120782
0.00120853
0.00099063
0.000874897
0.000825659
0.000778825
0.00122154
0.00120907
0.00120936
0.000932897
0.000874364
0.000772625
0.00075649
0.00122009
0.00120938
0.00120945
0.000854538
0.000827051
0.000753864
0.000748543
0.00124173
0.00120938
0.00129458
0.000843746
0.000827322
0.000748373
0.000744473
0.001143
0.00125069
0.00119562
0.00125069
0.00123016
0.00159426
0.0018179
0.00116007
0.00117414
0.00116192
0.00125065
0.00138134
0.00180914
0.0018798
0.00122722
0.00116597
0.00118566
0.00157672
0.00151974
0.00187701
0.00157423
0.00121503
0.00120974
0.0012175
0.00128484
0.00088444
0.00133583
0.000911044
0.001208
0.00120961
0.00120548
0.000833664
0.000777786
0.000848239
0.000776086
0.00120853
0.00120626
0.00120682
0.00077152
0.00075776
0.000769192
0.000758128
0.00120904
0.00120501
0.00120756
0.000754122
0.000747426
0.000757676
0.000753695
0.00129702
0.00120766
0.00129219
0.000746763
0.000742968
0.000753699
0.000750983
0.00133937
0.00410613
0.00290493
0.00321981
0.00313014
0.0148552
0.0138554
0.00116449
0.00212105
0.00123592
0.00252832
0.00185171
0.0113233
0.00370941
0.00118437
0.00118917
0.0011777
0.00187558
0.00181398
0.00266343
0.00199683
0.00121676
0.00118575
0.00121249
0.00149912
0.000904352
0.00195536
0.00116792
0.00120415
0.00120933
0.0012071
0.000839009
0.000768861
0.000971113
0.000781691
0.00120733
0.0012077
0.00120834
0.000761551
0.000751028
0.000767865
0.000751973
0.00120585
0.00120829
0.00120878
0.000750039
0.00075045
0.000750241
0.000746564
0.00129345
0.00120901
0.00129741
0.000748869
0.000746017
0.000745675
0.000742722
0.00316086
0.00619395
0.00360487
0.0153228
0.0140253
0.00933592
0.00944912
0.00123679
0.00251604
0.00132195
0.0116372
0.00403894
0.00680968
0.00189535
0.00117482
0.00120114
0.00113711
0.0029557
0.0019484
0.00158968
0.00174423
0.00121166
0.00113526
0.00114898
0.00186874
0.00119822
0.00172604
0.00144182
0.00120806
0.00114459
0.00115086
0.00100097
0.000799909
0.00136459
0.00096903
0.0012093
0.00115435
0.00115795
0.000787083
0.000767962
0.000913785
0.00083214
0.00120946
0.00115638
0.00116273
0.000765887
0.000759133
0.000821652
0.000808112
0.00129215
0.001158
0.00117735
0.000757556
0.000746918
0.000799309
0.000764602
0.00148562
0.00156873
0.00136372
0.00272228
0.00366437
0.00240977
0.00475975
0.00365655
0.00135197
0.00361874
0.00576065
0.00509196
0.00563069
0.0043235
0.00255835
0.00379798
0.00135244
0.00412367
0.00274601
0.00329825
0.00124974
0.00107847
0.00111889
0.00083805
0.00263937
0.00108705
0.00107489
0.000839634
0.000876884
0.000805812
0.000778947
0.000974451
0.000877628
0.000809445
0.000783167
0.000876055
0.00077409
0.000757398
0.000936472
0.000876137
0.000777852
0.000761249
0.000827603
0.000754473
0.000748677
0.000855405
0.000827439
0.000758903
0.000753428
0.000830525
0.000748614
0.000744327
0.000844047
0.000831083
0.000752872
0.000747416
0.00135333
0.00293747
0.00381038
0.0031222
0.00488648
0.00513579
0.00427087
0.00273471
0.00338784
0.00243529
0.00460053
0.00244286
0.00368233
0.00257924
0.00119301
0.0022315
0.00132514
0.00180963
0.00111881
0.00236521
0.00136573
0.000842695
0.00111946
0.000865299
0.00102421
0.000846947
0.00114985
0.000930502
0.000778497
0.000826236
0.000780666
0.000824029
0.000784093
0.000912544
0.000933538
0.000760297
0.000770872
0.000764108
0.000778355
0.000777298
0.000931234
0.000958333
0.000746904
0.00076389
0.000766453
0.00077441
0.000765458
0.000951251
0.000946747
0.00074233
0.000766192
0.000755825
0.000762898
0.000748728
0.000934521
0.000908455
0.00509116
0.0158019
0.0121282
0.00641434
0.00484143
0.0140825
0.0114061
0.0024913
0.0101434
0.00443575
0.00419305
0.00271638
0.00935104
0.00520682
0.00157616
0.00320825
0.00209311
0.00257814
0.00159439
0.00408786
0.00240586
0.000856461
0.00186131
0.00105132
0.00126571
0.000917337
0.00195896
0.0010431
0.000767394
0.000914928
0.000778198
0.000899247
0.000900369
0.00090939
0.000777113
0.000752489
0.000766707
0.000753338
0.000887056
0.000873947
0.000766288
0.000752945
0.000750991
0.000751665
0.000746997
0.000879223
0.000945881
0.000751599
0.000748799
0.000750182
0.000746183
0.000743442
0.000936914
0.000866342
0.000747954
0.000743633
0.0114148
0.0124274
0.010344
0.0147564
0.010851
0.0131201
0.00982258
0.00484911
0.00843707
0.00357239
0.00909165
0.00559549
0.00716001
0.00362274
0.00202079
0.00294712
0.00203476
0.0048871
0.00250332
0.00310552
0.0020534
0.00108549
0.00173153
0.00128089
0.00197329
0.00107944
0.00173359
0.00126589
0.000795029
0.00120261
0.000936996
0.000937963
0.000794391
0.00117992
0.000925401
0.000768566
0.000900876
0.00082758
0.000784591
0.000769702
0.000895579
0.000825816
0.000759669
0.000816054
0.000806119
0.000768132
0.000760223
0.000814836
0.000805716
0.000747366
0.000797413
0.000780677
0.000758442
0.000747264
0.00079665
0.000784352
0.00530846
0.00543305
0.00642646
0.0132445
0.0156212
0.0209058
0.0117711
0.00550787
0.00586296
0.00464206
0.0139882
0.00673621
0.00998062
0.00967001
0.00295126
0.00410702
0.00138811
0.00518205
0.00277846
0.0071452
0.00140999
0.00111535
0.00113744
0.000847846
0.00263492
0.00110011
0.00113252
0.000847267
0.000878703
0.000813458
0.000788065
0.00098201
0.000878502
0.000813182
0.000788244
0.000876099
0.000783149
0.000765583
0.000936755
0.000876075
0.000783362
0.000765612
0.000827448
0.000761747
0.00075617
0.000855327
0.00082743
0.000761814
0.000756402
0.000830984
0.00075549
0.000749101
0.000843951
0.000830987
0.000755797
0.000749266
0.00540265
0.00626435
0.00466149
0.0162932
0.0111599
0.00791121
0.00502138
0.00275672
0.0038959
0.00261041
0.010738
0.00622371
0.00401308
0.00246823
0.00114516
0.00233845
0.00133136
0.0027997
0.00113104
0.00218621
0.00124758
0.000960382
0.000954537
0.00105688
0.00103561
0.000972699
0.000947574
0.00104645
0.00102027
0.000815652
0.000887356
0.000852373
0.000876937
0.000845517
0.000996629
0.000800849
0.00121614
0.00128684
0.000798644
0.000801309
0.00123536
0.00132835
0.000783461
0.00129802
0.00147048
0.000795311
0.000784465
0.00133816
0.00153477
0.000751963
0.00146876
0.00113689
0.000781523
0.000752872
0.00153613
0.00117828
0.00482198
0.014297
0.0120606
0.00574239
0.00471676
0.0212354
0.0177055
0.00270712
0.00958768
0.00434813
0.00377
0.00244897
0.0139386
0.00569092
0.0015206
0.00342327
0.00247649
0.00229311
0.00138545
0.00419709
0.00223329
0.00121507
0.00117171
0.00144264
0.00130202
0.00118386
0.00108882
0.00146121
0.000895899
0.00108531
0.000863502
0.000972538
0.0008248
0.000967381
0.000917685
0.00114019
0.000767192
0.000754911
0.00114688
0.00114768
0.000766735
0.000754939
0.00147244
0.000753202
0.000751483
0.00117685
0.00152777
0.000753143
0.000751392
0.0010923
0.000751141
0.000746846
0.0015232
0.00111032
0.000751027
0.000746674
0.0116976
0.0161211
0.0100393
0.0251373
0.0174162
0.02975
0.0166484
0.00457042
0.00683775
0.00368458
0.0140316
0.00615824
0.0092103
0.00502263
0.00253692
0.00318835
0.00212338
0.00458479
0.00226833
0.00404688
0.0023329
0.00109612
0.00179856
0.00127961
0.00189717
0.001075
0.00192245
0.001322
0.000794799
0.0011817
0.00092586
0.000935121
0.000794159
0.00120225
0.000930218
0.000769561
0.000895735
0.000826235
0.000784292
0.000769744
0.000897393
0.000826488
0.00076101