/*--------------------------------*- C++ -*----------------------------------*\
  =========                 |
  \\      /  F ield         | OpenFOAM: The Open Source CFD Toolbox
   \\    /   O peration     | Website:  https://openfoam.org
    \\  /    A nd           | Version:  10
     \\/     M anipulation  |
\*---------------------------------------------------------------------------*/
FoamFile
{
    format      ascii;
    class       volScalarField;
    location    "0.4";
    object      omega;
}
// * * * * * * * * * * * * * * * * * * * * * * * * * * * * * * * * * * * * * //

dimensions      [0 0 -1 0 0 0 0];

internalField   nonuniform List<scalar> 
12920
(
0.241374
0.250487
0.281071
0.240547
0.230636
0.222377
0.205016
0.187493
0.169751
0.155574
0.147524
0.144692
0.14416
0.144093
0.144083
0.144084
0.144073
0.144074
0.144071
0.144076
0.187256
0.259266
0.268554
0.275988
0.283962
0.237481
0.198273
0.167942
0.151853
0.146281
0.144627
0.144163
0.144094
0.144089
0.144089
0.14409
0.14408
0.144081
0.144075
0.144078
0.171745
0.229757
0.220714
0.224399
0.274979
0.267161
0.200614
0.15801
0.146746
0.144617
0.144183
0.144106
0.144095
0.144093
0.144093
0.144091
0.144077
0.144076
0.14407
0.144076
0.398314
0.602792
0.327736
0.358023
0.351449
0.212629
0.163706
0.146988
0.144519
0.144174
0.144104
0.144093
0.144091
0.144088
0.14408
0.144091
0.144085
0.144084
0.144077
0.144078
0.510536
0.470725
0.367036
0.327762
0.304386
0.179026
0.154645
0.145878
0.144414
0.144122
0.144071
0.144069
0.144079
0.144089
0.144091
0.144091
0.144083
0.144081
0.144075
0.144079
0.464888
0.376036
0.30268
0.353022
0.232663
0.160522
0.163706
0.147697
0.146012
0.144287
0.144353
0.144132
0.144079
0.14408
0.144076
0.144084
0.144087
0.144081
0.144079
0.144078
0.410275
0.314529
0.341184
0.445187
0.278132
0.180237
0.155697
0.145745
0.159589
0.15013
0.150432
0.145533
0.143781
0.143699
0.143552
0.143705
0.143907
0.144028
0.144065
0.144079
0.267429
0.286287
0.276422
0.269332
0.22317
0.18372
0.332101
0.292413
0.294404
0.306207
0.297279
0.295461
0.294899
0.29495
0.138077
0.138636
0.140493
0.142515
0.143487
0.143928
0.250445
0.238654
0.209485
0.197042
0.183481
0.364505
0.703509
0.60611
0.601749
0.620281
0.621465
0.623278
0.621669
0.620948
0.288902
0.134861
0.137499
0.140534
0.142486
0.14361
0.245293
0.272344
0.259541
0.207735
0.174541
0.317116
0.621395
0.602308
0.608604
0.626342
0.619122
0.619231
0.619218
0.619371
0.280974
0.132749
0.13615
0.139873
0.142215
0.143532
0.329208
0.468803
0.461791
0.363739
0.231418
0.351858
0.706151
0.630467
0.607867
0.618775
0.619511
0.618158
0.618718
0.618536
0.280521
0.132778
0.136156
0.139854
0.142202
0.143528
0.252415
0.273851
0.282609
0.302733
0.290658
0.577925
1.26669
0.838737
0.614417
0.612267
0.619276
0.61929
0.619398
0.619456
0.283223
0.135437
0.13759
0.140516
0.142474
0.143604
0.41664
0.245052
0.269819
0.450963
0.483267
0.445175
0.739559
0.45636
0.316266
0.295605
0.294836
0.294441
0.294101
0.294438
0.138151
0.138849
0.140828
0.142619
0.143526
0.143938
0.370009
0.26698
0.364898
0.552161
0.551169
0.51955
0.41246
0.294747
0.200882
0.160105
0.147346
0.14455
0.144047
0.143947
0.143936
0.143956
0.144016
0.144063
0.144083
0.144087
0.434698
0.402434
0.367335
0.464252
0.502833
0.48817
0.399592
0.300744
0.229591
0.176375
0.151399
0.145146
0.144215
0.144106
0.144095
0.144094
0.144094
0.144094
0.144093
0.14409
0.269595
0.432508
0.397581
0.362557
0.365822
0.359145
0.326445
0.25707
0.198279
0.158098
0.146409
0.144348
0.144119
0.144097
0.144096
0.144095
0.144095
0.144095
0.144094
0.14409
0.701731
0.564435
0.435224
0.321546
0.282824
0.252389
0.219373
0.172602
0.153191
0.145742
0.144372
0.144133
0.1441
0.144096
0.144095
0.144095
0.144095
0.144095
0.144093
0.144091
0.553577
0.418045
0.442236
0.396732
0.262005
0.242935
0.209998
0.166003
0.149539
0.145167
0.144291
0.144123
0.144098
0.144092
0.144091
0.144093
0.144095
0.144095
0.144094
0.144091
0.526589
0.204691
0.241555
0.246804
0.280358
0.206185
0.171265
0.150315
0.145326
0.144132
0.144006
0.144042
0.144073
0.144088
0.144092
0.144095
0.144095
0.144095
0.144093
0.144091
0.194909
0.155282
0.149011
0.152878
0.16549
0.150176
0.146143
0.144385
0.144134
0.144097
0.144082
0.144091
0.144091
0.144091
0.144091
0.144092
0.144093
0.144095
0.144095
0.144094
0.0727037
0.103644
0.152574
0.13353
0.120007
0.116693
0.112336
0.0994221
0.0792514
0.0645747
0.0587292
0.057225
0.056905
0.0568374
0.0568114
0.0568088
0.0568021
0.0568106
0.0568137
0.0568298
1.88736
16.7127
20.4128
17.4184
16.9656
13.3047
9.26694
7.83732
5.89965
5.22236
5.07834
5.89321
6.64859
6.99603
7.23513
7.30855
7.38591
7.4063
7.44143
7.47574
10.2029
9.55373
10.4411
15.7067
20.5231
19.0374
12.9952
8.99925
7.5324
7.12827
7.19259
7.37324
7.49585
7.51769
7.52499
7.52066
7.51778
7.51514
7.51766
7.52322
5.20623
35.0592
32.6269
35.0993
27.4952
18.367
13.252
9.21227
8.81228
7.95488
7.90693
7.6563
7.62042
7.55402
7.54297
7.52611
7.52165
7.5167
7.51928
7.52434
10.529
27.5054
32.0009
31.1883
25.7324
15.4862
14.8745
9.8805
8.87842
7.98903
7.84091
7.6365
7.60742
7.55169
7.54194
7.52602
7.52109
7.51737
7.51976
7.52466
7.67168
27.2474
29.1806
28.7568
19.6516
12.2979
15.0927
10.7466
10.4422
8.28725
8.08321
7.67933
7.6362
7.55662
7.54325
7.53
7.52388
7.51903
7.52115
7.52531
9.67804
25.9407
26.5512
21.615
15.3943
10.7629
9.09392
9.43846
11.7016
9.14737
8.79527
7.94259
7.75855
7.60605
7.56595
7.53944
7.52596
7.51987
7.5218
7.52622
4.31325
13.9802
11.7707
7.01826
2.07175
3.85148
2.21864
11.6145
15.9258
16.4763
11.4564
9.68833
8.41923
7.96693
7.67061
7.60271
7.56046
7.53355
7.52886
7.52765
11.8444
3.83485
3.81238
1.96746
0.872111
1.3589
1.67467
1.34269
9.55734
11.8807
8.36495
8.3315
7.9966
7.96176
7.81665
7.66182
7.61384
7.56423
7.54548
7.53375
11.6674
16.5526
7.60349
1.88936
0.784518
0.922678
1.02771
1.73667
7.51375
8.52962
7.82338
7.67942
7.60319
7.56265
7.55736
7.55351
7.53513
7.52714
7.52771
7.5293
12.6153
16.2621
8.1649
1.97831
1.59362
5.81802
12.4008
9.53798
10.1122
9.09108
7.82198
7.62962
7.58467
7.58768
7.56858
7.55027
7.53907
7.52746
7.52813
7.52952
5.05177
3.57306
0.872287
9.47084
15.7141
19.3351
23.1863
20.4803
13.4123
10.5313
8.22055
7.71851
7.64552
7.61194
7.65597
7.67104
7.6146
7.56326
7.5446
7.53382
16.1249
7.98939
5.93102
23.3335
22.8931
20.4784
19.258
17.5343
12.4256
9.74132
9.16584
8.20454
7.84841
7.70845
7.61378
7.57291
7.55174
7.53113
7.52959
7.52849
6.58378
6.18016
13.5297
23.1923
22.4719
21.585
18.4199
10.9067
8.39366
6.84919
7.09277
7.23394
7.44591
7.49839
7.53189
7.52915
7.5261
7.52139
7.52311
7.5276
18.2901
16.5508
15.2144
18.1455
19.7973
17.0974
8.85048
3.23792
2.26632
3.54697
6.09805
7.10243
7.44294
7.51379
7.52898
7.52645
7.52304
7.51949
7.52154
7.52592
11.9631
29.4696
23.793
21.5056
10.3349
3.65602
1.26431
0.949786
1.42648
5.09754
6.62134
7.29086
7.44572
7.51629
7.52281
7.52284
7.51942
7.51749
7.5197
7.52476
20.9976
32.1545
25.3963
17.8661
3.41834
3.41991
1.58845
2.85308
4.61438
6.65795
7.13794
7.45887
7.5113
7.53375
7.52897
7.5249
7.51968
7.51736
7.51913
7.52401
12.6656
17.5996
18.3516
34.4873
26.8138
19.7071
11.0258
9.14162
7.55716
7.54047
7.4801
7.53493
7.53678
7.5397
7.52769
7.52254
7.51741
7.51551
7.51759
7.52315
1.95559
8.27308
15.6018
24.7495
23.6894
14.9662
11.5795
8.94156
8.36675
7.77911
7.65765
7.47736
7.46497
7.4075
7.42211
7.40718
7.42603
7.42982
7.45689
7.48803
0.0679142
0.0610145
0.0669493
0.0651269
0.0710699
0.0617367
0.0605735
0.0577861
0.0569011
0.0566884
0.0565034
0.0566129
0.0566363
0.056725
0.056752
0.0567937
0.0568035
0.0568186
0.056823
0.0568328
0.0621287
0.103011
0.156736
0.145631
0.11654
0.0910816
0.0814155
0.0709455
0.0646214
0.0591109
0.0572847
0.0568955
0.0568307
0.0568186
0.0568065
0.0568069
0.0568017
0.0568104
0.0568136
0.0568297
6.54342
21.2623
23.1431
25.0639
18.9381
10.7153
6.84761
5.09821
4.59813
4.68264
5.5327
6.20753
6.78383
7.04162
7.25084
7.31327
7.3872
7.40691
7.44143
7.4763
10.4208
11.389
16.092
23.7464
24.8704
21.1224
13.4003
9.15362
7.89294
7.54662
7.59959
7.5775
7.57227
7.54423
7.53334
7.52273
7.51829
7.5153
7.5177
7.52372
11.4712
23.9743
33.3881
46.4204
29.8229
27.8375
16.6189
9.68449
9.03256
8.05966
7.97066
7.68567
7.6352
7.56076
7.54512
7.52704
7.52198
7.51698
7.51939
7.52485
15.6502
29.5866
33.0362
38.8439
25.5093
18.6183
16.152
10.4132
9.03368
8.07131
7.85765
7.64704
7.60974
7.55353
7.54213
7.52641
7.52103
7.51732
7.51957
7.52528
52.1367
53.7767
50.5313
49.2459
27.7933
13.0639
16.8642
11.7013
10.671
8.33628
8.10449
7.69368
7.64268
7.56143
7.54524
7.53097
7.52404
7.51914
7.52111
7.52627
20.4634
29.9937
30.3629
23.5521
21.324
14.656
16.0122
11.345
12.2639
9.27549
8.81087
7.95442
7.76272
7.60757
7.566
7.53987
7.52726
7.52137
7.52277
7.52732
13.0872
13.9488
10.6007
10.7837
10.7616
10.814
14.8005
19.3734
18.3089
17.1163
11.5831
9.72048
8.43398
7.973
7.66748
7.60138
7.56009
7.53384
7.52992
7.52976
16.6534
11.8905
8.57321
8.71206
8.60651
12.4701
9.081
14.2961
14.6779
13.0734
8.44974
8.3312
7.997
7.96104
7.82164
7.66077
7.61257
7.56377
7.54663
7.53641
35.2865
37.9908
21.5973
8.1722
4.14455
6.42928
10.39
13.8922
10.7725
8.60827
7.89396
7.75305
7.70408
7.64717
7.45911
7.47022
7.51949
7.52504
7.52778
7.53049
17.7089
21.3525
32.4089
12.1204
8.16525
13.5949
16.6441
14.8628
12.3425
9.53349
5.76846
6.80022
7.62434
8.07812
7.24728
7.53394
7.53449
7.5278
7.52812
7.53022
16.642
15.6752
4.75455
21.4015
19.8408
20.7302
23.3024
20.1089
13.7276
11.345
8.26223
7.715
7.65237
7.61735
7.6599
7.67004
7.6132
7.5624
7.54588
7.53675
35.7519
18.5173
11.5519
18.8993
21.2037
21.275
20.3685
17.7222
13.4217
10.5573
9.32489
8.24445
7.86513
7.71208
7.61375
7.57227
7.55121
7.53184
7.53112
7.53072
14.7381
13.2479
15.3329
17.6326
22.3504
21.4329
17.5912
12.0516
10.5317
8.93127
8.35257
7.82687
7.6816
7.57533
7.55644
7.53409
7.52754
7.52216
7.52385
7.52809
15.5965
16.7199
17.5105
31.4205
26.1458
12.2314
7.70056
8.01577
8.6921
8.87399
8.41025
7.88314
7.65403
7.57655
7.54673
7.53029
7.52356
7.51948
7.5213
7.52645
15.1522
37.7477
31.1366
29.8243
18.5953
8.20391
3.5104
4.57893
7.74288
8.61421
8.12239
7.76883
7.60501
7.5635
7.53589
7.52624
7.51998
7.51759
7.51949
7.52523
18.6083
30.812
28.1122
24.4702
11.298
11.4474
8.43695
9.02925
8.68078
8.31738
7.83194
7.69516
7.58158
7.55591
7.53231
7.52605
7.51961
7.51719
7.51882
7.5245
10.2546
13.389
15.8672
33.3875
29.5219
18.813
13.0622
10.2119
8.72672
8.19099
7.80762
7.68372
7.58429
7.5561
7.5313
7.52408
7.51747
7.51549
7.51738
7.52366
3.82624
9.91242
12.1218
26.2742
14.9943
13.6744
12.4988
9.33925
8.61802
7.86497
7.70388
7.48926
7.46993
7.40745
7.42241
7.40761
7.42604
7.42976
7.45647
7.48856
0.0628303
0.0673892
0.0732493
0.0799625
0.0741254
0.0642639
0.0653315
0.0589478
0.0570525
0.0566741
0.0564874
0.0566046
0.0566319
0.0567252
0.0567521
0.0567936
0.0568035
0.0568185
0.056823
0.0568328
0.066436
0.0961904
0.135583
0.148213
0.126401
0.0772711
0.0624504
0.0584867
0.0576694
0.0570412
0.0568776
0.0568396
0.0568228
0.0568171
0.0568058
0.0568065
0.0568015
0.0568104
0.0568137
0.0568298
9.34523
17.0726
22.4293
42.2246
23.8487
12.6065
6.73203
6.38312
6.99767
5.76633
5.82062
6.32224
6.84534
7.06378
7.25943
7.31741
7.39037
7.41013
7.44489
7.4802
10.4871
12.8077
17.5968
24.3245
33.8865
27.8474
20.183
11.6429
8.79945
7.73575
7.64688
7.58329
7.57566
7.54684
7.53634
7.52563
7.52133
7.51853
7.52134
7.52766
13.4916
22.4069
35.9883
41.2363
34.144
39.255
31.1064
12.8125
10.7813
8.16928
7.98265
7.67999
7.63621
7.56265
7.54775
7.52976
7.52486
7.52019
7.52293
7.52875
17.6335
36.672
48.7397
60.2298
48.2289
21.4418
20.0913
11.2982
9.027
8.07416
7.83394
7.64605
7.61041
7.55603
7.54511
7.52959
7.52449
7.52081
7.52347
7.52918
42.8489
73.6558
66.7201
81.8395
59.603
20.876
22.6983
12.8772
10.9914
8.39736
8.13719
7.70371
7.65192
7.57001
7.55257
7.53583
7.52796
7.5224
7.52458
7.52985
20.5253
31.6299
33.3063
42.5894
46.3379
27.2656
22.0677
10.9306
11.9366
9.21704
8.77902
7.94189
7.75732
7.60638
7.56857
7.54441
7.53548
7.52907
7.53056
7.53302
11.9611
20.6419
27.5928
32.3911
34.8756
19.7046
23.6697
18.3679
17.5773
16.8934
11.4896
9.69374
8.42131
7.96861
7.67205
7.60383
7.56225
7.5365
7.53362
7.53453
22.6988
20.6514
30.0544
36.325
35.8136
27.1388
21.5797
24.3307
16.8406
12.865
8.43378
8.32918
7.99707
7.96125
7.81518
7.66373
7.61667
7.5658
7.54948
7.54121
18.4594
33.1832
37.1741
18.683
14.7935
26.1474
23.9863
28.8298
15.5623
8.64489
7.88045
7.69721
7.67689
7.62709
7.59898
7.55536
7.53515
7.52852
7.52984
7.53427
18.251
19.897
60.4193
25.5184
15.2731
17.1253
18.3143
15.0964
12.0191
8.90095
8.05192
7.85898
7.91091
7.9811
7.686
7.55233
7.53969
7.52889
7.53022
7.53392
26.7569
28.9921
15.6608
32.7226
37.0303
26.5753
29.6308
23.7592
15.6114
10.8468
8.22268
7.71561
7.65216
7.61536
7.65879
7.67324
7.61524
7.56371
7.54928
7.54412
28.8131
32.137
24.6614
31.623
39.9888
36.7366
30.5381
19.45
14.868
10.9599
9.47377
8.25846
7.86572
7.71168
7.61856
7.5753
7.55341
7.53579
7.53866
7.54001
25.1545
29.954
38.0373
31.7526
34.8851
28.5412
21.2663
13.0561
10.8998
8.90709
8.30652
7.79746
7.67339
7.57354
7.55902
7.53828
7.53153
7.52699
7.53018
7.53466
15.2028
31.7906
39.372
42.7887
28.0508
17.7969
12.9518
12.1101
10.6972
9.3798
8.3662
7.86375
7.65069
7.57895
7.55105
7.53474
7.52799
7.52381
7.52649
7.53183
13.6786
45.9318
61.1897
49.6595
21.3964
14.3882
10.2906
10.5349
10.156
8.88596
8.06123
7.75394
7.60826
7.56725
7.54044
7.53056
7.52431
7.52193
7.52453
7.53064
32.7667
66.189
46.9888
32.8743
15.193
15.6008
13.3209
11.081
9.24017
8.42585
7.86036
7.69757
7.58594
7.55984
7.53704
7.53057
7.52417
7.52165
7.52396
7.52985
11.5737
16.9494
18.7142
17.6344
20.3213
19.5186
19.2937
13.615
9.88221
8.39563
7.83292
7.68616
7.58862
7.5601
7.5359
7.5284
7.52193
7.51986
7.5224
7.52893
2.61142
4.53645
3.36883
4.54979
5.1403
9.05025
19.1318
13.8883
11.3742
8.70146
8.02863
7.5695
7.5014
7.41217
7.42719
7.41205
7.43075
7.43428
7.46186
7.4938
0.0599311
0.0681929
0.0683112
0.0689508
0.0668363
0.0614475
0.0792516
0.065501
0.0640997
0.0578772
0.0568688
0.0566909
0.0566639
0.0567208
0.0567511
0.0567937
0.0568036
0.0568185
0.056823
0.0568328
0.093422
0.0889403
0.0952392
0.143504
0.157425
0.114316
0.0779025
0.0638787
0.0587809
0.0572356
0.0569972
0.0570316
0.0573869
0.0577083
0.05895
0.0589142
0.0598642
0.0589022
0.0589066
0.0575373
10.3217
11.7146
13.6758
24.2876
43.1901
15.9454
5.9689
5.47553
17.203
19.3125
31.9485
31.1481
36.8538
36.2636
38.8143
38.4252
39.5668
39.4726
39.8351
40.3895
10.6369
11.7188
14.4281
21.9982
66.1938
49.2655
52.2601
34.5058
43.0479
36.5846
42.092
38.6151
41.4488
39.5154
40.8952
40.0094
40.7141
40.3988
40.5983
40.8818
18.1342
16.2668
21.7413
27.8366
48.2134
37.3419
48.4099
34.6363
41.3499
33.5948
39.2402
35.7715
38.9771
37.7206
39.425
39.0776
39.9829
39.969
40.2552
40.7375
22.3787
21.7196
26.1184
45.2401
74.1015
49.2311
58.8095
37.6466
44.7075
36.5402
41.0702
37.5997
40.4511
39.0046
40.5732
40.0533
40.8454
40.6729
40.8719
41.1753
31.9319
31.527
32.3318
36.4958
76.9201
71.6081
71.1849
40.2816
41.3044
34.1164
37.2305
35.7338
38.0174
37.9317
39.1588
39.371
40.2653
40.4205
40.6616
41.1119
13.177
14.6688
20.3895
27.8158
67.8479
51.5838
75.0654
43.9742
45.7123
33.446
38.7533
35.5838
39.3482
38.4685
40.0183
40.0767
41.0524
41.1189
41.286
41.5877
18.2128
36.3697
42.8359
44.6821
72.5697
57.1076
32.8221
41.7717
23.203
15.1501
14.2149
8.08351
9.51987
7.78996
39.2996
36.3968
36.5241
38.4178
40.3364
41.4526
95.4378
42.1358
45.2431
41.3016
61.2057
48.611
41.7151
29.7336
20.7877
12.885
8.44644
8.32025
7.99074
7.96129
7.76457
34.5937
32.3639
34.1596
38.5477
41.2616
27.3548
58.9326
71.7769
92.7555
61.1628
49.4015
31.8478
36.5452
13.786
8.96741
7.84647
7.66767
7.59709
7.56698
7.75732
35.1936
32.7394
34.6867
38.9627
41.5587
13.3733
13.5176
69.5251
102.681
64.7889
34.3146
21.7467
19.3851
16.3968
11.7238
8.04858
7.62626
7.58038
7.57191
7.79756
35.8988
33.1715
35.0296
39.3223
41.9981
12.9242
100.995
107.898
85.5988
80.2835
51.9692
45.7668
37.9865
23.2513
13.6
8.31007
7.71559
7.64363
7.61016
8.04336
37.3107
34.118
35.5885
39.7282
42.3843
45.83
108.063
99.69
64.8924
83.8221
72.3494
66.9172
44.1998
28.3759
13.6027
13.3329
9.59569
9.42359
8.53195
44.1132
40.4436
40.1685
41.3402
42.8104
43.6531
14.193
22.9195
59.9027
49.3138
84.1878
66.7465
64.429
52.9016
49.6002
47.2141
48.047
46.5042
46.8369
45.3502
45.3508
44.7565
44.7533
44.4345
44.2019
44.237
13.9097
34.3542
75.4974
56.6397
79.0401
55.6196
58.7384
49.6965
50.4422
48.4809
50.4435
49.2492
49.1345
47.5804
47.0191
45.8317
45.5788
45.034
44.7466
44.7801
14.8887
43.9663
109.239
62.4525
75.7417
52.5831
54.3182
45.3262
50.389
47.4697
50.6055
47.8247
48.4598
46.3987
46.5106
45.4742
45.4799
45.0217
44.8495
44.914
23.0845
72.0207
74.9063
66.8785
77.8814
54.3203
62.5935
46.9584
53.6946
47.3311
50.8952
47.6882
48.8082
46.9282
47.1145
46.0585
45.9722
45.443
45.1976
45.2579
8.29559
6.25801
6.46903
5.26727
27.3679
30.7172
55.7116
43.8196
52.7959
45.6372
49.9547
46.0992
47.9352
45.8681
46.5964
45.5323
45.7504
45.2679
45.1908
45.3013
2.36006
2.56027
2.06744
1.32016
1.34748
4.09938
44.7183
35.8585
49.7568
42.1326
48.1831
44.4493
47.1716
45.2239
46.3341
45.3053
45.6776
45.2097
45.2319
45.3931
0.0662655
0.0639701
0.0626699
0.0616223
0.0599362
0.0594774
0.063629
0.0668845
0.121191
0.0930999
0.105158
0.0809202
0.0790038
0.0669606
0.0648567
0.060396
0.0597234
0.0583826
0.0581431
0.0575025
7.9827
9.10102
8.51339
8.58145
7.98696
8.94119
8.47244
7.76941
8.16053
8.00713
7.89703
7.76983
8.1732
8.0024
6.4466
11.2958
8.60791
9.31931
6.3386
10.8437
8.53484
6.35117
8.15745
7.68374
5.71786
6.33893
8.11738
7.67958
0.624188
0.681937
0.60978
0.773132
1.21808
0.888292
1.14943
0.601933
0.603757
0.603986
1.2906
1.55864
1.25596
1.45791
0.611119
0.606931
0.622117
1.97161
8.35759
1.60938
5.07428
0.6235
0.625149
0.620378
9.71994
8.55241
6.07382
7.4097
0.623597
0.619047
0.619224
8.27378
8.08916
7.55279
7.67188
0.622544
0.619359
0.619431
8.35625
8.09107
7.66647
7.60886
0.622173
0.619438
0.619454
8.00333
7.90167
7.59819
7.57523
0.627668
0.619437
0.640884
7.97391
7.93723
7.57483
7.55735
0.602198
0.629928
0.615902
0.854685
1.24166
1.46514
2.26137
0.606676
0.610344
0.607161
1.36912
1.41911
2.45254
2.88715
0.623995
0.608221
0.613363
1.53253
4.74355
3.19051
4.77647
0.62091
0.619582
0.621626
5.84116
7.40078
5.54773
7.2966
0.619097
0.61961
0.618491
7.5615
7.66369
7.49798
7.64471
0.619219
0.618668
0.618782
7.66204
7.61428
7.64304
7.61453
0.619349
0.618318
0.618971
7.59886
7.57016
7.61248
7.5957
0.641489
0.618995
0.640293
7.56764
7.55233
7.5959
7.5866
0.651878
1.14138
0.960026
3.70902
4.0715
18.7083
20.7328
0.607831
0.820335
0.626196
3.44612
2.65996
19.3928
8.4793
0.613029
0.614238
0.611276
2.72314
4.54072
6.80214
5.47071
0.621439
0.613368
0.620261
5.42811
7.23238
5.56645
7.40388
0.618149
0.619451
0.618865
7.45822
7.61273
7.57748
7.6446
0.618913
0.619014
0.61917
7.61118
7.58498
7.63572
7.58711
0.618532
0.619157
0.619284
7.5806
7.58219
7.58056
7.56573
0.640604
0.619343
0.641585
7.57533
7.5653
7.56207
7.55192
1.00142
1.40184
1.06945
18.8913
20.8017
7.9957
12.7595
0.626416
0.893459
0.647624
19.6381
9.01046
9.78617
2.81211
0.610524
0.617322
0.600645
7.2416
5.44014
1.75935
2.46644
0.620032
0.600155
0.60377
5.39259
7.40409
3.99239
6.83579
0.619105
0.602615
0.604264
7.60481
7.70219
7.15286
7.71804
0.619416
0.605178
0.606123
7.6992
7.65167
7.7941
7.7747
0.619456
0.605712
0.607372
7.64418
7.61722
7.74667
7.78317
0.640284
0.606136
0.611179
7.61064
7.57734
7.76049
8.04208
1.2712
1.05299
1.14974
3.24088
5.57246
3.00528
8.76264
6.57614
1.25486
6.67692
9.97656
15.3648
11.5587
14.1725
11.6313
9.42912
9.01239
14.3755
12.8419
13.2544
9.1698
8.69442
8.6637
7.8952
12.6984
8.77104
8.69401
7.92262
8.09014
7.78789
7.7012
8.40451
8.09109
7.81312
7.71973
8.07476
7.6824
7.61196
8.32972
8.07512
7.69786
7.6271
7.89015
7.60031
7.5759
7.99714
7.88923
7.61816
7.59458
7.91327
7.576
7.55762
7.96135
7.90313
7.59245
7.57012
1.38799
5.18692
9.20297
4.53088
11.1849
12.8046
14.3158
6.38642
9.64153
10.6954
12.1225
11.2721
13.9189
12.4431
8.56519
10.7862
9.43936
10.1213
8.82797
12.1014
9.55337
7.92279
8.81081
8.00111
8.55986
7.9591
8.92255
8.26738
7.69854
7.86345
7.70705
7.87677
7.7216
8.2094
8.27246
7.6244
7.6657
7.63836
7.6972
7.68718
8.22878
8.25058
7.56767
7.63711
7.64706
7.6755
7.6404
8.22744
8.16717
7.54911
7.64607
7.60406
7.62917
7.57375
8.13676
8.05088
10.179
23.1872
21.7722
17.1186
16.3039
22.5589
21.209
9.76846
20.471
14.4867
15.3738
12.8842
19.7551
15.8782
9.95677
12.9281
11.1791
12.6016
10.2079
14.4203
12.1381
7.96015
10.7657
8.52665
9.25232
8.14742
11.1623
8.5919
7.65065
8.11723
7.68619
8.04633
7.92676
8.152
7.68631
7.59064
7.64449
7.59308
7.86517
7.88686
7.6445
7.59151
7.58366
7.58663
7.56761
7.89439
7.96286
7.58629
7.57473
7.58087
7.56419
7.55335
7.9588
7.95444
7.57139
7.55398
21.1488
21.0459
19.631
22.8187
20.6835
21.3462
19.53
15.0046
18.0787
11.7557
19.5235
16.3353
17.5457
14.0079
11.0262
11.002
10.3678
15.6364
12.2637
13.1071
11.5026
8.65156
9.95264
9.02328
11.1531
8.71576
10.6415
9.42416
7.75172
8.77291
8.1843
8.24966
7.75302
9.1505
8.25646
7.65361
8.09953
7.87549
7.71615
7.65851
8.15285
7.88592
7.61877
7.83489
7.80757
7.65268
7.62109
7.84381
7.8119
7.57039
7.76648
7.736
7.61369
7.56903
7.77407
7.71876
9.02215
8.05803
13.0789
17.3284
22.3546
22.866
20.1484
16.2257
13.9872
14.8971
22.2186
17.6231
19.5372
20.2352
13.1332
14.3161
9.50097
15.9233
12.7831
18.285
9.51211
8.88018
8.84993
7.94812
12.6371
8.82595
8.82916
7.94736
8.09496
7.82532
7.73868
8.43241
8.09441
7.82465
7.73907
8.07531
7.71772
7.63879
8.33104
8.07519
7.718
7.63831
7.88943
7.62339
7.59938
7.99692
7.88937
7.62328
7.60028
7.90292
7.59703
7.57697
7.96108
7.90296
7.59814
7.57708
13.8052
15.6153
15.1152
22.0069
20.7878
18.4557
15.9414
12.2691
14.2506
12.36
20.8286
17.2551
14.6298
12.1096
8.92589
11.9388
9.41403
12.1636
8.88135
11.5959
9.16525
8.32586
8.32515
8.67275
8.59569
8.39983
8.3252
8.7069
7.32109
7.83547
8.10434
7.79117
8.04738
7.72797
7.38127
7.72829
7.76688
7.81837
7.75238
7.72791
7.83116
8.0956
7.66288
7.85561
8.40514
7.70502
7.6663
8.14647
8.68635
7.60219
8.44018
8.43397
7.65108
7.60161
8.71789
8.68663
15.8604
22.6086
21.624
16.342
15.4261
25.6971
24.2994
12.5896
19.9721
14.615
14.1277
11.9723
22.2937
15.9384
9.91752
13.3123
12.1722
11.7235
9.52888
14.234
11.6179
9.31849
8.59258
9.7567
9.07599
9.07306
0.277955
9.80102
8.10728
5.71343
8.09996
0.284175
7.97159
0.276831
8.23212
7.56922
7.64845
7.60012
6.7488
7.64094
7.64669
7.60029
8.01344
7.59312
7.58533
7.71139
8.20253
7.59284
7.58489
8.3594
7.58387
7.56704
8.25564
8.47133
7.58333
7.5663
21.3439
21.9878
19.5219
27.2446
23.9935
26.1801
22.8471
14.9471
17.1808
13.9317
22.2101
16.59
18.6135
16.0785
12.2687
13.1987
11.5223
14.8364
11.6666
14.8632
11.9071
8.75156
10.7112
9.3904
10.9079
8.68753
10.9547
9.47369
7.75435
9.08494
8.25977
8.23327
7.75196
9.14014
8.26323
7.65798
8.15366
7.88642
7.71473
7.65869
8.15632
7.88409
7.6246
7.84262
7.81141
7.65415
7.62656
7.84257
7.81139
7.57042
7.77533
7.72063
7.61973
7.57076
7.77517
7.72006
24.9059
24.0866
23.9628
24.4535
25.0627
23.7265
21.6978
19.6135
24.5046
24.303
24.4192
20.4716
23.9935
25.3467
13.2046
22.0497
9.9099
17.6979
13.3506
22.9131
9.98222
8.82977
8.97286
7.94801
12.9921
8.84671
9.01739
7.92998
8.09308
7.82406
7.71987
8.44173
8.09218
7.80496
7.70154
8.07503
7.69642
7.62669
8.32947
8.07494
7.68136
7.6109
7.88932
7.61788
7.59568
7.99692
7.89061
7.59988
7.57505
7.90284
7.59366
7.57115
7.96259
7.89371
7.57517
7.5593
27.5688
21.8443
18.7628
23.126
26.9362
22.2329
19.4816
24.1904
16.7735
12.7109
29.5341
23.6878
17.4974
15.2474
9.0004
11.8677
9.2653
15.1906
9.1176
14.9629
11.7615
7.96795
8.7787
8.29835
8.68168
7.92907
10.4394
8.18256
7.723
8.2423
8.26801
7.82043
7.69622
7.9347
7.69644
7.68854
8.23113
8.259
7.67807
7.62303
7.66073
7.6378
7.63863
8.23322
8.16193
7.60405
7.56803
7.63682
7.64536
7.57335
8.12546
8.05324
7.56352
7.55013
7.6436
7.59838
16.7817
27.3722
25.5515
19.2001
19.2175
31.9384
33.7297
12.4601
23.2773
16.2874
18.4163
16.8391
32.4847
21.6753
9.55958
14.5815
11.635
16.1173
11.8941
19.3948
12.847
8.14579
10.7677
8.48058
10.4904
8.14034
11.2418
8.45369
7.91921
8.08948
7.6791
7.88718
7.64952
8.07236
7.67978
7.90083
7.64151
7.59095
7.62785
7.58885
7.64164
7.59221
7.98688
7.58625
7.57604
7.58311
7.58266
7.58697
7.56805
7.95547
7.57234
7.55605
7.58466
7.5763
7.56474
7.55309
25.5033
31.646
24.7669
36.8382
36.6989
40.4625
40.7273
17.4023
18.7455
15.734
35.4171
23.8034
32.5466
16.8902
11.6722
15.3136
12.3813
21.2474
13.2902
15.5983
12.3392
8.66507
11.2256
9.65087
11.4898
8.66327
11.0986
9.66467
7.75117
9.24483
8.27517
8.21588
7.74806
9.29635
8.35673
7.6582
8.16196
7.88691
7.71655
7.65307
8.1969
7.90347
7.62144
7.84312
7.8115
7.64574
7.62045
7.85472
7.81713
7.56991
7.77498
7.72307
7.61405
7.57004
7.78055
7.7062
31.8852
33.3944
33.3826
128.66
136.178
135.939
178.839
24.5115
36.9196
29.8291
128.419
175.829
179.78
176.325
13.2844
21.437
9.99658
195.283
201.762
172.519
167.994
8.81487
9.11737
7.95541
174.416
168.02
165.684
167.12
8.10171
7.81812
7.69629
165.771
169.663
166.929
164.092
8.06621
7.67286
7.60883
157.693
158.229
161.18
158.457
7.88427
7.59802
7.57406
156.232
161.049
158.054
158.283
7.82286
7.5737
7.56417
155.572
167.021
157.818
170.761
36.1987
21.957
19.7306
125.12
174.084
98.0984
139.705
19.5676
18.1086
15.3264
170.238
165.533
146.173
169.574
9.51758
15.2176
13.0791
166.146
165.714
171.567
177.115
7.98045
11.8463
8.55921
165.641
168.492
176.204
176.837
7.69062
8.105
7.68725
168.26
165.103
176.513
173.256
7.61217
7.6594
7.61764
163.064
160.689
172.15
167.961
7.57032
7.61453
7.59618
160.098
159.644
167.443
166.703
7.55734
7.59243
7.58081
159.534
171.671
166.401
176.79
20.6068
41.3838
40.2639
106.524
153.152
157.334
218.147
16.988
37.4675
24.8435
158.203
168.216
211.679
188.584
13.0791
21.3331
15.0242
169.039
174.496
182.807
176.201
8.47713
12.6205
8.54041
174.334
174.302
176.838
175.928
7.65646
8.09943
7.6777
174.225
173.11
175.596
172.52
7.58547
7.64098
7.58644
171.693
168.513
171.576
170.016
7.5797
7.58074
7.56697
167.996
166.081
169.906
168.849
7.55816
7.56252
7.55344
166.092
176.584
168.431
180.384
41.0862
55.9384
52.3219
183.319
207.204
168.491
131.291
26.5277
42.6683
22.4529
188.118
179.959
115.897
113.289
16.2223
20.6991
14.2712
177.49
175.151
123.508
136.667
8.91165
12.2322
9.8886
175.146
174.646
133.696
142.406
7.75219
9.54601
8.43591
174.935
174.241
146.107
158.436
7.65114
8.29266
8.00712
173.223
171.096
153.873
157.227
7.61681
8.00216
7.88673
170.99
169.621
156.083
161.347
7.58608
7.86107
5.79337
169.29
180.267
156.936
166.711
7.84129
8.11665
8.14372
7.88478
8.21821
8.05821
7.48176
7.41664
8.76174
8.94976
9.05006
8.59523
8.80858
0.207307
5.89859
8.42584
8.76298
0.298906
8.50325
4.747
0.296246
8.30473
8.57731
8.31387
8.61193
8.31365
8.67151
8.36292
7.82042
7.88551
8.1135
8.14694
8.05268
7.46464
8.20121
7.369
8.98184
8.66284
8.84636
8.75628
0.209685
8.53225
5.85169
0.299071
8.40574
8.70565
4.69258
0.296086
8.4759
7.29187
7.79523
7.9641
7.6566
8.00012
7.68276
7.30619
4.36166
8.41959
8.03516
0.300164
8.37162
4.39812
0.298244
3.78847
8.19941
7.8433
2.51163
8.1979
4.08824
0.20731
7.33654
7.79017
7.83864
8.11162
7.73204
7.37479
8.06043
7.31911
7.66203
7.79575
7.95944
7.68979
7.3317
8.0017
4.40523
0.301174
8.42464
7.99122
4.37809
0.299902
8.39046
3.84467
2.19938
8.18947
7.83575
4.10802
0.211114
8.18368
8.68298
7.07657
8.22377
0.286871
8.52968
0.283713
8.35915
9.67396
10.8849
10.2428
11.1762
9.68837
10.8422
10.2182
8.7609
8.22758
9.30031
8.5987
8.77314
8.23731
9.29462
9.21437
9.03063
8.44712
9.40952
0.261867
9.71441
8.92045
8.61409
0.28539
7.06851
8.20037
0.282172
8.31375
8.44054
9.58312
11.0082
10.4693
9.9743
10.7028
10.1254
9.43939
8.70155
8.56132
8.16366
9.15833
8.21246
9.24125
8.63738
8.11366
5.35948
7.94866
1.62669
7.94578
0.259765
7.98565
7.82995
7.94193
7.89632
8.13479
7.80233
7.98142
7.87227
7.757
7.7001
7.752
7.6808
7.73195
7.74916
7.74144
8.09821
0.282963
5.61917
8.09149
0.276096
8.20264
7.97386
8.13582
1.43402
5.3563
7.96987
0.246029
8.01153
7.95452
7.82931
8.10954
7.91706
7.87586
7.97534
7.86007
7.79158
7.76164
7.67919
7.69683
7.74243
7.76065
7.73715
7.72571
0.298611
0.328871
0.30626
0.984603
1.23877
0.520436
0.941869
0.292048
0.298471
0.299721
1.31341
1.44307
1.07703
1.57903
0.306471
0.307425
0.329018
2.72523
7.90487
2.54283
5.39606
0.299809
0.344542
0.335756
10.5301
8.47446
9.54881
10.0743
0.296555
0.312822
0.300918
9.01301
9.27377
8.9614
8.89667
0.294844
0.297528
0.295794
9.23786
7.93556
8.47875
8.36476
0.295243
0.294816
0.294302
7.52967
7.70523
7.97297
7.95102
0.29952
0.294478
0.300718
7.32701
7.18814
7.85075
8.91114
0.361103
0.355495
0.351035
0.703896
0.717552
0.574374
0.743786
0.99972
0.684643
0.707146
0.674819
1.05917
0.724916
0.695017
2.67298
0.601695
0.613293
2.39303
2.7186
2.3662
0.604217
2.55711
0.605919
0.603473
2.81293
2.79824
2.61479
0.605459
3.10951
0.629677
0.625987
3.55619
4.81224
2.81947
0.627541
6.78131
0.620835
0.61967
7.54061
8.32636
6.01275
0.619013
7.83163
0.623146
0.619323
9.141
9.03401
7.82802
0.619418
7.81445
0.621983
0.619416
8.18252
8.22774
7.86443
0.619433
7.83729
0.620993
0.619398
7.91215
7.90347
7.85492
0.619376
0.294061
0.281314
0.287318
7.87957
8.14851
7.59366
8.74548
0.313249
0.316257
0.310165
0.488308
0.641499
0.521393
0.836333
1.61976
0.609169
0.605444
1.16342
1.58123
1.25354
0.602542
2.38339
0.603294
0.60318
2.23433
2.36026
2.27399
0.604514
2.35112
0.611117
0.609021
2.4113
2.37741
2.36554
0.610744
2.72568
0.626095
0.625415
2.60181
2.81719
2.55101
0.62578
6.47672
0.61875
0.619432
5.79767
6.65053
5.51986
0.618873
7.6335
0.619207
0.619228
7.62881
7.67099
7.58437
0.619246
7.65363
0.619227
0.618847
7.65685
7.64711
7.64766
0.618845
7.61316
0.619269
0.619297
7.635
7.64242
7.60062
0.619237
0.28813
0.280837
0.28815
7.56139
8.64948
7.57248
8.63534
0.373585
0.425345
0.517535
0.81427
3.11983
2.60302
10.6382
2.42537
0.696692
0.819873
1.0674
1.45954
1.68889
0.815129
1.67402
0.616502
0.678076
1.49693
1.46713
2.03949
0.640902
2.15589
0.608627
0.608702
1.91308
2.07002
1.91503
0.608781
2.26551
0.621667
0.616543
2.16401
2.24613
2.27377
0.619593
5.99168
0.618496
0.619032
5.07605
6.18368
4.73073
0.618663
7.63207
0.618755
0.618754
7.53644
7.63046
7.52105
0.61896
7.68507
0.618574
0.619205
7.67333
7.66983
7.68653