/*--------------------------------*- C++ -*----------------------------------*\
  =========                 |
  \\      /  F ield         | OpenFOAM: The Open Source CFD Toolbox
   \\    /   O peration     | Website:  https://openfoam.org
    \\  /    A nd           | Version:  10
     \\/     M anipulation  |
\*---------------------------------------------------------------------------*/
FoamFile
{
    format      ascii;
    class       volScalarField;
    location    "0.4";
    object      turbidity;
}
// * * * * * * * * * * * * * * * * * * * * * * * * * * * * * * * * * * * * * //

dimensions      [0 0 0 0 0 0 0];

internalField   nonuniform List<scalar> 
12920
(
-0.0546015
-0.024736
-0.0420372
-0.0607897
-0.0823654
-0.0993539
-0.11631
-0.128967
-0.143337
-0.15897
-0.17526
-0.189215
-0.195953
-0.198028
-0.198561
-0.198685
-0.198713
-0.19871
-0.198698
-0.198689
-0.0347437
-0.0713524
-0.0988841
-0.101177
-0.111524
-0.130034
-0.136762
-0.155393
-0.174468
-0.186521
-0.193054
-0.196894
-0.198249
-0.198608
-0.198695
-0.198715
-0.198718
-0.198711
-0.1987
-0.198693
-0.0359009
-0.0529979
-0.075906
-0.0997628
-0.109921
-0.128856
-0.145745
-0.171548
-0.18795
-0.194411
-0.197192
-0.198239
-0.198591
-0.198686
-0.198712
-0.198716
-0.198714
-0.198712
-0.198697
-0.198693
-0.0636902
-0.0769347
-0.10767
-0.108017
-0.101565
-0.139151
-0.149879
-0.183196
-0.191316
-0.196588
-0.198087
-0.198516
-0.198654
-0.198699
-0.198712
-0.198716
-0.198717
-0.198711
-0.198701
-0.198694
-0.113906
-0.09965
-0.121535
-0.122037
-0.12467
-0.169097
-0.176109
-0.189226
-0.192983
-0.19619
-0.197365
-0.19813
-0.198417
-0.198599
-0.198656
-0.198688
-0.1987
-0.198708
-0.198698
-0.198698
-0.120654
-0.104177
-0.119049
-0.106055
-0.126684
-0.167267
-0.163238
-0.18813
-0.183243
-0.194288
-0.193226
-0.196761
-0.196441
-0.197717
-0.19784
-0.198271
-0.198453
-0.198606
-0.198662
-0.198689
-0.114922
-0.0979648
-0.102615
-0.07733
-0.0939011
-0.147025
-0.147504
-0.178971
-0.135945
-0.170935
-0.152865
-0.173543
-0.168678
-0.180243
-0.182508
-0.189163
-0.192929
-0.195925
-0.197411
-0.198191
-0.0796622
-0.0705376
-0.0931059
-0.104285
-0.123008
-0.147235
-0.132275
-0.125437
-0.0745504
-0.041003
-0.0443256
-0.0338989
-0.0370773
-0.0340028
-0.0673628
-0.108069
-0.140076
-0.164198
-0.180097
-0.189579
-0.0400828
-0.072023
-0.0962445
-0.10879
-0.121692
-0.122297
-0.123258
-0.0844235
-0.0409255
-0.00949321
0.00615253
0.010348
0.0102584
0.00999139
-0.000404889
-0.0602968
-0.104616
-0.139077
-0.163825
-0.17996
-0.039636
-0.0700212
-0.0751437
-0.098232
-0.122717
-0.107679
-0.0918324
-0.0531143
-0.0235208
-0.00448459
0.00729223
0.0117796
0.0126832
0.0128008
0.00167268
-0.058381
-0.10245
-0.137318
-0.162667
-0.179315
-0.0302862
-0.0405841
-0.0500842
-0.0725183
-0.111614
-0.109074
-0.0829266
-0.0615821
-0.0327616
-0.00916314
0.00544629
0.0112777
0.012578
0.0127141
0.00177847
-0.0580122
-0.102015
-0.136934
-0.162358
-0.179081
-0.0208078
-0.0381465
-0.0549102
-0.0999985
-0.113918
-0.0845867
-0.0708815
-0.0680123
-0.049141
-0.019034
0.00223681
0.0103034
0.0121075
0.0125225
0.000799843
-0.0616004
-0.104577
-0.138652
-0.163345
-0.179542
-0.0379089
-0.0690233
-0.0868351
-0.0812665
-0.0664841
-0.0714878
-0.0690157
-0.0766238
-0.0880418
-0.0655687
-0.0590689
-0.0396819
-0.0354944
-0.0284473
-0.0794301
-0.114928
-0.143197
-0.16519
-0.180121
-0.189295
-0.0352112
-0.0619368
-0.0677792
-0.0591696
-0.0549558
-0.0623256
-0.0772144
-0.106043
-0.142649
-0.172235
-0.184676
-0.190614
-0.191543
-0.193068
-0.194098
-0.195421
-0.196578
-0.197491
-0.198073
-0.198398
-0.0233363
-0.0555085
-0.0698352
-0.0676043
-0.0701447
-0.078987
-0.0945943
-0.116585
-0.141218
-0.164326
-0.183098
-0.193504
-0.197156
-0.19824
-0.198533
-0.198631
-0.198669
-0.19869
-0.198678
-0.19868
-0.00744318
-0.0320642
-0.0598813
-0.0736635
-0.0837159
-0.0950474
-0.108891
-0.129674
-0.152586
-0.176294
-0.190764
-0.196636
-0.198238
-0.198617
-0.198698
-0.198715
-0.198717
-0.198717
-0.198695
-0.198687
-0.0106373
-0.0268939
-0.0546656
-0.0788678
-0.0937883
-0.114842
-0.135962
-0.164428
-0.181282
-0.192477
-0.196598
-0.198113
-0.198551
-0.198676
-0.198708
-0.198717
-0.198715
-0.198715
-0.198695
-0.19869
-0.0227136
-0.0479731
-0.0571705
-0.0833128
-0.108375
-0.132356
-0.155489
-0.173969
-0.187657
-0.19445
-0.197238
-0.198244
-0.19858
-0.198681
-0.19871
-0.198717
-0.198717
-0.198717
-0.198697
-0.198692
-0.0577859
-0.0704508
-0.0933254
-0.110205
-0.117817
-0.133906
-0.143736
-0.165189
-0.17982
-0.190274
-0.195248
-0.197533
-0.19833
-0.198621
-0.198691
-0.198713
-0.198713
-0.198715
-0.198694
-0.198691
-0.0171938
-0.0388971
-0.0738511
-0.101209
-0.131861
-0.169993
-0.184344
-0.191914
-0.193704
-0.196907
-0.197935
-0.1985
-0.198656
-0.198704
-0.198714
-0.198718
-0.198715
-0.198716
-0.198697
-0.198692
-0.0154983
-0.00652576
-0.00413741
-0.00424872
-0.0053891
-0.0065206
-0.00823864
-0.0111038
-0.023285
-0.0391265
-0.053763
-0.0410701
-0.0189761
-0.00697922
-0.00231781
-0.000727516
-0.000223169
-7.93123e-05
-3.37647e-05
-3.16592e-05
-0.0254821
-0.014027
-0.0133821
-0.00813812
-0.00492351
-0.0028577
-0.00361942
-0.00557577
-0.0126905
-0.0188122
-0.0211872
-0.0108175
-0.00454056
-0.00156956
-0.000544623
-0.000185152
-6.66717e-05
-3.53523e-05
-2.31431e-05
-2.93128e-05
-0.00146713
-0.011221
-0.0245358
-0.019195
-0.01029
-0.00511699
-0.00283237
-0.00317584
-0.00604645
-0.00888487
-0.00823437
-0.00472146
-0.00210418
-0.000841825
-0.000308913
-0.000119823
-4.34002e-05
-2.5926e-05
-1.98103e-05
-2.87878e-05
-0.061079
-0.0203457
-0.0178573
-0.00659206
-0.00271508
-0.00130482
-0.000846833
-0.00116129
-0.00122772
-0.00209907
-0.00141021
-0.000921366
-0.000439098
-0.000207895
-8.7998e-05
-4.82137e-05
-2.62812e-05
-2.43518e-05
-2.04596e-05
-2.85698e-05
-0.023298
-0.0175485
-0.00571542
-0.0038869
-0.00295211
-0.0078628
-0.00531914
-0.00355194
-0.00114396
-0.000901804
-0.000300458
-0.000227469
-8.15115e-05
-5.73632e-05
-2.68722e-05
-2.56745e-05
-1.63321e-05
-1.71424e-05
-1.48937e-05
-3.14943e-05
-0.00815207
-0.0171456
-0.0106939
-0.00758918
-0.00917526
-0.00825697
-0.0202968
-0.0113045
-0.00347156
-0.00204787
-0.000655629
-0.000369529
-0.00016953
-0.000117496
-6.05867e-05
-4.01293e-05
-2.20263e-05
-2.07795e-05
-1.84663e-05
-3.74548e-05
-0.0356196
-0.0181734
-0.0168288
-0.0156314
-0.0229152
-0.0226662
-0.0336335
-0.0231715
-0.00574928
-0.00248648
-0.000634431
-0.000214541
-6.72152e-05
-2.80384e-05
-1.79436e-05
-2.37367e-05
-3.01676e-05
-3.88349e-05
-2.62501e-05
-3.75174e-05
-0.032928
-0.0118182
-0.0179806
-0.027771
-0.0473338
-0.0455236
-0.0579246
-0.0319611
-0.0110143
-0.00140043
-0.000467786
-0.000110083
-6.38298e-05
-2.47153e-05
-4.23305e-06
-5.057e-06
-7.17625e-06
-1.14564e-05
-1.94503e-05
-4.19976e-05
-0.0151455
-0.0401615
-0.0359138
-0.0437988
-0.0646972
-0.0597738
-0.0724281
-0.0847314
-0.0313933
-0.00238098
-0.000126169
-1.11459e-05
-2.29668e-06
-6.81529e-07
-2.56854e-07
-1.56021e-06
-4.03751e-06
-8.2818e-06
-1.52623e-05
-3.40401e-05
-0.0309553
-0.0206245
-0.0253261
-0.0469106
-0.0737803
-0.0805137
-0.0804058
-0.0594251
-0.0198663
-0.00272397
-0.000316712
-3.81748e-05
-2.6243e-06
-1.59531e-07
-2.71966e-09
-1.37629e-06
-3.55786e-06
-6.83503e-06
-1.05228e-05
-2.63312e-05
-0.0352204
-0.0169573
-0.029956
-0.0537924
-0.0801293
-0.0651965
-0.0428329
-0.0267517
-0.00837472
-0.000984822
-8.66202e-05
-1.03702e-05
-1.15585e-06
-8.08282e-08
-2.68515e-09
-1.74598e-06
-3.63627e-06
-6.52125e-06
-9.17895e-06
-2.27166e-05
-0.0199775
-0.0224605
-0.0462443
-0.0414309
-0.0148316
-0.0041386
-0.00374056
-0.00291476
-0.00239633
-0.000784352
-0.000219862
-5.1857e-05
-5.45997e-06
-4.729e-07
-5.83931e-07
-4.24955e-06
-4.349e-06
-8.31912e-06
-1.75804e-05
-3.74156e-05
-0.0049771
-0.0245444
-0.0303837
-0.016813
-0.00772276
-0.0065339
-0.00567558
-0.00559824
-0.0111496
-0.00732764
-0.00460352
-0.00144704
-0.000514299
-0.000115527
-6.37207e-05
-2.36401e-05
-1.24677e-05
-1.48804e-05
-3.16973e-05
-4.07639e-05
-0.0179395
-0.0200433
-0.014682
-0.0109969
-0.00878903
-0.0114988
-0.0130944
-0.0231583
-0.0281804
-0.0303485
-0.023367
-0.0135449
-0.00631201
-0.00249175
-0.000878579
-0.00029333
-0.000102542
-4.74081e-05
-3.40716e-05
-2.78151e-05
-0.00579834
-0.0161232
-0.0156906
-0.0145964
-0.0158984
-0.0231967
-0.0300955
-0.0434496
-0.0577215
-0.0608787
-0.0438561
-0.0214178
-0.00776789
-0.00269326
-0.000852085
-0.000270933
-7.90547e-05
-3.17307e-05
-1.5661e-05
-3.41181e-05
-0.00659335
-0.00854262
-0.0156156
-0.0174097
-0.0293778
-0.0465871
-0.0634519
-0.0763287
-0.0807775
-0.0629943
-0.0369371
-0.0154477
-0.00572665
-0.00187657
-0.000606926
-0.000194757
-6.27243e-05
-3.06878e-05
-1.53738e-05
-3.32868e-05
-0.00218333
-0.00826651
-0.0168877
-0.0281367
-0.056252
-0.0666366
-0.0843999
-0.0755305
-0.0597851
-0.0340874
-0.0172881
-0.00704769
-0.00261734
-0.000910969
-0.000298302
-0.000103929
-3.59031e-05
-2.08482e-05
-1.31514e-05
-3.29559e-05
-0.00684668
-0.0112331
-0.0162216
-0.0162802
-0.0261507
-0.0168986
-0.0210838
-0.0161024
-0.017886
-0.0111531
-0.00712264
-0.00346961
-0.00160036
-0.000653003
-0.000247863
-9.75624e-05
-3.65791e-05
-2.38526e-05
-1.42841e-05
-3.34807e-05
-0.0278457
-0.0201395
-0.0162826
-0.00814929
-0.00618631
-0.003488
-0.00518424
-0.00308753
-0.00321192
-0.00152566
-0.000888187
-0.000355121
-0.000155514
-7.13741e-05
-3.59517e-05
-2.90892e-05
-1.75375e-05
-1.658e-05
-1.2415e-05
-3.18439e-05
-0.00675816
-0.0166564
-0.0336023
-0.0538283
-0.0754779
-0.0374738
-0.0115359
-0.00438327
-0.0017067
-0.000719563
-0.000324151
-0.000196885
-9.71195e-05
-7.4378e-05
-3.80339e-05
-3.18973e-05
-1.88831e-05
-1.88351e-05
-1.31333e-05
-3.40509e-05
-0.00455662
-0.00521366
-0.00375177
-0.00260612
-0.00261423
-0.00389886
-0.00639769
-0.00942268
-0.0152276
-0.0185988
-0.0176502
-0.00850001
-0.00264317
-0.000655908
-0.000148409
-3.15567e-05
-6.4008e-06
-1.24894e-06
-2.3372e-07
-4.37771e-08
-0.0224391
-0.00702555
-0.00456242
-0.00242062
-0.00156972
-0.0011709
-0.00171423
-0.00256538
-0.00429532
-0.0038764
-0.00288865
-0.00103791
-0.000277623
-6.36315e-05
-1.32957e-05
-2.6862e-06
-5.12561e-07
-9.64555e-08
-1.78654e-08
-4.74864e-09
-0.00408508
-0.00839537
-0.0081729
-0.00600649
-0.00346709
-0.00166986
-0.000814918
-0.000646132
-0.000674046
-0.000665219
-0.000417227
-0.000160415
-4.35651e-05
-1.07284e-05
-2.35076e-06
-5.01973e-07
-1.0061e-07
-2.05444e-08
-4.60324e-09
-2.54083e-09
-0.0116441
-0.00992037
-0.00602222
-0.00307362
-0.00184581
-0.000946137
-0.000451151
-0.000191971
-9.79292e-05
-8.311e-05
-3.23434e-05
-1.35995e-05
-3.41115e-06
-9.14543e-07
-2.01283e-07
-4.69979e-08
-1.04639e-08
-3.29897e-09
-1.50977e-09
-1.91363e-09
-0.00982827
-0.00882749
-0.00353544
-0.00251855
-0.00201631
-0.00115704
-0.00126109
-0.000375928
-0.000125983
-4.52423e-05
-1.45055e-05
-4.9396e-06
-1.46548e-06
-4.33171e-07
-1.17332e-07
-3.15419e-08
-8.02775e-09
-2.4565e-09
-1.02926e-09
-2.3098e-09
-0.01153
-0.00764815
-0.00516689
-0.00469037
-0.00404707
-0.00194506
-0.00467939
-0.00144679
-0.000370233
-0.000108921
-2.86651e-05
-7.51723e-06
-1.94511e-06
-4.9354e-07
-1.19606e-07
-2.91663e-08
-7.03267e-09
-2.36766e-09
-1.30333e-09
-3.28107e-09
-0.023724
-0.00737059
-0.00826238
-0.0105983
-0.0128172
-0.00862123
-0.00850333
-0.00348615
-0.0005545
-0.00018093
-4.65822e-05
-1.4025e-05
-3.64088e-06
-9.42066e-07
-2.18673e-07
-4.96235e-08
-1.14977e-08
-4.52649e-09
-1.94729e-09
-3.07368e-09
-0.0203812
-0.0108383
-0.0141494
-0.0195854
-0.0284749
-0.0213256
-0.0209598
-0.00431269
-0.00102859
-9.44291e-05
-2.13926e-05
-2.98184e-06
-6.0299e-07
-8.78524e-08
-5.16324e-09
-1.2541e-09
-5.411e-10
-7.27435e-10
-1.68284e-09
-4.60681e-09
-0.0105645
-0.0198621
-0.0191886
-0.0261446
-0.037479
-0.0267541
-0.0321742
-0.0270518
-0.00532015
-0.000397589
-2.33533e-05
-1.28173e-06
-6.56484e-08
-3.73962e-09
-1.25544e-10
-3.78588e-11
-1.67179e-10
-5.33113e-10
-1.42511e-09
-3.89108e-09
-0.0137382
-0.012619
-0.0145011
-0.0284543
-0.0490601
-0.0400728
-0.0344282
-0.0139813
-0.00261093
-0.000381771
-3.44197e-05
-1.90621e-06
-7.5725e-08
-2.55502e-09
-2.98406e-11
-3.59669e-11
-1.47064e-10
-2.8414e-10
-5.63864e-10
-1.85693e-09
-0.0125501
-0.00978608
-0.0155384
-0.0362593
-0.0490003
-0.0241065
-0.00758866
-0.00146213
-0.000296619
-4.55134e-05
-4.51777e-06
-3.23911e-07
-1.59239e-08
-6.56202e-10
-9.68137e-12
-2.47939e-10
-1.73712e-10
-2.63258e-10
-4.64835e-10
-1.48293e-09
-0.0100795
-0.0141987
-0.0319009
-0.0184321
-0.00770268
-0.00270328
-0.00230954
-0.00106668
-0.000435578
-0.000127091
-1.62684e-05
-1.19532e-06
-6.91016e-08
-3.52216e-09
-3.69535e-09
-8.02844e-09
-1.75962e-09
-7.95286e-10
-1.6242e-09
-3.99353e-09
-0.01309
-0.0146562
-0.020921
-0.0119544
-0.00660319
-0.00594366
-0.00461988
-0.00215868
-0.0026985
-0.0010345
-0.000535164
-0.000107339
-2.63751e-05
-3.61454e-06
-1.5877e-06
-3.46285e-07
-6.52299e-08
-1.27432e-08
-4.75028e-09
-3.98132e-09
-0.00967279
-0.012253
-0.0125218
-0.010012
-0.00821372
-0.0111531
-0.0100422
-0.0133852
-0.0102762
-0.00785187
-0.00382549
-0.0014659
-0.000430913
-0.000111671
-2.5409e-05
-5.41244e-06
-1.07852e-06
-2.05053e-07
-3.86043e-08
-7.66318e-09
-0.00205262
-0.00930254
-0.0105626
-0.0104888
-0.0144787
-0.022749
-0.0276332
-0.0297073
-0.0289997
-0.0217169
-0.0110626
-0.00374499
-0.000994221
-0.000232885
-4.95898e-05
-9.72941e-06
-1.7999e-06
-3.16323e-07
-5.37175e-08
-1.08384e-08
-0.000913915
-0.00469977
-0.00751473
-0.0107371
-0.0229124
-0.0337334
-0.04509
-0.0455506
-0.0391177
-0.020697
-0.0079543
-0.00212472
-0.000491163
-9.92705e-05
-1.8975e-05
-3.46596e-06
-6.18182e-07
-1.09243e-07
-1.92055e-08
-5.25387e-09
-0.00182826
-0.00460174
-0.00998509
-0.0148137
-0.0381201
-0.0384967
-0.0436736
-0.0288392
-0.0165495
-0.00651445
-0.00225706
-0.000627828
-0.000162729
-3.90247e-05
-8.907e-06
-1.93261e-06
-4.01019e-07
-8.01516e-08
-1.56061e-08
-4.81779e-09
-0.00399044
-0.00420999
-0.00627843
-0.00707031
-0.00452142
-0.00205468
-0.00475892
-0.00256976
-0.00229123
-0.000860532
-0.000377834
-0.000120163
-3.74865e-05
-1.04115e-05
-2.72885e-06
-6.69809e-07
-1.55114e-07
-3.47491e-08
-7.57436e-09
-3.505e-09
-0.0160233
-0.00824729
-0.00919061
-0.00612124
-0.00276983
-0.00106805
-0.000997117
-0.000383934
-0.000291206
-9.55024e-05
-4.00393e-05
-1.17453e-05
-3.61182e-06
-9.79365e-07
-2.56932e-07
-6.39389e-08
-1.52087e-08
-3.88399e-09
-1.14187e-09
-2.05244e-09
-0.0101019
-0.013045
-0.0245791
-0.0274407
-0.0292216
-0.00853414
-0.00167735
-0.000462004
-0.000133326
-4.04056e-05
-1.20115e-05
-3.43999e-06
-9.26824e-07
-2.43749e-07
-5.99208e-08
-1.56022e-08
-3.95039e-09
-1.57581e-09
-6.8962e-10
-2.21469e-09
-0.00510185
-0.00629288
-0.0048656
-0.00265271
-0.00173891
-0.00220146
-0.00349101
-0.0045205
-0.00636025
-0.0052242
-0.00355946
-0.00121878
-0.000306391
-6.5442e-05
-1.31708e-05
-2.54134e-06
-4.72814e-07
-8.52247e-08
-1.47952e-08
-2.48913e-09
-0.0179853
-0.00504384
-0.00445298
-0.00231311
-0.00137143
-0.000931586
-0.00109388
-0.00100534
-0.00109514
-0.000654687
-0.000351722
-0.000104052
-2.38461e-05
-4.95414e-06
-9.43804e-07
-1.7759e-07
-3.15773e-08
-5.50202e-09
-9.08497e-10
-1.46163e-10
-0.00391099
-0.00393429
-0.00374297
-0.00328412
-0.00251185
-0.00162479
-0.0008095
-0.000345625
-0.000152245
-8.61599e-05
-3.44754e-05
-1.11709e-05
-2.64015e-06
-6.15967e-07
-1.28474e-07
-2.64256e-08
-5.08733e-09
-9.48308e-10
-1.67625e-10
-2.87175e-11
-0.00816593
-0.00704366
-0.00398182
-0.00236563
-0.00189817
-0.00145125
-0.000731081
-0.000222334
-6.94406e-05
-2.55148e-05
-8.17714e-06
-2.62642e-06
-7.40637e-07
-2.00146e-07
-5.09122e-08
-1.20426e-08
-2.70683e-09
-5.63713e-10
-1.11525e-10
-2.07168e-11
-0.00880191
-0.00574235
-0.00346889
-0.0019897
-0.00131569
-0.00076413
-0.00050269
-0.000274532
-0.000131941
-6.12525e-05
-2.50919e-05
-9.35639e-06
-3.14897e-06
-9.7585e-07
-2.75324e-07
-7.22405e-08
-1.75031e-08
-3.96889e-09
-8.39895e-10
-1.68052e-10
-0.00663071
-0.00571649
-0.00537969
-0.00433183
-0.00244882
-0.000537353
-0.0010487
-0.000292537
-7.11559e-05
-2.44886e-05
-6.52831e-06
-2.12369e-06
-5.53374e-07
-1.55791e-07
-3.7401e-08
-8.9559e-09
-1.9516e-09
-4.10892e-10
-8.02271e-11
-1.5197e-11
-0.0128171
-0.00610824
-0.00647232
-0.00623568
-0.00466421
-0.00259683
-0.00218245
-0.000611074
-9.8096e-05
-2.95365e-05
-7.56638e-06
-2.26693e-06
-5.77097e-07
-1.47188e-07
-3.32025e-08
-7.17649e-09
-1.4341e-09
-2.71242e-10
-4.81362e-11
-8.25226e-12
-0.0022155
-0.00731742
-0.0107718
-0.0107837
-0.00835311
-0.00808338
-0.00628932
-0.000583788
-0.000154221
-1.7137e-05
-3.61638e-06
-4.98231e-07
-9.33853e-08
-1.27481e-08
-7.21868e-10
-1.44788e-10
-2.63723e-11
-4.89409e-12
-9.22667e-13
-3.92847e-13
-0.00547685
-0.0113017
-0.0123374
-0.010827
-0.0085294
-0.00796544
-0.00969643
-0.00547252
-0.00111183
-9.96628e-05
-5.30544e-06
-2.42878e-07
-1.08293e-08
-5.29875e-10
-1.45808e-11
-4.12257e-13
-1.02155e-13
-1.20206e-13
-2.08242e-13
-3.51061e-13
-0.00249777
-0.00861489
-0.0132021
-0.0194205
-0.0284636
-0.0156635
-0.0103086
-0.00337681
-0.00045221
-3.87789e-05
-2.68819e-06
-1.12982e-07
-3.25413e-09
-7.32029e-11
-6.73175e-13
-8.58214e-14
-2.66136e-14
-1.85822e-14
-3.06949e-14
-8.78826e-14
-0.00691212
-0.00498838
-0.00682989
-0.0180554
-0.0242426
-0.00728728
-0.0015736
-0.000282642
-7.01807e-05
-1.44145e-05
-1.35397e-06
-7.10643e-08
-2.31663e-09
-6.13093e-11
-7.55598e-13
-7.92928e-12
-1.84021e-12
-3.60127e-13
-1.0145e-13
-1.08391e-13
-0.00706998
-0.0142205
-0.0247859
-0.0093481
-0.00484796
-0.00224031
-0.00143248
-0.000571072
-0.00021345
-6.10395e-05
-7.14163e-06
-3.92963e-07
-1.37312e-08
-4.10914e-10
-3.15911e-10
-6.66253e-10
-1.29484e-10
-2.28013e-11
-3.59371e-12
-6.8404e-13
-0.00596969
-0.0119774
-0.0150074
-0.00659951
-0.0034948
-0.00364217
-0.00258896
-0.000973906
-0.000910249
-0.000216091
-8.61527e-05
-1.37375e-05
-2.88888e-06
-3.49309e-07
-1.49256e-07
-3.07854e-08
-5.47168e-09
-9.53672e-10
-1.50791e-10
-2.2477e-11
-0.00825236
-0.00836716
-0.00759022
-0.00602827
-0.00548439
-0.00737094
-0.00499375
-0.00553089
-0.00321288
-0.00189895
-0.000692967
-0.000218211
-5.40134e-05
-1.25518e-05
-2.58904e-06
-5.12584e-07
-9.54671e-08
-1.70166e-08
-2.89146e-09
-4.72007e-10
-0.00246755
-0.0075573
-0.00736606
-0.00631262
-0.0105523
-0.0141375
-0.0155719
-0.0135045
-0.0107209
-0.00608503
-0.00245851
-0.000713639
-0.000174133
-3.77094e-05
-7.51024e-06
-1.3791e-06
-2.39628e-07
-3.94254e-08
-6.24104e-09
-9.56545e-10
-0.000373857
-0.00289874
-0.00361255
-0.00439902
-0.0122366
-0.017673
-0.0249768
-0.0203009
-0.0136512
-0.00535481
-0.00160715
-0.000364706
-7.44076e-05
-1.36726e-05
-2.38585e-06
-3.98584e-07
-6.47807e-08
-1.0299e-08
-1.60804e-09
-2.47872e-10
-0.0018021
-0.0033576
-0.00352006
-0.00379662
-0.0195599
-0.0143432
-0.0138146
-0.00733607
-0.00358397
-0.00115813
-0.000350632
-8.69487e-05
-2.07573e-05
-4.61546e-06
-9.8647e-07
-2.00891e-07
-3.93574e-08
-7.39667e-09
-1.34109e-09
-2.35412e-10
-0.00461254
-0.00301812
-0.00318329
-0.00314256
-0.00224131
-0.00114183
-0.00162651
-0.000685777
-0.000456701
-0.000125665
-4.20467e-05
-1.0208e-05
-2.5708e-06
-5.85295e-07
-1.30615e-07
-2.76962e-08
-5.66498e-09
-1.11154e-09
-2.09543e-10
-3.8194e-11
-0.0165604
-0.00648673
-0.00671734
-0.0046822
-0.00269591
-0.00118046
-0.000538736
-0.000174653
-7.28912e-05
-1.88698e-05
-5.48602e-06
-1.25858e-06
-2.93749e-07
-6.27756e-08
-1.3152e-08
-2.64255e-09
-5.15649e-10
-9.73866e-11
-1.77822e-11
-3.20365e-12
-0.00959041
-0.0119413
-0.0197132
-0.0134942
-0.00777075
-0.00213535
-0.000546921
-0.000164998
-4.92004e-05
-1.43796e-05
-3.94532e-06
-1.03532e-06
-2.5135e-07
-5.7501e-08
-1.22097e-08
-2.44009e-09
-4.56815e-10
-8.09277e-11
-1.35729e-11
-2.24119e-12
-0.0124752
-0.00998502
-0.00754994
-0.00446756
-0.00212422
-0.00109917
-0.000836522
-0.000756752
-0.000606253
-0.000473566
-0.000269389
-7.88359e-05
-1.71762e-05
-3.2571e-06
-5.8737e-07
-1.02247e-07
-1.72472e-08
-2.83255e-09
-4.50227e-10
-6.96978e-11
-0.0112353
-0.00748494
-0.0065321
-0.00402118
-0.00172203
-0.000640014
-0.000438603
-0.000297308
-0.000178313
-7.56782e-05
-2.73102e-05
-7.0043e-06
-1.44602e-06
-2.7839e-07
-4.94917e-08
-8.6604e-09
-1.43372e-09
-2.31487e-10
-3.5493e-11
-5.28951e-12
-0.00523846
-0.0046536
-0.00426005
-0.00320052
-0.0020416
-0.000948352
-0.000356633
-0.000123875
-4.21958e-05
-1.47563e-05
-4.15716e-06
-1.09267e-06
-2.36387e-07
-5.01011e-08
-9.65908e-09
-1.81105e-09
-3.19442e-10
-5.44299e-11
-8.8459e-12
-1.39526e-12
-0.0184507
-0.0140056
-0.00748584
-0.00342998
-0.00219272
-0.00167313
-0.00100353
-0.000285393
-6.31312e-05
-1.4571e-05
-3.16118e-06
-7.207e-07
-1.52812e-07
-3.18973e-08
-6.3752e-09
-1.23333e-09
-2.3287e-10
-4.23089e-11
-7.50231e-12
-1.27992e-12
-0.0135767
-0.0148197
-0.00920783
-0.003763
-0.00180113
-0.000686851
-0.000205339
-9.87809e-05
-2.6405e-05
-9.266e-06
-2.79628e-06
-8.68317e-07
-2.51553e-07
-7.05364e-08
-1.84665e-08
-4.59576e-09
-1.07118e-09
-2.36244e-10
-4.90156e-11
-9.67287e-12
-0.00766203
-0.00760338
-0.00651497
-0.00575336
-0.00374702
-0.000348405
-0.000157151
-3.87414e-05
-7.1776e-06
-2.483e-06
-5.77767e-07
-1.76594e-07
-4.29814e-08
-1.14734e-08
-2.65538e-09
-6.16154e-10
-1.31711e-10
-2.73064e-11
-5.29248e-12
-9.89713e-13
-0.00381936
-0.00290459
-0.00428736
-0.00495711
-0.00377584
-0.00121474
-0.000359605
-6.64055e-05
-9.11453e-06
-2.59872e-06
-6.43071e-07
-1.88076e-07
-4.7157e-08
-1.18907e-08
-2.65818e-09
-5.70529e-10
-1.13483e-10
-2.13888e-11
-3.78717e-12
-6.41036e-13
-0.003779
-0.00651154
-0.00712158
-0.00609369
-0.00335217
-0.00197778
-0.00112429
-6.14541e-05
-1.86177e-05
-2.34498e-06
-4.04509e-07
-5.31934e-08
-8.78586e-09
-1.12751e-09
-5.78872e-11
-1.14609e-11
-2.06751e-12
-3.76337e-13
-6.32531e-14
-1.07526e-14
-0.0124186
-0.00657487
-0.00644872
-0.00427926
-0.00241877
-0.00169937
-0.00203194
-0.00093788
-0.000197022
-2.68056e-05
-1.41449e-06
-5.27912e-08
-1.78267e-09
-6.4709e-11
-1.33728e-12
-3.12309e-14
-6.25644e-15
-1.31417e-15
-2.92451e-16
-8.92711e-17
-0.00291194
-0.00520409
-0.0047984
-0.00424765
-0.00535294
-0.00264486
-0.00176354
-0.000504291
-0.000134749
-8.01553e-06
-4.31498e-07
-1.68135e-08
-4.66806e-10
-9.78813e-12
-1.27241e-13
-1.24362e-14
-2.44794e-15
-3.63148e-16
-5.1288e-17
-8.90551e-18
-0.00236987
-0.00157224
-0.00168223
-0.00392551
-0.00667634
-0.00219937
-0.000505454
-0.000112259
-3.03302e-05
-6.85591e-06
-7.51911e-07
-4.85502e-08
-2.13985e-09
-6.70078e-11
-8.53146e-13
-7.29542e-13
-1.63488e-13
-2.86818e-14
-4.16541e-15
-5.03121e-16
-0.000614351
-0.00392526
-0.00962993
-0.00469152
-0.0025709
-0.00123625
-0.000755305
-0.00036479
-9.15344e-05
-1.87416e-05
-1.82752e-06
-8.37306e-08
-2.33089e-09
-5.13761e-11
-2.84286e-11
-6.11804e-11
-1.15944e-11
-1.99503e-12
-3.0182e-13
-4.03557e-14
-0.00328821
-0.00541508
-0.00655771
-0.00362421
-0.00232521
-0.00192198
-0.00145475
-0.000496764
-0.000214286
-3.52745e-05
-1.12139e-05
-1.54173e-06
-3.00929e-07
-3.35264e-08
-1.45413e-08
-2.90372e-09
-5.00226e-10
-8.50899e-11
-1.3178e-11
-1.92423e-12
-0.00234587
-0.00433882
-0.00448891
-0.0035569
-0.00269449
-0.00291036
-0.00172264
-0.00148682
-0.000695045
-0.000327589
-0.000100359
-2.83015e-05
-6.39473e-06
-1.39356e-06
-2.70364e-07
-5.10462e-08
-9.11181e-09
-1.57113e-09
-2.59617e-10
-4.14754e-11
-0.00110332
-0.00368382
-0.00332405
-0.00316596
-0.00554799
-0.00546528
-0.00535067
-0.00376371
-0.00238998
-0.0010983
-0.000381992
-0.000102383
-2.38289e-05
-4.95864e-06
-9.54421e-07
-1.69923e-07
-2.87299e-08
-4.61329e-09
-7.15181e-10
-1.07665e-10
-0.000608165
-0.00214861
-0.00267358
-0.00280874
-0.00635364
-0.00692177
-0.00801136
-0.00520122
-0.00272204
-0.000881631
-0.000231591
-4.88216e-05
-9.39396e-06
-1.64014e-06
-2.71928e-07
-4.30927e-08
-6.63907e-09
-9.99652e-10
-1.47949e-10
-2.16329e-11
-0.00154125
-0.00247475
-0.00183441
-0.00181542
-0.00841283
-0.00430635
-0.00277948
-0.00122263
-0.000545925
-0.000153485
-4.23988e-05
-9.58465e-06
-2.11564e-06
-4.36621e-07
-8.74581e-08
-1.68323e-08
-3.14497e-09
-5.68242e-10
-9.97829e-11
-1.70626e-11
-0.00420959
-0.00435614
-0.00358154
-0.00231463
-0.00146861
-0.000776957
-0.000548438
-0.000195889
-8.8044e-05
-2.16583e-05
-5.96424e-06
-1.28526e-06
-2.81758e-07
-5.6951e-08
-1.13055e-08
-2.16268e-09
-4.0302e-10
-7.2974e-11
-1.28245e-11
-2.19594e-12
-0.0167915
-0.0131625
-0.0100575
-0.00523958
-0.00258237
-0.00133041
-0.000576878
-0.00020786
-6.37462e-05
-1.85257e-05
-4.86197e-06
-1.2043e-06
-2.69041e-07
-5.63826e-08
-1.07871e-08
-1.93995e-09
-3.24445e-10
-5.14555e-11
-7.71489e-12
-1.1133e-12
-0.0138387
-0.00868673
-0.0129854
-0.0072849
-0.00383783
-0.00211923
-0.00116597
-0.000490556
-0.00016986
-5.33862e-05
-1.49001e-05
-3.90873e-06
-9.25826e-07
-2.04181e-07
-4.12819e-08
-7.79752e-09
-1.37128e-09
-2.27228e-10
-3.5511e-11
-5.29991e-12
-6.60375e-05
-0.000126348
-2.87151e-05
-0.000103057
-1.94011e-05
-4.5687e-05
-9.27578e-06
-4.12389e-06
-1.56147e-05
-2.25755e-06
-1.03667e-05
-1.27702e-06
-4.93391e-06
-6.14294e-07
-8.39132e-06
-0.000107648
-2.30721e-05
-2.32666e-05
-4.73022e-06
-7.25025e-05
-1.59674e-05
-6.84695e-07
-1.24244e-05
-1.52961e-06
-2.56017e-06
-3.49972e-07
-8.71223e-06
-1.11288e-06
-0.0977229
-0.104154
-0.0802779
-0.120392
-0.105987
-0.102285
-0.0918585
-0.0503752
-0.0689831
-0.0360121
-0.0994454
-0.0730424
-0.0867176
-0.0605031
-0.0157685
-0.0273946
-0.00893743
-0.062369
-0.0290319
-0.0495925
-0.0231711
0.00359277
-0.00449159
0.00529524
-0.0208245
-0.00745286
-0.0171768
-0.00632454
0.0101295
0.00745793
0.0112411
-0.00516586
-0.00147169
-0.00431314
-0.0011364
0.0106774
0.0118372
0.0126147
-0.00096423
-0.000306533
-0.000679977
-0.000122756
0.010565
0.0127033
0.0128004
-0.000249631
-0.000113098
-6.57986e-05
-8.76117e-06
0.00979364
0.0128059
0.0124473
-0.000117888
-9.6314e-05
-4.24127e-06
-7.0469e-07
-0.0627532
-0.0806989
-0.0618498
-0.0965062
-0.0787825
-0.080554
-0.0603904
-0.0295774
-0.0554712
-0.0354269
-0.0715645
-0.0490228
-0.0553362
-0.0405471
-0.00864971
-0.0292366
-0.0127916
-0.041665
-0.0220407
-0.0356652
-0.0216457
0.00510389
-0.00812504
0.00312357
-0.0168735
-0.00649456
-0.0173856
-0.00754261
0.0111687
0.00579741
0.0105914
-0.00444691
-0.00117809
-0.00532552
-0.00151364
0.0125883
0.0113903
0.0124448
-0.0007073
-0.000128856
-0.000928858
-0.000177766
0.012792
0.0125504
0.0127365
-6.90897e-05
-9.17058e-06
-9.61413e-05
-1.29459e-05
0.0124989
0.0127426
0.0124387
-4.43683e-06
-4.63553e-07
-6.28877e-06
-6.35385e-07
-0.0671463
-0.0727759
-0.0686845
-0.0746913
-0.0580767
-0.0386346
-0.0254526
-0.039918
-0.067375
-0.0540484
-0.0547334
-0.0427848
-0.0278694
-0.0374106
-0.0142902
-0.0467795
-0.023872
-0.0380324
-0.0231713
-0.036838
-0.0281572
0.00271049
-0.0167497
-3.00774e-05
-0.0185348
-0.00772024
-0.0242809
-0.0113343
0.0104552
0.00364613
0.00997779
-0.00540668
-0.00153309
-0.0079577
-0.0021779
0.012454
0.0109723
0.0123311
-0.000941721
-0.000181084
-0.00132613
-0.000256377
0.0127058
0.0124917
0.0127136
-9.7512e-05
-1.30786e-05
-0.000142797
-2.20077e-05
0.0124522
0.0127395
0.0124884
-6.36604e-06
-6.59151e-07
-1.17827e-05
-2.44118e-06
-0.0688103
-0.0710013
-0.0711621
-0.0324648
-0.021973
-0.0474236
-0.0376735
-0.0559453
-0.0729066
-0.0734783
-0.0247815
-0.035322
-0.0449723
-0.0603793
-0.0263158
-0.0724113
-0.046697
-0.0354953
-0.0285245
-0.0620017
-0.0461964
-0.00164897
-0.0404356
-0.0287615
-0.0251087
-0.0124933
-0.0398993
-0.0271711
0.00919008
-0.0277978
-0.0138767
-0.00901854
-0.00271863
-0.0248964
-0.0129158
0.0119186
-0.0129334
-0.00857215
-0.00172649
-0.00038733
-0.0109457
-0.00663768
0.0124764
-0.00911392
-0.00349664
-0.000236304
-5.06923e-05
-0.00626436
-0.00302301
0.0123373
-0.00410063
-0.00223183
-3.28423e-05
-1.94467e-05
-0.00285683
-0.00206367
-0.0911414
-0.080772
-0.0804062
-0.0492996
-0.0452214
-0.0514723
-0.0393426
-0.045052
-0.0755881
-0.0403265
-0.0372596
-0.0125292
-0.0322888
-0.0100534
-0.00513779
-0.0261485
-0.00487603
-0.00809114
-0.00165449
-0.00618954
-0.00153649
-0.000255228
-0.0026903
-0.000473347
-0.000884825
-0.000134574
-0.000953509
-0.000207468
-1.97464e-05
-0.000267155
-5.40814e-05
-7.05317e-05
-9.54694e-06
-0.000118721
-1.87546e-05
-2.99916e-06
-3.04084e-05
-4.31667e-06
-4.6688e-06
-6.4323e-07
-9.51474e-06
-1.1049e-06
-8.25735e-07
-2.16887e-06
-2.64145e-07
-3.82385e-07
-6.28312e-08
-5.19726e-07
-4.95261e-08
-5.85906e-07
-1.23877e-07
-1.02473e-08
-4.42291e-08
-9.68824e-09
-2.1676e-08
-1.65334e-09
-0.0675428
-0.0549284
-0.0315471
-0.0481582
-0.0282825
-0.0235746
-0.00765775
-0.0290521
-0.0245809
-0.00905537
-0.0213992
-0.00732434
-0.0053848
-0.00201512
-0.00464549
-0.00599278
-0.00153303
-0.0050357
-0.00156051
-0.00146748
-0.000554202
-0.00055263
-0.000938523
-0.000305931
-0.0010175
-0.00024094
-0.000380954
-0.000100976
-6.6449e-05
-0.000238416
-7.14354e-05
-0.000139874
-2.24496e-05
-5.92017e-05
-9.62719e-06
-5.27151e-06
-4.02367e-05
-6.31996e-06
-1.1491e-05
-1.36485e-06
-4.97727e-06
-6.32527e-07
-3.37084e-07
-3.09132e-06
-3.53491e-07
-6.4766e-07
-6.27836e-08
-3.08262e-07
-3.21937e-08
-1.36421e-08
-1.78071e-07
-1.66664e-08
-2.77862e-08
-2.17623e-09
-1.46611e-08
-1.2335e-09
-0.0308384
-0.00778353
-0.00422141
-0.0141957
-0.0045743
-0.00436328
-0.00177759
-0.0121349
-0.0039594
-0.00350549
-0.00319292
-0.00100993
-0.00143552
-0.000821143
-0.00179297
-0.00298683
-0.00123336
-0.000672375
-0.000190683
-0.000679974
-0.000320014
-0.00015471
-0.000841081
-0.000293714
-0.000121361
-2.76739e-05
-0.000219844
-4.97682e-05
-1.98646e-05
-0.000207942
-4.86605e-05
-1.60089e-05
-2.68648e-06
-2.80066e-05
-4.29852e-06
-2.11102e-06
-2.83628e-05
-4.56429e-06
-1.44585e-06
-2.08472e-07
-2.24761e-06
-3.01513e-07
-1.65248e-07
-2.36599e-06
-2.9568e-07
-1.05551e-07
-1.19422e-08
-1.55544e-07
-1.94401e-08
-8.00313e-09
-1.45978e-07
-2.00299e-08
-5.5643e-09
-4.95113e-10
-9.81157e-09
-1.20271e-09
-0.00310071
-0.00518659
-0.00468698
-0.00271372
-0.00164652
-0.00454842
-0.00297834
-0.00267714
-0.0051431
-0.00841042
-0.00134449
-0.000842222
-0.00268807
-0.00452359
-0.00109807
-0.00896079
-0.00608858
-0.000746595
-0.000390626
-0.00518801
-0.00265859
-0.000296936
-0.00491323
-0.00257251
-0.000277151
-6.95909e-05
-0.0020431
-0.0012065
-7.71559e-05
-0.00220978
-0.000836359
-4.16208e-05
-7.8319e-06
-0.0010642
-0.000345412
-1.01159e-05
-0.000595058
-0.000223282
-4.52359e-06
-8.09766e-07
-0.000258969
-0.000103354
-8.88037e-07
-0.000166054
-4.39851e-05
-4.90433e-07
-8.33193e-08
-8.13126e-05
-1.97582e-05
-8.62017e-08