/*--------------------------------*- C++ -*----------------------------------*\
  =========                 |
  \\      /  F ield         | OpenFOAM: The Open Source CFD Toolbox
   \\    /   O peration     | Website:  https://openfoam.org
    \\  /    A nd           | Version:  10
     \\/     M anipulation  |
\*---------------------------------------------------------------------------*/
FoamFile
{
    format      ascii;
    class       volVectorField;
    location    "0.4";
    object      U;
}
// * * * * * * * * * * * * * * * * * * * * * * * * * * * * * * * * * * * * * //

dimensions      [0 1 -1 0 0 0 0];

internalField   nonuniform List<vector> 
12920
(
(-127.2 232.428 -24.2016)
(-111.878 68.761 -52.7796)
(106.788 43.3467 -22.5594)
(8.58387 48.2243 -8.90377)
(83.4653 31.3915 -4.83493)
(58.0094 9.29251 -3.63169)
(89.4948 10.1233 -0.753755)
(75.4093 0.631224 -2.32078)
(85.2054 9.28426 -1.73841)
(62.8454 9.03378 -2.2983)
(52.5888 15.3812 2.43986)
(16.3044 8.33874 2.88068)
(19.3172 4.47099 0.739336)
(5.09309 2.48395 0.214491)
(9.86639 1.28817 0.0785709)
(3.84786 1.02041 0.0158327)
(6.23851 0.480023 0.00570951)
(4.69843 0.48974 -0.000216666)
(4.92611 0.19648 -0.00326173)
(4.64979 0.191371 0.0109517)
(50.5598 101.452 33.0743)
(-95.6423 30.2612 31.6803)
(36.5923 12.4581 15.5362)
(-93.1951 26.8157 -2.38303)
(58.1922 -11.7537 -3.81191)
(-51.5203 -3.45305 0.837187)
(43.8127 -2.84488 -0.431248)
(-16.9776 1.83103 0.546448)
(33.1 8.57118 1.18672)
(-3.15452 10.0939 0.957227)
(21.5032 11.3134 1.46357)
(0.123473 7.73066 0.633068)
(13.6243 3.31566 0.26462)
(1.99243 2.02918 0.078517)
(8.6968 0.723953 0.035132)
(3.2106 0.666387 0.00459558)
(5.8386 0.161205 0.00459073)
(4.54617 0.244545 -0.000354344)
(4.76946 -0.0356216 -0.0027222)
(4.61242 0.0490291 0.0108072)
(69.6567 133.156 8.40425)
(7.77046 60.4395 -19.5403)
(108.63 78.5284 5.44659)
(14.7241 54.9896 7.43478)
(62.4341 31.2153 5.26432)
(-11.0118 27.9081 0.200284)
(42.5123 8.99375 -1.97949)
(-6.83561 16.8638 0.529101)
(26.8738 7.40798 0.526393)
(-3.28874 15.0902 0.792495)
(18.2188 8.47523 0.619028)
(0.752187 10.1435 0.337864)
(13.1216 4.03738 0.123573)
(2.38531 4.98745 0.0390516)
(8.6307 1.72522 0.0153433)
(3.40066 2.27452 0.00169149)
(5.93844 0.762674 0.00266578)
(4.65692 1.04275 -0.00105886)
(4.86453 0.209635 -0.00365723)
(4.64668 0.34403 0.0110193)
(-62.7547 100.576 31.6456)
(-161.859 62.7082 -12.2544)
(40.7542 65.906 16.9234)
(-124.164 66.3237 8.07048)
(35.2686 51.5109 -1.42231)
(-81.0835 31.9834 -1.37103)
(33.0454 24.5994 -2.81726)
(-38.7108 18.9261 0.514307)
(18.7375 12.2585 0.0404711)
(-17.867 13.1763 0.279416)
(12.0285 7.62425 0.154842)
(-5.81149 8.01916 0.0695635)
(8.86293 3.76225 0.0365371)
(-0.113568 4.0407 0.00823236)
(6.18298 1.52551 0.00516794)
(2.32405 1.84897 0.000180652)
(4.64107 0.571457 0.00214407)
(4.07113 0.840546 -0.000402213)
(4.16117 0.100381 -0.00235921)
(4.25454 0.248319 0.0105412)
(138.628 107.544 -79.0857)
(-193.995 39.5774 37.2329)
(-9.91857 28.3 1.74312)
(-145.269 56.7498 -0.645883)
(54.4714 28.6176 -0.95482)
(-81.2031 45.0503 -0.486222)
(39.9503 2.27074 -2.03534)
(-26.3364 29.1771 -0.0993959)
(20.2187 -4.43057 -0.483455)
(-11.8983 19.259 -0.0432893)
(12.5651 -0.617191 -0.0744996)
(-4.2799 11.4862 -0.00566438)
(8.98305 0.925292 -0.00794632)
(-0.184476 6.1917 -0.00382066)
(6.35607 0.764136 0.000462489)
(2.35991 2.73902 -0.00209939)
(4.87687 0.462582 0.00131149)
(4.16241 1.23056 -0.00118417)
(4.24303 0.0450581 -0.00362851)
(4.23726 0.356677 0.0114409)
(79.3926 129.862 45.1333)
(-150.76 105.549 23.9981)
(-62.8411 56.6939 10.831)
(-163.081 39.2356 -3.7096)
(18.0616 29.9732 -6.1709)
(-110.712 39.851 -3.14839)
(34.8278 -10.0165 -1.73026)
(-43.0428 32.3159 0.547523)
(7.35543 2.30808 -0.0706114)
(-15.9223 16.3055 0.089949)
(3.17763 3.41321 0.00954394)
(-5.08392 8.44551 0.0193287)
(3.40227 1.95275 0.00631295)
(-0.379644 4.66455 0.0046165)
(2.76968 0.966707 0.00270068)
(2.02211 2.3348 0.000120762)
(3.16423 0.558593 0.00153928)
(3.73329 1.19961 -0.00056934)
(3.37715 0.17834 -0.00154607)
(3.76905 0.369489 0.011427)
(-80.6086 245.614 2.44962)
(-176.264 91.4895 32.8043)
(-66.1276 63.0747 13.9213)
(-145.567 27.7418 -25.8411)
(48.4876 46.5555 -15.8719)
(-61.4179 43.912 -5.21367)
(18.4839 -50.8186 -1.86816)
(-59.3017 48.1087 1.24082)
(-11.2244 -28.3826 -0.105629)
(-29.3724 23.3101 -0.0246466)
(0.167985 -9.96262 -0.103639)
(-10.0343 11.6444 -0.0330908)
(3.96807 -3.45864 -0.0297829)
(-2.20471 6.56365 -0.0233255)
(3.69 -0.468492 -0.00170521)
(1.71047 2.20558 -0.0027321)
(3.59637 0.0348477 0.00289419)
(3.69233 0.96574 0.00208899)
(3.39382 -0.0782648 -0.00252229)
(3.62593 0.265876 0.0113313)
(-49.8895 159.753 1.02867)
(-219.792 14.4724 11.9372)
(45.5159 61.75 9.54772)
(-107.726 44.6997 -2.16609)
(58.8345 42.3034 -1.85256)
(-37.2663 83.6624 -1.22354)
(21.4674 20.7974 -0.57181)
(-57.146 45.4844 1.32113)
(-12.3489 -7.28656 0.424052)
(-32.5768 4.37319 -0.0368203)
(0.509683 1.0081 -0.0361471)
(-10.1901 4.04155 0.0089991)
(2.97319 3.92461 -0.0124255)
(-3.21623 6.21493 -0.0275071)
(-0.262799 -1.3549 -0.0195371)
(2.83428 1.23384 -0.0138462)
(1.99566 0.34711 -0.00935267)
(3.5801 1.20081 -0.00787355)
(2.66664 0.325483 -0.00205636)
(3.25373 0.387374 0.00981515)
(131.863 88.113 -185.368)
(-76.8833 83.7715 14.9747)
(64.1105 59.8724 7.68157)
(-34.9394 22.0442 8.71834)
(44.2468 -0.136723 6.99012)
(-1.40406 39.5884 -0.442481)
(29.0579 40.7867 1.9472)
(-16.4452 6.94766 1.33758)
(1.70887 -7.18122 0.384658)
(-8.88148 0.642415 -0.487175)
(-1.0614 4.17329 0.000759487)
(-5.71088 5.20911 -0.102133)
(-1.27697 6.80882 -0.00220543)
(-2.61902 6.25562 -0.0328315)
(1.21848 5.75913 -0.0331422)
(0.144452 0.302026 -0.0196827)
(1.53265 0.181742 -0.00885648)
(2.16635 0.434523 -0.0143456)
(2.01886 0.0743605 -0.01331)
(2.89335 0.0945905 0.00615564)
(57.6603 168.244 -76.277)
(-175.594 -0.26457 -35.4875)
(122.919 8.23459 -26.7603)
(3.62072 6.43501 3.06399)
(56.0794 2.61909 13.2919)
(-53.1819 11.3497 2.59319)
(-16.3153 18.3341 2.41802)
(-7.03729 2.66713 -0.412574)
(-3.48892 -2.50963 -0.433745)
(-1.40312 -2.05386 -0.32795)
(-0.0742483 -0.189659 -0.0386514)
(-1.03982 0.51899 -0.033052)
(-0.663612 1.17243 -0.0615491)
(-0.414154 1.09612 -0.0403752)
(1.87955 2.28854 -0.0233447)
(1.3885 1.36134 -0.0294641)
(1.2622 -0.199041 -0.00946157)
(2.60337 0.351764 -0.0116016)
(1.8129 -0.369329 -0.00490454)
(2.64802 -0.118521 0.00732057)
(101.106 65.9051 134.23)
(64.8825 102.739 -37.504)
(167.501 63.2608 -11.8691)
(83.9809 16.9078 -6.33216)
(59.191 13.5257 25.9992)
(-63.0153 -1.47757 0.238256)
(-22.6028 -11.4509 1.04055)
(1.03546 -9.14276 0.540761)
(0.53401 -1.32391 -0.627146)
(1.21614 0.986695 -0.432926)
(1.11087 0.914976 -0.136227)
(0.428558 0.407721 -0.145561)
(0.0619307 0.458708 -0.0733945)
(0.210987 0.333631 -0.0872363)
(2.0069 0.447582 0.00193814)
(1.0931 -0.554367 -0.0219113)
(1.12126 0.185194 -0.00543138)
(2.39047 -0.217752 -0.00943694)
(1.60583 -0.180841 -0.00485975)
(2.5016 -0.253455 0.00683645)
(123.231 -104.156 26.5089)
(49.1518 -3.86394 -1.96107)
(141.439 52.8824 35.9562)
(-60.3422 42.8152 17.921)
(40.2467 43.4453 5.23187)
(-60.1836 -26.4839 -2.02459)
(-13.8615 -29.9577 -1.56274)
(-1.1117 -13.0653 -1.29148)
(0.59609 3.32002 0.232227)
(-0.482084 5.13757 -0.0713306)
(-0.493783 1.90069 -0.0771019)
(-1.08892 0.303593 -0.0195678)
(-0.63295 -0.5118 -0.0129552)
(-0.426965 -0.625347 -0.0112835)
(2.72819 -0.673234 -0.0429589)
(-0.182205 0.790517 -0.0158596)
(1.18725 0.0110515 -0.0156077)
(1.93486 -0.226116 -0.0158688)
(1.47539 -0.481704 -0.0102461)
(2.40676 -0.540361 0.00635102)
(178.977 -76.7056 -244.791)
(-139.926 21.3887 -7.17231)
(43.9044 52.1334 -2.63219)
(-130.674 13.0065 -0.552279)
(43.6226 2.52891 -6.67703)
(-42.7989 -36.3979 -5.5792)
(13.9666 3.4847 -2.96337)
(-7.83335 6.18568 -0.617904)
(-1.7441 -2.57625 0.760268)
(-14.6317 -0.229721 0.252888)
(0.570123 -2.47532 -0.0767945)
(-3.52563 -1.98807 -0.102931)
(2.93865 -2.28454 -0.022704)
(-0.979948 -2.46302 -0.00964522)
(-1.01658 1.19217 -0.0265803)
(2.25191 0.178299 -0.0127391)
(1.10625 0.0244454 -0.00913625)
(2.95864 -0.623629 -0.00824651)
(2.00171 -0.363193 -0.00388043)
(2.50845 -0.645486 0.00908059)
(45.3311 -198.585 14.8494)
(-205.486 14.4206 12.7747)
(38.8176 19.0422 7.75847)
(-55.195 30.6728 -6.752)
(56.6229 27.8729 -13.8602)
(-3.54118 23.8127 -13.6615)
(26.5264 51.5982 -13.316)
(4.94067 9.44803 -11.3577)
(16.5973 17.7005 -5.90183)
(7.06867 -8.63633 -1.06822)
(11.0551 0.168748 0.597887)
(2.18506 -6.72825 0.516187)
(5.00843 2.10173 0.264655)
(0.421876 -2.29969 0.0969593)
(2.32788 1.14656 0.0360353)
(1.87731 -0.70051 0.0095496)
(1.94325 0.118656 0.00662456)
(2.74359 -0.645997 -0.00429012)
(1.9614 -0.32734 -0.000877974)
(2.34701 -0.477212 0.00622705)
(123.316 -265.974 41.9022)
(-91.2823 -81.868 35.1726)
(28.5502 -6.06933 5.97832)
(-37.4377 37.7066 -6.41066)
(45.2581 47.406 -12.2127)
(0.773555 50.4036 -11.2718)
(51.2224 57.2758 -10.4836)
(42.0059 41.365 -9.60362)
(57.021 23.4804 -0.621168)
(31.08 0.0232057 3.15072)
(20.6806 1.77547 3.2767)
(6.26504 -3.09085 1.18685)
(6.42506 0.923957 0.199587)
(2.70833 -1.36355 0.0766262)
(3.12844 1.13276 0.0213787)
(2.26866 -0.397882 0.00744245)
(1.95228 0.273885 0.0027493)
(2.82551 -0.525278 -0.00107283)
(2.11656 -0.203177 -0.0127002)
(2.4074 -0.379346 0.0191913)
(307.078 -145.887 13.4362)
(90.1955 -54.544 42.8975)
(96.4195 -17.8546 32.3467)
(23.168 44.1327 0.878222)
(78.6817 50.4927 0.104964)
(46.1827 48.559 -0.269911)
(71.9749 48.2997 4.5921)
(53.9187 19.5225 5.63378)
(55.4 22.5201 6.83824)
(22.7684 3.66147 4.65691)
(19.0843 12.9942 2.59966)
(3.82648 0.853958 0.863966)
(6.87773 4.88426 0.244968)
(0.530459 -0.171132 0.0636798)
(3.24288 1.92071 0.0234156)
(1.02677 -0.163257 0.0057525)
(1.85355 0.492607 0.00349788)
(2.33306 -0.370016 0.000242009)
(2.03913 -0.0846976 -0.0076805)
(2.26279 -0.2485 0.014905)
(104.109 -56.686 -123.664)
(11.3499 -2.29399 -6.30727)
(53.7836 12.2421 22.1782)
(17.0482 28.5761 9.70436)
(57.3448 26.6783 12.3588)
(18.7587 9.54611 8.42457)
(45.9477 12.4313 11.5544)
(5.98518 -2.17026 7.9083)
(22.9969 13.1101 5.80714)
(-3.21005 4.93884 2.39627)
(10.4102 10.2465 1.23742)
(-1.74184 1.96421 0.339648)
(5.43348 3.92379 0.110794)
(-0.416583 0.372274 0.0342039)
(3.04754 1.46288 0.0130977)
(0.863934 0.0438545 0.00300451)
(1.74058 0.460979 0.0027466)
(2.20481 -0.222787 -0.000354114)
(2.02003 -0.0123351 -0.00883085)
(2.21726 -0.199542 0.0159608)
(84.7414 129.552 117.915)
(-137.432 88.9451 28.8115)
(59.629 34.4159 -6.14222)
(-2.13234 38.811 -4.67465)
(49.3926 16.0588 11.388)
(-10.6756 -3.75426 -0.907904)
(26.1798 4.30489 -0.0279162)
(-16.4866 -5.7818 -1.06929)
(12.1117 9.3852 -0.636844)
(-11.2864 0.720889 -0.203348)
(7.54567 8.12792 0.094647)
(-5.18796 0.949143 0.037451)
(4.90758 3.89145 0.0354064)
(-2.01084 0.319654 0.00993827)
(2.96912 1.68027 0.00684745)
(0.0311935 0.114947 0.00105957)
(1.63446 0.602444 0.00221855)
(1.82188 -0.0738177 -0.00043902)
(1.94281 0.142246 -0.00839904)
(2.09565 -0.112658 0.0163476)
(-91.3858 248.748 61.0564)
(-228.822 29.0558 26.9886)
(-47.8217 27.4695 -8.231)
(-143.147 45.0902 0.756062)
(7.4694 39.0213 2.38095)
(-79.0435 15.057 -5.94533)
(12.4591 19.0972 -5.06858)
(-38.4892 3.93928 -2.48849)
(8.00856 10.3115 -1.65036)
(-18.9411 2.55228 -0.523129)
(5.86145 5.65212 -0.24252)
(-8.2998 1.15527 -0.06159)
(4.23818 2.18314 -0.0234615)
(-2.89901 0.29189 -0.00494848)
(2.81509 0.781391 0.000326508)
(-0.214543 0.0251074 -0.00063192)
(1.62827 0.222277 0.00156145)
(1.77547 -0.0725212 -0.000947665)
(1.97425 0.00174479 -0.00908736)
(2.09666 -0.0982768 0.0156325)
(137.209 -69.2885 -1.08707)
(-48.1577 -86.8308 4.86203)
(22.7099 -10.8646 -5.15676)
(-37.8239 3.6595 9.08016)
(11.1171 3.96784 17.1782)
(-66.8427 2.07241 1.84113)
(9.93429 -0.282277 1.56516)
(-37.8224 0.421621 0.182956)
(7.06865 1.46854 -0.204385)
(-19.2549 0.30401 -0.0323156)
(5.46144 1.48432 -0.0378709)
(-9.08421 0.167051 -0.0102222)
(4.00468 0.913943 -0.00506237)
(-3.5086 0.0874298 -0.000853898)
(2.60903 0.48322 0.000703694)
(-0.671949 0.0485473 -0.000654822)
(1.39623 0.237259 0.00162152)
(1.41654 0.0236223 -0.000641957)
(1.71249 0.131559 -0.00863007)
(1.89223 -0.00120985 0.0167604)
(148.472 131.081 -31.9531)
(-74.2099 45.7049 -82.5158)
(106.974 16.3886 -52.1917)
(-23.1184 28.7267 -23.597)
(76.849 11.6643 -15.6932)
(35.7534 -9.87799 -8.54967)
(76.7622 -9.12338 -3.09969)
(58.0115 -17.0644 -1.74085)
(73.551 -1.12567 3.16413)
(42.368 5.00115 5.58462)
(37.4594 13.6753 9.82623)
(12.6656 8.04149 6.42316)
(18.3646 4.73151 2.16973)
(5.17488 2.59386 0.636387)
(10.1099 1.32027 0.20402)
(4.15193 1.03106 0.0378158)
(6.55062 0.48633 0.013258)
(5.02372 0.493066 0.00180648)
(5.25257 0.199017 0.00172187)
(4.95854 0.192304 0.0207987)
(73.7729 133.972 152.726)
(-141.861 6.59631 -24.0613)
(62.1005 -5.21139 -15.4206)
(-90.2079 15.4945 -12.6942)
(54.0276 -16.6243 -6.82664)
(-67.0436 -6.07469 -5.99377)
(42.0819 -6.39388 -9.39762)
(-33.0086 0.650386 -4.63965)
(25.9607 6.25559 -3.83914)
(-13.0558 8.18216 0.248879)
(18.0779 9.44358 2.00574)
(-1.28622 6.36897 1.05982)
(13.5147 3.02048 0.436127)
(2.17166 1.95168 0.149266)
(8.95558 0.699667 0.0645275)
(3.51065 0.660618 0.0083192)
(6.13816 0.159801 0.0076456)
(4.85576 0.243176 6.75525e-05)
(5.0808 -0.0366002 0.00173513)
(4.90833 0.0482437 0.020311)
(335.821 -144.564 -88.0677)
(34.7359 -44.5989 -24.1627)
(81.9986 59.8816 -11.9705)
(-12.973 50.7747 -8.13828)
(64.6902 27.9592 -13.1651)
(1.94612 22.2793 -7.53123)
(43.8961 5.47649 -7.63399)
(-6.64699 15.1847 -2.90651)
(26.0872 6.40062 -1.29402)
(-4.17664 14.6744 0.115714)
(18.0475 8.11488 0.643789)
(0.839781 10.061 0.401373)
(13.3296 4.03196 0.165938)
(2.68903 4.99588 0.0486163)
(8.92819 1.73606 0.0258822)
(3.72025 2.28101 0.00185168)
(6.24695 0.768778 0.00530989)
(4.9723 1.04549 -0.000919751)
(5.17902 0.212214 0.00063145)
(4.94489 0.344425 0.0206527)
(301.428 228.288 169.571)
(-188.829 69.242 -11.4478)
(3.9861 47.5549 -14.367)
(-131.97 54.2625 -15.9837)
(34.8417 40.3567 -10.0363)
(-83.5715 27.2001 -6.22841)
(33.3053 23.019 -7.84157)
(-37.3542 18.9888 -0.595097)
(18.7129 12.614 -1.04454)
(-17.5506 13.3324 0.0170684)
(12.231 7.64677 0.0468264)
(-5.55636 8.01096 0.0808473)
(9.10611 3.77043 0.0498522)
(0.176753 4.04555 0.0111218)
(6.46514 1.53238 0.00811347)
(2.62727 1.85102 -0.00127831)
(4.93854 0.573743 0.00319347)
(4.37784 0.840594 -0.000504061)
(4.47177 0.101035 0.00186966)
(4.55037 0.247993 0.0201848)
(174.891 -35.9749 -38.2438)
(-174.47 29.0614 12.7834)
(-20.8955 16.0116 -17.9461)
(-146.806 39.6472 -18.2707)
(57.5818 12.0616 -11.5896)
(-80.3423 42.4231 2.03415)
(39.7658 2.2537 -0.896334)
(-25.3004 29.9092 0.985795)
(20.3543 -3.71152 0.307546)
(-11.3914 19.5347 0.259637)
(12.8256 -0.435289 0.128129)
(-3.92538 11.5342 0.0602098)
(9.26627 0.967376 0.0287638)
(0.142751 6.19716 0.00429245)
(6.65921 0.777424 0.00556888)
(2.6816 2.73896 -0.00321643)
(5.18889 0.466232 0.00194773)
(4.48082 1.22957 -0.00153034)
(4.56177 0.0463301 0.000352155)
(4.54346 0.355881 0.0214862)
(237.882 129.3 16.3356)
(-137.665 94.5992 16.14)
(-62 50.4838 -5.30155)
(-163.934 22.612 -23.3322)
(24.9342 18.5974 -15.7111)
(-107.37 39.2838 -4.42953)
(30.9581 -17.9252 -1.50113)
(-42.72 31.9916 1.65253)
(7.05261 2.54688 0.18836)
(-15.5987 16.3552 0.290991)
(3.38869 3.48627 0.0561295)
(-4.79942 8.45065 0.0495712)
(3.65792 1.9721 0.0180085)
(-0.0906358 4.66109 0.00386031)
(3.05475 0.976494 0.000898545)
(2.31951 2.33502 -0.00280568)
(3.4608 0.560386 0.00133129)
(4.03708 1.19953 -0.000695433)
(3.68637 0.179202 0.00302477)
(4.07149 0.368787 0.0216515)
(-41.6914 167.138 45.2297)
(-178.714 78.1835 -2.72208)
(8.44115 50.6535 -26.414)
(-113.315 7.91384 -27.871)
(43.3106 19.6917 -17.7125)
(-65.91 35.192 -3.34231)
(10.6689 -59.3627 -2.96114)
(-60.8358 48.5659 3.4896)
(-11.4797 -28.4294 0.230962)
(-28.8984 23.2753 0.247303)
(0.392725 -9.85767 0.00679402)
(-9.68163 11.677 0.0100149)
(4.21445 -3.40503 -0.00280421)
(-1.90714 6.57566 -0.0147803)
(3.98214 -0.444362 0.00283599)
(2.01516 2.20991 -0.00394944)
(3.90158 0.0348967 0.00254134)
(4.00652 0.958704 0.00197747)
(3.71444 -0.08121 0.00150277)
(3.93245 0.262338 0.0216715)
(-66.884 38.1305 5.21896)
(-201.75 -13.7335 -53.3396)
(61.5657 17.3203 -28.8236)
(-111.872 -6.47847 -6.77336)
(52.4513 -7.98468 -0.676561)
(-61.5035 66.7942 5.21827)
(10.6724 3.65577 -3.5397)
(-57.3688 46.9837 5.2023)
(-11.3254 -6.51408 1.14262)
(-31.5246 2.93026 0.0810774)
(1.38989 0.891629 0.0456799)
(-9.08828 3.47672 -0.00978004)
(3.78815 3.78331 0.0478983)
(-2.3025 6.13378 0.00227444)
(0.102822 -1.36341 -0.00249381)
(3.18552 1.21779 9.95249e-05)
(2.31353 0.35103 -0.000126342)
(3.88511 1.20487 -0.00306405)
(2.96734 0.332358 0.00388615)
(3.54554 0.391133 0.0199299)
(200.313 38.9333 -21.33)
(-53.6729 29.5612 31.1271)
(69.0771 -3.26917 8.42358)
(-68.6794 -21.0688 9.18983)
(27.7469 -27.0364 6.07165)
(-29.2474 24.3012 1.93321)
(21.2523 27.8706 3.76211)
(14.3354 14.5999 5.68972)
(14.4026 -4.30705 1.20591)
(-1.14867 -0.270437 -0.540407)
(1.65778 3.78055 -0.0360488)
(-3.51838 4.65272 -0.0287472)
(0.45891 6.56569 0.00746753)
(-0.893756 6.06294 -0.00690317)
(1.96466 5.68207 -0.00323398)
(0.527182 0.277157 -0.0101951)
(1.9162 0.176239 0.00590105)
(2.5197 0.426225 -0.00614935)
(2.34125 0.0662855 -0.00550128)
(3.17962 0.0880409 0.017092)
(95.2814 319.168 109.358)
(-82.3604 35.9102 26.7259)
(114.942 18.8093 -39.0828)
(-23.4801 -0.0523699 12.4991)
(40.715 -0.652874 15.3731)
(-32.21 7.30056 9.03374)
(-1.41117 9.95061 9.02391)
(5.84947 6.76772 7.03173)
(4.59537 2.0415 1.45072)
(1.86523 -1.79545 0.0897293)
(1.85529 -0.346688 -0.028835)
(0.5498 0.458766 0.0250329)
(0.652974 1.11257 -0.0369334)
(1.26335 1.03214 0.0452143)
(2.68041 2.26251 -0.0267313)
(1.7557 1.31595 -0.00594437)
(1.61614 -0.222949 0.00833369)
(2.93849 0.343978 -0.00350399)
(2.13671 -0.36151 0.000219525)
(2.95123 -0.112919 0.017939)
(240.153 290.231 182.961)
(-171.974 79.767 10.4241)
(115.679 0.0578861 -12.2809)
(-45.6267 -1.3592 20.3837)
(27.3967 14.5068 37.179)
(-56.7617 3.88922 12.7167)
(-24.911 -2.61869 5.09947)
(0.476379 -4.39067 3.38867)
(4.82932 -3.46808 0.64647)
(5.05277 -0.136528 -0.198162)
(3.08286 0.489625 -0.236694)
(1.40685 0.0179226 -0.358626)
(1.57293 0.158318 -0.182417)
(1.76009 0.099066 -0.189192)
(2.71199 0.442042 -0.0332052)
(1.4606 -0.561385 -0.00246473)
(1.476 0.182913 0.00704716)
(2.72327 -0.225505 -0.00541711)
(1.9324 -0.195177 -0.00292254)
(2.80562 -0.263226 0.0169459)
(153.759 -95.8107 97.6097)
(-73.5027 7.99504 14.5611)
(93.6152 33.5164 35.7795)
(-98.1412 43.392 17.4309)
(30.6511 48.0672 5.70347)
(-79.7828 -20.0042 -1.50238)
(-17.5289 -20.8577 -8.86397)
(1.33158 -7.21708 -6.34522)
(7.28014 -1.70595 -2.26268)
(3.85644 2.83537 -0.451221)
(1.44692 1.75742 -0.0128109)
(0.518196 0.250929 0.0836099)
(0.93506 -0.590346 0.00628651)
(1.14087 -0.729085 0.00500866)
(3.46111 -0.768347 -0.024277)
(0.225123 0.806655 -0.0030486)
(1.56048 0.00824518 -0.000149282)
(2.25988 -0.230005 -0.00951374)
(1.77777 -0.483308 -0.0105158)
(2.68763 -0.54188 0.0152992)
(190.283 121.646 44.908)
(13.2192 31.7638 25.4606)
(52.3317 55.0333 27.1593)
(-77.4785 54.1403 -10.7436)
(43.5366 27.7856 -12.482)
(-39.0207 -25.033 -11.1606)
(10.6827 10.0501 -8.52992)
(-16.3574 7.8302 -4.29853)
(-2.30664 -1.50908 -0.444074)
(-13.2766 0.0914534 0.220925)
(1.41823 -2.38334 0.174719)
(-2.75529 -1.97416 0.149236)
(3.55014 -2.34243 0.0545489)
(-0.290413 -2.50114 0.0120525)
(-0.625865 1.18767 0.00644119)
(2.61503 0.180522 0.00299666)
(1.43306 0.0169421 -0.00065509)
(3.26302 -0.632907 -0.00930255)
(2.30881 -0.374179 -0.0154318)
(2.81214 -0.656972 0.0165491)
(49.2554 37.9637 -141.328)
(-166.092 9.32705 -12.7843)
(46.4548 30.2944 -19.3825)
(-35.6153 44.4783 -20.5068)
(62.3092 30.999 -23.0431)
(-3.74608 8.03467 -15.5076)
(25.3143 37.9714 -11.6807)
(-0.778838 -7.10824 -6.54307)
(9.8753 8.02303 -2.20555)
(-0.848464 -13.7828 1.4734)
(7.0378 -0.0695038 1.77772)
(0.442443 -6.52209 0.85254)
(4.57387 2.13166 0.359511)
(0.508549 -2.29774 0.122133)
(2.58983 1.12964 0.0511019)
(2.19818 -0.711883 0.0122573)
(2.27383 0.108276 0.0105718)
(3.08347 -0.651197 -0.0085461)
(2.30692 -0.33772 -0.00742244)
(2.67021 -0.47734 0.00947621)
(147.364 -89.8164 -118.573)
(-25.7772 -66.8883 4.87496)
(50.5175 -29.1214 4.51542)
(-5.53401 2.72335 -7.47118)
(56.488 6.754 -4.60345)
(8.64862 -1.88477 -3.7797)
(50.6332 4.55025 3.05712)
(26.39 -10.1323 0.165224)
(32.0857 -3.98171 5.57054)
(15.48 -11.6665 6.8187)
(15.8446 -1.01424 6.39289)
(5.78023 -3.51037 2.38096)
(6.40674 1.05025 0.402519)
(3.02949 -1.3365 0.139143)
(3.46429 1.11592 0.0368853)
(2.61856 -0.403962 0.0134215)
(2.29667 0.267172 0.00602427)
(3.16498 -0.526787 -0.00114968)
(2.46961 -0.210489 -0.0196225)
(2.72966 -0.378651 0.0227758)
(165.576 0.13142 60.5687)
(-116.416 -29.0627 -27.0324)
(64.2327 -35.5567 -4.90346)
(-0.697205 -1.61451 -10.5005)
(74.2988 9.8536 3.84451)
(39.1012 6.04003 5.43632)
(67.8078 16.4127 15.1693)
(40.06 -4.0712 12.5121)
(40.483 10.6689 13.1966)
(12.7464 -0.231393 8.34426)
(16.0303 10.4209 5.52947)
(2.80073 0.263805 1.68818)
(6.76546 4.81372 0.560131)
(0.770997 -0.182203 0.124535)
(3.55851 1.91446 0.0482347)
(1.37017 -0.1636 0.0108526)
(2.19317 0.487916 0.00855122)
(2.67487 -0.372305 0.00153753)
(2.3892 -0.0877491 -0.00759274)
(2.58734 -0.251901 0.0144037)
(68.0605 -0.800915 -67.4986)
(-106.083 66.8138 -36.4622)
(4.42661 1.87383 -36.1359)
(-64.8761 -7.87814 -9.37815)
(27.6258 -1.27396 15.7299)
(-25.7699 -19.2305 11.6794)
(27.3957 0.077034 18.0239)
(-11.8554 -4.53828 11.2979)
(16.3951 14.0708 7.54362)
(-6.73996 5.46078 3.25769)
(9.44683 10.1242 1.59551)
(-1.96392 1.91652 0.419943)
(5.63374 3.91516 0.103568)
(-0.0932558 0.372779 0.0341927)
(3.38424 1.4566 0.0136919)
(1.2172 0.0429415 0.00259565)
(2.08592 0.457246 0.00511187)
(2.54962 -0.225063 0.000290301)
(2.37054 -0.0152154 -0.00945518)
(2.54347 -0.200462 0.0161896)
(6.93897 -73.3108 48.6279)
(-169.837 32.1422 -40.1032)
(84.3319 2.63337 -44.7635)
(-117.424 23.0709 -5.47206)
(49.5421 8.52977 -9.6832)
(-29.3283 3.61144 3.68797)
(21.5531 17.1636 3.05526)
(-23.5992 4.02869 1.88447)
(9.2175 15.0599 0.849619)
(-12.9817 3.15088 0.596895)
(7.08858 8.90904 0.438819)
(-5.22516 1.22412 0.153378)
(5.11035 3.96345 0.0812912)
(-1.7026 0.346217 0.0195601)
(3.29222 1.6838 0.0131124)
(0.377353 0.119484 0.0019665)
(1.97269 0.60167 0.00528128)
(2.16354 -0.0736916 0.000225581)
(2.29143 0.141063 -0.00890228)
(2.42187 -0.113101 0.017145)
(-195.87 55.189 27.6801)
(-258.433 4.66923 17.0387)
(-115.501 20.8524 0.235131)
(-182.456 37.8834 -14.7528)
(18.2372 29.5683 -13.3874)
(-74.9697 10.1913 0.835629)
(13.1359 17.4292 -3.5305)
(-36.924 3.24444 -0.783894)
(8.28957 10.4351 -1.04222)
(-18.261 2.63716 -0.164715)
(6.18838 5.64927 -0.12025)
(-7.89769 1.16121 -0.00802422)
(4.55965 2.17226 -0.00605823)
(-2.54198 0.292211 -0.000510718)
(3.1482 0.778446 0.00430921)
(0.136472 0.0246749 -0.000591066)
(1.96941 0.220458 0.00416251)
(2.11885 -0.0737947 -0.000384821)
(2.32168 0.000645783 -0.00956917)
(2.41675 -0.0991645 0.0166851)
(190.114 16.3883 102.851)
(-22.8655 -55.7638 29.4772)
(20.5485 -11.2122 22.9141)
(-99.3621 -20.0248 4.5154)
(17.4225 -10.2565 12.6835)
(-69.5195 -2.5716 1.8264)
(12.6986 -0.410577 -1.35052)
(-35.8371 0.387534 -0.0196269)
(7.6613 1.56001 -0.480012)
(-18.566 0.353213 -0.00790631)
(5.81106 1.52659 -0.0198067)
(-8.68246 0.187433 0.0113571)
(4.33512 0.923042 0.00823376)
(-3.14254 0.0943873 0.00185056)
(2.95052 0.485022 0.00485466)
(-0.310797 0.0511759 -0.000655647)
(1.74649 0.237896 0.00427357)
(1.77075 0.0246521 -1.16718e-05)
(2.07299 0.131921 -0.00926603)
(2.23103 -0.000224052 0.0178023)
(189.87 23.3969 6.73344)
(4.2414 23.467 -40.4987)
(112.992 2.42204 -43.3265)
(-18.4394 22.2139 -22.0892)
(75.442 22.8266 -22.6694)
(18.2525 3.92029 -4.36241)
(61.2057 10.3311 1.3373)
(26.3384 4.12176 1.32073)
(42.8735 16.1512 6.74358)
(9.69436 12.2834 5.97105)
(23.3903 12.9265 9.77371)
(6.44033 7.33616 4.7887)
(16.6224 4.38532 2.0145)
(4.5516 2.49648 0.581803)
(9.95799 1.29152 0.211953)
(4.10697 1.02602 0.0376606)
(6.54398 0.485128 0.0119667)
(5.02289 0.492729 0.00436933)
(5.25549 0.198988 0.00574741)
(4.95269 0.192284 0.0131619)
(137.851 59.7019 134.79)
(-158.116 -22.8875 64.048)
(65.1578 -24.5973 -0.607938)
(-115.275 -6.20881 -11.0559)
(64.7376 -24.655 -13.0583)
(-58.712 -8.63759 -9.47798)
(41.6165 -4.76731 -15.2191)
(-33.4664 3.36256 -8.65119)
(24.2536 8.41425 -7.11993)
(-14.6765 8.6922 -1.11864)
(17.1556 7.78759 1.29581)
(-1.75258 5.6163 0.901577)
(13.3452 2.70553 0.442897)
(2.10858 1.86117 0.170795)
(8.92958 0.672588 0.0764137)
(3.49994 0.656498 0.0138877)
(6.13689 0.159039 0.00693168)
(4.85634 0.242872 0.00240572)
(5.08441 -0.036683 0.00548735)
(4.90281 0.0482877 0.0128485)
(206.747 -112.201 21.1874)
(49.8333 -36.345 50.918)
(114.176 25.0595 13.9963)
(22.8971 30.7971 -3.43511)
(66.5783 17.2098 -16.6766)
(-1.68126 14.5641 -5.80247)
(42.4098 0.0328613 -6.61982)
(-8.5407 13.6127 -1.62435)
(25.5468 7.25941 -0.564964)
(-4.69231 14.8922 0.42397)
(17.8579 7.85467 0.824767)
(0.612452 9.84204 0.481593)
(13.2359 3.92843 0.210003)
(2.6473 4.95261 0.0646059)
(8.91723 1.71949 0.0300563)
(3.71503 2.27729 0.00533263)
(6.24662 0.767539 0.00475709)
(4.97296 1.04519 0.00147526)
(5.18277 0.212101 0.00483865)
(4.93946 0.344481 0.0129526)
(98.4829 -83.7346 86.5467)
(-164.787 51.0661 95.2796)
(89.0319 37.2832 11.8437)
(-113.129 37.8267 -9.55075)
(46.9896 29.2511 -8.56382)
(-78.3834 23.1476 -11.6313)
(30.9204 18.4528 -16.4187)
(-39.4017 16.5317 -0.560047)
(18.29 11.273 -1.284)
(-17.6203 12.7494 0.256157)
(12.1789 7.31013 0.159753)
(-5.56972 7.86845 0.155171)
(9.08697 3.72234 0.0835751)
(0.168408 4.03214 0.0252268)
(6.46297 1.52702 0.0135217)
(2.62652 1.84982 0.00120004)
(4.9391 0.572865 0.00272932)
(4.37905 0.840317 0.00130786)
(4.47568 0.100895 0.00517026)
(4.54448 0.248168 0.0127404)
(-21.8219 -1.96593 117.643)
(-176.454 20.9967 118.883)
(55.6947 6.94118 -1.0566)
(-128.142 18.9055 -19.5995)
(55.2594 -9.94225 -12.2159)
(-81.8715 31.8218 0.224833)
(38.889 -5.95852 -2.59058)
(-25.9979 26.6779 0.735117)
(20.0022 -5.02909 -0.371481)
(-11.6297 18.9961 0.196618)
(12.7519 -0.660467 0.00885173)
(-3.98926 11.4484 0.0420566)
(9.24772 0.935037 0.0118823)
(0.130642 6.18731 0.002283)
(6.65616 0.773153 0.00234541)
(2.67996 2.73787 -0.00226913)
(5.18929 0.465615 0.000968991)
(4.48219 1.22952 0.000616902)
(4.56591 0.0464686 0.00439194)
(4.53783 0.356131 0.0133285)
(-52.0506 107.879 159.385)
(-239.105 87.1449 120.621)
(1.97861 42.0355 24.1878)
(-149.278 13.0342 -29.2862)
(35.1781 5.81205 -27.0795)
(-108.008 31.8756 -3.82667)
(29.6455 -23.1025 -0.621289)
(-43.9409 30.6218 1.71178)
(6.49863 1.92415 0.388329)
(-15.8403 16.245 0.460714)
(3.29608 3.43862 0.0952351)
(-4.82813 8.44487 0.0758613)
(3.64291 1.97153 0.0191857)
(-0.0967288 4.66274 0.00506581)
(3.05383 0.976243 0.000596087)
(2.32028 2.33489 -0.00208995)
(3.46207 0.559872 0.000480047)
(4.03915 1.19955 0.00096875)
(3.69069 0.179243 0.00570803)
(4.0657 0.368908 0.0134686)
(-43.0893 61.5684 148.227)
(-165.805 28.8271 57.4899)
(19.2593 15.6705 5.33894)
(-110.792 -10.9146 -33.6633)
(47.73 8.96116 -19.7268)
(-61.0372 32.5762 -7.01945)
(7.05545 -61.1141 -5.01114)
(-62.0771 49.7218 2.32349)
(-12.3968 -28.8067 -0.338005)
(-29.3183 23.4967 0.336467)
(0.277717 -9.87153 0.0195229)
(-9.7497 11.696 0.0305739)
(4.1949 -3.40305 0.00471661)
(-1.91977 6.57876 -0.00355987)
(3.97743 -0.449756 -0.000773523)
(2.01291 2.20684 -0.00320306)
(3.90094 0.0344914 0.000317082)
(4.00617 0.959233 0.00201636)
(3.71606 -0.0808344 0.00442229)
(3.92485 0.262316 0.0132545)
(162.175 87.98 31.375)
(-130.794 12.5124 -11.9345)
(67.2363 -10.1346 9.51052)
(-135.697 -34.6701 4.87196)
(56.1328 -24.48 3.18425)
(-75.3196 63.5009 2.51042)
(1.14497 -8.63518 -1.10031)
(-58.4774 52.2088 4.77117)
(-11.7429 -7.02567 1.28718)
(-31.6995 3.04335 0.144913)
(1.32774 0.905872 0.0484219)
(-9.10395 3.47958 -0.0088513)
(3.78163 3.78379 0.0210973)
(-2.30981 6.13351 0.00610022)
(0.0952387 -1.35832 -0.0100337)
(3.18962 1.21267 -0.00794777)
(2.31776 0.349795 -0.00139385)
(3.88804 1.20568 -0.000391569)
(2.97148 0.333264 0.00592098)
(3.54034 0.391289 0.0126184)
(163.013 144.132 29.5358)
(-103.921 -46.5294 37.8786)
(62.0015 -61.5138 10.1705)
(-124.47 -44.5638 15.7079)
(20.7785 -34.7707 7.96301)
(-60.1794 35.1321 3.66595)
(1.25834 23.1223 4.91283)
(-8.82484 6.6878 9.16774)
(13.2259 -4.08951 3.16137)
(0.208559 -0.568651 -0.492194)
(1.75181 3.80121 -0.0477891)
(-3.51806 4.68417 0.00043801)
(0.468548 6.5757 0.0104514)
(-0.891887 6.0702 0.00156209)
(1.95524 5.68742 -0.0144667)
(0.511254 0.280989 -0.0138929)
(1.921 0.178014 -0.00216369)
(2.52345 0.425431 -0.00266718)
(2.34562 0.0654153 0.00135199)
(3.17306 0.0881805 0.0114428)
(408.345 275.057 -304.944)
(181.568 164.953 -83.1328)
(147.49 20.1952 -35.7051)
(-49.3661 -0.68735 20.2273)
(33.8854 4.91488 24.4327)
(-77.8122 12.1891 8.36221)
(-12.5002 11.2529 6.62912)
(-0.776643 3.18857 6.22345)
(3.36098 1.65878 1.30519)
(1.93041 -1.82704 0.351289)
(2.04601 -0.134841 -0.00989353)
(0.791737 0.757174 0.105357)
(0.837791 1.22959 0.13855)
(1.10916 1.07883 0.148424)
(2.66222 2.21035 -0.0273319)
(1.72891 1.30632 -0.0101952)
(1.61235 -0.228739 -0.0018328)
(2.93934 0.341342 -0.0050158)
(2.14264 -0.36347 0.000435853)
(2.94747 -0.112631 0.0105047)
(226.956 91.5215 230.786)
(-60.0772 28.566 36.3309)
(87.0194 7.57121 -56.242)
(-75.695 3.94162 6.09906)
(19.27 19.3098 34.4709)
(-70.2454 10.0988 12.3783)
(-30.0901 5.24356 4.04893)
(-2.90979 1.93777 1.40559)
(3.81927 -1.46598 0.82618)
(5.62855 -1.73083 -3.61374)
(3.48236 0.875753 0.953692)
(2.30889 1.00429 0.161239)
(1.45721 0.958616 -0.00387005)
(1.87603 0.627909 -0.295926)
(2.73834 0.31065 0.0345638)
(1.4581 -0.559035 -0.00956347)
(1.48244 0.186497 -0.00205215)
(2.72851 -0.223852 -0.00463413)
(1.93925 -0.196403 -0.00099215)
(2.80167 -0.263538 0.0103242)
(157.826 61.6559 139.629)
(20.8864 51.9724 22.5018)
(84.9763 47.4279 48.7592)
(-86.9455 59.35 8.11182)
(35.1252 57.6396 -0.187236)
(-71.0443 -5.03102 -8.28838)
(-18.5307 -12.6834 -12.2993)
(2.80344 -0.870355 -9.58699)
(11.7613 2.16171 -3.50512)
(4.94691 2.77839 -0.174533)
(1.48803 1.68871 0.0984124)
(0.440073 0.318742 0.0920283)
(0.951197 -0.57161 0.0243014)