/*--------------------------------*- C++ -*----------------------------------*\
  =========                 |
  \\      /  F ield         | OpenFOAM: The Open Source CFD Toolbox
   \\    /   O peration     | Website:  https://openfoam.org
    \\  /    A nd           | Version:  10
     \\/     M anipulation  |
\*---------------------------------------------------------------------------*/
FoamFile
{
    format      ascii;
    class       volScalarField;
    location    "8.3";
    object      omega;
}
// * * * * * * * * * * * * * * * * * * * * * * * * * * * * * * * * * * * * * //

dimensions      [0 0 -1 0 0 0 0];

internalField   nonuniform List<scalar> 
12920
(
37.8881
80.6099
122.101
127.875
127.767
126.028
120.83
107.979
87.3092
69.151
56.4416
50.6807
47.7967
46.3865
45.5095
44.5211
42.935
40.3974
37.9342
32.9858
68.5201
127.575
146.361
130.098
113.152
106.968
99.6231
86.5468
72.6876
65.83
64.143
63.6823
62.1827
60.91
59.8951
58.402
56.2258
52.6045
49.4907
48.6558
66.2319
137.518
140.393
130.178
114.173
98.3803
85.331
78.7789
76.1287
76.0437
75.8202
74.0602
70.7166
67.9708
65.3295
62.6096
59.5745
56.9156
55.7862
55.3543
132.223
107.609
130.661
128.679
116.675
102.711
92.3138
87.1526
82.9636
81.1053
78.3011
76.3281
73.6566
71.3353
68.6635
65.8609
63.2158
60.8366
59.9133
58.7773
223.055
174.949
126.106
106.902
104.085
102.418
95.5329
91.6322
86.5531
84.1986
80.497
77.9803
74.9651
72.5996
70.2937
68.016
66.288
64.4461
63.6038
61.6995
252.633
166.212
118.122
112.618
108.412
100.623
94.5635
88.4962
82.7361
79.7736
76.5615
74.8373
72.6707
70.7972
69.0079
67.092
65.8529
64.4034
63.4458
60.8617
124.795
142.238
138.959
134.669
121.468
111.994
100.307
93.4766
87.5954
81.894
76.9956
73.4566
70.4536
68.3669
66.1891
64.3864
63.4177
62.2518
60.7135
56.4479
303.221
214.623
192.572
167.464
138.176
117.555
178.61
133.997
134.965
123.909
118.167
110.822
107.484
103.699
63.5126
60.7257
58.7683
55.842
52.1372
48.6482
374.067
242.498
205.229
194.079
168.098
242.159
313.522
205.023
227.256
210.861
182.115
167.262
158.168
151.931
97.4576
55.3879
51.0925
47.0052
43.9621
42.7755
71.7704
206.759
200.768
193.684
177.659
272.691
342.597
186.816
201.517
202.776
178.615
162.405
151.475
139.719
84.444
45.3615
42.7438
41.4996
41.3249
41.7229
103.323
201.633
208.465
203.333
189.656
302.223
439.457
259.408
195.541
221.35
147.396
141.891
128.964
116.159
71.758
44.7124
43.3331
42.8471
42.941
43.3751
138.149
185.889
196.614
193.766
183.415
310.102
466.071
396.206
350.06
248.891
122.712
111.843
120.303
122.999
83.1692
48.5014
45.3797
43.2662
42.2352
41.8686
256.191
231.935
203.85
165.527
152.807
133.372
221.801
178.225
137.646
110.181
85.2694
80.9775
78.2145
76.0551
47.7854
45.2733
43.5102
42.3249
41.4476
40.3298
228.962
247.391
198.36
153.784
124.371
102.66
85.0145
77.487
72.5543
67.8486
62.2006
59.2173
55.6384
53.8534
51.8078
49.8454
47.3976
44.5318
42.3801
39.8603
197.479
185.227
185.292
163.037
117.73
95.6122
83.5512
81.1259
78.8941
80.3578
79.8276
79.76
77.3018
71.037
64.8598
61.3588
56.9266
51.1748
46.5061
41.038
270.38
228.833
205.055
144.345
105.745
91.7373
84.2049
83.5578
82.6092
83.0549
82.41
81.9861
79.8431
76.5438
71.9313
67.6634
62.7747
56.9173
51.6042
44.2898
312.991
221.155
203.897
152.498
113.874
90.2195
81.2838
79.8219
79.3783
78.5227
76.4719
73.9773
70.5614
67.0859
63.8882
60.7682
57.0295
52.1594
48.4439
43.6238
473.941
224.227
178.059
133.096
107.185
92.2105
80.9681
74.1875
68.8585
65.9037
62.7276
60.0074
56.5106
52.9704
49.9732
48.0483
47.3007
46.2985
45.1423
43.5949
228.419
272.807
260.945
196.831
151.442
122.611
100.175
88.1173
76.3616
70.077
63.8792
60.5299
57.2601
54.7957
51.3459
47.4273
43.9584
42.1824
41.8993
42.2779
141.032
189.144
165.424
135.175
105.937
90.7031
77.9892
71.8332
66.633
61.8065
55.8919
51.2932
48.4474
46.9913
45.6621
44.1877
41.8688
38.9914
37.829
36.2182
27.1847
59.5219
83.3299
78.2281
72.515
67.3274
61.1377
53.0999
44.4058
37.5614
33.3519
30.9236
28.9991
27.2387
25.736
24.6085
23.3922
21.9127
20.2618
19.6671
237.385
124.266
81.2253
77.1395
69.9583
67.6245
63.6662
57.1726
48.7684
41.2299
35.3824
32.4644
30.9635
30.6793
30.8027
31.4968
32.5863
32.7827
32.3547
29.9625
183.6
137.46
98.1258
74.3808
62.532
57.3744
54.6215
51.7619
47.5183
42.903
38.9523
36.5109
34.9727
34.1745
33.7378
33.5705
33.3034
32.4342
31.397
29.7332
236.383
143.947
108.897
78.2362
59.4068
50.5579
47.4772
44.7588
42.5698
40.3333
38.3549
37.0394
35.91
35.0087
34.2101
33.3802
32.8868
32.0944
31.6145
30.4043
234.014
147.281
115.329
91.5392
69.0664
55.7856
49.2099
45.5495
42.9214
41.1441
39.3896
38.0856
36.7406
35.6488
34.7424
33.8267
33.2675
32.6089
32.2572
31.4511
212.733
143.669
101.264
77.5075
64.612
54.1831
48.9024
44.4252
40.7728
38.5734
36.8404
35.9313
35.0156
34.3263
33.7089
33.1069
32.7051
32.1863
31.946
31.5179
324.608
130.572
105.528
82.0118
71.1623
62.451
53.5655
46.3902
40.6673
38.13
36.0053
34.8365
33.7944
33.0226
32.4507
31.8518
31.364
30.913
30.8249
30.1505
184.399
154.057
119.171
96.7893
85.0957
70.3314
68.5625
53.43
41.5812
35.8952
34.577
33.0783
32.6223
31.9635
28.6881
28.6015
28.3602
27.9928
27.569
25.8592
267.743
167.77
115.096
94.8969
80.0645
89.0325
87.1244
60.4584
42.2529
36.6199
32.898
30.5718
29.3485
28.5129
26.3856
24.3581
24.2309
23.7656
22.7554
22.0786
464.059
220.177
114.759
89.7682
76.7939
82.5458
85.4736
63.0598
40.8435
36.2274
32.7458
28.7973
26.6621
25.0513
22.5861
20.7753
20.7814
20.8582
21.1034
21.9222
175.561
142.696
110.567
95.362
82.1364
90.3964
91.702
89.9015
90.5558
77.0575
32.0525
29.8034
27.4166
24.3413
21.4631
20.911
21.4833
22.0197
22.3883
22.95
456.218
124.262
103.75
94.5404
83.4328
94.5549
97.7682
98.6548
100.016
126.84
34.1531
26.6132
24.7302
23.2167
22.4277
22.7062
22.9171
22.7669
22.312
21.7577
575.853
194.337
104.882
90.6203
78.7769
79.2327
88.2703
107.33
113.995
47.4621
28.0823
25.0836
24.8588
24.9867
23.1541
22.7723
22.0998
21.5273
21.1687
20.6596
400.129
233.017
111.497
75.5215
57.9146
55.5482
55.2571
47.1217
36.1294
31.5053
27.8267
27.4153
26.7048
26.402
25.7349
24.898
24.2548
23.2014
22.5191
20.8274
267.628
199.767
168.613
137.159
72.7996
53.8122
47.7663
44.2672
38.3155
37.8992
37.3607
37.78
37.8955
37.5496
35.4778
32.78
31.2974
29.1404
27.3494
22.8433
172.816
185.239
135.138
76.7846
56.6793
52.8877
49.2034
46.658
43.892
43.3567
42.7906
42.7932
42.5968
42.0895
41.0451
39.0705
37.8255
35.2664
33.0323
26.7271
406.734
132.894
100.149
84.0411
71.8975
56.3008
49.6412
45.7275
43.6934
42.7236
42.0151
41.4788
40.7651
39.9828
38.9529
37.8343
36.6641
33.8708
31.1738
25.2142
255.607
126.68
95.8369
85.9725
66.9718
51.1754
44.5434
40.0064
38.3024
36.5699
35.6013
34.6153
33.7187
32.9621
32.169
31.5355
30.6782
28.4657
26.1072
23.2146
162.912
166.313
135.482
112.322
81.862
63.1982
49.1065
43.1601
37.1313
34.5453
32.2123
31.5016
31.2674
31.4642
31.5909
31.3827
30.662
28.6469
26.9516
24.7394
62.4378
98.5622
85.3838
81.5416
67.3611
55.4107
46.9969
42.9126
38.8807
35.1921
32.0069
30.1403
28.7243
27.5693
26.2684
25.2338
24.0757
22.8769
22.5335
22.0306
104.347
101.252
99.2222
86.4265
76.4218
69.1621
61.7373
53.5853
45.904
39.9006
35.6817
32.5024
29.9858
27.9236
26.5521
25.7249
25.4532
24.8476
24.2552
23.979
206.428
135.656
80.3376
61.1785
55.1292
51.3599
46.9547
43.5666
38.369
35.1938
32.1002
30.7951
29.553
29.0786
28.7785
28.7351
28.6313
28.187
27.5186
26.5512
190.769
152.433
96.4624
64.8454
53.0012
47.2866
44.2903
42.4954
38.8031
36.1691
33.5021
32.1918
31.0593
30.5338
30.0239
29.5792
29.0509
28.2055
27.5119
26.6572
148.706
147.379
124.532
74.8259
52.9711
42.7127
39.5634
37.6371
35.8403
34.5354
33.0441
32.1925
31.2371
30.5592
29.8839
29.2331
28.7309
28.1142
27.7387
26.9637
200.961
158.591
118.775
78.2547
56.2864
45.5443
40.4619
38.198
36.1412
34.9709
33.509
32.5368
31.4586
30.6658
29.9594
29.3259
28.9001
28.4361
28.168
27.6187
218.121
116.566
92.6129
63.5909
51.281
43.1025
39.5777
36.6798
34.1349
32.8931
31.5484
30.855
30.0592
29.5282
29.0632
28.6542
28.3628
28.0284
27.8561
27.5964
129.746
134.743
100.771
70.9158
56.9266
48.8363
42.1576
37.2445
33.5074
31.6084
30.1957
29.3932
28.704
28.2052
27.8018
27.4326
27.1438
26.8328
26.6756
26.2107
184.534
150.988
98.3049
73.9813
61.2784
51.3777
49.0111
39.9842
33.5697
29.8646
28.5472
27.4577
26.9486
26.4358
25.5242
25.1711
24.8439
24.416
24.0111
23.1277
145.437
150.557
108.647
75.7052
59.3032
57.0124
54.6979
42.7204
33.392
29.2764
26.7484
25.2733
24.4029
23.9062
23.2391
22.72
22.1963
21.7153
21.2617
21.0872
377.643
295.854
123.113
75.9951
59.5466
54.742
51.7745
42.1067
33.4839
28.91
26.758
24.5008
22.7998
21.756
21.2156
21.345
20.9899
20.9838
21.0849
21.4379
265.691
177.625
106.107
80.3773
64.8346
64.2364
62.9276
64.1954
78.3145
51.0205
57.5164
49.9229
32.2112
24.058
21.7854
21.7487
21.613
21.6817
21.8394
22.0451
165.07
127.397
92.4153
76.5582
65.1709
71.8622
74.3738
81.6615
92.0314
109.674
27.5876
24.3293
23.0994
21.752
21.452
21.6306
21.3117
21.085
20.8706
20.8013
263.401
131.284
86.3167
65.1818
58.9654
54.1524
64.0596
92.1523
82.8751
33.7367
24.1139
22.5415
21.8784
21.6365
21.2446
20.7041
20.2589
19.9483
19.716
19.566
280.148
142.225
106.062
60.1837
48.2784
43.4912
43.3039
34.964
29.9762
26.8935
24.6337
24.1688
23.4124
23.0478
22.4224
21.7987
21.2167
20.5182
19.962
19.2301
470.206
228.819
162.175
90.2997
51.1191
41.9469
39.7728
36.427
32.2162
31.862
31.0062
31.0884
30.5738
29.8094
28.2047
26.7268
25.3965
23.6594
22.1595
19.9779
150.265
160.428
123.189
61.6798
46.8072
41.855
40.3081
38.6042
36.3959
36.009
35.1459
34.907
34.1036
33.2546
31.9467
30.459
29.1244
27.0138
25.1477
21.8536
271.902
124.733
90.4046
57.5692
50.1879
41.7352
39.5464
37.3348
35.6204
34.9277
33.9044
33.5239
32.6693
32.0755
31.082
30.1074
28.8277
26.5189
24.5218
21.6913
220.214
115.036
85.737
67.7847
54.434
41.956
37.1531
33.9783
32.1544
31.3075
30.168
29.915
29.288
29.0197
28.3273
27.5572
26.3511
24.5663
23.1673
21.9904
95.03
153.191
133.482
107.051
78.1469
57.4674
43.3669
38.192
33.4329
32.0309
30.0371
29.64
28.9336
28.7983
28.335
27.7306
26.797
25.7345
25.0628
24.6955
69.8109
75.5324
83.8703
85.4018
76.8395
60.645
49.9616
43.9618
39.3721
35.9854
33.3993
31.425
29.7977
28.6816
27.5961
26.8745
26.3741
26.2456
26.2144
25.2015
71.8916
119.872
113.575
90.1972
77.2131
67.9047
59.8593
51.9952
45.2124
39.3347
34.9609
31.4576
29.2747
27.7744
27.2201
26.9633
27.0007
26.7173
26.473
26.0648
114.801
120.998
78.2813
59.8085
56.4275
47.3212
45.9247
42.2239
39.8292
37.9241
36.1837
34.9714
33.7725
33.004
32.371
31.7678
31.2277
30.7181
30.3695
30.312
330.194
126.193
91.2089
63.1435
55.8605
45.5737
44.7771
41.7508
39.9075
37.6281
36.2163
35.0248
34.1776
33.4106
32.7544
32.0162
31.4161
30.7608
30.3512
30.0221
165.498
162.494
124.667
72.9322
55.5558
41.846
41.0012
37.8928
37.4919
35.8801
35.2017
34.213
33.5525
32.8007
32.2121
31.5652
31.1329
30.6485
30.3941
29.9996
172.853
172.817
128.893
74.1547
57.7775
44.4839
42.1434
38.584
37.7888
36.0688
35.2246
34.1055
33.3674
32.6
32.0671
31.5353
31.2361
30.8898
30.7253
30.4575
254.911
131.488
98.0244
61.1592
52.712
41.1641
40.5266
36.8642
35.4401
33.9081
33.0881
32.3114
31.7782
31.329
31.0438
30.7476
30.5956
30.418
30.3901
30.3755
295.537
146.711
108.469
68.542
57.5794
45.8547
41.9477
36.3689
34.2691
32.2609
31.595
30.8561
30.5421
30.1323
29.7955
29.5268
29.3797
29.1853
29.1258
28.9632
301.707
201.752
101.989
64.2836
56.6864
46.4289
43.8923
37.2404
33.4144
30.6466
29.7244
28.8877
28.5642
28.1915
28.8943
27.9313
27.4093
27.0018
26.7607
26.5262
306.737
154.152
103.259
67.5151
54.1196
47.8581
45.657
38.0429
33.1033
30.3375
28.5853
27.6827
27.1414
26.9282
27.4529
27.0465
25.8256
25.3415
25.2065
25.2773
268.33
165.601
103.087
68.6055
54.6194
46.8899
43.2536
37.6714
33.5215
30.2284
28.632
27.0296
26.466
26.4932
27.4782
26.9968
25.7895
25.5181
25.5812
25.7678
269.383
164.031
105.809
72.9328
59.5049
53.9855
49.9964
50.8728
58.8639
36.6012
48.1056
39.3479
30.7637
28.4476
28.5351
27.5082
26.2965
26.0339
26.0731
26.1777
212.487
122.653
91.3813
67.7311
58.7154
60.6735
59.6006
67.9447
93.6308
60.6822
28.3601
27.4012
27.0883
26.8855
27.4182
26.2617
25.1469
24.8568
24.8692
25.0208
209.907
123.208
86.0966
59.1107
54.8703
45.1737
52.0294
57.9191
45.0751
31.5922
27.2757
26.2508
25.2877
25.0223
25.0764
23.9985
23.5653
23.4799
23.5036
23.6859
272.971
172.483
112.759
61.0093
50.0715
41.3167
41.9813
33.1647
31.8551
27.8742
27.0826
25.8563
25.4254
24.9319
24.4334
23.9547
23.6075
23.3208
23.1218
23.102
302.203
156.054
112.074
61.7389
49.178
39.9043
41.1454
36.1835
33.4841
32.1262
31.0556
30.6982
29.7812
29.0232
27.9066
26.8859
25.864
24.7743
23.9084
23.2255
228.924
166.643
121.608
62.2105
48.2513
39.557
41.0595
37.5221
37.0485
35.4332
34.9029
33.9675
33.0575
31.9279
30.7558
29.4737
28.2639
26.7983
25.6074
24.3653
305.272
162.421
94.0614
55.8859
48.7646
38.8409
39.9564
36.4057
36.0441
34.3144
33.8509
32.8905
32.2569
31.4368
30.5967
29.5639
28.4277
26.9714
25.8223
24.7994
213.608
140.325
93.6219
64.4084
54.4058
40.1301
38.9382
34.335
34.1274
32.5969
32.2224
31.6401
31.1939
30.6669
29.9827
29.152
28.2239
27.3359
26.7664
26.6619
142.569
187.357
169.696
108.163
76.2718
54.6774
44.7483
38.8366
36.4406
34.5312
33.2294
32.5454
31.9046
31.5825
31.0643
30.7411
30.3477
30.389
30.7614
31.2874
56.0702
99.2476
105.637
92.0143
72.0872
56.5519
47.3364
41.364
37.8102
34.9538
32.7394
30.6931
29.4145
28.5368
27.8493
27.4485
27.3519
27.1763
26.7022
24.2977
90.8246
114.294
98.7156
81.8484
71.9485
63.062
54.4702
47.3789
40.4574
34.877
31.0031
28.8846
27.8968
27.2747
27.1636
26.9924
26.9605
26.5113
26.3488
25.8325
160.754
118.135
87.2714
71.1309
71.9656
51.6994
59.8791
47.7914
53.7087
47.2451
49.3522
45.4423
45.7979
43.6406
43.4427
42.1105
41.8939
41.4375
41.7467
42.4681
286.144
135.969
99.954
70.8909
71.3687
50.7974
57.997
47.3588
51.2791
45.4142
46.8348
43.6948
44.0056
42.2262
41.9929
40.7798
40.5239
39.9093
39.9515
39.9798
276.248
177.07
139.498
75.6915
67.9451
46.1606
51.6312
42.4774
46.819
42.134
44.138
41.7118
42.2434
40.8682
40.8064
39.9397
39.8447
39.4384
39.5735
39.5404
293.628
169.473
137.583
75.6591
73.7484
49.9407
54.5781
44.2993
47.4381
42.5292
43.7585
41.3162
41.6374
40.3715
40.3821
39.7693
39.8293
39.5839
39.78
39.8426
299.546
166.239
114.113
68.7116
66.7196
46.1816
50.7874
41.3601
43.098
39.6765
40.4383
39.0471
39.3542
38.8547
39.0149
38.8069
39.0123
39.0331
39.4264
39.7847
404.957
183.758
128.029
70.1598
73.6393
50.1152
51.6897
41.2613
41.6357
38.1845
39.1407
37.9654
38.5794
37.9764
37.9798
37.8126
38.015
38.0251
38.3483
38.5897
269.865
176.594
119.273
68.0434
70.5902
52.15
48.2615
41.2695
40.1363
37.4569
38.11
37.2594
37.8257
37.3839
38.4391
36.7455
36.3424
36.1853
36.3965
36.6034
269.218
172.379
127.504
69.7279
65.1232
51.9911
51.0756
43.1941
42.0335
40.7044
40.8332
40.3717
40.4704
40.324
40.2402
36.8523
35.476
35.3208
35.5339
35.8586
235.52
158.444
119.881
70.5378
58.8996
49.7359
48.3976
45.5138
44.9385
43.3002
42.169
42.0852
42.9349
42.8442
41.5335
37.0621
35.7245
35.6728
35.9609
36.3243
193.127
164.548
121.872
72.4165
65.3871
51.1855
48.1162
49.2967
49.4288
44.1018
42.9846
42.5165
44.2205
43.9941
42.2578
37.6235
36.1486
36.116
36.3241
36.6045
249.779
160.522
98.2399
74.0128
60.9152
59.1195
55.4744
53.5456
58.8522
47.2356
44.7921
43.805
43.6607
43.2005
41.5975
36.3774
35.1187
35.05
35.315
35.6919
228.488
170.845
96.8918
76.2701
66.5424
56.2429
52.7404
46.5566
44.9719
41.1272
40.9138
38.284
38.3039
37.274
35.3239
33.634
33.4038
33.5725
33.9302
34.4374
648.654
212.754
130.652
81.4491
60.9679
52.6534
51.9585
40.51
41.0064
34.1684
35.7733
33.1904
34.1144
33.1481
33.2286
32.7412
33.0232
33.0807
33.4681
33.8998
224.99
168.628
100.348
68.4021
61.3392
47.9941
52.7982
40.7032
41.8442
37.5432
38.2398
36.4661
36.5142
35.582
35.3372
34.5156
34.2584
33.798
33.8127
33.9585
262.684
167.471
124.439
71.4067
58.8842
47.6311
51.3336
42.114
46.1205
40.8178
43.0094
39.9225
40.4965
38.4697
38.316
36.7908
36.323
35.3106
35.163
35.0907
589.268
260.697
107.229
76.874
62.1752
46.5021
52.601
41.474
46.6054
40.4461
43.0194
39.679
40.5426
38.5587
38.6241
37.2261
36.8636
35.9473
35.7637
35.4688
462.995
183.493
105.943
79.1308
64.8128
48.5858
52.181
41.0753
46.5845
40.1307
43.5
40.0026
41.3826
39.2871
39.6688
38.3401
38.3437
37.8011
37.8343
37.8867
163.298
218.259
201.401
108.006
91.24
58.1189
60.4631
45.8445
50.3197
42.7454
46.1349
42.3469
44.3778
42.5296
43.7108
43.224
44.1872
44.6948
45.1733
45.2429
67.3428
123.985
115.348
87.2227
64.7731
50.6291
42.4664
37.9317
35.1355
32.305
30.1913
28.2895
27.5501
26.3676
25.9426
25.0099
24.4186
23.1624
22.3674
21.4618
27.2882
38.4294
58.8952
29.1753
28.037
34.3354
72.241
25.041
59.2149
51.1436
27.6564
26.2936
70.1295
52.0485
58.0838
107.289
34.3524
39.2952
78.2036
79.1079
29.9143
53.1388
28.3546
26.2929
73.4573
54.9501
28.2225
28.0902
200.272
294.571
179.266
103.882
78.8616
104.465
75.0589
226.769
180.158
209.454
67.5783
50.2533
62.7435
46.3109
215.73
214.004
213.249
48.0113
43.0189
44.7865
42.4573
187.099
210.907
188.805
41.8243
38.4314
42.0115
39.5811
168.086
180.824
167.069
37.5477
35.1795
38.048
33.7856
158.592
164.114
156.394
34.7998
33.6423
32.8575
31.0039
150.847
153.892
146.54
33.469
32.545
30.5283
29.2655
133.587
144.266
129.856
32.4589
30.8218
28.9295
26.847
201.099
394.997
259.055
103.82
87.263
106.223
100.185
195.331
219.346
174.784
71.8429
47.1924
98.2018
76.1593
204.07
197.309
210.871
45.3399
42.0064
78.3209
69.7879
185.469
186.034
159.564
41.2782
39.0532
55.06
36.9107
165.542
157.537
152.308
37.7048
33.6406
35.6829
33.3296
154.237
149.764
140.643
32.71
30.7352
32.6446
30.5823
142.829
136.469
124.667
30.2087
28.7493
29.9105
27.6238
126.638
121.441
103.98
28.3369
26.3959
26.9352
24.0704
296.203
465.827
387.608
110.222
102.564
112.262
106.057
182.741
375.679
368.836
100.323
92.981
105.996
100.4
241.573
346.023
239.319
104.115
99.7383
101.95
136.438
149.596
254.029
149.819
78.0468
37.7874
132.65
47.6054
144.434
123.91
116.601
35.3149
32.6542
37.7827
30.4239
132.616
120.378
123.38
32.0943
30.2097
29.6264
27.8907
118.766
122.814
119.831
29.4974
27.0942
27.3373
25.7229
101.777
119.584
114.482
26.3901
23.7926
25.2696
23.6772
402.752
447.841
377.756
114.68
108.744
123.129
120.7
376.862
365.306
286.372
108.9
106.129
121.056
131.151
237.728
230.623
226.23
109.303
146.409
153.103
116.866
146.352
198.284
134.463
137.143
45.9363
73.915
36.2428
110.543
128.072
115.325
37.4595
30.3113
32.9616
28.499
118.917
116.777
119.408
29.353
27.631
27.9417
27.2504
122.177
120.878
121.99
27.1331
25.7827
27.2102
27.3725
117.219
123.185
113.121
25.425
23.9573
27.5683
27.1708
70.3051
85.5778
66.4892
60.563
50.5892
57.4734
48.076
44.5208
56.5368
41.7027
45.6056
36.2341
43.7036
35.1477
37.7489
40.0171
37.2109
34.5352
30.9086
33.6555
30.5868
33.7454
36.6354
34.1982
30.0525
27.9028
29.8396
27.6261
30.9786
32.9429
29.6158
27.3096
25.966
26.8542
24.9241
29.5709
28.8694
27.3157
25.678
24.9093
24.4467
23.3366
28.6308
26.9065
25.8472
24.7361
24.2522
23.0336
22.3163
27.8081
25.5669
24.4534
24.1738
23.8283
22.1344
21.5626
75.1422
89.1528
88.9019
56.9545
49.6401
63.3878
62.9098
42.7446
88.2326
70.4327
45.2723
36.0324
62.4589
60.4402
37.1018
73.3269
67
34.5186
30.7238
64.2284
54.5357
33.862
51.9331
33.292
29.7333
27.7811
41.8119
38.6915
29.5543
32.2691
30.6953
27.1469
25.246
39.2777
38.8516
27.1217
30.1768
28.1425
24.6977
23.3318
37.6836
29.9901
25.4042
27.3914
25.0669
22.9499
22.0057
27.8108
23.5495
23.9735
24.4071
22.3977
21.762
21.1505
22.7102
21.031
90.2442
94.4037
94.6828
67.8826
68.055
74.2483
79.1039
83.3572
95.8803
93.7046
69.1402
74.5144
81.9347
86.8208
94.3208
94.2006
121.17
80.6
82.3083
87.9413
108.882
34.3805
121.242
45.0928
62.6681
38.8039
109.649
37.0455
30.2043
34.5029
27.545
38.5197
39.0967
29.2014
25.7615
28.1075
26.9231
25.6399
38.4213
32.3984
25.6743
25.0465
25.0469
25.1903
23.6956
30.1991
24.858
24.4767
22.5314
22.2781
23.2473
22.15
23.6931
21.4101
22.012
20.9359
97.4865
105.512
109.626
78.2064
81.561
82.5365
92.6679
98.0919
110.958
118.475
84.4075
89.103
97.1686
107.347
129.901
133.344
117.378
91.2101
115.447
117.283
97.1972
43.2733
74.373
33.3219
113.546
35.604
60.1024
28.0635
27.4
30.0349
26.2252
28.6026
24.5582
25.7931
23.2765
25.1606
25.6721
25.0193
24.2182
23.3436
22.9442
22.3654
23.5415
24.8646
24.8759
22.9548
21.8285
22.1745
21.9361
22.3488
24.924
24.866
21.5351
20.9127
21.8842
21.6311
46.7648
52.2241
44.5774
46.7521
40.7858
44.9006
39.4303
34.9149
41.1758
34.1072
38.3399
33.6303
37.6015
33.4617
30.0687
32.7378
29.7641
32.5712
30.08
32.4694
30
27.2963
29.0144
26.9414
29.4596
27.9196
29.3177
27.585
25.5392
26.2669
24.5809
27.5066
26.6565
27.0924
25.88
24.5673
24.1498
23.1346
26.4505
25.9342
25.5722
24.9808
23.9801
22.8632
22.246
25.8177
25.5809
24.8726
24.6696
23.6167
22.093
21.6166
25.5243
25.3087
24.6183
24.4271
45.3567
57.9746
56.8649
44.1107
39.3451
47.737
46.0492
34.8699
56.3447
57.7388
37.7755
33.8443
46.1916
48.4183
29.8622
60.6991
49.4887
32.8036
29.945
48.7821
37.1663
29.0278
28.2101
29.4267
28.5477
28.8786
27.9308
28.9985
29.8563
26.1898
29.2706
26.7726
28.8547
26.2663
30.3086
23.1588
46.5291
31.9911
25.8307
24.9013
45.1073
31.4627
21.963
28.9018
23.8294
24.7497
24.493
29.2281
26.1311
21.2393
22.9674
21.3833
24.4335
24.249
25.7008
25.0339
63.0201
70.3771
75.9276
52.5006
52.1427
60.7733
65.6491
73.1104
79.2239
86.8843
53.4523
62.3389
69.9436
86.2436
76.5709
88.6258
108.36
64.8563
49.5742
91.4864
96.3291
57.2028
59.8669
85.7258
52.8601
59.4309
207.497
75.8067
47.8313
56.7796
36.2705
156.76
37.6622
141.794
44.4156
35.7476
26.3046
25.5277
48.0187
33.5703
28.0181
26.8975
25.3153
24.8249
22.7693
31.0404
27.068
26.4292
25.4303
21.7979
22.2739
21.2546
26.4465
25.3956
25.2126
24.7122
78.2536
76.7956
90.6424
63.2144
67.5285
63.23
75.488
89.133
95.7403
108.944
72.5236
90.9371
80.4307
96.7973
114.324
117.257
84.1426
97.128
96.5431
96.0091
48.7047
33.0582
53.0416
27.2734
74.3772
29.2504
37.4015
27.4706
24.5804
25.3216
23.1591
27.3135
26.2343
26.3122
25.1176
23.4996
22.886
22.3131
26.0721
25.4828
24.9167
24.3052
22.0187
22.1133
21.8549
25.2742
24.8428
24.088
23.8957
21.1813
21.7955
21.5008
24.7301
24.4676
23.8133
23.4849
40.2105
44.1167
39.1152
48.1378
42.4383
46.9755
42.7718
34.015
37.5829
34.134
40.7546
38.6478
41.8943
40.3751
30.9058
33.2779
31.0236
38.3733
37.1901
40.0554
38.5573
28.9412
30.3711
28.7058
36.6347
36.1737
37.9953
36.6962
27.8681
28.2555
27.1863
36.125
35.88
36.4407
36.1096
27.2313
26.9388
26.6142
35.6042
35.5427
36.2389
36.9794
26.9773
26.596
26.5755
35.5329
35.5588
37.1428
37.2949
26.6966
26.5595
26.4016
35.427
35.1092
37.2795
37.0093
38.9354
45.7958
44.3257
45.5231
42.5416
44.7592
44.6091
34.4293
44.541
45.7758
41.9501
40.7035
44.8635
44.7067
30.951
45.5776
35.5573
40.3689
38.5609
43.8568
39.3344
28.9972
33.0233
47.0481
37.935
36.5319
38.1608
38.3334
27.4129
46.894
41.2572
36.2173
35.554
38.3787
37.2764
26.4722
38.2564
30.8282
35.6546
36.9128
36.8023
37.6409
26.4997
29.6033
28.0507
37.235
37.5534
38.1745
38.6932
26.3354
27.8363
27.3432
37.541
37.186
38.6317
38.0735
49.6452
57.7043
61.6633
46.9797
47.1705
53.0254
53.075
57.4111
65.6926
83.1262
47.7497
48.7463
54.6391
62.7314
43.7264
88.6461
84.2522
48.1842
40.9466
64.2839
50.4492
48.5815
64.151
30.1167
38.9164
38.4271
43.7782
37.4749
42.2699
29.0429
28.8848
38.5028
37.4986
37.0953
36.903
32.103
28.7798
28.113
37.0457
38.0733
37.0752
38.1206
28.7779
27.9292
27.5193
38.5927
38.9626
38.4024
38.4625
27.6676
27.3931
26.9238
38.8727
38.2376
38.3699
37.8446
63.1779
59.3611
68.3192
54.5595
53.5514
55.4635
52.6558
87.99
72.4534
84.6808
55.1095
63.8283
52.513
52.734
82.1929
81.9959
42.6052
64.9909
49.6767
50.6504
41.655
29.6782
35.7102
28.6659
43.5742
38.1172
40.3467
37.9835
27.5344
27.6969
26.7832
37.7607
37.3917
37.6668
37.067
27.1506
26.5827
25.9019
37.4274
37.967
36.4618
35.6999
26.9557
25.7051
25.5571
38.0842
38.0379
35.5498
35.4248
26.6142
25.4813
25.0801
37.9435
37.5204
35.1384
34.6097
44.7552
50.189
46.096
62.2394
56.0932
65.049
59.8553
42.0056
45.3971
44.5755
55.6151
56.0145
59.6316
60.158
41.2395
44.5099
43.6354
56.775
57.4656
60.7687
64.6111
40.7595
43.2384
42.5517
57.296
58.1316
65.6792
67.8131
40.6707
42.4563
42.2959
58.6208
59.0963
68.195
68.2391
40.4573
42.3287
42.6375
58.9946
59.6234
67.7165
65.8454
40.4761
42.6956
42.6342
59.9388
60.2404
65.6
65.342
39.8515
42.5801
42.055
60.3451
58.8307
65.3819
63.9456
45.9407
46.4487
47.1549
64.3016
60.3996
60.818
61.5992
44.9935
47.402
47.5312
60.3226
61.0679
62.031
64.1242
43.7877
47.0516
44.4276
62.1476
67.5878
66.5067
75.4585
42.3352
43.5976
42.9535
69.0509
71.5182
77.8801
81.165
41.9185
42.8248
41.9756
71.8897
71.6156
81.523
80.1467
42.7728
42.2349
43.5628
70.8617
67.735
78.4701
72.484
42.9111
43.9026
43.9452
66.9953
66.2334
70.6517
68.1559
42.1848
43.8054
42.8927
66.2089
64.1049
67.8559
65.0793
48.9186
53.8556
52.862
60.9741
62.2482
64.4362
63.7522
49.8466
53.5897
58.0735
62.7553
65.2112
64.412
67.4486
45.2637
58.8823
50.1198
67.665
76.4748
68.6531
73.7618
43.0999
46.9251
44.2897
78.9451
82.0178
75.4479
77.3821
42.2577
44.0607
43.6724
82.3093
80.8479
77.3828
75.9532
43.8794
43.7308
43.9066
79.0318
72.8252
74.6215
70.1216
44.1544
44.0213
43.736
70.9243
68.2521
68.9144
67.3939
43.0441
43.5947
42.8181
67.9398
65.1357
67.1585
64.7932
52.9967
56.7594
51.4476
66.024
64.3028
71.6616
71.3187
58.2575
50.4861
50.0897
65.1801
67.9018
68.7848
67.1038
49.8927
49.3436
45.8356
68.5152
71.9526
67.2523
69.7311
45.032
44.8096
43.2997
73.0605
74.8469
65.541
67.0714
44.0734
43.0495
42.135
74.8139
73.3062
66.1087
66.0632
43.6702
41.4174
40.7156
72.1003
68.6785
63.6322
64.3336
43.336
40.5921
40.3186
67.9837
66.9251
63.4982
63.8129
42.5485
40.0148
39.3635
66.7292
64.9938
62.781
61.0014
29.874
27.737
29.4352
27.2317
29.1186
27.5741
30.501
38.2861
31.988
50.3239
41.1263
33.1724
31.7743
155.414
48.2364
38.8577
57.713
177.307
36.7041
51.0464
195.696
29.2009
28.6309
28.6291
29.3408
28.0688
28.9656
29.3949
30.2696
27.486
28.3177
30.7846
27.7716
31.0022
30.1455
38.722
40.3148
30.8318
56.4404
31.3643
159.204
33.9986
49.6145
178.748
42.8996
70.3434
52.7783
197.709
39.9325
29.1617
25.6081
27.3593
25.1768
28.2142
25.7303
28.0493
46.5541
38.8484
59.3695
162.922
38.2508
49.0106
149.2
45.2509
35.191
56.5889
72.6749
37.5529
39.3165
100.735
30.3829
27.0748
27.2331
30.6746
26.6143
30.8193
30.3237
29.6697
25.5867
26.7759
28.6469
26.1166
28.4781
29.6561
48.1138
164.048
42.506
67.6706
50.5501
151.292
41.5377
46.5363
73.0165
36.9477
60.9838
40.0518
103.384
40.2645
46.2137
59.1298
36.9488
174.343
43.1016
191.486
43.3462
67.1621
101.862
88.1511
102.873
78.7773
96.2542
76.1512
42.3376
33.9102
51.8737
32.0996
47.349
32.932
45.1702
51.5609
48.493
68.1228
51.2106
197.849
62.3945
42.7465
45.6479
173.753
80.5306
39.6745
191.083
44.9114
39.7276
55.1766
93.6476
70.1367
51.1586
85.2622
62.7436
46.0844
38.0715
30.5771
31.5063
35.4123
32.188
39.3895
34.9669
50.1088
57.463
41.0383
84.549
40.0488
123.564
50.141
30.7468
29.8185
26.6171
27.9363
29.2548
30.5986
26.8725
31.7183
30.6506
26.2418
26.9715
29.7551
32.7305
26.7891
50.0365
156.695
67.7171
41.5136
142.022
46.8115
43.3178
51.0777
81.8245
64.6425
43.2679
118.394
50.3709
43.9008
31.6333
27.8962
31.0539
27.9283
31.1057
27.325
31.6439
32.6737
27.5594
32.6844
27.9954
33.3597
27.3684
32.4233
144.306
173.619
149.284
99.871
87.336
103.969
88.7878
136.337
140.398
138.232
70.9184
60.8258
72.8801
61.5858
128.508
134.856
131.361
56.641
50.5574
55.4656
51.7876
121.721
124.085
118.207
48.3158
48.1714
48.7556
46.4958
112.69
113.151
109.188
47.933
45.6431
44.7961
43.3839
109.035
105.721
103.21
45.719
45.5408
42.3929
41.4159
104.365
100.921
98.882
45.7521
44.6763
40.8519
40.1153
97.3183
97.7587
90.2891
44.8812
40.7318
39.7124
33.6106
202.892
250.403
205.201
143.452
115.397
141.703
119.594
155.747
260.12
308.737
182.084
154.527
183.371
258.843
87.9415
214.946
199.513
96.1179
89.3035
95.4514
205.364
82.8162
225.081
225.639
87.2483
83.9174
83.4226
225.466
77.279
202.814
216.768
77.0548
73.8205
79.0282
208.532
66.7993
175.882
182.723
69.1526
66.2034
69.3825
177.36
60.0016
163.469
166.483
64.6304
62.845
61.256
163.622
56.8685
154.676
156.143
63.6466
61.7044
57.846
154.156
54.7296
149.568
149.243
61.8849
60.467
55.3994
147.847
90.9826
93.0353
81.7167
36.8615
34.1259
32.3154
27.3015
236.151
285.137
253.588
138.32
118.442
140.148
120.455
183.035
278.668
357.484
209.775
181.142
208.012
298.734
92.1996
186.348
198.87
99.3438
84.0176
114.059
187.423
76.6745
204.099
190.986
75.9017
75.9263
77.3358
194.223
70.578
199.73
190.489
74.8889
74.393
71.5033
188.278
64.7852
173.238
173.951
69.4708
66.4501
66.9922
169.683
57.8108
159.447
159.844
59.6792
58.281
59.1718
156.9
53.2997
148.599
148.207
55.0302
54.0679
54.4262
144.935
48.9566
137.172
134.907
51.2608
50.3866
50.0613
131.82
75.7543
75.4441
64.45
29.7034
25.9162
27.1684
21.9634
278.927
306.946
287.777
152.437
127.88
152.352
128.494
198.748
387.443
449.997
236.215
200.579
237.225
406.482
137.93
215.537
306.893
153.91
132.215
161.191
289.27
194.441
221.478
207.943
167.01
161.126
182.479
217.196
87.0963
180.95
246.439
92.4965
74.0893
117.965
208.656
56.9286
146.856
136.879
60.4217
58.8826
58.5883
136.388
51.9577
139.204
135.596
55.0023
53.651
53.4374
133.572
46.2986
125.304
124.616
49.551
48.0636
47.655
121.692
41.6745
113.698
115.411
44.0502
42.7105
42.8245
113.713
62.324
76.6838
70.6817
25.9443
20.8497
26.7505
23.0039
290.04
294.056
276.736
146.883
130.784
148.467
132.815
215.497
429.775
463.009
245.581
206.652
252.005
426.067
170.508
393.251
397.639
171.329
163.536
174.258
390.072
231.088
278.839
336.399
187.548
225.521
216.258
260.938
90.2145
239.451
235.228
145.159
105.936
122.646
214.816
52.9822
113.021
124.003
57.5222
54.189
55.9909
114.913
46.9425
114.696
110.602
48.436
47.7376
47.6661
111.503
45.3813
120.931
118.155
45.9016
45.134
45.8294
119.964
44.8324
123.854
124.647
43.7996
43.7353
44.7402
125.871
75.5722
83.4734
74.0092
28.8375
25.089
31.3391
28.1835
200.413
203.301
161.505
121.754
120.114
114.346
111.868
151.702
130.007
121.379
124.244
129.555
103.253
84.8843
130.598
117.254
104.579
128.85
94.6899
71.5469
55.956
94.1118
94.3325
90.2744
58.2821
43.9748
45.7615
38.7623
82.6328
87.3838
80.5138
37.0177
33.8369
35.2752
31.153
79.8891
78.0937
76.9737
32.5764