/*--------------------------------*- C++ -*----------------------------------*\
  =========                 |
  \\      /  F ield         | OpenFOAM: The Open Source CFD Toolbox
   \\    /   O peration     | Website:  https://openfoam.org
    \\  /    A nd           | Version:  10
     \\/     M anipulation  |
\*---------------------------------------------------------------------------*/
FoamFile
{
    format      ascii;
    class       volScalarField;
    location    "8.3";
    object      p;
}
// * * * * * * * * * * * * * * * * * * * * * * * * * * * * * * * * * * * * * //

dimensions      [0 2 -2 0 0 0 0];

internalField   nonuniform List<scalar> 
12920
(
959297
932337
889076
910969
846216
846980
789808
758293
701664
654595
595833
541981
481688
422955
359846
296856
231856
168730
106242
46771.1
588809
873360
879736
917917
849184
854313
793309
763936
704813
658339
598324
543981
482761
423521
359994
296913
231869
168630
105641
44746.4
757625
988568
923536
940896
869742
870006
803900
772919
712534
664478
603458
547888
485612
425399
361210
297708
232329
168835
105528
43798.3
1.04345e+06
1.08562e+06
965558
984082
908498
898161
823122
787821
722383
673470
610212
552972
489364
428044
363278
299148
233304
169308
105624
43307.8
1.2866e+06
1.21784e+06
1.05967e+06
1.04376e+06
944460
924249
845703
803985
737139
684674
620049
560491
495372
432568
366799
301710
235053
170387
106153
43215.3
997296
1.34099e+06
1.08011e+06
1.09128e+06
983349
957219
872498
826016
754213
697605
631564
569024
502558
437684
370932
304493
236970
171454
106544
42864
1.16573e+06
1.34587e+06
1.15746e+06
1.14124e+06
1.01731e+06
982202
900598
846905
774126
712614
643742
578610
510356
443504
375736
308025
239217
172704
106766
42042.6
1.31944e+06
1.4124e+06
1.15118e+06
1.1661e+06
1.04981e+06
1.00967e+06
941406
877582
808892
740145
672337
603523
534699
466031
381289
311477
241719
173964
106690
40244.1
1.57242e+06
1.43309e+06
1.22645e+06
1.20673e+06
1.08218e+06
1.04228e+06
971447
902947
832315
763831
693399
622279
551837
481627
403320
316930
244407
175626
106638
38489
1.60098e+06
1.4193e+06
1.21852e+06
1.22378e+06
1.09848e+06
1.05916e+06
991951
922100
849087
775381
704735
633549
561961
490358
410578
322010
247874
176981
106791
38624.4
1.67608e+06
1.47398e+06
1.28893e+06
1.2598e+06
1.13006e+06
1.08572e+06
1.01397e+06
939424
863378
789019
717921
645597
572143
498898
417753
327365
251546
179029
108338
39022.4
1.39123e+06
1.4975e+06
1.27575e+06
1.28996e+06
1.15073e+06
1.10948e+06
1.03357e+06
954871
878223
805113
731635
657585
582218
507429
424962
332828
255028
182279
109989
38010.2
1.41069e+06
1.53626e+06
1.33569e+06
1.30841e+06
1.17431e+06
1.11652e+06
1.03905e+06
964650
888465
814602
737198
660866
583818
508003
413398
335341
259600
185177
112159
37271
1.38304e+06
1.47617e+06
1.3231e+06
1.31151e+06
1.18886e+06
1.1381e+06
1.03053e+06
971664
879989
811581
729857
653865
573719
496774
417597
340866
263613
188696
114638
38426.2
1.39107e+06
1.44802e+06
1.33403e+06
1.30722e+06
1.20115e+06
1.14996e+06
1.05337e+06
984834
895392
819962
737324
659691
579586
501679
423060
345718
268129
192158
117509
41354.1
1.33604e+06
1.40915e+06
1.36824e+06
1.34098e+06
1.23157e+06
1.17844e+06
1.06583e+06
999144
901265
828414
741709
665393
583651
506005
426613
349673
271553
195580
120292
44195.8
1.43504e+06
1.55553e+06
1.41239e+06
1.37562e+06
1.24827e+06
1.19466e+06
1.08122e+06
1.01093e+06
912649
836257
748678
670239
588035
509858
430416
352967
274830
198495
122654
45511.9
1.99324e+06
1.75439e+06
1.5234e+06
1.44351e+06
1.29107e+06
1.22642e+06
1.09813e+06
1.02333e+06
918023
841538
751306
673234
590282
512697
433209
355745
277086
200466
124074
46621.4
2.2353e+06
1.92128e+06
1.58038e+06
1.48737e+06
1.30508e+06
1.23091e+06
1.10735e+06
1.02734e+06
925970
844910
754854
675702
592933
515047
435208
357348
278510
201642
125281
48839.9
1.95443e+06
1.86632e+06
1.59497e+06
1.50633e+06
1.32109e+06
1.23995e+06
1.11216e+06
1.03065e+06
928426
847049
757334
677786
594885
516762
436789
358668
279012
201971
126146
52409.6
1.06381e+06
940489
889431
912192
846394
847092
789793
758351
701528
654588
595567
541849
481821
423246
360076
297043
231810
168478
105521
44734.3
737941
894875
875130
918847
849209
854370
793359
763772
704569
658187
598109
543929
482826
423655
360153
297033
231804
168375
105193
42786.1
739934
992297
927429
942375
870220
870097
804406
773047
712480
664449
603452
547887
485687
425466
361291
297685
232185
168561
105152
41693.4
884432
1.06437e+06
966678
983695
909365
897983
823506
788409
722659
673447
610159
552933
489342
428020
363260
299135
233175
169037
105303
41146.1
1.19655e+06
1.20352e+06
1.05992e+06
1.04203e+06
944963
924559
845966
804263
737272
684635
619931
560430
495322
432530
366785
301729
234945
170110
105798
41016.8
1.16578e+06
1.27199e+06
1.08025e+06
1.09004e+06
984079
957228
872425
826024
753792
697513
631315
568979
502555
437696
370959
304561
236908
171226
106263
40879.2
1.40689e+06
1.37084e+06
1.15632e+06
1.14274e+06
1.01811e+06
981477
900316
845891
773973
712521
643914
578575
510264
443514
375725
308054
239159
172503
106628
40309.3
1.33987e+06
1.37614e+06
1.15744e+06
1.1628e+06
1.0497e+06
1.00842e+06
941445
876693
808190
740639
672138
603467
534772
466059
381265
311500
241706
173860
106589
38530.3
1.40224e+06
1.40045e+06
1.22385e+06
1.20242e+06
1.07867e+06
1.04122e+06
970230
902709
832319
763676
693213
622248
551878
481787
403715
317026
244450
175666
106703
36950.2
1.40436e+06
1.40317e+06
1.22092e+06
1.22285e+06
1.09935e+06
1.06013e+06
991975
921868
848908
775770
704903
633270
561883
490360
410853
322099
248000
177060
106958
37104.5
1.56777e+06
1.45723e+06
1.28634e+06
1.25953e+06
1.13009e+06
1.08605e+06
1.0142e+06
939020
862892
789814
717789
645246
571891
498855
417871
327547
251613
179270
108411
37421.7
1.37299e+06
1.50834e+06
1.27839e+06
1.29189e+06
1.15084e+06
1.10956e+06
1.03401e+06
954562
877158
805543
731659
657171
581922
507396
425072
332711
254970
182244
110156
36748.4
1.51361e+06
1.57155e+06
1.33222e+06
1.30751e+06
1.17353e+06
1.11551e+06
1.0382e+06
964232
888328
814603
736674
660702
583825
507931
413789
335330
259586
184970
112326
36190.9
1.58896e+06
1.50381e+06
1.32861e+06
1.31213e+06
1.18639e+06
1.14037e+06
1.03337e+06
970156
881281
809979
728333
654529
574524
497574
417807
340839
263505
188538
114852
37126.4
1.51924e+06
1.45143e+06
1.34031e+06
1.30914e+06
1.20144e+06
1.15148e+06
1.05306e+06
984205
895798
820275
737568
660093
579876
501700
423029
345714
267932
191814
117374
39654.6
1.39558e+06
1.41426e+06
1.36601e+06
1.34077e+06
1.22932e+06
1.1798e+06
1.06652e+06
999420
901584
828697
741827
665569
583823
505937
426539
349816
271584
195453
120191
42445.6
1.50331e+06
1.56559e+06
1.41482e+06
1.37791e+06
1.2458e+06
1.19586e+06
1.08061e+06
1.01108e+06
912726
836275
748747
670230
588056
509905
430440
353027
274875
198424
122564
43746.4
1.94983e+06
1.74875e+06
1.5206e+06
1.44297e+06
1.28906e+06
1.22516e+06
1.09879e+06
1.02413e+06
918270
841599
751185
673004
590233
512659
433053
355589
277091
200416
123918
44770.4
2.12208e+06
1.93063e+06
1.57317e+06
1.48803e+06
1.30472e+06
1.23061e+06
1.10698e+06
1.02735e+06
925898
844851
754913
675828
592935
515109
435514
357593
278558
201515
125000
47618
1.83798e+06
1.86233e+06
1.59141e+06
1.50295e+06
1.32129e+06
1.23982e+06
1.1121e+06
1.03067e+06
928380
847179
757434
677952
594981
516862
437025
358937
278964
201756
125876
51825.3
858589
923073
890662
912763
847874
847849
790279
758744
701541
654676
595057
541722
482131
423801
360331
297258
231658
167986
104383
41690.8
600846
905418
868932
917550
852392
855409
794519
763862
704482
657945
597838
543836
482933
423887
360375
297230
231700
167994
104545
39645.8
794631
1.00988e+06
927677
943778
872240
870988
805375
772988
712286
664330
603371
547857
485778
425576
361335
297648
231879
167994
104608
38404.7
804666
1.04307e+06
968342
982073
910640
898239
824139
789526
722819
673562
610208
552847
489298
427968
363224
299142
232950
168449
104881
38038.7
1.1022e+06
1.17779e+06
1.05549e+06
1.03771e+06
946398
924629
846596
804937
737497
684582
619829
560287
495252
432456
366772
301787
234781
169489
105358
37990
1.13629e+06
1.26383e+06
1.08605e+06
1.08829e+06
985146
956435
872530
826225
753127
697376
631093
568974
502579
437738
371019
304733
236822
170818
106023
37962.2
1.57096e+06
1.41882e+06
1.16806e+06
1.14254e+06
1.02019e+06
980528
899885
845317
773465
712291
643967
578659
510201
443635
375746
308158
239095
172309
106678
37569.1
1.3824e+06
1.37299e+06
1.16688e+06
1.16128e+06
1.04961e+06
1.0078e+06
940392
875633
806902
741205
671887
603325
534856
466250
381051
311565
241708
173718
106613
36053.7
1.38549e+06
1.36878e+06
1.22458e+06
1.1968e+06
1.07663e+06
1.03997e+06
969442
901593
832171
763771
693225
622397
551908
481801
404154
317324
244471
175621
106858
34835.1
1.37051e+06
1.3474e+06
1.22889e+06
1.22138e+06
1.10115e+06
1.06216e+06
992675
921031
848433
776320
705065
633112
561708
490336
411392
322548
248166
177032
107179
35164.9
1.60048e+06
1.44484e+06
1.29019e+06
1.26026e+06
1.13114e+06
1.08782e+06
1.01507e+06
938620
863070
788415
717800
644467
571551
498734
418271
327807
251598
179292
108674
35507.9
1.38748e+06
1.48424e+06
1.28805e+06
1.28903e+06
1.1525e+06
1.11083e+06
1.03446e+06
954458
876964
805515
731165
656259
581434
507280
425272
333012
255084
182086
110463
35162.4
1.52298e+06
1.55181e+06
1.33119e+06
1.30375e+06
1.17685e+06
1.11496e+06
1.03654e+06
964300
887706
813850
736126
660694
583980
508572
413609
336021
259995
184968
112942
35441.8
1.53407e+06
1.51484e+06
1.32058e+06
1.30867e+06
1.18563e+06
1.13904e+06
1.03507e+06
969706
882769
810698
727652
653109
574147
497612
417960
341122
263590
188323
115537
36343.6
1.52294e+06
1.46517e+06
1.34436e+06
1.31534e+06
1.19853e+06
1.1557e+06
1.05111e+06
983693
895330
821823
738379
660916
580359
501687
422948
345719
267677
190984
117175
37658.4
1.26582e+06
1.39413e+06
1.35842e+06
1.34451e+06
1.22675e+06
1.18068e+06
1.06386e+06
999667
903121
829159
742024
665781
584098
505872
426638
349872
271598
195243
120132
39733.6
1.53969e+06
1.55789e+06
1.41933e+06
1.38036e+06
1.24378e+06
1.1953e+06
1.07967e+06
1.01168e+06
912526
836559
748874
670427
588084
510154
430661
353336
274898
198211
122455
41011.6
1.9317e+06
1.74351e+06
1.51637e+06
1.44351e+06
1.28842e+06
1.22481e+06
1.09589e+06
1.02389e+06
920223
841967
750908
672846
590055
512592
432918
355510
276981
200136
123685
42397
2.13389e+06
1.92823e+06
1.57341e+06
1.48969e+06
1.30486e+06
1.23041e+06
1.10588e+06
1.02732e+06
925679
844868
755095
676060
593316
515503
435926
357974
278702
201279
124545
45339.5
1.86007e+06
1.86945e+06
1.58533e+06
1.50069e+06
1.32174e+06
1.23994e+06
1.11193e+06
1.03069e+06
928321
847405
757653
678210
595138
517093
437558
359298
278880
201492
125477
50798.9
854477
944760
887097
914838
849023
848475
790989
759023
701643
654600
594230
541423
482513
424621
360517
297372
231359
167314
103213
38516.3
626187
908057
865001
917797
853480
857875
796480
763751
704278
657612
597511
543678
482983
424130
360595
297469
231507
167318
103956
35781.7
986482
1.04894e+06
935299
944895
875011
873231
806943
773080
712170
664170
603279
547820
485848
425690
361147
297435
231373
167028
104230
35316.1
896125
1.05758e+06
977090
980556
910266
897973
825770
791248
722938
673957
610362
552756
489190
427780
363005
298959
232590
167523
104677
35325.2
1.00718e+06
1.17131e+06
1.05462e+06
1.03472e+06
948441
923433
848046
805641
737542
684606
619765
560050
495024
432184
366595
301772
234548
168663
105271
35397.8
1.20672e+06
1.26263e+06
1.09202e+06
1.08676e+06
985576
954436
873587
826466
752818
697213
631198
569036
502748
437840
371185
305100
236845
170360
106361
35793.3
1.61419e+06
1.41334e+06
1.16518e+06
1.14103e+06
1.02e+06
978688
899203
844910
772628
711929
643996
578733
510458
443638
375945
308452
239257
172056
107264
36065.8
1.37042e+06
1.34669e+06
1.17691e+06
1.15948e+06
1.04782e+06
1.00643e+06
938202
875265
806875
741041
672157
603883
535660
466950
380842
311937
241821
173418
106741
36037
1.29824e+06
1.33322e+06
1.21783e+06
1.1917e+06
1.07539e+06
1.03939e+06
968203
901152
832488
764164
693866
623318
552540
482226
405070
317000
244375
175416
107131
35510.5
1.14084e+06
1.29364e+06
1.22406e+06
1.21722e+06
1.1017e+06
1.06367e+06
993536
920580
848596
776855
705358
633185
561551
490268
411664
322392
248065
177145
107735
35789.7
1.39431e+06
1.41896e+06
1.2874e+06
1.25821e+06
1.13091e+06
1.09063e+06
1.01627e+06
938707
863817
790888
717199
642991
570796
498556
418687
327282
251751
179383
109116
36083.7
1.38385e+06
1.46753e+06
1.2922e+06
1.2854e+06
1.15299e+06
1.10816e+06
1.03423e+06
954777
877185
804588
730028
655265
580856
507231
425234
332926
254717
181495
110635
36023.9
1.51448e+06
1.55767e+06
1.33161e+06
1.30221e+06
1.17959e+06
1.11419e+06
1.0365e+06
965824
887659
812853
735626
660013
583378
507993
413621
336254
259805
184412
112574
35426.3
1.44751e+06
1.52227e+06
1.31896e+06
1.30761e+06
1.18442e+06
1.13797e+06
1.03582e+06
969826
883834
811286
728568
653407
573936
497428
418040
341233
263410
187653
114932
35974.3
1.46772e+06
1.47767e+06
1.3524e+06
1.32043e+06
1.2002e+06
1.15604e+06
1.05171e+06
984268
894486
821574
737528
661149
580387
501598
422925
345790
267512
190580
117213
37477
1.20306e+06
1.38406e+06
1.35617e+06
1.34507e+06
1.22522e+06
1.17893e+06
1.06386e+06
999435
900630
829612
742718
665836
584264
505960
426603
349813
271333
194588
119912
39813.1
1.64252e+06
1.55618e+06
1.42596e+06
1.37951e+06
1.24422e+06
1.19274e+06
1.07669e+06
1.01092e+06
912455
836955
749507
670812
588158
510286
430750
353436
274696
197547
122148
41016.7
1.86042e+06
1.74695e+06
1.51566e+06
1.44333e+06
1.28996e+06
1.22291e+06
1.09522e+06
1.0235e+06
917899
841437
751465
673304
590121
512747
432921
355509
276720
199468
123397
42008.6
2.08193e+06
1.92181e+06
1.56831e+06
1.48965e+06
1.30489e+06
1.23092e+06
1.10295e+06
1.02771e+06
925232
845102
755304
676447
594141
516110
436570
358498
279040
200954
124170
42045.4
1.8639e+06
1.89582e+06
1.58335e+06
1.49884e+06
1.32104e+06
1.24073e+06
1.11175e+06
1.03075e+06
928209
847699
757830
678507
595286
517343
438402
360244
278815
201143
125034
49508.6
898944
939548
884235
915159
851291
849291
791888
759368
702212
654556
592901
540710
482268
425566
360272
297287
230962
166559
102541
36465.5
692631
897872
862325
918659
855847
858004
798418
764426
704865
657281
597374
543007
482648
423936
360371
297137
231247
166767
103736
34904.3
1.09279e+06
1.04797e+06
941166
948543
877776
873364
809698
773178
712345
663547
603123
547215
485648
425222
360825
297196
231290
166402
103888
34761.2
978223
1.06501e+06
974864
976272
912232
896499
827496
790445
723835
673668
610584
552654
489270
427621
362953
298819
232479
167145
104312
34763.6
1.11132e+06
1.17687e+06
1.05272e+06
1.03132e+06
950093
921939
849362
805245
738054
684339
620014
559993
495104
432062
366631
301747
234522
168432
105033
34831.8
1.16283e+06
1.25728e+06
1.09243e+06
1.08425e+06
987397
952776
874034
825890
754310
697143
631513
569033
502835
437846
371221
305081
236884
170086
106041
35151.8
1.60081e+06
1.42618e+06
1.16417e+06
1.14016e+06
1.02071e+06
977313
899452
844170
773509
711813
644082
578747
510663
443562
376040
308631
239377
171775
106767
35277.5
1.32494e+06
1.33741e+06
1.18296e+06
1.15857e+06
1.04619e+06
1.0061e+06
938569
875086
806422
740831
672138
603962
535209
466463
381068
312229
241979
173200
106652
35088.6
1.20374e+06
1.31966e+06
1.21984e+06
1.18753e+06
1.07584e+06
1.0397e+06
968244
901006
832145
763633
693375
622999
552301
481932
404361
317129
244641
175240
107142
34751.3
1.1017e+06
1.28324e+06
1.22978e+06
1.21497e+06
1.10201e+06
1.06378e+06
993418
920473
848719
777036
705403
633391
561632
490290
411604
322619
248320
177203
108081
34945.8
1.40881e+06
1.41657e+06
1.28975e+06
1.2568e+06
1.13255e+06
1.09023e+06
1.01629e+06
938958
864399
790690
717079
642962
570593
498695
418656
327510
252028
179464
109295
35210
1.46518e+06
1.47151e+06
1.29633e+06
1.28471e+06
1.15293e+06
1.10731e+06
1.03289e+06
954922
877184
803276
729457
654850
580613
507050
425045
332741
255168
181688
110624
35164.5
1.52543e+06
1.54604e+06
1.33257e+06
1.30191e+06
1.17997e+06
1.11441e+06
1.0368e+06
965889
888333
812983
735299
659569
583296
507718
413483
336544
259920
184436
112644
34972.6
1.35333e+06
1.56368e+06
1.31419e+06
1.30848e+06
1.18359e+06
1.13773e+06
1.03611e+06
969837
883910
811683
729084
653603
574024
497433
418304
341345
263304
187591
114843
35568.8
1.52604e+06
1.49908e+06
1.35906e+06
1.32476e+06
1.20123e+06
1.15511e+06
1.05247e+06
984076
895259
820988
737886
660757
580370
501577
423215
345600
267383
190603
117129
36752.5
1.15069e+06
1.38003e+06
1.35798e+06
1.34401e+06
1.22254e+06
1.17839e+06
1.06275e+06
999143
901219
829537
742993
665798
584467
505947
426670
349754
271259
194283
119809
38586
1.6098e+06
1.55429e+06
1.43199e+06
1.3809e+06
1.24464e+06
1.19125e+06
1.07711e+06
1.0098e+06
912730
836970
749668
670720
588190
510227
430709
353419
274590
197207
121997
39763.1
1.61323e+06
1.73913e+06
1.50783e+06
1.4438e+06
1.2892e+06
1.22365e+06
1.09435e+06
1.02272e+06
918492
841247
751686
673380
590233
512707
432951
355490
276531
198872
123156
40694.3
2.29275e+06
1.93664e+06
1.56247e+06
1.49285e+06
1.30544e+06
1.23054e+06
1.10365e+06
1.02746e+06
925239
844970
755480
676344
594091
515903
436582
358623
278819
200446
123883
41183.9
1.86159e+06
1.8952e+06
1.58022e+06
1.4978e+06
1.31925e+06
1.24182e+06
1.11161e+06
1.03094e+06
928056
847934
757915
678687
595378
517629
439896
361879
278584
200824
124753
47587.8
722833
783867
731879
776728
723071
784845
732033
650849
713987
661541
705276
650900
713889
660720
736118
803580
746029
788793
735986
802221
745241
664171
727559
671726
717416
663294
726776
670868
921684
986185
934456
970761
921214
986577
934395
849475
917350
863041
902851
849900
917329
862982
781644
845129
790640
832339
781526
845105
790831
710557
773253
719801
763707
710590
773360
719793
639968
702272
647883
693242
640042
702265
647892
569451
630726
577010
622248
569615
630626
576979
499321
559520
505749
551881
499458
559484
505758
428894
488298
433982
481744
429110
488309
434139
939326
1.0079e+06
953388
992094
939225
1.00814e+06
953051
867499
935639
879875
921992
867360
935280
879712
793262
860319
801963
849005
793427
859992
802638
722473
783940
731661
775614
722579
784628
731668
651083
714285
660452
704863
650848
714176
660325
579768
642501
587832
633334
579691
642327
587640
508103
569615
514944
561908
508091
569440
514866
436256
496792
442074
490359
436360
496753
442117
957672
1.02882e+06
970017
1.01426e+06
957344
1.02906e+06
969823
882959
950920
892808
939129
882602
950721
892516
806910
873786
821401
862950
807530
873299
820953
735566
803650
746095
789565
735756
803705
746235
663655
727990
673093
717815
663540
727991
672912
590533
654700
598334
645410
590273
654480
598053
517145
579654
523628
571953
517081
579494
523579
444055
505254
449361
498868
444072
505232
449385
974020
1.04491e+06
986657
1.03392e+06
973803
1.04459e+06
986389
896710
966883
910613
954631
896230
966570
909602
822869
891411
836401
877438
822985
890285
836670
749579
817529
760626
805416
749805
817745
760612
675952
741380
684571
731679
675785
741169
684442
600814
665132
607887
657349
600480
664931
607838
525711
588640
532304
582013
525667
588548
532303
451108
513272
456768
507409
451143
513345
456907
920829
986632
934325
969831
919608
987445
933897
849925
917215
862846
901863
850028
916596
862408
781522
845048
790906
832189
781484
844729
791130
710624
773432
719802
763637
710782
773644
719909
640129
702283
647960
693161
640376
702372
648241
569707
630634
576964
622311
570032
630739
576901
499545
559466
505760
551879
499799
559404
505730
429321
488315
434307
481797
430075
488324
434580
939139
1.00808e+06
952960
992715
938710
1.00875e+06
952841
867222
935135
879539
921238
866691
934791
878738
793546
859875
802881
848525
793955
859733
803531
722610
784949
731697
776173
722780
785391
731831
650804
714106
660146
705030
650813
713930
659618
579658
642180
587562
633133
579499
641606
587288
508082
569384
514840
561766
508025
569172
514718
436511
496741
442208
490350
436745
496676
442343
957261
1.02905e+06
969780
1.01506e+06
957144
1.02985e+06
969719
882475
950652
892460
938771
882111
950543
892333
807740
873199
821009
862928
808242
873244
821093
735855
803761
746267
790209
736225
803750
746151
663396
727969
672770
717848
662359
727725
672015
590185
654302
597938
644507
589888
653559
597530
517054
579415
523550
571669
516919
579114
523389
444143
505217
449458
498783
444281
505131
449567
973754
1.04413e+06
986358
1.03464e+06
973649
1.04295e+06
986066
896101
966501
909425
954452
895743
966344
909102
823167
890008
836711
876909
823676
889396
836374
749849
817786
760547
805620
749734
817399
760074
675635
741032
684334
731372
674913
740418
683902
600362
664802
607809
656495
599940
664340
607544
525637
588509
532316
581585
525472
588389
532019
451230
513408
457171
507318
451315
513468
457176
919293
987365
933690
968715
918143
987436
933048
850124
916383
862280
901146
850128
915894
861920
781267
844672
791208
832351
780510
844781
791322
710814
773735
719951
764357
710629
774085
720016
640399
702403
648321
693684
640052
702606
648379
570127
630795
576869
623052
569952
631016
576736
499842
559389
505692
552343
499385
559448
505438
430375
488323
434793
482078
430148
488353
434765
938528
1.00873e+06
952820
993553
938051
1.0094e+06
952678
866523
934699
878625
920619
866165
934413
878538
794113
859786
803758
848566
794494
860088
804832
761396
758354
778674
776481
761024
758499
779162
689446
686910
707818
705115
689519
686941
707814
579418
641511
587147
633142
579131
640582
586432
507982
569057
514641
561555
507747
568489
514314
436940
496629
442505
490272
436978
496445
442548
957107
1.02982e+06
969720
1.01595e+06
957186
1.03023e+06
969837
882124
950550
892371
938670
882447
950745
892796
808393
873415
821041
863632
808974
873946
820703
777092
771335
795057
788155
777136
770169
795189
702195
699237
720945
718608
702210
700359
720926
589745
653295
597347
643433
588973
652460
596518
516835
578960
523292
570915
516498
578349
522875
444439
505083
449698
498568
444641
504954
449658
973626
1.0422e+06
985966
1.03432e+06
973648
1.04206e+06
985799
895705
966289
909149
954642
895812
966506
909766
823635
889286
836191
877207
822681
889050
835552
749589
817153
759871
804877
748733
816193
759185
674661
740182
683705
730308
673822
739338
683224
599759
664187
607406
655501
598992
663935
606781
525369
588439
531781
580958
524857
588741
531346
451435
513476
457039
507224
451392
513457
456592
917881
987146
932846
968367
918197
987065
933038
850081
915842
861858
901023
850323
915856
862235
780764
844872
791313
832232
780970
844909
791429
710556
774198
720028
763745
711185
774007
720078
639928
702658
648375
693447
640499
702600
648611
569781
631084
576735
623060
570194
631183
577046
499117
559509
505349
552311
499598
559636
505583
429980
488386
434783
481940
430319
488369
434971
937948
1.00946e+06
952663
993480
938105
1.01017e+06
952854
866200
934495
878886
920559
866395
934582
879111
794608
860294
804979
848708
794727
860599
804762
723149
786837
732123
776931
723176
786897
732544
650899
713841
658399
705377
651160
714157
658614
579087
640336
586257
633351
579268
640462
586143
507673
568368
514255
561641
507786
568258
514364
436987
496422
442697
490287
437135
496541
442845
957186
1.03005e+06
969909
1.01641e+06
957437
1.02986e+06
970052
882718
950893
892868
938953
883137
951142
893017
809096
874129
820240
864241
808574
874282
818352
735901
801571
744919
790536
735753
800088
744058
660672
726491
670497
717032
661100
725818
669884
588787
652152
596264
642971
588669
651722
596224
516442
578212
522776
570675
516576
578058
522972
444765
504955
449771
498678
444867
504978
449734
973705
1.04151e+06
985970
1.0332e+06
973814
1.0415e+06
986167
895794
966581
909673
954984
895883
966893
910517
822408
888910
835491
876985
821351
889399
834658
748407
815973
759044
803655
747497
815003
758671
673453
739166
683140
729481
672952
738938
683085
598737
663904
606804
655016
598690
663578
606850
524734
588556
531539
580671
524960
587801
531754
451457
513183
456913
507124
451257
512748
457230
918272
987231
933026
968034
918414
987472
932927
850381
915737
862247
901062
850383
915555
862218
780971
844895
791459
831818
780770
844845
791477
711345
774015
720161
763353
711392
773994
720254
640604
702638
648660
693231
640685
702661
648725
570336
631208
577105
623006
570445
631183
577154
499736
559658
505658
552429
499906
559684
505795
430518
488389
435127
482069
430520
488488
435033
938110
1.01029e+06
952886
993670
938071
1.01085e+06
952894
866416
934560
879153
920332
866384
934515
879156
794829
860720
805054
848691
794911
860820
805522
723215
787076
732617
777113
723285
787388
732630
651236
714227
658695
705425
651342
714254
658821
579303
640496
586096
633445
579359
640571
586054
507813
568184
514359
561617
507924
568091
514351
437234
496550
442978
490334
437150
496547
442843
957470
1.0295e+06
970015
1.01645e+06
957441
1.02898e+06
969870
883180
951074
893090
938914
883109
950971
893323
808758
874330
818170
864565
809083
874582
818391
735708
799672
744017
790822
735648
799799
744031
661125
725826
669883
717074
661273
725657
669716
588592
651625
596174
643034
588482
651427
596085
516583
577993
522949
570491
516575
577915
522906
444958
504941
449828
498695
444803
504838
449639
973718
1.04156e+06
986154
1.03259e+06
973564
1.04089e+06
986063
896042
966989
910670
954827
896488
966496
911107
821262
889597
834594
877776
821433
889775
834441
747524
814993
758643
803196
747373
814890
758310
672956
738927
682895
729122
672789
738862
682410
598653
663507
606789
654588
598581
662921
606679
524929
587492
531766
580539
524839
587004
531827
451342
512643
457395
506951
451135
512332
457494
743796
740794
725684
722888
743582
740898
725758
764839
781794
766814
783783
764304
782400
765451
746437
728353
749637
731130
746337
728288
748643
761746
776620
758724
779803
758640
779571
761971
744031
722970
741169
726022
741041
725862
744260
765245
783830
783028
767732
782835
765822
765419
746716
731180
728804
750167
728438
748804
747161
671224
669018
653183
650881
671337
669060
653066
692176
710672
695719
713313
692362
710505
695729
674062
656321
678299
662467
674158
656382
679238
689454
705191
687011
708034
686964
707871
689592
671223
650895
669181
653095
669115
653023
671390
692189
713332
710851
695584
710565
695672
692380
673960
662623
656001
677822
656266
679098
674065
758865
754130
739956
736891
758844
754593
739931
781505
799683
784361
803297
781565
799713
783926
762577
743030
765056
745840
762818
742772
764777
777049
787961
771847
795158
770358
795170
776978
758692
736774
754197
739223
754398
739643
758391
781246
802833
799449
782877
799630
783404
780792
762143
745564
742006
764081
742396
764437
761566
683908
681556
665589
665561
683741
684666
665561
705146
724035
708872
727334
705411
723836
708592
686742
668535
690478
671454
687064
668214
690196
701923
718395
698764
720256
700208
720675
701493
683567
665707
680764
664606
684254
665209
682962
704855
727061
723299
708027
723571
708304
704602
686416
671169
667605
689616
667892
689906
686178
913203
955058
923591
941655
913154
954669
923609
843099
889603
851452
877265
842932
889138
851381
775393
817963
784497
808676
775444
817979
784430
706527
750766
713522
740305
706573
750588
713549
637523
680424
644044
672233
637524
680383
644035
568549
609898
572610
603474
568660
609952
572683
499708
539543
502833
534743
499872
539664
502924
432342
469877
433784
466034
432309
469922
433699
997961
1.05041e+06
1.0077e+06
1.04192e+06
997835
1.05063e+06
1.0079e+06
958124
955454
975459
971269
955349
975431
958048
889394
885019
907490
902948
885025
907526
889341
819054
815360
837113
832323
815380
837123
818891
749239
745570
767954
763800
745579
767948
749219
678266
675457
697120
693353
675462
697117
678233
606717
604278
625443
622262
604303
625447
606696
536175
534144
554652
551850
534152
554655
536171
465621
463977
484066
481654
464002
484087
465596
368358
407031
370306
403454
368356
407187
370268
1.01813e+06
1.07233e+06
1.03027e+06
1.05915e+06
1.01807e+06
1.07232e+06
1.03019e+06
979169
973839
997900
991930
973790
997968
979155
909103
904200
926963
922099
904223
926900
909159
833626
830508
852964
849079
830443
852995
833623
759703
757587
777114
775348
757590
777145
759656
689660
686594
707664
704778
686620
707694
689692
618435
615610
636482
633494
615564
636443
618472
546398
543900
564509
561948
543892
564484
546421
474430
472302
492518
490356
472305
492513
474430
374317
414204
377190
410665
374314
414251
377205
1.04181e+06
1.09698e+06
1.05332e+06
1.08576e+06
1.04175e+06
1.09706e+06
1.0533e+06
998933
994377
1.01823e+06
1.0139e+06
994313
1.01808e+06
999019
924231
920903
943121
939338
920810
943083
924277
847410
843717
866113
863175
843781
866122
847807
776156
770916
793959
789108
771047
794085
776083
703105
699752
721360
717892
699717
721337
703136
630203
627294
648666
645576
627255
648645
630243
556079
553751
574622
572086
553715
574584
556100
482643
480636
501019
498889
480634
501012
482645
380557
421123
383779
417789
380565
421161
383782
1.06423e+06
1.11927e+06
1.07489e+06
1.10948e+06
1.06413e+06
1.11878e+06
1.07396e+06
1.0178e+06
1.01307e+06
1.03904e+06
1.03349e+06
1.01302e+06
1.03883e+06
1.01783e+06
939351
935314
959027
954778
935205
958914
939530
864731
860427
882845
878081
860133
882605
865001
790770
786778
809305
805147
786812
809341
790726
716268
712998
735185
731651
712987
735197
716268
640981
638465
660298
657555
638435
660270
641009
565360
563080
584575
582175
563049
584542
565406
490453
488487
509532
507424
488490
509526
490446
386505
427856
390288
424993
386494
427848
390298
1.00122e+06
1.04411e+06
1.01194e+06
1.0391e+06
1.00116e+06
1.04425e+06
1.01191e+06
925040
973509
934483
964525
925008
972971
934405
849842
893233
857402
888348
850036
892978
857409
774220
818796
780837
814780
774094
818815
781083
697489
741235
704081
736980
697435
740756
704042
620121
664398
625346
660803
620099
664489
625385
544254
586499
548911
583791
544304
586703
548958
468579
510266
472640
507936
468532
510284
472662
912983
953311
923438
941449
912702
952848
923002
842903
888215
851417