/*--------------------------------*- C++ -*----------------------------------*\
  =========                 |
  \\      /  F ield         | OpenFOAM: The Open Source CFD Toolbox
   \\    /   O peration     | Website:  https://openfoam.org
    \\  /    A nd           | Version:  10
     \\/     M anipulation  |
\*---------------------------------------------------------------------------*/
FoamFile
{
    format      ascii;
    class       surfaceScalarField;
    location    "8.3";
    object      phi_0;
}
// * * * * * * * * * * * * * * * * * * * * * * * * * * * * * * * * * * * * * //

dimensions      [0 3 -1 0 0 0 0];

internalField   nonuniform List<scalar> 
38556
(
282.846
-28.1731
1040.47
138.187
278.865
-134.206
657.617
-141.006
-378.425
850.653
2.76355
-195.799
924.115
183.292
-256.754
1027.82
177.076
-280.776
1016.05
252.114
-240.345
1036.63
216.699
-237.285
991.792
183.953
-139.112
970.491
120.149
-98.8481
927.302
57.3486
-14.1602
910.343
28.0579
-11.0985
905.238
25.7084
-20.6032
910.052
34.6354
-39.4492
916.53
46.0939
-52.5727
932.387
58.7817
-74.6386
943.013
55.9752
-66.6017
944.206
51.2901
-52.4828
894.516
53.2677
-3.57736
40.837
14.2751
-1122.92
575.446
460.812
-439.906
-138.126
-266.018
278.329
-468.411
-390.83
401.512
-277.408
156.988
608.748
-147.267
123.323
772.946
-25.5603
38.4378
804.87
92.3276
127.862
823.987
119.712
77.8698
761.122
109.228
137.59
719.664
82.4627
79.144
680.84
54.9393
41.2336
673.758
50.8744
-15.735
680.614
47.0006
-28.1484
704.383
54.3352
-43.469
732.4
57.3937
-39.3165
756.531
58.044
-23.3935
758.861
48.4192
5.22544
741.105
46.4146
22.6322
686.977
52.2461
55.1498
34.3194
55.2837
-741.856
8.98146
2758.2
8.37773
-755.95
-132.41
196.142
-532.66
-123.515
303.685
-407.474
22.5235
506.74
-432.758
82.4361
641.086
-245.737
85.8309
712.838
-125.922
146.497
764.675
-18.5111
86.3852
747.757
32.7304
93.4156
736.642
60.1156
33.4619
709.799
60.5329
21.2498
702.36
63.7178
-5.40482
695.294
57.3382
-3.27094
698.305
59.778
-8.45433
700.44
56.7671
-1.50802
698.527
57.3849
2.57196
674.996
55.4976
16.4534
640.709
59.6755
21.0261
600.263
62.3091
30.382
38.8764
29.3709
1176.58
515.299
-3574.4
887.703
-269.136
-197.934
518.849
94.1776
-257.984
456.984
-97.7105
-247.899
391.006
-266.74
-100.039
394.45
-223.475
-25.7057
441.343
-215.044
42.2291
485.24
-83.8414
21.4335
538.049
-54.4848
34.4063
578.443
16.0616
3.6601
604.4
23.0121
11.5635
624.315
49.5568
-5.7534
632.694
49.8103
-0.851513
637.571
61.4409
-6.54003
635.069
60.5283
-1.25948
629.038
64.4599
-1.04395
612.104
64.0706
8.36068
596.364
65.2634
10.1521
578.377
62.6874
17.6094
41.2359
22.7943
1269.48
142.697
-2256.23
1133.49
361.935
-495.078
929.433
576.713
-278.476
859.873
32.8484
-60.9989
663.336
-197.368
127.164
621.564
-210.327
28.6239
596.379
-252.053
62.1935
625.988
-118.309
4.85884
637.962
-89.1031
22.6444
658.517
5.87849
-10.3719
658.646
18.0146
4.86848
658.331
57.8098
-7.93747
647.916
60.0999
0.124493
638.604
76.5554
-5.80256
627.196
72.9724
-1.03505
617.453
76.6189
-2.41602
605.303
73.1948
3.02505
597.359
70.9251
2.28288
586.93
65.7583
7.3575
43.5301
19.1555
2081.69
-1918.91
-7171.64
668.801
294.809
1480.01
657.869
105.206
482.438
600.792
-107.691
197.616
500.962
-271.984
174.446
438.021
-167.96
20.5734
479.463
-345.514
52.0188
460.408
-111.282
12.0285
489.007
-136.31
18.6086
505.6
-6.59538
-4.11919
524.952
-1.46354
0.125643
539.794
51.026
-8.05872
550.486
52.4981
-3.0905
557.748
73.3826
-4.08927
562.349
70.1043
-1.73263
565.481
74.5172
-1.03031
566.313
71.5785
0.784594
569.781
68.1509
-0.694269
571.113
58.3402
6.0864
30.5188
27.0359
-40.4311
-576.066
-1852.41
763.244
-194.523
-314.344
803.202
-65.5544
130.803
891.926
-159.283
-37.132
815.48
-280.347
84.8083
729.595
-83.119
1.04476
591.424
-49.1497
51.5322
-81.8669
-48.1587
-79.6997
520.188
-24.3914
8.03305
-3.86792
-17.0247
-2.79496
489.037
-6.35975
-13.7611
-38.2433
-9.19584
-37.599
489.014
2.57727
-10.8442
-1.17009
3.78524
-0.920034
501.212
12.5461
-11.5265
-12.9539
11.1805
-12.9086
507.116
18.6809
-9.78223
9.02601
18.5807
8.61745
513.17
23.4583
-6.81483
4.60516
22.142
3.0526
512.44
25.2199
-4.20993
14.9263
24.709
13.4683
517.566
62.8174
2.1609
521.076
70.2831
0.723906
524.635
66.4757
1.54395
534.782
57.8819
0.121545
539.002
41.1389
12.9819
14.1394
34.0045
443.088
-1397.71
-5877.09
223.053
-584.702
610.214
888.162
-393.119
-337.545
1015.2
-238.299
-48.0241
880.867
-280.82
134.809
187.978
-8.19115
47.3757
190.014
179.799
183.186
17.9714
-14.8956
14.5104
151.395
-24.7769
12.2102
-113.305
94.4205
-15.6745
10.168
-89.0778
75.0015
4.63679
3.07983
-62.6359
70.8403
-2.08775
-3.53932
-81.2723
86.9663
8.76562
-1.91348
-87.0634
93.3457
13.6572
-1.25856
-98.9054
102.654
20.4875
-0.777833
-103.03
106.014
22.8857
-0.649371
407.504
23.7852
-10.1689
-106.449
-100.737
-99.2743
-90.6112
8.10043
22.9488
7.71931
426.487
56.8801
-5.57955
441.246
57.3539
-5.63797
452.424
44.1747
2.52931
441.524
30.3011
21.7384
8.52915
36.3919
1092.82
-1190.07
-3564.41
1139.37
-74.6918
-556.556
1165.56
22.1018
-441.415
1211.15
14.5744
-298.458
244.123
-9.94021
-73.2223
245.757
261.715
261.896
247.064
-3.79977
-7.33244
1.4892
-58.5428
52.6428
1.88338
2.52738
-34.5015
-2.32344
32.6961
5.1123
-0.983521
-27.007
-4.45248
26.2865
5.22365
-0.0507009
-21.5095
-2.22216
22.0189
1.97252
-0.259784
-20.7037
-2.28027
21.6302
0.982065
0.371655
-20.4652
-4.52762
21.4405
3.44856
0.103771
-20.8108
-5.92203
21.6724
4.89476
0.165637
-21.332
-5.94056
21.9749
5.22978
0.0678504
-22.1887
89.4229
21.0394
-0.0250382
-22.2169
-21.3747
-20.8717
346.765
48.1095
-7.41301
-88.6364
-85.0869
-81.2409
-75.6174
357.56
43.3603
3.19886
360.206
33.812
7.71682
356.389
17.4812
16.6373
-6.79915
34.3716
620.774
417.563
-386.48
450.054
908.326
-812.298
747.971
410.784
-686.599
818.606
309.972
-366.033
189.029
244.982
-185.802
195.306
177.805
187.347
-27.9325
205.521
42.067
-30.6265
-12.805
-45.7561
40.2333
13.5225
4.80535
-7.98653
-25.6482
23.3817
10.4315
-0.178351
-5.48886
-19.259
19.7343
5.5817
-0.568046
-2.01626
-24.1677
25.8269
0.54205
-0.18495
-1.6695
-26.1675
25.4463
2.1803
0.210425
-2.76728
-22.8509
22.4513
3.32797
-0.16109
-3.61383
-21.1942
21.0372
4.00861
-0.237784
-3.53702
-20.2493
20.1308
3.70907
-0.0535602
-19.2368
-14.9009
75.0017
14.4812
-0.192526
-19.001
-18.2127
-17.939
292.884
36.3725
-4.64242
-72.7814
-71.5314
-66.2105
-65.9814
311.582
29.3312
-4.66842
340.156
12.0735
-6.83645
372.924
-12.9322
-2.35371
-30.8188
22.8078
255.404
457.987
1277.68
609.961
1094.48
-540.711
756.217
745.979
-481.451
951.17
411.701
-296.681
249.06
372.06
-182.173
266.723
239.369
251.112
-56.2739
277.186
65.3656
-37.2181
-13.9884
-68.9624
70.0435
16.2165
-3.30915
-29.4319
-54.0591
46.3804
34.2843
2.82622
-4.39336
-13.0863
3.90782
3.63032
9.94158
8.33821
-16.311
21.4164
-10.2068
-3.23677
-1.56152
-25.7309
25.5841
1.38469
0.323664
-4.81086
-24.1119
23.5606
5.27918
0.0829046
-5.53131
-21.8708
21.3496
6.08744
-0.0348837
-4.95868
-19.5994
19.2076
5.42096
-0.0704402
-18.7817
-14.1242
76.4931
13.7728
-2.53323
-18.5142
-18.2636
-18.0489
323.46
21.2332
-10.8007
-76.9662
-78.0801
-71.2908
-71.183
351.299
7.76355
-6.27156
380.185
-16.9052
0.0924762
402.712
-38.3197
2.86101
-44.4885
22.5765
-1615.72
101.623
1337.69
-391.638
620.897
-750.504
319.725
399.531
-364.914
615.058
323.56
-207.191
179.023
409.231
-105.185
180.329
158.881
164.838
-83.3845
232.966
71.9362
-42.4946
-25.2872
-68.3829
73.4253
24.7771
-4.53232
-30.4211
-85.7827
90.1835
28.3874
-2.36719
-26.4764
-100.727
86.9206
23.053
17.2294
-1.41249
-33.254
35.7886
6.57617
-7.69829
-3.90207
-34.8029
32.6387
5.2755
0.790767
-7.12232
-26.0593
24.9208
7.7134
0.547435
-8.17315
-21.4869
20.8788
8.67091
0.110375
-7.17016
-19.0739
19.2668
7.47315
-0.495871
-19.1477
-13.9902
84.1639
7.81504
-3.24631
-19.0752
-18.3259
-18.1937
316.426
11.4199
-3.48011
-82.2386
-79.471
-72.9481
-68.475
329.211
-15.4207
10.3993
337.31
-37.1965
12.1925
339.111
-54.4588
14.3376
-54.8037
31.9757
-1074.85
830.911
3043.86
-415.83
240.458
-278.58
368.516
-142.403
-242.412
564.233
-17.8689
145.711
759.524
124.163
89.7772
231.278
-25.9299
28.9054
-46.6696
-24.8955
-39.1838
-11.9156
210.613
231.454
205.869
-11.4772
244.6
33.7218
6.11904
-14.4385
-12.2217
-15.0257
-14.1072
-231.536
199.637
34.7489
53.3905
-13.7591
-14.3203
-14.0541
-22.2535
-142.702
113.466
93.7118
27.1926
-23.4774
-22.6327
-23.3046
-18.3105
-95.2716
83.2283
82.6897
-0.287168
-17.0112
-18.2555
-16.782
-7.93705
-74.4699
70.2841
38.9611
2.69814
-10.2111
-8.79175
-10.5336
-6.80646
-58.2111
57.1453
34.0404
-0.513435
-9.131
-7.3275
-9.19612
-7.15676
-60.2547
68.1135
24.2368
0.118887
-9.23678
-6.9474
-8.87362
-5.40704
-66.0166
71.3516
16.9194
2.81516
-7.76262
-4.61219
-7.28772
234.376
24.9742
4.35052
-2.54958
-20.1627
1.3593
-17.4534
-68.2823
-53.2825
-57.0129
-46.3165
253.469
-11.5686
3.8954
265.432
-27.6106
0.227147
282.794
-53.9432
-0.615186
295.135
-71.5321
4.73188
-66.6426
34.0378
-1906.1
162.469
1608.28
-530.827
96.2014
-1231.02
19.2685
-284.418
-408.08
-21.3956
-32.8274
55.6223
257.844
16.9506
-172.027
111.263
48.823
71.8278
28.2459
394.071
20.5971
-62.3916
-105.508
-60.1698
-103.582
-58.179
215.003
67.6148
-46.364
-55.4492
-43.2086
-51.1715
9.49038
374.839
-12.0518
-93.8216
-122.414
-91.5622
-122.658
45.3996
227.617
-20.9526
-72.3602
-49.0741
-71.7713
-49.3683
107.643
220.569
-60.1198
-45.3374
-64.3593
-48.2499
-64.7459
159.276
125.438
-45.0922
-32.1484
-34.4781
-31.5249
-33.8268
213.474
95.702
-39.1736
-19.2459
-37.1225
-18.5611
-35.7971
250.982
37.6791
-23.2424
-6.92082
-21.8706
-3.55975
-19.594
279.357
16.9532
-20.3535
297.623
-14.0138
-15.8205
314.762
-35.1095
-9.64042
319.921
-55.0016
-4.10029
313.019
-76.5167
11.8863
-68.1545
36.2641
1134.36
-888.141
-3313
1557.73
105.496
-432.668
1044.81
260.337
-31.8314
774.854
226.061
11.0645
434.382
254.973
102.449
295.849
151.714
35.6423
281.907
365.575
42.4387
219.419
252.371
25.1193
286.266
323.442
-15.4501
341.539
220.638
-48.2938
410.704
212.237
-60.8337
485.969
128.843
-78.6698
542.256
102.282
-62.8675
555.918
61.3018
-37.2848
537.54
48.3131
-12.9817
516.821
27.1297
-20.424
497.107
2.05212
-17.4478
466.647
-21.3926
-3.14921
407.219
-41.9654
24.877
-45.2489
45.8277
939.827
-137.768
919.151
830.663
295.229
-80.5697
528.751
711.05
-148.8
358.203
457.496
-60.8869
233.273
371.956
7.94654
175.306
148.557
61.1241
297.227
217.311
26.3426
374.07
156.855
18.6734
469.036
206.073
22.4028
554.472
155.224
-20.0215
613.338
156.415
-3.0434
672.222
104.921
-34.9623
707.549
91.155
-24.1998
727.674
64.972
-23.7946
730.478
59.5271
-14.0182
722.165
50.3828
-14.9403
688.004
27.9973
8.21532
639.386
7.51662
19.709
551.981
4.23877
41.201
-6.69376
53.8976
-843.747
-1356.97
1438.56
-269.459
284.276
-563.334
331.699
538.61
-428.717
397.388
420.975
-29.1685
416.649
183.519
169.176
377.016
106.503
81.6867
414.566
62.3242
117.437
477.059
67.4221
26.9401
533.906
108.352
40.8747
594.582
86.9108
7.63792
634.071
95.198
21.7269
671.749
62.5825
4.66094
690.954
56.5858
15.3645
700.759
42.3941
12.7734
701.791
40.4774
18.0169
695.561
33.5678
23.0457
664.219
29.268
30.0713
612.214
26.1206
33.4001
517.735
51.0895
47.6291
33.3439
50.1473
270.915
-476.914
-4025.69
-330.31
252.811
632.69
205.964
311.31
-308.975
69.9585
311.969
245.011
104.008
63.3962
86.0737
83.1211
69.8595
57.5298
222.493
-72.7079
-4.33988
279.218
-2.1662
12.8628
373.152
-19.494
33.9118
438.025
3.59702
18.4412
492.208
2.39644
38.618
535.702
-5.25856
24.3468
563.248
-8.5636
37.6036
581.107
-9.12461
33.66
586.257
-0.327119
35.6544
583.893
0.7473
35.1839
558.786
19.0175
35.3578
508.526
48.1692
28.2113
444.419
84.6476
30.5491
55.9093
28.912
-276.998
522.51
-1840.23
-284.138
950.944
-690.993
595.545
175.294
-743.668
618.4
329.927
-40.8128
592.184
169.724
-80.112
577.889
169.739
-85.5848
478.741
80.5656
-54.1253
454.977
94.8707
-73.2729
433.759
49.4959
-47.7722
454.933
47.8263
-65.4029
491.926
10.1796
-44.777
539.51
-10.2819
-42.56
579.575
-40.5006
-8.1286
613.07
-44.8802
2.26118
627.359
-38.2352
23.619
625.178
-31.7474
34.6751
589.781
-11.7458
66.1601
535.213
28.9458
73.7912
472.669
77.5239
69.6681
63.1158
37.5497
-1025.86
2546.93
-476.888
401.969
14.9957
-316.589
362.695
-17.7717
574.482
-42.0633
725.864
18.3568
757.193
49.2373
833.287
18.7768
844.051
38.7311
877.583
14.2951
864.943
22.8192
849.007
5.65402
811.823
-3.31678
789.405
-22.4623
779.383
-28.2131
780.073
-32.4371
781.953
-13.6261
795.952
14.9469
830.29
43.1858
48.9768
434.982
479.439
2061.39
9.10501
238.963
52.7074
574.653
-278.563
-665.41
750.539
-197.622
-174.063
834.036
-34.8593
-305.392
904.421
-46.2467
-304.914
850.94
41.9929
-228.856
829.471
11.7862
-227.603
778.014
20.9473
-108.603
765.451
6.46102
-92.7472
752.772
22.2357
-23.7162
749.813
28.7719
-36.9119
728.804
39.5797
-39.1736
701.987
45.8994
-58.5314
651.057
48.9215
-50.5644
604.364
36.4407
-64.3864
576.762
12.8665
-51.8661
565.565
0.0292124
-41.3148
560.471
-3.56247
5.07908
-0.222835
26.5678
104.524
812.723
168.656
-66.7835
89.4368
54.8154
4.47567
-354.143
-386.509
88.1068
-310.612
186.347
381.934
-220.334
14.9695
481.038
-127.803
20.8906
544.442
-28.2517
134.704
562.154
3.61939
68.3239
556.134
23.0494
141.508
552.702
32.9186
56.118
545.848
38.1495
32.174
542.72
45.5545
-29.3897
538.194
46.3046
-30.3467
535.473
48.1833
-43.0323
529.653
43.7924
-28.3668
524.46
37.954
-19.7139
512.554
23.6434
6.35418
496.618
18.4622
20.1349
476.214
15.7411
56.2499
8.86591
70.7023
177.499
620.787
3192.52
485.027
58.3659
-408.866
152.744
-252.622
107.246
167.266
-376.349
73.7393
382.935
-409.701
56.1341
472.973
-221.627
89.6172
546.736
-124.295
168.777
578.055
-19.3012
77.9859
567.159
25.0416
102.32
553.568
54.0365
25.9351
533.623
55.1456
24.1988
522.975
61.0795
-10.2824
513.256
54.7274
-1.97515
507.434
56.3513
-10.8001
501.034
49.5159
-0.831353
492.825
47.5658
1.16923
474.806
40.5798
17.5364
453.609
38.9213
21.7642
430.042
33.5061
36.1835
15.4899
49.9036
477.404
322.997
-3145.49
655.107
-101.76
-215.511
524.159
-6.93004
-372.729
420.983
-270.531
-250.541
292.482
-279.164
-102.074
275.851
-195.679
-35.0223
335.026
-172.262
31.0209
363.883
-43.5177
16.7926
414.926
-26.7577
35.1631
435.436
35.2641
1.92282
452.967
33.3233
15.8542
458.744
56.3755
-6.82694
460.073
51.1143
1.43295
457.024
59.4133
-6.55297
450.986
54.2049
0.0895821
442.992
55.2005
-0.684888
431.663
50.6064
9.66284
421.271
47.369
12.0967
408.858
39.2673
24.2617
17.6618
43.213
1034.87
403.32
378.24
688.54
-47.015
-203.489
817.94
102.936
-517.742
685.842
-156.436
-42.9954
525.75
-187.733
195.825
469.606
-143.659
32.7472
461.404
-183.087
81.2212
471.154
-46.7539
-1.65583
477.216
-37.0008
26.8257
479.686
34.384
-11.9618
474.926
34.3427
8.60939
466.836
66.4572
-9.92892
456.94
59.973
1.16146
446.46
70.8219
-6.73142
437.192
62.7037
-0.266376
429.27
62.9058
-2.19912
422.117
56.6066
4.17841
416.739
50.9988
4.03103
409.855
39.9421
13.5665
16.2061
40.1809
249.773
-770.992
-1901.83
118.142
-89.3383
1653.97
446.522
-107.67
364.664
366.484
-89.3231
210.54
353.128
-160.195
160.265
261.236
-58.4281
27.2346
353.882
-261.508
37.7928
326.911
-13.9095
6.15589
362.375
-73.8215
19.9652
365.249
36.0679
-8.67774
378.561
21.2685
-0.112504
380.857
64.9348
-8.83224
385.177
54.6144
-2.05201
386.555
68.924
-3.56886
388.583
59.6774
-0.734311
390.462
60.2963
-0.300538
391.986
54.4712
1.39656
395.105
46.0115
1.17425
398.343
29.4181
13.3725
6.84136
49.4692
291.489
-30.7319
-1778.86
275.873
-225.341
-162.725
684.296
-113.73
-271.56
652.754
-52.1784
-42.7344
591.245
-101.254
87.376
472.369
74.613
-13.1207
396.214
-25.9986
49.8536
-68.1088
-24.5947
-64.9722
333.69
4.06602
11.02
14.6411
10.1049
16.8163
325.777
-3.41157
-11.157
-31.2392
-3.73809
-30.1236
323.294
10.1935
-11.5648
8.23175
11.5849
9.26097
339.287
13.3983
-13.5063
-9.61881
12.9206
-9.44506
341.244
20.6589
-10.2164
11.1945
20.6723
10.8867
348.627
21.8898
-7.56438
3.07565
21.0747
1.94078
346.752
24.2206
-4.0888
11.7923
23.6779
10.9871
352.089
52.7512
3.75011
356.653
55.5007
0.955363
361.833
48.2564
2.57843
369.446
35.8297
2.69043
372.732
17.6128
21.5014
1.42068
55.6618
-175.828
703.927
-4208.39
384.609
-403.542
227.979
619.023
-260.006
-425.682
642.389
-72.2523
-51.3164
584.476
-58.5931
150.06
115.037
39.8343
39.1463
119.805
98.2362
102.198
63.5841
50.0699
78.5543
-27.7668
91.9488
0.027911
24.8289
-17.2279
-56.6373
56.9369
0.177219
20.8171
-1.87996
-60.9445
51.7249
4.67593
3.0121
7.43584
-42.3655
49.9403
2.51534
-7.33251
5.06354
-58.4901
62.7201
9.96835
-5.86361
3.61579
-61.1637
68.0479
14.1772
-4.01829
1.40329
-72.2266
75.7954
18.8219
-1.90416
0.792646
-74.4041
77.812
20.9631
-0.942994
278.394
22.0328
-13.4404
-76.7659
-71.1784
-65.4482
-61.4193
4.94435
21.3872
4.07599
292.596
41.7979
-6.07841
299.654
40.475
-4.91406
306.861
25.5287
5.6227
304.102
14.5165
27.5941
1.28064
57.9422
1114.16
-119.443
-4950.16
919.631
-101.22
-664.347
895.517
74.7634
-752.07
761.722
132.242
-369.159
166.121
117.007
-99.6736
164.905
141.561
139.987
6.91685
178.459
32.9871
-12.4083
-9.12823
-4.64462
-46.5415
43.6377
7.47432
9.20238
-4.52966
-27.5417
-2.85202
24.1316
4.80679
5.98507
-0.579286
-17.5712
-3.34647
17.177
3.56596
0.754008
0.904455
-12.931
-1.95915
13.6824
1.23135
-0.928091
0.185524
-13.1264
-2.59485
14.396
1.48589
-0.346229
0.380284
-13.4768
-4.06675
14.6354
3.01545
-0.487516
0.0941872
-14.2857
-5.11161
15.4543
4.0492
-0.200359
0.223256
-15.055
-5.3008
16.0167
4.43501
-0.319168
-15.6448
1.96951
64.6656
18.777
-3.01949
-15.5217
-14.638
-14.5551
232
36.5291
-9.33104
-61.8936
-59.2097
-52.8568
-50.853
242.675
29.4678
3.53057
249.403
17.6638
8.8539
253.037
7.06383
20.4558
-7.73058
54.3135
1629.73
804.11
-4854.49
787.807
729.226
-800.823
648.641
419.007
-891.676
516.252
329.997
-431.4
108.479
275.653
-232.016
119.747
82.4396
93.1548
61.0279
-46.8355
114.78
55.5477
-76.0412
0.692545
-17.1829
-32.2497
33.9488
17.5216
-2.73034
-6.19653
-10.6431
-26.7439
23.0557
13.5016
7.0262
0.00990352
-4.39585
-15.0432
14.1927
5.06388
0.172519
0.453182
-0.142024
-15.2385
15.9826
-0.710737
-0.344515
-0.0162885
-0.744924
-16.4505
16.4165
0.858423
-0.0632062
0.468353
-2.00999
-15.7227
15.5834
2.22285
-0.541895
0.529216
-2.68247
-14.6875
14.58
2.83418
-0.573424
0.262517
-2.89483
-14.0905
14.1488
2.89282
-0.318818
-13.9066
0.858705
-12.5016
54.8894
11.6732
-1.48098
-13.6782
-13.0365
-12.8173
212.543
23.5265
-6.46024
-53.3401
-53.5356
-45.4066
-45.4402
229.583
13.5759
-5.81638
250.999
-3.97294
-6.61594
270.163
-16.9929
2.53894
-22.3527
45.1404
865.662
1328.33
-254.253
822.696
1047.73
-816.244
628.921
679.507
-548.176
670.112
354.755
-362.63
166.269
341.666
-213.415
178.375
139.343
151.353
52.7284
-62.8831
184.497
62.051
-70.1245
6.81871
-15.1792
-46.4423
47.9919
15.7494
-8.93849
-6.84634
-28.7723
-48.0618
46.4677
31.329
5.88364
-6.30578
-16.8083
-36.9237
33.1321
24.9692
1.9365
1.4299
8.32677
-23.2359
22.5992
-9.94728
0.827259
-1.91465
-0.287024
-21.4846
21.0777
0.344671
2.26394
-0.0519245
-3.37762
-19.597
19.1459
3.92167
-0.0409903
0.447854
-4.07254
-17.5942
17.0904
4.71232
-0.583848
0.572732
-3.7343
-15.7208
15.4258
4.12958
-0.673009
-14.8567
3.43048
-10.9267
59.4122
9.19822
-3.83568
-14.6527
-13.9924
-13.7768
230.98
8.77151
-12.4503
-58.2561
-57.3222
-50.1295
-48.8676
250.742
-5.06128
-7.39674
272.191
-24.8145
-0.514822
284.811
-32.7029
5.95057
-30.0223
44.5001
-479.165
451.688
-1663.24
-665.39
627.773
-144.327
65.9417
254.128
-670.867
142.894
213.285
-142.674
87.041
331.716
-238.285
89.3048
55.7181
53.8818
65.9125
-64.8629
132.016
37.8829
-83.9078
12.1796
-19.1088
-45.8424
51.7041
15.9324
-14.8649
6.67609
-26.9736
-63.6582
68.7528
23.1724
-7.96951
-32.9021
-27.5662
-78.0561
80.5593
22.7314
35.2336
-2.44595
-0.331103
-66.6533
52.1794
5.95767
11.2933
-2.9481
-4.83779
-28.6955
25.7495
6.9477
3.78427
-1.10345
-6.38478
-20.0656
19.1299
7.29014
1.1338
0.0962344
-6.47705
-16.3822
16.1024
6.80165
-0.141014
0.986173
-4.85278
-14.7157
14.7918
4.76576
-0.975173
-13.9234
3.94198
-7.12211
60.8477
-1.14181
-3.58172
-13.5029
-12.993
-12.5247
193.94
2.24183
-3.01903
-55.7502
-47.8554
-46.5685
-37.6969
210.791
-19.9005
8.38663
221.69
-35.0219
11.5013
229.449
-42.2355
16.1109
-36.7975
49.0971
353.349
372.951
-3008.99
-583.759
427.853
858.448
-144.538
-193.944
-233.561
62.0869
-72.2491
224.62
402.167
102.961
-21.5481
130.539
-95.4562
23.5741
0.192232
25.6782
13.6904
42.0902
109.517
99.7537
81.4938
-4.23125
-13.588
151.93
17.2635
-1.8172
-9.07002
-1.97538
-7.97227
-8.60157
-76.9213
-151.679
169.869
21.535
71.4123
-9.62987
-7.31034
-8.67368
-19.6432
-67.6939
-160.752
124.923
86.5769
93.568
-19.8034
-18.3138
-18.8618
-17.5323
-14.7211
-71.7899
45.4543
76.2022
32.5302
-16.2687
-17.6102
-16.2645
-10.1881
-4.30078
-44.07
41.843
43.0801
6.07353
-11.0731
-10.3169
-11.0476
-7.54993
-0.221636
-28.7566
27.6205
32.2619
1.64885
-8.83579
-7.49984
-8.66743
-5.31705
-0.168232
-32.0413
37.764
19.1353
0.625419
-7.55253
-5.0603
-7.38536
-2.16454
-3.89378
-33.6468
39.0306
8.36837
3.68819
-4.92853
-1.85102
-4.60251
109.086
18.8193
1.81817
4.67296
-15.0155
5.48805
-13.9404
-37.3113
-26.5505
-26.3105
-16.406
131.929
-14.3558
-2.34996
143.864
-28.2533
-3.3548
160.441
-48.8047
-3.40941
173.569
-57.1451
6.51323
-48.4848
45.6066
1208.02
-177.469
2002.95
54.2398
278.255
72.3602
-86.7802
-222.37
-238.634
-180.557
-70.9569
148.106
-39.8487
1.3851
-211.159
-176.481
7.03914
105.965
-176.158
400.729
-35.6491
-55.8651
-109.912
-60.7671
-118.261
-194.994
126.625
88.3352
-30.0486
-42.601
-21.0011
-34.8588
-79.0465
315.478
-44.0938
-84.8556
-117.217
-82.4396
-114.872
-30.1887
161.273
-16.3342
-64.293
-45.553
-60.533
-44.3701
19.7133
167.062
-63.3133
-45.9052
-61.2584
-46.2397
-60.367
47.8849
83.1862
-39.1499
-27.9553
-31.9517
-26.7362
-30.657
81.086
65.315
-40.8699
-15.5688
-33.4316
-15.1014
-32.7183
107.716
15.4942
-31.0392
-0.369432
-17.6964
0.389602
-16.6512
130.29
1.96404
-26.0723
142.873
-23.5191
-19.2404
156.647
-39.7572
-11.9102
164.093
-55.9074
-4.44324
169.074
-65.8982
15.658
-55.2127
45.346
1979.27
72.3982
-3285.16
2225.44
215.974
-616.559
1329.11
240.148
401.98
727.463
160.55
381.205
231.043
207.202
393.053
45.1368
101.77
126.818
113.772
331.363
43.17
58.2087
172.1
35.2074
152.262
245.772
-39.7975
199.094
132.201
-66.0542
253.774
125.109
-73.5613
286.261
57.545
-85.5151
307.874
43.9908
-63.157
313.828
14.0346
-41.779
311.78
7.65768
-16.6272
301.783
-11.9204
-22.0253
283.789
-27.3401
-11.8702
262.013
-40.6932
3.41209
232.127
-47.8416
36.7062
-44.2199
63.8048
952.777
1680.02
158.038
809.179
377.696
-98.6937
258.803
598.087
43.6368
23.7738
300.78
33.9129
6.72895
266.961
-34.7674
-9.54113
89.4009
89.7626
130.877
197.627
19.6599
185.871
107.61
28.1696
298.349
151.149
4.5483
353.608
82.8113
-25.8908
400.391
81.0178
-5.73532
426.002
36.7799
-39.8079
438.922
30.3048
-23.4333
442.303
11.8982
-25.0395
437.037
11.1698
-12.2643
426.368
-2.05225
-14.1391
405.008
-7.84643
10.0813
375.682
-15.4917
23.8328
328.947
-11.8398
51.9346
-14.4737
77.674
-508.941
1340.53
-798.158
-618.803
369.303
-445.079
-305.026
347.507
-491.914
-208.697
202.236
-26.954
108.845
38.9369
79.6587
91.3651
72.3208
116.247
269.161
59.7108
77.5571
304.717
67.5488
31.4454
363.449
92.3363
40.9552
394.231
54.7903
4.87679
423.135
53.6858
20.1554
438.886
24.1018
1.58801
447.975
21.6042
14.9762
449.093
11.413
12.1411
446.192
13.7171
18.37
437.511
7.3532
22.3218
412.822
14.0051
32.9079
375.587
17.1458
37.9975
321.562
32.2468
57.568
17.378
71.4845
-1482.56
550.94
-2280.13
-715.745
216.706
18.4738
-378.144
121.074
-420.143
-218.409
109.33
178.182
-13.2055
-89.7004
9.50723
-9.98072
49.9092
76.7166
108.556
-53.8782
-9.28736
144.792
25.0512
19.1244
255.143
1.03067
14.8662
306.566
9.08148
12.7262
359.11
1.20058
38.5596
389.835
-6.46945
24.1936
412.591
-2.56071
39.0123
420.833
2.78947
34.0407
420.217
12.7391
37.2479
410.337
16.1242
36.2933
383.498
35.7692
40.4328
345.356
50.6347
32.8645
308.509
62.3713
37.2713
34.5439
45.7998
751.487
268.998
-6259.51
191.864
758.341
-673.003
521.029
-41.2724
-910.487
593.132
117.04
-120.626
492.549
67.735
-136.965
462.295
113.914
-119.335
375.051
49.7636
-70.5227
351.907
71.0959
-96.1737
347.852
25.1971
-67.8839
361.332
18.6788
-88.4805
388.379
-22.4587
-48.1641
412.512
-30.9039
-42.2589
433.682
-29.6472
-2.21274
448.436
-15.3285
5.62467
454.764
2.66682
27.3637
453.144
19.0694
33.3504
437.857
47.1124
70.1032
414.131
74.6056
73.5466
385.37
96.9181
63.8818
63.774
35.2879
-825.822
3646.69
-125.708
460.196
204.65
-688.219
423.485
-119.568
550.532
-101.375
685.982
-3.1797
708.682
76.3011
773.493
25.0614
767.933
69.4885
772.949
27.9575
733.966
39.343
701.309
7.40671
660.584
7.76192
638.221
-15.4282
621.184
-8.50959
612.516
-4.6993
620.337
25.6648
652.554
57.3361
720.736
71.9221
76.5687
1717.4
1284.06
-1463.89
1132.62
-7.7936
645.287
722.578
-244.033
-11.3397
814.375
-261.717
-4.14341
782.881
-92.1528
-181.745
803.459
-110.491
-215.002
734.843
-24.6758
-135.563
710.275
-47.9827
-155.053
668.882
-15.0398
-52.1702
658.229
-6.78832
-75.3063
637.328
20.2103
-23.025
615.576
30.8547
-46.0151
568.578
39.8969
-32.0723
516.862
39.3891
-46.2052
459.082
29.3969
-22.1812
414.918
13.1068
-33.3288
396.639
-6.40044
-27.1861
389.768
-12.8706
-21.5735
398.88
-15.7031
11.6703
-9.17362
41.5739
-90.7052
598.428
-2526.59
-111.6
132.457
-64.5391
-200.415
-277.868
-263.86
-50.1606
-291.792
66.168
183.852
-200.85
-110.345
238.878
-135.013
-9.61401
346.382
-59.3224
61.8468
361.286
-24.8781
30.3148
395.412
2.103
90.2396
402.624
21.8275
20.2899
409.099
31.3295
14.5792
399.731
40.2686
-29.435
389.4
38.9765
-19.0955
374.937
37.996
-27.1756
360.595
29.1776
-13.8061
345.54
21.2848
-12.8366
330.312
8.6711
6.51118
317.31
5.25446
15.0114
312.543
1.50557
43.8084
0.541848
79
-39.5138
-317.294
2201.83
-108.598
36.465
-243.791
-83.5081
-296.694
100.983
10.2251
-360.522
48.7362
223.704
-348.458
-9.73757
276.139
-169.342
71.5119
369.422
-96.3788
112.551
381.858
-3.72975
44.4012
392.249
21.2151
72.8165
381.934
48.926
9.1522
375.009
46.0234
16.4292
362.069
53.7467
-10.8201
353.123
45.7116
0.23555
341.575
47.3339
-8.59058
331.885
38.0785
-0.0413539
318.432
35.3228
0.583977
302.583
27.8161
14.24
287.629
24.4417
17.5311
276.153
17.1202
32.0448
5.63401
64.2638
671.822
-971.976
-1846.41
836.042
-122.219
-221.047
478.692
-61.4327
-250.639
328.734
-298.503
-162.602
162.554
-236.02
-48.3322
109.508
-152.276
0.958734
191.834
-135.734
-11.9508
207.708
-14.9469
12.1363
268.953
-15.705
10.8376
279.961
39.7825
0.0590814
300.502
30.2995
11.0367
300.035
52.7521
-5.36541
301.537
43.4498
2.19294
294.01
51.0217
-2.71439
286.777
43.3021
2.09913
276.77
43.3295
1.31606
268.297
37.5099
8.44147
261.878
32.7088
10.2488
257.207
22.8583
23.1956
5.89042
57.5824
465.728
-739.518
1435.34
633.862
-329.779
-164.063
506.459
-35.3451
-416.428
384.278
-197.555
-21.7627
350.745
-150.693
144.032
288.458
-86.67
29.428
317.351
-137.684
54.2782
314.81
-6.40637
-7.65522
325.901
-21.0414
21.0717
317.36
48.1325
-11.7715
313.965
34.0958
8.20789
300.663
63.8153
-7.6901
292.463
50.613
2.19901
279.812
60.1863
-3.24584
272.031
49.3599
1.45674
264.322
48.9473
-0.107421
260.867
41.5847
3.55861
258.893
34.6844
4.02965
258.309
21.9852
15.0235
3.72724
55.9258
-1420.86
-98.7933
-2696.56
-257.544
-418.413
579.285
259.762
-228.043
40.0555
141.211
-89.8675
221.404
195.559
-105.85
61.0734
89.7113
1.43714
44.9757
211.378
-213.739
-7.81825
160.292
35.4761
15.3592
209.276
-45.706
-4.35406
201.588
54.2314
-7.08889
216.84
22.2667
-3.53615
215.307
62.7077
-6.19132
220.868
44.8814
-1.88135
221.514
58.241
-2.27002
224.983
46.0936
-0.936995
227.821
46.0821
-0.272864
232.119
38.5864
0.0961414
238.434
28.6195
0.924366
246.904
12.7735
14.1148
-1.36773
62.112
2153.38
1151.33
1830.31
891.366
-153.438
834.316
616.448
-119.824
-104.862
494.107
-3.83484
-6.42601
428.342
-33.3467
80.637
258.746
146.952
10.9617
215.93
-18.0637
30.045
-57.7299
-20.1283
-55.1931
146.448
20.642
22.4499
24.0701
23.0777
25.7386
161.329
-1.47314
-14.3451
-27.3873
-1.76199
-26.7766
154.702
14.7931
-6.62751
12.2009
16.1725
12.7542
175.883
12.5877
-17.5314
-9.37202
11.8641
-9.96837
175.666
20.6857
-8.32593
10.4685
20.2836
9.59644
185.354
19.5641
-8.18436
-0.578589
18.5146
-1.68651
183.27
23.0502
-4.50423
8.19862
22.2083
7.28257
190.971
40.2046
1.93799
197.335
41.6723
-0.998708
204.874
33.082
0.544525
213.638
20.762
1.78401
221.2
7.37698
19.3358
-1.16753
61.7757
471.152
754.328
-1621.15
473.89
-119.264
191.067
515.051
-127.164
-459.503
428.568
53.6848
-22.3529
406.097
47.2113
91.9736
55.3691
69.3636
57.5577
58.3958
37.1953
38.7946
97.3883
75.6894
102.441
-28.6588
35.7899
6.26779
23.9067
-16.1734
-7.22117
15.2459
11.2146
17.5761
-3.2399
-23.1048
18.4088
4.16577
2.29698
9.39279
-12.9856
18.4523
6.1924
-6.25879
6.37428
-26.33
29.1239
9.47232
-6.05285
4.28626
-26.5989
33.88
13.7279
-4.60961
2.01131
-38.5277
41.4834
16.6094
-2.01236
1.20585
-39.4085
43.485
18.6787
-0.91083
131.72
20.2528
-11.4264
-41.1066
-39.0327
-27.0317
-25.8894
0.371726
19.1978
-0.291717
143.356
29.8391
-5.88091
147.465
28.7639
-4.70466
154.248
15.3779
4.22376
158.294
8.48116
22.4442
-0.330947
53.2667
2429.9
755.668
-1524.19
1485.34
75.864
85.0813
816.825
179.649
-390.367
539.525
202.572
-240.745
103.138
167.888
-48.4351
101.453
83.1269
79.8919
10.7118
97.6801
70.3393
-6.22981
-10.5197
-8.06064
-25.3596
21.9073
13.1686
8.86398
-7.21865
-11.8807
-3.65213
10.796
4.82899
7.12645
-0.853741
-8.49866
-2.72424
8.55432
2.70375
0.818566
1.11906
-5.04309
-1.81448
5.7965
0.891242
-0.949239
0.996198
-6.38168
-2.55299
7.72665
1.44604
-1.23421
0.807754
-6.82252
-3.68067
8.04954
2.57106
-0.925161
0.501976
-7.9674
-4.49146
9.16187
3.44847
-0.653457
0.393988
-8.64054
-4.77631
9.64906
3.82377
-0.449969
-8.74479
3.54642
35.7927
16.5679
-3.06293
-8.8585
-7.41781
-7.57011
94.2873
27.4181
-4.17475
-31.1336
-30.2616
-18.2539
-17.3736
106.177
20.8397
-0.435382
114.523
11.3001
4.58638
123.57
4.46534
15.4245
-5.82564
45.4723
2236.09
-115.959
-2930.7
1338.22
483.042
-310.131
627.027
408.4
-409.229
297.153
343.417
-242.371
32.346
289.445
-142.789
40.1326
5.62219
8.26819
68.3932
-72.9093
26.8206
66.8812
-56.8397
1.67561
-21.199
-13.1206
14.6458
19.8312
-1.83307
-6.33891
-10.3071
-12.6713
11.4669
12.1518
5.69864
-0.511508
-3.37502
-7.32477
6.83633
3.78388
0.591092
0.25638