/*--------------------------------*- C++ -*----------------------------------*\
  =========                 |
  \\      /  F ield         | OpenFOAM: The Open Source CFD Toolbox
   \\    /   O peration     | Website:  https://openfoam.org
    \\  /    A nd           | Version:  10
     \\/     M anipulation  |
\*---------------------------------------------------------------------------*/
FoamFile
{
    format      ascii;
    class       volScalarField;
    location    "8.3";
    object      turbidity;
}
// * * * * * * * * * * * * * * * * * * * * * * * * * * * * * * * * * * * * * //

dimensions      [0 0 0 0 0 0 0];

internalField   nonuniform List<scalar> 
12920
(
-0.0173209
-0.0563552
-0.0643109
-0.0690494
-0.070341
-0.0710761
-0.075239
-0.0865046
-0.113372
-0.152881
-0.196773
-0.226908
-0.241593
-0.243366
-0.238238
-0.232492
-0.23595
-0.252981
-0.287632
-0.331379
-0.0267342
-0.0879105
-0.0894278
-0.111189
-0.113275
-0.112814
-0.117718
-0.134926
-0.165226
-0.201786
-0.231594
-0.246829
-0.256615
-0.266424
-0.2813
-0.302369
-0.327351
-0.354321
-0.386659
-0.427504
-0.0289067
-0.061107
-0.0819643
-0.11832
-0.148496
-0.16462
-0.173173
-0.18526
-0.205444
-0.229763
-0.253916
-0.274907
-0.295283
-0.315533
-0.337382
-0.360128
-0.38516
-0.412921
-0.443641
-0.476826
-0.020139
-0.0323065
-0.0586319
-0.0983692
-0.143651
-0.182874
-0.208703
-0.225574
-0.239836
-0.253335
-0.267971
-0.282667
-0.300569
-0.320646
-0.344733
-0.370572
-0.397557
-0.425267
-0.452748
-0.477232
-0.0261651
-0.0374411
-0.0620648
-0.0998929
-0.140319
-0.176424
-0.202977
-0.222672
-0.239675
-0.254532
-0.271953
-0.289328
-0.309532
-0.32957
-0.351713
-0.374186
-0.397242
-0.419768
-0.440664
-0.457487
-0.0500022
-0.0573526
-0.0836037
-0.121646
-0.14988
-0.1808
-0.202659
-0.228315
-0.25005
-0.272133
-0.292726
-0.309976
-0.328694
-0.347618
-0.36765
-0.387474
-0.406883
-0.425063
-0.442806
-0.459186
-0.0262346
-0.062401
-0.0849699
-0.103869
-0.122102
-0.1498
-0.17264
-0.197282
-0.212154
-0.238753
-0.266936
-0.298091
-0.326818
-0.352506
-0.375509
-0.395227
-0.412252
-0.428126
-0.443579
-0.457958
-0.0566926
-0.0638374
-0.0747094
-0.0845608
-0.0974096
-0.125143
-0.131385
-0.145092
-0.149956
-0.152767
-0.17493
-0.197671
-0.2254
-0.246967
-0.244626
-0.276365
-0.304194
-0.329464
-0.349792
-0.366473
-0.0264354
-0.0370136
-0.0464106
-0.0547003
-0.0707286
-0.0745915
-0.0897527
-0.11757
-0.122985
-0.113647
-0.113286
-0.12665
-0.13996
-0.145729
-0.142066
-0.15949
-0.205607
-0.247633
-0.28545
-0.318566
-0.00934337
-0.0283223
-0.0398481
-0.0467802
-0.0578342
-0.0578322
-0.0675398
-0.103905
-0.115292
-0.107573
-0.100475
-0.0957636
-0.0904618
-0.0839308
-0.0916898
-0.145425
-0.192583
-0.233198
-0.268264
-0.301196
-0.0245946
-0.0339367
-0.0385388
-0.046912
-0.0568463
-0.0555911
-0.056358
-0.0753353
-0.0952765
-0.110327
-0.100151
-0.0877895
-0.080374
-0.0785927
-0.0931199
-0.136883
-0.182373
-0.226965
-0.269422
-0.308089
-0.0194871
-0.035179
-0.0455175
-0.0552175
-0.0663987
-0.0622555
-0.0596366
-0.0582953
-0.0621941
-0.105667
-0.120776
-0.105347
-0.0912871
-0.0859906
-0.0948644
-0.167647
-0.232269
-0.299313
-0.36173
-0.412359
-0.0356115
-0.0616456
-0.065629
-0.0877151
-0.101993
-0.122276
-0.116069
-0.103616
-0.108928
-0.135031
-0.149566
-0.150018
-0.143951
-0.142495
-0.256324
-0.331869
-0.401813
-0.46534
-0.52148
-0.568121
-0.0458537
-0.0568084
-0.0679883
-0.10403
-0.127099
-0.158937
-0.171119
-0.193282
-0.197505
-0.222095
-0.241741
-0.280374
-0.320506
-0.365014
-0.407221
-0.444082
-0.482638
-0.526268
-0.575758
-0.629312
-0.0242187
-0.03681
-0.0607096
-0.102734
-0.143743
-0.180084
-0.196273
-0.214324
-0.220109
-0.222231
-0.227622
-0.234644
-0.253795
-0.280102
-0.312853
-0.346719
-0.390167
-0.443334
-0.504583
-0.5785
-0.0485533
-0.0688019
-0.0769703
-0.109878
-0.14693
-0.175068
-0.197298
-0.213205
-0.223807
-0.22778
-0.23417
-0.23889
-0.249626
-0.264406
-0.284768
-0.30858
-0.338188
-0.37441
-0.422458
-0.489602
-0.0660209
-0.0496732
-0.0652082
-0.088144
-0.121371
-0.165737
-0.20067
-0.221737
-0.23391
-0.243188
-0.251885
-0.262489
-0.275371
-0.29152
-0.311065
-0.33502
-0.365027
-0.403981
-0.455669
-0.523506
-0.0737242
-0.0717863
-0.0743788
-0.106421
-0.143853
-0.179304
-0.20778
-0.235872
-0.257753
-0.276516
-0.29271
-0.309569
-0.326872
-0.346063
-0.367722
-0.393489
-0.424378
-0.462264
-0.507914
-0.558196
-0.0361428
-0.0541893
-0.0608305
-0.0919077
-0.107905
-0.120731
-0.137917
-0.160006
-0.190388
-0.21856
-0.2491
-0.27571
-0.30097
-0.321296
-0.34219
-0.369546
-0.408643
-0.456629
-0.508733
-0.556688
-0.0551447
-0.0776931
-0.0782162
-0.107411
-0.123927
-0.137595
-0.151462
-0.166612
-0.182953
-0.200465
-0.217849
-0.233485
-0.243889
-0.247775
-0.251725
-0.260662
-0.283464
-0.320842
-0.363342
-0.398694
-0.0169192
-0.0160792
-0.0181109
-0.0213002
-0.0208332
-0.0197255
-0.0185222
-0.0192499
-0.0231722
-0.0273927
-0.0291148
-0.0271798
-0.0239074
-0.0208825
-0.0195558
-0.0208217
-0.0260292
-0.0357541
-0.052219
-0.0663785
-0.0158062
-0.0212187
-0.0190235
-0.0407138
-0.0505881
-0.0563036
-0.0655403
-0.0727527
-0.0758542
-0.0624293
-0.0424178
-0.0290145
-0.0264959
-0.0302271
-0.0399054
-0.0568553
-0.0840732
-0.113942
-0.138507
-0.147
-0.0179577
-0.0146448
-0.0155591
-0.0272281
-0.0420856
-0.0569687
-0.0706073
-0.0724745
-0.066662
-0.0504202
-0.0378853
-0.0323743
-0.0363912
-0.0468756
-0.0635675
-0.0844751
-0.106557
-0.120685
-0.123867
-0.115811
-0.0130381
-0.0139454
-0.0160451
-0.0199059
-0.0229783
-0.026946
-0.0352549
-0.0350627
-0.0339094
-0.0278054
-0.0250735
-0.0248317
-0.0291985
-0.0372042
-0.0486608
-0.0621522
-0.0764144
-0.0850425
-0.0845828
-0.0748066
-0.00579198
-0.00962957
-0.0157912
-0.0276065
-0.0403594
-0.0361617
-0.0344917
-0.0279525
-0.0272278
-0.0247707
-0.0246681
-0.0242885
-0.0252234
-0.0276487
-0.0317114
-0.0365837
-0.0414531
-0.0437937
-0.0432097
-0.0416368
-0.00542805
-0.0339748
-0.0503161
-0.0483338
-0.051673
-0.0448145
-0.0400621
-0.0351371
-0.0307502
-0.0252443
-0.0221756
-0.0206313
-0.0204986
-0.021486
-0.0231524
-0.0251076
-0.0271364
-0.0297371
-0.0357639
-0.0467646
-0.0203847
-0.0218311
-0.0242783
-0.024194
-0.0335132
-0.0340522
-0.0319156
-0.0214958
-0.0153387
-0.0143145
-0.0142083
-0.0148891
-0.0157394
-0.0170726
-0.0202003
-0.0230315
-0.0274872
-0.0369964
-0.0579471
-0.0798453
-0.0115631
-0.0147296
-0.021686
-0.0289614
-0.0438422
-0.0475875
-0.0570615
-0.0423656
-0.0159192
-0.011495
-0.0119525
-0.0127528
-0.0136977
-0.0148016
-0.01879
-0.0243101
-0.0330588
-0.0470866
-0.0638639
-0.0692044
-0.00513367
-0.00724546
-0.0084657
-0.0108009
-0.0209754
-0.0330803
-0.0553292
-0.0645566
-0.0197608
-0.0102755
-0.0103722
-0.0111434
-0.0119209
-0.0131036
-0.0175961
-0.0350213
-0.0457905
-0.0551162
-0.0595043
-0.0581454
-0.00847798
-0.00527286
-0.00464934
-0.00597507
-0.0123642
-0.0201433
-0.0411028
-0.071704
-0.0470259
-0.0222703
-0.0136917
-0.0103994
-0.0120373
-0.017376
-0.033412
-0.0434323
-0.0465584
-0.0489073
-0.0514563
-0.0556388
-0.00935079
-0.00407382
-0.00390428
-0.00578023
-0.0115953
-0.0159242
-0.0261208
-0.0570031
-0.082168
-0.083728
-0.0635754
-0.032625
-0.023133
-0.0282325
-0.0399174
-0.047122
-0.0507473
-0.0538396
-0.0560528
-0.0590091
-0.0135643
-0.00617706
-0.00504441
-0.00824408
-0.0147997
-0.0190494
-0.025412
-0.0353196
-0.054593
-0.0745761
-0.11357
-0.0977554
-0.068897
-0.0555125
-0.060603
-0.0669644
-0.0712923
-0.0731549
-0.071232
-0.0679437
-0.0240275
-0.0211774
-0.0123654
-0.0246573
-0.034155
-0.0554183
-0.0681563
-0.0839651
-0.0849533
-0.0900744
-0.0854676
-0.0836867
-0.0864168
-0.0912865
-0.0755631
-0.0766132
-0.0771425
-0.0772985
-0.0776397
-0.0773417
-0.0456804
-0.0240623
-0.0117336
-0.0224063
-0.0386335
-0.0577258
-0.0719556
-0.0628967
-0.04708
-0.0386418
-0.0397221
-0.0428538
-0.0478786
-0.0528415
-0.0593629
-0.0681447
-0.0798454
-0.0923494
-0.104262
-0.104924
-0.010162
-0.0112526
-0.013281
-0.0247488
-0.0458166
-0.0562418
-0.062668
-0.0489742
-0.0363458
-0.0302997
-0.0318146
-0.0372877
-0.046744
-0.0561197
-0.0640848
-0.0729861
-0.0888293
-0.110839
-0.135024
-0.137554
-0.0185328
-0.0279348
-0.0225319
-0.0329603
-0.052076
-0.0597591
-0.0638521
-0.0518839
-0.0417071
-0.0343504
-0.0329391
-0.0352654
-0.0408482
-0.0491619
-0.0606004
-0.0756968
-0.0987739
-0.12748
-0.157347
-0.169022
-0.0606764
-0.0166928
-0.0245444
-0.0489433
-0.0772627
-0.0765072
-0.0735644
-0.0606226
-0.0544383
-0.0519805
-0.0570873
-0.0652038
-0.07717
-0.0904893
-0.105575
-0.122156
-0.140633
-0.15632
-0.165875
-0.15435
-0.0237578
-0.0363445
-0.0319393
-0.0536089
-0.0540195
-0.0460211
-0.0531594
-0.0584147
-0.0685507
-0.0760804
-0.088992
-0.102209
-0.119936
-0.136926
-0.151198
-0.159496
-0.159652
-0.148513
-0.128488
-0.0966683
-0.0042254
-0.00982573
-0.0162411
-0.020932
-0.0179391
-0.0137418
-0.0127259
-0.0156644
-0.0209045
-0.0262007
-0.0329155
-0.0417067
-0.0579679
-0.0833811
-0.117313
-0.150866
-0.181236
-0.193745
-0.183542
-0.146075
-0.0289611
-0.0215903
-0.015175
-0.0232641
-0.0278036
-0.0290221
-0.0300088
-0.0300918
-0.0357005
-0.0408935
-0.0443805
-0.0403318
-0.0340282
-0.0311737
-0.0357592
-0.0498014
-0.0720997
-0.099386
-0.124513
-0.140688
-0.0184514
-0.0181593
-0.0167523
-0.0182522
-0.0185207
-0.01787
-0.0159849
-0.0139746
-0.012278
-0.0109881
-0.0101974
-0.00954241
-0.00925743
-0.00950034
-0.0105565
-0.0125494
-0.0156795
-0.0192864
-0.0236186
-0.0272378
-0.0100585
-0.0166087
-0.012535
-0.0220758
-0.0292413
-0.0341346
-0.0395565
-0.0366812
-0.0306973
-0.0204419
-0.0142706
-0.0126862
-0.0141506
-0.0174916
-0.0228208
-0.0297641
-0.0386072
-0.0472086
-0.0541794
-0.0563768
-0.0107374
-0.0141958
-0.0122914
-0.0136824
-0.0183904
-0.0247287
-0.0302002
-0.0271784
-0.0224308
-0.0171964
-0.0160947
-0.0178407
-0.0218469
-0.0268991
-0.032831
-0.0384433
-0.043254
-0.0451302
-0.0445492
-0.0426632
-0.00580567
-0.0128504
-0.0135609
-0.0123268
-0.0115428
-0.0120039
-0.0133798
-0.0133893
-0.0132398
-0.0129075
-0.0137195
-0.0154744
-0.0181394
-0.0212029
-0.0242613
-0.0267597
-0.02859
-0.0290157
-0.0281504
-0.0270146
-0.00425141
-0.0101513
-0.0153329
-0.0179908
-0.0176843
-0.0140292
-0.0135
-0.0129801
-0.0130641
-0.0127216
-0.012607
-0.0127674
-0.0134201
-0.0144791
-0.0155779
-0.0164673
-0.0170201
-0.0172267
-0.017429
-0.0182145
-0.0144017
-0.0249797
-0.0242181
-0.018098
-0.0177138
-0.014413
-0.0127546
-0.0118326
-0.0111095
-0.0104455
-0.00991485
-0.00976802
-0.00992726
-0.0104732
-0.0111879
-0.0120847
-0.0132217
-0.0148295
-0.0173098
-0.0204425
-0.00180639
-0.010889
-0.0149187
-0.0144603
-0.0153008
-0.0127022
-0.0104482
-0.00887896
-0.00799545
-0.00791008
-0.00778315
-0.00804078
-0.00870021
-0.00996432
-0.0120306
-0.0148312
-0.0186144
-0.0235479
-0.0296356
-0.034064
-0.00606305
-0.015337
-0.0200833
-0.0194857
-0.0234841
-0.0185914
-0.0187146
-0.0101224
-0.00729019
-0.00695855
-0.00705202
-0.00740665
-0.00826461
-0.0098834
-0.0155345
-0.0191099
-0.0225312
-0.0253925
-0.0270058
-0.0260219
-0.00194252
-0.00412534
-0.00645157
-0.00857424
-0.0139366
-0.0176231
-0.0248435
-0.0177503
-0.00723062
-0.00648667
-0.00669091
-0.00750751
-0.00921633
-0.0119657
-0.018269
-0.022587
-0.0240235
-0.0242686
-0.0232592
-0.0217301
-0.00411776
-0.00487336
-0.00396739
-0.00537588
-0.0120131
-0.0165931
-0.0251734
-0.0314884
-0.0172668
-0.00946773
-0.00771656
-0.00933451
-0.0130623
-0.018094
-0.0231478
-0.0231413
-0.0248913
-0.0269027
-0.0288585
-0.0304068
-0.00359897
-0.00274149
-0.00319589
-0.00568294
-0.0140817
-0.0205868
-0.0328713
-0.0520725
-0.0658881
-0.056134
-0.0242281
-0.017057
-0.018605
-0.0218329
-0.0250144
-0.0268477
-0.0279538
-0.0293409
-0.0312928
-0.0339721
-0.000811122
-0.003378
-0.00440532
-0.00828501
-0.0185063
-0.0272273
-0.0392263
-0.0537361
-0.0549326
-0.0712175
-0.062463
-0.0427656
-0.0350239
-0.0342558
-0.0342364
-0.0298918
-0.0297992
-0.0292816
-0.0288424
-0.0292757
-0.00359814
-0.00973617
-0.00832343
-0.0172828
-0.0293316
-0.0393755
-0.0501027
-0.067792
-0.0637085
-0.0482742
-0.0388468
-0.0376087
-0.0384091
-0.0385019
-0.0296182
-0.0289173
-0.0283298
-0.0277948
-0.0274845
-0.0274533
-0.00832916
-0.00820677
-0.00913531
-0.015121
-0.0257949
-0.029838
-0.0339204
-0.023806
-0.0224919
-0.0211229
-0.0224368
-0.0237821
-0.0252574
-0.0268612
-0.0285972
-0.0305471
-0.0324326
-0.0335134
-0.0337634
-0.0322441
-0.0138349
-0.013411
-0.0145949
-0.0214006
-0.0270136
-0.025545
-0.0252341
-0.0182479
-0.0173967
-0.0181305
-0.0209343
-0.0243273
-0.0280515
-0.0311622
-0.0338601
-0.0369569
-0.041067
-0.0444697
-0.0458965
-0.0409747
-0.007604
-0.019002
-0.0170535
-0.0194453
-0.0232139
-0.0257821
-0.024261
-0.0193936
-0.0177879
-0.0188751
-0.0216446
-0.0256597
-0.0299729
-0.0345541
-0.0394425
-0.0448179
-0.0519997
-0.0588157
-0.0629538
-0.0567854
-0.0154081
-0.0124037
-0.0166492
-0.027005
-0.0358038
-0.0311985
-0.02762
-0.0240134
-0.0245795
-0.0280932
-0.0334276
-0.0393447
-0.0452672
-0.0504331
-0.0550674
-0.0587709
-0.0621497
-0.0614818
-0.0564445
-0.0445737
-0.00723269
-0.0136803
-0.0158216
-0.0222864
-0.0161164
-0.0173708
-0.0219637
-0.0258251
-0.032117
-0.0383386
-0.0476849
-0.0566675
-0.066352
-0.072179
-0.0734488
-0.0689819
-0.0611387
-0.0503032
-0.0402343
-0.0321462
-0.00174204
-0.00746854
-0.011588
-0.0135317
-0.0118012
-0.00894357
-0.00843613
-0.0101269
-0.0129663
-0.0162228
-0.0211207
-0.0281712
-0.0386427
-0.0504363
-0.0630308
-0.0722728
-0.0785865
-0.0752246
-0.0653757
-0.0558366
-0.0210416
-0.0112363
-0.00896712
-0.00826394
-0.0085451
-0.00926053
-0.0113454
-0.0137838
-0.017384
-0.0190326
-0.0186186
-0.0165997
-0.0164874
-0.0199045
-0.026599
-0.0353553
-0.0456341
-0.0562351
-0.0658664
-0.0766231
-0.00629256
-0.0201712
-0.0200795
-0.0164183
-0.0136805
-0.0116179
-0.00990371
-0.00824205
-0.00694909
-0.00618441
-0.00599438
-0.00635138
-0.00712622
-0.00834226
-0.0098103
-0.0113945
-0.0130255
-0.014515
-0.0160997
-0.0176473
-0.00438823
-0.00817616
-0.00803591
-0.0117935
-0.013329
-0.0148119
-0.0160209
-0.013066
-0.0105812
-0.00840279
-0.008267
-0.00933356
-0.0111187
-0.0132721
-0.0157102
-0.0181437
-0.0208168
-0.0231609
-0.0251725
-0.0262825
-0.014169
-0.00776044
-0.00678826
-0.00805419
-0.00985032
-0.0115645
-0.0125419
-0.0108669
-0.0100689
-0.00983835
-0.0108576
-0.0123271
-0.0141911
-0.0160131
-0.0179183
-0.0195089
-0.0208683
-0.0215504
-0.0218478
-0.0218853
-0.00601025
-0.00888885
-0.00787341
-0.0072119
-0.00794575
-0.00878497
-0.00897597
-0.00873684
-0.00870997
-0.00893415
-0.00960635
-0.0105346
-0.0116265
-0.0126988
-0.0137013
-0.0145318
-0.0152489
-0.0157687
-0.0162148
-0.0167475
-0.00445765
-0.00894304
-0.00905012
-0.00890979
-0.00910083
-0.00916166
-0.009206
-0.00881759
-0.00824648
-0.00781785
-0.00774884
-0.00812753
-0.00871595
-0.00943786
-0.0100985
-0.0107322
-0.0113682
-0.0120897
-0.0129979
-0.0141359
-0.0112512
-0.0116926
-0.00944298
-0.00844468
-0.0080027
-0.00785858
-0.00707679
-0.00676688
-0.00620881
-0.00605843
-0.00611392
-0.00655397
-0.00711253
-0.00778379
-0.0084734
-0.00925397
-0.0101971
-0.0113876
-0.0128901
-0.0145757
-0.00602039
-0.0107322
-0.00992268
-0.00811761
-0.00739317
-0.0066975
-0.006004
-0.00569391
-0.00532421
-0.00538033
-0.0057436
-0.00638529
-0.00728709
-0.00834431
-0.00963519
-0.011028
-0.0126429
-0.0144726
-0.0164184
-0.0178636
-0.0115019
-0.0140749
-0.0124889
-0.00928456
-0.0099264
-0.00747025
-0.00703368
-0.00547653
-0.00508272
-0.00524252
-0.0056956
-0.00651472
-0.00745814
-0.00865243
-0.0102059
-0.0111181
-0.0121083
-0.0132306
-0.0143532
-0.0154158
-0.00646107
-0.00549553
-0.00538715
-0.00566496
-0.00749606
-0.00789846
-0.00857657
-0.00612054
-0.00501755
-0.00541168
-0.00635558
-0.00755389
-0.00875861
-0.00990873
-0.0109277
-0.0112077
-0.0118138
-0.0123478
-0.0128699
-0.0136066
-0.00170243
-0.00214718
-0.00306068
-0.0048811
-0.010186
-0.0101438
-0.0105541
-0.0100871
-0.00777311
-0.00725327
-0.00801468
-0.00950059
-0.0108827
-0.0120377
-0.0135778
-0.0162201
-0.01706
-0.0176114
-0.0177354
-0.0175716
-0.00161043
-0.00178536
-0.0028601
-0.00615883
-0.0167668
-0.0238538
-0.032285
-0.0424659
-0.0504395
-0.0275209
-0.0159079
-0.0149502
-0.0153064
-0.0164989
-0.018293
-0.0191605
-0.0205041
-0.0218841
-0.0230789
-0.0238574
-0.00206671
-0.00278452
-0.00443377
-0.00952358
-0.0209466
-0.0281043
-0.0356736
-0.0578548
-0.0668311
-0.0518504
-0.0276855
-0.0227063
-0.0201612
-0.0189999
-0.0176981
-0.0168845
-0.0176757
-0.0184944
-0.0194396
-0.0204138
-0.00256277
-0.00638452
-0.00766145
-0.0143996
-0.0213652
-0.0203548
-0.0271238
-0.0412591
-0.0333008
-0.0241234
-0.0204368
-0.0188483
-0.0178138
-0.0171054
-0.0151633
-0.0152113
-0.0153409
-0.0155537
-0.0159042
-0.0163297
-0.00540966
-0.00735783
-0.00781021
-0.0103473
-0.0140357
-0.0136377
-0.0152029
-0.0129949
-0.0141643
-0.0138554
-0.0140018
-0.0142947
-0.0144527
-0.0147421
-0.0149812
-0.0152612
-0.0155122
-0.0156582
-0.0158588
-0.015985
-0.00656474
-0.0111329
-0.0122597
-0.0139697
-0.0131987
-0.0120811
-0.012262
-0.0118514
-0.0129214
-0.0140907
-0.0150548
-0.0160662
-0.0165983
-0.0169111
-0.0170141
-0.0172543
-0.0175599
-0.0175519
-0.0172867
-0.0162984
-0.00884529
-0.0215074
-0.0200143
-0.0127233
-0.0110188
-0.0123701
-0.0122118
-0.0131149
-0.0143062
-0.0164038
-0.0178371
-0.0191764
-0.0199528
-0.020441
-0.0209496
-0.0213133
-0.0222376
-0.0222947
-0.0215128
-0.0185411
-0.00858577
-0.0141901
-0.0127814
-0.0125549
-0.0139194
-0.0147581
-0.0151537
-0.0170905
-0.0193761
-0.0220847
-0.0241237
-0.0252989
-0.0259133
-0.0256775
-0.0253228
-0.0244295
-0.0236386
-0.0215744
-0.0191245
-0.016249
-0.00381919
-0.0106881
-0.00989118
-0.0105276
-0.00916904
-0.0119837
-0.0152019
-0.0188887
-0.0234031
-0.0272009
-0.031548
-0.0338267
-0.0353437
-0.0340918
-0.0317806
-0.0285421
-0.0260356
-0.023912
-0.0227935
-0.0223185
-0.0032152
-0.00944843
-0.0120314
-0.0114552
-0.00908654
-0.00755895
-0.00794611
-0.00948546
-0.0116401
-0.0145635
-0.018695
-0.0231317
-0.0280149
-0.0317749
-0.0355856
-0.0378012
-0.0400425
-0.0409139
-0.0424509
-0.0459146
-0.0117587
-0.00695044
-0.0100442
-0.0109776
-0.00930505
-0.00838527
-0.00913641
-0.00988694
-0.0104878
-0.00991666
-0.00994386
-0.0114469
-0.0151105
-0.0202798
-0.0261924
-0.0324536
-0.0391693
-0.0463632
-0.0545974
-0.0651425
-0.00717002
-0.0179373
-0.0153305
-0.0126025
-0.0102815
-0.00796226
-0.00611925
-0.00518683
-0.00504037
-0.0055852
-0.0066766
-0.00802193
-0.00941437
-0.0107097
-0.0119789
-0.0132666
-0.0146277
-0.0161174
-0.0177028
-0.0194468
-0.00302769
-0.00870051
-0.00806296
-0.00759132
-0.00692978
-0.00652607
-0.00651844
-0.00664345
-0.00721051
-0.00805821
-0.00905637
-0.00996431
-0.0107276
-0.0113353
-0.0119199
-0.0124729
-0.0131176
-0.0137124
-0.0143815
-0.0150269
-0.00652945
-0.00418052
-0.00477525
-0.00648755
-0.00700779
-0.00722505
-0.00738188
-0.00758844
-0.00828172
-0.00908781
-0.00998972
-0.0107284
-0.0113746
-0.0118005
-0.0121515
-0.0123356
-0.012467
-0.0125129
-0.0126149
-0.0128025
-0.00706558
-0.00835744
-0.00583792
-0.00598066
-0.00682081
-0.0069497
-0.00686828
-0.00721942
-0.00781521
-0.00858367
-0.00932649
-0.00998588
-0.010503
-0.0108913
-0.0111819
-0.0113925
-0.0115722
-0.0117463
-0.011972
-0.0122548
-0.00756574
-0.00856846
-0.00744887
-0.00712011
-0.00684953
-0.00642754
-0.00604226
-0.00621077
-0.00669911
-0.0074928
-0.00823559
-0.00898196
-0.00958934
-0.0101324
-0.0105831
-0.0109734
-0.0113174
-0.0116399
-0.0119771
-0.0123126
-0.0104506
-0.00647619
-0.00641831
-0.0062275
-0.00525357
-0.00504568
-0.00483725
-0.00532446
-0.00596667
-0.00680568
-0.00758944
-0.00839399
-0.00912768
-0.00983994
-0.010515
-0.0111593
-0.0117758
-0.0123569
-0.0129159
-0.0134108
-0.0144042
-0.00756644
-0.00662889
-0.00592515
-0.00494437
-0.00445927
-0.0045049
-0.00504203
-0.00580971
-0.00660442
-0.00742828
-0.00824809
-0.00907203
-0.00989428
-0.0107198
-0.0115313
-0.0123301
-0.0130958
-0.0138099
-0.0143999
-0.00569559
-0.0081513
-0.00635258
-0.00535827
-0.00489113
-0.00437776
-0.00435175
-0.00493884
-0.00550378
-0.00629429
-0.00696623
-0.00768423
-0.00838828
-0.00910671
-0.0104086
-0.011108
-0.0117728
-0.0123839
-0.0129402
-0.0134148
-0.00429741
-0.00405277
-0.00413789
-0.00446605
-0.00500235
-0.00476336
-0.00446082
-0.00476044
-0.00547399
-0.00616888
-0.00673692
-0.00726743
-0.0078109
-0.00836243
-0.00935418
-0.0105952
-0.0110729
-0.0114826
-0.011844
-0.0121583
-0.00129975
-0.0015416
-0.00260207
-0.00477872
-0.00735005
-0.00627616
-0.00577304
-0.00624076
-0.00721542
-0.00791515
-0.00846733
-0.00914544
-0.0097331
-0.0101277
-0.0108238
-0.0115728
-0.0115546
-0.0115185
-0.0114838
-0.011531
-0.00013231
-0.000827339
-0.00242848
-0.00677317
-0.0122224
-0.0144799
-0.0155242
-0.0156457
-0.0158903
-0.0133537
-0.0121592
-0.0124206
-0.0130953
-0.0138732
-0.0142326
-0.0131654
-0.0130014
-0.0126956
-0.0123736
-0.0122732
-0.00261795
-0.00235779
-0.00432182
-0.00878225
-0.0126741
-0.0134538
-0.0148721
-0.0214201
-0.0272345
-0.0180097
-0.0142922
-0.013161
-0.0129237
-0.0130072
-0.0124962
-0.0114779
-0.0114828
-0.0113209
-0.0111801
-0.0112629
-0.00218668
-0.00542745
-0.00693449
-0.00945871
-0.0104452
-0.0103078
-0.0114956
-0.0147227
-0.0138629
-0.0124779
-0.0113172
-0.0109233
-0.0106077
-0.0104269
-0.00970574
-0.00974656
-0.00981418
-0.00994887
-0.0102068
-0.0105793
-0.0154356
-0.0103171
-0.00789462
-0.00736897
-0.00809966
-0.0087805
-0.00965897
-0.00956497
-0.009753
-0.00953064
-0.00941867
-0.009302
-0.00923979
-0.00923026
-0.00930038
-0.00942532
-0.00964288
-0.00995191
-0.0103974
-0.0108926
-0.00292695
-0.00706346
-0.00743604
-0.00789972
-0.00785357
-0.00866248
-0.00919496
-0.00964895
-0.00974331
-0.00986195
-0.00969492
-0.00958462
-0.00939626
-0.00930619
-0.00930109
-0.00943278
-0.00968105
-0.0100237
-0.0105029
-0.0109854
-0.00636498
-0.0105577
-0.00843274
-0.00735839
-0.00801892
-0.00936413
-0.00984938
-0.010678
-0.0107279
-0.0108982
-0.0106605
-0.0104988
-0.0102507
-0.0100632
-0.0100141
-0.010024
-0.0102703
-0.0104635
-0.0107672
-0.0109913
-0.0365085
-0.0128504
-0.00755236
-0.00810435
-0.00928887
-0.0109588
-0.0117207
-0.0127462
-0.0129001
-0.0129301
-0.0126952
-0.0122414
-0.0118697
-0.0113982
-0.0111135
-0.0108318
-0.0107741
-0.010726
-0.0108982
-0.0111615
-0.0182394
-0.00966701
-0.00749222
-0.00705534
-0.00813254
-0.0108909
-0.0128068
-0.0146736
-0.01591
-0.0163479
-0.0166651
-0.0161969
-0.0158673
-0.0151242
-0.0145551
-0.0139874
-0.0136836
-0.0133996
-0.0132979
-0.0134743
-0.00320929
-0.012957
-0.0131628
-0.00756932
-0.00532308
-0.006404
-0.00844301
-0.0115012
-0.0146156
-0.0176872
-0.0202246
-0.0222364
-0.0239511
-0.0254564
-0.0269471
-0.0280625
-0.0292164
-0.0304468
-0.0315505
-0.0319344
-0.00202747
-0.00591455
-0.00928863
-0.00672836
-0.00463191
-0.00403722
-0.00479031
-0.00552491
-0.00757195
-0.0110497
-0.0156224
-0.020884
-0.0257091
-0.0304369
-0.0349977
-0.0397622
-0.044732
-0.0500645
-0.0554599
-0.0603718
-0.00773642
-0.039211
-0.0196284
-0.00781891
-0.00818637
-0.0222159
-0.0144948
-0.00870728
-0.0165159
-0.0137237
-0.00854407
-0.0100802
-0.0139952
-0.0144355
-0.0298847
-0.0675656
-0.0649922
-0.0341699
-0.01888
-0.0607503
-0.0362028
-0.0175177
-0.0580336
-0.040416
-0.0173026
-0.0164349
-0.0313822
-0.025213
-0.110778
-0.0859691
-0.109587
-0.0830458
-0.101704
-0.0787616
-0.0980543
-0.123692
-0.113989
-0.115455
-0.108359
-0.100707
-0.102421
-0.0919583
-0.115183
-0.113869
-0.107939
-0.0920445
-0.0693801
-0.0832717
-0.0654074
-0.111253
-0.106117
-0.101868
-0.0687554
-0.0768427
-0.0634147
-0.0662736
-0.121183
-0.100932
-0.0995028
-0.0826198
-0.0924415
-0.0670183
-0.0634212
-0.135841
-0.0993003
-0.097659
-0.0965199
-0.102098
-0.0614423
-0.0568422
-0.142751
-0.0966508
-0.0920673
-0.105181
-0.105874
-0.056002
-0.0549625
-0.146456
-0.0904943
-0.086437
-0.10781
-0.106068
-0.055047
-0.0558747
-0.094241
-0.0588852
-0.0737753
-0.0603671
-0.080333
-0.0518059
-0.0628843
-0.116004
-0.0853826
-0.106207
-0.0884328
-0.0958827
-0.0703825
-0.0951884
-0.109679
-0.107404
-0.110375
-0.0910405
-0.0752875
-0.0952437
-0.0930504
-0.101983
-0.109719
-0.101751
-0.07162
-0.0669179
-0.0938574
-0.0834764
-0.0968486
-0.098833
-0.0910926
-0.0658247
-0.0586167
-0.0778678
-0.0631057
-0.0919658
-0.0887891
-0.0828256
-0.0559234
-0.050692
-0.0591364
-0.0531118
-0.0854592
-0.0812211
-0.0782398
-0.0502189
-0.0519677
-0.0532178
-0.0573722
-0.0806984
-0.0779505
-0.0787911
-0.0532628
-0.0582165
-0.0595325
-0.0677587
-0.0666994
-0.0549023
-0.0560182
-0.0476824
-0.0583415
-0.043728
-0.0451776
-0.0908857
-0.057684
-0.063599
-0.0650217
-0.086619
-0.0479085
-0.0595964
-0.10832
-0.0646537
-0.0897393
-0.0873615
-0.0877544
-0.0630164
-0.0686761
-0.103922
-0.0998874
-0.117156
-0.0924741
-0.0935749
-0.0742199
-0.110472
-0.0904031
-0.116198
-0.103385
-0.088373
-0.071995
-0.115783
-0.108206
-0.081746
-0.0987949
-0.0887564
-0.0676794
-0.0592998
-0.102956
-0.0863373
-0.0784934
-0.0867968
-0.0840361
-0.0579637
-0.0575838
-0.080784
-0.0678966
-0.0800852
-0.0838009
-0.0834852
-0.0584359
-0.063492
-0.0654899
-0.0642356
-0.0580356
-0.0652806
-0.0654186
-0.0480701
-0.0461738
-0.0595151
-0.0619231
-0.0607772
-0.0652879
-0.0679287
-0.0476473
-0.0563396
-0.062697
-0.0655461
-0.0956793
-0.0766437
-0.111794
-0.0597055
-0.0704029
-0.068183
-0.0895764
-0.121222
-0.11918
-0.127549
-0.078496
-0.116057
-0.103955
-0.129013
-0.109844
-0.127754
-0.124018
-0.121429
-0.116818
-0.131167
-0.129657
-0.0939814
-0.12197
-0.11254
-0.112468
-0.0972952
-0.127777
-0.120029
-0.086682
-0.109283
-0.0998048
-0.0919625
-0.0782738
-0.117625
-0.111887
-0.0846366
-0.0976769
-0.0941311
-0.0754256
-0.0729052
-0.111917
-0.116517
-0.0708067
-0.0547297
-0.0750876
-0.0416336
-0.0348796
-0.040075
-0.0373945
-0.0277167
-0.0713525
-0.0390555
-0.0281091
-0.0134507
-0.0326109
-0.0190198
-0.010958
-0.0307521
-0.0167907
-0.0110586
-0.00834888
-0.0159097
-0.0103884
-0.0101834
-0.0145058
-0.0126228
-0.00823916
-0.00856296
-0.00942861
-0.00836735
-0.0109202
-0.0121471
-0.0103312
-0.00880643
-0.00947172
-0.00833967
-0.00887838
-0.0116668
-0.010158
-0.0108088
-0.00979076
-0.0107652
-0.00928764
-0.0113164
-0.0126707
-0.0113269
-0.0138041
-0.0112263
-0.0127474
-0.0122589
-0.0158788
-0.0146258
-0.0149759
-0.0198082
-0.0134636
-0.0159953
-0.0173285
-0.0223723
-0.0674892
-0.0300237
-0.0536312
-0.0364346
-0.044136
-0.0325112
-0.0533701
-0.0559931
-0.064246
-0.0857122
-0.0425811
-0.0284864
-0.0586069
-0.0616376
-0.0269551
-0.0854274
-0.0801467
-0.0239478
-0.0141948
-0.0628981
-0.055517
-0.0150478
-0.0772147
-0.0527668
-0.012032
-0.00905504
-0.0474003
-0.0229809
-0.0106751
-0.0436335
-0.0239579
-0.00881962
-0.00926808
-0.0186642
-0.014272
-0.0112836
-0.0201166
-0.0170308
-0.0097594
-0.0122864
-0.014289
-0.0165262
-0.0156692
-0.0177754
-0.0231675
-0.0134681
-0.0178996
-0.01778
-0.0222838
-0.0243766
-0.025766
-0.0351581
-0.0196195
-0.0252251
-0.0238558
-0.0281392
-0.0470564
-0.0237486
-0.0334934
-0.0304566
-0.0502227
-0.0308115
-0.0444401
-0.0805359
-0.0377162
-0.0525906
-0.0558094
-0.0642547
-0.0478497
-0.0530286
-0.0817546
-0.0580639
-0.0662055
-0.0667746
-0.0683525
-0.0545057
-0.0623394
-0.0729252
-0.0710062
-0.103442
-0.064273
-0.0373354
-0.067528
-0.075223
-0.0384934
-0.107145
-0.0924688
-0.0298537
-0.0194384
-0.0699012
-0.0499147
-0.0237481
-0.0842102
-0.0600089
-0.0184845
-0.0191325
-0.0447719
-0.0358331
-0.0261316
-0.0540456
-0.0452006
-0.0200303
-0.023575
-0.0346851
-0.0343895
-0.0359905
-0.0447546
-0.0475544
-0.0248361
-0.0282759
-0.0348996
-0.0371866
-0.032456
-0.032764
-0.0398276
-0.0328642
-0.0444963
-0.0407802
-0.0475751
-0.0482905
-0.0442565
-0.0606869
-0.0472519
-0.0507446
-0.0492965
-0.0569403
-0.0675195
-0.0651944
-0.0842774
-0.052656
-0.0645676
-0.061447
-0.0755436
-0.109238
-0.0955646
-0.111782
-0.071236
-0.0794273
-0.0760209
-0.0673159
-0.104371
-0.112307
-0.109606
-0.0753598
-0.058303
-0.0646021
-0.058008
-0.0754346
-0.106886
-0.0985528
-0.0531202
-0.0426893
-0.0557688
-0.0525754
-0.0569406
-0.0962246
-0.0916151
-0.0409689
-0.0393001
-0.0523956
-0.0530671
-0.0561055
-0.091428
-0.0921977
-0.0394683
-0.0408878
-0.05372
-0.0555148
-0.0227949
-0.023688
-0.0249751
-0.0147863
-0.0095126
-0.0140965
-0.0106321
-0.00824162
-0.0216553
-0.0124992
-0.00805435
-0.00625908
-0.00958993
-0.00752393
-0.00650205
-0.0107258
-0.00786793
-0.00606493
-0.0060228
-0.00716735
-0.00681111
-0.00659415
-0.00740537
-0.00704867
-0.00614019
-0.00666389
-0.0068551
-0.00749657
-0.00721234
-0.00715553
-0.00812474
-0.00690657
-0.00786509
-0.00786392
-0.00936705
-0.00868534
-0.00867393
-0.0109868
-0.00827105
-0.009668
-0.00995133
-0.0117297
-0.0111544
-0.0119504
-0.0153305
-0.010195
-0.0119464
-0.0122778
-0.0137254
-0.0147777
-0.0165861
-0.0206649
-0.0125837
-0.0145786
-0.0141268
-0.0151127
-0.0329851
-0.0300131
-0.0472582
-0.0173232
-0.0153169
-0.026411
-0.0322354
-0.0203753
-0.0511212
-0.0561897
-0.013911
-0.0101241
-0.0338514
-0.0399851
-0.0108593
-0.0581825
-0.0491742
-0.00935157
-0.00800401
-0.0402713
-0.0279971
-0.010302
-0.00853089
-0.0141103
-0.00848159
-0.0116686
-0.00796511
-0.0119754
-0.0091864
-0.0078889
-0.00886294
-0.00794369
-0.00884236
-0.00829913
-0.00891837
-0.0119743
-0.0138259
-0.0156839
-0.0106721
-0.0124045
-0.0147886
-0.0156106
-0.0167653
-0.0166004
-0.0196051
-0.0129164
-0.0142099
-0.0158323
-0.0165506
-0.022168
-0.0205806
-0.0231307
-0.0145585
-0.0154276
-0.0168315
-0.017847
-0.0476252
-0.0371276
-0.0501926
-0.0345357
-0.043592
-0.0423916
-0.0569853
-0.0628186
-0.05336
-0.0558248
-0.0472029
-0.0579706
-0.0612261
-0.0651677
-0.0643545
-0.0558235
-0.0629252
-0.0587639
-0.0435735
-0.0643038
-0.064541
-0.0552373
-0.0474988
-0.06729
-0.0498388
-0.0625255
-0.0414973
-0.0629799
-0.0265268
-0.0205927
-0.036804
-0.0224953
-0.0308355
-0.0202961
-0.0306334
-0.0179063
-0.0367156
-0.0310075
-0.0165706
-0.0169703
-0.0243591
-0.022691
-0.0210415
-0.0303958
-0.0304161
-0.0171051
-0.0176544
-0.0222932
-0.0215759
-0.0239167
-0.0307541
-0.0322373
-0.0179038
-0.0188595
-0.0214939
-0.0216066
-0.0508533
-0.0420164
-0.051374
-0.0414279
-0.0557164
-0.0417563
-0.0584179
-0.0544902
-0.0533893
-0.0590939
-0.0609601
-0.0657087
-0.0631694
-0.0660801
-0.0657203
-0.0630934
-0.072138
-0.065406
-0.0662596
-0.0655043
-0.050223
-0.0683106
-0.069051
-0.0557453
-0.0611841
-0.0376655
-0.0426464
-0.0317703
-0.0466062
-0.0526659
-0.0465776
-0.0333299
-0.0273574
-0.0303538
-0.0282265
-0.0359955
-0.044975
-0.0430638
-0.0264159
-0.0244658
-0.0277078
-0.0265047
-0.0341567