/*--------------------------------*- C++ -*----------------------------------*\
  =========                 |
  \\      /  F ield         | OpenFOAM: The Open Source CFD Toolbox
   \\    /   O peration     | Website:  https://openfoam.org
    \\  /    A nd           | Version:  10
     \\/     M anipulation  |
\*---------------------------------------------------------------------------*/
FoamFile
{
    format      ascii;
    class       volScalarField;
    location    "8.3";
    object      turbidity_0;
}
// * * * * * * * * * * * * * * * * * * * * * * * * * * * * * * * * * * * * * //

dimensions      [0 0 0 0 0 0 0];

internalField   nonuniform List<scalar> 
12920
(
-0.0172402
-0.0562141
-0.0641614
-0.0688047
-0.0701189
-0.0708796
-0.0751016
-0.0865578
-0.113691
-0.153426
-0.197182
-0.227016
-0.241458
-0.243079
-0.237876
-0.232204
-0.235798
-0.253037
-0.287821
-0.331689
-0.0244801
-0.0880855
-0.0895077
-0.11077
-0.112835
-0.112422
-0.117507
-0.134915
-0.165422
-0.201969
-0.231571
-0.246617
-0.25639
-0.266285
-0.281249
-0.302386
-0.327344
-0.35435
-0.386762
-0.427669
-0.0289075
-0.0611603
-0.0818617
-0.118116
-0.148214
-0.164192
-0.17278
-0.185024
-0.205342
-0.229678
-0.253804
-0.274764
-0.295131
-0.31542
-0.337267
-0.360025
-0.385079
-0.412865
-0.443611
-0.476779
-0.0195152
-0.0320994
-0.0588077
-0.0986364
-0.143804
-0.182775
-0.208433
-0.225233
-0.239495
-0.253011
-0.267662
-0.282388
-0.300312
-0.320452
-0.344568
-0.37043
-0.397425
-0.425137
-0.452603
-0.477038
-0.0261249
-0.0374701
-0.0623719
-0.100165
-0.140463
-0.176384
-0.202809
-0.222396
-0.239372
-0.254265
-0.271692
-0.289109
-0.309316
-0.329383
-0.351522
-0.374002
-0.397041
-0.419548
-0.440413
-0.457191
-0.0499755
-0.0572928
-0.0836813
-0.121704
-0.149884
-0.180734
-0.202574
-0.22815
-0.249875
-0.271891
-0.292458
-0.30973
-0.328446
-0.347389
-0.36742
-0.38724
-0.406629
-0.424795
-0.442525
-0.458891
-0.0247323
-0.0622071
-0.0848259
-0.103813
-0.122084
-0.149819
-0.172695
-0.197162
-0.212051
-0.238612
-0.266857
-0.297962
-0.326661
-0.352314
-0.375269
-0.394955
-0.411949
-0.427811
-0.443257
-0.457625
-0.0557348
-0.0637689
-0.0748937
-0.0844398
-0.0973457
-0.125192
-0.131539
-0.145166
-0.14991
-0.152803
-0.174949
-0.197631
-0.225281
-0.246777
-0.244348
-0.27602
-0.303849
-0.329096
-0.349416
-0.366109
-0.0269229
-0.0370373
-0.046452
-0.0546387
-0.0706981
-0.074702
-0.0901773
-0.117897
-0.122936
-0.113622
-0.113357
-0.126706
-0.139907
-0.1456
-0.141784
-0.159253
-0.205355
-0.247396
-0.285213
-0.318323
-0.00933531
-0.0284284
-0.0399305
-0.0466765
-0.0576997
-0.0577878
-0.0676434
-0.104202
-0.115313
-0.107536
-0.100454
-0.0957523
-0.0904253
-0.0838948
-0.0916838
-0.145264
-0.192399
-0.232999
-0.268041
-0.30097
-0.0253227
-0.0338622
-0.0384113
-0.0467882
-0.0567097
-0.0555188
-0.0563903
-0.0756347
-0.0953623
-0.110443
-0.100048
-0.0877302
-0.0803596
-0.0786304
-0.093133
-0.136727
-0.182213
-0.226782
-0.269205
-0.307847
-0.0187641
-0.0350397
-0.0453875
-0.055042
-0.0662282
-0.0622093
-0.0596657
-0.0583797
-0.0623454
-0.106282
-0.120801
-0.105269
-0.09128
-0.0860137
-0.0948546
-0.167576
-0.232166
-0.299173
-0.36152
-0.412078
-0.0360028
-0.0616923
-0.0654665
-0.0875487
-0.101931
-0.122148
-0.116137
-0.10362
-0.109483
-0.135343
-0.149676
-0.150065
-0.143995
-0.142586
-0.256317
-0.331767
-0.401682
-0.465167
-0.521269
-0.56786
-0.0436698
-0.0570826
-0.0680219
-0.10363
-0.126905
-0.158639
-0.170997
-0.193084
-0.197619
-0.222017
-0.241806
-0.280471
-0.320655
-0.365037
-0.407165
-0.443974
-0.482544
-0.526212
-0.575729
-0.629272
-0.0232218
-0.0368733
-0.061047
-0.103189
-0.143931
-0.179943
-0.196073
-0.214029
-0.219864
-0.221938
-0.227349
-0.234425
-0.253653
-0.28003
-0.312797
-0.346726
-0.390254
-0.443458
-0.50478
-0.578753
-0.0493069
-0.0687981
-0.0768315
-0.109875
-0.146761
-0.174721
-0.196918
-0.212815
-0.223423
-0.227424
-0.233792
-0.238609
-0.249381
-0.264213
-0.284621
-0.308507
-0.338143
-0.374442
-0.422616
-0.489899
-0.0636995
-0.0494473
-0.064892
-0.0876834
-0.121017
-0.165635
-0.200494
-0.221463
-0.23358
-0.242844
-0.251552
-0.262183
-0.275103
-0.291293
-0.310888
-0.334905
-0.364987
-0.404038
-0.455852
-0.523772
-0.0746702
-0.0713138
-0.0742137
-0.106285
-0.143589
-0.178988
-0.207504
-0.23557
-0.257484
-0.276237
-0.292448
-0.309316
-0.326637
-0.345847
-0.36754
-0.393355
-0.424301
-0.462252
-0.507974
-0.558222
-0.0366812
-0.0542237
-0.0609239
-0.0918169
-0.107762
-0.120504
-0.137768
-0.159961
-0.190366
-0.21859
-0.24911
-0.275713
-0.300858
-0.321123
-0.342042
-0.369493
-0.4087
-0.456737
-0.508843
-0.556687
-0.0556936
-0.0776689
-0.0781992
-0.107149
-0.123682
-0.137332
-0.151206
-0.166375
-0.182739
-0.200266
-0.217671
-0.233273
-0.243594
-0.247445
-0.251426
-0.260464
-0.283411
-0.320889
-0.363338
-0.39862
-0.0177991
-0.0160661
-0.018128
-0.0212705
-0.020815
-0.0196816
-0.0185125
-0.0192868
-0.0232623
-0.0274891
-0.0291486
-0.0271618
-0.0238688
-0.0208509
-0.0195459
-0.0208496
-0.0261053
-0.0358826
-0.0524072
-0.0664686
-0.0161273
-0.0212776
-0.0190953
-0.0405976
-0.0505077
-0.0563013
-0.0655331
-0.0727421
-0.075662
-0.0620526
-0.0420373
-0.0288751
-0.0264777
-0.0302883
-0.0400427
-0.0570789
-0.0843589
-0.114147
-0.138483
-0.146761
-0.0171535
-0.0146199
-0.0155649
-0.0272687
-0.0421302
-0.0570327
-0.0705436
-0.072323
-0.0663328
-0.0501025
-0.0376494
-0.0323199
-0.0364443
-0.047007
-0.0637637
-0.0846951
-0.106698
-0.120698
-0.123696
-0.115521
-0.0132354
-0.0139617
-0.0160899
-0.0199342
-0.0229203
-0.0269393
-0.035177
-0.0349957
-0.0337635
-0.0277123
-0.0249838
-0.0248226
-0.0292332
-0.037273
-0.0487568
-0.0622603
-0.0764682
-0.0850201
-0.0844261
-0.0745263
-0.00607229
-0.00963492
-0.0158789
-0.0277239
-0.0402363
-0.0360004
-0.0342588
-0.0278688
-0.0271296
-0.0247479
-0.0246414
-0.0242861
-0.0252266
-0.0276631
-0.0317327
-0.0366032
-0.041442
-0.0437571
-0.0431218
-0.0414555
-0.00519504
-0.0333608
-0.0501586
-0.0480693
-0.0514353
-0.0447115
-0.0399321
-0.0350621
-0.0306669
-0.0252051
-0.0221486
-0.0206166
-0.020493
-0.021487
-0.0231566
-0.0251107
-0.0271337
-0.0297453
-0.0357716
-0.0466475
-0.0212945
-0.0219506
-0.024222
-0.0241888
-0.0334737
-0.0340416
-0.0316857
-0.0213843
-0.0153034
-0.0143042
-0.0142092
-0.0148891
-0.0157421
-0.0170775
-0.0202047
-0.0230465
-0.027512
-0.0370765
-0.0580417
-0.0797923
-0.0124772
-0.0140843
-0.0218435
-0.0291028
-0.0439454
-0.0475532
-0.0569207
-0.041932
-0.0157863
-0.0114876
-0.0119537
-0.0127533
-0.0136983
-0.0148028
-0.0188104
-0.0243462
-0.0331214
-0.0471743
-0.0638661
-0.0690433
-0.00517809
-0.00732869
-0.00851863
-0.0108575
-0.0211454
-0.0333481
-0.0555744
-0.0640829
-0.0195223
-0.0102621
-0.0103749
-0.0111451
-0.0119216
-0.0131075
-0.0176192
-0.0350834
-0.045848
-0.0551468
-0.0594663
-0.0579791
-0.00848299
-0.00516824
-0.00465024
-0.00599113
-0.0124243
-0.0202405
-0.0412412
-0.0717319
-0.0468918
-0.0221163
-0.0136551
-0.0103937
-0.0120549
-0.0174184
-0.0334948
-0.0434642
-0.0465765
-0.0489196
-0.0514685
-0.0555674
-0.00885588
-0.0039841
-0.00390462
-0.00580544
-0.0116635
-0.0160189
-0.0263038
-0.0573227
-0.0821427
-0.083827
-0.0631964
-0.0324986
-0.0231418
-0.0282913
-0.0399671
-0.0471496
-0.0507653
-0.0538435
-0.0560521
-0.058928
-0.0125103
-0.00623317
-0.00506608
-0.00826814
-0.0148308
-0.0191085
-0.025532
-0.0354574
-0.0549187
-0.0751982
-0.113736
-0.097636
-0.0688477
-0.055545
-0.0606369
-0.0669812
-0.071274
-0.0731093
-0.0711511
-0.0677374
-0.0224201
-0.0213853
-0.0124043
-0.0245161
-0.0341805
-0.0555702
-0.0684431
-0.084078
-0.0850222
-0.0899728
-0.085301
-0.0836292
-0.0864273
-0.0912887
-0.0755533
-0.0765955
-0.0771353
-0.0772814
-0.0775987
-0.0770547
-0.0471431
-0.0235123
-0.0116778
-0.022304
-0.0386803
-0.0576707
-0.0719493
-0.062695
-0.0469359
-0.0385556
-0.0396806
-0.0428401
-0.0478781
-0.0528623
-0.0593959
-0.0681886
-0.0798931
-0.0923845
-0.104206
-0.104596
-0.010481
-0.0112103
-0.0133777
-0.0250662
-0.0459424
-0.056243
-0.0624961
-0.0488083
-0.0362565
-0.0302689
-0.0318152
-0.0373366
-0.0468302
-0.0562069
-0.0641523
-0.0730642
-0.0889427
-0.110969
-0.13498
-0.1372
-0.0192918
-0.0282059
-0.0224805
-0.0330513
-0.0521407
-0.0596947
-0.0637822
-0.051795
-0.041612
-0.0343169
-0.0329314
-0.0352922
-0.0409024
-0.0492481
-0.0607173
-0.075842
-0.0989471
-0.12763
-0.157383
-0.168793
-0.0593848
-0.0165774
-0.0245642
-0.0489771
-0.0772162
-0.0763964
-0.0732826
-0.0604604
-0.0542847
-0.0519487
-0.0570847
-0.0652752
-0.0772418
-0.0905718
-0.105653
-0.122221
-0.140679
-0.156299
-0.165686
-0.153923
-0.0230604
-0.0360291
-0.0320159
-0.0533655
-0.0538841
-0.0458123
-0.053169
-0.0584102
-0.0684996
-0.0760739
-0.0889608
-0.102231
-0.119956
-0.136946
-0.151177
-0.159402
-0.159471
-0.14824
-0.128085
-0.0961859
-0.00410393
-0.00985456
-0.0163565
-0.0209614
-0.0179137
-0.0136812
-0.0127203
-0.0156846
-0.0209579
-0.0262577
-0.0329771
-0.041797
-0.0581357
-0.0836357
-0.117554
-0.151061
-0.181261
-0.193526
-0.183064
-0.145479
-0.0272739
-0.0213346
-0.0152506
-0.0232599
-0.0278898
-0.0290181
-0.0299147
-0.0300589
-0.0356868
-0.0409387
-0.044361
-0.0402472
-0.0339336
-0.0311375
-0.0358238
-0.0499599
-0.0722949
-0.0995498
-0.124545
-0.14067
-0.0186212
-0.0181455
-0.0167391
-0.0182541
-0.0185206
-0.0178485
-0.0159564
-0.0139387
-0.0122523
-0.0109753
-0.010188
-0.00953657
-0.00925529
-0.00950437
-0.0105682
-0.0125694
-0.015705
-0.0193112
-0.023641
-0.0272429
-0.00928621
-0.0166164
-0.0125246
-0.0220472
-0.0292959
-0.034177
-0.0395321
-0.0366171
-0.0305277
-0.0203095
-0.0142021
-0.0126766
-0.0141678
-0.0175275
-0.022872
-0.0298246
-0.0386661
-0.047241
-0.0541317
-0.0562642
-0.00980856
-0.0142394
-0.0122754
-0.0136749
-0.0184112
-0.0247474
-0.0301389
-0.0270878
-0.0223041
-0.0171355
-0.0160767
-0.0178593
-0.021883
-0.0269454
-0.0328795
-0.0384836
-0.0432631
-0.0451068
-0.0444898
-0.042582
-0.00584529
-0.0129384
-0.0135999
-0.0122938
-0.0115089
-0.0119994
-0.0133721
-0.0133854
-0.0132234
-0.0129018
-0.0137193
-0.0154839
-0.0181531
-0.0212183
-0.0242745
-0.0267677
-0.0285836
-0.0289963
-0.0281159
-0.0269678
-0.00432259
-0.0100836
-0.0154307
-0.0180179
-0.0175961
-0.0139867
-0.0134683
-0.0129781
-0.0130588
-0.0127201
-0.0126036
-0.0127666
-0.0134204
-0.0144801
-0.0155779
-0.0164647
-0.0170133
-0.0172186
-0.0174204
-0.0182009
-0.0139973
-0.024831
-0.0240703
-0.0179426
-0.0176134
-0.0143829
-0.0127424
-0.0118259
-0.011102
-0.0104414
-0.00991122
-0.0097645
-0.00992518
-0.0104719
-0.0111879
-0.0120856
-0.0132245
-0.0148364
-0.0173202
-0.0204366
-0.0020721
-0.0112816
-0.0149833
-0.0144489
-0.0152685
-0.0126787
-0.0104027
-0.00886785
-0.00799442
-0.00790806
-0.00778321
-0.00804032
-0.00870234
-0.00996945
-0.0120398
-0.0148462
-0.0186356
-0.0235758
-0.0296599
-0.0340436
-0.0063191
-0.0154621
-0.0202462
-0.0194872
-0.0234635
-0.0185343
-0.018595
-0.0100769
-0.0072831
-0.00695739
-0.00705146
-0.00740649
-0.00826748
-0.00989065
-0.0155497
-0.0191263
-0.0225469
-0.0254017
-0.0269945
-0.0259775
-0.00200091
-0.00422887
-0.00652654
-0.00861639
-0.0139984
-0.0176796
-0.0247927
-0.0175827
-0.00721326
-0.00648646
-0.0066917
-0.00751056
-0.00922419
-0.0119799
-0.0182942
-0.0225957
-0.0240263
-0.024264
-0.0232435
-0.0216923
-0.00451619
-0.00490401
-0.00394477
-0.00538674
-0.0120583
-0.0166463
-0.0252656
-0.0314802
-0.0172405
-0.00943124
-0.00771425
-0.00934422
-0.0130799
-0.0181165
-0.0231617
-0.0231456
-0.0248967
-0.0269095
-0.0288645
-0.0303944
-0.00363671
-0.00272021
-0.003202
-0.00571006
-0.0141563
-0.0207034
-0.033048
-0.0522535
-0.0660439
-0.0557784
-0.0240509
-0.0170528
-0.0186234
-0.0218495
-0.0250256
-0.026851
-0.0279573
-0.0293446
-0.0313
-0.0339681
-0.000768015
-0.00339985
-0.0044113
-0.00829116
-0.0185032
-0.027258
-0.0393475
-0.0538372
-0.0550672
-0.0715642
-0.0622132
-0.0427085
-0.0350327
-0.0342714
-0.0342409
-0.0298907
-0.0297905
-0.0292707
-0.028832
-0.0292501
-0.00330734
-0.00963474
-0.00826521
-0.01725
-0.0293924
-0.0394371
-0.0501969
-0.0677693
-0.0634675
-0.0479632
-0.0387639
-0.0375902
-0.0384038
-0.038492
-0.0296105
-0.0289143
-0.0283259
-0.0277886
-0.0274758
-0.0274198
-0.00707748
-0.00817373
-0.00906735
-0.0150324
-0.0258209
-0.0297667
-0.0338684
-0.0237335
-0.0224101
-0.0210975
-0.0224264
-0.0237809
-0.0252601
-0.026867
-0.0286033
-0.0305515
-0.0324318
-0.0335056
-0.0337415
-0.0321896
-0.0143721
-0.0134456
-0.0146182
-0.0214359
-0.0268834
-0.0254959
-0.0251237
-0.0182117
-0.0173714
-0.018131
-0.0209441
-0.024349
-0.0280754
-0.0311797
-0.0338715
-0.036968
-0.0410744
-0.0444595
-0.0458289
-0.0408563
-0.00775025
-0.0191431
-0.0170238
-0.0194457
-0.0232222
-0.0257306
-0.0242061
-0.019367
-0.0177819
-0.0188813
-0.0216587
-0.0256815
-0.0299983
-0.0345784
-0.0394676
-0.0448438
-0.0520234
-0.0588151
-0.0628834
-0.0566163
-0.0152538
-0.0123048
-0.0166178
-0.0269982
-0.0357742
-0.03109
-0.0275251
-0.0239819
-0.0245689
-0.0281121
-0.0334549
-0.0393749
-0.0452909
-0.0504503
-0.0550752
-0.0587647
-0.0621175
-0.0614082
-0.0563048
-0.0443946
-0.00725904
-0.0136743
-0.0158316
-0.0221793
-0.0161247
-0.0173164
-0.02195
-0.0258225
-0.0321321
-0.0383598
-0.0477
-0.0566964
-0.0663638
-0.0721667
-0.0733959
-0.0688892
-0.0610168
-0.0501827
-0.0401213
-0.0320625
-0.00182917
-0.00760763
-0.0116526
-0.0135611
-0.0117846
-0.0089135
-0.00843226
-0.0101322
-0.0129827
-0.0162427
-0.0211534
-0.0282256
-0.0387167
-0.0505117
-0.0630865
-0.0722901
-0.0785038
-0.0750509
-0.0651835
-0.0557219
-0.0208366
-0.0111369
-0.0089048
-0.00825073
-0.00854935
-0.00926741
-0.011344
-0.0138091
-0.0174083
-0.0190425
-0.0185935
-0.0165718
-0.0164839
-0.0199416
-0.0266602
-0.0354245
-0.0456999
-0.056282
-0.0659021
-0.076688
-0.0071221
-0.0206282
-0.0200951
-0.0163755
-0.0136369
-0.0115921
-0.00988219
-0.00822277
-0.00693437
-0.00617673
-0.00599246
-0.00635401
-0.00713235
-0.00834999
-0.0098193
-0.0114027
-0.0130315
-0.0145193
-0.0161021
-0.0176473
-0.00426139
-0.00811809
-0.00801712
-0.0117883
-0.0133529
-0.014822
-0.0160035
-0.0130446
-0.0105378
-0.00838811
-0.00826527
-0.00933986
-0.0111286
-0.0132833
-0.0157205
-0.018152
-0.020822
-0.0231595
-0.0251537
-0.0262425
-0.0139687
-0.00776812
-0.00677146
-0.00804917
-0.00985643
-0.0115584
-0.0125121
-0.0108472
-0.0100485
-0.00983634
-0.0108606
-0.0123342
-0.0141988
-0.0160201
-0.0179239
-0.0195121
-0.0208642
-0.021543
-0.0218361
-0.0218627
-0.0060903
-0.00892152
-0.00785833
-0.00719964
-0.00794323
-0.00878465
-0.00897623
-0.00873595
-0.00870842
-0.00893402
-0.00960606
-0.0105354
-0.011627
-0.0126993
-0.013701
-0.0145313
-0.0152463
-0.0157653
-0.016211
-0.016739
-0.00442906
-0.00898289
-0.00905289
-0.00890985
-0.00908028
-0.0091606
-0.00920701
-0.0088169
-0.0082442
-0.007816
-0.00774729
-0.00812662
-0.00871548
-0.00943727
-0.0100979
-0.0107316
-0.0113674
-0.0120894
-0.0129985
-0.0141349
-0.0115696
-0.0115559
-0.00942845
-0.00840364
-0.00798931
-0.00785439
-0.00708078
-0.00676561
-0.00620805
-0.00605662
-0.00611349
-0.0065533
-0.0071127
-0.00778384
-0.00847389
-0.0092547
-0.0101984
-0.0113897
-0.0128928
-0.0145735
-0.0062537
-0.0107475
-0.0099204
-0.00810384
-0.0073764
-0.00669302
-0.00600013
-0.00569137
-0.00532389
-0.00537969
-0.0057435
-0.00638613
-0.00728839
-0.00834662
-0.00963795
-0.0110316
-0.0126469
-0.0144767
-0.0164202
-0.017852
-0.0120195
-0.0141053
-0.0125039
-0.00925937
-0.00990278
-0.00745004
-0.00700639
-0.00547091
-0.00508219
-0.0052422
-0.00569636
-0.00651633
-0.00746057
-0.00865567
-0.0102074
-0.0111196
-0.0121097
-0.013231
-0.0143506
-0.0154108
-0.00651014
-0.00547136
-0.00538987
-0.00566588
-0.00750534
-0.00790368
-0.0085359
-0.00610478
-0.00501684
-0.0054122
-0.00635718
-0.00755681
-0.00876249
-0.00991272
-0.0109304
-0.0112082
-0.0118132
-0.012347
-0.0128682
-0.0136035
-0.00159035
-0.00214213
-0.00305971
-0.00488813
-0.0102033
-0.0101782
-0.0106035
-0.0100907
-0.00777196
-0.00724583
-0.00801456
-0.00950359
-0.0108865
-0.0120415
-0.0135824
-0.0162215
-0.017062
-0.0176122
-0.0177346
-0.0175645
-0.00164673
-0.00180415
-0.00287185
-0.00618555
-0.016837
-0.0239717
-0.0324842
-0.0427485
-0.0504306
-0.0272896
-0.015886
-0.0149505
-0.0153113
-0.0165045
-0.0182967
-0.0191625
-0.0205071
-0.0218872
-0.0230818
-0.0238553
-0.00206307
-0.00277253
-0.00440897
-0.00948581
-0.0209687
-0.0281342
-0.0357289
-0.0580213
-0.0668829
-0.0512835
-0.0276008
-0.0226989
-0.0201613
-0.019
-0.0176988
-0.0168835
-0.0176741
-0.018494
-0.0194409
-0.0204133
-0.0025008
-0.00636043
-0.00759746
-0.0143791
-0.0213775
-0.0203655
-0.0270903
-0.0411508
-0.0329965
-0.0240233
-0.0204085
-0.0188372
-0.017807
-0.0170997
-0.0151625
-0.0152104
-0.01534
-0.0155524
-0.0159026
-0.0163255
-0.0052561
-0.00732274
-0.00775349
-0.0103034
-0.0140482
-0.0136005
-0.0151768
-0.012977
-0.0141404
-0.0138496
-0.0140003
-0.0142945
-0.0144533
-0.0147421
-0.0149814
-0.0152609
-0.0155112
-0.0156562
-0.0158527
-0.0159771
-0.0069859
-0.0112248
-0.0122706
-0.0139107
-0.013117
-0.0120544
-0.0122372
-0.0118487
-0.0129167
-0.0140932
-0.0150598
-0.0160707
-0.0166028
-0.016912
-0.0170141
-0.0172529
-0.0175577
-0.0175456
-0.0172699
-0.0162815
-0.00913717
-0.0216621
-0.020017
-0.0127106
-0.0110148
-0.0123433
-0.012206
-0.0131104
-0.0143082
-0.0164072
-0.0178435
-0.0191787
-0.0199549
-0.0204408
-0.02095
-0.0213133
-0.0222322
-0.022279
-0.0214772
-0.0185068
-0.00931479
-0.0142045
-0.0127614
-0.0125482
-0.0139225
-0.014721
-0.0151382
-0.0170891
-0.0193846
-0.0220911
-0.0241294
-0.0252993
-0.0259099
-0.0256711
-0.0253137
-0.0244167
-0.0236169
-0.021545
-0.0190862
-0.0162244
-0.00419318
-0.0106893
-0.00987578
-0.0104997
-0.00916279
-0.0119647
-0.0152056
-0.0188855
-0.023405
-0.0272079
-0.0315536
-0.0338287
-0.0353314
-0.0340712
-0.031752
-0.0285137
-0.0260084
-0.0238942
-0.0227826
-0.0223134
-0.00326836
-0.00950877
-0.0120702
-0.011453
-0.00906781
-0.00754893
-0.00794648
-0.009486
-0.0116462
-0.0145742
-0.0187133
-0.0231511
-0.0280303
-0.0317859
-0.0355881
-0.0377986
-0.0400209
-0.0408953
-0.0424525
-0.0459261
-0.0106061
-0.00688727
-0.0101128
-0.010988
-0.00929153
-0.0083806
-0.00913848
-0.00989241
-0.0104829
-0.00990796
-0.00993727
-0.0114587
-0.0151384
-0.0203172
-0.0262342
-0.0324996
-0.0392194
-0.0464225
-0.0546806
-0.0652531
-0.00701811
-0.0178951
-0.0152857
-0.0125723
-0.0102599
-0.00794654
-0.00610986
-0.00518228
-0.00503976
-0.00558659
-0.00667898
-0.00802447
-0.00941616
-0.0107109
-0.0119794
-0.0132671
-0.0146283
-0.0161183
-0.0177048
-0.0194497
-0.00293147
-0.00866494
-0.00805148
-0.00759096
-0.00692474
-0.00652522
-0.00651662
-0.00664158
-0.00720769
-0.00805716
-0.00905616
-0.00996382
-0.0107272
-0.0113347
-0.0119192
-0.012472
-0.013116
-0.0137101
-0.0143765
-0.0150195
-0.00655044
-0.0041561
-0.00475873
-0.00648583
-0.00700746
-0.0072212
-0.00737881
-0.00758656
-0.00827997
-0.00908675
-0.0099888
-0.0107277
-0.011374
-0.0118
-0.012151
-0.0123351
-0.0124658
-0.0125116
-0.0126122
-0.0127977
-0.00688717
-0.00835921
-0.00583193
-0.00597348
-0.00682033
-0.00695059
-0.00686864
-0.00721782
-0.00781418
-0.00858205
-0.0093253
-0.00998469
-0.0105022
-0.0108905
-0.0111813
-0.011392
-0.0115715
-0.0117455
-0.0119706
-0.0122526
-0.00752171
-0.00858254
-0.00745122
-0.00712267
-0.00685092
-0.00642888
-0.00604265
-0.00621003
-0.00669827
-0.00749128
-0.00823447
-0.00898056
-0.0095883
-0.0101314
-0.0105823
-0.0109727
-0.0113167
-0.0116393
-0.0119765
-0.0123117
-0.0103608
-0.00645536
-0.0064179
-0.00622379
-0.00525437
-0.00504462
-0.00483735
-0.00532258
-0.00596509
-0.00680356
-0.00758773
-0.00839213
-0.00912614
-0.00983844
-0.0105137
-0.0111582
-0.0117748
-0.012356
-0.0129151
-0.0134101
-0.0144746
-0.00749507
-0.00662412
-0.00592421
-0.00494336
-0.0044584
-0.00450365
-0.00504003
-0.00580766
-0.00660251
-0.00742641
-0.00824629
-0.00907029
-0.00989257
-0.0107182
-0.0115298
-0.0123286
-0.0130944
-0.0138083
-0.0143979
-0.00599261
-0.00814765
-0.00633823
-0.00535272
-0.00488847
-0.00437518
-0.00434931
-0.00493712
-0.00550222
-0.00629231
-0.00696505
-0.00768219
-0.00838682
-0.0091042
-0.0104071
-0.0111065
-0.0117714
-0.0123826
-0.012939
-0.0134136
-0.00452744
-0.00404135
-0.00413883
-0.00446747
-0.00500352
-0.0047632
-0.00445833
-0.00475804
-0.00547305
-0.00616778
-0.0067362
-0.00726646
-0.0078098
-0.00836096
-0.00935159
-0.0105941
-0.0110719
-0.0114817
-0.0118432
-0.0121575
-0.00124876
-0.00153362
-0.00260791
-0.00478306
-0.0073539
-0.00629149
-0.00578744
-0.00624488
-0.00721445
-0.00791134
-0.00846495
-0.00914439
-0.00973317
-0.0101284
-0.0108241
-0.0115729
-0.0115547
-0.0115185
-0.0114836
-0.0115279
-0.000145462
-0.00085168
-0.00245072
-0.00679155
-0.0122382
-0.0145072
-0.0155815
-0.0156841
-0.015886
-0.0133348
-0.0121559
-0.012421
-0.0130957
-0.0138732
-0.0142332
-0.013166
-0.0130023
-0.0126963
-0.0123737
-0.0122672
-0.00266902
-0.00235868
-0.00429819
-0.0087697
-0.012682
-0.0134668
-0.0148497
-0.0214162
-0.0270555
-0.0179201
-0.0142814
-0.0131601
-0.0129234
-0.0130068
-0.0124978
-0.0114773
-0.0114831
-0.0113212
-0.0111795
-0.0112585
-0.0020995
-0.00540051
-0.00691383
-0.00944757
-0.0104411
-0.0103042
-0.0114758
-0.0147012
-0.0138278
-0.0124633
-0.0113131
-0.0109213
-0.0106066
-0.0104265
-0.00970516
-0.00974623
-0.00981376
-0.00994819
-0.0102056
-0.010577
-0.0148359
-0.0103423
-0.00790159
-0.00735919
-0.0080956
-0.00876979
-0.00965438
-0.00956231
-0.00974963
-0.00953031
-0.00941823
-0.00930206
-0.00923959
-0.00922997
-0.00929992
-0.00942473
-0.00964207
-0.00995077
-0.0103956
-0.0108907
-0.00335192
-0.00718342
-0.00743531
-0.00787568
-0.00783891
-0.00865597
-0.00919228
-0.0096476
-0.00974299
-0.00986231
-0.00969555
-0.00958491
-0.00939657
-0.00930598
-0.00930067
-0.00943198
-0.00968004
-0.0100222
-0.0105002
-0.010983
-0.00602683
-0.0105723
-0.00841388
-0.00734863
-0.00801313
-0.00935889
-0.00984778
-0.0106762
-0.010729
-0.0108982
-0.0106616
-0.0104986
-0.0102512
-0.0100628
-0.0100139
-0.0100232
-0.0102685
-0.0104605
-0.0107624
-0.0109866
-0.0371546
-0.0124179
-0.00754612
-0.00809872
-0.00928437
-0.0109525
-0.0117197
-0.0127437
-0.0129011
-0.0129297
-0.0126957
-0.0122411
-0.0118695
-0.0113973
-0.0111123
-0.01083
-0.0107714
-0.0107228
-0.0108944
-0.0111585
-0.01742
-0.00967624
-0.00749505
-0.00704277
-0.00812367
-0.0108818
-0.0128034
-0.0146684
-0.0159108
-0.0163458
-0.0166645
-0.0161952
-0.0158648
-0.0151216
-0.0145525
-0.0139854
-0.0136812
-0.0133981
-0.0132958
-0.0134678
-0.00339122
-0.0131108
-0.0131708
-0.00755621
-0.00531877
-0.00639627
-0.00844109
-0.0114964
-0.0146158
-0.0176857
-0.0202234
-0.0222339
-0.023949
-0.0254543
-0.0269453
-0.0280615
-0.029214
-0.030446
-0.0315488
-0.0319113
-0.00179811
-0.00591501
-0.00932252
-0.00672585
-0.00462483
-0.00403403
-0.00478735
-0.00552652
-0.00757435
-0.0110578
-0.0156343
-0.0208956
-0.0257229
-0.0304504
-0.0350126
-0.0397813
-0.04476
-0.0500958
-0.0554924
-0.0603984
-0.00772861
-0.0388345
-0.0194503
-0.00780944
-0.00818535
-0.0220181
-0.0144593
-0.00871451
-0.0164136
-0.0137192
-0.00854532
-0.0100852
-0.0139793
-0.0144387
-0.0296047
-0.0678563
-0.0646969
-0.0338517
-0.0188009
-0.0604109
-0.0359377
-0.0174939
-0.0577492
-0.0403236
-0.017266
-0.016437
-0.0312363
-0.0251973
-0.111206
-0.0863093
-0.109836
-0.0833894
-0.102077
-0.0790376
-0.0983205
-0.123725
-0.114142
-0.115453
-0.108622
-0.100482
-0.102555
-0.0917582
-0.115144
-0.113845
-0.107903
-0.0917512
-0.069383
-0.0830815
-0.0653427
-0.111309
-0.106085
-0.101857
-0.0687986
-0.0770171
-0.0634008
-0.0663194
-0.121343
-0.100931
-0.0995242
-0.0827302
-0.0926071
-0.0670365
-0.0633817
-0.135936
-0.0993149
-0.097649
-0.0965543
-0.102185
-0.0614103
-0.0568259
-0.142779
-0.0966194
-0.092022
-0.105098
-0.105909
-0.0559818
-0.0549585
-0.146449
-0.0904379
-0.0864045
-0.107664
-0.106097
-0.0550391
-0.0558901
-0.0945445
-0.0589459
-0.0742216
-0.0604306
-0.08047
-0.051931
-0.0631469
-0.116069
-0.0858576
-0.106188
-0.0886157
-0.095854
-0.0707493
-0.0952637
-0.109647
-0.107416
-0.11045
-0.0909662
-0.0751717
-0.0951834
-0.093147
-0.101953
-0.109727
-0.101678
-0.0715215
-0.066894
-0.0938934
-0.0832727
-0.0968414
-0.098765
-0.0910354
-0.0657985
-0.0585681
-0.0776711
-0.0629775
-0.0919382
-0.0887351
-0.0827875
-0.055877
-0.050679
-0.059051
-0.053121
-0.0854215
-0.0811918
-0.0782491
-0.0502183
-0.0519975
-0.0532503
-0.0574317
-0.0806925
-0.0779728
-0.0788404
-0.0532997
-0.0582772
-0.0595972
-0.067844
-0.0670058
-0.054902
-0.0560814
-0.0477806
-0.0585704
-0.0438487
-0.0453407
-0.0908077
-0.0577592
-0.0635493
-0.0653154
-0.0866265
-0.0480534
-0.0596989
-0.108525
-0.0646262
-0.0904513
-0.0872217
-0.0879377
-0.0630562
-0.0688442
-0.103818
-0.100518
-0.117304
-0.0927269
-0.0934224
-0.074711
-0.110998
-0.0903333
-0.116192
-0.103279
-0.0881741
-0.0718591
-0.116001
-0.108109
-0.0817187
-0.0987105
-0.0887413
-0.0675843
-0.0592872
-0.102858
-0.0862657
-0.0785206
-0.086798
-0.0840659
-0.057969
-0.0576139
-0.0807212
-0.0678851
-0.0801373
-0.0838324
-0.083513
-0.0584743
-0.0635549
-0.0654982
-0.0642928
-0.0581229
-0.0653363
-0.0654889
-0.0482495
-0.0464095
-0.0596752
-0.0621078
-0.0608096
-0.0653545
-0.0683763
-0.0478809
-0.0565537
-0.0628581
-0.0657772
-0.0964723
-0.0776346
-0.112376
-0.0598929
-0.0707776
-0.0684919
-0.0904556
-0.121376
-0.119589
-0.12765
-0.0791923
-0.116574
-0.104796
-0.129195
-0.109754
-0.127815
-0.124069
-0.121665
-0.116758
-0.131247
-0.129665
-0.0939609
-0.121998
-0.112567
-0.112398
-0.0972418
-0.127768
-0.120039
-0.0867039
-0.109288
-0.099828
-0.091913
-0.0782711
-0.117624
-0.111955
-0.0846576
-0.0976905
-0.0941993
-0.0754405
-0.0729708
-0.111966
-0.116672
-0.0705904
-0.0550815
-0.0749658
-0.0416696
-0.0346787
-0.0401716
-0.0372272
-0.0273631
-0.0710124
-0.0387876
-0.0279092
-0.0133854
-0.0324487
-0.0189566
-0.0109259
-0.0305783
-0.0166959
-0.0110168
-0.00834408
-0.0158648
-0.0103579
-0.0101854
-0.0144404
-0.0126145
-0.00824028
-0.00856874
-0.0094081
-0.00836376
-0.0109248
-0.0121338
-0.0103214
-0.00881151
-0.00947799
-0.00833928
-0.00888365
-0.0116701
-0.0101543
-0.0108167
-0.00979492
-0.0107723
-0.00929521
-0.0113307
-0.0126765
-0.0113381
-0.013827
-0.0112314
-0.0127578
-0.0122764
-0.0159037
-0.0146384
-0.0150048
-0.019855
-0.0134742
-0.0160135
-0.0173579
-0.0224085
-0.0675659
-0.0301911
-0.0539976
-0.0365309
-0.0441925
-0.0326739
-0.0536186
-0.0558279
-0.0646499
-0.0858419
-0.0425944
-0.0284326
-0.0588047
-0.0618226
-0.0267796
-0.0854718
-0.0800872
-0.0238984
-0.0141273
-0.0630478
-0.0552544
-0.0149981
-0.0770628
-0.0523631
-0.0119781
-0.00904207
-0.0470303
-0.022751
-0.0106606
-0.0432813
-0.0238038
-0.00881423
-0.00927424
-0.0185266
-0.0142621
-0.0112959
-0.0200325
-0.0170423
-0.00976894
-0.0123053
-0.0142938
-0.0165521
-0.0157039
-0.0178037
-0.0232276
-0.0134907
-0.0179304
-0.0178095
-0.0223159
-0.0244439
-0.0258331
-0.0352371
-0.0196538
-0.025264
-0.0238869
-0.0281648
-0.0473707
-0.02389
-0.0336417
-0.0306281
-0.0504171
-0.0309449
-0.044539
-0.0806276
-0.0378529
-0.0527461
-0.0559591
-0.0644115
-0.0479096
-0.0530046
-0.0818399
-0.0582117
-0.0663568
-0.0669182
-0.0682765
-0.0545227
-0.0625903
-0.0725648
-0.0714203
-0.103883
-0.0640211
-0.036973
-0.0678886
-0.0750653
-0.0382876
-0.107269
-0.0922959
-0.0296051
-0.0193969
-0.0696537
-0.0497875
-0.0237347
-0.0840417
-0.0599226
-0.018472
-0.0191553
-0.0446886
-0.0358324
-0.026183
-0.0539892
-0.0452234
-0.0200573
-0.0236043
-0.0346965
-0.0344183
-0.0360558
-0.0447908
-0.0476136
-0.0248643
-0.0283
-0.034929
-0.0372175
-0.032595
-0.032925
-0.0401195
-0.0329643
-0.0445919
-0.0408789
-0.0476851
-0.0486224
-0.0446339
-0.0610823
-0.0473129
-0.0508106
-0.0494315
-0.0572786
-0.0678697
-0.0655602
-0.0849783
-0.0528142
-0.0649996
-0.0618403
-0.0756719
-0.109688
-0.0962029
-0.111747
-0.0717192
-0.0792961
-0.0758729
-0.0670626
-0.10426
-0.112223
-0.10951
-0.0751589
-0.0581833
-0.0644124
-0.0579091
-0.0753632
-0.106803
-0.0985136
-0.053036
-0.0426817
-0.0557092
-0.05257
-0.0569621
-0.0961952
-0.0916586
-0.0409739
-0.0393235
-0.0523996
-0.0530897
-0.0561627
-0.0914496
-0.0922635
-0.0394922
-0.0409122
-0.0537344
-0.0555355
-0.0225982
-0.0236993
-0.0248105
-0.0147406
-0.00947892
-0.0140683
-0.0106081
-0.00820713
-0.0215127
-0.0124616
-0.0080349
-0.00625586
-0.00957591
-0.00752073
-0.00650102
-0.0107048
-0.00785011
-0.00606299
-0.00602436
-0.0071658
-0.00680689
-0.00659469
-0.00739345
-0.007047
-0.00614088
-0.00666569
-0.00685267
-0.0074974
-0.00721483
-0.00715613
-0.00813058
-0.00690886
-0.0078674
-0.00786628
-0.00937201
-0.00869142
-0.00868162
-0.0109998
-0.00827546
-0.00967278
-0.00995777
-0.0117365
-0.0111655
-0.0119655
-0.0153499
-0.0102027
-0.0119524
-0.0122856
-0.0137308
-0.0147942
-0.0166081
-0.0206888
-0.0125934
-0.0145857
-0.0141331
-0.0151163
-0.0330155
-0.0301439
-0.0474277
-0.0173933
-0.0153403
-0.02651
-0.0323618
-0.0203427
-0.0512499
-0.0564045
-0.0139204
-0.0101225
-0.0340103
-0.0401227
-0.0108125
-0.0583232
-0.0488849
-0.00934855
-0.00799081
-0.0403043
-0.0277759
-0.0102525
-0.00850536
-0.0140102
-0.00845858
-0.0115956
-0.00795007
-0.0119015
-0.0091888
-0.00789021
-0.00885146
-0.00794434
-0.00883941
-0.00830252
-0.00891434
-0.01199
-0.0138314
-0.0157017
-0.0106786
-0.0124114
-0.0147936
-0.0156164
-0.0167864
-0.0166195
-0.0196233
-0.0129238
-0.0142152
-0.0158382
-0.0165558
-0.0221905
-0.0205976
-0.0231426
-0.0145638
-0.0154314
-0.0168367
-0.0178526
-0.0478113
-0.0372986
-0.0503232
-0.0347293
-0.0438621
-0.0425515
-0.0571641
-0.0630353
-0.0534485
-0.0557651
-0.0475091
-0.0581658
-0.0613915
-0.0651711
-0.0641985
-0.0558158
-0.0631972
-0.0587992
-0.0432526
-0.0643484
-0.0644799
-0.0548086
-0.0470756
-0.0671802
-0.0494441
-0.0621865
-0.0410832
-0.062722
-0.0264229
-0.0204932
-0.0365409
-0.022374
-0.0306684
-0.020236
-0.0304463
-0.0179228
-0.0366622
-0.0310136
-0.0165731
-0.0169757
-0.0243532
-0.0226932
-0.0210594
-0.0304083
-0.0304358
-0.0171109
-0.0176599
-0.0222969
-0.0215798
-0.0239296
-0.0307733
-0.0322558
-0.0179094
-0.0188651
-0.0214978
-0.0216105
-0.0509928
-0.0420975
-0.0514749
-0.04155
-0.0559013
-0.041839
-0.0585167
-0.0545122
-0.0535007
-0.0594048
-0.061137
-0.0657733
-0.0632197
-0.0661021
-0.0661462
-0.0634726
-0.0720201
-0.0655411
-0.0661134
-0.0653927
-0.0496583
-0.0680411
-0.0687073
-0.0554938
-0.0607431
-0.037415
-0.0422174
-0.0316646
-0.0465135
-0.0524905
-0.0465018
-0.0331912
-0.0273393
-0.0302933
-0.0282077
-0.0359966
-0.0449345
-0.0430548
-0.0264084
-0.024466
-0.0276964