/*--------------------------------*- C++ -*----------------------------------*\
  =========                 |
  \\      /  F ield         | OpenFOAM: The Open Source CFD Toolbox
   \\    /   O peration     | Website:  https://openfoam.org
    \\  /    A nd           | Version:  10
     \\/     M anipulation  |
\*---------------------------------------------------------------------------*/
FoamFile
{
    format      ascii;
    class       volVectorField;
    location    "8.3";
    object      U;
}
// * * * * * * * * * * * * * * * * * * * * * * * * * * * * * * * * * * * * * //

dimensions      [0 1 -1 0 0 0 0];

internalField   nonuniform List<vector> 
12920
(
(134.635 -115.123 33.1968)
(-64.0806 9.77361 26.4397)
(100.955 2.99116 1.129)
(41.3481 11.7086 -3.36035)
(108.377 22.4924 -7.40608)
(84.1002 18.447 -9.35769)
(107.836 24.4764 -9.18272)
(97.0877 22.0126 -9.26522)
(104.131 21.6495 -6.26621)
(94.9527 17.2727 -4.34728)
(96.72 8.97587 -0.443315)
(89.6524 3.32185 -0.0239048)
(91.9583 2.22967 -0.381642)
(90.6335 2.27351 -1.02067)
(92.2925 3.21859 -1.51353)
(92.6631 5.39667 -2.78066)
(94.9458 6.43079 -2.76721)
(95.6369 6.5666 -2.39515)
(95.3962 6.61 -0.593803)
(90.43 5.42041 0.273774)
(-2.3144 122.551 3.01943)
(-191.386 35.8357 -26.0489)
(65.968 -22.6882 -11.9192)
(-15.1413 -10.8609 4.03915)
(78.0859 10.8346 3.57644)
(50.9696 15.6901 0.978039)
(88.8147 24.2406 2.74985)
(74.9379 20.732 2.03798)
(83.6992 14.2476 4.11365)
(70.2163 6.35597 3.21429)
(72.0156 1.87768 1.56047)
(66.0638 1.76846 -0.264394)
(69.1844 2.43289 -0.920958)
(69.2042 4.29695 -1.56821)
(73.1924 5.62886 -1.70512)
(75.5287 6.0776 -0.970224)
(77.4938 4.56949 0.133017)
(76.8538 3.56972 0.814483)
(74.3751 3.9961 1.99237)
(70.5969 2.7951 1.84534)
(-43.6045 33.8474 160.484)
(-90.3942 -46.3655 5.35006)
(64.854 -64.6311 -5.73551)
(-21.4922 -45.2837 -0.935293)
(70.4838 -42.0334 2.1311)
(35.4814 -24.1099 3.04126)
(78.4361 -8.11203 4.4764)
(66.9037 0.585815 3.2241)
(79.8659 6.48332 3.15334)
(71.2622 8.66817 1.44784)
(74.4668 8.01203 0.729938)
(69.5381 7.44786 -0.0662571)
(71.5515 6.25294 -0.154385)
(69.9883 5.99686 -0.255688)
(71.5338 5.40718 -0.0806328)
(71.2651 5.20224 0.0896779)
(70.6574 4.8366 0.559382)
(67.4402 5.46998 0.769379)
(64.2905 6.30509 0.999959)
(63.7119 4.1164 0.76941)
(179.055 -20.2348 -108.46)
(29.5408 -102.995 4.71349)
(100.998 -48.216 -1.29992)
(8.36272 -38.6237 -7.74722)
(67.1526 -44.3336 -3.39838)
(14.1036 -25.8253 -0.079683)
(56.9039 -20.1038 1.42249)
(35.6999 -7.82893 0.962407)
(58.2297 -2.98816 1.1261)
(52.3709 1.43704 0.193194)
(62.6445 2.19438 0.2655)
(61.0209 3.70329 -0.17028)
(65.1722 3.86034 -0.0920758)
(64.3313 4.85059 -0.228078)
(65.5959 5.04593 -0.0821906)
(64.6007 5.52182 -0.0490172)
(63.9564 5.6607 0.258354)
(61.9524 5.99425 0.340054)
(61.3162 5.85167 0.506437)
(62.6224 3.67971 0.539367)
(206.654 120.466 -39.6247)
(48.0659 24.2098 -17.3479)
(146.274 64.4647 -3.55533)
(55.1104 10.5766 -2.93011)
(97.3256 -15.4673 1.77956)
(43.0879 -25.7758 0.681351)
(69.9652 -27.0724 1.50869)
(53.394 -13.727 0.209138)
(68.0213 -11.2471 0.521857)
(62.3087 -1.10886 -0.338291)
(68.8337 0.258616 0.0570299)
(65.6183 4.48246 -0.222725)
(67.6093 4.61446 -0.0219378)
(65.1924 6.2822 -0.172694)
(65.3098 6.05461 -0.0503822)
(63.6252 6.58241 -0.0899054)
(62.9089 6.50731 0.081591)
(61.8565 6.59305 0.0651245)
(61.8239 6.41519 0.133753)
(64.0057 4.5892 0.395531)
(619.591 -149.881 -288.868)
(-66.7727 22.2253 0.613678)
(147.593 25.8711 11.7354)
(11.7576 -15.2375 7.85457)
(90.1867 -32.0561 5.6952)
(17.4036 -20.6962 1.40174)
(65.0716 -28.8815 1.57228)
(37.3339 -14.1167 0.662106)
(54.5101 -10.9724 0.520695)
(47.9852 -2.10201 -0.0568693)
(54.9251 0.229771 -0.0649859)
(53.846 4.80452 -0.241659)
(57.0906 5.52345 -0.142652)
(57.0125 7.44327 -0.155254)
(58.2968 7.19891 -0.105707)
(58.3359 7.61007 -0.0725074)
(58.551 7.28503 0.0118625)
(58.9543 6.96823 -0.0764092)
(59.6868 6.3765 0.0381335)
(63.3689 4.13484 0.575993)
(35.891 -185.474 75.5615)
(-27.0468 -1.54225 5.11897)
(136.84 -7.85832 10.0889)
(48.1905 -20.0014 -1.67979)
(111.451 -32.6473 1.45416)
(64.313 -22.3794 0.174673)
(74.7036 -47.1514 1.65884)
(49.191 -13.6871 0.102747)
(55.2625 -21.4033 -0.525014)
(47.4755 -3.79802 -0.437739)
(53.4413 -4.86249 -0.412334)
(51.3085 2.67241 -0.385152)
(54.2081 2.49385 -0.268651)
(52.9995 5.27456 -0.181043)
(54.1916 5.38326 0.00833272)
(54.2174 6.28096 0.00206866)
(54.5263 6.18128 0.0264635)
(55.3291 6.09361 -0.104864)
(56.9212 5.00861 0.205173)
(60.1926 2.01406 0.721143)
(290.291 -11.9111 -168.568)
(-133.078 -53.368 15.5262)
(162.663 -34.6973 -15.1229)
(55.8201 -30.0128 -3.05413)
(126.002 -34.1686 2.80495)
(63.8697 -3.54236 1.50698)
(80.3434 -11.8487 0.399237)
(41.9607 -13.8461 1.01941)
(39.1125 -0.6994 0.839764)
(30.6932 -4.45593 -0.0414935)
(38.4736 3.00608 0.153212)
(39.056 3.51906 0.126521)
(43.5796 7.03078 -0.0694631)
(44.4787 8.33827 -0.0487248)
(43.0962 5.74183 -0.0765925)
(44.976 6.19815 -0.14588)
(46.3471 6.24371 -0.243935)
(48.0319 4.86276 -0.0260322)
(49.0657 2.97806 0.559406)
(49.8324 0.836224 0.75301)
(206.84 -277.113 -48.6105)
(35.8465 -89.7135 -3.91446)
(180.863 -49.2692 -3.853)
(90.5262 -31.3734 -6.95746)
(135.345 -33.4276 -1.9791)
(91.5426 -13.4164 -1.71428)
(93.0369 -3.44671 2.20868)
(56.1185 -0.00583063 -0.490659)
(45.8973 4.50074 -0.00942182)
(38.1621 -0.488177 -0.053844)
(37.5331 -0.282672 0.287539)
(37.4912 3.2838 0.136793)
(38.2156 6.36376 0.109011)
(38.9206 7.23475 0.0428734)
(38.8313 7.59713 0.229771)
(37.5633 4.06949 -0.0615747)
(39.5561 4.19039 0.101881)
(39.9504 3.38914 0.208883)
(40.5031 2.73537 0.424376)
(43.1045 0.708216 0.711562)
(174.528 13.1243 50.4578)
(-51.0515 50.4492 -14.4579)
(151.998 25.9666 -15.5291)
(39.0671 15.3325 -9.84707)
(110.537 14.7822 -6.38822)
(72.1245 11.176 -2.70168)
(71.5506 18.9256 3.7389)
(43.4781 10.2451 -0.670238)
(36.8658 6.74601 -0.304539)
(44.0401 -0.119822 -0.121108)
(45.0638 0.893795 0.176783)
(40.4979 3.30904 -0.0797792)
(38.5458 4.72965 -0.112377)
(37.5839 4.60006 -0.0228503)
(35.7501 5.10201 0.0759801)
(33.9274 3.94784 -0.0322883)
(35.0667 3.46661 -0.131746)
(36.9892 2.52241 -0.1511)
(40.1641 0.320077 -0.115296)
(46.8507 -1.98257 0.318643)
(100.361 67.658 26.4866)
(6.17662 122.115 -21.786)
(135.925 53.9692 -18.252)
(55.5154 30.0437 -10.3083)
(123.051 21.3999 -7.22319)
(101.349 19.6621 -5.20682)
(113.087 20.444 -1.23276)
(82.4355 46.6279 0.551548)
(21.7101 1.02365 3.76534)
(36.3366 -18.5852 -1.54662)
(45.4268 -0.684671 0.019473)
(42.6353 6.28242 0.0239734)
(39.5865 7.89039 -0.0124101)
(36.8506 7.10579 -0.00990757)
(36.1316 4.46616 -0.296718)
(36.1738 1.71171 -0.213398)
(37.9729 1.3623 -0.0960455)
(41.0449 -0.905409 0.085529)
(43.8224 -3.20285 0.0606439)
(48.9491 -4.09072 0.315794)
(-98.3461 25.391 113.602)
(-189.882 77.8689 -16.1506)
(85.5435 64.2465 -1.6727)
(10.6212 39.2031 -6.44214)
(95.7506 40.2423 -3.53647)
(75.2971 32.1115 -5.01288)
(116.702 36.8279 -2.4056)
(142.215 42.4561 -1.2208)
(162.995 38.5225 7.05984)
(58.1997 1.56687 -3.70113)
(58.0816 5.20477 0.294697)
(45.3837 10.1352 0.246407)
(39.2592 12.22 0.0626754)
(36.8124 10.7813 -0.206646)
(38.0152 5.14713 -0.338101)
(35.8768 0.923186 -0.000774237)
(37.7807 -1.34569 0.398885)
(38.1179 -3.1893 0.441545)
(39.4691 -4.89407 0.411553)
(42.0772 -4.94668 0.618257)
(18.7831 43.3737 278.012)
(-201.666 33.8372 -26.5576)
(101.387 8.07749 -6.63258)
(5.44997 7.91087 2.99108)
(100.711 30.7009 3.11798)
(72.1512 -2.28708 0.560199)
(106.672 11.6309 -0.825593)
(95.1513 6.82295 4.8172)
(54.0659 39.8643 0.32323)
(40.7194 29.7933 -0.828731)
(36.9781 15.0319 0.276369)
(30.8881 11.0329 -0.10231)
(33.9963 11.2514 0.0227793)
(33.6604 7.93763 0.2744)
(30.201 2.25246 0.337287)
(32.7929 -1.15919 0.245002)
(32.4457 -3.0022 0.0621549)
(33.9725 -5.06319 0.0118554)
(35.6099 -6.54278 0.0797043)
(38.4269 -6.20167 0.705083)
(-131.137 64.03 97.9715)
(-212.375 -17.561 -72.6072)
(100.708 -66.172 -12.5239)
(-61.6839 -29.2426 -1.12906)
(77.0356 -20.0943 -2.97315)
(1.09262 -14.2484 0.789804)
(46.3161 39.2387 1.2961)
(-3.29905 9.84148 1.82728)
(22.2039 38.2283 -0.0806671)
(13.077 17.1866 -0.4815)
(26.1278 20.6754 -1.49058)
(23.3277 9.05973 -1.43662)
(30.8726 8.61611 -1.19592)
(30.6773 1.25564 -0.763914)
(35.2696 -0.0076065 -0.647861)
(34.8233 -2.841 -0.508756)
(37.1503 -3.77855 -0.352928)
(37.3473 -6.17107 -0.201054)
(38.4058 -8.07277 0.231516)
(39.0907 -7.25353 0.744161)
(191.805 -114.521 -144.506)
(122.16 1.14015 -15.1849)
(182.099 -14.3797 -15.5073)
(64.5783 4.60699 -13.0487)
(93.0247 9.75403 -3.92666)
(18.4816 11.3879 -0.577488)
(55.4955 36.0306 1.0258)
(23.0417 26.7713 0.932772)
(39.7427 32.8443 -0.287475)
(35.731 23.234 -1.36723)
(45.5923 20.7085 -1.98468)
(48.883 12.4 -2.8068)
(57.8813 8.34732 -2.36762)
(59.8576 4.11918 -1.32152)
(59.8256 1.46887 -0.420864)
(56.4518 -1.51546 -0.745096)
(55.3441 -3.86995 -0.730759)
(52.7736 -5.16769 -0.274908)
(50.2523 -7.31032 0.60692)
(44.5934 -6.48947 0.944504)
(141.902 -22.9767 19.5308)
(52.9012 -8.92664 -2.36369)
(121.67 54.6698 -10.3153)
(13.3627 33.4776 -4.6783)
(74.4527 35.0048 1.04344)
(4.70826 11.4285 0.943569)
(55.0949 29.2405 0.985882)
(29.5271 18.1602 0.644831)
(57.2679 26.3011 0.625044)
(53.0295 17.6301 -0.593938)
(66.5768 18.5298 -0.135459)
(67.1969 11.2932 -1.12161)
(74.9271 10.0797 -0.945611)
(75.2812 6.42302 -0.866471)
(77.5954 6.4747 -0.571868)
(76.3147 5.60751 -0.606409)
(75.2362 2.89208 0.120587)
(69.9852 0.292211 0.512575)
(66.2922 -1.38357 1.19465)
(56.1629 -2.56497 1.28726)
(1.72873 -79.5272 30.9952)
(-140.263 41.9889 -26.5496)
(106.437 70.1458 -12.3465)
(5.82207 44.2615 -2.66577)
(88.3477 28.8538 6.58534)
(23.6821 9.33985 2.60913)
(64.4948 10.6374 4.0039)
(41.6069 9.00856 1.09425)
(64.1858 13.65 1.23083)
(58.7607 11.0705 0.376992)
(69.4779 11.4681 0.665249)
(68.8585 7.95463 0.191404)
(74.011 6.86809 0.465564)
(73.4168 5.12653 0.424185)
(74.7216 4.2985 0.586332)
(73.9033 3.45338 0.787547)
(72.8238 1.94968 0.987727)
(68.1419 0.60058 1.06773)
(63.2881 1.89001 1.48421)
(53.1094 0.882509 1.19195)
(226.167 -198.238 -240.834)
(-131.492 -10.19 32.8669)
(117.703 41.651 -6.52905)
(-14.872 41.3811 8.46791)
(70.9628 9.33441 6.45311)
(-2.51282 8.89604 1.55844)
(54.1162 -2.83955 0.290581)
(22.495 1.15685 0.348219)
(51.7633 3.71545 1.03818)
(42.6419 3.71907 0.722186)
(56.8532 4.88595 1.23228)
(55.2912 2.79554 0.904232)
(61.7516 2.78053 1.24088)
(61.4949 2.07222 1.16927)
(63.789 2.67918 1.23954)
(62.8998 2.41869 1.253)
(62.6033 3.20739 1.15013)
(58.4624 4.08137 0.922769)
(53.4421 7.9576 0.949859)
(49.764 5.47354 0.603495)
(183.717 105.21 -28.1272)
(-140.156 66.0209 -20.308)
(142.467 18.2299 -27.3647)
(34.469 18.4223 0.554023)
(98.745 -6.47765 -0.963824)
(52.8673 1.23861 -1.51523)
(72.3104 -12.7567 -1.31678)
(46.3563 -3.9776 -2.08718)
(57.7484 -8.43169 -1.49779)
(46.9758 -4.68823 -1.90812)
(56.4901 -5.94618 -1.6119)
(55.5124 -5.16018 -1.48705)
(62.6329 -5.55995 -0.453817)
(63.7786 -4.91906 -0.022727)
(67.6843 -3.8521 0.681212)
(67.0014 -3.30202 1.19827)
(66.4974 -0.109627 2.20311)
(60.6386 5.03577 2.58707)
(56.503 8.76258 2.59558)
(52.7126 5.5049 1.40271)
(-58.987 41.1996 65.8053)
(-131.035 125.42 21.6183)
(66.0735 28.3484 -2.5849)
(8.13201 45.1723 3.63622)
(87.4055 40.2056 1.90396)
(61.4846 32.8562 1.76237)
(90.9512 27.3688 1.53232)
(80.8463 22.1744 0.484144)
(93.7583 17.0505 0.745865)
(89.0748 13.4325 0.151286)
(94.6338 7.33838 0.468823)
(89.1579 2.67129 0.173801)
(88.6043 -2.96717 -0.28368)
(82.835 -4.5064 -0.919682)
(82.7899 -4.28986 -1.44607)
(81.4049 -3.56851 -1.80854)
(82.1732 -2.71906 -1.65507)
(82.2041 0.264156 -0.849966)
(84.964 6.44285 0.629023)
(93.1062 7.26049 1.20783)
(175.479 -48.2113 78.9371)
(-60.5816 7.21446 -38.4061)
(98.0648 -33.6513 -35.5841)
(29.8968 -19.8274 -11.8066)
(100.781 -3.68438 -13.3365)
(73.1332 -4.67466 -13.1198)
(94.6128 3.33949 -10.1925)
(77.3975 1.01621 -9.8014)
(82.9895 3.26619 -4.99467)
(73.7578 1.88244 -3.62924)
(77.5852 3.32954 -0.625664)
(74.3421 3.49731 -0.837628)
(75.718 4.44516 -1.25875)
(72.0169 5.17901 -2.15568)
(69.9658 5.61433 -2.61203)
(62.9348 3.81884 -3.12908)
(60.4599 1.09212 -2.52548)
(58.2286 -0.491076 -1.79455)
(58.7353 -0.911746 0.392875)
(61.7744 -0.425133 1.08392)
(138.051 163.952 73.2746)
(-81.155 37.2221 4.35171)
(55.7337 -19.4625 -16.09)
(-43.0819 -19.4695 9.31094)
(62.342 -5.69256 3.91615)
(19.5851 -5.77922 2.12175)
(65.3898 3.24 6.72684)
(46.0786 0.445028 4.08074)
(61.7712 -0.145857 6.6995)
(51.6669 -1.4577 3.16703)
(58.2881 0.218103 1.76652)
(53.4939 1.65733 -0.931402)
(56.5118 2.96585 -1.3082)
(54.3553 3.65125 -1.88892)
(55.6066 3.84144 -1.41845)
(54.076 3.24866 -0.903126)
(54.1504 1.32195 0.285449)
(52.382 0.351828 0.969268)
(51.6903 0.115943 2.39023)
(52.6273 0.305334 2.66742)
(53.6674 69.7093 78.074)
(-21.7601 2.4667 -19.9543)
(65.2674 -43.8912 -0.00358181)
(-29.8215 -42.76 2.8299)
(61.1897 -39.7892 3.38338)
(19.0412 -22.949 4.05808)
(64.1872 -10.9884 6.8574)
(48.0348 -2.16123 3.63269)
(62.7713 3.5303 4.2532)
(52.8506 6.39641 1.31079)
(57.535 6.2596 0.998995)
(52.1497 6.45831 -0.322452)
(54.3995 5.57397 -0.0885104)
(51.9101 5.42262 -0.407126)
(52.8976 4.48229 -0.0205651)
(51.4832 4.01818 0.136691)
(50.8883 3.13791 0.793327)
(48.6003 3.10466 0.932443)
(47.5604 2.87451 1.38119)
(48.0679 1.52342 1.69137)
(83.4616 68.3531 -144.837)
(-16.415 6.53976 -17.2197)
(97.5023 -12.9552 -19.1062)
(9.8996 -35.19 -11.4001)
(60.272 -41.5955 -4.5105)
(4.3912 -22.5456 -1.19204)
(48.2714 -16.8655 1.45018)
(24.8855 -5.13212 0.746286)
(47.5852 -1.48142 1.52703)
(39.2596 2.42255 0.209234)
(49.0756 2.776 0.595394)
(45.6193 4.13234 -0.245345)
(49.1752 3.99815 0.035441)
(47.2774 4.72175 -0.265114)
(48.2891 4.51014 -0.0135717)
(46.8176 4.72854 -0.0258936)
(46.3851 4.37101 0.431132)
(45.0932 4.21841 0.502503)
(45.2128 3.52647 0.827163)
(46.6477 1.60003 1.48584)
(224.636 -6.51293 -71.6903)
(-19.3511 -38.9065 -12.6411)
(138.217 9.67345 -17.3462)
(37.1306 -24.7089 -0.74055)
(83.7925 -21.7119 7.87327)
(27.1796 -22.9808 1.86836)
(58.3564 -21.7556 3.14597)
(38.6679 -8.06159 0.0580651)
(53.7624 -7.21836 1.14472)
(45.3212 2.07165 -0.46482)
(51.805 1.82516 0.308478)
(47.2961 5.46551 -0.344399)
(49.4607 4.74753 0.0458966)
(46.7558 6.00976 -0.255675)
(47.2232 5.31911 -0.0387874)
(45.5918 5.52231 -0.101892)
(45.2923 5.09667 0.202066)
(44.6356 4.78476 0.213938)
(45.0894 4.07299 0.398981)
(47.203 1.95775 1.36923)
(133.255 33.5452 -167.698)
(-121.495 -2.24489 102.792)
(121.409 -10.9146 24.2458)
(-15.4578 -19.0159 9.86406)
(79.5874 -24.4351 7.62837)
(0.927756 -11.5983 1.00817)
(54.4153 -20.9196 1.78057)
(25.1245 -6.99456 0.372793)
(43.5703 -6.14035 1.0153)
(35.4293 1.67842 -0.220644)
(41.9054 2.23142 -0.0658054)
(39.5255 5.56614 -0.343608)
(42.0228 5.371 -0.108141)
(41.1871 6.56233 -0.154419)
(42.2185 5.86726 -0.0540572)
(41.9338 5.91685 -0.027838)
(42.1814 5.37163 0.104791)
(42.4463 4.7978 0.0763641)
(43.5212 3.54718 0.374307)
(46.924 1.25729 1.66587)
(137.814 -149.582 -195.13)
(-74.4617 -36.1246 -33.0515)
(139.818 -18.8208 -5.17945)
(23.6373 -12.6148 -0.456135)
(92.594 -19.8493 4.38043)
(36.6374 -9.59476 -0.418796)
(54.9588 -38.5197 2.12027)
(30.8947 -2.63948 0.298237)
(40.7914 -14.6176 -0.589426)
(32.7912 1.83316 -0.431877)
(38.884 -1.69186 -0.410529)
(36.2093 4.75584 -0.37895)
(39.1045 3.09535 -0.226745)
(37.7576 5.3161 -0.093591)
(39 4.62976 0.163233)
(38.9216 5.13197 0.0592741)
(39.4573 4.66359 0.150336)
(39.9982 3.84365 0.122404)
(41.582 2.04473 0.658931)
(44.446 0.11698 1.87385)
(46.9356 78.7127 -252.312)
(-72.9539 -46.4818 35.7116)
(134.773 -34.5506 -13.8535)
(14.4551 -17.3754 0.613189)
(99.7758 -16.1216 7.5891)
(29.1589 16.5409 2.59898)
(57.3041 -4.093 4.2846)
(29.049 -5.21325 3.36079)
(31.4295 -2.40414 0.736481)
(25.8293 -2.40156 -1.25778)
(31.1949 1.94159 -0.827741)
(31.4007 3.69666 -0.601422)
(34.7219 5.76209 -0.130726)
(34.8496 7.09573 0.0128052)
(32.5658 4.43606 -0.484933)
(34.0183 4.37149 -0.225022)
(34.3952 4.11582 -0.148365)
(35.0693 2.65921 0.284397)
(36.1478 1.22478 0.986212)
(37.791 0.0657568 1.9658)
(229.363 18.7382 -240.658)
(13.4819 -53.0456 -37.3529)
(160.833 -27.0707 -33.0606)
(47.0179 -11.1506 -16.0379)
(94.9885 -11.197 -3.84539)
(64.4459 5.73277 -1.31317)
(78.4902 4.67216 6.44134)
(45.3213 -0.211918 3.56647)
(33.865 1.17414 0.501699)
(28.8491 -1.71234 -0.569687)
(29.0453 -0.548992 -0.160801)
(29.5856 2.10837 -0.252526)
(30.6387 4.27387 -0.0315907)
(31.5941 5.22735 -0.0953831)
(30.7836 6.59949 -0.207552)
(29.1902 2.84935 -0.438064)
(30.6745 2.93644 0.234859)
(30.9237 1.8858 0.424089)
(31.9969 1.31678 0.735746)
(34.2899 0.0275114 1.92108)
(342.769 -45.8439 -105.86)
(6.36156 7.32507 -33.5312)
(147.917 17.0856 -39.7899)
(16.3153 18.356 -18.6966)
(81.4303 18.3056 -9.2119)
(38.3397 17.3487 -12.1707)
(58.1784 24.8483 -1.31839)
(44.9071 14.8419 4.31255)
(31.4846 4.41305 -0.0262659)
(32.3029 -3.06996 -0.207684)
(33.0702 -1.27341 -0.0158888)
(32.0942 1.46682 -0.390609)
(31.0205 2.89369 -0.381626)
(30.5523 3.34001 -0.205828)
(29.6943 4.02029 -0.104739)
(28.2499 2.84885 -0.323921)
(29.3774 1.93964 -0.11429)
(30.6425 0.709485 -0.094624)
(32.7843 -0.560838 0.125693)
(36.3997 -1.45537 1.52908)
(142.304 207.622 59.1191)
(40.8636 118.43 -19.5993)
(127.92 61.4367 -20.7003)
(33.7613 31.9322 -13.7478)
(92.3638 25.0243 -7.8345)
(67.4241 20.6955 -10.4179)
(80.3986 19.898 -5.17468)
(80.7102 44.8977 4.27093)
(59.7164 30.8288 2.30073)
(41.9605 -17.8001 -0.257561)
(40.1546 -2.80454 1.35048)
(36.9003 3.77351 -0.0190469)
(34.4876 5.42151 -0.350981)
(32.4712 4.95442 -0.413487)
(31.1598 3.13524 -0.576566)
(29.7164 0.119998 -0.582596)
(30.9123 -0.524874 -0.158523)
(32.541 -2.3503 0.169317)
(34.4251 -3.1249 0.224775)
(37.3801 -2.9187 1.47766)
(189.702 36.5774 59.3421)
(-233.098 72.3901 -29.8677)
(79.6749 47.1876 -29.3265)
(-27.4814 23.322 -8.69975)
(63.9559 29.9917 -6.76508)
(36.5678 20.0936 -12.8731)
(84.0194 24.5675 -8.96733)
(110.162 36.6889 -4.76772)
(129.332 39.0259 20.4481)
(98.4126 0.258974 4.84564)
(48.6951 7.22425 2.21368)
(37.5721 9.02311 0.696244)
(33.5402 9.12768 -0.0604635)
(31.8251 6.4579 -0.621329)
(31.2461 1.71989 -0.542071)
(27.1848 -0.405349 -0.31291)
(29.1313 -2.1353 0.45431)
(29.3494 -3.27411 0.57706)
(30.8559 -3.87618 0.606169)
(32.9364 -3.2742 1.81984)
(338.49 16.9199 -21.3767)
(-206.13 39.0249 10.0625)
(68.4523 -8.39816 -9.06092)
(-47.9001 -1.24806 10.0579)
(76.8268 24.7336 1.90013)
(24.5021 -17.2137 1.06951)
(72.8853 2.46765 0.232664)
(70.2182 -0.597052 11.9228)
(66.7024 35.936 13.8101)
(28.466 26.8874 3.92533)
(29.2679 16.2373 0.855842)
(23.7455 10.9268 0.110635)
(26.3314 7.82539 -0.00110704)
(24.8717 3.58329 0.475349)
(22.4308 0.736889 0.12478)
(24.9221 -1.5738 -0.013918)
(24.4888 -3.03962 -0.0278961)
(25.6511 -4.55513 -0.000784381)
(27.1902 -5.16228 0.147443)
(29.146 -4.36284 1.82069)
(315.888 -15.6188 59.0632)
(-63.6978 12.3641 -17.7533)
(106.916 -58.3018 -16.28)
(-78.6426 -29.8457 6.86307)
(63.3042 -17.7328 -8.38456)
(-29.3342 -13.8023 4.04915)
(23.3032 43.7104 -1.2629)
(-20.9418 0.267521 3.96464)
(12.6824 34.1368 -1.33399)
(4.8691 12.4694 -0.507573)
(19.2497 17.942 -2.40263)
(16.2648 6.75641 -1.67944)
(23.3405 6.74157 -1.67757)
(22.3684 0.235599 -1.17032)
(25.4788 -0.294962 -0.982638)
(24.7043 -2.93659 -0.746974)
(26.1684 -3.86854 -0.409673)
(26.1152 -5.68478 -0.133569)
(27.6643 -6.63085 0.396047)
(28.6635 -5.4589 1.83677)
(208.591 -99.6319 -95.1361)
(219.165 8.49553 -22.6622)
(232.26 -10.2691 12.7527)
(72.1163 -2.09967 12.8807)
(78.7625 4.29265 13.2576)
(-4.60452 3.80267 3.11743)
(43.5545 33.0473 2.19215)
(11.2261 17.506 1.08616)
(31.0795 24.5481 -1.0868)
(25.62 14.2088 -2.63642)
(34.4927 12.1329 -2.96785)
(34.047 5.81679 -3.52893)
(38.0084 3.64724 -2.72953)
(37.4244 0.0412037 -1.73243)
(38.3216 -1.4617 -0.679706)
(37.0552 -3.1819 -0.891019)
(36.2137 -4.69384 -0.583958)
(34.11 -5.8422 0.11486)
(33.6263 -6.58865 1.23058)
(31.9357 -5.64998 2.29674)
(140.993 103.943 22.7095)
(67.2466 11.726 -1.03533)
(111.684 44.7466 1.38274)
(-25.9853 23.4813 0.430031)
(63.5808 30.0946 -0.260294)
(-15.5781 6.0651 3.06405)
(45.0768 26.3626 1.23111)
(15.2872 10.8638 0.877992)
(43.8589 19.2086 0.557464)
(35.519 8.54383 -0.799583)
(48.2278 9.50923 -0.0967891)
(45.7461 3.0372 -1.65078)
(50.5035 2.70266 -1.05417)
(48.8075 0.223175 -1.02048)
(50.0816 0.606498 -0.550157)
(48.0499 -0.782848 -0.610616)
(47.3408 -1.78285 0.485704)
(44.1768 -2.88975 0.994799)
(42.6906 -3.27307 1.94024)
(38.6333 -3.1475 2.75067)
(137.936 243.896 26.5068)
(-183.747 53.4831 -19.5695)
(76.5192 59.3627 -21.3323)
(-75.253 23.3321 0.0481954)
(68.5149 12.3485 6.7432)
(-4.56189 0.942289 3.785)
(54.2888 8.50578 4.77153)
(26.4516 6.06885 1.22405)
(50.5811 9.5145 1.98844)
(40.789 5.27938 0.370904)
(51.0058 5.03658 1.03554)
(47.6605 1.81435 0.201172)
(51.5782 1.29903 0.751681)
(49.7765 -0.0530283 0.605448)
(50.7573 -0.149959 0.836995)
(49.3426 -1.07742 1.04727)
(48.4835 -0.789566 1.41066)
(44.8377 -0.761216 1.55068)
(42.4412 0.607521 2.19342)
(38.0408 -0.0878339 2.50652)
(-86.9229 52.7663 -37.1776)
(-173.899 1.00072 16.6624)
(59.2048 10.3606 -15.7235)
(-65.8267 13.6293 10.6445)
(64.4217 -9.77417 1.92437)
(-13.5978 6.75923 2.52063)
(47.6899 -0.438934 0.0419396)
(13.5065 4.13565 0.705507)
(43.397 4.72521 1.08738)
(31.3832 2.77001 0.831868)
(45.5822 2.86842 1.8667)
(42.067 0.503229 1.19424)
(48.3543 0.958051 1.79191)
(46.7737 0.521932 1.58279)
(48.6867 1.46301 1.6647)
(46.859 1.30505 1.64092)
(46.2134 2.78247 1.6813)
(42.0777 3.64831 1.304)
(39.961 5.47376 1.37392)
(38.7046 3.23457 1.54074)
(255.015 75.8154 -134.213)
(-44.3026 56.2824 -24.7212)
(125.366 9.21465 -32.6045)
(37.0227 3.46723 -3.21168)
(90.2442 -14.679 -5.57454)
(42.5881 -2.35082 -4.9226)
(62.9182 -12.393 -2.66641)
(36.5713 -2.0037 -3.68283)
(50.2606 -6.19356 -2.36638)
(38.8607 -2.77323 -3.32518)
(48.2781 -4.14088 -2.02403)
(44.7934 -3.0818 -1.91188)
(50.1672 -2.67957 -0.216895)
(49.0544 -1.24623 0.143081)
(51.6513 0.0544488 1.01316)
(50.4306 1.00472 1.38212)
(50.6009 3.65481 2.9375)
(47.8051 5.97304 3.22494)
(46.7906 6.80323 2.89654)
(46.2719 3.46371 1.63286)
(-55.3636 12.6112 132.034)
(-91.147 89.6965 10.6557)
(81.1632 -14.9793 -23.7199)
(18.1774 17.2941 -2.0936)
(85.2643 26.4196 -4.25921)
(58.4067 24.5472 -0.0690385)
(86.9813 20.6303 2.59799)
(75.4533 15.3965 1.01871)
(87.7852 9.80003 2.37854)
(80.3512 5.71207 0.995413)
(83.1804 -0.944515 1.3555)
(75.2023 -3.57047 0.296552)
(73.9886 -3.7317 0.044625)
(68.1195 -2.32168 -0.93254)
(68.2578 -0.213324 -0.966734)
(65.2217 2.21724 -0.971834)
(65.8426 5.28294 0.437013)
(67.0943 8.5262 1.9311)
(72.2351 12.3655 2.74764)
(84.5341 9.55887 2.76909)
(266.203 24.7235 24.1283)
(100.962 -44.9892 28.3568)
(111.89 -47.8758 -9.0117)
(43.8994 -33.5154 -1.20209)
(99.5092 -12.1128 -10.1284)
(63.6065 -10.4878 -10.8846)
(84.3893 -1.37394 -8.05924)
(64.4351 -3.55546 -8.24979)
(72.3104 -0.0783511 -3.69814)
(62.9674 0.0999851 -3.66787)
(67.2551 2.87325 -1.01432)
(61.9115 3.87902 -1.91633)
(61.8084 4.90227 -1.81984)
(54.5883 4.86387 -2.61041)
(51.6156 3.40977 -1.41928)
(44.4776 1.16506 -1.97679)
(42.981 -1.02276 -1.58011)
(41.6012 -1.78224 -1.46014)
(42.4996 -2.1771 0.183684)
(47.1403 -1.53776 1.56224)
(105.539 240.975 -42.3483)
(-95.7104 56.0531 -2.64734)
(40.3497 0.18684 -12.6652)
(-58.6495 -18.7773 6.42984)
(50.8517 -8.969 -2.27833)
(-3.07264 -12.9567 -0.174728)
(48.1496 -5.56748 3.08241)
(24.8593 -6.91682 1.53518)
(46.1525 -4.23472 4.49075)
(36.3152 -2.65122 1.4792)
(45.6125 0.120056 0.871541)
(40.1142 1.63501 -1.30904)
(43.1613 2.5768 -1.11267)
(39.6745 2.7006 -1.51656)
(40.4126 2.17222 -0.866721)
(37.8519 1.25086 -0.673183)
(37.343 -0.404125 0.255357)
(35.6537 -0.886058 0.654136)
(36.0904 -1.09682 1.97865)
(38.0715 -0.403706 3.15017)
(88.4163 -22.862 157.184)
(-101.984 -7.6755 -15.4004)
(49.6402 -46.8419 7.34593)
(-45.8002 -39.4213 1.79081)
(51.7785 -32.9469 1.1538)
(1.47622 -17.0819 3.10369)
(49.2545 -7.99904 5.71822)
(28.2893 -0.687042 2.64708)
(46.3572 2.79645 3.68122)
(35.7753 5.38866 0.848739)
(42.7352 4.96115 0.864947)
(36.9925 5.42951 -0.433303)
(39.8338 4.48146 -0.103894)
(36.6908 4.35119 -0.43362)
(37.6677 3.19996 -0.0492484)
(35.7009 2.66428 0.0213322)
(35.2353 1.83267 0.743977)
(33.5621 1.65306 0.870443)
(33.8246 1.18467 1.32828)
(34.6282 0.561915 2.51968)
(95.5189 -72.7747 -113.904)
(18.282 8.44217 5.09214)
(89.856 -19.4421 -13.6013)
(3.52141 -35.5998 -8.31725)
(51.8089 -36.2363 -3.20934)
(-6.85899 -18.2943 -0.492683)
(39.2595 -14.1823 0.122078)
(12.5561 -3.64448 0.27394)
(36.3969 -1.4172 0.927786)
(25.8191 2.2883 0.110449)
(36.1004 2.22174 0.577081)
(31.5099 3.65986 -0.250366)
(35.3734 3.28703 0.0941466)
(32.9374 3.96106 -0.187224)
(34.1037 3.50824 0.040589)
(32.4859 3.60704 0.0116166)
(32.3301 3.11082 0.461703)
(31.4282 2.78311 0.556727)
(32.28 1.93403 0.848382)
(33.4275 0.598566 2.27338)
(118.346 -163.676 135.806)
(-16.5666 -44.9198 4.263)
(104.202 2.27666 -24.2338)
(2.44683 -30.222 -0.861435)
(67.2141 -18.964 7.07259)
(9.44084 -18.3625 1.16396)
(46.8427 -17.475 2.67554)
(24.2379 -4.28727 -0.329451)
(40.9795 -5.2206 1.00564)
(30.4925 3.32829 -0.410407)
(37.7332 1.78143 0.374281)
(32.3944 5.25815 -0.33161)
(35.1238 3.91479 0.0869075)
(32.2283 5.09177 -0.182579)
(33.0962 4.12064 0.0243142)
(31.6066 4.2516 -0.0349787)
(31.6552 3.71535 0.2604)
(31.214 3.26109 0.295407)
(32.2464 2.34905 0.521312)
(33.7843 0.601906 2.15376)
(-76.7717 -77.4869 -92.5525)
(-184.85 -53.4722 49.0748)
(105.192 -29.3932 6.80354)
(-35.6693 -20.6671 9.09735)
(69.7573 -20.5754 4.11053)
(-13.1972 -6.65876 1.45035)
(45.0247 -16.6278 0.289732)
(13.2984 -2.47602 0.315859)
(33.0061 -4.15601 0.535328)
(22.94 3.16356 -0.275881)
(29.8458 2.19425 -0.0371157)
(26.6245 5.19856 -0.290189)
(29.2659 4.29247 -0.0653516)
(28.1502 5.33531 -0.113454)
(29.3003 4.35285 -0.049107)
(28.9984 4.3645 -0.067143)
(29.3723 3.73115 0.0962741)
(29.6149 3.04621 0.168881)
(31.0706 1.63168 0.443497)
(33.4927 0.0537283 2.27678)
(425.517 82.3597 -3.22172)
(35.7536 -34.6264 18.4708)
(137.12 -24.7397 -11.2005)
(11.4217 -11.6599 -1.46501)
(79.6495 -14.8481 2.64338)
(16.3258 -2.85118 0.116966)
(41.5256 -33.2585 1.32862)
(16.9805 3.97593 0.917408)
(29.6325 -11.7326 -0.37442)
(20.9968 4.00265 -0.316663)
(27.5085 -1.38335 -0.645185)
(24.2769 4.71772 -0.273363)
(27.3244 2.22647 -0.257182)
(25.7681 4.44411 -0.0481994)
(27.1083 3.42923 0.13533)
(26.9893 3.8318 0.000638504)
(27.5923 3.10871 0.150916)
(27.923 2.09232 0.262824)
(29.5702 0.614508 0.6358)
(31.4627 -0.33166 2.26161)
(144.805 26.6087 -94.2049)
(-49.3284 -27.5198 1.45321)
(130.22 -24.5949 -22.9398)
(-6.47836 -7.75042 -2.1193)
(86.1413 -6.36526 4.47154)
(7.67349 25.3716 1.96084)
(39.7533 -3.00369 4.3549)
(17.0148 1.72077 2.79616)
(22.6877 -2.84376 0.76351)
(17.8181 -0.407556 -1.40929)
(22.7897 1.36125 -0.978844)
(22.4533 3.65662 -0.778705)
(25.2274 4.71702 -0.405373)
(25.0485 6.13223 -0.155207)
(22.9857 3.06064 -0.307071)
(24.1621 2.91677 -0.1875)
(24.0334 2.65753 -0.109078)
(24.4312 1.40247 0.324597)
(25.7365 0.565954 0.934907)
(26.8682 -0.0135296 2.06058)
(365.472 117.084 -49.8969)
(128.807 -1.50907 3.18702)
(159.317 -11.3825 -22.7785)
(27.4466 2.42123 -12.015)
(76.4015 0.159246 -3.06081)
(34.9357 22.0145 -1.52912)
(45.1447 12.3567 6.27128)
(27.0608 0.655511 4.62237)
(24.0302 -0.282128 0.572133)
(20.756 -2.22597 -0.77105)
(21.9726 -0.8059 -0.799324)
(22.5555 1.26915 -0.631891)
(23.6716 3.09655 -0.397043)
(24.4419 3.93036 -0.285711)
(23.004 5.49803 -0.647441)
(20.9837 1.81647 -0.0954726)
(22.0976 2.02622 0.222249)
(22.1273 1.07269 0.40731)
(23.6332 0.738987 0.692434)
(24.8878 -0.123825 1.80412)
(317.226 -32.212 -137.213)
(117.538 -1.94605 -20.7706)
(147.409 19.6152 -24.5905)
(1.99852 21.2966 -13.1885)
(63.8513 20.612 -8.26673)
(10.4925 24.0812 -10.6507)
(30.5873 29.0573 -1.37561)
(28.5786 14.1389 3.75586)
(23.6276 2.29078 0.285578)
(24.476 -4.39038 -0.271933)
(25.6276 -2.33875 -0.19509)
(25.3346 0.149158 -0.425283)
(24.7116 1.75256 -0.421359)
(24.3095 2.53572 -0.294928)
(23.1132 3.25257 -0.335174)
(21.0545 2.01458 0.0584607)
(21.8345 1.06775 -0.0933776)
(22.5382 0.171831 -0.102401)
(24.4786 -0.490862 0.199693)
(26.1705 -0.930319 1.62854)
(189.19 42.4376 13.6875)
(54.5811 81.0748 -35.9421)
(123.835 52.8092 -18.8187)
(9.04097 32.968 -13.3099)
(71.3552 25.0419 -8.66899)
(33.9643 19.7952 -11.2107)
(44.2456 21.4697 -5.63936)
(45.683 32.6654 -0.983674)
(39.1956 11.2604 -4.31795)
(33.1924 -16.0393 2.0331)
(35.1924 -3.87188 0.585006)
(31.8846 2.31095 -0.00469722)
(27.7012 3.57859 -0.248215)
(25.6835 3.36588 -0.369907)
(24.1583 1.94097 -0.598847)
(22.0106 -0.785392 -0.247512)
(22.6484 -1.18249 -0.170823)
(23.5988 -2.27922 0.0744876)
(25.3248 -2.36735 0.291703)
(26.7016 -1.86232 1.62103)
(165.032 26.9671 -170.926)
(-120.229 79.9388 20.8164)
(60.786 40.8145 -24.0371)
(-53.023 21.1822 -1.45855)
(40.4505 26.4921 -10.2149)
(0.0925523 10.479 -13.5408)
(50.9394 13.5158 -10.1794)
(71.9723 23.356 -7.54311)
(87.9194 8.68429 22.9326)
(74.0166 0.643055 21.9985)
(38.3145 7.38185 3.86319)
(30.0061 8.19696 0.693223)
(26.6156 6.72476 0.0258796)
(25.0585 3.74261 -0.419687)
(23.9163 0.0864314 -0.534386)
(19.0729 -0.769249 0.13241)
(20.8427 -2.15423 0.471127)
(20.904 -2.74397 0.50921)
(22.776 -2.87312 0.547193)
(23.7232 -2.10045 1.57734)
(-75.783 37.4749 -211.733)
(-234.087 27.4789 40.5105)
(23.1315 -10.1018 -9.86612)
(-79.952 -1.98424 10.3259)
(60.9907 21.1666 -2.57981)
(-15.3574 -28.2603 1.00307)
(37.5608 1.98065 -2.09506)
(13.4601 2.34989 9.45876)
(29.0964 31.3866 15.5434)
(16.9626 24.67 7.59777)
(22.6025 15.7304 1.15472)
(16.9743 9.89898 0.502453)
(19.9396 5.65821 0.348326)
(17.7867 1.77957 0.568454)
(15.0651 0.428197 0.184201)
(17.2773 -1.49583 -0.0118754)
(16.8985 -2.65057 -0.00278854)
(17.9162 -3.73109 0.116976)
(19.7346 -3.94163 0.32254)
(20.7409 -3.04564 1.4604)
(44.1679 -11.598 80.7284)
(-148.884 -16.5657 14.4096)
(59.5241 -49.4245 -6.71259)
(-87.0579 -29.8112 7.82364)
(48.4197 -16.192 -8.42077)
(-46.877 -14.3634 4.98849)
(6.01681 41.72 -3.09985)
(-30.7872 -6.95562 3.675)
(4.79597 30.138 -2.49996)
(-1.78692 8.1331 -0.427479)
(12.9455 15.7018 -2.08374)
(9.21099 4.54315 -0.964532)
(15.8343 5.62581 -1.24674)
(14.3678 -0.492923 -0.968526)
(16.9584 -0.270279 -0.800464)
(16.0744 -2.75068 -0.655379)