/*--------------------------------*- C++ -*----------------------------------*\
  =========                 |
  \\      /  F ield         | OpenFOAM: The Open Source CFD Toolbox
   \\    /   O peration     | Website:  https://openfoam.org
    \\  /    A nd           | Version:  10
     \\/     M anipulation  |
\*---------------------------------------------------------------------------*/
FoamFile
{
    format      ascii;
    class       volScalarField;
    location    "7.6";
    object      k_0;
}
// * * * * * * * * * * * * * * * * * * * * * * * * * * * * * * * * * * * * * //

dimensions      [0 2 -2 0 0 0 0];

internalField   nonuniform List<scalar> 
12920
(
199.684
796.728
764.122
686.72
556.175
429.328
309.814
231.146
172.866
141.125
117.053
105.905
98.5676
95.2516
92.9043
92.6745
93.0381
93.5415
95.5231
101.797
678.743
974.034
962.328
714.472
532.168
451.978
385.677
351.803
308.059
279.34
247.737
226.843
207.446
191.699
178.795
167.165
160.616
158.16
159.5
166.523
979.005
2079.33
1903.1
1092.65
682.386
515.116
418.224
366.151
321.138
300.767
287.959
283.492
274.183
260.063
242.214
217.928
194.384
173.735
166.665
157.729
804.851
2614.09
2791.51
2212.23
1191.6
687.86
480.517
388.75
351.541
346.099
348.062
347.763
340.076
323.763
302.495
264.259
225.034
184.497
166.801
139.52
5177.8
2747.04
2160.08
1540.31
1010.42
776.353
625.916
559.18
496.926
455.8
423.986
406.14
387.11
365.154
342.553
315.303
273.096
214.854
175.446
133.581
1576.05
2546.46
1993.94
1246.79
866.039
720.027
638.541
618.38
591.172
562.9
508.239
467.637
413.26
367.205
336.759
326.845
307.056
257.686
206.097
147.588
3162.33
1344.78
1084.17
841.173
784.6
788.895
764.214
717.369
657.199
580.626
458.388
343.059
275.242
259.432
259.524
265.708
272.875
269.3
256.612
208.837
1285.19
2386.62
1652.22
1097.28
847.492
827.629
572.673
456.927
398.644
344.004
261.286
157.5
124.644
138.245
256.045
238.613
235.836
231.635
220.238
176.289
3802.28
3638.39
2342.32
1443.11
957.474
478.99
340.915
259.853
228.008
193.786
146.457
99.1574
70.3635
84.9388
147.577
192.008
179.257
161.955
151.004
128.893
586.541
1521.23
1456.53
1213.65
915.039
415.591
168.825
156.724
128.649
97.7187
86.4154
80.9125
77.2756
61.7889
88.9741
129.058
128.871
126.271
124.478
118.78
1084.82
1306.95
1275.92
1054.05
739.644
383.083
169.387
118.673
115.197
119.175
118.343
91.1896
87.6797
89.6246
143.879
139.693
115.019
105.375
104.489
107.657
2387.8
1668.53
1587.61
1292.73
816.62
383.675
178.003
109.22
98.9303
124.819
113.735
104.534
114.523
98.3798
164.571
172.1
136.857
117.369
108.849
108.997
7253.77
2674.11
1985.72
1478.49
882.421
595.845
295.402
198.022
194.521
183.327
159.333
141.102
133.902
124.823
173.821
143.684
122.904
108.664
103.939
102.394
5966.95
4668.99
2580.1
1858
1240.76
896.683
499.321
379.396
322.555
288.844
255.837
217.934
185.283
156.654
131.909
113.364
100.953
91.7329
87.2118
84.8982
11759.1
6329.67
2997.46
1946.78
1349.72
1103.93
704.679
516.491
383.672
302.994
235.506
186.384
150.963
127.099
110.915
99.7491
91.2083
83.8858
79.8511
75.0186
3152.19
3630.77
2437.69
1712.99
1239.29
1062.41
790.23
630.539
473.558
357.607
268.054
207.11
159.868
129.081
109.642
97.8531
89.7504
83.0299
79.709
74.9385
3539.13
2895.94
2182.78
1779.57
1277.58
967.395
693.008
489.026
363.909
297.563
240.886
201.878
164.939
136.652
115.352
101.552
92.5933
85.9301
82.4321
78.8373
1171.34
1801.82
1466.37
1084.75
774.001
550.416
400.737
341.014
296.632
268.756
228.614
198.644
169.773
149.94
132.076
119.308
109.199
101.193
95.6584
91.7215
2118.71
2590.54
1961.86
1237.92
764.008
493.27
333.738
270.379
224.944
201.32
179.806
167.612
155.09
147.792
142.648
139.753
135.869
131.446
126.395
117.095
3220.94
2840.13
1865.5
1229.66
866.592
644.426
469.031
326.952
239.186
193.847
163.689
135.332
112.204
96.9661
88.1732
81.8607
78.2518
73.6515
71.2863
65.0559
435.344
1856.83
1528.83
1076.06
720.309
611.751
512.965
448.106
393.263
351.09
320.438
297.515
280.405
269.346
261.113
258.6
260.392
263.223
272.732
281.887
4511.62
3361.86
2946.9
1819.73
1360.11
1163.45
1011.07
961.649
855.598
800.69
724.646
679.394
621.462
579.276
542.237
510.302
490.042
484.27
491.828
522.41
8504.62
5807.89
4936.33
2797.82
1726.69
1352.08
1090.86
1025.39
916.857
896.969
851.469
838.445
800.202
760.96
705.969
647.193
584.172
526.811
508.67
487.887
8016.17
6476.82
5749.28
4776.96
2929.13
1824.7
1264.71
1116.67
1028.04
1033.57
1020.52
1000.37
940.488
882.311
815.24
728.502
628.024
527.198
479.848
416.75
23584.3
8242.6
5269.77
3907.87
2640.56
2078.86
1675.29
1551.51
1389.46
1338.42
1251.75
1186.58
1099.79
1021.82
949.438
870.807
744.574
593.059
485.361
385.141
9972.83
7462.65
4737.92
3061.14
2167.77
1946.66
1725.91
1695.45
1597.22
1531.1
1413.83
1321.06
1179.67
1074.68
1000.11
955.831
873.721
712.6
560.092
417.395
2621.81
4938.42
3455.23
2432.79
2126.77
2117.88
1965.95
1831.34
1658.71
1480.67
1203.24
924.455
776.133
749.134
754.103
752.697
743.58
716.047
682.491
567.767
1251.77
5533.38
3793.03
2652
2178.09
2163.8
1824.17
1627.13
1426.79
1201.54
925.549
655.377
576.848
575.07
600.546
588.431
588.357
582.279
564.674
482.233
5399.36
8932.26
5406.87
3349.17
2266.36
1717.15
1538.29
1368.89
1138.64
926.912
717.763
518.584
457.307
446.649
439.557
437.837
435.764
420.799
403.888
368.072
1397.95
3978.47
3542.96
2778.17
2057.61
1495.12
1156.32
945.648
731.66
587.14
499.4
430.688
369.748
309.665
288.563
318.788
337.532
346.083
349.065
346.637
4950.19
3694.32
2906.48
2321.11
1581.59
1296.85
997.338
768.399
655.954
616.11
532.611
421.321
397.222
400.609
357.375
315.17
300.98
303.91
312.967
339.013
4651.8
3980.83
3578.94
2750.76
1677.93
1246.32
973.038
848.342
755.714
708.807
640.168
614.269
580.321
515.535
437.754
376.239
332.035
316.276
316.755
332.049
8644.32
5974.02
4836.51
3321.16
1920.3
1374.03
910.348
878.409
822.58
729.599
624.591
550.948
493.966
440.36
401.454
353.54
321.614
300.805
296.131
300.675
27044
8834.51
5427.11
4129.53
2679.5
2024
1193.75
990.105
844.172
756.231
661.266
563.525
479.254
408.443
349.962
309.336
282.984
265.431
256.128
253.797
15154.9
10378.9
6759
4309.19
2792.43
2309.74
1404.91
1152.85
871.703
741.738
593.836
482.608
399.33
342.135
303.747
276.787
256.121
241.417
232.776
224.994
15891.7
10958.1
5446.46
3682.42
2552.26
2297.69
1558.57
1341.81
990.628
837.204
647.034
529.364
416.103
346.906
302.753
275.783
256.439
242.234
234.025
225.43
11634.8
6110.41
4213.35
3617.17
2271.61
1808.08
1113.76
986.918
791.862
736.569
601.434
526.781
433.233
372.805
320.423
288.63
267.454
252.373
243.961
237.792
4902.8
4040.4
2282.36
1909.55
1033.5
969.66
775.221
799.149
719.135
667.88
570.752
515.638
453.338
412.929
372.004
340.95
316.158
298.013
285.826
278.649
3696.37
4117.13
2619.29
2278.14
1216.17
1059.48
728.645
674.723
545.703
513.571
463.675
442.731
417.44
407.442
395.851
388.752
378.959
371.598
361.727
349.696
3693.78
4471.21
3060.49
1682.87
1083.38
800.759
533.982
368.968
303.7
299.511
290.845
249.918
205.856
180.705
168.395
162.384
160.361
159.389
159.399
154.708
3927.36
2601.24
1693.8
1152.03
893.062
719.453
626.088
530.629
488.312
436.906
409.578
383.258
367.703
354.568
347.947
344.36
346.941
345.044
346.291
337.149
4082.91
5044.79
3942.85
2447.78
2076.19
1629.47
1451.13
1312.91
1174.06
1093.39
1005.83
957.947
900.414
865.905
831.257
803.825
781.266
770.681
773.317
775.722
21909.9
8314.23
6083.76
3971.51
2828.09
2176.77
1777.88
1610.86
1428.28
1341.85
1237.02
1175.52
1094.65
1030.66
958.985
889.273
824.672
765.193
733.478
679.815
15792.6
9790.2
7095.09
5931.57
3939.37
2660
2021.28
1809.88
1628.7
1532.77
1413.08
1314.4
1203.48
1109.69
1011.11
907.683
808.98
712.372
653.08
570.469
22694
10438.1
6598.08
5028.59
3521.38
2847.81
2329.45
2124.99
1898.56
1770.15
1623.25
1493.72
1361.93
1248.87
1134.15
1010.27
870.979
725.143
627.476
527.007
6245.8
8703.95
6058.97
4080.23
3087.2
2782.09
2418.5
2272.45
2055.61
1905.65
1734.41
1585.98
1437.06
1323.04
1220.15
1111.51
978.693
815.731
689.804
563.89
2310.01
6097.38
5319.61
3759.39
3124.37
2954.85
2550.72
2289.31
2007.87
1755.01
1471.85
1262.42
1146.07
1088.61
1034.94
976.459
921.281
848.715
783.133
661.351
7905.71
9437.03
5440.37
3800.07
3069.58
2862.25
2500.26
2112.3
1796.12
1471.83
1182.22
961.728
883.554
837.562
797.141
773.8
758.008
720.646
680.868
602.587
16540.6
14344.8
6957.7
4321.94
2921.66
2448.73
2251.5
1810.42
1434.81
1139.41
900.747
739.52
672.269
630.574
595.653
584.98
584.632
566.999
548.654
518.343
16959.9
6192.25
5001.32
3503.1
2527.2
1999.93
1661.62
1293.41
1007.47
828.99
694.162
583.725
494.527
435.138
421.606
472.169
497.225
507.221
509.164
506.22
20273.8
5430.1
4235.09
2653.66
2007.1
1675.42
1394.43
1106.98
939.029
848.132
526.572
430.085
464.157
470.297
435.594
462.615
467.957
483.733
500.288
516.369
17721.8
5676.13
4584.96
3170.94
2043.57
1682.35
1478.59
1290.25
1106.34
971.483
870.671
810.282
734.764
640.647
537.549
498.116
477.898
476.002
482.212
500.597
4716.18
7308.86
5964.38
3836.25
2329.48
1780.38
1398.15
1288.35
1132.68
984.022
846.892
746.874
655.957
578.564
513.273
469.884
443.728
431.258
431.633
440.561
13541.5
8100.66
6571.63
4811.27
3080.76
2215.1
1489.43
1276.27
1102.29
947.908
819.55
695.927
600.823
520.956
461.791
421.118
394.617
379.047
373.532
375.19
12210.2
10825.9
7090.58
4864.83
3081.31
2304.2
1569.97
1374.95
1101.32
929.517
749.981
623.046
528.225
463.328
416.878
384.837
361.615
347.504
339.494
336.477
29567.7
14351.4
6480.47
3951.01
2739.65
2300.17
1664.2
1500.15
1171.5
990.605
780.638
650.47
538.712
471.537
421.277
389.576
365.647
350.844
341.595
336.719
9487.04
6144.29
4853.33
3504.98
2264.44
1877.63
1390.53
1261.56
1021.73
897.13
740.295
650.481
557.507
496.652
443.536
410.397
385.314
370.375
361.999
358.873
7490.4
4927.18
3353.05
2409.63
1581.85
1473.62
1185.28
1081.68
911.712
821.986
716.665
659.577
598.23
558.075
515.659
484.709
457.17
438.81
426.235
421.261
8294.49
4696.82
3398.28
2670.97
1650.06
1373.58
974.679
844.494
705.156
664.763
608.302
593.109
571.726
568.107
558.73
553.959
543.582
537.292
525.781
514.757
2939.21
3103.84
2131.64
1549.96
1011.11
713.599
527.661
461.806
423.771
395.55
354.098
305.279
262.851
232.388
216.507
205.827
201.525
195.6
192.89
183.708
2390.47
3163.89
1878.36
1210.57
984.722
741.025
684.754
561.514
533.238
470.047
453.468
421.828
410.09
392.963
386.841
379.637
379.739
369.143
364.33
333.544
4986.96
7169.31
4798.4
3127.68
2728.72
2019.91
1877.21
1607.18
1480.54
1345.47
1267.4
1205.68
1158.86
1126.09
1097.43
1071.71
1051.86
1036.6
1025.58
992.341
16568.5
10374.4
7610.46
4784.16
3724.17
2713.62
2372.75
2041.88
1848.89
1667.99
1545.28
1436.7
1347.34
1263.28
1188.91
1111.84
1046.38
980.569
931.815
859.425
8228.66
10078.7
9233.43
6865.28
4637.7
3196.15
2655.72
2301.17
2079.7
1864.02
1704.4
1546.88
1418.12
1293.27
1181.36
1066.87
968.285
871.835
802.845
718.246
11287
9527.05
8125.11
5718.89
4257.05
3343.34
2872.09
2521.51
2281.2
2062.31
1893.12
1715.37
1564.95
1412.15
1267.58
1115.26
974.99
841.589
753.628
666.035
6668.84
9423.78
7090.58
4690.12
3899.53
3332.64
2965.42
2642.18
2382.51
2154.79
1972.59
1796.11
1645.42
1503.22
1366.43
1210.12
1058.34
906.327
802.658
705.041
7278.62
9126.7
7304.88
4674.4
4012.05
3467.7
2944.2
2551.6
2220.73
1937.59
1702.27
1544.38
1438.28
1345.66
1248.7
1143.42
1051.77
952.931
875.316
782.184
32094.2
15765.2
7267.83
4699.35
3892.16
3332.15
2898.12
2357.66
1979.43
1630.48
1388.9
1225.09
1145.93
1071.01
985.239
939.683
901.619
845.206
802.021
745.342
48637.4
18343.4
8721.47
5168.98
3470.2
2955.03
2656.61
2006.5
1578.22
1267.33
1057.24
928.291
856.493
802.21
752.912
745.702
741.201
721.424
705.966
682.417
15730.9
8196.61
5962.73
4062.21
2856.61
2325.68
1970.55
1504.35
1190.98
981.557
817.044
685.175
602.619
572.004
583.794
660.878
683.327
688.887
688.326
681.172
10406.4
7238.65
4859.61
3020.74
2301.08
1922.23
1664.73
1353.42
1149.58
1003.49
725.638
586.573
553.855
547.226
570.227
652.697
672.609
688.584
698.494
701.521
9458.21
7022.19
5500.88
3357.63
2350.43
1987.16
1796.42
1545.47
1313.16
1140.52
1013.38
911.997
816.17
718.853
645.153
653.734
653.409
658.315
669.348
678.717
24614.8
10048.8
6716.61
3949
2651.33
2025.11
1744.62
1542.73
1337.76
1159.27
1009.49
885.636
778.165
691.105
636.415
602.427
586.285
581.833
586.028
596.55
16604.1
8561.19
7110.58
4618.09
3170.44
2209.83
1750.6
1498.73
1305.86
1096.89
961.823
817.279
723.092
637.176
582.937
544.202
522.122
511.708
511.389
516.905
6063.87
9416.7
7294.59
4567.29
3125.21
2193.3
1809.75
1538.11
1285.94
1057.08
885.82
746.877
656.36
585.802
538.211
504.027
482.436
471.119
467.435
469.078
11058.1
9756.55
6422.32
3761.95
2884.59
2183.13
1850.19
1574.59
1310.88
1079.6
898.38
761.989
665.497
596.053
547.904
513.809
490.698
477.193
470.887
470.6
16704
6927.2
5292.6
3305.74
2541.62
1947.21
1687.84
1414.5
1202.53
1018.81
880.61
775.445
691.391
625.576
576.212
542.284
519.177
506.246
500.99
501.506
14952.7
6556.85
3928.53
2655.51
2277.86
1700.3
1503.45
1251.83
1101.19
974.753
887.18
822.541
768.126
722.296
679.815
644.552
616.717
598.309
587.886
586.411
16960.5
6614.23
4114.05
2818.93
2021.84
1436.84
1142.94
956.555
845.829
804.343
761.723
757.689
746.418
748.839
743.616
736.907
723.515
713.558
700.206
691.559
5185.52
3654.34
2110.91
1562.57
992.82
688.536
562.977
500.802
450.683
404.973
359.406
317.891
286.547
262.76
249.806
236.351
229.76
217.23
210.642
194.653
1817.12
2293.44
1727.27
1167.01
962.359
712.676
668.313
540.533
517.839
450.029
437.808
399.404
389.535
365.756
359.577
346.443
341.453
317.144
305.944
251.067
7122.77
8352.41
6166.48
4109.5
3326.79
2364.18
2283.55
1814.1
1757.98
1529.36
1499.03
1401.04
1382.68
1335.2
1321.33
1289.85
1276.03
1246.11
1216.5
1143.04
13105.2
11099.5
8952.13
5674.6
4445.45
3016.01
2846.12
2273.25
2155.32
1858.19
1774.59
1616.17
1552.31
1443.69
1383.64
1294.52
1237.07
1162.29
1103.67
1023.06
12866.3
12107.2
11687.9
7276.87
5148.3
3388.26
3106.83
2534.76
2364.3
2030.59
1899.95
1692.31
1582.1
1430.79
1327.68
1205.5
1117.7
1024.58
955.855
879.077
13302.9
10203.9
9854.51
6012.18
4929.28
3548.55
3253.76
2713.71
2512.43
2210.77
2065.04
1843.29
1702.9
1512.27
1365.5
1203.5
1082.2
972.174
899.596
830.237
24119.7
10807.1
8446.65
5118.2
4709.15
3662.39
3358.44
2821.23
2569.63
2282.56
2122.76
1927.36
1783.2
1607.92
1453.54
1279.32
1140.09
1016.78
940.342
872.293
8167.91
11673.3
9467.65
5426.51
4918.46
3842.36
3179.24
2742.87
2350.36
2073.64
1896.91
1757.51
1657.85
1529.12
1405.44
1273.25
1169.02
1067.11
1000.13
933.962
67171.8
17003.7
9514.17
5566.01
4762.75
3845.33
3127.37
2543.93
2134.04
1818.66
1640.37
1517.47
1440.91
1346.09
1188.15
1108.78
1051.46
993.121
958.02
916.266
45040.6
14523.6
10283.1
6432.73
4020.05
3411.39
2913.25
2149.58
1743.99
1462.65
1308.52
1213
1158.36
1101.61
1025.64
957.185
933.01
909.408
895.954
872.479
17406.1
11069.8
6999.4
5446.28
3223.99
2677.01
2226.79
1728.6
1418.83
1155.01
973.729
867.425
893.743
914.378
906.406
905.291
905.085
899.88
894.406
876.343
9263.02
9737.63
5840.09
4377.8
2700.11
2252.77
1949.79
1638.48
1407.47
1167.56
948.883
780.139
821.321
882.775
897.422
907.229
908.277
908.841
907.767
892.989
10966.2
7775.49
6256.1
4382.35
2779.85
2407.94
2142.22
1801.05
1559.89
1350.89
1198.32
1077.24
1035.49
981.101
920.829
882.888
874.802
873.454
876.573
868.823
25801.6
9943.53
7319.32
4706.71
3050.93
2644.85
2054.58
1814.72
1580.27
1378.53
1239.08
1093.12
1002.61
913.906
842.659
799.676
785.815
782.627
785.906
786.954
33080.2
10261.9
7330.62
5248.42
3378.58
2641.81
2088.93
1910.81
1557.06
1340.88
1167.91
1008.78
914.115
821.566
770.842
731.085
716.38
709.687
712.295
715.8
18478.9
9765.38
7403.87
4976.05
3313.72
2576.22
2113.38
1824.85
1514.38
1245.97
1081.33
930.493
849.143
770.628
726.352
691.023
674.834
666.458
666.584
667.223
7394.52
9685.04
6492.89
4543.02
3170.38
2522.91
2107.23
1798.02
1511.08
1232.76
1084.36
932.052
858.142
779.061
741.982
703.13
686.896
675.201
673.81
672.181
15823.1
9710.21
5847.11
4117.76
3042.07
2338.08
2016.55
1635.51
1436.53
1186.76
1085.35
948.079
885.308
804.911
770.616
732.722
718.696
708.197
707.663
707.017
20814.3
8814.38
4918.35
3759.55
2855.86
2039.01
1826.05
1473.35
1359.44
1175.74
1125.69
1029.2
993.216
924.496
890.665
842.8
823.081
804.58
800.987
798.592
2417.11
7046.3
5334.04
3376.41
2439.13
1559.07
1397.76
1108.92
1102.76
998.038
1015.61
978.99
991.877
974.047
969.472
940.998
924.811
900.542
888.624
880.322
1401.69
2508.14
2291.83
1620.65
965.211
632.445
527.098
455.894
406.265
360.226
324.362
294.779
273.916
255.868
241.089
223.696
210.046
193.134
185.35
170.37
726.266
835.495
570.028
946.547
826.051
940.449
654.656
608.104
518.335
423.46
788.949
688.385
594.349
502.672
579.328
920.15
842.851
961.729
675.237
1057.31
964.917
437.921
822.98
783.127
616.738
539.365
939.462
874.209
255.289
184.576
182.77
1221.01
1207.53
1030.64
955.77
232.568
179.652
161.729
1175.56
1048.07
916.102
767.521
199.078
152.791
116.482
1002.95
874.112
717.794
577.979
152.8
106.018
88.1442
826.64
691.075
539.872
453.8
111.022
83.2126
73.0037
640.862
501.265
430.708
381.219
68.0724
73.0027
77.3178
444.009
384.897
373.153
349.623
81.0663
76.878
68.6508
383.414
388.206
339.412
304.483
81.7467
66.3608
54.6353
386.762
387.643
295.923
277.693
159.43
175.317
136.387
963.275
859.86
878.59
720.308
137.75
130.105
117.884
816.239
676.06
668.155
576.793
102.27
115.972
114.498
632.72
525.806
561.956
535.895
90.2854
115.167
117.213
501.675
447.57
531.581
501.057
80.661
116.048
98.3534
429.57
384.856
481.264
396.751
80.0484
91.0187
84.2335
374.961
340.029
372.424
331.191
65.4963
83.1346
80.1012
326.107
282.29
325.8
317.879
47.6959
78.5688
60.5609
270.035
249.626
313.485
273.975
124.611
155.272
102.6
836.568
699.164
726.482
677.763
114.981
95.2609
92.9744
652.409
573.555
646.48
589.9
117.649
98.3129
109.486
561.633
540.034
583.955
564.734
119.841
109.475
101.448
536.158
502.781
556.736
515.051
98.5265
95.6063
90.5806
482.618
402.1
498.638
481.942
86.7838
92.2281
112.959
380.968
357.88
485.791
504.507
89.6211
113.27
103.868
358.834
364.4
501.852
472.991
70.7409
102.694
96.9118
363.341
326.503
461.38
421.956
117.659
231.539
140.77
751.817
713.498
771.407
782.135
95.8904
134.262
117.05
684.655
625.047
779.196
746.845
121.415
119.684
139.006
622.953
616.635
737.061
726.233
120.013
142.005
135.23
611.595
571.933
710.088
639.334
102.854
131.679
111.14
554.769
531.174
611.501
541.486
115.516
104.687
86.9896
533.772
528.77
514.848
452.675
98.2272
87.9266
85.4371
515.865
470.916
436.394
407.59
94.2096
86.7846
69.1246
457.252
415.636
396.082
366.74
1425.64
1245.47
1108.51
2104.24
1840.14
1686.53
1433.03
1194.22
1055.71
876.584
1733.56
1461.48
1347.85
1104.94
979.06
819.954
668.104
1385.16
1168.14
1036.41
864.631
769.81
627.207
531.015
1102.49
917.877
819.036
704.577
566.936
504.9
447.023
863.323
723.097
672.948
595.945
460.971
435.609
401.234
690.878
634.931
576.578
519.835
449.181
388.63
349.604
625.812
595.14
502.797
457.659
438.708
340.454
319.298
589.478
569.917
448.413
430.615
1000.82
1041.92
839.015
1559.51
1306.24
1353.75
1104.73
780.26
779.615
672.829
1225.21
1009.92
1036.18
900.646
614.637
654.181
618.175
952.067
815.31
872.001
806.541
520.843
610.901
556.881
780.545
685.158
787.618
613.816
444.474
530.073
434.281
655.21
575.534
567.313
454.161
385.752
407.889
361.736
553.165
487.854
424.794
387.754
322.239
356.372
348.953
468.245
417.556
390.483
396.61
287.681
343.849
296.119
406.457
393.169
392.025
355.399
822.354
923.183
837.946
1314.51
1100.24
1320.82
1199.33
672.458
800.064
719.606
1035.99
906.712
1147.24
1011.38
623.336
704.558
663.809
879.308
816.263
976.878
889.66
559.525
650.965
600.626
798.84
619.876
865.66
793.896
443.346
583.878
564.138
573.632
471.934
775.111
741.578
396.107
566.286
572.486
451.168
443.349
735.64
707.158
402.766
566.668
532.653
453.256
464.392
693.241
638.513
351.95
517.501
459.237
459.172
403.135
615.316
537.911
883.229
998.841
966.285
1381.71
1251.6
1381.44
1316.32
768.05
955.087
896.22
1206.16
1075.06
1282.44
1184.98
720.152
875.738
833.063
1040.5
945.853
1140.43
1036.2
657.339
809.326
723.987
920.226
844.536
1000.76
891.117
614.304
693.189
619.245
825.819
785.554
856.63
776.44
595.476
593.168
527.021
775.362
727.004
750.55
677.08
532.908
508.983
469.795
708.032
644.906
654.852
595.069
456.215
455.696
412.942
620.29
542.978
575.391
518.017
1928.09
1798.3
1510.57
2572.86
2114.38
2061.1
1688.1
1517.37
1416.57
1159.02
1970.82
1637.65
1573.92
1289.72
1207.35
1088.36
912.814
1546.42
1301.54
1215.81
1031.52
953.423
866.288
748.204
1233.49
1058.18
982.082
855.216
768.315
715.448
633.784
1013.46
900.367
820.046
728.11
682.272
612.545
551.381
877.147
816.933
703.625
638.47
636.815
533.729
488.518
805.236
760.792
622.214
583.992
607.037
479.708
462.155
753.088
720.004
577.816
564.539
1381.09
1430.44
1174.94
1904.38
1559.24
1626.33
1358.91
1067.23
1104.57
961.907
1457.01
1210.52
1284.71
1124.9
865.791
930.363
855.961
1146.82
989.751
1084.63
980.236
825.385
793.994
818.683
871.861
786.173
834.786
861.029
668.892
663.511
677.259
728.849
642.058
696.285
706.537
514.551
401.365
387.815
659.941
587.95
475.336
459.365
445.12
396.556
407.476
570.157
533.413
461.115
464.601
423.712
403.912
375.807
528.371
525.623
464.885
464.607
1173.85
1423.41
1288.68
1601.77
1365.93
1677.4
1506.54
969.608
1232.32
1082.56
1293.92
1136.84
1437.34
1257.56
867.31
1043.91
946.686
1097.52
997.461
1210.35
1090.23
844.542
752.252
857.68
879.292
808.362
660.849
904.88
675.021
485.795
678.248
410.212
650.316
380.879
702.156
449.46
773.771
735.232
524.747
522.2
854.389
792.283
476.261
719.003
657.774
525.153
520.637
771.34
701.9
418.85
633.035
553.479
515.292
491.927
677.351
606.737
1339.95
1482.19
1396.77
1720.92
1551.98
1738.33
1580.8
1145.74
1356.4
1247.61
1488.08
1312.57
1528.21
1389.3
1000.17
1197.55
1082.36
1264.07
1134.52
1330.25
1195.81
890.579
1045.29
931.408
1099.3
1004.28
1155.75
1034.52
823.904
896.163
814.363
979.374
909.825
998.435
909.742
755.169
788.309
712.084
887.705
817.181
881.636
797.238
666.524
688.74
624.335
793.645
718.455
770.812
699.35
561.35
603.955
543.174
692.774
619.624
677.501
615.571
2156.39
2130.41
1735.2
2844.81
2256.56
2312.2
1870.85
1670.33
1616.97
1330.1
2100.5
1776.64
1749.49
1473.06
1333.66
1256
1068.76
1689.1
1457.68
1400.72
1202.29
1098.76
1018.02
888.193
1399.19
1261.75
1146.53
1011.23
949.599
852.457
758.883
1230.91
1143.22
976.728
891.248
867.984
734.504
673.021
1127.21
1076.76
874.603
852.451
810.332
659.127
626.739
1067.18
1020.93
851.919
843.384
765.189
621.826
608.004
1010.46
959.999
841.627
823.877
1609.34
1685.32
1416.91
2150.55
1762.02
1868.78
1607.36
1255.83
1342.45
1178.73
1657.32
1415.48
1537.27
1367.94
1027.51
1135.22
1017.95
1347.79
1156.69
1311.31
1142.82
855.491
980.738
759.188
1101.3
961.138
1089.75
919.613
713.82
697.451
569.183
921.758
822.246
862.25
715.839
617.349
534.778
496.536
801.343
782.903
680.928
663.41
574.979
495.27
501.245
788.073
796.545
680.494
730.172
569.905
504.324
509.826
798.788
793.37
740.344
749.018
1426.34
1755.38
1570.98
1861.32
1621.91
1996.15
1769.07
1192.18
1498.05
1312.38
1552.63
1386.16
1688.91
1499.39
1036.87
1263.24
1135.78
1331.4
1168.68
1446.5
1291.63
783.945
1100.19
1001.76
1118.42
952.445
1246.55
1128.71
615.703
974.018
899.598
897.324
759.619
1094.46
997.294
555.333
876.923
811.182
725.638
705.002
971.467
929.057
549.919
790.605
724.574
719.852
758.359
922.448
887.971
532.415
701.801
636.067
764.567
761.719
873.78
825.079
1614.3
1814.33
1635.39
2040.73
1804.79
2055.33
1798.31
1363.57
1579.17
1433.13
1725.56
1537.25
1734.77
1580.06
1178.07
1372.71
1235.15
1485.72
1332.64
1521.92
1376.63
1040.37
1194.05
1071.54
1287.95
1172.85
1332.44
1217.09
936.362
1035.21
944.031
1140.71
1046.23
1183.23
1085.65
839.449
914.763
828.215
1020.64
969.239
1053.48
974.225
743.252
801.457
729.982
955.723
905.807
950.752
888.054
649.191
708.215
646.288
888.346
832.839
866.562
809.113
2307.31
2385.5
1934.26
3289.41
2725.98
2861.51
2381.23
1829.92
1813.27
1541.5
2539.32
2219.93
2263.03
1989.5
1518.97
1469.21
1264.08
2120.47
1920.36
1916.6
1685.61
1336.59
1206.22
1071.08
1862.6
1750.42
1622.06
1478.03
1228.18
1038.17
960.27
1722.21
1657.92
1446.79
1389.12
1167.9
948.327
949.829
1640.23
1602.87
1394.11
1470.61
1113.54
954.677
952.881
1590.31
1551.91
1482.61
1483.59
1046.26
951.527
928.183
1534.92
1430.27
1482.16
1400.36
1832.52
1954.05
1691.81
2753.84
2302.02
2504.85
2188.59
1488.95
1623.14
1448.99
2201.27
1951.29
2122.61
1920.12
1214.36
1386.27
1195.66
1872.65
1627.43
1839.07
1590.79
1012.12
1137.22
968.804
1558.12
1398.6
1513.79
1321.93
882.012
912.955
768.659
1361.59
1290.48
1265.88
1138.31
879.272
740.171
757.541
1295.45
1410.32
1135.47
1292.13
911.696
790.071
854.04
1445.34
1463.87
1370.15
1441.56
901.784
864.662
865.588
1464.43
1376.53
1445.78
1362.3
1706.75
2095.86
1850.26
2539.59
2202.16
2643.27
2321.99
1468.24
1768.11
1578.32
2135.92
1937.05
2236.27
2033.09
1223.55
1523.23
1355.97
1858.73
1619.73
1966.19
1761.37
1003.35
1307.07
1182.95
1545
1354.76
1699.02
1547.33
809.436
1147.09
1045.34
1297.47
1162.24
1503.16
1390.56
791.947
1021.83
1001.75
1156.81
1302.03
1380.08
1450.45
875.476
1002.93
980.768
1377.85
1446.24
1477.05
1480.06
875.579
969.845
923.988
1448.98
1363.84
1475.14
1383.53
1883.99
2157.52
1877.82
2692.25
2357.45
2728.47
2409.88
1612.4
1809.85
1649.06
2267.3
2059.92
2311.9
2083.6
1398.6
1591.54
1442.21
2001.33
1807.77
2022.53
1868.84
1231.78
1397.31
1285.46
1748.81
1607.94
1811.82
1690.27
1100.79
1253.12
1153.34
1568.41
1465.49
1658.25
1567.42
1044.01
1121.54
1048.22
1454.44
1495.22
1532.86
1478.84
995.545
1027.31
968.905
1499.25
1484.01
1461.68
1427.31
928.836
948.394
892.777
1476.69
1386.52
1404.1
1304.88
785.583
759.938
713.156
762.826
749.985
798.562
745.249
813.97
821.708
748.656
866.813
781.25
863.584
687.389
750.457
678.743
644.66
446.613
728.547
693.406
525.323
861.224
910.549
905.209
933.973
871.441
899.048
894.029
819.013
795.759
865.215
805.188
833.284
775.932
850.175
849.566
898.935
937.113
846.609
901.829
707.871
886.3
782.314
469.346
762.662
737.071
721.434
549.013
822.901
632.877
635.03
577.926
637.059
608.45
665.875
600.433
599.28
634.461
471.268
399.807
592.496
644.862
358.302
553.58
515.239
439.674
381.456
549.586
523.129
356.047
694.961
760.111
753.259
762.088
725.881
734.797
720.522
656.865
663.417
720.084
644.267
693.875
622.102
681.15
620.25
419.701
708.219
550.923
669.24
382.265
657.62
574.66
408.93
579.551
527.346
544.57
380.422
613.846
785.88
650.504
713.95
454.165
758.308
525.484
738.061
900.516
882.785
893.184
969.184
853.365
932.184
940.339
866.669
792.003
867.57
887.006
821.981
834.89
912.957
893.871
914.309
865.439
993.02
698.001
951.49
943.202
831.179
485.987
756.188
834.047
559.023
781.531
884.142
945.301
1014.39
1020.07
1024.89
977.705
983.821
986.592
910.099
927.353
915.777
994.107
876.637
954.78
950.67
661.429
450.917
617.747
396.019
633.081
374.297
646.895
786.321
766.937
806.356
865.626
745.781
808.504
847.084
770.656
720.569
794.172
818.2
731.501
756.721
832.271
713.284
440.595
574.687
792.451
412.942
743.449
757.451
696.648
435.835
551.537
716.353
410.637
681.853
734.215
824.44
904.041
885.38
915.962
848.44
883.174
858.669
805.765
847.972
813.943
894.874
787.656
865.319
835.957
481.8
540.905
466.936
1067.66
1171.17
1047.58
1151.57
436.198
433.081
406.317
1124.61
1088.89
1130.76
1084.83
366.679
382.879
356.619
1034.73
986.375
1024.54
948.886
309.304
329.781
288.787
882.305
784.414
871.844
773.616
203.59
247.949
201.425
663.717
540.397
670.218
545.269
129.624
155.316
128.559
420.516
368.59
424.683
355.781
126.312
125.076
129.37
365.713
380.615
350.642
361.037
134.924
138.927
130.888
394.213
448.965
372.147
399.948
466.473
414.262
362.604
1009.07
999.285
987.329
945.673
534.672
263.046
251.332
526.037
565.173
488.131
208.926
602.782
253.047
218.77
605.083
601.534
607.556
218.032
529.224
219.083
201.723
558.343
548.032
549.805
194.719
405.842
181.35
162.026
471.771
447.474
442.075
145.023
296.162
134.013
111.801
354.74
335.228
319.166
104.234
186.425
83.3402
71.7062
224.237
191.027
199.311
66.896
208.178
73.4037
72.1514
181.076
198.674
198.468
76.6136
214.199
85.5161
80.8504
225.82
229.865
214.488
81.1369
131.307
118.949
97.5204
330.602
351.848
272.694
282.427
339.754
419.042
345.46
970.258
884.323
945.936
872.474
431.671
163.124
164.482
423.702
465.217
406.2
151.535
384.66
151.47
139.269
455.323
434.73
404.075
134.392
304.193
118.678
114.152
361.395
334.394
323.182
107.59
271.63
95.4179
96.985
275.144
267.006
272.714
96.9934
256.603
82.7807
97.8997
240.724
230.471
265.367
95.6437
223.474
81.3636
86.1754
218.508
216.821
228.897
85.4364
191.487
73.6719
78.6294
199.785
190.552
200.781
75.1375
148.555
57.5917
61.455
160.879
151.905
158.666
56.722
77.191
91.9317
61.7144
208.651
228.327
193.939
185.382
319.342
363.073
289.211
818.725
778.597
732.65
655.462
356.863
145.853
163.18
372.711
383.789
349.755
137.806
311.693
116.195
108.2
344.749
332.242
321.176
106.318
306.383
115.584
108.747
317.76
316.43
305.362
110.456
307.949
120.24
114.805
318.314
318.857
308.622
115.469
288.33
114.86
115.02
309.641
297.166
299.369
111.931
238.314
86.9884
90.1054
238.164
228.468
240.473
88.3015
258.489
88.8955
94.7821
226.931
229.52
252.579
97.8706
258.557
89.3868
99.4757
230.802
229.055
261.312
98.9139
90.554
167.337
125.308
289.128
232.326
344.74
312.932
311.107
411.308
350.298
757.616
669.932
789.363
712.162
310.803
144.476
190.008
308.778
306.282
314.858
155.93
284.615
100.959
121.285
294.351
279.917
308.303
111.237
312.273
106.46
97.9058
295.099
316.157
285.905
102.638
390.902
124.587
133.664
350.154
349.867
383.448
139.025
367.355
105.918
138.75
316.141
296.022
380.866
135.239
339.498
108.938
124.614
298.356
310.54
343.291
122.798
269.47
110.895
110.755
319.16
305.155
307.249
96.9419
255.9
99.961
92.739
270.624
270.401
255.235
95.685
121.847
142.041
113.02
343.382
326.697
308.216
311.698
225.191
300.434
196.25
501.484
526.901
509.399
479.351
196.351
179.763
171.259
539.326
564.285
469.213
474.959
194.297
171.108
162.173
555.446
551.859
460.346
457.121
172.418
167.166
164.822
514.615
478.981
426.107
421.003
149.312
161.07
152.611
436.854
412.021
399.782
392.304
137.898
149.926
144.713
384.987
372.948
365.232
351.486