/*--------------------------------*- C++ -*----------------------------------*\
  =========                 |
  \\      /  F ield         | OpenFOAM: The Open Source CFD Toolbox
   \\    /   O peration     | Website:  https://openfoam.org
    \\  /    A nd           | Version:  10
     \\/     M anipulation  |
\*---------------------------------------------------------------------------*/
FoamFile
{
    format      ascii;
    class       volScalarField;
    location    "7.6";
    object      p;
}
// * * * * * * * * * * * * * * * * * * * * * * * * * * * * * * * * * * * * * //

dimensions      [0 2 -2 0 0 0 0];

internalField   nonuniform List<scalar> 
12920
(
333477
418207
281414
311451
230762
224644
178987
163225
130184
114607
92224.9
78730.5
63079.5
52133.1
40543.8
31483.8
22853.2
16535
10608.1
3629.93
413434
460910
328442
324586
240864
225168
177868
160527
128404
112961
91268.2
77870.5
62140.4
51252.9
39929.6
31025.4
22434.9
16035.1
9972.75
3377.97
501819
400961
256063
289477
205697
205245
162417
149007
120604
106946
87146.6
74647.3
60015.8
49611.3
38720.8
30150.3
21876.4
15425
9210.96
3105.84
266883
380273
308316
287595
213984
194263
152965
137291
111040
97567.4
80618.8
69680.7
56438
46576.8
36497.8
28384.9
20770.3
14580.1
8306.26
2674.59
232606
302054
213243
226149
159699
160498
127035
116864
94840.1
84171.5
68982.5
59938
50394.3
42139.5
33119
25977.6
18927.8
13203.5
7261.68
2169.11
369255
281150
191013
189321
132698
133552
108428
98451
81854.3
72067.7
59936.8
51392.9
42668.9
35908
28762.5
22324.5
15942.7
10527.7
5425.68
1188.16
-88536.1
156992
113270
143914
94221.4
99314.5
80946.5
76030.2
63248.8
57136.4
47892.4
41577.9
34023.9
28945.2
23470.9
18297.8
12531.6
8050.95
3704.67
430.594
-3621.17
62248.8
50245.3
90017
46231.5
67295.8
60474.9
57031.3
50587.6
44888
38563.6
32969.4
27517.8
22995.3
16540.9
12886.6
8375.17
4781.76
1459.9
-751.228
298188
105459
43828.2
55620.5
15449.5
42339.1
38973.6
35956
32705.5
29172.4
25727.1
22268.2
19101.4
16156.6
12345.9
7653.17
4313.35
1881.82
-910.205
-1955.62
-195198
-49134.6
-60291.9
1131.66
-24484.5
8683.03
12117.7
12134.5
11940.1
11271.7
10451.1
9414.03
7899.53
7482.07
5705.74
2601.67
512.3
-862.464
-2768.63
-2891.86
-376311
-93105.2
-102127
-31362.7
-54440.2
-22657.6
-16587.5
-13953.8
-11453.9
-9192.68
-7037.84
-5415.31
-3876.38
-2068.59
-975.807
-2406.14
-3669.11
-3773.06
-4687.83
-3776.26
-514068
-162853
-212715
-85897.4
-97301.8
-60811.4
-49284.1
-41486.3
-34240.8
-28191.3
-23018.6
-18217.7
-13971.5
-10503.9
-10145.5
-9461.9
-8945.14
-7377.12
-6870.7
-4799.54
367806
2968.77
-127452
-83249.8
-123218
-89322.8
-82817.2
-68748.6
-57136.9
-45920
-38033.7
-32005.5
-27021.8
-22631.9
-19882.8
-16323.5
-13477.2
-10471.7
-9430.63
-6505.47
-20915.4
-84919.6
-181993
-130318
-156858
-120179
-116608
-91764.8
-80329.6
-65167.3
-55971.3
-45090.8
-38344.9
-31710.9
-27053.9
-22180.1
-18402
-13675.3
-11606.8
-7804.3
-250452
-153953
-281225
-191648
-207868
-159447
-147388
-117295
-100639
-81159.4
-68440.9
-55533.8
-46503
-38862.3
-33364.7
-27486.6
-22636.6
-16732.2
-13401.6
-9033.6
-541942
-294792
-299424
-231710
-240222
-189889
-176975
-138977
-122333
-96781.6
-83070.5
-67325.7
-57465.5
-46478.3
-39272.4
-31925.2
-26095.6
-18999.5
-14860
-9597.4
-701315
-452507
-448577
-312535
-302034
-228566
-204418
-162363
-140789
-114208
-98084.6
-80361.8
-67708.6
-54602.8
-44997.5
-35902.8
-29035.3
-21317.6
-16396.2
-10318.6
-774066
-572938
-477722
-359268
-331488
-253788
-224438
-179088
-155978
-127391
-110060
-89725.7
-75710.1
-61192.7
-50551.4
-40122
-32049
-23101.5
-16875
-10038.9
-1.10493e+06
-697531
-545221
-394718
-355565
-276620
-242649
-195970
-168531
-136704
-117169
-95587.1
-80575
-65189.4
-53805.1
-42562
-33607.4
-23905.7
-16137.7
-9178.62
-555781
-595950
-540858
-404502
-362746
-286324
-251268
-201050
-173427
-140634
-120684
-98138.1
-82959.5
-66963.4
-55308.5
-43629.6
-34333.9
-24092.2
-15576.6
-9247.36
356734
424403
286316
313074
230508
224796
178626
163000
130222
114609
92172.8
78675.4
63002.6
52079.3
40514
31421
22687.5
16249
10175.1
3211.84
530675
489201
332051
325722
240551
225612
177843
160599
128553
113037
91135.7
77706.6
62101
51242
39916.9
30994.6
22335.3
15911.8
9626.26
3013.89
408317
399917
256081
289509
206234
205290
162262
148916
120470
106782
87090.9
74728.1
60012.8
49621.2
38730.7
30164
21840.2
15353.6
8847.41
2010.41
465061
408672
313323
288355
213878
194340
152973
137054
110939
97466.8
80600.1
69538.3
56359.5
46528.6
36492.9
28452.6
20798.7
14528.1
7979.11
1299
322474
307877
211799
225299
160155
160381
126629
116702
94697.1
84275.3
69035.6
60012.8
50059.1
41944.4
33093
26006.3
18940.3
13084.3
6822.62
771.842
326585
269294
190281
188063
132428
133433
108223
98343.6
81826.3
72001.3
59861
51332.1
42538.2
35804.1
28737.6
22356.2
15799.8
10512.1
5182.68
161.411
-115131
128748
113488
141324
93511.5
99653.4
81114.5
76062.1
63306.8
57115.7
47924.3
41470.6
33814.3
28778
23428.1
18224.6
12428.1
7979.03
3320.15
-907.992
-54206.5
60087.2
53265
90102.5
46790
67958.6
60515.1
57216.3
50703.9
44934.3
38602.9
32863.8
27414
22998.7
16526.1
12966.7
8451.55
4805.74
1101.09
-2000.47
201897
99158.8
43582.4
55361
15735.6
43445.4
38995.5
36307.6
32929.8
29368.3
25835.8
22295.8
18861.8
16298.1
12637.4
7766.05
4379.17
1945.38
-1193.5
-3253.66
-279986
-74909.2
-67905.5
429.742
-26634.7
9909.83
12266.8
12131.5
11838.2
11287.4
10402.9
9132.17
7886.87
7702.74
6147.93
2839.63
595.153
-869.805
-3076.03
-4075.68
-367798
-100347
-104887
-31365.6
-59006.6
-21755.8
-16462.6
-14208.1
-11663.2
-9167.05
-7062.34
-5490.68
-3734.2
-1847.57
-786.394
-2354.18
-3618.69
-3844.2
-4959.3
-4741.98
-412424
-169636
-210943
-87704.1
-101001
-59266.3
-49626.5
-42022.4
-34255.2
-27987.8
-22630
-17884.7
-13921.4
-10587.8
-10068.2
-9375.51
-8888.38
-7289.71
-7133.67
-5739.45
130209
-17980.3
-134594
-84790.1
-124518
-89323
-82991.2
-67656.4
-56402.1
-45552.8
-37818.1
-31897
-26924.4
-22604
-19595.1
-16392.9
-13714.3
-10642.5
-9536.51
-7363.9
-120807
-76648.2
-186048
-130293
-156518
-119908
-116986
-91632.9
-80032.5
-64619.6
-55608.4
-44867.6
-38272.5
-31638.1
-26916.3
-22059.6
-18439.2
-13852
-11793.7
-8712.27
-304597
-155716
-291446
-191014
-207493
-159351
-147281
-117037
-100527
-80866.4
-68370.8
-55777.7
-46876
-38943.4
-33364.9
-27394.9
-22545.6
-16674.4
-13503.4
-9749.16
-567064
-279210
-299275
-231497
-239642
-190348
-177135
-138821
-121964
-96734.2
-82870.8
-67342.5
-57398.1
-46716.1
-39429.4
-31911.6
-26137.8
-19102.2
-15038.6
-10326.5
-647006
-452737
-447490
-314124
-303234
-228746
-204285
-161749
-140199
-113717
-97842.4
-80063.8
-67598.8
-54447.5
-45020.2
-36043
-29157.3
-21394.9
-16497.6
-10924.7
-787116
-566996
-473940
-358197
-330642
-252749
-224109
-178715
-155927
-127306
-110141
-89704.2
-75725.9
-61199
-50573.4
-40161.2
-32126.8
-23194
-16946.8
-10731.9
-1.11169e+06
-680544
-543152
-394780
-355904
-276275
-242575
-195810
-168436
-136764
-117238
-95753.1
-80657.9
-65280.2
-53884.5
-42640.1
-33695.4
-23960.2
-16195.9
-9362.41
-582748
-603812
-544078
-406659
-363526
-286608
-251040
-201398
-173414
-140524
-120628
-98144.3
-82946
-66961.4
-55315.8
-43631.8
-34341.7
-24105.5
-15629.9
-9234.62
359953
474759
284577
316015
231972
226643
178876
163132
130093
114614
92108.9
78677.3
62951.5
52040.5
40491.6
31273.6
22319.7
15899
9494.07
2414.79
674369
500967
329457
325365
240997
226307
177859
160347
128495
113053
91019.7
77639.6
62077
51231.4
39910.8
30960.3
22175.9
15682.8
8997.73
1499.45
268541
438505
246227
288903
206656
205508
162327
148680
120367
106522
86969.5
74716.7
59963.1
49627.7
38743.2
30211.3
21767.1
15178.3
8267.45
24.9654
575091
433714
317511
290704
214474
194490
153125
136806
110710
97144.1
80332.1
69165.2
56206.9
46426.6
36535.9
28657.6
20793
14404.3
7484.72
-996.468
350625
316930
210497
224182
161155
160423
126529
116567
94542.8
84128.3
69009.3
59996.3
49694.1
41669.4
33028.3
26208.1
18869.2
12891.4
6221.72
-1519.76
224924
267261
191424
188915
132857
133473
107984
98142.3
81729.6
71843.9
59752.5
51179.7
42357.4
35589.1
28580.5
22319.5
15934.8
10502.8
4729.58
-2116.11
-57387.5
118482
111364
139391
93314.1
100128
81412.1
76256.1
63488.2
57174.3
47960.9
41393.4
33582.8
28643.7
23288.1
18281.4
12389.9
7920.37
2769.45
-3049.42
36439.1
74588.7
58569
91034.1
47521.1
69106.1
60680.3
57527.6
50890
45036.1
38571.9
32731.3
27084.8
22941.4
16628.3
13201.2
8560.99
4841.04
641.306
-3913.95
276393
112417
48483.3
56228.5
15461.6
45036.5
39287.4
36810.3
33338.3
29760.2
26083.6
22343.8
18691.4
16287
13033.2
7928.55
4520.92
1991.2
-1536.4
-4656.5
-416338
-61331
-75858.4
1314.92
-29222.1
10328.5
12881
12332.3
11812.5
11474.9
10467.8
8713.19
7811.71
7835.21
6714.43
3167.94
676.804
-952.437
-3452.42
-5448.06
-416647
-97725.5
-106960
-32898.4
-61260.3
-23042.1
-16044.7
-14333.1
-12199.4
-8786.88
-7533.05
-5479.46
-3377.4
-1556.43
-565.482
-2283.95
-3640.23
-3975.47
-5312.5
-6223.79
-648754
-172668
-214921
-90511.2
-103365
-60774.4
-49412
-42132.3
-34245.5
-27602.8
-22039.1
-17501.1
-13848.5
-10601.7
-9627.57
-9267.44
-8742.1
-7148.87
-7369.35
-6936.24
51752.5
-34574.4
-139715
-84330
-128655
-88347.3
-83991.9
-67624
-55466.7
-44711.8
-37143.8
-31355.4
-26596.1
-22162.9
-19345.8
-16266.2
-13786.9
-10652.7
-9465.6
-7687.19
-147028
-94578.1
-188847
-127253
-159591
-119100
-118828
-91263.4
-79913.5
-63835.8
-54911
-44292.2
-37977.6
-31447.4
-26609.4
-21806.1
-18444.4
-13946.9
-11771.4
-8706.09
-327866
-158980
-281953
-185771
-207704
-157714
-148592
-116580
-100532
-80455.7
-68317.8
-55926.3
-47112.6
-38991.8
-33103.8
-27076.3
-22343.3
-16790.3
-13579.7
-9400.27
-263224
-221745
-299316
-227209
-242195
-189694
-177713
-137976
-121587
-96546.8
-82956.9
-67640.9
-57529.9
-46975.7
-39514.8
-31819.6
-26127.4
-19243.2
-15186
-9991.01
-622278
-459806
-446731
-314972
-305098
-227898
-203594
-160741
-139627
-113321
-97763.3
-79897.2
-67607.2
-54665.4
-45307.9
-36234.4
-29331.5
-21561.2
-16424.8
-10596.9
-815729
-558369
-467844
-355250
-330254
-251100
-223978
-178356
-155957
-127016
-110223
-89572.6
-75733.3
-61213
-50640.5
-40219.3
-32224.7
-23360.7
-17017.7
-10775.5
-906233
-664521
-536477
-395030
-355053
-275158
-242337
-194827
-167738
-136590
-117252
-95648.1
-80610.3
-65261.9
-53887.3
-42648.8
-33754.6
-24023.4
-16200.5
-9694.85
-667809
-639982
-546038
-407961
-362662
-285918
-250379
-201079
-173252
-140457
-120632
-98163.3
-82886.7
-66961.6
-55299.2
-43621.2
-34357.9
-24142.4
-15724.2
-9234.34
465795
473145
286110
320171
231252
228574
179218
163181
130053
114679
92235.3
78750.7
62998.5
52064.7
40492.7
31176.7
22078.9
15607.1
8856.59
1036.54
607357
520860
326053
326080
240744
227588
178025
160241
128290
112612
90934.1
77558.9
62145.7
51249.6
39954.3
30954.6
22042.2
15439.9
8421.73
-54.9518
436484
431754
240793
290725
206951
206117
162416
148304
120019
105570
86649.6
74269.4
59803.6
49546.6
38707.4
30203.8
21655.4
14927.4
7864.58
-522.392
483719
441569
321657
293260
215612
194462
153285
136484
110404
96337.3
79615.3
68172.5
55724.1
46133.4
36442.4
28657.9
20617.3
14093.2
7065.04
-939.95
143203
293342
207333
221949
162785
160426
126459
116305
94289.4
83661.9
68868.6
59667
49158.8
41178.5
32764
25884.8
18405.4
12356.5
5650.66
-1464.16
148517
252499
188654
187501
133750
133251
107751
97724.8
81488.1
71472.8
59454.7
50856.6
42036.4
35202.2
28211.9
22126.2
15761.3
10218.3
4213.36
-2215.67
-54130.4
104017
111387
136979
94683.4
100150
81475.3
76160.9
63355.3
57164.5
47835.8
41321.5
33508.2
28660.7
23151.6
18393.4
12334.4
7873.24
2428.42
-3017.88
146266
93320.3
66642.7
91087.8
49436
69736.4
60392.3
57985.4
50806.9
45348.5
38550.8
32820.6
26900.7
22940.7
16714.9
13429.8
8589.52
4834.7
426.502
-3507.69
71249.4
124141
49008
56579.1
14361.8
47305.7
39338.3
37032.3
33583.8
30160.5
26442.3
22581.6
18733
16201.9
13314
7916.66
4610.58
1952.81
-1656.13
-3893.98
-315854
-84810.4
-76012.6
-1119.4
-30078.2
10475.1
12995.6
12415.1
12126.1
11766
10602.1
8872.61
7872.99
7808.02
7199.14
3223.19
684.937
-1088.11
-3596.28
-4703.63
-311247
-95913.2
-106748
-34634
-61747.5
-24967.2
-18577.2
-14442.9
-11408.2
-8062.76
-6845.4
-5027.27
-3211.11
-1300.59
-223.354
-2231.11
-3609.8
-4084.37
-5314.31
-5608.11
-667056
-225947
-215062
-94503.8
-104637
-62745.4
-49576.2
-41845.9
-33790.7
-26788.8
-21350.2
-17118.4
-13635.6
-10297.7
-9183.75
-9122.19
-8621.85
-7155.62
-7339.78
-6065.83
-4603.77
-25331.1
-156137
-81163.1
-133476
-86135.8
-84327.7
-69253.4
-55946.1
-44290.3
-36561.1
-30705
-25974
-21484.9
-19290.7
-16025.1
-13799.2
-10678.2
-9159.24
-6230.51
13947
-79627.7
-189184
-127008
-164208
-117206
-120967
-91517.8
-81898
-63775.2
-53963.8
-43552.6
-37605.2
-31148.7
-26346.8
-21518.8
-18457.6
-14001.3
-11435.1
-6801.7
-308395
-143368
-281693
-180457
-209124
-155587
-151386
-116160
-100813
-79866.7
-68239.4
-55882.2
-47348.5
-38851.4
-32783.6
-26622.1
-22065.6
-16835.5
-13203.5
-7309.07
-174874
-211822
-301733
-224722
-246036
-188395
-179020
-136714
-121203
-96255
-83081.1
-67808.9
-57730.3
-46984.5
-39475.6
-31626.2
-26104.4
-19356.9
-14915.7
-7888.91
-577882
-435561
-442867
-315267
-308692
-226919
-203253
-159588
-139166
-112849
-97744.8
-79691.1
-67702.4
-54738.2
-45496.1
-36269.4
-29476.6
-21718.4
-16104.6
-8530.49
-740199
-550059
-465227
-354648
-330521
-249150
-223906
-177751
-155847
-126560
-110170
-89245.7
-75742.2
-61132.8
-50739.6
-40231.7
-32436.7
-23584.6
-16884.3
-9335.12
-775041
-638496
-532726
-393967
-355644
-273630
-242247
-193597
-166694
-136190
-117117
-95486.3
-80504.8
-65250.5
-53877.1
-42658.3
-33842.1
-24197.7
-16250.4
-9669.94
-780587
-654246
-544527
-408352
-361606
-286038
-249779
-200486
-172935
-140432
-120442
-98035
-82774
-66927.8
-55250.6
-43603.7
-34373
-24194.6
-15853.2
-9573.82
454620
486828
273151
323544
229419
231683
180166
163454
130160
114745
92304.5
79344.7
63367.4
52390.6
40702.5
31177.5
21742
15290.9
8468.1
-755.56
562647
525326
323540
326645
241024
228973
178295
160027
127834
112094
90909.5
77526.2
62333.6
51412
40074.5
31049.2
22035
15290.8
8112.24
-592.471
460825
441941
237302
291239
208116
207471
162488
147803
119088
104794
86076.4
73619.6
59486.2
49223.4
38630.3
30171.9
21590.7
14698.5
7697.65
501.759
509436
446606
322214
294248
217154
194440
153235
135850
109533
95702.4
78916.1
67674.1
55002
45730.1
36164.5
28457.7
20338.2
13712.7
6817.84
636.791
121611
283582
205413
220536
164531
160323
126115
115976
93762.5
83148.3
68560.8
59431.8
48778.2
40793.6
32413.8
25749.2
18179.9
12065.1
5351.35
19.9547
173694
257979
189387
188037
135004
132788
107392
97288.3
81038.8
71001.7
59106.7
50651.7
41782.3
35001.8
27954.1
21965.9
15594.5
10059.9
3869.08
-717.951
-43214.4
103868
111885
136189
95783
100086
81120.1
76040.8
63013.8
57231.6
47669.2
41466.2
33741.8
28791.7
23174.8
18466.6
12268.9
7864.84
2265.01
-1392.98
167218
95709.4
66344.3
89854.4
49356.5
70280.4
59625.4
58408.5
50357.4
45682.6
38496.6
33055.6
27023.1
23194.9
16750.1
13643.7
8538.55
4774.46
363.162
-1916.56
317609
108970
53455.5
56960
13865.9
48019.1
39350.7
36783.4
33437
30174.2
26624.5
22879.5
18856.8
16374.7
13409.5
7788.09
4706.36
1843.18
-1695.46
-2235.09
-384407
-82651.5
-76011.1
-1507.88
-30756.7
10506.3
12028.3
11861.1
12004.4
11786.2
10704.8
9066.36
8023.97
7987.39
7577.65
3244.25
741.595
-1253.74
-3673.91
-3124.25
-420689
-107287
-103545
-34629.1
-62253.9
-26144.4
-20569.9
-15417.7
-10994.7
-8071.21
-5979.35
-4756.67
-2985.81
-1017.04
15.3764
-2107.85
-3515.12
-4274.59
-5476.6
-4079.3
-632005
-228998
-216775
-95393.5
-105415
-63730.3
-50941.8
-42332.8
-33586
-26220.3
-20629.6
-16721.1
-13326.6
-10170
-9226.3
-9075.47
-8403.37
-7153.46
-7357.29
-4356.34
-59977.1
-38427.5
-160850
-81683.1
-134440
-85931
-84440.7
-69736.6
-56798.7
-45059.5
-36688
-30487.6
-25921.1
-21383.4
-19476.2
-15691.9
-13758.1
-10642.8
-9047.16
-3738.55
41436
-74702.9
-188489
-126407
-164491
-117009
-121487
-91700.3
-83038.6
-64356.5
-54302.7
-43524.9
-37606.7
-30901.4
-26377.8
-21400.7
-18533.1
-14039.4
-11080.2
-3958.43
-234363
-147512
-277726
-179550
-209443
-154761
-153225
-115505
-101723
-80121.1
-68671.1
-55842.2
-47505.2
-38752.9
-32745.6
-26408.8
-22097.8
-16932.5
-12914.8
-4452.07
-142597
-199101
-302333
-223428
-247808
-186965
-180649
-136622
-121962
-96050.3
-83338.7
-67677.3
-57824.3
-46825.3
-39430.8
-31390.3
-26130.6
-19465.6
-14562.1
-5020.37
-550877
-427988
-440150
-316412
-309831
-226286
-204471
-159250
-139338
-112476
-97702
-79460.2
-67742.4
-54537.3
-45466.9
-36178.9
-29565
-21780.8
-15767.7
-5688.89
-541414
-528559
-459679
-353711
-331726
-248960
-224592
-177215
-155690
-126098
-109993
-88715.3
-75743.1
-60927
-50821.7
-40205.1
-32721.5
-23794.1
-16856.9
-6730.44
-755496
-641230
-534140
-395432
-356774
-272580
-242284
-192039
-164870
-135669
-116888
-95343
-80461.8
-65293.3
-53919.2
-42740.8
-33979.6
-24452
-16320.6
-9122.19
-949059
-692706
-552048
-410295
-360600
-285615
-249358
-200232
-172995
-140570
-120339
-98002.3
-82677.1
-66919.9
-55205.8
-43594.1
-34387.7
-24237.9
-15908.2
-10008.9
10842.2
-4616.24
-2797.72
11710.8
10985.8
-4224.03
-2498.45
9034.09
-2496.81
-2289.34
10598.6
9114.88
-2224.97
-2303.53
-8165.05
-23578.3
-20046.1
-8167.96
-7756.78
-23052.1
-19473.5
-6216.51
-18910.7
-15709.8
-7125.29
-6217.19
-18419.5
-15448.2
36822.9
20199.9
18166.6
39014
37016.7
20312.9
18206.8
34125.7
18296.5
17432.1
36178.1
34323.3
18308.9
17502.2
30246.2
17157.2
16136.9
32835.3
30362.7
17212
16212.3
26859.1
15863
14773.6
29288.3
27017.8
15935.6
14824.7
23275
14458.1
13203.2
25806.7
23356.9
14476.3
13129.7
20167.7
12911.9
11192
22312.6
20116.7
12773.1
11121
17231.2
10757.9
10064
18946.3
17431.7
10772.1
10134
14607
9862.98
8688.3
16255.9
14867.8
9990.56
9006.56
11618.6
-8808
-8280.15
12259.7
11661
-8582.84
-8241.76
11945.5
-7302.79
-5529.03
12117.2
11892.2
-7319.39
-5799.04
11437.4
-4949.77
-4024.15
11868.3
11410.2
-5215.76
-4093.34
10626.6
-3647.01
-2832.89
11275.8
10607.1
-3722.66
-2802.12
9675.28
-2507.31
-2019.09
10406.1
9539.1
-2524.01
-1966.6
8115.1
-1820.95
-1318.35
9234.79
8048.17
-1879.48
-1226.34
7656.63
-946.353
-349.215
7883.33
7781.02
-850.334
-87.9718
6742.96
146.935
1328.18
7643.97
7000.8
365.402
1456.7
-15197.5
-40350.2
-36201.4
-16427
-15289.5
-40546.8
-36746.4
-12049.9
-34437.9
-30577.8
-14109.5
-12229.2
-34949.7
-30700.9
-9832.9
-28979.4
-25095.6
-11533.5
-9753.65
-29059.1
-25021.9
-7630.37
-24020.4
-20939
-9141.03
-7537.92
-23875.2
-20717.4
-5811.29
-19761.3
-16428
-7031.11
-5785.91
-19593.6
-16348.7
-4366.89
-15414.5
-12676.3
-5471.62
-4229.2
-15140.3
-12482.6
-2687.69
-11684.1
-9149.28
-3812.11
-2496.22
-11546.3
-9114.75
-808.719
-8306.07
-6622.33
-1924.68
-702.013
-8309.86
-6559.44
-43711.2
-73420.7
-63436.7
-49463.6
-44058
-72865.8
-63202.9
-36210.1
-60546
-52038.8
-41826.5
-36208.7
-60203.7
-51731.6
-29561.7
-49494.6
-41932.5
-34229.6
-29478.8
-49347.2
-41615.2
-24358.7
-39807.8
-33521.9
-28069.4
-24104.5
-39595.7
-33412.8
-19476.2
-32195.5
-27308.5
-22765.8
-19137.8
-32125.2
-27285.9
-15096.8
-26435.9
-22707.8
-17967.2
-14973.8
-26432.5
-22701.2
-11367.3
-22012.3
-18595.8
-13931.8
-11371.6
-22019.4
-18492.5
-9079.83
-18077.4
-15391.5
-10551.6
-9052.71
-18022.5
-15172.8
37134.7
20329.7
18257
39339.4
37354.1
20690.7
18470.2
34463.5
18334.5
17539.9
36696.4
34843.1
18464.8
17677.7
30453
17238.4
16258.8
33240
30710.1
17333.6
16421.5
27099.2
15975
14857
29659.4
27320.1
16116.7
15008.7
23384.2
14491.1
13092.9
26019.7
23455.1
14561.2
12996.1
20060.9
12702.6
11087.2
22323.6
19904.9
12503.3
10980.5
17504.1
10770.9
10161.6
18697.8
17526.8
10680.4
10111.1
15066.9
10045.8
9181.97
16275.4
15251.8
10099.5
9481.08
11721.4
-8583.93
-8200.73
12810.3
11960.9
-8085.31
-8042.95
11875.4
-7316.98
-5970.25
12256.7
11894.3
-7197.23
-6345.56
11403.5
-5410.71
-4213.19
11785.2
11446.6
-5926.31
-4489.24
10618.9
-3827.57
-2839.33
11400.4
10751.5
-3727.77
-2814.85
9446.09
-2569.57
-2009.17
10430.9
9131.59
-2549.71
-2434.85
8023.65
-1916.15
-1167.44
8798.12
7922.25
-2085.52
-999.743
7829.79
-804.007
19.8237
7842.28
7820.93
-595.056
305.596
7172.72
465.43
1567.1
7823.17
7463.57
726.76
1730.23
-15345.8
-40777.7
-37076.9
-15937.3
-15363.3
-41054.1
-37911.5
-12387.8
-35230.1
-30769.4
-14328.4
-12857.4
-35972.6
-30903.6
-9793.75
-29132.7
-25005.5
-12174.8
-9999.47
-29277
-24985.9
-7562.92
-23817.2
-20584.3
-8859.92
-8042.22
-23640.6
-20169.6
-5779.22
-19471.3
-16175.1
-7472.29
-5978.96
-19038.4
-15763.1
-4178.28
-14983.7
-12389.3
-5427.05
-3954.03
-14665.4
-12120.9
-2407.91
-11492.3
-9098.6
-3443.63
-2148.18
-11316.6
-9033
-572.575
-8313.07
-6432.06
-1620.01
-438.628
-8294.24
-6269.18
-44225.1
-72643.9
-63028.5
-49503.7
-44508.1
-71586.8
-62269.8
-36213.7
-60066.4
-51532.3
-42201.9
-36193.7
-59245.9
-50631
-29422.9
-49271.9
-41428.8
-34276
-29226.1
-48729.7
-40827
-23960.3
-39420.8
-33320.9
-27702.7
-23447.1
-38888.4
-32923.4
-19025.2
-32072.5
-27250.4
-22186.7
-18615.1
-31789.7
-27083.6
-14936.3
-26420.2
-22703.1
-17602.5
-14800.2
-26258.1
-22675.9
-11381
-22029.9
-18486.9
-13870.8
-11422.1
-21944
-18453
-8943.14
-18001
-15093.3
-10633
-8663.41
-17894.9
-15076.5
37364.1
20687.2
18530.6
39532.5
37155.7
20838.1
18537
34958.4
18519.5
17739.7
37015.2
35339
18588.9
17954.8
30776.1
17380.3
16482.3
33567
30932.9
17563.5
16696.6
27372
16176.8
15077.4
30052.4
27690.4
16414.6
15301.3
23470.3
14595.7
12980.7
26347.1
23648.8
14798.4
13079
19860.2
12450.3
10942.2
22483
19859
12491.4
10982
17496.9
10637.3
10063.6
18691.5
17422.6
10617.5
9982.15
15341.9
10069.5
9633
16192.7
15425.7
9946.2
9816.45
12044.1
-8130.54
-8011.68
13279.2
12096.3
-8773.69
-8196.22
11944
-7165.23
-6331.88
12444.7
12177.6
-7143.01
-5962.73
11493.4
-5923.55
-4660.07
12052.9
11714.6
-5436.13
-4183.18
6376.68
11391.2
6240.8
11559.8
6294.47
11502.9
6283.85
6066.52
9994.01
6305.79
10525.8
5999.29
10006.3
6406.74
7894.61
-2137.13
-972.458
8772.49
7960.25
-1958.01
-906.876
7788.89
-551.177
368.916
7822.46
7672.72
-507.12
507.937
7625.2
788.405
1835.14
7775.68
7831.15
972.453
1985.13
-15363.8
-41134.2
-37941.7
-17704.8
-15661.7
-41185.3
-37646.8
-12881
-35990.5
-30890.7
-14342.1
-12431.7
-35672
-30564.3
-10222.5
-29264.4
-24940.6
-11640.4
-9607.16
-28876.9
-24432.5
-13597.8
-9145.29
-14416.1
-9912.92
-13684.7
-10991.6
-14439.1
-11512.3
-6859.5
-11940.6
-8461.48
-11282.3
-7595.6
-12119.8
-3889.14
-14605.3
-12040.9
-5313.5
-3764.87
-14442.1
-11899.7
-2080.77
-11254.5
-9008.09
-3302.42
-1931.93
-11121.1
-8824.72
-324.594
-8253.56
-6049.77
-1375.33
-184.41
-8041.71
-5818.78
-44438.3
-71612.1
-62119.5
-49242.9
-44106.3
-71113.9
-61887.9
-36150.1
-58913.5
-50246.4
-41849.5
-35831
-58835.7
-49838.2
-29119.7
-48433.3
-40606.5
-33921.6
-28586.9
-47749
-40220.8
-23282.6
-38658.3
-32691.6
-27060
-22705.1
-37834.1
-32019.5
-18480.4
-31654.1
-26975.8
-21576.5
-18159.7
-31051.9
-26680.9
-14746.7
-26172.4
-22627.4
-17222.4
-14570.9
-25732.3
-22187.2
-11389
-21889.3
-18426.5
-13713
-11165.1
-21610.7
-18128.9
-8434.28
-17857.1
-14961.7
-10380
-8200.49
-17640.8
-14716.7
36934
20631.3
18470.6
39442
36236.5
20422.4
18102.7
35477.2
18564.6
18008.6
36997.7
35810.8
18299.3
17996
30912.9
17607.2
16771.2
33532.3
30882.6
17586.8
16923.1
27816.1
16500.4
15352.4
30250.2
28218.3
16660.6
15397.5
23706.9
14840.7
13131.6
26631.4
23831.2
14923.5
13238.7
19896.5
12577.4
11048.9
22836.7
19937.5
12751.2
11201
17390.2
10690.4
10017.4
18850
17141.9
10868.9
10146.4
15520
9975.42
10003.7
16354.6
15070.9
10107.1
10227.2
12004.4
-9538.45
-8468.08
12262.5
11460
-10877.8
-9613.86
12240.3
-7248.95
-5790.49
12043.9
12108.9
-8111.29
-5870.48
11788.2
-5260.23
-3826.63
12067.3
11941.6
-5069.4
-3555.1
10961.2
-3145.74
-2350.94
11866.8
10955.7
-3164.02
-2169.94
9197.38
-2138.88
-2109.15
10680.5
9383.09
-1889.12
-1600.09
8018.34
-1749.12
-841.547
9057.8
8116.77
-1455.04
-801.757
7696.69
-442.749
583.885
7991.92
7828.84
-337.1
773.276
8068.31
1058.7
2124.15
7950.65
8290.94
1298.63
2246.76
-16001.3
-41817.6
-37684.4
-20245.1
-17155.1
-43238.2
-38293.6
-12228.7
-35593.8
-30430.5
-15233.7
-12141.3
-35803.9
-30180.9
-9190.12
-28689.5
-24141.6
-10993.3
-8790.99
-28148.3
-23507.4
-7338.07
-22743.5
-19158.6
-8098.68
-6477.72
-22127
-18403.5
-5682.77
-18138.1
-15278.2
-6077.39
-5200.84
-17472.4
-14787.1
-3685.27
-14332.9
-11828
-4762.77
-3554.9
-13905.8
-11587.9
-1865.34
-11051
-8761.32
-3011.09
-1664.59
-10818.6
-8623.74
-14.947
-7973.7
-5645.32
-1069.73
136.69
-7856.6
-5705.43
-44118.1
-71235.1
-61920.1
-50641.5
-44675.4
-70913.8
-62247.7
-35715.5
-59167.6
-50038.9
-42247
-35704.8
-60126.8
-51094.8
-28345.7
-47709.3
-40162
-33583.8
-27807.7
-48505.2
-40050.6
-22445.1
-37592.6
-31799.9
-26294.6
-21764
-37664.9
-31491.2
-18052.8
-30863.9
-26598.3
-20739.3
-17719.7
-30580.6
-26347.1
-14479.8
-25570.2
-22058.2
-16810.9
-14163.1
-25158.8
-21674.4
-11104.3
-21456
-18055.8
-13369.9
-11002.9
-21060.1
-17896.6
-7987.84
-17481.2
-14586.2
-10175.1
-7956.64
-17100.7
-14722.9
36155.8
20299
17968.3
39574.5
36129.4
20323.2
17697.5
35866.8
18175.3
17923.9
36710.9
35964.6
17876.8
17696.5
30862.7
17515.3
16865.6
33394.6
30817.6
17211.5
16717.5
28294.2
16575
15424.1
30087.8
28286
16416.6
15402.8
23831.6
14931.2
13234.8
26561.6
23772.7
14791.9
13193.1
19937.7
12746.4
11231.9
22829.3
19966.1
12695.2
11341.3
17052.1
10908.9
10168.3
18804.6
16978.5
10960.1
10193.9
14930.9
10130.6
10391.4
16245.5
14266.8
10134
9924.04
11281.9
-11225.1
-9977.53
11836.1
11005.8
-11599.8
-10287.6
12016.2
-8351.26
-5958.19
11535.2
11788.3
-8723.13
-6181
11880.8
-5080.32
-3561.87
11766.6
11798.8
-5238.41
-3567.01
10986.1
-3163.4
-2137.35
11658.5
10899.9
-3072.41
-2189.59
9387.75
-1838.46
-1596.08
10575.7
9348.92
-1907.02
-1669.91
8124.57
-1440.11
-845.147
9025.95
8249.12
-1387.93
-816.619
7855.86
-345.353
800.316
8110.05
7895.83
-205.074
825.126
8413.44
1348.6
2320.08
8013.27
7949.91
1361.36
1995.55
-17498.6
-43656
-38381.4
-20770.2
-17675
-43931.2
-38385.8
-12173.7
-35840.2
-30108.9
-15743.8
-12322.2
-35894.1
-30004.7
-8762.41
-28149.2
-23422
-11098.2
-8676.31
-28112.7
-23287.2
-6393.58
-22003.2
-18288.1
-7948.64
-6430.07
-21840.9
-18250.9
-5166.97
-17369.6
-14714.1
-5994.04
-5178.04
-17300.8
-14641.2
-3570.96
-13819.9
-11528.3
-4716.08
-3509.46
-13703.2
-11313.5
-1631.54
-10758
-8607.96
-2826.15
-1558.33
-10631.3
-8641.86
226.812
-7838.64
-5585.01
-971.786
-106.077
-7855.26
-6113.89
-44861.5
-71015.8
-62446.2
-51098.1
-44772.2
-71091.4
-62816.9
-35707.3
-60350.9
-51539.1
-42390.3
-35678
-60579.3
-51679
-27741.8
-48778.3
-40124.4
-33525.5
-27600.6
-48881.7
-40347.9
-21666.1
-37912.3
-31588.9
-26086.9
-21638.9
-38000
-31835.4
-17648.1
-30662.7
-26268.5
-20602.1
-17552.1
-30382.3
-26301
-14083.6
-25143.6
-21636.5
-16498.2
-13986.4
-24965.9
-21690.9
-10992.2
-21070.5
-17889.6
-13262.1
-11023.8
-20995.8
-18016.1
-7825.13
-17099.4
-14722.7
-10214.5
-8374.29
-17094.2
-15109
6586.73
11175.5
6410.84
10937.3
6462.78
11277
6563.53
1716.36
1347.35
-3866.25
-4974.41
1638.39
1264.76
-2416.3
1965.23
1937.66
-3244.65
-1718.8
1843.12
2131.17
-2194.37
6484.44
11644.1
11633.2
6518.13
11591.2
6387.36
6558.77
6681
10991.8
11354.3
6579.66
11354.2
6624.32
6687.17
1819.1
-4907.92
1666.53
-3375.26
1361.1
-2343.98
1939.19
2118
-1569.43
2193.43
-2799.19
2241.74
-2009.93
2128.97
5721.34
9487.56
5375.07
9008.44
5735.07
9464.84
5320.96
1790.84
1925.92
-2218.33
-1523.14
1758.56
2032.38
-1206.14
1379.87
1276.28
-1961.55
-2190.48
1489.34
1172.21
-1723.22
6105.75
10573.9
10111.4
6447.11
10053
6463.98
6108.26
5759.69
9043.62
9583.04
5479.85
9506.87
5363.47
5840.58
1859.43
-1368.37
2122.11
-1961.83
2123.62
-1065.93
1934.6
1411.43
-2300.5
1385.23
-1730.58
1198.2
-1653.39
1659.12
-13139.6
-8724.05
-12589.1
-9287.39
-13129.7
-9918.57
-12684.2
-18711.1
-19550.6
-22359.2
-23473.6
-18660.3
-19529.8
-22234.8
-17594.6
-16657
-21164.6
-19906.8
-17555.1
-16698.3
-21036.8
-13347.6
-9681.57
-8646.99
-13708.3
-10779.1
-14143.8
-13047.1
-12972.3
-9068.02
-8240.2
-12116.9
-9700.52
-12566.6
-12544.9
-18533.7
-23307.7
-18943.1
-21799.4
-19346.7
-22055.8
-18056.4
-17434.8
-19722.5
-16171.2
-20571.2
-16550.5
-20843.9
-17005
-10971.1
-6133.41
-9789.36
-5781.85
-10616.2
-6382.42
-9987.47
-14694.2
-15644.5
-17852.4
-18786.6
-14676.5
-15664.1
-17750
-13444.7
-12464.2
-16790.6
-15664.3
-13425.2
-12458.3
-16721.1
-11421.4
-8240.96
-6539.73
-11559.2
-7410.41
-12023.5
-10995.2
-10881.8
-5815.08
-5858.65
-9629.41
-6301.32
-10020.3
-10417.1
-14593.2
-18638.6
-15192
-17424.8
-15541.7
-17622.8
-14286.1
-13368.5
-15579.9
-12298.8
-16436
-12399.1
-16610.2
-13198.4
60772.1
48412.1
47952.8
60437.5
60685.5
48413.1
48033.5
54889.6
44406.1
44478.3
56986
54905.8
44457.4
44581.5
48017.4
39753.8
38909.5
50581.7
48002.1
39768
38971.9
42194.4
35351.5
34713.4
44866.8
42224.2
35352
34817.3
35850.1
30645.6
29888.8
38590
35873.5
30661.1
29967.1
30577.8
26373.3
26037.5
32932.7
30613.5
26364.8
26050.8
26102.4
22294.1
22257.4
27518.6
26176.9
22215.9
22174.7
21475
18185.8
18842.9
23009.7
21662.3
18189.6
18754.2
36373.4
25496.4
22810.8
42623.9
36345.2
25738.2
22818.4
32208
38482.7
33380.5
38901.8
38488.5
33396.5
32181.4
29828.6
35239
29655.4
35982.5
35264
29674.8
29804.5
27100.7
31864.6
27030.3
32715.8
31878.3
27046.3
27078
24364.6
28303.3
24167.5
29179.1
28319.5
24192.3
24322.6
21559.1
24741.8
21517.5
25739.3
24774.6
21525.2
21529.5
18846
21388.5
18815.7
22278.1
21420.1
18785.2
18845.9
15867.8
18134.6
15822
19082.1
18136.4
15807.1
15868.4
14198.8
15965.6
13764.8
16183
15979.2
13756.6
14174.8
11125.8
7969.98
9294.81
12447.4
11316
8258.68
9452.1
5340.89
-5637.9
-9437.95
9124.27
5434.15
-5351.8
-9285.99
4680.06
11381.5
5742.67
12160.6
11392
5790.26
4698.35
5867.39
11950.1
5899.32
12120.4
11941
5884.91
5890.99
6610.72
11778.8
6706.75
11923.3
11755.7
6636.38
6679.33
6477.19
11034.2
6640.27
11271.5
11035.6
6611.59
6498.89
6024.13
10170.4
6217.89
10435.1
10151.3
6234.79
6011.31
5222.96
8940.72
5576.85
9386.26
8928.22
5569.37
5230.96
5026.62
7799.33
5036.73
7892.89
7809.35
5040.76
5003.87
5046.23
7216.22
5126.84
7517.48
7245.63
5156.66
5019.9
5256.78
2444.02
2303.7
5901.55
5326.43
2515.13
2374.21
-25286.5
-38098.3
-41509.8
-22246.7
-25056.4
-37724.1
-41560.5
-24181
-16915.5
-23754.4
-16562.2
-16943.7
-23737.5
-24153.9
-20035.5
-13424.9
-20561.9
-13991.4
-13469
-20622.1
-19975.5
-16934
-11065.4
-17671.6
-11446
-11015.1
-17683.5
-16924.5