/*--------------------------------*- C++ -*----------------------------------*\
  =========                 |
  \\      /  F ield         | OpenFOAM: The Open Source CFD Toolbox
   \\    /   O peration     | Website:  https://openfoam.org
    \\  /    A nd           | Version:  10
     \\/     M anipulation  |
\*---------------------------------------------------------------------------*/
FoamFile
{
    format      ascii;
    class       surfaceScalarField;
    location    "7.6";
    object      phi;
}
// * * * * * * * * * * * * * * * * * * * * * * * * * * * * * * * * * * * * * //

dimensions      [0 3 -1 0 0 0 0];

internalField   nonuniform List<scalar> 
38556
(
-636.674
-712.527
1151.21
866.671
-4.45124
-1498.89
1473.38
72.8999
-679.608
1872.83
29.8577
-429.31
1706.41
115.954
50.4701
1454.65
206.194
45.5636
1007.75
212.985
233.913
855.321
162.787
-10.3561
803.452
85.896
-34.0274
793.231
66.9055
-56.6846
788.093
29.9952
-24.857
796.15
16.3073
-24.3643
807.582
-3.22694
-8.20476
828.072
-11.4295
-9.06104
851.125
-20.9493
-2.10351
877.995
-17.9378
-8.93155
917.483
-30.8362
-8.65227
951.93
-30.5789
-3.86848
1003.07
-46.2396
-4.90337
-40.2365
-6.81471
477.649
-338.19
299.773
912.495
-503.616
64.3189
994.952
-189.713
180.156
997.202
-98.1218
125.729
915.349
-1.90517
199.712
869.315
195.389
56.8389
816.939
166.349
99.0133
803.491
185.231
-8.99602
788.192
95.4823
5.71199
791.51
83.98
-20.3921
793.199
22.4889
5.81776
807.404
-2.07603
4.17833
818.619
-34.6501
20.2077
832.811
-52.1044
26.4833
844.232
-68.1601
35.7895
849.755
-68.1958
44.7348
848.506
-79.1329
49.5463
851.897
-82.9232
48.9536
872.246
-109.26
42.6707
-93.1347
30.6039
-559.064
355.659
3089.75
-137.231
-492.398
-433.051
681.105
-666.271
-341.779
738.967
-299.839
143.855
818.029
-276.857
195.89
849.287
24.2417
139.889
865.616
20.6173
129.402
873.486
126.502
50.8585
868.482
48.7449
51.741
875.203
55.0677
22.1924
875.547
-9.07713
31.2222
880.76
-20.879
13.5897
881.347
-53.4886
18.2516
881.824
-62.3438
9.762
876.476
-75.8479
13.0361
867.382
-73.7009
14.5993
840.759
-76.7204
24.2105
801.13
-72.0858
28.7913
755.8
-92.1423
28.2118
-71.1237
-5.5664
1739.72
634.171
-1795.44
1809.08
95.436
-657.202
1638.42
113.569
-609.172
1570.16
71.3724
-302.954
1340.46
38.7401
-85.8927
1228.35
119.481
16.8631
1106.9
55.5601
86.5126
1057.72
118.211
57.4716
996.785
45.5127
64.1638
953.894
66.8442
31.114
909.397
11.09
24.3304
883.691
5.13268
-0.306084
864.569
-31.0743
-3.29199
859.483
-46.8372
-10.4203
860.536
-70.082
-6.81917
858.57
-71.1999
-0.534971
831.544
-64.4715
14.7767
786.417
-53.6537
26.6951
719.225
-61.5293
36.5793
-34.3305
-2.64235
-747.219
-146.524
-87.5998
507.481
42.9343
-1202.2
1067.38
143.386
-589.711
1148.11
184.442
-193.8
1140.67
154.749
-108.572
1152.78
180.01
-72.6415
1136.02
72.7778
-0.452728
1144.95
123.183
-13.9074
1115.44
59.6349
15.3911
1089.51
92.5313
0.242336
1031.12
52.7875
16.6874
984.718
50.9648
0.573679
957.065
-0.175825
-3.24551
941.312
-18.3627
-12.7218
936.874
-53.9479
-11.6964
931.697
-56.7194
-9.30333
898.455
-42.245
11.0156
828.84
-8.36966
24.3312
720.669
3.00659
43.6347
11.6798
9.48479
-288.078
12.658
672.033
639.65
-98.5429
-786.251
1041.92
89.7345
-348.62
1096.9
50.2948
79.1671
1067.66
96.6633
87.3244
1058.36
158.841
30.4748
1080.64
21.5817
28.914
1078.97
137.127
-12.2705
1085.16
60.0673
-6.62499
1090.31
106.276
-18.8913
1087.9
62.0515
-6.85821
1084.78
62.4516
-8.36971
1072.89
-1.00928
12.7305
1048.18
-14.4222
20.764
1012.02
-37.0789
19.2885
991.491
-32.0304
-4.15517
971.904
-19.2781
-3.3803
923.434
27.4746
12.6256
811.129
68.9834
46.3282
59.4253
22.5386
465.199
-48.7303
-4268.69
575.594
169.892
-378.831
963.584
144.995
-443.251
988.303
-28.7812
54.3574
986.499
109.046
-10.5784
916.145
281.296
-52.1019
934.393
22.2752
-48.9265
2.84342
21.6076
5.53404
945.881
37.7895
-59.5361
50.8064
42.0291
54.5503
966.377
20.3299
-40.5055
15.5087
24.1753
20.0633
975.608
27.2824
-35.3121
36.7701
30.9067
37.3982
958.419
23.3474
-6.3986
22.1461
21.5717
18.573
911.158
20.9818
39.7769
17.4062
16.844
14.7042
838.528
0.56
76.6051
-3.38199
-0.556421
-1.60593
786.462
-5.76613
54.4024
-5.23654
-4.05625
-1.70003
766.278
-25.1156
8.22146
771.177
-19.9057
-17.0237
795.001
-4.98038
-38.1222
840.956
16.061
-34.541
859.88
64.6872
-14.6278
70.4867
-15.6597
-819.964
242.105
821.198
260.386
525.768
-1436.23
749.697
159.576
-503.891
820.646
81.1548
-180.886
865.296
125.047
-60.6517
206.199
77.6604
-83.4361
215.527
200.249
203.316
122.75
81.5589
122.768
199.373
38.7179
-9.61736
-189.831
199.278
39.9806
-11.6381
-212.107
211.985
27.7399
-7.28754
-210.564
213.827
27.8357
-3.81705
-216.159
209.828
29.1096
0.568886
-198.398
184.266
26.2324
8.88126
-172.44
159.637
4.58101
8.78273
-151.785
148.123
-4.38109
2.27712
572.8
-2.08044
-17.4863
-145.509
-146.524
-141.577
-137.545
-3.74538
-1.5238
-1.92407
598.657
-17.1885
-28.5745
634.034
6.98942
-47.3469
690.526
10.7429
-51.1736
728.186
52.7997
-25.7724
67.3298
-15.6291
-946.319
1155.21
-304.246
129.777
821.938
-1372.27
522.245
472.43
-705.323
469.553
393.085
-259.238
110.197
315.684
-136.026
89.6423
116.461
98.6424
129.405
68.5194
-10.0674
-14.4901
-38.2949
36.6554
15.4305
0.699101
-37.7503
-13.1321
38.4797
14.3767
-1.97407
-42.0057
-9.0452
42.8552
9.09447
-0.898818
-45.0212
-8.00905
46.0133
7.74404
-0.72707
-48.0244
-8.26986
48.3595
7.79114
0.143589
-45.6899
-7.82507
43.8701
8.39727
1.24752
-35.7121
-3.6222
34.1995
3.35459
1.78021
-31.7668
0.685039
31.7868
-0.823053
0.118021
-32.4907
132.894
-2.84166
-2.27203
-32.8457
-32.3117
-32.213
542.301
-14.9943
-16.7752
-133.999
-135.775
-128.597
-129.348
561.213
8.28504
-20.2079
572.461
22.8726
-23.3776
577.617
58.6923
-11.0484
73.0176
-14.7832
121.447
1367.89
3422.23
232.165
602.169
109.051
196.553
367.137
140.905
237.08
385.648
-33.0912
63.6036
358.837
-76.2325
70.0816
66.0099
70.4651
-80.6143
68.121
90.8823
-14.7853
-19.3599
-17.0591
17.2821
19.3315
-0.194609
-15.1029
-20.6766
21.5028
14.8845
-0.607796
-11.0827
-23.2426
23.6306
10.7213
-0.0265378
-10.5426
-24.1745
24.1633
10.2343
0.319593
-8.97587
-24.1635
24.3937
8.76088
-0.0152154
-6.93657
-25.8251
26.5793
6.24413
-0.0617462
-1.99427
-28.1637
28.4794
2.06474
-0.386157
1.17348
-29.6566
30.1152
-1.50649
-0.125618
-31.8831
5.26695
134.469
-11.0087
-0.141573
-32.5198
-31.7487
-32.4343
563.646
-20.199
-1.804
-138.063
-146.075
-132.151
-140.348
572.242
0.393728
-0.704654
577.868
18.5927
-1.34622
577.405
58.1294
1.02611
73.7277
-9.99
-362.086
1474.22
2376.44
97.8525
179.288
-37.0574
218.803
213.121
33.0658
188.259
292.458
123.735
61.1577
257.41
33.7264
67.9749
60.7677
66.0587
-94.3668
72.8603
85.5609
-2.89691
-22.4239
-18.719
19.4299
22.2264
-0.513391
-16.8476
-21.2845
21.9789
16.8277
-0.674464
-6.58393
-26.2039
27.4745
6.02302
-0.709739
-5.89574
-30.5397
31.9856
5.03498
-0.585163
-7.07269
-36.4498
37.6062
6.38657
-0.47028
-7.67077
-38.115
37.7788
7.84042
0.166527
-1.94979
-38.3913
40.276
0.789391
-0.724311
4.30525
-46.7944
48.2857
-6.10985
0.313356
-49.4376
12.749
184.625
-10.2842
5.04498
-49.1904
-46.7568
-46.7501
610.396
-8.14285
26.7916
-169.625
-169.706
-155.177
-154.735
601.199
-6.5509
16.1415
612.431
-1.51672
8.87716
627.01
31.7508
11.7998
57.9781
-5.23281
-1217.57
-911.172
55.5167
-408.893
-490.911
-138.483
-19.022
-58.3094
-118.441
134.828
143.485
-4.87753
52.5486
156.618
-1.76067
69.9573
50.0385
64.8372
-72.2726
83.629
35.9713
5.22095
-19.473
-29.4689
30.5468
16.8634
1.53173
-13.2177
-34.3744
36.1767
11.7954
-0.380022
-6.6211
-37.1709
37.2455
7.01887
-0.472418
-3.91282
-38.1074
39.5146
3.35521
-0.849672
-2.76779
-42.7872
43.5191
1.17968
0.856221
-2.24103
-46.7762
48.9712
-0.404402
0.450415
4.06923
-52.4913
52.6066
-4.37638
0.191777
6.45723
-45.6277
43.485
-4.81559
0.501074
-40.9822
8.32934
160.861
-8.75573
-3.41908
-38.3666
-39.9344
-37.7322
581.806
-3.32134
3.77873
-160.31
-144.756
-149.044
-136.296
575.691
-10.1365
9.70058
575.6
-6.58666
5.16089
595.382
8.03317
3.9356
34.6606
-6.8394
1007.4
272.244
-532.311
632.197
-154.519
38.8072
594.776
175.873
-196.761
527.744
294.73
-84.2128
484.174
179.689
20.4986
116.522
-52.8393
9.16081
4.39953
36.7266
8.3425
38.6871
109.239
110.436
103.5
-5.67451
114.909
18.5063
10.5586
-8.44695
-5.498
-7.83223
-6.39904
-96.2008
95.6946
15.4762
7.65991
-5.07157
-6.24521
-4.91409
-6.66028
-114.555
116.946
14.9302
6.5452
-5.45654
-6.54627
-5.20312
-3.22294
-115.318
111.442
1.56826
7.19689
0.450923
-2.81075
0.693281
-0.283747
-118.362
112.103
-1.43132
4.86761
1.63269
-0.178148
1.65266
0.860396
-113.451
111.073
-8.83452
3.95628
2.56274
1.05659
2.777
2.07658
-119.958
120.229
-12.8837
1.17896
3.66954
2.07615
3.61104
3.31701
-125.016
126.536
-15.7161
-0.596208
4.40423
2.97165
4.09973
491.932
-21.84
-8.24033
9.25717
5.86645
6.50597
4.25497
-130.476
-121.983
-121.473
-113.805
507.003
-18.6732
0.281194
503.096
-4.84008
-1.38994
499.107
0.596413
-3.19437
503.388
13.3561
-9.60321
26.4155
-12.1365
555.408
-238.009
2326.17
661.347
-309.81
49.352
579.051
124.028
134.142
647.245
267.587
-41.0508
559.835
257.222
9.87623
465.852
135.759
-94.615
436.685
246.06
-22.0041
-26.271
-71.2476
-27.4933
-69.8775
422.987
7.08668
-27.1244
1.29644
11.7612
4.35774
16.3209
454.831
6.57024
19.0818
-9.4559
-22.585
-6.5266
-18.9286
481.46
-98.1318
17.4352
10.2589
14.6557
12.2857
16.8677
497.856
-44.1461
12.7297
5.73116
2.05924
5.38177
1.84799
497.238
-70.4394
9.41929
15.4305
16.6239
14.1509
15.4332
486.14
-37.0378
9.4392
12.7859
8.51153
10.3816
7.01707
473.055
-47.5296
4.48206
16.805
13.5029
14.3648
11.4597
464.662
-22.784
9.33693
458.381
-17.8443
5.45219
450.962
-0.568294
3.14727
447.572
6.39858
-2.41187
448.245
15.5956
-2.91257
24.4071
-9.35676
1176.66
-46.6987
-2623.86
702.699
152.718
11.4301
663.043
125.258
38.4258
718.316
228.78
-16.4665
696.34
293.284
-14.0856
724.496
232.544
-124.941
753.584
243.493
-26.5204
717.099
75.0878
-31.5162
637.192
25.2033
61.2742
554.157
-56.9542
41.857
488.071
-7.98625
29.9256
434.53
-33.9146
17.0171
400.473
-11.1368
8.15575
381.475
-33.3827
4.85109
380.084
-20.8995
-0.493472
382.598
-18.4102
-1.94822
387.953
-6.76373
0.840403
396.549
-0.487948
-1.71018
404.371
8.62918
-0.855558
17.4847
-4.87482
-504.943
-303.097
1898.99
134.042
262.668
-748.936
677.207
37.3766
-455.284
697.928
133.986
74.0732
803.342
158.044
29.8255
921.778
151.002
-36.8942
988.986
134.964
41.3221
1008.86
28.7386
26.4796
889.12
58.3151
86.623
757.346
7.79399
67.026
634.652
52.1901
62.5182
561.173
16.1113
23.4528
501.337
24.0802
24.6183
456.167
-4.03535
15.823
430.094
-7.3223
12.4958
417.713
-12.4305
6.40181
413.88
-5.27713
2.34617
413.825
-0.055154
-0.378091
415.316
7.67516
-0.536368
15.5874
-5.8303
-680.051
-1000.43
-2152.61
-93.0467
77.3552
-401.691
562.917
-360.385
-258.201
830.276
-103.933
-29.4399
949.141
-76.5112
115.69
1034.9
26.3463
38.8971
934.2
81.9438
153.72
824.341
46.9864
91.611
690.562
80.1732
111.92
620.992
44.2169
33.147
585.125
66.042
22.0153
557.274
45.118
-1.1552
525.985
45.3437
10.025
489.943
28.7518
3.25503
448.763
21.3411
12.5166
419.531
10.4319
6.36967
405.336
10.2314
-1.31386
398.867
11.2271
-4.81295
397.028
12.2701
-2.75601
16.664
-7.2321
448.414
-552.036
1123.92
651.767
-35.7845
-90.2128
681.57
-584.516
194.328
827.559
-467.468
217.546
750.434
-354.88
355.493
690.23
-85.8497
172.4
573.672
18.2533
180.249
532.165
31.7064
56.787
537.684
30.6043
44.0495
550.546
37.4378
-6.0831
559.143
59.6977
-2.25193
555.805
59.6233
-11.1671
543.244
61.4343
-3.52985
524.507
54.7319
-7.24334
497.977
50.0424
-2.17129
474.645
42.0112
-8.24747
459.575
34.3224
-9.02073
451.876
29.3825
-10.4561
446.746
24.6516
-7.25164
24.2086
-11.5632
909.794
-1289.2
1651.59
1323.17
-605.868
156.704
1175.63
-668.583
231.609
1206.69
-531.156
32.625
942.322
-407.3
316.793
746.596
-65.9246
175.801
550.583
45.9298
168.336
493.538
53.406
35.3455
503.837
-33.2623
53.5679
523.4
0.488771
17.3861
535.258
37.8087
10.0304
536.889
61.106
-3.11327
537.201
67.513
-6.39107
535.577
72.3589
-16.0034
533.086
74.242
-21.7079
530.944
74.266
-30.1133
528.568
69.412
-32.7138
527.609
66.2567
-35.9153
522.711
62.9951
-33.4453
53.3604
-31.6027
886.031
-967.957
1127.75
-847.584
1338.86
-879.698
1515.66
-707.955
1613.34
-504.981
1840.5
-293.085
1834.62
51.8101
1678.55
209.479
1278.11
367.175
1020.74
257.864
899.958
158.587
838.953
122.111
794.526
111.939
764.253
102.632
750.738
87.7573
751.004
74.0001
758.004
62.412
774.122
50.139
805.204
31.9123
26.1761
355.593
41.4377
3557.37
646.092
-29.2215
-1760.17
721.886
-58.9898
-696.412
781.062
-173.86
-314.625
761.335
-58.2323
128.43
704.051
81.1845
21.6633
662.674
72.5432
202.747
634.86
61.9762
-44.5186
623.856
-3.50917
-19.5145
627.13
-1.24438
-58.7137
643.05
-26.3349
-14.4421
663.835
-26.1186
-19.0311
688.038
-36.9536
4.54614
716.129
-38.4376
1.286
744.848
-42.8829
12.06
772.843
-42.5615
5.63538
812.957
-57.5912
8.8254
849.295
-54.9204
14.713
896.958
-67.887
15.321
-59.4506
11.9249
397.648
385.037
-1808.55
303.897
-163.557
292.405
656.971
-120.957
-110.95
573.906
-156.951
191.885
653.757
-112.962
174.591
639.815
71.592
80.3734
667.665
22.063
121.644
656.944
67.4871
-3.78572
650.077
-13.1827
22.2519
648.74
-0.956892
-19.3424
651.016
-37.581
14.7881
659.25
-33.5032
3.32859
668.857
-50.4867
24.1338
680.418
-46.9183
23.403
691.756
-52.725
34.2938
700.309
-48.3139
41.9344
705.027
-59.4638
46.7011
715.788
-62.8294
46.1009
732.154
-78.3499
36.7682
-57.6698
14.1079
-79.6243
-1194.81
4307.42
-16.9468
-451.44
-207.845
615.177
-541.775
-553.084
624.646
-215.811
193.246
725.3
-235.198
217.472
755.29
31.1251
150.367
769.661
-10.8217
147.915
757.678
83.7609
46.568
733.988
3.70326
58.5447
717.261
22.0282
15.9342
701.233
-24.5497
34.2189
693.544
-22.0637
9.83939
685.953
-43.849
19.2049
680.892
-40.6036
8.50795
673.393
-46.5228
14.3326
664.121
-39.3867
14.9444
647.299
-44.4314
26
629.594
-44.5972
28.2643
609.403
-56.9929
27.0454
-39.9549
-12.1317
1413.45
-448.521
-3163.16
1764.12
-101.558
-1357.76
1533.37
40.2076
-960.399
1383.85
68.3168
-437.563
1132.95
48.5074
-118.695
1033.46
151.639
-4.15976
932.269
77.8094
99.0686
877.064
147.355
49.0826
808.642
66.0576
70.2318
753.809
83.6426
24.3325
708.43
16.6911
28.4683
679.782
7.97177
-1.69371
660.609
-25.6545
-2.31358
651.925
-31.5061
-10.8338
645.77
-42.0494
-5.13759
637.743
-33.5728
1.67811
616.811
-25.7393
17.0171
592.128
-20.1036
26.8844
559.602
-24.3253
36.4376
-12.6346
-7.89229
832.146
-1215.49
29.1713
784.087
-203.061
-1052.64
1050.59
0.0249092
-816.029
1073.6
103.945
-252.439
985.042
140.548
-112.058
945.699
210.722
-92.3807
890.7
118.304
14.0519
866.165
178.776
-20.7939
821.056
103.51
23.0483
786.974
122.99
-5.02372
743.613
59.4402
17.2992
714.308
41.6882
-3.83716
700.761
-15.0449
-0.308924
691.873
-25.0012
-10.3382
683.65
-37.0908
-8.43238
671.563
-24.9636
-5.82501
637.053
2.69426
17.092
593.048
22.5199
25.7122
544.325
24.0406
43.9918
19.7493
5.70557
1123.51
-395.168
1509.76
1161.84
-2.08775
-1025.56
978.365
207.508
-372.627
977.817
178.89
4.77086
904.464
213.906
87.3187
869.35
262.213
14.0971
868.805
110.554
37.2091
828.936
224.714
-18.3395
806.328
121.8
-2.30688
785.326
145.332
-20.2308
767.196
72.059
-1.34723
754.121
50.5222
-4.1288
746.108
-11.1014
16.8003
737.881
-16.3945
20.3839
724.3
-21.8979
17.6767
706.959
-6.44578
-5.33209
675.685
32.7077
-2.11981
639.067
58.2956
13.468
588.687
72.443
48.306
57.3669
16.8502
1455.72
658.122
-4496.03
1195.54
579.504
-700.245
935.645
530.227
-506.071
917.167
246.347
5.37791
841.198
302.215
-22.9184
725.389
391.482
-65.5612
714.325
36.9274
-38.6482
17.307
37.3146
19.7903
692.321
56.3342
-62.4199
66.0406
59.4315
67.7955
689.561
31.734
-34.2721
26.944
32.455
27.1926
681.557
35.9049
-33.6319
40.161
36.287
39.3033
669.467
20.6614
7.62024
16.2966
19.0281
14.1445
657.504
13.1636
52.1039
12.5451
12.1172
12.3317
645.481
-0.156564
73.9061
1.09432
0.170276
2.51282
628.67
-1.36057
50.224
2.30806
-0.2037
3.85104
612.235
-5.2349
7.99401
609.581
2.31397
-23.1302
610.377
34.1949
-40.4051
615.013
50.228
-31.1097
608.112
74.4202
-9.70357
66.7981
-17.0622
392.851
705.392
-84.6173
470.282
629.475
-1563.63
673.703
387.26
-564.345
673.083
283.083
-217
701.902
270.274
-57.5288
161.638
100.692
-88.8078
164.64
148.073
150.495
133.712
104.67
134.834
13.5209
154.851
47.6462
-17.4533
19.8683
-140.454
146.703
50.4855
-20.2684
12.6959
-155.885
153.519
34.6971
-13.2933
8.52019
-150.799
152.878
33.5149
-8.20871
-1.19204
-155.706
150.701
23.7894
3.06944
-14.286
-144.941
140.616
15.2715
16.5037
-13.841
-139.341
134.667
3.02184
15.3362
-3.01477
-132.363
130.399
0.0042895
3.61322
482.07
0.986304
-24.093
-127.864
-123.442
-119.816
-116.392
1.71274
1.48334
2.63248
497.436
-4.09478
-37.5315
508.528
25.0692
-49.3134
526.718
29.3239
-48.459
537.058
57.857
-19.5496
60.1257
-14.5408
-26.894
1091
1018.02
373.747
633.049
-1776.48
410.571
490.703
-845.59
338.344
430.055
-333.983
91.53
344.753
-188.987
74.2055
84.5922
66.4999
16.5865
109.015
87.636
-21.0151
1.14119
-14.9566
-34.3642
33.9859
16.1154
-1.92173
4.25502
-31.9469
-12.9179
31.7537
13.1521
-4.29604
2.39994
-33.4298
-9.40764
33.5096
9.45758
-2.52963
1.72742
-33.2286
-8.12071
33.3124
7.87246
-1.563
-0.906243
-33.4053
-6.54152
33.0809
6.50518
1.267
-4.20468
-30.7473
-4.99695
30.2062
5.2157
4.52707
-3.63279
-29.1754
-1.89411
29.1134
2.0704
3.51853
0.0306634
-28.9172
0.222348
28.9242
-0.236043
-0.023947
-29.1635
4.38514
115.359
0.0373372
-3.94622
-28.9701
-28.4614
-28.254
452.383
-4.75826
-17.9816
-115.199
-116.717
-108.509
-110.087
461.574
16.6693
-20.9992
463.16
27.148
-22.7873
465.746
52.5782
-8.35608
57.991
-15.3239
-258.592
1386.71
7112.57
-71.3143
437.19
117.633
32.4076
346.857
181.028
84.1454
366.782
-21.556
41.066
321.513
-121.209
39.8261
36.7134
34.7566
22.8075
-85.7632
48.0676
83.5328
-27.5787
2.04483
-20.0088
-16.8194
18.2468
19.2187
-2.68208
1.84703
-14.5119
-19.9393
20.4815
14.1246
-2.00194
0.192371
-10.4576
-21.6808
21.9145
10.248
-0.216464
-0.686218
-8.83015
-22.4001
22.4989
8.71343
0.704137
-0.273657
-7.40345
-22.6366
22.7889
7.20745
0.317318
0.193998
-5.42397
-23.8196
24.3887
4.91939
-0.258556
0.729347
-1.91693
-25.913
26.3178
1.5325
-0.749643
0.204212
0.42846
-27.4887
27.908
-0.869855
-0.182073
-29.1138
-0.782438
1.5142
119.044
-5.10024
1.45876
-29.6474
-28.4353
-28.9381
476.115
-5.84926
0.851084
-119.653
-126.993
-112.717
-118.316
477.97
11.8361
2.27294
477.288
26.5933
-0.10941
475.826
52.4931
2.57367
56.8861
-11.9003
-7.09052
1091.07
1609.34
-179.279
290.546
281.775
-64.6813
273.094
-7.76873
-59.8728
295.383
190.325
29.428
222.386
-23.1641
32.7992
15.9006
18.0162
-0.824166
-78.9448
37.1948
66.2696
5.73259
1.27253
-17.8654
-14.0257
15.7886
16.5649
-1.73486
2.09374
-13.3515
-18.053
18.7052
12.6826
-2.07705
0.980302
-7.70967
-21.2553
22.1827
6.70483
-0.902926
0.351702
-6.58942
-24.6638
25.512
5.51458
-0.125133
0.345635
-5.80466
-27.9086
28.7178
4.91213
-0.262337
0.241334
-3.58095
-31.0864
32.0615
2.84265
-0.478227
1.64625
0.512734
-35.0036
35.9477
-1.42449
-1.67853
-0.722255
2.21278
-38.0461
38.421
-2.67613
0.810664
-37.2808
-8.11746
5.17052
141.396
-2.51148
10.0424
-37.4194
-35.5853
-35.6947
506.637
3.61659
25.226
-134.951
-133.285
-124.279
-122.022
510.248
7.05507
17.3116
518.814
17.6863
9.21793
524.622
45.5447
12.9403
52.9377
-9.09472
-1158.99
-981.797
149.932
-577.408
-308.347
-121.17
-267.704
25.7793
-180.831
-106.439
126.048
3.19238
13.9424
119.396
-57.7212
26.0648
-0.589208
13.0939
-12.0777
-51.9362
47.5384
12.5311
17.8869
-5.4905
-12.3337
-23.9476
26.1142
10.0524
5.60529
-0.578976
-8.19006
-29.6187
30.3367
6.64557
1.40548
-0.620134
-5.35998
-30.4673
30.2271
5.21766
1.00266
0.552398
-3.1947
-30.0162
30.5032
2.37642
-0.221115
-1.51031
-1.93466
-32.413
33.2701
1.0202
1.56761
-0.96326
0.480834
-35.5966
36.2803
-1.27749
1.07624
-1.1934
3.49003
-36.4184
36.2301
-3.32512
1.21673
0.0261227
2.69309
-35.1148
34.9043
-2.29013
-0.218629
-34.0092
2.75459
1.5999
129.957
-2.34131
-1.13594
-32.5686
-32.7822
-31.474
466.984
8.89626
5.86807
-129.473
-117.225
-118.867
-108.789
473.859
2.25182
7.62926
483.903
9.8521
2.95134
500.307
30.5861
2.48973
41.4512
-11.1956
232.695
977.549
1829.12
348.951
-34.9919
-350.804
368.53
221.613
-412.174
301.497
266.819
-157.95
301.839
140.023
-0.471054
70.6145
-103.195
11.4295
24.9807
52.8077
30.9945
58.8435
62.5747
54.4816
47.4682
-4.54326
-22.5489
70.741
18.1973
23.6678
-5.72098
-4.23886
-4.93968
-4.32647
-17.3706
-46.5744
53.2722
2.81868
20.953
-2.68213
-3.83568
-2.25467
-4.09559
-13.1042
-74.0702
76.2225
6.97645
15.9396
-2.26147
-3.76176
-1.8453
-0.93861
-11.2125
-76.2532
77.4953
-4.0991
12.9213
1.36373
-0.681979
1.40495
0.350971
-7.33145
-88.8011
86.5085
-3.08996
8.30755
1.84179
0.381161
1.83262
1.27539
-5.47389
-89.9091
89.2911
-8.08838
5.951
2.86691
1.26578
2.82119
1.53209
-1.76676
-97.6128
96.6091
-7.69081
1.70585
2.94815
1.44996
2.82522
1.51769
0.671727
-100.547
101.714
-9.42218
-0.755362
2.83656
1.31788
2.6665
384.32
-7.07038
-7.98229
3.62552
1.13186
2.35823
0.466788
-104.884
-95.3559
-96.9862
-87.8638
399.818
-5.09704
-1.22388
401.855
2.39241
-3.56747
408.464
7.88127
-7.8324
419.172
21.9449
-11.6698
29.4348
-15.2371
310.76
856.435
-1604.85
-61.2209
-167.031
553.372
357.236
48.024
-110.726
417.164
197.757
-31.9171
355.027
177.849
34.1868
215.461
8.36075
-66.6043
216.18
165.125
6.17131
-29.6914
-68.146
-32.3627
-63.8191
208.564
-93.6729
-15.0914
15.6574
24.9278
20.6521
28.0181
261.689
-15.1279
18.1176
-4.35605
-15.3099
-4.02822
-13.3386
290.423
-105.064
21.715
15.4586
19.9499
16.0135
20.6283
315.592
-42.6575
14.8003
5.41975
2.45557
4.99598
2.54633
326.093
-70.2873
11.2896
14.0089
15.3783
13.4824
15.046
332.768
-32.8597
9.76696
8.04321
5.7568
6.80462
5.253
335.249
-42.1816
4.57429
11.7801
8.99763
10.4099
8.4199
343.017
-15.1972
9.69638
350.08
-11.1075
4.39968
352.787
1.408
1.42466
356.94
5.84362
-4.52779
366.642
15.4686
-6.13815
21.337
-11.0472
403.203
464.875
-4331.28
181.526
-4.20427
70.2803
380.972
-95.2998
-17.6961
463.469
118.897
-20.1038
399.649
180.077
47.5063
365.122
27.095
-109.149
403.348
74.5089
25.8691
372.736
-70.4641
-24.1125
371.149
-22.7695
70.5028
346.148
-75.7101
37.5041
326.171
-26.7926
34.038
307.367
-49.3574
14.891
299.45
-25.6446
8.8573
295.665
-37.4481
3.90278
299.756
-20.6662
0.884527
305.412
-17.6201
-1.09131
312.079
-5.9612
1.54226
319.531
-1.31836
-2.00019
330.765
7.2541
-3.87518
14.1887
-5.01655
536.984
-1329.18
-271.367
447.968
-32.3067
-631.817
355.811
-56.9417
-401.485
378.457
51.6272
118.698
477.545
41.956
68.858
510.509
-14.8128
-27.9496
550.387
0.642942
75.3099
539.324
-59.8169
26.8956
498.901
-2.85781
107.134
450.154
-27.7171
67.7808
410.298
4.13579
71.4454
376.341
-17.4368
25.4891
353.961
-7.58685
28.9405
339.002
-20.343
13.677
332.299
-14.2647
12.7968
329.991
-14.3659
5.45634
329.679
-5.90164
2.59789
331.028
-1.59336
-1.45133
336.939
4.4089
-3.60297
11.1502
-6.70329
125.963
-1846.51
-2805.94
-344.952
-157.923
194.839
218.303
-495.179
-383.219
356.493
-131.324
15.322
501.865
-125.755
138.029
544.12
-61.9372
43.7667
518.104
-2.91725
183.295
470.775
-16.3153
95.4386
439.008
20.7955
120.034
413.909
-4.87098
35.4001
398.539
14.9807
26.5404
382.687
-3.19193
0.451466
370.448
3.40827
11.2686
355.718
-4.26681
1.90868
344.819
-1.43259
10.5843
336.284
-2.19096
2.72978
330.644
0.684353
-2.25984
328.209
2.98742
-6.95883
330.398
5.93744
-6.47408
11.3916
-9.27768
-256.505
-468.941
2639.6
98.2045
-402.718
-200.126
417.352
-698.582
78.5831
513.805
-308.198
297.967
500.275
-211.124
454.391
439.004
-15.5933
187.327
390.538
24.7043
201.094
367.421
9.70173
53.8863
388.035
-3.72727
47.9584
396.156
-7.85537
-11.22
409.546
3.8516
-4.51275
410.814
2.98208
-18.6086
411.135
9.08371
-9.52646
405.889
7.64805
-13.9119
400.981
10.7269
-9.42309
394.489
10.6778
-14.6244
388.528
10.876
-13.2512
384.701
11.7914
-15.4327
383.311
11.0213
-10.9463
13.9039
-15.8568
543.261
-452.188
1515.32
704.946
-357.25
-50.4493
644.185
-473.652
67.4406
630.775
-236.907
-25.2553
556.554
-100.522
280.411
479.279
134.832
102.65
415.36
118.884
138.076
396.051
60.4007
3.95545
429.771
-40.4085
56.5294
450.104
-20.3612
9.55843
465.949
1.6531
-3.61626
472.084
23.4366
-29.702
481.118
26.4929
-32.834
487.412
29.9278
-44.5774
493.811
29.6142
-46.9944
497.453
30.4793
-53.5572
498.108
29.4637
-51.9561
497.89
29.9826
-53.889
492.212
29.6984
-46.4446
26.8147
-44.9837
1914.49
-2162.49
1638.02
-928.36
1276.89
-992.223
1129.54
-797.511
1027.02
-502.982
1121.72
-252.951
1181.57
110.841
1183.74
267.709
1053.36
457.15
954.03
336.828
870.857
243.413
833.273
183.132
813.091
158.614
805.698
139.953
802.361
120.709
806.789
100.051
816.392
82.2725
834.976
61.5378
858.531
38.0557
32.7617
1542.59
-203.365
-1560.2
342.531
47.2768
-607.39
480.048
-95.1837
-738.745
441.786
-101.696
-174.667
508.809
-38.5462
99.9522
498.181
47.8392
-15.5486
534.011
1.48536
165.431
516.356
12.3312
-39.1946
522.374
-36.3159
10.7837
521.912
-21.4077
-36.8443
542.12
-42.5218
7.87157
559.943
-33.1454
-3.70828
584.512
-40.1438
20.1208
611.129
-35.9043
10.5733
640.264
-38.3346
21.2601
669.097
-37.7802
14.5821
708.258
-49.5746
19.2396
746.315
-45.6614
22.3174
792.849
-55.0894
23.8763
-41.2191
17.4943
-3.42967
239.767
419.892
265.312
176.287
-105.346
412.58
34.8287
-388.231
408.15
-69.2006
163.821
519.7
-95.8429
120.338
508.569
52.2358
87.1081
550.082
-21.4556
103.072
529.105
32.6422
-3.11912
525.001
-35.2822
25.3221
514.355
-11.9353
-18.1679
514.658
-42.3182
14.2807
515.8
-28.2775
-2.68082
522.78
-40.7637
17.7733
529.419
-32.0128
12.8722
538.775
-36.4063
23.0095
547.693
-31.9543
27.1906
556.891
-42.856
30.7851
571.847
-43.1298
28.6127
586.963
-54.0877
20.6502
-33.5387
1.51035
446.288
-1125.87
-862.246
-92.8817
182.245
325.367
336.416
-328.219
-619.334
414.461
-86.2455
132.245
565.695
-169.996
140.392
590.741
71.2413
106.315
616.186
-13.3427
114.357
592.445
81.3828
21.5685
572.657
-5.41628
48.4669
548.914
23.6184
4.12336
534.948
-21.3319
27.1989
525.242
-11.2759
2.54336
518.572
-29.015
14.1262
512.57
-20.8661
3.36402
506.13
-25.8735
10.2392
498.781
-19.0689
9.40808
490.217
-26.5737
18.2817
484.745
-26.821
17.4279
478.606
-35.3056
14.4022
-21.5003
-10.8945
2433.33
-932.134
-259.005
2088.08
84.0961
-914.361
1524.23
145.007
-869.77
1241.31
129.032
-369.917
929.322
91.2208
-67.9284
815.06
190.202
-8.85813
724.699
93.5162
82.5707
667.966
163.86
23.3382
612.706
67.8075
52.2682
564.597
87.864
8.19646
533.147
15.4464
23.14
509.943
13.9467
-3.71281
496.087
-17.4917
0.0195933
487.007
-15
-7.62052
478.962
-20.5272
-2.43865
468.954
-9.76641
2.38403
453.657
-7.46154
13.202
440.526
-5.04436
18.2387
428.867
-7.69845
20.4896
-2.87252
-8.24439
1376.68
-1903.66
654.599
816.076
-267.91
-140.024
907.263
-57.2819
-704.926
873.705
78.4843
-168.333
769.356
139.78
-56.2674
713.085
230.926
-76.8347
665.042
131.951
23.6608
631.353
200.12
-23.3643
593.539
106.541
22.1291
562.941
123.337
-9.89945
536.838
46.1702
12.6783
521.162
31.1887
-5.40278
515.474
-13.8355
1.72275
510.07
-13.2843
-6.64996
500.105
-15.8563
-3.13884
484.916
0.670743
-1.07335
455.518
24.1973
14.8311
428.104
29.4401
18.6423
409.796
27.4227
27.179
20.1692
1.61704
2180.04
-820.038
2311.62
1472.15
-41.226
-544.358
914.399
155.252
-27.4048
820.485
166.525
10.6438
722.533
235.08
89.9699
666.926
299.702
0.928486
664.659
135.665
35.7629
608.965
256.54
-19.0656
584.256
126.666
2.27641
557.748
147.069
-17.4542
543.612
56.8494
2.10955
532.98
39.9743
-2.28232
530.809
-7.06012
12.1964
530.154
-4.92778
12.6818
523.312
-3.87239
12.5352
505.448
19.0496
-5.84698
475.498
50.9174
1.10966
447.743
59.7851
10.8781
428.066
63.9304
31.4756
45.9042
9.45051
2544.62
472.513
-1901.64
1545.98
447.557
-190.389
927.555
544.379
-276.774
800.908
287.441
11.1084
662.516
348.966
1.58823
521.685
429.014
-54.0423
514.503
39.1178
-18.1071
23.289
36.592
23.3067
481.043
65.1912
-47.5589
71.8287
66.2574
71.8615
476.96
32.1489
-19.1069
26.954
30.669
25.8114
464.475
36.4184
-22.6113
38.6885
35.7798
37.6471
463.275
15.9948
12.6314
11.7434
14.3842
10.9161
468.797
11.5925
37.8087
12.5609
11.5994
12.9941
475.095
1.48781
47.918
4.1929
2.04525
4.9046
473.338
2.04997
29.2104
5.89295
3.08994
6.81018
465.67
9.58509
2.20406
460.503
20.4672
-19.3807
450.067
48.0904
-27.1427
443.047
55.254
-19.5577
436.378
67.8847
-6.98905
54.2244
-11.9187
809.045
-602.689
498.469
549.689
162.421
-1019.14
639.297
406.162
-515.735
545.918
337.208
-173.388
552.108
323.032
-37.785
117.088
112.482
-58.0921
119.519
102.965
105.028
139.698
114.039
139.587
14.4825
109.579
48.3113
-16.1667
20.0111
-92.7401
99.3675
55.1604
-16.6077
12.6201
-108.073
104.488
34.0598
-10.9461
6.98689
-100.8
102.849
32.166
-4.78312
-5.39375
-106.881
103.778
18.4617
6.03055
-16.7223
-102.337
103.42
12.1636
15.0681
-14.3497
-106.828
105.623
4.57747
12.4653
-3.26736
-105.917
104.979
3.28238
2.97314
377.877
3.31665
-19.5743
-102.765
-100.455
-92.8965
-92.0085
3.50509
4.31424
4.17957
385.458
4.99919
-29.6449
384.243
33.8251
-33.8328
388.382
33.7813
-31.125
395.309
54.0329
-12.6249
49.1549
-8.81147
1699.97
-835.58
3504.66
779.771
120.387
-814.243
454.301
489.731
-603.69
261.11
443.533
-247.116
64.0133
350.922
-162.836
48.1041
54.7604
40.1905
20.3512
75.2968
99.2519
-18.405
1.84485
-15.0233
-25.2166
24.5997
16.1783
-2.38299
3.70989
-21.874
-12.5924
21.6901
12.4543
-3.38796
2.29257
-23.2945
-8.89429
23.1648
8.8683
-2.13686
0.672547
-22.396
-7.29076
22.451
7.02707
-0.463794
-2.20783
-22.9105
-5.19026
22.8563
5.23887
2.21336
-4.34917
-22.3779
-3.62314
22.6728
3.71434
3.96301
-2.70759
-23.6233
-1.71279
23.931
1.7062
2.40651
0.131469
-24.3456
-0.383862
24.4375
0.270265
-0.10981
-24.3394
3.6999
94.5396
2.6007
-2.30925
-24.1986
-23.403
-23.2733
353.443
2.89708
-10.4185
-93.0126
-94.9444
-84.581
-86.3663
357.527
21.8564
-13.1143
355.156
27.6914
-14.3263
360.216
46.1909
-5.57383
46.0505
-10.7785
712.386
-1883.79
1025.3
-522.386
422.938
1049.85
-41.0578
340.576
-151.144
-50.9813
367.32
64.5798
15.0092
281.835
-139.669
12.6332
5.94753
2.97525
18.7247
-89.6647
24.0655
77.0749
-15.1912
2.45924
-19.1514
-11.2908
13.0482
17.5023
-2.56748
1.87536
-12.8785
-14.9508
15.3774
12.2936
-1.71718
0.179652
-9.2137
-16.5325
16.7886
8.91858
-0.140689
-0.629094
-7.3261
-17.5549
17.7836
7.19595
0.53052
-18.5383
-0.22707
-5.87008
18.8489
5.66359
0.122987
-20.055
0.510718
-4.104