/*--------------------------------*- C++ -*----------------------------------*\
  =========                 |
  \\      /  F ield         | OpenFOAM: The Open Source CFD Toolbox
   \\    /   O peration     | Website:  https://openfoam.org
    \\  /    A nd           | Version:  10
     \\/     M anipulation  |
\*---------------------------------------------------------------------------*/
FoamFile
{
    format      ascii;
    class       surfaceScalarField;
    location    "7.6";
    object      phi_0;
}
// * * * * * * * * * * * * * * * * * * * * * * * * * * * * * * * * * * * * * //

dimensions      [0 3 -1 0 0 0 0];

internalField   nonuniform List<scalar> 
38556
(
-635.202
-743.834
71.8076
948.565
-64.3391
-1519.43
1514.16
99.5296
-665.123
1907.15
19.1566
-412.148
1701.41
133.128
72.6123
1435.42
212.725
53.2673
984.962
214.061
236.395
836.764
161.85
-13.6526
785.616
85.2493
-34.1014
776.515
66.3087
-57.208
771.746
29.2085
-24.4394
780.426
15.5578
-24.2376
792.373
-3.77606
-8.17067
813.675
-12.0689
-9.23309
837.268
-21.5034
-2.09012
864.808
-18.2722
-9.26815
905.111
-31.213
-9.08947
940.362
-31.0847
-4.16659
993.748
-47.0522
-6.3337
-40.6011
-8.22634
640.599
-400.562
215.811
953.522
-519.622
142.36
1001.74
-176.395
227.71
990.962
-89.9876
119.919
901.266
5.09177
217.731
851.058
204.913
58.0205
798.011
169.411
97.6969
784.384
187.177
-11.7004
769.879
95.6716
4.08286
774.233
83.2339
-21.2791
776.543
20.63
6.26855
791.435
-3.72755
4.39373
803.421
-36.2416
20.4795
818.316
-53.6411
26.6765
830.196
-69.4066
36.0236
836.249
-69.0704
44.7451
835.84
-79.8547
49.0507
840.123
-83.6765
48.3092
862.313
-110.286
41.0437
-93.5984
28.9407
-561.749
-33.0531
2466.96
-193.752
-484.624
-402.995
675.383
-661.528
-384.002
740.718
-289.785
134.463
807.073
-266.702
205.439
838.734
24.0841
149.168
850.34
19.7476
138.058
854.747
130.524
52.2468
850.012
47.0059
53.4002
857.275
54.9119
21.0594
858.48
-12.4612
31.8854
864.581
-23.2242
13.3964
865.948
-55.7855
18.1769
867.184
-64.591
9.714
862.531
-77.8628
13.1091
853.942
-75.2726
14.7913
827.811
-77.8069
24.0828
788.884
-73.0223
28.273
744.915
-93.1247
26.8082
-71.6206
-7.70322
1919.81
836.707
-800.464
1819.77
144.242
-528.822
1604.48
123.751
-569.991
1533.77
62.3229
-281.401
1308.07
34.7876
-75.7858
1195.49
114.066
22.6012
1078.99
45.0571
91.188
1032.89
117.654
58.9716
975.225
36.3866
68.2829
933.601
63.9379
32.5978
891.058
7.38234
22.6999
867.578
2.32709
-2.07162
849.076
-33.2351
-4.04906
845.18
-49.6943
-10.9998
847.053
-72.7955
-6.94108
845.721
-73.1863
-0.754369
818.839
-65.8807
14.9557
774.081
-54.6092
26.3452
707.892
-62.3798
35.4438
-34.6591
-5.43559
-811.512
-202.722
-596.395
488.991
56.4354
-1212.7
1051.03
161.626
-599.917
1127.58
182.8
-197.017
1114.75
150.202
-102.588
1126.67
176.031
-73.8913
1109.82
59.0264
2.88119
1123.46
118.146
-14.1244
1093.81
50.4329
15.6035
1070.57
87.7351
-0.562983
1013.19
47.6287
17.1356
968.855
46.7437
-0.0822873
942.854
-4.19194
-3.04199
927.545
-19.9889
-14.3958
923.769
-56.8097
-12.2103
918.848
-58.8262
-9.43945
885.651
-43.5805
10.8972
815.895
-8.48432
23.6311
709.251
2.00131
42.2628
11.3515
6.89326
-449.06
-315.329
737.523
562.976
-97.7768
-857.824
992.076
72.5172
-339.991
1053.98
36.7394
84.1584
1032.29
74.5302
97.3596
1027.5
149.888
30.936
1053.06
6.54462
26.923
1055.69
129.74
-14.2289
1064.65
48.0119
-6.53489
1072.17
100.009
-19.799
1071.29
55.8674
-7.35556
1069.51
57.272
-8.74833
1059.34
-5.91364
11.8919
1035.4
-16.1449
20.0941
999.334
-39.2111
18.4686
978.949
-33.4633
-4.97727
959.443
-19.9529
-4.12261
911.155
26.9823
12.8219
800.244
67.9419
44.9709
58.9649
20.4356
537.413
309.628
-4139.14
576.275
196.342
-332.981
914.921
146.445
-412.574
937.963
-41.3855
55.0831
945.525
80.167
-13.1988
883.912
265.655
-54.1538
907.813
20.0894
-51.4443
-3.72132
19.0446
-1.32463
924.867
36.9872
-61.1593
46.0726
40.9837
49.8004
947.652
18.6515
-42.7916
10.8721
22.6706
15.8247
959.443
26.4611
-35.9695
33.6303
29.9051
34.1909
942.969
22.5669
-6.41611
19.5645
20.799
15.8276
896.457
20.5747
39.7385
14.9208
16.4657
12.0846
825.889
1.93941
73.969
-6.75803
0.859686
-5.35639
775.262
-3.45065
51.9064
-7.38205
-1.88558
-4.70552
755.205
-25.7388
6.585
759.742
-20.2646
-17.7364
784.225
-6.28534
-38.1499
830.733
15.0752
-34.6018
851.313
63.54
-16.178
69.5932
-16.3768
-903.981
483.252
722.126
205.174
566.103
-1478.92
686.347
146.718
-481.445
778.494
44.7024
-178.235
829.689
97.1269
-68.1555
197.206
75.9159
-82.0309
209.737
191.164
197.428
113.332
79.3982
113.194
193.392
33.7898
-9.88695
-183.256
194.269
37.6162
-11.6422
-206.98
207.674
25.415
-7.45712
-205.965
209.863
26.4194
-3.85705
-212.111
205.963
28.1664
0.548864
-194.517
180.661
25.7373
8.6931
-168.898
157.834
4.20234
8.80187
-148.728
146.727
-3.87964
2.42959
563.502
0.416714
-17.6111
-143.54
-144.06
-139.545
-135.172
-5.9679
0.946997
-4.70781
588.823
-17.9728
-27.6135
624.847
4.29819
-46.607
681.54
9.13185
-50.75
720.428
51.9307
-27.2787
66.4285
-16.1672
-1374.11
781.66
-1266.12
-50.2052
633.283
-1391.08
419.014
359.928
-682.429
407.266
319.289
-262.839
97.8074
267.932
-137.759
81.3774
104.31
90.7247
121.458
60.798
-8.53233
-13.9514
-35.8621
35.119
14.0131
0.681402
-36.1276
-12.6697
37.2604
13.4762
-1.93923
-40.678
-8.64684
41.814
8.39731
-0.886443
-43.9123
-7.76851
45.1256
7.26807
-0.712868
-47.0089
-8.06391
47.4748
7.44779
0.150197
-44.6949
-7.75125
42.9726
8.20768
1.26577
-34.9364
-3.61345
33.5958
3.2167
1.73734
-31.1628
0.0890909
31.7276
-0.8391
0.185174
-31.9741
131.614
-2.23829
-1.645
-32.122
-31.7464
-31.4714
532.945
-17.4936
-16.1158
-131.383
-133.169
-125.959
-126.798
552.702
5.2243
-20.6829
564.251
21.6973
-24.1138
570.781
57.8399
-12.4395
72.4566
-14.4083
157.477
1002.89
3637.07
170.34
428.973
191.448
154.378
247.149
128.74
203.308
320.431
-50.0721
58.2329
308.892
-87.4036
65.2961
60.3572
65.8653
-71.7832
62.0973
80.6518
-12.733
-17.5
-15.9921
16.2125
17.2799
-0.000315142
-13.6398
-19.4971
20.4168
13.3411
-0.62099
-9.97243
-22.3503
22.8255
9.53322
-0.0360108
-9.66221
-23.5004
23.549
9.29474
0.318879
-8.32972
-23.6033
23.8726
8.06593
-0.00559772
-6.46598
-25.3781
26.1756
5.71847
-0.0499769
-1.326
-27.8914
28.23
1.3578
-0.370432
1.47947
-29.3146
29.7189
-1.82744
-0.0562982
-31.5765
6.01812
132.551
-11.9827
0.345073
-32.0294
-31.3995
-31.9265
554.841
-23.4654
-1.20009
-136.218
-143.349
-130.349
-137.753
563.772
-2.08257
-1.62417
570.201
16.6696
-1.40123
570.833
56.7154
0.492782
73.1905
-10.0183
-16.8572
1941.03
3170.08
97.5048
253.194
61.4168
169.709
154.788
20.157
154.636
232.234
103.27
60.1044
205.853
11.0449
64.1856
59.936
62.4038
-83.2794
69.5652
75.0024
-1.18376
-20.3575
-17.6736
18.443
19.9915
-0.403434
-15.1472
-20.4684
21.2502
15.0969
-0.731392
-5.14741
-25.7403
27.1105
4.52555
-0.748352
-4.80704
-30.2451
31.738
3.88525
-0.571096
-6.31104
-36.2328
37.396
5.62154
-0.473667
-7.07929
-37.8187
37.4884
7.21989
0.189675
-1.10057
-38.1658
39.968
0.100446
-0.802033
4.78544
-46.4438
47.9216
-6.61899
0.355702
-49.0188
14.0862
182.514
-11.7417
5.34243
-48.6297
-46.3471
-46.2057
601.382
-11.7424
26.6774
-167.276
-167.207
-153.013
-152.286
592.954
-9.4794
15.8249
605.052
-3.22187
7.79326
620.971
30.2099
10.5864
57.2656
-5.92528
-1192.15
-750.849
229.308
-355.907
-452.378
-130.667
-33.1538
-63.6629
-104.302
141.332
95.2467
-37.4987
59.305
116.279
-24.7659
72.3151
56.9168
67.1359
-59.4222
84.7955
25.8742
8.05751
-17.2239
-29.2496
30.5305
14.4941
1.44889
-11.373
-34.3399
36.2506
9.88449
-0.422227
-5.20299
-37.1683
37.27
5.55768
-0.456336
-2.59916
-37.9784
39.489
1.88331
-0.794763
-1.74498
-42.6359
43.378
0.00922492
0.993619
-1.34658
-46.6483
48.8602
-1.28451
0.419189
4.73937
-52.1666
52.3035
-5.08593
0.209719
6.9912
-45.1634
43.1181
-5.41212
0.466221
-40.5675
9.81371
160.033
-11.5164
-3.21831
-37.8511
-39.4937
-37.2001
574.831
-9.19632
4.52393
-158.558
-142.198
-147.346
-133.799
569.176
-14.0833
10.2591
569.661
-9.10407
5.39709
590.53
5.55661
3.78389
33.4799
-6.46695
567.392
198.429
-1121.92
448.883
-257.929
-75.9395
552.957
88.1953
-255.932
505.5
231.324
-88.6206
487.571
126.945
7.26227
118.26
-97.205
12.6398
17.7057
44.242
20.4645
45.9434
109.568
112.132
103.82
-2.71733
116.111
8.54038
10.7577
-6.35845
-2.39499
-5.67843
-4.18995
-97.1238
96.0453
6.57566
8.87129
-3.14313
-4.05007
-2.98528
-4.82204
-115.047
118.034
6.79001
7.3232
-3.91391
-4.7223
-3.64107
-0.810525
-115.909
111.73
-4.312
7.67196
0.924202
-0.464867
1.17067
1.39405
-118.009
112.118
-6.36906
5.185
2.05831
1.45824
2.16458
2.14961
-112.39
110.581
-13.063
4.16467
3.00278
2.32047
3.23505
3.21067
-119.126
119.887
-16.5385
1.28952
4.05684
3.19705
4.02277
4.32367
-124.07
126.117
-19.1542
-0.483198
4.80189
3.96567
4.49937
488.693
-28.992
-6.7189
12.4334
4.94748
9.70011
3.42154
-129.623
-120.598
-120.676
-112.588
502.229
-25.006
2.27398
499.088
-9.08202
-1.86018
495.556
-1.67851
-3.89399
500.295
11.457
-10.6388
25.5639
-11.0134
449.256
-446.559
1419.43
648.436
-391.959
-65.1505
592.686
18.2498
125.696
650.209
202.034
-28.2332
572.104
205.23
-0.178284
473.384
91.085
-89.5703
448.746
207.205
-26.2357
-15.6058
-62.4758
-16.9109
-61.3394
431.293
-20.1158
-25.6221
9.79207
18.0074
12.9772
22.4141
461.225
-19.8915
19.0268
0.815054
-18.2092
3.03886
-14.7121
484.733
-117.595
20.4736
16.6301
18.3645
18.4958
20.1236
500.42
-58.5983
14.06
11.6895
3.10837
11.2272
2.82602
497.408
-83.5445
10.8653
20.4305
18.7044
19.0086
17.5477
485.783
-48.2951
9.94717
17.103
10.2374
14.6109
8.02116
472.287
-57.2468
5.32928
20.4893
14.2429
17.9722
12.7092
463.006
-30.4483
10.7377
455.619
-24.0922
6.473
448.755
-4.86993
2.65191
446.546
2.81688
-2.28635
446.693
13.7013
-2.39157
23.7649
-6.55708
992.707
-915.97
-2849.68
742.178
-56.1434
-85.2855
711.527
22.7965
26.1037
745.961
166.167
1.43368
724.755
242.932
-16.4961
746.159
192.801
-123.12
773.987
209.79
-30.4122
731.81
47.845
-25.7846
646.253
2.24998
63.4158
559.435
-75.6263
44.8486
492.564
-23.6909
31.9642
436.658
-46.2733
18.6347
402.141
-21.0463
7.26769
381.589
-41.5825
4.88803
379.694
-27.42
-1.13337
381.441
-23.5676
-2.2712
386.782
-10.4741
0.263072
396.83
-3.34219
-3.88856
404.066
7.04194
-0.576947
16.7918
-1.09475
-138.249
-268.367
2657.06
200.609
156.271
-551.273
717.078
-31.7874
-461.886
719.938
71.2839
92.0231
835.572
104.392
22.9052
950.318
112.647
-34.5914
1014.69
104.54
40.8773
1029.19
2.56512
30.7838
901.838
38.8364
90.7621
764.876
-7.10148
68.4369
639.753
37.7743
63.6585
564.928
4.59228
23.9587
504.486
13.168
26.2285
458.017
-10.8014
15.6875
431.39
-13.1243
12.3314
418.087
-17.2771
7.01231
414.424
-8.73852
1.92761
415.354
-2.54488
-1.72742
416.058
6.40734
-0.0695211
15.1225
-2.31257
-546.775
-1031.72
-1525.29
-7.68657
16.887
-399.704
640.704
-425.734
-254.444
899.94
-149.715
-38.237
1006.36
-109.047
107.014
1077.79
-2.69603
43.9222
964.611
60.1034
157.611
845.218
26.2779
95.6799
705.454
63.8566
114.743
631.793
30.9035
35.6561
594.354
54.3592
20.8548
563.656
35.298
-0.00815088
530.684
36.904
9.23571
493.345
22.3126
4.22493
451.387
16.1788
12.655
421.423
6.29822
6.38871
406.743
7.56511
-1.62385
400.803
9.5255
-6.13031
398.625
10.9858
-2.40003
15.2963
-3.32133
502.452
-903.125
1217.79
750.14
-186.916
-43.8852
757.633
-656.534
223.307
890.102
-509.864
227.681
802.358
-380.479
359.177
727.887
-105.716
177.491
603.847
1.85034
182.293
554.472
16.5585
59.0946
556.082
18.9904
43.2557
564.645
28.6083
-6.26733
570.625
51.5745
-3.19594
564.045
53.0676
-11.1893
549.505
55.9509
-4.50651
529.098
50.4172
-7.69811
501.738
46.4856
-2.94723
477.384
39.2391
-8.58648
462.091
32.4655
-9.60769
454.514
28.3888
-11.2862
448.635
25.0485
-8.18382
24.2612
-11.9005
1326.15
-1147.49
2054.87
1514.64
-582.354
206.95
1286.28
-688.565
260.39
1284.85
-547.426
38.9963
997.264
-416.432
323.536
785.031
-73.2837
179.801
582.304
36.9508
167.626
518.59
43.7437
36.5287
525.196
-40.6001
52.9844
539.949
-3.90908
17.7645
548.062
34.1729
9.28835
546.523
57.9913
-3.38433
544.42
64.5786
-6.52555
540.933
70.2813
-16.3768
537.071
72.5219
-22.174
533.853
73.0262
-30.5695
531.145
68.5241
-33.3502
530.006
65.9657
-36.4377
524.869
64.0157
-33.8308
54.2332
-32.3398
877.443
-1095.16
1228.38
-933.293
1432.63
-892.807
1599.68
-714.486
1685.44
-502.19
1898.38
-286.224
1875.04
60.293
1704.68
214.107
1295.54
368.534
1036.08
255.557
912.639
157.612
849.045
121.585
801.678
111.945
769.508
102.451
754.447
87.5823
753.604
73.8694
759.998
62.1304
776.117
49.8468
808.613
31.52
26.6245
475.476
38.2445
3798.14
695.339
-76.0073
-1663.28
769.162
-78.7879
-660.158
797.369
-157.89
-282.465
765.906
-51.5729
155.648
696.653
88.0362
34.4843
649.71
73.8531
209.485
620.62
62.342
-46.9047
609.717
-5.43112
-17.7677
613.06
-2.67623
-57.8745
629.022
-27.1312
-13.2704
649.889
-26.8525
-18.2514
674.28
-37.6865
5.1247
702.721
-39.0997
1.42514
731.838
-43.4042
12.1977
760.162
-42.9418
5.34936
800.915
-57.9524
8.11044
838.089
-55.3357
13.9951
887.179
-68.6474
13.2229
-59.818
8.61481
425.998
317.593
-353.381
213.059
-224.847
504.138
644.97
-129.731
-153.257
557.139
-146.356
196.215
642.252
-110.372
191.418
625.778
72.4855
90.0448
652.382
15.3713
129.575
640.242
68.3305
-5.54881
633.613
-17.7208
23.0018
633.579
-4.43054
-19.4916
636.057
-38.4762
15.1362
644.99
-34.6284
3.23629
655.062
-52.1278
24.8489
667.253
-48.3263
23.7122
679.08
-53.8521
34.6444
687.966
-49.1037
42.0207
693.254
-60.1251
45.9358
704.83
-63.4916
44.8888
722.16
-79.2547
34.3207
-58.4081
11.4895
-14.5553
-1243.8
4247.07
-51.9147
-449.109
-141.374
617.477
-529.345
-653.78
626.818
-209.488
188.254
716.077
-227.049
232.857
745.151
28.275
164.304
754.327
-12.7589
157.012
739.752
85.8696
49.2819
716.375
-0.244605
59.3016
700.768
17.8638
14.3722
685.42
-25.6088
34.3657
678.932
-23.9927
9.24853
671.993
-45.8761
18.864
667.679
-42.4957
8.19792
660.825
-48.2748
14.3856
652.003
-40.701
15.2098
635.798
-45.3958
25.5592
619.017
-45.4796
27.0416
599.483
-57.9441
25.0318
-40.5349
-13.9834
1446.3
-204.209
-2454.7
1715.04
-65.678
-1180.99
1488.1
51.2032
-923.601
1343.57
54.1676
-400.531
1102.25
42.0561
-103.57
1002.26
152.066
-1.19576
905.761
68.0837
106.845
853.531
147.407
49.664
788.089
61.3296
72.1501
734.159
80.9013
23.4906
691.841
12.3834
27.0254
665.337
5.05013
-4.61054
646.815
-27.1281
-4.27449
639.217
-33.758
-12.1398
633.869
-44.2899
-5.57828
626.436
-35.2054
1.18286
605.834
-26.925
17.0875
581.875
-20.9628
25.7874
550.126
-25.1233
34.3717
-12.9891
-9.81036
741.323
-1260.01
60.7046
740.592
-199.627
-1078.02
1038.51
-15.5102
-831.119
1054.06
97.7903
-256.191
958.876
135.856
-101.206
920.513
210.599
-94.0615
864.352
112.298
14.8281
844.946
174.431
-21.7414
800.395
97.9854
23.498
769.006
117.941
-6.21305
726.989
54.5292
17.007
699.642
36.8766
-4.562
687.839
-16.4461
-1.92104
679.441
-26.9172
-12.8388
671.795
-39.346
-9.50815
660.061
-25.9848
-6.92596
625.876
1.11615
17.0409
582.508
21.6243
24.4118
535.253
23.1982
41.1968
19.4505
4.27527
988.902
-473.644
-35.5118
1085.02
-17.2794
-1136.29
926.889
180.328
-377.7
937.021
164.376
7.44112
867.614
207.133
95.4892
838.574
256.811
13.7642
842.216
98.7686
36.8109
806.016
217.074
-20.6728
786.194
114.89
-3.61635
767.575
138.356
-21.5963
751.216
66.0756
-2.54332
739.312
44.7196
-4.68649
733.387
-14.0272
15.3975
726.005
-17.8511
18.4106
712.75
-23.5449
15.9219
695.197
-7.98554
-5.42324
664.535
31.8513
-4.19612
628.433
57.0387
13.5093
579.76
71.2821
45.56
56.593
15.8956
1564.7
946.637
-3470.71
1185.13
672.693
-643.378
888.09
569.061
-504.272
866.725
237.498
3.32588
800.479
287.131
-26.9509
693.418
374.01
-64.2928
688.165
36.0022
-42.9467
10.3092
36.1722
13.0405
671.114
54.9497
-64.2151
61.3546
57.8882
62.9885
671.768
30.3057
-36.3414
23.2177
30.9011
23.3606
666.001
34.6856
-34.5978
36.9863
35.0176
36.0624
655.601
19.8747
7.40223
13.4237
18.2744
11.0848
644.28
12.7114
52.3363
9.65262
11.6414
9.43743
634.706
1.34473
72.6951
-3.63257
1.73872
-2.62993
618.681
0.784724
49.9625
-2.10774
1.96687
-0.526515
602.663
-8.29342
7.35106
599.571
-0.159218
-22.4704
600.443
32.9966
-40.1672
605.436
48.8475
-31.4038
599.94
73.1014
-12.5004
65.8716
-16.5766
443.008
1066.87
973.636
390.66
699.988
-1453.86
609.127
371.226
-502.077
626.861
253.195
-211.666
666.515
239.953
-60.6313
152.379
97.7529
-84.7409
158.838
138.486
144.486
124.43
101.426
125.438
14.6857
149.197
42.6584
-18.16
19.8277
-133.808
141.622
47.5622
-20.2541
12.978
-150.74
149.154
32.4501
-13.5359
8.6082
-146.456
148.931
31.9008
-8.29823
-1.10652
-151.8
147.174
22.6665
2.94074
-14.0737
-141.548
137.432
14.5446
16.3569
-13.6475
-136.252
133.188
2.92394
15.1321
-3.35793
-129.243
129.131
0.153726
4.10153
473.58
2.80749
-23.298
-125.798
-121.151
-117.718
-114.17
-2.18538
3.33385
-1.30472
488.668
-6.28609
-36.5747
500.276
23.8292
-49.0477
518.893
28.3759
-48.8955
530.339
56.7536
-22.3774
59.22
-13.2468
-328.353
856.887
1341.28
198.05
474.679
-1692.18
309.775
377.747
-800.675
271.982
356.453
-328.303
78.8144
294.623
-197.266
66.0777
71.9995
59.9266
13.7128
101.351
79.4239
-17.9201
1.02118
-14.1788
-32.0054
32.3968
14.5372
-1.77098
4.24017
-30.309
-12.2433
30.4599
12.1165
-4.26433
2.3924
-32.0348
-8.85491
32.3545
8.64182
-2.49895
1.71113
-32.0617
-7.73821
32.3337
7.27956
-1.52448
-0.919258
-32.3549
-6.27252
32.1587
6.08207
1.306
-4.21315
-29.809
-4.86264
29.3853
4.96342
4.53606
-3.4848
-28.3147
-1.75401
28.4304
1.74163
3.38148
-0.070795
-28.0515
-0.150848
28.5506
-0.335332
0.0579198
-28.4417
3.2936
113.919
0.358187
-3.0215
-28.1595
-27.7115
-27.4295
443.58
-8.16178
-17.9551
-112.462
-114.149
-105.712
-107.542
453.682
14.2228
-21.1789
456.09
25.9509
-24.0967
459.914
51.6395
-11.1493
57.4789
-12.5291
-208.967
1055.65
6653.99
-84.0387
266.064
275.133
4.93011
229.094
188.425
28.5772
301.673
-18.9395
30.1479
268.924
-140.871
33.1335
21.8479
22.6146
18.6334
-77.5451
42.8855
73.1139
-26.9399
2.16223
-18.2402
-15.5686
16.931
17.2711
-2.5555
1.90609
-13.1172
-18.6504
19.2887
12.6393
-2.06649
0.203833
-9.33811
-20.6532
20.9669
9.04891
-0.228287
-0.724588
-7.9496
-21.5639
21.7105
7.76126
0.766346
-0.305948
-6.71349
-21.8838
22.0892
6.46526
0.348708
0.167606
-4.87091
-23.1719
23.785
4.31146
-0.221244
0.678732
-1.26822
-25.446
25.8898
0.842734
-0.697072
0.00208349
0.794308
-27.0001
27.3927
-1.24077
0.0517283
-28.7193
-1.70929
2.25605
117.006
-5.86598
2.56251
-29.1069
-28.0388
-28.3844
467.857
-9.16444
1.42427
-117.89
-124.568
-110.995
-116.025
470.507
7.75479
2.19453
470.8
24.5837
-0.327968
470.426
50.952
1.5542
56.4885
-9.69538
127.666
1310.47
1657.38
-166.175
288.777
332.546
-91.4216
184.946
-10.4486
-98.1422
233.64
178.023
15.7272
171.242
-35.4243
20.4296
3.65519
6.19668
-4.65557
-68.7952
33.0881
55.6484
0.441489
1.04194
-15.9038
-13.2153
15.1067
14.3454
-1.37485
2.29191
-11.6743
-17.2457
17.9166
10.9713
-2.25976
1.05891
-6.3494
-20.5925
21.5696
5.29846
-0.985123
0.328437
-5.51527
-24.1404
25.0146
4.39241
-0.0798296
0.329718
-4.92655
-27.5158
28.3367
4.00872
-0.23285
0.108818
-2.79094
-30.7309
31.7575
1.96297
-0.3075
1.58632
1.10105
-34.6016
35.4968
-1.98381
-1.59873
-0.835086
2.60714
-37.5658
37.9499
-3.08669
0.930496
-36.8668
-8.66221
6.31824
139.53
-3.93311
10.7745
-36.8621
-35.1692
-35.1292
498.925
-0.460957
25.7491
-133.171
-131.054
-122.583
-119.893
502.937
3.01953
16.5481
512.583
15.2649
7.46676
519.658
43.9316
10.5317
52.0492
-7.8756
-1157.95
-623.505
-129.744
-531.94
-252.515
-215.388
-248.568
9.7095
-212.438
-118.014
82.0542
-16.4663
6.76426
80.7431
-77.3774
22.1758
-7.68933
3.84559
-18.719
-40.0855
48.8051
1.19501
15.5686
-5.43629
-10.0603
-23.481
25.8536
7.58002
5.54391
-0.372838
-6.30802
-29.3817
30.2199
4.54404
1.29858
-0.676593
-3.83102
-30.2437
30.0501
3.61904
1.08219
0.396211
-1.83946
-29.7337
30.2748
0.952906
-0.0507037
-1.72979
-0.853681
-32.0965
32.9965
-0.10651
1.78995
-1.00853
1.27924
-35.202
35.8958
-2.09992
1.13545
-1.21386
4.11126
-35.9338
35.7877
-3.9986
1.24727
0.0810762
3.18611
-34.6427
34.4767
-2.8472
-0.254
-33.5283
2.53278
3.28747
128.998
-5.05954
-1.07216
-31.9844
-32.2785
-30.8952
461.186
2.24738
7.14849
-127.93
-114.752
-117.455
-106.382
468.242
-1.50157
7.72429
479.302
6.31191
3.28977
496.503
28.4131
2.10216
40.0561
-8.20301
-209.997
602.939
839.334
208.726
-149.4
-597.777
332.991
133.504
-503.992
277.853
204.133
-155.561
309.6
87.3546
-31.0965
74.3537
-144.058
19.3058
36.208
60.0522
41.4463
65.7833
63.9084
57.6019
47.6378
-1.24173
-21.8679
74.9894
7.96794
21.5657
-3.29592
-1.0335
-2.73026
-1.30807
-19.8248
-50.5449
56.5991
-5.13455
23.6782
-1.34901
-1.05891
-1.05699
-1.73148
-14.5499
-75.7273
77.9183
-0.654913
18.0687
-1.21936
-1.24286
-0.861204
1.1794
-12.1741
-78.1812
78.4555
-9.77594
14.8872
2.13676
1.26768
2.20473
1.81757
-7.89398
-88.6198
86.4299
-8.08028
9.38382
2.55737
1.83441
2.5709
2.48253
-5.79528
-88.8918
88.6777
-12.3563
6.59692
3.42178
2.46377
3.40068
2.60705
-1.95069
-96.7041
96.1791
-11.3397
2.00503
3.39937
2.51775
3.28622
2.47331
0.311582
-99.4933
101.25
-12.8128
-0.168646
3.18413
2.27224
2.98385
380.565
-14.5573
-4.26885
7.00802
0.428209
5.91191
-0.604614
-104.1
-94.0809
-96.0842
-86.9359
395.51
-11.677
1.25375
397.619
-1.37276
-4.09804
405.252
4.35024
-9.56547
416.225
19.7727
-12.9706
28.1555
-12.2699
224.742
644.697
-2411.48
-119.28
-273.541
403.012
370.179
-61.3159
-168.944
420.345
127.795
-2.06118
366.954
123.501
17.0666
231.009
-29.2041
-68.4785
241.614
126.975
-5.30561
-19.3499
-60.596
-22.1652
-56.3991
228.292
-123.065
-8.61879
24.7988
30.7719
29.769
34.0435
280.623
-41.1693
20.0872
4.16508
-11.1558
4.21054
-9.44143
304.941
-124.525
28.8721
21.8528
23.352
22.5156
24.0889
323.77
-56.9949
23.3453
11.1852
3.49854
10.7656
3.43099
330.058
-83.3231
16.8482
18.6198
17.4335
18.0247
16.9739
335.394
-43.1695
13.32
12.1836
6.20444
10.8702
5.20242
337.032
-51.5756
6.71814
15.2987
10.0764
13.8461
9.32742
343.089
-22.7274
12.851
348.537
-17.3696
6.71761
350.929
-2.83561
1.72355
356.123
2.19558
-5.32612
365.589
13.4528
-5.53778
19.9937
-4.97829
362.466
-52.3526
-5878.54
267.528
-158.311
-105.577
428.43
-173.032
-23.0829
492.273
49.3391
16.0469
427.335
130.29
41.6525
386.205
-11.0586
-100.135
421.936
39.1315
21.7002
387.146
-96.0438
-18.0161
380.42
-44.2572
73.2292
353.964
-94.6624
41.4422
335.229
-41.8375
35.5416
318.69
-62.6962
14.5464
312.174
-35.8267
6.44124
307.463
-45.825
3.84863
309.855
-27.0019
0.748664
312.836
-22.6081
-0.0134918
317.03
-9.57509
2.80811
322.727
-4.49584
-2.89394
332.824
5.57124
-2.79226
13.699
3.25997
735.396
-1167.19
1221.33
536.404
-116.11
-394.482
419.669
-117.455
-400.728
401.277
-5.8976
165.652
508.75
-12.2517
57.9737
534.501
-50.2533
-21.148
571.767
-28.7719
71.5145
556.755
-84.0313
33.7833
510.871
-20.6201
113.009
459.621
-43.5638
68.5883
416.869
-7.20184
71.7748
381.327
-27.7834
24.5878
358.302
-15.5947
29.022
343.199
-27.9604
12.9258
336.103
-20.2326
12.6581
333.109
-19.1407
6.53902
332.461
-9.29395
2.29394
333.995
-4.47247
-3.28412
339.335
2.81564
-2.65369
10.7058
1.26406
279.077
-2026.31
-2706.57
-275.156
-203.909
242.328
284.275
-558.876
-372.454
418.81
-176.488
-2.18115
551.271
-160.191
122.491
582.392
-89.209
51.7569
545.313
-25.6624
191.581
492.061
-37.5005
102.401
454.737
5.44594
126.001
426.03
-16.2314
37.0304
407.99
3.6096
28.0836
390.036
-11.0261
1.18891
376.025
-3.19566
10.848
360.507
-9.80217
1.58396
348.984
-5.18343
9.12926
340.279
-5.4836
1.43688
334.479
-1.72441
-3.39437
332.387
0.95928
-9.46948
334.309
5.1865
-6.69319
11.2993
-1.088
-383.702
-901.683
2199.52
147.402
-553.019
-225.879
497.008
-770.088
84.9126
574.108
-348.033
322.126
548.982
-236.049
460.161
475.908
-38.4416
199.797
420.014
7.94452
204.581
392.031
-4.94008
54.517
405.879
-12.4425
47.2966
410.672
-16.6571
-10.6352
421.479
-3.08671
-7.30698
419.988
-2.29171
-18.4324
418.388
3.84439
-9.94666
411.074
3.34877
-13.5346
404.805
7.44565
-9.30747
396.94
8.23638
-14.4427
390.427
9.30729
-14.1257
386.908
10.908
-17.7156
385.038
11.3474
-12.4747
13.4082
-15.0123
899.427
-355.33
1999.27
882.496
-353.423
24.2852
746.983
-499.101
124.917
701.646
-251.775
-11.9248
610.095
-107.762
286.8
518.471
123.957
109.026
447.004
108.443
138.596
421.044
49.7589
7.78914
451.852
-47.5139
57.2481
466.768
-24.509
10.7
479.176
-1.6997
-4.50631
482.158
20.7406
-29.3987
488.892
23.878
-33.2937
493.155
27.9038
-45.1947
498.132
27.9248
-47.6303
500.595
29.2774
-54.0728
500.666
28.6871
-52.8017
500.357
29.7783
-54.9987
494.405
30.7389
-47.2702
27.7736
-46.6774
1956.52
-2478.45
1755.35
-1085.54
1363.37
-999.931
1203
-805.89
1088.09
-495.038
1172.54
-246.724
1221.38
119.899
1212.57
272.672
1073.44
460.156
969.887
334.598
883.387
242.412
843.171
182.541
820.228
158.766
810.921
139.662
805.898
120.531
809.317
99.7276
818.431
81.7027
837.134
60.923
861.969
37.424
34.0845
1469.79
27.1914
-1203.27
232.372
42.9953
-468.857
506.022
-102.066
-831.742
435.241
-95.8618
-115.821
515.979
-37.6428
112.552
493.695
52.8524
3.91629
522.185
-4.79351
185.788
505.119
10.1627
-40.001
509.43
-36.3846
14.3057
509.583
-22.1996
-35.8281
529.886
-43.3102
9.73636
548.005
-33.8258
-2.54452
572.349
-40.8611
21.6414
599.167
-36.5562
11.1638
628.403
-38.8467
21.8087
657.306
-38.0178
14.464
696.905
-49.6186
18.1295
735.75
-45.9443
21.0951
782.677
-55.8192
22.1146
-42.0114
12.9571
-271.738
-109.534
970.581
168.868
46.4762
60.0506
384.705
-3.44034
-467.72
379.232
-70.9452
176.772
507.559
-95.4734
120.921
495.813
48.397
106.246
534.593
-27.6777
113.679
514.847
28.0618
-3.70158
510.125
-35.8645
27.2039
501.335
-14.9118
-17.99
501.682
-43.3075
14.7873
503.83
-29.6221
-3.11558
511.24
-42.4408
19.0189
518.579
-33.4068
13.2234
528.218
-37.5016
23.6607
537.477
-32.7158
27.459
546.964
-43.4975
30.3279
562.506
-43.7469
27.1491
577.572
-54.8417
18.2779
-34.5251
0.123135
349.94
-822.759
-229.172
-77.6484
34.3287
298.362
335.155
-312.131
-757.891
413.133
-105.551
144.882
560.374
-164.359
154.5
581.029
73.0913
118.955
602.421
-16.0198
123.962
576.178
82.5455
21.0416
557.709
-8.75874
50.6649
534.743
19.2456
3.18096
521.484
-22.3106
26.6271
513.34
-13.2161
0.986708
507.11
-30.6046
13.2582
501.935
-22.2143
2.18045
496.032
-27.3263
10.1127
489.094
-19.9876
9.41983
480.762
-27.4175
17.8108
476.06
-27.5942
15.5916
469.547
-36.2245
12.9273
-22.135
-9.86764
2303.99
-429.348
-882.84
1997.55
118.544
-958.761
1473.12
143.516
-854.819
1197.28
107.107
-337.353
899.607
79.4628
-49.7158
786.651
194.444
-9.59312
699.956
88.073
89.4466
646.824
163.68
21.6614
594.589
63.1002
52.5258
547.427
84.8564
5.04185
519.235
11.327
21.5798
498.058
9.88554
-6.53464
484.798
-18.1051
-3.51439
476.868
-16.1598
-10.2642
469.591
-22.0525
-3.57542
459.78
-10.6211
1.62748
444.7
-8.12927
12.8795
431.814
-5.57066
16.6503
419.606
-8.23089
18.5858
-3.19165
-6.65562
1158.17
-2358.78
-141.509
768.502
-279.753
-290.054
897.552
-53.3852
-763.267
855.07
72.9914
-179.593
743.502
135.093
-45.2674
689.866
232.93
-78.9118
640.38
127.307
25.0802
612.003
195.579
-25.2636
575.292
101.104
22.2055
547.553
118.183
-11.8012
522.912
40.6959
12.2797
509.108
24.9645
-5.83724
504.741
-15.6294
-0.0298975
500.304
-14.8038
-9.75782
491.118
-17.3062
-5.06833
475.786
-1.15518
-1.05982
446.416
23.2738
15.0081
419.074
28.324
17.8587
401.048
26.3504
24.6419
19.7308
4.1948
2173.41
-388.91
1492.01
1409.13
3.51827
-655.278
858.586
144.315
-24.8568
778.593
148.479
11.9468
684.839
227.795
96.5414
637.562
294.096
-0.125781
639.496
126.618
35.5665
587.933
248.377
-21.9082
566.097
119.505
-0.181398
542.332
140.071
-19.7194
529.964
50.2565
0.264606
520.551
33.4792
-3.78828
520.167
-10.659
10.8111
520.412
-7.83048
11.192
514.539
-6.51693
11.0061
496.535
17.2667
-5.84142
466.27
49.4108
-0.0677872
438.945
58.367
10.7909
419.533
62.6479
28.675
44.8392
12.2017
2494.56
725.965
-2048.04
1550.53
520.061
-215.891
881.164
585.786
-276.375
750.167
279.007
3.79441
622.129
331.616
-2.73345
491.076
411.635
-50.779
489.599
37.9563
-22.0318
17.1249
35.1775
16.9219
461.282
63.5259
-49.8468
67.2059
64.43
67.1636
461.203
30.6528
-21.5669
23.1627
29.1173
21.8768
450.986
35.1425
-23.919
35.5279
34.4989
34.4401
451.819
15.2265
12.5048
8.2788
13.615
7.20086
457.467
11.0654
37.9302
9.74867
11.1372
10.2851
466.837
2.62985
48.0861
-0.881736
2.97813
-0.145609
465.08
3.54127
31.1181
1.58388
4.67549
2.97026
457.892
5.6103
2.41215
452.051
18.1714
-17.5342
441.607
46.4703
-26.783
434.714
53.6237
-19.7674
428.27
66.6075
-10.0161
53.7816
-9.9534
732.479
-385.958
2108.72
417.718
239.478
-858.518
567.46
397.818
-463.851
496.76
307.066
-169.024
515.232
291.713
-39.2002
107.497
109.164
-50.8606
113.51
92.9648
98.6397
130.38
110.681
130.151
15.3659
103.685
43.4031
-17.0015
20.0395
-86.1454
94.1519
52.0185
-16.5387
13.0167
-102.8
100.141
31.8102
-11.515
6.99191
-96.661
98.9657
30.4596
-4.61374
-5.2736
-103.156
100.544
17.1976
5.91486
-16.7554
-99.0122
100.391
11.2586
15.1837
-14.4207
-103.775
104.293
4.00694
12.5249
-4.03894
-102.752
103.59
3.01386
3.72811
369.353
5.0054
-17.9507
-100.67
-98.2041
-90.9214
-89.9722
-0.344344
5.66734
0.349154
377.158
2.31757
-28.5254
376.076
32.6954
-34.1908
380.585
32.5078
-32.2886
388.283
52.873
-16.3408
48.6059
-4.49569
1352.08
-970.375
3517.7
544.866
61.1871
-706.675
341.954
380.5
-580.444
195.983
371.866
-247.132
51.833
299.894
-169.802
39.8023
40.2344
28.4686
16.8611
67.1748
90.8678
-13.9068
1.79316
-14.1956
-22.7694
22.9142
14.598
-2.34039
3.70098
-20.1859
-11.8121
20.3372
11.3532
-3.39341
2.24945
-21.7732
-8.28807
21.8912
8.01386
-2.09318
0.50872
-21.1366
-6.85624
21.383
6.38175
-0.280562
-2.3004
-21.7657
-4.85993
21.8627
4.75697
2.30636
-4.37748
-21.3343
-3.38342
21.7599
3.3489
3.98638
-2.68278
-22.641
-1.54449
23.1551
1.31821
2.39488
-0.0697909
-23.3372
-0.585094
23.8181
0.0884466
0.085505
-23.5566
2.87936
92.9478
2.60051
-1.48074
-23.3375
-22.6148
-22.4326
345.564
-0.918276
-11.3217
-90.2808
-92.3557
-82.2441
-84.0815
350.288
19.7687
-12.9757
348.796
26.376
-16.4725
354.777
45.0263
-9.28365
45.5056
-4.47005
412.291
-2257.57
1999.16
-587.698
245.083
1091.23
-79.7565
219.24
-158.256
-84.5562
299.78
57.9458
4.90677
229.798
-152.564
3.50848
-4.59558
-6.58804
23.5232
-80.2638
12.1393
66.5934
-17.0851
2.22282
-17.5827
-9.62307
11.7326
15.6281
-2.37774
1.86544
-11.5336
-13.8716
14.4066
10.8679
-1.73478
0.159835
-8.08415
-15.7194
16.023
7.72122
-0.100526
-0.734233
-6.41355
-16.8511
17.1006
6.23363