/*--------------------------------*- C++ -*----------------------------------*\
  =========                 |
  \\      /  F ield         | OpenFOAM: The Open Source CFD Toolbox
   \\    /   O peration     | Website:  https://openfoam.org
    \\  /    A nd           | Version:  10
     \\/     M anipulation  |
\*---------------------------------------------------------------------------*/
FoamFile
{
    format      ascii;
    class       volScalarField;
    location    "7.6";
    object      turbidity;
}
// * * * * * * * * * * * * * * * * * * * * * * * * * * * * * * * * * * * * * //

dimensions      [0 0 0 0 0 0 0];

internalField   nonuniform List<scalar> 
12920
(
-0.0275373
-0.0272616
-0.0357062
-0.0443732
-0.0585482
-0.0791815
-0.105947
-0.130038
-0.154691
-0.180418
-0.210983
-0.238269
-0.263501
-0.281915
-0.296206
-0.304059
-0.311485
-0.318773
-0.323287
-0.325885
-0.0323
-0.0599598
-0.0792152
-0.097675
-0.109278
-0.121968
-0.139536
-0.157367
-0.18077
-0.205491
-0.234944
-0.261674
-0.284702
-0.305233
-0.324735
-0.344753
-0.365909
-0.388825
-0.412826
-0.435101
-0.0219192
-0.0520164
-0.0648297
-0.0941008
-0.119303
-0.141884
-0.161209
-0.179203
-0.198706
-0.217971
-0.235703
-0.251815
-0.26685
-0.282605
-0.300445
-0.32213
-0.34865
-0.381374
-0.419065
-0.454924
-0.0147006
-0.029952
-0.0353213
-0.0510115
-0.0801779
-0.116262
-0.144917
-0.169004
-0.187944
-0.205241
-0.219931
-0.232695
-0.243824
-0.256635
-0.274259
-0.297543
-0.326518
-0.364288
-0.411964
-0.46631
-0.0653402
-0.0345256
-0.043016
-0.0573583
-0.0767591
-0.0975297
-0.118526
-0.136338
-0.152698
-0.169931
-0.187101
-0.20398
-0.218284
-0.232318
-0.249905
-0.272337
-0.301595
-0.3407
-0.393593
-0.460088
-0.0411208
-0.0522586
-0.0590692
-0.0781644
-0.0950419
-0.110459
-0.123685
-0.133969
-0.144974
-0.156987
-0.172283
-0.189095
-0.20793
-0.227254
-0.246699
-0.265199
-0.287871
-0.317155
-0.356458
-0.412622
-0.0332453
-0.0450745
-0.0623368
-0.0801399
-0.0923739
-0.100496
-0.109953
-0.121955
-0.137429
-0.157269
-0.181863
-0.206135
-0.2264
-0.242518
-0.253541
-0.257842
-0.263853
-0.280668
-0.307454
-0.341238
-0.0346339
-0.0302885
-0.0484121
-0.0673044
-0.0877001
-0.0984591
-0.0945738
-0.0931038
-0.0960383
-0.105351
-0.119968
-0.13515
-0.140882
-0.137514
-0.125678
-0.14787
-0.174377
-0.210191
-0.257454
-0.310091
-0.04661
-0.025162
-0.0397493
-0.0639656
-0.0931766
-0.0951661
-0.0948315
-0.0921561
-0.0953068
-0.0981578
-0.102314
-0.111715
-0.116601
-0.107793
-0.0988397
-0.119834
-0.159772
-0.206579
-0.259646
-0.314228
-0.018868
-0.0543438
-0.0646926
-0.0778212
-0.0982282
-0.0954506
-0.100514
-0.108113
-0.113278
-0.114044
-0.113292
-0.11045
-0.107028
-0.103256
-0.110069
-0.143449
-0.175037
-0.210627
-0.250173
-0.289837
-0.0345862
-0.0598139
-0.0757236
-0.0943943
-0.114229
-0.103053
-0.100986
-0.102015
-0.0990841
-0.0970324
-0.0941269
-0.0924636
-0.0933313
-0.0904145
-0.0975172
-0.146175
-0.185327
-0.219608
-0.249933
-0.277459
-0.0473876
-0.0558431
-0.0613175
-0.0831113
-0.109256
-0.102392
-0.100087
-0.0951694
-0.0907818
-0.0861693
-0.082061
-0.0798773
-0.079171
-0.0908552
-0.112402
-0.165578
-0.206884
-0.245631
-0.275742
-0.299213
-0.044988
-0.0473598
-0.0541606
-0.077114
-0.110049
-0.138771
-0.134605
-0.12826
-0.123492
-0.126012
-0.13611
-0.154694
-0.180576
-0.199501
-0.25855
-0.290368
-0.316491
-0.340653
-0.35535
-0.36749
-0.0431857
-0.0672807
-0.0697073
-0.0767071
-0.0944299
-0.112115
-0.145317
-0.176749
-0.204097
-0.231192
-0.261391
-0.301048
-0.346074
-0.396727
-0.44408
-0.488251
-0.52469
-0.552015
-0.562434
-0.558433
-0.0598116
-0.0612231
-0.0597854
-0.0727511
-0.0865983
-0.0995756
-0.124541
-0.148435
-0.180221
-0.220326
-0.273536
-0.336482
-0.407275
-0.474475
-0.532718
-0.580484
-0.620658
-0.652557
-0.674988
-0.687163
-0.0340157
-0.0502099
-0.0554179
-0.0738553
-0.0870192
-0.0972425
-0.1123
-0.128138
-0.150732
-0.186571
-0.235229
-0.29453
-0.363955
-0.441079
-0.517833
-0.585102
-0.640428
-0.684778
-0.719988
-0.746919
-0.0215721
-0.0327401
-0.0523032
-0.0676499
-0.0822175
-0.0977603
-0.117433
-0.146521
-0.180687
-0.218949
-0.257749
-0.300911
-0.351866
-0.413554
-0.486031
-0.561865
-0.629441
-0.6863
-0.733875
-0.773518
-0.0180948
-0.0452791
-0.0681995
-0.0869464
-0.107247
-0.134659
-0.162706
-0.192999
-0.218001
-0.241348
-0.27022
-0.304931
-0.34978
-0.398869
-0.452172
-0.502198
-0.551219
-0.600247
-0.64786
-0.691811
-0.0315846
-0.0538139
-0.0589081
-0.0674443
-0.0894138
-0.136106
-0.181174
-0.219137
-0.246793
-0.275781
-0.304639
-0.334806
-0.365202
-0.392035
-0.416434
-0.437451
-0.459066
-0.483809
-0.513771
-0.550103
-0.0470462
-0.0366465
-0.0318656
-0.0353683
-0.0443335
-0.058116
-0.0764217
-0.0975156
-0.129187
-0.179304
-0.231253
-0.275265
-0.314262
-0.351868
-0.38787
-0.420897
-0.450664
-0.477708
-0.502457
-0.524871
-0.00492922
-0.00616176
-0.00877468
-0.0147115
-0.0270176
-0.0264306
-0.0238554
-0.0135123
-0.015829
-0.0206304
-0.02697
-0.0330183
-0.0394485
-0.0452754
-0.0505676
-0.055209
-0.0602607
-0.0634283
-0.0667328
-0.0696476
-0.0384569
-0.0260617
-0.0218333
-0.0303654
-0.0352215
-0.0267956
-0.027657
-0.0261247
-0.0333489
-0.0413043
-0.0524175
-0.0655062
-0.0826588
-0.100314
-0.117179
-0.1322
-0.14265
-0.146887
-0.143327
-0.140833
-0.0374705
-0.0166753
-0.0148333
-0.0318191
-0.0438493
-0.04836
-0.0537013
-0.054805
-0.0594778
-0.0599498
-0.0617509
-0.0621936
-0.0663822
-0.0741432
-0.0866796
-0.101478
-0.116196
-0.123318
-0.117585
-0.103207
-0.0116465
-0.00621633
-0.00565619
-0.00878135
-0.0158923
-0.0289428
-0.0428258
-0.0498761
-0.0528282
-0.046356
-0.038347
-0.0305724
-0.0304371
-0.03649
-0.0483653
-0.0664133
-0.0894356
-0.105856
-0.10958
-0.0976145
-0.0242544
-0.00879561
-0.006927
-0.0070691
-0.00777679
-0.0104608
-0.0146674
-0.0208894
-0.0277198
-0.0304715
-0.0320155
-0.0287203
-0.0283561
-0.0311365
-0.0374946
-0.0491781
-0.0705188
-0.0912314
-0.105331
-0.101468
-0.0320122
-0.0215936
-0.0145137
-0.0139781
-0.0141944
-0.0115882
-0.0117971
-0.0120347
-0.0148356
-0.0189883
-0.024695
-0.0320152
-0.0427282
-0.0498898
-0.0514303
-0.0521058
-0.0641191
-0.0883288
-0.115779
-0.124321
-0.00257172
-0.0123179
-0.0154645
-0.0152623
-0.0116059
-0.00903007
-0.00908847
-0.0121129
-0.0193814
-0.0315192
-0.0508415
-0.0731275
-0.0821689
-0.0725333
-0.0537312
-0.0435509
-0.0447648
-0.0557654
-0.0743276
-0.0958041
-0.00668306
-0.00749035
-0.00973669
-0.00974821
-0.00940975
-0.00904764
-0.00948347
-0.0128765
-0.0201288
-0.0340969
-0.0570454
-0.0802881
-0.0746899
-0.0477623
-0.021667
-0.0242692
-0.0318325
-0.0437232
-0.0607954
-0.080335
-0.0113911
-0.00604668
-0.0048568
-0.00712925
-0.0100672
-0.0112581
-0.0123767
-0.0160289
-0.0249502
-0.0406821
-0.0713936
-0.0967596
-0.0781974
-0.0347418
-0.0186122
-0.0217742
-0.0269559
-0.0347315
-0.0443019
-0.0535909
-0.0105895
-0.011967
-0.00844071
-0.00924443
-0.0122925
-0.0146508
-0.0197035
-0.0311446
-0.0506334
-0.0785098
-0.0843407
-0.0686074
-0.0614415
-0.0696528
-0.0648575
-0.0512897
-0.0432214
-0.0400973
-0.0401174
-0.0416499
-0.0177578
-0.0168897
-0.0176485
-0.0214716
-0.0327699
-0.0312732
-0.0331957
-0.0421188
-0.0494378
-0.0474181
-0.0514959
-0.064574
-0.072187
-0.0818031
-0.0899307
-0.0875312
-0.0872054
-0.0822818
-0.0749184
-0.0673612
-0.0152743
-0.00927698
-0.00806858
-0.0154652
-0.0287722
-0.0398793
-0.0557991
-0.061768
-0.0643353
-0.0603631
-0.068695
-0.0721681
-0.0731519
-0.0617845
-0.0615551
-0.0694717
-0.0764145
-0.0788417
-0.0771849
-0.0750514
-0.00665321
-0.00432564
-0.00583891
-0.0118083
-0.0263976
-0.0412763
-0.0594976
-0.0678791
-0.0679107
-0.0669506
-0.0633786
-0.0561962
-0.0475305
-0.0470956
-0.0545339
-0.0589455
-0.0596418
-0.0598452
-0.0606929
-0.0624118
-0.0382983
-0.0148344
-0.00961574
-0.0104153
-0.0170335
-0.0240814
-0.0383329
-0.0461185
-0.0520292
-0.0554218
-0.0575376
-0.0631187
-0.0693297
-0.0747
-0.0824969
-0.0841204
-0.0807278
-0.0750047
-0.0703403
-0.0694125
-0.00576974
-0.0155995
-0.0124821
-0.0120794
-0.0170687
-0.026287
-0.0414686
-0.0520808
-0.0630098
-0.0669924
-0.0710445
-0.0741022
-0.0715695
-0.0690602
-0.0643276
-0.0628263
-0.0640496
-0.0667957
-0.0705584
-0.0774129
-0.0185031
-0.0111066
-0.010189
-0.0141821
-0.0201833
-0.0293706
-0.0438344
-0.0546917
-0.0679001
-0.0728636
-0.0813679
-0.0882344
-0.0999106
-0.0997058
-0.0898707
-0.0765435
-0.0652056
-0.0598639
-0.0597655
-0.0664213
-0.00937418
-0.00798139
-0.0155118
-0.0205636
-0.0353141
-0.0470866
-0.0618042
-0.0639279
-0.0647895
-0.0577004
-0.0645749
-0.0739866
-0.0898288
-0.0941705
-0.0909344
-0.0750776
-0.058926
-0.0506503
-0.0478529
-0.0510675
-0.0123973
-0.0339672
-0.0478068
-0.0564113
-0.0706125
-0.071023
-0.0698982
-0.0505253
-0.0434277
-0.0388642
-0.0447742
-0.0510764
-0.0554651
-0.0541844
-0.0500024
-0.0448681
-0.0411835
-0.0391131
-0.0381451
-0.0384617
-0.0138449
-0.039626
-0.0391132
-0.0456042
-0.0625923
-0.0641591
-0.0691188
-0.0598414
-0.063364
-0.0591225
-0.0585755
-0.0561104
-0.0543977
-0.0520021
-0.0493811
-0.0468438
-0.044727
-0.0429881
-0.0416118
-0.0404784
-0.0105596
-0.0145991
-0.0116339
-0.0119341
-0.0194403
-0.0300788
-0.0432817
-0.0608789
-0.0837381
-0.103338
-0.119728
-0.138158
-0.15913
-0.177933
-0.191553
-0.199721
-0.202409
-0.199448
-0.191181
-0.185818
-0.0101011
-0.00557659
-0.00485319
-0.00575332
-0.0105049
-0.00805121
-0.00878698
-0.0101405
-0.0132471
-0.0156888
-0.0184542
-0.0205689
-0.022798
-0.0246066
-0.0265652
-0.0282715
-0.0307192
-0.0334204
-0.0367043
-0.0414299
-0.013671
-0.0129439
-0.00858748
-0.0111134
-0.0122151
-0.0114423
-0.0140678
-0.0163921
-0.0203337
-0.0242635
-0.0294904
-0.0348955
-0.0412598
-0.0469204
-0.0519651
-0.0554711
-0.056674
-0.0557075
-0.0529182
-0.0535552
-0.0435145
-0.0113199
-0.00945654
-0.0150379
-0.0180958
-0.0185895
-0.0205401
-0.0208352
-0.02313
-0.0247367
-0.0278968
-0.0315299
-0.0361655
-0.0408194
-0.0450491
-0.0478017
-0.0488949
-0.0468845
-0.0423675
-0.0385782
-0.00918601
-0.00652131
-0.0044771
-0.00556058
-0.00839709
-0.0126015
-0.0170497
-0.0181922
-0.0183627
-0.0170146
-0.0174568
-0.0194406
-0.0226367
-0.0264596
-0.0306109
-0.0349207
-0.0388165
-0.0398899
-0.0380554
-0.0344495
-0.00536091
-0.00370914
-0.0038488
-0.00471006
-0.00543666
-0.0066346
-0.00825277
-0.0101476
-0.0117112
-0.0122824
-0.0130574
-0.0138492
-0.0155651
-0.0180211
-0.0214187
-0.0257304
-0.0312908
-0.0352363
-0.0369309
-0.0352104
-0.00534645
-0.00534244
-0.004911
-0.00453576
-0.0045999
-0.00465263
-0.00572682
-0.00720248
-0.00902085
-0.0108319
-0.0130995
-0.0151293
-0.0172529
-0.0187388
-0.020484
-0.0237959
-0.0302817
-0.0386047
-0.0459003
-0.0460225
-0.000703511
-0.00469979
-0.00700481
-0.00590788
-0.00463924
-0.00470546
-0.00679487
-0.00975156
-0.0147711
-0.0205782
-0.027407
-0.0320249
-0.0301883
-0.0245364
-0.0208802
-0.0221587
-0.0270024
-0.03413
-0.0427389
-0.0504238
-0.0114149
-0.00560006
-0.00612433
-0.00601619
-0.00594519
-0.00643777
-0.00755311
-0.0113856
-0.0167384
-0.0247642
-0.0328802
-0.0341486
-0.0240858
-0.0151726
-0.0139934
-0.017585
-0.02232
-0.0279557
-0.0345711
-0.0406874
-0.0215025
-0.0100065
-0.00344194
-0.00484556
-0.00724757
-0.00813065
-0.00920446
-0.0131376
-0.0200725
-0.0300767
-0.0385917
-0.0341213
-0.0181977
-0.0108944
-0.0111115
-0.0141663
-0.0166339
-0.0197078
-0.0235145
-0.0273982
-0.0176664
-0.00597559
-0.00458398
-0.00657931
-0.00947695
-0.011053
-0.0137106
-0.0188167
-0.0263642
-0.0309025
-0.0276391
-0.0258321
-0.0283278
-0.0303441
-0.0275891
-0.0234568
-0.0202779
-0.0192055
-0.0196891
-0.0212515
-0.00618779
-0.009128
-0.00908297
-0.0150981
-0.0209984
-0.0227186
-0.0248573
-0.0276273
-0.0261093
-0.0242557
-0.0271018
-0.0304772
-0.0345263
-0.0442929
-0.0536098
-0.045324
-0.0420963
-0.0384712
-0.0352534
-0.0332581
-0.00417785
-0.00339771
-0.00534944
-0.0120647
-0.0203007
-0.0251918
-0.0315624
-0.0354622
-0.0349063
-0.0350363
-0.0371167
-0.0342778
-0.029643
-0.0315169
-0.0372881
-0.0355465
-0.0383246
-0.0400059
-0.0404608
-0.0404465
-0.000922376
-0.00173812
-0.00447787
-0.0103964
-0.019879
-0.0237856
-0.0317958
-0.0328108
-0.0296629
-0.0266093
-0.0232267
-0.0210919
-0.0210296
-0.0228046
-0.0248606
-0.0266847
-0.0284807
-0.0303949
-0.0321017
-0.0333089
-0.00175701
-0.00480068
-0.00445844
-0.00709571
-0.0121755
-0.0152656
-0.0197891
-0.0205016
-0.0208334
-0.0218428
-0.0225485
-0.0238947
-0.0253649
-0.0266167
-0.0283355
-0.0289145
-0.0291733
-0.0296248
-0.0303907
-0.0315542
-0.0022662
-0.00803698
-0.00714234
-0.00852944
-0.0145353
-0.0193609
-0.0240215
-0.0245361
-0.0260821
-0.0258525
-0.0257387
-0.0249608
-0.0235846
-0.0228764
-0.0228705
-0.0238246
-0.0255427
-0.0276039
-0.0298962
-0.0325964
-0.00995383
-0.00846618
-0.00823534
-0.0123105
-0.0195886
-0.0239511
-0.0294675
-0.0300193
-0.033584
-0.0327578
-0.034399
-0.033229
-0.0323685
-0.0286188
-0.0251733
-0.0228887
-0.0223423
-0.0230727
-0.0246737
-0.0270363
-0.00479279
-0.00671949
-0.0118474
-0.0186566
-0.0286774
-0.0298234
-0.0333747
-0.0283788
-0.0278222
-0.0267377
-0.0294402
-0.0301562
-0.0307477
-0.0279482
-0.0248064
-0.0214725
-0.0197395
-0.0192258
-0.0193996
-0.0201749
-0.0116863
-0.0253342
-0.0260366
-0.0362556
-0.0441889
-0.0328309
-0.0280347
-0.0209074
-0.0212117
-0.0222047
-0.0235894
-0.0240011
-0.0235139
-0.0223823
-0.0210936
-0.0199025
-0.0189746
-0.018318
-0.0179174
-0.0177818
-0.0110653
-0.022363
-0.0145672
-0.0194403
-0.030587
-0.0253734
-0.0288041
-0.0283119
-0.0315679
-0.0319449
-0.0333111
-0.0344166
-0.0353586
-0.0351548
-0.0342054
-0.0322454
-0.0301182
-0.0280679
-0.0266375
-0.0261493
-0.00453504
-0.00520199
-0.00490034
-0.00844627
-0.0166314
-0.025239
-0.0365583
-0.0481538
-0.0603585
-0.0687529
-0.0786366
-0.0914031
-0.105288
-0.116679
-0.123567
-0.125576
-0.123324
-0.117636
-0.109893
-0.103849
-0.00452697
-0.00631818
-0.00392555
-0.00382984
-0.00547928
-0.00608841
-0.00780705
-0.00895563
-0.010311
-0.0111029
-0.0121657
-0.0130835
-0.0145231
-0.0160429
-0.0181117
-0.0206161
-0.0238654
-0.0279156
-0.0329123
-0.0395547
-0.00701792
-0.00883056
-0.00644241
-0.00628163
-0.00683802
-0.00799963
-0.00997955
-0.0117195
-0.0138655
-0.0153861
-0.0171806
-0.0184466
-0.0201767
-0.0214658
-0.0229247
-0.0241044
-0.0250263
-0.0260229
-0.0271737
-0.0295334
-0.0137535
-0.0128494
-0.00850927
-0.00789353
-0.00794005
-0.00832144
-0.00991076
-0.0115301
-0.0139291
-0.0159811
-0.0179789
-0.0194157
-0.0206297
-0.0212764
-0.0216941
-0.021643
-0.0214107
-0.0207666
-0.0200535
-0.0197998
-0.00393963
-0.00647651
-0.00468912
-0.00451518
-0.00533734
-0.00677566
-0.00851421
-0.0096621
-0.0109677
-0.012162
-0.0132377
-0.0142486
-0.0151927
-0.0161884
-0.0172032
-0.0181742
-0.0189152
-0.0188969
-0.0184371
-0.0177852
-0.00178033
-0.00226274
-0.00250571
-0.00291055
-0.00357676
-0.00482381
-0.0060957
-0.00731713
-0.00817248
-0.00888127
-0.00952144
-0.0103746
-0.0114725
-0.0128469
-0.0144463
-0.0160932
-0.0177745
-0.0187152
-0.0190229
-0.0186394
-0.00117138
-0.00143308
-0.00178261
-0.00224449
-0.00305267
-0.00402755
-0.00515442
-0.00608588
-0.00680081
-0.00742599
-0.008215
-0.0091074
-0.0103545
-0.011884
-0.0138309
-0.0161605
-0.0190184
-0.0218184
-0.0239777
-0.024537
-0.00109019
-0.00283946
-0.00253958
-0.00230067
-0.00294266
-0.00409172
-0.00586863
-0.007159
-0.0087439
-0.010192
-0.0117839
-0.0126114
-0.0123792
-0.0125295
-0.0139909
-0.0165484
-0.0197107
-0.0231811
-0.0267558
-0.0294208
-0.0115637
-0.00500125
-0.00302772
-0.00336129
-0.00441886
-0.0055134
-0.00659164
-0.00833247
-0.00966802
-0.0112828
-0.0120016
-0.0109135
-0.00962044
-0.0102062
-0.0131182
-0.0154922
-0.018184
-0.0210893
-0.0240718
-0.0264523
-0.0171251
-0.004272
-0.00226685
-0.0042617
-0.00633561
-0.0067914
-0.00747598
-0.00950998
-0.0117455
-0.0131128
-0.0121586
-0.00957844
-0.00829206
-0.00880671
-0.0105475
-0.012767
-0.0147643
-0.0170052
-0.0194284
-0.0214812
-0.00588117
-0.00294216
-0.00336418
-0.00572469
-0.00819302
-0.00883221
-0.00951028
-0.0107846
-0.0124215
-0.0132773
-0.0143594
-0.0154079
-0.0155713
-0.0146536
-0.0130499
-0.0134748
-0.0136426
-0.0146324
-0.0160926
-0.017522
-0.00144586
-0.00489101
-0.00663177
-0.0117768
-0.0145838
-0.0163953
-0.0174103
-0.016878
-0.0160926
-0.017619
-0.0203872
-0.0234861
-0.0267531
-0.0299911
-0.0284291
-0.024516
-0.0233564
-0.0222799
-0.0212345
-0.0204264
-0.000710684
-0.00242193
-0.00538904
-0.0107835
-0.015113
-0.0174505
-0.0201777
-0.0210612
-0.019572
-0.0187646
-0.0187792
-0.0197851
-0.0218634
-0.0241697
-0.0242175
-0.0235185
-0.0240754
-0.0235054
-0.0222399
-0.0209246
-0.0014727
-0.0016892
-0.00480217
-0.00984802
-0.0142061
-0.0142193
-0.0169837
-0.0159014
-0.0145691
-0.0142742
-0.0141912
-0.0145726
-0.0151623
-0.0161049
-0.0161524
-0.0167473
-0.0171763
-0.0173742
-0.0174013
-0.0173243
-0.00137337
-0.00254519
-0.00435063
-0.00686283
-0.00956632
-0.0102494
-0.0117947
-0.0120894
-0.0124718
-0.0130004
-0.0134229
-0.0139153
-0.0144778
-0.0149467
-0.0155494
-0.0159238
-0.0163128
-0.0167441
-0.0171729
-0.017701
-0.000199902
-0.00384842
-0.00491699
-0.00722536
-0.0102221
-0.0115358
-0.0130284
-0.0131608
-0.0136552
-0.0135012
-0.0133409
-0.0131286
-0.0131443
-0.0133701
-0.0138589
-0.0144561
-0.0151629
-0.0158458
-0.0165386
-0.0173377
-0.00207413
-0.00608508
-0.00681652
-0.0097727
-0.0136548
-0.0141192
-0.0163279
-0.0157672
-0.0168913
-0.0159201
-0.0156496
-0.014495
-0.0139439
-0.0132291
-0.0129646
-0.0129283
-0.0131308
-0.0134021
-0.0137659
-0.0143006
-0.00796273
-0.00561618
-0.00781399
-0.0121092
-0.0167726
-0.0153999
-0.0166187
-0.0154474
-0.0157988
-0.015457
-0.0153412
-0.0146087
-0.0140334
-0.0132009
-0.0126483
-0.0122726
-0.0121104
-0.0120588
-0.0120768
-0.0122343
-0.0124601
-0.0126142
-0.0112934
-0.0193215
-0.0210219
-0.0158726
-0.0157355
-0.0164565
-0.0174755
-0.0182526
-0.018293
-0.0179618
-0.0171753
-0.0162711
-0.015462
-0.0148984
-0.0146175
-0.0145796
-0.0147082
-0.0148846
-0.0078856
-0.00902623
-0.00683366
-0.0110895
-0.0161765
-0.0178692
-0.0218154
-0.0248332
-0.028233
-0.0305191
-0.0327488
-0.033689
-0.033823
-0.0323828
-0.0303505
-0.0277497
-0.0254712
-0.0237458
-0.0228058
-0.0228032
-0.00539691
-0.00391774
-0.00319996
-0.00677864
-0.0144968
-0.0213358
-0.0297847
-0.0360727
-0.0433437
-0.0493011
-0.0571203
-0.0653776
-0.0726312
-0.0766898
-0.0772463
-0.074565
-0.0697346
-0.0638265
-0.0579574
-0.0537176
-0.00204173
-0.00284354
-0.00344801
-0.00443675
-0.005495
-0.00652816
-0.00769316
-0.00856159
-0.00954341
-0.0105251
-0.0116891
-0.0130457
-0.0146123
-0.0164467
-0.0185644
-0.0210534
-0.0239078
-0.0273051
-0.0310204
-0.0357841
-0.00508405
-0.00753699
-0.00638179
-0.00572293
-0.00665944
-0.00774627
-0.00883635
-0.00948095
-0.0101639
-0.0105451
-0.0110464
-0.0114168
-0.0119311
-0.0123676
-0.0129234
-0.0134376
-0.0139752
-0.0145999
-0.0152364
-0.0162243
-0.00344276
-0.00832218
-0.00868575
-0.00683985
-0.00678633
-0.00785145
-0.00907064
-0.0100829
-0.0109048
-0.0113628
-0.0117763
-0.0119271
-0.0120746
-0.0120623
-0.0120949
-0.0120882
-0.0121627
-0.0122979
-0.0125441
-0.0129131
-0.00138478
-0.0026979
-0.00332783
-0.00460386
-0.0056545
-0.00708646
-0.00819889
-0.009194
-0.00982163
-0.0103522
-0.0107406
-0.0110493
-0.0112697
-0.0114178
-0.0115394
-0.0116683
-0.011863
-0.0120829
-0.0124104
-0.0127729
-0.000664128
-0.00167324
-0.00254627
-0.00354754
-0.00470588
-0.00601944
-0.0068985
-0.0078462
-0.00850248
-0.00925741
-0.00986874
-0.0104299
-0.0108731
-0.0112005
-0.0114812
-0.0117087
-0.011996
-0.0122454
-0.0125589
-0.0128606
-0.00185715
-0.00171218
-0.00178407
-0.00270868
-0.00383061
-0.00497393
-0.00580374
-0.00674128
-0.0075767
-0.00850041
-0.00934687
-0.0101653
-0.0109213
-0.011591
-0.0121925
-0.0126924
-0.0132133
-0.0136634
-0.0140391
-0.0141939
-0.000600421
-0.00270507
-0.00235555
-0.0026985
-0.00366936
-0.00465975
-0.00560765
-0.00653656
-0.00746767
-0.00841713
-0.00933004
-0.0101989
-0.0110294
-0.0118828
-0.0127405
-0.0135365
-0.0142276
-0.0147966
-0.0153273
-0.0155932
-0.00910541
-0.00256228
-0.00261342
-0.00360062
-0.0044878
-0.00504545
-0.00547853
-0.00628984
-0.00689522
-0.00761946
-0.00834501
-0.00922005
-0.0101792
-0.0111381
-0.0121025
-0.0126882
-0.0131847
-0.0135704
-0.0139399
-0.0141896
-0.00215076
-0.000918183
-0.00160899
-0.00425654
-0.0057521
-0.00564111
-0.00569507
-0.00622106
-0.00667414
-0.00717225
-0.00777685
-0.00854374
-0.00940359
-0.0102252
-0.0111657
-0.0116328
-0.011997
-0.0122404
-0.0124455
-0.0126241
-0.00135972
-0.00127721
-0.00316814
-0.00578563
-0.00753945
-0.00744471
-0.0072523
-0.00795851
-0.00901333
-0.00984602
-0.0102683
-0.010321
-0.0101778
-0.010149
-0.0105891
-0.0109538
-0.0110012
-0.0110764
-0.0111989
-0.0113594
-0.000548129
-0.00155895
-0.00470568
-0.00878474
-0.0103664
-0.0115555
-0.0119853
-0.0122835
-0.0129697
-0.013911
-0.0149499
-0.0156983
-0.0158893
-0.0159636
-0.0143798
-0.0120692
-0.0114163
-0.0110793
-0.0109784
-0.0110759
-0.000377245
-0.00111461
-0.00464522
-0.00893871
-0.0107314
-0.0117658
-0.0123125
-0.0126419
-0.0129824
-0.0134222
-0.0136608
-0.0140805
-0.0149303
-0.0159952
-0.0140154
-0.0111594
-0.0107079
-0.0105444
-0.0106731
-0.0110063
-0.000915334
-0.00132235
-0.00480636
-0.00851624
-0.00991515
-0.0100399
-0.0105424
-0.0105494
-0.0104571
-0.010447
-0.0103003
-0.0102817
-0.010216
-0.0101654
-0.00960993
-0.00970981
-0.00995239
-0.0103551
-0.0108933
-0.0114987
-0.00300259
-0.00274892
-0.00498555
-0.0069249
-0.00823656
-0.00879251
-0.0093273
-0.00919534
-0.00918501
-0.00911758
-0.00907385
-0.00905855
-0.00909052
-0.00919805
-0.00943235
-0.00974695
-0.0102059
-0.0108131
-0.0115289
-0.0122677
-0.00243685
-0.0033658
-0.00472296
-0.00661423
-0.00799628
-0.008793
-0.00920509
-0.00911137
-0.00904384
-0.00882961
-0.00872915
-0.00865243
-0.00870648
-0.00886161
-0.00916956
-0.00960511
-0.0101865
-0.0109018
-0.0117352
-0.0125465
-0.00103622
-0.00583126
-0.00656366
-0.00757384
-0.00876171
-0.00945685
-0.00985942
-0.00968929
-0.00960797
-0.00921034
-0.00899258
-0.00878329
-0.0087657
-0.00883722
-0.00908144
-0.00948284
-0.0100587
-0.0107914
-0.011645
-0.012434
-0.00374656
-0.00533524
-0.00675668
-0.00833713
-0.00971976
-0.0102709
-0.0103864
-0.0102784
-0.00995861
-0.00970867
-0.00946708
-0.0093357
-0.00925689
-0.00930221
-0.00948304
-0.00983857
-0.0103636
-0.0110538
-0.0118556
-0.0125717
-0.00685701
-0.00626701
-0.00748992
-0.0105653
-0.0117121
-0.0121981
-0.0123275
-0.0127253
-0.0124284
-0.0123932
-0.0119785
-0.0117716
-0.0114973
-0.0113578
-0.0112727
-0.011287
-0.0114019
-0.0116506
-0.0120484
-0.0124824
-0.000320298
-0.00332649
-0.0049059
-0.00968218
-0.0141654
-0.0172221
-0.0197469
-0.0212597
-0.0225339
-0.0226272
-0.0221872
-0.0208934
-0.0195022
-0.0181258
-0.0172889
-0.0169123
-0.0168901
-0.0170211
-0.0171641
-0.0172492
-0.000628998
-0.00167084
-0.00242613
-0.00579232
-0.0127689
-0.0188776
-0.0247548
-0.0286415
-0.0332362
-0.0364176
-0.0393489
-0.0403026
-0.0395715
-0.0365029
-0.0324493
-0.0281174
-0.0245168
-0.0221297
-0.0211147
-0.0214534
-0.0286301
-0.0231036
-0.0245563
-0.0158736
-0.0160618
-0.0177659
-0.0201949
-0.0258309
-0.025524
-0.0289084
-0.0163523
-0.0175742
-0.0211569
-0.0238263
-0.0261411
-0.0359239
-0.03664
-0.0190216
-0.0210027
-0.0217232
-0.0212226
-0.0297636
-0.0365825
-0.0344463
-0.021827
-0.0242219
-0.0211427
-0.021395
-0.0924984
-0.0999026
-0.103423
-0.0829695
-0.0645574
-0.0777636
-0.0698067
-0.0942262
-0.105185
-0.111386
-0.0623514
-0.0622495
-0.0722721
-0.0855786
-0.0975729
-0.112567
-0.113567
-0.0638538
-0.0724183
-0.0912368
-0.108929
-0.100485
-0.113596
-0.114897
-0.0781918
-0.0960058
-0.11309
-0.121055
-0.108498
-0.115282
-0.115382
-0.101025
-0.111864
-0.122159
-0.121247
-0.116612
-0.114814
-0.111294
-0.114312
-0.112765
-0.11932
-0.109962
-0.109902
-0.110027
-0.106406
-0.107483
-0.0798348
-0.106365
-0.0984809
-0.100402
-0.105308
-0.102083
-0.0699562
-0.0463399
-0.0961209
-0.0865635
-0.1061
-0.099602
-0.104024
-0.0788148
-0.0748105
-0.0821684
-0.0819624
-0.112599
-0.104637
-0.102771
-0.0783759
-0.095324
-0.0845677
-0.0938963
-0.113991
-0.101733
-0.0991452
-0.101463
-0.114725
-0.096015
-0.0967697
-0.113704
-0.0984685
-0.0965167
-0.117207
-0.120782
-0.0959074
-0.0941942
-0.111225
-0.0958491
-0.0944544
-0.120873
-0.117924
-0.0948987
-0.0986414
-0.107883
-0.0944085
-0.0955427
-0.115531
-0.107804
-0.0991409
-0.0987241
-0.104146
-0.0957089
-0.0941675
-0.106721
-0.107569
-0.0996521
-0.103762
-0.101262
-0.0934593
-0.092444
-0.10782
-0.104829
-0.104489
-0.106569
-0.102112
-0.10114
-0.0970748
-0.0904686
-0.0863631
-0.0975267
-0.0948812
-0.0997185
-0.0960284
-0.0943277
-0.087113
-0.0913686
-0.0943775
-0.0949592
-0.0976126
-0.0941859
-0.0934289
-0.0921504
-0.0899387
-0.0955838
-0.0972578
-0.0948915
-0.0928626
-0.0916558
-0.0883895
-0.087737
-0.0978607
-0.099071
-0.092509
-0.0915429
-0.0907896
-0.0891679
-0.0955893
-0.0991508
-0.0974705
-0.0934267
-0.0897248
-0.084902
-0.0971142
-0.0983435
-0.0960074
-0.0922399
-0.091064
-0.0835657
-0.0841822
-0.0990503
-0.101311
-0.0917678
-0.0917871
-0.0896342
-0.085971
-0.0915884
-0.101538
-0.102821
-0.0916395
-0.0913027
-0.0963352
-0.107801
-0.101654
-0.0973573
-0.0950719
-0.106447
-0.101611
-0.0917906
-0.101143
-0.0970398
-0.0943364
-0.0927918
-0.101007
-0.0957713
-0.0875373
-0.0955964
-0.0916397
-0.0924095
-0.0904365
-0.0946137
-0.0921406
-0.0827943
-0.09267
-0.0945276
-0.0900725
-0.0899624
-0.0936493
-0.0950201
-0.080727
-0.0968296
-0.0992018
-0.0896237
-0.0880336
-0.0976297
-0.102941
-0.0785588
-0.105272
-0.120244
-0.0874342
-0.0881361
-0.108418
-0.118339
-0.0866638
-0.131786
-0.15188
-0.0892801
-0.0916149
-0.123529
-0.124886
-0.0994668
-0.160022
-0.164813
-0.0909231
-0.0887744
-0.125528
-0.122103
-0.0145997
-0.0171138
-0.0239207
-0.0116889
-0.0133966
-0.0154892
-0.0205379
-0.0220412
-0.026836
-0.038636
-0.0150239
-0.0210558
-0.0230745
-0.0328327
-0.0353651
-0.0440225
-0.0680646
-0.0241586
-0.0338155
-0.0359827
-0.042139
-0.0623971
-0.0764843
-0.0929662
-0.0376192
-0.0466727
-0.0428483
-0.0411133
-0.0935737
-0.0946371
-0.0876099
-0.0493799
-0.0508146
-0.0395521
-0.0337521
-0.0888294
-0.0814465
-0.0608186
-0.0486713
-0.0328592
-0.0321314
-0.0296893
-0.043091
-0.0569913
-0.0536174
-0.0274175
-0.0162912
-0.0293828
-0.0289326
-0.021814
-0.0530195
-0.0482007
-0.0145065
-0.011968
-0.0283275
-0.0252447
-0.0277353
-0.0219951
-0.0314668
-0.0178135
-0.0237654
-0.0215051
-0.0287082
-0.0444977
-0.0349223
-0.0429747
-0.0266197
-0.0360217
-0.0309176
-0.0342372
-0.0728993
-0.0447713
-0.0483095
-0.0383995
-0.0412321
-0.0341607
-0.0323203
-0.0851812
-0.0489489
-0.051003
-0.0408756
-0.0372243
-0.031539
-0.0308568
-0.0734877
-0.0527235
-0.0602068
-0.0357527
-0.0326115
-0.0312323
-0.0334785
-0.0609019
-0.0617272
-0.0674453
-0.0323006
-0.0337813
-0.0343402
-0.0383994
-0.0678052
-0.0704564
-0.0818052
-0.0347141
-0.0374714
-0.0404169
-0.0490024
-0.0695595
-0.0858607
-0.0971722
-0.0377815
-0.0360648
-0.0525527
-0.062846
-0.0389608
-0.0565025
-0.0614066
-0.0324493
-0.0364224
-0.0418671
-0.0453541
-0.0488752
-0.0629265
-0.06722
-0.0376443
-0.0381858
-0.0461107
-0.0470527
-0.0479995
-0.0674044
-0.0680367
-0.0372859
-0.0337735
-0.0467659
-0.045585
-0.0491362
-0.0693308
-0.0763543
-0.0327064
-0.0323797
-0.0453703
-0.0453399
-0.0619749
-0.0783899
-0.0792887
-0.0328959
-0.0347516
-0.0452064
-0.0429615
-0.0702243
-0.0780359
-0.0748541
-0.0353322
-0.0375765
-0.0416574
-0.0375401
-0.0791201
-0.0740291
-0.0684805
-0.0388749
-0.0459019
-0.0363938
-0.0355032
-0.091572
-0.0659941
-0.0661561
-0.0493903
-0.0616123
-0.0365938
-0.0444259
-0.060508
-0.0542325
-0.0623956
-0.0403844
-0.0427312
-0.043159
-0.0448437
-0.0653906
-0.0646888
-0.066285
-0.0430866
-0.0428497
-0.0444514
-0.0414883
-0.060345
-0.0658164
-0.0609099
-0.0423078
-0.0417241
-0.0410461
-0.0397587
-0.0664565
-0.0602994
-0.061625
-0.0419871
-0.0436766
-0.0400258
-0.0400675
-0.0719673
-0.0640371
-0.070667
-0.0440749
-0.0433708
-0.039806
-0.0373068
-0.0733271
-0.0708253
-0.0673835
-0.0422911
-0.0378536
-0.0358548
-0.0319399
-0.0657031
-0.06299
-0.0495285
-0.0362396
-0.0338833
-0.0313874
-0.0306981
-0.0603472
-0.0477184
-0.0510114
-0.0344927
-0.0405458
-0.0314939
-0.0342015
-0.0115761
-0.0121775
-0.0159204
-0.00903
-0.0111536
-0.0115288
-0.0143992
-0.0178541
-0.0173956
-0.0231
-0.0126538
-0.0162106
-0.0155176
-0.0175327
-0.0272386
-0.0255375
-0.032251
-0.0175018
-0.0191059
-0.0175173
-0.0164083
-0.0372818
-0.0331743
-0.0315422
-0.0193856
-0.0183074
-0.0159723
-0.0150063
-0.0370124
-0.0301531
-0.0256683
-0.0177437
-0.014044
-0.0148553
-0.0149373
-0.0219564
-0.0244824
-0.0228319
-0.0129118
-0.00987581
-0.0149393
-0.0149443
-0.0117409
-0.0226586
-0.0223829
-0.00938661
-0.00894072
-0.0147674
-0.0141876
-0.0102924
-0.021878
-0.0195049
-0.00906888
-0.00983123
-0.013819
-0.0127955
-0.017385
-0.0162914
-0.0200074
-0.0128286
-0.0154888
-0.0161249
-0.0174726
-0.0242286
-0.0210746
-0.0227803
-0.0163605
-0.0173506
-0.0174345
-0.016705
-0.0307746
-0.0229178
-0.0230795
-0.0171214
-0.0160953
-0.0165409
-0.0170116
-0.0216461
-0.0304533
-0.0281482
-0.0234505
-0.027678
-0.0230474
-0.021833
-0.022239
-0.0267645
-0.0265416
-0.0215652
-0.0265294
-0.021313
-0.0218034
-0.0275573
-0.0299851
-0.0341716
-0.0179007
-0.0186281
-0.0247824
-0.0273738
-0.030274
-0.0359789
-0.0431851
-0.0186614
-0.018358
-0.028295
-0.0311891
-0.0283574
-0.0460399
-0.0534969
-0.0179576
-0.0164111
-0.0319425
-0.0327233
-0.0270298
-0.0334213
-0.0365675
-0.0228389
-0.0218176
-0.0267012
-0.0265595
-0.0269519
-0.0372492
-0.0375038
-0.0211146
-0.0189269
-0.0262072
-0.0242515
-0.0243785
-0.0369082
-0.0358169
-0.018465
-0.0184317
-0.0235417
-0.0220243
-0.0251846
-0.0247908
-0.0286222
-0.0218729
-0.0290178
-0.0225647
-0.0248721
-0.0266016
-0.0280678
-0.0303772
-0.0249678
-0.0307969
-0.0258146
-0.0262827
-0.0331555
-0.033298
-0.0304825
-0.0251373
-0.0280031
-0.0217509
-0.0238363
-0.0412358
-0.0301168
-0.0320466
-0.0290855
-0.0326778
-0.0247647
-0.0279719
-0.053872
-0.0338003
-0.04145
-0.0337911
-0.0361006
-0.0290317
-0.0321628
-0.0348722
-0.0314531
-0.034977
-0.0256686
-0.0256575
-0.0255239
-0.0242848
-0.0354305
-0.035048
-0.0335756
-0.0253832
-0.0239311
-0.0235811
-0.0217508
-0.0345916
-0.0331276
-0.0318655
-0.0233933
-0.0222144
-0.0211187
-0.0197704
-0.0368646
-0.0313374
-0.0308825
-0.0219575
-0.0213757
-0.0193479
-0.0185639
-0.0355445
-0.0300407
-0.0274186
-0.0211725
-0.0209044
-0.0183051
-0.0179938
-0.0305031
-0.0258765
-0.0232031
-0.0210603
-0.0225706
-0.0180623
-0.018622