/*--------------------------------*- C++ -*----------------------------------*\
  =========                 |
  \\      /  F ield         | OpenFOAM: The Open Source CFD Toolbox
   \\    /   O peration     | Website:  https://openfoam.org
    \\  /    A nd           | Version:  10
     \\/     M anipulation  |
\*---------------------------------------------------------------------------*/
FoamFile
{
    format      ascii;
    class       volScalarField;
    location    "7.6";
    object      turbidity_0;
}
// * * * * * * * * * * * * * * * * * * * * * * * * * * * * * * * * * * * * * //

dimensions      [0 0 0 0 0 0 0];

internalField   nonuniform List<scalar> 
12920
(
-0.026756
-0.0273701
-0.0357198
-0.0443822
-0.0585821
-0.0793845
-0.106216
-0.130041
-0.154703
-0.180507
-0.211053
-0.238294
-0.263434
-0.281748
-0.29594
-0.303724
-0.311127
-0.318385
-0.32282
-0.325388
-0.0326661
-0.0598503
-0.079197
-0.0975773
-0.109131
-0.121875
-0.139478
-0.157267
-0.180685
-0.205475
-0.234918
-0.261601
-0.284583
-0.305091
-0.324591
-0.34462
-0.365794
-0.388724
-0.412719
-0.434951
-0.022275
-0.0519818
-0.0650835
-0.0942486
-0.119385
-0.141828
-0.161105
-0.179091
-0.198577
-0.217823
-0.235514
-0.251604
-0.266639
-0.282415
-0.300299
-0.322045
-0.348641
-0.381445
-0.419176
-0.454994
-0.0145069
-0.0302805
-0.0353582
-0.0512669
-0.080684
-0.116695
-0.145099
-0.169003
-0.187829
-0.205068
-0.219709
-0.232431
-0.243553
-0.256427
-0.274127
-0.29748
-0.326545
-0.364437
-0.41223
-0.466621
-0.0639311
-0.0346612
-0.0430465
-0.0573664
-0.0768443
-0.0975814
-0.118479
-0.136196
-0.152542
-0.169769
-0.186967
-0.203824
-0.218079
-0.232142
-0.24979
-0.272305
-0.301649
-0.340903
-0.393962
-0.460536
-0.0409357
-0.0522841
-0.0590023
-0.0781291
-0.0949605
-0.110328
-0.123469
-0.133716
-0.14472
-0.156777
-0.172122
-0.188972
-0.207836
-0.227162
-0.2466
-0.265096
-0.287846
-0.317222
-0.356678
-0.413015
-0.032988
-0.0449527
-0.0624545
-0.0799851
-0.0921288
-0.10022
-0.109724
-0.121778
-0.137309
-0.157241
-0.181867
-0.206117
-0.226287
-0.242332
-0.253282
-0.25753
-0.263627
-0.280572
-0.307407
-0.341312
-0.0342932
-0.0304016
-0.0483421
-0.067289
-0.0876187
-0.0982797
-0.0943542
-0.0929581
-0.095949
-0.105328
-0.119978
-0.135139
-0.140868
-0.137426
-0.125462
-0.147703
-0.174327
-0.21029
-0.257642
-0.310383
-0.0461095
-0.0251357
-0.0397345
-0.0639891
-0.0931769
-0.0951191
-0.0947995
-0.0922019
-0.0954279
-0.0982234
-0.102403
-0.111856
-0.116578
-0.10774
-0.0987538
-0.119752
-0.159754
-0.20668
-0.259801
-0.314438
-0.0192182
-0.0543758
-0.0644451
-0.0775241
-0.0979955
-0.0953993
-0.100567
-0.108252
-0.11334
-0.114084
-0.11329
-0.110419
-0.107018
-0.10326
-0.110075
-0.143335
-0.174896
-0.210538
-0.250117
-0.289809
-0.036211
-0.0593951
-0.0753261
-0.0940933
-0.11391
-0.103011
-0.101008
-0.101989
-0.0990717
-0.0970289
-0.0941057
-0.0924764
-0.0933446
-0.0904307
-0.0975627
-0.14623
-0.185297
-0.219519
-0.249802
-0.277309
-0.0438842
-0.0554965
-0.0608933
-0.0825774
-0.108831
-0.10225
-0.100018
-0.0951359
-0.0907373
-0.0860999
-0.0820258
-0.0798386
-0.0792257
-0.0910401
-0.112374
-0.165558
-0.206835
-0.245559
-0.275603
-0.299048
-0.0461158
-0.0468533
-0.0539566
-0.0769715
-0.109893
-0.138587
-0.134586
-0.128241
-0.123512
-0.126034
-0.13617
-0.154792
-0.180675
-0.199478
-0.258363
-0.290096
-0.316237
-0.340411
-0.355068
-0.367236
-0.0444148
-0.0670981
-0.0692854
-0.0763326
-0.0941119
-0.111979
-0.14522
-0.176599
-0.203898
-0.230964
-0.261172
-0.30089
-0.345971
-0.396638
-0.443981
-0.488122
-0.524519
-0.551786
-0.562107
-0.558086
-0.060524
-0.060769
-0.05925
-0.072424
-0.0862881
-0.0994115
-0.12436
-0.148354
-0.18018
-0.220384
-0.273637
-0.33663
-0.407401
-0.474536
-0.532676
-0.580366
-0.620463
-0.652343
-0.67471
-0.686873
-0.034697
-0.050202
-0.0553473
-0.0736137
-0.0867076
-0.0969501
-0.112027
-0.12793
-0.150685
-0.186711
-0.235469
-0.294783
-0.364234
-0.441354
-0.518037
-0.585185
-0.640389
-0.684655
-0.719793
-0.746731
-0.0200309
-0.0323595
-0.0518718
-0.0673112
-0.0819162
-0.0975675
-0.117363
-0.146581
-0.180788
-0.218984
-0.257755
-0.300923
-0.35193
-0.413704
-0.486241
-0.562044
-0.629525
-0.686327
-0.733792
-0.773429
-0.0181431
-0.0450656
-0.0681304
-0.0869006
-0.107221
-0.134593
-0.16267
-0.192891
-0.217827
-0.241145
-0.27007
-0.304882
-0.349801
-0.398946
-0.452236
-0.50226
-0.551264
-0.600301
-0.647862
-0.691836
-0.0322854
-0.0539832
-0.0589148
-0.067498
-0.0898313
-0.136607
-0.18136
-0.219076
-0.246671
-0.275604
-0.304485
-0.334685
-0.365089
-0.391928
-0.416324
-0.437361
-0.45901
-0.483823
-0.513839
-0.550241
-0.0482352
-0.0363507
-0.031614
-0.0353017
-0.0443633
-0.0582332
-0.0765143
-0.0976774
-0.129763
-0.180089
-0.231761
-0.275486
-0.314351
-0.35191
-0.387879
-0.42087
-0.4506
-0.47761
-0.502327
-0.524707
-0.00487503
-0.00617768
-0.00884885
-0.0148002
-0.027164
-0.0263658
-0.0234348
-0.0133829
-0.0158581
-0.0206941
-0.0270364
-0.0330817
-0.0394997
-0.0453112
-0.0505843
-0.0552109
-0.0602422
-0.0633869
-0.0666835
-0.0696146
-0.0384263
-0.0259182
-0.0216416
-0.0302976
-0.0349574
-0.0265773
-0.0274559
-0.0261221
-0.0334199
-0.0414107
-0.0525313
-0.0656598
-0.082816
-0.100462
-0.117288
-0.132244
-0.142606
-0.14674
-0.143092
-0.140666
-0.0388807
-0.0167875
-0.0149966
-0.0319418
-0.0438275
-0.0481907
-0.0535142
-0.0547345
-0.059404
-0.0598887
-0.0616802
-0.0621621
-0.0663994
-0.074239
-0.0868284
-0.101638
-0.116299
-0.123276
-0.117357
-0.103057
-0.0118283
-0.00604944
-0.00566275
-0.00890306
-0.0161018
-0.0291862
-0.0429251
-0.0498599
-0.0527027
-0.0461492
-0.0381421
-0.0304656
-0.0304375
-0.0365748
-0.0485293
-0.066655
-0.0896635
-0.105922
-0.109407
-0.0974944
-0.0240491
-0.00860206
-0.00695049
-0.00708191
-0.00778968
-0.010465
-0.0147037
-0.0209197
-0.027767
-0.0304917
-0.0319844
-0.0286705
-0.0283467
-0.0311679
-0.0375734
-0.0493372
-0.07075
-0.0913703
-0.105248
-0.101371
-0.0336152
-0.0216982
-0.0144247
-0.0138753
-0.014072
-0.0114877
-0.0117317
-0.0120102
-0.0148565
-0.0190305
-0.0247758
-0.03213
-0.0428353
-0.0499135
-0.0513767
-0.0521202
-0.064289
-0.0885913
-0.115908
-0.124305
-0.00290203
-0.0127212
-0.0156278
-0.0151964
-0.0115336
-0.00898056
-0.00908588
-0.012159
-0.0194944
-0.031727
-0.0511366
-0.0733533
-0.0820682
-0.0722319
-0.0534721
-0.0434389
-0.0447821
-0.0558742
-0.0745004
-0.0960459
-0.00633216
-0.00749703
-0.00973259
-0.00973816
-0.00939664
-0.00904747
-0.00949704
-0.0129318
-0.0202438
-0.0343084
-0.0573793
-0.0804241
-0.0744245
-0.0474482
-0.0216293
-0.0242987
-0.0319075
-0.0438459
-0.0609638
-0.0805332
-0.0119094
-0.00588976
-0.00483749
-0.0071473
-0.0100998
-0.0113109
-0.0124474
-0.0161273
-0.0251032
-0.0409337
-0.0718124
-0.0968836
-0.077699
-0.0344399
-0.0185732
-0.0217877
-0.027004
-0.0348039
-0.0443742
-0.0536522
-0.0107245
-0.0119398
-0.00833773
-0.00926275
-0.0123185
-0.0146953
-0.0197997
-0.031306
-0.0508846
-0.078652
-0.0842089
-0.0683844
-0.0614827
-0.0696991
-0.0647166
-0.051172
-0.043151
-0.0400708
-0.0401095
-0.0416554
-0.0166744
-0.0169145
-0.0176673
-0.0213611
-0.0328591
-0.0314252
-0.0333958
-0.042307
-0.049499
-0.0473888
-0.0515756
-0.0646968
-0.0723039
-0.0819313
-0.0901004
-0.0875635
-0.0871795
-0.0822303
-0.0748399
-0.0673183
-0.0144077
-0.00929187
-0.00799998
-0.0154067
-0.0287666
-0.0397633
-0.0556418
-0.0617845
-0.064252
-0.0603362
-0.068727
-0.0721646
-0.0731152
-0.0616287
-0.06173
-0.0695607
-0.0764516
-0.0788449
-0.0771567
-0.0750458
-0.00722396
-0.00429402
-0.00585835
-0.0118452
-0.0264555
-0.0413824
-0.0594577
-0.0677523
-0.0678236
-0.0668623
-0.0632837
-0.0560737
-0.0474332
-0.0471028
-0.054574
-0.0589694
-0.0596488
-0.0598484
-0.0606969
-0.0624244
-0.0370141
-0.0146496
-0.00948584
-0.0104157
-0.0170567
-0.0241426
-0.0383255
-0.0461471
-0.0519877
-0.0553469
-0.0574843
-0.0630898
-0.0693158
-0.0747096
-0.0824849
-0.0840903
-0.0806803
-0.0749708
-0.070316
-0.0694172
-0.0053435
-0.01567
-0.0124482
-0.0120803
-0.0171164
-0.0263772
-0.0415909
-0.0521745
-0.0629432
-0.0668791
-0.0709426
-0.0740133
-0.0714871
-0.0689805
-0.0642877
-0.0628124
-0.0640497
-0.0668138
-0.0705847
-0.077464
-0.0171712
-0.0110612
-0.0101893
-0.0141188
-0.0202061
-0.029454
-0.0439284
-0.0547582
-0.0678977
-0.072769
-0.081253
-0.0882003
-0.0998684
-0.099599
-0.0896995
-0.0763882
-0.0651081
-0.0598306
-0.059765
-0.0664663
-0.00925695
-0.00783833
-0.0152057
-0.0204919
-0.0352364
-0.0471353
-0.0617932
-0.0638007
-0.0645331
-0.057531
-0.0645468
-0.0740635
-0.0898982
-0.0941833
-0.0908156
-0.0749103
-0.0588207
-0.0506008
-0.0478373
-0.0510894
-0.0127608
-0.0339451
-0.0478789
-0.0564189
-0.0705345
-0.0708049
-0.0695516
-0.0502056
-0.0432158
-0.0388281
-0.0448193
-0.0511381
-0.0555058
-0.0541824
-0.0499736
-0.0448342
-0.0411604
-0.0391032
-0.0381411
-0.0384678
-0.013435
-0.0401249
-0.0392679
-0.0458467
-0.0627249
-0.0639178
-0.0687893
-0.0596489
-0.0631774
-0.0589908
-0.0585257
-0.0561004
-0.0543938
-0.0519937
-0.0493697
-0.0468349
-0.044722
-0.0429878
-0.0416128
-0.0404809
-0.011039
-0.0149421
-0.0116618
-0.011998
-0.0196425
-0.0302352
-0.0434857
-0.0611453
-0.0839455
-0.103359
-0.119689
-0.138182
-0.159186
-0.177954
-0.19151
-0.199615
-0.202234
-0.199215
-0.190937
-0.185626
-0.0098617
-0.00543649
-0.00485743
-0.00575781
-0.0105006
-0.0080157
-0.00873395
-0.0101558
-0.0132732
-0.0157131
-0.0184728
-0.0205821
-0.0228059
-0.0246106
-0.0265633
-0.0282695
-0.0307208
-0.0334292
-0.0367263
-0.0414881
-0.0142295
-0.0128519
-0.00858623
-0.0110527
-0.0121323
-0.0114121
-0.0140581
-0.0164188
-0.0203667
-0.0243068
-0.0295377
-0.0349507
-0.0413083
-0.0469571
-0.0519776
-0.0554487
-0.0566141
-0.0556214
-0.0528346
-0.0535515
-0.0401656
-0.0111119
-0.00950151
-0.0150247
-0.0180392
-0.0185111
-0.0204659
-0.02081
-0.0231151
-0.0247442
-0.0279126
-0.0315649
-0.03621
-0.0408673
-0.0450873
-0.0478177
-0.0488762
-0.0468261
-0.0422886
-0.0385493
-0.0102048
-0.006364
-0.00439319
-0.00560156
-0.0084693
-0.0126696
-0.0170676
-0.018173
-0.0183165
-0.0169814
-0.0174503
-0.0194619
-0.0226715
-0.0265013
-0.0306553
-0.034962
-0.038836
-0.0398646
-0.0379889
-0.0344224
-0.00539694
-0.00365715
-0.00386872
-0.00472987
-0.005446
-0.00663295
-0.00825792
-0.0101479
-0.0117146
-0.0122818
-0.0130581
-0.0138567
-0.0155822
-0.0180466
-0.0214536
-0.025773
-0.0313304
-0.0352431
-0.0368869
-0.0351916
-0.00525098
-0.00538668
-0.00489914
-0.00452716
-0.00458157
-0.00464257
-0.00573006
-0.00721072
-0.00903709
-0.0108504
-0.0131243
-0.015152
-0.0172644
-0.0187412
-0.0204916
-0.023831
-0.0303458
-0.0386707
-0.0459029
-0.0460036
-0.000777807
-0.0049159
-0.00710591
-0.00589091
-0.00461976
-0.0047074
-0.00681924
-0.0097965
-0.0148347
-0.0206648
-0.0274805
-0.0320359
-0.0300954
-0.0244362
-0.0208415
-0.0221721
-0.027047
-0.0341921
-0.0428126
-0.050499
-0.0115362
-0.0055275
-0.0061503
-0.00602444
-0.00595438
-0.00645858
-0.00757765
-0.0114339
-0.0168063
-0.0248592
-0.0329473
-0.0340741
-0.0239344
-0.0151063
-0.014008
-0.0176111
-0.0223543
-0.0279959
-0.0346136
-0.0407268
-0.0233973
-0.00972671
-0.00334611
-0.00485265
-0.0072699
-0.00816913
-0.00925079
-0.0131911
-0.0201469
-0.0301771
-0.0386224
-0.0339662
-0.0180523
-0.0108679
-0.0111174
-0.0141776
-0.0166478
-0.0197248
-0.0235299
-0.0274139
-0.0169556
-0.00582853
-0.00458372
-0.00659021
-0.00949493
-0.0110809
-0.0137574
-0.0188659
-0.0264177
-0.0308764
-0.0275962
-0.0258419
-0.0283636
-0.0303431
-0.0275356
-0.0234162
-0.0202552
-0.0191974
-0.0196883
-0.0212579
-0.00576461
-0.009103
-0.00908259
-0.0151052
-0.0210607
-0.0228022
-0.0249873
-0.0277133
-0.0261186
-0.0242665
-0.0271397
-0.0305071
-0.0345808
-0.0444025
-0.0536448
-0.045293
-0.0420638
-0.0384457
-0.0352323
-0.0332548
-0.00398812
-0.00333288
-0.00528611
-0.01201
-0.0202955
-0.0251472
-0.0315104
-0.0354384
-0.0348688
-0.0350408
-0.0371108
-0.034226
-0.029611
-0.0315651
-0.0373341
-0.0355618
-0.0383372
-0.0400163
-0.0404676
-0.0404562
-0.000802435
-0.00176374
-0.00451849
-0.0104205
-0.0198998
-0.0238203
-0.031753
-0.0327546
-0.029608
-0.0265664
-0.0231897
-0.0210691
-0.0210286
-0.0228168
-0.0248718
-0.0266927
-0.0284909
-0.0304053
-0.0321101
-0.033315
-0.0017023
-0.00470613
-0.00445683
-0.00708908
-0.0121783
-0.0152667
-0.0197624
-0.0204902
-0.0208189
-0.0218191
-0.0225355
-0.0238878
-0.0253628
-0.0266203
-0.0283334
-0.0289126
-0.0291736
-0.0296282
-0.0303961
-0.0315617
-0.00244977
-0.00803126
-0.00713588
-0.00853373
-0.0145554
-0.0193738
-0.0240318
-0.0245258
-0.0260286
-0.0258057
-0.0257009
-0.0249326
-0.0235665
-0.0228651
-0.0228688
-0.0238292
-0.0255494
-0.0276143
-0.0299088
-0.0326108
-0.0100173
-0.00842822
-0.00822403
-0.0123091
-0.0195945
-0.0239565
-0.0294656
-0.030011
-0.0335307
-0.0327057
-0.0343428
-0.0331977
-0.0323262
-0.028581
-0.0251401
-0.0228713
-0.0223379
-0.0230772
-0.0246824
-0.0270481
-0.00452297
-0.00652811
-0.0116951
-0.0185761
-0.0286104
-0.0298045
-0.0332906
-0.0282898
-0.0277311
-0.0267124
-0.0294383
-0.030163
-0.03074
-0.0279328
-0.0247775
-0.021453
-0.0197309
-0.0192242
-0.0194013
-0.0201787
-0.0116686
-0.0254793
-0.0261487
-0.0362414
-0.0440264
-0.0326228
-0.0278434
-0.0208333
-0.0211865
-0.0222041
-0.0235937
-0.0240006
-0.0235076
-0.0223723
-0.0210833
-0.0198941
-0.0189686
-0.0183146
-0.0179156
-0.0177812
-0.0112262
-0.0226652
-0.014556
-0.0195265
-0.0305044
-0.0252537
-0.0287152
-0.0283019
-0.0315251
-0.0319174
-0.0333006
-0.0344108
-0.0353478
-0.0351367
-0.0341785
-0.0322174
-0.0300916
-0.0280501
-0.0266286
-0.0261491
-0.00492268
-0.00524545
-0.00492454
-0.00855175
-0.0167935
-0.0253714
-0.0367003
-0.0482429
-0.0603183
-0.0686487
-0.0785956
-0.0914375
-0.105341
-0.116691
-0.123514
-0.12546
-0.123157
-0.11744
-0.109704
-0.103698
-0.00464016
-0.00634303
-0.00388353
-0.00382451
-0.00547233
-0.00609136
-0.00781123
-0.00896461
-0.0103173
-0.011108
-0.0121695
-0.0130888
-0.0145288
-0.0160525
-0.0181253
-0.0206372
-0.0238965
-0.0279601
-0.0329752
-0.0396445
-0.007216
-0.00887109
-0.00641716
-0.00626439
-0.00682693
-0.0080015
-0.00998436
-0.0117336
-0.0138776
-0.0153983
-0.017189
-0.018456
-0.0201808
-0.0214681
-0.0229219
-0.0240965
-0.0250158
-0.0260165
-0.0271778
-0.0295564
-0.0140077
-0.0128944
-0.00852412
-0.007872
-0.0079172
-0.00830213
-0.00989871
-0.0115397
-0.013939
-0.0159965
-0.0179889
-0.0194254
-0.0206351
-0.0212801
-0.0216929
-0.0216379
-0.0213999
-0.0207541
-0.0200436
-0.0197993
-0.00429701
-0.0065901
-0.00462125
-0.00450974
-0.00535212
-0.00678999
-0.00851824
-0.00966577
-0.0109713
-0.0121681
-0.0132436
-0.0142554
-0.0151994
-0.0161952
-0.0172099
-0.0181793
-0.0189143
-0.0188893
-0.0184267
-0.0177821
-0.00164184
-0.00223372
-0.00249755
-0.00290955
-0.00358015
-0.00482715
-0.00610159
-0.0073194
-0.0081742
-0.00888052
-0.00952372
-0.0103784
-0.0114797
-0.0128559
-0.0144567
-0.0161035
-0.0177806
-0.0187145
-0.0190154
-0.0186372
-0.00102279
-0.0014375
-0.00178723
-0.00224785
-0.00305663
-0.00403309
-0.00516116
-0.00608891
-0.00680357
-0.00742685
-0.00821921
-0.0091123
-0.0103609
-0.0118923
-0.0138421
-0.016176
-0.0190367
-0.0218327
-0.0239787
-0.0245381
-0.00114987
-0.00288514
-0.00253607
-0.00229746
-0.00294863
-0.00410156
-0.00588053
-0.00717253
-0.00875666
-0.0102077
-0.011791
-0.012604
-0.0123609
-0.0125235
-0.0139996
-0.0165644
-0.0197311
-0.0232031
-0.0267792
-0.0294397
-0.0115775
-0.0048346
-0.00300491
-0.00337057
-0.00443674
-0.00553334
-0.00660678
-0.00835042
-0.00968226
-0.0112957
-0.0119941
-0.0108849
-0.00960591
-0.0102103
-0.0131285
-0.0155039
-0.0181972
-0.0211031
-0.0240845
-0.0264629
-0.016167
-0.00392145
-0.00224164
-0.00428131
-0.00635356
-0.00681614
-0.00749639
-0.00952372
-0.0117642
-0.013121
-0.0121379
-0.0095533
-0.00828653
-0.0088113
-0.0105534
-0.012774
-0.0147712
-0.0170136
-0.0194357
-0.0214884
-0.0055863
-0.00287219
-0.00336135
-0.00572889
-0.00820216
-0.00884786
-0.00952687
-0.0107959
-0.0124281
-0.0132833
-0.0143739
-0.015423
-0.0155784
-0.0146484
-0.0130389
-0.0134698
-0.0136423
-0.014636
-0.0160971
-0.0175271
-0.00150439
-0.00485023
-0.00661184
-0.0117867
-0.0146078
-0.0164193
-0.0174529
-0.0169033
-0.0161043
-0.0176342
-0.0204018
-0.0235053
-0.0267774
-0.0300022
-0.0284088
-0.024505
-0.0233492
-0.0222757
-0.0212306
-0.020425
-0.000654636
-0.00235022
-0.005324
-0.0107463
-0.0151132
-0.0174243
-0.0201385
-0.0210439
-0.0195602
-0.0187598
-0.0187768
-0.0197934
-0.0218776
-0.0241829
-0.0242248
-0.023523
-0.0240767
-0.023503
-0.0222347
-0.0209197
-0.0014678
-0.00169227
-0.00480199
-0.00983961
-0.0142108
-0.0142262
-0.0169624
-0.015886
-0.0145558
-0.0142682
-0.0141883
-0.0145725
-0.0151648
-0.0161093
-0.0161548
-0.0167468
-0.0171766
-0.0173732
-0.0173994
-0.0173235
-0.0014078
-0.00253067
-0.00433451
-0.00684877
-0.00956409
-0.0102407
-0.0117853
-0.0120848
-0.0124687
-0.0129956
-0.0134226
-0.0139153
-0.0144787
-0.0149483
-0.0155496
-0.0159246
-0.0163141
-0.0167456
-0.0171748
-0.0177036
-0.000199404
-0.00386589
-0.00489957
-0.00721396
-0.0102131
-0.0115259
-0.0130203
-0.0131536
-0.0136408
-0.0134906
-0.013333
-0.0131246
-0.013143
-0.0133705
-0.0138603
-0.0144582
-0.0151648
-0.0158479
-0.0165409
-0.0173398
-0.00199028
-0.00606694
-0.00679994
-0.00974908
-0.0136417
-0.014114
-0.0163118
-0.0157614
-0.0168686
-0.0159039
-0.0156308
-0.014486
-0.0139348
-0.0132245
-0.0129619
-0.0129277
-0.0131313
-0.0134032
-0.013767
-0.0143013
-0.00761895
-0.00549867
-0.00774501
-0.0120429
-0.0167262
-0.0153852
-0.0165764
-0.0154264
-0.015779
-0.0154481
-0.0153342
-0.0146038
-0.0140277
-0.0131966
-0.0126445
-0.0122707
-0.0121096
-0.0120585
-0.0120768
-0.0122342
-0.0121833
-0.0127599
-0.0112999
-0.0192642
-0.0208859
-0.0158108
-0.0156985
-0.016447
-0.017465
-0.018241
-0.0182799
-0.017947
-0.0171603
-0.0162575
-0.0154516
-0.0148918
-0.0146139
-0.0145785
-0.0147086
-0.0148861
-0.00779676
-0.00914452
-0.00684642
-0.0111258
-0.0161462
-0.0178679
-0.0218133
-0.0248363
-0.0282228
-0.0305101
-0.0327348
-0.0336675
-0.033788
-0.0323391
-0.0303011
-0.0277049
-0.0254339
-0.0237203
-0.0227919
-0.0227998
-0.00567597
-0.00381769
-0.00317912
-0.00687867
-0.0146257
-0.0214061
-0.0298335
-0.036074
-0.0432918
-0.0492705
-0.0571335
-0.0654096
-0.0726422
-0.0766529
-0.0771593
-0.0744411
-0.0695922
-0.0636868
-0.057835
-0.0536239
-0.00201402
-0.00281327
-0.00343936
-0.00443468
-0.00549354
-0.00653096
-0.00769482
-0.00856542
-0.00954641
-0.0105293
-0.0116936
-0.0130517
-0.0146195
-0.0164559
-0.0185759
-0.0210683
-0.0239269
-0.0273291
-0.0310503
-0.0358195
-0.00542455
-0.00761613
-0.00635912
-0.00571885
-0.0066634
-0.00775048
-0.00883934
-0.00948401
-0.0101651
-0.0105465
-0.0110469
-0.0114179
-0.0119314
-0.0123684
-0.0129232
-0.013437
-0.0139744
-0.0145999
-0.0152381
-0.0162269
-0.0032435
-0.00832702
-0.0087159
-0.00683924
-0.00678757
-0.00785449
-0.0090741
-0.0100877
-0.0109064
-0.0113649
-0.0117762
-0.0119277
-0.0120739
-0.0120622
-0.0120943
-0.0120877
-0.0121617
-0.0122973
-0.0125443
-0.0129138
-0.00135223
-0.00273119
-0.00334691
-0.00462255
-0.00566506
-0.00709469
-0.00820477
-0.00919751
-0.00982361
-0.0103532
-0.0107413
-0.0110498
-0.0112702
-0.011418
-0.0115396
-0.0116685
-0.0118627
-0.0120824
-0.0124104
-0.0127734
-0.000656969
-0.00167255
-0.00255406
-0.00355202
-0.00471127
-0.00602308
-0.00690079
-0.00784666
-0.00850369
-0.00925828
-0.00987019
-0.0104311
-0.0108742
-0.0112013
-0.0114819
-0.0117093
-0.0119961
-0.012245
-0.0125584
-0.0128608
-0.0018282
-0.00170787
-0.00178408
-0.00271458
-0.00383668
-0.00497693
-0.00580609
-0.00674252
-0.00757857
-0.00850216
-0.00934898
-0.0101673
-0.0109233
-0.0115928
-0.0121941
-0.012694
-0.0132149
-0.0136641
-0.0140383
-0.0141934
-0.000639342
-0.00277925
-0.00234953
-0.00270152
-0.0036754
-0.00466317
-0.00560972
-0.00653849
-0.00746955
-0.00841908
-0.00933164
-0.0102001
-0.0110309
-0.0118848
-0.0127427
-0.0135387
-0.0142298
-0.0147984
-0.015329
-0.0155937
-0.00896679
-0.00246199
-0.00261611
-0.00361115
-0.00449597
-0.00505017
-0.00548063
-0.00628822
-0.00689477
-0.0076169
-0.00834524
-0.00922033
-0.0101813
-0.0111395
-0.0121035
-0.0126888
-0.0131849
-0.0135704
-0.0139398
-0.0141891
-0.00223537
-0.000880293
-0.00161212
-0.0042738
-0.00576081
-0.00564855
-0.00569831
-0.00622142
-0.0066741
-0.00717162
-0.00777699
-0.0085445
-0.00940468
-0.0102262
-0.011166
-0.0116334
-0.011997
-0.0122404
-0.0124452
-0.0126237
-0.00136427
-0.00126902
-0.00316874
-0.0057933
-0.00754639
-0.00745917
-0.00726684
-0.00796785
-0.00902194
-0.00985349
-0.0102739
-0.0103246
-0.0101797
-0.0101499
-0.0105893
-0.0109537
-0.0110008
-0.0110761
-0.0111986
-0.0113592
-0.00055473
-0.0015516
-0.00468623
-0.00879004
-0.0103726
-0.0115629
-0.0119981
-0.0122917
-0.0129753
-0.0139146
-0.0149536
-0.0157028
-0.0158927
-0.0159644
-0.0143771
-0.0120671
-0.0114137
-0.0110779
-0.0109777
-0.0110756
-0.000340915
-0.00106637
-0.00459809
-0.00892723
-0.0107306
-0.0117557
-0.0122974
-0.0126374
-0.0129804
-0.0134209
-0.0136602
-0.0140814
-0.014932
-0.0159963
-0.0140134
-0.011158
-0.0107066
-0.0105439
-0.0106731
-0.0110064
-0.000888663
-0.00130103
-0.00479079
-0.00850977
-0.00991427
-0.0100387
-0.0105388
-0.0105476
-0.0104545
-0.0104451
-0.0102996
-0.010281
-0.010216
-0.0101653
-0.00960972
-0.00970916
-0.00995256
-0.0103556
-0.0108941
-0.0114994
-0.00290993
-0.00273261
-0.00497265
-0.00691784
-0.00823421
-0.00878998
-0.00932595
-0.00919531
-0.0091848
-0.00911705
-0.00907376
-0.00905833
-0.00909051
-0.00919815
-0.00943232
-0.00974719
-0.0102064
-0.0108139
-0.0115299
-0.0122683
-0.00235558
-0.00333517
-0.00470282
-0.00660641
-0.00799292
-0.00879013
-0.00920366
-0.00911036
-0.00904181
-0.0088283
-0.00872806
-0.00865211
-0.00870635
-0.00886168
-0.00916971
-0.00960542
-0.0101869
-0.0109024
-0.0117359
-0.0125469
-0.00102166
-0.00582882
-0.00655796
-0.0075644
-0.008758
-0.00945268
-0.00985595
-0.00968674
-0.00960397
-0.00920758
-0.0089899
-0.00878223
-0.00876479
-0.00883689
-0.00908137
-0.0094831
-0.0100592
-0.0107922
-0.0116459
-0.0124347
-0.00331909
-0.00530411
-0.0067354
-0.00831518
-0.00970686
-0.0102636
-0.0103773
-0.0102725
-0.00995403
-0.00970529
-0.00946533
-0.00933413
-0.00925599
-0.00930152
-0.00948281
-0.00983871
-0.0103641
-0.0110545
-0.0118565
-0.0125725
-0.00690846
-0.00630377
-0.00750436
-0.0105458
-0.0116804
-0.0121882
-0.0123186
-0.0127163
-0.0124182
-0.0123819
-0.0119701
-0.0117644
-0.0114926
-0.0113545
-0.0112706
-0.0112857
-0.0114011
-0.0116504
-0.0120488
-0.012483
-0.000350473
-0.00344928
-0.00493399
-0.00970841
-0.014173
-0.0172262
-0.0197444
-0.0212526
-0.0225155
-0.0226034
-0.0221568
-0.0208612
-0.0194713
-0.0181017
-0.0172724
-0.016903
-0.0168856
-0.0170192
-0.0171632
-0.0172485
-0.000655581
-0.00170608
-0.00245696
-0.00587899
-0.0128674
-0.0189167
-0.0247727
-0.028645
-0.0332253
-0.0364074
-0.0393316
-0.0402688
-0.0395144
-0.0364279
-0.0323685
-0.0280445
-0.0244601
-0.0220938
-0.0210956
-0.0214489
-0.0285827
-0.0230849
-0.0245829
-0.0158686
-0.0160722
-0.017781
-0.0202159
-0.0258271
-0.0255605
-0.0289525
-0.0163666
-0.0175945
-0.0211784
-0.023849
-0.0261732
-0.0359309
-0.0366386
-0.0190359
-0.0210219
-0.0217175
-0.0212174
-0.0297964
-0.0365704
-0.0344045
-0.0218458
-0.0242388
-0.0211374
-0.0213986
-0.0925327
-0.0999749
-0.103588
-0.0828387
-0.0644505
-0.0776702
-0.0700076
-0.0943601
-0.105379
-0.111562
-0.0623347
-0.0622787
-0.0725295
-0.085935
-0.0976622
-0.11271
-0.113655
-0.0639388
-0.0726505
-0.0916117
-0.109231
-0.100552
-0.113685
-0.114988
-0.078492
-0.0963067
-0.113336
-0.121163
-0.108619
-0.115364
-0.115412
-0.101271
-0.112043
-0.12223
-0.121211
-0.116621
-0.114823
-0.111273
-0.114432
-0.112623
-0.119251
-0.109854
-0.109823
-0.110011
-0.106397
-0.107231
-0.0794198
-0.106257
-0.0984276
-0.100339
-0.105303
-0.102075
-0.0695814
-0.0461397
-0.0960391
-0.0864062
-0.106236
-0.0996283
-0.104062
-0.078888
-0.0751091
-0.0822496
-0.0821694
-0.112678
-0.10465
-0.102736
-0.0786912
-0.0956672
-0.0847616
-0.0939774
-0.114032
-0.101698
-0.0991129
-0.101782
-0.114885
-0.0960446
-0.0966659
-0.113716
-0.0984326
-0.0964677
-0.117323
-0.120796
-0.0957699
-0.0941156
-0.111196
-0.0957987
-0.0944314
-0.120863
-0.117852
-0.0948606
-0.0986618
-0.107868
-0.0944017
-0.0955694
-0.115442
-0.107773
-0.0991635
-0.098802
-0.104143
-0.0957299
-0.0941721
-0.106727
-0.107608
-0.0997606
-0.103827
-0.101284
-0.093472
-0.0924849
-0.107831
-0.104748
-0.104534
-0.106622
-0.102109
-0.10109
-0.0970419
-0.0906512
-0.0865839
-0.0975073
-0.0948778
-0.0996925
-0.0959994
-0.0943304
-0.0872994
-0.0914563
-0.094379
-0.0949769
-0.0976126
-0.094195
-0.0934234
-0.0921925
-0.0898758
-0.0956069
-0.0972913
-0.0948731
-0.0928523
-0.0916602
-0.0882968
-0.0877272
-0.0978852
-0.0990785
-0.0925074
-0.0915535
-0.0907762
-0.0891974
-0.0956591
-0.0991489
-0.0974174
-0.0934554
-0.089683
-0.0848507
-0.0971762
-0.0984162
-0.0959398
-0.0922127
-0.0910703
-0.0835343
-0.0842645
-0.0991376
-0.101346
-0.0917577
-0.0917874
-0.089674
-0.0860741
-0.0916625
-0.101563
-0.102864
-0.0916336
-0.0913712
-0.0963042
-0.107777
-0.101653
-0.0973199
-0.0950454
-0.106449
-0.101585
-0.0917485
-0.101189
-0.0969976
-0.0943064
-0.0927577
-0.101012
-0.0957002
-0.0874692
-0.0955784
-0.0916437
-0.0923717
-0.0904042
-0.0945841
-0.0921344
-0.0827487
-0.0927836
-0.0945628
-0.0900487
-0.0899292
-0.0937111
-0.0950194
-0.080685
-0.0969581
-0.0992576
-0.0895878
-0.0879949
-0.0977073
-0.103008
-0.0785813
-0.105499
-0.120458
-0.0874103
-0.0881627
-0.108563
-0.118403
-0.0868442
-0.132136
-0.152025
-0.0893179
-0.091601
-0.123637
-0.124794
-0.0995275
-0.160197
-0.1647
-0.0908758
-0.0888249
-0.125481
-0.122078
-0.0146979
-0.0172097
-0.0240581
-0.0117463
-0.0134732
-0.0155614
-0.020648
-0.0222045
-0.0269921
-0.0388578
-0.0151012
-0.0211854
-0.0231982
-0.03298
-0.0355976
-0.044284
-0.0684493
-0.0242844
-0.0339794
-0.0361119
-0.042183
-0.0628669
-0.0768276
-0.0930588
-0.0377562
-0.0467759
-0.0428599
-0.0410401
-0.0938699
-0.0946346
-0.0873467
-0.0494437
-0.0507023
-0.0394588
-0.0336695
-0.0884739
-0.0811097
-0.0606094
-0.0484926
-0.0325636
-0.0320656
-0.0296866
-0.0426706
-0.0568583
-0.0536045
-0.0271875
-0.0161935
-0.0293861
-0.0289287
-0.0217131
-0.0529889
-0.0480802
-0.0144472
-0.0119546
-0.028312
-0.0251948
-0.0278824
-0.0220509
-0.0315503
-0.0178953
-0.0238932
-0.0215639
-0.0287883
-0.0447149
-0.0350027
-0.042999
-0.0267534
-0.0361354
-0.0309856
-0.0342439
-0.0731156
-0.0447661
-0.0482235
-0.0384823
-0.041225
-0.0341452
-0.032279
-0.0851094
-0.0488481
-0.050957
-0.0408427
-0.0371544
-0.0314907
-0.0308553
-0.0732549
-0.0527236
-0.0602973
-0.0356851
-0.0325907
-0.0312461
-0.0335225
-0.0608874
-0.0618006
-0.0675828
-0.0322978
-0.0338201
-0.03438
-0.0384695
-0.0678799
-0.0706193
-0.0819907
-0.0347572
-0.037492
-0.0405017
-0.0491281
-0.069453
-0.0860431
-0.0973104
-0.0377851
-0.0360107
-0.0526826
-0.0629167
-0.0391576
-0.0565152
-0.0615037
-0.0326353
-0.0365726
-0.0418855
-0.0453663
-0.0489768
-0.0630294
-0.0672674
-0.0377663
-0.0382229
-0.0461198
-0.0470468
-0.047979
-0.0674264
-0.0680738
-0.037299
-0.0337571
-0.0467554
-0.0455821
-0.0491726
-0.0693897
-0.07643
-0.0326851
-0.0323949
-0.0453699
-0.0453374
-0.0621254
-0.078438
-0.0792331
-0.0329218
-0.0347915
-0.0451936
-0.0429135
-0.0703375
-0.0779696
-0.0748192
-0.0353646
-0.0376223
-0.0416033
-0.0374857
-0.0792413
-0.0739864
-0.0683541
-0.0389348
-0.0460229
-0.0363461
-0.0355171
-0.0917263
-0.0658834
-0.0662585
-0.0495298
-0.0617466
-0.0366402
-0.0445479
-0.0604698
-0.0541247
-0.0623157
-0.0403688
-0.0427225
-0.0432088
-0.0448318
-0.0653544
-0.0646048
-0.0661753
-0.0430705
-0.0428086
-0.0444281
-0.0414508
-0.0602847
-0.0656714
-0.0607836
-0.042265
-0.041712
-0.0410197
-0.0397476
-0.0665022
-0.0602067
-0.0616187
-0.0419847
-0.0436848
-0.0400228
-0.0400587
-0.0719516
-0.0640447
-0.0706748
-0.0440757
-0.0433349
-0.039785
-0.0372616
-0.0733219
-0.070763
-0.0672592
-0.0422424
-0.0377855
-0.0357964
-0.0318972
-0.0655178
-0.0627629
-0.0494043
-0.0361738
-0.0338802
-0.0313594
-0.0307024
-0.06043
-0.0476601
-0.0511026
-0.0345202
-0.0406403
-0.0315149
-0.0342407
-0.0116335
-0.0122297
-0.0159739
-0.00906826
-0.0112003
-0.011566
-0.0144421
-0.0179325
-0.0174505
-0.0231708
-0.012692
-0.0162643
-0.0155563
-0.0175455
-0.0273495
-0.0256127
-0.0322884
-0.0175389
-0.0191147
-0.0175173
-0.0163945
-0.0373686
-0.0331781
-0.0314801
-0.0193782
-0.0182626
-0.0159571
-0.015001
-0.036908
-0.0300804
-0.0256161
-0.0176975
-0.0139736
-0.0148534
-0.0149464
-0.0217763
-0.0244411
-0.0228342
-0.0128528
-0.00984079
-0.0149486
-0.014952
-0.0116957
-0.0226649
-0.0223803
-0.00936713
-0.00893928
-0.0147721
-0.0141853
-0.0102926
-0.0218663
-0.0194682
-0.00907097
-0.00983883
-0.0138137
-0.0127873
-0.0174342
-0.0163232
-0.0200413
-0.0128646
-0.0155277
-0.0161532
-0.0174901
-0.0242848
-0.0211052
-0.0227827
-0.016391
-0.0173524
-0.0174451
-0.0167056
-0.0307716
-0.0229095
-0.02306
-0.017115
-0.0160873
-0.0165417
-0.0170219
-0.0216285
-0.0304141
-0.0281088
-0.0234258
-0.0276379
-0.0230198
-0.0218111
-0.0222557
-0.0267334
-0.0265301
-0.0215485
-0.0265308
-0.0213068
-0.0218113
-0.0275924
-0.0300247
-0.0342286
-0.0179209
-0.018643
-0.0248079
-0.0274021
-0.0302862
-0.0360446
-0.0432782
-0.0186731
-0.0183559
-0.0283241
-0.0312093
-0.0283087
-0.0461325
-0.0535294
-0.0179509
-0.0163948
-0.031955
-0.0326994
-0.0271315
-0.0333908
-0.0365615
-0.0229242
-0.0218585
-0.0266927
-0.0265506
-0.0269773
-0.0372446
-0.0374882
-0.0211427
-0.0189356
-0.0261961
-0.0242396
-0.0243808
-0.0368899
-0.0358199
-0.0184722
-0.0184439
-0.0235303
-0.0220184
-0.0252034
-0.0248018
-0.0286475
-0.0218881
-0.0290492
-0.022577
-0.0248875
-0.026611
-0.0281069
-0.0304025
-0.024984
-0.0308173
-0.0258318
-0.0262942
-0.0331979
-0.0332531
-0.0304551
-0.0251586
-0.0280318
-0.0217599
-0.0238602
-0.0413359
-0.0301026
-0.0320923
-0.0291167
-0.0327078
-0.0247918
-0.0280026
-0.0539564
-0.0338662
-0.0415466
-0.0338163
-0.0360987
-0.0290611
-0.0321854
-0.0348512
-0.031423
-0.0349306
-0.0256614
-0.0256457
-0.0255241
-0.0242738
-0.0353936
-0.0349871
-0.033528
-0.0253683
-0.0239158
-0.0235655
-0.0217354
-0.0345897
-0.0330678
-0.0318383
-0.0233786
-0.022207
-0.0210973
-0.0197583
-0.0368702
-0.0312983
-0.0308681
-0.0219496
-0.0213675
-0.0193335
-0.0185568
-0.0355016
-0.0299976
-0.0273771
-0.0211624
-0.0209026
-0.0182948
-0.0179928
-0.0304595
-0.0258203
-0.0231823
-0.0210632
-0.0225883
-0.0180618
-0.0186277
-0.0302506
-0.0227434