/*--------------------------------*- C++ -*----------------------------------*\
  =========                 |
  \\      /  F ield         | OpenFOAM: The Open Source CFD Toolbox
   \\    /   O peration     | Website:  https://openfoam.org
    \\  /    A nd           | Version:  10
     \\/     M anipulation  |
\*---------------------------------------------------------------------------*/
FoamFile
{
    format      ascii;
    class       volVectorField;
    location    "7.6";
    object      U;
}
// * * * * * * * * * * * * * * * * * * * * * * * * * * * * * * * * * * * * * //

dimensions      [0 1 -1 0 0 0 0];

internalField   nonuniform List<vector> 
12920
(
(-52.8452 -59.4052 -122.029)
(-18.5819 27.292 -46.8828)
(180.649 -5.94595 -29.8774)
(152.077 -4.55685 -27.7564)
(205.882 4.07888 -9.32847)
(154.141 17.4314 -1.69143)
(132.061 21.5772 8.52695)
(79.4196 14.2725 0.147519)
(91.7817 7.02954 -1.12557)
(76.8795 4.57929 -1.74804)
(85.2543 1.72756 -0.853241)
(79.9295 1.48407 -0.874266)
(85.0621 0.784198 -0.531221)
(84.2104 1.49918 -0.603991)
(88.4987 1.34032 -0.446471)
(89.825 2.28274 -0.694055)
(93.7205 0.89562 -0.70672)
(98.8077 1.85784 -0.534799)
(101.146 1.10492 -0.882362)
(109.247 1.16107 -1.16323)
(120.325 -57.6393 86.6222)
(9.41254 -21.4695 -0.0581733)
(165.003 34.9908 16.0892)
(64.0599 15.4497 4.75115)
(127.459 24.9995 7.74634)
(71.3736 25.1492 2.31982)
(100.208 21.6433 3.46335)
(72.6029 18.2685 -0.262027)
(88.9301 10.131 -0.14864)
(76.7415 8.79518 -0.8764)
(85.3762 4.31892 -0.117418)
(80.8684 1.82281 0.0006577)
(86.3723 -1.42883 0.575036)
(85.181 -3.87239 1.00688)
(88.5576 -5.58663 1.32095)
(88.3643 -5.86247 1.65534)
(89.4482 -7.05452 1.82702)
(89.0508 -8.00393 1.8016)
(90.4921 -10.5347 1.66724)
(93.7318 -9.40546 1.41482)
(57.3125 27.5186 -39.2715)
(-166.157 -58.2901 -32.8212)
(156.702 -70.8056 -2.14919)
(16.0444 -29.3792 4.71276)
(119.25 -23.9413 6.78163)
(63.249 11.3944 4.7275)
(102.9 9.37502 4.05595)
(80.0534 16.924 1.81274)
(96.0671 8.09622 1.61935)
(85.9044 7.37905 0.86065)
(93.5579 0.271402 1.09594)
(89.2787 -1.92459 0.604694)
(93.0042 -5.79762 0.645212)
(91.2004 -6.73101 0.354531)
(92.4881 -8.17309 0.411158)
(91.0113 -7.77997 0.465185)
(90.4618 -8.69161 0.789273)
(86.3867 -8.54252 1.00766)
(82.7091 -11.4652 0.954328)
(78.3019 -9.41482 0.0106321)
(249.223 27.4063 18.0293)
(144.853 -7.55121 0.920822)
(203.166 -32.2838 -11.317)
(142.181 -17.5807 -7.81786)
(163.657 -19.4881 -1.95465)
(117.68 1.98783 1.3165)
(126.768 0.761107 2.94686)
(104.243 8.76082 2.18256)
(109.838 3.0083 2.2301)
(97.7384 3.89609 1.27538)
(98.5498 -1.24735 0.898804)
(91.3905 -2.23478 0.0226447)
(91.8104 -5.3941 -0.147444)
(89.0976 -6.22696 -0.395156)
(90.3394 -7.35071 -0.320691)
(90.048 -7.21635 -0.147906)
(89.876 -6.72644 0.428227)
(85.1693 -5.86757 0.855868)
(80.7888 -7.09777 1.14829)
(72.9216 -5.00579 0.194723)
(-39.402 138.17 -26.5093)
(-83.2914 54.127 -43.297)
(160.696 61.7263 -15.604)
(73.4342 39.7083 -4.47441)
(143.49 32.0749 -2.83966)
(102.655 24.6764 -2.06948)
(125.797 12.7073 -0.181956)
(111.695 14.3306 -0.442629)
(120.336 7.07928 0.322011)
(111.586 9.05811 0.113964)
(111.997 4.39048 0.637105)
(102.631 3.96765 0.154054)
(102.026 -1.40301 -0.194026)
(97.7207 -3.77041 -0.613381)
(98.449 -7.24739 -0.506139)
(97.5348 -7.35514 -0.489403)
(97.1854 -6.40863 0.133602)
(91.4278 -4.98385 0.625403)
(83.1202 -5.29981 1.32113)
(70.9058 -1.91633 0.560376)
(-37.5855 -97.4707 64.1179)
(-40.106 -13.1991 -31.5717)
(150.314 -3.80702 -10.2717)
(72.0933 11.1368 3.76889)
(135.687 7.53954 3.34497)
(93.3676 13.8015 1.4521)
(118.989 5.52587 0.850039)
(106.374 10.2952 -0.298006)
(114.619 5.87645 -0.351047)
(110.877 8.79082 -0.681296)
(113.993 6.20336 -0.429895)
(111.936 5.94539 -0.446794)
(112.963 2.04902 0.187042)
(110.472 -0.121282 0.681353)
(107.763 -4.17206 0.809376)
(103.478 -4.58699 -0.0684419)
(103.417 -2.53547 -0.298794)
(99.9469 3.16163 0.245866)
(93.8825 5.98031 1.45035)
(78.3947 4.16198 0.857282)
(221.339 28.2365 -161.055)
(-70.7255 -5.67359 9.01129)
(160.562 27.4873 -7.05334)
(55.0521 6.58425 3.50496)
(132.386 15.6965 0.309559)
(81.3563 17.9702 -1.57598)
(104.482 1.38333 -1.95472)
(92.347 16.028 -2.18039)
(102.549 6.35218 -1.63502)
(99.8489 11.1352 -1.4147)
(102.534 5.56892 -0.647567)
(97.9146 5.95538 0.840606)
(92.298 -1.44617 2.73163)
(84.4697 -2.43314 1.99876)
(81.5173 -3.61437 0.386229)
(80.4801 -2.11394 -0.465828)
(82.1323 -1.52947 -1.32594)
(85.8382 2.05819 -1.38775)
(91.5213 7.52063 -0.819352)
(90.6482 7.6586 -0.572691)
(-60.8929 58.3476 -51.4093)
(-97.3714 60.5894 -60.2853)
(135.728 11.6682 -18.3871)
(26.3135 -6.83211 -6.84939)
(124.788 6.4174 -2.03924)
(67.4674 34.946 -2.95226)
(91.9593 12.095 -1.62979)
(81.2256 11.4985 -1.22476)
(90.0834 7.41889 -0.61736)
(88.6604 8.03899 -0.131854)
(90.0696 8.66872 0.0665907)
(80.9502 7.05994 0.810106)
(70.9414 0.666415 0.901649)
(63.676 -2.55553 0.388346)
(60.544 -1.39911 -0.320746)
(62.6264 -1.86683 -0.749435)
(65.2412 0.793667 -1.58725)
(70.296 0.99308 -1.90298)
(76.9062 4.9457 -1.2025)
(78.9248 6.10285 -0.621609)
(-129.053 85.2161 -129.454)
(-106.22 77.8148 -35.9282)
(115.536 30.4811 -25.1708)
(-6.07242 25.8953 -7.93781)
(91.8814 17.6577 -3.27607)
(31.4299 24.6347 -1.50468)
(61.7071 21.8783 0.563249)
(64.8143 18.7751 -0.738665)
(72.1717 12.3077 -0.322489)
(76.822 10.3585 -0.190039)
(81.4646 10.6727 0.0451927)
(75.9584 9.79734 0.355665)
(59.8941 5.16467 0.629192)
(54.9134 -1.21139 0.143975)
(56.1196 -0.542508 0.048486)
(56.4026 -1.41865 -0.369416)
(60.307 1.02235 -0.61542)
(60.6088 1.36359 -0.798632)
(62.5137 5.16881 -0.534532)
(62.8912 6.99341 -0.538991)
(96.3542 16.9907 38.8406)
(-68.3127 39.3266 16.0416)
(83.6083 36.4194 -3.05469)
(-39.8089 40.5273 -1.54703)
(79.6481 36.7409 -2.26549)
(8.53562 33.8089 -1.88679)
(23.5992 30.1643 0.12164)
(36.9887 22.3844 -0.227117)
(41.7588 16.4739 -0.00522512)
(42.9552 15.5372 0.120969)
(43.1164 13.5532 -0.0495811)
(46.397 10.0944 -0.0385769)
(49.9916 4.15083 -0.193677)
(52.258 -1.75777 -0.0482138)
(56.9507 -3.3093 -0.0457424)
(59.6508 -1.5849 0.0512072)
(61.6089 0.964153 -0.078798)
(61.7642 3.05011 -0.0703897)
(62.5648 6.30814 -0.0148687)
(62.865 7.42241 -0.244771)
(80.6099 253.589 3.68953)
(-97.0228 57.7273 -3.12011)
(96.9546 29.4938 -2.31426)
(-43.0434 34.1965 3.80975)
(74.9 31.0291 1.53908)
(9.64864 34.7771 -1.47389)
(27.4545 33.341 -0.140198)
(37.6699 25.3551 -0.233422)
(47.6549 9.53501 -0.342058)
(54.7339 8.25007 -0.254778)
(64.4402 9.94452 -0.269051)
(65.6602 11.7994 0.0965396)
(67.7566 2.77818 -0.247658)
(81.5469 -9.42849 0.122765)
(81.8998 -4.65558 0.645292)
(66.1249 -2.76193 1.17636)
(64.6742 -0.638486 0.635168)
(64.8542 0.455531 0.332356)
(66.6424 5.03059 0.368169)
(68.9655 7.19106 0.0163445)
(-11.5422 -35.8457 -99.0693)
(-173.803 -52.6778 6.87867)
(58.049 -13.4457 -2.48646)
(-43.7871 9.93363 0.0550025)
(63.1816 10.8684 0.490792)
(10.7032 20.2045 -0.487352)
(49.0565 25.8537 0.529743)
(61.4523 18.1432 -0.156679)
(64.9704 9.58009 -0.339824)
(66.8191 5.64236 -0.434978)
(74.2468 3.45321 0.440075)
(81.9064 0.772896 0.255643)
(89.663 -7.17826 0.00114311)
(75.8097 -9.67236 0.282083)
(68.4953 -3.84124 -0.505001)
(62.4982 0.695052 0.285915)
(62.9143 -1.00801 0.414959)
(61.7115 -0.712096 0.247919)
(62.5188 1.00933 0.161502)
(66.6957 4.21235 -0.0517523)
(151.614 -63.505 -68.3232)
(7.3384 -31.5668 20.5337)
(147.229 12.0754 2.29417)
(5.63998 21.5227 0.00631649)
(93.2915 18.8386 2.14104)
(25.4028 -14.288 0.19126)
(61.8765 8.69668 0.424235)
(42.3243 6.1268 0.483529)
(54.2997 6.99441 0.442518)
(49.334 0.623162 0.711658)
(51.4774 -0.743287 0.471263)
(48.7212 -3.75392 0.408066)
(52.9704 -6.09331 0.088978)
(53.741 -7.13923 -0.0796341)
(52.4575 -2.17797 -0.0889949)
(55.4233 -1.70895 0.091018)
(55.3588 -1.44856 -0.0383734)
(54.9413 -0.817847 -0.112307)
(53.7624 0.505778 -0.339092)
(56.5987 2.23025 -0.463854)
(112.462 45.6962 157.055)
(4.7671 -24.3997 -9.87848)
(121.079 7.19099 9.39634)
(28.9045 26.7522 -1.04633)
(96.9278 13.4161 -0.270873)
(37.5049 -0.709771 -4.48242)
(61.9172 17.6012 -1.66132)
(40.6352 -10.2258 -1.35054)
(53.5993 1.30773 0.688243)
(49.311 -10.1133 0.574587)
(56.9433 -3.3027 0.279871)
(53.7994 -7.81091 0.225197)
(55.4634 -4.06504 0.247043)
(51.8394 -5.90479 0.110953)
(52.1872 -3.2237 0.298812)
(50.4266 -2.87572 0.208361)
(50.5914 0.0104394 0.115346)
(49.5898 0.882539 -0.104142)
(48.874 2.01383 -0.117279)
(50.2051 2.78955 -0.347704)
(289.511 -57.1055 -59.4051)
(-35.1669 -24.733 -11.2985)
(139.954 9.47242 -2.98493)
(33.0642 18.6831 -0.586218)
(102.699 28.8696 -2.29337)
(60.442 21.6776 -5.47637)
(92.2292 25.8211 -2.35273)
(76.0263 9.09504 -1.60225)
(79.0951 -1.91392 1.9975)
(62.1073 -12.7292 1.58937)
(59.6579 -7.41863 0.978114)
(49.3644 -8.33343 0.608855)
(47.6614 -4.68413 0.327901)
(42.4729 -5.03914 0.170476)
(43.2973 -2.54317 -0.0975203)
(42.5347 -1.69252 -0.148764)
(43.4289 -0.516649 -0.0847657)
(44.3592 0.167133 -0.187719)
(44.2657 0.907183 -0.0513126)
(45.8877 1.82649 -0.399092)
(82.1584 -8.01038 -33.6703)
(-113.943 45.2703 -30.0058)
(134.577 23.0657 -13.2644)
(28.9668 25.3498 1.09213)
(107.552 26.6585 0.0416074)
(77.6375 19.5858 -2.03481)
(114.452 16.957 0.193329)
(103.795 3.14958 0.446553)
(108.92 5.42827 2.59266)
(85.188 -1.62634 2.23318)
(77.5902 3.91434 2.0267)
(62.3914 -0.538016 0.712194)
(60.4285 1.05856 0.809927)
(51.1418 -3.07113 0.549748)
(49.9202 -2.72828 0.385785)
(46.2675 -2.85772 0.218164)
(46.9374 -1.32551 0.0646948)
(46.3633 -0.411729 -0.0641386)
(45.8614 0.736008 -0.029495)
(46.5743 1.67327 -0.402372)
(57.2363 -24.9921 -21.5212)
(-138.275 4.49688 -31.8826)
(108.6 -28.3364 -1.33577)
(39.4573 -6.69483 -2.18823)
(120.444 -4.89883 2.69672)
(99.1858 3.45936 0.460706)
(117.22 4.92463 4.12157)
(90.3488 0.659368 3.07)
(86.9283 3.74797 4.01131)
(66.9845 1.8387 1.17772)
(68.9335 4.30348 0.773517)
(61.1401 2.97896 -0.142897)
(61.5509 2.89223 0.330449)
(55.4222 1.48282 0.192487)
(53.1021 0.517666 0.546118)
(47.2535 -0.289253 0.299208)
(46.5298 -0.116844 -0.00386919)
(45.1925 0.190274 -0.140287)
(44.2188 0.541866 -0.0612938)
(44.6244 1.2036 -0.380723)
(90.6466 -191.642 17.1264)
(40.8179 9.14845 -2.45268)
(108.612 -47.2789 11.322)
(58.2462 -21.5373 6.51359)
(113.155 -14.636 10.732)
(66.6746 0.36073 5.90249)
(83.1276 8.28997 6.03454)
(51.6578 6.94763 2.11483)
(66.9201 9.37915 1.37045)
(56.183 5.12508 -0.280076)
(65.6628 6.62876 -0.165306)
(59.9237 4.51723 -0.329596)
(62.741 4.75328 -0.0258539)
(58.1006 3.24893 -0.128016)
(57.7156 2.96993 0.10047)
(52.9631 2.01282 -0.157196)
(52.1825 1.81462 -0.246525)
(50.6638 1.72392 -0.293382)
(49.6683 1.81647 -0.21894)
(49.447 2.32307 -0.441391)
(168.537 -47.6519 24.6595)
(131.891 -46.8512 -1.46375)
(165.537 -96.2901 5.84475)
(111.65 -83.0418 0.508838)
(138.37 -64.2584 9.76688)
(81.3324 -22.7625 8.09881)
(81.8068 -6.31161 6.78507)
(48.4495 -2.58407 1.93107)
(63.3712 -4.92749 1.51454)
(53.4374 0.726244 0.388776)
(63.396 3.86922 0.311163)
(57.5604 6.11187 0.104921)
(61.4723 6.50288 0.0548104)
(58.2862 6.83227 -0.17999)
(59.867 6.38922 -0.367582)
(58.0871 5.92061 -0.657438)
(58.6741 4.78856 -0.80991)
(58.2784 3.99654 -0.947597)
(58.0362 3.43023 -0.980238)
(56.7376 3.15672 -0.923651)
(91.5341 -89.2463 27.2995)
(83.2817 -46.6889 -31.1717)
(177.311 -34.8891 -35.7814)
(139.008 -25.6289 -27.0813)
(175.986 -19.37 -22.1866)
(180.163 7.41174 -14.1286)
(202.71 13.9027 1.3099)
(188.304 12.3422 6.44413)
(161.746 -2.74324 11.3351)
(112.648 -0.995965 7.14125)
(104.957 2.89419 3.88309)
(90.6123 5.51524 3.15738)
(89.7437 6.44289 3.02207)
(82.6374 7.2483 2.77854)
(82.0856 8.12963 2.24196)
(80.3282 8.69965 1.86506)
(81.1777 8.944 1.59892)
(82.5533 9.24424 1.37437)
(84.2449 9.38904 0.908119)
(87.3213 7.74159 0.694835)
(139.763 -202.107 186.276)
(-23.4594 -10.4483 -79.135)
(152.018 -31.3981 -19.1098)
(29.8086 -22.5635 -6.21934)
(119.682 -6.17827 14.1173)
(50.5819 8.87783 5.07086)
(87.9822 9.62362 10.0948)
(53.793 6.59295 -1.29497)
(73.8184 1.20231 -1.39803)
(58.4538 0.723301 -2.78257)
(70.3239 -1.41135 -1.08841)
(65.5092 -1.60879 -1.10297)
(72.742 -2.46419 -0.164938)
(72.378 -3.02521 -0.153647)
(77.7563 -3.38691 0.251322)
(79.1096 -3.52349 -0.0517734)
(83.2074 -5.35268 -0.0583008)
(88.2238 -4.3551 0.176931)
(91.0007 -5.64134 0.428391)
(98.0814 -5.75242 0.405925)
(179.833 225.75 -56.5807)
(-78.2509 17.3944 9.60739)
(156.484 31.2798 4.31498)
(8.48379 -4.24511 6.3123)
(106.038 2.11616 8.99337)
(40.9709 9.05963 2.46063)
(85.931 5.80587 4.85935)
(56.7238 6.1121 -0.373832)
(75.7861 -0.851449 0.763924)
(61.9132 -0.35178 -0.710436)
(71.4093 -3.8386 0.611095)
(66.0648 -3.65436 0.306876)
(71.3204 -5.02419 1.06961)
(69.9092 -4.75852 1.12306)
(73.0523 -5.24255 1.54111)
(73.0874 -4.97758 1.90168)
(74.5264 -6.14127 2.07178)
(74.9793 -6.61089 2.01842)
(76.983 -8.08432 1.5683)
(79.0042 -6.25302 0.836448)
(159.989 -169.149 267.496)
(-144.466 -41.734 -10.0398)
(153.804 -55.2555 -22.3643)
(4.66162 -20.431 7.02725)
(110.472 -23.9933 9.71901)
(53.0386 6.2049 6.78039)
(94.75 -0.0316004 6.4646)
(68.8265 7.50413 2.32778)
(84.0737 -0.744714 2.48109)
(70.6846 0.995593 0.865596)
(76.9823 -4.05034 1.43363)
(70.6845 -3.40308 0.544567)
(73.7966 -5.37643 0.849572)
(70.9582 -4.79226 0.430522)
(72.1984 -5.4119 0.649453)
(70.2907 -4.66938 0.709953)
(70.0899 -5.65121 1.11926)
(67.6369 -5.91331 1.21754)
(66.674 -7.7442 1.131)
(64.2529 -5.73089 -0.390957)
(137.745 -24.2889 -138.149)
(151.819 -9.2468 -45.3828)
(199.205 -22.2407 -33.8992)
(125.666 -5.95989 -15.5784)
(143.696 -11.1124 -4.76631)
(95.7857 8.40097 0.252745)
(109.792 3.92878 4.0591)
(85.891 10.6883 2.3232)
(92.0055 3.7379 2.88636)
(77.5927 4.73211 1.20829)
(78.5122 -0.629614 1.15735)
(70.7339 -1.07419 -0.0622665)
(71.3757 -3.85247 -0.155721)
(68.2971 -3.78134 -0.476318)
(69.236 -4.2317 -0.228214)
(67.7913 -3.42865 0.0868928)
(67.4954 -3.28516 0.782729)
(64.1055 -2.991 1.19988)
(62.5048 -3.75496 1.58611)
(58.2523 -2.49491 -0.2885)
(184.045 -16.1809 34.9345)
(-25.4848 13.7875 -49.6121)
(159.659 37.3037 -32.2144)
(71.5348 26.9059 -10.949)
(131.408 25.4425 -5.51368)
(82.7631 23.3261 -3.84538)
(104.248 13.5233 0.399052)
(83.8711 17.4743 -0.719659)
(92.1809 9.56521 0.833304)
(80.5275 11.0953 -0.0645512)
(82.2216 4.71788 0.74786)
(74.4923 3.40122 -0.115035)
(75.4695 -1.73682 -0.0906114)
(72.553 -3.05946 -0.557871)
(73.3061 -4.69884 -0.435121)
(71.5977 -3.58537 -0.236595)
(70.6776 -2.05524 0.790216)
(65.1361 -1.13701 1.19708)
(61.6846 -1.246 1.89809)
(56.0561 -0.108019 0.303292)
(143.909 -162.083 -27.5468)
(69.7633 -27.1291 -44.3072)
(145.581 -12.8972 -18.6614)
(62.8128 10.752 1.6434)
(121.817 11.8978 3.6673)
(73.9527 20.4346 0.927912)
(100.367 11.8933 1.25974)
(82.2233 17.1717 -0.696797)
(88.5592 10.9036 -0.195878)
(80.7495 12.3528 -0.84122)
(82.7935 7.00136 -0.16897)
(78.5948 4.8966 -0.26819)
(79.7662 -1.04578 0.734583)
(77.8495 -2.34743 0.894046)
(77.8796 -3.22988 0.745019)
(75.3589 -1.75935 -0.154788)
(74.1236 2.82179 -0.0576289)
(69.6015 5.28137 0.725224)
(66.7771 5.79676 2.08396)
(60.0767 4.05473 0.782187)
(292.274 29.0471 -216.206)
(70.7571 29.4487 -44.4638)
(152.887 55.7177 -28.0401)
(53.0236 29.1325 0.548879)
(121.08 30.6859 -1.3861)
(62.889 29.3675 -2.38919)
(84.4066 10.4209 -1.88794)
(67.7234 25.2655 -2.58164)
(76.1729 11.7035 -1.57089)
(70.2027 14.8638 -1.46471)
(72.9762 6.50298 0.0400015)
(69.1091 4.9015 2.17548)
(69.918 -0.747447 3.234)
(67.7458 -0.726665 2.26346)
(66.3263 -1.22039 0.289909)
(64.4451 0.797617 -0.912671)
(65.4695 3.42373 -1.75598)
(65.1648 5.97089 -1.4152)
(66.4355 8.33917 -0.532393)
(64.359 7.19675 -0.869639)
(154.025 142.484 39.854)
(-47.1708 94.7101 -63.3633)
(133.075 49.0678 -19.862)
(11.5345 18.9803 -7.96435)
(110.993 24.167 -2.75414)
(47.2534 44.7179 -3.52808)
(74.8941 14.5782 -2.91339)
(60.7712 17.0975 -3.40647)
(66.7288 10.5052 -2.21237)
(64.1616 10.8529 -1.51028)
(65.7935 6.84814 0.180527)
(60.8721 3.77683 2.44419)
(59.1915 -0.0448807 2.34891)
(56.0631 -0.708707 0.625938)
(51.6308 0.811208 -1.03685)
(53.1997 0.302917 -1.49123)
(54.1163 3.05962 -2.09179)
(55.9136 3.52569 -2.14929)
(57.9228 6.10713 -1.02514)
(58.6192 5.89948 -0.821797)
(8.42996 105.029 37.1454)
(-44.8876 62.9509 -80.9124)
(99.4005 36.3629 -33.0054)
(-15.351 35.2785 -13.6685)
(75.7933 26.7788 -6.67742)
(26.7234 33.4644 -3.43767)
(56.8531 21.8856 -1.15996)
(53.7403 18.0143 -2.76151)
(56.9811 12.7181 -1.61794)
(56.5892 10.3655 -1.084)
(56.8847 8.23933 0.676782)
(52.2668 6.2104 2.80767)
(50.2854 2.18683 2.21635)
(49.8955 -1.13171 0.00256905)
(49.4196 0.256483 -0.52528)
(47.7525 -0.57728 -0.917444)
(50.769 1.87361 -0.918662)
(49.9274 2.10819 -1.04142)
(50.9737 5.05749 -0.44985)
(51.1904 5.76327 -0.83411)
(67.5592 2.44612 222.005)
(-103.5 15.5419 -11.4446)
(58.2857 33.1403 12.6064)
(-52.4407 38.3989 -2.09661)
(58.9123 33.0001 -4.62621)
(1.0613 32.4463 -4.40819)
(27.3552 30.1532 -1.70914)
(35.0045 21.3914 -1.32146)
(38.4125 15.3672 -0.202681)
(39.6754 13.1099 0.383479)
(40.192 11.1814 0.106998)
(42.4928 8.13003 -0.187322)
(46.0099 3.44322 -0.577849)
(48.3683 -0.749654 -0.170855)
(51.071 -1.4381 0.234083)
(51.0438 -0.1151 -0.185377)
(52.3985 1.57204 -0.0688622)
(51.8063 3.08551 -0.122037)
(52.0939 5.19296 0.111202)
(52.1819 5.70174 -0.612953)
(155.474 264.77 185.297)
(-119.03 50.9412 -3.02876)
(64.5044 27.4358 3.27018)
(-70.9666 32.9625 6.28209)
(52.4982 26.6509 0.019686)
(-4.62477 27.194 -0.223617)
(22.2318 25.5409 -1.21831)
(32.1196 19.256 -1.7672)
(38.6577 10.7177 -0.798849)
(44.536 9.25521 -0.310118)
(50.175 8.33243 -0.183024)
(55.0273 5.24105 -0.0925936)
(61.1556 -1.63763 -1.03486)
(65.6438 -4.40463 0.501161)
(62.1356 -1.39091 1.57968)
(54.3205 -1.00827 1.00732)
(55.3542 0.879318 0.656765)
(55.6181 1.90401 0.301107)
(56.8489 5.03829 0.49526)
(57.4843 5.61947 -0.398383)
(-6.5728 -87.4231 143.509)
(-181.283 -28.9188 -22.3408)
(37.6179 -1.41512 -6.81668)
(-66.1353 11.3138 -2.07686)
(40.1321 9.05188 -1.76384)
(-6.84389 13.2161 2.84589)
(40.9113 15.9267 3.5774)
(52.1876 11.2671 0.85318)
(53.0531 8.40955 0.504904)
(52.4922 4.58097 -0.17413)
(56.7889 2.69882 1.17499)
(61.8034 -1.72591 0.746464)
(62.2543 -6.09234 0.784572)
(60.0137 -4.39267 -0.0508455)
(56.1179 -1.08561 -0.169802)
(50.0288 1.66965 0.0242134)
(52.0604 0.528511 0.328187)
(51.9207 1.29589 0.0938861)
(53.6312 3.70638 0.120819)
(55.8426 4.77452 -0.507614)
(84.7751 -58.2308 -18.6059)
(-40.9163 -26.9664 -17.5988)
(124.556 14.7229 -23.774)
(-21.3112 16.6267 -8.85779)
(77.6491 14.0549 -0.184624)
(2.05031 -21.914 -0.0540642)
(45.5005 6.42239 3.72052)
(23.432 3.20279 4.07997)
(37.4586 2.70425 2.96858)
(34.1422 -1.90503 2.30656)
(40.5228 -2.4272 1.45519)
(39.5645 -4.11062 1.0196)
(43.59 -4.20392 0.323522)
(43.5348 -4.40223 -0.0827068)
(41.5156 -0.341697 -0.396545)
(44.4919 -0.0101755 -0.173651)
(44.5232 -0.120374 -0.210191)
(45.3091 0.487603 -0.417349)
(45.2401 2.02824 -0.572231)
(47.7636 3.06288 -0.784289)
(200.997 186.234 -11.0351)
(-115.185 4.15854 12.7276)
(104.955 16.4997 -1.12923)
(-0.996347 27.065 -2.83983)
(82.1664 10.8595 1.3972)
(8.96535 -3.48109 -4.17898)
(39.733 19.3048 -0.0163393)
(16.1429 -15.135 -0.899642)
(33.7307 0.607898 1.44319)
(28.5271 -12.1636 1.18635)
(37.7002 -3.49569 0.912609)
(35.1702 -8.23638 0.626972)
(38.8331 -3.23896 0.571624)
(36.9709 -4.99712 0.291468)
(38.8932 -1.79557 0.571273)
(38.8458 -1.49539 0.316254)
(39.9946 0.497449 0.115106)
(40.0442 0.900173 -0.284791)
(40.1291 2.01584 -0.358684)
(42.0651 2.48459 -0.781793)
(181.303 31.1605 -125.738)
(-96.3141 -27.2937 8.5853)
(111.018 -17.4724 2.93404)
(3.99712 6.09549 -0.270077)
(80.6991 17.0255 1.70996)
(20.2711 1.48057 -5.00413)
(59.6456 8.82578 0.707667)
(36.598 -8.72227 -1.10452)
(48.3001 -6.20754 3.02467)
(38.332 -12.1441 1.79621)
(40.7257 -6.91807 1.48684)
(34.566 -7.98763 0.668927)
(35.6037 -4.69955 0.553355)
(32.9398 -4.86526 0.27878)
(34.3868 -2.36218 0.0834362)
(34.1466 -1.64428 -0.00689124)
(35.2426 -0.487082 0.083036)
(36.3192 0.0678445 -0.208184)
(36.2975 0.887905 -0.3043)
(38.3309 1.55753 -0.622126)
(219.417 -2.68101 163.129)
(-38.2913 17.8319 -30.4385)
(106.961 13.5523 -21.9888)
(-10.919 17.5981 4.48818)
(84.1134 16.799 3.34905)
(33.1741 2.30307 -1.16068)
(76.5476 2.96291 3.3748)
(52.2462 -9.26368 1.60058)
(65.9929 -1.45467 4.55988)
(48.4607 -6.18609 3.02982)
(51.8015 -0.792698 3.03956)
(41.9851 -4.142 1.08944)
(43.1237 -2.20998 1.21911)
(38.0473 -4.16952 0.556012)
(38.952 -2.87408 0.597024)
(37.0163 -2.7206 0.322367)
(37.966 -1.1569 0.147985)
(37.7741 -0.46917 -0.145059)
(37.403 0.489388 -0.286198)
(38.6012 1.22367 -0.687051)
(222.34 -257.687 -112.525)
(-166.362 -26.559 1.11651)
(87.7907 -38.1367 -17.7657)
(-17.9274 -14.5539 -0.995847)
(84.5387 -15.1525 6.57565)
(42.4137 -10.6392 2.38498)
(75.5487 -6.10986 8.34079)
(46.9185 -7.09843 4.41229)
(58.4513 -1.04973 5.38093)
(43.6479 -2.15763 1.59303)
(49.7976 0.599342 1.13235)
(42.1114 -1.14986 -0.0399206)
(44.8652 -0.356092 0.489149)
(40.2684 -1.21715 0.066818)
(40.6846 -0.88655 0.454586)
(38.2061 -0.864832 0.224793)
(38.3151 -0.411663 -0.05416)
(37.7463 -0.0603659 -0.342406)
(36.9855 0.278279 -0.380132)
(37.735 0.880865 -0.726101)
(45.5162 -153.902 78.9741)
(-74.7973 -11.4214 0.597022)
(94.4982 -63.2079 6.88772)
(14.9981 -19.3671 10.9135)
(93.6134 -14.7753 18.8378)
(33.6084 -5.68492 8.24131)
(64.813 3.25705 8.76411)
(31.7797 1.42446 2.43156)
(52.6209 4.12818 2.28356)
(39.5542 -0.172143 -0.326717)
(50.6215 1.66528 -0.0938613)
(44.205 -0.266241 -0.654195)
(48.7224 0.584738 -0.311449)
(44.9684 -0.331492 -0.5159)
(46.5518 0.235797 -0.308339)
(44.3134 0.0683317 -0.564357)
(44.5153 0.397809 -0.490943)
(43.7971 0.548537 -0.640658)
(42.9573 0.786216 -0.449671)
(42.9848 1.52997 -0.885332)
(176.531 -48.125 89.7707)
(34.8767 -113.149 20.2765)
(127.458 -103.997 13.8652)
(38.0359 -53.2008 1.97278)
(97.1255 -35.3532 15.5036)
(42.4213 -1.24799 5.80338)
(65.9605 -0.0684519 6.64711)
(35.9659 -1.0801 0.513241)
(55.7342 -6.08261 2.66736)
(45.587 -2.7309 0.80758)
(56.1426 -1.28421 0.364964)
(50.4314 0.527442 -0.515807)
(55.3108 0.962129 -0.723568)
(52.8841 1.66199 -1.24231)
(55.3857 1.64857 -1.47381)
(54.4854 1.80956 -1.85095)
(55.352 1.5778 -1.88125)
(55.2422 1.68804 -1.99766)
(54.8902 1.71422 -1.76482)
(53.5081 1.91102 -1.85215)
(217.756 24.0715 -119.976)
(167.51 58.0617 -38.1052)
(195.542 10.202 -37.4274)
(107.397 3.1989 -30.8742)
(130.821 13.2129 -18.8448)
(105.559 25.9296 -9.67478)
(133.363 21.9275 2.77486)
(125.913 12.134 9.89608)
(125.125 -3.07735 17.93)
(103.686 -2.13223 13.4826)
(100.348 1.41906 8.79913)
(89.1896 3.68339 6.56915)
(89.8429 3.86977 5.88609)
(86.0708 4.00247 5.39678)
(86.7961 4.00629 4.7439)
(85.8403 4.10012 4.0324)
(86.8397 4.19016 3.3786)
(88.6656 4.30937 2.61991)
(90.3806 4.45004 1.61013)
(91.9493 3.8184 1.38506)
(415.833 -103.523 124.051)
(-79.3705 -15.3076 -28.8832)
(149.795 -36.6373 -38.8848)
(-8.97147 -10.401 -17.2942)
(98.341 -1.35278 -1.26733)
(22.9408 5.95002 -2.59274)
(76.667 1.80232 7.0951)
(39.6874 1.30835 -2.40903)
(64.9146 -3.09379 0.0594827)
(47.21 -2.07711 -1.95737)
(60.7085 -3.63529 0.0899507)
(54.8241 -2.97303 -0.331607)
(62.4664 -3.49909 0.693234)
(61.6904 -3.46197 0.342635)
(67.2093 -3.68283 0.746439)
(68.4317 -3.85471 0.451436)
(72.8002 -5.13851 0.640885)
(77.5222 -4.3984 0.853829)
(80.7893 -5.3374 0.730255)
(87.2492 -4.78886 0.473345)
(29.2467 129.416 38.12)
(-57.2945 34.2629 16.4059)
(127.287 32.1813 -13.2593)
(-8.04516 -1.10925 8.3389)
(94.6135 0.239869 7.01538)
(26.3001 5.88847 4.17049)
(75.8976 0.029364 5.56488)
(43.2109 2.68694 -0.0803021)
(64.4411 -3.90217 1.41772)
(48.1556 -2.00809 -0.755574)
(58.4484 -4.89213 0.790164)
(51.6155 -3.74607 0.0810613)
(56.9879 -4.62051 0.964945)
(54.7256 -3.80879 0.766362)
(57.712 -4.03557 1.22498)
(57.4169 -3.65555 1.44223)
(59.2278 -4.67251 1.58933)
(60.2445 -4.67509 1.51069)
(62.4656 -5.80402 1.09619)
(63.6532 -3.83642 0.178903)
(281.523 -174.086 42.6974)
(-146.638 -0.826016 7.34872)
(124.811 -30.2627 -26.1311)
(-17.8463 -7.13922 8.13371)
(95.871 -19.0153 8.95542)
(35.1043 6.74706 5.77271)
(80.8482 -2.96366 6.07866)
(51.467 5.4307 1.42377)
(68.6756 -2.90725 2.48078)
(53.3318 0.523549 0.582155)
(60.662 -3.99316 1.46958)
(53.4443 -2.20308 0.288402)
(57.1355 -3.84148 0.743522)
(53.8261 -2.75327 0.257547)
(55.369 -3.34544 0.543212)
(53.336 -2.6977 0.530152)
(53.5783 -3.77136 0.921627)
(52.3331 -3.90313 0.880921)
(52.6441 -5.17276 0.797656)
(51.1666 -3.40612 -0.760359)
(266.558 33.8347 -96.8025)
(209.179 52.6583 -55.3659)
(209.437 -2.84443 -40.9035)
(114.893 6.87138 -17.3201)
(126.2 -2.29525 -3.93937)
(72.1191 14.6207 -0.299097)
(90.0533 6.23516 4.2159)
(63.5395 12.3275 1.59958)
(72.4391 4.06633 2.74728)
(57.507 5.50639 0.759166)
(60.5562 0.0355705 1.22646)
(53.167 0.206246 -0.0228823)
(54.8311 -2.32897 -0.00748278)
(51.6234 -1.7687 -0.460642)
(52.7245 -2.11393 -0.0987426)
(50.6901 -1.25184 0.124856)
(50.4381 -1.55584 0.628682)
(48.1829 -1.43051 0.830315)
(47.9587 -1.95947 1.05541)
(45.7806 -1.18511 -0.571736)
(273.152 -173.68 18.5576)
(-13.6868 -11.0533 -21.8961)
(150.502 34.982 -33.2906)
(52.1222 24.591 -8.86937)
(112.366 24.117 -2.73981)
(57.3868 23.3871 -3.61315)
(83.2386 13.5271 1.01831)
(59.1955 18.7901 -0.930408)
(69.6558 9.47118 1.05469)
(57.0153 11.0924 -0.298725)
(60.6133 3.84172 0.685367)
(54.2761 3.13695 -0.217668)
(56.5184 -1.29253 0.0900567)
(54.0889 -1.42464 -0.432322)
(55.1166 -2.36487 -0.192149)
(52.7774 -0.757431 0.0389806)
(51.6484 0.0459529 0.710107)
(47.4623 0.44985 0.761674)
(46.2019 0.295071 1.27907)
(43.7915 0.591071 -0.0902082)
(333.333 -175.025 75.7453)
(127.36 -20.9521 -44.0926)
(149.379 -17.6356 -10.5655)
(46.991 8.65577 -0.634126)
(106.843 13.1093 4.17522)
(51.737 23.9463 0.342012)
(81.7455 14.0799 1.61511)
(59.5606 19.7949 -0.799898)
(66.914 11.4825 0.0781595)
(57.4445 12.3631 -0.863252)
(60.1755 5.53614 0.0434037)
(55.9773 3.39317 -0.152391)
(57.6583 -1.20998 0.516653)
(56.3308 -1.17321 0.630051)
(57.3817 -0.954647 0.662197)
(55.2042 1.18514 -0.130628)
(53.5565 4.54778 0.117729)
(49.5939 5.08976 0.381604)
(48.1143 4.99156 1.48004)
(45.646 3.37685 0.200009)
(422.713 22.3154 -101.157)
(139.054 20.0969 -9.17598)
(157.902 51.6423 -13.5584)
(45.0202 28.9147 0.960733)
(106.521 32.865 -0.164697)
(40.6469 32.7913 -2.68718)
(65.5271 12.391 -0.990414)
(46.012 28.774 -2.33682)
(55.3677 11.9877 -1.05229)
(47.9704 15.1893 -1.26354)
(51.4451 5.315 0.442321)
(48.9633 4.63383 1.82136)
(52.0054 0.348477 2.45523)
(51.2708 0.857986 1.6806)
(51.4086 0.722049 0.368058)
(49.8228 2.78262 -0.768242)
(49.913 5.13201 -1.37558)
(48.3051 6.44253 -1.06705)
(48.4821 7.42086 -0.481887)
(46.9686 5.62205 -0.984238)
(210.252 109.583 -22.3707)
(-31.6117 83.9169 -63.4111)
(137.291 57.1385 -23.6904)
(-0.815888 26.1812 -9.35791)
(98.8772 30.8018 -1.71102)
(28.1992 48.7569 -3.21716)
(57.1206 14.6525 -2.61853)
(41.7821 20.459 -3.0361)
(47.1884 10.5598 -1.99437)
(43.914 11.0022 -1.07365)
(46.3426 5.12199 0.878401)
(44.782 3.17251 2.52926)
(46.881 0.429302 2.09478)
(45.7371 0.578997 0.55753)
(41.482 1.89443 -0.689712)
(42.4689 1.52508 -1.34238)
(42.3274 4.01185 -1.70025)
(42.7216 4.07568 -1.64846)
(43.2436 5.77424 -0.761817)
(44.0683 5.00548 -0.746932)
(272.451 -127.705 111.037)
(37.1872 -22.392 -55.4243)
(112.223 31.6993 -31.6793)
(-19.4715 38.072 -13.6545)
(64.0936 30.2602 -7.88459)
(14.0956 38.7051 -3.25572)
(41.5192 22.4468 -1.47542)
(37.1195 17.5602 -2.33334)
(40.29 12.1066 -1.51302)
(38.8827 9.34287 -0.499706)
(40.0002 6.53879 1.39496)
(39.242 4.27837 2.60145)
(41.4643 1.63358 1.55664)
(42.4217 -0.443044 -0.127466)
(41.3507 0.942571 -0.449804)
(38.1189 0.0979471 -0.444117)
(40.4566 2.47173 -0.643603)
(39.192 2.3745 -0.825208)
(39.944 4.67238 -0.385865)
(40.4289 4.69583 -0.738127)
(364.6 -172.032 274.753)
(-193.417 18.9686 31.2896)
(55.8635 35.6221 -0.0896861)
(-63.6835 38.7261 0.843702)
(43.8861 30.2044 -6.38792)
(-9.49886 31.3815 -3.05267)
(18.8874 28.4157 -1.61185)
(26.4818 18.9352 -1.14817)
(29.6696 13.4756 -0.153704)
(31.4397 10.9314 0.230669)
(33.2138 8.87513 -0.0145529)
(35.979 6.28358 -0.392903)
(39.0926 3.16762 -0.617938)
(41.1892 0.431702 -0.206465)
(42.4218 0.22399 0.291889)
(40.6337 0.998093 0.286636)
(41.7017 1.86655 0.210356)
(41.0293 2.88535 -0.0329104)
(41.2302 4.29838 -0.0110465)
(41.6368 4.37528 -0.699659)
(144.309 -144.192 -112.067)
(-178.451 45.1894 19.8402)
(42.5087 25.8533 -4.67134)
(-84.1181 32.1625 7.84421)
(32.9441 21.7389 -2.52967)
(-20.0854 20.7818 1.9911)
(9.56146 17.9275 -0.00583663)
(23.2812 13.1171 -0.779936)
(29.8076 9.5295 -0.201647)
(35.0865 8.57781 -0.296438)
(41.6705 7.05107 1.3435)
(46.8133 3.25995 -0.912627)
(49.7424 -1.08014 -1.01795)
(50.9394 -1.33903 0.685942)
(47.785 -0.112191 1.75866)
(42.6959 -0.0413287 1.11008)
(44.1692 1.8486 0.689339)
(44.2567 2.38204 0.254755)
(44.9888 4.42926 0.303441)
(45.3632 4.3183 -0.731264)
(215.966 155.72 -248.611)
(-231.549 -12.412 11.1415)
(35.7594 3.75517 -12.0138)
(-78.1364 12.6788 1.08801)
(23.2334 6.80673 -3.34314)
(-22.4642 3.69415 4.89464)
(22.3833 4.94229 5.47613)
(32.9915 5.89152 2.28736)
(35.9144 6.01106 1.14035)
(38.2318 3.73029 0.380161)
(42.4987 1.44689 0.981792)
(45.7343 -1.72166 0.700066)
(47.0829 -3.0711 0.433872)
(47.1765 -1.1793 -0.209658)
(44.3861 -0.296495 0.318807)
(38.8014 2.16398 0.468262)
(41.3533 1.37987 0.307653)
(41.4235 2.29086 -0.0422223)
(42.8626 4.13141 -0.0758741)
(44.1782 4.18332 -0.798484)
(263.425 -107.499 183.483)
(47.2421 2.7407 -16.8802)
(115.546 14.4806 -8.88429)
(-39.5566 13.6643 -5.24261)
(60.4269 8.88617 -1.02593)
(-19.5872 -27.8644 0.687683)
(25.7667 5.76993 3.84814)
(6.38812 -0.359873 3.65843)
(22.6378 0.970505 2.96156)
(21.5935 -2.73377 2.34832)
(29.6917 -2.43816 1.4851)
(29.8903 -3.65497 1.12621)
(34.3617 -3.05865 0.343239)
(34.3035 -2.95242 0.0533137)
(31.7896 0.602416 -0.078791)
(34.7472 0.66985 -0.0152181)
(34.9665 0.467953 -0.166947)
(36.0602 1.00821 -0.457866)
(36.1978 2.42387 -0.71673)
(38.2028 2.82098 -0.872639)
(-50.2653 54.4244 -159.931)
(-85.5586 31.0936 14.0695)
(74.9188 16.189 -9.64218)
(-33.4077 15.0479 1.14892)
(59.4697 0.781161 1.16493)
(-18.7873 -11.0607 -2.17981)
(23.5862 16.7655 0.00134803)
(-0.317502 -19.4861 -0.0921829)
(19.9185 0.343582 0.78207)
(14.281 -13.0858 1.18133)
(24.9094 -2.82156 0.822604)
(22.8611 -8.01676 0.67807)