/*--------------------------------*- C++ -*----------------------------------*\
  =========                 |
  \\      /  F ield         | OpenFOAM: The Open Source CFD Toolbox
   \\    /   O peration     | Website:  https://openfoam.org
    \\  /    A nd           | Version:  10
     \\/     M anipulation  |
\*---------------------------------------------------------------------------*/
FoamFile
{
    format      ascii;
    class       volScalarField;
    location    "6.4";
    object      k_0;
}
// * * * * * * * * * * * * * * * * * * * * * * * * * * * * * * * * * * * * * //

dimensions      [0 2 -2 0 0 0 0];

internalField   nonuniform List<scalar> 
12920
(
270.145
777.767
596.647
405.452
320.304
284.08
249.872
239.57
221.106
215.278
203.933
199.102
193.79
185.685
174.006
148.382
116.846
92.1459
83.1254
65.3002
1570.47
1374.02
833.448
615.073
484.626
405.272
326.863
312.69
298.257
296.467
284.657
274.078
247.649
223.528
189.48
152.542
118.573
95.2453
80.7426
75.2451
58.3705
676.958
787.352
784.97
649.672
466.539
338.643
288.269
228.461
201.448
171.995
157.453
139.345
128.068
114.822
100.865
87.4178
78.9038
74.6906
73.9565
4178.87
2213.98
1489.35
1017.86
728.064
453.9
320.982
242.134
198.208
164.739
141.271
127.41
112.173
100.651
88.9454
80.8047
74.7098
70.9393
68.9613
67.5099
4118.54
2722.31
1880.63
1280.74
863.89
612.479
477.987
372.959
295.74
208.985
157.399
126.843
109.285
98.7014
89.2014
82.3318
77.2574
74.0824
71.9289
70.4698
9782.33
3340.95
2227.8
1739.88
1189.99
916.74
663.442
569.037
491.801
414.909
322.143
213.336
141.795
108.341
95.788
88.7741
85.6166
84.0945
83.6441
82.0435
845.613
1904.47
1824.33
1486.98
965.489
740.077
532.531
470.015
421.224
394.981
348.729
265.737
181.676
128.011
107.924
99.1719
95.5776
95.101
95.7409
95.4901
1428.22
2134.34
1759.4
1287.55
911.411
727.679
387.614
284.317
259.834
242.314
215.77
164.446
123.148
86.3875
114.907
108.136
100.079
94.3136
93.4081
92.8351
1215.48
2153.26
1484.44
1317.77
1183.32
675.742
363.406
195.91
178.447
182.543
184.401
139.602
73.6474
47.015
71.3946
128.058
111.498
97.003
90.4231
84.043
3399.84
3860.73
2367.42
1444.56
1082.67
682.885
343.181
168.639
153.063
170.028
201.326
207.524
141.174
89.1953
75.2653
132.908
112.153
95.4871
84.7684
76.6501
7222.8
2338.32
1654.12
921.788
675.37
438.159
248.538
104.288
99.5043
149.444
161.773
158.568
161.845
116.204
76.7759
121.713
107.826
96.5961
86.7664
76.6679
2123.61
1557.81
1224.81
762.863
445.961
204.456
116.22
67.0014
86.1969
138.219
144.993
118.892
95.224
70.567
85.1598
145.096
127.144
105.77
87.7063
75.4495
3439.77
3261.04
1639.77
1150.51
702.59
570.518
259.229
176.728
164.007
137.77
137.678
134.975
119.068
105.554
172.073
149.581
123.747
97.6044
80.4374
73.2254
7559.64
3105.88
1564.55
1234.21
873.763
672.526
454.805
345.177
253.794
191.071
174.77
166.165
163.081
154.907
142.186
123.638
102.155
87.6903
80.6421
79.2565
1394.3
2453.48
1268.68
981.525
709.403
517.803
407.186
331.305
248.801
197.084
163.359
143.754
131.562
119.846
109.944
101.502
95.1192
91.8984
91.9619
96.2969
2318
1620.38
1392.99
961.462
695.368
503.349
385.103
323.546
251.371
209.804
169.674
148.642
131.575
121.016
111.996
107.402
105.744
107.115
111.484
118.014
4373.57
1830.58
964.704
631.423
622.533
380.374
325.014
263.262
228.767
198.969
173.149
158.757
144.233
137.818
132.364
131.043
131.176
132.397
135.133
140.366
1845.97
2725.76
1741.36
849.33
569.454
388.628
302.231
270.168
233.383
217.407
197.262
191.245
183.945
182.201
180.047
180.693
181.621
182.698
183.653
182.072
1433.05
2250.01
1757.68
734.391
407.327
299.723
249.736
233.362
213.818
207.604
196.471
194.469
190.93
191.063
189.746
190.346
189.457
185.464
179.207
163.04
2363.62
1423.74
1173.86
848.358
582.402
396.412
261.15
187.012
160.96
156.598
150.02
137.739
126.389
117.909
111.914
105.084
98.7727
88.8891
83.9801
73.8388
526.71
835.711
899.937
870.264
663.231
562.422
492.974
473.546
446.703
443.925
439.501
442.111
437.658
420.567
364.298
276.825
227.091
188.175
171.193
137.433
1908.11
2782.28
1840.98
1653.12
1061.47
952.719
802.814
794.796
741.845
733.894
683.957
657.486
592.028
543.339
476.824
415.736
354.013
300.557
260.327
250.622
78.8958
676.309
1257.56
1902.34
1520.74
1139.18
828.234
726.311
592.817
537.935
462.987
430.192
385.039
358.349
325.6
294.053
264.145
245.127
234.748
229.875
11829.8
2858.26
1868.37
2093.66
1767.46
1161.32
799.77
631.212
516.884
434.825
373.785
339.977
302.228
278.614
251.921
234.609
219.672
210.961
206.26
202.529
15062.8
6972.12
4076.12
2825.9
1946.4
1463.59
1125.74
922.616
732.6
555.597
402.821
342.144
293.335
275.61
252.728
238.893
226.809
220.358
215.197
212.482
15444.5
7802.34
5114.8
3613.71
2441.03
2012.89
1507
1413.03
1229.19
1074.09
736.613
452.573
325.682
293.437
272.865
258.385
249.571
245.519
245.116
245.021
1841.49
5030.88
4370.65
3149.5
2145.39
1786.74
1342.8
1255.54
1089.51
1039.36
881.964
632.273
421.675
323.316
300.325
284.993
276.776
276.389
280.848
286.934
10895.9
7215.85
4628.77
3101.38
2165.17
1744.96
1349.47
1154.19
1018.49
932.091
796.265
598.378
405.497
295.501
302.382
287.484
271.757
268.574
273.064
279.84
4119.42
6886.97
4972.68
4047.21
2805.28
2151.77
1566.1
1263.2
1052.82
994.27
903.115
654.753
391.765
273.246
275.543
289.936
267.208
253.554
250.1
245.899
11846.3
9485.26
5671.08
3362.06
2291
2088.32
1627.94
1174.76
934.177
921.837
907.712
801.469
599.036
348.15
289.045
283.437
261.152
245.13
235.327
229.991
12725.7
6754.38
4414.57
2072
1230.72
1131.46
898.216
726.574
712.665
761.129
680.985
605.42
579.274
379.732
268.604
275.44
267.263
252.93
237.986
230.387
3718.89
5606.49
3423.6
1752.06
892.732
690.51
564.971
571.433
654.207
657.973
606.474
482.047
373.07
287.895
296.928
335.071
306.433
264.077
235.014
224.063
6400.83
10187.7
4290.26
2630.24
1576.58
1389.09
908.626
796.804
642.434
541.995
486.665
440.673
403.487
382.393
400.249
357.006
300.376
249.599
226.161
220.436
16314.9
6683.41
3815.13
2907.81
1937.46
1639
1083.75
880.597
637.477
506.065
457.775
436.855
415.318
392.71
354.498
319.047
276.404
253.633
242.892
242.822
5785.09
7096.12
3398.84
2335.66
1704.59
1274.88
1003.96
827.841
623.966
517.118
429.741
385.434
351.588
325.907
304.022
289.451
278.753
277.064
280.475
290.46
8637.99
5604.07
3854.89
2489.7
1749.04
1274.05
960.924
811.131
628.845
543.832
448.273
406.107
362.81
342.648
323.821
319.237
318.551
323.432
332.324
343.823
6804.77
5171.38
2860.6
1796.45
1514.02
884.503
864.114
669.087
599.061
526.815
473.48
443.916
414.153
402.772
392.872
391.32
391.414
394.392
401.611
414.158
4147.95
6414.04
4101.22
2088.23
1428.25
986.282
776.467
698.084
614.323
580.793
541.326
530.914
516.011
513.397
508.895
510.309
513.415
519.09
529.412
532.872
3429.97
5477.03
4132.93
2048.24
1129.48
864.386
645.874
620.904
559.251
552.198
528.965
529.323
526.676
533.286
536.919
546.118
551.723
552.319
546.649
516.338
1995.25
2608.27
2418.91
1623.65
1040.65
670.017
414.137
314.432
287.225
291.325
289.497
279.118
257.302
245.059
233.98
226.39
222.278
214.226
208.664
195.08
660.466
1190.44
1339
1256.83
1038.69
873.458
727.387
641.822
575.758
535.796
512.838
493.03
461.221
403.464
334.983
269.709
227.226
189.186
170.409
141.318
3529.1
5513.28
3259.34
2187.2
1684.28
1364.79
1117.07
1073.93
948.984
931.098
838.338
792.534
699.767
639.731
563.853
509.011
460.356
423.602
396.092
385.705
2002.85
2480.05
3096.85
2864.09
2003.18
1406.86
1079.52
918.979
775.661
698.063
606.938
561.624
506.011
474.962
435.781
407.131
379.8
362.475
350.461
343.379
12563.8
4020.53
3352.29
3155.76
2286.97
1441.77
1055.56
816.917
688.719
574.039
504.599
453.558
409.568
380.84
352.963
335.896
321.125
312.931
307.989
306.231
29613.3
10659.8
5277.74
3517.56
2434.12
1735.35
1380.58
1062.92
871.311
669.035
541.525
468.096
413.693
383.111
354.95
338.619
325.587
319.083
314.338
314.218
22959.3
11946.7
6317.51
4174.73
2871.07
2260.61
1758.91
1564.97
1299.24
1058.02
775.207
582.165
474.612
418.847
384.888
364.338
353.77
349.058
347.864
347.721
8845.46
7502.24
5659.28
3705.44
2680.39
2148.24
1713.74
1533.9
1304.91
1156.06
910.152
698.249
545.101
463.521
425.527
401.815
390.96
390.369
392.654
393.657
8617.93
7521.98
5923.13
3775.1
2728.15
2139.97
1834.6
1575.11
1317.05
1144.02
923.213
681.493
519.923
433.65
414.019
395.618
385.944
386.631
389.92
389.628
5312.58
8053.35
6236.48
4394.33
2967.78
2427
2062.3
1631.93
1368.21
1238.83
1000.15
722.943
503.227
412.469
389.772
379.037
362.484
356.477
353.658
348.422
24724.6
11187.9
6948.38
3741.43
2530.1
2234.45
1948.87
1489.15
1278.23
1185.44
1045.94
840.315
610.001
432.418
392.52
365.443
347.271
337.307
330.74
327.86
16814
10008.2
5592.36
2732.08
1856.52
1546.08
1314.29
1144.12
1069.3
1006.22
567.351
515.809
545.179
416.238
362.237
371.505
357.622
341.369
330.02
327.921
13128.2
11516.6
5166.47
2401.65
1629.43
1299.21
1208
1066.1
966.703
852.337
722.617
546.257
430.084
402.871
425.787
425.386
384.548
347.524
329.326
327.09
31254.8
16363.7
6196.95
3292.26
2222.77
1829.08
1413.94
1159.92
884.692
757.421
662.346
605.141
558.858
529.739
493.749
435.399
382.525
347.779
334.063
333.8
16677.3
9194.28
5119.97
3458.84
2514.58
1972.72
1407.73
1095.2
835.58
683.688
625.424
580.752
539.128
498.833
449.352
412.331
380.396
366.94
361.899
366.011
28601.2
10731.2
4647.76
2985.92
2229.85
1605.53
1327.46
1028.84
808.107
665.784
578.088
518.396
478.193
447.716
423.788
410.514
403.016
404.494
409.567
420.985
11365.4
7849.91
5341.51
3217.77
2293.48
1573.92
1272.93
1005.34
817.018
696.069
600.004
547.334
502.103
481.151
464.197
462.08
462.726
467.797
475.839
485.927
13496
6266.44
4011.5
2448.95
1820.85
1213.29
1163.92
886.655
806.433
706.328
652.462
616.578
587.453
574.998
564.906
562.48
561.683
564.215
569.904
577.095
2513.1
6268.78
5349.16
2893.55
1848.27
1268.59
1067.51
922.118
832.821
783.725
747.022
735.748
722.707
721.9
717.495
717.64
715.712
714.133
712.988
703.901
4715.3
6427.18
5076.16
2591.72
1471.39
1112.59
846.327
801.084
714.428
715.3
696.204
711.734
715.957
740.272
747.934
764.461
765.878
762.981
749.914
711.516
5109.12
3993.87
3277.89
2060.75
1345.16
872.486
576.434
456.62
417.397
401.392
367.628
330.954
300.571
278.552
265.413
255.425
250.986
242.228
236.917
223.035
4569.08
2635.89
2006.66
1524.46
1277.31
1066.24
886.401
747.213
644.935
562.164
504.96
434.295
373.755
313.037
268.451
224.316
192.687
164.338
151.767
133.336
23713.9
11294.1
4595.93
2705.87
2264.67
1655.17
1402.94
1264.07
1106.33
1033.6
919.39
837.336
748.87
687.848
632.394
594.869
563.583
539.704
520.276
512.976
10140.6
6037.47
5271.46
3307.03
2477.46
1593.87
1320.29
1051.13
928.86
794.946
711.403
638.239
591.145
554.443
525.488
501.586
483.435
469.843
461.1
457.852
13177
6524.95
5361.88
3701.28
2646.59
1610.42
1274.08
949.505
831.97
672.202
610.831
536.065
499.829
465.208
445.175
428.947
419.659
414.07
412.458
414.364
24200.4
15213.4
7089.44
3980.98
2851.62
1869.09
1574.07
1127.23
969.76
735.551
648.728
553.99
511.574
471.383
449.837
432.511
423.753
418.426
416.598
418.934
18840.2
11603.9
7215.92
4309.99
3231.13
2315.3
1943.77
1550.27
1275.12
964.544
778.572
634.23
566.866
510.461
483
462.032
454.523
449.34
448.329
449.132
9078.18
9619.64
6932.09
4157.86
3158.48
2328.93
1955.04
1608.82
1341.5
1092.97
873.627
709.483
617.869
557.692
527.709
507.147
500.291
497.026
495.94
492.21
12370.3
8882.25
6863.57
4117.66
3200.93
2376.63
2066.87
1753.3
1412.95
1153.13
913.279
703.035
599.952
534.379
511.76
499.913
497.519
497.461
496.038
489.161
9849.05
10790
7991.93
4628.88
3144.59
2557.44
2263.19
1778.62
1471.58
1247.5
947.686
713.944
572.188
510.358
480.308
466.092
459.495
456.799
452.872
447.431
16705.3
12455.9
8203.19
4201.03
2774.93
2327.79
2093.53
1657.62
1442.15
1241.87
991.03
761.616
592.027
509.333
472.06
444.719
433.996
429.23
427.255
428.085
17952.3
14051.8
6944.25
3434.69
2363.03
1879.99
1655.54
1442.52
1270.56
1091.13
684.885
513.219
498.287
470.922
451.448
452.088
438.467
428.56
425.966
430.104
12139.5
16979.9
8301.55
3310.64
2274.6
1807.33
1700.51
1384.93
1143.61
953.735
777.3
606.393
534.928
526.112
519.212
484.412
451.213
431.926
427.814
433.908
32939.5
16025.6
6909.84
3745.21
2823.28
2138.87
1733.38
1364.52
1042.94
900.23
795.502
734.023
673.988
625.302
546.461
492.662
460.07
444.004
441.083
447.509
15440.5
9435.4
6106.36
3846.05
3032.22
2152.92
1655.5
1221.71
986.269
802.282
751.366
669.061
625.996
569.296
526.222
496.822
480.004
475.32
475.698
484.548
28690.2
10746.3
5706.09
3574.68
2652.74
1863.02
1584.47
1150.08
950.982
767.43
693.84
615.13
581.965
547.903
530.356
521.271
520.16
523.058
529.849
540.963
9908.1
9229.34
6932.76
3924.83
2736.03
1804.88
1531.04
1133.68
976.997
808.898
731.599
662.594
628.322
605.198
595.792
593.082
594.55
597.507
603.713
610.173
8282.06
7734.66
5103.61
3124.68
2106.46
1515.62
1384.05
1045.49
979.16
846.012
809.532
759.56
741.442
722.831
716.816
710.128
709.468
708.471
710.072
709.3
7283.32
8446.59
6376.17
3472.12
2198.9
1480.07
1310.57
1080.79
1025.67
945.121
933.086
908.371
908.882
900.624
899.092
890.789
883.75
870.05
858.837
834.179
17466.7
8484.05
5833.19
2879.95
1699.58
1228.7
999.234
894.815
839.996
830.333
836.238
861.643
886.179
921.532
936.807
949.521
945.499
928.005
902.525
853.245
1183.71
3848.87
3706.85
2383.82
1554.36
1006.17
683.898
537.223
472.587
423.568
375.642
334.24
306.885
288.457
279.115
269.015
262.832
249.348
240.666
219.382
17881.8
4723.31
2362.82
1623.82
1387.01
1121.51
911.413
720.04
568.377
444.693
355.356
283.164
235.074
199.857
176.229
155.633
140.408
128.053
119.825
113.431
52322.7
17954.1
6291.61
3713.63
2997.16
1845.9
1801.85
1327.93
1283.48
1025.28
963.855
803.804
759.774
690.666
672.466
642.894
634.563
618.104
613.964
615.063
16467.3
8623.39
6858.62
3868.57
3166.57
1890.44
1653.08
1215.36
1104.01
893.255
821.648
716.06
680.938
634.987
619.502
596.92
590.122
580.224
578.616
579.442
27028
9694.82
6814.96
4306.84
3134.43
1911.93
1556.32
1162.94
1003.84
819.747
742.188
652.087
614.635
574.265
560.304
544.679
540.409
536.724
537.729
542.672
26969
19149.2
9313.33
4834.16
3497.09
2198.39
1833.84
1314.74
1119.61
871.963
788.253
675.368
637.14
586.984
570.649
552.353
546.821
541.513
541.084
544.786
19304.7
15007
8084.74
5032.26
3773.59
2582.01
2204.33
1613.54
1313.34
985.227
850.557
727.134
678.808
623.139
604.228
582.614
576.49
568.894
566.779
567.683
11948.1
11531.5
8300.25
4894.03
3831.5
2681.41
2266.45
1785.56
1408.65
1119.51
911.312
793.429
724.881
673.276
648.51
628.919
622.817
612.663
606.041
600.22
31415
12400
8054.16
4925.38
3888.99
2855.73
2252.41
1880.84
1469.29
1157.14
933.013
774.809
707.368
652.148
637.326
622.877
618.206
610.933
602.402
594.311
36125.6
17647.9
10235
5160.5
3587.07
2846.43
2445.61
1864.02
1516.46
1198.47
930.422
754.76
682.843
637.966
606.664
578.72
571.031
563.533
559.111
557.662
25720.8
13639.5
9339.31
5124.23
3198.31
2578.5
2225.01
1803.5
1531.13
1211.1
914.088
728.607
669.044
637.774
586.055
541.936
533.696
531.994
534.276
542.241
33043.8
16780.3
8551.68
4764.3
2907.06
2277.65
1934.94
1658.98
1400.11
1100.67
786.533
601.036
598.129
605.166
570.163
542.428
532.252
530.247
535.011
548.221
38329.2
22084.3
9248.11
4578.1
2991.85
2319.43
2021.07
1594.7
1280.6
1033.46
852.525
722.878
695.318
673.226
620.831
561.876
542.987
538.666
544.071
559.699
49380.5
18578.7
8504.02
4964.36
3647.27
2753.62
1994.58
1514.22
1211.93
1035.01
948.811
856.358
793.048
709.398
624.023
579.991
566.135
563.47
567.716
581.573
22135.5
11149.5
7328.46
4813.19
3783.45
2587.38
2120.18
1506.04
1231.63
988.171
923.179
793.058
749.401
669.949
638.503
612.957
608.494
606.922
610.762
622.977
13992.2
11868
6708.73
4694.07
3146.42
2507.99
1914.75
1422.02
1152.56
943.776
852.101
756.809
722.527
683.493
670.709
662.605
663.121
665.235
670.043
680.133
14894.5
11998.2
8549.84
4724.36
3313.92
2326.18
1875.1
1409.22
1198.16
997.013
906.367
822.281
790.104
761.73
754.987
745.911
745.872
744.072
745.297
748.611
18309.6
9931.92
6180.08
4353.26
2594.95
2231.43
1649.74
1364.63
1189.38
1058.7
994.752
938.322
914.88
888.773
879.688
865.683
861.751
853.129
847.332
840.07
11116.4
12290.8
8090.17
4299.48
2669.78
1942.61
1605.49
1334.97
1252.5
1142.75
1132.86
1085.22
1090.48
1063.33
1061.91
1036.59
1023.61
993.077
971.119
936.891
4998.64
8568.11
6981.26
3200.42
1890.28
1413.53
1191.6
1026.94
1025.01
952.48
1009.44
999.213
1056.09
1059.95
1083.16
1068.75
1052.85
1008.29
969.935
915.912
7912.97
5220.68
3383.55
1978.68
1198.61
753.905
583.994
485.829
425.082
365.151
323.394
294.326
280.477
269.068
259.969
246.036
232.5
212.849
200.368
176.839
1087.9
1048.95
679.78
1241.28
1073.74
1107.07
745.813
895.431
616.832
629.521
1013.27
837.315
676.181
626.475
645.518
883.768
772.115
1077.93
699.157
964.219
812.422
499.093
724.288
557.976
615.936
502.034
752.855
575.061
210.438
365.844
215.11
1166.95
1153.68
1398.59
1193.16
177.583
189.05
159.442
1088.37
946.21
1083.37
866.39
181.355
159.878
167.788
918.023
877.225
836.416
817.955
185.239
173.151
195.655
877.642
849.386
826.265
843.416
164.452
203.18
209.256
822.087
683.965
840.141
784.726
82.1023
206.419
144.364
597.987
395.64
742.154
556.756
48.9968
118.692
81.1578
337.212
243.304
494.099
336.668
33.6705
69.3248
30.9827
220.719
212.344
283.657
221.734
195.595
281.19
139.907
1346.41
1120.4
968.366
778.945
151.18
123.851
115.256
1012.77
824.291
725.872
651.37
163.484
117.823
143.608
800.413
796.292
653.616
693.971
194.039
153.671
174.737
807.667
824.326
706.17
700.667
209.024
176.538
179.725
821.92
779.177
686.038
650.482
163.237
181.788
177.091
747.387
606.6
645.167
612.152
105.313
166.757
133.868
558.177
391.911
588.761
459.924
34.2637
117.849
45.525
323.359
227.779
379.714
236.617
120.166
158.056
79.3353
690.062
610.12
387.699
376.73
93.6499
69.9999
75.3766
580.894
568.953
395.267
508.141
138.424
88.5027
134.469
589.491
656.987
540.252
599.071
162.226
145.003
152.33
670.419
651.753
606.097
591.307
157.824
150.656
130.809
632.101
582.584
573.626
490.004
163.832
123.7
111.845
574.485
561.046
459.578
389.44
132.503
107.143
93.0569
550.914
443.49
372.54
304.587
45.2629
80.7539
35.9737
368.703
233.624
267.206
219.618
71.3942
203.796
92.6562
379.138
397.949
628.483
604.07
75.6471
94.7705
114.647
426.979
520.575
618.718
591.328
128.39
110.821
103.827
542.919
580.947
559.554
510.591
146.299
104.79
107.238
582.974
567.629
501.147
463.51
127.294
106.903
103.898
552.936
476.916
453.517
417.018
100.448
98.9098
80.4097
445.323
365.683
401.026
346.745
81.8614
75.4037
59.4407
346.418
281.584
333.018
294.839
35.5656
54.6593
43.3603
256.233
226.841
290.335
289.07
1347.57
1717.62
1374.6
1979.55
1664.19
2010.15
1619
1093.01
1250.63
1008.87
1570.46
1375.29
1506.55
1294.07
996.897
973.354
942.285
1316.53
1226.26
1255.11
1189.16
942.009
945.423
940.91
1205.58
1064.26
1173.2
1092.57
742.819
928.436
844.246
999.243
803.3
1053.16
897.522
451.109
793.097
599.877
719.899
531.955
832.73
637.173
295.686
536.039
366.93
482.65
400.107
575.716
428.289
255.723
316.838
263.711
383.039
361.659
399.008
367.607
1291.09
1208.62
944.344
1897.79
1536.42
1461.9
1221.8
963.169
880.215
780.486
1435.57
1247.26
1168.06
1072.38
917.145
778.281
798.552
1214.46
1158.23
1056.42
1018.09
918.184
804.038
765.157
1143.47
1070.11
1003.7
783.739
840.245
741.678
692.857
1036.12
902.038
730.232
683.316
651.415
687.462
651.516
849.424
678.833
697.544
662.538
412.653
624.774
468.743
618.352
448.443
624.365
465.218
269.467
390.814
274.499
412.243
371.735
422.21
363.245
763.978
562.23
521.691
1213.59
1083.03
980.52
937.648
699.873
540.703
633.078
1053.87
1007.52
942.103
931.324
756.183
653.79
683.064
998.393
968.002
917.08
865.471
709.824
682.733
650.022
953.372
723.861
845.829
753.087
615.104
626.566
526.971
658.811
560.639
710.935
559.664
591.47
491.502
411.384
564.017
581.163
508.652
417.812
451.508
393.276
321.616
566.8
444.932
403.492
364.665
269.249
291.23
253.031
406.815
351.887
356.455
349.952
542.95
876.588
765.837
1041.3
956.99
1292.15
1132.39
643.343
758.08
692.192
959.567
927.961
1075.1
917.301
662.156
650.248
586.914
905.207
837.89
858.124
760.542
625.986
573.185
522.971
815.289
737.489
737.002
658.251
517.27
509.478
463.826
703.601
578.848
637.035
574.788
394.011
446.985
389.995
535.886
434.836
557.267
501.641
307.775
376.575
340.346
415.31
376.533
489.915
460.674
263.152
338.028
331.957
372.454
371.754
459.305
445.258
1726.37
2059.29
1660.74
2218.14
1847.35
2161.1
1761.84
1432.96
1556
1357.62
1752.67
1533.26
1673.11
1491.12
1267.86
1317.68
1238.17
1457.81
1314.46
1443.24
1311.57
1070.55
1214.5
1107.31
1257.66
1036.08
1262.42
1083.69
803.351
1059.92
888.794
963.131
779.915
1019.49
831.275
547.362
822.989
633.593
715.136
583.887
770.957
618.33
427.855
575.96
446.494
554.288
498.496
578.261
500.364
388.077
422.625
391.685
486.293
459.322
486.024
457.231
1582.97
1520.19
1289.19
2060.64
1700.22
1688.02
1481.43
1312.45
1240.49
1145.33
1620.03
1455.12
1433.91
1314.41
1207.57
1124.53
1069.21
1412.22
1288
1277.74
1166.2
1142.43
1157.77
1147.93
1214.76
1119.76
1178.91
1178.5
963.015
998.86
1008.65
1043.87
968.279
990.635
1009.76
668.545
675.363
643.965
782.157
633.125
627.138
581.85
461.182
605.691
467.365
591.004
504.799
556.616
486.919
394.742
434.169
382.121
488.974
457.634
471.401
436.974
1172.61
1134.6
1057.77
1573.59
1415.98
1517.75
1358.35
1085.72
1053.01
1006.67
1377.35
1266.75
1319.52
1180.62
1017.98
982.698
909.065
1230.29
1121.13
1132.94
1004.27
889.108
912.316
951.045
1025.35
883.461
801.212
983.841
471.34
513.87
610.719
389.151
541.718
341.802
550.074
556.624
504.605
415.266
489.519
501.818
528.381
457.268
444.712
405.594
383.057
497.476
462.433
454.26
458.563
369.925
379.35
377.418
452.399
428.011
461.295
461.797
1074.91
1437.96
1227.32
1584.84
1365.15
1747.71
1443.54
998.489
1156.02
974.223
1319.36
1159.71
1339.06
1105.02
879.807
910.276
804.87
1107.19
973.429
1034.74
912.145
760.97
778.811
693.302
933.622
810.505
880.156
782.452
589.923
669.796
604.986
764.634
625.385
756.068
690.17
447.749
587.895
533.802
586.916
513.775
674.439
624.11
403.346
522.257
494.169
504.043
494.864
612.687
583.608
401.418
492.421
472.952
494.991
485.329
578.457
545.084
1875.58
2191.41
1792.32
2387.93
1941.11
2288.45
1883.42
1550.23
1706.17
1521.52
1834.64
1582.71
1797.62
1589.32
1312.69
1469.39
1317.02
1498.51
1283.07
1522.1
1304.23
1018.16
1259.32
1062.43
1200.25
980.94
1224.41
996.049
772.793
995.766
810.408
921.046
772.017
930.3
769.392
597.774
753.93
618.088
731.624
660.222
729.09
653.101
521.914
584.448
520.43
645.062
607.473
637.93
605.767
482.459
507.883
478.298
597.713
571.16
596.664
565.706
1735.83
1748.12
1540.57
2188.71
1840.36
1913.59
1698.67
1489.64
1490.6
1358.27
1762.88
1570.9
1639.05
1467.39
1296.97
1315.84
1183.95
1507.36
1294.02
1406.52
1203.74
1054.83
1125.56
825.922
1216.12
990.769
1126.4
880.131
814.507
753.762
643.516
925.067
764.736
808.869
658.956
627.204
625.042
570.282
724.45
649.228
627.595
586.923
522.77
550.448
499.581
635.144
604.797
584.627
575.72
477.754
487.718
456.321
595.808
562.811
569.938
540.238
1486.63
1633.79
1439.5
1868.72
1666.57
1895.78
1636.69
1313.59
1389.9
1225.46
1607.09
1429.71
1560.68
1339.77
1140.11
1171.63
1026.84
1367.67
1167.69
1271.69
1082.06
770.335
982.15
823.225
1095.78
846.184
1024.68
857.726
532.357
762.799
591.475
769.208
606.028
801.872
660.976
501.768
549.029
486.783
576.138
553.067
631.398
600.433
477.554
484.573
490.679
557.622
563.697
602.32
605.9
449.081
492.911
487.454
561.227
537.472
603.558
578.662
1442.33
1844.01
1496.99
1952.27
1628.75
2076.57
1616.79
1201.13
1383.83
1139.4
1543.41
1309.25
1487.55
1235.51
997.214
1068.76
943.077
1241.79
1061.6
1171.13
1033.89
823.858
909.299
810.173
1008.52
869.72
994.217
901.374
641.822
783.519
719.234
825.945
711.554
878.385
816.452
542.587
703.632
653.79
686.098
650.87
798.19
750.781
527.069
641.871
611.774
647.844
637.173
738.533
700.416
510.554
604.86
565.247
631.209
597.886
685.612
630.871
1975.68
2325
1922.71
2934.2
2327.44
2726.96
2324.55
1603.04
1835.01
1615.43
2220.39
1908.17
2217.7
1951.22
1283.68
1543.09
1304.2
1827.14
1526.26
1862.68
1564.43
987.685
1218.85
986.329
1447.77
1241.56
1465.37
1211.97
789.442
922.356
772.491
1188.27
1061.88
1148.42
1015.7
695.752
738.849
684.261
1041.05
999.588
999.609
1005.59
647.709
674.088
647.986
991.616
960.242
1004.93
985.863
609.662
639.258
603.777
951.971
884.588
978.628
909.233
1882.89
1974.25
1751.75
2634.13
2291.4
2392.41
2176.63
1600.46
1688.54
1504.41
2194.48
1945.6
2094.75
1866.82
1295.35
1437.16
1211.21
1858.09
1560.49
1781.66
1489.04
978.815
1128.69
886.589
1458.87
1196.31
1386.63
1124.34
762.791
817.081
668.63
1130.27
990.494
1053.71
904.7
676.854
639.12
614.072
972.395
988.069
884.686
917.752
646.392
618.256
617.444
998.428
985.295
951.09
966.88
599.503
611.822
576.849
977.42
894.998
960.139
881.043
1723.27
1968.04
1696.43
2401.55
2155.52
2425.45
2142.96
1468.62
1613.81
1380.74
2070.03
1835.27
2034.09
1758.13
1178.16
1308.93
1104.87
1748.88
1463.55
1670.09
1422.42
859.856
1043.67
876.816
1366.76
1114.77
1347.6
1168.26
629.1
823.692
693.308
1042.88
888.944
1114.93
991.505
588.451
667.755
648.823
869.684
908.69
972.703
998.496
608.108
652.544
652.868
944.505
964.593
1012.38
1004.37
575.059
648.253
613.688
958.703
876.272
994.977
914.468
1686.98
2158.85
1664.25
2520.46
2135.19
2669.32
2100.34
1350.29
1530.31
1277.28
2014.1
1729.51
1925.62
1655.92
1089.57
1215.81
1074.12
1648.89
1419.69
1594.2
1440.45
894.48
1031.6
941.757
1351.58
1201.41
1372.56
1286.49
745.429
919.793
856.94
1158.5
1054
1262.23
1196.29
697.507
836.426
789.634
1035.96
1047.87
1157.61
1114.33
681.266
776.748
734.664
1046.47
1024.59
1095.08
1049.35
631.472
716.786
656.781
1012.27
927.689
1017.23
925.996
1100.21
1125.63
1047.27
1093.08
1085.03
1138.53
1055.12
1084.35
1100.9
956.837
1064.05
1062.94
1132.03
886.039
1018.69
959.977
794.617
571.196
1008.61
963.312
669.751
1154.22
1232.84
1188.91
1209.59
1188.54
1198.61
1157.27
1104.88
1087.48
1133.15
1042.38
1140.35
1052.71
1100.98
1097.68
1081.79
1168.23
988.114
1153.48
883.434
1106.24
1026.4
588.913
964.659
849.858
963.983
680.422
1032.45
915.102
947.892
881.526
880.439
925.822
935.545
867.052
879.086
920.605
578.709
527.701
886.161
918.542
507.175
842.007
826.556
590.841
591.2
855.102
809.423
534.186
948.77
1031.92
952.508
985.03
974.125
1000.77
929.122
897.408
860.124
893.831
824.179
916.566
846.989
875.807
867.347
543.078
906.443
636.114
912.501
518.287
855.231
827.066
589.197
773.152
632.554
790.477
537.955
812.505
756.751
758.071
693.654
461.901
785.591
580.348
644.633
899.314
916.399
853.427
915.643
874.568
949.692
880.082
833.859
758.876
815.53
787.349
819.097
764.287
836.113
914.626
1048.96
960.365
1036.46
820.147
1014.09
950.172
774.494
501.428
809.004
728.568
610.019
657.995
833.895
921.903
942.317
998.302
920.105
977.317
902.21
940.83
850.64
800.558
791.159
868.503
775.014
853.643
868.574
397.037
482.729
442.626
419.306
476.141
317.394
394.431
619.18
695.295
671.478
734.385
628.347
692.527
677.008
546.501
493.037
615.712
557.928
559.021
473.457
618.013
479.435
430.367
552.319
637.175
377.483
561.454
558.652
411.84
431.159
513.789
456.844
351.749
404.824
493.556
620.328
743.514
711.914
691.213
697.68
683.056
633.822
546.711
563.385
499.51
631.205
476.868
622.604
561.627
291.422
390.16
327.64
766.66
817.617
779.407
880.296
278.355
294.156
291.422
769.872
729.623
832.844
816.279
246.113
292.605
293.428
730.537
718.675
791.653
782.778
235.53
288.961
277.542
691.072
655.994
771.195
740.8
190.726
252.036
210.745
593.181
540.006
665.504
567.902
150.322
168.503
134.832
436.078
349.213
456.044
350.16
99.885
108.549
85.8311
265.172
211.98
260.787
207.826
74.9009
75.9441
56.2434
173.603
174.077
174.724
187.459
559.273
723.978
574.493
1174.19
1047.41
1307.4
1251.05
555.804
271.59
351.988
526.788
511.805
550.127
275.621
529.072
182.153
200.402
529.908
514.546
563.095
183.987
494.498
179.917
173.088
521.497
523.239
498.029
173.336
512.491
183.742
178.66
535.668
536.32
504.58
182.266
534.572
182.141
196.021
527.375
512.862
535.492
197.684
394.59
116.214
184.025
366.003
294.386
481.856
154.038
159.977
64.4049
75.5011
151.041
131.275
191.674
64.5859
88.1493
43.2031
44.3037
87.7244
81.0041
101.062
38.6508
68.8773
71.5472
73.1945
179.757
193.899
193.797
219.651
545.752
606.991
485.828
1294.72
1210.62
1125.45
1007.59
523.863
271.046
325.952
564.381
571.922
535.517
248.727
398.825
154.233
150.341
477.922
449.226
413.578
140.021
412.856
155.911
141.95
437.8
440.383
405.664
144.85
476.499
176.95
162.601
477.044
492.989
459.875
171.412
515.639
206.322
194.511
529.546
534.765
510.03
199.441
496.772
201.995
203.148
521.755
500.366
510.843
200.141
383.507
128.334
156.377
371.63
346.05
405.323
144.738
198.409
67.0346
106.939
225.246
164.666
269.892
80.9067
77.9298
77.9149
75.1413
203.157
226.652
205.168
217.356
354.927
339.572
261.872
686.323
597.957
529.297
395.084
253.291
184.388
213.128
330.824
299.68
287.488
158.741
199.487
94.5165
84.7726
244.832
247.775
195.933
77.2152
315.809
112.347
94.2494
295.847
326.368
279.16
110.302
407.528
157.294
149.816
402.92
416.908
396.128
156.319
392.492
159.991
157.46
419.197
411.774
403.918
154.042
359.17
160.383
144.091
399.562
399.835
362.917
144.285
343.83
154.622
145.634
395.155
382.679
352.118
143.117
192.463
87.8365
109.154
287.767
212.023
263.129
81.7532
69.0827
76.5678
69.2388
194.695
202.886
192.13
205.486
182.119
262.543
262.959
372.182
370.824
483.731
509.59
165.079
91.7635
116.16
169.106
155.424
172.575
92.4603
214.352
67.2687
73.4422
165.386
180.194
191.603
75.092
305.907
99.9701
94.2439
265.22
297.437
288.658
102.824
348.08
144.055
129.194
361.846
370.284
343.791
133.542
337.577
141.789
135.623
368.56
358.378
345.719
133.433
268.832
112.034
113.874
301.954
282.609
288.679
106.076
212.401
91.5447
88.2106
237.399
227.336
223.077
84.8242
138.16
56.6095
63.9703
168.947
138.011
159.538
54.5307
72.063
99.3265
81.6553
211.903
224.867
248.829
267.075
195.395
293.134
175.014
496.986
548.027
590.971
604.966
175.204
197.859
199.646
516.766
507.275
551.765
478.253
153.013
168.362
130.724
454.742
421.703
451.866
394.271
136.857
120.128
113.618
379.283
369.034
356.181
329.445
140.711
108.265
105.379
355.656
347.429
324.289
318.721
126.538
105.328
104.168
325.914
307.459