/*--------------------------------*- C++ -*----------------------------------*\
  =========                 |
  \\      /  F ield         | OpenFOAM: The Open Source CFD Toolbox
   \\    /   O peration     | Website:  https://openfoam.org
    \\  /    A nd           | Version:  10
     \\/     M anipulation  |
\*---------------------------------------------------------------------------*/
FoamFile
{
    format      ascii;
    class       volScalarField;
    location    "6.4";
    object      nut;
}
// * * * * * * * * * * * * * * * * * * * * * * * * * * * * * * * * * * * * * //

dimensions      [0 2 -1 0 0 0 0];

internalField   nonuniform List<scalar> 
12920
(
0.458927
6.127
2.53602
4.52722
1.67396
2.40021
1.33003
1.47539
1.09388
1.07648
0.89454
0.83768
0.729352
0.664569
0.601493
0.542265
0.453669
0.382922
0.355148
0.290637
6.14957
6.26598
4.27908
5.56945
3.09666
4.51643
2.38142
3.50085
2.19856
2.54572
1.96191
1.9704
1.58564
1.44182
1.13536
0.897231
0.673648
0.547296
0.470843
0.463209
0.0923289
1.51146
2.23148
6.08511
3.45652
4.85502
2.36913
3.70133
1.81049
2.18459
1.40098
1.46526
1.10996
1.0756
0.879045
0.778732
0.645784
0.588353
0.555961
0.562246
8.72136
10.7041
7.29067
7.14981
4.93493
4.79646
2.61182
3.49888
1.76536
2.19177
1.30407
1.39622
1.01254
0.968312
0.789423
0.730868
0.644052
0.610696
0.581211
0.561094
7.41968
9.97198
8.08625
8.04355
4.64641
5.57044
2.98016
3.86473
2.06013
1.99964
1.21168
1.21984
0.926427
0.920487
0.7677
0.730226
0.655361
0.630424
0.600036
0.578617
9.44785
12.5477
8.52848
9.30601
6.07766
6.79578
3.63687
3.6937
2.70682
2.41355
1.78073
1.31702
0.973679
0.878129
0.788041
0.753571
0.71617
0.697584
0.677864
0.64029
1.08939
9.22228
7.60301
8.61959
4.60166
6.11595
2.83434
3.27278
2.3651
2.35861
1.91048
1.54141
1.09052
0.918889
0.809649
0.776672
0.740261
0.731818
0.710557
0.683055
1.91164
7.37937
5.5853
8.05541
3.96288
6.0638
1.05772
0.994982
0.768192
0.723202
0.59848
0.474137
0.366158
0.296114
0.880129
0.821185
0.754659
0.693107
0.669291
0.655502
1.72309
4.80359
3.59261
5.18608
4.24836
1.46259
0.392009
0.246953
0.215355
0.219703
0.220133
0.174782
0.10404
0.0736808
0.248816
0.940294
0.798832
0.693653
0.641716
0.606647
7.11169
13.9685
8.43172
8.562
4.60696
1.61593
0.355508
0.18894
0.178919
0.201182
0.254698
0.261572
0.172083
0.117177
0.24322
0.898881
0.748528
0.643882
0.575754
0.536115
16.2261
10.946
5.31864
6.84486
2.71055
1.09762
0.283624
0.124894
0.126915
0.200055
0.219557
0.212696
0.203548
0.145036
0.232624
0.776574
0.692878
0.634927
0.576536
0.526195
3.40394
8.96032
3.85395
6.24496
1.80459
0.727081
0.147053
0.0883665
0.114419
0.197866
0.205824
0.171298
0.136052
0.0999253
0.253318
0.93615
0.823442
0.708461
0.597638
0.53367
10.0132
12.9491
5.33206
7.63205
2.68915
3.76683
0.685897
0.691395
0.520097
0.488741
0.435079
0.452856
0.374105
0.333268
1.11463
0.972253
0.820555
0.671519
0.575478
0.5438
18.2553
12.7662
5.1981
7.8401
3.19681
4.08519
2.1936
2.38738
1.61416
1.49355
1.22543
1.25872
1.11764
1.09221
0.967819
0.858759
0.710967
0.632208
0.593959
0.595374
2.85867
11.1666
5.14954
7.02933
3.21425
5.11183
2.16324
2.92493
1.62863
1.66843
1.19996
1.18829
0.992749
0.942004
0.829319
0.778275
0.718047
0.699873
0.698032
0.724562
4.58014
6.80517
4.30025
6.04017
2.76157
4.06159
1.93421
2.60441
1.5091
1.66834
1.14818
1.17798
0.944471
0.937669
0.820673
0.815378
0.782235
0.803543
0.827889
0.869912
13.67
9.70303
4.85773
5.65064
3.13392
4.39555
1.89477
3.22985
1.47142
1.80461
1.19419
1.29152
1.02705
1.05489
0.947732
0.963252
0.933237
0.945198
0.947095
0.968044
3.77294
11.7342
6.57846
6.60329
2.35342
3.74806
1.54876
2.22622
1.36218
1.62109
1.23012
1.35302
1.17882
1.23387
1.15145
1.17451
1.13676
1.12968
1.09689
1.06774
3.91115
10.009
7.56578
6.13745
2.02922
3.89842
1.37154
2.16234
1.22747
1.50298
1.14987
1.25891
1.11209
1.15353
1.07857
1.08355
1.03187
0.99176
0.936076
0.846227
4.48299
8.6154
3.12718
3.73431
1.66638
1.40932
0.803125
0.681752
0.574787
0.661224
0.618312
0.60799
0.533386
0.505494
0.460585
0.429228
0.389376
0.345156
0.32131
0.280908
1.35526
4.61274
8.94244
16.5002
10.0522
13.2978
7.40125
8.4512
6.24488
6.51018
5.64851
5.64948
5.08375
4.75546
3.91544
3.10456
2.72435
2.43507
2.27908
1.8934
5.29076
13.8312
20.6984
24.1063
17.4798
18.9863
18.613
19.4578
19.3137
19.2585
18.6005
18.0795
16.8357
15.9231
14.6418
13.273
11.3043
9.69196
8.79506
9.92984
0.232599
2.79192
8.39643
20.6835
25.007
24.3701
21.2968
20.3795
18.5817
17.6954
16.3679
15.6181
14.5136
13.6968
12.6185
11.6007
10.8304
10.6091
10.6718
11.1975
16.2099
17.7425
14.032
22.2299
26.734
25.1298
20.7551
19.0067
17.0697
15.6111
14.3459
13.7697
12.9505
12.4461
11.7377
11.3059
10.9734
10.8991
10.9704
10.9588
41.9608
51.9662
39.1869
35.0892
30.7437
27.6193
23.4549
21.5649
17.992
15.4127
11.9765
11.9523
11.4973
12.0099
11.7734
11.6772
11.4824
11.4586
11.36
11.1828
28.5143
47.4862
48.2856
40.6496
34.0132
31.3643
26.7461
25.6212
22.8214
19.7754
13.6717
9.24486
9.07723
11.1134
12.0621
12.2739
12.2289
12.1346
12.0665
11.7574
7.28597
41.2425
47.1052
41.0327
34.2014
30.1177
24.8493
23.7261
20.9815
19.685
16.8674
12.3964
9.73364
10.0821
11.6144
12.3003
12.4869
12.5108
12.5567
12.305
32.5858
38.278
43.6609
39.7269
33.6199
31.129
21.9779
21.4088
20.2665
19.1002
16.5215
12.5911
9.13232
8.8036
12.4181
12.5645
12.128
12.0153
12.1486
12.1939
16.7625
50.097
42.3181
40.5562
34.4599
21.9289
17.3971
19.2184
19.0652
19.7825
17.698
12.7783
9.00578
7.45901
10.517
12.7421
11.8259
11.3924
11.3629
11.469
28.6065
65.5136
56.7941
40.6719
31.0803
25.4927
19.5618
16.2193
17.0029
19.6875
20.4755
17.1423
12.1395
7.96072
10.554
11.8541
10.9678
10.486
10.3379
10.7365
44.2282
58.1778
50.3905
26.8257
16.8866
14.4592
10.8073
9.76581
15.0701
19.5852
16.08
13.4151
12.551
8.2689
9.1112
10.739
10.7712
10.5337
10.2368
10.6462
19.6922
42.3334
40.4253
24.31
14.1147
11.0113
8.57491
10.2837
15.9034
18.8828
17.5799
13.4045
10.0475
7.89685
10.2094
13.138
12.2134
10.8555
10.2524
10.6646
16.6637
56.4564
44.792
34.146
25.5665
26.5606
16.6278
18.247
17.1957
15.9818
15.5405
14.5242
13.3793
12.8204
14.5081
13.2969
11.5281
10.245
10.3391
10.9147
55.8247
44.3239
38.3804
35.0853
28.9079
27.5241
21.4939
20.2429
17.8016
15.6123
15.0343
14.535
14.222
13.7453
13.0313
12.275
11.214
11.1409
11.4222
11.7434
19.3395
60.0292
41.9804
35.8152
30.8805
25.6992
22.3311
20.8669
18.235
16.7473
14.9777
14.2085
13.449
12.9766
12.6343
12.5608
12.5289
12.7726
13.1014
13.3333
34.3358
35.8989
39.4179
36.1169
31.9807
26.321
22.7778
20.9803
18.625
17.5898
15.9698
15.4569
14.5803
14.3291
13.9533
14.0351
14.1654
14.3995
14.6943
14.7068
26.8406
43.587
42.3951
34.4893
31.3424
19.551
21.9412
18.949
18.736
17.7116
17.0828
16.7469
16.3111
16.2292
16.1067
16.1033
16.0783
16.0385
16.0825
15.9815
13.5311
38.3117
48.2368
36.245
29.6271
22.1405
19.2586
18.9872
18.4817
18.4713
18.2559
18.3365
18.212
18.1939
18.0489
18.0187
17.893
17.7363
17.5865
17.1975
8.33471
32.848
45.8699
33.6308
24.1603
19.5273
16.5399
16.3694
16.2514
16.7492
16.8283
17.0979
17.2636
17.4669
17.551
17.7338
17.6675
17.4908
17.1139
16.1296
7.67955
20.8202
20.0954
22.8179
9.27647
8.49055
3.9916
4.14102
3.38483
4.21166
3.70493
3.83692
3.25522
3.17227
2.88329
2.78889
2.65456
2.53956
2.44486
2.27449
1.80756
7.18189
20.4225
19.8293
16.5907
16.5726
10.6937
11.3905
7.94615
7.95987
6.68617
6.48038
5.53354
4.69179
3.83565
3.33684
2.99932
2.66999
2.45398
2.09158
16.8521
49.9292
35.6549
39.0546
34.6395
31.5696
28.438
27.5693
25.3884
25.0276
23.4106
22.3995
20.5844
19.0961
17.3374
15.3447
14.3663
13.8173
13.8273
14.9178
5.8537
8.23025
24.8954
42.1856
43.0128
37.212
32.497
29.7161
27.2135
25.4582
23.4523
22.0698
20.5361
19.4117
18.1659
17.3576
16.8204
16.7017
16.6889
16.9398
36.2843
29.9081
31.8195
44.2594
45.606
39.1066
33.1082
29.225
26.2656
23.8424
22.0484
20.7298
19.4975
18.6074
17.7806
17.291
16.9308
16.7813
16.7261
16.6924
69.7106
68.8727
55.8073
52.0853
46.9531
41.3808
35.8202
31.5096
26.8297
23.5119
20.6662
20.1115
19.232
18.7881
18.1594
17.7482
17.3969
17.2051
17.0112
16.9043
48.8987
66.576
66.6615
57.9475
50.0177
45.2637
39.5986
36.3246
31.2478
26.0146
20.3892
18.3212
18.6173
19.228
19.0382
18.6197
18.277
18.015
17.8223
17.4834
19.6505
58.7811
66.9154
60.2478
51.8612
45.0321
39.4583
35.9396
31.4971
27.8629
23.061
19.9192
18.7486
19.0532
19.3116
19.0719
18.7456
18.6142
18.3913
18.0687
27.2147
54.5391
63.4971
60.3658
52.4464
46.4073
39.735
35.1518
32.1724
28.7096
24.1826
19.2758
17.1524
17.3716
18.4637
18.2239
17.9283
17.9087
17.9334
17.8376
9.05105
60.7258
63.6605
61.0337
51.3136
42.8377
32.1336
33.9777
31.6671
29.9064
25.3498
20.0125
16.2726
15.7778
17.0015
16.5537
16.2866
16.4096
16.5362
16.7661
68.733
75.5382
75.2176
58.6347
45.9164
40.9757
35.3049
30.2043
30.2821
30.5505
27.402
22.3479
17.6712
15.1826
16.0179
14.5733
14.54
14.8066
15.09
15.7479
63.9288
76.3296
69.7635
45.3623
33.4934
27.6885
23.4704
23.7052
28.628
25.4355
6.08137
7.8707
13.6226
13.2765
12.7825
14.0754
14.5718
14.7467
14.9277
15.6668
21.0178
62.4794
63.9475
43.0202
32.3749
27.0809
24.7471
25.5542
28.2007
27.7869
23.1869
15.8127
12.2024
12.9145
15.7803
16.9723
16.2206
15.5398
15.5691
16.2124
62.2689
60.345
62.4787
53.4076
44.3869
41.8562
33.8884
31.7402
28.2254
25.6141
23.7587
22.161
20.7481
19.9429
19.368
18.0304
16.7694
16.3435
16.6646
17.1799
66.5745
62.4717
59.3371
53.8053
47.1084
42.0668
35.6017
32.5661
28.6045
25.6167
24.0027
22.7218
21.4953
20.476
19.3211
18.5521
17.9515
18.0277
18.2939
18.5938
47.3356
65.1648
60.088
53.372
47.1701
39.8503
35.9516
32.4012
28.7797
26.1956
24.0491
22.6611
21.476
20.7086
20.1122
19.9069
19.851
20.048
20.3069
20.5399
26.4952
50.055
56.759
53.7719
48.6033
40.4902
36.1845
32.3021
29.254
27.2057
25.1305
24.0653
22.877
22.4024
21.9786
22.0223
22.1003
22.2197
22.3427
22.2375
27.8839
54.1239
61.4415
52.4872
45.0473
34.9455
34.7057
30.5592
29.4199
27.7417
26.7867
26.1178
25.5008
25.1902
24.8904
24.718
24.5199
24.3194
24.1738
23.8656
8.63152
50.5718
57.5295
52.6936
42.4493
33.9044
30.9839
29.2504
28.4562
27.8801
27.6168
27.5208
27.3453
27.2811
27.0631
26.8526
26.4571
26.0043
25.5129
24.8264
24.4479
51.9767
56.3121
44.7364
31.5708
26.3868
22.6413
23.0596
22.2183
23.0048
23.2058
23.8336
24.171
24.8303
25.019
25.2973
25.1142
24.8096
24.2957
23.0757
8.40066
24.26
29.73
25.6593
12.7643
11.965
6.0574
6.49847
5.12461
5.85809
4.71548
4.5743
3.85629
3.69912
3.38904
3.29337
3.17594
3.06398
2.98764
2.81609
7.18691
12.183
23.5725
21.855
18.7945
18.3049
12.7012
12.1298
8.47242
7.33111
5.9829
4.94584
4.17457
3.56973
3.22792
2.94802
2.6701
2.40564
2.24935
2.00684
45.4426
54.2076
57.5973
48.1316
43.1341
36.5142
31.1483
28.7639
25.654
24.6062
22.8378
21.0322
19.9253
17.9643
17.5314
16.757
16.7684
16.9007
17.0048
17.2043
22.7569
29.4398
46.9342
57.7069
50.7487
41.7719
36.0768
32.1548
29.1517
26.8059
24.4928
22.7989
21.2888
20.2469
19.3752
18.7911
18.3594
18.0935
17.9262
17.9494
40.2736
54.0186
56.3245
59.6896
53.9416
44.2282
37.6746
32.7152
29.4451
26.204
24.1313
22.1887
20.8145
19.7186
18.9381
18.3846
18.0008
17.7701
17.644
17.6273
61.6898
79.6436
70.2338
64.1457
55.3939
47.1257
41.3055
35.1629
31.0287
27.0103
24.6792
22.7585
21.4085
20.2104
19.3966
18.7619
18.3534
18.0814
17.9169
17.8677
65.366
80.8703
77.8852
67.4664
58.5602
51.39
45.5102
40.3047
34.7318
29.3254
25.4375
23.4027
22.4797
21.318
20.4603
19.6877
19.2776
18.9115
18.7006
18.5391
58.6296
72.6491
78.2592
70.3969
60.0584
52.0773
46.1071
41.2056
35.7584
31.3329
26.9343
24.4114
22.8115
21.9574
21.1287
20.4481
20.0475
19.7186
19.4691
19.2496
53.2587
73.5213
79.0156
71.0214
61.3624
53.4691
47.5733
40.448
36.9307
32.1328
27.3279
23.3798
21.6445
20.5698
18.7795
19.0027
19.1212
19.1561
19.0961
18.9482
24.2036
69.516
79.1409
72.3365
60.1984
54.147
38.9666
40.9503
36.7128
32.6338
27.5008
22.6327
19.8822
18.5024
16.8933
16.3363
17.0294
17.4819
17.6637
17.7644
72.4577
78.7423
82.6174
69.1394
54.6748
49.428
44.5287
38.4766
35.551
32.1007
27.0393
22.502
18.9469
17.0181
15.2171
14.7182
15.5145
16.1199
16.5445
16.9519
61.8861
80.0359
77.982
59.1076
46.7809
40.3467
36.6166
34.9771
33.5366
29.1253
12.8988
11.7652
13.8199
14.144
13.485
14.7909
15.5657
16.031
16.4434
16.9982
24.4396
73.7073
71.2971
57.7888
46.7137
40.9973
38.6403
34.9607
31.8763
28.2183
23.0629
17.6607
15.5803
16.0042
16.3685
16.5334
16.6459
16.7786
17.1109
17.6497
106.421
81.8829
76.4737
64.8148
55.1794
49.5302
42.3889
37.2722
31.7388
28.2111
25.6482
23.8149
22.161
20.7605
18.9911
18.455
18.1442
18.1355
18.369
18.7634
73.6122
75.1796
73.1004
65.4743
57.2127
49.6951
42.5213
37.8539
32.6546
29.4527
27.0969
25.0807
23.3044
21.9301
20.7574
20.2079
19.9226
19.948
20.0462
20.3337
52.7592
72.9238
67.5897
63.1177
55.5804
47.4484
42.539
37.168
33.0909
29.6216
27.2266
25.248
23.8657
22.8739
22.1956
21.9594
21.8771
21.9168
22.0243
22.185
42.5048
63.0564
65.083
62.5082
56.1398
47.6143
42.2099
36.8189
33.3608
30.5321
28.1713
26.675
25.3622
24.769
24.3278
24.2374
24.1524
24.075
24.0404
23.9689
20.5316
58.5099
66.4982
60.1997
51.0826
42.2878
39.8325
35.1293
33.2892
31.2215
29.935
28.9609
28.1565
27.6159
27.1942
26.8567
26.5517
26.2847
25.9893
25.7146
19.4122
55.2825
64.5285
58.8231
46.9147
39.1937
35.672
32.8562
31.5297
30.4833
30.0859
29.7944
29.6855
29.5292
29.3046
28.9242
28.4539
27.8535
27.2718
26.4397
42.1823
51.4013
60.6621
47.3945
32.5124
28.1807
24.2848
24.3636
22.9596
23.4818
23.7019
24.6116
25.2633
26.1711
26.5198
26.6944
26.5219
25.9997
25.3209
24.0281
2.19683
21.3745
33.9689
27.6763
14.9549
12.0888
7.37434
7.27124
5.7615
5.83409
4.70933
4.45021
3.89674
3.75712
3.56043
3.46634
3.37264
3.20993
3.09964
2.80871
32.6375
34.1504
14.295
22.5634
8.37595
11.9188
5.14241
4.82982
3.11379
2.81266
2.07141
1.88364
1.5171
1.45743
1.25594
1.15889
1.01124
0.937443
0.862629
0.822929
85.2939
71.5841
49.0654
36.9111
27.5899
34.8714
17.0168
22.4485
11.9908
12.9922
9.23526
9.37423
7.72344
8.00365
7.30055
7.32441
6.80461
6.66946
6.41238
6.40684
43.7141
45.0465
57.5475
60.9613
27.5571
40.0875
17.0171
30.7001
12.7283
17.4004
9.96117
11.4833
8.53841
9.19918
7.86192
7.9467
7.23072
7.18247
6.9202
6.93004
66.572
40.3834
69.158
52.0219
38.448
42.535
18.8695
31.3403
12.8399
18.5511
9.8466
11.5342
8.22348
8.80928
7.58702
7.73739
7.08967
7.04515
6.82163
6.80963
102.101
87.6394
74.2465
69.1995
29.414
46.1091
17.7436
34.2089
12.7114
18.3858
9.80913
11.5655
8.17708
8.70946
7.40109
7.58944
6.98024
7.00542
6.81021
6.83464
38.5406
60.4545
60.8288
60.4841
31.9465
51.9182
20.1552
29.6319
14.4359
15.829
10.6093
10.9172
8.44826
8.28327
7.62933
7.55675
7.23516
7.14025
7.00621
6.98085
27.9683
63.8651
46.452
53.643
26.3083
51.7829
18.2067
30.8655
14.4317
16.4157
10.6546
11.3034
8.91864
8.69691
7.77494
7.66755
7.34516
7.28692
7.11563
7.09171
84.8892
62.4228
43.8969
48.3957
24.5407
53.7112
47.7434
42.099
35.6138
30.2699
25.2668
21.9701
19.705
18.3615
7.50615
7.21892
7.16841
7.00669
6.91059
6.89508
54.9653
77.0267
40.5135
42.8499
21.8286
54.2451
47.4656
39.3153
33.7379
28.2029
22.7594
18.7937
16.6129
15.3098
14.8722
6.588
6.44616
6.42647
6.34903
6.46815
52.8318
76.608
49.1134
69.6521
22.4929
50.5919
44.5751
36.46
31.5158
26.0589
20.557
16.6635
14.8503
13.9352
13.7167
6.046
5.94485
5.98261
6.00456
6.20118
56.56
65.0185
36.7585
47.6752
17.4337
44.9666
40.0953
33.8754
28.9824
23.7512
16.9897
13.19
12.7671
12.8948
13.2555
5.92559
5.80657
5.85754
5.91353
6.16623
52.5893
89.2319
37.5336
54.2121
16.8891
44.5309
40.9201
33.0234
27.2374
22.7197
18.8309
15.9045
15.063
14.636
14.6735
6.02483
5.83394
5.94367
5.99691
6.26989
69.1938
88.7754
40.8546
66.6928
19.062
29.1554
41.9782
35.4741
29.2954
25.8988
23.2908
21.3893
19.5403
17.9079
6.60533
6.15697
6.16623
6.18754
6.30451
6.51565
51.2294
83.6197
36.5071
62.9282
19.5012
31.8576
15.0271
16.7168
11.3299
11.3903
9.29878
9.07355
7.77046
7.44585
6.75801
6.76654
6.59498
6.73877
6.76591
6.9564
25.2127
79.245
33.8016
64.995
20.336
46.6199
14.3603
19.9401
10.6674
11.9465
8.77748
9.11065
7.74705
7.88192
7.33588
7.45947
7.28565
7.38647
7.42372
7.57452
20.7598
38.7403
33.0928
40.2884
18.0584
30.135
12.78
17.411
9.85432
11.7267
8.45009
9.4027
7.87566
8.48571
7.80191
8.1715
7.88335
8.06884
8.04603
8.21443
44.2393
63.421
37.498
57.5684
20.7096
39.4527
13.1587
23.2887
10.1416
13.5264
9.17785
10.7708
8.88965
9.65645
8.81273
9.13839
8.78059
8.88355
8.79205
8.88097
16.6099
39.619
32.3366
42.7151
14.9339
28.3195
10.6843
15.9377
9.52424
12.0205
9.46359
10.8721
9.64105
10.3914
9.71881
9.99888
9.6006
9.53044
9.30466
9.18265
18.6964
49.6647
36.1975
44.904
11.7621
26.388
8.00096
12.5581
7.07179
8.93936
7.39841
8.78988
8.24352
9.1581
8.83581
9.17306
8.85941
8.69218
8.34706
8.00665
11.6692
22.8897
9.6491
11.326
4.07845
4.20204
2.51798
2.92741
2.05162
2.07468
1.6359
1.67136
1.513
1.5733
1.48743
1.47744
1.39511
1.31355
1.24524
1.12523
28.4545
24.9903
6.03928
32.5467
28.9658
28.7189
8.76948
23.6426
5.37734
8.52921
27.6899
24.1089
7.99503
11.2546
7.05049
28.168
22.8471
29.1823
9.07098
29.106
23.0593
6.38235
20.6084
13.8555
8.2823
9.06776
20.8672
15.1932
0.265588
0.378963
0.225306
12.2118
14.7388
14.0675
13.8362
0.222675
0.205048
0.185177
14.8108
14.841
13.2435
13.2564
0.224033
0.187077
0.197371
15.094
15.9248
13.6966
15.1359
0.225798
0.205033
0.240065
16.0183
15.2543
15.6544
16.582
0.202738
0.251703
0.259743
14.5679
11.6379
16.5227
14.8764
0.112695
0.25586
0.177147
10.2343
7.63021
13.7019
9.85847
0.0740546
0.148671
0.111083
6.84876
5.4427
8.92553
6.98447
0.0562172
0.0970714
0.0479197
5.20162
6.32062
6.00719
6.15774
0.211378
0.332881
0.158386
13.6746
13.0482
9.59308
8.9182
0.176977
0.14185
0.133366
12.4318
12.7041
8.67008
9.87978
0.191475
0.138645
0.18115
13.1494
14.8227
11.0138
14.604
0.242497
0.197757
0.233702
15.4923
16.7408
15.3637
15.4872
0.265036
0.237132
0.239238
16.7451
15.4714
14.9959
13.7977
0.199366
0.239252
0.222098
14.4919
10.8962
13.5726
12.1975
0.134558
0.204824
0.162489
10.0071
7.45037
11.3192
8.29802
0.0524048
0.145573
0.0656883
6.30663
6.03556
6.91769
5.84944
0.140397
0.204243
0.0996929
7.08467
7.10863
4.26857
4.93521
0.117412
0.0890964
0.097337
7.0655
9.59221
5.68097
10.2596
0.183918
0.115866
0.186403
11.2247
14.9251
11.843
14.9335
0.219925
0.202934
0.213217
15.5238
14.8604
15.333
14.9318
0.213684
0.210815
0.184931
14.1578
12.5244
14.3597
11.9445
0.209859
0.175358
0.156898
12.2537
11.5541
11.1528
9.3265
0.163055
0.149245
0.127913
11.0345
8.22547
8.84386
7.06128
0.0662602
0.111584
0.051453
6.87625
5.81279
6.21018
5.97426
0.0932987
0.264328
0.13902
4.93617
5.95346
8.3259
10.3766
0.0992337
0.148326
0.175646
6.96063
10.7925
11.4263
13.0985
0.18121
0.173569
0.166446
11.9999
14.6305
12.9614
13.2983
0.208007
0.168371
0.168352
14.9841
14.7014
13.3439
13.1019
0.182035
0.166283
0.165158
14.2355
12.0986
12.9352
12.1261
0.14441
0.155162
0.126229
11.2996
9.24005
11.6765
10.1397
0.115401
0.114478
0.0920145
8.69363
6.96653
9.72684
8.66153
0.0511361
0.0815704
0.0631215
6.35121
6.39185
8.51179
9.06703
19.4779
20.461
17.9546
28.4591
31.8429
33.3704
29.1727
18.9427
17.1836
17.1743
30.9411
29.5077
28.2277
27.8921
19.7476
17.6732
19.3144
29.1918
28.5501
28.1542
28.7787
18.6219
19.8532
20.4673
28.1085
25.279
28.7922
27.3248
14.3338
20.1858
17.6529
23.9615
20.1039
26.3549
22.4344
9.91627
16.2084
12.0957
18.585
15.3052
20.9242
17.0492
7.60647
11.127
8.61819
14.5327
13.791
16.0308
13.7361
8.64128
7.72155
8.38104
13.9231
15.1865
13.5337
14.8057
16.965
14.054
11.878
31.5714
27.7476
23.3989
21.1231
16.4708
11.547
13.2925
26.9471
27.0456
21.1899
24.2918
18.9901
14.743
18.7522
27.4706
28.5766
25.6212
27.8365
20.6812
19.4937
18.001
28.7266
27.4309
27.0089
11.9459
18.3899
17.0676
15.4036
26.5577
22.9173
10.6852
11.6716
13.178
15.2618
14.0912
21.5478
17.6892
13.7782
16.2439
9.05575
13.1665
9.71872
16.5736
13.8927
15.8375
13.5964
8.26845
8.36633
7.90618
13.5506
14.7126
13.1049
13.3124
9.79536
7.236
7.51455
19.6906
19.2728
16.5838
18.4337
13.1996
8.57222
14.0123
19.8691
24.3329
19.9338
24.7079
19.0708
15.7123
18.9291
25.7984
27.7788
25.7855
27.1342
17.2672
19.2905
18.3812
27.0628
12.1107
26.8822
22.7695
13.7136
17.492
13.9367
10.4493
8.93544
20.7733
14.3387
12.9998
12.7806
10.391
9.73806
13.1902
12.5407
10.1183
9.59218
9.9033
8.21546
13.7417
12.8037
10.1367
10.6044
7.77627
7.54811
7.63509
12.381
12.5407
10.7871
11.9644
9.013
12.6185
14.7163
19.7798
20.6464
18.6213
26.7136
14.6435
15.5848
16.9621
21.8313
25.0948
26.7849
26.3463
18.5396
16.6891
16.8614
25.7833
26.6336
25.7829
24.8832
18.2365
16.823
16.3553
26.4367
24.0343
24.4915
23.114
14.5314
16.0966
14.8882
22.6474
17.2829
22.6437
20.6929
10.6691
14.3335
12.4945
15.5692
12.1753
20.0321
18.0518
8.34854
12.0349
10.9502
11.7033
11.5102
17.6269
16.8518
8.14485
10.8736
11.3082
11.7417
13.0489
16.8696
17.1225
35.0251
37.2387
32.4288
35.1551
41.4123
44.701
39.4426
32.1906
31.4765
30.8234
40.1041
37.2275
38.3237
36.2649
30.5307
30.8954
30.8536
36.2616
33.6946
35.672
33.6063
26.7035
30.6066
28.457
32.647
28.8826
32.7037
29.2576
21.527
27.3443
23.3475
27.5694
23.7822
27.9918
24.209
16.9409
21.9113
18.2375
22.5717
20.1074
23.0143
19.9957
15.6724
17.2617
15.3265
19.6794
18.751
19.2309
17.782
16.5988
15.2197
16.0288
18.6046
18.1553
17.5468
16.9244
30.9922
26.8279
24.6092
42.9721
38.3267
35.7615
34.0389
30.0436
24.8042
27.6068
37.3764
35.7239
33.9153
33.9361
30.6854
28.6046
29.5405
35.244
33.4069
33.7482
31.7608
30.1374
30.1178
30.2847
31.7944
29.4152
31.0899
31.4416
24.9373
26.2146
25.7933
27.8571
24.8032
26.6073
25.9763
18.7172
12.3976
16.4085
23.0249
20.0769
13.7901
16.4826
15.3963
16.2404
14.6607
19.2711
17.643
16.5494
15.8703
15.8994
14.3296
14.1341
17.355
16.6552
15.5839
14.5514
23.0143
20.9718
22.5733
33.8165
33.1111
33.177
32.9299
27.5622
23.9169
27.603
33.2453
33.5782
33.0681
32.7124
29.355
28.3019
28.707
33.3734
31.3143
32.2358
30.1611
14.439
14.1096
27.5792
24.2151
19.3763
3.40711
27.7137
5.19063
5.52554
8.69518
1.37087
7.34652
1.31256
6.15313
12.7433
12.107
9.94431
9.83684
12.9341
13.8754
12.1878
13.5052
10.1752
11.2927
13.6749
14.3156
12.4203
13.655
13.1971
11.6497
12.9179
14.2501
13.7643
14.046
14.8757
24.6121
21.4748
30.014
35.7335
33.887
24.9581
36.7057
27.8347
29.7841
28.6964
33.687
32.5439
35.6407
32.7091
28.1947
27.9702
26.5974
31.9208
29.672
31.563
28.8717
24.7687
26.0941
24.4606
28.8114
25.0287
28.1546
26.0469
17.5194
23.9131
21.8519
23.4157
18.5418
25.3717
23.3081
12.5832
21.2047
19.3285
17.2844
15.0559
22.7986
21.3094
12.5186
18.9209
18.2138
14.9107
15.4112
20.9712
20.1621
14.1573
18.2121
18.1975
15.6872
16.0669
20.0331
19.33
42.3067
46.1182
40.5283
44.3777
41.6514
46.772
39.7939
37.8095
39.3041
36.7564
40.2745
36.475
38.2673
34.6428
33.7471
35.9703
33.3655
34.9739
30.9857
33.4476
29.6963
28.8205
32.3197
28.6474
29.8056
25.7469
28.3521
24.1977
23.7429
27.3701
23.6931
24.3602
20.8627
22.9073
19.5474
20.3472
22.5659
19.7172
20.0893
18.0953
18.6146
16.478
18.7221
19.0087
17.5528
17.5766
16.2912
16.0113
14.977
17.8103
17.2459
16.4116
16.0574
15.4347
14.7145
14.1083
39.5548
38.2504
35.9914
45.4643
39.0763
41.2444
36.7396
36.2533
35.5831
34.5272
37.6111
34.1125
35.5207
32.1982
33.1222
34.0095
31.5221
32.9649
29.3468
31.1703
27.6595
28.3229
29.3785
14.9636
28.0008
23.8698
26.1735
20.2284
23.538
13.7522
14.2665
22.6004
19.3584
18.6876
15.7927
19.6931
15.1325
16.286
18.4424
16.2454
15.2553
14.2069
17.366
16.241
15.5476
15.7819
14.7851
14.0379
13.6585
16.1163
15.2464
14.2505
14.5233
13.8922
13.4988
13.0467
35.2102
36.4532
34.9267
40.4366
36.1788
40.5276
35.6398
34.0819
34.6091
33.0055
34.9864
31.5858
34.2465
30.2564
30.9872
32.2196
29.6118
30.5339
27.0581
28.9635
25.6493
14.315
28.5322
23.0768
25.6063
19.3009
24.5809
20.7406
11.6028
21.0633
15.97
17.6088
14.3568
19.3534
15.9739
13.3578
14.8199
13.2365
13.78
13.1085
15.2172
14.1156
14.2272
13.3712
14.2511
13.1402
13.2235
14.1177
14.2409
13.6546
14.5194
14.9826
13.1695
12.9232
14.2328
14.0575
35.5606
27.5559
37.6774
41.5469
35.704
32.2197
36.926
32.7641
36.4038
32.9665
34.1854
29.9831
35.2527
30.8438
29.1421
31.6882
28.6807
28.6542
25.3053
29.2502
25.8742
24.5547
27.9434
25.7848
24.345
21.2616
25.2075
23.0951
18.7382
25.0893
23.093
20.1774
17.3402
22.3735
20.6836
15.7177
22.6328
21.246
16.6684
15.503
20.349
19.1412
15.8529
20.9056
20.0167
15.3961
15.1665
18.779
17.7468
16.0597
19.8358
18.9955
15.071
14.6566
17.4855
16.5113
40.6836
45.7992
38.6882
6.62988
7.39964
7.31956
6.08456
35.336
37.1094
33.2994
6.418
6.02173
5.96853
5.46843
29.4565
32.0178
27.9097
5.22149
5.28245
5.29915
4.64373
24.0997
26.4597
22.1592
4.72614
4.40768
4.41211
3.8234
19.4786
20.8837
17.7507
4.04681
4.26031
3.67712
3.49012
17.0494
16.9886
15.4304
4.04226
4.03498
3.54007
4.18423
15.5073
15.1003
14.3189
3.86894
4.03691
4.18167
4.16511
14.8891
14.1007
13.6813
3.87437
3.60878
4.13602
3.68861
37.9921
40.8877
35.7605
6.68872
5.87975
6.56013
5.34583
32.757
34.4062
30.7887
5.78
5.33485
5.27961
4.86061
27.5055
29.6303
25.7405
5.14331
4.48957
4.67579
4.09017
21.8113
24.279
19.2659
4.26556
3.66165
3.89218
3.27902
17.4578
17.8319
14.8355
3.51212
3.25457
3.11174
2.80037
15.1444
14.2094
13.3718
3.28151
3.91533
2.79225
3.40421
14.1466
13.3531
13.2178
4.15959
4.14127
3.85187
4.11534
13.4831
13.0988
12.8176
4.12146
3.78799
4.09385
3.66083
35.2259
40.1603
34.6765
5.76221
5.21255
6.04263
5.10634
30.1621
33.1164
28.8564
5.15878
4.74109
5.01615
4.59331
25.1579
27.5078
23.9366
4.55202
3.98474
4.40887
3.86324
18.5352
22.8462
19.3158
3.79895
3.22911
3.71466
3.35308
13.8064
18.105
15.1964
3.06391
2.74858
3.24416
3.04822
12.6353
14.5817
13.9253
2.7457
3.39634
3.07652
3.75261
12.9384
13.968
14.0055
3.85361
4.11616
4.03315
4.0373
12.7553
13.9461
13.7364
4.09129
3.74288
4.008
3.60498
34.6913
36.7795
35.7187
5.46148
5.11031
6.51165
5.49724
28.5956
34.0274
29.5857
5.02026
4.55023
5.37369
4.20597
23.7097
28.0115
24.7015
4.46978
3.91789
4.36089
4.20291
19.7942
24.07
22.0808
3.77431
3.47575
4.21018
3.75062
16.4182
21.411
19.837
3.40363
3.28263
3.9136
3.88212
15.1414
19.5168
18.3678
3.32349
3.98481
3.90909
3.65618
14.772
18.0157
16.9828
3.98957
3.99529
3.76378
3.71532
14.2376
16.6952
15.8014
3.96846
3.63676
3.71958
3.22318
28.4207
29.3849
26.828
29.0289
28.0656
30.1262
27.0792
24.3477
29.4535
14.6613
24.714
26.0945
30.2389
4.79046
19.8578
20.0601
7.95409
2.07339
21.9096
18.5301
2.58956
30.5027
32.4531
31.478
32.1444
31.5315
32.0586
30.5905
28.6757
29.1994
30.2492
27.34
30.4076
27.2694
28.8166
24.4042
24.639
31.1001
15.5401
30.7461
4.70118
27.0183
20.2352
2.63611
21.3949
10.3592
18.8893
2.87992
23.1451
23.9857
24.9373
22.9211
24.1031
23.8332
25.3416
23.1585
17.5704
19.2511
5.07497
1.92295
18.7693
17.9239
1.99106
17.6445
19.2989
5.78303
7.01722
18.6466
18.8867
3.64963
25.0014
27.9581
26.4343
26.0769
26.6946
26.0711
24.9581
24.0465
24.2815
25.2429
23.128
25.4641
23.2452
23.9836
17.7697
2.52502
20.3356
7.68684
18.2067
2.48858
19.6271
17.8345
7.36614
19.8192
8.67963
19.067
3.60709
19.4866
9.51714
8.97823
10.5846
1.63675
13.5627
2.238
7.42604
24.4379
28.1595
26.9494
28.9385
25.0677
28.8187
27.4074
19.9687
17.957
25.0505
22.7632
21.1215
16.7818
25.1507
14.8239
24.302
14.6109
28.5817
3.63215
28.0489
19.7982
9.77976
2.45276
10.4105
12.2155
2.80328
7.71771
14.6707
24.5943
29.2436
29.0919
27.4809
29.1249
27.5743
25.445
20.1333
22.8477
18.5994
25.3131
16.9913
25.2385
21.5635
4.35855
5.28233
6.01725
4.50284
6.2245
1.52609
4.82443
12.132
15.3767
18.2447
20.4358
13.0424
14.3179
18.0604
10.3015
9.12183
16.0455
13.7948
11.004
8.58252
15.9062
5.60676
2.16852
7.73307
10.6642
2.19031
6.51412
9.46461
4.99565
5.26873
7.67808
8.60533
2.34749
5.73894
8.56928
12.5203
20.544
16.217
18.7406
14.5894
18.252
14.1752
10.8592
14.3304
11.1555
16.8815
9.43862
16.2319
12.5235
0.995061
1.1242
1.11698
7.94623
10.5491
8.11271
10.9989
0.909317
0.998159
0.912556
10.9704
10.6554
11.7837
12.1471
0.74909
0.790659
0.80064
11.2455
11.5518
12.1969
12.1456
0.678114
0.797397
0.73639
11.175
10.5784
11.8978
11.2803
0.550109
0.653923
0.56215
9.66682
9.09003
10.0752
8.66033
0.431734
0.47852
0.391126
7.41962
6.00614
7.3604
6.08676
0.318749
0.327157
0.270778
4.73105
4.13981
4.8323
4.19848
0.260623
0.260843
0.190719
3.71031
4.50565
3.78266
5.12101
1.16525
1.68069
1.15283
8.85699
9.49772
9.75545
11.1618
3.62363
0.332983
0.396647
2.84034
3.32848
2.97302
0.301605
5.03012
0.23581
0.233155
4.70977
4.86274
5.02264
0.215693
5.38279
0.223386
0.20272
5.65541
5.8432
5.29324
0.205383
5.70125
0.226721
0.214987
6.21387
6.14943
5.62624
0.219501
5.67703
0.2214
0.235121
5.71799
5.44943
5.75088
0.237542
3.91707
0.150315
0.221187
3.74162
3.03588
4.86689
0.188725
2.12569
0.092972
0.105137
1.87085
1.66664
2.35406
0.0924102
1.39397
0.0689806
0.0683121
1.28945
1.21046
1.5515
0.0605384
0.248285
0.24325
0.252853
4.9476
6.31146
5.3202
8.18767
1.14766
1.59824
1.02808
10.3235
10.9828
9.00647
8.80225
3.34419
0.282821
0.375427
3.02729
3.62062
2.87568
0.274862
3.66538
0.176397
0.172747
4.05472
4.10944
3.50808
0.162044
4.67212
0.181742
0.163996
4.78562
4.92943
4.47696
0.167122
5.56373
0.212975
0.194888
5.44584
5.62415
5.34919
0.210512
5.99967
0.262514
0.251084
6.04183
6.07278
5.96144
0.258273
5.60654
0.251519
0.259103
5.79479
5.5036
5.80992
0.25211
4.22933
0.157258
0.189206
4.03632
3.79475
4.47487
0.174237
2.25531
0.0924031
0.135038
2.67657
2.0239
3.01311
0.107188
0.263887
0.244172
0.237656
5.28458
8.40717
5.16597
7.85366
0.763991
0.986658
0.578281
6.38173
5.56593
5.05301
3.90129
1.7083
0.211789
0.268215
2.05018
1.99208
1.79369
0.190488
2.03965
0.1145
0.10654
2.09388
2.35946
1.75573
0.0976084
4.3739
0.145467
0.122774
3.75624
4.29855
3.84267
0.145772
5.33739
0.211842
0.204061
5.24093
5.35166
5.26401
0.213754
5.04561
0.217498
0.215585
5.26773
5.17297
5.18989
0.21111
4.73692
0.212376
0.196088
5.05427
5.052
4.76554
0.194738
4.34282
0.19129
0.188884
4.80703
4.54177
4.56025
0.183545
2.29998
0.113677
0.140913
3.21667
2.3862
3.13881
0.108655
0.211701
0.227632
0.204844
4.91069
7.30868
4.99841
7.25061
0.426643
0.913509
0.553978
4.53644
4.37267
5.89773
5.98089
1.56866
0.116083
0.154496
1.46316
1.42395
1.50511
0.117553
2.75863
0.0878897
0.0960296
1.95406
2.28829
2.33599
0.0979594
4.37275
0.135462
0.126591
3.80798
4.29101
4.08196
0.141724
4.95045
0.206625
0.18933
5.07697
5.1343
4.91228
0.196844
4.7652
0.201321
0.199137
5.00329
4.87182
4.87171
0.196397
4.05766
0.161781
0.16894
4.30077
4.13336
4.24809
0.157908
3.4085