/*--------------------------------*- C++ -*----------------------------------*\
  =========                 |
  \\      /  F ield         | OpenFOAM: The Open Source CFD Toolbox
   \\    /   O peration     | Website:  https://openfoam.org
    \\  /    A nd           | Version:  10
     \\/     M anipulation  |
\*---------------------------------------------------------------------------*/
FoamFile
{
    format      ascii;
    class       volScalarField;
    location    "6.4";
    object      omega;
}
// * * * * * * * * * * * * * * * * * * * * * * * * * * * * * * * * * * * * * //

dimensions      [0 0 -1 0 0 0 0];

internalField   nonuniform List<scalar> 
12920
(
73.1904
124.188
108.771
89.6655
79.696
75.0544
70.3905
68.9242
66.215
65.3364
63.5915
62.8339
61.99
60.6798
58.7406
54.2433
48.1351
42.7458
40.5997
35.9843
176.47
165.064
128.557
110.438
98.03
89.6456
80.5079
78.7431
76.9043
76.6732
75.1305
73.7213
70.0767
66.5766
61.2967
54.9984
48.4896
43.4588
40.0135
38.6273
34.0214
115.861
124.951
124.762
113.502
96.1832
81.9458
75.6057
67.3072
63.203
58.4001
55.8768
52.5656
50.3937
47.7164
44.7226
41.6347
39.5553
38.4847
38.2951
287.862
209.528
171.852
142.069
120.155
94.8715
79.7804
69.292
62.6926
57.155
52.9276
50.2641
47.1629
44.6749
41.9969
40.0289
38.4897
37.5058
36.9793
36.5881
285.777
232.34
193.111
159.362
130.883
110.205
97.3562
85.9975
76.5792
64.3743
55.8672
50.152
46.5518
44.2402
42.0573
40.4054
39.1404
38.3277
37.7666
37.3815
440.43
257.389
210.181
185.744
153.613
134.828
114.698
106.225
98.753
90.7051
79.9245
65.041
53.0256
46.3502
43.5824
41.9565
41.2035
40.8356
40.7261
40.3346
129.492
194.331
190.199
171.715
138.366
121.142
102.761
96.5409
91.3929
88.5001
83.1571
72.5907
60.0211
50.3825
46.261
44.3455
43.5345
43.4258
43.5717
43.5146
168.288
205.725
186.783
159.785
134.435
120.123
175.342
150.171
143.56
138.636
130.822
114.208
98.8325
82.7772
47.7341
46.3063
44.5479
43.2457
43.0376
42.9054
155.249
206.635
171.568
161.65
153.182
231.513
339.556
249.312
237.942
240.657
241.879
210.456
152.86
122.133
75.252
50.3917
47.0207
43.8579
42.3443
40.8231
259.648
276.688
216.667
169.248
146.522
232.734
329.972
231.31
220.369
232.266
252.746
256.599
211.638
168.223
77.265
51.3371
47.1587
43.5139
40.9989
38.9863
378.45
215.331
181.109
135.198
115.725
186.424
280.81
181.9
177.68
217.768
226.594
224.308
226.603
192.011
78.0365
49.1274
46.2398
43.7658
41.4793
38.9908
205.207
175.757
155.844
122.993
94.0381
127.346
192.024
145.8
165.372
209.413
214.485
194.22
173.816
149.629
82.187
53.6394
50.2114
45.797
41.7034
38.6797
261.168
254.292
180.321
151.043
118.034
106.363
143.393
118.396
114.056
104.535
104.5
103.47
97.1812
91.5005
58.4133
54.462
49.5363
43.9937
39.9378
38.1054
387.174
248.169
176.137
156.441
131.629
115.481
94.966
82.7326
70.9409
61.5534
58.8693
57.4017
56.8666
55.4232
53.0987
49.5144
45.0075
41.6995
39.9886
39.6436
166.277
220.57
158.611
139.51
118.605
101.33
89.857
81.0531
70.2395
62.5146
56.915
53.3906
51.0764
48.7493
46.6919
44.8636
43.43
42.6884
42.7031
43.698
214.394
179.252
166.2
138.077
117.426
99.9057
87.3864
80.0983
70.6014
64.5005
58.0047
54.2908
51.079
48.9866
47.1255
46.1489
45.7914
46.0873
47.0178
48.3752
294.492
190.524
138.31
111.896
111.106
86.8483
80.2798
72.252
67.3523
62.8128
58.5957
56.1077
53.4795
52.2767
51.2319
50.9757
51.0014
51.2384
51.765
52.7578
191.323
232.487
185.823
129.776
106.264
87.7854
77.415
73.1935
68.0284
65.6587
62.5427
61.5816
60.3948
60.1077
59.7515
59.8586
60.012
60.1898
60.3469
60.0866
168.572
211.226
186.692
120.676
89.8725
77.0931
70.3713
68.0254
65.1145
64.1613
62.4173
62.0985
61.5309
61.5523
61.3397
61.4367
61.293
60.6436
59.6119
56.8594
216.493
168.024
152.568
129.702
107.465
88.6602
71.9615
60.8962
56.4955
55.7247
54.5418
52.2618
50.0622
48.3537
47.1083
45.6483
44.2562
41.9836
40.8078
38.2647
40.8791
51.4925
53.4345
52.5462
45.872
42.2422
39.5483
38.7611
37.6465
37.5293
37.3418
37.4525
37.2634
36.5286
33.9973
29.6359
26.842
24.4341
23.3055
20.8814
184.635
115.293
88.2591
68.5363
60.7327
50.1199
43.0523
40.7475
38.3472
38.0423
36.742
36.3535
35.1853
34.166
32.6294
30.9233
29.6998
28.4234
27.4673
24.9253
69.0058
127.191
125.728
91.1449
60.8989
46.8051
38.8976
35.6166
31.8914
30.3819
28.2776
27.5356
26.5274
26.1661
25.8233
25.3804
24.4208
23.1242
22.0032
20.5299
430.333
165.005
132.718
93.7932
65.8926
46.2954
38.5802
33.2358
30.3109
27.8638
26.0586
24.6872
23.338
22.3901
21.4694
20.758
20.023
19.3558
18.8
18.479
373.242
134.129
104.569
80.577
63.4112
53.0877
48.0799
42.8564
40.8552
36.185
33.738
28.6578
25.5177
22.9506
21.469
20.46
19.7519
19.2275
18.9397
18.9965
211.265
160.768
105.684
88.5265
71.6441
64.1357
56.2881
55.1015
53.7889
54.3962
54.2062
49.2639
35.958
26.4121
22.624
21.0505
20.4027
20.2234
20.3026
20.8312
143.542
122.909
92.7829
76.681
62.8271
59.3351
54.0561
52.8643
51.8331
52.7175
52.3601
51.2401
43.5202
32.1121
25.8558
23.1634
22.1543
22.0769
22.3441
23.3042
318.842
189.129
106.289
78.4243
64.6356
56.1509
61.4616
53.9359
50.2045
48.7651
48.2417
47.6907
44.6213
33.6123
24.3409
22.8775
22.402
22.3392
22.4565
22.9355
100.141
136.458
119.177
97.0396
81.5885
81.4139
76.7151
65.9255
55.2021
50.1887
51.0951
51.6288
43.7751
36.7119
26.1684
22.7536
22.5997
22.2554
22.0063
21.4381
230.669
144.846
100.223
82.8577
73.6927
81.8371
83.215
72.6608
54.8638
46.7108
44.2653
46.8103
49.4939
44.1093
27.3674
23.9204
23.8254
23.3885
22.7715
21.427
270.598
117.157
87.9592
77.8227
73.073
78.1186
82.8419
74.227
47.0739
38.7574
42.2953
45.0166
46.1589
46.4257
29.5147
25.649
24.8177
24.0239
23.2611
21.6486
183.457
132.221
86.3609
72.8149
63.689
62.8273
66.2481
55.2257
41.0363
34.8116
34.5091
36.0475
37.1956
36.5495
29.0445
25.5029
25.1133
24.3625
22.947
21.0177
303.876
182.825
98.1928
77.3113
61.9299
52.4604
54.855
43.7956
37.4184
33.9397
31.3272
30.3443
30.141
29.7891
27.5865
26.8763
26.1079
24.4053
21.8888
20.196
291.413
152.239
99.8792
82.9048
67.1728
59.6835
50.5958
43.6099
35.8907
32.4406
30.4333
30.0271
29.1819
28.568
27.2193
26.0223
24.6771
22.7789
21.2618
20.6687
243.16
120.291
81.364
65.2219
55.2629
49.6149
45.0065
39.6969
34.2662
30.9054
28.7052
27.1258
26.1414
25.1154
24.0643
23.0429
22.2423
21.6784
21.3879
21.7645
250.816
157.322
98.2107
69.2844
54.9058
48.5214
42.2469
38.691
33.8003
30.9414
28.0894
26.283
24.8872
23.9118
23.2006
22.7324
22.4708
22.4367
22.5906
23.3563
249.255
118.649
67.6444
52.1535
48.3561
45.2587
39.3461
35.3515
31.9774
29.7454
27.715
26.5034
25.3827
24.8052
24.3748
24.2811
24.3233
24.5657
24.9438
25.8897
203.49
124.638
85.982
58.0955
48.4257
44.6531
40.325
36.75
33.2239
31.4252
29.6325
28.9306
28.3081
28.1913
28.167
28.29
28.6596
29.2306
30.0675
30.9578
181.835
117.999
90.0754
61.1627
47.0371
44.3886
39.0885
37.8978
34.3662
32.9234
31.4019
30.9222
30.4762
30.4965
30.5594
30.7654
31.2034
31.5591
31.9363
32.0295
79.5636
90.9686
87.6043
71.7732
57.4602
46.1061
36.2483
31.5849
30.1875
30.4022
30.3066
29.7584
28.5717
27.8838
27.2461
26.8006
26.5561
26.0706
25.7299
24.8783
45.7763
61.4568
65.1787
63.1472
57.4062
52.6425
48.0395
45.1256
42.7401
41.2302
40.3372
39.5505
38.2534
35.7781
32.6007
29.2525
26.85
24.4997
23.2521
21.1746
218.597
111.986
74.5874
55.9037
48.6392
43.1703
39.2378
38.8904
37.3463
37.1627
35.8136
35.3955
34.0272
33.0482
31.3412
29.8717
28.4707
26.9818
25.7891
24.3048
164.492
150.852
101.812
63.6016
46.7238
37.8578
33.2253
30.9059
28.4908
27.4028
25.8718
25.4375
24.6349
24.4658
23.9964
23.4666
22.5906
21.7094
21.0027
20.2697
231.927
135.093
105.311
71.0317
50.0907
36.9182
31.9175
27.9675
26.2373
24.0795
22.8863
21.8756
21.0049
20.4656
19.8499
19.4247
18.9649
18.6437
18.4091
18.3402
405.772
154.504
95.2318
67.5011
51.9349
42.0072
38.6102
33.7933
32.5615
28.5134
26.2384
23.2853
21.514
20.3916
19.5454
19.076
18.7102
18.5392
18.4711
18.5805
313.374
173.711
94.5896
71.8145
57.3729
49.918
44.4062
43.0635
41.5789
40.7551
38.1534
31.8602
25.5258
21.7961
20.2194
19.5641
19.348
19.3653
19.5076
19.8794
276.475
127.381
84.5995
61.588
51.7693
47.7081
43.4296
42.6506
41.3936
41.5026
39.5329
35.147
29.1289
24.344
22.0356
21.0634
20.8438
20.9562
21.334
21.7748
219.117
137.869
93.2999
62.7692
52.1519
46.1719
46.1892
43.8587
40.9225
39.8714
38.253
35.4672
30.3763
24.972
22.4184
21.7014
21.5147
21.573
21.7276
21.8323
137.954
132.733
98.704
72.2235
58.0183
53.9625
52.2926
48.0973
43.2034
41.4278
39.564
36.3066
31.0169
26.151
22.9191
22.8942
22.253
21.7162
21.3811
20.7775
352.758
151.253
92.4889
63.9877
55.1616
54.5208
55.2156
49.3303
42.173
38.7731
38.1771
37.6754
34.6572
28.5318
24.5133
25.0842
23.89
22.783
21.9192
20.8187
253.119
132.8
80.7289
60.584
55.5416
55.8261
55.9186
48.1747
37.3116
35.7865
93.2345
65.262
40.0928
31.4408
28.3696
26.3965
24.5492
23.156
22.1123
20.9306
280.582
185.283
83.3121
56.53
50.4768
48.0219
49.1502
41.664
34.2891
30.6833
31.2028
34.629
35.2686
31.1557
26.9755
25.0734
23.7289
22.3808
21.1581
20.1725
477.113
274.843
100.952
62.0057
50.2314
43.7958
41.8297
36.6398
31.4058
29.5803
27.8904
27.2923
26.9197
26.5451
25.5051
24.1731
22.8363
21.2914
20.0458
19.4228
248.886
148.245
86.7707
64.3866
53.4843
46.9904
39.6398
33.687
29.2531
26.6944
26.0442
25.542
25.0751
24.3656
23.2686
22.2373
21.1959
20.3504
19.773
19.6708
470.445
168.629
77.9212
56.055
47.2987
40.303
36.9553
31.7801
28.1066
25.4275
24.0407
22.8728
22.2628
21.6156
21.0655
20.6134
20.2889
20.1589
20.1486
20.4765
230.331
158.467
94.6294
60.1928
47.3474
38.9602
35.21
31.1506
27.9485
25.5974
23.8816
22.7436
21.9436
21.4694
21.1071
20.9652
20.918
21.0303
21.274
21.8303
354.62
117.658
65.3753
46.7619
40.4591
34.7212
33.5029
29.0455
27.4071
25.4565
24.3483
23.5972
23.0218
22.8093
22.6758
22.7347
22.8849
23.1754
23.5499
24.1575
128.233
123.018
93.3675
55.4268
43.7365
37.4833
34.4473
31.5116
29.2463
28.086
27.0236
26.7049
26.3991
26.4305
26.482
26.6947
27.0221
27.4331
27.9188
28.3319
189.529
124.282
90.2107
58.1278
46.8143
42.2329
37.3877
34.7056
32.1096
31.0409
29.9647
29.8148
29.5791
29.7679
29.8552
30.1857
30.4674
30.7321
30.8574
30.8365
127.318
112.567
101.979
80.859
65.3284
52.6132
42.7652
38.0621
36.3907
35.6861
34.1523
32.404
30.8809
29.7282
29.0186
28.4674
28.2189
27.7222
27.4166
26.6012
120.401
91.449
79.7907
69.5463
63.6595
58.1626
53.0311
48.6898
45.2349
42.2325
40.0262
37.12
34.4357
31.5147
29.1842
26.6775
24.7253
22.8341
21.9434
20.5679
472.07
211.956
79.8591
56.1508
52.4894
45.2539
44.9985
43.8915
43.0918
41.9784
40.2522
39.0823
37.0768
35.8039
34.0499
32.9017
31.77
30.8619
30.1675
29.8007
294.35
130.417
91.0435
57.3379
48.8862
38.1981
36.584
32.6708
31.8374
29.6349
29.0251
27.9745
27.7453
27.3623
27.1023
26.6763
26.3153
25.9492
25.7017
25.4844
193.63
121.3
95.0761
61.7437
49.045
36.4429
33.8326
29.0339
28.2506
25.6524
25.2995
24.1488
23.9968
23.5767
23.4873
23.3125
23.2919
23.2786
23.3521
23.4812
264.518
187.823
101.332
62.0914
51.5821
39.7392
38.1557
32.1106
31.2877
27.2567
26.2852
24.3379
23.8817
23.3098
23.172
23.0325
23.0649
23.1164
23.2252
23.4192
203.188
142.047
92.4946
63.8236
55.1696
45.0493
42.7005
38.4731
36.7378
32.9489
30.646
27.1162
25.2144
23.9368
23.5897
23.447
23.5521
23.7325
23.9456
24.1984
138.756
131.258
88.7896
59.2058
52.6634
44.7491
42.3764
39.0507
37.5062
34.9128
32.4649
29.0887
27.0834
25.3863
24.953
24.775
24.9233
25.1727
25.441
25.5419
232.265
120.877
87.0375
58.1946
52.2288
44.5233
43.4421
41.4441
38.2631
35.9338
33.4795
30.1144
27.7317
25.9712
27.2263
26.2754
25.9842
25.9338
25.9446
25.7896
246.968
156.901
101.712
64.3789
52.3903
47.3762
47.111
43.4498
40.096
38.2792
34.5502
31.6336
28.8024
27.5775
28.4221
28.507
26.9539
26.1016
25.6139
25.1639
225.196
159.294
99.3344
61.0219
50.8302
47.0722
47.0425
43.0586
40.5433
38.7006
36.7058
33.9168
31.3023
29.9325
31.0285
30.2034
27.9538
26.6051
25.8021
25.2293
234.999
176.239
90.26
58.5683
50.6017
46.5637
45.2202
41.2072
37.8817
37.511
53.2112
43.6536
36.0718
33.3063
33.4932
30.5551
28.1531
26.7137
25.883
25.2766
161.501
222.355
120.873
58.3134
48.8322
44.1117
44.2767
39.6219
35.9041
33.8199
33.7461
34.3711
34.3072
32.8433
31.7297
29.3017
27.1016
25.7274
24.9799
24.5554
319.948
198.876
91.6793
58.1682
51.2577
43.2924
40.9618
36.6751
32.9105
31.9005
31.0145
30.7944
30.4028
30.1146
28.7834
26.6969
25.3485
24.4629
23.9866
23.8186
214.137
126.321
83.8468
58.9487
53.0719
43.4521
39.0009
32.3269
30.221
27.2326
27.7074
26.6571
26.8481
25.9516
25.3414
24.5715
24.0715
23.7999
23.6987
23.794
430.536
152.32
84.7864
56.8415
47.7306
39.3329
37.2574
30.9873
28.7444
25.9139
25.4714
24.3518
24.3654
23.9333
23.8693
23.7089
23.7433
23.829
24.0179
24.3459
163.319
147.491
107.019
63.1919
48.8958
38.021
36.2762
30.8278
29.2799
26.4972
25.9531
24.8249
24.748
24.4063
24.4552
24.4336
24.577
24.7783
25.0705
25.4168
160.989
132.612
76.9709
52.1221
41.2796
35.892
34.7128
29.7877
29.3853
27.0851
27.0096
26.1999
26.2944
26.1376
26.3167
26.3995
26.6757
26.9092
27.276
27.5405
226.403
153.904
99.7179
59.5183
47.0588
37.8481
36.7002
32.8762
32.476
30.9568
30.9533
30.4293
30.5528
30.4413
30.6206
30.7422
31.0043
31.1855
31.4444
31.5072
390.822
167.036
96.2223
61.0435
52.4391
43.6614
41.1249
36.6857
36.5134
35.2862
35.1971
34.9189
34.9862
35.1245
35.2444
35.4988
35.588
35.6468
35.6073
35.4797
61.2826
110.505
108.447
86.9666
70.2248
56.5005
46.5813
41.285
38.7219
36.6587
34.5225
32.5645
31.2035
30.2521
29.7582
29.2149
28.8772
28.1267
27.6327
26.3825
238.189
122.416
86.5826
71.7768
66.337
59.651
53.7741
47.7963
42.4653
37.5617
33.5774
29.9733
27.3098
25.1811
23.6458
22.2211
21.1062
20.1562
19.498
18.9706
627.06
255.086
101.11
71.6438
70.0882
52.764
60.7094
49.3749
53.1715
45.7591
46.6338
41.9529
41.7888
39.6742
39.9527
39.3961
39.7253
39.5284
39.7673
39.8945
271.813
130.39
98.3441
63.1983
63.8539
47.0587
48.5464
39.5719
40.5695
35.7234
36.3485
34.0248
34.6636
33.882
34.5124
34.2351
34.6359
34.4801
34.6568
34.6409
338.111
138.927
97.8018
64.7357
59.2075
44.8714
43.5783
37.057
36.2525
33.0673
33.0678
31.6323
31.9884
31.487
31.932
31.8729
32.2577
32.3446
32.6465
32.8934
266.859
214.625
125.094
69.8566
63.6666
47.6371
46.304
38.4417
37.4693
33.4492
33.4379
31.6815
32.1241
31.4707
31.8654
31.7495
32.0961
32.1458
32.3942
32.6164
208.269
164.32
98.9978
69.7083
63.6462
49.6212
49.0532
40.5337
39.0885
34.6407
33.8291
32.2046
32.3056
31.8507
32.069
32.0043
32.3174
32.4538
32.7249
32.9408
163.511
143.04
100.14
66.6171
63.9962
50.7726
49.2482
42.9892
40.4881
36.8537
35.2749
33.8157
33.6645
33.153
33.284
33.1662
33.4832
33.5402
33.6969
33.7144
362.717
157.013
95.3349
66.8596
63.7444
53.0709
47.2209
44.7234
41.2937
38.2784
36.9573
35.2591
35.8605
35.4711
36.2119
34.5353
34.2148
34.1171
34.0593
33.8859
401.106
220.316
121.449
67.4952
59.6203
52.562
51.6458
47.4295
44.9663
42.5673
40.9292
40.1729
41.0625
41.6174
40.7413
36.3199
34.6428
33.9928
33.7774
33.5107
307.391
172.806
108.454
70.7001
57.1109
50.9532
49.9033
49.4093
48.5544
46.5151
44.5152
43.7302
44.9991
45.706
42.6922
36.8162
34.7648
34.0333
33.7807
33.5905
435.509
203.209
106.467
75.2595
58.2232
50.6778
48.2436
48.9239
48.293
46.3766
46.3472
45.547
46.7573
46.8715
42.9862
36.8755
34.8162
34.0669
33.8156
33.6172
356.288
236.732
118.225
77.328
60.3989
52.1335
49.5607
48.2996
47.0257
45.4946
45.2713
45.4094
46.0784
45.9346
42.2971
36.2354
34.2249
33.464
33.264
33.1875
352.35
212.757
107.342
74.3729
66.1004
55.7465
47.6784
42.7727
41.4026
39.9417
40.6997
39.9944
40.5452
39.5969
36.4084
33.9085
33.0714
32.7652
32.6419
32.7032
244.793
133.035
93.2662
68.8586
65.6774
51.2047
50.5388
40.9624
38.5826
34.7355
35.6296
33.6003
34.5954
33.2247
33.2014
32.4663
32.4502
32.2959
32.3557
32.5638
235.295
149.087
94.0717
71.9414
55.7933
53.6603
45.2497
39.1964
35.764
33.4521
32.9398
31.937
32.3035
31.8748
32.114
31.9743
32.2075
32.283
32.4716
32.7587
221.845
173.651
121.268
71.2195
59.0861
48.745
45.4454
39.17
37.5036
34.3425
34.2078
32.7453
33.19
32.5541
32.9612
32.7071
32.9765
32.968
33.1418
33.3316
272.059
155.605
90.2837
75.1507
51.1697
56.2306
43.0795
40.5967
37.5268
35.0528
35.0343
33.8066
34.409
33.9295
34.4257
34.2649
34.616
34.6295
34.811
34.8718
194.209
195.463
121.572
71.5854
58.2789
50.4353
47.0377
41.2271
41.8759
38.5269
39.5836
37.8635
38.7432
37.8937
38.4957
38.1118
38.4126
38.2355
38.3254
38.1265
180.924
159.008
108.664
71.3966
61.0457
53.5084
50.8813
43.7684
47.089
42.2713
44.8984
42.4679
44.2301
43.2259
44.2086
43.7549
44.055
43.7018
43.6462
43.3989
158.447
128.7
103.61
79.2324
61.6671
48.9073
43.0447
39.2606
36.7241
34.0371
32.0318
30.5583
29.8307
29.2177
28.7194
27.9393
27.1598
25.9867
25.2133
23.6867
38.2255
38.0725
112.778
38.144
37.1064
38.5979
85.2541
37.9326
114.597
73.5462
36.641
34.7977
84.6356
55.5587
91.7109
31.3765
33.8339
36.9892
77.2654
33.148
35.2937
78.0328
35.2031
40.4096
74.4744
55.4873
36.1587
37.9617
258.391
340.693
261.244
95.7087
78.5727
99.277
86.6838
237.364
244.909
224.914
73.8011
63.7995
82.2058
65.3765
239.873
225.222
230.727
60.8213
55.0106
61.0155
53.9091
242.427
234.386
249.154
54.719
55.6702
52.6333
50.7614
228.421
253.901
257.667
56.492
59.0818
50.7624
52.784
161.396
255.913
214.016
58.9431
52.2252
54.2953
56.759
124.681
194.056
160.465
49.6304
44.9053
55.6452
48.5595
103.357
148.306
99.1459
42.5915
33.5787
47.6214
36.0062
249.112
298.687
210.686
98.2604
86.2615
100.923
87.3678
219.009
198.228
191.226
81.7976
64.843
83.6278
65.6678
227.75
193.345
213.465
60.7693
53.5605
59.0916
47.3368
248.13
220.826
235.498
51.9793
49.1336
45.8079
45.1438
257.527
236.709
238.813
48.9888
50.3542
45.6467
47.0282
227.576
240.171
237.037
51.6212
55.825
47.4132
50.166
182.792
230.016
206.088
55.9234
53.0724
52.0329
55.9073
104.264
193.366
120.182
51.8275
37.7578
55.6172
40.5501
195.257
223.934
158.653
96.725
85.6723
90.5724
75.8636
172.373
149.027
154.644
81.9623
58.9677
68.9168
49.1948
209.577
167.569
206.553
52.1863
43.8408
45.374
40.0003
226.911
214.493
219.851
43.0422
43.7903
39.4417
39.5782
223.79
218.639
203.725
44.5766
46.4154
39.9481
41.0882
227.99
198.109
188.375
46.7661
48.4809
41.2739
41.808
205.035
184.373
171.826
49.9071
54.3748
42.1791
43.4368
119.836
160.065
106.834
54.3251
40.3114
43.3727
36.7924
150.504
254.281
171.456
76.6449
66.3639
75.3326
58.0759
154.922
173.401
190.721
60.882
48.0029
54.0116
45.1523
201.829
187.511
181.498
45.0677
39.6185
43.2111
38.3671
215.449
182.337
184.455
38.8414
38.5873
37.5668
35.3566
200.967
184.166
181.56
38.8442
39.4993
35.0788
34.4176
178.519
177.148
159.724
39.504
39.653
34.3981
34.2405
161.159
154.672
137.328
39.9181
40.6264
34.2735
34.0421
106.226
131.688
117.29
40.5281
35.4663
34.0663
31.8766
69.3914
84.031
76.8902
56.3483
52.3769
60.3051
55.6293
57.7109
73.0711
58.7525
50.8502
46.6144
53.4589
46.3807
50.4038
55.0316
48.6826
45.0961
42.9179
44.546
41.2715
50.5854
47.5111
45.9032
42.8807
42.1581
40.7047
39.9762
52.0632
45.9422
47.8811
41.8063
40.1158
39.9728
40.0935
45.7588
49.0618
49.816
38.9472
34.8886
39.9156
37.5184
39.0019
48.4097
42.8705
33.3373
29.0525
36.0708
31.2856
29.5393
41.3001
31.4036
27.5315
23.8176
29.5407
24.8237
76.3844
86.0932
79.5035
60.1083
55.4649
62.4738
57.7953
58.445
76.167
58.5304
53.3264
46.0849
55.0578
44.0749
48.1793
52.6126
42.4548
44.1639
40.4792
41.1686
36.5147
44.3229
41.1341
42.4273
39.7611
38.9867
37.1153
65.5778
45.7056
43.3677
44.871
39.0033
39.4112
68.2192
58.3302
49.5592
44.9285
46.2247
39.4899
38.4977
50.4392
40.8413
45.9526
47.4909
48.6729
37.462
32.422
39.5289
34.4072
32.5414
47.2338
34.7244
30.508
25.2665
32.3524
27.3145
77.8658
77.8307
69.0651
61.4475
56.0995
59.1292
50.7369
52.7851
62.6096
44.9739
52.9275
41.33
47.1255
37.6582
39.526
41.463
36.0151
38.6373
34.7869
35.544
31.8838
41.0597
35.3345
35.3532
35.191
59.832
31.4569
33.1006
44.7604
35.8298
37.8785
63.0512
62.5592
34.2677
39.15
45.4391
38.5273
39.6388
57.7139
44.0393
40.6868
41.3335
47.4861
39.7646
39.3717
41.3181
34.9335
39.8415
34.4236
34.6608
38.7805
33.1148
32.9951
28.1077
33.0566
29.2489
59.8997
61.2442
52.0366
52.9175
46.2556
48.9214
42.4341
43.7921
48.6163
40.8587
43.856
36.9613
40.162
34.8754
35.6613
39.0173
34.8085
35.104
31.4571
33.3404
30.567
34.3166
34.0888
31.9841
30.8414
30.6988
30.1049
28.4944
35.6705
31.6739
31.186
31.0976
33.5722
28.1545
27.7907
36.9984
31.223
31.2546
34.5052
35.7713
27.8284
27.7987
36.9936
31.3075
31.076
35.5243
32.7161
27.7822
27.3122
32.227
31.0362
29.3277
31.6938
28.4572
27.1841
26.0121
49.3795
55.3785
51.3061
47.6588
44.6513
48.3962
44.6942
44.5207
49.4887
44.0267
43.7286
41.1952
43.6586
41.0975
41.5032
42.6196
40.0958
40.2124
39.0182
40.4387
39.0271
40.1587
39.6544
38.9215
38.5684
35.9434
38.6143
37.0899
37.4528
38.791
38.1576
35.0312
32.8832
36.4836
34.421
32.4101
37.6729
34.8688
31.7884
29.0848
33.5894
30.999
27.3245
33.4996
29.2008
28.2038
26.5894
30.1369
28.1548
23.3721
27.8019
24.423
26.1379
25.3058
27.7035
27.0176
51.138
56.6847
52.3401
47.9769
44.3673
47.2066
43.483
43.6544
49.9507
41.4364
43.3308
40.7076
42.239
38.7125
39.3163
39.2696
36.1509
40.0462
38.5513
37.8461
36.7267
37.8975
38.4177
37.8689
38.1903
38.0397
37.9098
37.4645
38.6324
38.1285
39.0922
37.4958
39.0393
37.2713
38.8743
35.8359
54.2599
39.3137
34.0445
31.6154
45.4489
35.3496
30.0479
37.4028
32.0074
30.7429
28.6356
33.6932
30.7183
24.8192
30.3833
27.05
28.1845
27.4833
30.274
30.052
50.8722
54.2207
46.7723
46.524
42.7211
45.8861
41.2308
39.3419
43.9442
36.4556
41.3895
37.7147
39.8916
36.1089
34.6297
34.7187
31.6652
36.8566
35.8269
35.1674
33.314
61.9319
64.3274
34.4998
42.3874
45.7305
238.435
35.5217
91.4558
92.7555
70.4526
179.759
73.9238
164.552
89.9878
43.6683
41.8245
41.7928
49.8124
38.8081
38.1769
37.5217
33.055
39.8779
33.9267
36.4136
32.3334
36.555
33.5506
28.0593
32.554
29.1977
31.769
31.123
32.8112
31.0502
43.6152
46.2667
40.9494
44.5962
40.2834
44.0634
39.3907
35.872
38.8497
34.0149
39.1663
35.6583
37.618
33.8469
31.2099
32.6051
30.2682
34.7128
32.8254
32.8422
31.595
30.7443
29.8581
28.3649
32.4254
32.4192
31.2658
30.0577
33.7535
28.0296
27.6974
32.7002
33.7894
29.813
29.6081
35.6293
27.7264
27.6252
34.0057
34.1243
29.5684
29.2853
32.197
27.5858
27.1094
33.7841
32.0766
29.197
28.9291
28.3115
26.9973
25.988
31.5188
30.1965
28.8507
28.2174
44.3637
47.5678
44.2326
49.4347
46.6246
48.9701
47.2941
41.009
43.3983
41.3731
45.5599
43.3907
46.9303
45.8407
38.9111
40.8311
39.4801
42.8549
41.4334
45.4819
43.9408
35.3953
38.9869
37.1431
40.33
38.1428
43.2251
41.2215
32.6231
36.4478
34.2811
37.8635
37.0326
40.6697
39.4013
29.4104
33.4903
31.4064
36.4465
36.4706
39.1984
39.623
27.8741
30.7951
29.656
36.6773
37.2523
39.8199
40.4062
27.0826
29.4486
29.1349
37.1867
36.9837
40.5085
40.0766
43.8751
45.7086
42.7645
48.1447
47.0461
46.3665
46.1731
41.0634
41.8519
39.3222
46.8131
46.0054
46.0836
45.5366
39.1604
38.6782
37.5822
45.6928
44.1087
45.0977
43.5406
37.2886
38.3606
55.2773
43.4606
41.5585
43.0712
43.5575
34.669
54.8449
45.0987
40.9824
39.5415
43.3209
41.7287
31.9129
41.33
35.0528
39.3109
39.9525
41.1425
41.2765
30.115
33.9328
32.1544
40.223
40.8661
41.6047
42.1105
29.6393
32.0047
32.0305
40.985
40.4969
42.1855
41.4003
42.1819
44.9878
41.2028
46.2102
46.0086
46.8849
45.9003
38.5345
40.1538
37.1489
45.8839
45.2379
45.5548
44.2818
36.8232
36.3868
34.6965
44.7742
43.176
43.9134
42.2004
53.9528
34.4444
35.7326
42.8245
43.9068
41.7001
41.3863
45.9165
36.2893
37.124
43.7441
42.2301
41.4698
41.3938
37.5701
37.117
36.7673
41.8103
42.1407
41.4859
42.4748
33.5804
36.2153
34.3977
42.3755
42.581
42.591
42.4846
32.8984
33.9194
32.53
42.5781
41.5821
42.3532
41.1582
40.5621
44.1813
39.7967
47.1797
45.6127
47.9866
43.8684
36.6833
38.0609
34.6214
45.1493
43.6702
42.2533
40.0951
34.2388
33.7819
32.8814
43.3463
41.9607
40.072
39.9418
33.5869
32.5396
31.4339
41.4333
40.9145
39.419
39.0076
34.3001
31.2354
31.1372
40.9442
41.0298
39.2301
39.4334
34.5102
31.0677
30.7658
41.1391
41.9243
39.1728
39.1803
33.2154
30.6804
30.5477
42.0121
41.9556
39.2781
39.4284
31.774
30.4698
29.7691
41.8324
40.7757
39.173
38.205
48.588
50.8074
49.6639
78.9342
66.9603
71.4678
72.5915
45.3695
49.4061
48.4794
67.9227
64.3294
71.6919
70.2635
43.6151
48.1751
46.7619
66.3644
62.764
69.9671
71.2308
41.023
46.1133
44.5692
63.7659
62.8549
71.8004
72.306
40.5449
44.2203
43.5424
64.4964
64.8885
72.515
72.4714
40.7761
43.4978
44.3049
65.9975
65.9809
72.3198
71.3907
41.7161
44.5916
45.1931
67.2202
67.3648
71.5535
71.9068
40.8909
45.2743
44.0756
68.0271
63.8653
72.1392
69.9893
49.5105
48.2589
48.9252
71.2829
73.1323
68.4732
74.6714
48.8153
49.0163
48.8233
72.4359
71.4075
74.1307
74.0931
47.1184
48.4774
47.0791
71.4884
74.2752
75.1863
80.4069
44.9289
46.5271
46.0643
75.069
75.6252
81.5089
83.2827
43.7145
45.8564
45.0623
75.6921
74.9928
83.635
82.501
44.6482
44.9597
45.851
74.4492
72.4843
80.6722
75.9913
45.6296
46.2172
46.6478
72.3211
72.4895
75.0236
74.2297
44.41
46.6486
44.9574
72.6126
69.1198
74.173
70.7379
48.8674
49.0875
48.9035
72.7718
75.39
72.3802
76.4596
48.6616
48.7183
47.8477
74.647
74.524
75.366
74.143
46.8556
47.5899
46.1746
75.5952
81.0091
74.17
77.359
46.4477
45.6976
45.4161
82.2315
84.1512
78.1022
78.6608
45.5692
45.5188
45.6167
84.4574
83.2039
78.648
78.015
46.4824
45.7635
46.5074
81.3675
76.6028
77.072
74.3838
46.9279
46.6243
46.5411
75.5528
74.5663
73.9165
73.6663
45.0355
46.4153
44.6309
74.434
70.0941
73.6355
70.6509
48.6319
50.8893
46.7077
78.1749
76.1711
77.3614
73.3067
47.2227
45.0524
43.2137
74.7942
73.5422
69.8712
70.1137
45.9659
43.44
43.4797
73.1517
75.1597
69.483
70.7797
45.189
42.8419
42.6234
75.5178
75.9713
68.3465
69.3581
45.3802
42.9222
43.1577
75.9441
75.5903
68.5825
70.1854
45.9883
42.8006
42.9378
74.8496
73.1061
68.4908
69.6958
46.0499
43.0556
43.2145
72.987
73.1139
69.0795
70.5407
44.3042
42.8882
41.5319
73.1188
70.3243
69.4544
67.373
38.7058
38.2889
39.0161
37.6635
38.6375
37.79
38.9589
44.5244
37.3654
65.6468
43.0905
40.6971
37.4215
187.065
51.2386
47.7598
100.398
219.142
45.9568
51.9226
234.862
37.8438
37.9837
37.7836
37.6397
37.6965
37.3867
37.8446
38.5386
37.2675
37.4861
38.1479
37.5147
38.6132
38.2245
44.9853
43.9681
37.5607
63.963
37.504
190.156
40.9584
50.7148
223.395
45.0937
82.4532
51.0119
237.714
44.6358
38.1786
38.0545
38.4855
36.5923
38.8616
36.9705
37.4788
49.9781
47.7236
113.619
210.628
47.1258
51.1881
204.369
47.7262
42.8368
101.814
83.7744
45.8093
42.8639
145.238
37.9754
36.9472
36.0909
37.8011
36.542
38.402
37.2625
37.357
35.4897
35.4722
35.6887
36.054
36.4863
36.562
48.8002
214.526
44.5724
82.7454
50.0954
207.468
43.5838
46.4143
79.5342
39.0044
72.8868
41.45
148.38
41.7065
80.0314
84.8484
65.7395
195.842
58.0947
214.407
87.3643
36.8677
32.5454
31.6771
31.6503
34.9249
32.9722
32.1287
41.8524
42.3425
32.5789
34.6396
38.8411
45.6656
33.2795
62.0653
43.233
66.1617
36.2859
228.604
36.1764
48.1491
79.7418
203.367
78.0655
59.901
219.23
85.8209
57.0899
37.559
32.2385
34.3496
33.5107
33.5864
32.7438
37.0364
42.3518
35.0978
42.6574
34.3566
45.7489
33.8663
40.3674
91.5658
91.1498
73.5839
92.1187
76.6137
150.182
81.7041
51.2543
45.3341
36.8874
36.0074
48.3485
48.5338
37.583
53.3162
54.2655
38.4867
40.5913
51.0344
55.452
38.9792
86.1232
188.407
71.4721
60.0007
172.456
86.7701
59.2709
82.8676
81.2406
66.959
53.217
149.714
70.5715
57.7901
49.7645
36.271
44.0571
36.9827
48.0015
37.527
44.9007
50.5944
39.4484
44.9598
37.5031
50.7799
38.4821
45.0478
152.036
175.917
161.207
96.3707
77.5429
95.9832
80.0132
148.588
152.747
152.036
70.3989
68.5249
70.8303
67.2428
139.718
152.344
152.558
64.9077
62.1801
64.8474
64.3898
136.681
151.393
148.371
61.8709
62.0598
64.7834
65.7335
122.996
141.389
129.29
61.4869
59.5876
66.2935
65.9512
109.193
115.608
103.415
59.1312
58.5489
62.3944
57.9755
89.0093
92.7894
82.5102
56.501
51.5105
54.3782
49.7698
77.0778
77.6127
66.7915
46.8892
38.682
46.2445
36.6022
210.619
239.634
213.466
132.855
110.882
133.477
112.108
153.209
293.544
334.179
185.95
154.287
184.81
295.714
105.757
240.4
252.154
113.313
106.493
112.642
241.607
91.7654
238.919
234.341
92.2218
89.5538
94.0374
234.509
89.6484
241.446
238.084
86.1918
87.1948
89.439
240.475
94.0445
240.392
249.383
92.3736
94.3415
92.9488
250.439
102.588
192.019
241.632
99.6545
98.7979
99.6419
221.07
75.9514
142.947
154.772
81.8608
79.484
82.4396
143.148
63.4819
117.077
118.559
68.4133
67.1145
65.6768
110.737
73.9135
75.3324
76.1947
36.3142
30.6938
36.3164
26.8117
208.057
219.42
196.303
124.794
110.377
124.416
114.673
156.885
293.249
321.583
186.098
157.975
186.361
280.917
108.632
221.21
218.401
118.646
109.47
118.249
210.772
87.9632
222.41
212.219
91.2159
89.0338
90.2109
214.376
85.2948
236.948
227.141
87.2327
87.314
85.5883
233.218
85.6973
255.861
248.442
87.3854
87.8347
85.2912
251.569
88.6471
253.156
253.882
90.0037
91.1004
87.7937
251.993
90.731
201.784
222.742
92.4405
91.3016
90.7687
214.292
89.8963
145.836
184.197
85.4585
82.9593
90.9446
160.217
78.6208
78.6132
77.2013
38.3544
26.9379
39.6532
27.6768
167.786
164.116
144.122
106.946
107.357
104.759
101.392
148.333
241.87
260.038
161.442
150.547
160.531
224.419
96.9643
173.169
164
116.097
104.126
110.818
156.519
71.4909
188.8
172.924
77.9293
75.2293
71.7715
187.073
76.1072
223.423
218.034
76.4816
77.6053
74.9038
222.723
77.7248
225.338
223.544
79.4199
79.4527
77.7414
221.101
75.6628
225.582
213.822
78.8253
78.9204
76.0201
213.961
79.2198
221.488
214.955
82.1237
84.2981
77.1474
213.089
85.8656
166.937
186.096
90.8114
91.0831
85.1838
161.053
74.0236
77.9307
74.1072
39.6211
27.7915
38.3925
28.352
120.189
144.306
144.421
82.0662
85.175
82.0156
85.3609
105.062
170.628
191.975
115.899
108.843
115.232
171.275
77.12
146.091
152.647
83.8585
78.0559
81.2582
154.352
69.6952
178.095
172.919
69.0249
68.79
70.421
180.619
70.1774
213.789
202.459
71.0074
71.9212
69.8087
205.839
70.8863
212.101
207.436
73.6252
73.6162
70.9307
205.754
66.4596
188.535
190.076
70.3955
68.5482
68.1487
183.453
62.439
170.425
167.292
65.0003
65.0294
62.8082
164.05
59.9472
134.017
142.464
65.2699
65.1456
60.4706
131.533
75.6035
88.7602
80.4781
36.5727
28.8825
35.3822
29.8507
124.492
152.482
117.821
86.8412
71.1083
89.5308
66.3878
117.885
125.275
125.839
56.7358
52.7144
58.6554
57.6489
110.166
115.56
101.827
49.5756
46.505
53.856
45.5029
104.188
97.6131
94.9311
44.7434
42.6125
44.7839
43.9
105.645
92.668
91.4245
41.1416
40.3128
41.8848
39.6839
100.183
91.4022