/*--------------------------------*- C++ -*----------------------------------*\
  =========                 |
  \\      /  F ield         | OpenFOAM: The Open Source CFD Toolbox
   \\    /   O peration     | Website:  https://openfoam.org
    \\  /    A nd           | Version:  10
     \\/     M anipulation  |
\*---------------------------------------------------------------------------*/
FoamFile
{
    format      ascii;
    class       volScalarField;
    location    "6.4";
    object      p;
}
// * * * * * * * * * * * * * * * * * * * * * * * * * * * * * * * * * * * * * //

dimensions      [0 2 -2 0 0 0 0];

internalField   nonuniform List<scalar> 
12920
(
379549
408061
361283
413303
381815
397262
372352
365731
338979
320352
290818
265362
233349
203882
170269
138858
104978
72249.5
38744.4
7142.78
455105
448769
327893
414138
374371
397244
375008
367565
341583
321948
292597
266485
234653
204810
171113
138812
104998
72304.9
38675.2
7081.83
200519
421586
419150
452570
415613
419373
391346
378019
349119
327076
296193
269056
236496
206284
172687
140080
105655
72637.9
38738.8
6795.32
361200
442669
387742
457608
412365
425339
398886
385551
356292
332788
300835
272117
238838
207835
174192
141023
106454
72920.7
38737.7
7066.04
195226
502641
484482
504039
459360
457107
421397
403406
367862
342386
307222
277113
242298
210183
175480
142480
107556
73610.6
38886.7
7117.39
268304
578706
503774
519659
470483
466376
431995
409132
376513
348004
313830
282798
247288
213468
177691
143536
108662
74294
39377.7
6933.72
714993
704750
603812
577294
522825
503366
457416
428541
389062
356971
319947
285722
249649
215134
179032
144829
109418
74999.8
39542.7
6522.8
744371
773786
678187
631598
557730
526294
482923
445589
407440
370818
333911
296961
259894
224134
180165
145735
110091
74971.9
39532.4
6216
750451
820558
706608
666015
593468
558073
507006
463749
421861
382800
343740
305000
266198
229652
189380
145653
110468
74989.9
39350
5736.17
1.01981e+06
874127
751157
695961
609839
572695
521823
473753
429606
388667
348204
307444
268437
231341
190834
145988
109925
74641.1
38884.5
5116.55
951234
800324
729239
687622
606851
575433
526936
477047
432201
390255
348099
306850
268850
231936
191416
145454
109012
73206.4
37549.3
4011.95
1.02294e+06
807010
722621
668141
594326
559577
514671
468872
426572
383690
343124
305264
268358
231838
190049
143958
107678
72012.1
36414.1
3279.7
544998
671181
625917
615320
555262
531566
487453
446360
405513
368823
330135
295354
259372
223729
177798
142574
106403
71045.7
35636.7
2911.79
625109
579564
578115
585544
541816
525346
467892
436787
390396
358015
318356
284917
246862
212195
176119
141386
105245
70419.7
34884.1
2508.89
707767
546687
536818
564479
507918
500951
454264
430333
386355
354611
315645
281393
244715
210428
174416
139899
104307
69582.4
34126.4
2011.3
821373
643612
573302
559866
507310
497941
451198
427475
382174
351395
311585
278633
241749
208436
172501
138737
103242
68824.5
33609
1567.56
710330
570326
507539
530480
466117
474316
430803
412202
370266
341564
304587
273311
237940
205615
170503
137303
102131
68150.6
33106.2
825.415
629987
585703
539185
530689
479100
466885
423958
403228
362540
335901
299688
269807
234907
203594
168876
136224
101046
67173.9
32264.9
-9.55391
511791
489149
452077
490696
441693
444225
403220
389006
352237
330005
295159
267056
232550
201922
167309
134994
100085
66423.3
31425.2
-841.264
376453
514018
481351
498812
446741
448260
402659
389667
351163
328312
293728
266258
231850
201664
167101
134845
99783.2
66062.3
30991.1
-1076.34
171344
380803
359849
412681
381594
397482
372400
365834
339058
320368
290932
265320
233369
203904
170334
138810
104972
72199.6
38734.9
7135.2
394699
434136
329100
415225
373549
397588
374892
367516
341565
321919
292578
266413
234667
204803
171074
138868
105044
72253.4
38661.5
6943.54
326767
437366
418156
452739
416060
419481
391276
377927
349129
326977
296165
268999
236473
206224
172729
140087
105678
72610.1
38574.1
6796.64
471743
451993
385307
455760
411578
424999
398781
385217
356239
332499
300792
272017
238788
207737
174067
141040
106466
72981.3
38616.8
6856.96
366879
512005
482603
502682
459187
456543
421286
403057
367810
342286
307232
277001
242291
210223
175391
142565
107602
73687.4
38776.2
6887.63
369479
557304
498688
517019
470422
466020
431677
408868
376509
348178
313945
282737
247194
213365
177812
143624
108746
74312.8
39196
6763.23
675982
705577
603569
575532
522689
503214
457479
428423
389236
357027
320219
285970
249805
215070
179148
144878
109500
74999.2
39310
6484.07
764354
785472
677277
629274
556922
525674
482809
445421
407547
371040
334148
297040
260166
224182
180067
145888
110033
74823.5
39378.5
6176.98
859093
823004
711267
666414
592135
557939
507218
463692
421900
383040
344006
304857
266252
229722
190069
145718
110348
74991.6
39221.4
5752.45
1.05904e+06
874432
752112
695478
609715
572190
521688
473762
429510
388494
347949
307198
268478
231380
191144
146142
110142
74609.1
38733.3
5103.25
865958
801104
730174
687407
607250
574323
525433
476813
432190
390041
347878
306987
268869
232027
191533
145412
109135
73532
37612.6
4076.15
963941
810926
717993
666803
595218
560079
515395
469736
426748
383645
343195
305520
268379
231869
189947
143896
107664
72130.6
36353.9
3398.14
591502
662788
630412
614219
556087
531924
487174
445952
405197
368767
329969
295048
259040
223450
177729
142607
106352
71035.4
35514.9
2879.92
608380
588821
581143
586805
542153
525240
468312
436446
390828
357951
318387
285263
246840
212296
176158
141341
105251
70453
34731.8
2400.95
502367
515226
531981
564279
506330
501032
455302
430399
386734
354486
315841
281562
244712
210484
174460
139878
104318
69635.5
33981.2
1764.95
769165
610559
571486
559244
508529
497678
451887
427978
382523
351900
311733
278772
241782
208411
172513
138691
103208
68881.2
33403.8
1333.92
711955
567697
508000
531250
464560
475093
430653
412233
371745
342341
304798
273335
238014
205591
170492
137228
102095
68145.3
32943.3
782.285
503300
564753
533978
528873
479262
466982
423704
403610
362491
335986
299544
269507
234794
203455
168841
136149
101073
67253.8
32261.7
-21.4876
615619
484860
453209
490204
440621
443964
402376
389043
351699
329752
294923
266818
232379
201812
167227
134852
99999.7
66356.5
31455.3
-682.774
378184
491768
474336
498972
446255
447997
403031
389717
351303
328236
293636
266197
231816
201597
167068
134781
99772.7
66047.5
30964.9
-1056.75
225042
357678
362670
409824
380822
397445
372461
366029
339253
320435
291075
265539
233469
203940
170457
138776
104892
72127.9
38709.5
7181.37
329774
411185
335196
411678
373195
397691
374761
367452
341661
322030
292738
266492
234858
204908
171249
139027
105102
72227.7
38555.2
6721.56
361364
452209
413416
449289
415833
419227
391176
377769
349167
326840
296158
268919
236467
206086
172771
140100
105723
72629.8
38430.1
6512.09
314794
449770
387660
454324
410836
424366
398655
384829
356178
332117
300796
271896
238759
207640
173913
141061
106520
73102.7
38445.4
6382.34
525279
532653
487024
500410
459643
455865
421057
402760
367829
342152
307278
276936
242329
210270
175453
142654
107726
73906.9
38634.2
6363.52
154567
555352
498305
516861
471699
465943
431685
408844
376671
348201
314079
282499
247008
213358
177809
143719
108808
74447.6
38906.7
6250.56
534893
711012
604239
574566
522965
503123
457504
427921
389444
356876
320465
286089
249901
214984
179440
144922
109394
74919.8
38943.3
6074.14
837163
788740
678725
626814
556688
525359
482634
445218
407834
370898
334375
297175
260625
224559
180322
145830
109992
74801.8
39053.4
5787.84
1.04827e+06
855380
721039
668975
592012
557669
507365
463693
422009
383302
344239
304853
266565
230133
190902
145714
110437
75008.5
38948.4
5374.1
1.09177e+06
886604
750732
696006
609205
571438
521412
473293
429477
388522
347582
307174
268631
231583
191837
146273
110183
74653
38579
4794.74
842242
814689
732295
687245
607851
573607
524629
476439
432166
388849
348038
307040
268971
232104
191804
145721
109511
73883.8
37705.4
3910.75
900365
812471
713782
665247
597418
560638
516551
470907
427015
383851
343620
305779
268399
231797
189649
143970
108074
72538.1
36250.9
3146.77
702468
675663
633808
613640
557777
532168
485594
446169
404654
368545
329892
294729
258488
223048
177828
142650
106329
71092.2
35250
2453.22
635845
594262
583718
587084
542899
525209
469005
436071
391163
357939
318511
285497
246923
212753
176267
141260
105249
70518.4
34468
1897.53
522483
522866
532917
564878
504281
501652
455865
430142
387272
354405
316305
281795
245123
210666
174538
139856
104325
69769.3
33809.1
1223.87
655500
594909
574466
558817
510513
497018
452339
428078
383177
352149
312376
279040
242066
208490
172558
138659
103206
69039.4
33109.4
813.905
849167
577206
508779
532115
462718
475341
429958
412384
372346
342705
305672
273637
238226
205583
170509
137146
102083
68161.8
32688.7
421.198
495745
552741
530490
527413
478740
466686
423956
404380
362532
336063
299272
269302
234625
203204
168797
136039
101026
67215.2
32137.7
-30.378
545608
465057
452250
489609
438978
443884
402458
389958
351584
329734
294663
266632
232162
201533
167059
134758
99917.6
66280.8
31408.7
-411.017
329949
499146
471678
500609
446202
448252
403385
389884
351380
328473
293749
266144
231799
201514
167012
134734
99762.9
66036
31023
-935.775
100417
325184
357619
407372
380318
397643
372704
366370
339305
320452
290916
265465
233695
204000
170542
138706
104829
72024.5
38668.1
7209.87
286242
399890
337251
409894
372601
397804
374754
367184
341957
322125
292969
266625
235091
204981
171373
139064
105091
72127.6
38429.8
6508.3
122878
442628
397018
445357
415697
418655
391240
377552
349256
326656
296179
268821
236447
205973
172750
140110
105825
72680.8
38289.4
6151.57
262081
459148
390300
450105
409763
423853
398667
384204
356254
331694
300938
271674
238920
207540
173943
141106
106683
73246.5
38356.9
5981.08
599967
549659
485833
496475
460306
455013
420955
402342
367844
341620
307363
276710
242441
210225
175648
142610
107866
74116.3
38562.7
5907.04
241450
554699
503472
515806
473286
465691
431784
408580
376731
347855
314054
282236
246944
213313
177803
143650
108727
74571.6
38805.7
5748.7
575727
699488
608027
572764
523576
502816
457357
427703
389528
356837
320494
285988
249975
214937
179487
144920
109403
74925.2
38800.4
5624.31
806375
794503
674942
623551
556728
524949
482588
445593
408002
371030
334666
297414
260858
225007
180791
145710
109985
74891.2
38907.2
5323.16
902786
840714
720460
668345
592129
556737
507459
463652
422105
383473
344515
305320
267406
230896
191366
145716
110493
75110
38767.3
4969.49
1.13274e+06
884662
752507
695831
608825
570197
520754
472954
429511
388550
347565
307351
268871
231954
192266
146279
110205
74692
38288.9
4442.7
911379
838681
735238
687400
608213
572268
524111
476310
432215
390440
348097
307527
269249
232256
191958
145950
109645
73988.5
37489.5
3671.95
664564
812209
710729
663916
599603
560778
517210
471596
427089
384111
343920
305656
268265
231594
189435
144328
108454
72855.1
36134.4
2852.09
545690
664673
633964
612372
559431
531414
484661
446458
404471
368428
329729
294861
258102
223021
178031
142819
106478
71253.5
35044.6
2049.98
607336
593224
584031
586358
543667
524373
469355
435420
391392
358056
318973
285266
247171
213044
176346
141176
105223
70585.1
34284.1
1621.73
636096
537491
530394
564826
502687
501522
456012
430078
387334
354374
316713
282127
245690
210864
174722
139832
104363
69906
33845.2
1198.04
638738
588862
572043
557766
510831
495845
451822
427620
383261
352056
312962
279327
242543
208588
172740
138606
103278
69168.7
33031
614.958
856053
574731
512359
531366
461424
475358
428909
412553
371775
343173
305953
273761
238528
205501
170702
137122
102130
68224.6
32475
28.1221
286191
519171
521888
525448
477526
466267
423815
404265
362746
336271
299079
269244
234229
202794
168470
135819
100995
67198.7
31818.5
-429.646
551410
461103
448251
488878
436730
444193
402685
390719
352362
329879
295015
266726
232363
201554
167087
134575
99782.9
66130.1
31281.1
-627.962
365161
464032
465924
501244
446374
448476
403780
389922
351620
328739
293926
266206
231855
201481
166988
134690
99784
66072.3
31180.2
-773.871
-122465
302082
353092
404267
380051
397559
373024
366610
339436
320455
291117
265442
233972
204109
170601
138638
104775
71898.5
38601.5
7250.74
103805
377452
335882
406894
372420
397814
374983
366979
342168
322158
293052
266611
235176
204878
171424
139110
105110
72063.7
38298.8
5900.44
108495
436757
391927
442497
415759
418103
391158
377170
349390
326418
296261
268708
236465
205891
172849
140152
106006
72738.5
38275.6
5771.18
188518
460973
388197
448356
408682
423797
399136
383755
356357
331450
301042
271463
239167
207454
174055
140982
106851
73495.6
38573.4
6142.92
557922
564289
480911
494527
460324
453676
420959
401391
367759
341096
307492
276292
242579
210093
175734
142461
107910
74286.8
38736.9
6205.95
299596
556575
504610
515347
475666
465977
432463
408338
376729
347332
313960
282093
247020
213034
177777
143597
108801
74653.4
38931.7
5950.59
502660
693829
608114
571225
523876
501482
457414
427511
389539
356625
320341
285710
249960
215034
179541
144942
109465
75045.1
38970.9
5361.79
875230
805412
677845
622739
557105
524793
482727
446042
407889
371313
334740
297763
261116
225381
180714
145879
110010
75079.4
38958.8
4946.08
1.05344e+06
845801
728703
669527
592573
555264
507508
463553
422167
383485
344618
305915
267878
231334
191597
145666
110518
75142.7
38759.8
4684.33
1.21442e+06
889621
751870
695796
608585
569343
520120
472757
429472
388400
347616
307626
269186
232278
192335
146181
110180
74716.7
38180.4
4215.43
881690
870811
734640
687931
608216
571631
523905
476369
432031
389644
347843
307774
269413
232401
192131
145867
109592
73997.1
37418.8
3636.22
459445
798631
698113
661355
600473
560758
517673
471804
427105
384303
343996
305472
268061
231522
189839
144170
108456
72902.4
36197
3085.32
677626
691487
637620
612614
560224
531133
485047
446626
404684
368129
329692
294800
257904
223341
178132
142979
106564
71398.2
35041.3
2573.98
623351
598680
584495
586129
543767
522603
469500
435468
391789
358128
319591
285322
247840
213078
176461
141261
105239
70623.8
34296.4
2252.41
727838
542229
531707
565397
501733
501454
456180
430315
387035
354413
316383
282176
245778
210997
174833
139889
104405
69984.2
33962.6
1905.61
880967
612721
573654
558603
510323
494947
450828
427475
382714
351865
312893
279443
242464
208623
172731
138577
103314
69250.5
33239.1
1283.64
903466
575176
511560
531540
460729
475360
427752
412448
370656
343290
305931
273895
238497
205437
170635
137047
102136
68249.3
32510.9
359.929
278726
509559
522292
525874
476392
465957
423354
404409
362854
336524
299044
269287
234249
202708
168325
135549
100827
67064.7
31613.5
-932.466
430725
446246
445127
488853
435298
444968
402552
391107
352908
330079
295153
266707
232441
201513
167122
134500
99767
66085.9
31105.8
-1167.57
367423
461183
466198
503831
446721
448650
404258
389939
351888
328970
294079
266219
231911
201423
166993
134665
99838.3
66083.2
31155.1
-580.913
357953
388763
358627
388572
357882
388916
358191
317183
348300
318509
347538
317301
347923
318697
358195
386133
355362
389031
357924
386225
355542
317698
345099
315979
347857
317865
345367
316073
475299
519210
482437
507453
475070
519527
483114
432494
471789
438925
463714
432449
471918
438798
392893
428165
397559
421862
392986
428053
397495
353641
387449
357461
382917
353767
387339
357400
315035
347317
317079
343902
314973
347203
316881
276291
306888
277541
304930
276353
306718
277605
239301
268007
240110
266238
239400
268033
240192
203756
230916
203851
229702
204019
230954
203979
484875
527920
489128
521916
485117
527168
488582
440394
477112
442890
473844
440291
476837
442862
398722
432175
400657
429544
398646
432110
400641
358368
390356
359352
388528
358219
390255
359055
317552
348908
317325
348020
317295
348382
317172
277922
307172
278253
307225
277964
307175
278267
240423
268870
240966
268461
240487
268881
240996
204127
231858
204829
231355
204222
231928
204865
489007
518869
482956
526022
488670
519168
483359
442935
471822
439371
476900
442947
472123
439490
400673
428901
397391
432206
400597
428919
397162
358797
386529
354739
390113
358454
386220
354892
316782
344548
315072
347866
316827
344644
315416
278183
305715
277846
306931
278203
305951
277904
241030
268569
240995
268854
241052
268584
241023
204828
231933
204916
232010
204845
231963
205006
480088
503195
470359
515120
480564
503028
470627
436996
458737
427391
469342
437233
458774
427265
394433
416243
387679
426700
394406
416196
387735
353317
376968
349214
383635
353402
377063
349188
314527
338750
312665
343120
314825
338689
312691
277674
302912
276748
305435
277743
302909
276686
240933
266699
240259
268366
240986
266624
240200
204727
230640
204608
231861
204804
230608
204668
474974
519454
483140
507560
474915
519988
482911
432451
471798
438740
463686
432473
471443
438626
393075
428005
397480
421968
393179
427938
397521
353909
387303
357384
383207
354106
387280
357363
314876
347179
316831
344141
314916
347026
316821
276419
306701
277642
304779
276676
306692
277795
239435
268048
240239
266439
239747
268156
240426
204183
230977
204122
229968
204581
231150
204510
485186
526514
488338
521679
484903
525393
487794
440244
476712
442834
473400
440136
476350
442774
398633
432088
400627
429466
398654
432055
400651
358182
390215
358857
388491
358046
390749
358472
317233
348244
317219
347657
317176
347967
316848
277991
307197
278287
307163
278108
307062
278354
240526
268893
241018
268578
240677
268953
241085
204335
231947
204935
231514
204659
232007
205063
488486
519222
483486
524926
487997
519768
484133
442936
472334
439555
476520
442902
472948
439801
400566
428938
397088
432158
400647
429115
396940
358385
386141
354963
390510
358461
386083
355246
316915
344707
315553
348106
316749
344971
315904
278226
306057
277946
307051
278308
306342
278071
241072
268604
241046
268931
241129
268665
241091
204896
231977
205071
232077
204977
231987
205067
480968
502968
470761
516393
482090
503547
471083
437339
458865
427253
470671
437708
459227
427294
394415
416177
387777
426944
394510
416158
387897
353471
377132
349180
383780
353731
377306
349073
314954
338674
312732
343515
315286
338555
312753
277785
302925
276704
305740
277887
302810
276600
241013
266615
240218
268407
241037
266394
240126
204865
230609
204781
231830
204814
230406
204575
474838
519755
482805
507598
474579
519314
482492
432492
471334
438619
463652
432424
471087
438619
393236
427943
397552
422064
393320
427962
397638
354234
387299
357342
383418
354553
387376
357366
315045
346997
316845
344481
315282
347009
316988
276812
306716
277868
305185
277309
306864
278114
239873
268218
240510
267218
240305
268446
240833
204786
231234
204740
230708
205229
231554
205271
484778
524955
487636
521079
484434
524367
487314
440124
476243
442772
473029
440121
476044
442809
398683
432070
400656
429509
398733
432140
400740
379003
378497
389236
388561
379031
378530
389248
337810
337365
347968
347524
337809
337336
347859
278168
306962
278394
307296
278363
307212
278589
240747
269015
241119
268807
241003
269181
241245
204856
232040
205172
231849
205250
232168
205328
487871
519734
484306
524316
487638
519995
484728
442908
473112
439905
476316
442948
473503
440209
400691
429221
396921
432224
400751
429447
396870
380874
378463
390266
387683
379804
375630
390835
337104
338148
347377
348103
336705
338732
347847
278351
306409
278108
307306
278566
306459
278184
241157
268680
241098
269156
241265
268721
241089
205071
231980
205125
232210
205141
231937
205081
482362
503439
471100
517139
482966
503275
471059
437836
459319
427319
471457
438126
459525
427461
394559
416112
387921
427092
394719
416007
387896
353824
377374
349014
384056
354033
377494
348839
315360
338524
312758
343876
315406
338418
312438
277903
302764
276591
305719
277868
302503
275998
241025
266306
240122
268322
240937
265852
239805
204839
230333
204586
231650
204681
229967
204139
474455
518898
482392
507599
474129
518225
482092
432424
471011
438614
463586
432353
470802
438565
393342
427964
397653
422165
393317
427949
397637
354668
387388
357381
383509
354661
387359
357377
315336
347030
317038
344641
315664
347070
317252
277460
306917
278207
305826
277834
307185
278512
240426
268535
240961
267823
240771
268855
241302
205469
231680
205525
231265
205591
232030
205574
484334
524100
487253
520361
484104
523876
487183
440119
476010
442818
472795
440090
476003
442804
398734
432135
400742
429492
398676
432032
400494
357888
390491
358142
388443
357877
389917
358282
317356
347743
317258
347605
317518
347982
317896
278430
307497
278678
307560
278660
307912
278889
241104
269257
241298
269114
241379
269456
241476
205483
232223
205517
232244
205484
232393
205555
487606
519940
484834
524008
487605
520176
485018
442950
473599
440282
476352
442914
473751
440321
400689
429479
396855
432073
400367
429389
396878
358356
386217
355535
389676
358133
386225
355518
317141
345383
316082
347870
317698
345375
316047
278662
306441
278190
307770
278840
306369
278070
241314
268726
241087
269409
241451
268642
241047
205321
231922
205195
232385
205315
231890
205168
483109
502946
471016
517640
483359
502304
470963
438183
459578
427533
471830
438239
459748
427901
394770
416019
387862
427081
394933
416381
387650
354076
377561
348846
384257
354183
377469
348888
315373
338425
312363
343986
315248
338446
312039
277825
302475
275866
305506
277628
302213
275468
240902
265739
239719
268093
240800
265414
239399
204716
229889
204197
231523
204556
229689
203878
474059
517838
482008
507409
473717
517479
481868
432304
470738
438542
463207
432066
470631
438423
393306
427935
397610
422014
393218
427828
397540
354598
387342
357365
383392
354512
387282
357321
315717
347088
317311
344656
315963
347112
317431
277848
307273
278594
305994
277785
307446
278700
240810
268941
241350
267946
240833
269059
241361
205660
232070
205648
231412
205423
232090
205400
484046
523753
487178
519945
483947
523812
487224
440057
476018
442780
472674
439937
476061
442640
398629
431998
400398
429338
398520
431837
400181
357867
389871
358331
388302
357834
389739
358399
317565
348027
317875
347623
317657
348063
317850
278722
307930
278918
307767
278839
307964
278988
241417
269473
241505
269305
241455
269528
241526
205587
232419
205674
232312
205384
232439
205417
487612
520169
485029
523958
487658
520434
485050
442888
473753
440251
476404
442754
473738
439951
400265
429314
396912
431883
400034
429032
396901
358124
386244
355505
389532
358105
386257
355417
317662
345371
316019
347800
317575
345336
315953
278848
306335
278020
307732
278858
306276
277953
241463
268607
241009
269420
241456
268575
240978
205465
231873
205275
232401
205262
231862
205008
483349
502370
470995
517982
483212
503803
471225
438203
459790
428053
471619
438021
459923
428469
395001
416639
387708
427006
395089
417363
388080
354175
377445
348930
384387
354089
377396
348989
315212
338529
311967
343997
315154
338774
312021
277586
302250
275423
305450
277533
302169
275351
240766
265399
239372
268057
240746
265606
239303
204710
229687
203915
231519
204561
229789
203584
368488
368242
358322
357890
368660
368217
358196
380415
390558
378787
388601
380271
390774
379280
368938
358507
368660
358167
369298
358013
367615
378973
388580
378497
389213
378531
389232
378920
368431
357872
368119
358200
368161
358160
368476
380414
388517
390602
378391
390773
379384
380118
368859
358312
358318
368230
357945
367741
369042
327760
327109
317671
317217
327657
327103
317812
336466
347781
338332
348033
337145
347172
338658
325867
316597
328618
320404
326441
316621
328766
337823
347511
337399
347903
337349
347841
337841
327788
317260
327169
317827
327123
317877
327757
336481
348276
347666
338085
347120
338952
337175
325864
320598
316743
328768
316673
328747
326573
369364
368215
357930
357908
368649
367287
358460
376993
387732
375818
386200
377050
387694
375949
366789
356511
365518
355476
366737
356615
365629
380912
387501
378059
390174
375949
390813
379784
369402
358081
367870
357995
367405
358503
368684
377018
386231
387648
375996
387654
376010
377099
366840
355537
356656
365661
356676
365677
366849
325973
328588
316095
320790
325921
331030
315985
336346
346319
335269
345236
336197
346454
335372
326827
316771
325462
316038
326491
317038
325523
337202
348204
338086
347496
338853
347902
336989
326054
320825
328653
316251
331035
315982
326249
336466
345334
346521
335479
346536
335441
336477
326920
316067
317008
325569
317123
325550
326746
466741
492133
475451
483024
466732
492162
475485
425823
452526
434849
445461
425815
452490
434862
389850
412608
395684
407469
389887
412623
395809
352443
374520
357438
370903
352664
374574
357584
316075
336320
319721
334045
316098
336366
319827
279199
298387
282046
296981
279225
298224
282127
243140
260256
244736
260007
243156
260237
244843
207169
224035
209322
224168
207202
224055
209413
527895
562488
535377
558475
528437
562982
535950
500132
498439
511123
506550
498422
511079
500205
456260
453028
466472
463747
453023
466388
456308
414630
412201
423894
421852
412203
423857
414626
374845
372837
383945
382811
372844
383958
374829
335565
333995
344555
343774
334024
344556
335519
296135
295198
305058
304997
295025
304990
296102
257925
256999
266060
266207
257026
266097
257893
221566
220854
229456
229663
220891
229446
221539
172672
188734
174542
189634
172769
188779
174742
541279
581028
543638
572515
541219
580516
543341
510830
509145
525307
521752
509176
525233
510793
463758
462494
475275
473762
462539
475259
463787
420193
419102
430748
429595
419099
430750
420194
379386
378614
389551
388623
378570
389527
379425
338353
337971
348764
348146
337902
348713
338395
297523
297405
307756
307347
297338
307613
297550
259241
258976
268706
268440
258982
268703
259233
222417
222179
231624
231333
222185
231623
222418
173336
191103
173699
190926
173398
191146
173725
544544
569785
535337
575296
543545
569954
535043
511637
514189
526159
526820
514198
526100
511606
464474
465269
475978
477000
465286
476040
464416
421150
421550
431755
432212
421556
431762
421152
379214
379866
389722
390236
379858
389715
379218
336540
337396
347008
347988
337370
346987
336525
296896
297009
306451
306830
297082
306495
296851
259432
259467
268794
268835
259458
268781
259442
222858
222838
231975
231958
222836
231989
222849
173369
191262
173814
191460
173370
191287
173762
532139
559963
523163
559850
532267
560232
523191
499754
503311
512869
514719
503300
512926
499658
455053
457974
465675
468856
458002
465769
454967
412868
416224
423538
426600
416224
423509
412855
371365
373406
380990
383664
373411
381016
371348
332528
333285
341456
343087
333351
341509
332466
295833
296135
304641
305298
296161
304658
295815
259022
259183
267965
268351
259185
267959
259018
222764
222800
231572
231834
222818
231579
222747
174698
190113
172557
190009
174761
190071
172546
473964
485034
461677
487514
473795
484178
461405
429300
441778
422670
446163
429252
442046
422687
391742
402253
385430
405398
391707
401953
385395
353821
366260
347945
368832
353697
366115
347943
316245
329626
313819
330049
316248
329604
313792
281240
295310
279285
295234
281254
295208
279083
244517
259137
242311
259242
244514
259057
242272
208889
223330
206856
223637
208867
223303
206773
466639
491851
475457
483180
466701
492179
475467
425940
452513
434862
445212
426209
452487
434870
390008
412730
396008
407681
390043
412855
396236
352739
374649
357871
370960
353038
374775
358154
316137
336472
319936
334229
316121
336624
319953
279369
298108
282250
297078
279450
298006
282369
243145
260269
244946
260415
243143
260333
245113
207314
224088
209723
224317
207351
224121
209891
528479
563289
536316
558565
528830
563995
536675
500669
498108
511789
507498
500564
498050
512288
456082
452955
466087
463695
456122
452925
466034
414725
412300
423730
421909
414696
412327
423707
375109
373017
384010
383073
375015
373043
384021
335906
334410
344587
343981
335841
334347
344632
296136
295107
304475
304769
296115
295110
304372
258184
257194
266170
266297
258103
257284
266192
221866
221058
229408
229789
221757
221164
229424
173120
188983
175139
190530
173231
189323
175464
541134
578901
542121
572191
540693
578058
540775
510325
509369
524959
521799
510464
509423
525123
463514
462351
475118
473641
463601
462239
475007
420147
419047
430708
429480
420152
419042
430687
379165
378438
389372
388476
379206
378424
389329
337922
337633
348469
347859
338011
337549
348296
297555
297333
307465
307179
297544
297344
307454
259326
259055
268746
268502
259296
259096
268768
222514
222278
231655
231407
222483
222331
231671
173590
191280
173967
191492
173608
191514
174015
542264
569814
534945
574376
541748
569885
534902
510674
513037
525187
525267
510852
512734
524989
464554
465230
475989
476711
464562
465167
475964
421082
421523
431734
432174
421097
421506
431723
379146
379721
389748
389962
379139
379658
389795
336571
337405
347051
347910
336558
337471
347092
297154
297276
306714
307030
297090
297329
306774
259474
259492
268817
268885
259461
259503
268837
222945
222901
232047
232038
222935
222913
232057
173496
191329
173863
191691
173431
191362
173684
532617
560489
523301
560612
533032
561031
523587
500886
504103
513615
515797
500526
504478
513920
456025
458776
466642
470097
455751
459047
466996
413011
416235
423431
426800
412952
416250
423446
371667
373528
381227
383674
371571
373598
381321
332929
333747
341758
343297
332836
333887
341840
296039
296362
304811
305604
295989
296438
304862
259082
259241
267973
268393
259071
259258
267975
222847
222895
231620
231867
222850
222905
231605
175032
190071
172765
189844
174984
189965
172570
473512
483163
460954
486691
473114
483044
460406
429260
442684
422839
445970
429386
443156
423163
391697
401848
385414
404893
391688
402088
385376
353428
366130
347983
368645
353192
366280
348087
316280
329596
313772
329919
316349
329595
313714
281290
295073
278620
294847
281227
294873
278088
244483
258935
242243
258775
244450
258743
242106
208997
223246
206876
223230
208931
223063
206410
466686
492033
475406
482905
466445
492334
475227
426654
452443
434845
445244
426922
452457
434800
390119
412958
396412
407947