/*--------------------------------*- C++ -*----------------------------------*\
  =========                 |
  \\      /  F ield         | OpenFOAM: The Open Source CFD Toolbox
   \\    /   O peration     | Website:  https://openfoam.org
    \\  /    A nd           | Version:  10
     \\/     M anipulation  |
\*---------------------------------------------------------------------------*/
FoamFile
{
    format      ascii;
    class       surfaceScalarField;
    location    "6.4";
    object      phi;
}
// * * * * * * * * * * * * * * * * * * * * * * * * * * * * * * * * * * * * * //

dimensions      [0 3 -1 0 0 0 0];

internalField   nonuniform List<scalar> 
38556
(
2137.94
164.739
2690.64
1361
-207.707
984.651
850.535
-200.917
711.381
860.763
-145.778
135.55
822.17
-174.961
213.554
879.286
-196.294
139.178
929.18
-199.691
149.798
1003.52
-204.051
129.713
1079.01
-173.806
98.3169
1174.65
-178.023
82.3764
1270.88
-151.749
55.5249
1409.78
-158.301
19.3992
1553.53
-135.568
-8.17951
1667.96
-100.873
-13.5614
1661.69
-18.7716
25.0408
1571.66
39.8281
50.2096
1459.71
77.11
34.8319
1385.92
73.6543
0.140725
1334.38
60.3695
-8.83135
35.7431
-12.1385
181.11
49.86
369.267
463.39
-164.471
-325.515
409.93
-495.724
348.266
576.972
-268.959
-43.8612
573.114
-385.223
214.121
617.618
-277.577
36.7781
655.798
-278.885
41.0138
680.417
-207.578
-21.0917
738.379
-173.484
-58.2846
783.794
-134.622
-88.8154
843.185
-104.419
-106.721
888.696
-80.8884
-122.924
931.718
-55.076
-123.514
978.345
-17.4
-130.1
1036.64
26.6236
-103.692
1086.81
64.8015
-75.1427
1107.25
78.3478
-21.6742
1097.76
76.3634
6.7818
1050.72
67.2624
40.147
40.1104
27.0246
2998.49
-264.267
75.6933
2518.63
-609.217
924.607
1416.04
-315.211
922.072
1060.6
-254.739
341.229
776.78
-239.828
138.42
701.87
-190.697
-11.9689
658.089
-226.909
-8.1946
643.316
-142.808
-49.9981
664.262
-157.654
-36.7769
672.393
-101.46
-41.2923
705.574
-104.579
-33.021
727.144
-71.4985
-30.9594
757.225
-63.6285
-21.5287
783.667
-25.3508
-18.4915
813.152
6.06484
-8.9261
830.218
43.7514
3.98416
838.176
58.0871
12.3022
833.115
63.3773
18.0467
818.846
62.5079
19.0243
41.5255
6.23674
1120.7
-772.658
-2819.03
923.722
-1258.35
846.113
778.918
-604.025
433.617
782.349
-396.6
138.431
599.672
-201.371
144.219
583.933
-165.512
-9.44584
554.719
-224.337
26.6427
545.631
-121.128
-12.5918
575.574
-179.423
-8.17418
578.09
-94.2887
-9.68766
614.996
-134.307
-7.17901
632.301
-81.3408
-7.46301
664.208
-90.188
-5.34709
674.81
-27.5353
-8.41777
690.064
-7.10905
-2.08005
700.345
32.8854
0.584207
711.884
41.8388
4.70955
719.514
49.2097
6.53729
728.344
46.8061
6.87202
30.2763
1.79834
159.945
-3307.92
109.375
402.672
-1275.76
-225.312
731.5
-682.151
-250.701
774.465
-441.091
1.52642
841.421
-234.958
-33.3687
832.756
-126.573
-30.2744
802.179
-181.78
-11.9816
785.317
-76.7229
-27.5427
771.828
-156.371
-9.56236
747.177
-65.6705
-3.96668
718.423
-122.833
17.2808
686.824
-66.05
16.3084
690.954
-122.635
28.3168
696.212
-40.0571
7.26455
708.216
-24.7678
5.65463
715.65
25.2741
0.177497
725.22
31.2917
0.977345
731.568
41.6664
1.19519
740.528
36.1551
1.69053
19.9986
-0.914144
1364.08
-3722.7
-5861.99
378.591
-1074.14
783.866
825.564
-854.466
-274.659
842.163
-448.966
-8.72397
958.755
-283.679
-67.8716
1020.62
-108.965
-79.4768
1134.6
-261.543
-34.2164
1171.87
-70.7761
-43.2152
1213.66
-181.417
-16.7444
1229.82
-75.8539
-5.97263
1176.68
-110.089
40.3924
1037.89
-24.7336
97.4772
862.241
-65.4471
118.458
771.137
8.99447
42.0525
741.556
-8.07566
12.8885
733.042
31.8093
1.97869
737.836
29.8826
-3.38472
750.248
33.8114
-4.55713
775.393
16.374
-5.36402
-0.183765
-3.02726
597.25
-1686.52
3231.27
662.639
-1104.42
-35.1032
834.255
-823.931
-202.15
919.747
-483.763
-50.695
1028.81
-335.284
-57.4526
1008.51
-57.2249
-31.44
1044.38
-59.1322
23.2117
-96.8647
-64.6091
-100.024
1068.96
-43.826
10.4798
-8.98076
-42.6867
-10.3378
1120.7
-59.2921
37.0581
-76.7175
-62.1434
-72.0632
1180.41
-58.1315
21.2633
-28.3792
-50.663
-19.6598
1206.89
-47.9297
22.2257
-37.8263
-41.4669
-31.5701
1169.59
-25.2638
38.6098
8.14059
-19.8858
10.9689
1018.77
-9.04567
83.8674
11.1586
-9.08784
8.479
877.893
9.33928
82.6555
26.4356
7.00834
24.4333
817.734
20.5959
31.4869
796.968
40.7927
11.7829
798.276
29.456
-0.881181
819.003
15.867
-2.78252
856.7
-17.5574
-3.76581
-22.7672
-3.94424
799.218
-2172.02
1408.26
1171.83
-1517.5
40.4654
1089.29
-835.265
93.8744
1011.19
-488.619
82.9557
1026.08
-374.588
24.4166
245.738
-20.7881
-27.0456
249.338
237.475
241.47
41.4968
-29.5401
30.7127
234.025
-47.8405
0.420711
-207.706
222.132
-53.3667
-4.88507
-243.401
246.497
-64.0236
1.63611
-244.92
257.695
-72.7268
1.82094
-272.443
272.658
-51.4862
3.34132
-269.517
267.463
-28.9548
5.7452
-265.129
247.053
3.05149
5.97948
-230.726
216.445
15.2758
8.34486
806.738
3.59109
15.82
-210.205
-216.566
-204.455
-207.217
17.0957
0.617823
15.1766
811.868
36.7224
-1.06021
823.496
17.5118
0.316629
850.478
-14.3144
3.19911
875.066
-40.3739
-1.77137
-33.8549
-3.87051
1822.33
-1216.83
-3439.31
2389.76
-820.168
-1264.77
2129.71
-368.737
-206.48
1873.25
-211.051
-21.0999
362.508
-85.8308
80.1199
371.636
381.842
388.382
348.555
-3.40252
-3.43211
7.22887
-86.3489
80.241
-0.885252
-0.235713
-73.5162
14.0735
72.8126
-11.5997
-1.77027
-76.0236
17.6995
75.9364
-16.454
-1.15817
-75.8315
20.5083
76.2582
-20.5954
-0.339551
-78.2136
15.9007
78.8499
-16.989
0.452039
-78.7109
7.94924
76.9974
-7.92857
1.69282
-68.9792
-0.822791
66.5056
1.44496
1.85151
-61.0094
-4.1481
58.7597
5.13151
1.26635
-55.0159
208.577
12.3545
3.78954
-56.3512
-54.4043
-55.3584
838.726
38.1225
-13.3192
-205.76
-212.617
-200.641
-207.788
857.976
6.95919
-8.69737
867.469
-17.0153
-6.79275
866.281
-31.5839
-7.60136
-21.3532
-9.89693
902.402
136.356
1107.1
1071.99
-212.677
-777.079
1355.99
-168.394
-484.347
1330.54
-169.599
-16.0015
333.337
-21.3802
-25.3083
321.226
322.568
314.269
-24.6624
354.094
23.3088
-19.4037
-6.74187
-89.4012
90.2382
5.93191
-0.0269726
1.84244
-86.1132
83.3833
-0.35261
1.24008
11.378
-79.6765
79.7036
-11.298
-0.107065
16.2373
-79.3321
78.3006
-14.5194
-0.686432
12.0645
-74.3246
73.8404
-9.815
-1.76522
5.48423
-74.8392
76.045
-4.48515
-2.2048
-8.62518
-79.8716
79.6219
8.36988
0.504958
-8.02695
-75.518
72.7042
9.56215
1.27858
-61.1976
-24.3445
225.042
35.6655
6.21094
-62.337
-58.9613
-60.0785
914.679
45.8
-28.2044
-221.609
-229.793
-216.928
-225.822
924.129
20.3799
-22.8708
921.801
-3.41657
-11.2713
907.333
-11.2178
-5.89791
-2.72557
-9.50207
41.4367
-362.721
1878.94
757.3
-364.884
-563.656
1240.56
-299.404
-352.253
1207.04
-273.425
137.344
311.362
-136.291
105.02
293.169
311.926
300.478
-4.70131
327.989
-22.9365
11.0112
-2.08303
-80.256
79.5627
-1.17834
3.95466
5.28331
-76.2702
74.6545
-6.15794
2.49027
9.92405
-71.171
70.2461
-9.31023
0.311126
8.30368
-68.7779
68.7852
-7.60724
-0.7038
4.39849
-69.0732
69.1196
-3.88687
-0.558011
1.3698
-69.3648
70.2093
-0.490725
-1.72365
-6.99007
-74.3325
76.2455
7.23523
-2.15817
-12.7039
-78.1392
76.8285
13.4223
0.592223
-63.7504
-44.1367
242.917
47.4497
4.38417
-63.3517
-61.7281
-61.784
967.052
63.3559
-15.2693
-242.95
-247.288
-238.079
-241.022
957.206
42.4152
-12.1895
945.603
15.1809
-6.99415
928.323
8.89025
-2.82782
16.6018
-8.03322
1677.2
902.601
931.064
1264.84
-3.72714
51.2057
1281.33
-149.219
-166.675
1103.21
-226.405
131.093
231.438
-159.86
139.683
254.909
244.283
256.468
50.2349
235.478
-65.0884
10.814
10.9355
-69.6536
70.0474
-14.108
2.77862
6.93117
-68.4246
68.604
-7.92886
0.818326
6.7383
-68.8276
67.8336
-6.05706
0.312716
4.24766
-64.7115
64.2971
-2.57596
-1.25734
0.691021
-66.0079
66.1368
0.500181
-1.32003
-3.39317
-65.5357
64.9162
5.03061
-1.01794
-10.2858
-64.8817
65.1452
11.102
-1.07972
-15.0881
-66.1423
65.5013
15.6092
0.119846
-63.5633
-46.8615
245.349
49.0997
3.82836
-63.3209
-62.3305
-62.201
955.382
84.2888
-7.18254
-248.232
-243.842
-240.899
-236.159
944.157
59.1856
-5.54471
923.154
33.789
2.39489
896.283
31.4011
4.35936
32.4237
-0.383457
-689.184
-1139.74
150.751
542.651
-425.944
-809.618
1172.42
-268.434
-510.553
1142.3
-218.415
22.1268
1108.87
-163.882
37.4554
252.444
-324.803
-11.3616
73.5162
152.975
73.2519
148.822
252.58
245.9
245.544
11.4033
228.406
-29.7023
12.629
9.2262
11.1819
9.30024
4.16812
-196.245
186.287
-21.9049
6.09605
8.78472
4.14694
8.66635
1.08673
-220.118
217.525
-11.3719
3.16285
4.46063
0.938388
4.31603
-4.13289
-215.533
208.853
6.68262
2.17274
2.78113
-3.71769
2.8935
-7.26444
-232.035
223.843
27.7208
-0.135502
-2.70185
-6.97237
-2.45529
-10.9482
-225.026
218.156
41.2511
1.09217
-7.25874
-10.481
-6.78554
-14.405
-233.446
229.166
52.751
2.6448
-11.9354
-13.6968
-11.0785
-16.442
-235.859
234.437
52.9276
5.0271
-13.3206
-15.0664
-11.7036
949.58
124.564
5.56344
-44.8148
-24.2508
-36.8295
-18.2723
-245.913
-240.453
-237.713
-231.461
948.699
88.4523
-3.2821
922.359
80.1477
5.37825
883.223
58.9318
13.9931
840.763
59.173
14.6876
42.7964
5.53269
1133.46
-1621.15
604.113
1132.62
-508.091
82.9786
1377.39
-375.703
-137.495
1387.49
-232.839
4.3256
1329.26
-120.299
14.6408
1203.53
-165.182
-33.8858
1057.8
197.937
36.2452
6.04177
-44.8411
-5.20113
-44.4606
943.172
-139.172
0.875232
43.7052
84.5979
44.6208
80.0052
855.247
91.6214
27.5084
6.31561
-15.0143
-5.67644
-16.8294
820.85
-79.3332
22.2738
9.31791
36.3119
9.10052
36.7258
823.026
92.8683
19.8624
-27.1078
-32.7257
-26.9009
-28.1724
845.872
26.4709
14.275
-30.6209
-6.55032
-26.2624
-0.158271
874.18
118.512
17.1344
-47.2107
-40.8947
-41.8438
-34.0042
889.093
80.6025
12.4814
-40.624
-19.8353
-34.2629
-13.2749
897.599
107.019
9.03919
894.308
85.8644
5.87922
871.535
89.2116
13.7088
842.625
74.7551
13.0867
817.425
70.0064
14.3671
41.4509
6.55705
-191.757
-1461.64
3175.6
429.031
-486.343
-642.536
651.305
-409.516
-188.461
715.171
-175.903
-120.802
786.229
-106.097
-85.2597
775.88
-133.707
-21.1253
876.04
125.295
-27.5178
815.225
-83.6559
5.29809
809.217
99.7485
-2.11955
771.184
-41.4492
0.149283
768.504
86.536
9.01244
763.202
24.755
7.01767
777.528
95.1293
9.05631
783.61
66.8037
7.71757
791.021
93.3447
6.2625
793.771
76.5245
6.59033
794.197
82.5289
6.2567
793.839
69.4967
5.61607
798.485
62.0727
3.28801
30.6268
0.188418
2075.18
-1182.02
-2406.87
1665.27
65.1896
-141.622
1417.7
-55.0375
-106.913
1288.4
-4.72858
-41.8709
1084.07
136.259
-38.0222
994.146
-16.1063
-27.6802
940.71
178.442
0.289045
892.306
-14.1632
-21.0885
866.5
129.188
-3.63383
831.949
5.65543
-12.5529
816.351
101.62
0.513762
799.066
48.218
-6.17811
799.053
93.6704
1.47186
797.067
69.7767
-0.987144
800.426
87.5146
2.47075
801.011
75.3758
0.564375
803.868
79.0228
0.648977
805.864
67.9911
-0.490547
814.982
59.3005
-6.34564
27.0851
-7.95291
-19.9794
284.417
160.362
480.575
238.69
-674.055
375.169
79.6594
-29.2899
433.132
14.1757
-76.8678
623.832
69.9057
-124.346
584.705
-38.4307
61.4511
704.28
74.0327
-15.165
695.777
-20.4829
14.8226
765.557
70.8173
-11.4099
754.704
25.2839
-8.77484
783.193
78.4689
-5.33712
779.309
57.9126
-5.81056
796.879
81.6348
-5.5344
801.474
72.2157
-7.03427
814.602
81.1722
-6.78616
822.831
74.9883
-7.84077
834.484
75.2218
-7.85284
846.421
65.4883
-9.43349
867.969
49.8464
-12.0941
20.7659
-10.7122
-234.505
1488.71
1663.08
816.941
-248.94
-563.816
919.533
488.263
-511.196
926.48
135.858
-128.63
991.62
131.162
-126.397
893.104
64.9345
-4.84902
904.198
34.3931
28.5459
870.299
23.0275
-9.61177
882.127
56.7885
2.20127
870.761
55.7524
-19.1034
878.792
83.0462
-12.6083
877.211
78.8117
-19.3178
889.221
87.56
-17.9354
899.779
83.1687
-21.5108
916.547
84.1377
-19.7339
937.048
77.5042
-23.0171
965.8
68.787
-22.3166
1004.95
51.2814
-24.9448
1048.55
29.3275
-23.0778
15.3413
-16.2004
-1044.64
1690.14
-1127.75
-37.0231
-356.623
-899.929
459.463
416.714
-424.937
517.392
228.6
-150.67
648.381
181.67
-181.497
626.705
148.063
-61.4528
734.501
12.0191
-85.4218
758.537
23.3348
-24.3434
853.002
-25.6241
-12.0521
880.498
37.6612
-9.40448
924.955
57.025
-18.436
945.471
85.1756
-26.88
975.525
86.9154
-29.4092
1003.24
90.3034
-34.854
1035.99
81.8365
-30.4452
1076.06
73.4495
-36.0159
1121.59
54.8318
-31.572
1162.57
35.5792
-25.2813
1190.88
12.0066
-10.9875
1.65204
3.2125
2016.05
-2239.84
1634.75
24.6812
1690.61
360.857
1706.65
212.555
1736.26
152.06
1775.07
109.255
1684.63
102.455
1602.51
105.456
1429.55
147.336
1335.03
132.186
1276.12
115.933
1271.97
89.3262
1280.39
78.491
1311.83
58.8677
1345.43
48.2359
1395.26
23.6166
1443.56
6.52994
1483.17
-4.03315
1508.83
-13.6455
-10.6181
111.552
136.959
113.083
282.118
51.4251
762.659
693.927
-175.195
474.768
757.997
-92.5926
164.072
839.04
-134.506
267.018
931.962
-127.661
173.917
1012.02
-111.558
181.293
1108.64
-112.908
146.009
1186.61
-85.3104
105.652
1285.92
-95.2179
78.288
1372.09
-74.4253
43.7732
1475.08
-79.8567
-3.73416
1542.55
-52.7251
-22.9229
1576.98
-29.9137
-18.0767
1536.05
23.6442
42.3305
1453.66
63.3174
69.2767
1362.19
74.0095
52.2973
1299.52
53.1543
9.65136
1251
31.3418
8.35241
10.9971
1.02043
-1395.48
-267.636
2024
-478.329
-272.114
-919.127
123.901
-602.511
173.352
249.439
-258.641
-3.35024
498.939
-372.107
202.222
547.743
-205.494
65.8059
634.681
-203.751
46.2688
672.748
-136.063
-36.0037
735.069
-114.962
-90.9543
777.596
-91.6804
-134.88
825.867
-73.7921
-155.625
861.342
-63.3468
-174.91
892.591
-40.6123
-166.876
919.073
-15.0422
-171.453
941.766
22.6949
-125.436
957.495
49.8949
-77.4498
959.696
59.8155
-9.6804
946.302
52.9974
20.3323
918.787
47.2486
51.7559
28.098
26.1318
2985.77
-26.6851
1744.55
2317.27
-219.946
1540.94
1163.52
19.0208
1454.29
857.453
-135.352
524.005
622.589
-194.896
196.073
562.133
-147.303
-9.70365
554.873
-198.806
-5.88015
542.875
-115.199
-58.8627
579.663
-141.111
-47.4162
589.573
-88.5326
-54.3501
626.766
-98.2052
-45.8017
644.059
-67.3782
-44.2208
672.471
-59.1313
-31.4211
690.341
-25.7941
-25.61
713.481
0.0737322
-9.44486
728.116
32.7257
6.51884
737.45
45.1617
17.6219
738.445
48.8765
21.1721
734.832
47.778
22.1081
31.0608
5.19403
229.029
-636.097
-2435.98
367.773
-573.498
1060.92
496.799
-159.202
482.814
533.932
-218.603
184.549
427.048
-157.543
213.751
438.303
-145.322
-22.6818
461.97
-225.748
29.9178
458.191
-102.509
-21.504
500.365
-177.974
-13.4857
501.451
-82.8278
-16.4786
540.62
-133.604
-10.9483
554.07
-76.2748
-12.0161
584.799
-89.1898
-6.01816
593.421
-30.1712
-12.6626
610.265
-16.6649
-2.18508
623.105
20.7083
-0.238492
638.687
28.2642
6.02482
650.528
36.2246
7.34748
662.546
33.5578
9.07444
22.1635
1.53397
-311.94
-2322.28
-521.635
-24.2924
-923.936
-162.522
549.815
-569.706
-414.305
614.169
-366.856
85.4244
651.851
-219.808
-8.78478
629.013
-124.078
-28.6812
625.004
-222.712
-11.0086
607.152
-79.6642
-32.5354
614.785
-183.967
-11.201
596.881
-65.7469
-3.14369
597.603
-137.616
20.5706
585.027
-66.8175
19.4272
602.887
-111.572
32.8396
609.213
-38.0878
8.85497
622.148
-30.8033
6.85724
632.345
10.8673
-0.177509
644.924
14.7269
1.93505
654.417
26.5363
1.39048
665.042
20.8426
3.78027
13.54
-1.91011
175.599
-2275.89
-1687.8
221.788
-1032.5
846.241
538.449
-895.344
-265.682
642.52
-487.808
8.15703
712.746
-323.884
-34.0224
733.97
-142.128
-82.6507
843.541
-342.553
-23.9466
849.46
-77.2742
-51.5238
881.015
-208.921
-23.346
882.364
-62.2771
-10.7914
846.31
-108.66
47.4909
778.932
-12.0004
110.038
712.652
-53.4683
126.633
669.082
-0.819017
48.3541
652.474
-19.9969
18.6902
651.063
11.7394
2.51789
659.165
5.91337
-2.67421
672.568
13.2368
-4.66099
689.503
1.39432
-2.85085
-0.220891
-3.56418
591.522
-1589.77
4589.52
689.385
-1164.62
-0.848429
674.63
-855.938
-226.8
752.427
-550.055
-66.2457
824.888
-376.305
-77.4914
766.713
-80.6633
-34.73
812.274
-79.0003
17.3552
-108.537
-85.7947
-108.926
827.592
-38.0223
3.96139
-7.32219
-35.5674
-5.16221
878.508
-61.2791
29.9464
-66.5307
-61.3645
-63.5506
903.474
-38.5826
16.3406
-8.8847
-33.0092
-1.84349
894.837
-32.9901
29.0725
-22.8279
-30.3315
-20.721
850.763
-11.472
52.7354
18.3688
-8.67773
19.7283
782.584
-7.49908
99.3992
8.52117
-8.37395
6.53129
729.769
3.906
88.4411
21.2902
1.35178
19.6626
709.587
-5.09894
36.7701
705.515
13.7995
13.7946
711.942
-4.95111
3.55706
729.462
-6.50921
-0.556848
748.177
-18.4324
-2.65451
-11.6246
-4.94159
1524.38
-2747.81
287.085
1047.19
-1537.74
890.777
858.313
-800.007
226.815
802.83
-515.971
104.356
836.409
-401.873
16.4048
196.615
-29.054
-31.7695
201.011
184.292
188.32
26.0076
-29.004
22.2822
-7.08538
189.67
-65.0705
0.100507
6.81991
-166.231
183.647
-54.9685
-7.28965
-2.32192
-204.423
206.917
-63.3132
1.86177
0.196383
-203.992
214.12
-49.1263
0.219105
-1.09405
-224.918
221.685
-29.5697
0.906311
-2.84867
-215.58
212.884
-11.445
5.51719
-9.11484
-211.719
199.286
1.8549
12.1946
-15.8338
-190.941
185.017
7.88367
17.781
718.322
-4.53688
12.8126
-183.855
-189.683
-175.204
-181.262
11.3662
-6.57147
9.33179
732.174
-1.4585
0.346512
743.118
-16.0394
0.46051
760.411
-23.2698
2.66677
768.557
-27.9794
-0.370371
-15.7631
-5.22455
2257.1
-1938.23
-2910
1804.63
-1009.85
-1340.19
1419.58
-425.172
-196.267
1234.32
-314.044
-37.7661
278.17
-178.187
31.8484
278.517
252.772
249.446
-8.92415
286.749
-30.0818
1.37202
1.59853
10.6106
-73.4966
69.0329
-4.96579
-2.77968
3.4018
-60.5442
16.6617
59.7021
-15.695
-3.52633
2.03402
-61.9706
17.7746
61.9107
-17.8188
-1.92997
1.59504
-61.4251
14.6163
61.7104
-15.0239
-1.47266
0.59125
-62.4742
7.78865
62.2259
-7.69361
-0.438017
-2.10506
-59.0321
2.50234
57.4501
-1.05652
2.24125
-3.87127
-54.2734
-1.77615
52.904
2.92398
4.09285
-3.89869
-49.9162
-2.02096
48.8124
2.91632
4.10713
-48.3764
-4.56548
188.167
1.91321
3.5494
-49.405
-47.4324
-48.3869
766.062
-7.80625
-12.9088
-188.522
-197.35
-182.823
-191.43
772.425
-21.1354
-9.96423
772.528
-25.9414
-4.22373
765.369
-24.0432
-4.37866
-9.28425
-11.599
950.413
16.2401
1365.34
914.808
-383.311
-1368.01
881.991
-288.938
-587.764
883.545
-291.783
-39.8173
246.253
-165.001
-76.0783
240.964
219.628
214.285
31.4985
22.2248
262.48
-29.119
-40.8309
1.50777
2.14755
-71.7685
74.2482
-3.35536
-2.77965
-3.32721
9.3633
-72.2505
71.185
-8.37124
3.40061
-0.769628
14.7992
-68.8778
68.1519
-14.2758
0.972085
2.08547
11.8968
-65.8418
64.9935
-10.6239
-2.51008
4.92399
4.94616
-63.4826
63.2783
-4.3193
-5.3466
4.19456
-3.48794
-62.787
62.4298
3.67253
-4.02192
-1.25862
-7.97989
-60.4369
59.4226
8.74635
1.50651
-3.99719
-6.45128
-55.1166
53.7563
7.39299
4.41574
-51.8859
-5.10567
-11.775
204.855
17.4753
1.7122
-52.7606
-50.8339
-51.6812
827.19
-3.28089
-30.8854
-206.259
-214.959
-200.102
-207.714
817.368
-15.0962
-19.0887
805.902
-18.2387
-7.50723
788.823
-11.2991
-1.56377
0.433097
-9.64431
549.616
-295.551
2409.39
768.374
-440.135
-725.59
945.516
-336.09
-482.243
941.152
-279.014
128.938
263.35
-173.933
66.8613
255.306
238.845
230.742
-21.4545
37.3773
278.462
-47.4838
16.4495
-10.9231
6.11393
-73.3736
75.3344
-7.33181
10.1801
-9.51517
7.93144
-74.0825
72.6161
-7.65001
10.7001
-2.56966
11.45
-66.8672
65.3645
-10.1827
2.80507
1.71658
6.61657
-62.3344
61.4784
-5.96597
-1.51124
3.05384
2.05051
-60.8985
61.0669
-1.42195
-3.85078
5.6498
-3.98978
-62.0653
62.3957
4.37667
-6.3671
3.02498
-9.47443
-62.1003
61.5808
9.54628
-2.57731
-3.51014
-10.2872
-58.1293
56.8893
10.9713
4.06602
-55.9116
-3.74903
-19.9151
225.432
20.4641
1.14163
-56.7115
-54.9656
-55.7849
859.836
20.5738
-16.3055
-224.596
-226.215
-215.534
-216.309
839.517
4.56599
-11.533
822.162
-6.31437
-1.56273
802.192
4.06938
1.77338
12.4171
-8.19217
1169.11
774.672
263.312
1042.04
21.7601
-283.624
1080.74
-95.5098
-445.95
957.284
-162.121
137.655
228.682
-120.308
124.782
238.002
221.32
230.556
-23.1373
59.2768
230.793
-65.6529
27.4017
-10.7019
11.8024
-69.04
70.6183
-14.2846
11.6058
-6.69233
7.27255
-68.019
66.8166
-7.55803
8.18022
-1.44597
6.4415
-63.0201
61.5328
-5.09776
1.58953
2.99966
3.27109
-58.3649
57.5249
-2.10287
-3.32785
3.9894
-0.499447
-57.0591
56.5986
1.48334
-4.51275
3.10356
-5.52381
-56.3356
56.1848
5.9858
-3.41482
2.06278
-9.78522
-56.5108
56.3408
9.7195
-1.82703
-1.06284
-11.1356
-56.1793
56.3167
10.6908
1.37028
-57.7778
-5.07713
-20.4866
222.274
26.3288
5.53899
-57.5572
-56.731
-56.5122
843.727
43.6846
-4.51505
-225.325
-219.161
-215.216
-209.802
822.777
25.6633
-5.69224
799.555
16.0664
3.23642
778.632
21.6828
7.66817
21.9389
0.00559835
-10.9876
191.453
-553.926
777.157
-199.315
-1376.69
926.347
-155.613
-599.641
928.313
-149.427
7.46764
958.394
-141.021
28.0877
214.233
-317.484
-5.70868
73.8568
145.059
77.1563
143.841
212.48
203.284
200.315
7.67765
-29.8782
194.525
-11.1873
33.2265
6.5638
7.17744
6.12856
3.80503
-9.72869
-167.987
171.141
-26.3911
10.2039
7.7632
3.68524
7.50843
0.571748
-4.73597
-202.773
193.827
-0.220146
5.32608
3.8391
0.470215
3.69585
-2.33402
-2.79267
-191.029
187.815
0.929937
2.92579
3.33618
-2.16493
3.31395
-5.65838
0.310622
-209.511
200.087
22.5942
-0.14195
-1.16529
-5.47636
-1.03913
-8.20781
-2.38277
-201.825
196.329
27.6263
3.9028
-4.07793
-7.80361
-3.56112
-10.2546
-5.14334
-213.146
208.109
36
7.41845
-7.06411
-9.61554
-6.30401
-10.0134
-7.78654
-214.03
211.022
31.7096
9.25946
-5.95861
-9.16826
-5.03348
828.52
81.5517
5.66574
-27.3497
-8.52738
-23.3878
-3.50012
-219.843
-212.91
-211.286
-203.37
818.372
49.9099
0.640524
789.976
48.7689
10.6689
765.995
37.05
16.9905
744.094
40.9476
17.3241
28.3991
5.37154
477.248
121.376
-802.684
747.265
-292.473
-93.8811
1095.68
-303.841
-337.677
1110.13
-176.217
16.6645
1076.38
-106.6
13.9685
929.45
-163.384
-41.0575
838.269
222.075
42.5314
-20.4938
-45.2821
-28.4528
-42.9517
745.633
-168.623
-3.09724
51.1303
82.0952
52.44
79.5664
714.687
95.8327
26.649
-12.9835
-17.3291
-17.4082
-16.3064
701.729
-91.4599
23.6817
11.5753
38.7653
13.0664
39.6034
716.305
79.7929
17.0548
-25.1622
-22.6461
-24.7217
-19.0309
737.223
-10.3209
19.619
-19.5616
8.15247
-16.6767
12.1442
758.51
88.1634
18.789
-34.5732
-24.9853
-31.284
-20.2617
765.65
42.5685
11.8378
-25.8916
-2.67344
-22.0671
1.56701
767.853
75.8932
12.495
760.962
53.3509
9.32897
747.551
60.2738
15.615
734.93
49.4821
13.2759
726.401
47.9512
15.8925
27.5237
6.5299
-822.366
-841.656
2830.47
135.949
-313.313
-1580.01
498.115
-389.521
-464.947
586.001
-179.451
-205.454
637.368
-128.661
-114.566
626.081
-146.859
-26.3629
734.462
122.112
-35.9349
669.232
-105.553
7.45901
680.394
84.8429
-2.29181
651.937
-62.1823
-0.671283
665.865
66.0022
8.87488
665.442
-10.3423
7.46292
683.549
69.0481
10.0642
689.426
36.0203
8.38938
697.859
65.2847
8.43781
701.876
48.355
7.56881
705.447
56.6038
6.35591
709.059
45.8789
5.60797
715.108
40.8786
4.31135
18.3268
1.02034
1216.76
-1200.06
-1478.62
1145.96
114.647
-498.78
1121.64
-68.6512
-403.455
1043.81
-28.734
-114.767
909.464
57.2829
-89.6164
822.231
-57.6724
-29.6334
803.434
140.007
1.19043
750.506
-58.1317
-15.5825
741.26
89.8746
0.580622
711.965
-35.5604
-9.88013
711.674
64.4228
2.38363
701.286
0.910882
-7.04282
708.434
60.3717
2.9998
708.687
36.6072
-1.82664
715.11
58.1352
3.19722
716.851
47.7413
-0.5636
721.249
52.9235
-0.0686179
724.576
44.0624
-2.00041
731.3
35.0587
-7.24966
12.3266
-9.08647
420.331
-4.93365
-711.315
462.81
172.607
-774.494
363.705
93.0853
-91.9215
382.618
-17.9014
-106.613
458.282
-8.97519
-133.753
484.128
-87.97
65.903
617.535
9.87968
-18.4444
610.983
-61.0917
24.335
680.833
15.7601
-7.14522
670.772
-27.1192
-7.15592
703.8
31.0076
-4.94902
702.319
7.61077
-11.0298
723.253
39.9257
-6.02252
728.578
33.8646
-9.61692
742.795
44.5403
-7.40848
750.733
41.6301
-9.66767
761.3
43.6664
-9.16188
770.413
36.8272
-11.3114
781.947
24.9692
-13.5394
6.9664
-13.6709
-35.9873
937.501
48.9463
921.39
-60.9357
-1287.65
793.347
466.875
-756.942
824.635
46.0395
-223.859
848.536
38.0705
-197.344
774.418
-16.1533
-2.54746
810.453
-29.2174
31.6085
781.826
-33.4953
-8.58117
803.429
-10.4952
6.8534
795.427
-12.4703
-25.7506
810.655
18.3467
-15.175
811.309
16.5488
-28.9092
826.102
29.0274
-21.8302
835.145
29.5231
-26.2127
849.806
32.3701
-22.224
862.639
32.0657
-26.2864
878.26
28.95
-23.221
894.783
21.1009
-25.7413
909.917
9.97518
-23.218
2.95204
-18.8432
-773.105
933.333
1828.75
215.503
-454.06
-1495.41
490.289
293.314
-526.162
557.754
76.8687
-248.964
661.56
49.1452
-296.377
684.422
7.6713
-108.14
773.017
-105.468
-97.7663
785.852
-63.701
-6.97291
843.41
-69.9885
-10.1159
858.837
-10.4861
-26.8161
895.13
5.68142
-42.0629
912.151
31.3636
-58.7167
937.923
29.6986
-55.8513
957.86
34.3769
-59.645
980.641
27.562
-48.4184
1002.26
25.1521
-50.7223
1022.9
15.9247
-39.1848
1039.66
10.1603
-31.1027
1050.4
4.34198
-16.0914
6.43684
-4.4644
552.097
103.545
944.707
-821.989
1527.2
71.6749
1626.25
190.375
1684.94
142.513
1715.55
86.3187
1596.91
115.634
1516.58
122.08
1385.6
208.331
1328.09
179.21
1287.88
161.823
1290.17
118.401
1297.72
100.641
1322.46
68.5039
1344.43
53.8288
1372.41
20.78
1390.56
4.30622
1401.36
-4.66543
1402.06
-10.0071
-4.72454
710.483
1556.06
808.23
518.512
298.675
655.955
669.865
-54.6334
378.047
750.805
-67.3982
150.531
875.439
-111.95
254.335
1008.13
-96.3214
137.549
1105.56
-63.5591
147.418
1209.58
-52.4047
94.3949
1272.32
-16.501
59.4146
1345.41
-18.7649
23.9614
1385.08
3.12301
0.979209
1417.71
-3.32151
-33.0406
1407.28
18.5447
-31.0395
1377.55
30.2997
-18.6445
1303.95
68.7656
47.1642
1241.2
76.1879
55.837
1187.4
59.896
46.2047
1146.04
32.7036
18.3071
1118.63
17.4533
18.3042
5.65354
6.64967
-1375.41
168.452
3788
-592.348
-113.556
-1289.96
56.4205
-508.263
-21.7866
191.458
-225.646
19.8598
448.471
-321.916
155.176
512.423
-155.331
60.8635
617.786
-154.481
31.8272
663.157
-93.5068
-40.2722
722.381
-77.736
-88.9435
754.742
-61.5429
-124.463
787.663
-49.534
-135.889
804.305
-44.6679
-150.205
817.312
-25.7869
-135.552
818.458
-9.49175
-132.808
817.436
23.9117
-79.5596
815.762
38.4768
-38.0652
810.527
43.9548
11.4959
801.348
37.0715
25.1437
793.578
35.939
41.0396
21.7107
14.3646
988.986
-684.646
5037.04
907.284
28.8825
1480.2
570.946
36.9138
1245.45
588.012
-128.226
409.519
497.627
-175.438
139.98
463.249
-123.548
-7.10843
485.697
-177.72
-5.08985
474.119
-95.4654
-45.3264
515.637
-127.555
-39.1147
519.882
-76.1472
-43.9907
553.765
-91.359
-37.8605
562.553
-60.5787
-37.0981
586.487
-55.0395
-26.1023
596.112
-23.8572
-20.8696
616.06
-3.02694
-2.45384
628.767
24.4722
7.81585
640.797
34.1595
15.3877
646.15
37.3713
15.5188
650.491
36.7384
16.9685
23.6115
2.54446
-1291.71
-1468.42
-1815.89
-248.933
-546.479
593.507
197.702
-121.093
194.186
288.411
-207.154
172.767
310.567
-160.751
176.907
334.483
-142.152
-27.9936
390.647
-226.92
22.9544
384.763
-93.0992
-17.9863
433.785
-178.433
-11.6297
432.532
-77.5088
-13.8633
473.101
-133.914
-8.96307
482.61
-70.7949
-11.3089
512.373
-86.3649
-4.45537
518.95
-31.0961
-12.0008
536.52
-21.0217
-1.76
550.093
11.566
-0.905778
567.362
17.4197
5.49552
580.664
26.1616
5.25476
594.601
23.6605
8.21596
16.4495
1.53271
-65.4442
-1276.64
-461.239
78.679
-914.095
60.9717
436.249
-486.595
-406.372
489.079
-316.52
141.961
522.915
-207.175
3.80198
487.971
-120.901
-14.9882
502.874
-245.686
-7.14582
476.694
-77.0711
-22.3831
494.743
-198.25
-9.43356
477.79
-62.5938
-1.10543
497.173
-147.142
14.415
496.426
-63.3481
12.7275
523.034
-102.857
22.7241
531.515
-35.8645
5.14296
547.663
-35.5905
5.27707
559.164
-0.109805
-0.00184435
572.924
3.22954
2.36461
583.043
16.7828
0.650157
594.057
12.1888
4.23834
9.90452
-1.72612
-603.826
-2226.47
-4420.22
-50.8855
-1123.51
502.71
344.01
-872.754
-274.418
446.608
-466.233
55.271
533.335
-318.522
-9.40151
533.925
-146.57
-57.5722
652.038
-375.887
-11.8577
628.27
-64.2611
-40.5658
646.216
-219.426
-20.1167
622.003
-41.268
-7.90408
602.267
-115.864
35.9496
582.94
-9.89845
75.9156
583.22
-60.7793
84.2751
573.749
-9.70661
31.6672
572.079
-28.2126
12.9822
576.362
-3.78423
1.90888
585.912
-8.94743
-0.0468939
598.376
2.5924
-2.93493
610.605
-3.85498
0.963402
0.859004
-3.01989
470.574
-1154.24
-78.0324
494.487
-939.389
-208.877
551.245
-815.561
-340.752
621.676
-553.65
-49.2601
677.584
-377.203
-74.7178
593.479
-82.1034
-15.0921
637.953
-92.9253
6.61587
-110.135
-98.1225
-108.438
632.159
-28.0855
-8.39415
2.57268
-24.7015
4.10293
668.936
-60.8293
14.4014
-60.1238
-61.6914
-58.0139
664.227
-24.4925
5.59872
8.40368
-20.5752
10.8467
649.188
-28.4777
23.5469
-18.868
-29.023
-18.9305
621.242
-5.42448
40.1384
20.9918
-5.09056
20.1676
613.694
-11.2352
70.0187
1.7931
-13.4366
-0.972202
608.987
-2.43716
58.6788
16.223
-4.14134
15.1186
614.627
-24.2727
27.19
621.682
-6.01732
8.97304
630.106
-15.9357
2.12112
642.752
-10.5823
-0.0283872
652.087
-15.4367
-0.407068
-5.0614
-4.69768
641.742
-1111.42
1173.87
778.783
-940.974
755.322
656.229
-697.26
231.069
644.142
-536.151
98.9437
694.037
-417.541
6.84757
156.87
-28.0858
-14.8782
159.398
145.764
147.472
21.5773
-27.8309
19.8783
-0.831972
151.508
-82.197
-4.53519
7.5072
-128.971
146.729
-48.9048
-4.44612
-0.635312
-167.034
166.992
-59.5001
-0.651481
0.704357
-161.548
168.554
-32.7687
0.566126
-0.407103
-177.405
171.101
-22.4491
0.682328
-6.70473
-162.305
161.163
-5.4696
7.89169
-13.6314
-163.534
158.062
-4.39776
12.2657
-16.729
-156.04
156.732
-0.589774
14.1892
637.104
-10.0174
2.09952
-159.215
-166.643
-151.408
-158.958
4.45674
-11.7759
2.8973
650.221
-19.2891
0.501727
657.266
-22.363
-0.157185
668.445
-21.545
2.4505
670.016
-19.0789
1.70012
-6.27663
-5.26127
2350.92
-492.482
1396.6
1340.65
-539.4
-731.49
1073.23
-380.274
-245.835
927.191
-358.034
-69.8422
210.676
-236.054
-18.5322
204.635
193.922
186.851
-4.00253
217.893
-33.1567
1.85667
2.11548
16.0655
-57.2087
53.1522
-10.9714
-3.15301
2.98848
-46.3169
17.936
46.3235
-18.2516
-2.67946
1.70897
-49.9978
15.9423
50.0438
-16.1938
-1.50346
1.60247
-48.9344
10.3639
48.8928
-10.6132
-1.31159
0.287397
-49.0484
4.88841
48.3564
-4.36466
-0.119136
-2.17907
-45.1673
1.29869
44.0394
-0.166578
2.17479
-4.04332
-43.2868
0.147918
42.4865
1.11283
3.58288
-3.59882
-42.0072
0.592907
41.7115
0.134366
3.16725
-42.9492
-2.43114
169.554
-6.20642
1.18871
-43.98
-42.0987
-43.0943
678.416
-24.226
-7.7175
-169.155
-178.103
-161.713
-169.7
678.501
-27.3852
-5.0273
676.632
-23.2039
-0.695644
669.728
-16.5579
0.00505304
-3.08523
-9.48855
1273.73
-229.678
-414.421
788.227
-430.357
-991.547
715.124
-350.473
-544.462
688.154
-330.193
-40.6878
181.331
-215.565
-88.8916
175.079
165.348
158.72
34.3131
32.9287
193.765
-49.6549
-30.0203
1.73
7.53441
-55.2389
57.3902
-9.52629
-1.88947
-2.85448