/*--------------------------------*- C++ -*----------------------------------*\
  =========                 |
  \\      /  F ield         | OpenFOAM: The Open Source CFD Toolbox
   \\    /   O peration     | Website:  https://openfoam.org
    \\  /    A nd           | Version:  10
     \\/     M anipulation  |
\*---------------------------------------------------------------------------*/
FoamFile
{
    format      ascii;
    class       surfaceScalarField;
    location    "6.4";
    object      phi_0;
}
// * * * * * * * * * * * * * * * * * * * * * * * * * * * * * * * * * * * * * //

dimensions      [0 3 -1 0 0 0 0];

internalField   nonuniform List<scalar> 
38556
(
2035.71
366.005
1826.43
1423.3
-142.98
755.383
885.103
-156.662
694.863
879.611
-113.466
118.958
825.924
-158.54
212.227
871.843
-185.355
139.436
911.815
-190.704
150.732
979.566
-198.589
130.837
1048.66
-168.103
99.0052
1140.7
-174.629
82.5895
1233.39
-148.288
55.6018
1370.55
-156.165
19.0002
1511.71
-132.693
-8.462
1622.35
-97.6877
-12.9573
1610.96
-14.9951
26.3867
1518.37
42.2584
50.3333
1405.85
78.2176
34.304
1332.26
74.0144
-0.426468
1280.59
60.4738
-8.80061
35.5814
-12.2095
222.949
-342.694
-807.712
573.993
-99.7027
-394.321
459.002
-428.346
386.677
611.53
-219.159
-46.8356
585.008
-341.847
209.829
612.668
-249.227
36.2113
639.178
-257.554
40.3404
655.104
-192.228
-22.2862
707.039
-161.37
-58.668
747.449
-125.763
-89.2756
802.959
-97.0407
-106.758
845.738
-75.4093
-123.534
886.31
-50.0539
-123.212
930.745
-12.1032
-130.019
987.454
31.121
-102.826
1036.29
67.3971
-73.9784
1055.06
79.8984
-20.4489
1044.45
77.0815
7.54227
996.546
67.5155
40.8652
40.2892
26.6106
3284.09
104.949
1288.57
2562.49
-540.756
1162.65
1409.03
-186.065
911.176
1050.53
-194.067
333.405
760.32
-190.068
138.434
680.155
-154.126
-14.936
632.791
-202.096
-8.09369
611.887
-120.683
-50.6424
629.375
-142.321
-36.5363
632.789
-87.5264
-41.6518
663.459
-94.635
-33.0753
682.194
-62.7607
-31.383
710.552
-56.6537
-21.7585
735.219
-17.5006
-19.2696
762.479
11.9577
-8.09643
778.622
46.7466
4.50685
785.472
60.2211
12.8278
779.427
64.6342
18.4918
765.221
62.7568
18.9654
41.2216
6.5144
1158.83
-910.442
-2286.8
940.279
-1145.11
822.908
786.086
-484.248
452.376
790.1
-327.188
129.108
590.789
-130.39
139.632
566.728
-115.575
-14.4902
530.002
-190.907
25.5369
512.632
-88.9815
-14.3314
539.22
-160.534
-8.37471
536.328
-74.1717
-10.4628
571.395
-122.413
-7.28917
585.7
-69.178
-7.88752
616.56
-81.846
-5.66774
625.27
-16.8844
-9.32606
637.951
2.70434
-3.4272
647.917
36.4896
0.290663
658.584
44.1767
5.37781
665.31
50.4432
7.46481
674.428
47.009
6.63036
30.0846
1.05481
293.78
-2811.61
633.679
407.64
-1028.67
-230.305
705.35
-541.019
-240.939
745.914
-359.782
-7.96872
810.576
-159.479
-35.5731
796.339
-63.2953
-38.0422
764.745
-146.015
-13.2972
741.526
-33.7256
-32.037
728.387
-137.901
-9.49421
699.393
-39.7857
-5.39188
670.316
-110.779
17.442
636.582
-51.3249
15.8812
640.428
-114.173
28.4803
644.835
-29.199
7.90757
655.792
-13.2306
4.97769
662.292
29.2178
0.771965
670.904
33.6145
1.95089
676.456
43.0741
1.81672
686.031
36.6817
0.752178
19.6945
-1.34799
1301.71
-3321.21
-5459.54
307.663
-828.538
793.918
785.601
-707.422
-311.536
806.673
-360.76
-20.0943
923.243
-209.067
-66.9821
985.427
-43.817
-81.663
1095.92
-223.086
-33.4212
1131.59
-23.4638
-45.931
1169.91
-160.159
-16.068
1184.1
-49.6789
-4.29348
1127.35
-96.0356
42.0036
983.806
-5.16067
97.3845
806.971
-55.6244
118.287
717.092
18.6841
41.9955
687.059
2.36806
14.4337
678.665
34.847
2.76469
682.787
31.8268
-2.33408
694.583
34.8038
-3.52538
720.351
16.2508
-5.33649
-0.501033
-3.25331
242.962
-2041.53
3299.73
507.744
-1107.94
14.6169
750.51
-746.604
-203.584
860.195
-413.303
-57.1426
977.593
-269.303
-57.1628
952.93
14.4493
-33.6027
992.532
-48.8444
23.755
-89.7962
-54.905
-92.8975
1018.44
-33.1359
7.83532
4.5213
-31.7711
3.18293
1070.33
-54.0407
38.4223
-72.3206
-56.7277
-67.3872
1132.15
-52.3121
21.7866
-22.8236
-44.4037
-13.741
1154.27
-43.737
24.2575
-34.0643
-36.9846
-27.6346
1117.04
-19.815
40.1787
12.6194
-15.6735
14.7655
961.931
-5.12214
85.4275
13.4569
-5.44787
11.167
821.339
12.8992
82.4674
27.4817
10.8827
25.5453
762.967
27.1418
33.5975
741.488
43.9812
12.3448
742.279
31.1687
-0.132776
762.505
16.5338
-1.95557
801.272
-17.7315
-4.78514
-23.4788
-3.87448
802.875
-2332.04
2743.7
1017.83
-1505.13
182.232
972.277
-803.492
102.443
921.88
-432.705
69.799
953.118
-321.231
20.6895
231.503
-0.243697
-36.0738
235.929
223.097
227.865
52.8058
-9.25977
41.946
218.21
-36.1561
0.604824
-192.389
206.738
-42.5877
-4.89729
-231.557
233.056
-57.5633
2.02325
-231.916
243.826
-66.3208
2.09806
-260.083
258.474
-46.115
3.98667
-256.022
252.755
-23.0825
6.53363
-251.864
231.673
8.52162
6.54645
-216.841
202.063
19.1346
8.54252
749.945
7.7538
13.3061
-196.634
-202.416
-190.805
-193.04
17.8542
5.11861
16.0594
755.545
38.4344
-0.0537876
766.933
19.9068
-0.125846
793.815
-11.9418
1.59399
819.033
-40.392
-2.5581
-34.2765
-3.92494
2026
-948.46
-2662.22
2402.27
-812.553
-1068.84
2052.35
-334.317
-119.254
1789.54
-164.539
-5.35933
340.616
-16.6692
71.3191
349.364
358.683
364.995
327.805
15.844
-3.27742
5.00996
-81.7336
75.6141
2.00815
-0.89859
-69.1569
11.5104
68.455
-8.9146
-1.89382
-72.4194
16.2504
72.062
-14.7255
-1.16756
-72.2271
19.3869
72.4341
-19.2919
-0.301969
-74.7121
14.8934
75.0928
-15.8349
0.560695
-74.9322
6.77152
72.8757
-6.57992
1.8649
-65.0823
-2.25921
62.5989
2.88895
1.85372
-57.3303
-4.82476
54.9669
5.89379
1.29435
-51.457
193.827
15.6338
5.05995
-52.7443
-50.8262
-51.739
782.07
40.003
-13.0929
-191.804
-198.465
-186.651
-193.626
800.888
11.3576
-10.269
809.903
-14.3506
-6.60628
809.018
-31.7038
-7.80299
-22.0669
-9.27491
844.327
60.7716
618.893
1035.54
-210.547
-793.22
1284.81
-124.911
-458.672
1247.06
-109.932
-16.8629
312.931
50.1674
-28.5964
301.988
300.766
293.139
-34.2003
334.949
33.2306
-21.0485
-8.66127
-84.6706
85.5291
7.84651
-0.0437643
-1.27076
-81.8421
79.0962
2.76577
1.25082
9.99474
-75.6694
75.8313
-9.99056
-0.166098
15.1618
-75.5052
74.476
-13.4142
-0.71835
11.095
-70.4929
70.0159
-8.80383
-1.81424
4.26013
-71.066
72.345
-3.08879
-2.45032
-9.23241
-76.2618
76.0177
8.92293
0.553621
-8.30784
-71.8083
68.9969
9.77815
1.34114
-57.4434
-25.791
210.635
36.3548
6.26781
-58.4928
-55.2441
-56.2859
857.525
46.4612
-27.4491
-207.444
-215.116
-202.781
-211.193
867.311
21.749
-20.1774
863.813
0.0723143
-10.925
849.404
-11.0279
-6.26703
-3.11107
-8.9637
221.236
-209.263
786.834
745.695
-178.724
-556.282
1185.38
-222.231
-342.362
1137.03
-214.539
152.956
291.315
-53.3533
109.294
271.295
290.073
278.57
-17.6244
309.346
-9.69839
9.29198
-4.61691
-75.6709
75.0786
1.62615
3.58298
2.18723
-71.876
70.3887
-2.90222
2.20231
8.53486
-67.1748
66.2974
-7.96459
0.307099
7.08835
-64.8398
64.8493
-6.33454
-0.763287
2.81578
-64.9005
64.9776
-1.99203
-0.900773
-0.267281
-65.5775
66.4938
1.10335
-1.75237
-7.45871
-70.8407
72.7475
7.671
-2.11917
-12.9388
-74.4802
73.0522
13.661
0.705736
-59.9098
-44.3288
228.433
47.0837
4.18135
-59.4939
-57.9785
-57.9869
909.005
63.9509
-16.3007
-228.315
-232.323
-223.487
-226.07
899.147
42.1296
-10.522
887.391
15.0326
-3.20447
870.495
8.31629
-2.44864
15.7937
-7.08192
1496.85
1075.99
123.669
1178.26
147.509
-7.63672
1209.52
-59.7968
-193.696
1016.67
-157.832
136.144
206.253
-84.8419
151.473
235.023
219.5
235.907
41.7211
216.113
-64.083
12.5017
8.48556
-65.0694
65.9531
-12.4402
3.07096
4.92013
-64.234
64.6692
-6.12883
0.773499
5.28416
-64.9594
63.8822
-4.57166
0.364681
2.46273
-60.4041
60.1974
-0.915738
-1.34024
-0.877422
-62.0306
62.2986
2.02812
-1.41869
-4.1008
-61.907
61.3439
5.56002
-0.896114
-10.5901
-61.2096
61.5366
11.3257
-1.06249
-15.2968
-62.4277
61.8115
15.7544
0.158661
-59.7137
-46.2787
231.499
47.2642
3.4935
-59.4226
-58.516
-58.3256
895.803
84.2897
-8.2419
-233.185
-228.302
-225.855
-220.558
885.43
58.1006
-5.59761
864.563
33.3351
2.56447
838.505
30.8892
3.48492
31.7604
0.295518
-720.599
-1215.57
-352.814
583.251
-251.475
-904.866
1152.41
-154.881
-474.075
1093.54
-121.943
22.9787
1049.79
-87.9025
46.816
234.731
-317.766
-12.2261
72.678
155.561
72.2901
151.332
236.43
228.022
228.734
10.3667
212.971
-23.6064
13.9628
5.36611
10.119
5.55195
3.5
-176.965
170.855
-19.6514
5.07262
6.93026
3.39275
6.8657
-1.26432
-204.885
203.267
-3.83758
2.81063
2.69038
-1.39933
2.61794
-4.73828
-199.004
194.231
8.75962
2.48809
1.27572
-4.45691
1.4451
-7.25184
-215.466
210.003
27.8802
-0.0186718
-4.19363
-7.0178
-3.93438
-10.7972
-209.609
204.42
40.6175
0.834154
-7.77769
-10.3725
-7.31526
-14.3038
-217.763
214.81
51.8807
2.26688
-12.0518
-13.6258
-11.2129
-16.2813
-220.478
220.461
51.3162
4.82059
-13.2491
-14.9232
-11.6665
889.843
124.809
4.77892
-43.5411
-25.8759
-35.7074
-20.4224
-230.903
-224.756
-222.647
-215.579
889.649
87.8321
-3.34831
863.509
79.9266
4.31409
824.217
58.6399
13.9874
782.218
58.3566
14.5314
41.9287
6.3102
1137.73
-1450.14
-718.643
1170.21
-337.243
53.2865
1372.25
-227.365
-129.555
1355.74
-109.079
3.6387
1286.56
-34.8245
16.1052
1129.11
-122.34
-37.9769
996.486
220.549
43.851
-8.68326
-53.6105
-16.2699
-53.2113
871.955
-113.967
-2.88364
42.4706
80.2902
43.2051
75.4156
794.566
110.79
32.3671
-3.13645
-24.7496
-11.6722
-26.2097
757.142
-55.2133
20.9029
6.41615
29.3014
6.00776
30.0099
762.961
100.711
19.9801
-28.2927
-37.1967
-28.1038
-32.9162
783.718
37.0326
18.1244
-30.3607
-13.1726
-26.128
-6.25372
813.523
120.516
17.2269
-46.8834
-42.8179
-41.5793
-36.2671
829.406
81.6982
14.5972
-39.5405
-22.585
-33.2885
-16.7641
837.601
107.234
9.3796
834.642
85.6162
5.17463
812.11
88.895
13.5631
783.031
74.1279
13.5917
758.418
68.8503
14.1192
40.1959
7.14715
-589.002
-1279.77
1940.61
215.828
-266.592
-875.481
562.296
-333.59
-240.243
646.274
-58.1275
-134.929
736.549
-26.7529
-98.3468
714.883
-84.3262
-16.3479
816.724
142.907
-24.1982
746.85
-48.7673
4.67459
746.189
110.969
0.482122
705.926
-15.1511
0.20077
705.118
91.0331
10.4854
701.125
32.3935
8.63271
715.825
95.6922
10.1235
722.401
66.7498
8.37292
730.337
92.9646
6.33309
733.809
75.8918
6.25268
734.658
81.9219
6.12363
733.744
68.6442
6.3976
738.953
61.3913
2.25002
29.5971
-0.155278
1809.7
-1024.38
-2692.48
1597.43
212.576
-266.896
1314.72
68.7412
-119.622
1219.44
87.147
-49.9908
1023.33
195.379
-26.0243
928.906
33.1744
-23.0772
871.436
196.12
4.25712
822.816
10.5946
-10.7413
797.318
136.501
-0.0352645
766.271
21.3636
-5.46703
750.918
103.027
3.35915
736.596
50.9715
-4.25617
736.9
92.7108
2.67734
735.938
68.6699
-0.958141
739.818
86.4407
2.64405
741.029
74.4386
0.241457
744.047
78.0861
0.817671
745.767
67.1112
-0.186264
755.197
58.4426
-6.481
26.0362
-7.77053
-456.104
49.1947
-409.046
217.851
262.841
-724.22
206.16
113.498
-33.0665
301.923
61.6798
-70.2954
531.073
98.6284
-132.399
503.247
0.75477
60.2459
628.505
85.6727
-14.8104
625.397
1.24523
12.4573
695.551
72.2021
-5.85509
689.774
32.8173
-5.6763
718.825
76.8477
-2.87171
717.497
56.6906
-4.39175
735.402
79.6511
-4.84469
740.993
70.5871
-7.50805
754.404
79.73
-6.70089
763.189
73.865
-8.21124
774.993
74.1247
-7.84228
786.766
64.3691
-9.03129
808.599
48.4925
-11.8826
19.4183
-9.78875
-487.717
1923.86
137.481
658.223
-149.751
-733.348
788.897
549.799
-566.976
824.755
167.238
-141.416
898.979
155.013
-130.608
815.356
83.2425
1.13541
828.376
43.5543
29.0982
800.185
31.8664
-2.43025
812.591
58.7295
1.06687
806.411
57.507
-18.5101
814.968
82.0462
-13.7553
816.159
78.3563
-22.8568
828.817
86.3831
-19.3891
840.356
82.3544
-23.3069
857.311
83.0545
-20.2795
878.49
76.4984
-23.8121
907.806
67.2363
-22.4282
947.254
49.5235
-24.6015
990.56
27.5485
-22.3622
14.1178
-14.8806
-1487.1
1318.06
-1304.03
-237.721
-378.934
-1020.19
299.245
439.433
-426.601
383.262
236.242
-153.021
542.503
187.858
-192.086
534.17
154.854
-63.2782
658.309
16.792
-97.3766
689.054
27.1838
-26.0624
788.655
-23.3512
-17.52
817.555
39.8602
-11.2539
863.184
57.4
-20.9821
885.206
86.0511
-29.7166
916.141
86.933
-31.4857
944.896
90.418
-36.8184
978.365
81.3066
-31.7208
1019.08
72.9065
-37.1249
1064.67
53.7792
-32.1272
1105.32
34.4535
-25.5864
1132.5
10.7645
-10.3982
1.23189
3.08884
1848.34
-2222.57
1469.96
-0.551789
1587.15
322.239
1612.96
210.436
1654.38
146.433
1703.53
105.708
1615.06
105.258
1536.42
105.822
1363.48
149.59
1272.56
130.779
1215.3
114.661
1213.19
88.1665
1222.23
77.8898
1254.95
57.6935
1289.02
47.2421
1339.34
22.5874
1387.15
5.96462
1426.16
-4.55113
1450.71
-13.7864
-10.0468
388.363
529.481
-46.7241
406.186
178.481
559.08
738.865
-122.267
484.451
778.634
-63.1908
142.379
843.523
-117.777
265.116
925.221
-116.034
173.772
994.84
-101.835
182.948
1084.92
-107.199
147.959
1156.13
-79.3242
107.118
1251.99
-91.5965
78.3228
1334.17
-70.6618
44.0902
1434.32
-77.4197
-3.72961
1498.21
-49.5868
-22.7741
1529.59
-27.011
-17.3177
1484.92
26.6186
44.4362
1400.73
65.0991
69.4185
1308.84
74.6012
51.6
1246.17
53.1392
9.09635
1197.29
31.391
8.69736
11.0598
0.607841
-1454.16
-145.641
2482.79
-422.808
-220.225
-1026.97
179.845
-544.365
206.122
290.118
-210.16
-10.1387
511.12
-327.768
198.819
543.123
-176.069
64.2431
618.536
-181.749
44.8411
647.679
-120.206
-38.4218
703.802
-102.334
-91.7806
741.211
-82.5297
-135.752
785.444
-66.1063
-155.546
818.24
-57.7388
-176.011
846.735
-35.3011
-165.992
870.704
-9.64015
-171.36
891.705
26.9689
-124.177
906.384
52.3045
-75.8625
907.288
61.3635
-8.1149
893.1
53.7933
21.0757
865.116
47.6672
52.5727
28.166
25.573
2982.49
200.525
1951.45
2358.94
-57.6807
1623.66
1161.94
162.587
1401.22
848.045
-57.6779
494.822
607.973
-141.958
192.696
540.784
-108.711
-15.1053
530.574
-173.163
-6.46951
511.594
-91.8275
-60.0412
545.383
-125.376
-47.2837
550.162
-74.0001
-54.9602
585.046
-88.0494
-46.0166
599.175
-58.4647
-44.7862
625.923
-51.9261
-31.8814
641.854
-18.2081
-26.6328
662.484
6.96758
-8.72533
676.166
35.8935
7.23579
684.52
47.3852
18.4522
684.757
50.1613
21.887
680.858
48.1048
22.4272
30.899
4.7423
206.825
-731.366
-3621.66
378.707
-440.786
1034.13
497.418
-2.24067
498.492
544.877
-138.984
162.955
420.84
-85.4005
207.112
421.876
-92.4459
-31.7914
438.464
-192.431
28.2171
425.26
-67.0025
-25.9518
464.387
-159.099
-13.7792
459.534
-61.9705
-17.639
497.059
-121.734
-11.1296
507.468
-63.9405
-12.8209
537.121
-80.9333
-6.31314
543.79
-20.4158
-13.7874
558.706
-7.3076
-4.06814
570.681
24.5628
-0.352906
585.549
30.7523
7.14223
596.706
37.5919
8.87733
608.305
34.0174
9.11912
22.0932
-0.207412
-173.961
-1818.33
782.506
-64.72
-699.197
-81.1355
516.885
-429.704
-395.08
587.852
-285.323
67.4037
622.005
-146.926
-8.20107
593.301
-63.2506
-38.5342
588.643
-188.504
-12.5661
563.883
-37.8347
-36.4449
572.62
-166.206
-11.1245
549.642
-39.1491
-5.23468
550.663
-125.952
20.6382
535.403
-51.7174
18.9184
552.8
-103.002
33.1513
557.576
-26.7223
9.43817
570.171
-22.4266
7.50201
578.943
15.6509
0.912289
590.73
17.3759
3.53951
599.707
27.9733
2.45929
610.117
21.2853
3.07392
13.262
-2.84127
137.871
-1886.93
-2384.58
215.436
-799.548
816.705
511.885
-745.373
-292.316
610.965
-400.208
-4.28991
678.095
-253.297
-27.7394
697.435
-77.2818
-86.9717
804.192
-306.553
-22.1289
808.525
-35.4307
-52.6681
837.042
-188.274
-22.5174
835.871
-30.2763
-11.9958
797.359
-94.4986
49.062
726.238
7.29653
109.492
658.489
-42.7548
125.789
615.12
11.4056
47.2363
597.906
-8.30484
17.5263
596.711
16.1685
3.44185
604.172
9.53548
-1.95433
617.044
14.6006
-3.02444
633.925
2.34038
-3.2733
-0.465913
-4.20122
233.781
-1501.97
4120.19
540.607
-1132.12
40.3656
595.558
-775.823
-228.085
693.441
-479.005
-76.2284
773.67
-314.427
-76.2629
710.634
-9.22624
-38.6222
760.402
-69.971
17.5999
-101.358
-77.1071
-101.73
776.696
-27.1574
-3.68179
5.83004
-25.8215
6.94062
827.66
-55.746
30.6995
-61.5869
-55.76
-58.422
854.105
-31.2309
12.1185
2.06594
-25.3086
7.4208
841.126
-27.9034
30.8589
-18.7531
-24.9526
-16.5119
797.792
-6.07268
55.2164
21.5635
-2.67724
22.779
726.391
-3.56491
101.705
11.0949
-4.44479
9.28321
674.249
8.52118
87.439
22.5394
6.54708
20.9682
654.251
6.57112
38.7195
650.075
18.7235
13.9661
656.005
1.37968
2.09372
672.625
-2.57925
-1.39627
692.245
-18.3787
-3.6865
-12.1628
-5.03563
1367.95
-2907.16
617.212
882.948
-1532.96
1068.07
747.059
-766.924
229.433
717.685
-465.714
85.8825
765.036
-354.094
13.0066
182.426
-12.5184
-40.007
187.473
169.748
174.341
37.9951
-14.1036
34.3805
-7.2638
173.648
-54.6402
0.711562
6.44196
-150.838
168.377
-44.5946
-6.54458
-3.12064
-192.204
193.082
-56.4403
2.9367
-0.318617
-190.527
199.814
-41.5878
1.3877
-1.95413
-212.536
207.432
-22.7485
1.90366
-3.07638
-201.759
197.989
-5.33092
6.10506
-10.1442
-198.346
183.81
7.40658
13.7086
-16.3065
-177.148
170.751
12.4399
18.7853
662.21
-1.88999
13.0287
-170.042
-175.298
-161.373
-166.865
13.0595
-4.09751
11.1454
675.465
6.86183
-1.44711
686.13
-8.6387
-0.772373
703.613
-21.591
3.12279
711.775
-27.6697
-1.42905
-16.2611
-5.45851
2323.55
-2089.35
-956.447
1741.13
-1018.84
-1000.54
1331.66
-392.44
-84.2665
1155.15
-274.168
-20.3914
256.799
-127.887
26.7333
257.426
231.093
228.208
-7.1033
265.744
-13.1083
-1.25125
2.36627
7.88777
-68.9184
64.3298
-2.27877
-3.38662
3.77597
-56.2385
14.3878
55.2848
-13.3309
-3.87926
2.05306
-58.2626
16.2133
57.9559
-16.0176
-1.94202
1.5657
-57.6693
13.1558
57.7468
-13.383
-1.41594
0.3648
-58.808
6.33066
58.2795
-6.01336
-0.15359
-1.90297
-55.2545
1.14956
53.2025
0.755629
2.04973
-3.98311
-50.4017
-2.91191
48.9885
4.05287
4.25541
-4.01137
-46.1891
-2.94001
45.0236
3.84218
4.27472
-44.8756
-7.13827
172.991
6.38859
5.29969
-45.8398
-43.9148
-44.8007
708.598
1.99333
-13.8893
-174.382
-182.962
-168.621
-176.969
715.041
-15.8988
-9.45179
714.597
-24.4033
-3.35029
707.45
-23.7802
-4.5449
-9.67744
-11.3035
925.498
-83.6082
2551.07
830.984
-393.675
-1323.87
793.876
-250.858
-563.145
799.031
-261.028
-35.1585
224.194
-100.336
-88.9409
219.142
196.889
191.598
34.1405
5.95128
242.408
-14.1992
-44.106
1.8148
-1.37623
-66.9254
69.607
0.174965
-3.29522
-3.11473
7.39859
-67.8791
66.8484
-6.24219
2.98903
-0.591373
13.3465
-64.7231
64.0771
-12.8993
0.790119
2.15999
10.4937
-61.861
61.0235
-9.21646
-2.59966
5.18946
3.19183
-59.4299
59.1795
-2.45817
-5.67276
4.28561
-4.49372
-58.7637
58.4635
4.57852
-4.07023
-1.34216
-8.50721
-56.5619
55.5914
9.2177
1.60216
-4.14004
-6.82459
-51.3068
49.9982
7.70894
4.56429
-48.2363
-5.38872
-13.402
190.481
18.4041
2.28117
-49.0129
-47.1807
-47.9454
769.56
6.13392
-30.2533
-192
-200.15
-185.872
-192.875
759.386
-7.03226
-18.8706
747.488
-16.5268
-6.90314
730.375
-10.8942
-2.04032
0.26615
-9.35209
747.415
-131.149
2545.98
765.924
-349.154
-619.312
891.967
-263.694
-455.568
867.295
-225.463
142.063
240.563
-93.0031
70.9163
233.431
215.746
208.601
-17.4208
24.836
257.91
-40.4237
15.6608
-9.63672
2.82245
-68.6219
70.7895
-4.53947
9.18614
-9.26166
5.93663
-69.5996
68.2026
-5.69746
10.4195
-2.39759
10.1618
-62.6271
61.154
-8.89603
2.60484
2.01879
5.20257
-58.1086
57.2347
-4.46729
-1.88014
3.07212
0.441331
-56.6746
56.8714
0.194419
-3.90465
5.48116
-4.66242
-58.0923
58.4753
4.97936
-6.18114
2.90134
-9.88162
-58.2299
57.7076
9.94073
-2.43818
-3.65842
-10.5306
-54.2639
53.0672
11.1966
4.18912
-52.2364
-3.52861
-20.4268
210.919
20.5367
0.993762
-52.9522
-51.2833
-52.0221
801.508
24.8421
-13.667
-209.826
-211.092
-200.756
-201.176
781.312
9.69288
-7.05146
763.298
-2.28001
0.56284
743.457
4.72093
1.7771
11.4979
-6.98297
1165.13
891.043
-177.626
961.482
149.877
-303.017
1017.1
-8.27998
-504.724
872.957
-84.4586
139.278
204.195
-47.8044
150.421
217.494
197.115
210.007
-27.4589
54.3428
211.213
-65.5967
31.6941
-12.0863
9.75655
-64.458
66.4083
-12.6047
12.9842
-7.89781
5.60118
-63.7543
62.6317
-5.86012
9.27937
-1.44673
5.07021
-58.8465
57.1674
-3.48088
1.53643
3.12968
1.63916
-53.8018
53.1526
-0.675665
-3.444
3.88445
-1.91626
-52.7622
52.5823
2.57079
-4.35907
2.93257
-6.03836
-52.4229
52.3427
6.4431
-3.25715
2.01575
-10.1059
-52.6061
52.4955
9.98013
-1.77935
-1.11609
-11.3116
-52.3333
52.5282
10.8273
1.40554
-53.9154
-4.48492
-20.5173
208.33
24.9824
4.59727
-53.5921
-52.8641
-52.5355
783.44
45.0681
-4.35972
-210.122
-203.418
-200.022
-193.987
763.515
26.0906
-2.07014
740.65
16.7061
6.44388
720.045
21.2056
7.60485
21.1318
0.634999
78.8503
415.488
276.826
784.511
-38.3136
-1422.34
902.881
-32.5637
-568.162
875.974
-40.044
5.47129
898.374
-63.1801
39.7928
196.076
-309.596
-5.39037
73.2477
147.542
76.7482
146.269
194.758
184.55
181.944
5.56367
-30.3627
178.061
-0.695057
31.4803
3.67798
4.90694
3.44396
2.44564
-8.41992
-147.91
155.474
-25.6139
9.60742
6.20506
2.21993
5.99138
-1.61855
-3.84032
-186.769
179.208
6.40082
3.59751
2.39573
-1.68342
2.30918
-3.46004
-2.86931
-174.293
172.442
4.6486
2.61502
2.11147
-3.32139
2.12607
-5.8772
-0.14776
-192.783
185.897
23.0379
0.454632
-2.53204
-5.72071
-2.32922
-8.18915
-2.00497
-186.052
182.336
27.3363
3.58279
-4.83387
-7.80048
-4.37413
-10.2009
-4.46029
-197.017
193.466
35.2622
6.50608
-7.34996
-9.57081
-6.63466
-9.89506
-7.40812
-198.23
196.867
30.3743
8.82506
-6.16955
-9.06016
-5.30363
767.846
82.6831
7.28631
-26.4113
-11.7565
-22.592
-7.51525
-204.548
-196.897
-195.951
-187.366
758.436
50.3323
0.798171
730.711
49.1238
9.00567
707
37.1201
17.2845
684.977
40.364
17.3953
27.5873
5.87295
523.742
672.01
-1233.15
756.175
-52.0871
-165.373
1078.75
-133.107
-351.584
1074.13
-47.1306
15.3419
1031.71
-22.9579
18.3002
853.306
-124.778
-44.3873
774.396
242.124
48.6256
-27.7071
-54.0142
-34.8404
-51.4258
674.08
-151.701
-4.70885
49.8748
77.865
51.0701
75.0323
652.242
113.972
31.1681
-17.6236
-26.597
-21.1664
-25.5489
637.432
-73.9702
23.0629
9.0617
32.8618
10.7187
33.9787
656.089
88.5268
17.6936
-26.3962
-27.8822
-25.9959
-24.6234
673.676
4.48903
22.4484
-19.8745
3.452
-17.4747
7.49716
697.351
91.0338
19.6406
-34.4614
-27.8876
-31.2351
-23.5392
704.826
45.2088
17.4935
-25.2392
-7.62197
-21.5478
-1.17095
706.97
76.6509
13.2681
700.557
53.787
8.13259
687.848
60.3544
15.0416
675.224
49.2361
14.0992
666.582
47.233
15.8928
26.5981
7.09037
-889.794
-442.82
2521.92
-37.4198
-52.6337
-1727.31
412.467
-311.346
-511.892
511.253
-59.9591
-220.887
577.957
-55.0135
-132.995
559.441
-102.332
-20.2774
669.818
139.754
-32.2059
597.632
-83.4365
8.59649
614.015
97.9783
0.0935039
584.448
-43.7593
-0.443189
600.651
72.2389
10.57
601.72
3.48051
8.57167
620.958
70.4652
11.4548
627.487
37.8398
9.21253
636.603
65.4041
8.46392
641.391
48.2428
7.00873
645.472
56.2706
6.12631
648.915
45.3029
6.8882
655.023
40.2022
3.17264
17.3213
0.644624
986.084
-1142.3
-2976.24
1087.82
229.203
-650.465
1020.63
51.744
-415.524
973.553
62.0005
-124.875
847.042
115.606
-70.1334
752.433
0.186242
-30.9862
733.987
161.461
0.996595
676.37
-25.645
-10.9164
671.472
99.758
3.08341
643.212
-14.8021
-6.16452
645.146
68.6435
5.02095
637.677
12.015
-5.32147
645.518
60.8166
4.4845
646.937
37.3036
-1.84113
653.988
57.6181
3.37877
656.332
47.2151
-1.07445
661.104
52.186
0.130461
664.348
43.2987
-1.42581
670.925
34.1367
-6.99303
11.1414
-8.71126
27.3685
-376.762
-205.593
183.017
180.341
-831.006
184.336
119.591
-102.232
246.58
41.1323
-111.672
350.402
26.6133
-147.228
399.013
-46.1334
57.9553
534.79
33.5549
-22.6822
537.924
-40.9236
24.6019
607.51
29.8621
-5.54441
602.911
-11.5937
-4.28529
637.537
34.5309
-3.38546
639.549
16.0699
-10.4586
660.987
39.1401
-4.60636
667.56
33.249
-10.0265
682.035
43.4066
-6.96458
690.48
40.6888
-10.1299
701.348
42.6391
-9.16334
710.339
35.7296
-10.4529
721.716
23.8344
-12.9578
6.06451
-12.9539
-207.712
1466.55
-1190.15
808.176
31.3287
-1600.22
658.823
532.863
-830.896
718.123
81.9894
-241.573
752.137
65.4873
-203.496
690.163
8.97704
7.99836
733.151
-8.70114
28.3655
708.099
-15.9461
-2.35536
733.618
-0.356299
5.76676
729.472
-1.35991
-24.5981
745.751
22.8075
-18.3106
749.722
20.2584
-31.0158
765.004
29.1371
-24.6682
775.152
29.3864
-29.593
789.947
31.4783
-23.1456
803.241
31.2664
-27.6836
819.129
27.6813
-23.3589
835.625
19.6955
-25.0627
850.691
8.78395
-22.3782
2.43979
-17.4584
-1234.66
617.803
1135.57
-7.64214
-447.319
-1768.57
329.24
313.08
-543.7
428.777
90.3232
-260.891
558.197
61.5777
-317.597
596.919
19.2875
-112.31
698.175
-103.728
-103.607
715.994
-58.8826
-0.944188
778.459
-67.6772
-12.665
794.884
-1.94156
-27.097
832.721
9.50044
-45.5121
851.353
32.8624
-60.9527
877.949
30.1227
-59.0667
898.581
34.8663
-62.9312
921.759
27.4189
-50.8386
943.937
24.9084
-52.9453
964.773
15.3056
-40.5869
981.292
9.53205
-31.9421
991.457
3.96991
-15.7491
5.71764
-3.95514
440.586
-508.051
843.618
-850.902
1431.02
47.9133
1532.84
198.943
1601.34
139.512
1642.33
84.0097
1525.31
118.543
1449.4
122.851
1319.36
211.96
1266.16
182.037
1227.31
163.008
1231.34
116.993
1239.41
99.9521
1265.27
66.6942
1287.47
52.4618
1315.75
19.2197
1333.24
3.77435
1343.22
-5.00081
1342.85
-9.44338
-4.39902
994.69
2043.23
1485.44
577.67
447.624
528.476
717.327
5.58761
339.207
772.768
-41.1003
128.039
881.043
-95.3546
252.194
1003.09
-84.7726
136.493
1088.99
-53.1769
150.233
1186.18
-46.0957
96.8603
1241.34
-6.72349
58.682
1310.63
-13.6801
22.7176
1345.23
8.2021
1.28766
1374.68
1.50774
-34.6884
1360.74
21.7781
-30.6116
1328.4
33.0958
-18.0775
1252.78
71.14
48.9198
1189.31
77.1538
55.7347
1134.83
60.1695
45.9112
1093.26
32.7452
17.9192
1065.51
17.7379
18.7093
5.72057
6.31577
-1434.26
316.221
3249.44
-529.113
40.2075
-1524.7
122.258
-457.45
17.789
230.9
-175.876
15.9947
462.372
-276.14
148.132
508.715
-125.387
58.5138
602.234
-131.781
29.9268
638.473
-76.8894
-43.8673
691.378
-64.2427
-87.1667
718.43
-51.705
-124.779
747.098
-41.0441
-134.967
761.131
-38.544
-149.993
771.145
-19.7552
-134.472
769.526
-3.51117
-133.133
766.763
27.7884
-78.0625
764.087
40.7139
-36.7468
757.912
45.5373
12.6922
748.178
38.0638
25.4915
740.232
36.49
41.7669
21.6049
13.7317
878.934
-631.3
4110.95
917.426
168.046
1457.33
589.689
167.858
1103.65
584.282
-47.1525
371.505
486.441
-119.873
134.271
442.872
-82.2809
-14.6424
462.336
-151.54
-6.17541
442.92
-70.2309
-47.2836
481.684
-111.359
-38.931
480.377
-60.665
-44.6929
512.173
-80.9637
-37.8931
517.618
-51.0253
-37.7491
540.032
-47.6377
-26.4138
547.84
-16.2126
-21.7386
565.188
4.45626
-2.7414
576.872
27.9087
8.35658
588.119
36.4125
16.3301
592.931
38.7959
16.343
596.562
37.32
17.9667
23.7479
1.23228
-1206.3
-1317.37
-2699.12
-236.78
-401.978
634.634
220.712
21.7363
187.122
301.593
-121.093
156.014
306.218
-88.1894
170.804
318.522
-88.9476
-37.4283
367.348
-193.33
21.1811
350.981
-57.1292
-22.6864
397.026
-159.51
-11.673
389.672
-56.3142
-14.6353
428.628
-122.023
-9.02658
435.027
-58.2207
-12.0245
463.674
-78.0695
-4.52773
468.224
-21.6189
-12.9318
484.726
-13.458
-2.6552
497.118
15.7579
-0.594598
514.115
20.0974
6.4609
527.357
27.7586
6.67246
540.412
24.3217
9.06236
16.4942
-0.288895
-31.6889
-817.843
476.396
10.6305
-703.06
177.628
402.272
-346.494
-418.491
462.344
-234.328
120.567
494.301
-133.286
4.93695
453.163
-62.2327
-24.1108
467.704
-212.187
-8.25062
433.412
-31.9737
-27.3079
453.018
-180.803
-9.43787
429.965
-34.7415
-3.75437
449.719
-135.657
14.5192
446.07
-48.0322
12.3783
472.217
-94.0627
22.9975
478.905
-23.7622
4.89383
495.344
-28.2304
5.83512
505.299
7.13372
-0.418075
518.61
7.05597
3.26977
528.732
18.3301
1.766
539.042
12.6296
4.45568
9.58786
-2.25331
-466.333
-1704.45
-3841.54
4.75206
-892.954
535.513
322.355
-722.464
-233.949
413.037
-378.086
48.7861
498.974
-248.754
1.79127
496.82
-82.1171
-64.9329
612.585
-340.688
-9.39284
586.472
-15.5842
-42.9445
601.945
-199.185
-19.6087
575.024
-9.63725
-10.1795
553.937
-102.11
36.6024
531.191
9.31154
74.8939
530.32
-51.0273
83.6243
519.736
3.47056
30.5878
517.486
-19.9961
11.5417
521.746
4.73472
1.5809
530.905
-2.60975
-1.44725
543.173
4.99923
-1.96204
554.887
-2.18442
-0.173573
0.623673
-3.47748
146.099
-811.083
-293.686
371.518
-896.94
-181.067
476.345
-731.556
-323.821
562.214
-482.386
-57.7968
626.138
-315.986
-72.9551
537.636
-10.7668
-21.4704
585.458
-84.594
7.7117
-102.947
-89.921
-101.16
581.934
-17.5642
-10.2853
12.3668
-13.9721
13.713
617.32
-55.1564
14.8267
-54.8326
-56.0594
-52.6504
614.708
-17.8326
5.04363
14.4928
-13.2363
16.6255
595.532
-23.0651
24.1532
-14.707
-23.6345
-14.8213
568.495
2.41032
39.437
23.9013
2.76532
23.051
558.101
-8.55332
71.627
5.46348
-11.1617
3.69615
554.702
2.30216
57.7868
17.73
-0.192953
16.6821
559.076
-12.1706
26.5196
565.928
3.22924
8.61966
574.354
-10.4149
1.47277
586.178
-7.28263
-0.938245
595.998
-15.0111
-0.679683
-5.5497
-4.40449
440.992
-1155.53
1389.75
625.421
-935.356
922.06
552.276
-664.631
235.653
560.785
-489.57
84.5574
624.011
-372.163
5.95734
142.335
-12.3251
-20.158
145.455
131.051
133.179
33.7656
-12.0641
31.9985
-1.46363
135.761
-72.6332
-3.92327
7.40496
-113.816
132.002
-38.6967
-4.45849
-1.76133
-154.034
152.845
-52.5284
0.322188
-0.885969
-148.083
154.462
-24.635
1.30858
-1.24219
-164.331
156.786
-15.3471
1.06896
-6.67116
-148.155
146.397
2.49158
8.34765
-15.0359
-150.289
142.595
1.28368
12.893
-18.5771
-142.616
142.247
5.46893
15.7796
580.743
-8.12163
6.02467
-145.343
-152.213
-137.526
-144.576
6.66471
-10.0516
5.25724
593.285
-9.04792
-1.71264
600.282
-18.4325
0.248243
611.919
-19.6756
3.8794
612.995
-18.6691
1.15273
-6.69396
-5.36347
1931.87
-742.779
2744.91
1183.84
-574.532
-613.336
972.2
-353.514
-183.745
846.328
-324.98
-59.1097
189.542
-189.981
-21.8909
184.134
172.768
166.326
-0.724298
197.274
-18.5313
-0.801106
2.57345
13.8627
-52.6095
48.3849
-8.68106
-3.53059
3.23954
-42.0652
15.7453
41.952
-15.9754
-2.89619
1.71824
-46.2706
14.3123
46.0591
-14.3158
-1.50326
1.53533
-45.1128
8.6588
44.9032
-8.76866
-1.21581
-0.0376056
-45.3865
3.79707
44.0967
-2.56854
0.0988307
-2.27274
-41.3086
-0.464193
39.9162
1.72971
2.39964
-4.51321
-39.4172
-1.28549
38.5638
2.41958
4.23256
-4.14964
-38.3047
-0.600948
37.8683
1.4784
3.70856
-39.4345
-3.40667
154.055
-2.63353
1.72991
-40.3753
-38.5789
-39.4781
620.629
-15.0618
-8.17013
-154.749
-163.368
-147.269
-154.948
620.871
-23.7757
-4.35021
618.868
-21.2698
0.246929
611.735
-15.7243
-0.356931
-3.22577
-9.17639
1172.82
-412.36
-293.286
676.144
-444.328
-957.399
620.556
-324.297
-536.774
602.327
-303.122
-38.786
158.736
-170.976
-95.2723
152.38
142.584
135.954
39.1258
20.7759
172.731
-39.771
-34.1259
2.31875
5.03442
-50.3896
52.6976
-7.23478
-2.42638
-2.49773
13.2547
-52.9095