/*--------------------------------*- C++ -*----------------------------------*\
  =========                 |
  \\      /  F ield         | OpenFOAM: The Open Source CFD Toolbox
   \\    /   O peration     | Website:  https://openfoam.org
    \\  /    A nd           | Version:  10
     \\/     M anipulation  |
\*---------------------------------------------------------------------------*/
FoamFile
{
    format      ascii;
    class       volScalarField;
    location    "6.4";
    object      turbidity;
}
// * * * * * * * * * * * * * * * * * * * * * * * * * * * * * * * * * * * * * //

dimensions      [0 0 0 0 0 0 0];

internalField   nonuniform List<scalar> 
12920
(
-0.0148597
-0.0544926
-0.0852108
-0.116361
-0.142273
-0.167641
-0.189627
-0.207102
-0.220193
-0.230474
-0.238697
-0.244947
-0.249884
-0.256354
-0.263775
-0.273417
-0.286852
-0.302536
-0.322435
-0.350695
-0.0254791
-0.044936
-0.0722226
-0.103855
-0.138695
-0.176161
-0.208251
-0.221538
-0.22626
-0.226259
-0.227044
-0.228371
-0.23759
-0.252986
-0.282934
-0.321321
-0.368647
-0.416435
-0.465296
-0.515479
-0.00945456
-0.0315096
-0.0620871
-0.102181
-0.138579
-0.173263
-0.215221
-0.242703
-0.28197
-0.312243
-0.344685
-0.369936
-0.396763
-0.419099
-0.446426
-0.481356
-0.526352
-0.577534
-0.629471
-0.678316
-0.0391894
-0.0498133
-0.0700434
-0.0966393
-0.130943
-0.18285
-0.23455
-0.286545
-0.325619
-0.366833
-0.400603
-0.432032
-0.46425
-0.497675
-0.539607
-0.586307
-0.63912
-0.694511
-0.749052
-0.801437
-0.0353965
-0.0441071
-0.0616024
-0.0873707
-0.113549
-0.142174
-0.178601
-0.220998
-0.264038
-0.316828
-0.361052
-0.417269
-0.466872
-0.518139
-0.564359
-0.610993
-0.659098
-0.704661
-0.745296
-0.778184
-0.0376031
-0.0405621
-0.0517798
-0.0689897
-0.0884045
-0.106921
-0.128428
-0.15029
-0.168924
-0.193364
-0.217237
-0.265953
-0.350679
-0.456003
-0.538842
-0.594787
-0.629846
-0.652623
-0.670106
-0.683181
-0.0251927
-0.0490997
-0.0571059
-0.0798376
-0.105258
-0.125919
-0.14815
-0.165056
-0.172078
-0.186073
-0.202745
-0.235922
-0.288984
-0.37794
-0.467191
-0.529715
-0.560256
-0.566131
-0.551762
-0.539024
-0.0228263
-0.0473108
-0.0638299
-0.086358
-0.106774
-0.124275
-0.121077
-0.118286
-0.113439
-0.107372
-0.113814
-0.140638
-0.199282
-0.27996
-0.346367
-0.387197
-0.397629
-0.386378
-0.367744
-0.366129
-0.010622
-0.0182717
-0.0337042
-0.0556846
-0.0773304
-0.0878109
-0.098273
-0.0899169
-0.0828216
-0.0808833
-0.0807282
-0.084101
-0.125009
-0.179167
-0.230521
-0.227008
-0.240067
-0.249951
-0.268196
-0.294481
-0.0284403
-0.0423496
-0.0482593
-0.0715516
-0.0897438
-0.0846193
-0.0809006
-0.0764905
-0.0783729
-0.0822515
-0.082383
-0.0791169
-0.0811707
-0.089717
-0.136645
-0.16499
-0.190508
-0.216799
-0.247032
-0.27988
-0.0911376
-0.062076
-0.0802386
-0.104989
-0.116389
-0.103954
-0.0925624
-0.0905606
-0.103105
-0.103007
-0.0942837
-0.0845959
-0.0779153
-0.0767856
-0.110939
-0.152497
-0.180377
-0.207713
-0.237474
-0.271252
-0.0394364
-0.0732347
-0.0982307
-0.125948
-0.147846
-0.137417
-0.136275
-0.133637
-0.13761
-0.124111
-0.106425
-0.0950061
-0.0836082
-0.0787713
-0.105597
-0.146872
-0.176682
-0.209814
-0.248647
-0.292303
-0.0668601
-0.0600368
-0.0820191
-0.109162
-0.139189
-0.168905
-0.17154
-0.177891
-0.175382
-0.155838
-0.13336
-0.115477
-0.106911
-0.107816
-0.153084
-0.184723
-0.22006
-0.265276
-0.31826
-0.375252
-0.042968
-0.0544292
-0.0743511
-0.0979784
-0.121973
-0.145498
-0.180822
-0.227324
-0.262617
-0.295159
-0.277642
-0.274363
-0.26299
-0.271266
-0.286153
-0.316374
-0.356016
-0.410542
-0.47024
-0.534945
-0.0330674
-0.049182
-0.0856548
-0.115519
-0.142512
-0.175141
-0.201131
-0.235359
-0.274613
-0.317184
-0.341961
-0.36696
-0.376237
-0.397713
-0.420144
-0.454758
-0.493647
-0.538694
-0.579798
-0.616873
-0.0425453
-0.0482221
-0.0799771
-0.119488
-0.153136
-0.186471
-0.215272
-0.242407
-0.277998
-0.317415
-0.360487
-0.401122
-0.434671
-0.468517
-0.4989
-0.529899
-0.556436
-0.575337
-0.581924
-0.583343
-0.10953
-0.0747457
-0.126136
-0.174047
-0.156757
-0.217108
-0.244269
-0.278589
-0.30535
-0.343417
-0.380043
-0.415912
-0.448784
-0.477299
-0.503058
-0.525817
-0.544781
-0.55591
-0.559373
-0.560059
-0.0606305
-0.0600426
-0.066696
-0.119268
-0.152573
-0.198993
-0.236544
-0.265086
-0.29777
-0.323742
-0.355337
-0.37981
-0.40318
-0.420623
-0.436562
-0.445344
-0.452588
-0.456873
-0.460462
-0.466232
-0.0542027
-0.051488
-0.0695996
-0.121782
-0.138867
-0.190529
-0.225073
-0.272501
-0.301251
-0.320629
-0.337389
-0.350592
-0.365145
-0.377293
-0.39225
-0.402929
-0.416102
-0.43183
-0.449972
-0.465531
-0.065633
-0.0681777
-0.081006
-0.101678
-0.114979
-0.129976
-0.139503
-0.159635
-0.188571
-0.232439
-0.273611
-0.307957
-0.334062
-0.354606
-0.370941
-0.383976
-0.393657
-0.399168
-0.401177
-0.40537
-0.0164633
-0.0381313
-0.0437209
-0.0394733
-0.0557654
-0.0665423
-0.0762963
-0.0814739
-0.0832441
-0.0813198
-0.0767738
-0.0689455
-0.0664762
-0.0716819
-0.0835646
-0.0885609
-0.0781958
-0.0594004
-0.0451745
-0.0378312
-0.00811658
-0.021526
-0.0327839
-0.0336941
-0.052556
-0.0444531
-0.0386853
-0.0314055
-0.0299113
-0.0302741
-0.031907
-0.0347273
-0.0395712
-0.0470269
-0.0593833
-0.0744911
-0.0949881
-0.122578
-0.150755
-0.152007
-0.00252112
-0.0156191
-0.0348741
-0.0347396
-0.0331058
-0.0279486
-0.0344323
-0.0392323
-0.0457174
-0.0498984
-0.0558377
-0.0625337
-0.0726131
-0.0842908
-0.0986951
-0.115585
-0.126738
-0.126858
-0.116536
-0.0977346
-0.00889813
-0.0198591
-0.0281227
-0.0240023
-0.0284145
-0.0312547
-0.0419431
-0.0471117
-0.0569811
-0.0602176
-0.0676531
-0.0695493
-0.0772182
-0.0859432
-0.0979232
-0.108271
-0.114732
-0.115597
-0.113621
-0.116869
-0.0122853
-0.00665047
-0.00941089
-0.0096338
-0.0135328
-0.020575
-0.0306794
-0.0475571
-0.0704819
-0.0924773
-0.11631
-0.118661
-0.117061
-0.100584
-0.0965357
-0.095437
-0.0972455
-0.0991402
-0.104434
-0.114585
-0.00607398
-0.00628143
-0.00450818
-0.00564459
-0.00744254
-0.0109371
-0.0155473
-0.0242496
-0.0373157
-0.0633467
-0.104622
-0.146311
-0.162841
-0.131806
-0.100996
-0.0856886
-0.0821091
-0.0856988
-0.0944723
-0.110898
-0.0204901
-0.00844687
-0.00585271
-0.00741023
-0.0122747
-0.0159337
-0.025076
-0.0300579
-0.0414565
-0.0562662
-0.0791139
-0.114301
-0.14416
-0.146154
-0.115537
-0.0883994
-0.0727918
-0.0708719
-0.0756891
-0.0884447
-0.0203558
-0.0117627
-0.00851279
-0.00923846
-0.0133435
-0.0160691
-0.0224235
-0.0241823
-0.0291006
-0.0392812
-0.0580843
-0.0919066
-0.131719
-0.14981
-0.0800302
-0.0638884
-0.0617205
-0.0645026
-0.0674539
-0.072949
-0.00341186
-0.00422506
-0.00869726
-0.0103343
-0.0164628
-0.0180288
-0.0210506
-0.0306147
-0.0354063
-0.0325755
-0.044825
-0.0789797
-0.116747
-0.141939
-0.0905066
-0.0485641
-0.0497206
-0.0529461
-0.0557882
-0.0582105
-0.0142087
-0.00932126
-0.0106505
-0.0166877
-0.0248513
-0.0264924
-0.0325946
-0.0463181
-0.0434811
-0.03219
-0.0287855
-0.0455082
-0.0788267
-0.110339
-0.0773218
-0.0413509
-0.0419951
-0.0452256
-0.048821
-0.0519616
-0.0334474
-0.0201427
-0.0244652
-0.0442293
-0.0578641
-0.0606105
-0.0709757
-0.0808302
-0.0706782
-0.0370746
-0.0292876
-0.0346732
-0.055886
-0.088952
-0.0743978
-0.0408207
-0.0390639
-0.041657
-0.0464689
-0.0516057
-0.0103765
-0.0227265
-0.0281326
-0.0472924
-0.0743514
-0.0845
-0.0993627
-0.109891
-0.0885247
-0.0511333
-0.0397367
-0.04488
-0.0627956
-0.0870776
-0.0727126
-0.0426868
-0.0431367
-0.0491692
-0.0553951
-0.0596283
-0.0497209
-0.0228876
-0.0206949
-0.0245057
-0.0403842
-0.0396736
-0.0657839
-0.0661852
-0.0728649
-0.0802391
-0.0763646
-0.0751755
-0.0799327
-0.0816795
-0.0561066
-0.0559591
-0.0653853
-0.0774895
-0.0832457
-0.0843856
-0.0135171
-0.0149034
-0.018647
-0.0208739
-0.0288021
-0.0321156
-0.0504422
-0.0555136
-0.0682499
-0.0770073
-0.0771839
-0.0751404
-0.072349
-0.0731163
-0.0777508
-0.0890539
-0.106026
-0.118495
-0.125816
-0.132749
-0.0166693
-0.00830222
-0.0124892
-0.015504
-0.019768
-0.0240756
-0.0355435
-0.0372113
-0.0512445
-0.0575317
-0.0681009
-0.0720419
-0.0763451
-0.0835484
-0.0907698
-0.0981673
-0.10254
-0.10041
-0.0939205
-0.0911222
-0.0258742
-0.0159834
-0.0173599
-0.0189751
-0.0195276
-0.0225755
-0.0276437
-0.0297941
-0.0393062
-0.0449109
-0.0544147
-0.0580559
-0.0642073
-0.0663483
-0.0694824
-0.0673923
-0.0641425
-0.0578697
-0.0515068
-0.0479737
-0.0562525
-0.0173863
-0.0152054
-0.021732
-0.0221481
-0.051162
-0.033391
-0.0387782
-0.0391503
-0.0432685
-0.046884
-0.0482946
-0.0500323
-0.0498197
-0.0495078
-0.0478002
-0.0456676
-0.0428993
-0.0402753
-0.039557
-0.0349561
-0.00957873
-0.0101903
-0.0181375
-0.0250365
-0.0369384
-0.0457247
-0.0418566
-0.0401233
-0.0384591
-0.0383941
-0.0375742
-0.0372343
-0.0364999
-0.0361527
-0.0357142
-0.0357951
-0.0362743
-0.0374108
-0.0395715
-0.0133985
-0.00937341
-0.010246
-0.0174798
-0.0240252
-0.0351891
-0.0420906
-0.042167
-0.0382358
-0.0329679
-0.0321301
-0.0331638
-0.0358713
-0.0396251
-0.0451337
-0.0517283
-0.0601544
-0.0704405
-0.0832767
-0.0973653
-0.0156369
-0.0256584
-0.0348826
-0.0422536
-0.0468995
-0.0490798
-0.0536044
-0.063139
-0.0822505
-0.101934
-0.118716
-0.128867
-0.137366
-0.138534
-0.135633
-0.124883
-0.109381
-0.0937136
-0.0799
-0.069127
-0.00731739
-0.013858
-0.0145435
-0.01444
-0.0208254
-0.0257466
-0.0302261
-0.0325058
-0.0329436
-0.0320986
-0.0308607
-0.0302862
-0.0328171
-0.0375037
-0.0426341
-0.0418104
-0.0348021
-0.0271734
-0.0229502
-0.021631
-0.00694745
-0.0130196
-0.0146272
-0.0154549
-0.020316
-0.0183839
-0.0172002
-0.016652
-0.0176498
-0.01873
-0.0207297
-0.0230765
-0.0267301
-0.031111
-0.0367723
-0.0424243
-0.0490015
-0.0551813
-0.0571388
-0.0487474
-0.00694206
-0.0204014
-0.0229156
-0.014552
-0.0138999
-0.01548
-0.0193667
-0.021759
-0.0245731
-0.0267448
-0.0296035
-0.0326054
-0.0362424
-0.0394298
-0.0422265
-0.0438283
-0.0426339
-0.0385223
-0.0340886
-0.0305691
-0.0071345
-0.0154789
-0.0159869
-0.0108653
-0.0127832
-0.0159341
-0.0215505
-0.0242912
-0.0287652
-0.0294
-0.0317903
-0.0320651
-0.0334503
-0.0342965
-0.0350467
-0.0349058
-0.0342307
-0.0331319
-0.0324466
-0.0334447
-0.0116263
-0.00737307
-0.007463
-0.00660443
-0.00879279
-0.0139096
-0.0212392
-0.029147
-0.0394122
-0.0435015
-0.0490548
-0.0438381
-0.0405395
-0.0350364
-0.0334556
-0.0326207
-0.0326916
-0.0328635
-0.0337235
-0.0352571
-0.00821739
-0.00520007
-0.00459392
-0.00532589
-0.00698023
-0.0106432
-0.0155373
-0.0238814
-0.036423
-0.0525721
-0.0715859
-0.0777853
-0.0665042
-0.0456971
-0.0368718
-0.0350132
-0.0359851
-0.0377359
-0.0402707
-0.0433197
-0.0206904
-0.00558981
-0.00423846
-0.00600304
-0.00842077
-0.0112864
-0.0144351
-0.0211815
-0.0294486
-0.0428561
-0.0555248
-0.0668529
-0.0680365
-0.0564645
-0.0443409
-0.0406058
-0.0417183
-0.0442885
-0.0472582
-0.0501315
-0.0058267
-0.00624878
-0.00546586
-0.00692236
-0.00900917
-0.0105695
-0.0113585
-0.0160282
-0.0216803
-0.0331311
-0.0470197
-0.0634777
-0.068679
-0.0567177
-0.0396743
-0.0416314
-0.0443039
-0.0455581
-0.0449847
-0.0434892
-0.00142917
-0.00451201
-0.00679585
-0.00835458
-0.0113517
-0.0118087
-0.0123715
-0.0148825
-0.015377
-0.0209532
-0.0362668
-0.05578
-0.0664328
-0.056604
-0.0382395
-0.0368093
-0.0371416
-0.0353504
-0.032346
-0.0291398
-0.010483
-0.0068797
-0.00825851
-0.0130193
-0.0174189
-0.0175006
-0.018816
-0.022553
-0.017536
-0.014263
-0.0204768
-0.0373759
-0.0548156
-0.052173
-0.0306511
-0.028799
-0.0306455
-0.0308618
-0.0293411
-0.0268289
-0.0190319
-0.0128033
-0.014642
-0.0272811
-0.0374131
-0.0416818
-0.0507783
-0.0501024
-0.0281656
-0.0165961
-0.0178846
-0.0268869
-0.0410948
-0.0438938
-0.0246565
-0.027038
-0.0315943
-0.0337561
-0.0329269
-0.0301289
-0.010396
-0.0148369
-0.015709
-0.0298743
-0.0458948
-0.0492902
-0.0551749
-0.0549524
-0.0358375
-0.023995
-0.0221053
-0.0273713
-0.0341924
-0.0339618
-0.0240827
-0.0305235
-0.0345409
-0.0345405
-0.031506
-0.0277246
-0.0547286
-0.0300608
-0.0130714
-0.0135406
-0.0202633
-0.0185979
-0.0263793
-0.0296082
-0.0348314
-0.0389441
-0.0378521
-0.0364246
-0.0348873
-0.0322086
-0.0332658
-0.0375948
-0.0396404
-0.0376813
-0.0331398
-0.029016
-0.00510362
-0.00750755
-0.0094999
-0.0107417
-0.0145455
-0.0158477
-0.0223932
-0.0237699
-0.0283948
-0.0310372
-0.0315472
-0.0333089
-0.0349151
-0.0390172
-0.0428284
-0.0456199
-0.046773
-0.0449571
-0.0423653
-0.0412558
-0.0126339
-0.00716477
-0.00834285
-0.00955138
-0.0107969
-0.0124841
-0.0176707
-0.0186142
-0.0234368
-0.0250322
-0.02865
-0.0315191
-0.0346553
-0.0373949
-0.0389351
-0.0385756
-0.0368841
-0.0340293
-0.031321
-0.0301808
-0.00969824
-0.00865561
-0.00853308
-0.00917687
-0.00950182
-0.011516
-0.0145479
-0.0164593
-0.0199564
-0.0214019
-0.0240613
-0.0249116
-0.0267289
-0.0266724
-0.026785
-0.0254806
-0.0243028
-0.0229685
-0.0221028
-0.0220564
-0.023368
-0.0101099
-0.00950367
-0.0107418
-0.0121282
-0.0189519
-0.0156835
-0.0175517
-0.0183298
-0.0186133
-0.0193252
-0.0191309
-0.0195368
-0.0192747
-0.0192456
-0.0189695
-0.0188548
-0.0188558
-0.0191412
-0.0199262
-0.0104441
-0.00807439
-0.00809481
-0.0104494
-0.0129799
-0.0158075
-0.0171564
-0.0160003
-0.0155917
-0.0151379
-0.0150829
-0.0149506
-0.0151376
-0.0153683
-0.0158361
-0.0163832
-0.0171301
-0.0180286
-0.0191575
-0.0205414
-0.00898851
-0.00580014
-0.00765499
-0.0110592
-0.0140809
-0.0173011
-0.0195593
-0.0199691
-0.0210141
-0.020154
-0.0208959
-0.0206127
-0.0216804
-0.0220039
-0.0231225
-0.0240578
-0.0253887
-0.0268264
-0.0284967
-0.0301661
-0.0189744
-0.0129462
-0.0144836
-0.0190117
-0.0192073
-0.018053
-0.0215803
-0.0299766
-0.0446482
-0.0585813
-0.070126
-0.0770137
-0.0804053
-0.0777943
-0.0709527
-0.0600104
-0.0481105
-0.0376219
-0.0297719
-0.0250405
-0.0102397
-0.00915685
-0.00827918
-0.00892657
-0.0105576
-0.0111423
-0.011568
-0.0108386
-0.0100601
-0.00984998
-0.0112715
-0.0140197
-0.0172816
-0.0198759
-0.0214729
-0.0203951
-0.0189916
-0.0187481
-0.0195547
-0.0205329
-0.015912
-0.0120967
-0.00926161
-0.00972311
-0.0103107
-0.0101349
-0.010145
-0.0107098
-0.0117388
-0.0132194
-0.0148979
-0.0166614
-0.0186234
-0.0204044
-0.0222216
-0.0234044
-0.0245182
-0.0241467
-0.0226376
-0.0200048
-0.00906564
-0.0152482
-0.012016
-0.00932588
-0.0105139
-0.0125678
-0.0144669
-0.0156794
-0.0167191
-0.01756
-0.0182402
-0.0187588
-0.0191235
-0.0190178
-0.0188038
-0.0181599
-0.0171668
-0.0161016
-0.0156712
-0.0158405
-0.00332761
-0.00885594
-0.00811474
-0.00767309
-0.0101524
-0.0129667
-0.0152547
-0.016163
-0.0171266
-0.0168576
-0.0168035
-0.0162089
-0.0158258
-0.0154205
-0.0152111
-0.0150542
-0.0151274
-0.0153597
-0.0159019
-0.0168823
-0.00609223
-0.006236
-0.00562092
-0.00668593
-0.00925051
-0.0125147
-0.0158015
-0.0180421
-0.0209386
-0.0205202
-0.0210662
-0.0184801
-0.0172081
-0.0156835
-0.0153077
-0.0151784
-0.015432
-0.0157765
-0.0163852
-0.0171981
-0.00279298
-0.00347329
-0.00369487
-0.00528341
-0.00759166
-0.0109472
-0.0138975
-0.0184848
-0.0243562
-0.0288945
-0.0332381
-0.0301764
-0.0240521
-0.0186743
-0.0171186
-0.0166976
-0.01676
-0.0168864
-0.0172191
-0.0178189
-0.00240713
-0.0032715
-0.003287
-0.00524697
-0.00745773
-0.00996924
-0.0112758
-0.0161848
-0.0202287
-0.025637
-0.0285044
-0.0294392
-0.0273142
-0.023433
-0.0213654
-0.0206205
-0.0204039
-0.0200459
-0.0197832
-0.0198412
-0.00305916
-0.00360205
-0.00400837
-0.00588336
-0.00711546
-0.00843818
-0.00862019
-0.0134419
-0.0164299
-0.0221833
-0.0258337
-0.0291425
-0.027432
-0.024843
-0.0217586
-0.0215795
-0.0206983
-0.0190576
-0.0170942
-0.0158513
-0.0016861
-0.00293073
-0.00479051
-0.00700726
-0.00869372
-0.00865042
-0.00870124
-0.00935468
-0.011447
-0.0162091
-0.0231077
-0.027686
-0.027868
-0.0264956
-0.0240761
-0.0163032
-0.0143595
-0.0125743
-0.011296
-0.0108044
-0.00431328
-0.00514538
-0.00681778
-0.0102999
-0.0120426
-0.0114816
-0.0116954
-0.011834
-0.0102929
-0.0119775
-0.017083
-0.0222971
-0.024784
-0.0241447
-0.0195142
-0.0136988
-0.0123209
-0.0110858
-0.0103743
-0.0102588
-0.0114699
-0.0103963
-0.0114547
-0.0171631
-0.0207463
-0.024222
-0.0274408
-0.0214343
-0.0137482
-0.0128313
-0.0151518
-0.0183374
-0.0200446
-0.0199989
-0.017146
-0.0148498
-0.0140765
-0.0126739
-0.0115284
-0.0111442
-0.00378067
-0.0118846
-0.0115424
-0.0184033
-0.022973
-0.0246305
-0.0253904
-0.0229537
-0.01725
-0.0151149
-0.0150581
-0.0158557
-0.0165661
-0.016727
-0.0175719
-0.015143
-0.0138873
-0.0123042
-0.0112291
-0.0110969
-0.0101608
-0.00863238
-0.00737455
-0.0100534
-0.0117971
-0.011582
-0.0147248
-0.0170821
-0.0183192
-0.0190019
-0.0182179
-0.0176497
-0.0177825
-0.0190401
-0.016889
-0.0158318
-0.0144343
-0.0127136
-0.0116147
-0.011571
-0.00298762
-0.00507247
-0.00666668
-0.00822777
-0.00973668
-0.0106704
-0.0132868
-0.013684
-0.0148418
-0.0159247
-0.0162273
-0.0174955
-0.0178079
-0.0181815
-0.0173893
-0.0160249
-0.0150965
-0.0140439
-0.0136172
-0.0140975
-0.00536953
-0.00559877
-0.00706874
-0.00788051
-0.00853173
-0.00965123
-0.0119029
-0.0121724
-0.0135777
-0.013838
-0.0149566
-0.0152237
-0.0154665
-0.0149522
-0.0143012
-0.01345
-0.0128625
-0.0125748
-0.0127918
-0.0136762
-0.00265282
-0.00445907
-0.00664291
-0.00793958
-0.008053
-0.00916362
-0.0106065
-0.0111614
-0.0121964
-0.0122368
-0.0128085
-0.012512
-0.0126081
-0.0121936
-0.0120902
-0.0120114
-0.0122586
-0.0128048
-0.013667
-0.0147858
-0.00467526
-0.00842802
-0.00872578
-0.00901802
-0.00956271
-0.0113397
-0.0105755
-0.0110448
-0.0110126
-0.010933
-0.0110984
-0.0110938
-0.0112765
-0.0114121
-0.0116734
-0.0120578
-0.0126228
-0.0133914
-0.0143758
-0.0155002
-0.0061651
-0.00599557
-0.00726005
-0.00928979
-0.0110866
-0.0122453
-0.0126394
-0.0123331
-0.0118734
-0.0115241
-0.0111436
-0.0110202
-0.011137
-0.0114795
-0.012008
-0.0126448
-0.0133756
-0.0141859
-0.0150851
-0.0160375
-0.00652346
-0.00453902
-0.00705145
-0.00987393
-0.0124998
-0.0154731
-0.0185927
-0.0208053
-0.0227632
-0.0224676
-0.0221407
-0.0200252
-0.0181269
-0.0159588
-0.0147273
-0.0143294
-0.0147102
-0.0154987
-0.0164596
-0.0175326
-0.00103992
-0.00513795
-0.00707143
-0.00879505
-0.00894633
-0.0102017
-0.0150063
-0.0230905
-0.033447
-0.0421754
-0.0481548
-0.0492326
-0.0465557
-0.0395559
-0.0313302
-0.0230055
-0.0169653
-0.0135563
-0.0123878
-0.0129198
-0.018923
-0.00769613
-0.00540689
-0.00570132
-0.0059677
-0.0056821
-0.00537677
-0.00522738
-0.0059849
-0.00758742
-0.00963206
-0.0117451
-0.0137566
-0.0151274
-0.0158746
-0.0157717
-0.0153312
-0.0147008
-0.014129
-0.0137221
-0.0305432
-0.0157144
-0.00713813
-0.00697267
-0.00744157
-0.00809383
-0.00837488
-0.00935929
-0.010202
-0.0114139
-0.0122522
-0.0127833
-0.0131167
-0.0131821
-0.0134545
-0.0137433
-0.0143791
-0.0150571
-0.016
-0.0170369
-0.00907838
-0.0113061
-0.00803001
-0.00819597
-0.00993354
-0.0112454
-0.0116246
-0.0116379
-0.0114113
-0.0111732
-0.0110734
-0.0111096
-0.0114222
-0.0118676
-0.0125474
-0.0132894
-0.0141058
-0.0149499
-0.0157601
-0.0163732
-0.0104797
-0.00658438
-0.00580566
-0.00760768
-0.00977073
-0.0109351
-0.0109099
-0.0107611
-0.0104777
-0.0103866
-0.0105102
-0.0107923
-0.0112893
-0.0118902
-0.0125908
-0.0133094
-0.0140383
-0.0147418
-0.0154107
-0.0159576
-0.00931138
-0.010184
-0.0059528
-0.00713569
-0.00906229
-0.0103188
-0.0106823
-0.0108342
-0.0109145
-0.0108437
-0.0109561
-0.0110142
-0.0113599
-0.0118213
-0.0124403
-0.0131044
-0.0138032
-0.014519
-0.0152473
-0.0158699
-0.00184086
-0.00316013
-0.00409416
-0.00599649
-0.00798841
-0.00961063
-0.0104274
-0.0111703
-0.0119754
-0.012341
-0.0127804
-0.0123021
-0.0118861
-0.0118605
-0.012326
-0.0129553
-0.0136623
-0.0144354
-0.0152442
-0.0159427
-0.00132027
-0.00212821
-0.00335319
-0.00573684
-0.0074117
-0.00883946
-0.00964388
-0.0107338
-0.0113495
-0.0120726
-0.0122509
-0.0124562
-0.0122887
-0.0122239
-0.0124087
-0.0128164
-0.0133729
-0.0140644
-0.0148301
-0.0155365
-0.00611599
-0.00324335
-0.00406057
-0.00596924
-0.00726285
-0.00828585
-0.00883301
-0.0105015
-0.0110544
-0.012071
-0.0119895
-0.0125128
-0.0117936
-0.0117553
-0.0116827
-0.0121581
-0.0126474
-0.013216
-0.013832
-0.0143943
-0.00464905
-0.00495945
-0.00550299
-0.00708096
-0.00821477
-0.00837842
-0.0085357
-0.00968313
-0.0111807
-0.0124691
-0.0127889
-0.0128264
-0.011382
-0.0101061
-0.00942771
-0.0109566
-0.0115865
-0.0122382
-0.0128615
-0.0133398
-0.00431532
-0.00469941
-0.00635616
-0.00847074
-0.0093252
-0.00947528
-0.00957184
-0.00996047
-0.0109995
-0.0128703
-0.0140043
-0.0132344
-0.010345
-0.00822984
-0.00808046
-0.0104764
-0.0112315
-0.0119648
-0.0126258
-0.0131229
-0.0125066
-0.00788393
-0.0101363
-0.0107752
-0.010822
-0.0123407
-0.0126181
-0.0114915
-0.0116072
-0.0127799
-0.0140052
-0.0126316
-0.00974708
-0.0080188
-0.00798438
-0.0105621
-0.0114432
-0.012298
-0.0130951
-0.0137271
-0.0163421
-0.013337
-0.00987986
-0.0113125
-0.0108655
-0.0121173
-0.0117925
-0.0113696
-0.0110307
-0.0114953
-0.0112991
-0.00977846
-0.00801619
-0.00710918
-0.00755447
-0.0110417
-0.0121984
-0.0133302
-0.014368
-0.015175
-0.018104
-0.0121734
-0.00770884
-0.00856245
-0.00880586
-0.00883946
-0.00949628
-0.00966539
-0.00946241
-0.00942445
-0.00884709
-0.00834164
-0.00786313
-0.00797083
-0.0107799
-0.0119735
-0.0132451
-0.0145931
-0.0159049
-0.0169293
-0.00806375
-0.00659247
-0.00633484
-0.00734533
-0.00787767
-0.00814597
-0.00845754
-0.00801894
-0.00796599
-0.00827975
-0.00842245
-0.00906706
-0.00949204
-0.0103425
-0.0112183
-0.0123766
-0.0137352
-0.0152324
-0.0167395
-0.0179337
-0.00197236
-0.00632166
-0.00686734
-0.00697652
-0.00737932
-0.00769662
-0.0079476
-0.00768343
-0.00772602
-0.00784093
-0.00822709
-0.00872923
-0.00938625
-0.0102582
-0.0113353
-0.0126319
-0.0140986
-0.0156878
-0.0172681
-0.0184728
-0.00204876
-0.00556855
-0.00851973
-0.00790366
-0.00731937
-0.00756383
-0.00765325
-0.0076758
-0.00771594
-0.00791866
-0.00825449
-0.00878111
-0.00949438
-0.0104203
-0.0115362
-0.0128412
-0.0143075
-0.0158926
-0.0175007
-0.0187632
-0.00777189
-0.00514265
-0.00786644
-0.00829283
-0.00810129
-0.00824039
-0.00785428
-0.00798761
-0.0079632
-0.00826621
-0.00866072
-0.00926324
-0.009997
-0.0109002
-0.0119439
-0.0131341
-0.0144739
-0.0159509
-0.0175101
-0.0188339
-0.00285028
-0.00599901
-0.00860794
-0.00998206
-0.00998337
-0.00951796
-0.00944165
-0.00901014
-0.00878375
-0.00872439
-0.00889189
-0.00931091
-0.00992311
-0.0106761
-0.0115743
-0.0126
-0.0137659
-0.0150674
-0.0164795
-0.0177703
-0.00122116
-0.00359088
-0.00852266
-0.0102286
-0.012415
-0.0142926
-0.0164256
-0.0157974
-0.0156136
-0.0132532
-0.011663
-0.0103012
-0.0100741
-0.010384
-0.0110197
-0.0118259
-0.0127794
-0.0139496
-0.0153374
-0.0168309
-0.00904779
-0.00822793
-0.00744416
-0.00782577
-0.00990482
-0.0143504
-0.0191893
-0.0237156
-0.0270917
-0.0265037
-0.0236681
-0.0180734
-0.0139928
-0.0107613
-0.00992222
-0.00997294
-0.010713
-0.0116475
-0.0127047
-0.013941
-0.0177996
-0.0156435
-0.01607
-0.0123054
-0.0161033
-0.0127862
-0.0147371
-0.0324609
-0.0172864
-0.0242335
-0.0179955
-0.0239491
-0.0159656
-0.0197949
-0.0168566
-0.0215975
-0.0199044
-0.0132609
-0.0146712
-0.0158009
-0.015219
-0.0241323
-0.0203932
-0.0243914
-0.0157423
-0.019202
-0.0154552
-0.0166175
-0.0920746
-0.0817914
-0.0775817
-0.0924461
-0.0801901
-0.0752934
-0.0741126
-0.0841518
-0.0767616
-0.0765666
-0.078068
-0.0763146
-0.0744631
-0.0762686
-0.0809833
-0.0772705
-0.0801146
-0.0757012
-0.072837
-0.0765464
-0.0695332
-0.080835
-0.0809784
-0.0821777
-0.0713507
-0.0727588
-0.0643964
-0.0494168
-0.0811527
-0.0819234
-0.0804147
-0.0764674
-0.0927341
-0.0473136
-0.0567066
-0.109783
-0.0801701
-0.0821108
-0.100714
-0.127776
-0.0650146
-0.0917817
-0.164122
-0.0848037
-0.0971349
-0.141241
-0.173809
-0.0993362
-0.120134
-0.213102
-0.102223
-0.126346
-0.18734
-0.210907
-0.127537
-0.145641
-0.076977
-0.0820168
-0.0791335
-0.0750989
-0.0751358
-0.0793389
-0.0786229
-0.0775013
-0.0795821
-0.0851642
-0.0755895
-0.0778889
-0.0793244
-0.0859714
-0.0813964
-0.0877854
-0.0931816
-0.0782684
-0.0705978
-0.0874143
-0.0729923
-0.0829908
-0.0934826
-0.0904617
-0.0646791
-0.0468295
-0.064331
-0.04371
-0.0796515
-0.0886583
-0.0824292
-0.0435722
-0.0482453
-0.0400182
-0.0381391
-0.0799139
-0.0804916
-0.0773214
-0.054885
-0.0805422
-0.0405533
-0.0563553
-0.0869187
-0.0770759
-0.0770631
-0.0879128
-0.106902
-0.0634174
-0.084646
-0.110154
-0.0775763
-0.0893116
-0.113833
-0.132476
-0.0918614
-0.11153
-0.0884846
-0.10821
-0.112898
-0.0915316
-0.0877726
-0.105346
-0.107758
-0.100531
-0.116326
-0.125
-0.0892881
-0.098261
-0.110908
-0.12005
-0.10444
-0.126034
-0.121128
-0.0978453
-0.074104
-0.118096
-0.0841324
-0.0965518
-0.117359
-0.10601
-0.0640242
-0.0451577
-0.0714221
-0.0502796
-0.08714
-0.103087
-0.0957624
-0.0421119
-0.0398259
-0.0480495
-0.0493015
-0.0788774
-0.0931044
-0.0846348
-0.0413815
-0.0541679
-0.0513632
-0.062163
-0.0765765
-0.0822769
-0.0778605
-0.0607187
-0.0822024
-0.0675253
-0.0856765
-0.0872419
-0.0776684
-0.085817
-0.0893928
-0.108644
-0.0914947
-0.106639
-0.131698
-0.158211
-0.160493
-0.130998
-0.127082
-0.155006
-0.15834
-0.138029
-0.161347
-0.158372
-0.129533
-0.134655
-0.158198
-0.149445
-0.128948
-0.154302
-0.140228
-0.131786
-0.0951078
-0.148564
-0.128437
-0.11001
-0.134651
-0.118656
-0.0808384
-0.0557575
-0.11855
-0.0924844
-0.097829
-0.113928
-0.102123
-0.0528163
-0.0536347
-0.0866375
-0.0787902
-0.0861397
-0.0987298
-0.0900295
-0.0560544
-0.0674229
-0.0801515
-0.0887864
-0.0789283
-0.0877651
-0.0843963
-0.0725002
-0.0890004
-0.0923014
-0.101929
-0.0863181
-0.0848743
-0.0910203
-0.0941991
-0.107526
-0.105032
-0.111969
-0.0278557
-0.0248388
-0.0357684
-0.0196618
-0.0231714
-0.022411
-0.0271196
-0.0355143
-0.0402826
-0.0421808
-0.0235634
-0.0234479
-0.0276859
-0.0262851
-0.0327776
-0.0395046
-0.0323142
-0.0234252
-0.0254102
-0.0249309
-0.0200066
-0.0391866
-0.0305352
-0.0289217
-0.0277285
-0.0388537
-0.0192224
-0.0228707
-0.0683759
-0.03047
-0.0445764
-0.0448381
-0.0615689
-0.0263266
-0.0414527
-0.106387
-0.0528047
-0.0809587
-0.0692726
-0.0847187
-0.0474606
-0.0640776
-0.137624
-0.0896424
-0.113081
-0.0885743
-0.0864133
-0.0688398
-0.0741601
-0.130605
-0.119945
-0.119533
-0.0815946
-0.0624029
-0.0711099
-0.0502078
-0.0425828
-0.0517358
-0.0643333
-0.0284834
-0.030917
-0.0406413
-0.0470438
-0.0461512
-0.0671612
-0.0693459
-0.0310163
-0.0285235
-0.0474812
-0.0394479
-0.0347123
-0.0647676
-0.0421919
-0.0267633
-0.0201432
-0.0347131
-0.0222633
-0.0281905
-0.0367916
-0.0283905
-0.0187034
-0.0200602
-0.0199587
-0.0178381
-0.0389662
-0.027723
-0.0313527
-0.0226471
-0.0356703
-0.0187398
-0.0259136
-0.0703245
-0.0345738
-0.0507119
-0.0412158
-0.0579669
-0.0298705
-0.0452289
-0.103021
-0.0580928
-0.0836356
-0.0631605
-0.0710179
-0.0508489
-0.0619359
-0.113351
-0.091672
-0.10038
-0.0687539
-0.0485699
-0.0612304
-0.0448085
-0.0781105
-0.0877868
-0.0973761
-0.0599538
-0.0605045
-0.0699503
-0.0701821
-0.0788401
-0.0993059
-0.0915821
-0.0590165
-0.0444187
-0.0677789
-0.0535187
-0.0426383
-0.08184
-0.0517994
-0.0381134
-0.0234459
-0.0477101
-0.0306344
-0.0297491
-0.0453879
-0.0363773
-0.0209049
-0.0189335
-0.0270157
-0.0230849
-0.0321118
-0.035882
-0.0390207
-0.0196298
-0.0253623
-0.0234829
-0.0279271
-0.0488688
-0.041395
-0.0535218
-0.0285822
-0.0423575
-0.0302945
-0.0395643
-0.0810755
-0.0595595
-0.0806803
-0.0478055
-0.0589879
-0.0429556
-0.0491618
-0.0981118
-0.0868365
-0.0929597
-0.0586243
-0.0437325
-0.0484936
-0.0387997
-0.109417
-0.0759834
-0.087049
-0.0709938
-0.069894
-0.0517948
-0.0498333
-0.098084
-0.0780752
-0.0675604
-0.0670601
-0.055091
-0.0490965
-0.0503844
-0.0579088
-0.0693987
-0.0687679
-0.0505071
-0.0345839
-0.0514451
-0.0487309
-0.040635
-0.0676003
-0.0619828
-0.0307235
-0.0257683
-0.0472385
-0.042291
-0.0423981
-0.0603617
-0.0596402
-0.0259155
-0.0298758
-0.0411667
-0.0402513
-0.057074
-0.0618078
-0.0725085
-0.0320902
-0.0399991
-0.0410654
-0.043757
-0.0818193
-0.0769874
-0.0887939
-0.0425416
-0.0464689
-0.0445363
-0.0446891
-0.0916231
-0.0916174
-0.091613
-0.0456216
-0.0376977
-0.0438807
-0.0389207
-0.0144513
-0.0142874
-0.0179648
-0.01164
-0.0118813
-0.0130358
-0.0133439
-0.0151609
-0.0187322
-0.0169625
-0.0119513
-0.0131626
-0.0131532
-0.0121416
-0.0183479
-0.0156602
-0.0140625
-0.0138951
-0.0171478
-0.0118044
-0.0121088
-0.0312472
-0.0145278
-0.0198641
-0.0196574
-0.0278092
-0.012924
-0.0177173
-0.0500704
-0.0232459
-0.0368377
-0.0310983
-0.0358761
-0.0199946
-0.0263576
-0.0652722
-0.0421074
-0.05574
-0.0378587
-0.0384798
-0.0281678
-0.0308978
-0.0610897
-0.0587015
-0.0577558
-0.0376504
-0.0338542
-0.0308711
-0.0289977
-0.0435368
-0.0537497
-0.0386017
-0.0331838
-0.0328697
-0.028448
-0.0276714
-0.0220832
-0.0341481
-0.0411941
-0.0161024
-0.0152382
-0.0260644
-0.0247332
-0.0194312
-0.0407076
-0.03038
-0.0147737
-0.0129214
-0.0229575
-0.0169697
-0.014319
-0.0256392
-0.0169374
-0.0122939
-0.0117743
-0.0153355
-0.0127697
-0.0138189
-0.0147687
-0.0144823
-0.013524
-0.0145764
-0.0141591
-0.0135094
-0.020608
-0.0238858
-0.0187247
-0.0197288
-0.0215155
-0.0228268
-0.0180463
-0.0513434
-0.0279323
-0.0405903
-0.0257599
-0.0290326
-0.0211226
-0.0237535
-0.0557805
-0.0444967
-0.0487423
-0.0292249
-0.0277332
-0.0241473
-0.0235743
-0.0370081
-0.0463274
-0.0327823
-0.0271596
-0.0260608
-0.0230922
-0.0221688
-0.0525199
-0.0586866
-0.0601906
-0.0362298
-0.0298876
-0.039372
-0.0334826
-0.0340947
-0.0571873
-0.0409666
-0.0270689
-0.0189668
-0.0307858
-0.0236921
-0.0181473
-0.0347714
-0.0233757
-0.0168973
-0.0134771
-0.0216556
-0.0166562
-0.0159088
-0.0162484
-0.0180959
-0.0153215
-0.0173966
-0.0150593
-0.0164593
-0.0179498
-0.0193706
-0.018338
-0.0165176
-0.0195609
-0.017734
-0.0168983
-0.0374833
-0.0264072
-0.0329471
-0.0201123
-0.0219883
-0.0170464
-0.0182214
-0.0458524
-0.0348332
-0.0369362
-0.0223113
-0.0220353
-0.0184951
-0.0186223
-0.0314372
-0.0356062
-0.0281985
-0.0216448
-0.0208509
-0.0184679
-0.0184978
-0.0579119
-0.0348972
-0.0364093
-0.0346452
-0.0310547
-0.0244015
-0.0235016
-0.0410636
-0.0345042
-0.0331576
-0.0290919
-0.0244657
-0.0239438
-0.0258962
-0.0257548
-0.0340955
-0.0348966
-0.0229823
-0.0182998
-0.0261962
-0.0244746
-0.0218104
-0.0348535
-0.0333299
-0.0172865
-0.0160487
-0.0238685
-0.0217672
-0.0255652
-0.0329581
-0.0330676
-0.0160807
-0.0167532
-0.0211948
-0.0200028
-0.0328298
-0.0338237
-0.0356505
-0.017077
-0.018005
-0.0199704
-0.0197771
-0.0351598
-0.0360303
-0.0351558
-0.0182193
-0.0182463
-0.0197255
-0.019274
-0.0280615
-0.0343168
-0.030276
-0.018131
-0.0184417
-0.0193309
-0.0206815
-0.00914936
-0.00948088
-0.0104337