/*--------------------------------*- C++ -*----------------------------------*\
  =========                 |
  \\      /  F ield         | OpenFOAM: The Open Source CFD Toolbox
   \\    /   O peration     | Website:  https://openfoam.org
    \\  /    A nd           | Version:  10
     \\/     M anipulation  |
\*---------------------------------------------------------------------------*/
FoamFile
{
    format      ascii;
    class       volScalarField;
    location    "6.4";
    object      turbidity_0;
}
// * * * * * * * * * * * * * * * * * * * * * * * * * * * * * * * * * * * * * //

dimensions      [0 0 0 0 0 0 0];

internalField   nonuniform List<scalar> 
12920
(
-0.0157929
-0.0556652
-0.0855925
-0.116424
-0.142231
-0.167524
-0.189437
-0.206865
-0.219933
-0.23021
-0.238424
-0.244658
-0.249588
-0.25611
-0.263515
-0.273235
-0.28677
-0.302489
-0.322528
-0.351013
-0.0250748
-0.0447253
-0.0720934
-0.103693
-0.138606
-0.176107
-0.208106
-0.221207
-0.225867
-0.225886
-0.226738
-0.228152
-0.237574
-0.253256
-0.283468
-0.322005
-0.369391
-0.417134
-0.466012
-0.516119
-0.00951156
-0.0321821
-0.0631016
-0.102829
-0.138874
-0.173297
-0.215241
-0.242645
-0.282003
-0.312248
-0.344687
-0.369889
-0.3967
-0.419019
-0.446496
-0.481619
-0.526825
-0.57811
-0.630027
-0.678717
-0.0386852
-0.0497035
-0.0700153
-0.0966253
-0.131044
-0.18312
-0.234878
-0.286812
-0.325786
-0.366937
-0.400629
-0.431982
-0.46418
-0.497666
-0.539688
-0.586521
-0.639464
-0.694918
-0.749454
-0.801771
-0.0335433
-0.0439277
-0.0616266
-0.0874017
-0.113618
-0.1423
-0.178897
-0.221346
-0.264511
-0.317272
-0.361525
-0.417725
-0.4673
-0.518361
-0.564487
-0.611145
-0.659276
-0.704805
-0.745367
-0.778153
-0.037965
-0.039965
-0.0515647
-0.0687051
-0.0882552
-0.106895
-0.128341
-0.150374
-0.168886
-0.19347
-0.217343
-0.266587
-0.351964
-0.457251
-0.539573
-0.595072
-0.629853
-0.652449
-0.66987
-0.682876
-0.027609
-0.0488877
-0.056814
-0.0797311
-0.105316
-0.125909
-0.148285
-0.164994
-0.172082
-0.186124
-0.202901
-0.236282
-0.289724
-0.379176
-0.468195
-0.530152
-0.560185
-0.565687
-0.551105
-0.538432
-0.0239121
-0.0480432
-0.0641664
-0.0865962
-0.10687
-0.124217
-0.120916
-0.118353
-0.113261
-0.107406
-0.114061
-0.141516
-0.200594
-0.281491
-0.346913
-0.38721
-0.397192
-0.385679
-0.367037
-0.365678
-0.01011
-0.0180226
-0.0339376
-0.056059
-0.0776049
-0.0883399
-0.0983724
-0.0898221
-0.0827782
-0.0809162
-0.0807398
-0.0844639
-0.12629
-0.180117
-0.231444
-0.226915
-0.239754
-0.249654
-0.26805
-0.294473
-0.0296768
-0.0425158
-0.048153
-0.0715791
-0.089739
-0.0843454
-0.0807163
-0.0764732
-0.0784746
-0.0823297
-0.0823564
-0.0791161
-0.0812874
-0.0898825
-0.137387
-0.165127
-0.190516
-0.216809
-0.247099
-0.279998
-0.0931333
-0.0619279
-0.0802892
-0.104975
-0.116098
-0.103311
-0.0921787
-0.0907372
-0.103277
-0.102876
-0.0941177
-0.084435
-0.0778767
-0.0768274
-0.111529
-0.152705
-0.180427
-0.207739
-0.23753
-0.271392
-0.0416834
-0.0737685
-0.0986205
-0.126194
-0.147828
-0.136864
-0.135768
-0.13375
-0.137558
-0.123749
-0.106188
-0.0948273
-0.0834537
-0.0788155
-0.105975
-0.147036
-0.176744
-0.20992
-0.248842
-0.292567
-0.064002
-0.0602015
-0.0823949
-0.109324
-0.139403
-0.169227
-0.171582
-0.177861
-0.175108
-0.155478
-0.13299
-0.115264
-0.106879
-0.107974
-0.153336
-0.184875
-0.22026
-0.265619
-0.318706
-0.375727
-0.0437429
-0.0542313
-0.0743784
-0.0980551
-0.122087
-0.145601
-0.181158
-0.227757
-0.262831
-0.295163
-0.277185
-0.27401
-0.262772
-0.271231
-0.286242
-0.31663
-0.356418
-0.411129
-0.470885
-0.535596
-0.0340292
-0.0492974
-0.0857492
-0.115612
-0.142587
-0.175158
-0.201189
-0.235427
-0.274755
-0.317344
-0.341951
-0.366884
-0.376146
-0.397739
-0.42027
-0.455021
-0.493985
-0.539071
-0.580078
-0.617008
-0.0408581
-0.0481002
-0.0806175
-0.120157
-0.15356
-0.186749
-0.215359
-0.242466
-0.278127
-0.317627
-0.360707
-0.401312
-0.434797
-0.468638
-0.499012
-0.52999
-0.556448
-0.575183
-0.581602
-0.582931
-0.11219
-0.0750718
-0.126098
-0.174092
-0.15649
-0.217329
-0.244239
-0.278555
-0.305327
-0.343521
-0.380142
-0.416002
-0.448844
-0.477309
-0.503024
-0.525745
-0.544642
-0.555659
-0.559033
-0.559666
-0.0627547
-0.0601543
-0.0668025
-0.119923
-0.152978
-0.199383
-0.236673
-0.265113
-0.297806
-0.323782
-0.355411
-0.379825
-0.403137
-0.420512
-0.436392
-0.445072
-0.45227
-0.456535
-0.460131
-0.46595
-0.0518836
-0.05161
-0.0696262
-0.122029
-0.138919
-0.190835
-0.225299
-0.272776
-0.301303
-0.320502
-0.337263
-0.350461
-0.365045
-0.377193
-0.392182
-0.402835
-0.416056
-0.431833
-0.449956
-0.465392
-0.0654172
-0.0677744
-0.081014
-0.101775
-0.114836
-0.129808
-0.139317
-0.159752
-0.188984
-0.233097
-0.274109
-0.308237
-0.334155
-0.354578
-0.370825
-0.383792
-0.393398
-0.398829
-0.400815
-0.405067
-0.0159105
-0.0379043
-0.0431963
-0.0392319
-0.055652
-0.066495
-0.0762164
-0.0813611
-0.0831008
-0.0811245
-0.0765442
-0.0687249
-0.06645
-0.0718683
-0.0838397
-0.0885211
-0.0777526
-0.0589001
-0.0448156
-0.0376542
-0.0076395
-0.0215918
-0.0324619
-0.0336962
-0.0524252
-0.0443384
-0.0385004
-0.0313063
-0.0298799
-0.0302763
-0.0319329
-0.0347797
-0.03967
-0.0472015
-0.0596479
-0.0747979
-0.0954021
-0.123116
-0.15108
-0.151858
-0.00268475
-0.0160741
-0.0352665
-0.0342967
-0.0328044
-0.0278815
-0.0344769
-0.039288
-0.0457748
-0.0499535
-0.0559069
-0.062632
-0.0727553
-0.0844639
-0.0989154
-0.115827
-0.12683
-0.126699
-0.116165
-0.0973653
-0.00883289
-0.019545
-0.0278474
-0.0238204
-0.028209
-0.031314
-0.0419794
-0.0471677
-0.0570289
-0.0602115
-0.067607
-0.0695094
-0.077237
-0.0860466
-0.0980621
-0.108381
-0.114744
-0.115516
-0.113513
-0.1169
-0.0118064
-0.0066554
-0.00947596
-0.00966084
-0.0136033
-0.0206878
-0.0308672
-0.0478022
-0.0708719
-0.0927712
-0.116526
-0.118557
-0.116747
-0.100313
-0.0964361
-0.0954146
-0.0972418
-0.0991337
-0.104478
-0.114714
-0.00582612
-0.00570272
-0.0044787
-0.00564123
-0.00743737
-0.0109745
-0.0155508
-0.024386
-0.0375157
-0.063802
-0.105286
-0.146761
-0.162657
-0.131111
-0.100484
-0.0854747
-0.0820628
-0.0857406
-0.0945842
-0.111118
-0.0211467
-0.00824725
-0.00578546
-0.00741494
-0.0123449
-0.0159955
-0.025185
-0.030118
-0.0415927
-0.0564847
-0.0794843
-0.114816
-0.144407
-0.145798
-0.114887
-0.0879286
-0.0725825
-0.0708435
-0.0757608
-0.0886347
-0.0206912
-0.0116801
-0.00834745
-0.00912743
-0.0133428
-0.0161153
-0.0225404
-0.0242292
-0.0291582
-0.0394976
-0.058453
-0.0925937
-0.132291
-0.149598
-0.0795231
-0.0636614
-0.0616927
-0.0645302
-0.0675037
-0.0730376
-0.00331624
-0.00415499
-0.00884835
-0.010342
-0.0164894
-0.0180095
-0.0211092
-0.0307874
-0.0353578
-0.0325903
-0.0453244
-0.0796984
-0.117297
-0.141977
-0.089588
-0.0484649
-0.0497436
-0.052999
-0.0558356
-0.0582535
-0.0149459
-0.00922599
-0.0106288
-0.0166378
-0.0249087
-0.0265437
-0.0326323
-0.0464631
-0.0430889
-0.0319728
-0.0288532
-0.0459855
-0.0793279
-0.110732
-0.0765684
-0.0412561
-0.042011
-0.0452796
-0.0488778
-0.0520136
-0.0326554
-0.0200765
-0.0245987
-0.0443922
-0.0579364
-0.0605049
-0.0708844
-0.0809111
-0.0698951
-0.0366569
-0.0292708
-0.0348896
-0.0564022
-0.0894738
-0.0738969
-0.0406938
-0.0390371
-0.0416985
-0.0465448
-0.0516876
-0.0103293
-0.0230148
-0.0283677
-0.0475414
-0.0746938
-0.0848501
-0.0997979
-0.109772
-0.0877173
-0.0506758
-0.0397074
-0.0450977
-0.0632489
-0.0874303
-0.0724026
-0.0425726
-0.043146
-0.0492568
-0.0554768
-0.0596905
-0.0493705
-0.0227129
-0.0207577
-0.0245441
-0.0406112
-0.0397096
-0.0661475
-0.0660246
-0.0730406
-0.0803407
-0.0763373
-0.0752682
-0.0800333
-0.0816286
-0.0559889
-0.0559694
-0.0655298
-0.0776284
-0.0832739
-0.0843767
-0.0130733
-0.0148899
-0.0187976
-0.0209268
-0.0289578
-0.0322226
-0.050658
-0.0556556
-0.0683199
-0.0770635
-0.0771092
-0.0750508
-0.0722481
-0.0730821
-0.0778165
-0.0892275
-0.106243
-0.118625
-0.125858
-0.132815
-0.0151017
-0.00830311
-0.0124992
-0.0155452
-0.019837
-0.0241354
-0.0356218
-0.0372256
-0.0513871
-0.0576238
-0.0681629
-0.0720476
-0.0763497
-0.0836006
-0.0908426
-0.0982286
-0.102546
-0.100311
-0.0937767
-0.0910579
-0.0263695
-0.0158345
-0.0174651
-0.0190313
-0.0195549
-0.0226105
-0.0276974
-0.0298215
-0.0394198
-0.0449942
-0.054514
-0.0581083
-0.064258
-0.0663655
-0.0694745
-0.0673303
-0.0640473
-0.0577458
-0.0513893
-0.0479136
-0.0573638
-0.0172836
-0.0151974
-0.0217948
-0.0221814
-0.0512034
-0.0332581
-0.0387627
-0.0391571
-0.0433249
-0.0469222
-0.0483183
-0.0500415
-0.0498103
-0.0494846
-0.047763
-0.0456225
-0.0428512
-0.0402348
-0.0395494
-0.0343445
-0.00959728
-0.0102249
-0.0182894
-0.0251918
-0.0371255
-0.0457548
-0.0417994
-0.0400898
-0.0384466
-0.0383954
-0.0375727
-0.0372288
-0.0364908
-0.0361445
-0.0357074
-0.0357966
-0.0362868
-0.0374374
-0.0396163
-0.0134052
-0.00933718
-0.0102765
-0.0175748
-0.0241523
-0.0353659
-0.0421993
-0.0421426
-0.0381186
-0.0328793
-0.032124
-0.0331952
-0.0359342
-0.0397163
-0.0452629
-0.0518919
-0.060359
-0.0706853
-0.0835609
-0.0976384
-0.0162709
-0.025917
-0.0348863
-0.0422597
-0.0468662
-0.0489793
-0.0535786
-0.0632342
-0.0825016
-0.10212
-0.118802
-0.128863
-0.137331
-0.138379
-0.135382
-0.124517
-0.108945
-0.093299
-0.0795326
-0.0688342
-0.00779304
-0.0136455
-0.0142666
-0.0143636
-0.020736
-0.0257041
-0.0301633
-0.0324277
-0.0328513
-0.0320053
-0.0307883
-0.0302827
-0.0328981
-0.0376399
-0.0427358
-0.0417225
-0.0345865
-0.0269917
-0.0228532
-0.0216028
-0.00652283
-0.0130129
-0.0144739
-0.0154605
-0.0202447
-0.0183406
-0.0171623
-0.0166417
-0.0176632
-0.0187497
-0.0207656
-0.0231235
-0.0268022
-0.0312035
-0.0368763
-0.0425285
-0.049122
-0.0552677
-0.0570826
-0.0485699
-0.00753328
-0.0208007
-0.0226039
-0.014261
-0.0138229
-0.0154954
-0.0193947
-0.0217827
-0.0245947
-0.0267708
-0.0296367
-0.0326481
-0.0362931
-0.0394761
-0.0422623
-0.0438382
-0.0425834
-0.0384216
-0.0339818
-0.0305113
-0.00678538
-0.0154612
-0.0158713
-0.0108144
-0.0127395
-0.0159602
-0.0215758
-0.0243074
-0.0287641
-0.0293897
-0.0317682
-0.0320562
-0.0334529
-0.034309
-0.035055
-0.0348999
-0.0342073
-0.0331028
-0.0324241
-0.0334556
-0.0117406
-0.00741011
-0.00750174
-0.00659989
-0.00881999
-0.0139683
-0.0213348
-0.0292346
-0.0395194
-0.0435314
-0.0490128
-0.0437224
-0.0404076
-0.0349642
-0.0334288
-0.0326111
-0.0326886
-0.0328627
-0.0337291
-0.0352755
-0.00761171
-0.00517892
-0.00460426
-0.00532516
-0.00698631
-0.0106791
-0.015596
-0.0239935
-0.0366085
-0.0527822
-0.0718141
-0.0777053
-0.0661337
-0.0453853
-0.0367502
-0.0349905
-0.0359957
-0.0377581
-0.0403008
-0.0433581
-0.0197344
-0.0054725
-0.0042141
-0.0060135
-0.00844719
-0.011325
-0.0144879
-0.0212682
-0.0295686
-0.0430302
-0.0556851
-0.0669411
-0.0679011
-0.056173
-0.0441509
-0.04055
-0.0417291
-0.0443196
-0.0472956
-0.0501706
-0.00599265
-0.00617939
-0.00542434
-0.00692192
-0.00901489
-0.0105897
-0.0113756
-0.0161143
-0.0217807
-0.0333538
-0.0472323
-0.0636755
-0.0686013
-0.0563933
-0.0396344
-0.041657
-0.0443397
-0.0455767
-0.0449822
-0.0434749
-0.00153655
-0.00464225
-0.0068508
-0.00835688
-0.0113771
-0.0118177
-0.0124006
-0.0148877
-0.0153997
-0.021148
-0.0365894
-0.0560527
-0.0663734
-0.0562542
-0.0381783
-0.0368426
-0.0371511
-0.0353294
-0.0323086
-0.0291026
-0.0101559
-0.00678412
-0.00825231
-0.0129931
-0.017407
-0.0174694
-0.018781
-0.0224736
-0.017352
-0.0142617
-0.0206567
-0.0376576
-0.0549648
-0.0518842
-0.0305776
-0.028832
-0.0306737
-0.0308639
-0.0293204
-0.0267985
-0.0188757
-0.0127005
-0.0146889
-0.0273935
-0.0374925
-0.0416927
-0.0507721
-0.0497515
-0.0276964
-0.0165206
-0.0179638
-0.027071
-0.0412872
-0.04369
-0.0245651
-0.0270998
-0.0316584
-0.0337852
-0.0329152
-0.0300941
-0.0111318
-0.0149649
-0.0157716
-0.0300934
-0.0461016
-0.0494321
-0.0555303
-0.054646
-0.0354637
-0.0238927
-0.0221422
-0.027499
-0.034267
-0.0338483
-0.0240268
-0.0306054
-0.0345969
-0.0345389
-0.0314627
-0.0276752
-0.0568148
-0.02925
-0.0127086
-0.0135521
-0.0203655
-0.0185865
-0.0264835
-0.0296394
-0.034935
-0.0389917
-0.0378409
-0.036419
-0.0348431
-0.032144
-0.0333199
-0.0376551
-0.0396627
-0.0376425
-0.0330659
-0.0289587
-0.00503551
-0.00755246
-0.00954848
-0.0107614
-0.0146137
-0.0158822
-0.0224593
-0.0238078
-0.0284233
-0.0310578
-0.0315344
-0.0333129
-0.0349259
-0.0390637
-0.0428772
-0.0456509
-0.0467731
-0.0449178
-0.0423135
-0.0412338
-0.012031
-0.00707513
-0.00835991
-0.00956851
-0.0108161
-0.0125037
-0.0177021
-0.0186271
-0.0234785
-0.0250552
-0.0286766
-0.0315475
-0.0346805
-0.0374174
-0.0389397
-0.0385581
-0.0368477
-0.0339801
-0.031277
-0.0301619
-0.0102321
-0.00868689
-0.00854723
-0.00919154
-0.00951011
-0.0115375
-0.0145806
-0.0164833
-0.0199933
-0.0214233
-0.0240859
-0.0249252
-0.02674
-0.0266701
-0.0267725
-0.0254576
-0.0242786
-0.0229461
-0.0220882
-0.022055
-0.0242605
-0.00995153
-0.00950288
-0.0107527
-0.0121428
-0.0189581
-0.0156622
-0.0175616
-0.0183366
-0.01862
-0.0193299
-0.0191313
-0.0195364
-0.0192708
-0.0192401
-0.0189633
-0.0188503
-0.0188545
-0.0191447
-0.0199372
-0.0107717
-0.00803796
-0.00810408
-0.0104948
-0.0130261
-0.0158445
-0.017155
-0.0159804
-0.0155795
-0.0151295
-0.0150808
-0.0149486
-0.0151394
-0.0153722
-0.0158424
-0.0163915
-0.0171415
-0.018043
-0.0191756
-0.020563
-0.00881562
-0.00577141
-0.0076691
-0.0110984
-0.014119
-0.0173419
-0.0195829
-0.0199593
-0.0209906
-0.0201142
-0.0208757
-0.0205919
-0.021679
-0.0220024
-0.0231343
-0.0240762
-0.0254154
-0.0268567
-0.0285293
-0.030198
-0.0192472
-0.0129423
-0.0145359
-0.0190558
-0.0191333
-0.0179641
-0.0216153
-0.0301325
-0.0448843
-0.0587767
-0.0702561
-0.0770609
-0.0803743
-0.0776462
-0.0707116
-0.0597094
-0.0478068
-0.0373632
-0.0295791
-0.0249248
-0.0107243
-0.00909751
-0.00822993
-0.00891727
-0.0105255
-0.0111132
-0.0115215
-0.010782
-0.0100155
-0.00983622
-0.0113064
-0.0140861
-0.0173568
-0.0199318
-0.021484
-0.0203501
-0.0189508
-0.0187409
-0.0195683
-0.0205505
-0.0163764
-0.0120381
-0.00924366
-0.00972268
-0.0102798
-0.0101187
-0.0101311
-0.0107109
-0.0117486
-0.0132384
-0.0149239
-0.0166897
-0.0186553
-0.0204348
-0.0222487
-0.0234228
-0.0245293
-0.0241281
-0.0225915
-0.0199647
-0.00870719
-0.0150915
-0.011758
-0.00927325
-0.0105159
-0.0125829
-0.0144785
-0.0156898
-0.0167281
-0.0175702
-0.0182505
-0.0187684
-0.0191318
-0.0190198
-0.0188016
-0.0181475
-0.0171451
-0.0160801
-0.0156571
-0.0158405
-0.00313717
-0.00877585
-0.00808807
-0.00766662
-0.0101502
-0.0129801
-0.0152599
-0.0161669
-0.0171209
-0.0168523
-0.0167934
-0.0162025
-0.0158208
-0.0154176
-0.0152095
-0.015052
-0.0151249
-0.0153593
-0.0159044
-0.0168916
-0.00637865
-0.00627495
-0.00563371
-0.00669828
-0.00927354
-0.0125429
-0.0158337
-0.0180595
-0.0209467
-0.0205098
-0.0210277
-0.0184426
-0.0171747
-0.0156672
-0.0153012
-0.0151771
-0.0154332
-0.0157794
-0.0163896
-0.0172059
-0.00286666
-0.00346027
-0.00370012
-0.00528684
-0.00760322
-0.0109742
-0.0139376
-0.0185327
-0.0244272
-0.0289384
-0.0332574
-0.0300788
-0.0239246
-0.0186086
-0.0170969
-0.0166925
-0.0167597
-0.0168875
-0.0172218
-0.0178248
-0.00247508
-0.00328196
-0.00327643
-0.00525849
-0.00748221
-0.00999715
-0.0113016
-0.0162327
-0.0202773
-0.0256882
-0.0285268
-0.0294183
-0.0272413
-0.0233594
-0.0213337
-0.0206097
-0.0204008
-0.0200426
-0.0197812
-0.0198422
-0.00298321
-0.00357203
-0.00399312
-0.00588491
-0.00711423
-0.00845162
-0.00862403
-0.0135075
-0.0164749
-0.0222644
-0.0258716
-0.0291477
-0.0273739
-0.0247898
-0.0217588
-0.02158
-0.0206919
-0.0190412
-0.0170744
-0.0158386
-0.00152823
-0.0029273
-0.00481747
-0.00702261
-0.00870203
-0.00864485
-0.00870574
-0.00936275
-0.0114989
-0.016311
-0.0231941
-0.0277167
-0.0278296
-0.0264719
-0.0240671
-0.0162912
-0.01434
-0.012556
-0.0112828
-0.0107991
-0.00427058
-0.00509966
-0.00681072
-0.0102921
-0.0120238
-0.0114366
-0.0116683
-0.0117803
-0.010271
-0.0120195
-0.0171574
-0.0223495
-0.0247844
-0.0241246
-0.0194962
-0.0136872
-0.0123051
-0.0110721
-0.0103657
-0.0102573
-0.0120559
-0.0103515
-0.0114782
-0.0172063
-0.020777
-0.0242256
-0.0273668
-0.0212234
-0.0136578
-0.0128374
-0.0151897
-0.0183685
-0.0200538
-0.0199843
-0.0171433
-0.0148542
-0.014068
-0.0126572
-0.0115142
-0.0111399
-0.00422125
-0.0124699
-0.01152
-0.0185257
-0.0230317
-0.0246722
-0.0255287
-0.0228281
-0.0171769
-0.0151002
-0.0150665
-0.015867
-0.0165715
-0.0167247
-0.0175948
-0.0151415
-0.0138729
-0.0122849
-0.0112148
-0.0110952
-0.00947641
-0.00858759
-0.00734844
-0.0100887
-0.0118206
-0.0115825
-0.0147711
-0.0171073
-0.0183508
-0.0190072
-0.0182097
-0.0176456
-0.0177827
-0.019059
-0.016887
-0.0158191
-0.0144155
-0.0126891
-0.0115978
-0.011569
-0.00290399
-0.00508466
-0.00668695
-0.00824757
-0.00976086
-0.0106866
-0.0133121
-0.0136946
-0.0148496
-0.0159352
-0.0162287
-0.0175042
-0.0178076
-0.0181812
-0.0173761
-0.0160065
-0.0150801
-0.0140277
-0.0136071
-0.0140998
-0.00549921
-0.00561018
-0.00708393
-0.00788775
-0.00853942
-0.0096614
-0.0119169
-0.0121765
-0.0135887
-0.0138435
-0.0149643
-0.0152269
-0.0154639
-0.0149452
-0.0142897
-0.0134384
-0.0128536
-0.0125695
-0.0127927
-0.0136844
-0.00275186
-0.00448655
-0.00668958
-0.00796399
-0.00805545
-0.00917504
-0.0106209
-0.0111679
-0.0122055
-0.012239
-0.0128121
-0.0125101
-0.0126066
-0.0121895
-0.0120872
-0.0120103
-0.0122609
-0.0128105
-0.013676
-0.0147974
-0.00508113
-0.00852446
-0.00873129
-0.00902051
-0.00956695
-0.0113409
-0.0105693
-0.0110433
-0.011011
-0.0109315
-0.0110994
-0.011094
-0.011278
-0.0114136
-0.011676
-0.0120619
-0.012629
-0.0133998
-0.0143865
-0.0155123
-0.00601622
-0.00598916
-0.00727884
-0.00932344
-0.0111156
-0.0122563
-0.012636
-0.0123192
-0.0118569
-0.0115073
-0.0111304
-0.0110119
-0.0111349
-0.0114821
-0.0120139
-0.0126525
-0.0133847
-0.0141958
-0.0150959
-0.0160488
-0.00638883
-0.00450778
-0.00706249
-0.00990416
-0.0125321
-0.0155153
-0.01864
-0.0208293
-0.0227705
-0.0224424
-0.0221046
-0.0199662
-0.0180691
-0.0159078
-0.0146974
-0.0143199
-0.0147154
-0.0155109
-0.0164744
-0.0175486
-0.0010277
-0.00528933
-0.00712332
-0.00881179
-0.00893084
-0.0102319
-0.0151212
-0.0232703
-0.033641
-0.0423196
-0.0482261
-0.0492039
-0.046441
-0.0393647
-0.0311201
-0.0228186
-0.0168356
-0.0134852
-0.0123639
-0.012931
-0.0184901
-0.00764937
-0.00539351
-0.00569567
-0.00595687
-0.0056699
-0.00536313
-0.0052222
-0.00599681
-0.0076116
-0.00966082
-0.0117722
-0.0137803
-0.0151427
-0.0158798
-0.0157682
-0.0153242
-0.0146924
-0.0141211
-0.0137169
-0.0299543
-0.0155676
-0.00713281
-0.00696963
-0.00743022
-0.00809105
-0.00837113
-0.00936445
-0.0102114
-0.0114261
-0.0122619
-0.0127893
-0.0131201
-0.0131829
-0.0134559
-0.0137452
-0.0143813
-0.0150604
-0.0160057
-0.017046
-0.0083568
-0.0112559
-0.00799363
-0.00819295
-0.00994349
-0.011253
-0.0116283
-0.0116391
-0.0114116
-0.0111725
-0.0110735
-0.0111102
-0.0114244
-0.0118706
-0.0125518
-0.0132942
-0.0141113
-0.014956
-0.0157662
-0.016378
-0.00988452
-0.00652011
-0.00578972
-0.00760887
-0.00977283
-0.0109398
-0.0109101
-0.0107603
-0.0104751
-0.0103856
-0.01051
-0.0107938
-0.0112923
-0.0118942
-0.0125955
-0.0133143
-0.0140432
-0.0147467
-0.0154155
-0.0159616
-0.0093807
-0.0102793
-0.00595564
-0.00714595
-0.00907666
-0.0103276
-0.0106853
-0.0108347
-0.0109115
-0.0108417
-0.0109515
-0.011013
-0.0113601
-0.0118244
-0.0124445
-0.0131091
-0.0138082
-0.0145242
-0.0152526
-0.0158746
-0.00191682
-0.00317438
-0.00410366
-0.00599938
-0.00799792
-0.0096211
-0.0104364
-0.0111761
-0.011983
-0.0123437
-0.0127799
-0.0122887
-0.0118747
-0.0118586
-0.0123289
-0.0129599
-0.0136677
-0.0144412
-0.0152503
-0.015948
-0.00125405
-0.00211447
-0.00335647
-0.0057516
-0.00742659
-0.00885196
-0.00965217
-0.0107423
-0.0113565
-0.0120786
-0.0122525
-0.0124533
-0.0122804
-0.0122189
-0.0124088
-0.0128193
-0.0133775
-0.01407
-0.0148363
-0.0155421
-0.00615133
-0.0031899
-0.0040474
-0.00597019
-0.00726516
-0.00829367
-0.00884254
-0.0105119
-0.0110594
-0.0120762
-0.0119897
-0.0125117
-0.0117869
-0.0117526
-0.0116853
-0.0121625
-0.0126518
-0.0132206
-0.013837
-0.0143989
-0.00480393
-0.00497227
-0.00550683
-0.00709465
-0.00822224
-0.00837962
-0.00854222
-0.00970244
-0.011194
-0.0124756
-0.0127882
-0.0128183
-0.0113653
-0.0101001
-0.00943276
-0.0109608
-0.0115918
-0.0122436
-0.0128666
-0.0133437
-0.00438948
-0.00467033
-0.00634751
-0.00847751
-0.00932583
-0.00946661
-0.00956585
-0.00995902
-0.0110149
-0.0128921
-0.0140153
-0.0132215
-0.0103167
-0.00821688
-0.00808325
-0.0104807
-0.0112376
-0.0119707
-0.0126312
-0.013127
-0.0116261
-0.00773282
-0.0101762
-0.0107732
-0.0108223
-0.0123448
-0.0126062
-0.0114708
-0.0116167
-0.0127992
-0.0140161
-0.0126191
-0.00972332
-0.00800804
-0.00798818
-0.0105672
-0.0114502
-0.0123048
-0.0131017
-0.0137323
-0.0162915
-0.0133298
-0.00981844
-0.0113232
-0.0108603
-0.0121374
-0.0118302
-0.0113524
-0.0110354
-0.0115034
-0.0112971
-0.00976439
-0.00800247
-0.00710262
-0.00755988
-0.011049
-0.0122079
-0.0133395
-0.0143768
-0.0151818
-0.0197044
-0.0120613
-0.00764042
-0.00857317
-0.00881082
-0.00884175
-0.00950737
-0.00966801
-0.00946638
-0.00942361
-0.00884149
-0.00833576
-0.00785679
-0.00797244
-0.0107875
-0.0119836
-0.0132559
-0.0146045
-0.0159164
-0.0169382
-0.00805176
-0.00659633
-0.00633019
-0.00735669
-0.00788556
-0.0081503
-0.00846013
-0.00801557
-0.00796528
-0.00828265
-0.00842368
-0.0090717
-0.00949574
-0.0103489
-0.0112254
-0.0123863
-0.0137466
-0.0152451
-0.0167526
-0.0179441
-0.00208418
-0.00635436
-0.0068593
-0.00697497
-0.00738267
-0.00769928
-0.00794866
-0.0076805
-0.00772629
-0.00784175
-0.00823005
-0.00873319
-0.00939123
-0.0102653
-0.0113441
-0.0126427
-0.014111
-0.0157013
-0.0172816
-0.0184833
-0.00221836
-0.00574488
-0.00860483
-0.00789179
-0.00731008
-0.0075657
-0.00765417
-0.00767538
-0.0077161
-0.00792013
-0.00825707
-0.0087855
-0.0095004
-0.0104283
-0.011546
-0.0128527
-0.0143203
-0.0159065
-0.0175147
-0.0187742
-0.00818482
-0.00507943
-0.00789925
-0.00829397
-0.00809806
-0.00823754
-0.00785032
-0.00798615
-0.00796233
-0.00826836
-0.008664
-0.00926872
-0.0100035
-0.0109086
-0.0119534
-0.013145
-0.014486
-0.0159643
-0.0175242
-0.0188458
-0.00306731
-0.00618416
-0.0086964
-0.0100063
-0.00998318
-0.0095095
-0.00943556
-0.00899886
-0.00877527
-0.00871908
-0.00889147
-0.00931448
-0.00992915
-0.0106837
-0.0115833
-0.0126103
-0.0137774
-0.0150802
-0.0164933
-0.0177828
-0.001171
-0.00365501
-0.00857929
-0.0102525
-0.0124458
-0.0143089
-0.0164359
-0.0157789
-0.0155845
-0.013204
-0.0116231
-0.0102759
-0.0100672
-0.0103872
-0.0110273
-0.0118353
-0.0127901
-0.0139625
-0.0153526
-0.0168471
-0.00927322
-0.00819721
-0.00742618
-0.00783389
-0.00995401
-0.0144404
-0.0192828
-0.0237905
-0.0271291
-0.0264672
-0.0235835
-0.0179602
-0.0139079
-0.0107067
-0.00990436
-0.00997377
-0.0107235
-0.0116604
-0.012719
-0.0139573
-0.0179295
-0.0155803
-0.0161169
-0.0123385
-0.0161951
-0.0127863
-0.014791
-0.032731
-0.0173712
-0.0244225
-0.0181014
-0.0240461
-0.0160337
-0.0198587
-0.0169002
-0.0214895
-0.0199184
-0.01325
-0.0147156
-0.0157569
-0.0152266
-0.0243152
-0.0204402
-0.0245181
-0.0158004
-0.0192588
-0.0154717
-0.0166422
-0.0919496
-0.0816109
-0.0774901
-0.0925073
-0.0802055
-0.0751785
-0.0741498
-0.0840782
-0.0767051
-0.0766281
-0.0781134
-0.0763637
-0.0744868
-0.0763037
-0.0810046
-0.0773582
-0.0802138
-0.0757113
-0.072847
-0.0765387
-0.0692461
-0.0808557
-0.081067
-0.0822054
-0.0713613
-0.0730317
-0.0640352
-0.0492079
-0.0812438
-0.0819292
-0.0804168
-0.0769186
-0.0932098
-0.0472664
-0.0572486
-0.11069
-0.0801884
-0.0822588
-0.101367
-0.128385
-0.0657039
-0.09231
-0.164792
-0.0850396
-0.0973756
-0.142156
-0.174308
-0.0998008
-0.120493
-0.213481
-0.102499
-0.126993
-0.188105
-0.210998
-0.12793
-0.145817
-0.0769116
-0.0818524
-0.0791212
-0.0750492
-0.0751568
-0.0792335
-0.0785964
-0.0775916
-0.0796031
-0.0852693
-0.0756259
-0.0779361
-0.0793274
-0.0860495
-0.0814887
-0.0878922
-0.0931914
-0.078269
-0.0702463
-0.0873943
-0.0723758
-0.0829916
-0.0934468
-0.0903418
-0.064249
-0.0465306
-0.0636897
-0.0433723
-0.0796239
-0.0885265
-0.0822993
-0.0434193
-0.0486377
-0.0398072
-0.0382686
-0.0799945
-0.0803845
-0.0773146
-0.0554414
-0.0810907
-0.0407874
-0.0568446
-0.0870339
-0.0770856
-0.0770833
-0.088364
-0.107259
-0.0639281
-0.0851398
-0.110815
-0.0776322
-0.0898649
-0.114231
-0.13271
-0.0923631
-0.111884
-0.0885444
-0.107874
-0.113022
-0.0911618
-0.0877543
-0.105003
-0.107793
-0.100775
-0.116525
-0.125109
-0.0893979
-0.0983962
-0.111062
-0.120059
-0.104364
-0.126061
-0.120878
-0.0977383
-0.0733329
-0.117817
-0.0831188
-0.0963812
-0.117062
-0.105781
-0.063299
-0.0448653
-0.0705531
-0.0500386
-0.0869745
-0.102899
-0.0956118
-0.0419284
-0.0399115
-0.0479543
-0.0494693
-0.0788097
-0.0929364
-0.0844685
-0.041559
-0.0546228
-0.0515882
-0.0625856
-0.0765755
-0.0821327
-0.0778208
-0.0612287
-0.0827307
-0.0680021
-0.0861581
-0.0877528
-0.077701
-0.0862012
-0.0899133
-0.10901
-0.0919482
-0.106968
-0.131697
-0.158038
-0.160451
-0.130477
-0.127054
-0.154842
-0.158309
-0.138055
-0.161359
-0.157989
-0.129651
-0.134606
-0.158137
-0.149088
-0.128632
-0.154022
-0.13986
-0.131496
-0.0940361
-0.148499
-0.12786
-0.109726
-0.1343
-0.118298
-0.0798918
-0.0554597
-0.11804
-0.0919638
-0.097661
-0.113632
-0.101902
-0.0526811
-0.053819
-0.0864115
-0.0788649
-0.0859627
-0.0985303
-0.0898826
-0.0563062
-0.06784
-0.0803919
-0.0890938
-0.0788947
-0.0876585
-0.0844365
-0.072955
-0.0894403
-0.0926438
-0.102198
-0.0866672
-0.085001
-0.091289
-0.0946122
-0.107818
-0.105307
-0.112106
-0.0280514
-0.0250098
-0.0361408
-0.0197426
-0.023249
-0.022514
-0.0271502
-0.0355279
-0.040552
-0.04193
-0.0235862
-0.0234417
-0.0276672
-0.0261746
-0.0327267
-0.0391836
-0.0321145
-0.0234351
-0.0255374
-0.0247993
-0.0199198
-0.0395005
-0.0303805
-0.0289631
-0.027941
-0.0391522
-0.0191925
-0.0230567
-0.0689951
-0.0306107
-0.0450703
-0.0452584
-0.0618753
-0.0265867
-0.0418019
-0.106852
-0.0534057
-0.0815086
-0.0697213
-0.0848672
-0.0478118
-0.064327
-0.137852
-0.0901317
-0.113476
-0.0887407
-0.0861666
-0.0690527
-0.0740495
-0.129966
-0.120279
-0.119025
-0.0812615
-0.061959
-0.0708272
-0.0497165
-0.0428818
-0.0519317
-0.0643721
-0.0285105
-0.030908
-0.04058
-0.0469077
-0.0458114
-0.0671659
-0.0690044
-0.0309611
-0.0283728
-0.0472729
-0.0390222
-0.0344415
-0.0642145
-0.041653
-0.0265941
-0.0200074
-0.0342958
-0.0220242
-0.0281707
-0.0363859
-0.0282898
-0.0186217
-0.0201848
-0.0197934
-0.0178613
-0.0393443
-0.0276993
-0.0315384
-0.0228434
-0.0359917
-0.0188184
-0.0261437
-0.0708584
-0.0348277
-0.0511694
-0.0415497
-0.0582501
-0.0301369
-0.0455692
-0.103471
-0.0586071
-0.0842174
-0.0634176
-0.0709642
-0.0511755
-0.0619797
-0.112955
-0.0921863
-0.100204
-0.0685125
-0.0480685
-0.0610841
-0.0443242
-0.0781659
-0.0878612
-0.097387
-0.059859
-0.0603598
-0.0698898
-0.0699883
-0.0783444
-0.0992721
-0.0909361
-0.0587503
-0.0438743
-0.0674676
-0.0530725
-0.0420567
-0.0809558
-0.0511817
-0.0376005
-0.0231819
-0.0472627
-0.0303183
-0.0296683
-0.0449386
-0.0362935
-0.020721
-0.0189506
-0.0267964
-0.023087
-0.0322644
-0.035876
-0.0391796
-0.0196933
-0.0255516
-0.0235338
-0.0280822
-0.0493112
-0.0416059
-0.0539335
-0.0288087
-0.0426888
-0.0304756
-0.0397958
-0.0816687
-0.0600379
-0.0811811
-0.0481335
-0.0590448
-0.0431693
-0.0491644
-0.0979833
-0.08725
-0.0928674
-0.058501
-0.0432758
-0.0483762
-0.0385107
-0.109377
-0.0767757
-0.0868848
-0.0710734
-0.0696934
-0.0518909
-0.049783
-0.0974765
-0.0774197
-0.0675638
-0.0667756
-0.054774
-0.049049
-0.0504177
-0.0572994
-0.0694809
-0.0686981
-0.0501741
-0.0342814
-0.0515084
-0.0486451
-0.0405238
-0.0675623
-0.0618266
-0.0305007
-0.0257554
-0.0471943
-0.0421708
-0.0425575
-0.0603344
-0.0597496
-0.0259548
-0.0300219
-0.0411564
-0.0402957
-0.0574732
-0.0620356
-0.0728269
-0.0322584
-0.0401835
-0.0411491
-0.043816
-0.0822582
-0.077349
-0.0890421
-0.0426975
-0.0464481
-0.0445813
-0.044648
-0.0915281
-0.0918043
-0.0914783
-0.0455082
-0.0374698
-0.0437984
-0.0387806
-0.0144785
-0.0143076
-0.0179858
-0.011652
-0.0118868
-0.0130278
-0.0133055
-0.0151607
-0.0186988
-0.0168262
-0.0119574
-0.0132057
-0.0131103
-0.0121071
-0.0184646
-0.0155347
-0.0140575
-0.013961
-0.0172391
-0.011778
-0.0121374
-0.0314732
-0.0145645
-0.0200368
-0.0198148
-0.0279396
-0.0129764
-0.0178299
-0.050303
-0.0234706
-0.0371239
-0.0312761
-0.035915
-0.0201216
-0.0264511
-0.0653097
-0.0423986
-0.0559094
-0.03794
-0.0384195
-0.0282481
-0.0308938
-0.0608547
-0.0588058
-0.0575536
-0.0375933
-0.0337766
-0.0308433
-0.0289466
-0.0433015
-0.0534446
-0.038326
-0.0331464
-0.0328642
-0.0284094
-0.0276632
-0.0220733
-0.034116
-0.041009
-0.0160541
-0.01518
-0.025917
-0.0245254
-0.0192353
-0.0404339
-0.0299451
-0.0147093
-0.0128656
-0.022738
-0.0168168
-0.0142776
-0.0252442
-0.0168091
-0.0122463
-0.0117847
-0.015215
-0.0127437
-0.0138427
-0.014808
-0.0144505
-0.013538
-0.0145864
-0.0142049
-0.0135017
-0.0207684
-0.024107
-0.0188662
-0.0198893
-0.0217
-0.0230176
-0.0181745
-0.0515497
-0.0281666
-0.0408332
-0.0258459
-0.0290467
-0.0211915
-0.0237783
-0.0556088
-0.0447011
-0.0486432
-0.0292118
-0.0276841
-0.0241554
-0.0235357
-0.0367202
-0.0460975
-0.0324769
-0.0271193
-0.0260463
-0.0230549
-0.0221575
-0.0522999
-0.0588272
-0.0599614
-0.0359993
-0.0296359
-0.0392289
-0.0332704
-0.033558
-0.0568365
-0.0404732
-0.0268014
-0.0187841
-0.0305599
-0.0235474
-0.0180032
-0.0343138
-0.0232102
-0.0167517
-0.0134391
-0.0215212
-0.0165854
-0.0158828
-0.0162271
-0.0180038
-0.0152658
-0.0173579
-0.0150552
-0.0163943
-0.0180234
-0.0194846
-0.0184031
-0.0165788
-0.0196563
-0.017819
-0.0169498
-0.037701
-0.0265492
-0.0330788
-0.0201586
-0.022006
-0.0170703
-0.0182384
-0.0457743
-0.0349379
-0.0368751
-0.0223183
-0.0220042
-0.0185063
-0.0186096
-0.0311438
-0.0354707
-0.0280203
-0.0216127
-0.0208408
-0.0184528
-0.0185059
-0.0577007
-0.0351956
-0.0363546
-0.0346245
-0.0309002
-0.0244274
-0.0234959
-0.0406743
-0.0343697
-0.0331966
-0.0289354
-0.0243768
-0.0239599
-0.0259216
-0.0256068
-0.0341482
-0.0348961
-0.0228871
-0.0182283
-0.0262188
-0.0244344
-0.0218136
-0.0348689
-0.0332892
-0.0172371
-0.0160462
-0.0238503
-0.0217132
-0.0256799
-0.0329726
-0.0331068
-0.0160882
-0.0167724
-0.0211802
-0.0199903
-0.0329346
-0.0338896
-0.035682
-0.0170967
-0.0180199
-0.0199749
-0.0197613
-0.0351015
-0.0360473
-0.0351076
-0.0182281
-0.0182357
-0.0197194
-0.0192608
-0.02792
-0.0342452
-0.0301725
-0.018119
-0.0184564
-0.0193299
-0.0207105
-0.00915198
-0.00947257
-0.010411