/*--------------------------------*- C++ -*----------------------------------*\
  =========                 |
  \\      /  F ield         | OpenFOAM: The Open Source CFD Toolbox
   \\    /   O peration     | Website:  https://openfoam.org
    \\  /    A nd           | Version:  10
     \\/     M anipulation  |
\*---------------------------------------------------------------------------*/
FoamFile
{
    format      ascii;
    class       volVectorField;
    location    "6.4";
    object      U_0;
}
// * * * * * * * * * * * * * * * * * * * * * * * * * * * * * * * * * * * * * //

dimensions      [0 1 -1 0 0 0 0];

internalField   nonuniform List<vector> 
12920
(
(305.748 146.512 55.8799)
(99.3246 0.529735 29.0855)
(142.982 -7.85274 28.9022)
(46.2774 -14.6538 5.34496)
(109.079 -17.2746 7.69766)
(63.3794 -20.0938 4.74878)
(101.923 -20.9917 4.8704)
(84.5906 -23.0405 4.09223)
(107.637 -22.3168 2.91703)
(105.522 -24.4912 2.45927)
(122.044 -23.8277 1.63253)
(128.254 -26.7014 0.68495)
(147.076 -25.266 -0.497892)
(159.175 -21.466 -0.661997)
(167.586 -9.20242 0.805742)
(158.791 -0.597511 1.30488)
(148.151 6.38177 0.695171)
(137.469 6.78597 -0.229575)
(133.367 6.24729 -0.744188)
(129.14 4.7641 -0.842191)
(58.6982 -92.0733 -22.5303)
(-49.233 -21.2648 -24.957)
(103.095 -39.2787 14.1654)
(3.52819 -14.1445 -0.024115)
(92.1727 -22.0781 7.76753)
(32.2017 -20.8636 1.1317)
(81.7659 -19.2841 1.4235)
(48.9354 -18.2117 -0.43319)
(78.9206 -12.2483 -1.32499)
(65.1798 -11.3018 -2.22947)
(84.0439 -6.43264 -2.80961)
(79.7259 -5.08636 -3.41126)
(90.8544 -1.67417 -3.54725)
(89.9613 1.5193 -3.7239)
(98.647 5.80934 -3.08136)
(102.752 8.59433 -2.48151)
(107.935 8.9527 -0.836679)
(107.5 7.80252 -0.0650407)
(105.729 5.65715 1.16462)
(99.9397 2.30214 1.02299)
(413.489 -11.122 23.669)
(271.889 -16.9417 22.2477)
(214.201 -31.519 16.4731)
(79.5025 -28.6987 8.03794)
(113.447 -40.7973 3.44002)
(45.1408 -27.6104 -0.420375)
(83.9484 -31.7156 -0.388495)
(45.1539 -20.6504 -1.56201)
(74.4608 -20.9321 -1.05905)
(54.0083 -14.8344 -1.18966)
(72.5081 -14.1663 -0.898159)
(63.3832 -11.0134 -0.813359)
(74.7 -9.41262 -0.572477)
(71.0828 -4.82276 -0.487708)
(78.6679 -0.214091 -0.269004)
(77.9173 4.58263 0.107965)
(81.2973 6.70275 0.32811)
(80.3489 7.38331 0.534409)
(80.0954 7.6786 0.523491)
(79.1887 5.51014 0.260284)
(229.393 7.30313 121.886)
(20.7281 -110.848 26.1036)
(144.207 -33.7432 3.2903)
(39.1363 -23.4803 0.0647165)
(95.577 -11.3253 2.21029)
(31.7514 -11.5869 -0.240741)
(74.7032 -14.4386 0.830285)
(33.8443 -7.63233 -0.400318)
(66.5027 -10.2412 -0.122213)
(43.7683 -5.11582 -0.253702)
(63.6959 -6.68695 -0.137684)
(53.5468 -3.4711 -0.222202)
(65.4777 -3.64135 -0.195323)
(61.547 -0.200157 -0.274968)
(66.6521 1.6043 -0.0963049)
(65.1451 4.01629 0.0465958)
(68.1987 4.83049 0.155475)
(68.1077 5.11908 0.214031)
(69.6366 4.65101 0.186674)
(71.8598 2.91238 0.084221)
(162.063 -232.868 98.8122)
(-53.9733 -127.916 -5.8845)
(135.078 -56.408 -11.58)
(20.9128 -45.466 -2.36728)
(115.482 -17.5854 -2.01738)
(56.5821 -14.7106 -1.28105)
(97.1708 -26.0013 -0.511137)
(60.4262 -13.0974 -0.947507)
(85.9103 -24.1961 -0.391783)
(63.4134 -12.3613 -0.231032)
(76.8872 -19.9105 0.517046)
(60.6807 -12.5211 0.397556)
(68.8193 -14.6205 0.842842)
(63.3513 -4.98468 0.182857)
(69.0012 -2.42062 0.110039)
(66.8147 2.51376 0.0348842)
(69.7121 3.48623 0.0349652)
(69.3227 4.70228 0.04734)
(70.7973 4.56334 -0.0102716)
(73.2611 3.09032 0.0128016)
(455.051 -389.325 -282.17)
(-110.16 -100.397 0.473753)
(146.429 -80.7011 -16.5888)
(28.1584 -43.8454 -2.44332)
(120.715 -27.9197 -4.15571)
(75.0985 -7.07153 -3.35522)
(118.07 -10.8144 -1.96802)
(105.597 0.293938 -1.69561)
(120.595 -7.45817 -0.629127)
(117.033 -0.0314026 -0.10041)
(121.08 -4.71609 1.21584)
(108.134 -0.384976 3.04037)
(91.1683 -9.8237 3.85101)
(74.5745 -2.89999 1.16805)
(72.6123 -2.11955 0.388013)
(69.8065 2.22912 0.0638522)
(70.5959 2.61967 -0.09948)
(71.0798 3.5051 -0.183592)
(72.9896 2.61533 -0.273786)
(78.0043 0.724044 -0.0711369)
(106.226 -212.229 65.2825)
(-35.1152 -66.5431 -11.6897)
(123.134 -59.4031 -11.2991)
(36.1474 -30.0276 -3.16533)
(127.816 -16.3788 -2.13894)
(76.6612 -5.80454 -1.06039)
(110.372 -37.609 0.884878)
(93.8464 -8.75657 0.615813)
(109.606 -28.3191 1.51239)
(108.885 -14.0935 0.934415)
(118.893 -17.7644 0.737012)
(116.163 -3.25344 1.12838)
(110.022 -4.24771 2.58883)
(87.0494 4.61797 2.67717)
(81.474 1.00623 0.906546)
(76.4517 3.74993 0.341064)
(76.8357 2.95491 -0.0632436)
(77.1933 3.08025 -0.10271)
(80.715 0.41194 -0.230234)
(86.6032 -0.934891 -0.0344312)
(129.961 -164.81 144.87)
(36.9186 -136.093 -12.1615)
(160.358 -82.8245 -1.47223)
(42.7931 -51.5042 1.27064)
(130.959 -44.3697 0.536771)
(68.1517 2.3746 -1.27693)
(105.723 -17.5845 -1.46786)
(78.7072 -22.3931 -0.749698)
(96.6984 -24.156 0.242511)
(94.5428 -30.6154 0.842952)
(106.54 -22.8553 1.05202)
(103.15 -15.2293 1.46473)
(99.7418 -3.76357 0.877556)
(84.6119 1.10328 0.594934)
(77.8644 2.42126 0.562769)
(78.1313 3.78037 0.0401177)
(78.362 2.39781 0.00429958)
(80.8104 -0.45619 0.0347692)
(83.7405 -4.3224 -0.115252)
(87.3566 -3.85342 -0.0356557)
(192.081 -251.959 -143.331)
(183.759 -151.643 -62.2261)
(250.224 -82.463 -13.6336)
(166.177 -41.1316 -2.25823)
(180.229 -25.7139 2.03299)
(124.876 -8.40415 -1.949)
(132.425 -7.57326 0.470173)
(111.189 -25.5413 -0.767331)
(117.699 -31.5163 -0.54455)
(117.133 -38.2964 0.171823)
(121.533 -31.4291 0.762448)
(120.566 -17.0556 1.18273)
(103.839 -1.93328 0.876399)
(91.8918 2.62517 0.487111)
(82.5762 -0.443734 0.592128)
(79.8718 2.41079 -0.290391)
(82.7252 0.458293 -0.343522)
(83.5028 -2.95743 -0.268679)
(84.5922 -4.29108 -0.37773)
(84.7835 -3.26212 -0.252092)
(105.318 70.5507 -43.3323)
(0.428678 -1.73923 -14.0694)
(171.463 13.1305 -14.0243)
(87.4423 1.10031 -1.10673)
(148.331 13.8502 -0.241534)
(122.646 11.3354 -2.40672)
(138.798 9.06363 0.225743)
(129.899 -0.54083 0.403409)
(123.202 -19.8502 -0.147961)
(122.519 -26.5068 -0.343081)
(114.517 -18.8644 -0.7272)
(116.914 -8.56762 -1.09045)
(124.812 12.9897 0.230944)
(116.188 13.1257 0.462444)
(90.3628 11.4052 0.978529)
(87.6132 4.09477 -0.645353)
(90.0231 0.317415 -0.665332)
(89.7646 -1.15163 -0.457944)
(89.4358 -2.7199 -0.336069)
(88.385 -1.41085 -0.287397)
(34.2484 -87.7263 41.888)
(-42.6078 -68.7506 -18.33)
(175.32 -55.1565 -9.15183)
(65.3767 -40.4621 5.10381)
(148.724 -18.3695 4.28886)
(111.292 -6.58779 0.595247)
(121.852 -1.57507 1.71804)
(115.088 -10.7808 0.540503)
(109.126 -17.5811 -0.0560956)
(106.54 -14.5591 -0.238547)
(106.819 -6.91475 -0.29661)
(108.433 -1.08148 -0.622574)
(117.891 10.244 -1.06311)
(121.895 20.148 0.152404)
(95.2472 18.1244 0.592968)
(94.1591 3.47955 -0.375972)
(94.0303 2.55117 -0.358904)
(92.4187 0.0431075 -0.15216)
(91.8701 -0.379166 -0.171903)
(90.6102 0.416035 -0.2284)
(205.127 29.8559 -2.12495)
(38.7863 0.463439 -4.21391)
(190.683 -15.4122 -5.41274)
(54.946 -27.558 2.17339)
(145.44 -11.5008 4.41752)
(61.67 -37.5866 0.376017)
(107.991 -27.5312 1.16073)
(105.13 -14.4698 -0.142958)
(106.413 -12.3307 0.0861106)
(99.9415 -6.35327 -0.568067)
(103.001 -0.077795 -0.536795)
(101.954 5.73341 -0.310635)
(101.652 16.1384 -0.460371)
(103.422 23.7471 -0.0540236)
(97.2344 16.5834 0.427021)
(92.8586 7.18977 -0.177583)
(93.455 4.34737 -0.24185)
(90.7894 1.93088 0.00456584)
(89.3946 1.42536 0.0522037)
(87.2157 2.47781 0.0393986)
(-18.8115 36.5017 -59.7659)
(-85.6015 -30.3856 -12.2515)
(185.592 -38.1059 -10.6003)
(58.9512 -33.0182 1.05581)
(156.851 -29.02 1.77229)
(69.3542 -60.1662 -0.51906)
(109.938 -12.7914 0.112664)
(69.8501 -9.23905 0.398621)
(91.2479 -3.37491 0.252213)
(80.8435 0.695209 0.323989)
(91.5933 7.95101 -0.0114474)
(85.797 12.8061 0.0536092)
(91.0389 18.2079 0.161779)
(90.5386 19.281 0.503396)
(92.8438 11.8135 0.306749)
(93.3603 7.73166 -0.136642)
(92.0603 5.87568 0.0162457)
(88.39 3.74281 0.417001)
(84.1881 4.13829 0.434239)
(81.7667 3.72964 0.184768)
(179.927 -283.797 -3.25569)
(54.7763 -71.9094 13.4092)
(194.225 -25.3442 2.89846)
(105.116 -16.1328 0.367224)
(170.12 -6.27063 0.328067)
(105.279 -15.6445 -1.23116)
(125.275 26.2606 1.09769)
(87.8114 -21.1115 -0.0965647)
(94.8738 10.442 1.11307)
(75.8086 -12.4489 0.711053)
(84.3715 10.599 0.782988)
(78.6587 1.76746 0.593374)
(86.6896 13.3709 0.539771)
(85.568 7.67232 0.406939)
(88.7138 10.8762 0.213111)
(87.6656 8.06256 0.0676032)
(87.1576 8.69063 0.428934)
(83.5689 7.09909 0.46395)
(81.0481 6.95966 0.413703)
(80.6709 4.49042 0.242391)
(-24.6201 -57.7178 37.8764)
(-60.6297 -40.1236 -10.8946)
(147.701 -57.527 -4.90383)
(7.22898 -30.6625 -2.15478)
(133.311 -23.2133 -2.90144)
(37.8555 -26.2304 -0.790865)
(113.981 4.84731 -0.358374)
(66.778 -12.5927 0.207839)
(92.1911 4.1184 -0.0954042)
(70.3733 -5.92045 -0.0437455)
(80.7642 4.80959 0.347903)
(71.5062 1.17332 0.312977)
(78.2117 7.6351 0.17935)
(75.1642 5.94518 0.214627)
(78.3506 8.439 0.181113)
(77.1012 7.2719 0.171061)
(78.198 7.91158 0.222276)
(77.4217 6.83174 0.202793)
(77.7684 6.3337 0.104306)
(80.5541 3.42141 0.0645787)
(226.304 -176.97 -125.791)
(126.596 -22.2006 -18.2418)
(200.804 -19.6535 -4.2297)
(100.792 -0.807598 -0.51618)
(154.76 4.08981 -0.05456)
(76.3935 -2.65566 -0.784984)
(119.609 15.8337 0.188342)
(74.7849 -5.47211 -0.552108)
(99.6912 11.8497 -0.19976)
(75.4009 -3.08904 -0.250938)
(88.0202 8.98886 -0.0790045)
(74.8638 1.65602 -0.203866)
(82.2811 8.61112 -0.0277205)
(76.1534 5.11834 -0.0841351)
(80.3868 8.26937 0.0693752)
(77.5671 6.53294 0.0141813)
(79.4929 7.42272 0.0426482)
(78.4195 6.19087 0.0316084)
(79.4604 5.52218 -0.20822)
(82.4322 2.35455 -0.198121)
(-3.48113 -105.635 -73.7402)
(-40.0537 32.3376 -24.9956)
(120.845 4.59984 -0.670592)
(-44.8587 0.492494 -1.82784)
(126.952 12.003 -5.17252)
(14.2894 -3.41432 2.43613)
(103.267 9.86192 -0.182854)
(45.5213 -0.256146 0.213355)
(92.0932 7.31075 -0.0867537)
(63.9993 2.15455 -0.0187303)
(85.5644 6.78993 -0.156309)
(71.7222 4.58436 -0.204651)
(82.4411 7.19194 -0.161054)
(76.2718 6.42017 -0.226587)
(81.773 7.44359 -0.199882)
(79.5287 7.11516 -0.248064)
(82.2796 7.34044 -0.254037)
(82.1962 6.68786 -0.278464)
(84.1653 5.84317 -0.422894)
(88.5003 2.57137 -0.25738)
(-59.8168 139.879 87.7211)
(5.9971 23.5935 -7.54784)
(164.088 21.6202 -14.2294)
(35.0772 3.25454 -2.8405)
(150.889 3.54329 -2.23242)
(60.9661 -5.09315 0.0589236)
(117.862 0.223983 0.587811)
(71.108 -5.92804 -0.338988)
(101.917 2.24602 -0.0822256)
(78.7809 0.134084 -0.53688)
(94.6984 5.52796 -0.410174)
(82.6962 4.29323 -0.653297)
(91.5957 6.8348 -0.632182)
(86.3654 6.2682 -0.725805)
(91.7747 7.4249 -0.651952)
(90.4119 6.85355 -0.780036)
(94.5297 6.79591 -0.741933)
(96.695 5.61766 -0.786476)
(101.778 3.45952 -0.791705)
(107.31 1.01844 -0.525146)
(-71.0896 147.421 -20.8888)
(-140.47 -77.0159 -20.1303)
(120.227 51.0193 -10.4446)
(-19.1409 15.0054 -3.09695)
(120.78 12.0305 -4.38865)
(22.9049 11.8243 -1.58662)
(103.85 1.6345 -3.63901)
(53.0231 7.0522 -1.63174)
(99.5598 4.44598 -0.927516)
(77.2818 7.677 -0.41574)
(99.0551 8.18071 -0.425818)
(88.6015 9.35149 -0.601809)
(99.746 8.93403 -0.683291)
(96.0254 9.01821 -0.831817)
(103.087 8.2437 -0.774745)
(103.415 7.70393 -1.10493)
(109.577 6.19368 -0.989164)
(112.996 4.0053 -0.775338)
(116.982 1.76355 -0.188946)
(120.701 1.48172 0.354788)
(372.403 132.533 -208.064)
(97.1514 13.0474 -5.26061)
(231.468 45.4764 10.6046)
(135.95 32.0006 6.18835)
(204.959 25.0773 3.66166)
(164.356 18.3376 2.36829)
(189.274 -0.179684 2.45995)
(160.318 -2.97552 2.82193)
(159.214 -10.6111 4.09578)
(132.604 -1.19539 3.55429)
(134.041 2.1224 2.93599)
(124.013 6.94078 2.33906)
(129.529 7.76064 2.07053)
(127.4 8.63279 1.66871)
(133.417 7.75218 1.37845)
(135.158 6.69896 0.812824)
(141.694 4.37234 0.243034)
(145.316 2.69845 -0.21171)
(148.765 0.201593 -0.658237)
(152.794 -1.35897 -0.633844)
(133.214 142.13 -11.5058)
(-82.0285 56.8101 20.8116)
(130.176 22.5621 25.5076)
(27.7776 3.06754 3.7987)
(108.079 -6.74989 9.28341)
(68.191 -11.7935 6.57276)
(107.687 -11.5399 7.2183)
(95.6001 -12.5537 6.39204)
(117.694 -11.2293 5.01281)
(117.012 -12.2244 4.14047)
(132.865 -11.2409 2.8822)
(137.554 -11.8796 0.777916)
(150.567 -9.17791 -0.149565)
(152.942 -6.66537 -0.348249)
(155.276 0.245431 1.31254)
(145.805 6.08327 2.67887)
(137.629 8.03546 2.03203)
(128.548 5.57985 0.174479)
(125.08 2.61458 0.0307634)
(120.749 0.465403 -0.117236)
(-73.3199 -2.54538 -5.72588)
(-221.28 -20.344 -14.7702)
(88.9874 -61.8368 13.6269)
(-52.9972 -19.8499 -2.82743)
(87.5268 -24.0995 8.73198)
(21.7167 -15.0446 2.10377)
(78.2356 -10.9973 1.72704)
(48.2828 -10.4154 -1.33409)
(78.1251 -5.60157 -3.37254)
(65.2877 -6.96723 -4.91865)
(82.6906 -3.55072 -5.75572)
(77.5202 -4.17241 -6.50448)
(87.569 -1.16071 -6.30708)
(85.2689 0.815294 -6.70309)
(91.2904 4.71376 -5.24176)
(90.9174 6.51997 -3.45387)
(93.7535 6.60239 -0.832722)
(92.0581 4.85239 0.602036)
(90.9224 3.48417 2.08485)
(88.3081 1.62974 1.09361)
(374.974 -67.2685 119.187)
(243.025 -36.7852 69.2244)
(189.701 -29.8655 56.146)
(52.29 -21.4273 19.1999)
(100.948 -35.8722 7.89789)
(26.2423 -19.2811 -0.526971)
(75.0383 -25.1071 -0.412345)
(33.2168 -14.2464 -2.59562)
(66.414 -15.9159 -1.83463)
(44.901 -10.661 -2.25517)
(65.061 -10.9402 -1.75938)
(54.9106 -8.44895 -1.74067)
(66.5132 -7.02427 -1.16619)
(62.1795 -3.62909 -1.07023)
(68.8808 0.0848019 -0.431074)
(67.6318 3.61682 0.218033)
(71.1273 5.33409 0.690099)
(70.2984 5.66279 0.912189)
(71.0654 5.79313 0.923279)
(71.3762 3.86874 0.244936)
(88.1101 92.2825 -221.079)
(-61.1934 4.25649 54.6187)
(114.737 34.6375 28.508)
(7.52055 -0.857927 9.37466)
(79.6334 -6.24317 8.77296)
(12.0697 -10.5139 -0.860707)
(65.7614 -15.2606 1.27961)
(23.8908 -8.37795 -0.970266)
(59.3241 -11.9581 -0.538974)
(35.7228 -6.7374 -0.780787)
(56.715 -8.63506 -0.433626)
(45.6009 -5.20841 -0.467185)
(57.8541 -5.10678 -0.264925)
(53.2214 -1.53092 -0.500524)
(58.6935 0.296572 -0.181269)
(57.1514 2.78196 0.0325723)
(60.7313 3.61843 0.257477)
(60.9476 3.98533 0.417169)
(62.8577 3.62013 0.400042)
(65.2764 2.30571 0.00598973)
(103.165 -261.753 64.1428)
(-125.709 -102.16 -7.11639)
(113.89 -37.888 -8.42146)
(3.52055 -32.8841 1.71671)
(101.898 -14.1171 -0.774314)
(31.2653 -12.0259 -1.54518)
(82.1168 -25.4698 -0.57342)
(39.6283 -8.70248 -1.54827)
(71.3436 -22.1914 -0.413267)
(46.402 -8.33114 -0.133401)
(64.0527 -17.7953 0.938018)
(49.3061 -9.75441 0.783158)
(60.0094 -12.9338 1.45106)
(54.5368 -4.31335 0.423453)
(60.3725 -3.11948 0.261483)
(58.2232 1.36241 0.0762218)
(61.5851 1.99893 0.124692)
(61.3496 3.23788 0.1753)
(63.1511 2.93409 0.151432)
(65.5701 2.05725 -0.125991)
(144.308 -191.684 -110.632)
(-85.7378 -69.1379 53.1025)
(107.681 -76.8241 -11.0855)
(8.38225 -40.979 0.0519717)
(102.618 -28.067 -1.33355)
(42.6156 -9.32523 -3.31327)
(93.0944 -20.0118 -1.14549)
(71.8653 -5.05527 -2.03408)
(89.755 -15.0326 -0.700306)
(81.0729 -3.93643 -0.206839)
(87.4014 -9.77062 2.23354)
(75.6208 -3.22457 4.77487)
(72.271 -9.38614 5.53516)
(63.6536 -3.12448 2.12841)
(63.1676 -3.07113 0.816738)
(61.2982 0.660127 0.183599)
(62.6178 0.840727 -0.0953292)
(63.228 1.91919 -0.0995238)
(65.1072 1.1595 -0.17267)
(68.5175 0.525632 -0.18117)
(107.33 -157.325 169.045)
(-15.2112 -85.0096 11.269)
(108.116 -69.973 -5.94575)
(17.7303 -40.6941 -2.54439)
(113.827 -23.6299 -2.63577)
(49.1072 -11.1061 -1.53317)
(89.661 -44.4998 1.09239)
(67.7061 -5.67705 0.113558)
(87.4957 -26.1979 1.70355)
(82.184 -6.3903 0.788111)
(90.1106 -12.3914 1.36442)
(82.2072 2.2249 2.28471)
(80.1879 -2.11028 4.39757)
(69.7988 3.46306 3.93792)
(69.3103 -0.461432 1.80659)
(66.828 1.4743 0.652258)
(68.0923 0.18327 0.0677722)
(68.5827 0.543885 -0.0568572)
(71.2063 -0.995912 -0.18612)
(74.2931 -0.701313 -0.193349)
(287.209 -133.121 19.2846)
(22.0316 -125.482 28.4817)
(137.861 -79.578 8.16866)
(18.238 -55.1715 3.05426)
(115.591 -45.4152 0.609538)
(45.2488 2.78295 -1.49202)
(87.8482 -26.4078 0.217962)
(63.5544 -19.3751 -1.3557)
(80.9913 -26.0675 0.591336)
(78.0138 -21.5558 0.146537)
(86.6455 -15.9332 0.15623)
(81.2293 -7.81937 0.712204)
(79.1005 -3.82469 2.04346)
(70.8642 -0.658783 3.00361)
(68.4301 -0.21373 0.706141)
(69.8799 0.939659 0.00108782)
(70.5526 -0.983338 -0.0185757)
(72.4419 -1.88328 0.0823233)
(73.9371 -3.01824 -0.0861461)
(75.7039 -1.83514 -0.199606)
(293.398 -388.38 -80.3388)
(134.932 -170.234 -36.9898)
(182.578 -76.369 3.35445)
(89.1896 -42.521 1.3058)
(130.254 -30.6706 3.23934)
(98.3962 -14.2733 0.51974)
(112.638 -12.9221 -1.2692)
(90.0771 -29.5549 -2.25263)
(94.8362 -32.3828 -1.17717)
(93.6439 -28.136 -0.848843)
(95.5062 -16.0106 -0.288546)
(88.5108 -5.68519 1.32801)
(81.625 0.0705591 2.70958)
(75.2431 0.101055 2.80851)
(73.299 -3.16676 1.21327)
(73.1097 -1.22778 -0.679553)
(74.765 -2.25076 -0.458007)
(74.209 -3.35186 -0.258375)
(74.6535 -3.04573 -0.291315)
(74.4601 -1.59377 -0.506917)
(97.88 22.6724 134.916)
(12.4743 -17.3998 -48.9646)
(132.263 -4.51281 -22.0695)
(28.3688 -19.4546 0.218653)
(118.806 -4.85519 -2.20964)
(83.1758 -7.5662 -6.88037)
(112.263 -3.04015 -1.69186)
(108.852 -14.9071 2.04193)
(104.884 -24.4152 0.498383)
(100.458 -18.9395 -1.51846)
(97.2507 -7.38627 -3.46397)
(96.1713 5.27386 -2.66276)
(92.265 12.7297 0.944536)
(83.7633 10.3507 2.87962)
(79.8325 5.51279 0.909417)
(80.0985 -0.152997 -1.44598)
(79.9715 -2.63385 -0.953344)
(78.2851 -2.66256 -0.390353)
(77.6071 -2.39422 -0.130439)
(76.5048 -0.659157 -0.422044)
(105.537 -85.353 39.9405)
(-14.9458 -93.4995 -25.8396)
(149.467 -68.4054 -18.0195)
(30.4527 -51.3929 6.22911)
(131.699 -31.0885 4.04576)
(88.7434 -21.8425 2.06585)
(113.919 -12.4141 5.85757)
(112.145 -14.5366 6.33527)
(101.278 -19.2195 1.6788)
(95.3794 -11.2805 -1.29017)
(94.6325 -2.70805 -2.09675)
(96.472 5.571 -3.71181)
(95.7916 14.0917 -1.77234)
(88.9946 16.1557 2.58329)
(87.3508 7.45762 0.450706)
(84.0177 -0.702535 -0.861044)
(82.7902 -0.646267 -0.471498)
(80.2092 -1.95638 -0.0185476)
(79.2587 -0.611151 0.104613)
(77.9361 0.444241 -0.277052)
(166.425 48.5179 32.9818)
(4.89126 -3.87419 9.57187)
(172.891 -12.2113 -12.4528)
(33.8795 -18.6501 7.52641)
(138.826 -6.41654 7.55521)
(63.0998 -36.6869 4.10592)
(108.644 -27.1437 7.90786)
(103.394 -14.6974 5.50545)
(95.7427 -11.2872 1.09243)
(88.7792 -5.39876 -1.98871)
(87.6378 0.817112 -2.51945)
(87.0418 7.73787 -1.89819)
(87.4667 14.3719 -1.22498)
(87.276 16.4226 0.833968)
(87.5756 6.55801 0.815599)
(82.2565 3.38262 -0.439946)
(81.7378 0.924262 -0.174094)
(78.2547 0.248895 0.331738)
(77.0477 0.878402 0.357232)
(75.9855 1.62158 0.012741)
(25.4732 2.18329 86.637)
(-9.80227 -25.2802 -63.8496)
(162.433 -28.0492 -24.9952)
(29.5073 -26.7748 0.697724)
(145.593 -26.2564 2.23155)
(49.8698 -57.7697 -0.128893)
(96.4517 -6.5256 4.93396)
(62.6547 -10.6426 1.6236)
(82.1575 -3.50727 0.615931)
(71.5651 -2.03063 0.440938)
(82.0491 4.58146 -0.00215014)
(76.6944 7.27137 0.368493)
(82.9007 10.6217 0.818449)
(81.6925 9.2101 1.19678)
(81.0235 6.75837 0.0490478)
(80.9308 3.65722 -0.10894)
(78.3527 2.81356 0.412952)
(75.579 2.00391 0.787692)
(73.4089 2.7321 0.656264)
(73.0748 2.39433 0.189252)
(100.39 23.7937 5.4275)
(-3.18063 -31.7086 -1.13786)
(173.859 -13.6465 -9.93323)
(67.0774 -8.15686 0.810945)
(152.63 -4.90908 1.24514)
(71.6376 -16.7102 -1.53648)
(104.93 29.0136 2.56296)
(63.8069 -26.3978 -0.180329)
(79.9508 11.1868 1.57967)
(62.4555 -14.4569 0.944536)
(74.0827 9.09785 0.836623)
(67.6367 -1.99902 0.85095)
(75.7857 9.62318 0.79501)
(73.2223 3.19801 0.649195)
(76.2847 7.477 0.553484)
(74.0026 4.53982 0.348028)
(74.1351 5.57424 0.689945)
(71.7675 4.51727 0.645437)
(71.1307 4.73025 0.64524)
(72.1614 2.90274 0.209335)
(-55.7012 -11.2883 64.8618)
(-88.5715 -36.723 -70.9416)
(123.488 -52.2643 -14.0398)
(-3.06501 -28.1622 -8.14258)
(118.041 -22.4164 -5.47366)
(22.3377 -25.3021 -1.1267)
(100.679 6.84266 -0.747203)
(50.8768 -14.2987 0.215122)
(79.3675 4.14136 0.200436)
(57.1489 -7.44017 -0.0364095)
(70.465 3.88161 0.604636)
(61.2869 -0.885626 0.414653)
(68.904 5.41276 0.517441)
(65.6515 3.11671 0.446133)
(68.9932 5.69542 0.366227)
(67.7294 4.39701 0.332633)
(69.1653 5.2635 0.2832)
(68.644 4.4028 0.3364)
(69.343 4.17237 0.184194)
(71.9788 2.14422 -0.071616)
(133.915 -59.7858 -146.459)
(67.6949 12.7353 -17.5231)
(173.471 -20.7929 -5.5865)
(68.2412 -4.07071 -3.36722)
(140.247 -0.703914 -1.64453)
(54.9352 -7.3673 -1.68952)
(107.85 13.0237 0.367829)
(58.6204 -10.534 -0.702947)
(87.8897 9.05832 0.181278)
(62.0003 -7.15255 -0.281294)
(77.4683 6.0425 0.246481)
(64.3761 -1.82807 -0.205252)
(73.2025 5.76042 0.14801)
(67.0133 2.0346 -0.0326606)
(71.8311 5.452 0.118835)
(68.9516 3.82175 -0.00618937)
(71.225 4.88518 -0.0167683)
(70.1501 3.9197 0.00246578)
(71.2756 3.43771 -0.308219)
(73.6175 1.2151 -0.421082)
(59.7149 -212.739 70.5441)
(-27.0748 8.38828 -32.9759)
(100.209 3.12636 -1.0308)
(-29.1013 -0.890259 -3.53787)
(98.4634 5.05285 -6.6638)
(4.38255 -7.15887 3.39308)
(92.5271 5.74528 -0.986484)
(37.8793 -4.39074 0.868822)
(83.3457 3.33902 0.0781268)
(55.2072 -2.10268 -0.137055)
(77.4572 2.85309 -0.0142092)
(63.7403 0.754663 -0.249854)
(75.0175 3.58394 -0.238641)
(68.8279 3.14226 -0.378943)
(74.5699 4.43746 -0.370113)
(72.2242 4.34022 -0.471465)
(75.0895 4.67044 -0.450381)
(74.6534 4.14593 -0.478847)
(76.299 3.1058 -0.6387)
(78.9837 0.931535 -0.55488)
(-48.7165 128.514 -62.6951)
(52.26 27.1586 -59.1257)
(141.896 23.3045 -32.3809)
(30.5395 -0.691663 -8.82105)
(135.625 -3.08417 -7.46841)
(46.4756 -11.1489 -0.0752646)
(108.994 -5.16826 1.45526)
(61.0765 -10.5847 0.0277969)
(94.1987 -2.67039 0.157888)
(70.5262 -4.86848 -0.917643)
(87.7197 0.602561 -0.745431)
(75.7733 -0.45673 -1.20602)
(85.3031 2.2419 -0.916457)
(79.8614 1.97517 -1.15808)
(85.2982 3.13891 -0.963068)
(83.3841 2.98424 -1.16843)
(86.5815 3.20659 -1.08532)
(86.9556 2.49323 -1.1801)
(89.2684 1.32507 -1.02912)
(91.8633 0.0185338 -0.635882)
(-108.389 120.961 -11.6581)
(-91.1612 -39.0325 -55.4139)
(113.59 48.4488 -20.6915)
(-5.01994 4.62795 -9.2232)
(115.073 4.45639 -11.2829)
(31.8088 4.38278 -3.50068)
(106.22 -4.91639 -4.04089)
(58.4887 0.824456 -0.215836)
(99.0157 -1.78689 -0.532721)
(75.7404 1.09477 -0.558934)
(96.1135 1.18358 -1.29313)
(85.3855 2.3737 -1.78061)
(96.2126 2.01803 -1.84016)
(91.8978 2.72017 -2.12249)
(97.9828 2.22853 -1.79586)
(97.1504 2.51381 -1.97998)
(100.891 1.81443 -1.65317)
(101.742 1.07022 -1.32274)
(103.57 0.0785273 -0.597584)
(105.918 0.204171 0.0956728)
(134.797 -11.6421 64.8887)
(-11.3127 -45.9286 -1.25318)
(209.906 19.0111 12.149)
(126.271 11.2962 11.0279)
(198.127 5.58874 7.92319)
(160.495 -2.11768 6.09774)
(181.182 -17.5218 6.10879)
(150.104 -14.0073 5.67258)
(152.123 -13.1807 7.929)
(130.733 -3.10221 6.98307)
(134.641 -0.537138 6.23969)
(125.778 3.26323 4.71497)
(131.378 3.29593 4.15801)
(128.95 3.75508 2.91963)
(133.932 2.92563 2.38994)
(134.309 2.26096 0.958541)
(137.842 1.05175 0.22545)
(138.388 0.635178 -0.145871)
(139.138 0.423026 -0.469314)
(140.849 0.781588 -0.157401)
(201.15 252.339 6.9063)
(-17.5323 94.5447 11.3241)
(123.931 44.3414 14.3572)
(27.7 7.75 5.49793)
(108.289 -5.35202 11.3729)
(75.8142 -9.61708 7.16361)
(115.527 -7.13508 7.38198)
(106.729 -4.81013 5.45384)
(126.812 -1.03623 3.58119)
(124.965 0.135053 2.14461)
(136.652 1.82949 0.667442)
(135.904 2.03347 -0.962072)
(140.244 3.50408 -1.58659)
(135.635 5.00278 -0.968825)
(132.369 9.42085 2.27391)
(122.215 10.2789 2.84569)
(118.934 7.28963 1.98328)
(112.422 3.40805 0.48745)
(110.625 0.785227 0.646847)
(108.795 -0.369548 0.254224)
(-40.6951 120.038 114.942)
(-230.821 -11.2887 -86.1595)
(79.0076 -55.0247 3.22119)
(-56.1874 -19.5009 -0.0412084)
(81.9674 -20.4689 7.41836)
(16.9422 -10.6969 3.27211)
(76.0322 -5.65156 1.81177)
(47.1522 -5.94912 -1.62639)
(77.4791 -1.35768 -3.82987)
(63.3878 -3.74685 -5.78559)
(80.0387 -0.839921 -6.55693)
(72.4466 -2.31335 -7.41392)
(81.2341 0.451278 -6.8488)
(76.4025 1.19534 -6.95374)
(79.9433 4.47725 -4.57362)
(77.1966 4.80418 -2.54808)
(79.0127 4.52391 0.148595)
(76.9447 2.97318 1.04899)
(77.0797 2.55162 1.99574)
(77.0045 1.3661 0.894527)
(164.749 -74.5543 32.5219)
(36.9611 7.06418 73.6564)
(111.53 -22.1218 56.7012)
(13.3934 -15.3464 18.6197)
(88.7969 -29.7457 7.23059)
(12.991 -14.0923 -0.658545)
(68.8411 -20.7604 -0.212969)
(25.3743 -10.3631 -2.42895)
(60.7527 -12.7284 -1.8649)
(37.5793 -7.93562 -2.30134)
(58.5741 -8.8043 -1.88566)
(46.6829 -6.608 -1.91571)
(58.4918 -5.60965 -1.32019)
(52.8726 -2.58765 -1.15808)
(59.3933 0.455504 -0.292175)
(57.497 2.96411 0.306831)
(61.353 4.23219 0.787232)
(60.6828 4.40302 0.8489)
(62.107 4.47826 0.819864)
(63.2365 2.79561 0.12884)
(-76.1368 -77.3709 -119.103)
(-143.841 0.00784135 35.2423)
(76.9651 29.3298 12.6395)
(-26.8064 -4.71598 4.02834)
(68.3898 -7.5643 8.14321)
(-1.18553 -10.2461 -1.64921)
(58.9536 -15.2048 1.16187)
(16.106 -8.13836 -1.2326)
(52.8345 -12.4261 -0.510259)
(28.6824 -6.99721 -0.91644)
(50.3465 -9.35659 -0.352951)
(38.4045 -5.66497 -0.623966)
(50.9524 -5.67539 -0.191608)
(45.6512 -2.11705 -0.611655)
(51.4832 -0.545426 -0.110931)
(49.7449 1.81223 -0.0102274)
(53.6358 2.5353 0.306177)
(53.85 3.00521 0.374546)
(55.8501 2.7018 0.437708)
(58.3194 1.72225 -0.106883)
(92.6344 -139.553 36.4035)
(-99.215 -86.6896 7.60466)
(102.017 -27.1439 -19.2974)
(-9.95652 -26.6415 3.82303)
(92.2246 -13.2175 0.410642)
(14.0372 -11.654 -1.34999)
(71.6427 -25.8018 -0.47462)
(25.3633 -6.87048 -1.33139)
(59.9695 -21.7933 -0.410754)
(33.6415 -6.93356 -0.251178)
(53.4911 -17.1089 0.852129)
(39.8571 -8.16662 0.655985)
(52.0693 -11.7577 1.30427)
(46.5698 -3.91122 0.321198)
(52.9553 -3.59029 0.358226)
(50.783 0.573887 0.0169082)
(54.4804 0.952796 0.169759)
(54.1398 2.24982 0.180096)
(55.9221 1.88669 0.260992)
(58.1798 1.46158 -0.206822)
(78.2021 -170.008 -189.046)
(-114.696 -91.6675 17.3895)
(92.7809 -70.5077 -10.6083)
(-16.8949 -35.7042 0.296067)
(90.0722 -25.7765 -0.131167)
(17.6969 -8.95252 -3.35315)
(78.0293 -24.3821 -0.836497)
(48.2104 -5.56062 -2.17822)
(69.1258 -18.2703 -0.997736)
(54.3179 -4.4175 -0.650619)
(62.0946 -12.3444 1.80932)
(51.8813 -4.13844 3.79746)
(57.1894 -8.87157 4.48031)
(53.079 -3.01757 1.77231)
(54.7905 -3.68184 0.768568)
(53.6038 -0.285392 0.0971415)
(55.4006 -0.249044 -0.0499954)
(55.8609 0.932472 -0.0526618)
(57.4018 0.407478 0.00983223)
(60.0803 0.418393 -0.269385)
(135.371 -133.535 84.0222)
(-45.8399 -80.6299 -8.5267)
(96.9812 -71.8918 -13.3522)
(3.18546 -42.3547 -4.05025)
(103.293 -25.4014 -3.21802)
(29.451 -12.4955 -1.28335)
(74.768 -46.7549 0.304762)
(47.1425 -1.02332 -0.359703)
(69.1826 -25.0475 0.98497)
(58.1538 -0.690216 0.395059)
(66.3563 -11.2956 1.28653)
(56.6068 3.61638 2.03096)
(60.0538 -4.10683 3.77045)
(56.2584 1.78091 3.1835)
(58.9723 -2.26995 1.53123)
(58.0572 0.0358136 0.496413)
(60.0202 -1.29354 0.119172)
(60.2198 -0.491881 0.00940052)
(61.9734 -1.24003 -0.0836426)
(64.0213 -0.378263 -0.271359)
(104.315 -11.0734 60.2982)
(-0.0122871 -87.2952 55.0806)
(113.136 -70.3551 10.4623)
(0.225549 -55.3468 2.44026)
(104.008 -44.1324 0.288577)
(27.7784 3.83612 -1.43905)
(72.7297 -33.7446 -0.375572)
(49.4572 -14.4711 -0.959486)
(65.8074 -26.2367 0.181745)
(60.6821 -14.1022 -0.0392419)
(67.052 -13.37 0.147446)
(59.8385 -4.58532 1.25523)
(60.9879 -5.71588 2.4282)
(58.7863 -2.75826 2.81536)
(60.1163 -2.41251 0.648122)
(61.7573 -0.793123 -0.04547)
(62.2174 -2.10756 -0.00696293)
(63.4995 -1.91958 0.18443)
(64.2256 -2.1459 0.0219034)
(65.4423 -0.827052 -0.294363)
(283.264 -153.757 -4.96314)
(67.7124 -86.651 -42.5619)
(150.265 -61.4547 -9.33072)
(49.4592 -44.5159 -3.2653)
(108.287 -35.075 -0.927489)
(68.1587 -14.4131 -0.0641913)
(85.3461 -23.8018 -1.80471)
(67.8901 -32.4376 -1.86396)
(75.6655 -29.1228 -0.963893)
(73.3501 -20.5306 -0.876528)
(73.4716 -9.84824 0.0044141)
(66.6285 -3.71289 1.62666)
(64.5458 -2.04808 2.83856)
(63.2223 -3.10743 2.58919)
(65.4641 -5.7247 0.620603)
(64.7542 -3.01396 -0.297435)
(65.4578 -2.92285 -0.259202)
(64.6164 -2.90638 -0.00795761)
(64.8774 -2.06937 -0.0755357)
(64.8797 -0.701126 -0.531863)
(173.938 62.0646 17.0688)
(-6.27825 -20.2632 -56.7993)
(118.654 -13.6056 -24.8224)
(7.68355 -26.3208 -2.5645)
(100.742 -13.7547 -4.63344)
(51.9832 -16.6963 -6.37015)
(84.1418 -14.0129 -1.69509)
(85.621 -24.5561 1.56573)
(86.1488 -22.9526 0.534655)
(83.0114 -12.6116 -2.24151)
(79.6143 -1.77931 -3.50006)
(75.4544 6.58193 -1.50794)
(71.4323 8.05005 1.47843)
(69.5971 5.31027 2.37989)
(71.3804 0.87185 -0.250064)
(69.536 -2.1281 -0.862913)
(68.6141 -3.45739 -0.50421)
(66.9821 -2.47852 -0.0741661)
(66.5005 -1.76245 0.0503027)
(66.164 -0.214136 -0.396376)
(153.524 -197.752 135.833)
(1.72588 -98.4323 -21.4164)
(127.87 -73.3426 -18.715)
(7.1159 -52.9109 4.49018)
(112.422 -36.432 1.54244)
(57.3466 -32.6121 2.0516)
(87.6656 -26.4395 5.94666)
(90.0936 -23.8011 6.50339)
(87.3302 -17.9107 1.31126)
(82.3214 -5.49614 -3.65214)
(84.1544 -2.01887 -4.67431)
(79.6506 6.56206 -3.72803)
(76.478 10.2045 -0.249605)
(75.4703 8.10981 2.15866)
(77.0667 1.02656 -0.231264)
(71.6329 -3.23207 -0.0985411)
(70.4801 -2.15727 -0.0602491)
(68.2914 -2.33168 0.217783)
(67.6555 -0.551276 0.199017)
(67.249 0.231448 -0.309162)
(225.31 68.9672 -40.2632)
(49.5154 -16.703 -29.8544)
(148.929 -14.2594 -28.7712)
(18.7806 -15.651 2.77897)
(124.422 -7.34048 4.56692)
(52.6227 -41.3576 4.96362)
(95.1911 -30.7247 8.32377)
(88.3636 -16.4523 6.1037)
(83.4388 -9.97005 0.861199)
(77.9986 -4.35123 -2.38656)
(76.0347 0.843928 -2.99376)
(74.3693 5.30986 -1.87319)
(74.7569 8.51437 -0.0947404)
(76.8675 7.52907 1.17133)
(76.4979 1.29255 0.752769)
(70.785 0.519353 0.16603)
(69.9363 -0.98776 0.0744611)
(66.8935 -0.493364 0.391556)
(66.2594 0.377677 0.366468)
(66.275 0.902631 -0.0800644)
(335.561 -27.6341 -39.5155)
(72.9795 -30.1111 -36.3233)
(161.784 -18.9021 -19.3298)
(19.3813 -20.2001 0.269411)
(135.894 -23.988 1.80239)
(36.1813 -54.782 -0.19173)
(82.5578 -0.76303 4.67718)
(56.0396 -10.8616 1.7756)
(73.2964 -2.43872 0.273469)
(62.8694 -3.61175 0.431045)
(72.9268 2.387 -0.0023761)
(67.713 2.98266 0.751551)
(73.9627 5.3181 1.15483)
(71.8865 3.58467 1.3064)
(69.6439 3.52677 0.482765)
(69.18 0.876598 0.155353)
(66.7162 1.01268 0.450455)
(64.9685 0.924073 0.739819)
(63.8878 1.72371 0.633166)
(64.6777 1.42004 0.06739)
(136.04 -88.9395 -58.3088)
(33.1128 -25.4119 -3.9688)
(156.585 0.566348 -13.6602)
(43.7355 -2.00062 1.25285)
(139.448 -4.39074 0.561727)