/*--------------------------------*- C++ -*----------------------------------*\
  =========                 |
  \\      /  F ield         | OpenFOAM: The Open Source CFD Toolbox
   \\    /   O peration     | Website:  https://openfoam.org
    \\  /    A nd           | Version:  10
     \\/     M anipulation  |
\*---------------------------------------------------------------------------*/
FoamFile
{
    format      ascii;
    class       volScalarField;
    location    "7.7";
    object      omega_0;
}
// * * * * * * * * * * * * * * * * * * * * * * * * * * * * * * * * * * * * * //

dimensions      [0 0 -1 0 0 0 0];

internalField   nonuniform List<scalar> 
12920
(
55.1545
104.684
105.484
108.522
108.617
102.634
89.3394
77.8384
65.9225
56.6389
50.4299
46.5461
43.3978
41.4454
40.1521
39.3978
39.1785
39.1611
39.2498
39.8422
88.1097
200.922
155.059
119.898
103.225
94.1562
83.9083
77.5471
72.5722
70.553
68.3682
66.4587
64.3866
62.3593
60.6179
58.6148
56.8678
55.0576
54.1255
54.0594
254.739
236.466
198.432
167.577
143.719
119.041
96.5209
83.9393
77.2577
74.486
72.2435
71.192
70.4979
69.9767
69.0236
67.3752
65.2872
61.5222
58.5406
55.566
226.635
191.953
190.156
185.936
170.672
151.641
125.1
103.324
88.0836
80.3958
77.4187
76.901
76.7868
76.3646
75.409
73.4453
70.8216
65.3125
61.2009
54.8616
162.868
183.118
183.655
171.925
152.728
139.812
121.298
109.168
98.8336
93.2535
89.1245
86.591
84.3917
82.3772
79.8697
77.6141
75.7176
71.5079
66.7383
56.6173
268.133
224.23
197.753
157.735
130.036
117.769
107.232
102.536
98.5361
97.1385
94.9118
93.0801
89.8176
85.9356
80.9229
77.2986
75.8426
74.4548
71.4238
61.4011
375.796
252.257
204.148
162.412
129.114
114.154
108.389
106.569
104.234
101.719
98.0177
91.9215
81.8823
72.5115
67.9152
66.8677
67.1211
68.2298
68.226
65.6031
121.753
218.318
213.174
175.309
140.67
123.423
187.392
165.177
165.486
160.157
151.898
140.764
117.811
98.2177
64.8549
63.7188
62.9472
63.0317
63.1768
61.4876
83.0423
123.511
160.301
169.717
160.696
230.31
331.684
245.475
251.776
241.919
227.158
208.685
183.051
138.967
98.7532
57.9993
56.1183
54.7788
54.1879
51.925
154.629
129.525
144.144
144.74
133.465
202.543
274.877
239.378
227.325
200.052
173.192
156.986
146.249
146.324
89.1706
50.0332
47.5277
47.3261
47.5668
47.5826
251.254
168.76
145.909
118.146
108.039
164.458
242.379
212.162
201.948
183.337
176.519
173.521
157.763
154.018
106.978
60.3041
51.6469
46.6711
44.7049
44.8073
439.372
266.454
209.201
142.719
112.237
159.947
238.312
174.447
184.276
179.951
190.494
186.032
171.737
178.241
107.592
60.7414
54.1259
49.3854
46.3659
45.3871
339.457
304.597
239.509
178.558
132.659
115.344
164.899
119.708
113.253
113.164
109.457
102.708
97.0668
94.3817
58.1271
53.2102
49.6562
46.5772
44.8849
44.1581
330.054
260.545
222.829
178.281
143.868
131.589
108.064
92.2701
79.0991
72.1994
67.7919
63.6066
59.4897
55.4803
51.3277
47.7331
45.0982
42.9284
41.5516
40.71
292.551
311.584
266.093
196.246
148.605
132.049
113.829
104.278
88.8295
79.1002
70.5167
63.3731
56.8226
51.4629
47.5003
44.6691
42.6214
40.8135
39.7992
38.5247
358.04
389.218
339.029
245.668
174.08
139.137
117.551
107.144
95.5333
87.1397
77.7634
69.0818
60.8622
53.9717
48.598
44.9081
42.6434
40.793
39.8346
38.5419
319.773
310.982
258.693
192.058
145.66
123.733
109.042
98.8715
87.6118
78.2161
70.2628
64.6264
59.0776
54.3713
49.8475
46.1401
43.6271
41.7187
40.634
39.4699
210.741
229.604
174.741
135.207
111.906
98.503
86.8976
78.1231
71.9331
68.8446
65.2469
62.2097
58.3544
55.2914
52.1888
49.6045
47.3902
45.5157
44.136
42.7087
332.067
247.317
172.439
143.276
125.104
111.294
92.7043
76.8428
66.3373
61.0797
57.3
55.3807
53.7613
52.6367
51.5193
51.0443
50.668
50.2594
49.9158
48.7269
151.943
167.616
148.254
142.696
131.861
118.521
105.797
94.2697
83.8615
74.5728
65.0498
56.1038
49.4152
44.613
41.5427
39.3833
38.2081
37.0903
36.6034
35.3798
111.155
77.6411
62.1302
60.6891
58.0219
49.5858
41.2285
36.2928
33.1682
31.9291
30.9895
30.0029
29.0702
28.2295
27.552
26.9908
26.7999
26.7896
26.9017
27.3894
185.708
127.801
80.9201
66.5386
63.817
57.0659
51.9405
46.1231
41.8668
38.2006
36.066
34.6527
34.18
33.8999
33.8576
33.7162
33.5984
33.3494
32.8271
32.4683
171.248
165.126
130.102
104.127
87.9152
72.6627
60.7299
51.627
46.0499
42.2334
40.2511
38.8701
38.3577
37.6619
37.0841
36.3913
35.8593
34.8368
34.0758
31.3627
260.843
143.28
120.08
101.369
86.0053
72.9703
61.9944
54.6364
49.8265
46.3425
44.2824
42.1736
40.6288
39.1523
38.1539
37.344
36.7689
35.7917
35.0637
31.4751
216.342
146.955
109.236
89.3994
76.8253
68.3256
59.4381
54.2521
50.8846
49.2092
48.2129
46.6855
45.2116
43.2421
41.8372
40.6321
39.8127
39.0098
38.1564
33.1849
351.452
201.612
131.619
92.2405
72.0981
63.0312
57.1597
53.2554
50.6656
49.6668
48.8483
48.174
47.2574
46.5198
45.7324
43.8931
41.8301
40.7556
40.3127
36.6279
172.321
161.862
138.677
107.802
77.6749
63.997
56.2938
53.1598
50.7037
49.7292
48.3645
46.8615
45.2831
43.1809
39.5045
36.1369
34.6202
34.5112
35.1339
35.2305
150.83
142.031
118.912
90.919
68.2692
58.6639
62.0556
56.2889
52.4008
49.6281
48.3232
46.6445
44.1017
38.6918
29.7399
29.2046
29.3086
29.6948
30.7192
31.5143
112.304
122.79
110.661
101.469
76.8798
70.352
62.8015
56.5032
49.4872
46.8459
44.756
43.717
42.4326
35.8521
26.5085
24.8686
25.7863
26.1071
26.2442
26.0337
169.142
135.332
109.07
85.9758
61.9873
59.6635
54.8447
48.5404
40.2792
36.1514
33.3222
30.9025
28.7535
26.6908
26.1152
26.36
24.9663
24.5532
24.5495
24.5082
297.376
128.667
89.5473
73.7838
57.227
55.7836
53.6208
43.3025
36.3049
33.8356
34.6914
35.5109
34.2659
32.4445
32.9675
30.8689
27.8386
25.3687
24.4031
24.3908
190.006
153.895
123.663
83.3626
59.4944
58.3603
64.9552
54.2523
46.0055
42.135
38.1265
37.6513
38.3722
38.4677
32.1828
27.579
26.9953
25.6771
24.2299
24.0365
177.298
150.623
128.274
99.3619
70.5989
59.216
58.5074
54.7868
47.9681
44.298
39.415
35.5846
32.5636
30.3574
26.678
26.0768
25.1788
23.8533
22.714
22.4219
156.436
145.395
114.563
89.5619
71.8844
66.67
54.0505
47.4729
41.3681
39.3756
36.8938
34.519
31.7139
28.8526
26.8157
24.8801
23.3645
22.0193
20.9555
20.4511
291.375
207.779
156.493
114.679
80.2006
68.9986
56.3729
54.2073
50.828
47.7735
41.7931
36.064
30.6896
26.7455
23.9171
22.167
21.0449
20.2499
19.6943
19.2239
82.0738
151.741
167.425
147.069
95.8409
74.4369
63.0425
61.8771
60.3395
57.8472
51.542
42.6566
35.5959
30.0763
26.331
23.5241
21.6427
20.4613
19.8075
19.2331
193.158
182.342
135.925
105.238
82.1473
74.8663
69.294
66.455
60.1222
50.7322
42.6732
36.3893
32.5582
29.4391
26.9138
24.2544
22.0357
20.5806
19.8
19.292
251.751
157.841
97.2702
88.1098
81.1509
75.307
66.2969
55.9732
46.4134
39.283
34.636
32.0523
29.9708
28.3465
26.5768
24.9067
23.465
22.3373
21.5827
20.9176
161.596
143.989
116.372
91.3771
75.453
72.5741
66.6492
53.7926
43.491
37.026
33.1543
30.6163
28.6382
27.4697
26.5515
25.9795
25.5407
25.2107
25.0322
24.6357
68.929
76.6873
79.9149
77.2014
67.5662
56.445
48.3319
43.1852
38.1636
32.8924
28.1304
25.8162
25.0509
23.8531
22.6214
21.7563
21.324
21.1496
21.1894
21.1714
196.667
128.837
77.5828
64.7913
60.0102
50.0684
43.185
39.0999
37.1045
35.4337
34.6434
33.5568
32.8269
32.0464
31.5454
31.0994
31.0862
31.0886
31.2654
31.1799
262.498
158.309
78.2238
59.1149
54.115
46.2786
41.4103
38.2046
35.3362
33.7957
32.3524
31.7748
31.2867
31.2032
31.0874
31.0725
31.0372
30.9334
30.7757
30.9067
264.676
221.706
136.371
95.1201
73.5657
58.8711
49.0091
43.3106
39.4733
37.39
35.6679
34.7214
33.8179
33.271
32.6902
32.1467
31.6203
30.74
29.969
28.3642
589.114
253.815
114.12
90.8815
75.053
62.3516
52.3564
46.9525
42.9374
40.5734
38.3667
36.6175
35.0401
33.9277
33.0505
32.3226
31.7398
30.5663
29.6378
27.1325
129.756
141.114
109.038
80.2321
67.5049
59.318
51.2931
47.2988
44.1581
42.452
40.7813
39.1675
37.6671
36.3098
35.2601
34.3171
33.5811
32.1481
30.809
27.1556
361.149
326.378
148.821
84.7038
63.2929
54.5611
48.7349
46.1536
43.7238
42.5041
41.2615
40.1954
39.1343
38.2183
37.3227
36.0524
35.08
33.7298
32.659
29.2874
174.586
177.737
149.077
98.8422
68.7813
56.8716
48.9267
45.4994
42.9466
41.5697
40.0257
38.4808
36.7346
35.1252
33.3259
31.7984
31.222
30.9511
30.8642
30.1467
357.62
213.598
132.118
87.6437
62.1455
52.3187
49.5966
44.9076
42.2464
39.7746
38.4292
36.438
34.0026
30.8514
28.0254
27.3962
27.352
27.4985
27.901
27.8434
231.76
171.856
129.57
102.317
69.4768
55.5239
48.5308
43.937
39.5503
36.9395
35.0768
33.2092
30.5567
27.2761
25.0956
25.3416
25.0896
24.9
24.8028
24.4506
229.559
188.416
124.728
81.375
54.148
46.4475
43.2029
39.0138
33.6227
30.686
29.3268
27.7123
26.1711
25.2366
25.9915
26.3987
25.1269
24.5197
24.3136
23.9937
393.577
103.996
73.4292
53.4796
46.3479
43.0067
42.1635
35.8639
32.0107
29.8726
75.1611
62.1131
40.7702
33.8228
31.053
28.0545
26.0208
24.9688
24.6442
24.6577
165.742
104.371
75.6199
54.9497
46.0091
45.3377
49.5735
43.6447
39.7088
35.7572
32.9939
32.0857
31.9067
30.8714
28.3009
26.4317
25.2126
24.3565
24.017
24.1342
257.792
114.036
88.1426
65.3202
52.2982
46.272
44.634
43.0159
37.6582
34.7907
31.3947
29.2716
27.3603
26.077
24.7795
23.8953
23.1325
22.445
22.1393
22.227
134.483
122.96
100.854
73.312
58.0256
51.9327
42.0447
37.3824
33.6483
31.4073
29.4595
27.423
25.7355
24.0236
22.8645
21.8659
21.1344
20.5719
20.2604
20.2669
154.613
138.636
107.612
80.2034
59.9071
52.5229
44.0488
42.2119
38.3403
35.3357
31.0603
27.6992
24.7018
22.5873
21.1668
20.2631
19.6798
19.3454
19.1524
19.1381
82.7581
127.313
124.815
97.6683
66.7742
56.3579
49.2437
47.1843
43.7977
40.0446
35.0691
30.6666
26.8907
24.2278
22.2157
20.8806
20.0205
19.5212
19.23
19.1115
103.095
130.278
101.571
75.462
60.3174
56.2065
50.9121
46.9165
40.8098
35.5959
31.1978
28.5477
26.3112
24.5875
22.9118
21.5578
20.5301
19.9081
19.5428
19.3748
404.045
161.002
89.2727
70.0467
61.8915
57.143
48.2038
40.9497
34.5891
31.2312
28.7071
27.619
26.3432
25.4956
24.4273
23.5493
22.7321
22.1251
21.6775
21.3153
100.816
180.129
150.888
91.4853
61.5106
53.4293
44.8851
38.3449
32.8379
30.4926
28.8169
28.2792
27.5223
27.1168
26.6774
26.5194
26.3503
26.2914
26.2277
26.0265
40.7505
71.493
86.5523
83.1236
70.3948
56.0594
46.1213
40.4692
36.1471
32.9307
30.844
29.7597
28.694
27.183
25.7965
24.6816
24.081
23.6444
23.5111
23.2154
64.504
82.1957
69.5243
62.1212
57.6268
48.3163
44.1714
40.3434
38.9853
36.7988
36.1754
34.8687
34.3743
33.5341
33.1661
32.7415
32.7709
32.6636
32.7209
32.1358
346.852
175.794
80.8223
56.1354
54.5369
45.3387
43.1439
39.6845
38.4801
37.076
36.3308
35.8176
35.6005
35.5686
35.5906
35.7023
35.8646
36.0476
36.2645
36.807
316.032
261.091
146.766
85.5807
69.2364
55.2582
49.6777
44.5723
42.3292
40.1143
38.7863
37.6454
36.8819
36.3149
35.8618
35.3639
34.8631
34.1791
33.5991
32.8999
403.881
160.794
112.814
83.2638
73.3102
58.7162
52.4861
47.3473
44.7762
42.2129
40.3371
38.5742
37.3223
36.3261
35.5978
34.8072
34.0928
32.9293
32.0384
30.6267
178.074
136.071
107.187
76.6879
68.4698
58.0387
52.6213
48.2698
45.7896
43.3986
41.726
39.9927
38.846
37.7773
36.9729
35.9753
34.9888
33.2946
31.9156
29.8621
372.004
194.873
134.649
79.4654
64.2502
53.4607
50.1701
47.0986
45.0936
43.2079
41.9047
40.6133
39.7432
38.9071
38.2112
37.1904
36.245
34.5446
33.2588
30.9624
182.064
178.27
150.99
90.297
68.4831
56.6194
49.824
45.8634
43.4085
41.4374
39.925
38.5032
37.441
36.6199
35.7758
34.8703
34.4424
33.7022
33.2237
32.1392
268.691
195.595
141.327
86.1531
65.0092
53.4095
49.0082
43.5841
41.3385
38.6685
37.3408
35.5013
34.0841
32.9416
33.7922
32.2598
31.6435
31.3629
31.2466
30.793
456.764
195.198
142.634
99.6346
68.7261
54.9146
48.2474
42.2703
38.6506
36.4164
34.7817
33.2535
31.9203
31.2656
32.4477
32.2044
30.4106
29.5888
29.2805
28.96
190.77
161.121
118.6
75.313
54.2567
46.1205
43.2903
38.9356
35.3305
33.1079
32.0862
31.2566
31.6174
32.4366
34.3532
33.3551
30.918
29.8514
29.468
29.1713
249.149
110.662
70.2779
53.6003
46.3345
41.6353
41.0771
36.7372
34.782
33.4175
52.9926
47.6186
39.1478
37.3159
36.5177
33.971
31.5567
30.6323
30.3866
30.2772
216.209
97.9685
69.5624
52.6787
46.2784
43.0904
45.2213
40.5753
38.258
35.9114
34.4923
34.0612
34.2303
34.1557
34.3959
32.4913
30.4262
29.6841
29.6476
29.7642
125.664
126.427
86.6789
59.9512
52.3887
44.4075
42.06
39.5132
35.5589
33.6274
31.8335
31.0103
30.2012
30.0699
29.99
28.3238
27.5789
27.3744
27.4298
27.6665
116.541
121.568
102.442
68.8274
57.3068
47.1215
40.56
35.5562
33.2058
30.6515
29.6997
28.04
27.4319
26.4614
25.9747
25.5175
25.4056
25.4205
25.5367
25.8426
169.003
130.008
95.4659
67.8691
56.5236
46.7808
42.2428
38.3176
35.0057
32.1004
29.7999
27.7169
26.2787
25.2213
24.6765
24.3219
24.264
24.3339
24.4909
24.7633
102.429
125.423
111.23
76.1533
59.7286
48.9217
44.9997
40.6335
37.9127
34.2936
31.7581
29.3802
27.6143
26.2285
25.3924
24.8667
24.7036
24.6584
24.6881
24.8116
151.564
125.993
87.269
62.5497
55.3455
46.8645
44.1412
38.8982
35.9642
32.6451
30.8161
29.2588
28.1042
27.0875
26.2416
25.6351
25.3481
25.1956
25.1313
25.1265
145.976
155.853
105.586
64.4284
56.8277
47.2286
42.7013
36.8404
34.1892
32.0804
31.3551
30.894
30.45
29.9827
29.4577
28.9333
28.4851
28.1
27.8154
27.5395
80.8392
169.413
182.324
118.875
65.8486
46.5829
40.9201
36.1261
34.18
33.4808
33.5001
33.6579
33.9845
34.0954
34.1744
34.1802
34.1528
34.0714
33.9284
33.5751
16.797
73.0354
94.5521
87.8401
70.2278
54.1601
43.8936
38.5049
35.3722
33.4585
32.1219
30.8995
29.6682
28.2953
27.2982
26.3813
25.9184
25.349
25.0805
24.3993
84.9167
62.9291
62.2135
60.9547
54.1624
46.7056
43.633
39.9604
38.4953
36.0223
35.3592
33.8033
33.3761
32.345
32.0342
31.4773
31.4669
31.0313
30.8877
29.1489
358.23
186.243
103.663
66.8381
76.4068
49.971
61.8942
49.2645
56.3123
50.4409
53.7658
51.0398
52.9588
52.1515
53.4572
53.5681
54.5317
55.0674
56.1231
56.815
235.049
242.855
166.052
84.7591
86.6725
62.2099
66.7312
55.658
58.6495
52.7886
54.0728
50.9565
51.6814
50.3306
50.7655
49.992
50.0879
49.4547
49.5383
49.0075
217.026
158.941
115.988
80.6652
82.9142
58.228
63.7009
53.8937
57.3557
52.4195
53.4634
50.6786
50.9705
49.5823
49.6556
48.6572
48.4071
47.1531
46.9983
46.0587
205.058
149.139
119.737
75.0487
83.9793
62.2718
66.7909
56.9581
58.6882
53.6589
54.0487
51.4226
51.7742
50.6429
50.7588
49.6083
48.9362
46.9085
46.3134
45.0921
230.003
161.522
132.711
73.0113
79.4032
56.4516
62.7467
54.0963
55.81
52.2684
52.8182
51.4124
51.8999
51.4778
51.6573
50.8347
50.1014
47.9355
47.1266
45.7806
257.321
176.506
151.429
81.5799
87.4221
63.5599
62.9299
53.8
53.9571
50.2259
50.6646
49.3043
50.1271
50.0155
50.3115
49.5278
49.0523
47.6789
47.2587
46.1731
191.622
175.933
142.768
79.4329
80.4425
59.8332
55.7059
49.0745
48.5092
45.5902
45.5616
44.835
45.6887
45.724
49.8051
47.0293
46.1955
45.5378
45.3673
45.1008
183.252
171.593
157.632
95.4019
80.4396
60.9028
57.6546
49.5558
47.7212
46.2246
46.1324
46.1995
46.9058
47.4363
49.3156
47.6728
45.3732
44.6033
44.4645
44.3209
186.345
149.216
121.449
75.2452
65.6463
52.862
52.8271
50.5979
48.8852
46.7766
46.164
47.245
49.6784
50.3741
50.9574
48.7501
46.2264
45.6038
45.4254
45.2538
235.516
136.171
83.9444
73.9945
59.5754
49.8057
50.3667
50.6037
49.6879
46.5386
47.3658
48.1514
51.0948
51.6807
51.7225
49.5999
47.3898
47.0428
47.0471
46.9809
221.827
126.828
83.2535
67.5194
64.0139
53.8588
56.5183
51.3389
50.0389
48.4672
48.2179
48.6718
49.9088
50.2843
50.9722
48.6059
46.2879
46.2363
46.3877
46.5975
224.141
128.968
98.5104
68.3847
77.3469
60.4233
53.1279
45.7099
45.5901
42.9971
44.3099
43.5758
44.8145
44.6306
46.8407
44.2999
43.7858
43.9008
44.0278
44.2626
254.233
144.335
126.334
77.6558
84.1656
58.4499
56.4409
47.835
46.1769
42.1732
43.2667
41.7542
42.7086
41.8963
42.1595
41.7838
42.0359
42.1207
42.329
42.6684
332.271
163.452
118.246
72.4749
80.9347
58.0176
62.4007
49.5929
49.1225
43.6739
43.8869
41.5934
41.8935
40.8886
40.9601
40.6213
40.8617
40.9904
41.1939
41.4816
212.195
147.4
133.686
81.9518
86.1077
62.8906
65.9393
53.1607
53.7629
46.5115
47.2339
43.8499
44.428
42.6556
42.906
42.108
42.2389
41.927
41.9635
41.9799
170.851
139.381
112.492
71.3287
80.1308
58.5466
65.0677
51.1877
53.8606
46.331
48.2153
44.6974
45.5903
43.6652
43.8589
42.955
42.9909
42.5476
42.4683
42.2777
258.575
186.571
141.661
76.1067
85.222
60.0595
66.4711
52.6921
55.7811
48.6775
51.5491
48.6524
50.2235
48.4919
48.8489
47.67
47.4573
46.6571
46.3442
45.7546
240.575
276.674
279.038
146.9
101.241
59.9256
68.8246
55.4836
61.0839
54.5179
58.6698
56.9306
59.2489
58.1442
58.7992
57.9562
57.8767
57.1804
56.7982
55.8456
56.9373
100.161
104.208
85.1714
65.7391
50.562
40.8959
36.0894
33.8387
32.2058
30.9576
29.6351
28.5011
27.4577
26.7317
25.9178
25.3392
24.4118
23.9604
22.9717
29.6293
30.4201
67.5095
31.8657
31.11
32.1921
74.9477
28.1675
69.3923
63.3226
30.9012
30.0831
74.8945
61.82
73.5244
33.6898
32.2821
31.7722
80.5656
34.102
33.5151
68.1873
32.1827
31.8435
80.8231
67.8682
33.5147
33.239
251.379
302.972
246.077
78.6731
68.4003
70.3075
61.4623
251.296
244.817
242.507
64.5124
56.9492
58.3294
49.6054
245.971
238.406
220.475
55.905
54.2137
48.1546
45.075
231.351
214.981
194.902
53.4501
51.4782
43.9249
40.6577
213.872
186.807
165.596
51.0665
50.3391
39.8015
37.1626
190.703
160.137
143.459
50.0623
49.674
36.2613
34.1349
145.355
140.66
142.474
49.4631
45.4617
33.4637
30.8104
125.82
143.52
126.004
42.3896
33.3934
29.9816
27.2064
237.562
254.901
218.291
65.5029
57.9729
62.5784
51.0824
233.925
218.175
210.838
54.7334
46.8027
48.0507
41.605
206.737
204.269
187.257
45.3691
41.8711
40.0708
37.5089
179.115
182.321
173.778
40.7056
37.8196
37.2741
37.3317
160.86
172.347
171.623
37.119
34.9097
37.6327
37.8053
146.724
171.146
161.76
34.2133
32.4633
37.7049
36.7817
146.795
156.934
151.201
31.9073
30.028
36.084
33.7101
126.587
150.632
138.862
29.5078
27.2445
33.3343
33.1032
211.745
227.765
180.342
62.8499
51.4689
69.7479
58.0823
208.3
181.009
186.849
48.3821
41.7395
54.1195
46.7816
186.821
186.679
179.351
40.1551
37.7547
45.3208
42.5215
177.931
178.792
181.445
37.4502
37.2972
41.5978
39.0511
174.487
181.579
176.397
37.5156
37.9094
38.6384
38.404
163.484
171.604
162.202
37.8781
37.2076
38.4646
38.7183
153.342
162.212
172.91
36.6755
34.646
38.8705
39.6988
140.659
177.236
156.72
34.4475
33.6745
40.4125
40.7065
177.059
291.88
207.492
75.9986
64.2647
82.5298
68.7223
182.289
189.692
178.158
59.2869
50.3134
65.8759
62.9456
180.247
182.491
188.412
48.8527
46.4216
61.1653
55.9726
187.391
189.181
194.768
45.3724
42.1978
54.4233
51.9694
189.8
194.698
189.191
41.6914
41.6171
50.8539
47.3098
171.945
185.793
175.52
41.8784
42.6134
46.24
44.3813
177.878
170.334
160.279
42.788
43.4014
43.3319
39.5171
153.297
157.237
138.958
43.5101
41.5188
38.321
33.194
59.1906
57.9565
53.9765
50.1252
47.1521
46.6279
43.8403
50.5602
51.5215
44.0765
45.5818
41.7167
42.1106
37.0704
47.5753
42.6967
39.7393
40.8704
38.8453
35.9525
33.4384
45.1326
38.7683
36.1544
38.209
36.7173
32.731
30.8904
44.0159
35.4701
33.2819
36.3531
35.1615
30.3771
28.7238
42.9478
32.5217
30.5003
34.6559
32.7891
28.142
26.4998
38.1918
29.8349
27.5248
32.0081
28.9148
26.0037
24.6348
29.8723
26.8603
25.3146
27.884
25.5947
24.2889
23.539
51.1023
52.6266
45.3614
44.4984
41.9437
42.4127
37.9119
41.6368
42.9396
37.3626
40.1931
35.3614
36.3788
32.6866
37.1062
36.0426
33.7927
34.2611
31.7803
31.7987
30.0852
33.8787
33.5395
34.0178
31.1023
29.7877
30.1299
42.794
31.5039
34.628
35.2806
29.4434
28.1691
45.309
46.9147
29.2794
35.225
34.1774
27.6935
26.3614
45.6649
38.4903
27.1191
33.614
31.9567
25.9852
25.0165
36.9249
33.7714
25.6413
31.5819
31.8001
24.7809
24.0457
32.7896
31.1221
45.7752
60.9577
52.8263
43.5178
38.2547
50.9884
44.5387
37.6342
49.5445
43.5295
36.7069
33.1211
42.4786
38.9034
34.1738
42.315
39.5189
32.2649
30.5858
38.0138
35.2525
34.1144
38.4874
35.7883
30.3243
44.4528
34.2746
32.4127
35.5349
35.3487
34.9552
46.6895
47.8287
32.2114
31.8355
34.7671
34.9631
35.2181
46.5745
40.0671
31.7838
31.7646
32.7101
35.4044
36.1726
38.0167
33.9935
31.7882
31.6778
32.5262
36.6124
36.8436
33.0451
31.2452
31.5311
30.3972
58.1682
65.1202
61.0425
52.188
47.6015
50.8389
48.9164
47.1941
59.5985
57.8091
45.503
41.8532
48.5816
46.894
43.3298
55.9031
50.9264
40.9351
37.8677
45.0508
41.0568
38.7382
49.4531
46.3046
36.7499
34.1037
40.0067
37.0851
37.5981
44.8952
41.5173
33.5611
32.6951
35.8851
33.3755
38.1868
40.5781
38.6681
32.6133
32.6312
32.7951
31.1382
38.566
37.6506
34.5515
32.5971
31.9762
30.3994
28.5606
37.1312
33.5949
30.4583
31.6204
30.0761
28.0095
26.3854
45.4524
45.2136
42.3847
47.6747
43.5716
44.5475
41.0778
40.3561
40.7286
36.1587
42.0585
38.9367
39.5473
36.0049
37.5579
35.1245
32.7677
38.255
36.4669
35.2149
33.3374
35.4654
32.1078
30.3908
35.9018
34.5288
32.7761
31.3365
33.7568
29.9097
28.3733
34.1438
32.841
30.9538
29.8595
31.2768
27.8397
26.379
32.3621
30.9614
29.5373
28.9823
28.0336
25.9645
24.8972
30.5705
29.5713
28.9347
28.9349
25.599
24.6415
24.0265
29.3541
28.9604
28.9592
29.0597
40.6557
40.9689
36.9285
42.6013
39.682
39.859
36.611
34.6344
35.5628
32.3234
38.2662
34.9778
35.6651
33.5705
31.3239
31.539
30.0327
34.2278
32.4128
33.0575
31.9084
30.4246
30.2126
29.8571
30.6819
29.9303
30.2827
30.0566
32.6204
28.9774
31.2658
29.5795
31.2147
29.2607
32.7075
26.4833
58.2081
42.2298
29.7766
29.3258
55.1482
40.9548
25.4185
39.4705
34.8262
29.3618
29.5929
38.9706
36.2385
24.5495
33.64
31.456
29.6407
29.5789
35.6028
34.1695
37.2288
48.7146
42.9053
40.7597
36.7462
45.2601
40.3539
32.7627
41.1265
38.0441
35.8486
33.9341
39.2631
37.2902
30.5379
37.2083
34.5876
33.4496
32.3029
36.6678
34.7308
39.0437
48.1874
31.1222
35.5997
33.4752
219.679
31.4806
50.1882
74.4226
42.6521
178.902
43.3513
163.8
50.0871
44.4115
31.7703
31.615
59.0585
42.3476
33.1574
33.026
34.9825
31.5737
31.2345
39.8565
36.5246
33.0258
32.9329
31.559
31.0476
29.9661
35.8623
34.3117
32.8443
32.298
45.3858
47.7573
46.5642
45.4723
41.6337
44.3041
42.3054
40.5913
46.2131
44.2803
40.6007
38.6434
41.6637
39.4667
36.7628
42.5633
38.9714
37.9452
35.8206
38.2316
35.8987
33.4726
38.0559
35.4452
35.1746
33.7904
35.3319
33.5948
32.1815
34.4008
32.2139
33.4897
32.9544
32.9844
31.7855
31.9924
31.7374
30.2222
32.8851
32.8117
31.529
30.5869
31.2285
29.6005
28.0381
32.7747
32.485
30.2708
29.6018
29.5629
27.6014
26.2715
32.3209
31.8363
29.4407
28.8439
43.8064
45.2419
41.5745
53.6018
47.8526
50.9852
47.2864
39.2889
40.0866
36.8448
46.2917
44.031
46.0381
43.8425
36.9552
36.1422
34.4247
43.7003
42.3832
43.4731
42.0605
35.1267
33.8879
32.5255
41.9833
41.3171
41.5579
40.6249
33.6489
32.1889
31.3239
41.3327
41.1554
40.5372
40.7813
32.178
31.1204
31.0645
41.1631
41.2764
41.1815
42.8847
31.3568
31.1986
31.6052
41.5103
41.8594
43.3499
44.1618
30.8996
31.7168
31.7123
42.0003
41.9613
44.3009
44.5182
40.2704
40.3411
37.3992
48.8531
46.3814
45.4588
44.7226
35.9873
36.5998
34.8694
45.4245
43.6908
44.5058
43.871
33.6443
34.433
33.1632
43.3627
41.5798
43.3794
41.2615
32.2701
33.2505
50.3438
41.0229
40.141
40.7255
42.2651
31.4503
51.9036
49.0759
40.0828
40.2601
42.949
43.0969
31.3365
46.1576
39.4016
40.6012
42.9562
42.9484
44.4308
32.3044
38.5103
37.4232
43.6376
44.6693
45.2509
46.2893
32.2453
37.0967
35.8421
44.7905
44.8445
46.2842
45.9445
37.4759
45.0505
40.4313
45.6324
44.8204
49.0484
46.1479
35.1904
39.5259
37.8712
44.6437
44.1001
45.7354
44.8305
33.5059
37.3432
35.6489
43.6334
41.5259
44.5596
42.8591
51.5982
35.0926
34.5319
41.0106
42.5271
42.3751
41.8311
50.5502
34.5259
34.3219
43.2189
43.4741
41.842
42.0116
40.306
34.2747
34.3894
43.3554
44.6342
42.1983
43.8465
37.6755
34.5137
34.7317
45.3767
46.3268
44.3184
45.0129
35.9999
34.7195
34.1915
46.3207
45.9919
45.0753
45.0876
41.4528
44.1566
41.9231
50.2967
46.4932
50.3786
45.1039
38.8703
41.1713
38.9725
45.8992
44.7813
43.9822
42.2271
36.4588
37.9025
35.9791
44.4918
43.1363
41.9497
40.9039
34.7428
35.4952
34.0192
42.667
42.055
40.4671
39.9788
34.0934
33.5386
32.6906
42.0311
42.1997
40.0933
40.1388
34.1822
32.5092
31.79
42.4336
43.665
40.1026
40.1495
34.2283
31.5792
31.2453
43.9602
44.4745
40.3864
40.8224
33.6988
31.1812
30.581
44.5345
44.6791
40.9093
40.8051
51.1038
55.0777
51.9241
78.0035
70.8444
77.4044
77.4263
47.7968
50.8483
49.0422
69.5108
71.1305
76.9862
77.3605
46.5615
48.7522
47.5702
71.9534
71.8663
77.6485
81.1789
45.9298
47.1598
46.6347
71.7329
73.8695
82.411
85.7502
46.1268
46.6837
47.2129
74.9984
75.6763
86.6073
87.4006
46.5452
47.591
48.9175
76.1716
77.9997
87.0162
83.7494
47.2715
49.2783
49.8457
79.0848
79.8962
83.448
83.3459
47.0618
49.9459
49.7933
80.6465
81.4149
83.554
85.0244
51.343
50.016
50.4689
72.1013
78.0097
72.5931
81.8224
49.1677
50.3673
49.7941
78.1827
78.9873
82.2488
84.035
47.329
49.4017
47.0066
79.65
84.7473
85.633
93.782
46.1086
46.2386
46.5968
86.4112
90.461
96.4138
102.382
46.7389
47.0748
47.4651
91.383
92.1887
103.515
104.126
49.1494
47.8118
50.2385
91.5633
86.4707
102.837
94.252
50.3123
50.9905
51.6625
84.9595
83.8753
90.6916
86.7339
50.0194
51.6128
50.8871
83.999
85.1445
86.4833
87.1494
50.6819
54.3895
51.8018
73.1036
83.7786
83.9912
86.5217
50.0612
51.4031
50.5189
84.0155
85.4782
85.8947
86.7147
47.2979
50.2494
48.7917
87.0294
94.9696
87.601
92.5129
46.9012
48.2977
47.9138
97.6391
103.334
94.2292
98.4413
47.7853
47.9892
48.2868
104.515
105.601
99.3771
100.476
50.3872
48.5619
49.9278
104.247
95.6137
99.8094
93.7439
51.7271
50.3354
50.7724
91.9392
87.7601
91.7146
90.0778
50.9266
50.7776
50.4151
87.5268
87.8989
89.8281
90.5492
51.9692
56.6396
49.0588
90.0192
86.1289
82.2816
72.1246
50.2579
47.844
46.789
85.0335
86.306
71.2499
80.7806
48.8669
46.7566
45.601
86.7654
90.19
80.8061
79.0983
48.1391
45.1003
45.0699
91.5671
95.4276
78.8421
84.6566
48.4653
45.4015
45.3986
96.2861
96.9565
84.8938
84.3627
49.6449
45.3316
45.5932
96.4099
91.6798
84.1604
87.2908
50.2569
45.9985
46.3396
91.1178
90.0349
87.5594
87.1433
50.032
46.396
45.9325
89.9063
91.0709
87.0871
88.3524
31.7829
29.8944
31.12
29.8513
30.5281
30.0594
32.6011
37.033
29.9621
45.3673
34.9983
32.109
30.5408
166.217
51.2989
41.3988
60.5196
194.392
38.0302
55.44
214.018
31.0308
31.071
31.4898
31.4394
30.7062
30.5858
31.6415
32.5525
30.3495
31.2755
33.3739
30.5225
33.4527
32.5591
38.5013
36.1534
31.7662
49.2188
31.1567
172.259
34.614
53.7799
199.693
46.2466
67.9895
58.3179
219.646
42.1874
32.4985
28.5868
30.6389
28.5127
31.0712
28.9137
31.7674
54.1795
42.6511
69.7943
180.185
42.861
55.2372
165.449
53.5555
41.5324
67.7188
91.3419
42.8167
47.3243
112.288
33.5009
30.1083
30.6524
33.5972
29.8216
33.5807
33.5656
33.375
29.1444
30.3891
32.9152
29.5139
32.5679
33.4271
56.8664
185.055
47.1581
74.1059
57.937
171.797
47.0572
55.8007
90.6307
43.9169
70.4336
48.6643
118.206
46.5374
44.6063
66.6542
40.8341
193.923
37.4101
209.089
48.5766
32.2661
31.9896
32.9175
33.4488
31.905
32.0529
32.7965
32.9627
33.1173
32.4543
32.4509
32.2491
34.1359
32.498
39.3955
36.8579
51.9619
32.7252
213.475
32.0062
35.4007
45.6141
198.713
73.3652
43.8695
213.792
49.6387
40.2217
32.7224
33.572
33.1858
33.635
32.4466
33.0259
33.3179
33.555
32.8557
35.0502
33.4913
34.783
32.8414
33.9808
48.5149
75.9156
42.7722
116.939
43.2174
151.947
48.1061
34.9446
33.7122
32.0776
32.4179
33.9077
34.7971
32.3468
34.8549
33.8108
31.9469
32.0931
33.8889
34.7318
32.2099
50.7089
184.181
79.1597
45.3282
170.655
50.9429
45.4824
48.9844
111.366
78.296
44.21
150.23
48.2608
45.1253
35.5488
32.851
35.6296
33.4616
35.4333
32.7927
35.7458
35.4376
32.5375
35.5217
33.3419
35.2765
32.6557
35.682
168.345
187.135
170.552
103.98
85.8231
101.655
83.8603
166.003
166.13
165.817
75.68
72.5461
75.0873
70.6395
164.025
165.596
164.132
71.2658
69.6108
68.3693
66.9505
157.018
159.7
154.506
67.3227
66.5895
65.3153
63.8941
147.827
149.35
144.202
65.8009
64.9092
62.6715
61.2226
131.499
137.534
127.91
62.7303
61.1142
59.8527
59.2099
103.64
114.295
100.434
58.985
55.0815
58.5577
57.054
86.0167
95.751
81.7412
52.3918
44.9758
53.7476
40.5715
204.047
224.216
195.76
123.813
94.7118
121.623
87.4363
147.022
294.503
323.63
176.478
150.568
176.586
288.537
98.4296
245.607
244.988
107.954
100.924
105.197
245.748
91.0868
251.081
252.434
96.9903
96.9167
91.6177
251.273
86.854
238.352
238.033
95.4548
93.9037
88.1059
234.272
81.8146
222.88
220.381
90.7273
89.9051
82.8011
216.055
77.0958
202.754
196.931
87.5269
86.3329
78.1516
192.322
75.0002
171.133
163.715
84.213
83.1206
75.7107
149.358
60.9431
137.081
134.722
75.998
69.8049
65.0068
137.07
93.7492
93.4324
79.6795
34.5765
29.0912
31.4913
24.8735
179.03
184.024
167.452
101.981
77.5257
99.049
76.7221
117.35
244.547
264.433
152.277
123.68
149.683
234.437
82.9378
239.592
230.113
92.4756
88.3625
86.1058
229.563
74.2969
220.371
215.144
81.221
79.4185
76.4076
208.446
66.7505
193.197
187.927
73.1175
70.6254
68.2568
181.194
62.1834
168.663
167.106
64.6632
62.9191
63.5719
165.408
57.5106
152.587
159.296
58.2839
57.043
58.4539
156.48
54.3006
146.517
151.938
54.8273
54.0444
55.0938
151.447
51.1568
144.484
148.237
51.7912
50.8319
51.9194
146
75.8204
95.6379
85.9601
32.1997
27.6142
37.5313
36.7485
151.507
155.246
141.927
87.7138
75.3875
86.3501
78.5258
110.426
219.561
237.366
134.377
111.822
133.692
213.165
77.1493
212.237
204.703
80.8034
77.6751
80.3963
205.039
67.3757
196.246
197.756
70.0987
67.9382
69.4855
192.956
64.211
181.398
182.817
65.0142
64.6429
64.6597
181.491
63.3656
175.886
177.732
64.4024
64.2996
63.5782
176.933
62.7719
172.064
173.648
63.9104
63.591
62.9846
172.231
59.3385
154.087
158.882
60.6571
58.8388
60.5902
156.775
58.536
155.803
160.007
55.48
55.6154
58.0448
164.604
95.9699
112.911
101.998
41.7547
39.081
44.4787
39.2811
145.624
168.912
161.665
89.6062
85.0896
95.7247
93.1617
127.931
212.055
242.932
134.262
122.985
136.85
218.79
88.5433
175.617
170.298
86.8442
79.5094
98.3071
168.541
72.5258
184.158
180.639
70.5743
69.1877
73.8566
182.726
71.0656
180.409
180.612
67.5494
67.3993
71.5127
180.991
73.627
191.233
193.97
68.0841
68.5986
72.5598
196.688
76.8026
179.787
195.73
71.0936
72.0031
76.3761
192.978
76.9234
172.329
183.878
71.5348
71.147
77.2418
182.361
76.2308
177.837
178.175
72.8212
74.1504
76.5657
171.524
97.7691
100.924
93.6407
43.4083
34.1955
38.7463
33.436
133.549
174.224
133.082
98.9907
77.8449
100.077
77.684
114.775
120.472
116.965
68.7763
65.4439
65.4492
63.6778
113.212
114.319
106.368
60.6547
57.8738
60.1866
55.4494
112.339
105.535
105.961
57.1095
56.003
52.9022
52.768
106.604
105.881
104.121
53.011
49.8516
51.8409