/*--------------------------------*- C++ -*----------------------------------*\
  =========                 |
  \\      /  F ield         | OpenFOAM: The Open Source CFD Toolbox
   \\    /   O peration     | Website:  https://openfoam.org
    \\  /    A nd           | Version:  10
     \\/     M anipulation  |
\*---------------------------------------------------------------------------*/
FoamFile
{
    format      ascii;
    class       volScalarField;
    location    "7.7";
    object      p;
}
// * * * * * * * * * * * * * * * * * * * * * * * * * * * * * * * * * * * * * //

dimensions      [0 2 -2 0 0 0 0];

internalField   nonuniform List<scalar> 
12920
(
232136
431290
412791
441768
408975
414629
385127
378882
357740
342857
320270
299442
273142
246298
216146
184838
151543
116792
80114.5
37036.7
372993
484596
411768
446196
399782
413410
382586
380449
358973
344878
322245
301136
275091
248403
217934
186296
152624
117661
80654.9
37313.7
347441
455091
411670
429570
409175
419708
397274
390466
368935
352650
329047
306667
280901
253246
221921
189418
154911
119033
81653.1
37617.3
353466
429334
411428
452748
398447
422339
396678
395966
376051
361761
338631
315556
287995
259129
227019
193402
157824
120944
82864.8
38107.5
385442
397320
418042
453251
436342
448158
430296
424387
402382
383558
356997
330345
299337
268280
234579
199228
162094
123708
84479.1
38653.3
84985.5
320585
375885
460052
443470
473241
453799
448293
426588
405491
377808
348199
314787
279957
243012
205261
166601
126821
86301.5
39395.8
197818
379971
416523
497621
497400
513093
495479
486371
460182
434459
401831
367924
330474
291611
251705
211921
171773
130530
88468.7
40579.9
165098
449893
488261
563290
548120
566949
534917
519761
494433
464485
429659
391794
351388
310037
259915
218133
176707
134093
90466.3
41532.8
105245
583657
574961
638339
623316
619081
592675
564155
532477
496110
457072
415210
371326
326341
275749
224641
182098
137866
92640
42415.6
709295
786558
739174
761500
719931
694308
655734
616619
574804
531483
486363
440149
392411
342889
288442
233455
188516
142146
95104.3
43253.4
1.28997e+06
1.08314e+06
924203
923743
826824
786519
728980
674889
622452
571303
520179
468025
414523
360363
302749
244269
196398
147498
98130.4
44313.2
1.42403e+06
1.25236e+06
1.05719e+06
1.03646e+06
925076
869248
799137
734460
672315
611816
552904
494695
437136
379908
318926
257303
205727
153631
101413
45589.9
1.53199e+06
1.38586e+06
1.19916e+06
1.14555e+06
1.02168e+06
950468
867221
792587
720046
650173
583826
520081
458171
397902
329457
271663
215888
160565
105490
47368.9
1.73312e+06
1.52872e+06
1.30373e+06
1.24667e+06
1.11547e+06
1.02504e+06
928609
844728
760284
685243
611218
542510
474691
410413
345929
284940
225704
167272
109343
48876
1.87626e+06
1.65407e+06
1.46802e+06
1.36286e+06
1.20546e+06
1.09974e+06
990622
895106
803922
719691
640848
566861
495387
427375
360927
297209
234925
173672
113071
50224.9
1.9771e+06
1.81051e+06
1.57294e+06
1.44374e+06
1.28855e+06
1.16868e+06
1.0482e+06
945093
844903
755914
669167
590500
514460
443272
373910
307685
242818
179211
116238
51546.6
1.96362e+06
1.96846e+06
1.64033e+06
1.50484e+06
1.32923e+06
1.20877e+06
1.08382e+06
978856
874916
781584
692635
610132
531350
456983
385040
316341
249427
183819
118951
52634.4
2.28116e+06
2.09935e+06
1.679e+06
1.56594e+06
1.3771e+06
1.25423e+06
1.12211e+06
1.01053e+06
902296
805540
711848
626677
544915
468480
394439
323864
254859
187601
121209
53399.9
2.06554e+06
2.06763e+06
1.70418e+06
1.5867e+06
1.40206e+06
1.27473e+06
1.14051e+06
1.0267e+06
916203
817610
722363
636184
552939
475353
400091
328351
258267
189939
122522
53772
2.17265e+06
2.06972e+06
1.7362e+06
1.62322e+06
1.4234e+06
1.29061e+06
1.15147e+06
1.03488e+06
922791
823063
727595
641204
557953
479106
403004
330629
259944
191220
123175
54003.2
320639
436024
416934
443166
409057
414346
385032
378706
357573
342843
320228
299450
273228
246438
216204
184876
151560
116834
80203.2
37228.2
423825
489330
407081
447128
400172
413452
382500
380498
358732
344889
322380
301396
275301
248401
217912
186277
152618
117702
80754.7
37400
292666
448787
409917
429043
409108
419889
397414
390958
369236
353000
329189
306878
280880
253258
221930
189400
154914
119097
81790.2
37774.2
357829
408401
408480
452038
397660
421744
396183
396315
376225
362277
338836
315604
288104
259238
227064
193420
157853
121018
83013.8
38327.1
306225
384838
414016
451158
435822
447964
430068
424324
402367
383679
357064
330424
299512
268588
234658
199268
162116
123743
84588.4
38950.6
131678
311872
368849
457710
441669
472067
452817
448012
426143
405485
377775
348270
314803
279876
242997
205308
166591
126832
86506.8
39668.6
62213.2
353805
410781
495079
496063
513489
495864
486653
460383
434546
402005
368126
330345
291491
251652
211882
171773
130533
88557.4
40661
270002
449345
488894
562875
548062
567584
535150
520128
494813
464769
429778
391938
351578
309952
259681
218042
176753
134203
90544.6
41561.7
225531
585381
579074
640233
624833
620269
594430
564500
532495
496247
457103
415115
371338
326425
275215
224578
182125
137973
92768.8
42438.2
588214
778005
734139
762542
720508
695175
656106
616557
574682
531242
486180
439967
392254
342736
287817
233296
188506
142202
95175.6
43331.7
1.26038e+06
1.06962e+06
926705
922706
825926
786283
729159
674723
622480
571252
520185
468081
414602
360181
302103
244144
196389
147530
98098.5
44394.4
1.16412e+06
1.20993e+06
1.05143e+06
1.03823e+06
922401
868037
798054
734044
672408
611836
552739
494270
436815
379834
318276
257114
205644
153656
101512
45713.6
1.54215e+06
1.38887e+06
1.19445e+06
1.14551e+06
1.02015e+06
950828
866776
792136
719195
650105
583505
519962
458006
397700
329209
271517
215820
160574
105577
47361.9
1.60558e+06
1.51141e+06
1.30202e+06
1.24593e+06
1.11427e+06
1.02528e+06
928451
844440
760409
685186
611072
542337
474620
410303
345840
284910
225694
167294
109394
48872.6
1.84615e+06
1.6575e+06
1.46213e+06
1.35998e+06
1.20338e+06
1.09932e+06
990016
894844
803954
719948
640937
566810
495391
427320
360890
297182
234927
173693
113076
50235.4
1.91131e+06
1.79214e+06
1.56722e+06
1.43877e+06
1.28414e+06
1.16585e+06
1.04736e+06
944683
844803
755617
669227
590637
514588
443320
373922
307668
242796
179207
116234
51550.1
2.01062e+06
1.98776e+06
1.64037e+06
1.50502e+06
1.32733e+06
1.20898e+06
1.08389e+06
978413
874394
781200
692211
610127
531293
456976
385112
316445
249440
183840
118964
52596.7
2.14209e+06
2.08864e+06
1.67128e+06
1.56603e+06
1.37599e+06
1.25351e+06
1.12091e+06
1.00971e+06
901661
804868
711383
626529
544771
468335
394265
323690
254756
187531
121139
53341.2
2.05083e+06
2.03188e+06
1.69855e+06
1.58833e+06
1.40087e+06
1.2744e+06
1.14019e+06
1.02666e+06
915692
817258
722312
636051
552937
475210
400005
328311
258284
189966
122500
53732.3
2.17908e+06
2.06421e+06
1.73323e+06
1.62332e+06
1.42328e+06
1.29076e+06
1.15109e+06
1.03455e+06
922234
822687
727396
641073
557627
479046
402969
330615
259929
191194
123174
54016.4
264844
443022
414693
441936
408429
413737
384967
379220
357539
342935
320414
299654
273340
246573
216272
184929
151593
116905
80324.8
37359.2
506356
494401
410235
445188
398966
413591
382650
380998
358750
345156
322586
301681
275466
248464
217929
186303
152631
117782
80924.2
37499.9
348294
452663
413304
431346
409980
420046
397333
391407
369339
353416
329296
307128
280895
253282
221965
189432
154972
119251
82031
38052.2
365111
414755
414607
453752
396832
421586
395826
396943
376514
362854
339062
315834
288319
259389
227137
193496
158001
121199
83279.3
38621.7
204818
368203
411499
448966
435123
447650
429738
424397
402259
383875
357040
330531
299897
268883
234719
199287
162176
123866
84888
39237.4
20561.3
314354
377241
456626
440235
471619
452086
448206
426062
405752
377988
348518
315003
279899
242985
205290
166618
126976
86738
39901.4
8679.51
348687
414720
494595
494867
514417
496210
487083
460708
434813
402348
368465
330146
291376
251512
211787
171788
130654
88756.5
40755.1
411509
471684
492993
567028
549064
568703
535585
520801
495106
465069
429946
392111
351617
309773
259298
217947
176840
134371
90730.9
41594.6
273470
602744
577167
643405
627414
622133
596278
565053
532633
496460
457112
415228
371502
326393
274538
224476
182180
138149
92961.3
42485.4
527161
769778
730824
766015
722830
697347
657181
616430
574470
530940
485754
440043
392358
342370
287156
233003
188488
142297
95346.7
43438.1
1.2987e+06
1.07057e+06
926038
926694
828334
784455
729174
674351
622559
568311
520094
468346
414344
359929
301292
243777
196310
147590
98230.8
44516.4
1.2778e+06
1.21451e+06
1.05593e+06
1.04053e+06
920222
866149
796771
732907
672054
611356
551922
493799
436562
379553
317332
256724
205557
153723
101578
45834.5
1.38639e+06
1.39135e+06
1.18432e+06
1.14432e+06
1.01781e+06
951192
866128
790669
717679
649145
583071
519706
457767
397294
328674
271259
215664
160592
105636
47353.4
1.54688e+06
1.51778e+06
1.30286e+06
1.24617e+06
1.11282e+06
1.02576e+06
927718
844314
760266
684892
610831
542090
474461
410103
345673
284821
225646
167324
109476
48853.3
1.72179e+06
1.65927e+06
1.45709e+06
1.35738e+06
1.20089e+06
1.09894e+06
989379
894734
803895
720030
640865
566686
495317
427196
360803
297107
234907
173725
113090
50210.7
1.86661e+06
1.82777e+06
1.56295e+06
1.43815e+06
1.28056e+06
1.16449e+06
1.04594e+06
944404
844547
755611
669226
590655
514554
443320
373877
307610
242767
179219
116250
51520.5
2.16602e+06
2.00685e+06
1.63586e+06
1.50558e+06
1.32547e+06
1.20873e+06
1.0832e+06
977962
874071
781176
692047
610080
531192
457015
385124
316477
249451
183865
118961
52478.1
2.26026e+06
2.14698e+06
1.67724e+06
1.56784e+06
1.37312e+06
1.2522e+06
1.11925e+06
1.00871e+06
900489
803984
710932
626378
544595
468254
394187
323666
254764
187556
121095
53227.5
2.11557e+06
2.05396e+06
1.72114e+06
1.59045e+06
1.40156e+06
1.27541e+06
1.13977e+06
1.02643e+06
915169
816991
721903
635812
552757
475149
399909
328246
258240
189968
122519
53713.5
2.13835e+06
2.06593e+06
1.73923e+06
1.62349e+06
1.42372e+06
1.29128e+06
1.15096e+06
1.03462e+06
921826
822510
727278
640807
557243
478824
402871
330562
259889
191157
123201
54006.4
454892
465883
421195
442783
408784
413430
384607
379482
357484
343258
320765
299842
273517
246688
216310
184962
151607
116979
80467.9
37471.4
571203
506246
415029
444925
397492
413926
382532
381789
358824
345656
322767
301997
275587
248579
217992
186347
152650
117890
81178.5
37663.7
339400
433805
416569
433862
410065
420131
397004
391806
369170
353788
329493
307463
280929
253289
221999
189471
155042
119435
82359.4
38253.5
392892
414664
406337
452443
393987
421564
395359
397595
376799
363450
339383
316317
288534
259543
227218
193584
158106
121381
83599.9
38779.6
256374
385087
407867
446423
432953
447240
429201
424567
402007
384069
357108
330814
300289
269108
234763
199337
162267
124043
85190.1
39396.2
-48376
344491
367585
453072
436901
471430
451306
448878
426267
406197
378251
348785
315069
279943
242912
205270
166613
127159
87019.4
40013
49129.2
328013
409683
490428
492860
514690
496451
487520
461051
435240
402521
368605
329939
291193
251370
211709
171860
130830
89027.7
40757
304163
450932
490854
568735
548463
570153
535749
521263
494917
465074
430148
392204
351526
309534
258954
217837
176961
134546
90985.9
41540.8
232369
642644
575058
646623
629349
623647
596788
565373
532718
496680
457228
415543
371739
326241
273872
224237
182215
138331
93222
42471.7
596387
758076
730342
771725
725038
699352
658062
616409
574523
530973
485904
440135
392291
342064
286549
232645
188433
142417
95571
43451.6
1.23929e+06
1.05691e+06
925295
928796
831397
781758
727959
674054
622545
569050
519202
467366
414043
359651
300551
243368
196180
147659
98391.1
44547
1.09878e+06
1.18736e+06
1.05391e+06
1.04408e+06
921806
863462
795302
731464
670895
610405
551051
493451
436393
379062
316735
256275
205477
153827
101730
45804.7
1.45091e+06
1.38448e+06
1.18825e+06
1.14237e+06
1.01661e+06
951582
865324
788481
716426
648158
582656
519409
457608
396887
327977
270947
215570
160647
105727
47276.8
1.60059e+06
1.52213e+06
1.30516e+06
1.24551e+06
1.11128e+06
1.02619e+06
926451
843826
759666
684414
610407
541749
474156
409766
345439
284682
225574
167367
109543
48730.3
1.71836e+06
1.66494e+06
1.45083e+06
1.35324e+06
1.19822e+06
1.09868e+06
988487
894566
803472
719843
640633
566500
495163
427056
360698
297019
234860
173759
113118
50067.6
1.91811e+06
1.85037e+06
1.55124e+06
1.43535e+06
1.27652e+06
1.16293e+06
1.04453e+06
943879
844156
755450
669069
590583
514448
443280
373818
307561
242744
179258
116290
51336.7
2.16164e+06
2.01393e+06
1.62999e+06
1.50532e+06
1.32259e+06
1.20782e+06
1.08201e+06
977413
873661
781030
691801
609936
531064
456994
385109
316497
249473
183922
118975
52248.4
2.29155e+06
2.1468e+06
1.68945e+06
1.56644e+06
1.36916e+06
1.25076e+06
1.11788e+06
1.00795e+06
899630
803628
710643
626156
544418
468165
394100
323635
254759
187598
121088
52989.7
2.11581e+06
2.0546e+06
1.73107e+06
1.59149e+06
1.4021e+06
1.27525e+06
1.13875e+06
1.02592e+06
914630
816579
721633
635646
552645
475142
399884
328243
258257
190018
122544
53549
2.15507e+06
2.08559e+06
1.74306e+06
1.62382e+06
1.42266e+06
1.29119e+06
1.15052e+06
1.03432e+06
921492
822322
726994
640498
557026
478816
402826
330494
259833
191123
123209
54013.8
419883
473695
421476
442742
408492
413406
384311
380125
357537
343725
320857
300017
273565
246755
216334
184991
151617
117039
80633.9
37609.2
481077
500174
415489
446203
395624
414536
382139
383219
358931
346459
323045
302294
275785
248832
218080
186417
152701
118020
81546.4
37988.3
383889
443024
424126
436620
409865
420530
396595
392461
369006
354279
329723
307947
281047
253399
222093
189588
155144
119686
82834.7
38423.2
429528
435617
406728
455227
389919
422323
394704
398768
377117
364372
339733
316969
288736
259675
227309
193713
158280
121674
84054.6
38896.2
165242
384513
406408
444754
431100
447468
428645
425025
401905
384468
357246
331210
300575
269357
234851
199390
162316
124230
85565.6
39444.6
169974
354156
371012
452270
434504
472197
450568
449961
426430
406818
378531
349134
315255
280149
242912
205264
166667
127363
87417.6
40057.5
15528.9
324079
411808
489620
492393
515290
496622
488106
461192
435647
402521
368715
329870
291102
251278
211681
171971
131041
89369
40747.7
204095
445915
495033
572132
547732
572776
535932
520814
494498
464641
430126
392006
351294
309095
258679
217767
176987
134757
91307.8
41499.4
355803
630589
572587
650306
630328
624722
596296
565272
532772
496973
457598
415965
372011
326093
273064
223969
182246
138446
93576.8
42473.1
599493
749285
731828
777063
726468
699570
658298
616511
574731
530957
485972
440232
392296
341859
285805
232204
188387
142525
95789.5
43427.2
1.24732e+06
1.05035e+06
924922
930357
832154
782250
725858
673449
622031
569826
518029
466686
414055
359510
299728
242881
196094
147745
98525.3
44513.3
1.0213e+06
1.17257e+06
1.05238e+06
1.04594e+06
924733
861735
794147
730491
669892
609629
550567
493459
436460
378666
316308
255834
205424
153892
101954
45757.2
1.33079e+06
1.36539e+06
1.18112e+06
1.14092e+06
1.01547e+06
951607
864658
787327
715712
647504
582515
519210
457638
396648
327394
270706
215584
160725
105880
47208.8
1.39923e+06
1.49623e+06
1.307e+06
1.24495e+06
1.10969e+06
1.02675e+06
925604
843643
758787
684012
609677
541453
473492
409391
345248
284553
225457
167405
109583
48634.9
1.6884e+06
1.67512e+06
1.44867e+06
1.35011e+06
1.19622e+06
1.09866e+06
987304
894537
803009
719680
640357
566323
494996
426939
360636
296945
234811
173793
113140
49877
1.97619e+06
1.86999e+06
1.53849e+06
1.43556e+06
1.27457e+06
1.16221e+06
1.04365e+06
943738
843910
755417
668926
590521
514336
443244
373762
307528
242735
179305
116305
51110.6
2.10729e+06
2.01181e+06
1.63144e+06
1.50373e+06
1.31945e+06
1.20719e+06
1.08106e+06
977171
873371
780950
691585
609830
530944
456954
385072
316492
249489
183984
119004
52016.4
2.44344e+06
2.16485e+06
1.70621e+06
1.56724e+06
1.36533e+06
1.25034e+06
1.11696e+06
1.00766e+06
899231
803471
710458
626017
544277
468105
394041
323621
254762
187655
121125
52770.9
2.18742e+06
2.06631e+06
1.73618e+06
1.59341e+06
1.40282e+06
1.27539e+06
1.13799e+06
1.0254e+06
914151
816442
721453
635555
552546
475130
399862
328256
258260
190052
122585
53275.3
2.17686e+06
2.12551e+06
1.73575e+06
1.62397e+06
1.42174e+06
1.2914e+06
1.15019e+06
1.03441e+06
921359
822221
726761
640367
556868
478728
402772
330457
259812
191115
123212
53967.3
497055
559114
522892
530945
497089
558906
522447
451661
510173
475009
485793
451756
509642
474824
533223
601510
558405
568136
532602
600902
557681
482392
544189
501549
519352
482091
543468
501036
571016
639281
613113
593832
571487
639759
613137
540997
603264
573642
564336
541023
603304
573603
505387
563655
532724
532449
505562
563561
532620
467410
522170
489670
496192
467481
522059
489522
426099
478507
444771
457089
426004
478420
444737
382767
433343
398654
415143
382584
433308
398581
337919
386784
350968
371325
337733
386758
350915
292200
338826
302043
326412
292000
338759
301672
626551
709606
672620
655971
626443
709935
672571
585337
660211
622609
616589
585318
660146
622606
542499
610191
573374
574733
542354
610195
573283
497773
561151
524203
531335
497635
561025
523920
451829
511733
473855
486250
451731
511432
473749
404495
460961
421943
440011
404350
460939
422004
355367
408724
369049
392268
355418
408855
369046
305203
355778
316573
342808
304881
355691
316287
687822
781180
734992
729193
687844
780677
734676
635592
719771
674526
674784
635474
719566
674501
583992
659682
616044
622464
583937
659774
616096
533076
601598
558938
571270
533087
601685
558991
481246
544847
502401
520198
481237
544814
502159
427983
488256
445916
468066
428075
487971
445445
373908
431691
388899
414608
373815
431226
388834
320469
374867
333113
360241
320144
374835
332663
750053
847565
795766
798435
749721
847514
795447
687695
778799
727082
734232
687717
778212
726253
626789
709649
658585
672411
626780
708682
657963
567399
642182
593130
611834
567445
641268
592958
509190
576664
530501
552845
508878
576440
530510
451489
514567
469870
494410
451186
514447
469888
394052
454058
410311
436896
394007
454020
410297
337518
394761
351304
379865
337129
394673
350959
571785
640001
613104
596030
572437
641068
612984
541112
603283
573568
564925
541309
603182
573458
505642
563511
532538
532611
505830
563339
532315
467515
521985
489449
496411
467568
521756
489251
425966
478368
444710
457118
425849
478204
444678
382526
433293
398555
415186
382584
433309
398576
337753
386746
350888
371462
337840
386781
350762
291898
338687
301502
326416
291353
338413
300863
626418
710049
672532
656941
626364
710723
672333
585287
660104
622601
616448
585161
659908
622571
542265
610196
573231
574507
542026
610196
572742
497560
560977
523728
530990
497212
559266
522861
451681
511232
473724
485880
451616
510312
474383
404325
460944
422061
439981
404406
461055
422145
355400
408921
369002
392332
355191
408881
368828
304754
355631
316212
342463
304140
355440
315601
687793
780163
734477
729392
687513
778968
733717
635467
719395
674486
674461
635449
718711
674393
583898
659789
616122
622529
583508
659800
616054
533074
601728
558952
569532
533284
601601
558563
481242
544742
502027
520367
481921
544315
501633
428125
487836
445275
468208
427994
487426
444919
373750
431093
388801
414412
373564
430814
388650
320071
374812
332567
359999
319424
374652
331791
749478
847290
795171
797214
748473
847159
794312
687653
777956
726016
733237
687377
776702
724723
626767
708206
657674
672266
626459
706722
656600
567373
640944
592919
611506
566828
639953
592548
508716
576364
530487
552141
508269
575996
530300
451084
514385
469880
493889
450834
514154
469765
393980
453989
410263
436619
393841
453838
410084
336991
394603
350799
379646
336225
394342
350016
572590
641291
612932
596985
572906
641913
612800
541358
603154
573417
565360
541429
603109
573378
505876
563288
532274
532710
506025
563264
532297
467570
521702
489178
496630
467551
521720
489223
425839
478144
444695
457193
426073
478202
444806
382642
433338
398614
415459
382856
433467
398760
337849
386810
350681
371675
337833
386865
350454
291227
338319
300751
326282
290624
338062
300258
626418
710728
672265
657977
626571
710701
672070
585127
659839
622563
616414
585117
659677
622586
541988
610209
572844
574484
542007
610254
572635
528378
519702
540438
530924
528532
519652
540460
481754
474484
493407
485680
481960
474460
493084
404453
461154
422119
440165
404518
460796
421878
355109
408834
368772
392312
354889
408633
368624
304056
355377
315510
342128
303594
355206
314951
687381
778455
733430
728483
687080
777090
732252
635445
718452
674307
674112
635442
717550
673714
583682
659759
615952
622579
583436
659143
615351
567725
558258
580673
570801
567745
561195
580732
516310
506716
528953
521458
515754
507593
529373
427928
487325
444840
467910
427641
486907
444703
373506
430751
388580
414110
373339
430650
388344
319350
374560
331692
359716
318762
374230
330994
748048
846850
793972
795744
746807
846572
793016
687201
776172
724233
731804
686309
774674
722758
626287
706224
656280
671214
625592
704867
655465
566608
639661
592410
610671
565850
638885
591948
508155
575848
530211
551263
507806
575418
529932
450769
514074
469702
493536
450614
513861
469481
393752
453765
409996
436418
393486
453556
409722
336082
394229
349899
379202
335375
393918
349238
572890
641840
612780
596623
572826
641879
612753
541415
603097
573403
565362
541297
603088
573634
506015
563298
532343
532803
506409
563505
532464
467507
521765
489312
496951
467654
521842
489481
426152
478285
444854
457526
426417
478421
444999
382926
433509
398787
415879
383103
433664
398883
337807
386864
350395
371961
337697
386912
350256
290513
337989
300203
326134
289853
337805
299657
626576
710445
672032
658467
626556
709906
671929
585148
659669
622604
616468
585350
659613
622474
542041
610258
572473
574696
542092
610078
572528
497221
558904
522000
530981
497330
559917
522086
451747
509444
473687
485977
451775
509613
472489
404511
460464
421779
440185
404558
459999
421690
354830
408567
368590
392282
354698
408508
368523
303553
355164
314871
341913
302990
355066
314275
686982
776548
731864
726389
686335
775444
730908
635425
717226
673457
673618
635073
716416
672731
583159
658894
615079
622153
583012
658190
614392
532286
600605
557376
569969
531123
599905
556749
480970
543155
500797
518208
479558
542580
500465
427539
486742
444698
466735
427462
486576
444731
373293
430637
388270
414008
373237
430655
388125
318690
374102
330937
359521
318064
373811
330289
746433
846217
792715
794432
745563
846059
792155
685972
774228
722300
730653
685093
773252
721253
625322
704480
655227
670073
624650
703683
654727
565598
638664
591790
609768
565083
638154
591364
507685
575288
529824
550623
507520
575013
529568
450587
513798
469404
493394
450654
513694
469273
393403
453498
409607
436433
393223
453565
409364
335300
393809
349196
378731
334672
393721
348622
572762
641737
612757
596543
572866
641785
612919
541196
603105
573716
564964
541407
603265
573813
506436
563565
532471
532506
506282
563674
532493
467690
521844
489477
496610
467822
521870
489419
426458
478436
445061
457357
426574
478450
445193
383123
433740
398934
415675
383251
433937
399039
337654
386945
350228
371726
337730
387025
350219
289761
337756
299588
325661
288890
337702
298459
626552
709420
671792
658016
626706
708404
671525
585410
659507
622395
616632
585512
659313
622338
542080
609989
572428
574814
542068
609914
572142
497318
559786
522052
530902
497171
559476
521907
451806
509594
472453
485887
451889
509461
472462
404604
459961
421747
440383
404679
460057
422034
354667
408544
368512
392314
354616
408618
368498
302932
355042
314192
341778
301784
355005
313087
686088
775132
730703
725306
685817
775101
730665
634954
716242
672553
673230
634823
716197
672378
582897
658018
614233
621896
582584
657857
614028
530927
599744
556622
569481
530596
599481
556398
479516
542477
500476
517746
479523
542333
500659
427532
486613
444794
466765
427894
486860
445034
373244
430695
388093
414168
373258
430820
388097
317994
373750
330240
359492
316792
373747
329093
745395
845840
792118
794367
745533
845574
792680
684895
773071
721005
730521
684729
773474
721262
624495
703518
654659
669741
624348
703651
655331
564988
638028
591234
609493
564916
638037
591501
507551
574941
529491
550593
507768
574923
529877
450689
513678
469237
493752
450824
513810
469643
393189
453598
409298
436562
393190
453841
409706
334611
393732
348578
378659
333401
393911
347635
516185
508350
504976
496955
516573
508250
504582
536448
549348
548204
560694
537001
549460
547450
524145
513244
535452
521073
525030
512450
533835
528378
530929
519720
540402
519664
540451
528504
516166
496978
508367
504904
508264
504568
516500
536495
560812
549204
548093
549399
547742
536880
524110
520915
512947
535170
512390
533758
524833
470381
463132
458796
451722
470410
463159
458913
489370
501463
497642
508269
489840
500742
495595
478735
466700
485194
474894
478538
467148
483941
481735
485703
474545
493339
474486
493072
481903
470339
451763
463195
458799
463186
458944
470319
489325
508086
501157
497074
500674
495373
489563
478599
474968
466594
484761
467205
483762
478321
555476
546202
542258
534929
555201
548569
542626
577846
591667
587043
601385
577811
591646
586886
564042
550325
572677
558224
564016
550360
572500
567605
570850
558010
580337
561474
580545
567307
555280
534791
545674
541466
548402
542350
554539
577679
601179
591125
586410
591463
586676
577259
563843
557979
549622
572002
550148
572277
563395
503534
493637
489231
482202
502599
494383
489849
523057
536618
530005
544025
522922
536701
529885
509248
495097
515784
501452
509071
495167
515691
515967
521205
505893
528121
507348
529059
514906
503191
482074
492877
488650
493839
489687
501809
522808
543779
535887
529339
536459
529654
522199
509010
501277
494552
515200
494979
515492
508414
528844
565934
555894
534885
528902
566203
556167
508238
544680
530366
519777
508268
545007
530503
480780
515471
497306
494530
480809
515566
497384
448645
481100
461587
464544
448701
481214
461625
411944
443470
422207
429688
411999
443514
422229
373190
403113
380651
391845
373112
403161
380717
331149
360603
337282
351483
331250
360665
337377
289557
317347
294125
310025
289480
317268
294023
607157
651715
640567
619425
607538
651805
640810
601201
585992
608861
592822
586169
608942
600921
568090
557246
577147
564154
557159
577227
568038
532531
523831
542456
532440
523839
542497
532505
494058
487206
504548
496118
487214
504554
494057
452771
447263
464091
457070
447254
464087
452787
409194
404841
421060
415198
404793
421032
409240
364184
360613
376303
371316
360550
376269
364239
318395
315405
330745
326367
315422
330732
318398
254695
282853
259035
275551
254596
282584
258873
674508
740242
716067
694426
674796
740551
716372
662781
645500
673144
655761
645590
673000
662838
619852
606283
630996
616613
606282
630980
619860
575143
564172
586335
574795
564143
586325
575171
529543
520371
541108
531467
520342
541069
529582
482741
474921
494502
486343
474911
494471
482780
434793
428366
446935
440119
428326
446900
434838
385206
380192
397768
392376
380160
397756
385205
334244
330319
347059
342883
330288
347053
334270
264727
295491
271503
288176
264550
295271
271331
753938
828866
792905
786618
753834
828726
792281
732325
714202
747176
729011
714267
747155
732333
676237
661888
690187
674848
661793
690113
676323
621329
609531
634880
622448
609532
634832
621322
568271
558584
581413
571293
558584
581429
568252
515498
507283
528774
520204
507290
528794
515493
461437
454745
475031
468035
454759
475041
461420
406515
400983
420250
414532
401013
420281
406484
351541
346947
365210
360344
346928
365138
351559
277771
310578
284627
302527
277561
310371
284421
828460
905381
868236
868806
828297
905776
868286
798363
781864
814589
798877
781696
814677
798456
733105
718851
749692
734437
718815
749634
733082
669003
657128
684925
672360
657143
684964
669020
606437
596867
622115
611823
596877
622090
606476
545797
538350
560923
552921
538318
560918
545828
486355
480228
501159
494637
480164
501128
486381
428159
422694
442822
437066
422657
442799
428173
370402
365792
384927
379902
365761
384920
370427
291629
326029
301570
318751
291408
325878
301346
827355
894703
860543
867197
827141
894820
860635
755328
819849
781537
792436
755050
819424
781258
682446
741691
705924
719753
682250
741443
705704
615400
669410
635342
650246
615330
669024
635213
549940
599153
566968
583696
549906
599025
566883
487869
532866
502572
520044
487790
532785
502527
426664
468608
439245
458103
426571
468524
439135
367365
406976
379164
397833
367186
406898
379032
529127
566784
556613
535568
529476
567548
557126
508504
545425
530668
520438
508763
545753
530734
481018
515708
497504
495008
481171
515821
497572
448878
481367
461681
464938
448999
481481
461763
412107
443606
422265
429867
412128
443694
422263
373031
403234
380822
392038
372941
403189
380829
331327
360701
337460
351638
331348
360699
337482
289458
317215
293941
309881
289227
317143
293669
608552
652692
641313
621240
609576
653934
642088
602243
587769
609892
595048
601978
588321
610408
568448
557341
577588
564632
568362
557416
577699
532666
524042
542671
532530
532639
524126
542710
494061
487338
504606
496301
494069
487382
504618
452692
447275
464085
457111
452728
447268
464072
409082
404638
420908
415127
409071
404658
420913
364195
360502
376311
371380
364181
360573
376337
318311
315425
330664
326433
318354
315404
330655
254511
282160
258724
274846
254235
281794
258360
675397
741048
716854
696256
676116
741904
717283
662593
645940
673213
656375
662588
646093
673450
619771
606250
630897
616516
619809
606214
630856
574933
563977
586238
574623
574994
563905
586189
529153
520111
540844
531151
529296
520009
540735
482358
474787
494199
486095
482478
474708
494061
434688
428190
446723
439941
434676
428171
446726
385323
380092
397769
392268
385287
380111
397807
333952
330061
346913
342650
334044
329953
346840
264396
294865
271156
287490
264027
294534
270753
753541
827841
791176
786141
752925
826338
789700
731883
714395
747115
729337
732019
714410
747156
675813
661594
689812
674649
675917
661528
689679
621434
609574
634861
622496