/*--------------------------------*- C++ -*----------------------------------*\
  =========                 |
  \\      /  F ield         | OpenFOAM: The Open Source CFD Toolbox
   \\    /   O peration     | Website:  https://openfoam.org
    \\  /    A nd           | Version:  10
     \\/     M anipulation  |
\*---------------------------------------------------------------------------*/
FoamFile
{
    format      ascii;
    class       surfaceScalarField;
    location    "7.7";
    object      phi;
}
// * * * * * * * * * * * * * * * * * * * * * * * * * * * * * * * * * * * * * //

dimensions      [0 3 -1 0 0 0 0];

internalField   nonuniform List<scalar> 
38556
(
1198.14
-166.544
-915.426
1648.46
-346.053
-104.26
1594.16
-69.6501
123.951
1608.43
100.261
-114.535
1612.18
260.783
-264.532
1729.42
185.156
-302.396
1722.31
168.25
-161.139
1619.96
162.302
-59.9528
1341.39
170.975
107.598
1161.36
126.544
53.4782
1097.92
73.0674
-9.62314
1077.4
42.4377
-21.9178
1081.05
21.3947
-25.0488
1093.5
3.56061
-16.0039
1114.28
-13.9286
-6.85486
1137.65
-16.7774
-6.59372
1169.39
-26.2187
-5.52149
1202.63
-26.4462
-6.79521
1244.9
-39.2739
-2.99467
-37.1485
0.408788
239.525
1412.65
-327.226
360.656
218.907
-686.092
650.88
91.3775
-451.251
778.45
79.3914
-106.7
1007.97
38.4673
-7.20457
1103.18
67.8971
22.0461
1118.63
60.7595
92.0398
1105.45
113.624
61.8662
1071.05
119.978
85.3883
1055.1
110.998
31.5054
1045.76
67.1127
15.2892
1052.23
34.2714
1.69949
1064.3
3.67862
5.64312
1085.81
-29.3769
11.4266
1107.86
-55.3308
19.3571
1126.97
-63.6039
27.7084
1140.49
-73.1006
33.3672
1144.89
-69.8681
39.0169
1150.67
-86.5284
41.4789
-82.7151
35.969
652.959
1880.18
-1236.06
1151.33
757.64
-1037.1
1596.49
351.422
-705.209
1651.38
168.308
-143.798
1480.89
133.941
75.0085
1360.16
92.1785
96.448
1222.74
71.197
126.982
1162.07
95.5898
78.7083
1127.29
86.096
68.6651
1126.57
77.2643
34.4488
1122.56
42.1546
28.968
1126.38
18.6941
11.7588
1134.13
-22.9103
18.8353
1141.45
-50.294
13.5966
1148.61
-72.6791
10.1906
1152.5
-77.6858
10.1974
1150.67
-81.4119
10.1401
1142.5
-73.492
11.7919
1115.19
-81.6159
22.3945
-71.2795
8.96238
294.185
887.278
1799.86
475.378
103.249
473.198
769.112
-3.37952
61.0662
879.02
103.671
-45.2697
1035.61
77.2431
-99.8888
1133.1
100.518
-105.835
1171.18
53.9137
-20.7942
1200.4
72.721
-6.35052
1202.38
48.864
35.2467
1205.04
51.1564
23.4545
1192.37
26.8638
27.9562
1178.9
21.0533
11.111
1157.08
-10.3865
9.29439
1139.45
-30.1509
-2.50686
1135.48
-62.5488
-6.15741
1139.18
-77.1463
-4.24507
1142.09
-82.4457
-1.88009
1138.3
-72.9556
3.25459
1104.36
-68.6823
21.0139
-49.899
7.7749
510.61
1215.78
2928.1
699.865
-548.509
462.502
1008.27
-221.394
-90.3882
1144.82
-42.4565
9.57886
1244.79
-1.92568
-20.8045
1296.71
93.1776
-44.5758
1307.66
57.2951
-14.3362
1321.87
81.23
-22.7164
1317.85
54.2828
-1.40171
1320.09
55.8357
-6.91901
1307.03
36.9808
2.94354
1294.31
34.6081
-0.83468
1265.49
13.6048
4.82641
1240.47
-0.45417
-4.67395
1227.41
-41.2934
-8.19911
1221.45
-63.911
-7.27027
1220.25
-74.9549
-6.2964
1213.6
-65.3485
-0.955677
1159.54
-35.7091
21.0869
-9.20835
7.23901
-81.6884
-1045.91
257.965
110.258
-724.511
-15.944
722.698
-428.815
-405.019
756.057
-120.739
44.9231
927.883
-169.536
-4.21456
996.725
13.0165
11.3189
1090.35
-77.713
41.3828
1145.76
20.2346
5.58449
1197.29
-7.86859
10.6254
1236.66
24.1284
-7.66814
1267.13
11.7975
-5.28405
1290.73
19.8029
-8.7998
1306.74
1.27408
-3.67048
1316.65
-12.9415
2.5682
1312.16
-52.6335
15.8329
1293.43
-61.4883
16.3046
1276.45
-62.6214
4.64684
1270.24
-49.578
-9.56074
1231.45
-3.81161
6.90032
28.8361
0.180284
1236.45
-1207.21
-2754.43
866.17
83.3044
-437.535
1189.28
-309.117
-442.809
1214.87
-79.6626
-66.6674
1220.67
-160.257
-15.0834
1204.47
44.0865
-14.8614
1168.34
1.48535
-14.1997
-15.8487
1.48521
-14.507
1167.06
1.57632
-16.4757
13.4348
5.83948
17.1368
1167.57
5.1237
-23.6052
0.66767
8.00716
1.43006
1185.63
3.16448
-24.1412
9.6297
5.49665
11.9176
1202.64
4.10593
-24.5348
4.32133
5.99157
4.90502
1212.34
5.19894
-15.9092
9.11505
4.62521
7.07388
1202.94
3.71824
10.2717
-0.422841
1.00303
-3.89996
1166.92
-5.93386
51.1515
-7.09452
-8.27303
-6.76931
1116.91
-55.2513
52.6324
1083.36
-54.8578
26.9135
1076.17
-48.384
-7.04577
1093.46
-37.6282
-29.2372
1127.08
-4.61731
-32.817
33.4125
-24.1994
-1337.47
-481.332
333.489
-112.701
95.0184
-1236.49
542.606
-374.638
-589.785
713.213
-144.261
-106.009
845.612
-205.984
-86.6729
219.514
11.0478
-61.6114
217.977
218.901
211.176
34.8053
4.01483
33.8745
216.754
5.91845
-1.67278
-219.079
228.416
-3.20249
-4.55843
-246.168
249.576
7.70837
-5.99271
-257.963
261.29
5.04948
-5.21159
-273.293
274.044
7.13145
-3.77676
-280.605
278.123
8.30669
-0.625884
-281.536
271.853
9.4685
3.93264
-263.694
248.754
-1.46848
10.4748
916.393
-14.2722
16.0367
-242.128
-235.28
-235.639
-222.111
-13.0106
-13.2661
-11.974
912.012
-46.6065
-3.87011
925.39
-41.299
-20.4633
957.422
-33.4184
-36.2416
1008.95
-8.02849
-48.1144
30.5644
-31.3994
-851.518
-2209.85
-34.6317
433.005
-730.044
-459.46
726.702
-343.064
-325.271
850.548
-77.7943
-190.313
201.834
21.8412
-182.026
184.603
213.231
205.08
228.164
10.1353
-25.4177
-3.50957
-63.229
63.0054
6.30854
-2.57536
-57.7646
2.01853
56.3161
0.203694
-0.773756
-58.6391
-0.139979
58.885
0.685568
-0.791456
-61.2198
-1.20076
61.1545
1.99066
-0.724657
-64.4306
-1.07537
64.3857
1.53609
-0.415822
-67.1346
-1.6478
66.9039
1.95705
-0.0785682
-68.1709
-1.94452
66.8069
2.72111
0.587424
-62.3466
-1.13168
59.3023
2.13634
2.03964
-55.6537
213.477
-13.8454
2.74909
-53.1272
-55.0948
-52.7769
873.632
-71.7446
-2.4386
-216.365
-211.102
-211.999
-206.589
895.423
-52.0405
-11.0504
912.484
-33.6071
-16.8714
925.855
-0.505092
-20.8948
36.8387
-16.5364
852.334
-1902.63
2353.61
797.986
-872.231
196.534
608.864
-131.313
-22.6298
581.917
-54.9007
4.05333
133.058
127.95
-62.8742
133.859
136.316
135.449
-21.67
145.03
18.9409
-9.2423
-8.7457
-39.9424
43.0165
6.04428
-0.372749
-4.73731
-49.2817
49.7465
4.90016
-0.627645
-1.97822
-49.2041
49.2378
2.21049
-0.265974
-0.905499
-49.2669
49.1944
0.875041
0.102883
-1.3306
-48.7616
48.4713
1.37932
0.241595
-1.35041
-47.6944
47.5973
1.31717
0.130249
-1.37168
-48.802
49.4564
0.652236
0.0649926
1.3273
-51.4994
52.1213
-1.70786
-0.241301
-53.7344
18.0837
222.268
-23.3252
0.908318
-55.4694
-53.5307
-55.2003
939.412
-89.7312
16.4567
-226.901
-249.708
-221.222
-240.05
938.204
-59.8937
9.06037
941.654
-38.579
1.52258
944.325
-1.811
-1.36507
36.3864
-3.90184
785.564
-763.175
1335.92
147.263
-682.033
448.102
431.644
-583.576
167.882
283.096
-252.289
345.937
121.027
-156.822
92.2475
122.7
115.369
116.524
-8.45682
144.202
-7.56704
-7.15055
-5.44354
-40.4605
43.0409
3.30509
-0.441947
-5.53792
-47.8987
48.3803
5.84457
-0.788288
-3.63012
-48.2761
48.1734
4.66338
-0.930482
1.59577
-50.4833
51.4013
-2.08577
-0.427994
1.64638
-53.787
54.6733
-2.55929
0.0265318
0.360229
-57.9823
59.0119
-1.02322
-0.366607
-0.697207
-60.7583
60.6716
0.823785
-0.0399148
1.5167
-61.5428
62.5576
-1.46366
-1.06793
-68.4237
30.6009
276.79
-37.7019
2.73051
-69.714
-66.648
-67.6335
1031.3
-83.5404
17.7725
-272.674
-269.373
-258.865
-254.354
999.61
-50.5182
22.3173
986.668
-38.9262
13.2894
991.888
-16.6152
9.58436
18.9654
6.59965
1594.4
-595.737
-2045.41
1119.93
-849.888
642.325
857.24
-907.744
586.854
755.489
-416.883
266.345
159.906
-308.412
204.056
189.776
163.356
189.985
22.777
182.785
-47.8725
2.21585
4.60131
-51.7354
55.6476
-9.90168
1.38811
-5.83868
-56.7829
55.9097
5.66117
1.05072
-5.55545
-55.658
56.9427
5.29363
-1.02292
1.30143
-60.2997
60.7276
-1.13688
-0.592414
3.05422
-61.0888
61.8866
-2.97654
-0.875518
3.83776
-65.1511
66.0094
-4.98337
0.287222
2.13732
-67.9595
69.4464
-4.56175
0.937467
6.61792
-73.3572
74.0753
-7.65952
0.323455
-69.0093
36.5399
254.384
-30.5334
3.21329
-65.1252
-66.3844
-63.0853
958.533
-91.2648
-7.74184
-245.055
-233.826
-236.599
-227.587
961.435
-53.6831
0.262698
962.304
-43.748
3.95372
969.406
-25.7295
2.01201
3.22575
3.61753
1337.16
668.733
-1741.24
1678.44
-451.806
-739.362
1299.74
-648.196
119.153
1174.12
-399.304
108.042
975.061
-318.757
209.405
214.576
-311.962
41.8507
69.5644
114.548
78.0533
118.378
221.729
209.319
219.003
19.9709
206.924
-79.2486
8.60344
17.7459
21.3308
19.25
2.41234
-194.995
202.266
-15.1098
5.03038
-1.28317
2.46516
-0.786018
2.31792
-216.868
234.906
-32.4979
6.0841
1.26039
2.9488
1.84788
1.96929
-229.076
227.476
-8.52998
3.63397
0.886003
2.30336
1.33808
4.28062
-225.617
229.48
-27.6788
5.64713
4.13326
4.82269
4.93184
5.55171
-220.933
219.386
-26.0647
4.16436
5.92175
5.78595
6.18768
6.48059
-218.106
221.922
-33.4545
2.54411
6.88931
6.63936
7.08597
6.56317
-219.346
222.001
-32.4435
1.32143
7.65051
6.62253
7.63132
887.097
-109.625
-4.22048
23.2179
27.9055
21.4559
24.1093
-220.403
-222.343
-212.452
-214.742
896.744
-97.5427
-3.36847
904.488
-60.3887
-1.03819
904.407
-42.8988
-0.767836
903.925
-18.6681
-6.57943
5.47659
-7.7824
1221.75
1645.13
-1569.26
993.347
-217.339
-6.06559
1148.24
-607.37
-195.724
1260.64
-430.686
-81.0085
1227.68
-310.569
24.7633
1124.8
-177.391
-31.6905
1027.98
20.3909
-29.1322
54.1083
4.70656
46.8704
-0.115756
957.007
-45.5579
-17.1925
21.6224
40.7325
24.4524
46.9116
917.587
-18.9885
-27.5575
34.9164
7.97984
34.6689
8.40149
912.147
-97.074
-1.49485
15.6574
31.092
20.6509
36.6078
917.204
-119.501
4.51291
29.5442
23.8633
31.5745
24.9497
921.843
-159.071
16.8807
27.9682
39.7524
29.7519
40.0792
915.654
-126.198
7.33405
31.416
32.5427
30.4926
30.6014
909.057
-125.328
7.71983
28.4489
34.8531
27.212
33.6911
894.698
-100.832
5.56599
880.411
-86.2768
3.02114
873.46
-54.5272
1.08965
865.874
-35.9405
0.627315
862.312
-12.4358
-2.66978
6.9151
-3.89959
2437.98
527.044
1665.51
2293.79
-663.689
590.542
1824.67
-582.066
443.82
1552.29
-419.515
261.21
1274.96
-209.246
175.999
1168.82
-68.2801
-2.96518
1162.41
41.5791
-14.777
1139.3
30.0208
-52.4724
1133.34
23.8991
-36.9234
1099.7
-41.1806
-22.2593
1032.9
-68.9153
16.2142
962.507
-116.6
27.9239
900.215
-80.691
16.785
852.551
-90.7342
13.0704
826.233
-76.9686
2.45463
813.409
-73.8266
0.37316
813.503
-52.6613
-1.95903
816.5
-37.9827
-0.955171
822.655
-17.8395
-0.751376
1.90431
-1.09225
4451.94
1103.46
-1653.67
4151.02
213.532
-576.303
3297.78
236.928
34.2403
2503.28
102.438
272.551
1816.18
149.573
328.28
1541.42
90.7655
115.714
1477.46
90.7822
14.7585
1467.85
52.0053
-12.3727
1452.83
36.2975
2.61663
1411.8
-16.5721
16.421
1294.06
-5.89944
54.7295
1165.89
-35.6277
47.1924
1056.1
-13.1156
42.2138
977.445
-33.4946
21.4195
920.905
-36.8783
16.4491
879.98
-46.2952
13.3939
862.663
-40.1699
4.82615
852.377
-30.0513
2.35393
848.707
-15.1522
0.983415
1.06307
-0.137775
885.335
813.745
-743.986
1587.82
357.442
-846.399
1568.03
559.99
-303.265
1510.59
227.789
-67.9144
1422.81
124.398
112.958
1432.44
20.2362
60.8908
1443.4
12.0518
67.7719
1434.97
2.4071
58.0274
1364.49
30.442
76.3344
1262.52
16.8431
68.5554
1151.85
25.2827
79.493
1072.7
6.92601
36.5962
1030.56
8.82852
20.1993
991.826
-1.39222
6.62793
946.917
-3.27387
11.3043
902.25
-9.37034
7.74239
870.934
-12.4302
3.57694
850.866
-8.87052
-1.11351
841.134
-1.9092
-3.5105
6.44581
-3.30554
1072.39
1381.15
4457.14
988.406
463.067
-21.6402
1152.94
313.693
81.7584
1307.34
31.8951
41.5027
1369.86
-154.178
216.056
1402.25
-205.426
193.266
1352.65
-141.545
203.196
1267.72
-52.5213
139.862
1158.2
42.1964
97.7689
1080.88
42.7381
51.4266
1048.16
32.9269
25.0689
1034.04
15.2089
5.84331
1025.75
15.1647
1.95079
1011.66
15.2571
-2.56284
988.713
20.0135
-0.337546
962.934
19.1507
-2.74143
934.943
19.0458
-3.4859
913.518
18.5285
-5.97379
901.09
18.2595
-7.7409
19.1994
-8.43196
1956.54
775.822
-5284.68
1475.88
705.101
238.62
1521.54
310.325
-42.2873
1602.26
30.2542
-79.0823
1574.86
-160.739
33.9577
1542.55
-210.887
37.7781
1409.6
-167.392
158.796
1252.1
-27.8982
132.876
1108.84
67.1462
118.305
1023.69
75.2589
52.6372
1002.87
27.445
26.2944
1006.47
-5.07437
16.6869
1012.84
3.92375
4.87145
1011.66
22.6601
-6.21943
1004.77
41.1104
-14.2062
995.941
49.7155
-21.7405
987.264
56.1576
-28.4342
981.207
57.3709
-32.7854
975.468
58.2188
-34.2207
53.0057
-32.1863
1132.54
3112.31
1160.91
676.726
1240.34
230.897
1440.35
-169.758
1582.27
-302.658
1733.67
-362.289
1859.92
-293.638
2012.85
-180.829
2090.22
-10.2228
2065.67
99.8106
1868.62
224.496
1611.04
252.502
1427.31
187.651
1321.33
128.643
1263.37
99.0692
1226.71
86.3729
1211.89
70.9847
1207.18
62.0826
1217.7
47.6925
39.1518
783.86
-1285.37
-46.3569
1189.33
-349.87
-159.865
1407.2
102.35
-196.261
1396.16
165.04
-268.535
1242.05
212.282
-322.709
1157.24
75.9692
-293.553
1045.57
63.8133
-113.278
985.584
58.5265
-58.4975
949.701
65.5991
77.8826
931.87
44.4818
26.8263
922.888
10.6049
-11.2456
931.023
-5.78833
-24.2639
948.475
-25.1283
-17.373
973.716
-32.6978
-8.54728
1002.67
-39.4221
3.60881
1031.14
-37.9626
2.90224
1066.76
-47.088
5.94693
1100.35
-47.1861
6.80397
1144.03
-59.6791
12.9983
-55.2654
18.1729
-629.012
-188.544
741.316
43.0887
-109.387
-1598.68
526.41
-46.5868
-785.636
617.044
38.5329
-70.8272
805.096
17.8182
-0.792091
833.486
48.7085
20.9166
866.349
23.2825
99.708
875.756
58.7343
52.2511
891.712
48.5373
86.4944
900.498
40.2163
26.9848
905.471
3.11575
17.8051
913.629
-14.1955
1.94891
926.828
-41.6067
8.92267
943.083
-48.0891
10.5631
960.466
-55.8663
18.4187
979.026
-53.7514
24.9368
992.22
-56.753
29.8386
1000.69
-52.8765
36.24
1011.46
-67.3781
38.4023
-58.8978
29.1705
779.603
73.7744
-2503.38
1105.17
-148.104
-1323.95
1296.25
18.9986
-961.883
1345.83
62.9223
-217.766
1244.94
135.455
58.2609
1172.58
129.03
88.4937
1080.48
98.6105
143.753
1036.46
103.078
78.3778
1005.83
71.3689
76.4692
992.911
55.1467
32.4364
977.24
16.3925
31.3618
965.843
-0.942974
9.90408
960.381
-35.5335
18.2241
959.659
-46.397
12.6256
960.28
-57.4933
11.1973
961.639
-55.2711
10.3581
958.704
-54.4551
10.7773
952.126
-46.4311
11.9242
939.374
-53.8203
21.5885
-44.3747
3.62083
-660.668
69.2938
3820.35
77.3194
-481.684
68.7904
629.597
-338.354
-133.859
773.629
-28.3068
-98.0724
889.253
17.8595
-97.9166
945.095
91.2817
-123.929
971.838
58.1741
-7.10074
999.281
82.9533
-13.6684
1007.55
57.6604
40.6841
1008.49
56.4088
21.2558
994.464
28.3347
30.0374
977.262
18.3548
9.01584
958.963
-16.2532
8.31313
945.909
-32.5352
-3.31463
941.534
-55.2352
-4.04105
942.361
-57.4193
-2.9231
939.921
-53.7678
-0.12768
932.761
-40.7511
4.73452
912.059
-34.8009
22.6966
-21.8526
2.83732
413.924
569.953
2330.43
691.641
-492.923
196.024
865.407
-378.031
-224.478
992.723
-135.587
-10.4571
1076.65
-55.1033
-31.7642
1100.51
73.6969
-50.8569
1097.04
49.7657
-2.45744
1091.72
89.138
-23.5798
1074.66
64.8245
8.49804
1062.03
67.8769
-5.76184
1041.48
44.0754
7.75528
1025.88
34.4771
-1.35462
1006.8
3.3893
4.2642
994.086
-21.6416
-2.85817
989.122
-54.1421
-4.3278
987.156
-58.4048
-4.31894
980.589
-50.1318
-3.36536
966.158
-27.5515
0.276067
928.22
2.13189
22.0919
11.8497
4.37558
-546
-251.644
2110.93
217.515
-600.242
-672.14
632.389
-597.165
-600.759
704.679
-216.659
53.7045
802.484
-168.824
11.7017
845.041
50.629
-8.17121
920.709
-21.8281
37.309
950.479
73.3653
-8.41252
982.135
34.6774
9.1161
997.652
56.4933
-11.8013
1009.12
31.4726
-4.1473
1018.38
24.318
-7.90141
1025.58
-7.64755
0.1689
1030.12
-31.8502
8.22907
1029.95
-56.1665
18.0277
1027
-54.806
15.6605
1015.56
-37.0938
3.04896
998.324
-8.61636
-11.2611
966.115
31.9493
9.2923
41.7171
-2.5856
453.263
-942.837
-2056.12
766.477
-497.963
-853.027
1162.21
-597.143
-838.567
1210.82
-190.975
-140.959
1119.65
-97.7215
4.98646
1041.92
129.767
-16.273
981.734
16.0991
2.45349
-5.18575
15.9939
-5.20208
964.377
16.8021
-14.1715
25.8144
18.6605
27.1419
954.396
14.0688
-18.6027
5.87597
14.2672
5.44364
957.066
9.98565
-21.9235
15.7005
10.1061
15.814
959.187
7.96382
-21.2992
6.08129
7.47375
4.59663
961.802
3.8234
-9.80053
5.45424
2.59857
3.71858
963.403
-2.00607
20.8506
-6.78782
-3.34569
-7.68862
959.186
-10.0157
57.464
-7.42867
-9.68122
-6.81999
947.349
-42.0941
50.3978
934.647
-39.2616
24.0712
927.244
-24.2182
-12.5185
927.004
-4.9592
-32.6545
928.828
28.1955
-30.8872
44.0814
-25.4463
314.055
-978.418
812.101
559.225
-833.378
-1146.24
532.846
-649.7
-510.849
662.027
-260.412
-165.753
728.378
-139.874
-110.871
188.736
21.0037
-70.0444
183.579
178.76
173.608
47.108
24.6132
49.1706
2.01572
186.866
21.9793
-6.02631
8.22066
-186.308
195.129
8.53127
-8.77109
10.2037
-208.93
208.782
14.119
-10.1066
9.32173
-213.944
215.616
8.27955
-9.28741
6.35903
-225.43
223.966
9.18686
-6.11783
0.596818
-228.899
226.254
5.15604
0.716018
-7.49455
-230.409
224.592
1.72842
9.57653
-16.0714
-223.763
219.241
-5.80152
16.3791
825.338
-10.918
17.4952
-218.369
-205.589
-207.465
-196.653
-10.3049
-10.3065
-9.28616
823.446
-33.288
-7.95132
830.626
-27.5095
-24.3519
843.23
-14.2935
-39.5115
858.416
10.7532
-45.8581
33.9724
-31.2098
576.672
-1993.02
1860.07
1107.87
-1107.77
-716.263
888.865
-609.508
-146.463
850.036
-245.672
-166.224
189.656
-20.3901
-176.719
181.669
181.334
172.585
35.6534
210.368
2.37042
-37.7321
6.61413
-6.75405
-55.6239
54.1562
8.3125
-6.70489
2.11498
-48.2511
-0.49883
47.2208
1.46091
-2.04677
2.01943
-48.7617
-1.30729
48.6793
1.39865
-2.02833
1.64442
-50.1972
-0.874033
49.8713
1.2174
-1.66188
0.903806
-51.8988
-0.929973
51.541
1.23353
-0.849613
-0.118143
-52.8437
-0.584005
52.2759
0.979243
0.290623
-2.33336
-52.4797
-0.136587
51.4181
0.85202
2.67961
-4.38727
-50.913
0.85399
50.136
0.022727
4.2875
-50.7132
-3.20437
197.313
-10.37
3.91728
-49.4211
-49.7629
-48.6766
796.505
-55.2362
3.36195
-200.073
-196.349
-193.822
-190.114
806.366
-37.493
-10.927
812.979
-21.1224
-16.6559
816.778
6.45082
-20.392
31.3711
-17.4744
503.954
-2053.54
1120.19
651.08
-784.472
-273.888
528.796
-258.711
-251.141
475.161
-122.396
-65.5882
116.13
65.5112
-120.564
113.931
110.176
106.713
25.4358
-6.98074
128.297
6.1426
-36.7648
3.88244
-8.38637
-36.5969
40.0245
5.82262
-4.74631
0.724214
-3.88211
-44.3228
44.5379
3.66951
-0.726795
0.540735
-0.767302
-43.8294
43.7772
0.839533
-0.560721
-0.282991
-0.030926
-44.1024
44.2322
-0.0799874
0.264153
-0.486355
-0.0966742
-44.4826
44.5423
0.041944
0.481441
-0.255291
-0.0208728
-44.8691
45.1095
-0.123843
0.159639
0.0568025
0.353973
-46.199
46.7249
-0.781661
-0.154987
0.272415
1.96438
-48.6208
49.1628
-2.52472
-0.25407
-50.8572
-3.75475
14.9789
207.237
-19.6257
5.4034
-52.0795
-50.0986
-51.2032
842.43
-62.1633
24.4851
-208.878
-222.658
-201.228
-210.768
842.017
-39.3474
11.3275
841.178
-22.7415
3.98126
838.953
7.31862
-0.00786129
31.5003
-5.01353
295.827
-785.949
-1618.39
-210.224
-350.778
520.46
-47.8448
-431.353
178.144
-11.0112
-159.44
346.146
89.0635
-171.67
-20.6626
90.5276
79.5428
79.9465
4.14695
5.13019
106.19
-23.984
-2.41924
0.252632
-2.03982
-33.7731
37.2446
-1.27767
-0.406722
1.27169
-2.2642
-41.8743
42.5208
1.5335
-1.18743
1.88533
-0.586615
-43.2536
43.4369
0.406287
-1.88823
0.730369
1.58524
-44.6176
45.137
-2.21086
-0.624092
-0.216259
1.69039
-47.1188
48.0336
-2.45098
0.0620422
0.974756
1.36268
-51.046
51.9652
-1.98409
-1.27255
1.01115
2.2051
-54.3737
55.1823
-2.80973
-1.2152
1.76088
4.66872
-57.6453
58.4559
-5.52919
-1.71101
-60.3683
-4.57205
23.597
240.405
-25.8712
5.41107
-60.5595
-58.9907
-59.0516
892.069
-55.8924
28.8791
-235.895
-231.966
-222.118
-219.467
883.742
-31.6679
22.9647
882.82
-22.2105
13.6801
886.908
3.70525
9.11004
26.4605
5.41849
-713.781
-435.475
-2712.54
-194.463
-573.624
345.852
334.845
-715.044
341.237
347.298
-209.986
304.438
124.514
-301.332
154.341
149.375
113.909
138.876
-9.73708
47.6783
149.338
-74.4986
11.7338
-5.73848
13.689
-44.7151
49.2829
-18.7789
6.26066
-4.09897
0.309424
-52.2717
52.0862
-0.677272
4.65231
1.1102
0.929651
-52.2586
52.7511
-1.84693
-0.685474
0.564878
3.32406
-52.953
52.947
-3.60781
-0.275108
0.42335
4.68001
-53.1079
53.556
-5.45061
-0.100811
-1.00159
4.67053
-55.0194
55.701
-5.49376
1.14314
-1.59307
5.47995
-57.8274
58.5967
-6.29075
1.63453
-1.13069
7.48031
-59.5252
59.4434
-7.49825
1.23037
-57.9499
-2.85976
24.9188
225.258
-23.6595
1.65798
-56.2087
-56.3511
-54.8062
848.686
-69.3386
0.313437
-219.651
-211.214
-209.453
-202.977
851.549
-35.8443
1.57636
857.224
-28.4134
4.48144
867.193
-5.04629
0.794766
16.6264
1.92382
1083.09
954.97
143.941
754.106
-397.472
-586.534
629.799
-585.669
114.084
681.198
-279.065
125.722
744.349
-332.461
177.383
163.496
-348.87
28.7536
91.5112
130.68
97.7513
135.591
173.307
151.869
162.11
21.2894
-17.2268
160.021
-69.095
14.876
16.4789
21.189
15.9638
4.31164
-11.1178
-145.529
155.422
-26.5621
13.7362
2.19979
4.69883
2.84054
5.9746
-10.7355
-173.724
189.095
-39.6696
13.0924
4.45839
6.49546
5.01394
4.37515
-8.28493
-181.221
183.74
-23.2119
11.6411
3.87446
4.75662
4.3304
6.61242
-8.05515
-187.87
194.7
-35.0413
9.05374
6.80828
6.83414
6.95775
6.3296
-6.06266
-190.019
193.106
-30.1176
6.65063
6.84685
6.37168
6.89445
6.70064
-3.7406
-194.836
199.337
-32.461
3.9673
7.18009
6.68935
7.1629
6.24968
-1.84671
-196.172
198.959
-28.8683
1.46914
7.04806
6.20146
6.96023
786.531
-92.8874
-1.53913
19.0826
19.5276
17.9912
18.456
-197.061
-196.334
-189.606
-188.382
793.712
-77.7541
-2.13402
800.661
-43.2573
-0.573776
804.5
-31.2669
-1.7533
810.324
-8.657
-8.79322
10.7197
-9.49534
891.686
608.195
-2279.43
942.85
-57.027
-397.674
902.404
-501.174
-239.774
1005.49
-366.928
-96.2271
972.358
-310.607
36.0365
856.161
-226.904
-37.4597
789.431
-31.768
-15.7902
45.8231
-0.484343
41.7412
-1.92396
739.145
-161.131
-10.1805
34.4936
62.5502
41.0638
66.2973
730.044
-99.8233
-20.5517
38.9992
11.9354
38.4458
12.5386
736.018
-168.497
8.73283
28.1179
45.1975
31.0213
47.9585
750.452
-140.801
8.92326
34.1067
26.6479
34.6288
26.5738
759.788
-158.572
21.5526
31.1634
40.9259
31.4714
41.0033
764.435
-122.795
10.3407
29.527
28.8368
28.977
27.8005
768.469
-119.396
10.2931
25.6719
31.2287
25.0418
30.8473
766.539
-92.4644
7.07223
763.717
-75.5084
3.59801
766.667
-45.524
0.405699
767.957
-31.3194
-0.609514
771.72
-10.1542
-4.93597
6.35777
-5.02246
1514.23
208.749
2934.16
1458.63
-34.7551
623.877
1231.16
-305.612
475.726
1138.54
-272.004
258.902
991.072
-194.818
207.681
913.471
-157.96
5.69148
925.58
-51
-7.65381
885.584
-116.967
-56.6399
875.239
-100.608
-25.7928
845.158
-147.786
-12.8887
820.308
-124.508
24.7709
792.799
-133.769
30.6291
767.382
-101.138
20.5449
746.833
-101.019
15.2418
734.437
-81.2039
3.5901
729.659
-71.628
1.27092
732.977
-49.3889
-1.41167
737.402
-35.5005
-1.19963
744.379
-16.2997
-1.58292
0.879883
-1.78867
3604.27
899.284
-286.499
2815.01
180.601
-2.39269
2001.95
153.951
387.74
1646.02
38.1612
318.308
1385.51
57.5843
336.387
1237.48
-10.6862
116.469
1170.41
-5.89277
36.7269
1127.93
-80.6955
-6.16913
1082.86
-67.3889
14.4654
1028.87
-99.9073
22.5336
967.244
-66.1654
58.0159
909.522
-78.6024
49.749
860.337
-55.808
46.0689
822.662
-66.0771
24.1533
795.967
-56.4559
18.3956
778.203
-53.8152
13.3452
769.709
-41.1426
5.0737
764.106
-29.6855
2.1425
763.292
-15.3597
0.856567
-0.685874
-0.792587
1389.65
1231.5
-3369.97
1489.31
263.311
-1028.77
1211.83
322.675
-194.505
1150.15
42.7733
-10.8457
1113.51
33.0689
174.11
1123.59
-41.8882
82.0194
1121.3
-36.6281
100.796
1087.94
-58.3599
69.0514
1032.14
-24.2748
89.0215
965.614
-32.538
67.708
920.178
-17.625
76.3886
883.228
-39.2072
34.1509
858.861
-33.5442
22.3028
835.066
-41.2626
5.6085
813.968
-33.6527
9.59896
795.717
-32.7705
4.94918
781.935
-24.4638
0.679838
771.802
-17.2084
-3.4576
766.438
-8.35193
-5.15462
1.55208
-5.14751
108.162
1266.09
2845.85
537.659
400.652
-588.477
949.924
110.105
-117.937
1090.17
-102.787
46.8213
1180.09
-155.688
314.893
1201.03
-113.487
243.919
1148.54
-32.4274
251.481
1060.98
13.4587
155.604
980.938
40.6405
112.899
924.352
22.7091
52.7651
902.129
3.60781
26.06
893.423
-28.2501
3.592
890.2
-28.6944
0.324063
881.505
-26.764
-8.36623
871.101
-16.3895
-7.19639
859.405
-12.9425
-10.8736
847.334
-5.44047
-10.4381
837.336
-1.3871
-11.7966
829.393
2.85268
-11.0027
7.67368
-12.0271
-320.145
432.299
-3469.71
251.865
260.834
-193.573
1145.74
172.796
-998.855
1214.78
70.4564
-321.361
1229.51
-35.0899
-101.376
1180.2
-19.8389
-6.55188
1114.48
43.196
148.888
1045.07
117.743
98.0071
988.692
128.212
87.1079
950.524
96.2152
17.2995
947.519
11.5808
21.3257
954.812
-30.3785
11.523
960.07
-25.8332
-3.24881
958.403
-5.63366
-25.6824
955.494
6.89404
-34.5802
951.726
12.0504
-42.9652
947.63
18.1447
-47.9235
944.088
20.4473
-51.0775
938.297
24.4854
-50.0627
23.591
-45.9067
117.904
3294
707.208
348.255
1223.72
-112.822
1405.52
-281.095
1436.16
-368.391
1446.23
-392.2
1457.1
-261.309
1519.28
-125.262
1609.49
27.7802
1666.71
138.802
1614.27
288.52
1512.3
324.088
1405.59
268.53
1332.39
196.207
1294.75
143.603
1272.68
120.497
1262.45
99.3545
1260.18
84.8012
1271.85
60.5067
49.1204
1073.11
-2326.93
521.804
1472.72
-639.056
79.5852
1703.63
-89.6094
-337.565
1599.49
106.966
-271.358
1210.98
213.604
-147.807
988.725
82.067
-153.362
845.102
54.1997
-23.8544
798.429
33.0398
-44.8641
801.407
21.6556
53.2491
809.204
11.2559
7.77307
817.212
-18.0904
-1.16347
829.057
-24.6002
-11.5084
848.625
-36.4415
-0.499632
872.753
-35.6393
2.96378
900.89
-38.1522
13.6245
929.789
-35.5364
9.53988
965.059
-42.4392
13.1157
997.656
-41.1584
15.3659
1043.01
-52.6658
20.3082
-44.2062
24.5967
534.822
-519.724
-68.0828
342.766
-157.763
-1887.91
516.101
-19.1158
-1029.46
552.957
86.4879
-87.2062
693.298
65.6866
6.7847
692.736
74.5774
28.9676
733.573
25.2464
87.8246
743.056
46.5499
29.2585
767.719
21.5797
61.9071
776.006
18.6289
11.3244
782.469
-18.5214
11.7734
786.477
-23.4543
-3.205
796.414
-43.1488
5.69305
807.958
-41.605
4.98407
821.981
-45.187
11.4305
835.612
-40.1775
15.9469
846.768
-42.9038
19.1471
857.63
-38.9824
23.2023
871.04
-51.0847
23.4107
-39.6395
15.5106
1820.11
-886.497
-3416.83
1618.2
-208.471
-1071.32
1307.09
145.784
-815.678
1196.06
149.358
-169.604
1051.2
194.11
74.7015
977.104
168.187
68.9759
910.318
115.322
120.462
878.396
106.035
50.8158
855.593
61.1056
59.7463
841.634
45.8416
19.1821
825.952
6.73714
21.7853
813.698
-4.77241
3.47598
808.442
-31.0985
11.4302
807.422
-35.0066
7.04759
807.88
-42.5639
8.11604
808.263
-37.4358
7.23287
805.445
-37.1921
7.88355
801.396
-30.9387
7.92946
796.538
-37.6025
12.9649
-27.4964
-3.76661
1441
-168.158
1.6935
535.935
-301.27
1066.65
651.089
-198.61
95.3807
652.685
41.793
7.89598
724.02
47.5662
-22.7074
750.012
106.595
-88.3292
782.712
63.3156
12.2059
806.136
87.5141
-18.5725
820.864
54.6587
32.4032
823.702
53.9164
10.3429
817.591
21.116
21.7697
806.47
11.2689
4.09522
797.902
-20.1848
5.96708
792.263
-29.4386
-3.24338
790.246
-43.1898
-1.39833
789.9
-39.4784
-0.534508
784.961
-33.341
0.960287
776.873
-21.9734
3.85762
764.87
-18.5687
15.6659
-9.10694
-4.33587
1113.86
1373.54
689.718
935.821
167.572
-94.778
815.855
-204.492
-98.6286
878.775
-63.8442
32.2597
915.629
-20.3954
-0.655686
910.526
90.7781
-29.9377
903.573
52.3517
15.4591
890.982
94.519
-17.9936
875.838
63.3447
14.9566
861.835
66.0758
-3.91856
845.725
36.9629
8.01834
833.709
23.8924
-1.96234
824.821
-10.2802
3.2485
821.145
-28.6176
-0.00385969
820.053
-46.337
-0.0879327
819.032
-42.1819
-0.595009
808.441
-26.0806
-0.0342454
790.678
-4.34257
0.408015
767.049
11.5326
15.6195
15.716
-1.55782
1808.06
656.759
1707.21
1237.92
-18.3912
83.9708
680.812
-313.425
65.2795
629.111
-109.513
151.074
661.465
-109
67.9532
679.423
78.9659
-14.3168
753.142
-14.9833
30.9251
769.093
89.4623
-19.3066
796.999
36.6502
7.90402
806.244
57.0995
-12.0697
816.353
22.1761
0.530537
823.481
13.0435
-4.18001
831.976
-22.2907
3.68482
837.763
-34.9304
8.75497
840.725
-45.1935
13.9215
841.969
-38.2271
10.4623
830.933
-13.8818
1.88596
811.288
10.568
-6.52669
787.632
37.3223
7.159
38.1267
-5.67695
1579.3
-1213.95
-1322.73
1268.81
-527.626
-33.3
1047.27
-490.343
-440.111
1001.29
-150.267
-54.2256
915.559
-49.5211
31.2422
844.189
143.755
-9.69139
801.127
15.6253
17.072
-5.89793
12.5396
-8.80697
784.499
21.1411
-7.57095
29.0934
20.5781
28.6769
778.073
13.403
-7.5841
4.56202
11.4202
2.67314
776.652
9.88048
-12.7224
15.6914
8.75368
14.9936
778.249
5.64969
-10.5091
1.5874
4.02365
-1.4721
781.357
0.630607
-0.424062
1.03913
-0.733011
-0.376685
787.813
-5.00423
20.6284
-8.79818
-5.67754
-9.04546
795.765
-8.76176
43.1409
-6.20605
-8.24847
-5.34227
798.147
-30.5471
33.3689
796.071
-24.5276
12.4484
790.009
-9.42952
-10.909
782.123
8.69124
-22.8914
775.603
33.9589
-21.0042
39.899
-20.5098
1455.86
-1096.29
132.514
819.002
-730.79
-306.217
589.397
-610.655
-160.931
613.385
-260.532
-79.4759
618.904
-119.06
-46.852
153.651
29.628
-55.1252
149.35
142.446
138.371
51.8451
31.3109
51.1382
5.59929
151.464
21.0453
-8.83206
9.11706
-149.93
159.039
10.8957
-7.98051
9.39573
-171.904
170.715
13.1387
-7.94237
8.63402
-174.769
175.878
7.13307
-6.99643
4.90749
-184.747
182.394
6.76379
-3.66826
-2.40972
-186.32
184.587
1.43846
3.33463
-10.6745
-189.656
186.946
-1.50283
9.88258
-15.099
-189.99
188.672
-5.22762
12.8826
727.629
-8.5681
15.6087
-190.333
-181.348
-180.035
-172.264
-8.37266
-8.00695
-7.36222
725.499
-23.5389
-6.81061
727.751
-17.6685
-18.3648
730.566
-5.52918
-28.1055
733.602
15.7917
-30.7266
29.946
-22.4548
460.396
-1366.97
1307.28
928.942
-711.259
-1204.34
824.496
-535.273
-117.399
774.567
-250.33
-126.496
163.403
-33.9277
-102.659
155.984
151.727
144.26
34.0277
176.511
10.5926
-28.1009
4.7357
-6.74944
-45.4637
43.529
8.44363
-4.49516
1.63207
-38.4173
-0.352422
37.7497
0.807022
-1.419
1.72778
-39.8027
-1.0587
39.7278
0.984105
-1.57833
1.38301
-40.9525
-0.263436
40.6106
0.470846
-1.24846
0.456378
-42.4101
-0.327559
42.0894
0.555721
-0.36384
-0.83351
-43.0193
0.418107
42.5371
0.0219482
0.875666
-2.96549
-43.4927
0.842743
43.0446
-0.197067
2.76798
-3.45199
-44.2862
1.27709
44.0515
-0.693764
3.10336
-45.4683
-3.92655
177.74
-8.38621
4.35388
-44.6557
-44.4884
-43.7368
707.15
-41.3896
10.7206
-179.932
-176.851
-171.754
-168.121
710.813
-26.5735
-5.68475
713.199
-13.8787
-10.6927
713.748
8.81706
-13.966
25.3214
-13.0493
806.505
-637.915
-2582.94
779.483
-504.996
-453.129
514.548
-230.914
-290.566
425.815
-136.042
-91.1421
96.4035
21.1654
-111.674
92.7179
88.1002
84.6093
39.3722
-6.82026
107.001
-2.93164
-40.2175
4.87081
-7.81863
-31.1509
34.206
4.71878
-4.82609
0.545216
-1.75146
-37.3044
37.5662
1.36747
-0.423046
0.484191
0.562617
-37.6195