/*--------------------------------*- C++ -*----------------------------------*\
  =========                 |
  \\      /  F ield         | OpenFOAM: The Open Source CFD Toolbox
   \\    /   O peration     | Website:  https://openfoam.org
    \\  /    A nd           | Version:  10
     \\/     M anipulation  |
\*---------------------------------------------------------------------------*/
FoamFile
{
    format      ascii;
    class       surfaceScalarField;
    location    "7.7";
    object      phi_0;
}
// * * * * * * * * * * * * * * * * * * * * * * * * * * * * * * * * * * * * * //

dimensions      [0 3 -1 0 0 0 0];

internalField   nonuniform List<scalar> 
38556
(
1398.95
207.155
-747.801
1572.55
-192.869
19.2717
1456.77
-57.1884
172.97
1473.24
94.5309
-111.001
1486.37
253.493
-266.629
1619.28
173.437
-306.345
1616.65
159.006
-156.375
1517.85
155.034
-56.232
1243.77
165.288
108.792
1070.32
121.744
51.7052
1011.4
69.6643
-10.7434
992.771
40.0692
-21.4444
997.506
19.9692
-24.704
1010.53
2.29543
-15.3207
1031
-13.8603
-6.60703
1053.99
-16.4833
-6.50821
1085.51
-25.8496
-5.66872
1118.44
-26.1928
-6.73635
1160.65
-39.3886
-2.82917
-37.4609
-0.520813
215.654
1795.51
665.949
288.859
249.129
-515.202
534.361
116.094
-418.784
641.345
78.9266
-91.3797
885.051
12.4521
-2.66448
992.669
46.2689
19.5491
1017.75
39.4382
94.4884
1011.72
99.9085
61.1539
983.118
110.198
83.6924
970.238
104.004
30.6203
962.784
59.8102
17.3082
970.325
28.1993
4.32845
982.026
1.0132
7.2551
1002.61
-29.5679
11.2837
1024.62
-55.1814
19.3065
1043.68
-63.1212
27.5785
1057.32
-72.7341
33.2456
1061.71
-69.8381
39.2573
1067.06
-86.772
42.0328
-82.9611
34.6006
362.31
1663.77
-1569.04
966.487
661.531
-1016.58
1459.12
293.426
-669.964
1530.92
131.19
-124.061
1365.79
97.0625
80.5195
1254.15
63.9845
93.9188
1122.37
47.37
123.848
1069.45
74.5111
78.3197
1039.98
70.7267
68.9385
1041.57
66.7109
35.7035
1039.74
33.0255
28.6203
1045.57
10.0084
12.3581
1051.05
-22.7218
18.256
1058.02
-50.448
13.9055
1065.2
-72.6018
10.2443
1069.6
-77.4608
9.93657
1068.1
-81.3091
10.078
1059.3
-73.4761
12.4388
1030.8
-81.6754
23.4036
-71.1995
6.28861
-88.4667
635.146
1728.42
276.019
-51.9169
348.962
626.033
-90.6876
34.0993
760.243
44.7218
-47.7414
928.755
33.4771
-104.927
1042.83
58.6247
-108.72
1086.11
26.0666
-21.9762
1118.93
46.5183
-4.82729
1122.76
31.4662
35.4379
1124.82
38.6919
25.9523
1111.64
17.7286
28.4786
1097.84
13.4706
10.3446
1075.94
-11.3129
10.4837
1055.88
-28.6464
-1.7358
1052.07
-62.7666
-6.03274
1056.37
-77.4545
-4.29813
1059.26
-82.4366
-1.7673
1054.57
-72.9736
4.18416
1019.47
-68.8082
22.2339
-49.5996
4.71399
111.414
577.153
2085.03
512.643
-806.876
353.73
897.369
-378.488
-96.9266
1057.74
-116.695
1.049
1156.45
-42.1642
-23.0678
1218.45
42.4781
-45.8527
1228.6
29.7429
-13.8322
1241.35
57.8785
-24.1051
1237.18
36.5086
-0.87504
1237.82
44.3509
-6.30323
1224.67
27.5557
3.32568
1210.84
27.954
-0.650135
1183.13
9.80264
6.59172
1157.96
-2.78344
-0.695863
1142.67
-38.9596
-8.51184
1137.11
-64.3989
-7.50238
1136.08
-75.1349
-6.26759
1128.93
-65.0511
-0.768934
1073.42
-35.3319
22.0321
-8.43954
3.8478
-97.2891
-1408.26
672.11
97.139
-922.513
-78.7913
681.065
-552.108
-410.306
705.209
-177.506
36.6668
869.667
-195.62
-11.0025
937.21
-27.7437
2.67896
1019.48
-84.231
31.7007
1073.72
1.81706
1.82484
1119.47
-15.2615
6.01829
1157.79
15.2199
-9.1907
1185.14
6.37024
-6.15846
1207.12
14.6025
-8.631
1222.47
-1.48304
-4.06238
1231.73
-13.7277
1.68188
1227.23
-50.3765
15.9158
1208.16
-61.4466
16.1235
1191.67
-62.7506
4.10155
1185.8
-49.5612
-9.62062
1145.55
-2.9369
7.85887
29.646
-2.27113
1295.12
-1585.29
-3539.66
918.277
-69.1519
-476.522
1185.05
-349.737
-469.141
1195.53
-129.699
-58.2928
1176.96
-147.68
-29.3642
1146.29
13.5478
-10.6289
1106.84
-8.86691
-7.02302
-10.9754
-8.57626
-9.3335
1093.38
-5.66472
-10.8797
14.8069
-1.38613
18.3947
1090.01
-1.71656
-19.3099
3.49774
1.25382
4.3903
1105.53
-2.54264
-22.3718
11.2806
-0.0803421
13.4065
1120.21
-1.40363
-22.3371
7.21402
0.550566
7.67027
1128.03
0.149715
-13.7822
11.0805
-0.376433
9.71066
1115.55
-1.55893
8.93879
5.63636
-4.23386
2.21923
1079.75
-11.6164
49.3355
-1.5472
-12.8877
-1.21581
1031.74
-53.8601
51.4925
999.27
-54.4822
25.5077
992.509
-48.0362
-7.95354
1009.75
-37.2094
-29.5953
1042.65
-3.61192
-32.2264
33.7064
-26.5566
-1071.16
-607.066
1361.28
39.7085
38.1715
-1218.19
585.913
-349.463
-546.479
703.986
-155.81
-91.9612
818.672
-180.858
-81.5081
211.743
-3.24027
-48.9657
202.153
211.656
195.909
36.2506
-9.12368
35.8379
201.622
1.91403
-0.660202
-205.395
210.979
-6.39758
-4.85091
-229.15
230.733
2.37048
-5.67017
-239.918
241.751
0.567205
-4.94195
-253.743
253.267
2.7444
-3.6727
-260.444
256.93
4.00288
-0.33986
-260.329
248.933
5.31327
4.52376
-243.139
225.267
-3.83569
10.0915
833.952
-16.3902
11.1836
-220.997
-214.787
-214.879
-201.96
-7.84304
-15.3469
-6.792
831.207
-46.2119
-5.52605
844.163
-40.2792
-20.7129
874.626
-32.5755
-35.0964
925.102
-6.81982
-47.2682
30.6358
-33.8025
-389.046
-1520.5
-418.309
616.132
-486.348
-480.658
783.505
-243.417
-273.419
846.38
-45.6983
-172.986
203.125
33.1653
-158.722
175.74
215.284
196.929
217.257
5.20276
-22.5755
0.146534
-61.3376
58.6073
4.38964
-1.80579
-54.0046
3.91723
51.9289
-1.16853
-0.672955
-54.6467
1.80458
54.2061
-0.583364
-0.780581
-56.9059
0.503989
56.3933
0.678404
-0.669783
-59.8439
0.443023
59.3794
0.441477
-0.419997
-62.3945
-0.211727
61.7386
0.930841
-0.0631363
-63.2108
-0.556488
61.4507
1.75678
0.559777
-57.1231
0.0723037
53.6355
1.32112
2.09422
-50.504
191.895
-13.9576
2.19206
-48.0784
-50.0702
-47.8669
795.045
-67.0103
-4.57892
-196.947
-191.893
-193.059
-187.768
814.714
-49.1083
-10.8405
829.681
-31.6209
-15.9217
842.762
-0.305982
-19.5941
37.2506
-18.9627
705.451
-1464.95
1258.96
771.184
-600.582
48.5005
621.59
-16.7879
-77.035
551.626
19.3934
4.87256
127.575
135.958
-51.2451
119.813
130.994
121.696
-15.741
130.029
21.3786
-8.09144
-7.08727
-37.2346
38.4354
6.0895
-0.203084
-3.59622
-44.6391
44.9083
3.94358
-0.61662
-1.32379
-44.2706
44.2576
1.60995
-0.273245
-0.469017
-44.1602
44.0332
0.471398
0.124611
-1.02069
-43.5357
43.2161
1.12865
0.211648
-1.16493
-42.4356
42.4083
1.10682
0.0853947
-1.24126
-43.3639
43.9493
0.572156
0.0836425
1.1894
-45.875
46.3913
-1.48485
-0.220838
-47.9815
16.9241
200.851
-22.0547
0.275832
-50.1691
-47.8705
-49.9746
858.491
-84.4314
14.1251
-205.314
-229.584
-200.136
-220.162
856.211
-55.4928
8.66483
857.897
-35.3273
2.02041
859.972
-0.911131
-1.47
37.0142
-6.05045
605.91
-594.269
1009.35
194.031
-476.866
288.163
420.138
-469.472
226.577
260.56
-166.48
345.452
108.469
-109.497
92.8141
103.223
103.352
98.1574
-8.68004
126.562
-1.94659
-7.46656
-5.01781
-36.5187
37.7194
4.20549
-0.388374
-4.98871
-42.7983
43.3032
5.37024
-0.886461
-2.98895
-42.98
42.9336
3.95192
-0.916598
1.75153
-45.2649
46.1367
-2.2133
-0.410032
1.49141
-48.3856
49.2315
-2.36063
0.0232972
0.303058
-52.3214
53.2872
-0.950045
-0.318772
-0.635065
-54.9403
54.9569
0.647263
-0.0288159
1.42593
-55.592
56.6344
-1.38562
-1.08264
-62.5155
28.9516
255.448
-35.9392
1.63033
-64.3723
-60.8754
-62.3272
947.83
-76.9354
15.5635
-250.805
-248.959
-237.103
-234.023
915.212
-44.763
21.888
901.48
-35.0557
13.4608
905.856
-14.0056
8.7187
19.9134
3.41381
1306.66
-775.981
-2903.28
974.013
-767.338
623.12
764.685
-820.633
560.489
653.009
-344.207
289.403
142.046
-237.67
167.302
163.249
144.766
163.82
21.2788
157.602
-32.3747
-4.46049
4.6809
-47.6377
49.7849
-6.92034
0.092184
-5.28232
-50.8149
50.0759
5.08338
0.937946
-5.01849
-50.0969
51.301
4.73239
-0.917973
1.67883
-54.4706
54.8693
-1.54071
-0.536797
2.99369
-55.3545
56.1239
-3.00548
-0.75756
3.34843
-59.2145
60.0339
-4.29613
0.128283
2.1104
-61.94
63.3551
-4.00666
0.481119
6.14026
-67.394
68.1155
-7.17547
0.313705
-63.0803
34.2069
231.649
-27.2401
2.19739
-59.5952
-60.4966
-57.6413
875.057
-80.2716
-10.9288
-222.727
-214.628
-214.657
-208.78
876.646
-45.8894
-0.463033
876.117
-38.7117
4.18494
883.031
-22.15
1.23094
4.5084
0.878649
1348.06
1165.87
-1299.15
1534.15
-349.697
-603.728
1166.67
-561.333
108.18
1042.15
-329.099
109.414
865.103
-253.034
192.409
191.076
-266.296
42.784
54.2266
103.672
63.493
107.238
192.578
186.007
190.325
17.2893
180.721
-66.5436
7.85203
15.7135
18.7416
17.3027
0.35085
-171.27
179.134
-13.9949
3.85942
0.574729
0.359554
0.985679
0.348703
-192.797
208.238
-26.146
3.54792
2.81452
0.69952
3.29463
0.0721908
-205.615
203.36
-7.19103
3.67968
2.53314
0.27225
2.88904
2.31259
-201.809
204.965
-22.3138
3.60373
5.02021
2.83017
5.39191
4.04549
-197.718
195.737
-21.4412
3.62378
5.65377
4.2688
5.82988
5.29287
-195.386
198.744
-29.4518
2.16056
6.5087
5.45583
6.67617
5.43868
-196.944
199.038
-28.6556
0.956571
7.35076
5.49051
7.32541
797.947
-96.1165
-7.42861
19.4683
27.3575
17.2646
24.4513
-197.089
-201.925
-189.408
-194.522
809.28
-86.5201
-5.08414
817.525
-52.4698
-1.66415
817.059
-37.5288
-0.717317
816.191
-15.1809
-6.10128
6.6657
-10.2967
1038.23
1556.64
-1647.98
841.755
-194.214
40.9954
1013
-526.909
-205.674
1134.26
-364.768
-85.5839
1111.86
-248.181
17.5417
1004.88
-132.417
-26.8963
914.301
22.6592
-25.5809
42.7174
10.662
34.1768
5.94601
852.92
-37.9727
-2.46655
9.43351
38.0493
11.9946
42.3424
813.874
-20.1325
-17.8595
24.0942
14.5515
23.7257
14.6667
812.27
-74.568
-4.12487
6.49325
29.4686
11.1354
33.1998
818.54
-101.027
1.93473
21.8386
23.1724
23.9661
23.8446
825.855
-143.054
15.1244
21.4444
37.8107
23.3278
38.0308
819.865
-112.604
5.94153
26.349
31.3334
25.295
29.6756
813.835
-112.871
6.23406
24.1647
33.3865
22.7751
32.3411
802.625
-89.2322
4.3249
790.137
-76.3823
2.35104
784.237
-47.2537
0.683082
777.03
-30.9844
0.663017
773.424
-9.17436
-2.40024
7.94975
-6.64235
2293.32
614.884
2153.78
2041.16
-597.138
655.091
1616.68
-505.29
402.86
1377.68
-363.226
237.457
1132.93
-160.243
156.811
1047.71
-56.788
9.59296
1041.07
39.7436
-10.4413
1025.54
28.119
-50.5654
1019.98
20.8329
-35.4055
992.414
-32.4476
-14.5554
927.403
-52.4799
16.4636
860.503
-102.925
26.7718
801.237
-69.1759
15.8373
756.427
-79.8304
11.7701
732.963
-67.2691
1.50117
722.31
-65.5566
-0.172893
723.528
-46.1392
-2.3325
726.774
-33.2396
-0.991357
733.574
-14.9436
-1.03021
3.15697
-3.90299
4315.21
1072.97
-1506.91
3873.2
300.057
-455.185
3064.6
290.131
13.1827
2293.56
155.842
251.967
1652.79
188.448
292.08
1401.32
112.689
81.9959
1345.21
103.095
-7.23893
1343.08
50.4583
-20.2128
1332.33
34.4742
-2.89045
1294.27
-13.9514
19.5626
1182.4
-2.42396
61.8169
1056.46
-25.797
48.8122
952.719
-10.4425
45.0037
876.828
-24.5903
20.6505
823.373
-29.3725
15.5585
785.202
-40.1266
12.7407
769.539
-34.7391
4.26301
760.018
-25.9261
2.20701
757.209
-12.6751
0.540888
1.93677
-2.99459
915.598
1246.5
551.317
1372.72
439.056
-596.124
1382.4
574.948
-294.492
1338.8
261.336
-61.8951
1277.3
152.916
97.0307
1298.88
27.3947
63.713
1315.81
18.1336
68.0277
1308.52
6.43825
51.3117
1241.29
34.8354
66.8666
1143.82
19.6516
63.8713
1038.06
29.9872
73.3499
965.2
9.16283
37.8989
925.344
9.87209
19.541
890.164
1.26911
9.32116
848.033
-0.56809
13.3264
805.798
-6.6048
8.71324
776.063
-8.26882
3.26459
757.04
-5.7509
-1.15206
748.505
-0.668961
-3.47102
7.49721
-6.15677
728.155
1221.82
4103.44
794.681
399.066
-26.5352
984.686
323.43
61.5136
1147.35
32.0434
66.6249
1225.87
-136.873
211.269
1259.68
-187.823
181.413
1216.16
-124.189
185.843
1137.34
-37.7153
122.972
1033.34
51.0931
87.7426
962.154
49.6541
41.1847
935.734
38.159
18.2483
926.88
17.2362
0.780539
921.107
18.066
-2.42058
909.11
18.45
-5.18402
888.06
23.454
-2.97218
863.688
22.2441
-4.47633
837.624
21.9958
-4.20071
817.54
20.7442
-6.41178
805.85
19.5895
-8.56745
19.9838
-10.8025
1800.95
772.408
-5177.83
1361.51
651.261
187.241
1369.43
316.447
-0.933341
1437.61
22.0412
-58.1857
1422.51
-153.665
31.8965
1396.16
-200.176
38.7009
1268.73
-157.613
160.851
1118.41
-20.1337
132.745
983.967
72.6451
112.889
906.255
78.9882
48.3772
890.927
29.1957
24.291
898.686
-4.20149
13.6787
908.052
5.64036
3.06012
908.54
26.2406
-8.27898
903.697
44.0234
-15.7259
896.576
52.0004
-22.6351
889.07
57.8379
-28.337
883.677
58.6456
-32.5078
878.616
59.0322
-34.3817
53.7266
-33.2654
1030.44
3876.4
1000.3
681.4
1083
233.75
1277.17
-172.13
1426.15
-302.64
1584.25
-358.279
1718.85
-292.21
1877.32
-178.603
1960.24
-10.2751
1939.8
99.4257
1742.88
226.117
1488.54
250.133
1311.66
182.529
1210.98
126.917
1156.77
98.2347
1122.89
85.8822
1109.98
70.741
1106.67
61.9631
1118.34
47.354
39.0442
946.557
-813.007
985.446
1064.91
-173.306
74.2207
1264.3
110.002
-136.42
1255.74
157.357
-259.797
1111.95
200.573
-323.405
1040.6
61.8137
-296.816
939.522
54.3001
-109.594
888.793
50.2578
-55.7615
859.434
59.383
78.7687
845.579
39.3432
26.2161
839.433
6.13325
-10.7302
848.286
-6.4094
-23.8885
866.127
-25.8505
-16.6947
891.325
-32.6576
-7.86079
920.089
-39.163
3.79213
948.291
-37.5818
2.87201
983.597
-46.7319
5.75671
1016.87
-46.9351
6.92443
1060.61
-59.8131
13.2494
-55.9005
16.8176
-831.613
151.051
1535.05
42.6059
-52.4514
-1510.28
421.976
5.76968
-693.923
484.071
55.0474
-51.1653
686.876
-2.647
-2.2489
723.501
28.3968
16.3406
768.004
5.53875
98.7474
784.018
42.4952
52.9023
806.096
34.3345
86.6627
818.112
29.7237
28.2231
824.529
-2.17465
19.199
833.382
-15.3062
4.37305
846.482
-41.9244
10.2283
862.254
-48.136
10.9901
879.229
-55.4508
18.62
897.371
-53.1517
25.0059
910.537
-56.3361
29.6846
919.008
-52.7874
36.6387
929.487
-67.506
39.2463
-59.0058
25.8925
536.782
141.608
-2768.13
916.778
-112.541
-1336.49
1154.09
22.2694
-923.78
1226.07
35.6439
-176.632
1134.54
100.289
69.1164
1070.16
99.3944
87.2954
983.747
74.7173
141.084
945.533
82.384
76.6453
919.802
55.5325
73.4718
908.929
43.5774
32.7223
896.31
7.63496
31.4301
887.24
-5.3104
11.4316
880.2
-34.9308
18.3022
879.18
-46.1434
12.9329
879.711
-57.1769
11.4403
880.992
-54.9149
10.4185
877.995
-54.2819
11.0213
871.071
-46.4107
12.9851
857.817
-53.7813
22.9336
-44.171
-1.23583
-972.35
-63.6895
3535.52
-96.1327
-667.132
27.3359
501.812
-448.066
-93.5105
658.755
-83.9049
-85.135
786.068
-25.471
-106.481
855.451
51.3486
-130.057
888.808
29.2061
-9.82153
918.756
58.7843
-11.1766
929.493
38.9455
41.2883
929.223
45.8378
23.9613
914.863
19.2102
31.2636
898.182
11.5504
10.1656
879.696
-15.4034
9.44206
864.965
-30.1652
-2.98299
860.823
-54.9734
-4.09438
861.754
-57.351
-2.79317
858.92
-53.5829
0.367462
851.129
-40.638
6.20237
830.199
-34.8868
24.27
-21.6198
-2.49172
99.4011
141.874
1417.84
521.631
-764.327
28.6951
760.814
-542.251
-241.923
908.547
-207.679
-22.91
991.032
-93.1689
-37.8545
1023.69
27.6655
-54.8328
1019.46
23.1766
-3.56993
1012.46
66.9782
-25.2974
995.205
48.8539
6.47224
981.057
58.9638
-5.2818
960.635
36.2279
6.72985
944.414
28.1305
-1.00883
926.694
0.930656
7.97779
913.294
-17.1051
-0.355844
907.118
-52.678
-4.63106
905.636
-58.3246
-5.04709
898.796
-49.8147
-3.19544
883.541
-26.4296
0.277209
845.44
1.86917
23.378
12.1248
-1.38613
-601.918
-674.963
948.135
185.479
-822.299
-808.217
598.819
-740.731
-625.167
656.381
-265.948
37.374
747.657
-194.731
-0.715478
786.977
3.62174
-12.5977
851.72
-39.6571
29.7907
880.237
48.2484
-7.96171
906.588
20.7646
7.75603
920.949
45.947
-10.5348
929.541
24.2737
-2.79636
936.933
18.8808
-6.77346
942.965
-8.93551
-0.227695
947.632
-27.1298
7.03997
948.354
-54.0978
16.6137
945.722
-54.1643
14.5951
933.601
-35.5113
1.91888
915.484
-6.7355
-11.1973
882.976
31.8911
10.3445
41.88
-6.98003
587.922
-1080.58
-3122.77
871.115
-531.668
-1050.35
1182.49
-648.675
-872.571
1196.31
-190.515
-147.545
1081.07
-106.76
-2.09618
986.005
92.7325
-4.67353
921.217
5.53355
10.4164
-2.00056
5.94768
-1.78893
892.485
8.74835
-8.25669
26.6457
10.7793
28.1841
878.093
6.75622
-14.8895
8.5382
7.15911
8.28317
878.481
4.11955
-19.7645
17.1021
4.36287
17.3667
877.839
2.50648
-18.1767
8.54449
2.21333
7.49099
878.046
-1.15487
-7.76613
8.60491
-2.32281
7.53014
877.582
-7.00769
17.3117
-0.370918
-8.26751
-1.19757
875.111
-13.762
54.8295
-1.71932
-13.5191
-1.15216
865.472
-40.3653
47.3988
853.124
-37.722
21.4131
845.412
-22.0371
-13.7158
845.102
-4.32202
-31.6986
846.601
27.9733
-29.8081
44.192
-30.1591
466.005
-1247.79
1626.47
630.171
-782.027
-1132
568.277
-631.31
-501.95
653.763
-227.631
-140.332
703.979
-134.71
-103.773
181.474
7.63818
-57.3258
169.09
172.057
159.908
50.3293
11.67
52.9055
0.0729872
172.608
18.1739
-3.84772
7.34446
-173.516
179.174
3.18275
-7.43692
9.23134
-193.308
191.139
8.90859
-9.2145
8.60877
-197.206
197.339
4.0113
-8.63404
5.96467
-207.187
204.342
5.07527
-5.68872
0.111889
-209.925
205.704
1.80945
1.14486
-8.05509
-210.701
202.674
-0.900819
9.97575
-15.3883
-204.748
197.216
-6.63619
15.7951
745.235
-13.8151
11.6978
-198.214
-186.133
-187.964
-177.633
-4.97052
-13.4236
-3.9622
744.32
-32.2286
-10.1038
751.138
-25.6962
-23.8718
762.439
-12.6563
-38.0635
777.396
10.5543
-44.8058
33.978
-36.0525
992.994
-1459.15
2076.51
1213.17
-893.873
-588.989
934.824
-489.576
-136.806
847.773
-175.367
-138.199
191.337
-8.18151
-150.669
173.477
183.432
164.946
31.3077
201.13
-0.347266
-33.1148
4.94728
-4.41222
-54.7593
50.7518
8.7426
-5.27014
1.63671
-45.6072
0.91043
43.9992
0.646811
-1.58596
1.84424
-45.9107
0.112103
45.1331
0.676012
-1.8547
1.48664
-46.9978
0.374848
46.1202
0.517105
-1.50097
0.842257
-48.3286
0.295207
47.393
0.602702
-0.80451
-0.174438
-48.9516
0.704339
47.7421
0.351618
0.328042
-2.37074
-48.3478
1.11778
46.5779
0.267164
2.75577
-4.43077
-46.7698
1.88435
45.2664
-0.254463
4.30428
-46.2498
-2.5243
176.872
-10.004
2.89878
-45.0284
-45.4326
-44.3471
719.875
-49.6579
0.174184
-181.648
-177.891
-175.742
-171.919
727.642
-33.7908
-10.5125
732.531
-18.5933
-14.8742
735.946
6.70279
-19.1575
31.7258
-22.1722
591.923
-1698.28
818.696
682.046
-539.657
-395.837
549.93
-131.897
-302.598
455.862
-42.9864
-33.4394
111.228
78.6971
-96.0398
101.579
105.645
95.3258
22.1906
-3.94587
114.761
10.8483
-32.626
3.68203
-8.96624
-34.5049
36.4597
7.72598
-4.39659
0.729073
-3.70259
-40.9753
40.983
3.69777
-0.731972
0.531196
-0.848038
-40.0604
39.9421
0.985712
-0.550515
-0.241255
-0.122751
-40.0787
40.1142
0.068033
0.260503
-0.4356
-0.201718
-40.2255
40.2297
0.199105
0.434041
-0.22279
-0.140159
-40.4285
40.5656
0.0487605
0.17711
-0.0192942
0.183598
-41.5002
41.9753
-0.583493
-0.0559662
0.401241
1.46166
-43.6572
44.1063
-1.88483
-0.427112
-45.4855
-2.43123
13.3071
186.839
-17.957
3.96934
-47.0969
-44.8254
-46.3189
763.231
-56.2684
21.0229
-188.024
-203.091
-180.851
-191.553
761.927
-34.349
10.5274
759.644
-18.7538
4.46417
757.166
8.21431
-0.503918
32.1152
-9.09329
296.896
-367.14
-1362.32
-243.836
-136.856
426.093
2.06383
-319.065
167.845
27.2891
-122.003
399.244
80.1173
-122.576
20.3549
78.3081
73.6893
68.9069
5.31801
3.05515
91.5411
-16.4728
-3.32417
0.224485
-2.7787
-30.559
32.8783
0.602769
-0.367886
1.41129
-2.67307
-37.7762
38.3988
1.97545
-1.33631
1.82179
-0.800079
-39.027
39.2022
0.600273
-1.79719
0.660628
1.25599
-40.3792
40.8605
-1.89327
-0.504707
-0.293987
1.26787
-42.644
43.4333
-1.99915
0.23597
0.869932
1.04764
-46.1435
46.9464
-1.62647
-1.09402
0.938467
1.7823
-49.1004
49.8339
-2.17561
-1.2787
1.89202
3.97849
-52.2605
53.1238
-4.89935
-1.83447
-54.8667
-2.88514
21.7592
219.628
-23.9866
3.5942
-55.5475
-53.5417
-54.1534
810.542
-48.8666
24.5501
-214.289
-211.965
-200.842
-199.835
801.649
-24.4487
20.8815
799.807
-16.9783
13.5274
803.37
3.85317
9.51608
27.4185
-0.397704
-794.022
-326.09
-2932.26
-151.001
-455.781
299.026
319.901
-618.45
388.972
294.551
-145.255
338.005
108.482
-227.633
116.676
126.612
98.368
116.772
1.20259
36.4023
128.154
-58.357
1.07933
-4.20828
11.1055
-40.8146
44.3746
-15.3799
4.92259
-3.54034
0.0214734
-47.1883
47.0864
-0.360581
3.98132
1.00635
0.752782
-47.3909
47.7902
-1.57703
-0.581484
0.456233
2.94997
-47.9948
47.9926
-3.15098
-0.253061
0.743905
3.64565
-48.219
48.6092
-4.33176
-0.447982
-0.57207
3.82763
-50.0142
50.6362
-4.57941
0.701845
-1.23952
4.73477
-52.6654
53.4066
-5.56306
1.32666
-1.02008
6.87967
-54.2935
54.228
-6.88729
1.09322
-52.616
-1.51086
22.4149
203.75
-20.1393
0.417271
-51.2601
-51.0764
-49.98
767.57
-57.9886
-4.54609
-198.082
-193.192
-188.374
-185.182
768.992
-27.1744
0.840867
773.395
-22.9604
5.76317
782.859
-3.49431
-0.884721
17.9298
-3.28099
946.668
1277.09
478.731
613.539
-286.421
-439.959
520.801
-500.006
82.474
567.354
-202.556
120.162
644.952
-269.071
156.25
142.209
-304.487
32.006
77.4717
118.902
83.4913
123.249
146.971
131.338
136.584
18.5046
-15.5676
135.766
-55.5128
13.3456
14.0411
18.3216
13.3107
1.38146
-8.74188
-124.751
134.001
-20.4454
9.27349
3.56972
1.67332
4.04001
3.48256
-6.2025
-151.806
164.81
-32.7963
7.44668
5.47873
3.883
5.70332
2.13644
-7.07807
-159.798
161.189
-17.66
8.82618
4.85267
2.42638
5.10537
4.78952
-5.85291
-165.769
172.296
-29.7529
6.88498
6.17074
4.98388
6.24993
4.8007
-5.26152
-168.139
170.944
-25.4959
5.77246
6.27489
4.81925
6.28445
5.47866
-3.06285
-173.117
177.051
-28.4
3.16626
6.74319
5.44315
6.69724
5.01884
-1.23597
-174.622
176.892
-25.0182
0.705594
6.71116
4.94682
6.60214
699.98
-79.4104
-5.38994
14.0936
20.0183
12.6548
18.7991
-174.557
-176.808
-167.489
-169.32
708.712
-66.978
-4.82717
716.235
-35.394
-0.967687
719.959
-25.8861
-1.5153
725.072
-5.74289
-8.96599
11.9669
-14.1013
752.307
827.749
-2831.19
834.219
-30.8258
-296.511
780.305
-423.74
-228.026
888.036
-301.644
-94.2267
863.414
-251.652
24.7443
743.901
-178.321
-33.5496
683.61
-24.9226
-10.7411
32.5061
5.49221
27.8545
4.52132
643.303
-123.634
-6.47217
20.7625
58.275
27.246
61.6636
630.802
-72.4385
-20.8386
27.6929
16.6394
26.7386
16.848
641.817
-147.422
5.50347
18.4111
42.3274
21.1808
44.8586
656.569
-122.18
5.87677
26.5347
25.0759
26.938
24.9378
667.971
-142.25
18.6251
24.768
38.7597
25.0197
38.8002
672.497
-109.067
7.70178
24.1672
28.0906
23.5033
27.0189
676.686
-106.907
7.61013
20.9811
30.2448
20.2121
29.9042
677.664
-80.9641
4.90066
676.569
-65.8923
2.36003
680.569
-38.3651
-0.345584
682.293
-26.3974
-0.550173
685.78
-7.09265
-4.53717
7.35982
-9.69937
1291.83
493.667
2101.82
1250.68
-22.8427
688.257
1053.23
-246.229
422.796
988.523
-230.183
230.702
861.76
-152.164
184.088
798.989
-116.958
11.0009
810.129
-47.174
0.669766
776.582
-85.4098
-55.2435
768.366
-73.1305
-26.4968
743.82
-127.519
-9.91278
721.682
-107.539
23.9609
696.409
-118.943
28.7369
673.076
-88.5325
18.6367
654.669
-89.8253
13.0946
644.595
-71.394
2.00525
641.594
-63.3206
0.256094
645.872
-42.8896
-2.08618
650.502
-30.8026
-1.21563
658.02
-13.4803
-2.1609
2.02346
-6.71255
3340.24
1091.89
-701.688
2547.45
194.949
119.809
1803.49
181.229
329.687
1474.49
53.4198
297.366
1240.52
80.0079
293.878
1108.73
-8.38929
105.213
1044.65
-9.14841
18.8143
1007.83
-58.2439
-10.5512
967.272
-47.5906
12.1242
917.654
-82.0844
23.7465
861.181
-48.5238
59.2742
806.869
-65.447
49.6291
761.53
-43.3703
45.1807
726.528
-57.3001
23.1269
702.365
-48.904
17.2314
686.761
-47.2309
12.2557
679.654
-35.7569
4.2367
674.692
-25.7122
2.07827
674.704
-12.8711
-0.0794574
0.0836624
-5.62193
1200.81
1352.43
-2293.78
1287.51
315.311
-803.184
1036.1
342.188
-204.035
991.325
40.3871
-4.09125
979.208
34.3074
154.849
996.2
-34.8153
73.1463
997.777
-31.5154
88.8177
966.87
-38.9545
62.9297
916.277
-17.1749
87.0432
853.634
-24.2084
68.6383
814.172
-12.6111
76.8995
780.473
-26.5177
32.669
758.821
-22.8566
20.6787
737.728
-32.6642
5.77901
718.856
-26.3386
9.63308
702.573
-27.2056
4.97028
690.108
-20.5889
0.561938
680.901
-14.3144
-3.34291
676.349
-6.19619
-5.59357
2.68515
-10.3246
213.85
1044.11
4256.48
468.533
327.779
-293.687
802.912
115.726
-46.4038
942.623
-98.1177
65.4188
1038.31
-135.493
285.385
1062.48
-96.8488
219.27
1016.21
-25.3893
225.993
936.91
23.4031
139.91
861.838
50.4932
95.1472
811.392
28.6234
38.7988
794.34
3.76084
18.9277
789.692
-20.595
-0.493605
789.243
-22.1522
-2.67618
782.94
-21.5273
-10.0178
774.23
-11.6385
-8.96226
763.647
-9.03997
-12.059
752.995
-3.6711
-10.4657
743.826
-0.230633
-11.3267
736.377
4.18183
-11.496
8.65334
-16.3138
-77.8248
510.071
-2589.25
240.625
230.142
-33.5722
1002.35
180.051
-826.984
1064.23
69.286
-287.467
1083.55
-28.1741
-94.7411
1041.83
-13.9097
-2.52123
981.929
51.3806
143.982
919.462
125.195
93.4204
869.488
133.201
80.1546
835.948
98.8768
11.6637
836.951
12.2865
14.763
848.552
-26.9592
8.44166
856.707
-21.6706
-5.57679
857.299
-3.74162
-26.6562
856.282
9.09641
-35.444
854.195
14.0401
-43.6283
851.035
19.6283
-48.4767
847.787
21.6191
-51.1092
842.532
25.2926
-50.2373
24.5835
-48.0435
164.32
3079.89
583.712
492.149
1067.1
-69.5827
1246.05
-281.8
1281.23
-365.992
1297.24
-388.201
1317.3
-260.884
1387.87
-123.979
1482.88
27.9153
1542.08
139.099
1492.39
288.092
1394.33
321.237
1291.87
263.321
1222.67
192.369
1188.26
141.744
1168.7
119.48
1160.49
98.5801
1159.8
84.27
1172.38
60.0733
48.3209
1151.16
-1764.36
486.222
1377.78
-475.693
323.29
1563.61
-49.6536
-272.599
1458.84
102.27
-257.288
1077.33
199.202
-141.103
870.682
66.8674
-157.035
740.468
43.6908
-23.0709
702.621
23.1674
-41.0816
712.89
14.289
54.2104
724.844
5.08261
9.17995
735.001
-19.9967
-0.890381
747.457
-25.7636
-10.5809
767.474
-36.8299
0.11828
791.441
-35.4948
3.66667
819.262
-37.8217
13.7925
847.814
-35.1363
9.45602
882.815
-42.0734
12.8299
915.118
-40.8676
15.4892
960.286
-52.6909
20.7716
-45.1088
22.0928
283.817
-516.111
549.63
251.118
-136.261
-1817.01
404.519
33.2981
-930.275
423.311
82.1942
-49.8827
582.309
40.8305
-2.87463
585.896
52.5414
27.0797
638.146
7.49895
82.6891
653.338
30.8073
30.0704
683.575
10.3479
60.3668
695.42
8.95757
12.503
703.284
-20.9605
12.2985
708.004
-24.0231
-2.0879
718.312
-43.5077
6.59843
729.425
-41.3027
5.68503
743.019
-44.6339
11.8377
756.175
-39.5201
16.2336
767.147
-42.4284
19.0685
777.989
-38.8032
23.7318
790.829
-51.0839
24.7996
-39.4904
8.43212
1569.71
-1149.37
-2821.08
1414.81
-268.797
-1049.05
1157.43
117.571
-750.677
1072.3
118.117
-127.429
942.926
157.62
81.7056
876.854
138.004
67.9046
816.627
91.7846
117.025
788.868
85.8786
49.3326
771.522
45.8205
55.346
759.615
34.2313
19.3548
747.197
-0.0270406
22.9156
737.098
-7.03087
4.53822
730.539
-29.5428
10.8962
729.077
-33.6897
6.78146
729.524
-41.9676
8.32757
729.82
-36.8776
7.48011
727.045
-36.8894
8.25718
722.982
-30.8598
9.10517
717.712
-37.437
14.5566
-27.2688
-11.154
1300.9
-513.34
124.253
314.401
-477.378
1222.41
517.178
-304.381
125.665
532.036
-16.1852
34.3087
625.26
3.96801
-46.0531
661.777
63.1283
-91.6971
702.133
32.7333
8.87276
727.264
65.1503
-15.5786
744.266
36.6917
33.4148
746.312
43.4445
12.7019
740.432
13.3158
23.8011
730.549
6.09306
6.92461
721.518
-17.8671
6.79773
714.672
-26.5428
-3.28442
712.127
-41.8503
-1.66695
711.621
-38.7386
-0.425742
706.35
-32.7476
1.49689
698.079
-21.5325
5.14572
686.067
-18.5333
17.3789
-8.92731
-12.537
1122.39
926.402
1321.38
794.73
-83.0702
-37.9507
715.185
-362.171
-104.588
796.415
-138.416
18.0902
832.681
-61.2334
-8.91801
834.837
40.5517
-34.4129
827.776
24.7977
11.4272
813.187
73.1852
-18.7438
797.981
47.0323
11.3376
782.847
57.0776
-3.7806
767.316
27.7206
7.85564
755.355
17.7931
-0.74749
747.38
-8.27651
6.36157
743.323
-23.6444
0.803221
741.257
-43.628
-0.787227
739.893
-40.9998
-1.42241
728.836
-24.4148
-0.470465
710.963
-3.64406
0.261028
687.585
11.4816
16.7414
15.7573
-10.3146
2097.65
308.217
1440.68
1235.14
-180.924
152.145
642.615
-438.579
43.7669
578.454
-163.611
126.729
610.856
-142.889
48.5391
622.88
29.1008
-13.1712
686.501
-33.051
24.0185
700.901
64.5772
-13.753
723.479
23.7649
8.44465
731.475
48.08
-9.53323
738.946
16.7149
0.738856
744.26
9.23969
-3.53429
751.508
-18.438
2.68597
757.653
-30.1593
7.40985
761.271
-42.4065
11.7742
762.519
-36.1594
8.50713
751.29
-11.3577
0.0908584
731.413
10.2438
-5.20866
707.565
37.1723
8.50201
38.0207
-13.4843
1901.23
-1143.02
-1741.63
1375.12
-525.018
-180.149
1062.19
-530.836
-467.38
981.563
-156.971
-73.5594
882.089
-75.8655
30.3533
790.081
117.425
-0.989312
741.625
5.82011
22.261
-2.08412
3.21988
-3.39526
714.679
13.0702
-2.43847
30.1444
12.603
29.887
703.655
6.37178
-4.37893
7.46765
4.63594
5.80324
700.605
4.24867
-10.2069
17.3296
3.26829
16.7256
699.136
0.441201
-9.63295
5.62383
-1.14269
4.71724
699.331
-4.28365
-0.584278
6.14594
-5.67667
5.67779
705.365
-9.60658
16.8871
-1.94513
-10.3499
-2.14656
715.294
-12.8358
39.8929
-0.313821
-12.5278
0.525857
719.622
-29.0228
29.6878
717.456
-22.7113
10.1308
710.98
-7.69511
-10.9027
702.836
8.07714
-21.388
695.938
33.6482
-19.386
39.7841
-29.0245
1494.36
-1419.56
294.103
868.75
-691.532
-339.869
616.825
-601.804
-179.057
604.035
-227.664
-56.85
596.05
-121.685
-49.9688
147.417
16.7377
-37.3315
136.399
136.834
126.014
56.0243
18.5441
55.5106
3.43618
138.366
18.5865
-7.1514
7.67839
-138.402
144.523
6.3669
-7.09597
8.83885
-157.528
154.251
8.76771
-7.95723
8.2026
-159.348
158.681
3.62112
-6.90784
4.48278
-167.672
163.485
3.42012
-3.27533
-2.65371
-168.755
164.679
-0.947327
3.39287
-10.5607
-171.612
166.042
-2.87015
9.39406
-14.3685
-172.29
167.713
-5.95192
12.0612
650.454
-12.2647
10.0585
-171.169
-162.751
-161.308
-153.901
-2.87707
-11.8577
-1.71017
649.1
-22.4813
-8.97898
650.835
-16.0138
-17.2884
652.523
-5.18612
-26.4879
654.945
15.5284
-29.1087
29.9554
-31.1661
874.176
-831.099
1729.01
1061.49
-533.511
-934.323
870.912
-423.984
-124.048
777.147
-179.709
-92.3884
165.193
-22.7369
-76.6894
148.258
153.859
136.909
29.3717
168.34
8.3711
-24.1519
4.00362
-5.19029
-45.2094
40.8498
9.53905
-3.99278
1.28268
-36.5304
0.614419
35.2397
0.523455
-1.12987
1.61403
-37.6056
0.0246373
36.8239
0.624216
-1.4812
1.24149
-38.3281
0.781551
37.3519
0.0772322
-1.12408
0.397794
-39.3841
0.777004
38.3632
0.134099
-0.28794
-0.927022
-39.7955
1.57432
38.491
-0.344014
1.00117
-3.06434
-40.0445
1.88911
38.7983
-0.461724
2.8832
-3.37758
-40.7925
2.1559
39.6964
-0.687861
3.00567
-41.4668
-2.84129
158.096
-8.14556
3.06594
-40.6746
-40.5455
-39.7528
633.003
-35.4594
6.60353
-162.419
-158.957
-154.513
-150.564
634.92
-22.4025
-6.04147
635.551
-11.5216
-9.16906
635.33
9.02502
-12.4339
25.6708
-21.3456
906.478
-378.673
-3293.64
885.153
-296.747
-611.277
545.203
-97.5257
-289.105
411.641
-48.6979
-30.889
91.9476
45.439
-88.3984
82.8058
84.3377
76.7323
34.9881
-4.55222
94.7969
3.07559
-36.3608
4.49034
-9.14259
-29.5382
31.384
7.24903
-4.44264
0.521633
-2.198
-34.685
34.7474
2.0017