/*--------------------------------*- C++ -*----------------------------------*\
  =========                 |
  \\      /  F ield         | OpenFOAM: The Open Source CFD Toolbox
   \\    /   O peration     | Website:  https://openfoam.org
    \\  /    A nd           | Version:  10
     \\/     M anipulation  |
\*---------------------------------------------------------------------------*/
FoamFile
{
    format      ascii;
    class       volScalarField;
    location    "7.7";
    object      turbidity_0;
}
// * * * * * * * * * * * * * * * * * * * * * * * * * * * * * * * * * * * * * //

dimensions      [0 0 0 0 0 0 0];

internalField   nonuniform List<scalar> 
12920
(
-0.0122807
-0.0320347
-0.045462
-0.0507575
-0.0547743
-0.0628953
-0.0796047
-0.103421
-0.133368
-0.166645
-0.196633
-0.224929
-0.254271
-0.282416
-0.307402
-0.325961
-0.33985
-0.350513
-0.360912
-0.369379
-0.0206545
-0.05196
-0.0696964
-0.0962343
-0.111636
-0.12783
-0.142576
-0.158964
-0.179886
-0.204444
-0.23139
-0.259341
-0.286653
-0.31137
-0.333079
-0.353139
-0.372817
-0.3935
-0.415737
-0.43951
-0.0317174
-0.0372415
-0.0488989
-0.0706482
-0.0957648
-0.125368
-0.154749
-0.18052
-0.203441
-0.225177
-0.246275
-0.265951
-0.283268
-0.298908
-0.314041
-0.330446
-0.349591
-0.373126
-0.401986
-0.436764
-0.0562691
-0.054836
-0.0582435
-0.061727
-0.070138
-0.0877816
-0.11755
-0.150821
-0.181194
-0.207898
-0.230102
-0.249001
-0.264664
-0.277617
-0.28945
-0.304293
-0.32408
-0.349706
-0.382553
-0.425678
-0.0591634
-0.0623016
-0.0632003
-0.0740563
-0.0847976
-0.0967378
-0.115555
-0.136343
-0.15844
-0.178632
-0.197124
-0.214809
-0.231614
-0.246941
-0.261525
-0.277503
-0.297026
-0.322628
-0.356279
-0.403504
-0.0629831
-0.0473922
-0.0588753
-0.0859574
-0.10676
-0.123449
-0.138941
-0.153219
-0.16641
-0.17793
-0.189802
-0.202646
-0.217695
-0.234411
-0.252449
-0.271201
-0.28982
-0.309607
-0.336246
-0.371762
-0.0337853
-0.0360528
-0.0500341
-0.0743569
-0.0980687
-0.118168
-0.131916
-0.142792
-0.152183
-0.164534
-0.180463
-0.201403
-0.223981
-0.244936
-0.263448
-0.27896
-0.287656
-0.293216
-0.307766
-0.332244
-0.0339448
-0.0359213
-0.0454978
-0.0681025
-0.088728
-0.108092
-0.109228
-0.10678
-0.10693
-0.10801
-0.11524
-0.126814
-0.14082
-0.14711
-0.14314
-0.161616
-0.180852
-0.20234
-0.232521
-0.274647
-0.0360484
-0.0436573
-0.0497394
-0.0609391
-0.0769893
-0.0827906
-0.0928026
-0.096138
-0.0923885
-0.0916332
-0.0941057
-0.0986297
-0.105969
-0.113761
-0.111421
-0.123612
-0.155742
-0.191757
-0.233359
-0.281539
-0.0358488
-0.0537855
-0.0681293
-0.0913487
-0.108583
-0.102863
-0.0978328
-0.0965842
-0.100445
-0.106389
-0.109149
-0.109814
-0.108701
-0.10525
-0.108545
-0.139499
-0.174648
-0.209333
-0.244687
-0.281934
-0.0457012
-0.0820169
-0.0957028
-0.118398
-0.138929
-0.124478
-0.108927
-0.0992592
-0.100437
-0.0982783
-0.0956902
-0.093773
-0.0917452
-0.0911722
-0.0947998
-0.1309
-0.17028
-0.210724
-0.247552
-0.280349
-0.0472637
-0.0614207
-0.0802718
-0.106813
-0.133387
-0.128045
-0.118109
-0.102108
-0.0955255
-0.0913592
-0.0875454
-0.0830559
-0.0801548
-0.0787146
-0.10505
-0.166012
-0.202223
-0.240568
-0.275972
-0.305736
-0.0236725
-0.0445413
-0.0650229
-0.0879035
-0.114766
-0.141274
-0.142878
-0.133591
-0.13017
-0.125292
-0.13316
-0.143788
-0.16766
-0.192204
-0.270181
-0.308568
-0.337903
-0.362599
-0.379369
-0.392248
-0.0195042
-0.0435725
-0.0650701
-0.0877504
-0.108457
-0.122907
-0.144154
-0.171354
-0.201534
-0.234618
-0.266437
-0.302085
-0.342413
-0.389254
-0.437677
-0.485094
-0.527094
-0.562632
-0.586137
-0.594397
-0.025758
-0.0468865
-0.0666767
-0.0876069
-0.107368
-0.120668
-0.137055
-0.152657
-0.177872
-0.208034
-0.247179
-0.297481
-0.362433
-0.43353
-0.503826
-0.565512
-0.617278
-0.659383
-0.691118
-0.711242
-0.0148654
-0.0278665
-0.0447185
-0.0643441
-0.0879174
-0.110002
-0.128271
-0.143534
-0.160194
-0.179509
-0.206626
-0.248824
-0.307356
-0.37932
-0.458935
-0.538394
-0.610524
-0.670831
-0.719091
-0.755489
-0.0198808
-0.0386033
-0.0579131
-0.0796256
-0.0991215
-0.116116
-0.131092
-0.147437
-0.168067
-0.197763
-0.235271
-0.278878
-0.326485
-0.379614
-0.441401
-0.512642
-0.587491
-0.656703
-0.716017
-0.765429
-0.0276561
-0.0636407
-0.0795472
-0.0973945
-0.111295
-0.128767
-0.152324
-0.1813
-0.211893
-0.24354
-0.273852
-0.303499
-0.337731
-0.377685
-0.425328
-0.475367
-0.526124
-0.575866
-0.625319
-0.673963
-0.0436929
-0.0555421
-0.0683148
-0.0792448
-0.087043
-0.100834
-0.130596
-0.180521
-0.230756
-0.2733
-0.307488
-0.337876
-0.367485
-0.393727
-0.418196
-0.43946
-0.458774
-0.478192
-0.50043
-0.529311
-0.0294751
-0.0613846
-0.0610991
-0.05655
-0.0540122
-0.0565726
-0.065873
-0.082694
-0.106855
-0.130498
-0.15643
-0.197935
-0.25423
-0.311215
-0.360963
-0.403172
-0.439739
-0.472005
-0.501116
-0.527733
-0.0193271
-0.0205783
-0.0174266
-0.0118212
-0.0115056
-0.0151402
-0.0240902
-0.0293698
-0.0326693
-0.0256861
-0.022415
-0.0255475
-0.0316279
-0.0384267
-0.0453489
-0.0516598
-0.0582118
-0.0639165
-0.0693415
-0.0734348
-0.0134067
-0.0130823
-0.0149035
-0.0251805
-0.0390366
-0.0413136
-0.0464575
-0.0430539
-0.0420152
-0.0386654
-0.042454
-0.0500413
-0.063368
-0.0794606
-0.0974819
-0.116312
-0.133899
-0.148473
-0.157565
-0.160226
-0.00640613
-0.0126424
-0.0158349
-0.0207032
-0.0338711
-0.0480903
-0.061809
-0.0661814
-0.068429
-0.0673408
-0.0678052
-0.0668289
-0.0676397
-0.0690226
-0.0737557
-0.0831436
-0.096571
-0.111742
-0.124879
-0.123121
-0.0279762
-0.0189648
-0.0124429
-0.0106677
-0.0109191
-0.01501
-0.0245049
-0.0378311
-0.0511973
-0.0570241
-0.0566453
-0.0487482
-0.0407014
-0.0355568
-0.0369939
-0.0449703
-0.0598016
-0.0807841
-0.104171
-0.11053
-0.0349913
-0.0160948
-0.00998136
-0.00889508
-0.00854186
-0.00897235
-0.0111678
-0.0155304
-0.0208626
-0.0258928
-0.0300712
-0.0312377
-0.0312424
-0.0306815
-0.0325765
-0.03728
-0.0469215
-0.0638879
-0.0899211
-0.104967
-0.0244278
-0.0102351
-0.00891516
-0.0120643
-0.0155719
-0.0164779
-0.0182377
-0.016252
-0.015674
-0.0163257
-0.0187974
-0.0228053
-0.0297179
-0.0394472
-0.0495582
-0.0540803
-0.0553429
-0.0631413
-0.0851739
-0.107204
-0.00529305
-0.00692641
-0.00772646
-0.0103074
-0.013901
-0.0146091
-0.0126761
-0.0115077
-0.0127274
-0.0172198
-0.0264813
-0.0416047
-0.063733
-0.0821741
-0.082151
-0.068077
-0.0540239
-0.0500889
-0.0573322
-0.0716964
-0.0123281
-0.00937819
-0.00813759
-0.008191
-0.00894684
-0.00961206
-0.00977673
-0.00997575
-0.0119243
-0.017504
-0.0276689
-0.0461833
-0.0709396
-0.0801598
-0.0374893
-0.0280001
-0.0269244
-0.0320205
-0.0425978
-0.0575392
-0.0102753
-0.00837439
-0.00796568
-0.00769463
-0.00764116
-0.00810662
-0.00909526
-0.0105563
-0.0136878
-0.0207973
-0.0341506
-0.0581902
-0.0877208
-0.0887885
-0.0361395
-0.0246233
-0.0244041
-0.0276674
-0.0343232
-0.0433896
-0.0100595
-0.0130413
-0.0118722
-0.0123101
-0.0109579
-0.0109387
-0.0119798
-0.0164616
-0.0273651
-0.04715
-0.073925
-0.0858984
-0.0752892
-0.0637379
-0.0684384
-0.0638076
-0.056069
-0.0480394
-0.0430247
-0.0418229
-0.016385
-0.0283556
-0.0232864
-0.0415819
-0.0285701
-0.0254149
-0.0276598
-0.0273152
-0.0380293
-0.0476894
-0.0513738
-0.0528916
-0.0596811
-0.0669632
-0.0701195
-0.074213
-0.0837972
-0.0863553
-0.0833032
-0.0767845
-0.0148438
-0.0426003
-0.0353924
-0.0365419
-0.0329222
-0.0343613
-0.0540175
-0.0650898
-0.0619377
-0.0644786
-0.0627761
-0.0675689
-0.0727206
-0.0743741
-0.0571107
-0.0556043
-0.0659885
-0.0739812
-0.0771946
-0.0777648
-0.0068731
-0.0151113
-0.0243754
-0.0264819
-0.0300424
-0.03042
-0.0457632
-0.0671013
-0.0717495
-0.0724144
-0.070763
-0.06698
-0.0599534
-0.0526568
-0.052003
-0.0558329
-0.0584429
-0.0595881
-0.0600144
-0.0612162
-0.00273789
-0.00713979
-0.011041
-0.0118212
-0.0134147
-0.0167305
-0.028499
-0.037776
-0.0471098
-0.0550597
-0.0611099
-0.0668866
-0.0701026
-0.0736687
-0.0792109
-0.0827223
-0.083576
-0.080628
-0.0754992
-0.0718501
-0.0091373
-0.015759
-0.0250603
-0.0239887
-0.0212611
-0.0199376
-0.0277201
-0.0371271
-0.0506667
-0.0627691
-0.0748207
-0.0821055
-0.0831056
-0.080825
-0.0738403
-0.0681231
-0.065314
-0.0654175
-0.0678586
-0.0727234
-0.000930931
-0.00642528
-0.0143697
-0.0200781
-0.0217434
-0.0220106
-0.0278499
-0.0383541
-0.0520676
-0.0656638
-0.0819393
-0.0920104
-0.101439
-0.105926
-0.10622
-0.0977685
-0.0830267
-0.0710026
-0.0647026
-0.0649325
-0.00475976
-0.0107188
-0.0158283
-0.0211485
-0.0314074
-0.0396621
-0.0513666
-0.0620145
-0.0736186
-0.076847
-0.0790359
-0.0767173
-0.0826728
-0.0888194
-0.0961872
-0.0925994
-0.0781944
-0.063043
-0.0538286
-0.0513425
-0.0180166
-0.020262
-0.0291523
-0.0444883
-0.0613387
-0.0752558
-0.0872739
-0.0863544
-0.0781136
-0.0615712
-0.0519174
-0.0485108
-0.050604
-0.0525888
-0.0523199
-0.0493948
-0.0454787
-0.0419872
-0.0396406
-0.0386339
-0.00748416
-0.027152
-0.0238319
-0.0302138
-0.0405189
-0.0556213
-0.0783555
-0.0864377
-0.0869924
-0.0781673
-0.0735383
-0.0669158
-0.0598473
-0.0549785
-0.0517643
-0.0490564
-0.0465507
-0.0442827
-0.0424041
-0.04097
-0.0220427
-0.0214444
-0.0140564
-0.0103426
-0.00959627
-0.0139415
-0.0244772
-0.0373633
-0.0518778
-0.0708983
-0.0965272
-0.123808
-0.14725
-0.167866
-0.186143
-0.201578
-0.212095
-0.217754
-0.216459
-0.211716
-0.0157559
-0.011617
-0.00873456
-0.00729395
-0.00715699
-0.0076818
-0.00985567
-0.0107789
-0.0122893
-0.0132815
-0.0155895
-0.0181026
-0.0207837
-0.0231598
-0.0255781
-0.0276631
-0.0300184
-0.032372
-0.035134
-0.037951
-0.0131543
-0.00850196
-0.00842649
-0.0113062
-0.0157179
-0.0151998
-0.0174385
-0.0170526
-0.0186703
-0.020554
-0.0242375
-0.02859
-0.0342409
-0.0403137
-0.0466934
-0.0527905
-0.0577711
-0.0609198
-0.0614095
-0.0599079
-0.00808498
-0.00939307
-0.012213
-0.0146423
-0.018739
-0.0221849
-0.0264496
-0.0261952
-0.0262486
-0.0256266
-0.0266401
-0.0283391
-0.0314535
-0.0351765
-0.0393611
-0.0434676
-0.0469593
-0.0490286
-0.0491158
-0.0448643
-0.041851
-0.0174608
-0.00673322
-0.00683112
-0.00766489
-0.00955505
-0.0129899
-0.016601
-0.0199134
-0.0203926
-0.019826
-0.0190828
-0.0198651
-0.0220711
-0.0253123
-0.0292708
-0.0336951
-0.0379651
-0.0414031
-0.0393596
-0.0102096
-0.00929327
-0.0061411
-0.00485311
-0.00489527
-0.0056843
-0.00699448
-0.00891243
-0.0106293
-0.0118435
-0.0126799
-0.0132496
-0.0141636
-0.0156076
-0.0178426
-0.0209275
-0.0252144
-0.0303989
-0.0364934
-0.0379685
-0.0191315
-0.0167027
-0.00728563
-0.00505265
-0.00500779
-0.00504161
-0.00573128
-0.00645367
-0.00761871
-0.00900697
-0.0107515
-0.0126831
-0.0151734
-0.017524
-0.0195777
-0.0212921
-0.0242524
-0.0297975
-0.0384646
-0.0442647
-0.00403036
-0.00606419
-0.00620859
-0.00586721
-0.00598144
-0.00548448
-0.00561927
-0.00674305
-0.00945154
-0.0132305
-0.018737
-0.0249081
-0.0307189
-0.0328318
-0.0292428
-0.0248602
-0.0241308
-0.0275041
-0.0338954
-0.0412305
-0.0140537
-0.0106125
-0.00837773
-0.00683426
-0.00599732
-0.00573202
-0.00592358
-0.00756788
-0.0103185
-0.015601
-0.0221133
-0.0304507
-0.0349359
-0.0297686
-0.014765
-0.0152066
-0.0181161
-0.022537
-0.0282667
-0.0345046
-0.00627443
-0.00651341
-0.00826756
-0.00801322
-0.00696645
-0.00654174
-0.00642461
-0.00840166
-0.0125932
-0.0193211
-0.0282804
-0.0371398
-0.0379287
-0.0246236
-0.0122309
-0.0136552
-0.0149323
-0.0171653
-0.0204565
-0.0243327
-0.00502578
-0.00790225
-0.0093302
-0.00899295
-0.00846384
-0.00858418
-0.00919106
-0.0126421
-0.0187297
-0.0267764
-0.031169
-0.0284812
-0.0262376
-0.028115
-0.0325865
-0.030141
-0.0253589
-0.021866
-0.0203174
-0.0206143
-0.0122913
-0.0131222
-0.0111451
-0.0184171
-0.0164965
-0.0181933
-0.0199114
-0.0214633
-0.0249746
-0.0254863
-0.0253531
-0.0268745
-0.0296932
-0.0332788
-0.0417353
-0.044804
-0.045292
-0.0427728
-0.0391476
-0.0357623
-0.00361774
-0.0163767
-0.0112266
-0.0156305
-0.0183239
-0.0222991
-0.028421
-0.0357735
-0.0369693
-0.0358759
-0.0355323
-0.0370542
-0.0351987
-0.0310163
-0.0303295
-0.0318279
-0.0353923
-0.0380644
-0.0394283
-0.0399433
-0.00228853
-0.00437928
-0.00639509
-0.0102036
-0.0148598
-0.0181768
-0.0260271
-0.0342687
-0.0327261
-0.0312389
-0.0275674
-0.0245157
-0.0222548
-0.0218408
-0.0235396
-0.0252588
-0.0269775
-0.028722
-0.0305033
-0.0321484
-0.000617845
-0.00276791
-0.00453385
-0.00614031
-0.00913794
-0.0127098
-0.0185693
-0.0207436
-0.0216159
-0.0230662
-0.0239032
-0.0248904
-0.0254772
-0.0261357
-0.0274694
-0.0283446
-0.0289001
-0.0292656
-0.0297846
-0.0306738
-0.00137529
-0.00663096
-0.0098203
-0.00962859
-0.0117584
-0.0157933
-0.0204317
-0.0233265
-0.0264375
-0.0282143
-0.029763
-0.0294058
-0.0275704
-0.0256266
-0.0240566
-0.0236642
-0.0244421
-0.0259818
-0.0280282
-0.0304909
-0.000535276
-0.00384644
-0.00794441
-0.0105541
-0.0138612
-0.0188208
-0.024221
-0.0279561
-0.0322647
-0.0345895
-0.0383413
-0.0382373
-0.037429
-0.0341347
-0.0305338
-0.0267413
-0.0240754
-0.0231644
-0.0237465
-0.0254362
-0.00128438
-0.00642815
-0.0111072
-0.0166841
-0.024767
-0.0299293
-0.0350251
-0.0351245
-0.0362063
-0.0335119
-0.0327204
-0.0312444
-0.0314179
-0.0299474
-0.0282128
-0.025047
-0.0219953
-0.0201814
-0.019529
-0.019763
-0.0172069
-0.0169002
-0.0170802
-0.0304176
-0.0447056
-0.0493101
-0.0497938
-0.0398521
-0.0312849
-0.0255536
-0.0242345
-0.024255
-0.024275
-0.023764
-0.0227547
-0.0214968
-0.0202582
-0.0192178
-0.0184681
-0.0180243
-0.00293434
-0.00935384
-0.00924808
-0.0127554
-0.0224265
-0.0295416
-0.0391039
-0.0366417
-0.0351344
-0.0337918
-0.0356228
-0.0367312
-0.0373908
-0.0376628
-0.0374251
-0.036303
-0.034348
-0.0318742
-0.0292624
-0.0273813
-0.00748914
-0.00445353
-0.00451755
-0.00511997
-0.00653873
-0.01164
-0.0203248
-0.029963
-0.042168
-0.0574166
-0.0747406
-0.0897222
-0.101264
-0.111662
-0.121532
-0.129812
-0.134641
-0.135304
-0.131231
-0.124809
-0.00207327
-0.00552735
-0.00537066
-0.00461296
-0.00464342
-0.00538336
-0.006827
-0.0079815
-0.00931994
-0.010274
-0.0113587
-0.0123216
-0.0135409
-0.0148433
-0.016502
-0.0183724
-0.0207408
-0.0236015
-0.0270598
-0.0313503
-0.00872116
-0.00591556
-0.00583564
-0.00689629
-0.00796773
-0.00819137
-0.00978428
-0.0107353
-0.0124824
-0.0139104
-0.0156756
-0.0171249
-0.0188809
-0.0204476
-0.0221659
-0.0238161
-0.0252449
-0.0264365
-0.0272984
-0.0283483
-0.00629982
-0.0084373
-0.0102308
-0.0103242
-0.0106937
-0.0104611
-0.011534
-0.0116954
-0.0129168
-0.0143164
-0.0162007
-0.0178444
-0.019379
-0.0204526
-0.0212497
-0.0216897
-0.0219128
-0.0217993
-0.0214187
-0.0204581
-0.011197
-0.00883985
-0.00697694
-0.0064594
-0.00602883
-0.00648011
-0.00772784
-0.00898475
-0.0104323
-0.0114777
-0.0124306
-0.0133404
-0.0142288
-0.0151729
-0.0161604
-0.0171979
-0.0182376
-0.0189947
-0.0194023
-0.0185954
-0.00599521
-0.00514066
-0.00407984
-0.00349572
-0.0035105
-0.00421388
-0.0052149
-0.00647299
-0.0075291
-0.00843897
-0.0091048
-0.00979718
-0.0106122
-0.0116942
-0.0130415
-0.0145903
-0.016299
-0.0178478
-0.019192
-0.0191601
-0.00593567
-0.00670203
-0.00534188
-0.00330322
-0.00290886
-0.00346966
-0.00442895
-0.00541081
-0.00628112
-0.00702832
-0.00774279
-0.00850662
-0.00955705
-0.0108037
-0.0123633
-0.0142174
-0.0165397
-0.0192446
-0.0222367
-0.0238265
-0.00264947
-0.00588528
-0.00562734
-0.00402381
-0.0033485
-0.00342943
-0.00457423
-0.00580014
-0.00726691
-0.00861463
-0.0102036
-0.0117688
-0.0130606
-0.0135994
-0.0137999
-0.0148744
-0.0171129
-0.0201028
-0.0234769
-0.0265784
-0.00591009
-0.00826433
-0.00712004
-0.00507019
-0.00419497
-0.00435458
-0.00497741
-0.00672728
-0.00794257
-0.00965678
-0.0109732
-0.0122202
-0.0120395
-0.0109411
-0.0116835
-0.0136503
-0.016054
-0.0187571
-0.02172
-0.0244696
-0.0046467
-0.00473713
-0.00594556
-0.00589546
-0.00557329
-0.00541774
-0.00548123
-0.00755849
-0.00959542
-0.0115866
-0.0126252
-0.0123744
-0.0105215
-0.00894835
-0.00958499
-0.0117866
-0.0134257
-0.015428
-0.0177716
-0.0200146
-0.00134764
-0.00375589
-0.00556795
-0.00624964
-0.00727303
-0.00759736
-0.00777115
-0.00937541
-0.0111528
-0.012716
-0.0135413
-0.0144356
-0.0151468
-0.0154229
-0.0154531
-0.015087
-0.0142154
-0.0143224
-0.0152433
-0.0165627
-0.00282755
-0.00566122
-0.00725816
-0.0115327
-0.0126558
-0.0148504
-0.0156325
-0.0159157
-0.0158377
-0.016204
-0.0182228
-0.0208706
-0.0233511
-0.0265424
-0.028643
-0.0256408
-0.0247171
-0.0234467
-0.0221907
-0.0211245
-0.00344601
-0.0060899
-0.00673786
-0.0114276
-0.0138792
-0.0164596
-0.0183301
-0.0224147
-0.0212503
-0.0195268
-0.0188342
-0.0189883
-0.0198272
-0.0216119
-0.0223416
-0.0220479
-0.0233491
-0.0236404
-0.0230139
-0.0219718
-0.000384981
-0.00193173
-0.00422278
-0.00866766
-0.0117322
-0.012712
-0.0161536
-0.0171839
-0.0155232
-0.0150553
-0.0144799
-0.0145062
-0.0147371
-0.015375
-0.015613
-0.0163446
-0.0169163
-0.0172583
-0.0174612
-0.0175236
-0.000271124
-0.00161275
-0.00312079
-0.00553746
-0.00815852
-0.0099485
-0.0119379
-0.0124026
-0.0126207
-0.0131487
-0.0134936
-0.0138607
-0.0142485
-0.0146184
-0.0151984
-0.015627
-0.0160319
-0.0164378
-0.0168643
-0.0173688
-0.000702311
-0.00341691
-0.00545519
-0.00707925
-0.00961744
-0.0114439
-0.0127506
-0.0134964
-0.0141841
-0.0143788
-0.0144415
-0.0140365
-0.0136547
-0.0134812
-0.0136475
-0.0140609
-0.0146788
-0.0153467
-0.0160645
-0.0168786
-0.000457375
-0.00288369
-0.00559472
-0.00831521
-0.0116495
-0.0137238
-0.0156049
-0.0160487
-0.0172532
-0.0172079
-0.0175891
-0.0164317
-0.015444
-0.0142774
-0.0135892
-0.013177
-0.0131042
-0.0132459
-0.013554
-0.0140483
-0.00170923
-0.00592136
-0.00858645
-0.0130709
-0.017503
-0.0180409
-0.0192087
-0.0180451
-0.0180417
-0.0171748
-0.0167052
-0.0157732
-0.0150346
-0.0141173
-0.0134124
-0.0127939
-0.0123918
-0.0121943
-0.0121271
-0.012207
-0.00280768
-0.00849892
-0.0104911
-0.0204361
-0.0273383
-0.0260677
-0.0236772
-0.0197557
-0.0183935
-0.0187312
-0.0193237
-0.0195912
-0.0191753
-0.018367
-0.0173144
-0.0163039
-0.0155142
-0.0150275
-0.014837
-0.0148222
-0.000800091
-0.00278207
-0.00444442
-0.0075658
-0.0126797
-0.0168111
-0.0216791
-0.0234601
-0.0263592
-0.0296427
-0.0331242
-0.0353874
-0.0367203
-0.0367886
-0.0358419
-0.0337462
-0.0310972
-0.0283178
-0.0259058
-0.0243755
-0.00064888
-0.00154647
-0.00297316
-0.00400907
-0.00579835
-0.0109469
-0.0188934
-0.0271812
-0.0368357
-0.0465634
-0.056429
-0.0642651
-0.0706541
-0.0763344
-0.0809385
-0.0833971
-0.0829262
-0.0795665
-0.0738499
-0.06778
-0.0040428
-0.00426492
-0.00372896
-0.00391874
-0.00479381
-0.0058471
-0.00702472
-0.00796997
-0.00895442
-0.00987682
-0.0109447
-0.0121485
-0.0135387
-0.0151415
-0.0169754
-0.0190978
-0.0215007
-0.0243292
-0.0274116
-0.0313564
-0.00225484
-0.00381549
-0.00489081
-0.00567301
-0.00633337
-0.00728264
-0.00842153
-0.00912104
-0.0098978
-0.0103302
-0.0108378
-0.0112309
-0.0117201
-0.0121586
-0.0127165
-0.0132743
-0.0138347
-0.0144473
-0.0150315
-0.0158405
-0.0011623
-0.00352966
-0.00672635
-0.00737001
-0.0071907
-0.00755094
-0.00857018
-0.00950037
-0.0104448
-0.0110414
-0.011565
-0.0118079
-0.0120293
-0.0120684
-0.0121205
-0.0121314
-0.0122022
-0.0123198
-0.0125318
-0.0127863
-0.00301681
-0.0059154
-0.00494774
-0.00491388
-0.00545812
-0.00663094
-0.0077109
-0.00875326
-0.00949951
-0.0101035
-0.0105479
-0.010895
-0.0111543
-0.0113391
-0.0114795
-0.0116134
-0.0118012
-0.0120331
-0.0123661
-0.012643
-0.00448056
-0.0031231
-0.00263346
-0.00325883
-0.00420705
-0.00544633
-0.00642648
-0.00745898
-0.00818088
-0.00894176
-0.00956513
-0.0101561
-0.0106451
-0.0110322
-0.0113502
-0.0116036
-0.0118849
-0.0121665
-0.0125321
-0.0127799
-0.00204943
-0.00316041
-0.00242891
-0.00258637
-0.0034748
-0.00459659
-0.00548457
-0.00642344
-0.00724317
-0.00812991
-0.00896138
-0.00977644
-0.0105424
-0.0112406
-0.0118832
-0.0124222
-0.0129364
-0.0134165
-0.0139372
-0.0141795
-0.00185904
-0.00294282
-0.00274922
-0.00275182
-0.0032931
-0.0041737
-0.00519797
-0.0061431
-0.00708019
-0.00800737
-0.00892236
-0.00981665
-0.0106784
-0.0114996
-0.012312
-0.0131009
-0.0138267
-0.0144563
-0.0150147
-0.0154486
-0.00123328
-0.00374089
-0.003104
-0.00330321
-0.00407374
-0.00467513
-0.0051077
-0.00600656
-0.00664607
-0.00736236
-0.00806957
-0.00882262
-0.00967587
-0.0105877
-0.0117666
-0.0123985
-0.0129506
-0.0133999
-0.0138099
-0.0141523
-0.0009601
-0.00390144
-0.00356162
-0.00364802
-0.00490383
-0.00517232
-0.00526343
-0.0059785
-0.00651166
-0.00701602
-0.00756084
-0.008175
-0.00892816
-0.009745
-0.0107565
-0.011421
-0.0118295
-0.0121253
-0.0123781
-0.01261
-0.00079774
-0.00317479
-0.00373185
-0.00543974
-0.00702795
-0.00714978
-0.00677321
-0.00744577
-0.00845323
-0.00942793
-0.0100868
-0.0103347
-0.0102919
-0.0102273
-0.0106604
-0.011049
-0.0110407
-0.0110837
-0.0111864
-0.0113471
-0.00138575
-0.00281892
-0.00529176
-0.0086216
-0.00987742
-0.0113559
-0.0114911
-0.0118797
-0.0124155
-0.013291
-0.0143449
-0.0150731
-0.0154665
-0.0158708
-0.0149686
-0.0126463
-0.0119097
-0.0113921
-0.0111501
-0.0111465
-0.00172463
-0.00290763
-0.00524744
-0.00887172
-0.0102045
-0.0116294
-0.011736
-0.0129299
-0.0128926
-0.0132056
-0.0134617
-0.0136725
-0.0141696
-0.015165
-0.0139927
-0.0113812
-0.0109658
-0.0107023
-0.010686
-0.0109498
-0.00114374
-0.00223218
-0.00474565
-0.00797829
-0.00919324
-0.00967292
-0.0103698
-0.0106954
-0.0104555
-0.0105274
-0.0103204
-0.0102907
-0.0101726
-0.0101607
-0.00958967
-0.00970036
-0.00988502
-0.0102086
-0.0106718
-0.0112512
-0.00111035
-0.00237131
-0.00398692
-0.00611745
-0.00764301
-0.00855668
-0.00927777
-0.00923962
-0.00922117
-0.00914712
-0.00910515
-0.00907747
-0.00908974
-0.00916314
-0.00936343
-0.00962957
-0.010025
-0.0105665
-0.0112284
-0.011959
-0.00175204
-0.00333202
-0.00508722
-0.00656669
-0.00787801
-0.00871742
-0.00919262
-0.00924989
-0.00920129
-0.00901477
-0.00891253
-0.00877737
-0.0087561
-0.0088369
-0.00907171
-0.00944396
-0.00996276
-0.010618
-0.0114005
-0.0122149
-0.00133166
-0.00320413
-0.00540136
-0.00718816
-0.0085767
-0.00936215
-0.00987152
-0.00987585
-0.009849
-0.00956823
-0.00940158
-0.00908839
-0.0089456
-0.00890453
-0.00905388
-0.00935962
-0.00984441
-0.0104983
-0.0112914
-0.0120838
-0.00122156
-0.00440071
-0.00655454
-0.00880066
-0.0102015
-0.0107637
-0.010969
-0.0108158
-0.0105431
-0.0102379
-0.00989421
-0.00965388
-0.00947259
-0.00942978
-0.00951382
-0.00976225
-0.0101838
-0.0107828
-0.0115189
-0.0122381
-0.00625238
-0.00557192
-0.0066212
-0.011265
-0.0134207
-0.0135309
-0.0133154
-0.01315
-0.0129767
-0.0131715
-0.0129598
-0.0127804
-0.0123426
-0.0120028
-0.0117119
-0.0115607
-0.0115405
-0.011662
-0.0119473
-0.0123171
-0.00202065
-0.00280287
-0.00289646
-0.00604476
-0.011141
-0.0153052
-0.0183975
-0.0203877
-0.0224462
-0.0239545
-0.0248013
-0.0244454
-0.0233462
-0.0217153
-0.0201006
-0.0187973
-0.0179557
-0.0175307
-0.0173811
-0.01738
-0.000695805
-0.000946065
-0.00153789
-0.00282837
-0.00545548
-0.0115645
-0.0189045
-0.0248562
-0.0308961
-0.0357658
-0.0403602
-0.0430504
-0.0442597
-0.0436508
-0.0413656
-0.0376317
-0.033141
-0.0287636
-0.0252847
-0.0234977
-0.0308891
-0.0240959
-0.0245954
-0.0167615
-0.0161991
-0.0169527
-0.0179325
-0.0294169
-0.0245318
-0.0250239
-0.01609
-0.0163076
-0.0185394
-0.0207544
-0.0253314
-0.0359858
-0.0354287
-0.018283
-0.0189311
-0.0229307
-0.0218381
-0.026269
-0.0355805
-0.0364794
-0.0194527
-0.0213815
-0.0216689
-0.0214975
-0.0965705
-0.0902847
-0.094346
-0.0753585
-0.0767465
-0.0674772
-0.0700814
-0.0931187
-0.094925
-0.0963064
-0.0747911
-0.0638528
-0.0703609
-0.0652778
-0.0914436
-0.0970174
-0.100901
-0.0611678
-0.0589597
-0.0653738
-0.0750528
-0.0931923
-0.102513
-0.106034
-0.0599673
-0.0665528
-0.0800452
-0.0965702
-0.0972056
-0.106704
-0.108333
-0.0703168
-0.0846761
-0.101847
-0.114046
-0.103655
-0.108897
-0.110215
-0.0900746
-0.103509
-0.116591
-0.119158
-0.112423
-0.110343
-0.108812
-0.107014
-0.111642
-0.118314
-0.111341
-0.111213
-0.107736
-0.104034
-0.109996
-0.0922673
-0.108239
-0.100584
-0.096346
-0.101716
-0.0983704
-0.0738785
-0.0699625
-0.0837953
-0.0715198
-0.099112
-0.0984645
-0.101063
-0.0690967
-0.0672674
-0.0695302
-0.0721975
-0.105056
-0.10185
-0.101642
-0.0697031
-0.0850255
-0.0758067
-0.0893935
-0.108773
-0.10096
-0.0990696
-0.0909241
-0.106351
-0.0934934
-0.0995029
-0.109768
-0.0986128
-0.0973433
-0.110283
-0.117725
-0.0999391
-0.0983702
-0.109213
-0.0968592
-0.0951828
-0.118777
-0.117565
-0.0976598
-0.0964156
-0.106264
-0.0947161
-0.0940371
-0.115673
-0.107866
-0.0955425
-0.0927938
-0.101762
-0.0938102
-0.0917845
-0.105949
-0.10526
-0.0930453
-0.0977935
-0.100034
-0.114023
-0.103489
-0.0958411
-0.0779599
-0.107364
-0.0983649
-0.100159
-0.101213
-0.0972651
-0.0746847
-0.0738393
-0.096054
-0.0903412
-0.0990854
-0.0963195
-0.0935753
-0.0760826
-0.0853348
-0.0892137
-0.0908294
-0.0962228
-0.0928502
-0.0912494
-0.0880993
-0.0921554
-0.0918116
-0.0937327
-0.094272
-0.0907195
-0.0889486
-0.0922264
-0.0907719
-0.0943664
-0.0962641
-0.0921754
-0.0885078
-0.0876662
-0.0906482
-0.0922484
-0.09659
-0.0961601
-0.0913382
-0.0872221
-0.0843953
-0.0926935
-0.0928347
-0.0954824
-0.0928287
-0.0889365
-0.0832947
-0.082099
-0.0933586
-0.0969001
-0.0922735
-0.0919857
-0.105104
-0.132781
-0.121903
-0.114073
-0.102103
-0.130943
-0.11972
-0.0966772
-0.116189
-0.106155
-0.0995107
-0.0942661
-0.114688
-0.107741
-0.0923425
-0.104539
-0.100652
-0.092733
-0.0921318
-0.10636
-0.101764
-0.0885455
-0.0991895
-0.0977161
-0.0921826
-0.0909333
-0.100261
-0.100054
-0.0840926
-0.0981496
-0.101377
-0.0905133
-0.090322
-0.100827
-0.103389
-0.0807832
-0.103182
-0.111434
-0.0901757
-0.0892009
-0.10488
-0.112762
-0.0786243
-0.116003
-0.131554
-0.088852
-0.0892423
-0.116585
-0.126998
-0.0833507
-0.139064
-0.161948
-0.0900674
-0.0928814
-0.130537
-0.13707
-0.0100606
-0.0097462
-0.0125414
-0.00866781
-0.00958625
-0.00916211
-0.0119652
-0.0126576
-0.0140583
-0.0203119
-0.0101207
-0.0124909
-0.0133721
-0.018832
-0.0184371
-0.0229868
-0.0340095
-0.0137397
-0.0192495
-0.0212632
-0.0302472
-0.0299941
-0.0391354
-0.0595712
-0.0218452
-0.0308061
-0.0333086
-0.0403589
-0.0508172
-0.0674078
-0.0871394
-0.0341995
-0.0441382
-0.0417162
-0.0423103
-0.0815293
-0.0910628
-0.0919123
-0.0471614
-0.0527291
-0.0414071
-0.0366633
-0.0933684
-0.0884303
-0.0713476
-0.0524454
-0.0426275
-0.0348441
-0.0308506
-0.0607093
-0.0657703
-0.0574486
-0.0371604
-0.0222843
-0.0302301
-0.0297289
-0.0147189
-0.0160921
-0.0205732
-0.0111519
-0.0137758
-0.0157354
-0.0199358
-0.0240626
-0.0227467
-0.0315243
-0.0153321
-0.021781
-0.021699
-0.0278746
-0.0410227
-0.0348575
-0.0443744
-0.0245956
-0.033659
-0.0298989
-0.0340926
-0.0677077
-0.0474892
-0.0550539
-0.0361795
-0.0404388
-0.0345804
-0.0339319
-0.0851696
-0.0563389
-0.05618
-0.040677
-0.0384515
-0.0333094
-0.031274
-0.0794717
-0.0561443
-0.0578326
-0.0371675
-0.0337539
-0.0310387
-0.0323222
-0.0648696
-0.0586293
-0.0623487
-0.0331122
-0.0334947
-0.0331076
-0.0365
-0.0675076
-0.0645258
-0.0741904
-0.0343136
-0.0375776
-0.0381475
-0.0455578
-0.026056
-0.0500901
-0.0557142
-0.0245793
-0.0256024
-0.0363684
-0.0402899
-0.0349118
-0.0551875
-0.055659
-0.0268893
-0.0317472
-0.0413931
-0.0441582
-0.0459298
-0.0572238
-0.0624484
-0.0332449
-0.0358783
-0.0447207
-0.0453583
-0.0509434
-0.0635913
-0.065499
-0.0358509
-0.0344448
-0.0451964
-0.0443726
-0.0520381
-0.0663696
-0.0718226
-0.0337798
-0.032326
-0.0442682
-0.0446317
-0.0577938
-0.0740595
-0.0777436
-0.0323712
-0.0335919
-0.0447472
-0.0437983
-0.0650233
-0.077693
-0.0758883
-0.0341594
-0.0362408
-0.0429446
-0.039543
-0.0737946
-0.0753132
-0.0724662
-0.0372735
-0.0426938
-0.0384442
-0.0366015
-0.0656836
-0.0478814
-0.0646444
-0.0373464
-0.0414291
-0.0356496
-0.042859
-0.0618653
-0.0684974
-0.0736383
-0.0421982
-0.0437927
-0.0447513
-0.0474978
-0.0641904
-0.0738592
-0.0726076
-0.0440389
-0.0437843
-0.0472966
-0.0450488
-0.0631105
-0.0720838
-0.0703292
-0.0433876
-0.0423503
-0.0443079
-0.0433894
-0.0656277
-0.0696105
-0.0683345
-0.0423469
-0.0433636
-0.0429799
-0.0417905
-0.0720248
-0.0686717
-0.07096
-0.0437761
-0.0437253
-0.0412497
-0.0391033
-0.0741173
-0.0711077
-0.068184
-0.043089
-0.0397022
-0.0379896
-0.0347228
-0.0712018
-0.0655735
-0.0550171
-0.0383539
-0.0353945
-0.0338798
-0.0328785
-0.00760553
-0.00745114
-0.00988965
-0.00636235
-0.00785155
-0.00739608
-0.0100438
-0.0113379
-0.0111321
-0.0154909
-0.00871732
-0.011454
-0.0111542
-0.0143509
-0.0173111
-0.0171523
-0.023236
-0.0124895
-0.0157759
-0.0152754
-0.0169289
-0.0258983
-0.025604
-0.0316636
-0.0168096
-0.018928
-0.0170142
-0.0164229
-0.0352424
-0.0327521
-0.0324855
-0.0192662
-0.0190046
-0.0161198
-0.0153526
-0.0391964
-0.0314733
-0.0274562
-0.0185291
-0.0160373
-0.015182
-0.0149023
-0.028712
-0.0261679
-0.0236693
-0.0149217
-0.0115474
-0.014864
-0.0147696
-0.0150543
-0.0233447
-0.0231308
-0.0107482
-0.00960338
-0.0147207
-0.0143894
-0.0114007
-0.0130703
-0.0160933
-0.00901224
-0.011292
-0.0133084
-0.0158924
-0.0170576
-0.0171995
-0.0205339
-0.0123304
-0.0151992
-0.0164388
-0.0171037
-0.0246744
-0.0215053
-0.0237383
-0.0159293
-0.0168476
-0.0170854
-0.0167844
-0.022457
-0.0286186
-0.0267382
-0.0226055
-0.0280242
-0.0233562
-0.0220316
-0.0223275
-0.0309199
-0.029098
-0.0239301
-0.0286162
-0.0235876
-0.0225562
-0.0264332
-0.0255452
-0.0281128
-0.0165224
-0.017311
-0.0215657
-0.0238236
-0.0273262
-0.0291537
-0.0328869
-0.0175768
-0.018281
-0.0245606
-0.0270896
-0.0306789
-0.0344886
-0.0411351
-0.0184647
-0.0186086
-0.028106
-0.0315149
-0.0206269
-0.029063
-0.0341427
-0.019287
-0.0197883
-0.0249172
-0.0267004
-0.0242768
-0.0350823
-0.0364459
-0.0199697
-0.0195773
-0.0268077
-0.0259158
-0.025845
-0.0366384
-0.0363314
-0.0192456
-0.0183014
-0.0253539
-0.0234873
-0.0253712
-0.0256168
-0.0298072
-0.0224707
-0.02951
-0.0223062
-0.0258137
-0.0254902
-0.0254884
-0.0290388
-0.0231817
-0.029147
-0.0236701
-0.0252251
-0.0289875
-0.0366017
-0.0354396
-0.0220936
-0.0241886
-0.0214764
-0.0216826
-0.0321278
-0.0345787
-0.0318942
-0.0249216
-0.0275802
-0.0219584
-0.0236368
-0.0388818
-0.0313448
-0.0318973
-0.0286835
-0.0324856
-0.024458
-0.0274301
-0.0347394
-0.0253421
-0.0341089
-0.0241396
-0.0263286
-0.0226822
-0.0255589
-0.0369723
-0.0360696
-0.0370139
-0.02653
-0.0258589
-0.0256107
-0.0242154
-0.0362791
-0.0367488
-0.0352954
-0.0253785
-0.02375
-0.0236454
-0.0221397
-0.0353154
-0.0346698
-0.0326491
-0.0232451
-0.022154
-0.0216049
-0.0202496
-0.0367934
-0.032026
-0.0305725
-0.0219476
-0.0215398
-0.0198258
-0.0189146
-0.0361025
-0.0299368
-0.0273056
-0.0214067
-0.0211787
-0.018694
-0.0184211
-0.0319056
-0.0262855
-0.0238906