/*--------------------------------*- C++ -*----------------------------------*\
  =========                 |
  \\      /  F ield         | OpenFOAM: The Open Source CFD Toolbox
   \\    /   O peration     | Website:  https://openfoam.org
    \\  /    A nd           | Version:  10
     \\/     M anipulation  |
\*---------------------------------------------------------------------------*/
FoamFile
{
    format      ascii;
    class       volScalarField;
    location    "7.7";
    object      turbidity;
}
// * * * * * * * * * * * * * * * * * * * * * * * * * * * * * * * * * * * * * //

dimensions      [0 0 0 0 0 0 0];

internalField   nonuniform List<scalar> 
12920
(
-0.0128112
-0.0321299
-0.0455477
-0.0509968
-0.0549146
-0.0628464
-0.0793573
-0.103026
-0.13291
-0.166265
-0.196411
-0.224731
-0.25404
-0.282242
-0.307336
-0.326026
-0.340024
-0.35075
-0.361191
-0.369722
-0.0204134
-0.0518147
-0.0695807
-0.0961654
-0.111599
-0.12777
-0.142543
-0.15892
-0.17977
-0.204329
-0.23128
-0.259236
-0.286574
-0.311344
-0.333095
-0.353174
-0.372848
-0.393509
-0.415714
-0.439469
-0.0315094
-0.0372236
-0.0487135
-0.0703615
-0.0954487
-0.125004
-0.154446
-0.180348
-0.203358
-0.225146
-0.246286
-0.266011
-0.283376
-0.299038
-0.314166
-0.330536
-0.349617
-0.373062
-0.401809
-0.436491
-0.0546392
-0.055086
-0.0586466
-0.0621524
-0.0704353
-0.0878323
-0.117394
-0.150595
-0.18101
-0.207789
-0.230086
-0.249061
-0.264793
-0.277795
-0.28962
-0.3044
-0.324085
-0.349594
-0.382286
-0.425227
-0.0560676
-0.0625669
-0.0635548
-0.0743264
-0.0850017
-0.096846
-0.115543
-0.136269
-0.158381
-0.178616
-0.19716
-0.214864
-0.231686
-0.247043
-0.261625
-0.277574
-0.297017
-0.322496
-0.355967
-0.402931
-0.0650066
-0.0476958
-0.0588555
-0.0860295
-0.106896
-0.12359
-0.139095
-0.153381
-0.166598
-0.178131
-0.189998
-0.202803
-0.217803
-0.234484
-0.252493
-0.271227
-0.289844
-0.30955
-0.336081
-0.371406
-0.0338766
-0.0362241
-0.0498749
-0.0741761
-0.0979282
-0.118151
-0.132044
-0.143001
-0.152402
-0.164684
-0.180518
-0.201357
-0.22393
-0.244879
-0.263401
-0.278996
-0.287835
-0.293389
-0.307786
-0.332106
-0.0342465
-0.0357869
-0.0455879
-0.0682086
-0.0887521
-0.108157
-0.109256
-0.106889
-0.106985
-0.108028
-0.115131
-0.126628
-0.14061
-0.147094
-0.143296
-0.161741
-0.180928
-0.202324
-0.23228
-0.274226
-0.0380907
-0.0439393
-0.0500238
-0.0611149
-0.0769721
-0.0826667
-0.0926095
-0.0961412
-0.0924161
-0.0915949
-0.0940092
-0.098496
-0.105767
-0.113638
-0.111545
-0.123687
-0.155687
-0.191589
-0.233043
-0.281092
-0.0345126
-0.0543709
-0.0683944
-0.0915642
-0.108737
-0.102941
-0.097808
-0.0965261
-0.100322
-0.106267
-0.109088
-0.109776
-0.108702
-0.10528
-0.108553
-0.139381
-0.174502
-0.209202
-0.244535
-0.281733
-0.043695
-0.0817849
-0.0959804
-0.118645
-0.139212
-0.124754
-0.10912
-0.0992677
-0.100398
-0.0982958
-0.095691
-0.0937808
-0.0917497
-0.0911651
-0.0948052
-0.13076
-0.170022
-0.210461
-0.247354
-0.280217
-0.0467709
-0.061225
-0.0801133
-0.106743
-0.133409
-0.12825
-0.118431
-0.102278
-0.0955841
-0.0914049
-0.0875934
-0.0831011
-0.0801714
-0.0787112
-0.104916
-0.166089
-0.202183
-0.240454
-0.275861
-0.305666
-0.0230712
-0.0440882
-0.0648604
-0.0878335
-0.114633
-0.141179
-0.142888
-0.133816
-0.13037
-0.125426
-0.133227
-0.143812
-0.167613
-0.192171
-0.270304
-0.308713
-0.338097
-0.362821
-0.379603
-0.392462
-0.0194807
-0.0435367
-0.064964
-0.0876261
-0.108449
-0.122992
-0.144129
-0.171267
-0.201388
-0.234483
-0.266336
-0.301944
-0.342245
-0.389034
-0.437455
-0.484907
-0.526973
-0.562597
-0.586238
-0.594688
-0.0245333
-0.0461454
-0.066082
-0.0872022
-0.107211
-0.120821
-0.137161
-0.152689
-0.177734
-0.2078
-0.246805
-0.296882
-0.361657
-0.432714
-0.503115
-0.564998
-0.616941
-0.659221
-0.691117
-0.711386
-0.0140813
-0.027005
-0.0438638
-0.063589
-0.0872808
-0.109728
-0.128231
-0.143574
-0.160231
-0.179473
-0.20639
-0.248292
-0.30655
-0.378362
-0.457931
-0.537468
-0.609788
-0.670324
-0.718799
-0.755383
-0.0199537
-0.0382951
-0.0575112
-0.0793606
-0.0990193
-0.116138
-0.131173
-0.147478
-0.16799
-0.197483
-0.234859
-0.278413
-0.326004
-0.379064
-0.440725
-0.511844
-0.586685
-0.656024
-0.715501
-0.76508
-0.0251026
-0.0632414
-0.0795076
-0.0974212
-0.111346
-0.128695
-0.152128
-0.181043
-0.211619
-0.243319
-0.273702
-0.303399
-0.337546
-0.377378
-0.424895
-0.474888
-0.525648
-0.575408
-0.624859
-0.673525
-0.0434334
-0.0556636
-0.0684974
-0.0793715
-0.0871999
-0.10074
-0.130017
-0.179637
-0.230037
-0.272871
-0.307294
-0.337768
-0.367403
-0.393665
-0.418115
-0.439391
-0.458697
-0.478077
-0.500243
-0.529011
-0.0280707
-0.0611313
-0.0616373
-0.0570061
-0.0543093
-0.0566867
-0.0658206
-0.0824292
-0.106575
-0.130255
-0.155975
-0.196938
-0.25299
-0.31018
-0.360236
-0.402674
-0.43939
-0.471753
-0.500933
-0.527605
-0.0188753
-0.0204957
-0.0175479
-0.0119512
-0.0114879
-0.0150094
-0.0238568
-0.02924
-0.0328214
-0.0259629
-0.022475
-0.0254912
-0.0315298
-0.0383248
-0.0452578
-0.0515847
-0.0581506
-0.0638771
-0.0693303
-0.0734439
-0.0130206
-0.0129379
-0.0148098
-0.0250165
-0.0387611
-0.0412783
-0.0465244
-0.043239
-0.0422529
-0.0388158
-0.0424441
-0.0499232
-0.0631633
-0.0792136
-0.0972164
-0.116056
-0.133681
-0.148344
-0.157559
-0.160333
-0.00652241
-0.0124866
-0.0156963
-0.0205578
-0.0336206
-0.0478843
-0.061721
-0.0662427
-0.0685448
-0.067451
-0.0678984
-0.0668962
-0.0676876
-0.0690299
-0.0736762
-0.0829779
-0.0963329
-0.111494
-0.12474
-0.123197
-0.028237
-0.0192365
-0.0124655
-0.0106923
-0.0109682
-0.015009
-0.0243995
-0.0376312
-0.0510523
-0.056995
-0.056754
-0.0489459
-0.0408961
-0.0356505
-0.0369631
-0.0448159
-0.0595175
-0.080408
-0.103857
-0.110462
-0.0359102
-0.0165326
-0.0100384
-0.00892958
-0.00855539
-0.0089704
-0.0111353
-0.0154703
-0.0207839
-0.0258219
-0.0300105
-0.0312205
-0.0312641
-0.0306952
-0.0325562
-0.0372075
-0.0467443
-0.0635655
-0.0895485
-0.104739
-0.0245181
-0.0102841
-0.00888785
-0.0120753
-0.0155165
-0.0164691
-0.0182896
-0.0162992
-0.0157199
-0.0163259
-0.0187597
-0.0227316
-0.029586
-0.0392859
-0.0494541
-0.0540743
-0.0553379
-0.0629797
-0.0847868
-0.106793
-0.00531543
-0.00691614
-0.00769298
-0.0102267
-0.0138046
-0.0145922
-0.0127162
-0.0115366
-0.0127061
-0.017134
-0.0263008
-0.0413101
-0.0633512
-0.0819831
-0.0823042
-0.0684165
-0.0542602
-0.0501453
-0.0572077
-0.0714538
-0.0124217
-0.00941335
-0.00815301
-0.00818452
-0.00892838
-0.00961082
-0.00978162
-0.00997161
-0.0118832
-0.017391
-0.0274577
-0.045802
-0.0705633
-0.0802463
-0.0378036
-0.0281484
-0.0269372
-0.0319315
-0.0424219
-0.0572906
-0.00996506
-0.00847245
-0.00801815
-0.00771973
-0.00764142
-0.00809628
-0.00907702
-0.0105258
-0.013624
-0.0206495
-0.0338803
-0.0577078
-0.0873621
-0.0891799
-0.0365746
-0.0247144
-0.0244275
-0.0276216
-0.0342158
-0.0432504
-0.0113071
-0.0133077
-0.0119214
-0.0123632
-0.0109635
-0.0109323
-0.011938
-0.0163517
-0.0271776
-0.046824
-0.0735974
-0.0858676
-0.07552
-0.0638039
-0.0683315
-0.0638784
-0.0562347
-0.0481906
-0.0431053
-0.0418418
-0.0173877
-0.0287616
-0.0236574
-0.0420759
-0.0287442
-0.0254678
-0.027693
-0.0272328
-0.0378567
-0.0476018
-0.0513754
-0.0528369
-0.0595539
-0.0668238
-0.0699622
-0.0739931
-0.0836602
-0.086339
-0.0833784
-0.0768995
-0.0147819
-0.0425252
-0.0357558
-0.0368809
-0.0333111
-0.0344191
-0.0539646
-0.0652909
-0.0619359
-0.0644665
-0.0627899
-0.0674319
-0.072678
-0.0743806
-0.0572618
-0.0554588
-0.0658148
-0.0738565
-0.0771472
-0.07777
-0.00630109
-0.0147756
-0.0241957
-0.0265209
-0.0302405
-0.0304189
-0.0455906
-0.0669828
-0.071739
-0.0724535
-0.0708313
-0.0670787
-0.0600936
-0.0528038
-0.052015
-0.0558121
-0.0584221
-0.0595813
-0.0600052
-0.0611979
-0.00274279
-0.00706463
-0.0110665
-0.0118779
-0.0134671
-0.0166805
-0.0283115
-0.0376328
-0.0469759
-0.0549737
-0.0610755
-0.0669254
-0.0701239
-0.0736796
-0.0791597
-0.0826735
-0.0835566
-0.0806677
-0.0755684
-0.0718974
-0.00927209
-0.0159293
-0.0250947
-0.0243016
-0.021603
-0.0199752
-0.0275876
-0.0369498
-0.0504304
-0.0625676
-0.0747007
-0.0821341
-0.0832169
-0.0809948
-0.074008
-0.0682462
-0.0653686
-0.0654194
-0.0678225
-0.0726534
-0.00089295
-0.00605668
-0.0139579
-0.0200838
-0.0220931
-0.0221888
-0.0277383
-0.038152
-0.0518018
-0.0654413
-0.081757
-0.0919517
-0.101433
-0.105948
-0.106319
-0.098006
-0.0832908
-0.0712036
-0.0648029
-0.0649322
-0.00461089
-0.0104648
-0.0156597
-0.0210257
-0.0313164
-0.0396055
-0.0512454
-0.0619073
-0.0735207
-0.076936
-0.0792293
-0.0768878
-0.082655
-0.0887352
-0.096125
-0.0926955
-0.0784327
-0.0632593
-0.053959
-0.0513761
-0.0187487
-0.0201631
-0.0290117
-0.0442205
-0.0611238
-0.0751059
-0.087249
-0.0866261
-0.0785304
-0.0620529
-0.0521906
-0.0486001
-0.050581
-0.0525514
-0.0523193
-0.0494366
-0.0455376
-0.0420385
-0.0396736
-0.0386456
-0.00742156
-0.027157
-0.0235891
-0.0299688
-0.0402608
-0.055292
-0.0780168
-0.0865111
-0.0873031
-0.0785211
-0.0737411
-0.067152
-0.0600409
-0.0550698
-0.0518137
-0.049095
-0.0465847
-0.0443114
-0.0424249
-0.0409831
-0.0226077
-0.0219986
-0.0143751
-0.0104304
-0.0095947
-0.0138082
-0.0242208
-0.0371068
-0.0515477
-0.0704441
-0.0959679
-0.123327
-0.146956
-0.167669
-0.185994
-0.201497
-0.212095
-0.217858
-0.216673
-0.211998
-0.0159175
-0.0116826
-0.00879757
-0.00732854
-0.00715459
-0.00766248
-0.00981261
-0.0107611
-0.0122978
-0.0132728
-0.0155562
-0.0180664
-0.02075
-0.0231325
-0.0255543
-0.0276456
-0.0300026
-0.0323556
-0.0351171
-0.0379266
-0.012819
-0.00844762
-0.00837642
-0.0112627
-0.0156366
-0.0152057
-0.0174587
-0.0170822
-0.0186849
-0.0205346
-0.0241896
-0.0285244
-0.0341579
-0.0402242
-0.0466057
-0.0527177
-0.0577267
-0.0609227
-0.0614633
-0.0599811
-0.0085251
-0.00936923
-0.0120925
-0.0145609
-0.0186583
-0.0221497
-0.026465
-0.0262546
-0.0263088
-0.0256631
-0.0266495
-0.0283194
-0.0314112
-0.0351184
-0.039292
-0.0434013
-0.0469058
-0.0490051
-0.0491422
-0.0449307
-0.0419627
-0.01811
-0.0068473
-0.00685307
-0.00769533
-0.00956503
-0.0129703
-0.0165638
-0.0198948
-0.0204066
-0.0198588
-0.0191009
-0.0198548
-0.0220334
-0.0252564
-0.0292039
-0.0336223
-0.0379017
-0.0413789
-0.0393919
-0.0108781
-0.00934035
-0.00620118
-0.00487587
-0.00489698
-0.00567705
-0.00697843
-0.00889117
-0.0106113
-0.0118322
-0.0126718
-0.0132417
-0.0141511
-0.0155856
-0.0178086
-0.0208788
-0.0251461
-0.0303183
-0.0364248
-0.0379517
-0.0186417
-0.0167698
-0.0075138
-0.00509305
-0.00501216
-0.0050419
-0.00573201
-0.00644753
-0.00760667
-0.00898903
-0.0107258
-0.0126525
-0.0151396
-0.0174988
-0.0195629
-0.021277
-0.0242062
-0.0297076
-0.038338
-0.0441725
-0.00430619
-0.00604477
-0.00621994
-0.00587495
-0.0059798
-0.00549253
-0.00561793
-0.00672487
-0.00940848
-0.0131672
-0.0186483
-0.0248111
-0.0306423
-0.0328501
-0.0293421
-0.0249436
-0.0241402
-0.0274505
-0.0337986
-0.0411173
-0.0136972
-0.0106393
-0.00840865
-0.00685562
-0.00600797
-0.00573327
-0.00591826
-0.00754127
-0.0102695
-0.0155176
-0.0220034
-0.0303329
-0.0349302
-0.0299386
-0.0148208
-0.0152001
-0.0180742
-0.0224737
-0.0281863
-0.0344176
-0.00640922
-0.00649057
-0.00823742
-0.00801671
-0.00698069
-0.006549
-0.00641827
-0.00836326
-0.0125303
-0.0192174
-0.0281517
-0.0370464
-0.0380473
-0.0249007
-0.0122822
-0.0136615
-0.0149197
-0.0171359
-0.0204135
-0.0242847
-0.00523724
-0.00785794
-0.009291
-0.00901116
-0.00846519
-0.0085792
-0.00916449
-0.0125791
-0.018651
-0.0266809
-0.0311568
-0.0285237
-0.0262474
-0.0280837
-0.0326007
-0.0302202
-0.0254427
-0.0219229
-0.0203397
-0.0206118
-0.0119171
-0.0132547
-0.0112195
-0.0185703
-0.016489
-0.0182043
-0.0199331
-0.02143
-0.0249482
-0.0255187
-0.0253557
-0.026847
-0.0296524
-0.0331976
-0.0415662
-0.0447423
-0.0452977
-0.0428202
-0.0392052
-0.0358086
-0.00341367
-0.0164523
-0.0113514
-0.0157392
-0.0183372
-0.0222459
-0.0283559
-0.0357614
-0.0369789
-0.0359017
-0.0355199
-0.0370416
-0.0352559
-0.0310692
-0.0302548
-0.0317662
-0.0353385
-0.0380264
-0.0394082
-0.0399347
-0.00232052
-0.0043393
-0.0063966
-0.0101986
-0.0148311
-0.0181084
-0.025908
-0.0342309
-0.0327266
-0.0312771
-0.0276137
-0.0245629
-0.0222876
-0.0218454
-0.0235265
-0.0252397
-0.0269557
-0.0286983
-0.0304777
-0.0321263
-0.000620767
-0.00274748
-0.00455804
-0.00614204
-0.00911092
-0.0126726
-0.0185007
-0.0207275
-0.0216146
-0.0230726
-0.0239138
-0.0249088
-0.025483
-0.0261356
-0.0274542
-0.0283311
-0.0288898
-0.0292588
-0.0297764
-0.0306611
-0.00175671
-0.0066701
-0.00988605
-0.00970619
-0.0117717
-0.0157483
-0.0203765
-0.023294
-0.0264091
-0.0282101
-0.029786
-0.0294642
-0.0276348
-0.025683
-0.024089
-0.0236741
-0.0244321
-0.0259607
-0.0280009
-0.0304589
-0.000546829
-0.00369504
-0.00782629
-0.0105377
-0.0138323
-0.018745
-0.0241356
-0.0279088
-0.0322057
-0.034564
-0.0383269
-0.0382796
-0.0374906
-0.0342082
-0.030607
-0.0268083
-0.0241146
-0.0231769
-0.0237383
-0.025414
-0.00121147
-0.00630134
-0.0110045
-0.0166092
-0.0246731
-0.0298971
-0.0349944
-0.0351664
-0.0362512
-0.0336021
-0.0327952
-0.0312878
-0.0314305
-0.0299675
-0.0282447
-0.0250937
-0.0220358
-0.0202046
-0.0195368
-0.0197591
-0.017893
-0.0169117
-0.017025
-0.030214
-0.0445402
-0.0493288
-0.0499659
-0.0401648
-0.0315271
-0.0256804
-0.0242744
-0.0242691
-0.0242878
-0.0237838
-0.02278
-0.0215238
-0.0202818
-0.019236
-0.0184799
-0.0180301
-0.00283671
-0.00914228
-0.00916808
-0.0126318
-0.022198
-0.0294038
-0.0390541
-0.0367792
-0.0352458
-0.033827
-0.0356237
-0.0367659
-0.0374337
-0.0377087
-0.0374728
-0.0363617
-0.0344111
-0.0319395
-0.0293148
-0.0274143
-0.00853829
-0.00459359
-0.00453008
-0.00511681
-0.00650348
-0.0115151
-0.0201355
-0.0297478
-0.0418769
-0.0570695
-0.0744332
-0.0895604
-0.101213
-0.111617
-0.121468
-0.129777
-0.134674
-0.135426
-0.131433
-0.125055
-0.00198235
-0.00538847
-0.00537165
-0.00463436
-0.00464295
-0.00537132
-0.0068064
-0.00796621
-0.00930619
-0.010262
-0.011346
-0.0123103
-0.0135271
-0.0148281
-0.0164833
-0.0183486
-0.0207091
-0.0235594
-0.027005
-0.0312759
-0.00856637
-0.00593743
-0.00581953
-0.00687949
-0.00794713
-0.00819094
-0.00977985
-0.0107278
-0.0124697
-0.0138944
-0.0156562
-0.0171065
-0.0188613
-0.0204301
-0.0221493
-0.0238031
-0.0252369
-0.0264347
-0.0272992
-0.0283399
-0.00607089
-0.00827751
-0.0101269
-0.0103079
-0.0106953
-0.0104776
-0.0115532
-0.0117075
-0.0129159
-0.0143023
-0.0161808
-0.0178239
-0.0193603
-0.0204392
-0.0212402
-0.0216857
-0.0219125
-0.0218044
-0.0214301
-0.0204685
-0.0110784
-0.00903928
-0.00699734
-0.00647911
-0.00605245
-0.00648958
-0.00772455
-0.00897588
-0.0104242
-0.0114694
-0.0124226
-0.01333
-0.0142174
-0.01516
-0.0161467
-0.0171842
-0.0182247
-0.018987
-0.0194046
-0.0186041
-0.00580313
-0.00514743
-0.00409159
-0.00351063
-0.00351341
-0.00420908
-0.00520446
-0.00646031
-0.00751839
-0.0084301
-0.0090977
-0.0097891
-0.0106021
-0.0116804
-0.0130242
-0.0145707
-0.0162776
-0.0178288
-0.0191814
-0.0191599
-0.00671507
-0.00673002
-0.00534996
-0.00332175
-0.00291516
-0.00346624
-0.00442135
-0.0054022
-0.00627293
-0.00702141
-0.00773504
-0.00849788
-0.00954658
-0.010791
-0.0123464
-0.0141955
-0.0165103
-0.0192103
-0.0222017
-0.0238048
-0.00262769
-0.00584719
-0.00563078
-0.00404818
-0.00336035
-0.00342854
-0.00456111
-0.00578489
-0.00724959
-0.00859747
-0.0101848
-0.01175
-0.0130508
-0.0136078
-0.0138067
-0.0148632
-0.017085
-0.020065
-0.023434
-0.0265372
-0.00577544
-0.00819209
-0.00711608
-0.00508772
-0.00420427
-0.00435052
-0.00496595
-0.00671018
-0.00792534
-0.00963754
-0.0109563
-0.0122151
-0.0120612
-0.0109656
-0.0116684
-0.013627
-0.0160254
-0.0187249
-0.021685
-0.024437
-0.00489524
-0.00473214
-0.00592178
-0.00589374
-0.00557694
-0.00541533
-0.00547215
-0.00753529
-0.0095753
-0.0115666
-0.0126185
-0.0123921
-0.0105572
-0.00896462
-0.00957444
-0.0117748
-0.0134076
-0.0154051
-0.0177455
-0.0199899
-0.00133529
-0.00372113
-0.00553979
-0.00625428
-0.00726805
-0.00759473
-0.00775955
-0.0093578
-0.0111363
-0.0127049
-0.0135363
-0.0144301
-0.0151462
-0.0154315
-0.0154862
-0.0151172
-0.0142318
-0.014324
-0.015233
-0.016548
-0.00277466
-0.00574447
-0.00728055
-0.011569
-0.0126543
-0.014872
-0.0156586
-0.0159281
-0.0158478
-0.0161996
-0.0182017
-0.0208407
-0.0233131
-0.0264921
-0.0286216
-0.0256481
-0.0247348
-0.023466
-0.022207
-0.0211364
-0.00361798
-0.00619258
-0.00674537
-0.011445
-0.0138665
-0.0164319
-0.0183029
-0.0224217
-0.0212769
-0.0195449
-0.0188367
-0.0189823
-0.0198053
-0.0215757
-0.0223073
-0.0220213
-0.0233319
-0.0236359
-0.0230206
-0.0219837
-0.000351002
-0.00188716
-0.00418858
-0.00863654
-0.0116914
-0.0126862
-0.0161209
-0.017189
-0.0155287
-0.0150633
-0.0144836
-0.0145054
-0.0147318
-0.0153648
-0.0156042
-0.0163357
-0.0169095
-0.0172539
-0.0174588
-0.0175235
-0.000245849
-0.00159715
-0.00312164
-0.00551973
-0.00813671
-0.0099362
-0.0119212
-0.0124029
-0.0126218
-0.0131503
-0.0134938
-0.0138613
-0.0142452
-0.0146142
-0.0151914
-0.0156211
-0.0160265
-0.0164327
-0.0168591
-0.0173628
-0.00068438
-0.00340141
-0.00545986
-0.0070755
-0.009605
-0.0114353
-0.0127455
-0.0134967
-0.0141842
-0.0143859
-0.0144547
-0.0140533
-0.0136662
-0.013487
-0.0136461
-0.0140556
-0.014671
-0.0153383
-0.016056
-0.0168695
-0.000428437
-0.00279176
-0.00553531
-0.0082772
-0.0116066
-0.0137106
-0.0155908
-0.0160487
-0.0172441
-0.0172143
-0.0176009
-0.0164589
-0.0154691
-0.014297
-0.0136013
-0.0131836
-0.0131051
-0.013244
-0.0135503
-0.0140426
-0.00165357
-0.00588706
-0.00855895
-0.0130433
-0.01749
-0.0180699
-0.0192301
-0.0180807
-0.0180658
-0.017202
-0.0167293
-0.0157961
-0.0150529
-0.014134
-0.013426
-0.0128044
-0.0123983
-0.0121978
-0.0121286
-0.0122063
-0.002819
-0.0084365
-0.0104554
-0.0203312
-0.0273229
-0.0261676
-0.0238107
-0.0198551
-0.0184321
-0.0187373
-0.0193314
-0.0196099
-0.0192039
-0.0184
-0.0173465
-0.0163314
-0.0155337
-0.0150395
-0.0148421
-0.014823
-0.000778386
-0.00267802
-0.00436065
-0.00747208
-0.0125756
-0.0167472
-0.0216489
-0.0234488
-0.0263251
-0.0296006
-0.033099
-0.0353934
-0.0367461
-0.0368344
-0.0359025
-0.0338222
-0.0311763
-0.0283915
-0.0259616
-0.0244096
-0.000845718
-0.001526
-0.00295181
-0.00399469
-0.00576374
-0.0108392
-0.0187352
-0.027018
-0.0366536
-0.0464002
-0.0563169
-0.0642317
-0.0706477
-0.0763209
-0.0809327
-0.0834356
-0.0830233
-0.0797205
-0.0740357
-0.0679663
-0.00405163
-0.0042721
-0.00374644
-0.00391506
-0.00478083
-0.00583454
-0.00701263
-0.00796046
-0.00894547
-0.00986778
-0.0109344
-0.0121366
-0.0135247
-0.0151249
-0.0169557
-0.019074
-0.0214721
-0.0242944
-0.0273698
-0.0313042
-0.00227337
-0.00378044
-0.00486055
-0.00566155
-0.0063244
-0.00727527
-0.00841438
-0.00911555
-0.00989349
-0.0103268
-0.0108346
-0.0112279
-0.0117168
-0.0121553
-0.0127129
-0.0132711
-0.0138315
-0.0144443
-0.0150278
-0.0158347
-0.00108864
-0.00343359
-0.00663745
-0.00735681
-0.00719485
-0.00754881
-0.00856493
-0.00949285
-0.0104387
-0.0110368
-0.0115619
-0.0118061
-0.0120281
-0.0120683
-0.0121206
-0.0121318
-0.0122023
-0.0123195
-0.0125309
-0.0127844
-0.00289243
-0.00594967
-0.00496206
-0.00492371
-0.00546366
-0.00662772
-0.00770689
-0.00874784
-0.00949585
-0.0101001
-0.0105453
-0.0108927
-0.0111526
-0.0113378
-0.0114785
-0.0116125
-0.0118
-0.0120316
-0.0123646
-0.012641
-0.00442086
-0.00314762
-0.00264149
-0.0032594
-0.00420082
-0.00543862
-0.00641967
-0.00745275
-0.0081761
-0.00893703
-0.00956073
-0.010152
-0.0106416
-0.0110295
-0.0113481
-0.011602
-0.0118831
-0.0121645
-0.0125304
-0.0127781
-0.0020674
-0.00317667
-0.00243385
-0.0025891
-0.00347279
-0.00459294
-0.00548087
-0.00641945
-0.00723896
-0.00812507
-0.00895615
-0.00977109
-0.0105372
-0.0112357
-0.0118788
-0.0124184
-0.0129327
-0.0134128
-0.0139338
-0.0141775
-0.0018686
-0.00294922
-0.00275076
-0.00275153
-0.00328956
-0.00416835
-0.00519168
-0.00613743
-0.00707446
-0.00800149
-0.0089164
-0.00981071
-0.0106728
-0.0114945
-0.0123063
-0.013095
-0.0138211
-0.0144514
-0.0150102
-0.0154451
-0.00116537
-0.00370665
-0.00310654
-0.00330186
-0.0040711
-0.00467138
-0.00510398
-0.00600204
-0.00664176
-0.00735681
-0.00806447
-0.00881604
-0.00966847
-0.0105789
-0.0117612
-0.0123937
-0.0129463
-0.0133964
-0.0138072
-0.0141501
-0.000857619
-0.00385185
-0.00356373
-0.00364972
-0.00489998
-0.0051676
-0.00526073
-0.00597464
-0.00650871
-0.00701266
-0.00755695
-0.00816971
-0.00892097
-0.00973692
-0.0107492
-0.0114173
-0.0118263
-0.0121229
-0.0123763
-0.0126084
-0.000776337
-0.00315733
-0.0037304
-0.00544125
-0.00702723
-0.00715253
-0.00677262
-0.00744371
-0.00845017
-0.00942594
-0.010088
-0.0103383
-0.0102964
-0.0102304
-0.0106629
-0.0110517
-0.0110415
-0.0110837
-0.0111857
-0.011346
-0.00138104
-0.00285143
-0.00530966
-0.00863135
-0.00987895
-0.0113687
-0.0115012
-0.0118851
-0.0124138
-0.013286
-0.0143391
-0.0150666
-0.0154615
-0.0158704
-0.0149801
-0.0126566
-0.0119172
-0.0113971
-0.0111526
-0.0111468
-0.00185842
-0.00295449
-0.00525827
-0.00887917
-0.0101996
-0.0116274
-0.0117254
-0.0129336
-0.0128915
-0.0132015
-0.013457
-0.0136658
-0.0141567
-0.0151487
-0.013989
-0.0113846
-0.0109691
-0.0107047
-0.0106861
-0.0109479
-0.00114192
-0.00223177
-0.00474248
-0.00797592
-0.00918311
-0.00966674
-0.0103662
-0.010697
-0.0104534
-0.0105271
-0.0103193
-0.0102897
-0.0101704
-0.0101591
-0.00958944
-0.00969962
-0.00988378
-0.0102062
-0.0106683
-0.0112467
-0.00112654
-0.00237554
-0.00398861
-0.00610874
-0.00763516
-0.00855124
-0.00927473
-0.00923988
-0.00922135
-0.00914799
-0.00910562
-0.0090781
-0.00908983
-0.00916273
-0.00936206
-0.00962752
-0.0100219
-0.0105623
-0.0112233
-0.0119533
-0.00173359
-0.00332406
-0.0050829
-0.00656217
-0.00787691
-0.00871476
-0.00919263
-0.00925132
-0.00920326
-0.00901744
-0.00891548
-0.00878008
-0.00875732
-0.00883687
-0.00907001
-0.00944111
-0.00995873
-0.0106129
-0.0113944
-0.0122086
-0.00132621
-0.00319241
-0.00538497
-0.00717526
-0.00857245
-0.00936073
-0.00987188
-0.00987817
-0.00985172
-0.00957291
-0.00940682
-0.00909394
-0.00894929
-0.0089062
-0.00905364
-0.00935773
-0.00984075
-0.0104932
-0.0112851
-0.0120776
-0.00122082
-0.00439098
-0.00654379
-0.00879643
-0.0102116
-0.0107699
-0.0109784
-0.010824
-0.0105517
-0.0102466
-0.00990246
-0.0096606
-0.00947741
-0.00943268
-0.00951492
-0.0097614
-0.010181
-0.0107782
-0.0115131
-0.0122324
-0.00612515
-0.00559651
-0.00660932
-0.0112455
-0.0134475
-0.0135527
-0.0133369
-0.0131587
-0.0129831
-0.0131779
-0.0129726
-0.0127962
-0.0123583
-0.0120158
-0.0117212
-0.0115669
-0.0115438
-0.0116631
-0.0119461
-0.0123144
-0.00202422
-0.00278025
-0.00289279
-0.00597874
-0.0110727
-0.0152636
-0.0183725
-0.0203689
-0.0224285
-0.023951
-0.0248173
-0.0244826
-0.023394
-0.0217668
-0.0201456
-0.0188321
-0.0179778
-0.017543
-0.0173865
-0.0173823
-0.000750184
-0.000942609
-0.00154026
-0.00281827
-0.00541694
-0.0114667
-0.0187945
-0.0247701
-0.0308171
-0.0357114
-0.0403354
-0.0430654
-0.0443009
-0.0437176
-0.0414574
-0.0377457
-0.0332588
-0.0288693
-0.0253622
-0.0235427
-0.0308503
-0.0240802
-0.0246109
-0.0167644
-0.0162075
-0.0169546
-0.0179158
-0.0294561
-0.0245526
-0.0250069
-0.0160962
-0.0163032
-0.0185168
-0.0207202
-0.0253389
-0.0360033
-0.0354318
-0.0182902
-0.0189203
-0.0229574
-0.0218522
-0.0262454
-0.0355748
-0.0364719
-0.0194354
-0.0213503
-0.0216793
-0.0215025
-0.0965188
-0.0900982
-0.0942488
-0.0750333
-0.0766069
-0.0672023
-0.0698861
-0.0931621
-0.0948482
-0.0962352
-0.0747779
-0.063998
-0.0702993
-0.0653245
-0.0914356
-0.0969307
-0.100753
-0.0612479
-0.0588943
-0.0653298
-0.0747856
-0.093124
-0.102366
-0.105936
-0.0598408
-0.066344
-0.0797438
-0.0962329
-0.097107
-0.10662
-0.108257
-0.070035
-0.0843176
-0.101528
-0.113844
-0.103508
-0.108821
-0.110154
-0.089702
-0.10323
-0.116438
-0.119156
-0.112281
-0.110297
-0.10883
-0.10677
-0.111634
-0.118364
-0.111516
-0.111301
-0.107766
-0.104071
-0.110126
-0.0927925
-0.108424
-0.100736
-0.0963003
-0.10178
-0.0983665
-0.0737772
-0.0698797
-0.0838896
-0.0715653
-0.0990028
-0.0984265
-0.100975
-0.0691043
-0.0671968
-0.0695271
-0.071991
-0.104922
-0.101778
-0.10164
-0.0695305
-0.0846868
-0.0755386
-0.0891086
-0.108701
-0.100966
-0.0990683
-0.0905839
-0.106082
-0.093257
-0.0994332
-0.109723
-0.098608
-0.0973438
-0.110053
-0.117621
-0.0999127
-0.0984012
-0.109203
-0.0968665
-0.095197
-0.118715
-0.117629
-0.0976638
-0.0963953
-0.106289
-0.0947256
-0.0940274
-0.115776
-0.107988
-0.0955366
-0.0927477
-0.101797
-0.0938039
-0.0918048
-0.106035
-0.105225
-0.0929524
-0.0976346
-0.100091
-0.114259
-0.103634
-0.0960907
-0.0780941
-0.107639
-0.098523
-0.100103
-0.101323
-0.0973077
-0.0747523
-0.0736873
-0.0961799
-0.0903916
-0.0990999
-0.0963624
-0.0936056
-0.0758709
-0.0851139
-0.0892052
-0.0907231
-0.0962267
-0.0928696
-0.0912469
-0.0879086
-0.092117
-0.0917163
-0.0936703
-0.0942763
-0.090717
-0.0889354
-0.0922249
-0.0907648
-0.0942981
-0.0962021
-0.0921879
-0.0884846
-0.0876352
-0.0906156
-0.0921628
-0.096538
-0.096154
-0.0913208
-0.0872061
-0.0844194
-0.092626
-0.0927717
-0.0954945
-0.0928616
-0.0889635
-0.083324
-0.0820635
-0.0932752
-0.0967932
-0.0922962
-0.0919972
-0.105328
-0.132979
-0.122318
-0.114431
-0.102334
-0.131159
-0.120105
-0.0967446
-0.116574
-0.106283
-0.0996806
-0.0943582
-0.115024
-0.107905
-0.0923922
-0.104658
-0.100767
-0.0927885
-0.0920961
-0.106515
-0.10193
-0.0885885
-0.0993028
-0.0978031
-0.0921629
-0.090954
-0.100406
-0.100169
-0.0841476
-0.0981961
-0.10149
-0.0905198
-0.0903097
-0.100908
-0.103517
-0.0807994
-0.103222
-0.111549
-0.090168
-0.0892158
-0.104941
-0.112823
-0.078639
-0.115975
-0.131562
-0.0888697
-0.089232
-0.116553
-0.127047
-0.0832194
-0.138865
-0.16189
-0.0900443
-0.0928899
-0.130514
-0.137303
-0.0100365
-0.00970717
-0.0124623
-0.00864982
-0.00956094
-0.00912385
-0.0118939
-0.0126064
-0.013961
-0.0201726
-0.01009
-0.0124375
-0.0132934
-0.0187229
-0.0183156
-0.0228301
-0.033763
-0.013671
-0.0191283
-0.021137
-0.0300877
-0.0297662
-0.0388477
-0.0591469
-0.0217007
-0.0306241
-0.0331543
-0.0402633
-0.0503961
-0.0669735
-0.0868439
-0.0340063
-0.0439593
-0.0416488
-0.0423339
-0.0810797
-0.0908568
-0.0920383
-0.0469935
-0.0526952
-0.0414583
-0.0367669
-0.0935095
-0.0886634
-0.071742
-0.0525022
-0.0429485
-0.0349494
-0.0309161
-0.0614371
-0.0661265
-0.0575861
-0.0375317
-0.0225467
-0.0302785
-0.0297623
-0.0146309
-0.016024
-0.0204764
-0.0111114
-0.0137005
-0.0156739
-0.0198551
-0.0238958
-0.0226286
-0.0313531
-0.0152463
-0.0216538
-0.0216069
-0.0277643
-0.0407322
-0.0346807
-0.0442142
-0.0244531
-0.0335156
-0.0297942
-0.0340461
-0.0673427
-0.0473256
-0.0549864
-0.0360551
-0.0403982
-0.0345592
-0.0339651
-0.0850545
-0.0563302
-0.0561931
-0.0406664
-0.0385051
-0.0333528
-0.0312868
-0.0796615
-0.0561298
-0.0577638
-0.0372288
-0.0337994
-0.0310411
-0.0322791
-0.0650103
-0.0585544
-0.0622108
-0.0331421
-0.0334704
-0.0330545
-0.0364056
-0.0674099
-0.0643525
-0.0739244
-0.0342756
-0.0375433
-0.0380318
-0.0453563
-0.0260136
-0.0501325
-0.0558521
-0.0246069
-0.0255579
-0.0363216
-0.0402414
-0.0347454
-0.0552884
-0.0555871
-0.0268239
-0.0316588
-0.0413411
-0.0441144
-0.0458148
-0.0571208
-0.0623475
-0.0331642
-0.0358606
-0.0446815
-0.0453473
-0.0509245
-0.0635153
-0.0654478
-0.0358625
-0.0344848
-0.0451952
-0.0443744
-0.052013
-0.0662956
-0.0716673
-0.0338198
-0.0323224
-0.0442638
-0.0446193
-0.0576686
-0.073909
-0.0776995
-0.0323687
-0.0335637
-0.0447427
-0.0438445
-0.0648921
-0.077686
-0.0759296
-0.0341269
-0.036185
-0.0430085
-0.0396273
-0.0736219
-0.0753547
-0.0725902
-0.0372003
-0.0425291
-0.0385224
-0.0366206
-0.0658744
-0.0478307
-0.0645261
-0.0372515
-0.0414022
-0.0355404
-0.0427897
-0.0619215
-0.0683921
-0.0737072
-0.0421766
-0.0437763
-0.0446977
-0.0475273
-0.0641482
-0.0739658
-0.0726828
-0.0440262
-0.0437959
-0.0473483
-0.0451309
-0.0631487
-0.0721723
-0.0704567
-0.0434054
-0.0423533
-0.0443847
-0.0434618
-0.0655071
-0.0697437
-0.0684041
-0.0423366
-0.0433303
-0.0430417
-0.0418445
-0.0719568
-0.0686992
-0.0709256
-0.0437468
-0.043747
-0.041299
-0.0391811
-0.0741065
-0.0711023
-0.0682373
-0.0431317
-0.039787
-0.0380739
-0.0348135
-0.0713744
-0.0657194
-0.0552044
-0.0384416
-0.0354374
-0.0339541
-0.0329246
-0.00757571
-0.00742988
-0.00983226
-0.00635466
-0.00782256
-0.00737308
-0.00999603
-0.0112839
-0.011068
-0.0154166
-0.00868207
-0.0114121
-0.0111069
-0.0143081
-0.0172214
-0.0170728
-0.0231292
-0.012442
-0.0157257
-0.0152362
-0.0169148
-0.0257758
-0.0254916
-0.0315855
-0.0167604
-0.018903
-0.0170102
-0.0164352
-0.0351297
-0.0327015
-0.0325186
-0.0192511
-0.0190177
-0.0161339
-0.0153645
-0.0392369
-0.0315261
-0.027533
-0.0185562
-0.0160944
-0.0151924
-0.0149094
-0.0289724
-0.0262415
-0.0237131
-0.0149887
-0.0116069
-0.0148714
-0.01478
-0.0152126
-0.0233785
-0.0231625
-0.0107955
-0.00961633
-0.0147329
-0.0144108
-0.0113448
-0.0130285
-0.0160471
-0.0089873
-0.0112488
-0.013283
-0.0158732
-0.0169836
-0.0171507
-0.0204878
-0.0122877
-0.0151626
-0.0164251
-0.0171048
-0.0245763
-0.0214642
-0.0237126
-0.0158983
-0.0168433
-0.0170903
-0.0167917
-0.0224405
-0.0285345
-0.0266679
-0.0225638
-0.0279695
-0.0233231
-0.0220066
-0.0223385
-0.0309302
-0.0291113
-0.023935
-0.0286402
-0.0236024
-0.0225673
-0.0264554
-0.0255156
-0.0280565
-0.0165158
-0.0173022
-0.0215307
-0.0237853
-0.0273011
-0.0290912
-0.0327957
-0.0175689
-0.0182789
-0.0245206
-0.0270397
-0.0306658
-0.0343821
-0.0409683
-0.0184664
-0.0186305
-0.0280529
-0.0314643
-0.0206061
-0.0290203
-0.0341128
-0.0193025
-0.0197896
-0.0248795
-0.0266905
-0.0242414
-0.0350611
-0.0364334
-0.0199731
-0.0195951
-0.026809
-0.0259385
-0.0258508
-0.0366283
-0.0363435
-0.019266
-0.0183181
-0.0253803
-0.0235166
-0.0254106
-0.0256407
-0.0298438
-0.0224988
-0.0295602
-0.0223291
-0.0258512
-0.0254881
-0.0254861
-0.0290602
-0.0231702
-0.0291577
-0.0236534
-0.0252321
-0.0289491
-0.0366057
-0.0354925
-0.0220593
-0.024147
-0.02148
-0.0216728
-0.0320636
-0.034643
-0.0319491
-0.0248765
-0.0275194
-0.0219401
-0.0235913
-0.0387236
-0.0313829
-0.0318539
-0.028617
-0.0324129
-0.0244045
-0.0273614
-0.0347149
-0.0252702
-0.0340374
-0.0240906
-0.0263174
-0.0226253
-0.0255491
-0.036981
-0.0360216
-0.0370326
-0.0265308
-0.0258815
-0.0256168
-0.0242418
-0.0363021
-0.0367792
-0.035331
-0.0254035
-0.0237767
-0.0236728
-0.0221666
-0.0353158
-0.0347126
-0.0326794
-0.0232697
-0.0221679
-0.0216332
-0.0202751
-0.0367709
-0.0320562
-0.0305832
-0.0219584
-0.0215478
-0.0198491
-0.0189307
-0.0361444
-0.0299599
-0.0273408
-0.0214146
-0.0211768
-0.0187076
-0.0184267