/*--------------------------------*- C++ -*----------------------------------*\
  =========                 |
  \\      /  F ield         | OpenFOAM: The Open Source CFD Toolbox
   \\    /   O peration     | Website:  https://openfoam.org
    \\  /    A nd           | Version:  10
     \\/     M anipulation  |
\*---------------------------------------------------------------------------*/
FoamFile
{
    format      ascii;
    class       volVectorField;
    location    "7.7";
    object      U;
}
// * * * * * * * * * * * * * * * * * * * * * * * * * * * * * * * * * * * * * //

dimensions      [0 1 -1 0 0 0 0];

internalField   nonuniform List<vector> 
12920
(
(165.564 1.69361 -75.0901)
(109.409 -11.1037 -12.6479)
(177.616 18.1419 8.47868)
(126.771 29.5125 -0.996387)
(159.364 49.4611 -8.10438)
(147.229 32.4001 -12.1039)
(170.278 26.8447 -8.63813)
(158.569 21.6827 -4.27164)
(142.926 21.4493 4.26928)
(106.866 13.9127 2.47592)
(103.417 7.59596 -0.274403)
(95.9536 4.28848 -0.67433)
(97.832 2.31212 -0.873428)
(97.4494 1.59288 -0.612734)
(99.7798 0.852027 -0.413939)
(101.982 1.59181 -0.436389)
(104.335 1.04966 -0.500365)
(108.405 1.15975 -0.511231)
(110.679 0.349895 -0.443056)
(111.919 0.779387 -0.542151)
(100.249 57.7737 -82.0685)
(-95.9355 -37.6912 -4.21038)
(92.9213 -34.1229 -14.8668)
(1.34771 -9.40973 -3.37242)
(107.269 -3.24469 0.359009)
(76.0613 2.32424 1.12743)
(112.386 3.69167 3.02948)
(94.3637 9.71169 2.38068)
(102.08 11.8266 2.91395)
(92.7747 10.9727 1.16787)
(95.9597 6.61535 0.474268)
(92.8241 3.86133 0.0617954)
(96.0144 1.66324 0.131491)
(95.9511 -1.46256 0.382168)
(99.6798 -3.75114 0.683364)
(100.782 -4.93754 1.02982)
(103.344 -6.2353 1.27598)
(103.582 -6.36596 1.46773)
(103.885 -8.18651 1.5789)
(99.9177 -8.14659 1.48494)
(68.8245 211.954 -72.5507)
(0.05189 71.6717 -34.0428)
(158.097 42.3738 -22.0517)
(139.765 10.5395 -4.12959)
(160.245 2.54921 3.51102)
(121.852 3.78131 4.21055)
(124.335 4.90325 4.50909)
(103.038 12.153 3.0253)
(106.281 12.1472 2.42336)
(99.9237 11.0298 1.35718)
(103.676 6.14318 1.07836)
(100.723 1.9051 0.515521)
(103.631 -2.29262 0.688038)
(102.543 -4.72482 0.498147)
(104.433 -7.12945 0.330121)
(104.355 -7.5409 0.324353)
(105.117 -8.17813 0.311923)
(103.991 -7.53369 0.387402)
(103.144 -9.05692 0.807496)
(93.5115 -8.39735 0.423689)
(99.7921 88.697 -16.4538)
(-86.4276 38.7111 43.6666)
(111.347 12.5149 5.41022)
(16.0603 10.6243 -0.0529444)
(115.663 9.43829 -3.45568)
(81.9014 4.69989 -3.77585)
(115.706 -0.251889 -1.26307)
(103.725 1.1459 -0.172918)
(113.616 0.751404 1.12844)
(108.719 1.62453 1.01364)
(111.172 -0.566739 1.06488)
(107.651 -1.31808 0.491956)
(107.431 -4.51367 0.393647)
(103.574 -6.12013 -0.046898)
(103.186 -7.57974 -0.255381)
(102.912 -8.02915 -0.1944)
(103.931 -8.10962 -0.148946)
(103.394 -7.17584 0.0257177)
(102.816 -7.28859 0.665599)
(91.695 -5.83335 0.340077)
(64.9015 74.3295 49.2922)
(-0.959562 -57.8835 28.8816)
(113.242 -42.5109 3.51834)
(72.7095 -15.6105 1.87888)
(129.025 -7.00348 -0.0969328)
(108.501 4.17248 -1.32913)
(128.115 2.78319 -0.783358)
(118.545 6.90174 -0.875428)
(124.62 3.80961 -0.273821)
(120.888 4.63393 -0.274464)
(122.542 1.96554 0.0310415)
(119.421 2.02639 0.00762715)
(118.865 -0.709746 0.204102)
(114.258 -1.92188 -0.0869447)
(113.163 -5.43161 -0.357735)
(111.539 -7.43662 -0.311028)
(111.78 -8.32812 -0.320759)
(111.234 -7.40996 -0.161733)
(110.285 -6.45843 0.581801)
(95.5097 -4.18498 0.248597)
(127.55 79.205 5.18885)
(-142.129 -93.0815 37.4163)
(128.607 -35.5761 -8.6767)
(10.1284 -17.3065 1.91619)
(109.504 -15.4177 -0.508188)
(68.8492 -0.635654 0.583676)
(105.446 -3.43631 1.24865)
(97.9764 0.683194 0.301174)
(109.961 -0.628489 0.281612)
(110.654 1.20958 -0.245998)
(116.09 0.684732 -0.254411)
(117.345 1.3238 -0.364169)
(120.135 0.417011 -0.275056)
(120.777 -0.819192 -0.160706)
(121.825 -4.34048 0.443453)
(119.932 -6.03202 0.657847)
(117.984 -6.99669 0.20871)
(116.315 -5.87481 -0.334661)
(116.687 -0.909641 0.138387)
(103.916 2.13029 0.00350309)
(283.153 -273.729 -173.649)
(-5.34829 -70.4562 -13.2718)
(154.15 -66.3479 -9.99319)
(88.9714 -27.2467 -1.81824)
(130.662 -30.4922 -1.91907)
(105.137 -11.9982 -0.757073)
(114.925 -21.7027 -0.650545)
(104.502 -5.26508 -0.590337)
(108.453 -8.28949 -0.927495)
(106.309 -2.15438 -0.966491)
(110.118 -3.24372 -1.0085)
(110.226 -1.41826 -0.772353)
(111.326 -3.62354 -0.00758612)
(108.355 -4.74141 1.50791)
(103.817 -7.87533 1.94496)
(98.5227 -7.32262 0.986096)
(97.1178 -6.13564 -0.0762328)
(96.8575 -4.44512 -0.940174)
(100.465 -0.517529 -1.26899)
(99.4363 3.61748 -0.8865)
(-73.1833 10.7813 -14.7902)
(-134.787 50.1908 -52.6565)
(91.5942 -14.0554 -23.6531)
(18.5445 -6.7981 -3.9736)
(98.0756 -14.2015 -3.10881)
(63.794 8.39788 -2.17937)
(84.9659 4.83681 -0.863748)
(78.8565 -1.37608 -0.547187)
(89.9032 3.49974 -0.47073)
(93.5385 0.164683 -0.368245)
(99.5491 1.93075 -0.273271)
(101.66 2.09409 -0.0739513)
(100.725 2.56398 0.299125)
(91.4558 -2.16584 0.991563)
(81.5654 -5.28551 0.637774)
(80.4546 -5.42046 -0.0616981)
(81.0416 -4.77276 -0.575858)
(82.7801 -3.8842 -1.17373)
(87.086 -1.13275 -1.80586)
(89.3404 2.94071 -1.16772)
(-44.6952 -125.708 -55.1549)
(-70.287 -56.2278 -22.5798)
(96.4525 -74.8729 -12.9574)
(51.3345 -37.8638 -7.37675)
(94.9617 -36.3638 -6.68184)
(71.4788 -5.61416 -2.86617)
(94.5022 4.94455 -0.925831)
(81.7837 -5.91824 -0.190579)
(84.3686 -2.47519 -0.275054)
(88.1283 0.183299 -0.268527)
(93.1811 0.309832 -0.15452)
(97.234 1.52128 -0.0690561)
(97.9136 2.15428 0.127171)
(87.181 2.5072 0.665607)
(75.3728 -5.19438 0.359664)
(75.9264 -5.9587 -0.0796505)
(78.0877 -4.88056 -0.313123)
(79.8731 -3.70034 -0.553951)
(81.1488 -1.25859 -0.732597)
(79.0245 3.04206 -0.594379)
(152.505 -238.707 6.99624)
(22.1791 -87.0855 10.821)
(95.0881 2.69925 2.81163)
(21.7666 9.16296 1.19216)
(70.6258 29.2591 -1.08057)
(40.2181 3.92659 -0.637118)
(57.0739 8.81745 0.163935)
(68.8231 3.89981 -0.38936)
(68.0352 -0.209274 -0.137566)
(67.9634 -1.52292 0.0343509)
(66.9388 -0.367139 0.0733455)
(65.3376 -0.13795 0.0106808)
(67.4564 -0.327755 0.0264583)
(71.8875 -3.77509 -0.124349)
(77.8778 -8.65877 -0.17654)
(84.2576 -9.17417 0.53125)
(83.2404 -6.3038 0.351185)
(83.4362 -3.74426 0.051953)
(83.5618 0.350753 -0.0651388)
(80.5366 4.16342 -0.156657)
(192.522 -86.0938 5.20439)
(-93.3694 -67.9201 2.46396)
(118.412 -33.8079 1.91244)
(-38.2038 -23.2217 8.94998)
(69.6716 -12.2935 3.93763)
(31.859 -5.4643 -1.48464)
(55.7533 2.78862 -0.316005)
(66.3895 5.33161 -0.447065)
(66.0362 3.23414 -0.413076)
(70.8084 -6.16514 -0.208962)
(75.8777 -6.1541 -0.012332)
(82.6513 -3.22983 -0.138254)
(86.3699 -0.578536 0.0274892)
(87.8239 -3.76236 -0.544534)
(100.162 -13.9547 0.162393)
(95.2308 -8.82409 0.622189)
(90.5867 -5.90106 0.866916)
(88.3511 -4.28296 0.500853)
(87.6274 -1.40007 0.326815)
(86.2079 3.05319 0.216715)
(220.921 -114.688 -224.577)
(46.0785 -80.4186 0.980519)
(139.111 -83.2246 19.4294)
(35.4261 -35.2294 10.5048)
(82.1214 -27.3037 7.59279)
(47.2726 -18.7232 -1.08762)
(75.2993 -16.1155 0.200786)
(79.0815 4.93601 0.23881)
(79.1216 6.21997 -0.412338)
(85.9878 -5.17636 -0.283489)
(87.2631 -7.38887 -0.449698)
(93.9906 -8.87288 0.0216151)
(98.6631 -7.43654 0.341793)
(107.266 -11.4213 0.0925657)
(92.7232 -12.5604 0.36933)
(85.4323 -7.54761 -0.319214)
(85.4191 -4.28606 -0.00269099)
(85.7465 -3.61576 0.148402)
(85.2921 -2.23416 0.148194)
(84.3451 0.701927 0.134582)
(111.767 -45.7512 -102.45)
(128.099 -84.8516 -47.7701)
(172.479 -84.4605 -5.67821)
(89.22 -47.4634 3.31908)
(111.64 -36.2642 8.1902)
(68.2069 -42.7189 2.15868)
(77.7801 -26.6421 0.222867)
(67.7384 -7.52296 0.0216857)
(81.0529 -6.93532 0.363534)
(79.6515 -4.30585 0.291301)
(80.4749 -8.48104 0.531921)
(76.3935 -9.40236 0.442922)
(77.3967 -10.9622 0.210848)
(77.2208 -11.7889 0.0929269)
(77.146 -10.711 -0.13573)
(78.4205 -9.73164 -0.133822)
(79.5703 -6.09483 -0.0628102)
(79.848 -4.84843 -0.0140256)
(79.2621 -2.77038 -0.152688)
(77.2616 -0.0632162 -0.26438)
(172.644 198.027 -94.8964)
(22.7359 1.21266 0.326771)
(141.477 -41.3192 -8.78744)
(90.3355 -30.052 -3.70175)
(125.725 -26.3394 0.19324)
(99.8915 -17.8586 -1.07466)
(99.1781 2.15365 -1.46686)
(83.6 -13.3126 -0.722665)
(83.2814 -6.65282 -1.06075)
(77.9767 -14.1218 -0.327523)
(81.3045 -11.4863 -0.00676028)
(80.0536 -14.8078 0.397059)
(81.8101 -11.8339 0.142789)
(79.539 -12.5844 0.147705)
(79.8518 -10.0885 0.114592)
(77.31 -8.60876 0.0708829)
(77.0228 -5.31048 0.0347567)
(75.8312 -3.34669 0.0373973)
(75.2388 -0.933714 -0.0464535)
(72.9453 1.15451 -0.141503)
(236.261 103.999 100.059)
(223.03 -52.8248 22.3838)
(219.325 -62.4386 9.10806)
(135.313 -47.0042 6.68809)
(135.706 -32.7592 4.60016)
(97.8649 -18.9741 -0.113331)
(108.4 -2.89153 -0.884967)
(99.8366 -0.249731 -2.0931)
(103.104 -1.11488 -1.69282)
(99.6269 -6.76351 -1.03352)
(96.508 -12.0688 0.429638)
(86.962 -15.5186 0.891114)
(82.4422 -12.2264 0.489856)
(75.0204 -11.2485 0.378338)
(72.8305 -8.64343 0.0236484)
(70.1927 -7.41381 -0.0431009)
(70.375 -4.83386 -0.0980612)
(70.1883 -3.41217 -0.0445605)
(70.7365 -1.60493 -0.0179262)
(69.521 0.266486 -0.0712253)
(458.391 44.7426 -141.821)
(398.822 -51.8282 -81.0492)
(377.753 -42.9326 -23.586)
(263.631 -30.1587 -0.821932)
(197.023 -6.99853 7.99939)
(139.559 1.93783 2.41507)
(138.537 7.97589 -0.441478)
(131.71 3.56785 -0.818662)
(135.266 3.11808 -0.412017)
(131.266 -3.55009 0.0759433)
(126.007 -2.18552 1.73513)
(109.412 -6.11035 1.5985)
(100.119 -3.10824 1.34931)
(88.2513 -5.59665 0.65079)
(84.298 -5.68201 0.539284)
(77.4597 -6.32166 0.459822)
(76.1251 -4.96856 0.138535)
(74.0492 -3.68744 0.0714925)
(73.7873 -1.80282 0.0285872)
(71.6554 0.141859 -0.0493012)
(116.788 182.735 93.8506)
(59.6946 113.228 -2.75118)
(176.214 99.0241 -5.25585)
(120.951 54.5894 -2.35379)
(138.244 37.9376 1.93406)
(121.383 15.8553 1.54457)
(134.031 9.54606 1.61113)
(129.114 3.71686 1.45779)
(130.276 1.19436 2.17653)
(117.559 -2.25262 2.19971)
(109.738 -0.73021 2.76561)
(96.5273 -1.92492 1.23694)
(94.144 -0.769212 0.594401)
(88.8503 -1.40284 0.166198)
(86.424 -1.58946 0.419791)
(80.3765 -2.36411 0.371958)
(77.5633 -2.5146 0.176978)
(74.0897 -1.93398 -0.0151765)
(73.2593 -1.06479 -0.0830759)
(70.6441 0.068464 -0.104966)
(178.355 81.3982 41.9824)
(-9.13242 -22.5452 -2.13331)
(143.171 17.2631 -1.45392)
(84.9025 -0.835042 0.471917)
(131.269 -7.8063 5.02772)
(119.188 -12.0044 5.35954)
(129.354 -7.82038 5.77133)
(114.923 -4.39167 4.45952)
(110.934 4.15071 3.04283)
(95.6731 4.78165 1.57736)
(95.0658 5.51708 0.620211)
(90.8603 2.42051 0.0424853)
(92.1905 1.65479 -0.0794072)
(89.9822 0.50113 -0.0702861)
(89.1864 0.456512 0.0604828)
(85.9097 0.106012 0.0189065)
(83.9678 -0.0323831 -0.0081835)
(80.3765 0.115993 -0.123061)
(79.423 0.576805 -0.219558)
(76.4207 1.29064 -0.236597)
(331.23 113.146 -300.278)
(38.6505 92.7693 -22.7731)
(176.293 45.3589 10.4878)
(121.703 1.98949 2.01904)
(153.942 -21.5306 2.38865)
(136.024 -27.8432 1.13352)
(140.048 -19.341 5.08914)
(115.183 -6.54098 5.55093)
(107.215 4.64461 4.77788)
(89.4515 4.16646 2.46727)
(89.8672 1.35868 0.973419)
(87.0136 0.196915 0.452459)
(90.3236 1.20646 0.148618)
(89.2546 2.63239 -0.00692409)
(89.8968 3.86847 -0.187688)
(88.4197 4.03276 -0.383162)
(88.1004 4.14215 -0.613176)
(86.7656 3.79485 -0.771698)
(86.6331 3.20857 -0.902511)
(84.1031 2.56565 -0.888289)
(186.502 24.8441 74.0647)
(29.8335 43.3181 32.2542)
(148.34 23.0377 15.4928)
(95.5945 4.98962 -2.9662)
(145.527 -6.67599 -9.78944)
(145.752 -11.0322 -13.512)
(166.709 -12.1538 -13.3475)
(177.074 0.936399 -10.3776)
(195.616 9.59907 -1.47759)
(195.993 11.5561 2.87049)
(190.715 4.55263 6.64614)
(158.674 -1.5195 7.49529)
(138.866 -0.529193 4.88442)
(122.734 2.36505 3.19333)
(117.829 4.778 2.58965)
(111.817 6.25506 2.21043)
(110.488 7.35492 1.73243)
(109.157 7.88782 1.53226)
(109.419 8.52676 1.22802)
(109.788 8.03692 1.05689)
(134.727 -121.884 26.2374)
(45.911 -22.0511 6.62356)
(157.901 45.305 5.0012)
(106.497 41.0408 -6.48877)
(136.009 46.3515 -12.954)
(93.8735 19.151 -12.2427)
(107.313 15.7102 -4.33454)
(82.7276 10.4742 -0.737776)
(89.3357 10.4956 4.31898)
(79.9873 6.48471 1.85389)
(83.2795 2.42967 -0.534331)
(80.133 0.329577 -1.11059)
(83.6656 -1.23498 -1.08655)
(84.4325 -2.07525 -0.594834)
(88.2883 -2.74652 -0.100975)
(90.7269 -2.55031 -0.0694658)
(93.9518 -3.91043 0.060139)
(97.9952 -3.93294 -0.0187122)
(100.393 -4.93644 0.224778)
(101.914 -4.83205 0.520461)
(-29.6541 -55.901 90.0609)
(-128.905 -24.0749 -47.7668)
(80.4872 -28.3866 -24.128)
(-21.2883 -7.47448 -3.69596)
(93.6637 -9.51419 -1.05152)
(45.2817 -6.534 0.392764)
(87.1947 -6.21343 4.18963)
(66.7589 -0.314539 2.51131)
(82.09 1.35155 3.80462)
(75.69 1.59509 1.36652)
(81.2933 -1.56378 0.862029)
(78.6671 -2.39892 0.258238)
(81.7936 -4.03753 0.449013)
(82.0185 -4.51696 0.536002)
(84.5987 -5.09553 0.858959)
(85.9075 -4.96793 1.17161)
(88.194 -5.4354 1.37962)
(88.7043 -5.40712 1.66649)
(89.5827 -6.97541 1.78201)
(86.1808 -6.18424 1.39478)
(91.9723 29.561 -75.7195)
(15.0742 1.53598 -54.6359)
(131.81 15.4798 -36.3398)
(103.142 3.7995 -7.7016)
(134.442 5.84562 2.28473)
(98.7698 9.08147 3.52877)
(108.967 6.40267 5.68346)
(89.157 9.44584 3.44386)
(94.3916 6.22221 3.23556)
(86.9231 4.56461 1.56426)
(89.3912 -0.373925 1.33533)
(85.4432 -2.14044 0.511861)
(86.3077 -4.68549 0.807252)
(84.716 -5.09235 0.604526)
(85.5803 -5.89633 0.501384)
(85.1802 -5.58996 0.480407)
(85.7354 -5.73943 0.487643)
(84.5212 -5.10217 0.572542)
(84.0466 -6.43693 1.03951)
(77.1569 -5.58458 0.174183)
(-8.65963 -42.3753 164.693)
(-131.459 -49.4937 -18.7634)
(88.5375 -26.4434 -2.49015)
(6.63239 -3.21001 -3.39587)
(103.552 6.61621 -4.80756)
(62.7865 7.98087 -5.19395)
(96.3766 4.39548 -0.70308)
(82.0352 5.54456 -0.440375)
(94.0511 3.2893 1.66747)
(88.5103 2.98574 1.03491)
(91.2915 -0.171737 1.26407)
(87.1441 -1.20519 0.381156)
(86.9095 -4.29957 0.373624)
(83.8084 -5.07256 -0.196869)
(83.7029 -5.93287 -0.224992)
(83.1543 -5.63285 -0.142481)
(83.8308 -5.2375 0.00117514)
(82.5238 -4.24085 0.270824)
(82.0387 -4.36714 1.07879)
(73.7086 -3.27407 0.119159)
(45.7963 9.49642 146.941)
(10.5608 -70.8565 7.29621)
(98.4458 -60.1016 -11.733)
(56.8142 -27.3801 -1.08965)
(114.153 -15.8497 -1.69574)
(88.4927 -1.12309 -2.35354)
(108.244 -0.84151 -0.467028)
(95.3605 5.51613 -1.04883)
(101.019 3.10904 0.101058)
(94.9371 4.89275 -0.298632)
(96.066 1.88601 0.199399)
(91.9364 1.41979 -0.0875186)
(91.9114 -1.78386 0.209451)
(88.7397 -3.36036 -0.166384)
(88.7107 -5.77182 -0.336304)
(87.8459 -6.11469 -0.262281)
(88.2733 -5.65028 -0.163117)
(86.3706 -4.06444 0.099205)
(85.0813 -2.71449 1.09811)
(74.1553 -1.13892 0.128719)
(-0.493899 30.5593 41.6899)
(-95.8778 -66.9883 -40.6035)
(109.431 -45.2338 -28.3141)
(10.1901 -23.1792 1.40669)
(98.4707 -16.891 -0.298987)
(53.4856 0.560396 -0.222042)
(90.0657 -1.54312 1.44617)
(78.5894 4.19335 -0.263096)
(89.6328 2.98644 0.242729)
(87.4196 4.28375 -0.475666)
(90.9734 2.76584 -0.284823)
(90.3538 1.95486 -0.362758)
(92.1377 -0.585469 -0.0685937)
(91.8906 -3.23814 0.272115)
(92.8749 -6.26659 0.798011)
(92.0932 -6.33459 0.675745)
(92.2386 -4.95491 0.118826)
(89.5053 -2.00483 -0.484169)
(88.5929 2.52027 0.468808)
(78.5518 3.37221 -0.170444)
(144.382 -131.805 -115.095)
(-18.569 -78.1239 -33.2999)
(142.154 -86.831 -31.2928)
(94.0583 -39.5175 -4.52526)
(125.064 -28.861 -0.100186)
(90.2235 -5.21004 -0.492819)
(96.9769 -14.5618 -0.165432)
(84.2951 2.17492 -0.59684)
(87.5437 -3.07999 -0.881901)
(83.8111 1.78003 -0.983028)
(86.3359 -1.25782 -0.913517)
(84.7132 -1.05054 -0.424017)
(86.0036 -4.44947 0.754563)
(85.0531 -5.60113 2.52011)
(85.1207 -6.6082 2.22329)
(83.1105 -5.81669 1.1087)
(82.5828 -3.4333 -0.535077)
(81.3009 -0.741388 -1.41371)
(82.3987 3.60814 -1.34044)
(77.7288 4.93073 -1.08762)
(90.0321 -43.5143 74.3106)
(2.09902 -39.6177 -59.317)
(88.1518 -40.3764 -24.1331)
(19.5161 -11.8171 -5.35563)
(87.0597 -4.46839 -4.00603)
(50.518 18.9333 -2.2601)
(73.2992 10.1013 -0.65992)
(65.7483 4.04516 -1.22237)
(74.1313 6.31996 -1.50928)
(75.4899 2.3666 -1.43042)
(79.7927 3.27704 -1.02204)
(80.6253 1.09903 -0.0714573)
(80.647 -0.295959 1.45005)
(77.4203 -3.195 2.68623)
(72.065 -4.28897 0.499954)
(71.5112 -4.00344 -0.376953)
(72.0175 -3.11974 -1.05264)
(72.6254 -1.45046 -1.65995)
(74.1963 1.63222 -2.0215)
(72.0869 3.77278 -1.38298)
(127.999 -173.008 21.3964)
(50.362 -125.889 -28.4001)
(119.931 -97.7847 -10.2796)
(61.5794 -52.2309 -6.93935)
(84.8775 -34.7766 -7.17639)
(69.1092 -4.59957 -5.49343)
(82.8512 9.89569 -3.57672)
(67.8162 -2.02507 -1.22902)
(69.244 -0.698342 -1.26589)
(71.114 -0.692749 -1.04499)
(73.555 -0.154941 -0.588109)
(74.6388 -0.333504 0.055008)
(73.3937 -0.407834 1.68325)
(70.8563 -1.20559 2.84534)
(68.964 -4.2011 0.392691)
(68.7362 -5.01746 -0.0988803)
(69.7492 -4.00693 -0.522585)
(70.2773 -2.65427 -0.722877)
(70.6635 -0.0646442 -0.870879)
(67.5808 2.89419 -0.789661)
(126.598 -210.092 112.403)
(-2.70606 -93.9799 -6.90438)
(88.924 -22.6754 -6.41379)
(12.5932 -3.6123 -1.11614)
(58.701 19.0808 -3.65852)
(35.8573 -0.64989 -5.09698)
(53.9544 9.2678 -2.5938)
(62.1252 2.27909 -0.559881)
(60.7066 -2.12978 -0.427011)
(61.199 -2.9652 0.143509)
(61.6611 -2.28203 0.252767)
(62.0369 -2.17791 0.106683)
(64.032 -2.64903 -0.0170187)
(67.7905 -4.71902 -0.220498)
(71.9248 -7.56891 0.542686)
(74.1318 -7.08419 0.707875)
(73.7515 -4.47762 0.380468)
(73.5365 -2.5009 0.117468)
(73.2229 0.725276 -0.0491831)
(69.8035 3.23395 -0.30104)
(170.315 -105.001 31.2097)
(-124.932 -45.1753 13.774)
(76.1663 -30.5761 15.4408)
(-74.2173 -23.9433 18.0693)
(59.1934 -15.2527 2.56696)
(17.1609 -10.9878 -0.965392)
(47.9842 -3.06035 -0.171597)
(58.1877 -0.61043 -0.939301)
(59.8301 -2.3977 -1.22591)
(62.7418 -5.87101 -0.446361)
(67.2334 -5.69702 0.149665)
(72.5688 -4.52088 -0.572322)
(77.1236 -5.24815 -0.691831)
(82.3393 -8.77902 -1.15862)
(85.5151 -10.3874 0.522631)
(79.6743 -5.79899 0.734402)
(78.0918 -3.93635 0.903253)
(77.5681 -2.62978 0.578731)
(77.559 0.295611 0.407108)
(75.3696 2.99035 0.155422)
(-3.47955 -118.296 -78.7789)
(-137.945 -40.9385 31.7855)
(85.3578 -63.6527 22.8435)
(-22.2683 -20.5797 12.1715)
(65.1877 -26.9497 7.37388)
(35.0188 -26.2162 0.563315)
(65.8395 -28.911 3.7754)
(73.7081 -4.48684 2.63922)
(74.4453 -4.94873 -0.527227)
(74.9681 -8.02601 -0.27644)
(75.5916 -9.80177 -0.381437)
(78.651 -9.70399 0.523343)
(83.1438 -10.2715 1.01613)
(85.1333 -12.1743 0.768765)
(79.3997 -9.1136 0.0589101)
(74.5951 -5.62732 -0.47532)
(74.2551 -2.97393 -0.0253259)
(74.936 -2.28702 0.205786)
(75.0325 -0.1788 0.0587593)
(74.144 2.30119 0.0130316)
(169.807 52.5898 21.9795)
(16.0292 -65.76 -5.24119)
(104.576 -68.1417 14.9845)
(15.3534 -28.1243 5.21516)
(90.1349 -35.0862 8.09438)
(44.0324 -45.6995 1.33235)
(60.376 -24.5574 2.25847)
(48.0651 -10.2189 1.71131)
(64.2543 -11.4901 1.51221)
(61.1423 -8.96722 1.48825)
(66.6942 -11.651 1.24361)
(65.4157 -10.9962 0.974945)
(68.5124 -11.2078 0.563325)
(68.0077 -10.4758 0.191105)
(67.1794 -8.8097 -0.390224)
(68.2576 -7.58542 -0.247327)
(69.0991 -4.27057 -0.0720698)
(69.5582 -3.39501 -0.0604211)
(69.605 -1.25516 -0.320691)
(68.2423 1.11883 -0.435503)
(116.438 106.683 -53.3756)
(28.5438 -13.2159 5.51929)
(117.117 -45.4748 -7.79004)
(61.871 -30.1794 -3.4155)
(104.837 -29.39 1.4102)
(70.7599 -21.136 -1.49466)
(75.6646 -0.885949 -0.9415)
(59.9686 -19.5782 -0.333836)
(64.2605 -9.49964 -1.00743)
(59.7135 -17.4702 0.0889236)
(64.6437 -12.5992 0.267199)
(63.4619 -15.4297 0.854629)
(66.1438 -11.4224 0.384694)
(64.927 -11.9085 0.386321)
(66.3221 -8.83003 0.260541)
(65.1321 -6.99657 0.138846)
(65.8327 -4.00986 0.0134428)
(65.686 -2.66277 -0.00101197)
(65.8231 -0.659919 -0.156155)
(64.3294 1.07774 -0.288014)
(161.382 4.40754 113.044)
(108.412 -6.99663 41.4201)
(152.736 -41.6109 24.0913)
(82.2931 -36.6574 12.5749)
(108.848 -29.6353 8.54455)
(69.1542 -23.8527 0.478462)
(87.3233 -10.2864 -0.254749)
(74.315 -12.8896 -2.34524)
(78.7009 -11.9573 -1.31071)
(73.0191 -15.0669 -0.631867)
(72.9524 -14.5815 0.900663)
(68.5392 -14.8455 1.29483)
(67.3459 -12.0469 0.83422)
(63.7278 -10.8344 0.62275)
(63.134 -8.34402 0.121966)
(61.6247 -7.0111 0.0259526)
(62.2812 -4.49144 -0.0773629)
(62.2577 -3.25329 -0.0291768)
(62.8929 -1.4631 -0.0401049)
(61.8197 0.229427 -0.169069)
(423.697 55.8483 27.5399)
(270.449 0.260587 39.7548)
(230.714 -16.2014 26.6617)
(147.607 -15.4766 20.0029)
(143.736 -8.06721 16.2028)
(108.299 -7.68174 5.58527)
(110.878 -3.46131 1.02813)
(98.6418 -10.3527 -0.250318)
(101.176 -8.38081 0.529433)
(91.7501 -12.1911 1.16604)
(89.7019 -8.74408 2.59572)
(80.8125 -9.87324 2.17673)
(77.7923 -6.84648 2.01908)
(71.6803 -7.91173 1.04992)
(70.1062 -6.77591 0.763429)
(66.8026 -6.32917 0.58891)
(66.5781 -4.71693 0.216361)
(65.1311 -3.39311 0.108446)
(65.1366 -1.6648 0.0308112)
(63.3622 -0.0628832 -0.129194)
(194.317 162.049 -87.8117)
(65.0033 46.2889 -50.9454)
(147.977 52.8202 -17.0061)
(79.449 21.0238 -2.30136)
(110.095 17.5555 6.26261)
(89.3906 1.21328 3.45927)
(105.545 -2.24447 3.93303)
(93.9925 -7.2934 3.03673)
(97.2505 -6.40232 3.81078)
(84.9459 -7.45716 3.14702)
(83.7837 -4.81232 3.49234)
(76.924 -5.27767 1.68058)
(76.4057 -4.10657 0.990449)
(72.6181 -4.54741 0.340022)
(71.6104 -3.7913 0.484479)
(68.7775 -3.71082 0.266606)
(67.9817 -2.94175 0.0650958)
(66.0231 -2.15735 -0.121966)
(65.6529 -1.23448 -0.197617)
(63.4708 -0.139564 -0.260841)
(89.3004 127.25 259.224)
(-64.45 16.4905 -2.2708)
(129.197 12.0835 5.91234)
(59.1144 -13.8264 2.60007)
(115.424 -11.8675 12.0713)
(97.8112 -10.3296 9.9388)
(111.181 -6.27177 10.1213)
(93.0546 -4.45103 6.54898)
(92.414 0.562058 4.61943)
(79.4977 0.180683 2.32397)
(80.7026 0.2653 1.16259)
(76.5164 -2.55891 0.220802)
(78.7243 -2.66513 0.0891081)
(76.6702 -3.27092 -0.154775)
(76.903 -2.59208 -0.122308)
(74.9688 -2.39851 -0.270308)
(74.4049 -1.65807 -0.276549)
(72.5961 -1.09523 -0.375691)
(72.1233 -0.368529 -0.420515)
(69.5523 0.495375 -0.496254)
(80.9975 71.2396 -164.032)
(-121.234 32.3385 34.2009)
(146.085 9.03867 -15.943)
(75.77 -9.18718 -7.87833)
(124.598 -17.8916 -0.352709)
(97.5335 -11.5703 1.5087)
(107.4 -1.5725 7.36708)
(89.8674 6.4782 4.97425)
(92.2409 7.97327 4.38944)
(81.1893 4.24212 1.50757)
(83.9224 -0.600968 1.12928)
(81.9716 -3.29412 0.87058)
(85.2325 -3.05901 0.28433)
(83.9373 -1.97074 -0.535492)
(84.8266 -0.767391 -0.971584)
(83.8383 -0.239882 -1.36342)
(84.0428 0.392252 -1.63329)
(83.1217 0.658457 -1.82032)
(83.0415 0.997178 -1.84773)
(80.4189 1.05754 -1.72401)
(73.9175 15.9426 198.364)
(-39.16 18.2157 19.9103)
(145.965 30.6101 1.2008)
(94.6999 25.9693 -10.4755)
(140.205 11.4444 -14.4951)
(122.823 7.48898 -15.5529)
(133.349 11.4658 -10.4513)
(130.923 18.241 -4.41159)
(144.234 18.6143 0.391167)
(151.649 15.7147 4.82862)
(155.135 2.93926 11.1557)
(143.342 -2.32611 12.7136)
(134.453 -1.65801 10.0122)
(122.934 0.691023 7.10267)
(119.849 2.32633 5.33127)
(116.088 2.87892 4.70207)
(115.417 3.43413 3.9373)
(114.395 3.59296 3.42584)
(114.868 3.98924 2.58469)
(115.202 3.66882 2.08072)
(180.818 -229.406 -28.2931)
(63.0632 -77.3027 -13.342)
(188.236 10.4696 -21.9096)
(139.264 29.8051 -15.8437)
(144.808 45.4719 -13.6357)
(78.5182 20.1926 -11.752)
(87.8503 15.4576 -4.64506)
(60.0126 7.25806 -3.53451)
(72.6374 5.02514 2.08969)
(65.5664 2.00918 0.398121)
(72.1856 -0.690469 -0.246461)
(69.2398 -1.66468 -0.685451)
(73.4895 -2.74076 -0.257463)
(74.0868 -2.84843 -0.0432445)
(77.9675 -3.14194 0.420414)
(80.256 -3.03372 0.322114)
(83.755 -4.07873 0.423238)
(87.5188 -3.99369 0.581687)
(90.0291 -5.05767 0.848475)
(91.9063 -4.56812 0.893257)
(112.001 -148.521 15.8118)
(-82.0668 -30.2498 -80.2173)
(83.1141 -28.8875 -36.2059)
(-27.9127 -8.83072 -2.01214)
(85.5968 -8.51079 -0.0870007)
(28.5678 -6.22693 0.766693)
(74.2214 -7.86654 3.91695)
(51.3696 -2.7647 1.83098)
(69.535 -2.64509 3.2595)
(62.2389 -1.53558 0.957048)
(68.9139 -3.8441 0.744097)
(65.5516 -3.6995 0.0215822)
(68.762 -4.68021 0.344405)
(68.3636 -4.32392 0.364733)
(70.657 -4.46004 0.653549)
(71.5271 -4.01325 0.851474)
(73.3335 -4.3501 1.01103)
(73.9887 -4.14514 1.26395)
(75.2289 -5.44123 1.34898)
(72.1653 -4.24917 0.833076)
(234.871 0.356915 -98.8032)
(117.056 -10.1686 -47.3249)
(147.547 20.1825 -37.6788)
(89.9941 11.07 -7.66721)
(116.521 13.6949 3.02024)
(76.0654 14.7815 3.40211)
(91.4175 8.41051 5.60929)
(71.5057 8.83545 2.80928)
(79.2401 3.78988 2.88798)
(71.0218 2.4409 1.15909)
(74.0159 -1.92445 1.18177)
(69.6902 -2.62367 0.317336)
(70.7885 -4.38042 0.647824)
(69.0754 -4.1068 0.442622)
(70.0573 -4.48819 0.435912)
(69.506 -3.91431 0.381401)
(70.0792 -4.09106 0.402681)
(68.9514 -3.58951 0.44666)
(68.9406 -4.70339 0.776479)
(63.4732 -3.63624 -0.243329)
(338.628 -213.11 129.216)
(-45.7243 -64.7918 26.3132)
(104.197 -12.5334 0.0559569)
(-5.12792 5.46873 -1.6231)
(90.0232 10.948 -2.96634)
(40.7082 10.8914 -4.78314)
(78.0258 6.02229 -0.0469636)
(60.9585 6.90491 -0.814217)
(75.1423 3.4485 1.57011)
(68.8218 2.90728 0.741388)
(72.9413 -0.516039 1.19004)
(69.1929 -1.46738 0.401406)
(69.9699 -3.87705 0.362453)
(67.9118 -4.09595 -0.2085)
(68.3455 -4.57934 -0.122)
(67.6863 -3.92327 -0.0800686)
(68.2184 -3.51054 0.0204232)
(66.5535 -2.71383 0.205365)
(66.2667 -2.88756 0.850426)
(59.7873 -1.87286 -0.287256)
(186.208 117.002 11.3175)
(63.4824 -25.9966 4.79907)
(97.0364 -52.2931 -5.61075)
(46.8616 -22.2453 0.610836)
(100.906 -14.0322 -0.763694)
(68.146 -0.356683 -1.89062)
(89.6678 -1.34842 0.16623)
(74.118 5.58329 -0.939698)
(81.1084 2.33925 0.402763)
(74.0245 4.3224 -0.250263)
(75.946 0.749334 0.327087)
(72.0073 0.264244 -0.0714866)
(72.6982 -2.81827 0.217508)
(70.8574 -3.69116 -0.0589613)
(71.5007 -5.00164 -0.151702)
(70.8049 -4.56353 -0.15101)
(71.1428 -3.57624 -0.0979456)
(68.4528 -2.07349 -0.0939739)
(67.3113 -1.07481 0.7637)
(59.4124 -0.064072 -0.236708)
(324.459 104.835 54.3939)
(101.918 8.43238 -12.4792)
(121.426 -20.233 -10.5509)
(7.14981 -14.0539 3.6588)
(86.889 -12.2602 1.36658)
(35.2335 3.19838 -0.682168)
(74.3546 -0.618854 1.21817)
(59.5885 5.60168 -0.661474)
(71.3626 3.36005 0.360622)
(67.7105 4.4551 -0.495745)
(71.4991 1.94762 -0.115947)
(70.4178 0.728772 -0.274691)
(72.3333 -2.34235 0.0442882)
(72.2344 -4.19524 0.35875)
(73.4494 -5.63001 0.615455)
(73.0801 -4.91519 0.521362)
(73.648 -2.61202 -0.00543442)
(70.6256 0.267826 -0.406825)
(69.5067 3.02835 0.292048)
(61.6771 3.08531 -0.444652)
(297.368 -34.6026 -85.262)
(88.0365 -57.1888 -29.8763)
(139.988 -64.8912 -32.7715)
(71.5392 -28.9888 -6.4868)
(106.042 -23.2144 0.153779)
(68.1573 -1.76222 -0.389627)
(78.7655 -13.6882 0.659864)
(65.2659 4.37611 -0.359068)
(69.795 -2.86695 -0.474402)
(65.3644 2.03961 -0.70303)
(67.9615 -2.19733 -0.648384)
(66.1229 -2.0143 -0.254012)
(67.6883 -5.23207 0.78345)
(67.7452 -5.21745 2.03957)
(69.3169 -5.28386 1.68744)
(68.6759 -4.22784 0.656113)
(68.9557 -1.60194 -0.527956)
(67.1651 1.02509 -1.14836)
(67.1548 4.2063 -1.05736)
(62.048 4.46567 -1.10527)
(256.015 -155.677 54.23)
(45.0165 -64.3557 -28.7168)
(103.748 -42.2906 -13.299)
(17.8804 -14.7337 -5.64641)
(78.5906 -3.39851 -3.84358)
(36.3266 20.8158 -2.53641)
(59.3749 9.46033 -1.01568)
(51.258 5.64281 -1.32139)
(58.9873 5.84833 -1.40705)
(59.5511 2.22938 -1.28552)
(63.177 2.35684 -0.702857)
(63.4621 -0.317948 0.485123)
(64.7081 -1.55153 1.69107)
(64.706 -2.92137 2.19846)
(62.1604 -3.59204 0.662965)
(61.6184 -3.02776 -0.35203)
(62.0397 -2.03682 -0.881182)
(61.7776 -0.347967 -1.39376)
(62.1941 2.22471 -1.55434)
(58.9496 3.3954 -1.25094)
(132.416 -121.034 123.227)
(18.0407 -83.2465 -42.9601)
(117.512 -89.536 -4.16095)
(54.9631 -49.6426 -5.13999)
(76.1937 -32.6154 -5.42756)
(57.4449 -0.170613 -4.63576)
(66.5447 10.3348 -2.54493)
(52.9764 -2.32228 -0.939372)
(55.5621 -0.992522 -1.10393)
(56.7923 -1.67623 -0.86369)
(58.8305 -1.12742 -0.334355)
(59.4061 -1.79537 0.591884)
(59.9478 -1.85788 1.89202)
(61.2415 -2.14962 2.07383)
(61.2454 -3.58084 0.474837)
(60.0278 -4.14363 0.366414)
(60.3201 -3.29143 -0.276634)
(60.3692 -2.00235 -0.49859)
(60.3598 0.426754 -0.670875)
(57.1473 2.46205 -0.77714)
(159.867 -139.59 -40.9309)
(18.461 -61.9951 -30.7595)
(91.1328 -17.9689 -16.6255)
(10.7365 -6.64484 -2.9008)
(50.7336 14.1264 -4.50338)
(27.5513 -3.23827 -6.21332)
(45.8856 8.04742 -2.98781)
(51.7552 -1.0561 -0.341624)
(51.6245 -4.23953 -0.305882)
(52.5008 -4.44002 0.113709)
(53.7406 -3.73159 0.150473)
(55.1826 -3.96837 -0.0391099)
(57.8097 -4.30183 -0.341893)
(61.0771 -5.17838 -0.144732)
(63.2499 -6.47615 1.09586)
(63.3321 -5.5 1.09399)
(63.1202 -3.3746 0.539542)
(63.0036 -1.85666 0.261086)
(62.6673 0.752964 0.0273676)
(59.4577 2.47345 -0.396903)
(71.046 44.3202 -185.349)
(-175.563 -32.0163 12.2868)
(41.1915 -28.5766 0.0829435)
(-81.3562 -22.7939 13.2091)
(45.2675 -18.5107 -2.24089)
(3.36796 -15.9766 1.61824)
(38.4689 -8.34878 0.82413)
(49.7362 -5.60576 -0.271854)
(52.4464 -6.25716 -0.79415)
(54.676 -7.22209 -0.736064)
(60.0832 -7.02659 -1.7715)
(65.2542 -7.179 0.0278096)
(67.9754 -7.75288 -0.997716)
(71.5241 -9.04375 -0.713331)
(71.4464 -7.56704 0.953476)
(66.4975 -4.58797 1.31748)
(65.9977 -2.99121 0.87679)
(66.2014 -1.79072 0.557534)
(66.3295 0.87942 0.388672)
(63.9972 2.46504 -0.058888)
(118.155 -14.8658 -38.7701)
(-124.653 -30.3291 2.19798)
(65.6288 -54.0564 9.42118)
(-40.5094 -18.8368 14.1493)
(53.2296 -30.3847 3.83175)
(20.4926 -33.8298 2.66539)
(53.3213 -33.8147 4.85267)
(59.1271 -9.49583 3.07221)
(60.6311 -9.83694 0.626572)
(61.1227 -9.93606 0.285182)
(63.2007 -10.8002 0.201969)
(66.1883 -10.4134 0.768976)
(69.6902 -10.7393 0.812713)
(70.9913 -10.4878 0.551142)
(68.2206 -6.8357 -0.00427768)
(63.96 -4.8169 0.170208)
(63.554 -2.34791 0.129785)
(64.4078 -1.64714 0.229342)
(64.6957 0.77539 -0.0279986)
(63.4247 2.38202 -0.181211)
(132.324 162.427 -5.13277)
(-84.2316 -36.4237 -30.2825)
(85.0809 -55.1736 -7.3744)
(-10.1451 -24.8625 4.3124)
(78.6422 -39.0132 5.01551)
(25.1442 -48.5482 1.09068)
(44.551 -20.743 2.69217)
(32.6283 -12.9565 1.82903)
(51.1558 -13.179 1.68311)
(48.2571 -11.1887 1.5324)
(56.0123 -12.5858 1.24085)
(55.4746 -11.1873 0.911817)
(59.636 -10.7864 0.433136)
(59.2289 -9.51156 0.0123019)
(58.2411 -7.55006 -0.00507672)
(59.0427 -6.53522 -0.103394)
(59.7863 -3.54945 -0.0110999)
(60.3266 -2.79816 -0.0683751)
(60.5632 -0.542579 -0.35907)
(59.1543 1.29174 -0.511373)
(128.795 15.3709 -137.087)
(17.5166 -20.0717 -20.15)