/*--------------------------------*- C++ -*----------------------------------*\
  =========                 |
  \\      /  F ield         | OpenFOAM: The Open Source CFD Toolbox
   \\    /   O peration     | Website:  https://openfoam.org
    \\  /    A nd           | Version:  10
     \\/     M anipulation  |
\*---------------------------------------------------------------------------*/
FoamFile
{
    format      ascii;
    class       volVectorField;
    location    "7.7";
    object      U_0;
}
// * * * * * * * * * * * * * * * * * * * * * * * * * * * * * * * * * * * * * //

dimensions      [0 1 -1 0 0 0 0];

internalField   nonuniform List<vector> 
12920
(
(183.719 3.6611 -58.8194)
(128.392 -9.8668 -10.5455)
(189.958 18.8225 9.76274)
(135.243 30.5019 -1.03464)
(167.58 49.578 -8.26086)
(153.868 32.2933 -12.2563)
(175.91 26.8382 -8.58482)
(162.988 21.9863 -4.06206)
(145.949 21.7269 4.33082)
(109.38 14.1223 2.42708)
(105.473 7.8241 -0.312447)
(97.5101 4.51519 -0.680514)
(98.7916 2.51873 -0.854227)
(97.9019 1.81597 -0.579992)
(99.7908 1.03667 -0.398285)
(101.598 1.74675 -0.428691)
(103.592 1.16008 -0.495714)
(107.356 1.24531 -0.501275)
(109.183 0.41147 -0.425434)
(110.591 0.833127 -0.497795)
(112.557 49.003 -68.9829)
(-80.4196 -39.6002 -3.463)
(103.842 -33.2811 -16.1556)
(9.69348 -8.42548 -3.16313)
(115.166 -1.56878 0.586376)
(82.6318 4.17701 1.25486)
(117.875 5.78102 3.07562)
(99.004 11.6262 2.41311)
(105.615 13.4618 2.86979)
(95.5711 12.3269 1.13328)
(98.0589 7.72652 0.466886)
(94.3402 4.78482 0.0884097)
(96.987 2.48852 0.171316)
(96.398 -0.747014 0.387935)
(99.6196 -3.17388 0.686627)
(100.324 -4.48383 1.03495)
(102.519 -5.89751 1.2842)
(102.439 -6.13146 1.48224)
(102.332 -8.04487 1.6032)
(98.4095 -8.06301 1.52693)
(86.4053 216.722 -80.352)
(25.163 70.7053 -35.0208)
(174.254 45.5505 -22.1843)
(150.332 13.7669 -3.79848)
(169.123 5.01053 3.73645)
(127.973 6.78724 4.32792)
(129.201 7.86313 4.60502)
(107.024 14.965 3.13033)
(109.469 14.6449 2.48514)
(102.417 13.2663 1.41045)
(105.501 8.09419 1.1069)
(102.059 3.6034 0.557869)
(104.412 -0.840184 0.688571)
(102.766 -3.56452 0.492335)
(104.161 -6.17198 0.329054)
(103.711 -6.78229 0.322726)
(104.13 -7.61905 0.315709)
(102.71 -7.15186 0.403451)
(101.455 -8.83027 0.840925)
(91.7596 -8.29069 0.478283)
(112.804 111.541 -7.99434)
(-70.113 43.032 41.1905)
(127.58 19.0239 4.66796)
(23.5359 17.2852 -0.337705)
(122.797 15.2711 -3.68746)
(88.8286 9.81921 -3.89741)
(121.021 4.60463 -1.30287)
(108.213 5.65396 -0.0515788)
(116.948 4.81559 1.2165)
(111.215 5.23204 1.12447)
(112.824 2.56416 1.11436)
(108.617 1.33874 0.498294)
(107.771 -2.37862 0.406341)
(103.444 -4.39684 -0.0248461)
(102.654 -6.182 -0.246095)
(102.026 -6.94003 -0.189018)
(102.732 -7.30228 -0.142251)
(101.931 -6.61448 0.0464144)
(100.969 -6.95336 0.700284)
(89.7006 -5.68607 0.407449)
(56.0198 56.4176 39.4758)
(13.218 -55.2037 25.8981)
(129.409 -36.8808 2.47496)
(82.1059 -8.74453 1.42888)
(137.064 1.37888 -0.224113)
(114.339 11.972 -1.37801)
(132.69 9.94208 -0.81572)
(121.928 13.2016 -0.873951)
(127.016 9.37512 -0.252213)
(122.547 9.43171 -0.243631)
(123.486 6.10035 0.0554209)
(119.741 5.50594 0.0277332)
(118.68 2.16129 0.234629)
(113.662 0.370754 -0.0432182)
(112.195 -3.66152 -0.331852)
(110.273 -6.09897 -0.298712)
(110.238 -7.32276 -0.317013)
(109.486 -6.6936 -0.148109)
(108.175 -6.03037 0.614016)
(93.1817 -3.98792 0.335478)
(137.874 78.8443 9.0665)
(-115.554 -82.3126 36.7795)
(147.857 -26.6673 -10.2088)
(20.2347 -7.07385 1.49501)
(117.637 -5.65306 -0.846347)
(74.6547 8.38263 0.43408)
(109.343 4.58884 1.13113)
(100.988 7.84938 0.281522)
(111.899 5.6886 0.222941)
(111.821 6.67277 -0.236114)
(116.544 5.37799 -0.249889)
(117.157 5.26145 -0.344063)
(119.431 3.67268 -0.262233)
(119.656 1.73562 -0.158203)
(120.36 -2.36931 0.452208)
(118.232 -4.51799 0.669619)
(116.082 -5.82671 0.20167)
(114.292 -5.02484 -0.330825)
(114.344 -0.315144 0.193063)
(101.292 2.42122 0.084446)
(298.542 -259.499 -198.937)
(9.0293 -45.2416 -14.5284)
(170.458 -49.5935 -10.4647)
(98.8187 -12.6453 -2.19346)
(137.319 -17.9269 -2.08493)
(109.182 -0.960157 -0.65939)
(117.585 -11.9573 -0.618261)
(106.151 3.09885 -0.567424)
(109.13 -0.987665 -0.924964)
(106.355 4.04901 -0.959645)
(109.581 1.8937 -0.982143)
(109.181 2.78736 -0.731306)
(109.834 -0.315053 0.00546699)
(106.477 -2.12268 1.53254)
(101.731 -5.77441 1.94089)
(96.3623 -5.64494 0.97072)
(94.8532 -4.82878 -0.0845358)
(94.4822 -3.50773 -0.944935)
(97.8473 0.110442 -1.25457)
(96.6211 3.93382 -0.829874)
(-52.8849 10.1223 4.29237)
(-112.223 73.947 -52.2517)
(103.583 5.20446 -23.953)
(25.4586 9.00272 -3.91145)
(102.903 -0.637506 -3.1316)
(66.9976 20.6048 -2.11507)
(84.9571 15.1624 -0.861329)
(80.0879 7.64463 -0.510489)
(90.1438 11.4691 -0.427199)
(93.0168 6.85024 -0.336583)
(98.3685 7.70065 -0.254981)
(100.03 6.95703 -0.0453437)
(98.5186 6.62257 0.330922)
(89.0765 1.10549 1.0084)
(79.0007 -3.19682 0.598761)
(77.8984 -3.68394 -0.069952)
(78.4056 -3.40219 -0.57251)
(80.0275 -2.91605 -1.1686)
(84.1338 -0.514309 -1.79499)
(86.137 3.22844 -1.12099)
(-18.4722 -86.2195 -31.3689)
(-31.4733 -25.6994 -20.8561)
(105.006 -51.3622 -12.4033)
(56.9519 -18.2533 -7.01229)
(98.3768 -19.664 -6.49041)
(71.1087 7.64052 -2.68042)
(92.7993 17.3087 -0.791099)
(81.5215 3.95207 -0.205816)
(83.249 5.97191 -0.303681)
(86.6881 7.35352 -0.260172)
(91.1974 6.48011 -0.148371)
(94.9249 6.81268 -0.0634407)
(95.2149 6.66066 0.120232)
(84.1425 6.27148 0.677992)
(72.5425 -2.26699 0.296569)
(73.0415 -4.07705 -0.0971219)
(75.0345 -3.43547 -0.314479)
(76.6771 -2.68177 -0.540845)
(77.7624 -0.629992 -0.714003)
(75.347 3.32993 -0.556316)
(152.7 -148.81 5.85142)
(31.2242 -43.9934 10.8914)
(97.0299 33.4359 1.87114)
(21.5608 33.5914 1.38807)
(70.1757 47.7249 -1.05763)
(36.4564 19.8862 -0.588037)
(53.0191 21.804 0.188708)
(66.2248 14.6254 -0.388471)
(65.2539 8.71806 -0.131492)
(64.9164 5.99615 0.0247631)
(63.6648 5.96555 0.062798)
(61.9567 5.20347 -0.00375457)
(63.9407 4.0201 0.0109591)
(68.1775 -0.399619 -0.134773)
(74.286 -6.01897 -0.227412)
(80.7781 -7.13424 0.504458)
(79.6915 -4.73154 0.345078)
(79.7946 -2.63358 0.0544963)
(79.7542 1.04227 -0.0516991)
(76.438 4.43657 -0.113122)
(173.326 -36.209 14.9079)
(-119.748 -27.9175 1.56898)
(108.444 -6.99649 1.61245)
(-44.6309 0.0394472 8.69774)
(63.8186 5.73409 3.70998)
(24.693 10.6337 -1.51058)
(48.8601 16.3896 -0.286625)
(61.8414 16.5019 -0.460818)
(61.5239 12.4283 -0.411572)
(66.5641 1.43338 -0.212419)
(71.6226 0.289148 -0.00216463)
(78.3147 2.15344 -0.141696)
(81.9138 3.90109 0.0333319)
(83.5286 -0.163406 -0.55763)
(96.0097 -11.0543 0.110438)
(91.1901 -6.48626 0.607319)
(86.4704 -4.17726 0.873868)
(84.222 -3.09846 0.5036)
(83.3866 -0.674754 0.324625)
(81.6651 3.3543 0.254848)
(215.608 -87.7495 -268.166)
(16.1166 -52.8246 -1.18798)
(125.12 -59.9222 19.0309)
(26.0298 -15.0545 10.5874)
(72.9694 -10.0092 7.22455)
(37.2257 -4.81526 -1.17564)
(66.3915 -3.3874 0.162562)
(72.5993 16.0012 0.212142)
(73.1701 15.2565 -0.400799)
(80.1736 2.46291 -0.27847)
(81.7982 -1.08999 -0.452313)
(88.7173 -3.55588 0.0165879)
(93.6313 -2.92789 0.321404)
(102.321 -7.70935 0.0791516)
(87.7331 -9.58982 0.318967)
(80.8291 -5.08377 -0.341624)
(80.7615 -2.45523 -0.00618673)
(81.1028 -2.39031 0.154328)
(80.6056 -1.49986 0.158313)
(79.3225 1.03243 0.177927)
(96.6303 -19.8732 -111.501)
(102.922 -63.5932 -47.5505)
(156 -64.5716 -6.18501)
(76.4137 -29.1076 3.58735)
(99.4267 -19.8666 8.09843)
(57.4833 -29.4481 2.17301)
(65.9908 -15.0544 0.19034)
(59.671 2.74758 0.00271904)
(73.3979 1.73436 0.319683)
(72.494 3.05256 0.330933)
(73.8007 -2.14431 0.538384)
(70.1705 -4.00128 0.443776)
(71.389 -6.39607 0.189339)
(71.557 -7.8414 0.0781112)
(71.5687 -7.54381 -0.169086)
(72.9815 -7.36214 -0.148415)
(74.3064 -4.31833 -0.068181)
(74.6674 -3.62495 -0.00958201)
(74.1076 -2.02994 -0.138379)
(71.6959 0.265298 -0.240166)
(159.739 232.778 -122.826)
(-12.0898 19.5084 -3.14613)
(122.486 -20.3873 -9.4383)
(77.5189 -12.2048 -3.75583)
(111.911 -11.1173 0.0314566)
(87.7608 -5.00785 -1.07585)
(88.301 13.2826 -1.5175)
(73.3975 -4.30541 -0.794548)
(74.0533 1.26894 -1.08073)
(69.5608 -7.5235 -0.299149)
(73.5388 -5.75802 -0.0119383)
(72.7339 -10.0175 0.378249)
(74.9177 -7.74074 0.138457)
(72.9075 -9.24702 0.139265)
(73.4928 -7.4292 0.108122)
(71.2905 -6.44886 0.0715353)
(71.2031 -3.66816 0.0397382)
(70.1466 -2.19172 0.0449488)
(69.6423 -0.231174 -0.0369964)
(66.8911 1.43842 -0.1162)
(211.98 111.867 99.4502)
(184.896 -37.6127 18.8317)
(195.853 -41.6097 7.76363)
(114.479 -30.836 6.09397)
(117.914 -18.4858 4.14196)
(83.2808 -6.83859 -0.349059)
(95.6691 7.32095 -1.02278)
(88.3227 8.16014 -2.18841)
(92.7281 5.99279 -1.67867)
(90.0509 -0.93137 -0.988828)
(87.6827 -7.2149 0.474953)
(78.7346 -11.4781 0.892348)
(74.7651 -8.81949 0.498069)
(67.7838 -8.46375 0.376031)
(65.9793 -6.29798 0.023551)
(63.6882 -5.5157 -0.0416186)
(64.0813 -3.38064 -0.0924651)
(64.0692 -2.38769 -0.0386147)
(64.7362 -0.987304 -0.0164497)
(63.0159 0.52379 -0.0431234)
(456.059 48.3002 -163.937)
(364.284 -38.6043 -82.2505)
(350.764 -29.8524 -22.9803)
(239.221 -18.2971 -0.747092)
(176.547 3.55533 7.26725)
(122.878 11.0649 1.85283)
(124.139 15.8799 -0.588882)
(118.892 10.4431 -0.876946)
(123.832 9.0481 -0.416181)
(120.678 1.46848 0.00954713)
(116.161 2.17503 1.71663)
(100.241 -2.4859 1.61858)
(91.7128 -0.0614351 1.34909)
(80.4322 -3.11655 0.667303)
(76.9472 -3.66447 0.552353)
(70.4858 -4.72732 0.460048)
(69.4014 -3.75502 0.137371)
(67.5311 -2.82846 0.0724262)
(67.4298 -1.28496 0.0296672)
(64.7603 0.367858 -0.0224569)
(109.913 200.342 93.3124)
(35.0092 136.153 -0.112423)
(146.623 108.062 -5.3184)
(98.919 63.385 -2.31202)
(118.794 44.6712 1.68786)
(105.022 22.371 1.56025)
(119.43 15.4874 1.63448)
(115.794 8.97004 1.41483)
(118.02 5.91068 2.14205)
(106.161 1.78185 2.14969)
(99.3476 2.81619 2.70093)
(87.0051 1.11829 1.19791)
(85.3767 1.79655 0.579316)
(80.6219 0.717228 0.149665)
(78.6605 0.128802 0.424843)
(72.9901 -1.02347 0.39026)
(70.4738 -1.50458 0.185235)
(67.2394 -1.22064 -0.00514258)
(66.6109 -0.637921 -0.0799308)
(63.4181 0.233035 -0.0875835)
(131.532 103.312 36.2956)
(-49.604 -14.94 -6.14021)
(107.605 23.1357 -3.17031)
(63.5824 5.51253 0.461753)
(111.056 -2.15841 4.89583)
(102.012 -6.78516 5.31313)
(113.626 -3.13985 5.63738)
(100.465 -0.29516 4.34691)
(97.8869 7.66912 2.9482)
(83.7203 7.79144 1.46435)
(84.2808 8.0139 0.550882)
(80.9724 4.55347 0.0264325)
(83.0894 3.46881 -0.0905013)
(81.4321 2.01949 -0.0908138)
(81.1349 1.71361 0.0303265)
(78.2366 1.1063 -0.0155295)
(76.5837 0.715414 -0.0328071)
(73.2513 0.642236 -0.139539)
(72.5094 0.883599 -0.231042)
(68.9428 1.37859 -0.225668)
(312.264 116.301 -274.585)
(7.7153 94.3819 -22.9946)
(145.274 49.926 10.0765)
(99.941 5.84758 2.16085)
(133.563 -18.4245 2.19204)
(118.249 -25.1453 1.09249)
(123.809 -16.7443 5.1826)
(100.083 -4.11804 5.55946)
(93.7491 6.50116 4.67829)
(77.2252 5.65819 2.3933)
(78.8461 2.64266 0.953955)
(76.9197 1.40726 0.434972)
(81.0109 2.31693 0.144904)
(80.5125 3.55592 -0.0283543)
(81.6583 4.6047 -0.195866)
(80.5813 4.60988 -0.387662)
(80.5731 4.57064 -0.610175)
(79.4892 4.09315 -0.768416)
(79.5657 3.36901 -0.904768)
(76.5014 2.58199 -0.880116)
(162.425 30.3699 82.9956)
(-6.13527 44.9621 31.034)
(116.585 25.3455 14.3692)
(72.7549 7.5073 -3.31277)
(123.672 -5.41908 -10.004)
(127.725 -9.93935 -13.5458)
(150.651 -11.195 -13.3936)
(162.87 1.92718 -10.2627)
(182.594 10.3461 -1.35696)
(184.03 12.0688 2.88907)
(179.36 4.71457 6.75488)
(147.522 -1.24035 7.46683)
(128.927 -0.0753415 4.77605)
(113.596 2.73183 3.16343)
(109.357 5.05991 2.57765)
(103.83 6.47144 2.20368)
(102.859 7.51206 1.7264)
(101.807 8.0034 1.52671)
(102.27 8.59209 1.22559)
(102.184 8.03396 1.05868)
(146.576 -128.509 21.6186)
(55.5415 -19.1556 8.22969)
(170.068 46.0429 4.96628)
(114.475 41.7595 -6.92665)
(143.712 46.1282 -13.2543)
(99.7455 18.9292 -12.3966)
(112.425 15.7927 -4.26444)
(87.2032 10.8542 -0.592097)
(92.8903 10.8171 4.35209)
(82.8182 6.7762 1.83269)
(85.4739 2.69234 -0.546642)
(81.7101 0.570833 -1.07913)
(84.6637 -1.0137 -1.03912)
(84.9023 -1.8639 -0.5325)
(88.3003 -2.57 -0.0683919)
(90.3455 -2.41356 -0.0484817)
(93.2143 -3.81537 0.0762786)
(96.9496 -3.85623 0.00907846)
(98.9136 -4.88476 0.274228)
(100.563 -4.79427 0.624916)
(-20.9157 -74.1792 104.374)
(-117.431 -26.3983 -47.1774)
(90.5066 -28.2829 -25.2883)
(-12.8469 -6.81771 -3.98113)
(101.459 -7.99389 -0.897367)
(51.6559 -4.69731 0.621185)
(92.6481 -4.12331 4.29785)
(71.4919 1.60828 2.64358)
(85.7556 2.98794 3.78059)
(78.5745 2.96547 1.37896)
(83.4414 -0.42747 0.893282)
(80.1913 -1.45192 0.326865)
(82.741 -3.204 0.518919)
(82.4239 -3.7917 0.548907)
(84.5295 -4.50604 0.864258)
(85.4443 -4.50422 1.18084)
(87.3737 -5.09321 1.39456)
(87.5724 -5.16973 1.70045)
(88.0561 -6.8257 1.84417)
(84.6612 -6.0842 1.5013)
(108.498 32.8125 -69.4263)
(40.7184 -1.04906 -55.2928)
(146.8 19.0174 -36.1509)
(113.669 7.36188 -7.01395)
(143.587 8.4385 2.66071)
(105.118 12.0754 3.71335)
(113.999 9.26283 5.84787)
(93.2302 12.1933 3.68236)
(97.6046 8.69354 3.37059)
(89.4051 6.82262 1.70838)
(91.198 1.61134 1.39513)
(86.7257 -0.422193 0.598669)
(87.0563 -3.21818 0.816782)
(84.9145 -3.89424 0.600985)
(85.2987 -4.91857 0.504329)
(84.5218 -4.81755 0.483183)
(84.744 -5.17186 0.502358)
(83.2449 -4.71636 0.615519)
(82.3846 -6.20004 1.12174)
(75.4181 -5.46106 0.325981)
(-6.62476 -32.4211 187.015)
(-117.998 -46.3654 -22.2083)
(105.069 -20.0975 -2.39498)
(14.5984 3.40717 -3.59366)
(110.663 12.498 -5.2022)
(69.631 13.1587 -5.36377)
(101.675 9.25541 -0.792144)
(86.5515 10.017 -0.181156)
(97.3827 7.31603 1.84908)
(90.9942 6.56446 1.26683)
(92.8992 2.94637 1.36872)
(88.0879 1.44143 0.430641)
(87.2542 -2.14032 0.431514)
(83.6775 -3.31255 -0.124393)
(83.1547 -4.51107 -0.19609)
(82.2496 -4.52616 -0.122797)
(82.6127 -4.41762 0.031368)
(81.0467 -3.67979 0.320073)
(80.2073 -4.02797 1.16386)
(71.7332 -3.11949 0.28956)
(54.8092 1.76577 118.96)
(29.257 -68.1433 0.693771)
(115.174 -55.4135 -13.571)
(66.5073 -20.7859 -1.94349)
(122.327 -7.61803 -1.97469)
(94.3434 6.61467 -2.45886)
(112.83 6.28729 -0.540958)
(98.755 11.7872 -1.02633)
(103.409 8.6445 0.128395)
(96.5627 9.67585 -0.222599)
(96.9708 6.01204 0.231666)
(92.2371 4.90188 -0.0463407)
(91.7266 1.08039 0.305169)
(88.1571 -1.06647 -0.0625869)
(87.7268 -3.9778 -0.282331)
(86.5655 -4.74714 -0.237527)
(86.7205 -4.62905 -0.146917)
(84.594 -3.33605 0.135827)
(82.9841 -2.26777 1.19485)
(71.8753 -0.94942 0.325472)
(10.7284 27.2799 37.0935)
(-76.6597 -58.3922 -43.1182)
(129.093 -36.7876 -28.4578)
(20.8165 -13.0535 0.984803)
(106.615 -7.16557 -0.877493)
(59.3113 9.63917 -0.456487)
(93.9688 6.52681 1.23682)
(81.5709 11.4023 -0.22223)
(91.5268 9.3219 0.195435)
(88.5521 9.75408 -0.407564)
(91.3516 7.45708 -0.221401)
(90.1126 5.88587 -0.285425)
(91.368 2.63552 -0.00902152)
(90.7175 -0.714216 0.288796)
(91.3902 -4.28787 0.811488)
(90.3916 -4.80871 0.697636)
(90.342 -3.75716 0.132489)
(87.4406 -1.10188 -0.44087)
(86.2338 3.07549 0.571244)
(75.9529 3.60982 0.0122962)
(162.856 -114.057 -155.726)
(6.86665 -57.1502 -37.7189)
(160.658 -70.9172 -31.0064)
(105.059 -24.8982 -4.48852)
(131.956 -15.9887 -0.292676)
(94.3324 5.99339 -0.281481)
(99.6085 -4.73106 -0.122084)
(85.9485 10.5677 -0.529105)
(88.2035 4.25634 -0.836409)
(83.8295 7.98008 -0.930455)
(85.7587 3.86704 -0.830988)
(83.6038 3.11707 -0.319794)
(84.4721 -1.14435 0.762664)
(83.222 -2.96312 2.53238)
(83.1061 -4.49887 2.22362)
(80.9688 -4.13688 1.09137)
(80.3102 -2.10537 -0.530106)
(78.9048 0.230695 -1.39962)
(79.7574 4.19053 -1.28666)
(74.8194 5.20909 -0.949375)
(108.041 -24.7798 122.045)
(18.0156 -13.1348 -55.0464)
(99.9371 -20.7264 -23.4994)
(26.2287 4.69052 -4.52415)
(91.7927 9.5001 -3.89297)
(53.6548 31.3467 -2.08069)
(73.1573 20.5169 -0.476489)
(66.8716 13.131 -1.02746)
(74.3006 14.3142 -1.35663)
(74.8875 9.07844 -1.29974)
(78.5441 9.0314 -0.966143)
(78.9155 5.90269 0.0167397)
(78.4924 3.72986 1.50976)
(75.1454 0.182946 2.68766)
(69.537 -2.21636 0.421355)
(68.9687 -2.26158 -0.391775)
(69.3772 -1.74546 -1.03352)
(69.8494 -0.464967 -1.62934)
(71.2046 2.22656 -1.97781)
(68.8147 4.04883 -1.26474)
(153.323 -154.56 61.9345)
(78.3711 -96.7784 -22.4657)
(128.35 -74.7086 -9.66772)
(66.9497 -32.5802 -6.01227)
(88.0745 -18.026 -6.68071)
(68.9419 8.74068 -5.00326)
(81.3559 22.2472 -3.04776)
(67.4654 7.77446 -1.09272)
(68.1545 7.64376 -1.24416)
(69.6516 6.38208 -0.982133)
(71.533 5.94288 -0.564069)
(72.2894 4.85305 0.0879971)
(70.7357 4.02976 1.75059)
(68.0819 2.55001 2.85352)
(66.1688 -1.27209 0.196279)
(65.861 -3.14615 -0.139872)
(66.6936 -2.56981 -0.521172)
(67.076 -1.64179 -0.685284)
(67.2784 0.560111 -0.817762)
(63.8747 3.16451 -0.685984)
(139.417 -131.077 87.6964)
(13.0138 -53.7338 -7.45294)
(91.2502 7.28902 -7.57339)
(12.8369 20.5314 -0.33283)
(58.2205 37.4135 -3.3518)
(32.1926 15.2791 -4.5341)
(49.9545 21.9116 -2.31866)
(59.6672 12.7268 -0.568495)
(57.9684 6.62307 -0.485779)
(58.2326 4.39216 0.0165974)
(58.5009 3.90541 0.156247)
(58.7108 3.05394 0.0687832)
(60.5522 1.65641 -0.0405138)
(64.073 -1.37047 -0.333097)
(68.3481 -4.90635 0.364834)
(70.6972 -5.0422 0.642129)
(70.2285 -2.92502 0.376028)
(69.9037 -1.40979 0.136673)
(69.4387 1.38727 -0.00366138)
(65.6808 3.49794 -0.18354)
(155.972 -51.5562 59.1812)
(-152.169 -8.51759 15.5146)
(66.1559 -4.12125 15.2115)
(-80.0452 -0.817479 18.2333)
(53.1426 2.61975 2.59742)
(10.0113 4.7956 -1.27832)
(41.3931 10.1965 -0.120266)
(53.6698 10.2637 -1.00461)
(55.4496 6.66133 -1.22562)
(58.5589 1.70586 -0.598169)
(62.9897 0.781863 0.106341)
(68.2439 0.780632 -0.611997)
(72.7179 -0.906256 -0.777561)
(78.0512 -5.15398 -1.22682)
(81.34 -7.43229 0.331048)
(75.6576 -3.47373 0.682862)
(74.0388 -2.23729 0.911301)
(73.4637 -1.45626 0.598385)
(73.3489 1.00576 0.432198)
(70.8142 3.27849 0.261448)
(-5.44067 -94.1017 -108.061)
(-148.837 -13.2001 25.8408)
(72.9014 -40.3766 22.5174)
(-30.8315 -0.602207 12.3693)
(55.9957 -9.78565 6.80239)
(25.0221 -12.2373 0.421886)
(57.0478 -16.2021 3.56516)
(67.4665 6.29243 2.35132)
(68.4976 4.03289 -0.620669)
(69.2453 -0.555904 -0.332943)
(70.1641 -3.59346 -0.48392)
(73.4652 -4.44356 0.427077)
(78.1355 -5.7692 0.954118)
(80.1167 -8.44145 0.729816)
(74.5439 -6.12559 -0.146804)
(70.002 -3.17466 -0.528759)
(69.6016 -1.15745 -0.0450329)
(70.3104 -1.0596 0.212679)
(70.3743 0.570744 0.0762895)
(69.1106 2.6211 0.122115)
(137.063 81.1715 5.19816)
(-10.3993 -43.3709 -7.30106)
(87.7444 -47.7138 12.4453)
(2.85711 -9.93079 4.8888)
(78.2448 -18.88 7.53175)
(33.3955 -32.5356 1.36887)
(48.6194 -12.9977 2.14545)
(39.951 0.0383257 1.61182)
(56.5108 -2.73086 1.29495)
(54.0849 -1.54464 1.40089)
(60.0504 -5.32244 1.22308)
(59.2366 -5.60461 0.94966)
(62.5016 -6.6611 0.506134)
(62.3511 -6.52968 0.113395)
(61.6149 -5.61042 -0.494085)
(62.8245 -5.2092 -0.294945)
(63.8387 -2.49875 -0.104199)
(64.3931 -2.17631 -0.0547491)
(64.4752 -0.516309 -0.294072)
(62.6711 1.43867 -0.364395)
(109.205 135.329 -91.0896)
(6.94932 6.35763 1.31852)
(99.9702 -24.7436 -8.70921)
(49.1789 -12.5719 -3.5518)
(91.1031 -14.3101 0.938474)
(58.647 -8.52541 -1.45822)
(64.823 10.2871 -1.1435)
(49.7621 -10.5893 -0.449642)
(55.1077 -1.50349 -1.06897)
(51.2937 -10.854 0.082587)
(56.8648 -6.82362 0.225005)
(56.1312 -10.6225 0.803391)
(59.2536 -7.29789 0.364598)
(58.2934 -8.54941 0.356189)
(59.9636 -6.14883 0.235493)
(59.1313 -4.83446 0.13198)
(60.026 -2.37047 0.0167585)
(60.0137 -1.51659 0.0135005)
(60.2502 0.0283098 -0.130988)
(58.2703 1.36184 -0.215857)
(143.826 44.55 86.9782)
(75.9423 14.0275 36.783)
(131.194 -21.5187 21.3785)
(62.9798 -21.1708 11.3056)
(91.7095 -15.7153 7.59234)
(54.6122 -12.1235 0.0354204)
(74.635 -0.223316 -0.554558)
(62.7101 -4.60013 -2.51629)
(68.2945 -4.8519 -1.30493)
(63.4145 -9.20892 -0.602228)
(64.2123 -9.68107 0.945355)
(60.3676 -10.7819 1.2896)
(59.7261 -8.64193 0.843146)
(56.5254 -8.04187 0.611398)
(56.3051 -5.99309 0.118228)
(55.1313 -5.11622 0.0241813)
(55.9959 -3.04437 -0.0678865)
(56.14 -2.23589 -0.0169477)
(56.9066 -0.851982 -0.0346976)
(55.3068 0.484885 -0.0953581)
(406.039 72.8979 -11.4791)
(243.152 19.9878 39.9979)
(204.551 -3.35061 24.3672)
(126.722 -4.10573 18.939)
(125.103 2.00701 14.7648)
(91.9962 1.27913 4.6283)
(96.6763 4.44516 0.607854)
(85.7496 -3.53565 -0.384688)
(89.6513 -2.45305 0.470542)
(81.0709 -7.14616 1.06448)
(79.9638 -4.39935 2.56021)
(71.8166 -6.23609 2.20742)
(69.5012 -3.80824 2.02728)
(63.9182 -5.42865 1.07783)
(62.7961 -4.74675 0.779862)
(59.862 -4.72625 0.588179)
(59.8726 -3.50089 0.216486)
(58.6218 -2.53515 0.112649)
(58.8004 -1.15217 0.0374664)
(56.4623 0.155149 -0.059111)
(189.027 177.985 -76.0555)
(40.2883 65.8534 -47.687)
(117.495 61.2566 -18.1234)
(57.5794 30.3062 -2.23135)
(90.9002 24.758 5.73513)
(73.0427 7.9331 3.4164)
(90.844 3.72369 3.88393)
(80.4747 -2.01877 2.89751)
(84.9904 -1.69982 3.71443)
(73.6307 -3.39126 3.062)
(73.556 -1.27035 3.39134)
(67.4531 -2.26286 1.63162)
(67.6755 -1.55259 0.966021)
(64.4057 -2.44652 0.325932)
(63.8867 -2.08419 0.492063)
(61.4364 -2.37406 0.29454)
(60.9195 -1.9367 0.0851752)
(59.1846 -1.45028 -0.103769)
(59.0204 -0.814918 -0.191199)
(56.2448 0.0176159 -0.220155)
(78.4703 137.506 257.956)
(-93.0381 23.1216 1.80537)
(94.7902 17.6229 4.99015)
(38.4742 -7.30304 2.783)
(95.2193 -5.97213 11.5792)
(80.5646 -5.05343 9.73471)
(95.4285 -1.6424 9.81097)
(78.5908 -0.442888 6.29036)
(79.4503 4.02474 4.38618)
(67.5733 3.16488 2.0921)
(69.9731 2.77387 1.03779)
(66.6429 -0.418753 0.184463)
(69.6166 -0.842528 0.0524697)
(68.1203 -1.75155 -0.190504)
(68.8699 -1.33615 -0.16196)
(67.3229 -1.3991 -0.30658)
(67.0589 -0.908626 -0.301513)
(65.4939 -0.569126 -0.39202)
(65.2368 -0.0646072 -0.440037)
(62.0854 0.579908 -0.466951)
(76.7841 78.0961 -169.966)
(-148.15 34.0066 28.9827)
(115.385 14.549 -13.523)
(54.0112 -4.76158 -7.13088)
(104.131 -14.3093 -0.281234)
(79.6682 -8.47122 1.6916)
(91.2083 1.11474 7.38583)
(75.0333 8.71366 4.91119)
(78.9866 9.75553 4.22838)
(69.0201 5.69893 1.38248)
(72.9384 0.650734 1.08332)
(71.855 -2.09876 0.812745)
(75.8881 -1.9863 0.239114)
(75.1821 -1.05958 -0.581251)
(76.605 -0.0223713 -1.00611)
(76.0201 0.351969 -1.38763)
(76.5356 0.831891 -1.64315)
(75.8582 0.970828 -1.82366)
(75.9891 1.16897 -1.85124)
(72.8211 1.07824 -1.69619)
(58.1119 23.029 194.573)
(-73.3378 22.6908 16.8906)
(114.675 33.9603 0.970426)
(72.0786 28.8253 -10.769)
(118.232 12.899 -14.6436)
(104.318 8.68156 -15.512)
(116.799 12.5336 -10.3994)
(116.299 19.0393 -4.39804)
(131.303 19.1813 0.379366)
(139.673 16.0107 4.90085)
(143.881 3.13278 11.2539)
(132.768 -2.0185 12.6857)
(124.699 -1.24212 9.84535)
(113.883 1.04588 7.01398)
(111.412 2.58822 5.28896)
(108.127 3.07671 4.68146)
(107.796 3.57598 3.92075)
(107.053 3.69543 3.41169)
(107.728 4.04898 2.57458)
(107.598 3.66493 2.08266)
(195.292 -218.453 -16.2649)
(79.8825 -74.7822 -8.93775)
(201.438 11.8695 -22.1684)
(148.082 31.0225 -16.1932)
(152.362 45.5395 -13.7679)
(84.0408 20.1569 -11.9303)
(92.9306 15.5824 -4.67714)
(64.538 7.62409 -3.38198)
(76.3222 5.34171 2.12454)
(68.4931 2.34198 0.44064)
(74.4337 -0.406842 -0.162739)
(70.8231 -1.40849 -0.613972)
(74.4858 -2.50577 -0.198416)
(74.5479 -2.6397 0.00641977)
(77.9727 -2.96813 0.447218)
(79.8724 -2.89852 0.341954)
(83.0182 -3.98147 0.443623)
(86.4776 -3.91571 0.621588)
(88.5671 -5.00153 0.912458)
(90.5273 -4.51851 1.00863)
(120.547 -160.259 34.9252)
(-77.0619 -32.7959 -78.87)
(93.6983 -28.4688 -35.5618)
(-19.5448 -7.90745 -2.48327)
(93.5462 -6.83184 -0.146116)
(34.9351 -4.31505 1.086)
(79.6956 -5.76139 4.0821)
(56.1229 -0.837621 2.13071)
(73.2173 -0.99447 3.31628)
(65.1446 -0.121454 1.07377)
(71.0674 -2.69554 0.808031)
(67.0651 -2.73736 0.112723)
(69.6891 -3.83953 0.397489)
(68.7457 -3.59858 0.393629)
(70.5701 -3.86563 0.668468)
(71.0468 -3.54703 0.867785)
(72.5112 -4.00559 1.02947)
(72.8674 -3.90009 1.31114)
(73.7246 -5.27583 1.44212)
(70.6096 -4.12266 0.994667)
(254.65 5.60124 -81.7144)
(138.017 -11.794 -48.5532)
(161.833 24.6905 -36.9503)
(100.186 15.0067 -6.48209)
(125.593 16.3389 3.4421)
(82.4626 17.7476 3.57159)
(96.5772 11.1987 5.67529)
(75.6506 11.568 3.05206)
(82.47 6.27878 2.96571)
(73.4879 4.74413 1.32553)
(75.8053 0.0887797 1.2497)
(70.947 -0.879102 0.42332)
(71.5162 -2.8975 0.676645)
(69.2585 -2.87947 0.448041)
(69.7665 -3.49466 0.446254)
(68.8356 -3.13213 0.392922)
(69.0851 -3.51489 0.428358)
(67.6857 -3.2004 0.512219)
(67.3193 -4.45559 0.897922)
(61.6928 -3.49053 -0.0200069)
(363.047 -222.558 122.587)
(-41.4139 -59.7173 24.8505)
(121.913 -6.1318 -2.1184)
(2.09638 11.8573 -2.29543)
(96.9609 16.7147 -3.64528)
(47.4983 16.0426 -4.85481)
(83.3225 10.8619 -0.108673)
(65.4928 11.3483 -0.489003)
(78.4403 7.45029 1.77024)
(71.2724 6.47152 0.992728)
(74.5128 2.59899 1.31421)
(70.136 1.18623 0.523196)
(70.331 -1.68859 0.451693)
(67.7716 -2.30037 -0.107652)
(67.782 -3.14385 -0.0735548)
(66.7683 -2.8059 -0.0419791)
(66.9904 -2.68808 0.0657479)
(65.0762 -2.15875 0.273706)
(64.4689 -2.54136 0.971347)
(57.7771 -1.71324 -0.0571312)
(207.572 109.587 1.09205)
(87.0394 -25.1768 2.62479)
(114.686 -47.8183 -7.4582)
(56.8116 -15.8415 -0.406746)
(109.219 -5.91566 -1.34022)
(74.0138 7.31319 -2.01063)
(94.2734 5.73966 0.0693796)
(77.5214 11.8186 -0.854761)
(83.4997 7.83698 0.40504)
(75.6356 9.08279 -0.147931)
(76.8326 4.87329 0.363064)
(72.3241 3.75485 0.00372609)
(72.5315 0.0465872 0.354828)
(70.2677 -1.39123 0.0466552)
(70.5076 -3.1993 -0.0962238)
(69.5067 -3.18539 -0.111606)
(69.5747 -2.54361 -0.054196)
(66.6796 -1.34633 -0.0245731)
(65.252 -0.630905 0.904301)
(57.1097 0.117298 0.00988074)
(371.76 109.383 26.5796)
(130.385 17.6734 -8.81245)
(141.098 -11.3465 -11.088)
(17.0109 -3.82796 3.02947)
(95.028 -2.57326 0.506133)
(41.0608 12.3261 -0.788995)
(78.271 7.47757 1.03117)
(62.5785 12.8285 -0.466633)
(73.2239 9.7148 0.442317)
(68.8305 9.9252 -0.341209)
(71.8491 6.65111 0.0175804)
(70.1446 4.66861 -0.146324)
(71.5242 0.848011 0.11796)
(71.0306 -1.67704 0.403051)
(71.9513 -3.64305 0.63538)
(71.3718 -3.37473 0.548428)
(71.7436 -1.39738 0.0258773)
(68.5516 1.15294 -0.335795)
(67.1617 3.55145 0.406351)
(59.0494 3.29603 -0.217314)
(334.11 2.09964 -90.5454)
(116.89 -34.2906 -32.9833)
(157.539 -48.7276 -32.9589)
(81.4864 -14.1424 -6.67482)
(112.912 -10.2987 -0.238615)
(72.3829 9.4139 -0.257362)
(81.4085 -3.83401 0.697478)
(66.9377 12.7619 -0.243833)
(70.4503 4.45835 -0.371219)
(65.3662 8.21825 -0.568996)
(67.3641 2.89256 -0.555395)
(64.9652 2.12067 -0.149912)
(66.1226 -1.93091 0.787315)
(65.9267 -2.58634 2.04733)
(67.3205 -3.18648 1.69494)
(66.5538 -2.55065 0.650097)
(66.6817 -0.271157 -0.506316)
(64.7546 1.98619 -1.10692)
(64.5116 4.76982 -0.969855)
(59.078 4.711 -0.929252)
(269.876 -133.699 60.4892)
(48.0485 -36.0628 -27.2522)
(114.542 -23.3085 -12.6321)
(24.21 1.83171 -4.51346)
(83.0626 10.7406 -3.86012)
(39.3867 33.3061 -2.22969)
(59.1745 19.9183 -0.995298)
(52.3108 14.7396 -1.11979)
(59.1127 13.7964 -1.40211)
(58.8985 8.92659 -1.22166)
(61.8672 8.073 -0.625531)
(61.7061 4.42558 0.568261)
(62.5941 2.48407 1.71049)
(62.4518 0.46519 2.15273)
(59.6555 -1.54983 0.580313)
(59.0929 -1.29201 -0.367285)
(59.398 -0.667195 -0.851853)
(58.9871 0.638 -1.34986)
(59.203 2.81056 -1.47718)
(55.6161 3.65336 -1.096)
(153.891 -110.592 130.17)
(41.1925 -57.2726 -31.2922)
(124.717 -67.5729 -3.61058)
(60.8037 -30.2976 -4.05032)
(79.4217 -15.9326 -4.89698)
(57.24 13.235 -4.11198)
(65.1074 22.5665 -2.27437)
(52.5569 7.38413 -0.788496)
(54.4969 7.27811 -1.05477)
(55.3108 5.31474 -0.778882)
(56.7878 4.88601 -0.2832)
(57.1384 3.37538 0.695046)
(57.3778 2.58464 1.97911)
(58.4938 1.62853 2.04395)
(58.4991 -0.684205 0.281048)
(57.1768 -2.29043 0.314988)
(57.2725 -1.86289 -0.267928)
(57.1711 -0.9965 -0.447861)
(56.9863 1.04586 -0.589553)
(53.3996 2.7245 -0.627009)
(171.133 -63.6974 -42.2794)
(37.7303 -22.2625 -29.9813)
(94.0472 11.8249 -17.0007)
(11.3832 17.3634 -1.40985)
(50.1574 32.4347 -3.91607)
(23.8636 12.5276 -5.47803)
(41.8558 20.4285 -2.59574)
(49.3111 9.25149 -0.352109)
(48.9032 4.41922 -0.36111)
(49.5421 2.74753 0.00373695)
(50.6811 2.25052 0.0181564)
(51.9257 1.24092 -0.00673575)
(54.3245 -0.0446039 -0.382389)
(57.3634 -1.82429 -0.264011)
(59.695 -3.80974 0.904914)
(59.9458 -3.46786 1.01597)
(59.6228 -1.83252 0.536935)
(59.3831 -0.77878 0.297169)
(58.9109 1.40071 0.0980349)
(55.2921 2.73104 -0.236181)
(59.7339 109.762 -187.701)
(-210.069 4.69429 13.4989)
(30.6739 -1.94472 -0.492535)
(-87.3621 0.119913 13.8577)
(38.8309 -0.842957 -1.71166)
(-4.06647 -0.813105 0.469771)
(32.2929 4.25425 0.577644)
(45.2863 5.00697 -0.468058)
(48.1234 2.72956 -0.8473)
(50.8898 0.0188656 1.49409)
(55.4596 0.261777 -0.785174)
(61.0532 -2.00018 0.00239981)
(63.5691 -3.42533 -1.08668)
(67.1866 -5.38083 -0.80436)
(67.2553 -4.59887 0.740055)
(62.5335 -2.27222 1.2471)
(61.98 -1.30383 0.877059)
(62.1118 -0.626655 0.587836)
(62.1493 1.56747 0.446383)
(59.3989 2.74093 0.0916342)
(88.3067 -36.1872 -40.2383)
(-141.206 -4.90287 -1.30401)
(53.5227 -31.8626 9.54846)
(-48.8681 0.656085 14.5628)
(43.8168 -13.4963 3.82611)
(10.4645 -19.5613 2.01887)
(44.8225 -21.212 4.52978)
(53.031 1.0154 2.68677)
(54.7258 -1.09508 0.282974)
(55.4946 -2.60232 0.0768459)
(57.8337 -4.69989 -0.0152442)
(61.0839 -5.181 0.710484)
(64.6933 -6.2528 0.759081)
(65.9951 -6.73876 0.450412)
(63.3913 -3.84302 -0.170117)
(59.3959 -2.36605 0.0880251)
(58.9115 -0.54929 0.104878)
(59.7926 -0.424245 0.243616)
(60.0677 1.5157 0.00249304)
(58.3585 2.68758 -0.043092)
(115.871 168.842 -28.8416)
(-101.152 -13.4697 -36.9664)
(68.6879 -34.8816 -9.4619)
(-21.6883 -6.93779 3.66585)
(66.9519 -22.9385 4.44457)
(14.5793 -35.3762 1.1179)
(32.825 -9.17716 2.47349)
(24.3896 -2.66176 1.53979)
(43.3896 -4.40661 1.38414)
(41.316 -3.73145 1.34382)
(49.3699 -6.25497 1.16449)
(49.313 -5.81846 0.850305)
(53.6197 -6.25796 0.37043)
(53.5543 -5.57101 -0.10864)
(52.6916 -4.31982 -0.182237)
(53.6215 -4.15546 -0.177224)
(54.5367 -1.77722 -0.060929)
(55.1775 -1.58039 -0.0640426)
(55.4564 0.195824 -0.331904)
(53.5591 1.60023 -0.401914)
(127.333 45.2637 -150.508)
(0.179222 1.09749 -20.5051)
(87.4872 -23.9762 -9.44132)
(29.4509 -12.7074 -4.10423)
(77.0685 -18.4147 0.633357)
(36.4955 -13.4241 -1.27933)
(50.133 8.56079 -0.592812)