/*--------------------------------*- C++ -*----------------------------------*\
  =========                 |
  \\      /  F ield         | OpenFOAM: The Open Source CFD Toolbox
   \\    /   O peration     | Website:  https://openfoam.org
    \\  /    A nd           | Version:  10
     \\/     M anipulation  |
\*---------------------------------------------------------------------------*/
FoamFile
{
    format      ascii;
    class       volScalarField;
    location    "9";
    object      nut;
}
// * * * * * * * * * * * * * * * * * * * * * * * * * * * * * * * * * * * * * //

dimensions      [0 2 -1 0 0 0 0];

internalField   nonuniform List<scalar> 
12920
(
7.78021
10.0477
5.0647
5.78974
3.62093
2.95548
2.12885
1.62883
1.15158
0.968652
0.84589
0.800108
0.71387
0.630899
0.582243
0.547046
0.479324
0.427045
0.414383
0.37553
9.87519
10.4533
7.02592
8.70357
4.69468
4.22167
2.486
2.26742
1.87203
1.90155
1.67908
1.62747
1.45537
1.33685
1.12975
0.967387
0.85229
0.813718
0.787816
0.709365
3.22518
8.45432
6.886
8.86921
4.84767
4.42941
2.90246
2.90067
2.43241
2.42649
1.96197
1.73897
1.45812
1.34165
1.19273
1.11848
1.02769
0.98242
0.938854
0.888437
3.88867
13.0219
8.63643
7.9954
3.82182
5.07461
2.88112
3.36871
2.42862
2.35046
1.81507
1.69901
1.47765
1.40867
1.29368
1.24337
1.16651
1.12458
1.08768
1.02005
8.15659
10.6556
7.38589
6.42295
3.50759
4.55808
2.65756
2.87716
2.174
2.10722
1.72008
1.66161
1.47311
1.41542
1.30827
1.27559
1.22606
1.20567
1.17895
1.09427
0.642379
10.3542
7.58415
6.83461
3.71821
5.1035
3.02421
3.60115
2.60929
2.49069
2.02238
1.82961
1.55207
1.37727
1.25252
1.23276
1.22052
1.22301
1.20968
1.11842
0.325511
11.288
11.8583
8.74786
4.51881
4.8315
3.35032
3.67683
2.82594
2.61085
2.03735
1.77654
1.44302
1.28669
1.18484
1.185
1.16776
1.16178
1.14594
1.05433
16.6215
12.8791
11.0571
7.49994
5.27022
5.3849
1.40765
1.72369
1.11285
0.893257
0.693361
0.564759
0.441323
0.357666
1.12621
1.08172
1.05531
1.0371
1.02245
0.932981
1.46463
2.42118
3.76251
7.25415
5.34964
1.68412
0.40586
0.290393
0.291381
0.271662
0.243627
0.189682
0.144657
0.11842
0.372331
1.02621
0.912996
0.846813
0.824144
0.751245
12.358
15.5189
6.78503
7.85445
7.24573
2.60054
0.52301
0.245486
0.224652
0.223533
0.205412
0.170166
0.141728
0.140866
0.434942
0.897645
0.726858
0.658426
0.62726
0.590114
3.94163
10.1479
6.23487
8.35894
5.51656
1.87003
0.4999
0.334198
0.228514
0.181171
0.165258
0.153379
0.140493
0.131876
0.377992
0.808405
0.777179
0.700117
0.609529
0.542439
4.65114
8.16833
5.03174
7.56395
4.78717
1.91188
0.47392
0.31158
0.240274
0.199049
0.177435
0.146535
0.150666
0.148062
0.415849
0.934309
0.968303
1.00514
0.900966
0.65745
11.4626
11.2524
5.56143
6.2492
3.22446
5.65028
1.50491
1.51016
0.929287
0.769423
0.553627
0.523488
0.473328
0.492849
1.51374
1.25932
1.14951
1.04465
0.846043
0.659594
20.4147
13.2192
8.75475
6.70454
3.41731
5.49223
3.78588
4.89289
3.3041
3.28125
2.17413
1.80972
1.41156
1.37384
1.25849
1.13751
1.04309
0.914544
0.774347
0.685841
18.6533
13.6703
7.00255
7.30969
4.67556
5.90268
4.54829
5.43613
3.72288
3.41281
2.41725
1.85513
1.41482
1.27848
1.15691
1.12508
1.0399
0.977173
0.920467
0.858643
15.1599
15.0475
7.51761
7.93314
5.8603
6.52303
4.80726
5.45723
3.44148
3.05132
2.08679
1.71739
1.3097
1.2232
1.11733
1.11257
1.07004
1.05634
1.06034
0.992104
4.55235
8.9084
6.88617
7.07693
5.74139
6.08905
4.36025
4.55854
2.73197
2.37709
1.65364
1.45025
1.18466
1.11195
1.01365
0.989673
0.959688
0.95038
0.94456
0.896462
0.679466
8.56988
6.70885
7.27088
4.55395
5.46638
3.55077
4.02958
2.47588
2.24361
1.52668
1.35178
1.10617
1.05121
0.960239
0.917127
0.866724
0.842352
0.817211
0.757919
3.02782
10.5609
8.56219
6.31221
4.69467
5.20717
3.28365
3.43518
1.95426
1.71892
1.22552
1.1439
1.01651
1.02055
0.972197
0.952005
0.909695
0.872124
0.853947
0.79386
0.828608
8.59599
3.36171
4.5737
2.26766
3.44178
1.69012
1.641
1.15205
1.07443
0.860937
0.767817
0.641422
0.567137
0.498724
0.448674
0.408884
0.367304
0.346005
0.296138
4.89139
17.3751
20.7672
30.3565
20.8558
17.1576
10.7226
7.83107
5.89046
5.48146
4.99152
4.87115
4.39429
3.66683
2.87784
2.26886
2.13568
2.31103
2.36112
2.12818
13.1025
34.2878
38.2423
35.6311
27.1908
23.7462
18.7763
18.7279
18.2114
18.9191
18.8148
18.579
17.7695
17.137
16.0133
14.1963
13.5868
13.6501
13.5165
12.9572
9.94644
31.8282
35.5255
41.0107
34.1236
29.4769
25.0498
24.4085
23.0305
21.9738
20.1359
19.3796
18.3533
17.5175
16.5778
16.1368
15.9818
15.7064
15.5481
15.3937
10.7924
26.4743
27.494
28.6274
28.2885
26.444
23.1684
22.9853
21.2179
20.576
19.0142
18.5366
17.826
17.3842
16.8343
16.7161
16.5554
16.3728
16.3605
16.2165
13.4186
60.0565
50.039
31.8852
30.9634
25.9934
22.3762
21.6942
19.4548
19.0779
17.7365
17.8428
17.2609
17.1068
16.548
16.5429
16.5657
16.627
16.6498
16.419
4.61467
44.7362
49.9004
34.9966
32.0814
25.0224
23.4636
22.7704
21.0484
20.3339
18.8994
18.1972
16.7662
15.7891
15.2798
15.6341
16.2511
16.4507
16.4379
16.0832
7.84404
35.5744
46.743
43.2731
36.5955
29.6909
25.5834
22.8625
21.3282
19.9475
18.347
16.7641
15.0506
14.1874
14.2657
14.8146
15.252
15.3688
15.3741
15.1226
30.9599
46.9196
44.5725
38.9859
35.2486
28.034
20.4487
21.6031
19.6479
17.8158
15.9577
14.1814
12.2962
10.762
12.3671
12.893
13.3232
13.5338
13.6283
13.5898
19.4995
24.5416
33.2647
38.1203
35.8399
27.1198
21.8802
20.1316
18.8852
17.944
16.0777
13.8538
11.9967
10.3427
9.88448
10.8651
10.9299
11.2031
11.3782
11.6481
20.8379
26.9166
28.3599
33.8504
36.149
27.292
22.7027
18.4864
17.3063
17.2089
15.912
13.663
12.3028
11.5342
10.0033
8.90716
8.78666
9.12224
9.49185
10.0677
4.83961
22.4519
29.5992
35.6908
36.8835
30.869
24.4048
21.3474
17.264
15.5523
13.1424
10.8616
9.57919
9.37436
8.13442
8.8024
9.02489
8.83633
9.10949
9.58118
9.6475
14.696
24.9453
30.7099
31.8005
25.8847
21.1705
21.0207
18.3732
15.0762
13.6931
12.9065
13.0801
12.2391
9.79165
11.4015
11.7362
11.2932
10.0779
9.95134
32.8407
27.6496
15.8585
17.333
22.1505
27.9194
24.0271
23.1268
18.8536
15.3244
13.6368
13.2915
13.549
13.9812
15.2738
14.3718
13.531
12.0203
9.20156
9.25315
60.0817
35.3243
20.0463
15.9676
19.1652
25.6495
27.7456
25.1996
21.5638
18.9216
16.1227
14.0766
13.6117
13.7964
13.7074
12.7765
11.5642
9.7843
9.52039
10.6101
50.4707
49.1024
42.5007
30.5218
27.7078
29.823
29.4596
27.0177
23.2418
20.7987
17.1683
14.0931
12.6342
12.8127
13.2558
13.088
12.804
12.4859
12.595
12.7928
16.3011
40.4176
40.1234
36.2593
33.8586
31.9427
28.4342
25.6707
21.38
18.5626
15.0989
13.8378
12.7129
12.834
13.1769
13.4105
13.7447
13.9594
14.3139
14.236
14.7377
15.7
15.9805
24.6713
27.6884
27.4739
23.3869
21.1589
17.0973
15.4341
13.5359
13.3958
13.1286
13.4086
13.2791
13.2061
13.4092
13.6763
14.1222
14.1583
0.450942
13.7724
29.5644
27.8516
22.0141
22.6415
19.8159
19.4072
16.1672
14.9526
13.1291
12.984
12.8094
13.1812
13.2301
13.095
13.0526
13.0329
13.1301
13.0122
4.72207
38.327
39.0014
27.585
23.3774
22.9234
20.2065
18.7636
14.932
13.346
11.7994
12.0061
12.2802
13.0309
13.5115
13.5738
13.4785
13.2668
13.2602
13.0515
5.43548
14.2086
15.9428
17.4508
12.6889
13.1494
9.29943
10.8761
8.01442
7.56371
5.87143
5.35158
4.56234
4.1774
3.72503
3.36527
3.05659
2.74511
2.56875
2.16756
8.21517
13.2761
23.0395
30.0411
21.0846
16.3796
10.8707
8.74044
7.24046
6.6964
5.80356
5.1351
4.32097
3.70227
3.2466
3.04566
3.04633
3.04351
2.97567
2.58041
9.27969
41.6944
51.6242
46.661
35.8936
32.2235
27.7595
27.6546
27.0161
26.8743
25.769
25.184
24.1383
23.4209
22.6275
22.0437
21.2679
21.0021
20.9119
20.5245
24.4626
45.6316
53.5058
55.9166
47.2083
41.8082
37.1479
35.6077
32.8342
30.9462
28.8871
27.9097
26.7116
25.8633
25.0637
24.6381
24.4737
24.2115
24.0236
23.7389
8.65867
48.1231
55.5871
51.1936
45.8856
41.0152
37.4853
35.5378
32.7262
31.1236
29.2684
28.3647
27.4006
26.7443
26.1585
25.8187
25.6288
25.3014
25.0946
24.6133
28.7544
69.8301
66.0295
52.7648
48.1316
41.4453
37.1154
34.684
31.5952
30.2629
28.618
28.0392
27.1057
26.5778
26.0525
25.8121
25.6298
25.3741
25.1755
24.6465
32.8818
65.5718
64.4357
54.3497
48.858
40.2482
37.9515
35.081
32.2723
30.6014
28.6778
27.4708
26.0808
25.3219
24.976
25.031
25.0907
24.8761
24.6601
24.0425
41.6919
52.6478
57.7423
55.7043
52.2916
44.7311
39.0918
35.1762
32.0684
29.8655
27.3496
25.6229
23.9333
23.3022
23.1301
23.2766
23.3457
23.2103
23.0579
22.6003
64.2285
57.9918
53.1717
52.8538
51.112
43.339
37.329
34.8128
31.3254
28.0459
25.4849
22.7426
20.7106
19.182
18.986
19.4319
19.9346
20.2019
20.318
20.2436
20.7302
40.3288
49.6466
55.2383
52.6094
45.9995
39.1598
34.1121
30.2908
27.5444
24.4863
21.5607
19.2136
17.2193
15.7906
15.0776
15.6615
16.2207
16.6953
17.2382
20.3852
47.0355
49.6736
50.1165
51.5162
47.2853
40.6075
33.0262
29.002
26.8355
23.423
20.0013
18.3763
16.7592
13.9032
12.1075
12.4476
13.0768
13.7323
14.803
14.7887
37.3192
46.6635
52.2987
51.8974
47.8158
41.9765
35.9223
29.2823
25.9806
7.29994
5.97302
8.54648
10.581
10.4402
12.1721
12.3789
12.624
13.2274
13.9794
9.25095
25.0254
38.3937
46.9464
48.1427
44.7356
40.8082
37.2844
29.9371
24.5675
21.8454
20.36
19.0894
16.4993
13.7149
16.1877
16.2933
15.1774
14.5129
14.6828
17.8687
45.5311
39.3471
36.7784
42.9826
47.0029
43.3265
37.4651
29.9528
24.8259
22.246
21.1729
20.8266
20.3929
20.4135
19.8555
18.9129
16.2297
14.8787
15.0413
57.2218
51.2059
34.4429
35.2884
42.2243
46.8178
43.5533
37.4256
31.1911
27.4847
24.2737
22.282
21.3184
20.7034
20.0731
18.9664
17.3831
16.1247
16.2295
16.422
41.4701
54.8071
56.2087
48.154
49.1415
48.172
43.9748
38.5612
32.8051
28.9749
25.3237
23.0418
21.7874
21.1468
20.613
19.9716
19.3985
18.937
18.8621
18.7577
37.0402
61.9649
60.1465
54.6765
52.0646
47.6523
42.069
36.7359
31.0998
27.6549
24.5871
23.3775
22.342
21.9659
21.5887
21.2954
21.1526
21.1394
21.0701
20.5859
63.3147
31.3682
38.1462
45.1488
46.2653
43.0795
37.8696
33.7672
28.9013
26.4613
24.1818
23.4701
22.7273
22.3767
21.9192
21.5856
21.4312
21.3594
21.285
20.896
8.13685
32.1533
44.0636
43.8104
40.8685
39.4519
35.3679
32.5884
28.1837
25.9039
23.6366
22.9277
22.2041
21.9069
21.4529
20.9993
20.7241
20.4293
20.2711
19.8404
8.84412
45.4509
47.7109
39.6296
36.7106
35.3517
31.9445
29.033
24.8536
23.0569
21.311
20.9917
20.5011
20.3163
19.8648
19.3955
18.9737
18.5302
18.2729
17.8992
3.40989
17.7073
26.2589
19.2187
17.0318
15.7051
13.6622
14.0696
10.4766
9.97469
7.62606
6.93594
5.77367
5.21185
4.52267
4.05523
3.59689
3.17902
2.95319
2.48252
13.0617
12.219
18.362
25.1081
19.1075
13.6242
10.7584
9.24106
7.76622
6.65873
5.55848
4.76553
4.24343
3.93998
3.76875
3.67248
3.44934
3.2436
3.09537
2.82949
22.0886
38.4931
56.0576
46.7043
37.8853
36.2696
32.6252
32.0269
29.8757
28.8901
27.3876
26.6419
25.7031
25.0045
24.3485
23.6981
23.255
22.7927
22.5589
22.154
19.6223
61.0417
63.8136
62.3379
53.3396
48.3116
43.2626
40.1712
36.3597
33.7781
31.5435
30.2214
28.995
28.1424
27.55
27.1253
26.8613
26.5153
26.2345
25.6867
51.5557
57.3858
66.8837
61.3027
54.4351
49.1828
44.8022
41.0882
37.3868
34.9316
32.7358
31.291
30.0713
29.193
28.6329
28.1002
27.7388
27.328
26.977
26.3068
34.8244
71.5873
71.8047
62.295
56.124
49.8929
44.9747
40.9673
37.2108
34.9257
32.8203
31.4754
30.2476
29.3687
28.7292
28.1688
27.7575
27.2482
26.882
26.1894
36.1505
73.099
76.4807
63.3701
56.7499
48.571
45.3241
40.8861
37.3651
34.8633
32.5058
30.8788
29.4661
28.5577
27.9375
27.444
27.0227
26.5162
26.1447
25.4317
65.6272
71.3315
70.4385
66.1465
59.4129
51.9538
45.4059
40.9654
36.3314
33.6627
30.4532
28.7118
26.8874
26.095
25.4901
25.2003
24.9419
24.6287
24.3404
23.7966
52.6114
69.612
66.4939
62.7013
58.7058
50.4954
44.7011
40.6843
35.8456
31.5843
28.3846
25.3289
23.3572
21.7529
19.7085
20.4044
20.9835
21.2342
21.2848
21.1664
11.7663
54.6578
63.5124
67.3938
61.5783
54.7581
45.5227
39.4314
33.9517
29.4175
25.8232
22.627
20.3104
18.2571
15.9576
15.1879
16.2878
16.969
17.4797
17.9671
29.7885
62.8198
65.4039
62.7562
60.9654
55.5661
48.4293
38.5308
32.183
28.3908
24.131
20.418
18.0831
15.9659
13.4117
12.5336
13.3896
14.0361
14.5847
15.5394
43.7429
59.2665
64.7949
66.6343
63.3208
58.0766
50.9995
41.7839
32.3163
27.3114
12.5797
10.4392
11.3391
11.3555
11.7235
13.2238
13.4436
13.8207
14.1424
14.8544
11.2278
47.2418
58.2384
61.4264
60.7356
57.507
52.115
43.2754
32.2998
26.2003
23.0544
20.8344
18.4851
15.8526
15.6311
17.4769
16.7451
15.8754
15.494
15.4723
66.9601
67.7588
58.2746
55.0737
58.9302
59.3329
52.7443
41.9349
32.4757
26.6948
23.7331
22.2769
21.4634
20.8875
20.8507
20.594
19.4079
17.7032
16.7626
16.1606
68.0211
55.0935
56.3191
55.8049
59.2756
58.8938
49.7181
41.4013
33.6046
29.971
26.4754
24.4155
23.0257
22.0624
21.3419
20.3292
19.1009
18.2146
17.6953
17.1123
28.907
72.4836
68.0845
62.3354
62.1365
57.5661
49.7458
42.1425
35.6705
31.4392
28.2055
26.1696
24.5727
23.1627
22.1573
21.2722
20.5567
20.0047
19.7006
19.2637
45.5912
74.6207
70.8443
66.7038
62.5312
55.2898
47.8492
40.6496
34.791
31.0522
28.3655
26.6945
25.4768
24.4866
23.6956
23.1079
22.6632
22.2454
21.8765
21.2929
78.7219
63.0234
61.3415
59.9081
58.0686
52.1586
45.3046
39.2486
33.9286
30.5989
28.1966
26.709
25.6069
24.742
24.1247
23.6273
23.2734
22.8273
22.4791
21.8409
19.3207
55.7488
59.7006
56.2198
53.4896
49.0425
43.3425
37.8503
33.0152
29.8459
27.5781
26.0931
24.9242
23.9837
23.2743
22.6504
22.2612
21.8095
21.5123
20.9804
17.4052
54.6041
56.0146
48.464
46.3612
42.1728
37.4964
32.5839
28.603
26.5247
24.8517
23.7451
22.5706
21.5361
20.6235
19.8809
19.328
18.8416
18.5607
18.3096
4.23397
19.9688
26.049
20.9034
19.244
17.1405
15.6027
13.8619
10.7747
9.39481
7.62447
6.6898
5.67059
4.97536
4.30969
3.80494
3.37174
3.04644
2.82648
2.53134
9.95612
9.81355
6.59245
11.7627
5.37111
6.56636
4.22762
4.32879
2.93228
2.72663
2.20955
2.19725
2.02405
2.03929
1.91269
1.85094
1.68073
1.63509
1.55359
1.53061
51.7368
35.359
33.793
45.769
24.5298
36.8274
19.3295
21.5868
15.2305
15.8328
13.7028
14.2924
13.4525
13.9003
13.6009
13.7608
13.2593
13.1786
12.7625
11.8436
85.7795
72.6443
44.817
57.1769
31.4774
39.8769
24.4663
27.2191
19.2747
20.1153
16.8977
17.7954
16.4798
17.3348
16.7744
17.142
16.383
16.2193
15.6548
14.2619
99.5182
78.5554
46.3174
61.9933
32.1003
49.9885
26.4014
35.5015
20.8598
23.3858
18.357
19.674
17.7833
18.5985
17.7464
18.0435
17.2349
17.1063
16.6178
15.015
55.55
74.563
63.639
63.208
33.6753
50.4371
25.2945
29.6235
20.4132
22.25
18.4609
19.6174
17.8752
18.6675
17.7894
18.0509
17.292
17.2552
16.7948
15.1671
17.0729
73.2162
58.3119
61.5392
35.4711
48.6961
26.9977
35.8937
22.545
24.1058
19.905
20.2268
18.5229
18.6057
17.8439
17.7709
17.1245
17.0565
16.7173
15.0603
47.5609
75.8093
58.8817
69.8897
34.1991
45.2861
29.8499
31.3179
23.5087
23.318
19.134
19.222
17.3224
17.4423
16.4792
16.7011
16.2019
16.2084
15.9009
14.3438
44.8987
75.5593
66.6071
64.178
41.0827
49.8344
42.8898
38.9907
32.4707
28.5232
24.8221
22.2794
20.3655
19.2185
14.8225
14.6482
14.4979
14.6361
14.5516
13.1914
41.6934
68.9808
67.8266
74.5013
43.9237
54.839
42.1938
34.1136
28.2954
23.7156
20.343
17.7761
16.0717
14.8961
14.5003
13.0491
12.7498
12.7577
12.8351
11.8458
52.2275
74.9992
68.8975
71.4781
51.0518
55.1522
44.0675
31.5419
25.8099
22.009
18.2539
14.9407
13.571
12.9376
12.9678
12.3625
11.6659
11.669
11.8163
11.152
55.2328
75.7887
65.0495
74.1538
55.9999
60.6887
49.1826
33.9053
25.4144
21.7224
16.8503
12.6904
11.1325
11.6501
12.8993
12.8911
11.9281
11.8923
11.8277
11.1511
37.1464
69.6702
74.4798
71.7205
54.8495
62.4314
50.9433
35.2093
25.0163
20.2733
17.6426
15.7845
14.9145
14.4707
15.9276
14.3104
12.8425
12.418
12.243
11.2966
74.2407
80.289
66.5551
67.9488
44.526
61.7102
49.8856
37.4324
27.263
22.7669
20.3398
19.4561
19.0282
19.0086
16.4113
14.7075
13.2297
12.9927
12.4502
11.3459
27.5746
76.0618
41.5118
61.6649
40.3134
60.8193
29.1629
39.0351
23.9563
27.968
22.2271
22.6911
19.1616
18.9142
16.3659
15.4646
14.1702
13.8684
13.2246
11.9061
96.5513
60.4366
73.0282
47.1308
50.2585
58.5658
34.6312
40.0149
27.2909
29.3772
23.8068
24.3393
20.2547
19.5712
17.7563
17.5096
16.2971
15.9874
15.247
13.4811
59.7717
90.5335
65.4155
70.067
47.7701
55.6521
35.4938
39.1687
27.2632
29.4957
23.5367
25.1567
20.8578
21.5714
19.0962
19.2442
17.7852
17.4503
16.5893
14.6725
63.6201
56.0232
72.1041
52.4991
55.4623
53.4562
39.4852
38.0176
28.3864
29.0259
23.5859
25.1913
20.9374
21.3586
19.1175
19.1214
17.8489
17.5783
16.8082
14.9878
44.0263
64.9397
69.3953
61.9673
52.3745
51.1122
38.2543
36.6863
27.5361
28.6006
22.9784
24.7752
20.1309
20.601
18.2459
18.2569
17.0095
16.813
16.1271
14.5671
51.2138
49.6835
61.5633
39.2541
48.2398
42.7466
32.3317
30.3401
23.0284
24.8192
19.6841
21.2307
16.8493
16.558
14.8022
14.6041
13.7678
13.6892
13.2994
12.4263
7.85861
15.5575
17.792
19.4712
12.2024
17.0055
7.35045
10.5333
4.62345
4.83909
3.23419
3.00193
2.30666
2.05245
1.72572
1.59002
1.44531
1.38584
1.32068
1.27381
24.4306
25.3627
8.20628
28.7366
25.6172
27.0895
8.26265
20.7019
7.22381
6.82643
24.4554
21.5008
7.29688
7.74431
8.38103
24.7361
22.2598
27.7952
8.64164
26.8066
23.875
6.04982
21.5061
19.7781
7.64847
7.07352
22.9631
20.7043
0.290288
0.400999
0.24421
14.5433
15.6914
15.0024
14.5593
0.295044
0.234903
0.228291
15.628
15.3924
14.0609
13.6502
0.273086
0.230411
0.229991
14.9841
14.3889
13.727
13.7916
0.258856
0.229805
0.223161
14.2508
13.2106
13.7355
13.1513
0.207105
0.216356
0.189094
12.6904
11.2483
12.7776
11.4928
0.15896
0.180179
0.153411
10.8254
9.67901
11.0631
10.0617
0.126304
0.146249
0.139377
9.29121
8.31742
9.83822
9.34067
0.0848753
0.138071
0.103668
7.9407
7.31495
9.04124
8.39972
0.265991
0.592411
0.354493
15.9631
14.5301
17.6596
16.4923
0.22495
0.3334
0.243004
13.892
13.281
15.7235
13.3827
0.224575
0.222288
0.198328
13.341
13.5234
12.9896
12.5634
0.213204
0.193299
0.183908
13.4697
12.9297
12.3546
11.6164
0.178801
0.180679
0.16288
12.5718
11.267
11.159
9.7511
0.146975
0.155317
0.138573
10.8221
9.86269
9.34219
8.54697
0.140562
0.136644
0.136203
9.71625
9.45594
8.45834
8.4825
0.105566
0.135175
0.103323
9.2221
8.58428
8.41998
8.01628
0.33968
0.453455
0.328893
16.4242
17.1603
14.6012
16.4495
0.252217
0.325053
0.247538
16.6118
13.9071
16.2696
14.5116
0.192159
0.229393
0.19889
13.3099
12.3069
13.9425
12.2168
0.166364
0.188008
0.164753
11.9568
11.0317
11.6589
10.7715
0.158052
0.156277
0.144455
10.6463
9.549
10.4953
10.0107
0.142749
0.145549
0.151689
9.21819
8.45964
10.014
10.089
0.1353
0.152611
0.147947
8.30263
8.0819
10.0551
9.52946
0.101885
0.143714
0.110482
7.96498
7.6997
9.20253
8.126
0.320777
0.447505
0.345907
13.8681
15.7771
14.0309
17.3821
0.257509
0.358905
0.329726
15.8747
14.8782
17.5273
15.3824
0.211042
0.295092
0.216257
14.2248
12.2337
14.2794
11.7261
0.184131
0.202065
0.168947
11.6472
10.9352
11.088
9.87155
0.149013
0.159312
0.147335
10.678
10.0036
9.55971
9.20371
0.147763
0.146113
0.144223
9.95368
10.2014
9.24033
9.6426
0.150734
0.144236
0.151917
10.2794
10.0868
9.83253
10.4354
0.113927
0.153418
0.132052
9.83932
8.80332
10.5208
10.8961
20.4074
22.173
19.4747
35.1565
32.1825
36.567
31.6756
19.4579
18.6712
17.7408
31.367
29.0897
30.2113
27.6265
18.1261
17.7346
17.6126
28.1122
26.419
27.1416
25.8755
16.682
17.4892
16.6343
25.8661
23.8604
25.4379
23.6821
14.3702
16.1511
14.5068
23.0519
20.9096
22.9204
20.5723
12.4701
13.9677
12.7433
20.2331
18.4787
19.8781
18.3372
10.7991
12.4734
11.7679
17.9146
16.4236
17.9492
16.7172
9.16077
11.389
10.0516
15.9228
15.0596
16.1838
14.5544
19.4445
24.8131
21.5245
36.9468
31.6855
38.9695
33.5907
17.3228
20.4152
17.3861
30.0913
27.2757
31.9486
27.5694
17.3255
16.8963
16.2337
26.7877
25.6203
26.6187
24.5533
16.3949
15.9743
14.4749
25.1993
23.2371
23.8688
13.5762
14.2209
13.6666
11.6044
22.3482
19.8015
11.9858
9.66058
12.4897
11.0541
10.0512
19.0904
17.7402
9.40922
10.0612
11.8545
9.96608
10.1306
17.4713
16.5233
10.6064
12.1356
10.1534
10.1059
9.1591
16.0286
14.4351
12.309
11.7504
22.2385
22.6473
21.5018
38.3137
34.3822
36.854
34.5192
17.9861
21.1227
18.9158
32.9304
28.2181
33.6461
29.3695
15.9513
18.1066
15.7855
26.9838
24.2648
27.7607
23.9174
13.8719
15.1348
13.9385
23.6857
13.2731
23.0335
20.8904
11.3445
13.5806
12.9264
11.6297
9.02638
20.2388
18.8018
9.77563
12.8717
12.7135
8.62376
8.70687
18.4309
17.2327
9.43892
12.5877
11.7213
9.07879
10.3624
16.7812
14.9223
8.72751
11.2529
9.27535
10.5652
10.6829
14.073
11.3348
21.0358
20.8488
22.4735
36.3852
34.7942
36.0869
35.8989
19.2986
22.3985
19.4962
34.0196
29.5614
34.7838
29.372
15.7501
18.1969
15.2176
27.8409
23.8026
27.5911
23.5892
14.0332
14.5
13.0963
22.8901
20.9563
22.5985
20.5413
12.9638
12.7245
12.239
20.4439
19.3996
20.0357
19.2356
13.0617
12.2712
12.6486
19.1973
18.6054
19.1821
19.1888
12.6119
12.8051
13.2885
18.3199
16.8481
19.1762
19.0412
10.0725
13.3251
12.9464
16.0986
12.8568
18.8388
18.0775
35.1106
40.3668
34.7273
41.5154
40.4734
47.1457
40.304
31.3738
33.1019
29.9759
39.0109
35.1945
38.2136
33.6312
28.2092
29.3053
27.5991
33.8182
30.5954
32.5054
29.7055
25.3241
27.0483
24.9973
29.6474
27.0534
28.8757
26.1955
22.2528
24.1599
21.678
26.1322
23.6982
25.2361
22.553
19.7812
20.9687
19.3789
22.9822
21.2162
21.8142
19.9789
17.702
18.9584
17.5911
20.6406
19.0611
19.4405
17.7588
16.2541
17.0321
15.2719
18.5969
17.5232
17.1852
15.415
34.761
42.5344
36.6598
47.3761
40.3629
49.1965
42.5614
29.6757
34.9068
30.0944
38.2026
33.4337
40.3038
33.9855
27.3675
28.9482
26.2799
32.2884
29.5439
32.3573
28.7498
26.5631
26.2143
26.4824
27.9709
25.6365
27.2247
27.6137
19.8237
22.4643
20.8994
24.0873
19.7789
23.0633
20.9457
18.671
7.18281
9.49701
20.7924
19.2067
8.57145
11.2261
17.2848
10.3907
12.3246
18.7434
17.2193
11.8538
12.6299
15.0804
12.5189
12.0242
16.6655
15.0581
12.6283
12.217
37.5082
40.8983
38.0134
49.3625
43.6831
49.6042
45.0161
30.7088
36.9118
31.7542
41.4319
34.4283
42.8498
35.0275
25.9914
29.9086
25.6827
32.5379
28.4815
32.7092
27.8629
17.5028
15.1374
24.9229
22.6737
21.1303
3.12836
25.9572
10.4669
6.67617
13.9381
1.85487
12.8368
1.74044
11.2272
7.78245
19.2982
17.8209
7.57673
9.88068
20.033
18.0184
10.3414
17.2936
15.1955
10.4517
11.1137
17.3274
14.9253
10.8662
14.2708
11.5445
11.1492
11.3722
14.0865
12.7274
38.3852
40.6505
39.224
50.0651
45.2474
50.3141
45.3718
31.8674
37.7306
31.6227
42.9697
34.997
42.8593
35.0345
25.5518
29.7219
25.4272
32.6505
27.6484
32.8646
27.8317
22.4044
24.3755
22.1539
26.5395
24.0344
26.6575
24.1701
20.64
21.6104
20.6851
23.3861
21.7637
23.5366
22.2923
19.4771
20.5924
20.4257
21.2834
19.6971
22.0573
21.4426
17.3402
20.3358
19.9776
19.1146
16.9992
21.2193
20.4625
13.1691
19.7205
18.8571
16.2123
14.169
20.1897
19.5402
40.9883
48.2606
40.7846
45.2643
38.2156
46.4688
36.9839
35.4242
38.5446
33.6225
36.574
32.4994
34.5266
29.5434
30.4095
32.4077
29.3871
30.6251
26.6826
28.3001
25.3029
26.7581
28.5037
25.7296
25.699
23.0912
24.4431
21.643
23.3359
24.7595
22.053
22.0931
19.8042
20.7041
18.0981
20.8779
21.2954
19.334
19.176
17.7301
17.3434
15.609
18.7032
18.763
17.0618
17.1973
16.0024
15.2105
14.183
17.2448
16.512
14.9321
15.6672
15.0958
13.8816
13.0927
40.8298
50.4369
43.1118
46.9736
36.9383
49.643
39.2654
33.4204
40.6272
33.8888
34.3995
29.2566
36.2429
29.2742
29.2507
32.1905
28.6188
28.0236
25.3412
27.8216
25.0754
25.2821
27.3115
14.3918
24.4724
21.5768
24.1325
19.5958
21.1616
12.7659
11.0045
20.5529
17.7127
17.9905
14.5192
18.6117
11.1336
12.1819
16.8854
14.9938
13.7649
12.1199
16.4949
12.4313
12.5524
14.6164
13.7394
11.9194
11.876
14.5573
12.4806
12.1263
13.4756
12.8101
11.8765
11.8734
44.3344
51.6981
45.8293
51.2171
40.6028
52.9465
42.2922
34.2617
43.2265
34.7289
37.3264
29.4181
38.6934
29.5702
28.3556
32.3532
27.5484
27.7987
24.8372
27.4403
23.7294
14.1943
26.5041
23.6622
23.9226
19.3985
22.8746
20.4659
10.4147
22.7623
20.4583
17.8419
14.4248
19.6952
17.5432
11.1505
19.7594
17.5905
13.6283
11.8092
16.8185
14.8795
11.3801
16.867
14.6155
11.5674
11.538
14.49
13.6968
11.4919
13.9435
13.1227
11.5903
11.806
13.5562
13.6905
45.953
52.4103
45.9495
53.0068
42.2594
53.4085
42.724
34.6919
43.1685
34.9713
38.7099
29.564
39.4355
30.6353
27.291
32.7347
27.5703
27.3805
23.2386
28.2998
23.5765
23.7108
26.4102
23.9204
22.39
20.2064
22.6016
20.524
21.3595
23.2727
21.9707
19.5953
17.9429
19.9428
18.9041
19.0839
21.7213
21.0504
17.384
15.9906
18.7529
18.3586
16.5039
20.8155
20.07
15.6858
14.9342
18.2043
17.9002
14.4251
19.8295
19.4051
14.7592
14.5883
17.8241
17.8916
35.786
43.2126
33.9471
19.2057
21.7013
17.2023
17.5711
30.1485
31.7068
27.2048
20.7143
15.9164
17.4477
16.8643
24.6509
26.0589
22.9942
16.5212
15.9353
16.744
13.2771
21.2805
22.0724
19.3059
15.8231
14.8326
12.5022
11.4562
18.3341
18.4283
16.1257
15.5652
15.919
11.3279
11.9817
16.5432
15.5308
14.3945
15.9232
15.3046
12.8005
14.2189
15.159
14.1457
13.4807
15.1426
14.7904
14.3547
14.2932
14.5665
13.2736
12.7655
14.7123
14.455
14.2369
13.8876
33.8522
47.3597
35.8609
20.2358
17.7136
26.0505
19.5205
26.9522
32.9883
26.8575
17.6514
16.9246
18.7187
16.2493
22.9091
25.4771
22.7098
15.8814
12.2099
14.4623
10.9914
19.2041
21.907
18.3092
11.4732
10.2085
10.2967
8.72986
15.6474
16.9447
13.6358
10.0131
10.2518
8.36654
7.85823
13.7437
12.7382
11.354
11.0531
13.4222
8.42686
11.4628
13.1063
11.3376
11.7359
13.9933
14.1677
12.6601
13.8155
12.5211
11.78
11.8748
14.1265
13.759
13.8447
13.6067
37.0863
51.0153
38.7005
26.7488
19.5002
26.153
19.4147
26.9291
35.1368
26.9347
18.7411
16.2049
18.498
17.0636
22.5003
25.098
21.4509
14.4106
10.9752
15.8784
12.3186
18.1672
20.6077
18.338
10.2807
8.8208
11.6657
10.7962
13.6078
17.6423
15.7006
8.47616
7.912
10.6678
10.7653
11.1772
15.0718
13.9086
8.46808
11.4558
11.4998
13.8864
11.5589
13.7656
13.485
12.6516
13.8397
14.5613
14.8553
11.8806
13.4343
13.6677
13.881
13.6537
14.8601
14.7134
38.7003
51.1273
39.7398
27.1219
19.524
22.7888
20.7724
26.8978
36.4179
27.9961
18.695
17.0486
19.0502
17.0921
21.143
25.8854
21.8362
17.0692
13.4942
16.7224
17.7146
18.1971
20.9815
19.2165
12.9577
12.2963
18.2622
17.3028
16.199
18.7195
17.8933
12.302
12.6493
16.9224
16.7872
15.0439
17.7636
17.5075
13.5039
15.1166
16.6381
16.7204
14.5599
17.3867
17.2352
15.3372
15.4154
16.6003
16.7263
14.4626
17.188
17.3553
15.3968
15.1962
16.6032
16.652
24.6448
25.3956
22.3453
25.1803
24.1784
26.2828
22.4923
23.1263
25.9254
15.8419
23.1061
24.0223
26.9266
4.33825
17.1714
16.4139
10.6841
2.27262
19.7907
13.899
2.68378
27.1176
28.6021
27.8505
28.4635
27.7659
28.269
27.332
25.065
25.5687
26.7945
23.4027
26.7434
22.832
25.5045
23.4732
23.1856
27.9738
15.9212
27.5926
4.34149
25.5078
17.4277
2.44647
17.1987
10.4362
14.1661
2.74112
20.6554
18.8197
21.5368
18.0951
21.2479
18.8361
22.0914
18.1944
11.8087
14.6587
6.42974
1.94086
13.6806
12.4993
1.75998
11.0395
12.597
6.22505
4.08714
12.8607
11.5762
2.93778
20.0979
24.4256
23.3609
21.8114
23.3557
21.2462
20.6125
19.0672
21.5131
22.3661
18.8291
22.3614
18.4475
19.5754
12.0846
2.2677
15.4893
6.72293
12.8055
2.14926
14.4709
11.3443
4.22491
13.5871
6.92939
11.9387
2.98081
13.6773
13.7734
10.4306
15.3871
2.21611
17.6049
2.65278
12.2285
24.4594
24.9168
23.8947
25.9387
23.6678
26.1171
25.0151
22.6146
20.8338
23.0706
23.1776
22.2349
21.0548
24.0878
17.6622
22.8277
16.288
27.1068
3.42223
26.6442
22.6554
13.6575
2.43217
10.7645
15.8349
2.75023
12.1245
18.2898
25.0761
26.6276
27.0589
25.8316
26.8241
25.6541
25.6316
23.0692
23.7045
22.1193
24.8495
21.4158
24.6709
23.809
10.0846
5.91458
11.0594
2.9025
11.8863
1.88233
9.22696
18.7373
19.6602
20.8496
22.3417
18.6695
19.7854
21.6106
17.8754
16.9943
20.2918
20.3653
17.8288
16.9056
20.9743
10.4219
2.25255
7.04091
14.3002
2.18433
11.1366
13.1865
10.0854
3.33684
6.54994
11.6892
2.32072
9.45853
12.3164
18.9953
22.8154
20.743
22.1481
20.0854
22.0311
19.5889
18.0891
20.6633
17.6664
21.4088
17.1214
21.3308
18.5935
1.69179
1.40827
1.62545
7.37034
11.2242
7.81107
11.4427
1.29357
1.52785
1.39658
12.3481
11.4912
12.5278
12.4989
0.996927
1.06558
1.00317
10.7639
10.7928
11.8889
11.3151
0.786646
0.954762
0.845591
10.146
9.08507
10.6965
10.1783
0.631848
0.720463
0.644081
8.40984
8.23261
9.48977
8.93923
0.49822
0.571882
0.498784
7.62591
6.87819
8.26608
7.73197
0.388691
0.442915
0.400448
6.25806
5.96021
6.95488
6.66558
0.280353
0.370591
0.277382
5.18311
6.04468
5.64911
5.99124
1.19862
1.89371
1.27718
8.72775
10.8429
8.60815
11.55
3.32479
0.339737
0.383282
2.84553
3.64541
2.72691
0.30076
4.61291
0.292413
0.225561
5.63399
5.89995
4.42421
0.222742
5.02569
0.280834
0.229005
5.7424
5.60862
5.00097
0.233098
4.91928
0.268989
0.245249
5.23316
5.11163
4.94028
0.249247
4.40229
0.231772
0.23337
4.2151
4.00452
4.55377
0.224374
3.81
0.18056
0.187522
3.46534
3.31606
3.94775
0.178058
3.23628
0.13801
0.143742
2.89784
2.76434
3.38097
0.137239
2.83334
0.115016
0.122995
2.45745
2.36741
2.91502
0.119215
0.292254
0.421217
0.315893
5.21929
6.12081
6.02123
6.00041
1.79757
2.89659
2.15179
10.2819
13.3375
12.0316
14.9581
3.88136
0.367758
0.549969
2.86803
3.67659
3.0101
0.385804
4.39233
0.233328
0.26421
4.36023
4.37377
4.45446
0.243016
4.41342
0.22406
0.218469
4.48147
4.51325
4.37699
0.217599
4.41843
0.221279
0.216129
4.54224
4.53981
4.42652
0.214053
4.08426
0.196104
0.196729
4.34705
4.22365
4.20056
0.187749
3.51522
0.161256
0.16138
3.79596
3.64809
3.63759
0.153214
3.37165
0.139745
0.137232
3.42546
3.40062
3.35182
0.137294
3.34794
0.138992
0.140754
3.38702
3.3138
3.40808
0.139818
0.318925
0.422971
0.30743
6.037
5.59801
5.84396
5.18474
1.39648
1.69983
1.27888
10.7749
12.8249
9.99929
11.6023
3.87671
0.392892
0.478474
3.39083
4.04984
3.29042
0.382344
5.77361
0.312742
0.340418
5.77407
5.71259
5.81838
0.319245
4.39093
0.213447
0.227237
4.64588
4.43152
4.59326
0.212184
3.53604
0.173054
0.177186
3.88613
3.76186
3.73281
0.165012
3.3246
0.164183
0.147479
3.60372
3.56071
3.29164
0.148304
3.37302
0.148989
0.151148
3.41292
3.36898
3.35316
0.150197
3.28777
0.138655
0.144842
3.27337
3.24964
3.32391
0.142297
3.07369
0.126836
0.132963
3.13985
3.07323
3.14152
0.127624
0.27623
0.363429
0.248098
5.2635
4.85588
4.9767
4.81701
1.37906
1.69213
1.25386
8.96699
10.138
8.14628
10.4497
3.09185
0.383807
0.472493
2.82613
3.38925
2.63763
0.354308
5.32079
0.293245
0.291855
5.13604
5.17436
5.01479
0.290299
4.61017
0.230717
0.259111
4.69428
4.56276
4.8583
0.247602
3.72302
0.190398
0.206085
3.86485
3.7534
3.83436
0.196684
3.48356
0.166181
0.18124
3.69373
3.58931
3.57808
0.17186
3.13173
0.145916
0.145675
3.2842
3.29616
3.13729
0.142499
3.44494
0.153141
0.144956
3.47131
3.52226
3.34278
0.14865
3.51276
0.144935
0.1512
3.4754