/*--------------------------------*- C++ -*----------------------------------*\
  =========                 |
  \\      /  F ield         | OpenFOAM: The Open Source CFD Toolbox
   \\    /   O peration     | Website:  https://openfoam.org
    \\  /    A nd           | Version:  10
     \\/     M anipulation  |
\*---------------------------------------------------------------------------*/
FoamFile
{
    format      ascii;
    class       volScalarField;
    location    "9";
    object      omega;
}
// * * * * * * * * * * * * * * * * * * * * * * * * * * * * * * * * * * * * * //

dimensions      [0 0 -1 0 0 0 0];

internalField   nonuniform List<scalar> 
12920
(
214.74
201.164
180.604
167.982
150.066
133.535
116.357
97.1681
80.0576
70.1048
65.6973
63.6844
61.5672
59.1708
57.4706
55.0826
49.8392
44.59
42.9515
40.5515
267.382
208.112
199.285
172.364
137.864
117.315
98.579
90.0571
85.4243
83.8072
79.8198
77.1435
73.3062
69.5021
64.5374
59.4917
56.0506
54.3694
53.3797
50.6983
187.888
208.097
210.094
189.935
147.532
125.985
107.402
100.959
94.5586
89.9564
80.7222
72.4742
65.762
61.2279
57.9946
56.1139
55.1998
54.349
53.6994
53.0023
194.337
266.702
240.664
155.433
117.599
104.786
94.6206
91.0855
83.959
77.6975
70.0738
64.9951
60.8979
58.1099
56.088
54.8627
54.2184
53.6813
53.5126
53.1049
270.843
211.062
173.666
126.799
110.721
101.31
91.896
87.6818
80.6068
75.1017
69.1479
65.4324
61.853
59.1372
56.9772
55.7143
55.0838
54.5203
54.3097
53.7331
95.8698
209.313
195.126
133.489
112.961
101.26
93.2209
90.0996
84.2532
79.9025
73.9488
69.1176
63.9176
59.2398
56.0114
54.4589
54.0766
53.735
53.5384
52.8192
71.4517
231.98
240.19
170.285
127.624
108.274
96.7644
88.1703
82.4698
76.9151
70.5713
64.7807
58.8471
54.5406
52.1532
51.1468
50.8605
50.5807
50.5203
50.0982
351.981
256.676
219.495
147.938
124.977
106.734
153.286
147.231
141.435
127.605
118.72
106.274
94.7274
83.5255
49.0029
47.1221
46.4623
45.9945
45.915
45.5972
90.6032
105.998
146.872
149.87
138.834
198.405
304.741
236.705
233.637
218.486
204.826
180.21
158.168
143.006
84.5981
45.937
42.6311
40.866
40.4387
40.1486
407.878
306.352
194.753
156.125
146.644
206.164
265.048
195.14
189.221
193.26
190.552
176.749
161.819
158.334
94.443
43.5533
38.3317
36.2195
35.4167
35.4747
179.109
199.792
178.683
172.481
165.575
258.995
365.11
276.851
203.376
172.93
167.32
161.086
154.915
151.216
88.0829
41.4954
39.9827
37.5928
35.2495
34.3141
207.862
162.259
154.343
150.569
141.627
224.684
318.269
241.911
199.946
173.445
158.985
149.707
154.44
157.271
93.8489
47.5172
47.9174
47.646
44.3579
38.0678
341.715
235.134
163.915
123.749
114.174
112.591
188.809
160.753
129.4
105.011
90.3935
86.0399
87.1569
94.3778
61.0087
57.4782
55.9035
52.5412
45.8419
39.0623
408.846
265.101
187.32
133.055
111.329
109.297
105.443
97.0639
84.4731
75.2133
64.5484
56.2181
50.7392
49.7285
50.4229
50.2784
49.2805
45.7409
41.3835
38.7208
329.288
264.35
181.454
145.228
119.593
117.608
112.081
108.113
97.6245
89.8189
77.779
65.5712
55.5092
49.0214
46.3329
45.3123
44.6611
43.5268
42.7626
42.9621
419.58
291.396
185.396
157.495
136.756
129.762
116.787
108.328
95.7102
84.1247
72.6788
62.5731
54.5866
49.6767
47.2328
46.2407
46.0509
46.2205
47.3202
48.1647
174.968
178.865
159.913
140.84
128.784
120.966
108.855
96.9262
83.7663
72.4462
62.9675
56.2105
51.7274
49.1614
47.5278
46.7322
46.6222
46.7308
47.3538
47.848
82.0062
170.749
167.464
144.101
119.604
108.51
98.7579
90.2287
79.233
69.547
60.8073
54.8925
51.0831
48.9706
47.5806
46.3094
45.6561
45.2345
45.1193
44.7064
139.141
210.598
169.921
125.383
110.935
103.453
92.8217
82.1661
70.9012
62.6361
56.3938
53.0893
51.4588
50.8781
50.2215
49.3161
48.5285
47.3597
47.0227
46.2434
117.002
171.915
126.77
90.3914
84.0119
81.2841
74.2112
68.3954
63.5566
59.5246
55.2069
50.9426
47.2009
43.9706
41.6649
39.4831
38.0595
36.1659
35.3597
33.5023
93.1067
101.752
103.269
96.6984
84.502
73.0963
60.1138
48.9506
41.4761
38.0642
36.6119
36.1461
35.3176
33.2004
29.9893
26.6795
24.9445
24.3431
23.9925
22.6671
265.823
157.974
118.048
90.8041
74.419
65.4345
58.0035
53.2344
49.9714
47.6109
45.0453
43.1825
41.5565
40.0897
38.2703
36.2745
34.6074
33.658
33.4451
32.5678
129.733
149.692
135.144
95.5934
69.5796
63.1523
56.6509
54.36
50.1904
46.9245
41.8592
37.2496
33.7384
31.8011
31.0646
30.8269
30.9395
31.0772
31.0871
30.5683
170.057
218.901
143.817
83.0416
60.7661
55.4141
50.9556
47.6359
43.1914
39.3644
35.3501
32.4008
30.0747
28.6733
27.9632
27.4709
27.472
27.5654
27.6161
27.556
207.376
117.946
80.437
63.2938
54.8394
52.8046
49.5155
46.9978
43.4071
40.1704
37.0313
34.2328
32.0315
30.2728
29.2687
28.3857
27.7939
27.2926
27.0989
26.9469
135.737
151.183
100.576
65.0374
53.6994
52.8543
49.4624
47.2763
43.6495
41.3281
38.626
36.3988
34.5703
32.6842
30.7704
28.7678
27.2849
26.474
26.2146
26.0191
162.598
197.65
143.002
82.1622
56.3252
51.0034
46.3497
44.349
40.4348
38.4054
35.6331
34.0161
31.9566
30.0735
27.9631
26.1945
25.1624
24.675
24.5646
24.5754
339.049
199.129
131.756
75.5778
56.193
50.7683
55.1312
50.6577
45.8209
41.707
38.7082
35.616
33.7443
31.1623
25.4438
23.3666
22.4008
22.0708
22.0502
22.161
133.731
131.212
117.876
89.3258
67.0997
65.0121
60.9886
54.2457
46.6069
40.8739
37.7158
35.3733
33.8992
33.1604
27.9976
22.3544
20.562
19.7861
19.6238
19.7183
290.039
138.762
115.99
87.9215
71.5304
65.5738
57.3513
46.7203
38.4538
35.4711
35.0688
35.0159
33.674
31.4963
28.9196
22.6736
19.8387
18.6451
18.0892
18.0328
140.377
163.866
127.55
104.259
90.1784
91.1422
87.1241
68.8916
43.0644
34.1644
34.5668
34.0178
32.7269
30.8724
29.2464
23.5353
21.5053
19.9627
18.6304
17.9985
302.291
199.727
121.009
96.159
82.3773
84.6842
81.8745
61.6771
41.8518
35.159
31.4453
30.6461
29.22
28.7577
28.4793
26.8486
26.4877
25.5017
22.759
19.7399
412.557
152.313
131.372
90.1875
73.7994
63.0844
61.7614
52.5574
40.3804
34.5785
30.0827
28.3317
28.2786
28.3974
27.9645
29.3532
30.3003
30.2607
28.7588
22.7432
411.588
148.48
123.01
93.3183
73.2478
60.1832
51.0755
45.9679
39.2634
36.5759
32.5868
29.4185
26.2227
25.0618
25.5076
27.0812
27.7004
27.1753
24.4874
20.7292
586.638
213.928
92.1626
75.7137
64.55
58.7815
51.9987
49.9731
45.9213
43.859
41.0741
37.2577
31.5076
26.0206
23.3255
22.5412
22.2554
21.8531
21.4401
21.3968
197.84
168.75
104.976
77.7109
63.8334
60.3522
54.3473
51.9834
47.731
44.5358
40.9873
36.0183
31.5319
27.3548
24.8354
23.6191
22.9741
22.8826
23.0217
23.7758
196.825
187.402
126.753
89.5356
70.3297
63.0314
57.1879
52.0721
46.9822
41.7307
36.8537
32.385
29.244
26.986
25.7698
25.2068
24.769
24.554
24.5601
24.9404
100.096
127.89
105.027
84.8093
72.2422
63.6611
57.6672
51.2482
45.8321
40.5065
36.0809
32.2849
29.4311
27.2962
25.8982
25.0616
24.5544
24.3762
24.2492
24.3132
132.681
123.508
89.3648
67.3047
62.6035
56.3401
50.6027
44.9375
41.1486
37.9574
35.2899
32.8644
30.7168
28.7414
27.1251
26.0012
25.1944
24.6301
24.2872
23.9572
116.027
109.802
81.542
54.8372
43.5141
41.7767
40.6846
40.0037
38.3716
35.8049
32.9174
30.6223
28.8158
27.2912
26.0899
24.7399
23.7952
22.5856
22.0552
20.7406
105.116
110.091
105.769
95.4794
82.9517
68.7564
56.5623
48.1324
43.2093
40.2156
37.8448
35.4611
32.9633
30.6219
28.798
27.4469
26.7034
25.6803
24.9977
23.2626
124.558
137.313
98.4495
72.972
61.196
54.9422
48.3668
45.8339
42.1315
40.8371
38.6307
37.7896
36.3322
35.2433
33.9768
32.9876
32.2834
31.6339
31.1874
29.998
174.083
141.85
108.177
73.851
57.4108
51.5988
46.4417
44.4739
40.5399
38.0917
34.445
32.2048
30.3899
29.5908
29.1913
29.1758
29.2493
29.2132
29.0563
28.4007
196.373
142.216
84.049
58.105
50.0307
45.5539
42.2126
39.3495
35.5965
32.961
30.1479
28.4422
27.1156
26.4883
26.2044
26.1664
26.2572
26.3548
26.3653
26.2039
191.486
133.35
74.9681
52.8994
47.8127
43.7567
41.0315
38.5622
35.3591
33.023
30.7309
29.1
27.7809
26.9144
26.3409
25.9595
25.7577
25.6033
25.5489
25.4137
340.656
192.366
99.5442
57.5471
46.9921
42.5098
40.7852
38.4527
35.5166
33.6257
31.6942
30.2352
28.8592
27.6632
26.5768
25.6785
25.0805
24.7416
24.6239
24.4885
274.687
186.586
140.431
81.797
51.9812
42.8621
38.8971
36.4136
33.6024
31.7369
29.9319
28.6509
27.1777
25.9632
24.8245
23.9763
23.5011
23.3159
23.3036
23.3298
203.085
178.634
130.554
71.0744
49.4844
41.7349
41.9587
40.6887
36.3436
33.2497
30.8185
28.9807
27.4566
25.5242
23.7491
22.514
21.8495
21.6044
21.5894
21.6606
140.534
185.239
138.037
87.6932
59.9544
50.5266
46.0129
42.101
37.3603
33.6294
31.2691
29.6043
28.3161
26.6392
23.9728
22.3834
20.9649
20.3005
20.1017
20.1565
189.969
139.038
105.903
81.8412
64.062
50.2412
45.3947
37.5925
33.0404
31.3109
31.3392
30.9955
29.093
26.9116
25.0334
22.8801
20.9583
19.9988
19.523
19.4633
227.09
155.433
114.091
94.9036
80.6
74.8785
65.3411
49.2332
34.3336
29.9935
68.0273
60.5089
41.4603
32.511
28.0276
25.816
23.0525
21.177
20.0853
19.6774
154.151
158.18
116.733
89.9777
73.4549
68.8781
60.8201
46.2522
34.5459
29.8843
28.1859
27.6628
27.3927
27.6363
28.4415
29.6265
27.8066
24.5593
21.8816
20.2178
196.88
201.291
114.131
80.6003
64.8294
53.8083
48.3178
41.3861
32.5754
28.6282
26.2094
25.8809
26.4319
27.0875
28.7338
29.3601
29.2337
27.9029
24.4486
21.122
457.415
140.872
94.3498
68.7859
58.3049
48.8819
41.7912
37.7402
32.729
30.3637
27.2161
25.0237
23.7499
23.5854
24.1994
24.9109
24.7735
23.6688
21.8038
20.4125
367.877
139.43
80.6347
60.1134
53.5931
47.7006
42.7286
40.5418
37.0155
34.8809
31.755
28.7612
25.5986
23.2329
22.2452
21.9192
21.8295
21.6453
21.5404
21.6085
160.154
150.433
90.7518
61.6199
53.1184
48.0282
43.9127
41.2566
37.716
35.1074
31.9882
29.1103
26.5614
24.7736
23.641
23.1488
23.0234
23.104
23.3498
23.8366
292.896
137.583
97.113
69.6921
56.574
50.1412
45.0243
41.3306
37.0713
33.9955
30.7178
28.4613
26.6655
25.6341
24.9822
24.733
24.6448
24.678
24.7743
24.9697
230.923
124.804
89.3726
68.9081
58.151
51.4381
45.6052
41.4911
37.1549
34.3908
31.4624
29.5254
27.7138
26.5709
25.6989
25.2459
24.9955
24.9578
24.9502
24.9593
131.243
114.115
87.8663
64.6266
56.1024
50.0704
43.9582
40.4001
36.5594
34.8118
32.6205
31.3606
29.7234
28.6578
27.6162
26.9854
26.4332
26.1347
25.9003
25.6021
71.4772
92.4341
83.3987
63.3542
54.0547
49.8963
47.0994
44.6996
41.6214
38.5806
35.6116
33.2031
31.1767
29.4294
27.8543
26.3552
25.1054
23.6925
23.0439
21.5709
154.664
101.7
94.5968
86.0942
73.1086
59.2842
51.1217
45.7714
41.9826
38.5706
35.5753
32.9245
31.0433
29.6759
28.6655
27.6701
26.661
25.4797
24.4703
23.2036
240.788
115.547
87.7585
66.748
60.5969
52.2977
48.5302
45.5791
42.9446
41.8055
40.3084
39.728
38.7141
38.1436
37.4107
36.958
36.6379
36.2024
35.692
34.8768
183.825
162.763
101.978
67.7213
57.6874
49.3566
46.5841
42.9433
40.2406
37.6444
35.6473
34.3284
33.6794
33.4369
33.4566
33.6382
33.7964
33.7045
33.5382
33.0405
340.492
235.878
85.4124
56.6196
50.9797
43.9096
42.352
38.2052
35.9866
33.3836
31.9612
30.8667
30.4981
30.385
30.531
30.8051
31.093
31.191
31.2315
31.0998
198.822
153.843
82.7962
54.9905
50.4111
42.7912
41.3124
37.4343
35.4192
32.9846
31.8736
30.7376
30.2949
29.9663
29.9454
29.9756
30.1178
30.1887
30.2453
30.197
193.135
150.041
92.8956
57.5546
48.6988
41.5714
40.9687
37.2292
35.1142
33.072
32.0658
31.0148
30.3821
29.8531
29.5489
29.3529
29.3113
29.2803
29.2896
29.2779
230.861
187.055
132.901
74.0645
54.0332
42.764
40.2409
35.8238
33.9516
31.7359
30.9435
29.8755
29.3593
28.8403
28.4587
28.1586
28.0986
28.1356
28.2557
28.3991
230.058
158.235
110.093
65.0153
50.6926
41.7558
40.7555
38.8598
35.1767
32.7188
31.1786
30.0991
29.2279
28.446
29.686
28.2092
27.4457
27.2496
27.2744
27.3964
113.009
156.154
145.613
94.8464
62.1021
48.4325
43.8727
40.6753
36.785
34.5767
32.7257
31.7866
30.751
29.8984
30.5822
30.0732
27.8745
27.0201
26.8442
26.9122
217.405
134.496
116.391
81.8379
63.3387
48.2714
43.915
37.719
35.715
34.6509
34.2436
33.398
32.2976
31.6348
32.3952
31.3229
28.6231
27.6048
27.3408
27.3072
379.697
142.673
117.786
93.2616
78.6853
67.6735
55.1132
42.8032
36.0107
34.584
54.1718
48.4853
38.8735
35.8528
35.1658
33.025
29.7414
28.2634
27.8476
27.8015
154.616
142.145
123.411
92.1041
72.3906
62.1584
52.5782
42.4136
35.7061
33.1761
32.3989
32.5642
33.6523
35.0236
36.6196
35.8189
32.1091
29.4439
28.0473
27.5825
269.218
252.937
143.588
81.7349
65.5998
51.1911
46.1466
39.4201
33.2833
31.0784
30.2472
30.9859
32.3213
33.5749
35.3852
34.5241
32.6253
30.1976
28.4143
27.5344
261.434
181.754
89.7188
61.7569
57.6962
46.3974
42.3073
36.9509
33.4651
30.9028
29.0875
27.9382
27.92
28.1076
28.5942
28.6616
28.421
27.782
27.3576
27.2049
230.854
122.958
77.7613
56.5888
54.3129
45.3896
43.251
39.2286
36.4017
34.1546
31.8091
29.7727
28.3046
27.5371
27.4486
27.5414
27.8517
28.011
28.2179
28.3788
200.257
181.452
102.098
59.2557
53.3823
44.9629
43.3494
39.2206
37.0888
34.6903
32.8577
31.2392
30.0373
29.4003
29.164
29.2248
29.5595
29.9491
30.2888
30.4279
257.846
137.569
90.0306
62.127
55.6667
46.4821
44.2818
39.6701
37.3223
34.9776
33.3286
32.2338
31.5016
31.1838
31.0435
31.0901
31.2808
31.5205
31.6861
31.6599
170.819
109.114
85.3683
62.8841
56.9736
47.8231
44.9189
40.4435
38.2595
36.4007
35.0461
34.1219
33.3238
32.8725
32.5424
32.4426
32.4529
32.5276
32.5607
32.4483
178.849
122.71
81.5826
61.4394
57.7632
49.3534
46.0882
42.431
40.144
39.0779
37.8554
37.3351
36.4194
36.013
35.465
35.1838
34.8542
34.684
34.4398
34.2036
81.3616
91.8019
82.8264
66.4621
61.1266
54.4546
50.2264
45.8557
42.0569
38.6642
35.728
33.2587
31.1157
29.1721
27.4514
25.8804
24.5694
23.4266
22.5863
21.4963
146.876
83.9328
79.1234
70.3296
59.5032
51.9827
46.6455
41.6828
37.4341
33.998
31.7311
30.1972
29.0735
27.9239
26.7943
25.6076
24.5721
23.7913
23.0667
22.8711
251
123.782
102.027
69.4508
80.3525
60.7272
69.3553
58.0312
62.8596
56.6806
58.5203
55.0187
55.2906
53.2837
53.3551
52.6567
53.1334
52.6349
52.7527
51.7587
342.213
189.34
123.634
74.0377
79.2507
59.8872
65.0547
53.5797
56.2741
49.593
50.7682
47.5389
48.3017
47.0024
47.8066
47.6571
48.3338
48.079
48.4325
47.7381
458.847
274.986
117.088
67.6205
69.1586
52.3256
58.2229
46.8709
50.3342
44.3498
46.0464
43.4815
44.5542
43.7791
44.7018
44.7215
45.4361
45.3999
45.7679
45.3827
289.602
185.131
106.079
66.7198
71.2285
52.9217
58.8168
47.6307
50.1147
44.3265
45.7188
43.1026
44.0478
43.0887
43.832
43.685
44.2785
44.2003
44.5628
44.2464
170.394
156.74
112.133
69.652
66.9122
51.3438
57.3172
45.6572
47.3883
43.1049
44.0689
42.3936
42.9346
42.451
42.9121
42.9006
43.2243
43.1462
43.3605
43.1425
267.336
198.405
155.438
80.3528
78.308
54.9071
57.3312
46.771
46.5611
42.3343
43.3672
41.6483
42.4614
41.8602
42.0164
41.7824
42.0776
42.0616
42.4301
42.3542
213.09
160.566
116.714
70.9284
66.8373
53.8295
51.215
46.5338
45.432
42.4833
43.0045
42.1481
42.7325
42.5907
44.535
42.0408
41.4492
41.387
41.583
41.5744
241.27
207.137
191.023
101.854
78.6758
56.4149
57.5428
52.4221
49.7331
48.3576
47.8661
47.64
47.9758
48.1319
48.5236
43.9422
41.651
41.1535
41.3909
41.3668
276.79
153.99
136.716
83.5112
72.5535
54.6813
54.304
53.6868
53.4466
51.1607
49.5092
49.3805
51.3235
51.7919
50.0567
44.1452
41.8269
41.3704
41.5455
41.4728
193.391
140.401
131.652
92.3937
87.8643
68.9475
58.2495
55.0608
54.0816
50.2623
50.1383
49.7763
52.9586
53.4616
50.606
44.5455
42.1128
41.6261
41.8814
41.7882
235.656
166.776
144.57
90.167
80.2181
62.7384
57.9149
54.5205
52.567
51.076
50.7913
51.5669
53.5474
53.9042
52.277
46.9653
43.6748
42.3832
42.219
41.7447
319.474
226.695
154.274
79.9492
81.2537
56.1855
56.0468
47.4665
46.5935
44.7796
46.0535
46.8551
48.858
49.5422
49.4784
46.0735
44.3374
42.9784
42.7501
42.0757
226.77
172.639
99.8245
67.5015
73.5948
50.7367
58.062
43.8343
44.8022
39.6932
40.5787
39.3719
40.8721
40.8056
41.4352
41.4657
41.9057
41.8018
42.1609
41.8162
274.772
144.75
86.4368
66.0048
67.5125
49.9418
57.0681
45.2959
46.7378
41.9506
42.0205
40.0484
40.5967
40.3543
40.956
41.1133
41.8462
42.1214
42.7181
42.5276
240.944
212.343
120.397
65.2386
66.8611
49.4085
55.4864
44.5374
47.8083
42.436
44.0253
41.6922
42.7457
42.0671
42.9389
43.0696
44.0304
44.2522
44.7751
44.4401
301.92
163.145
99.8895
68.0645
68.6536
50.7808
56.7526
45.5769
49.2204
43.7616
45.7862
43.6224
44.941
44.3278
45.1989
45.189
45.8932
45.9227
46.2786
45.7883
239.838
115.232
92.485
65.6781
68.6751
51.3526
56.9321
46.2284
50.5855
45.2646
48.0334
45.6763
47.1936
46.2395
47.0985
46.8345
47.4522
47.3142
47.6025
47.0629
337.154
125.823
88.6122
68.7456
73.3249
54.1609
62.8126
50.5114
56.2591
50.3663
53.7752
51.1796
52.8126
51.4753
52.0542
51.3127
51.5584
51.0548
51.1624
50.5019
103.961
90.0825
81.7317
67.2044
63.5323
54.0108
49.2191
43.2105
39.1806
35.6233
32.9277
30.3066
28.0917
26.0607
24.508
23.2921
22.4519
21.7612
21.2608
21.0804
31.2702
31.3252
70.4036
33.1764
33.0875
33.648
82.3689
31.2086
71.1462
59.6759
33.088
32.6533
81.7935
62.0386
66.9372
29.9764
29.1342
32.6762
77.2602
31.8803
31.5918
63.7452
29.0642
28.8406
77.2794
66.2005
31.6318
31.7541
239.118
269.036
203.009
74.1742
64.7775
67.5531
55.2584
234.928
195.962
191.771
60.9548
53.7035
51.4321
43.7999
220.699
193.177
196.589
51.9832
46.9472
42.3737
40.573
211.413
197.72
197.709
45.8477
43.3525
40.366
39.9006
188.369
195.648
183.947
42.5842
40.6252
39.8088
39.2773
165.506
179.858
166.959
39.885
38.3071
39.0375
37.842
147.783
163.121
158.049
37.9905
37.6078
37.4117
36.1692
119.512
156.69
132.61
37.4534
34.6094
35.8764
33.2467
201.899
319.447
266.131
67.0933
55.4191
86.4815
77.2954
189.252
258.761
212.516
52.1734
44.3385
72.3193
53.7107
192.636
199.532
181.743
42.4656
39.658
48.0568
38.8922
192.797
179.14
177.075
39.4119
39.1047
38.1177
37.738
180.551
176.289
168.49
39.1063
39.1243
37.8315
37.4981
164.866
164.827
156.223
39.0606
38.0802
37.1375
35.7715
159.015
155.143
154.448
37.5339
35.7159
35.2882
33.8283
135.122
153.923
133.458
35.2315
32.9042
33.4996
32.1672
287.673
361.372
285.049
102.513
84.6925
107.945
88.1576
219.005
271.554
211.271
77.5376
54.5349
78.6662
52.0852
178.388
198.758
178.16
48.3668
38.8282
46.9394
39.8217
167.506
171.748
159.692
37.9448
37.5807
38.7763
36.1443
163.491
156.38
151.664
37.5755
36.7353
35.8649
34.9136
155.803
151.808
155.191
36.2549
34.8836
34.3078
32.7321
152.815
156.261
156.588
34.5008
33.3521
32.4301
32.0109
132.977
155.327
137.202
33.0499
32.0817
31.951
31.2606
251.442
303.809
251.887
97.8566
78.6162
82.7341
65.9432
209.068
253.118
231.232
69.6295
49.9908
62.5758
51.8934
181.739
215.65
174.818
46.4997
40.7178
49.0686
42.8854
161.514
165.803
145.328
39.357
35.1707
41.2106
35.8834
150.249
140.13
134.28
34.6731
34.3671
34.8906
33.5696
152.064
134.48
139.425
34.1113
32.7511
33.4532
33.0223
157.607
141.657
152.033
32.4128
31.9038
32.7344
32.0803
140.466
154.667
147.983
31.8681
30.903
31.8441
30.7805
57.3283
56.7781
49.125
48.3788
45.6959
46.3164
40.6119
48.3368
46.0739
39.7698
43.7487
40.2473
38.5416
34.6299
41.8999
38.4789
36.6089
38.6237
35.0993
33.8046
32.3669
38.4895
36.3405
35.7363
34.443
32.5966
32.0891
31.4109
35.9355
35.6107
35.1583
31.9415
30.463
31.2403
30.7187
34.141
34.9774
33.9724
30.1325
29.1873
30.5163
29.4832
33.3724
33.5696
32.322
28.8858
27.78
29.0604
27.6662
31.0154
31.9597
30.4535
27.3209
24.9275
27.1873
25.4542
49.3288
73.9077
68.0581
46.9995
40.7241
59.1546
52.584
40.13
63.6532
47.516
38.8107
34.5564
48.8587
37.8266
35.7587
42.7247
35.0251
33.5111
31.7329
35.0895
30.9585
35.0825
34.345
34.4709
31.4696
31.2727
30.9746
43.6984
35.0681
34.8136
34.8734
31.319
31.2398
45.3216
45.0013
34.1762
34.6631
33.6012
31.1058
29.9475
43.6524
38.1252
31.9745
33.1484
31.3976
29.3977
27.6941
36.1412
30.9909
30.286
30.9162
30.3415
27.1901
25.5913
29.8338
27.3049
75.3395
90.3914
78.1864
69.496
58.0018
72.1332
59.1212
48.357
69.4837
46.3931
52.7269
38.4888
52.7715
38.0755
34.95
42.0426
35.7644
35.3609
30.8321
35.3592
31.021
34.3179
34.7321
32.5895
30.4763
43.1345
30.2304
29.0695
34.3338
32.3364
31.3946
44.943
46.0405
28.937
28.4959
33.0534
30.9066
29.6733
45.1845
40.1067
28.3344
28.0212
31.3281
29.4389
29.1365
38.1924
32.8854
27.9727
28.0065
30.3528
29.1136
29.3962
31.6288
28.1916
28.1018
28.1692
69.1818
70.7984
59.6781
64.6422
53.4964
57.4182
48.9195
44.9493
56.5507
46.3864
48.7037
37.7007
46.3819
37.858
36.4575
43.6793
37.9797
35.4475
31.1949
35.6202
31.233
31.8368
36.4174
31.8628
30.2375
28.4253
30.1441
27.4646
30.9376
31.0543
30.052
28.1716
27.6588
26.9776
26.4897
29.5088
29.9733
29.664
27.4834
27.0379
26.5089
26.604
28.7824
29.453
28.9512
26.941
26.9006
26.5542
26.5038
28.9476
28.7744
28.537
26.9659
27.3782
26.4609
26.493
43.8404
44.6723
39.3207
43.6646
41.6534
43.13
38.3372
38.9757
37.4296
34.0619
40.2549
37.6587
36.9302
34.9133
34.2037
33.369
32.1082
36.2467
34.0931
34.5203
33.6768
31.9109
31.8444
31.1847
33.6826
32.2024
33.4242
32.6822
29.9066
31.0064
30.4409
31.6928
30.7465
32.4432
31.7619
28.6544
30.212
29.1253
30.5233
29.6414
31.5003
30.5952
27.1288
28.6919
27.2984
29.3299
28.4373
30.2798
29.4056
24.5098
26.8183
25.1653
28.0795
27.0662
29.094
28.3174
39.3714
56.1032
49.3878
43.645
38.2076
50.7448
43.7875
33.9059
45.8902
36.3155
36.8693
34.7026
41.2595
35.6268
31.5579
34.094
30.9266
34.2688
33.41
34.5353
33.127
31.6374
31.1778
31.0203
31.5436
31.1499
31.4472
31.3514
35.1755
31.3391
33.6567
31.6954
33.9046
31.6863
35.005
29.6651
54.5401
41.3349
32.3059
31.0383
54.2705
40.1214
27.4097
38.1046
31.524
30.6396
29.6542
37.5805
33.397
25.3232
30.2113
27.3043
29.3496
28.508
32.5656
30.6749
54.086
67.6361
54.9643
57.0677
46.6258
58.5001
47.3246
36.8943
49.3519
36.7839
43.2229
35.9611
43.6899
36.0895
30.8041
34.458
30.6671
34.6528
32.9919
34.6849
32.325
43.4344
47.8211
30.5306
36.1616
34.0932
222.035
31.1272
53.45
67.4088
41.7562
179.703
42.3683
166.004
53.4828
45.0556
28.7716
28.6522
59.1525
42.7875
31.8188
32.1489
34.0294
28.6369
28.7822
39.9009
35.318
32.3089
33.1262
28.3009
28.9256
28.9483
34.3859
31.6921
33.4438
33.6344
50.4424
54.7996
47.0056
53.9116
45.265
50.603
43.9134
36.564
44.5722
36.4809
42.4487
35.9739
41.739
35.0419
30.7129
34.3918
30.4614
34.5952
32.1003
33.4784
31.0115
28.4022
29.5117
27.254
31.5932
30.787
30.4415
29.2144
27.7785
26.8404
26.5329
30.6769
30.6208
29.0577
29.3632
27.4271
26.5843
26.8264
30.6707
31.1046
29.5739
30.3123
27.5092
26.8268
26.9336
31.2864
32.1007
30.4712
31.1227
28.0399
26.9382
26.9594
32.3875
33.1658
31.2517
31.7005
42.0766
43.5022
39.0462
50.6144
48.6191
49.6268
47.3156
38.0701
37.82
36.1935
46.8834
44.0594
46.7545
46.0827
34.9742
35.8718
35.0989
43.7233
42.9086
45.9415
44.7522
33.1796
34.8177
33.9703
42.3963
41.4564
44.1116
42.9006
31.9858
33.7078
33.0329
41.5089
41.4001
42.6599
42.4049
31.0127
32.8021
32.1909
41.2852
41.1
42.5115
43.4674
30.1675
31.9958
31.5099
41.2835
41.5099
43.7093
44.1622
29.058
31.3224
30.7054
41.5201
41.1079
44.1927
44.0321
38.8606
49.7749
43.3313
48.8841
46.9119
51.5006
48.5536
36.0393
41.1906
36.7425
46.6187
46.3746
47.8267
47.0234
34.9205
35.9249
34.6273
46.2507
44.5347
46.5902
44.1961
34.3062
34.8301
53.3858
43.9132
42.716
43.5996
44.8204
33.7209
54.2684
49.4448
42.4785
42.0451
45.1814
44.3714
32.52
46.3445
38.729
42.1165
43.4568
43.7719
44.5415
31.8034
37.2466
34.9524
43.8914
44.5107
45.2009
46.0956
30.9253
34.4581
32.9815
44.5445
44.2327
46.023
45.0579
45.6763
56.3266
46.3584
54.9325
49.7572
55.9213
50.2136
37.0009
43.3015
37.0301
48.5206
47.1025
48.7194
46.4123
34.5106
35.9022
33.8932
46.5927
44.1581
46.089
44.0357
53.0077
33.4759
33.1298
43.5705
44.8539
43.4088
42.6918
51.4686
33.1612
33.3094
45.2622
44.679
42.685
42.9074
40.4817
33.3943
34.0551
44.2033
45.1399
43.2566
45.5749
36.4001
34.3638
35.5126
45.8025
46.6745
46.2319
47.2098
33.8529
35.8139
35.7296
46.5646
45.3824
47.2073
46.4635
44.8384
50.0198
43.8628
53.9899
49.6131
53.2484
48.4845
36.858
41.7562
35.5346
48.251
45.8291
46.5734
42.6053
33.6277
34.1852
32.2409
45.4891
44.1436
42.355
42.0058
32.4803
31.7703
30.8452
43.5506
43.0084
41.7791
41.804
32.4574
30.7899
31.3452
43.0311
43.5181
42.1887
43.2287
33.3588
31.5929
32.4868
43.9534
45.8982
43.4397
44.4796
34.727
32.7017
33.5316
46.3564
47.1743
44.8744
45.7214
35.4333
33.6814
33.9547
47.2091
46.8422
45.8031
45.5761
54.239
56.1304
54.2691
90.7435
80.1942
93.6225
92.0629
49.6328
53.7817
53.1335
79.8695
85.0379
91.4434
93.4468
48.9558
53.002
51.883
87.743
86.0313
94.2893
98.5486
47.602
51.245
50.0824
86.2343
89.5404
99.8684
103.195
47.7409
49.8794
49.6337
90.9863
89.6212
103.571
102.609
47.6077
49.6942
50.7405
89.9194
90.9814
101.515
97.3943
48.1074
51.0552
51.4242
91.9659
91.1318
96.8091
95.9323
46.9585
51.4176
50.5009
91.7738
89.5758
95.8693
95.4682
53.7847
55.2055
54.7933
83.3692
90.6445
77.4454
89.1587
53.5781
54.524
54.3444
91.1846
94.2792
91.0241
95.9067
51.8774
54.06
51.3794
95.5436
102.008
98.4028
108.693
49.758
50.2749
49.9147
103.82
107.466
111.679
116.498
49.2141
50.0372
49.3357
107.859
106.859
117.058
115.475
50.7617
49.4666
51.5434
105.367
99.4637
113.463
104.282
51.8061
52.4835
53.2397
97.8068
96.2575
101.046
96.7241
50.6685
53.0762
51.1816
96.0807
95.3607
96.2699
93.6133
55.741
59.3804
56.0524
80.9315
90.1738
83.1308
89.7063
54.4049
55.0242
53.5217
91.6536
95.9525
90.4913
92.7922
51.3641
53.2469
51.6155
98.3711
108.52
94.1314
100.254
49.9804
50.9577
50.2131
111.533
116.127
102.206
105.31
49.5788
50.2002
50.4271
116.675
115.618
106
106.071
52.0032
50.8682
52.8394
113.581
104.274
105.083
99.3323
53.6737
53.4867
53.974
101.009
96.5293
97.5756
95.1895
51.4224
53.8666
52.255
96.0558
94.1647
94.8515
92.4376
55.5517
57.9009
53.5148
80.9587
87.8702
81.8427
80.0526
52.7864
51.7321
48.6796
88.4923
90.9453
79.073
82.4255
51.5381
48.7326
48.3652
91.7865
96.0201
85.1458
83.4092
50.735
48.1404
48.2618
97.4339
100.209
83.2984
85.9207
51.2403
48.7297
49.6866
100.977
101.195
87.8356
87.4576
53.1556
49.9214
50.9344
100.612
96.6626
88.0897
89.8279
53.9582
51.3926
52.0737
96.1617
94.8185
91.2643
90.8406
52.7711
52.1444
51.1982
94.7338
94.469
91.5609
89.0227
32.795
31.1848
33.0006
31.626
31.8446
31.4891
34.2837
35.6621
31.0333
47.2431
36.096
32.5029
31.5676
171.422
44.8512
41.4776
62.3526
199.735
37.1258
50.7482
220.73
32.3741
32.1587
33.0385
33.0887
32.0644
32.0381
33.3053
33.637
32.2347
33.0303
35.4359
32.1046
35.1371
34.2267
36.8715
37.447
33.2525
54.4662
32.3195
177.778
35.2816
46.499
206.81
45.6654
75.2348
52.4416
227.38
41.0602
35.238
31.3074
33.7916
31.4776
33.9469
31.6351
34.7938
51.6543
43.1859
71.0277
185.356
43.4143
52.0767
170.776
51.4035
42.2126
67.4685
86.9337
43.3425
47.1055
115.828
35.9228
32.28
33.0307
35.9883
32.2526
35.8097
36.0606
35.9268
31.9505
32.8935
35.5081
32.1652
35.3489
35.9698
52.9565
191.703
46.9018
80.2677
53.4842
178.025
46.7843
52.4025
88.7698
44.1335
73.2375
47.6857
121.863
46.2904
50.9031
61.4564
40.5426
194.474
38.1277
209.839
52.9021
31.008
30.0589
29.5142
30.1659
30.2107
30.3838
29.8145
31.9938
31.2778
29.2525
29.6251
30.703
32.7437
29.6647
45.7695
37.6945
52.9868
32.8506
218.019
31.9693
37.6443
54.6936
200.205
71.1549
46.7913
216.279
56.7666
43.6976
31.8859
30.7947
32.2262
31.6307
31.1156
30.5231
32.6238
33.0685
30.458
34.3661
31.5681
33.9122
30.4476
33.5372
52.4993
68.5326
43.6747
111.092
43.1081
149.647
53.3141
33.4934
31.649
28.9999
29.6103
31.882
33.2159
29.593
33.6617
32.303
28.9079
29.5651
32.0551
34.1158
29.5562
56.8606
185.549
75.8875
48.0138
171.935
57.181
48.4168
55.3235
105.903
74.4497
47.9649
147.938
54.8545
48.497
34.7304
30.4804
34.8961
31.6689
34.4384
30.497
35.2096
34.8923
30.5436
35.6537
31.6967
35.2819
30.5023
35.4141
141.8
157.489
157.411
85.9766
67.1571
85.0259
73.0071
147.695
157.269
154.852
64.8286
64.8222
67.6233
65.4544
133.367
148.193
142.795
61.8657
56.6656
60.9562
57.8651
125.126
136.198
130.057
55.4984
55.2258
55.6961
53.2674
112.36
123.001
115.852
53.4049
50.0443
51.1362
48.8219
100.8
108.018
101.428
47.9636
46.9215
46.8886
45.1154
87.8011
95.9358
90.6912
45.3529
43.2717
44.4298
43.033
73.1709
86.5648
73.4167
41.8633
36.4423
42.6672
37.8906
184.158
203.158
175.207
112.803
87.4938
112.48
81.9221
138.16
270.399
299.237
160.869
134.975
162.795
263.993
88.9599
234.56
212.713
95.3313
89.5507
96.3494
207.821
79.3727
227.962
209.469
84.4628
82.3116
80.2918
210.422
76.5403
216.195
210.106
78.6571
78.1116
77.3401
209.778
72.2833
199.679
202.329
77.9447
76.6022
73.8163
197.323
65.8594
175.853
180.182
71.9253
70.4698
67.4791
174.977
61.6806
154.504
158.437
66.2976
65.6666
61.8642
154.64
61.3383
140.607
147.09
63.816
63.4422
61.5282
144.068
73.1831
91.3945
77.0712
37.8072
31.9873
37.2746
33.8327
180.334
230.369
206.742
106.503
80.698
114.942
93.9782
120.702
230.708
270.135
151.258
118.378
149.887
239.204
84.9934
191.538
205.206
83.3774
78.2956
90.773
198.618
69.6241
189.866
188.633
70.16
69.2182
71.9235
188.176
67.9748
193.655
189.87
68.9674
68.9713
68.0261
190.062
67.694
187.209
186.059
68.8617
68.6094
67.8898
183.045
66.1003
172.45
172.285
67.7772
67.2042
66.9833
168.096
61.6626
160.028
159.054
63.8718
62.8297
62.6812
158.498
58.7173
156.463
158.19
60.3461
59.7516
59.2559
156.895
79.3799
93.1249
77.2102
38.1437
36.8956
37.8568
35.906
229.333
256.307
225.253
143.625
117.921
147.172
122.859
177.324
322.647
365.808
202.809
172.533
205.508
320.786
109.626
259.255
277.155
120.503
109.027
121.954
258.554
72.4789
192.57
199.831
78.9425
72.9008
78.4036
189.705
65.4058
169.344
169.702
65.4607
64.8672
66.0022
164.306
63.4617
166.883
157.815
64.5621
64.1776
64.4219
158.081
59.0006
158.763
158.092
60.9956
59.6902
60.4606
157.162
56.0336
154.162
155.096
56.7847
56.2863
56.4252
154.298
54.3923
148.544
150.767
54.955
54.8981
54.6066
148.102
72.9972
86.3801
68.9557
36.5605
33.103
36.6996
32.7095
196.741
198.007
181.338
129.942
111.534
123.406
97.268
153.267
283.657
303.84
183.679
164.14
178.693
265.598
93.7606
230.31
234.006
110.347
98.1211
101.91
230.875
77.4817
194.003
209.619
77.3114
73.642
80.4664
201.633
64.9879
167.442
173.489
67.7152
64.9024
68.9472
166.073
56.4034
155.609
154.169
57.9784
57.623
56.9331
150.905
57.8695
149.768
144.72
58.1616
57.8526
57.8076
144.727
56.6736
156.425
149.758
56.5807
56.4705
56.8774
152.836
56.5464
156.41
157.693
56.456
56.2542
56.5456
157.608
72.6164
102.788
86.2027
36.9893
32.1322
35.3316
31.3232
174.088
185.684
158.27
96.0922
81.6999
99.1647
79.3863
143.862
150.324
142.628
70.1174
60.9452
66.9949
60.7399
118.016
130.948
114.591
54.0049
50.986
56.4689
49.4831
96.9793
104.83
100.027
46.8499
41.9673
45.9016
45.1665
87.1516
92.7175
85.7911
39.7415
37.5594
43.6229
39.6213