/*--------------------------------*- C++ -*----------------------------------*\
  =========                 |
  \\      /  F ield         | OpenFOAM: The Open Source CFD Toolbox
   \\    /   O peration     | Website:  https://openfoam.org
    \\  /    A nd           | Version:  10
     \\/     M anipulation  |
\*---------------------------------------------------------------------------*/
FoamFile
{
    format      ascii;
    class       surfaceScalarField;
    location    "9";
    object      phi;
}
// * * * * * * * * * * * * * * * * * * * * * * * * * * * * * * * * * * * * * //

dimensions      [0 3 -1 0 0 0 0];

internalField   nonuniform List<scalar> 
38556
(
898.465
-663.97
409.64
1231.96
-42.2731
-291.218
1510.03
-467.011
188.939
1756.33
-427.555
181.257
1897.5
-283.8
142.628
2007.57
-180.689
70.6205
1967.95
-62.037
101.657
1868.57
-8.1051
107.485
1719.51
11.6961
137.365
1640.47
-30.1465
109.18
1625.23
-60.9752
76.2141
1677.39
-94.7231
42.5675
1781.32
-109.751
5.82381
1875.01
-86.16
-7.53611
1889.33
-25.0923
10.7722
1811.36
31.8076
46.16
1653.11
85.8242
72.43
1522.99
100.615
29.5047
1449.86
95.9207
-22.789
73.6934
-39.1473
-141.402
-1054.48
-1417.04
514.186
-323.691
-374.171
1020.73
-780.957
-192.595
1137.64
-510.773
-33.6949
1233.25
-371.151
-8.26226
1295.19
-204.065
-38.5561
1317.75
-93.1092
8.50489
1342.74
-33.844
0.751841
1350.67
-16.8296
20.5914
1350.12
-24.4878
-5.10162
1336.55
-42.7283
-4.67815
1323.78
-47.245
-34.7153
1310.92
-50.4231
-46.4678
1319.47
-35.0316
-59.6738
1336.46
2.0675
-44.1489
1337.27
57.1479
-26.1542
1330.98
95.371
-3.25459
1324.18
100.696
6.71946
1307.89
97.6517
14.5573
75.5387
12.9377
394.26
-2917.85
-1145.89
1259.22
-741.155
-447.5
1417.04
-534.144
-404.629
1471.92
-381.195
-184.457
1428.65
-212.22
-115.658
1415.66
-102.215
-88.8588
1376.24
-13.5728
-40.1238
1344.63
32.0583
-34.2849
1295.25
45.8631
-13.3212
1244.47
51.0765
-24.7808
1172.05
41.2113
-11.5168
1105.6
36.7867
-17.5888
1048.86
25.2558
-18.9342
1017.13
23.0388
-26.3364
1016.79
21.6415
-19.2399
1045.37
34.7798
-6.20562
1083.13
52.394
5.21426
1109.23
61.3541
13.2436
1119.16
71.3039
16.4116
62.5161
15.5576
2399.24
-3042.29
1299.55
2571.67
-508.481
-405.102
1750.55
-186.025
472.997
1275.33
-163.429
257.455
1080.58
-122.334
104.862
1018.96
-43.2723
2.67844
1015.84
-21.8556
11.4028
1004.05
47.8074
-3.95736
1000.64
43.1912
6.07977
978.599
76.1167
-2.99754
953.223
65.5994
0.988031
922.083
71.4504
-3.52349
899.117
49.7694
-1.54844
884.537
38.4318
-0.81256
883.904
21.3064
0.968093
897.78
19.0175
1.8867
922.421
22.5735
5.17919
947.689
30.317
5.76924
965.067
48.2365
5.68884
50.4116
7.24233
40.7865
-1002.32
-1729.37
279.841
-554.57
-192.965
864.495
-432.036
-338.643
895.11
-278.997
84.9528
1032.37
-244.639
-14.9501
1020.36
-59.2446
27.9772
1058.45
-94.6008
34.6595
1051.59
38.4338
16.2296
1039.96
36.8164
18.0052
1018.38
85.2887
12.4114
993.834
74.1639
15.9777
967.391
88.9745
8.91876
943.642
65.9682
7.54977
923.287
57.6609
1.12584
911.815
25.3248
7.45408
907.599
16.1514
7.08133
909.62
15.0903
5.46257
916.312
20.9646
2.66097
926.234
37.0054
1.30913
43.9262
1.17477
1726.13
27.7417
269.146
1379.36
-245.946
38.1421
1033.51
-104.126
17.9383
893.792
-177.278
38.0043
885.403
-213.804
-22.4466
837.449
-51.9028
40.6124
943.084
-213.144
12.9085
950.82
33.4121
-2.71421
989.453
1.54156
-3.35827
998.935
86.2893
-10.482
1002.38
73.5809
-2.865
993.937
99.7588
-2.33874
979.831
75.064
5.00995
955.131
71.7972
10.5637
921.299
38.9037
20.2534
895.41
26.5505
15.4901
881.767
23.1773
5.55576
876.514
26.6851
-0.467217
878.311
37.4598
-2.25123
41.5109
-0.480384
1653.82
-260.462
895.653
885.67
85.421
436.78
1067.32
136.107
-421.88
1035.42
25.5655
-170.948
1077.46
-125.18
-130.659
981.245
99.8783
-55.5702
896.894
5.43258
-40.0439
-45.2931
-2.47512
-46.4132
863.801
-1.47671
-6.97627
31.3944
5.96882
37.595
877.872
10.8391
-20.7714
-9.64079
12.9556
-5.91243
892.228
9.01263
-9.18424
26.8658
13.6665
31.5724
902.021
19.4631
-10.4791
16.8454
20.9319
17.0266
897.296
21.7341
1.63569
29.8062
21.7977
29.5104
882.332
20.8971
10.8299
20.0258
19.8987
18.3765
863.019
17.1671
18.7611
19.5528
16.326
19.3036
838.831
47.8847
15.2065
821.317
35.4633
8.60147
817.237
25.0381
2.21935
820.336
24.0171
-0.431075
831.507
29.3024
-3.01403
33.8268
-1.01846
90.0276
46.8905
-1806.86
447.771
-43.9533
-228.369
672.293
134.519
-222.935
635.653
110.954
-48.7487
731.445
-100.467
-120.506
166.451
30.1451
-6.7217
175.462
159.259
166.909
55.8245
29.0206
54.9747
154.312
14.518
3.0532
-138.771
164.73
-22.0255
-5.41034
-194.758
202.63
3.47965
-0.512583
-207.836
215.312
1.28684
0.250178
-227.399
226.064
21.953
-1.15573
-226.717
224.686
24.0305
-0.265878
-228.316
222.84
25.3224
1.05063
-221.115
213.528
21.4687
3.28552
776.009
17.154
23.6419
-207.819
-211.934
-197.796
-197.734
15.8643
15.6517
14.8461
755.526
46.8555
9.09054
751.047
30.1232
-0.605785
755.567
24.1264
-4.62916
769.408
22.3203
-6.85873
24.6178
-2.63415
1989.99
331.81
-1490.03
1918
324.533
-296.491
1479.18
549.998
23.3351
1295.43
345.983
-51.2764
263.782
165.317
-35.3807
248.751
280.873
271.622
271.242
34.0522
-11.367
-5.17186
-74.6359
73.399
9.46284
-3.05413
-66.8603
6.93543
64.6905
-3.59275
-1.17286
-64.7403
2.69407
63.7454
-1.28172
-0.417384
-61.1111
-0.494146
59.8716
2.13177
-0.398127
-58.905
-4.98416
58.1738
5.98383
-0.268446
-58.2668
-6.25855
57.5717
7.39557
-0.442008
-58.5798
-5.86512
57.9915
6.34341
0.110023
-58.7153
-5.23095
57.8632
5.54335
0.539742
-56.0641
207.792
25.5143
5.13318
-56.4414
-54.4738
-54.3062
747.586
72.3351
14.9166
-200.36
-203.567
-191.365
-192.69
728.027
43.7462
5.9355
726.551
25.0775
0.525286
737.241
14.7693
-3.13919
14.8738
-0.803224
2076.11
525.278
-1692.83
1663.18
804.402
-66.9434
1009.85
773.818
429.518
816.096
541.799
-2.06615
141.671
392.53
-74.9506
176.174
159.087
186.901
-51.472
146.349
51.047
-4.25281
-8.79779
-44.8213
46.7443
6.55836
0.316448
0.65221
-52.423
53.0077
-1.78917
0.552258
1.32781
-53.7956
54.2689
-1.73399
-0.0670341
-3.31795
-56.364
57.0633
2.87991
-0.261211
-6.97782
-59.3335
60.0498
6.453
-0.191467
-7.70669
-61.9584
62.4672
7.02069
0.177176
-5.25496
-63.0187
62.6789
5.43874
0.156022
-4.85404
-60.9239
60.2516
5.58453
-0.0581447
-57.8736
-28.5246
223.466
29.0389
3.81277
-57.9067
-55.9529
-56.0601
763.011
109.775
18.1654
-212.37
-208.753
-199.539
-197.955
736.431
59.769
10.5569
733.351
26.6448
1.51266
737.46
11.7972
-1.13677
10.2532
-0.245755
1168.43
-838.788
1002.25
1356.14
454.035
162.655
1350.89
740.929
38.1381
1553.41
572.812
-233.535
367.5
566.411
-168.794
383.81
389.056
407.961
-56.9281
366.997
80.4962
-23.0652
-0.726261
-87.0583
84.7665
5.59637
-2.57831
6.81199
-76.5209
73.0996
-2.21909
-1.17158
-0.335315
-63.0555
60.4567
2.82538
0.10881
-2.30056
-56.3104
56.0725
2.04749
0.491041
-4.35838
-57.178
57.3066
3.70769
0.522067
-5.60493
-57.0507
56.9627
5.57447
0.118499
-6.3562
-57.1221
57.2759
6.65293
-0.450591
-7.22437
-57.8607
58.1286
7.44757
-0.49111
-57.2798
-32.1095
217.158
36.0356
4.95635
-56.8178
-56.0601
-55.8831
757.91
152.828
0.51321
-204.673
-201.913
-197.738
-197.153
740.768
97.6962
-20.7849
742.653
36.0033
-11.2436
751.939
7.66534
-5.15392
6.19514
-1.87149
-20.3086
-1662.73
3241.43
457.245
-566.103
542.584
1056.23
299.836
-157.888
1183.76
394.361
50.9191
264.724
639.008
43.2229
238.117
291.702
273.396
-94.0069
255.671
91.3121
11.7479
-18.981
-65.9079
65.1302
16.7719
2.98685
-13.4099
-61.0911
59.7982
14.075
0.627836
-7.58179
-56.5805
55.9308
7.75697
0.47449
-0.155641
-53.4349
51.8513
1.29331
0.445869
-0.715991
-48.9082
49.6939
0.513578
-0.583215
-6.23691
-52.1558
52.4139
5.76277
0.216043
-6.29621
-53.1682
53.6041
5.87083
-0.0105938
-7.01134
-55.6993
56.3053
6.46284
-0.0575068
-57.3413
-38.8539
223.229
36.4191
5.52299
-56.9468
-56.2678
-55.7609
846.188
172.991
-6.21432
-215.82
-220.155
-210.432
-213.73
833.023
139.474
-28.6126
813.62
83.4193
-28.0133
790.078
42.8892
-11.6817
21.9096
-1.44853
213.166
491.508
1568.78
733.44
-837.522
-248.855
921.626
-285.474
397.125
987.529
157.499
170.959
981.638
545.571
99.3276
228.257
324.049
28.4061
-85.0527
-43.8634
-100.41
-53.8173
231.993
225.412
226.664
-17.8564
219.996
90.0085
-3.4317
-20.811
-18.44
-21.2089
-17.9235
-193.725
181.645
82.0149
-2.1028
-16.0242
-17.9858
-15.8984
-11.1125
-191.245
196.494
37.3784
-0.998164
-10.2467
-10.5588
-9.71148
-6.01399
-178.14
168.316
28.2845
2.70757
-4.99582
-5.56
-4.59812
-1.59088
-166.994
166.574
7.3641
1.40234
-2.50045
-1.6584
-2.59653
-1.65904
-160.407
165.113
2.74604
1.2896
-2.35517
-2.07059
-2.65694
-2.27218
-171.636
185.242
-2.44162
0.259429
-3.02742
-2.63187
-3.49181
-4.63879
-193.123
207.489
8.1945
-2.88811
-4.83812
-5.02494
-5.17026
903.695
87.8354
-11.6876
-37.7978
-39.9507
-40.8561
-41.2164
-216.576
-198.957
-208.294
-196.194
959.031
126.176
-8.52102
978.633
124.844
-4.97242
952.033
111.275
-1.25494
873.68
95.538
25.7036
56.3885
18.7963
-330.852
949.216
-486.073
683.604
-802.392
-1049.59
796.628
-341.768
-56.73
838.045
-10.2008
126.282
784.607
410.197
188.812
737.641
341.582
29.4331
720.818
510.696
11.7153
-113.878
-140.32
-114.029
-137.36
712.307
252.128
-15.8679
-84.8044
-33.7868
-78.0258
-31.1323
714.934
257.491
-33.0509
-49.8074
-64.0148
-49.9549
-63.2899
713.517
116.727
-30.4726
-33.126
-11.5126
-29.9343
-10.2645
704.969
93.7153
-16.3165
-13.8132
-20.1439
-14.2628
-20.6301
689.887
11.9485
-1.73998
-2.15925
5.78536
-2.54078
3.78809
685.089
-1.44256
10.421
3.92839
-3.38744
1.64563
-6.36737
713.377
-13.2318
-5.62858
-1.05154
0.915819
-3.0317
-6.26065
781.315
31.484
-11.5861
839.309
69.8729
-1.69157
853.144
98.2223
12.7867
834.723
103.703
25.9934
792.787
104.95
32.5234
67.7415
13.5857
-605.134
350.581
-992.837
-50.7864
-299.036
-1057.7
514.789
-436.176
-471.167
577.172
74.1376
-146.721
680.144
286.028
21.197
729.42
344.868
-52.5621
837.434
425.109
-22.4273
881.031
276.272
-67.741
933.359
260.578
-55.4154
958.139
152.622
-60.6753
948.316
126.778
-23.2402
884.67
60.9682
14.6257
777.452
59.9716
45.8039
704.695
32.2082
27.3168
684.205
52.1598
-0.185065
688.464
68.6546
-3.04071
703.411
89.4893
-6.21504
716.02
97.7991
-6.70448
735.052
95.3145
-9.39627
62.4218
-8.32073
1979.33
44.3875
-2735.15
1293.43
91.8328
295.038
1064.49
-19.6307
-187.605
890.907
310.422
-62.705
798.166
455.375
-76.6055
806.512
423.958
-87.4354
851.882
438.789
-59.0503
897.681
294.517
-64.0433
928.856
258.135
-28.7328
942.357
155.86
-16.7387
922.814
131.337
14.9847
880.302
83.1714
20.309
807.405
88.3146
44.5545
746.182
64.9065
28.5248
715.782
64.0018
18.5576
707.125
66.2315
11.0799
719.983
72.0616
4.56984
743.901
77.1291
-3.24749
784.583
69.3389
-14.7071
45.3191
-11.1861
1076.87
-2015.86
-873.383
1346.39
-936.883
759.193
806.782
-272.339
792.321
748.981
110.842
257.381
706.926
348.806
148.624
773.317
350.036
7.53094
831.03
356.129
24.9472
868.362
245.071
12.1144
881.165
207.469
37.8632
874.49
130.011
32.5232
853.452
109.985
42.389
832.084
73.9751
30.5644
817.983
68.7714
33.6447
810.165
51.0332
21.6918
807.717
45.7902
20.659
811.798
43.0641
19.0871
825.049
43.8736
14.9372
848.561
46.1123
7.50407
879.312
38.1172
0.471324
25.8283
1.15312
660.821
-755.321
-1329.45
832.243
-468.21
-640.095
938.228
-40.8097
-337.515
995.59
73.9393
-20.4594
851.22
350.004
143.172
848.63
288.824
63.8015
831.926
287.278
85.5548
845.435
186.151
45.411
847.002
145.855
60.0472
850.444
88.12
38.4493
846.594
67.8075
46.0284
843.624
45.3655
31.5792
842.396
38.5956
31.4036
844.678
27.4924
21.2585
849.782
21.6662
19.0201
858.665
17.5826
16.5981
872.681
15.0014
14.8566
892.163
14.2925
12.3382
911.518
9.22089
9.54068
4.5364
11.3917
-1251.39
-1160.39
-146.621
-424.359
-576.866
-718.371
181.689
-117.719
-529.138
415.549
-12.6963
-147.224
608.16
209.101
-51.7078
710.726
205.162
-18.9042
781.093
199.979
16.9318
828.64
130.127
8.477
861.827
77.6818
34.9862
888.4
30.5348
31.0117
904.793
5.71335
45.7009
915.991
-0.926951
35.0952
920.119
3.03951
31.4276
921.451
10.5469
15.6132
920.393
14.8368
7.88727
919.735
21.2828
-3.04242
920.121
22.9632
-8.3474
922.423
24.0286
-12.0385
924.972
23.5032
-16.8307
20.5635
-18.1127
67.4373
946.94
127.796
-637.225
698.634
-688.558
686.39
-0.452916
745.095
150.397
841.864
108.393
946.984
94.8588
1048.87
28.2375
1106.24
20.3141
1138.81
-2.03009
1133.55
10.9732
1125.62
7.0008
1114.89
13.7643
1113.9
11.5365
1117.26
11.4833
1126.56
11.9803
1138.45
11.0707
1151.71
10.7754
1169.61
5.60385
7.46554
1693.36
-3412.77
2038.97
1754.15
-835.262
483.252
1616.63
-526.738
853.198
1727.6
-336.204
406.495
1780.15
-154.982
245.056
1817.28
-60.2955
93.7863
1741.81
29.0717
148.059
1658.47
54.4216
136.399
1567.93
54.5683
173.339
1530.86
24.2976
121.949
1519.12
6.02591
81.9269
1533.59
-8.67941
36.7768
1548.59
-10.6125
1.44407
1555.57
-0.558029
-13.9562
1535.17
22.3588
8.81064
1469.28
53.9393
58.1131
1367.29
81.7878
92.6314
1286.27
70.2763
40.2442
1233.52
47.1305
-17.17
23.6091
-33.2376
1115.16
-2102.14
-2159.52
557.979
-565.267
-86.9882
905.677
-611.73
-455.301
945.985
-306.613
-103.594
1041.2
-190.264
-68.1944
1102.19
-67.069
-92.7739
1139
10.6651
-9.89672
1155.76
38.6088
-0.195087
1156.82
40.6213
33.4785
1148.55
31.1898
-3.7259
1136.19
19.7058
-6.0034
1124.76
13.3563
-45.3146
1111.47
10.5568
-54.3479
1103.79
16.5289
-69.0787
1098.99
32.1593
-49.1469
1093.55
60.3053
-27.0802
1091
79.1414
1.9333
1085.35
74.0669
8.5872
1068.77
64.3145
13.9472
44.6633
7.06511
1582.59
-1860.3
140.113
1748.79
-476.991
-701.971
1419.72
-405.113
-282.178
1277.22
-258.743
-89.8207
1167.91
-89.0245
-107.591
1119.82
-14.0474
-93.7965
1087.68
36.4225
-33.7409
1062.19
65.8903
-36.0692
1030.3
69.4217
-10.2324
992.835
70.721
-26.8501
954.464
58.5682
-12.0074
922.056
50.1539
-21.9793
899.24
35.9081
-21.4692
886.525
30.8508
-27.9429
886.779
30.4124
-17.7478
903.345
42.3399
-4.80577
925.923
54.2374
7.54024
940.132
56.4936
16.608
942.965
59.1593
18.7338
47.8248
15.487
1309.18
-952.019
1068.88
990.139
-181.38
-381.672
891.353
-171.07
337.741
827.372
-107.145
169.837
851.547
-41.1999
32.8624
825.209
15.2247
-0.256005
853.195
14.5244
5.31563
841.416
78.1687
-4.45674
846.007
63.0438
7.86652
825.382
94.333
-5.98466
811.526
72.689
0.7231
791.391
73.2359
-6.47064
781.984
47.033
-3.26605
776.759
38.4838
-3.22087
781.305
26.3306
0.503969
795.114
28.7702
1.64782
814.407
34.477
5.64606
828.961
41.6002
6.10911
837.293
50.2278
6.28829
44.9116
7.95496
-359.157
363.9
59.511
322.231
-402.104
-653.63
636.735
-341.817
-482.399
735.781
-185.517
64.2779
880.197
-141.156
-59.4093
868.28
25.7074
29.4113
905.442
-26.3723
38.3948
885.013
95.7085
19.1181
870.587
75.0154
20.4596
844.243
122.497
10.5917
825.797
91.1274
15.9849
804.835
95.8895
7.22737
790.711
61.1738
7.53267
778.84
49.8093
1.67124
776.008
28.2297
8.38752
778.411
25.9478
7.50096
784.787
27.5239
6.03914
791.78
34.4172
2.8514
798.334
43.002
1.98044
40.6715
2.48864
2067.27
1161.28
2638.17
1335.14
128.94
239.232
843.388
12.9824
154.888
732.375
-89.2891
52.7888
714.115
-110.535
-34.8064
680.235
42.8837
57.3164
794.627
-141.431
13.5744
776.801
113.081
-2.26053
802.153
46.8872
-0.582396
796.865
128.494
-11.191
798.705
86.8255
-0.40332
791.369
102.661
-1.77346
784.935
65.0549
7.56189
774.15
59.0268
12.1317
765.771
37.0117
19.8501
759.694
32.6326
14.8825
756.31
30.7149
5.74945
755.976
34.3762
-0.0926289
757.988
39.7911
-1.05181
36.6875
0.858923
1280.77
358.113
2748.89
1115.33
107.89
623.271
1036.65
116.613
-446.834
947.392
26.9903
-197.968
911.364
-35.8194
-169.347
797.103
161.53
-59.9552
738.535
-0.201446
-43.3382
-39.3354
-3.27589
-36.756
710.502
18.0954
-8.44566
48.9051
24.1
51.4822
725.353
17.4493
-24.8351
0.131685
17.3818
1.13717
732.878
19.5822
-5.56883
37.5452
21.3898
38.8372
740.939
21.8102
-8.71186
17.3177
21.3988
16.47
738.667
21.7075
5.73131
29.1434
21.3167
28.6698
734.006
18.0277
14.0587
16.1288
17.1355
15.1955
726.023
14.9114
20.8129
17.765
14.4734
17.8084
717.348
44.4239
16.4688
711.456
37.7077
9.41809
712.214
29.4491
2.72743
716.862
29.5245
-0.227365
724.805
31.0143
-2.1796
29.0236
0.629626
932.136
345.153
-3974.15
705.19
167.623
-61.1573
639.253
169.509
-209.894
601.488
97.7247
-81.7173
598.219
-24.1041
-128.952
131.52
40.863
4.41063
139.55
122.573
129.903
66.855
45.8914
71.4613
-4.25495
126.033
9.26645
0.273692
6.70282
-117.163
138.37
-4.56355
-5.25014
1.70227
-162.661
166.185
13.4536
-1.23011
1.46992
-169.116
174.492
13.3089
-0.572696
2.31415
-185.114
183.097
24.211
-2.69751
0.785558
-184.139
183.413
22.1462
-0.497881
-2.10298
-188.322
184.266
21.8506
2.3362
-5.16683
-183.913
179.871
18.3067
5.8129
683.065
14.5338
24.9801
-178.163
-178.627
-169.266
-168.8
13.5941
13.5468
13.2016
677.367
43.8415
8.65485
675.882
30.422
-0.0932036
679.178
25.2367
-3.6378
687.193
21.4452
-5.30424
19.3046
-0.380916
1404.48
875.07
-3334.38
1305.51
446.831
-476.729
1143.47
618.35
-263.47
1050.42
325.964
-186.464
237.168
200.177
-128.778
232.774
225.759
223.836
9.72229
242.358
38.7323
-12.781
3.35678
-5.13575
-62.5313
58.6981
9.21573
-3.60356
0.830723
-50.1438
6.04962
48.2952
-4.58088
-0.450927
0.969239
-49.6422
0.164825
49.3301
-0.194562
-0.627455
1.08501
-48.5406
-2.42249
47.9524
2.97837
-1.05275
1.10112
-48.6355
-5.08125
48.0884
5.70634
-1.17905
0.789721
-48.3902
-5.11701
47.8278
5.72344
-0.833732
-0.447378
-48.847
-5.03601
48.2443
5.63548
0.450606
-1.23235
-48.3452
-4.80527
47.3732
5.70323
1.30639
-46.6619
-7.34543
177.698
20.1415
8.17241
-46.7378
-45.3521
-45.3804
669.554
58.5383
18.5206
-175.226
-176.779
-167.783
-168.067
662.924
37.2364
5.75101
663.955
22.4271
2.30378
670.819
12.88
-1.43854
10.4796
1.31993
-31.2879
-702.938
-4421.83
50.5837
129.049
168.968
628.095
375.021
95.3361
664.81
350.763
-63.5801
149.405
290.908
-140.46
174.253
147.484
168.446
12.698
-53.4888
150.851
61.27
-21.9256
1.51971
-12.0972
-42.94
45.367
10.0422
-1.89181
-2.36946
1.71965
-49.4702
49.8831
-2.4849
2.72185
-0.746022
1.71941
-50.0711
50.139
-2.07944
1.03813
0.368827
-2.84284
-50.6268
50.8284
2.52715
-0.254741
0.376305
-5.36819
-51.5877
51.8588
5.10173
-0.380916
-0.0325172
-5.46261
-52.4342
52.477
5.55845
-0.106102
0.0269337
-5.43864
-52.1363
51.9051
5.72836
-0.0854476
-0.329489
-6.43412
-50.6944
50.1828
6.8202
0.454935
-48.7479
-6.62398
-22.5062
188.766
25.1304
8.07653
-49.0928
-47.387
-47.6153
680.08
86.2355
19.1685
-182.316
-181.511
-172.595
-172.358
671.306
46.4803
10.0871
669.737
21.8338
3.6747
672.234
8.71349
0.533424
5.2195
1.63313
1114.13
-271.498
2946.18
1059.09
167.998
178.746
1213.42
295.404
-36.5819
1326.29
299.181
-294.821
327.565
360.551
-207.613
341.311
307.234
319.359
50.8838
-60.7825
336.128
64.2399
-62.9048
7.66732
-5.5798
-80.5726
78.7865
8.36445
-8.6658
-2.25829
4.07221
-68.2124
64.4829
-1.50277
3.41836
-2.30517
0.822531
-55.3826
53.4247
0.510988
2.92948
-1.89354
-1.58198
-50.8284
50.6744
1.34693
2.28259
-1.86063
-4.10046
-51.0034
51.1703
3.68677
2.10747
0.0291651
-5.6695
-51.9553
52.2655
5.71653
-0.386335
1.37466
-6.93252
-52.7441
52.7685
7.14812
-1.61466
0.817772
-7.9103
-52.5041
52.2646
8.1495
-0.817429
-50.5694
-8.06704
-29.9055
192.542
35.4969
9.51666
-50.5848
-49.1738
-49.2554
694.905
120.212
-4.11096
-184.91
-185.855
-175.968
-177.525
681.563
58.9842
-19.9462
678.4
20.4361
-6.68318
681.935
1.7276
-1.70333
0.357126
0.293369
984.044
413.683
-514.721
1077.89
285.543
331.192
1001.66
459.547
-245.801
1037.79
346.67
-32.7017
248.688
526.037
-28.7699
236.891
233.868
224.851
-11.3738
-70.705
254.572
78.0359
-1.84157
-5.05015
-14.2228
-67.4045
67.8927
14.216
4.56867
-4.50268
-10.3644
-60.507
57.6326
12.1753
5.56622
-2.13132
-5.10318
-50.8046
49.2984
6.1464
2.5943
-0.980761
-1.92652
-45.4745
44.7258
2.53881
1.11716
0.496075
-3.47245
-43.9016
44.1891
3.10754
-0.41867
-0.240973
-5.61624
-45.4982
46.089
5.17524
0.0911975
0.493814
-6.63699
-47.8829
48.5538
6.16397
-0.691671
0.501215
-7.9559
-50.2201
50.739
7.56831
-0.632594
-51.1797
-7.20413
-41.0673
201.665
40.7968
7.56134
-50.7716
-50.081
-49.7198
779.903
131.785
-12.972
-199.02
-201.484
-190.78
-193.435
754.775
82.5646
-27.0652
723.972
43.512
-20.2862
700.538
16.3853
-2.90527
7.00472
3.62807
-488.828
902.867
557.575
-89.405
-49.3759
-313.358
919.146
234.8
-386.679
878.16
360.852
197.762
877.013
568.486
58.0267
201.777
287.702
44.6826
-74.5318
-40.4044
-66.3433
-34.8861
202.935
191.665
192.824
-17.8645
-1.88043
190.893
83.2147
4.78586
-20.2184
-17.4025
-19.7516
-16.9086
-0.762629
-161.786
153.293
68.549
3.29854
-14.6904
-16.6084
-14.3846
-9.33156
0.734377
-161.182
160.295
35.8931
-0.0836635
-8.61624
-9.20634
-8.5022
-4.89671
-2.70496
-143.193
139.751
22.4079
2.14401
-4.29316
-4.90442
-4.31105
-2.41876
-1.27826
-143.41
146.199
9.37683
0.714339
-3.2286
-2.64909
-3.3061
-3.09844
-1.1771
-143.347
150.481
6.86785
0.32526
-3.32749
-3.2429
-3.48084
-3.97617
0.612147
-159.307
171.45
6.49861
-2.23983
-4.38256
-4.16275
-4.49314
-6.16242
3.71485
-177.149
188.391
14.4954
-4.5499
-6.15543
-6.31872
-6.26574
806.683
90.8349
-11.1153
-40.3298
-39.5402
-39.5436
-36.7412
-195.067
-183.442
-187.128
-176.298
838.421
96.8422
-5.31598
831.995
86.358
-2.3406
796.145
71.9147
6.19228
743.363
57.4417
37.4298
33.0203
23.4766
-635.843
-98.578
-12.9823
17.8596
-307.938
-1444.73
528.847
-26.8056
-306.111
608.26
306.8
100.921
675.495
536.932
153.131
611.909
351.045
29.6762
595.088
489.569
13.2598
-107.894
-130.852
-107.763
-127.784
577.503
192.253
-18.4511
-65.1079
-24.781
-58.5511
-23.6445
578.003
211.42
-33.4956
-46.861
-58.8824
-47.6973
-58.0348
570.401
58.4519
-28.5136
-22.8782
-5.02657
-20.5658
-4.33874
569.143
59.843
-10.9714
-12.4175
-19.0164
-13.0359
-19.4607
573.605
-9.24542
1.64877
-1.9804
3.60125
-2.37825
2.15225
592.47
3.83493
11.9882
-1.36725
-9.99292
-2.33641
-10.5701
629.094
0.39063
-7.0402
-7.42594
-9.67178
-8.66244
-9.84343
680.696
34.1773
-6.53079
715.173
54.717
5.95664
720.431
72.1854
21.7018
709.995
74.0884
34.2555
691.888
70.7403
37.332
41.6966
15.7617
1458.92
-1452.27
-4130.17
155.273
11.187
-73.1852
358.087
-182.443
-518.344
310.539
261.862
-54.2356
511.918
351.821
4.92995
541.947
311.998
-43.5442
661.5
367.051
-19.4627
675.599
180.685
-70.2723
705.162
177.558
-51.1165
700.74
61.1168
-58.9177
689.148
63.5364
-15.3418
662.721
18.1059
13.7017
635.466
30.8308
46.063
615.355
19.3032
28.5159
611.335
32.2099
5.80231
621.09
41.8709
0.0507338
635.306
55.947
-4.19231
648.3
59.1253
-4.73546
664.159
53.231
-7.74667
29.635
-6.26412
1040.33
84.8936
-2441.17
1013.36
439.355
-106.157
792.287
220.453
-369.428
692.09
388.753
-89.3999
610.904
417.66
-61.2589
606.261
305.782
-76.5776
653.23
310.295
-49.2633
676.935
154.319
-61.3827
701.013
145.299
-20.5509
706.869
56.0934
-17.5715
702.332
61.6104
21.4484
686.321
30.9864
23.4393
670.678
44.62
46.4084
655.341
32.5424
30.6229
648.886
34.6181
22.6045
652.921
34.5592
14.3563
668.1
38.244
7.0941
689.815
37.3155
-3.15292
713.976
27.9139
-13.5511
13.8703
-8.80982
60.2016
-519.257
704.684
538.686
-124.768
844.831
374.534
204.302
972.623
476.482
319.986
224.201
528.288
349.528
164.95
585.601
246.995
9.00471
653.308
233.656
33.8792
680.477
129.167
10.0973
704.194
117.728
41.7173
705.344
59.9218
27.5445
705.256
59.5323
44.5551
702.402
34.3702
30.0348
707.235
37.2902
36.1413
712.528
25.6065
23.3347
719.981
24.7365
23.0879
730.345
22.9944
20.2882
743.905
23.6978
15.9236
759.686
20.7489
8.28872
774.244
12.5872
1.24044
5.6765
2.0501
2577.58
990.625
1943.36
1089.25
94.3887
629.078
605.201
196.814
154.025
627.145
208.23
69.3531
620.641
335.224
163.98
655.625
216.633
59.1795
674.546
209.517
90.7724
693.087
118.598
37.4391
709.931
97.9518
62.9784
720.565
54.6918
33.0455
730.627
46.3701
49.1287
737.271
29.5718
29.7339
745.499
26.8038
33.6621
752.681
18.7857
20.8976
761.111
15.6661
19.6605
771.375
12.9665
16.3612
783.817
11.3594
14.7528
796.649
9.10716
11.1484
807.136
3.73207
7.90837
1.14793
10.7271
197.47
2020.63
-362.53
5.14
373.992
-805.645
93.1558
-119.551
-300.788
339.203
-137.218
-47.8239
513.817
44.6303
64.2722
613.911
57.3639
40.2713
681.974
91.7955
66.5903
721.578
63.7309
23.7397
754.408
50.4719
49.6363
778.264
33.1208
28.7264
798.962
24.3649
47.0078
813.328
20.8071
29.4945
823.315
19.8229
28.4213
828.896
19.3429
9.47438
831.934
18.2735
2.24176
834.215
17.1149
-9.47146
836.306
15.75
-14.8295
838.771
14.3781
-19.774
839.955
10.4975
-24.7806
4.92703
-22.4889
2950.22
-3293.5
1631.73
1055.26
854.709
-31.0852
708.774
8.26415
736.17
167.631
818.996
82.9318
886.341
119.309
947.347
30.9623
977.09
41.043
1002.76
5.41906
1015.73
22.3657
1031.45
12.0891
1044.16
20.8814
1059.17
15.8683
1072.1
16.8275
1085.7
15.495
1097.85
14.6734
1110.68
12.317
1123.55
3.23656
4.41987
941.975
-3402.05
3077.26
1139.18
-832.606
1118.66
1317.88
-511.555
1186.05
1501.21
-167.511
390.673
1514.82
14.2685
217.178
1480.44
69.2262
58.9405
1392.06
105.482
130.953
1340.33
85.9336
102.203
1309.39
70.2793
133.993
1303.73
45.4139
82.1933
1295.13
32.0315
58.497
1286.93
24.7718
20.2059
1263.35
24.4006
0.622475
1231.62
27.9361
-10.1633
1186.77
41.1397
12.5213
1149.81
55.3763
39.699
1126.97
60.2686
55.199
1097.29
47.6879
22.2426
1058.45
31.0989
-9.43115
15.6272
-23.2713
2292.03
-1533.23
306.845
1151.8
-416.87
637.511
711.522
-472.787
-53.7912
767.024
-176.639
-149.968
884.032
-68.2652
-102.669
932.652
20.024
-92.1915
970.346
62.355
-4.46369
980.298
72.486
3.30022
985.627
66.9554
31.4735
977.501
57.7183
-7.9045
966.73
46.4413
-9.6427
951.356
37.2557
-42.4243
934.463
31.698
-44.7518
917.277
32.2645
-56.2211
904.997
40.6432
-36.3706
898.669
53.484
-18.8597
898.356
61.3011
1.21432
895.431
53.7097
5.49035
884.348
46.8162
9.3122
30.2704
3.07369
870.408
-767.046
-1370.2
1215.53
-343.44
-1120.53
1068.85
-347.121
-261.158
1045.46
-188.889
-54.1844
969.233
-22.9762
-76.6508
926.169
31.6239
-62.3328
905.023
68.7216
-18.962
878.699
86.9669
-24.2262
856.79
82.5842
-3.95213
826.851
81.9672
-21.1592
803.832
65.5338
-8.08179
781.904
55.4116
-18.2075
768.036
39.8092
-15.7117
757.949
34.6131
-20.2044
758.189
33.8489
-11.1934
767.827
42.0159
-2.976
781.535
49.4012
5.73152
790.13
48.7594
12.963
792.074
49.3224
14.2842
36.8447
10.9055
1108.08
926.946
3829.79
700.699
-170.068
-147.664
795.138
-118.501
14.682
722.69
-47.4543
100.851
721.669
8.83318
2.07326
691.473
54.6776
6.88629
722.827
38.1144
4.56945
706.752
98.3442
0.240442
716.993
72.1472
8.0631
697.623
101.167
-5.81487
692.508
70.2862
1.08522
678.039
69.8341
-6.42426
674.857
42.4346
-2.70934
672.193
37.6302
-3.57366
677.927
28.3002
0.318252
688.612
32.5843
0.394477
702.63
37.5322
3.49715
711.75
41.4139
4.33472
717.257
45.0157
5.08768
36.5758
6.55059
510.212
1639.46
1338.87
557.688
-357.171
-514.003
608.611
-231.803
-420.02
685.576
-109.284
49.1435
757.374
-67.5271
-54.848
738.52
73.8964
29.0473
770.721
12.5435
31.7649
741.744
129.254
17.1842
730.812
86.8592
16.6797
704.295
132.081
6.19453
693.13
86.0254
11.411
676.828
89.8238
3.53938
669.648
51.8911
5.25611
662.375
45.757
0.817333
663.428
29.8012
5.83338
667.578
31.0898
4.84594
674.536
32.6847
3.92903
680.156
36.698
1.94702
685.254
40.014
1.88475
33.7475
3.11113
1220.83
634.255
-1408.91
946.194
102.329
54.3715
765.136
52.4929
51.6506
658.807
-11.6008
61.4349
592.38
-26.0422
-9.86446
567.063
94.0007
62.5285
674.451
-97.2078
15.9381
641.344
160.262
-0.162041
663.586
60.0675
3.96738
651.859
140.791
-8.174
656.451
79.658
1.37233
650.002
95.7935
-1.29479
649.14
54.0413
6.27383
645.002
53.7137
8.31345
644.991
36.3997
13.2628
646.664
35.1502
9.14901
648.545
33.2469
3.30634
650.421
34.8567
-0.127143
653.058
36.3026
0.0229257
29.8402
2.37331
1443.92
721.026
2589.59
1547.03
139.336
483.154
1213.16
142.585
-203.054
996.618
76.376
-69.4053
827.752
47.6253
-74.1477
684.376
203.821
-26.4001
630.59
-0.592734
-27.969
-29.8653
-1.54086
-26.7924
596.24
34.3503
-4.41437
57.7217
39.222
59.2864
608.769
17.8208
-19.2689
3.3609
16.903
3.88787
611.075
24.2688
0.348296
41.0741
25.5291
41.6966
618.518
20.1891
-5.37938
15.0975
19.3357
14.26
616.89
20.6931
6.41933
27.897
20.4075
27.7362
617.866
15.565
10.2024
13.5706
14.8303
12.9552
616.256
13.8106
14.4229
17.0515
13.5347
17.3164
615.145
42.6218
11.3576
614.638
38.8798
6.19641
618.018
30.8002
1.79365
622.671
29.916
0.0608981
629.141
28.3388
-0.685928
23.3498
2.56094
708.66
542.479
-3754.26
825.354
-1.65357
-36.8616
660.689
146.266
-48.91
583.882
110.562
-39.0966
515.258
46.0088
-58.7112
105.636
55.6387
22.5116
112.226
98.8956
104.185
79.9643
60.4446
83.9881
1.96564
101.177
7.39436
-5.49434
5.30943
-95.3355
115.118
10.6444
-1.38581
1.66604
-136.787
138.533
16.3907
-1.98156
0.327195
-139.799
144.602
18.1071
1.03168
2.63784
-154.826
152.476
22.8879
-2.9867
0.116472
-153.26
152.873
20.6486
0.314972
-2.53121
-158.148
155.042
19.3784
1.82468
-5.82682
-155.697
153.416
16.7457
5.17217
596.854
12.6816
17.9663
-153.569
-153.149
-145.19
-144.223
12.1129
12.0629
12.0545
596.049
42.5075
5.83231
595.889
30.1868
0.680764
598.944
24.6939
-1.47053
604.813
19.3507
-2.18549
15.1061
2.35662
2605.69
780.907
-1049.62
1922.88
355.752
-151.32
1288.84
571.05
-54.2178
1025.09
319.621
-131.772
206.123
227.025
-89.8781
206.931
194.978
197.143
9.61549
200.797
55.2082
-3.85917
2.06153
-5.59424
-50.1554
45.3833
10.4574
-2.15257
0.0022138
-38.4838
3.77162
37.4932
-3.03789
0.254676
0.266596
-40.5802
-1.51894
40.4735
1.41358
-0.0545318
0.947293
-40.2591
-3.18252
39.803
3.47812
-0.786798
1.15166
-41.0776
-4.82756
40.5697
5.28144
-1.09765
0.753407
-40.8015
-4.60866
40.2319
5.15609
-0.73124
-0.40539
-41.1
-4.66786
40.4624
5.39368
0.317197
-1.30189
-40.497
-4.39044
39.7418
5.25022
1.19739
-40.0143
-7.81816
154.677
16.79
6.96144
-40.0578
-38.9593
-38.8971
591.074
50.2647
18.0069
-153.675
-154.186
-145.566
-144.891
588.644
32.7319
5.63511
591.22
20.2579
4.16418
596.844
11.2016
1.08605
7.66907
3.96416
66.4623
-98.1971
-586.311
336.341
200.027
54.814
642.032
322.654
38.0415
626.21
305.551
-33.6887
133.029
261.759
-93.4289
149.794
124.471
137.149
23.3746
-63.3892
133.337
63.1895
-23.4827
1.39297
-13.6361
-38.3198
40.6933
11.1217
-1.25203
-3.17761
0.390616
-43.4259
43.7313
-0.673606
3.15518
-1.57208
0.0568112
-44.1841
44.4107
-0.347199
1.63579
-0.284145
-3.12176
-44.8142
44.9101
3.02804
0.281963
-45.0995
0.285642
-4.85368
45.1623
4.7297
-0.224508
-44.9929
0.552648
-5.14433
5.38022
-0.586334
44.7907
0.229567
-5.70512
-44.106
43.869
6.02788
-0.315345
-0.594353
-5.97676
-42.8699
42.5307
6.34865
0.561649