/*--------------------------------*- C++ -*----------------------------------*\
  =========                 |
  \\      /  F ield         | OpenFOAM: The Open Source CFD Toolbox
   \\    /   O peration     | Website:  https://openfoam.org
    \\  /    A nd           | Version:  10
     \\/     M anipulation  |
\*---------------------------------------------------------------------------*/
FoamFile
{
    format      ascii;
    class       volScalarField;
    location    "9";
    object      turbidity;
}
// * * * * * * * * * * * * * * * * * * * * * * * * * * * * * * * * * * * * * //

dimensions      [0 0 0 0 0 0 0];

internalField   nonuniform List<scalar> 
12920
(
-0.0313511
-0.0476712
-0.0650908
-0.07778
-0.088201
-0.0982475
-0.109911
-0.127318
-0.149678
-0.173129
-0.19353
-0.210032
-0.22285
-0.232655
-0.240885
-0.250257
-0.261709
-0.271078
-0.272374
-0.272902
-0.0343097
-0.052037
-0.0631061
-0.0792197
-0.0970785
-0.113987
-0.133326
-0.151838
-0.169824
-0.186927
-0.205552
-0.222109
-0.240484
-0.258111
-0.276531
-0.295596
-0.313647
-0.330099
-0.346278
-0.364781
-0.0370086
-0.0404772
-0.0505195
-0.0677768
-0.08467
-0.101389
-0.120762
-0.138593
-0.159622
-0.18264
-0.215289
-0.253965
-0.295819
-0.335616
-0.369484
-0.392242
-0.409225
-0.425481
-0.442567
-0.462504
-0.0508744
-0.0758277
-0.0843337
-0.100027
-0.121153
-0.141199
-0.161787
-0.182442
-0.208536
-0.238672
-0.277513
-0.320821
-0.366917
-0.409655
-0.446133
-0.475071
-0.497181
-0.515232
-0.530701
-0.546343
-0.0818661
-0.0674474
-0.0794714
-0.117573
-0.14127
-0.161167
-0.178538
-0.195935
-0.216479
-0.241734
-0.272009
-0.306832
-0.34414
-0.382677
-0.420832
-0.457641
-0.491641
-0.521505
-0.546021
-0.56637
-0.0209503
-0.0511643
-0.0686143
-0.110844
-0.135548
-0.159438
-0.173991
-0.187682
-0.203856
-0.222926
-0.248999
-0.280167
-0.315295
-0.354573
-0.397691
-0.442965
-0.485845
-0.521723
-0.551505
-0.576993
-0.00965891
-0.0384048
-0.050171
-0.0848946
-0.114951
-0.143733
-0.157628
-0.182333
-0.199078
-0.228454
-0.259743
-0.294923
-0.330228
-0.366299
-0.403374
-0.441425
-0.478982
-0.513373
-0.544394
-0.57357
-0.0446784
-0.0409869
-0.0614337
-0.097625
-0.121911
-0.15088
-0.141601
-0.119658
-0.119428
-0.121208
-0.144449
-0.168219
-0.197459
-0.215192
-0.224603
-0.265725
-0.309588
-0.355984
-0.40581
-0.456395
-0.00911803
-0.0214296
-0.0466029
-0.0791007
-0.112117
-0.120093
-0.124207
-0.115459
-0.104425
-0.0975909
-0.102536
-0.114314
-0.1236
-0.130244
-0.138786
-0.16013
-0.20391
-0.250435
-0.299105
-0.349784
-0.0204459
-0.0395524
-0.0608238
-0.0877329
-0.105073
-0.112531
-0.120441
-0.124164
-0.120393
-0.111815
-0.104739
-0.101175
-0.0970136
-0.0909692
-0.0966998
-0.133033
-0.177051
-0.219096
-0.260241
-0.303365
-0.0204702
-0.0449598
-0.0580079
-0.0673025
-0.0784489
-0.0809847
-0.083486
-0.0965434
-0.120234
-0.126113
-0.114885
-0.0983467
-0.0853569
-0.0760037
-0.0762952
-0.119722
-0.163065
-0.205418
-0.246559
-0.28764
-0.0309523
-0.0634825
-0.0732149
-0.0870738
-0.103687
-0.102605
-0.106101
-0.125085
-0.146891
-0.1551
-0.149378
-0.121085
-0.0927767
-0.0743843
-0.0693379
-0.103937
-0.139773
-0.178407
-0.225815
-0.279605
-0.0341203
-0.05409
-0.0748853
-0.0967764
-0.119483
-0.149115
-0.149435
-0.155008
-0.167247
-0.184257
-0.209536
-0.220695
-0.212592
-0.172226
-0.149853
-0.153756
-0.170997
-0.200825
-0.247495
-0.315915
-0.0328153
-0.0451415
-0.0637987
-0.0964043
-0.129574
-0.160396
-0.177159
-0.196168
-0.21977
-0.257449
-0.304488
-0.348045
-0.377015
-0.375373
-0.342915
-0.322324
-0.320252
-0.338832
-0.380635
-0.444404
-0.0323426
-0.0444191
-0.0580213
-0.0808552
-0.114298
-0.128742
-0.148169
-0.154653
-0.173396
-0.194742
-0.232691
-0.28133
-0.340026
-0.395229
-0.422432
-0.424376
-0.421032
-0.427284
-0.442538
-0.466206
-0.0350385
-0.0500206
-0.0623237
-0.0774649
-0.0969204
-0.111739
-0.13161
-0.150661
-0.178691
-0.21288
-0.253379
-0.302437
-0.358205
-0.413632
-0.454345
-0.475017
-0.480919
-0.478134
-0.472638
-0.476802
-0.0267835
-0.0425835
-0.0632037
-0.0896721
-0.10969
-0.128623
-0.150501
-0.179302
-0.212812
-0.253118
-0.296533
-0.343946
-0.39086
-0.434221
-0.469699
-0.49562
-0.512787
-0.523862
-0.531885
-0.541643
-0.0143404
-0.0369802
-0.0576129
-0.0840988
-0.110032
-0.138693
-0.168535
-0.203174
-0.239092
-0.277714
-0.317703
-0.359677
-0.401611
-0.441363
-0.476808
-0.506921
-0.531684
-0.552023
-0.569846
-0.586592
-0.0297157
-0.0474741
-0.0606693
-0.0947772
-0.121908
-0.152232
-0.185647
-0.219181
-0.250591
-0.28061
-0.309992
-0.339315
-0.366741
-0.38963
-0.406866
-0.417528
-0.425572
-0.433998
-0.44092
-0.45094
-0.0255788
-0.053113
-0.0689687
-0.108423
-0.135799
-0.156834
-0.17408
-0.187812
-0.201329
-0.21973
-0.246598
-0.279907
-0.315013
-0.348479
-0.377858
-0.402799
-0.423877
-0.442111
-0.458134
-0.472363
-0.00274816
-0.00710941
-0.0145315
-0.0206403
-0.0264123
-0.0330144
-0.0441974
-0.0545921
-0.0623426
-0.0653943
-0.0655974
-0.062805
-0.0623452
-0.0685022
-0.0808403
-0.0927853
-0.0915736
-0.0723674
-0.0513704
-0.0366817
-0.00396623
-0.0083768
-0.00953675
-0.0127315
-0.021032
-0.0278082
-0.036847
-0.0393406
-0.042374
-0.0431769
-0.0473453
-0.0543009
-0.0639537
-0.0742938
-0.0844374
-0.0923349
-0.096579
-0.0992008
-0.105024
-0.110157
-0.00539986
-0.00751306
-0.00767545
-0.00807728
-0.010546
-0.0138273
-0.0179458
-0.0209571
-0.0258783
-0.033271
-0.0437321
-0.0552204
-0.0681675
-0.081744
-0.0956868
-0.106866
-0.115801
-0.1232
-0.126238
-0.122417
-0.0200984
-0.0298697
-0.0325446
-0.0256122
-0.0212377
-0.0212588
-0.0268466
-0.0278685
-0.033659
-0.0386375
-0.0461839
-0.0515639
-0.057522
-0.0644088
-0.0726919
-0.0786374
-0.0844343
-0.0875266
-0.0864538
-0.0841104
-0.0156062
-0.00667197
-0.00715816
-0.017094
-0.0161406
-0.0225582
-0.0311104
-0.036843
-0.0470625
-0.0547107
-0.0643471
-0.0690588
-0.0742956
-0.0769361
-0.0799205
-0.0769891
-0.0709623
-0.0629107
-0.0559062
-0.0523899
-0.00414385
-0.00639134
-0.00718448
-0.0147167
-0.0139564
-0.0211706
-0.0231733
-0.0255291
-0.0312841
-0.0396147
-0.0515318
-0.0653723
-0.0830902
-0.097376
-0.10208
-0.0910592
-0.0707135
-0.0532712
-0.0424824
-0.0381282
-0.0116028
-0.0112347
-0.00687146
-0.0080407
-0.0108219
-0.0139026
-0.0181153
-0.0244433
-0.0323483
-0.0429788
-0.0578551
-0.0753026
-0.0911092
-0.097364
-0.0877886
-0.0684364
-0.0492859
-0.0362071
-0.0290241
-0.0274796
-0.00893475
-0.0091535
-0.00840871
-0.00967617
-0.0124535
-0.0160905
-0.0216031
-0.0228199
-0.0271822
-0.035735
-0.0502684
-0.0710678
-0.0943478
-0.109161
-0.0682967
-0.0465785
-0.0305241
-0.0222895
-0.0191689
-0.0202019
-0.00265562
-0.00725387
-0.00907418
-0.0102721
-0.0123917
-0.0146362
-0.0177261
-0.0290213
-0.0321372
-0.0321412
-0.0409193
-0.0615941
-0.0878506
-0.10486
-0.0872366
-0.0385903
-0.025283
-0.0187207
-0.0175739
-0.0205781
-0.00554805
-0.0179713
-0.0172638
-0.0115885
-0.0121197
-0.0151528
-0.022879
-0.0488877
-0.0462475
-0.0302816
-0.0366706
-0.055708
-0.0678135
-0.0727824
-0.0671297
-0.04173
-0.0331205
-0.0276676
-0.026084
-0.0278129
-0.0119698
-0.0195754
-0.0159814
-0.0141217
-0.0148293
-0.0157821
-0.0178229
-0.0299819
-0.061655
-0.0703483
-0.0630979
-0.0445925
-0.0349039
-0.0369101
-0.0500209
-0.0481651
-0.048791
-0.0482583
-0.0462203
-0.0445252
-0.0326011
-0.0366996
-0.0254236
-0.0214709
-0.0215903
-0.0244927
-0.0328385
-0.0470649
-0.0628021
-0.0705739
-0.0796626
-0.0745945
-0.044686
-0.0291427
-0.0393965
-0.0475368
-0.0526109
-0.0572254
-0.0609766
-0.0648198
-0.0279975
-0.0253734
-0.0429098
-0.0415612
-0.0366532
-0.029597
-0.0258652
-0.0255199
-0.0363835
-0.0559074
-0.0668903
-0.0675947
-0.0604209
-0.0497629
-0.0481533
-0.0509077
-0.0572283
-0.0685529
-0.0847538
-0.0925373
-0.0241981
-0.0182358
-0.0387454
-0.0515284
-0.050979
-0.0353612
-0.0265196
-0.0293323
-0.0400085
-0.0541442
-0.0701619
-0.0827852
-0.0818442
-0.0741515
-0.0707209
-0.0755529
-0.0859399
-0.0953536
-0.0967166
-0.085857
-0.019766
-0.0111728
-0.0149888
-0.0240685
-0.0277308
-0.0212938
-0.0215593
-0.0263227
-0.0373365
-0.0532979
-0.0760559
-0.101048
-0.111753
-0.0978025
-0.0766651
-0.0658124
-0.061586
-0.0596545
-0.0574009
-0.05526
-0.00302602
-0.00858217
-0.0097853
-0.0131487
-0.0163591
-0.0183795
-0.0239618
-0.0351313
-0.0512816
-0.0721005
-0.0970323
-0.115119
-0.126575
-0.119186
-0.100632
-0.0816815
-0.0649242
-0.0538543
-0.0484043
-0.0472762
-0.00821688
-0.0275989
-0.0362477
-0.0326968
-0.0335522
-0.0392889
-0.0526343
-0.0700115
-0.0905873
-0.10895
-0.125899
-0.135342
-0.140616
-0.138807
-0.13533
-0.128635
-0.117497
-0.103689
-0.092916
-0.0910446
-0.00174602
-0.00803516
-0.0161471
-0.0283615
-0.0432326
-0.0519079
-0.0672849
-0.0803654
-0.100085
-0.116384
-0.133312
-0.141816
-0.1457
-0.143432
-0.141247
-0.140788
-0.141965
-0.144851
-0.149385
-0.158815
-0.00927801
-0.00998757
-0.0130026
-0.020481
-0.0301634
-0.0398419
-0.0565315
-0.0745697
-0.0978835
-0.113875
-0.124109
-0.120592
-0.10802
-0.0861834
-0.0647574
-0.0487915
-0.0402559
-0.0372699
-0.0384105
-0.044017
-0.0316317
-0.0219702
-0.0098903
-0.0213027
-0.0395687
-0.0452705
-0.0472414
-0.0429588
-0.0433413
-0.044022
-0.0481473
-0.0508631
-0.0538354
-0.055494
-0.0570698
-0.0593869
-0.0618789
-0.0638139
-0.0623456
-0.0610431
-0.00226686
-0.00585812
-0.00969265
-0.0123501
-0.0162138
-0.0205665
-0.0264348
-0.0297751
-0.0319563
-0.0330182
-0.0348139
-0.0371677
-0.0408289
-0.0449317
-0.0483737
-0.0482879
-0.0413734
-0.0302324
-0.0215109
-0.01631
-0.00103629
-0.00219511
-0.00486267
-0.00869749
-0.0138893
-0.0171638
-0.0208072
-0.0224564
-0.0250231
-0.0274036
-0.0308242
-0.0340365
-0.0375869
-0.0403263
-0.0422727
-0.0423886
-0.0408448
-0.0386378
-0.0372492
-0.035171
-0.00496551
-0.00331003
-0.00303693
-0.00441146
-0.00703384
-0.00922103
-0.0117938
-0.0140661
-0.0173959
-0.0208643
-0.0250401
-0.029082
-0.0335913
-0.0376866
-0.0412944
-0.0430352
-0.0434246
-0.0429418
-0.0411017
-0.0381535
-0.0144081
-0.0129356
-0.0099941
-0.00765288
-0.00832428
-0.00997763
-0.0124376
-0.014268
-0.0169543
-0.0186932
-0.0203668
-0.021318
-0.0223591
-0.0234597
-0.024765
-0.0254161
-0.0259527
-0.026089
-0.0260064
-0.0262651
-0.0137204
-0.00607893
-0.00505979
-0.00668138
-0.00841005
-0.0111485
-0.0152875
-0.0180984
-0.0222967
-0.0244482
-0.0267838
-0.026872
-0.0268157
-0.0254628
-0.0239887
-0.0217541
-0.0198836
-0.0186114
-0.0181899
-0.0184463
-0.00915858
-0.00605289
-0.00517194
-0.00638432
-0.00818113
-0.011295
-0.0153176
-0.0182177
-0.0229461
-0.0268078
-0.0314998
-0.0344064
-0.036391
-0.0351162
-0.0307897
-0.0242904
-0.0186308
-0.0153728
-0.0140576
-0.0138729
-0.00980151
-0.00494652
-0.00431044
-0.00537069
-0.0073525
-0.010755
-0.0153901
-0.0207391
-0.0267448
-0.0314307
-0.035329
-0.0372124
-0.0360065
-0.031402
-0.024203
-0.0177027
-0.0136448
-0.0118489
-0.0115297
-0.0122008
-0.00284674
-0.00517422
-0.00608415
-0.00645277
-0.00770595
-0.0110787
-0.0128985
-0.019533
-0.0249576
-0.0311972
-0.0369691
-0.0425401
-0.0442935
-0.0395422
-0.0183919
-0.0129423
-0.0107204
-0.010582
-0.0115461
-0.0132034
-0.00212842
-0.00407214
-0.0041188
-0.00521766
-0.00693888
-0.00843262
-0.0102706
-0.0130892
-0.0171306
-0.0239019
-0.0328533
-0.0410784
-0.0466471
-0.0442959
-0.0244039
-0.011785
-0.0111134
-0.0121871
-0.0139976
-0.0160594
-0.00275166
-0.00779309
-0.0079646
-0.00843428
-0.0086692
-0.0090383
-0.010702
-0.0157994
-0.0158251
-0.0164378
-0.0218155
-0.0274943
-0.0316735
-0.0351001
-0.0263972
-0.0172372
-0.0167471
-0.0172878
-0.0183156
-0.0196313
-0.0135311
-0.00975405
-0.00880375
-0.00910356
-0.00979482
-0.0102197
-0.0112884
-0.0173168
-0.0222295
-0.0228128
-0.0198074
-0.017034
-0.0189151
-0.0254358
-0.0304659
-0.0326746
-0.0332936
-0.031695
-0.0293269
-0.0276114
-0.00936373
-0.0210411
-0.0143956
-0.0120197
-0.0117693
-0.0119887
-0.0139969
-0.0179394
-0.0230251
-0.0293578
-0.0309069
-0.0264328
-0.0231292
-0.0256692
-0.034754
-0.0437235
-0.0457853
-0.0442782
-0.0407261
-0.0372113
-0.00279566
-0.0142441
-0.0213576
-0.0217373
-0.0172363
-0.0152571
-0.0149455
-0.0182286
-0.0257656
-0.0333744
-0.0375131
-0.0394439
-0.0402594
-0.0402973
-0.0463794
-0.0498756
-0.0522865
-0.0528594
-0.0510933
-0.0453224
-0.0193366
-0.0207807
-0.0334854
-0.0285097
-0.0216475
-0.0168443
-0.017345
-0.0226079
-0.0288873
-0.0345198
-0.0385024
-0.0404584
-0.0403615
-0.0408734
-0.0433123
-0.0455857
-0.0464687
-0.0449205
-0.0407481
-0.0354757
-0.006314
-0.00758823
-0.0135022
-0.01605
-0.0147241
-0.0146756
-0.0179289
-0.0233447
-0.0302792
-0.0371279
-0.0434032
-0.0469598
-0.044705
-0.0376356
-0.0323964
-0.0302823
-0.0296668
-0.0293187
-0.0291387
-0.0297377
-0.00292902
-0.00616354
-0.0101871
-0.0128207
-0.0145227
-0.0180253
-0.0227794
-0.0301069
-0.0383868
-0.0457243
-0.0521523
-0.0527128
-0.0503694
-0.0432835
-0.0361098
-0.0310812
-0.0283899
-0.0278845
-0.0291423
-0.0319813
-0.0117465
-0.018314
-0.0198526
-0.0186893
-0.0215814
-0.025576
-0.0322727
-0.0395552
-0.0492911
-0.0554657
-0.0602298
-0.0594772
-0.0571393
-0.0528966
-0.0495613
-0.0467163
-0.0444307
-0.0434653
-0.0446249
-0.047924
-0.00405682
-0.00549188
-0.00860459
-0.0148722
-0.0219502
-0.0256083
-0.0336322
-0.0402171
-0.0511553
-0.0574573
-0.0623886
-0.0608151
-0.0576561
-0.0532852
-0.0513009
-0.0519021
-0.0546074
-0.0588288
-0.0638744
-0.0703313
-0.00374538
-0.00711849
-0.0116707
-0.01568
-0.0208754
-0.0264201
-0.0356442
-0.0435009
-0.0521362
-0.0542269
-0.0529288
-0.0451743
-0.0361965
-0.0274223
-0.0220385
-0.0199307
-0.0203461
-0.0226776
-0.026645
-0.0325634
-0.00149364
-0.00719479
-0.00711223
-0.0089414
-0.0150395
-0.0176771
-0.0212097
-0.0223057
-0.0240021
-0.0245959
-0.0250729
-0.0246506
-0.0240307
-0.0230477
-0.0221823
-0.0215183
-0.0211139
-0.0207561
-0.0201687
-0.0200779
-0.00336578
-0.00471433
-0.00637257
-0.00797639
-0.0108569
-0.0131422
-0.0163451
-0.0181888
-0.0203523
-0.022184
-0.0240158
-0.0249327
-0.0253428
-0.0247646
-0.023368
-0.0203549
-0.0159987
-0.0120566
-0.0099521
-0.0093124
-0.00341154
-0.00377324
-0.00550457
-0.00768652
-0.0104108
-0.0120418
-0.0141585
-0.0151279
-0.0163579
-0.0167203
-0.0172468
-0.0173326
-0.0172873
-0.0166743
-0.0157521
-0.0145171
-0.0135324
-0.0130918
-0.013551
-0.0145286
-0.00710131
-0.0038485
-0.0027558
-0.00429883
-0.00638128
-0.00780904
-0.00947762
-0.0106909
-0.0120485
-0.0130072
-0.0139859
-0.0146905
-0.0153829
-0.0157009
-0.0159227
-0.0158232
-0.0158375
-0.0161682
-0.016653
-0.017382
-0.0292483
-0.0126017
-0.00457833
-0.00503998
-0.0062679
-0.00736243
-0.00870948
-0.00958908
-0.0105144
-0.0108798
-0.0110974
-0.0111097
-0.0111575
-0.0112807
-0.011577
-0.0118879
-0.0123876
-0.0130307
-0.0138021
-0.0146498
-0.0113982
-0.00636159
-0.00477656
-0.00573911
-0.00712738
-0.00870167
-0.0109532
-0.0118463
-0.0130512
-0.0129086
-0.0127547
-0.0118641
-0.01116
-0.0104448
-0.0100549
-0.00986145
-0.00997808
-0.0103217
-0.0108528
-0.0114433
-0.00134374
-0.00315114
-0.00458868
-0.00634686
-0.00853207
-0.0108503
-0.0135674
-0.0144843
-0.0158567
-0.0157328
-0.0154699
-0.0142665
-0.0129927
-0.0113876
-0.00989109
-0.00877217
-0.00833563
-0.00847362
-0.00894116
-0.00957589
-0.00373397
-0.00370862
-0.00429
-0.00545422
-0.00760674
-0.0110581
-0.0134016
-0.0153334
-0.0157873
-0.0157528
-0.0146443
-0.0133943
-0.0114989
-0.00970576
-0.0082821
-0.00764598
-0.00772066
-0.0082581
-0.00909079
-0.0101488
-0.00253104
-0.00349822
-0.00442186
-0.00534812
-0.00703656
-0.0107232
-0.0118652
-0.0152184
-0.0160727
-0.0165281
-0.0160183
-0.0151088
-0.0129634
-0.010284
-0.00741468
-0.00750384
-0.00802936
-0.00878055
-0.00965412
-0.0106382
-0.000556212
-0.00138659
-0.00219463
-0.00375333
-0.00568834
-0.00786222
-0.00994499
-0.0109805
-0.0133464
-0.0149868
-0.0160702
-0.015363
-0.0131918
-0.0101106
-0.00738941
-0.00848248
-0.00920466
-0.00988883
-0.0105232
-0.0111796
-0.00428158
-0.00709188
-0.00636143
-0.00683307
-0.00738809
-0.0077982
-0.00890472
-0.0103809
-0.011481
-0.0122785
-0.0131383
-0.0127887
-0.0118115
-0.0106363
-0.00959118
-0.0121593
-0.0130214
-0.0137636
-0.0145003
-0.0152295
-0.00855975
-0.0050142
-0.00644923
-0.00756477
-0.00845129
-0.00895445
-0.0100869
-0.0125741
-0.015632
-0.0163018
-0.0140613
-0.0123624
-0.0130501
-0.0152537
-0.0181019
-0.0206799
-0.0200861
-0.0191804
-0.0187544
-0.0189368
-0.00283495
-0.00665514
-0.00772158
-0.00945951
-0.0102908
-0.0105894
-0.01151
-0.013883
-0.0182056
-0.0220534
-0.0233844
-0.0219423
-0.0207637
-0.0233991
-0.0328612
-0.033909
-0.0295196
-0.0248355
-0.021498
-0.0196772
-0.00560144
-0.00871633
-0.012335
-0.012527
-0.0111382
-0.0114559
-0.0121344
-0.0157416
-0.0192109
-0.0220982
-0.024785
-0.0291891
-0.0340489
-0.0395932
-0.0400938
-0.0387721
-0.0351511
-0.0303863
-0.0254364
-0.0208563
-0.00650944
-0.0134615
-0.0186354
-0.014662
-0.0118903
-0.0125168
-0.0142283
-0.0171284
-0.0189241
-0.0200799
-0.0209924
-0.0214571
-0.022393
-0.0231866
-0.0241803
-0.0238658
-0.0225571
-0.0205135
-0.0183495
-0.0166736
-0.00566802
-0.010096
-0.0108563
-0.0103027
-0.0107688
-0.0130222
-0.0155767
-0.0184707
-0.020531
-0.0214971
-0.0218464
-0.0214152
-0.0200195
-0.0181822
-0.0171392
-0.0166472
-0.016496
-0.0164367
-0.0165009
-0.0167623
-0.00264959
-0.00522216
-0.00828003
-0.0104851
-0.0123092
-0.0151229
-0.0180831
-0.0211151
-0.023676
-0.0243552
-0.0247602
-0.0232321
-0.0218998
-0.0203298
-0.0194258
-0.0190992
-0.0191283
-0.0194641
-0.0200268
-0.0207138
-0.00758118
-0.0111505
-0.0132222
-0.013653
-0.0148907
-0.0163736
-0.019723
-0.022271
-0.0257747
-0.0263529
-0.0268257
-0.0256029
-0.0250176
-0.0246081
-0.0249023
-0.0253841
-0.0258589
-0.0262405
-0.0265515
-0.0268095
-0.00221559
-0.00619474
-0.00973615
-0.0127451
-0.0150085
-0.0160631
-0.0195696
-0.021723
-0.0254928
-0.0258063
-0.0262851
-0.0249555
-0.0247295
-0.0251966
-0.0269945
-0.029402
-0.03186
-0.0339558
-0.0354294
-0.036393
-0.00303398
-0.00713448
-0.0119902
-0.0154052
-0.018192
-0.0202818
-0.0228942
-0.0223962
-0.0226023
-0.0198003
-0.0178556
-0.0151317
-0.0137633
-0.0135335
-0.0144742
-0.016229
-0.0185519
-0.0213978
-0.0247694
-0.0288553
-0.00139499
-0.00443188
-0.00696983
-0.00975923
-0.0130147
-0.0144834
-0.0163023
-0.0165034
-0.0167288
-0.0161516
-0.0156701
-0.0148813
-0.0141757
-0.0134143
-0.0127937
-0.0123263
-0.0121279
-0.0122724
-0.0129435
-0.0144904
-0.00634914
-0.00428533
-0.0058864
-0.00672562
-0.00851903
-0.00972334
-0.0115861
-0.0124923
-0.0134412
-0.0133455
-0.0128602
-0.0115802
-0.0103214
-0.0091904
-0.00861415
-0.00846445
-0.0088834
-0.00986386
-0.0112048
-0.0125892
-0.00611704
-0.00403163
-0.00530737
-0.00692683
-0.00864247
-0.00956064
-0.0103175
-0.0101415
-0.00986786
-0.00926082
-0.00879895
-0.00850424
-0.0085567
-0.00888392
-0.00943934
-0.0101186
-0.0108654
-0.0116291
-0.0123792
-0.0130668
-0.0154671
-0.00518435
-0.00386957
-0.00514131
-0.00651004
-0.00741311
-0.00800111
-0.00810568
-0.00815491
-0.00820745
-0.00846156
-0.00887283
-0.00943308
-0.0100134
-0.0106138
-0.0111503
-0.0116336
-0.0120565
-0.0124071
-0.0126883
-0.0367668
-0.0155345
-0.00536111
-0.00509338
-0.00608708
-0.0067969
-0.00721442
-0.00734046
-0.00745897
-0.00761987
-0.00794682
-0.0084063
-0.00895341
-0.00952778
-0.010076
-0.0105535
-0.0109578
-0.0112854
-0.0115671
-0.0118027
-0.0124054
-0.00837443
-0.00497461
-0.00558607
-0.00662748
-0.00731456
-0.00763761
-0.00750742
-0.00739658
-0.00727437
-0.00739559
-0.00770114
-0.00816069
-0.00871114
-0.00927047
-0.00980476
-0.0102857
-0.0107068
-0.0110808
-0.0113823
-0.000255168
-0.00196469
-0.00419132
-0.00617057
-0.00738237
-0.00805217
-0.0078581
-0.0076
-0.00730867
-0.00706668
-0.00709573
-0.00731516
-0.00772335
-0.0082468
-0.00883985
-0.00947715
-0.0101152
-0.0107235
-0.0112916
-0.011761
-0.00120816
-0.00222206
-0.00358821
-0.00529772
-0.00665896
-0.00745357
-0.00702579
-0.00700796
-0.00665671
-0.00671989
-0.00680172
-0.00712774
-0.00755114
-0.00811626
-0.00878769
-0.0095224
-0.0102756
-0.0110273
-0.0117604
-0.012387
-0.0008766
-0.0025403
-0.00366577
-0.00492124
-0.00601719
-0.00714761
-0.00675791
-0.0071707
-0.00650048
-0.00653204
-0.00635039
-0.00653319
-0.00682807
-0.00734021
-0.00882267
-0.00948563
-0.0101528
-0.0108028
-0.0114235
-0.0119353
-0.000765782
-0.00113526
-0.00190332
-0.00335505
-0.0050274
-0.0064244
-0.00677467
-0.00675542
-0.00629383
-0.0059249
-0.00580103
-0.00597731
-0.0064342
-0.00697239
-0.00799725
-0.00955064
-0.0100448
-0.0104988
-0.0109114
-0.0112474
-0.00325204
-0.00567862
-0.0043212
-0.00473535
-0.00617369
-0.00676133
-0.0074605
-0.00836713
-0.00767381
-0.00662612
-0.00607347
-0.00644425
-0.00747748
-0.00846386
-0.00985787
-0.0111908
-0.0114714
-0.0115923
-0.011647
-0.0117154
-0.00208867
-0.0052316
-0.00614411
-0.0068856
-0.00767847
-0.00826461
-0.00955788
-0.011573
-0.0124756
-0.0112863
-0.00953744
-0.0092387
-0.0104909
-0.0116041
-0.012493
-0.0126815
-0.0128734
-0.0128744
-0.0128293
-0.0128649
-0.00164657
-0.00489575
-0.00764001
-0.00910628
-0.00940215
-0.00973294
-0.0103633
-0.0117158
-0.0131796
-0.014792
-0.0151525
-0.01534
-0.0167071
-0.0182336
-0.015831
-0.0129764
-0.0123841
-0.0119577
-0.0117381
-0.011699
-0.00262182
-0.00754125
-0.0092796
-0.00941184
-0.00948674
-0.00980754
-0.0101002
-0.0114491
-0.0121825
-0.013575
-0.0153625
-0.0182157
-0.0205713
-0.0216443
-0.0151651
-0.0140815
-0.0128871
-0.0118091
-0.0110091
-0.0105478
-0.00406918
-0.00936477
-0.00975058
-0.00934398
-0.00922133
-0.0098516
-0.0102907
-0.0107082
-0.01092
-0.0110135
-0.0111777
-0.0111063
-0.0111259
-0.0109911
-0.0109001
-0.0106476
-0.0103579
-0.010113
-0.0100084
-0.010091
-0.0114694
-0.00802984
-0.00732775
-0.00825254
-0.00925458
-0.0103599
-0.0109022
-0.0113798
-0.0114007
-0.0113291
-0.0112047
-0.0109806
-0.0106074
-0.0101596
-0.00984507
-0.00965692
-0.0095952
-0.00964631
-0.00981349
-0.0100875
-0.0100608
-0.0129533
-0.00936683
-0.00936281
-0.0103207
-0.0112567
-0.0119276
-0.0123227
-0.0124979
-0.0123762
-0.0123172
-0.0120036
-0.0117391
-0.0113855
-0.0110516
-0.0107183
-0.0104739
-0.0103882
-0.0104686
-0.0107064
-0.00634761
-0.00957243
-0.00934716
-0.00959653
-0.0102059
-0.0111231
-0.0121864
-0.0127106
-0.0134879
-0.0135903
-0.0139078
-0.0138769
-0.0138495
-0.0136343
-0.0133441
-0.0129129
-0.0124328
-0.0120263
-0.0118211
-0.0118612
-0.00515778
-0.00877201
-0.0092585
-0.00909689
-0.00942366
-0.010097
-0.0113481
-0.0118767
-0.0131062
-0.0136461
-0.0147029
-0.0154361
-0.0162161
-0.0167143
-0.0170254
-0.0170255
-0.0167933
-0.0164099
-0.0160288
-0.0157546
-0.00472504
-0.00870158
-0.0109494
-0.0120477
-0.0118968
-0.0112599
-0.0107333
-0.00950091
-0.00955123
-0.00978494
-0.0110003
-0.0126586
-0.0147512
-0.0170291
-0.0193569
-0.0216141
-0.0237123
-0.0256155
-0.0273239
-0.0287785
-0.00188443
-0.00353485
-0.00580765
-0.00951984
-0.0116354
-0.0119236
-0.0119743
-0.0110628
-0.010341
-0.00920846
-0.0085036
-0.00798623
-0.00817445
-0.00908576
-0.0109333
-0.0136769
-0.0171543
-0.0211427
-0.0252726
-0.0292904
-0.0202277
-0.0201766
-0.0186154
-0.0145901
-0.0161798
-0.0155853
-0.0145382
-0.0262704
-0.0181484
-0.0175626
-0.0166407
-0.0175215
-0.0142638
-0.0140442
-0.0208711
-0.0283898
-0.028747
-0.017506
-0.0158778
-0.0236955
-0.0233833
-0.0173825
-0.0279263
-0.0239099
-0.0153104
-0.0144038
-0.0228825
-0.0209282
-0.117923
-0.123858
-0.123503
-0.105365
-0.100861
-0.11087
-0.117152
-0.10711
-0.122953
-0.118459
-0.0991452
-0.0910148
-0.118559
-0.1168
-0.0984035
-0.116102
-0.108886
-0.0888957
-0.0818713
-0.113298
-0.0993425
-0.100189
-0.106944
-0.102916
-0.0791828
-0.0787238
-0.0953851
-0.0900865
-0.111404
-0.102199
-0.101571
-0.0824245
-0.0989627
-0.090901
-0.0967297
-0.121973
-0.101548
-0.100308
-0.105452
-0.121704
-0.0988517
-0.103295
-0.128627
-0.0992765
-0.0955882
-0.1255
-0.133814
-0.104252
-0.107277
-0.137926
-0.0948156
-0.0962786
-0.135751
-0.138588
-0.108451
-0.110091
-0.123934
-0.102977
-0.100999
-0.104398
-0.116602
-0.0818583
-0.0901228
-0.122044
-0.104039
-0.117445
-0.118827
-0.120765
-0.0951727
-0.115577
-0.114008
-0.120811
-0.12293
-0.118981
-0.105921
-0.121325
-0.126383
-0.106176
-0.121465
-0.113393
-0.101421
-0.0947891
-0.124288
-0.111745
-0.101875
-0.110168
-0.100907
-0.0950988
-0.0982715
-0.107117
-0.0958859
-0.0983926
-0.0980453
-0.0901414
-0.0991262
-0.100086
-0.0929579
-0.0835423
-0.0922119
-0.0877267
-0.0812958
-0.100096
-0.100689
-0.0802854
-0.073781
-0.0900141
-0.0794497
-0.0747832
-0.101247
-0.102051
-0.0734255
-0.0755178
-0.0914707
-0.0835909
-0.0947092
-0.0712321
-0.0803482
-0.0787599
-0.0878546
-0.1153
-0.10188
-0.127894
-0.0865396
-0.11341
-0.0955333
-0.1294
-0.126446
-0.134753
-0.147385
-0.121696
-0.133343
-0.13894
-0.153728
-0.118848
-0.149639
-0.147721
-0.132905
-0.121778
-0.154711
-0.146928
-0.102273
-0.14335
-0.122155
-0.116158
-0.0991841
-0.141135
-0.117887
-0.0881972
-0.114137
-0.0928863
-0.0938977
-0.0777321
-0.108939
-0.0805429
-0.0780774
-0.0872851
-0.0746775
-0.073015
-0.0645918
-0.071758
-0.0532235
-0.0707316
-0.0715049
-0.0642359
-0.0641765
-0.067672
-0.0502371
-0.051158
-0.117873
-0.121025
-0.131838
-0.100346
-0.110415
-0.111202
-0.113438
-0.143287
-0.13571
-0.14688
-0.118416
-0.14289
-0.115337
-0.135594
-0.153699
-0.150456
-0.161616
-0.148583
-0.157695
-0.143362
-0.160092
-0.153331
-0.16604
-0.180082
-0.158355
-0.15047
-0.164496
-0.174082
-0.128982
-0.183825
-0.185807
-0.145339
-0.125045
-0.176241
-0.173112
-0.0989658
-0.18369
-0.171608
-0.116733
-0.0889141
-0.168662
-0.146536
-0.0781602
-0.164156
-0.136467
-0.0793815
-0.0565336
-0.13557
-0.0982625
-0.0655422
-0.125585
-0.0976635
-0.051832
-0.0483679
-0.0863874
-0.06097
-0.0263354
-0.0217411
-0.0385319
-0.0161961
-0.0192398
-0.0179018
-0.0215526
-0.0317647
-0.0433359
-0.0419819
-0.0200984
-0.0220235
-0.0220843
-0.0217462
-0.0319818
-0.0384199
-0.0309795
-0.0227326
-0.0261314
-0.0215718
-0.0227515
-0.0372647
-0.0304548
-0.0343964
-0.0281834
-0.036568
-0.023853
-0.0287434
-0.0553342
-0.0373938
-0.050481
-0.0399023
-0.0491808
-0.0306608
-0.036281
-0.08118
-0.0555844
-0.0692869
-0.0523207
-0.0600815
-0.0380324
-0.0429295
-0.101885
-0.0728963
-0.080775
-0.0618981
-0.0635665
-0.04441
-0.0475459
-0.105968
-0.0828437
-0.0863786
-0.0625041
-0.0543449
-0.0478577
-0.0453892
-0.0426706
-0.0191289
-0.0284658
-0.0186361
-0.0225898
-0.0165921
-0.022044
-0.0510833
-0.0362918
-0.0591069
-0.0232524
-0.0227418
-0.0237597
-0.0270864
-0.0321762
-0.0620714
-0.0586761
-0.022179
-0.021852
-0.0271895
-0.0260169
-0.0332534
-0.0570407
-0.0500163
-0.0224379
-0.0260373
-0.0254164
-0.0231812
-0.0509235
-0.0484357
-0.04525
-0.0276275
-0.0324301
-0.0226152
-0.0217787
-0.0658906
-0.0444843
-0.0426909
-0.0339112
-0.038019
-0.0218907
-0.0236617
-0.0713988
-0.0423351
-0.0431177
-0.0393593
-0.0428854
-0.0247643
-0.0297345
-0.0772606
-0.0444153
-0.0528674
-0.0436372
-0.0433011
-0.0317811
-0.0371003
-0.0234753
-0.0194439
-0.0313856
-0.0171348
-0.0211048
-0.0178085
-0.021004
-0.0557887
-0.0387945
-0.0630961
-0.0228441
-0.0274296
-0.0226082
-0.0276598
-0.0690702
-0.0680165
-0.075878
-0.0281199
-0.0286005
-0.0291925
-0.0337683
-0.0667777
-0.0784359
-0.0835061
-0.0283805
-0.0258563
-0.0349569
-0.0350047
-0.0489213
-0.0838924
-0.0735845
-0.0245522
-0.0208582
-0.0337637
-0.0277252
-0.0361181
-0.0662367
-0.0425006
-0.0202615
-0.020668
-0.0256192
-0.0215828
-0.0353709
-0.0365611
-0.0277214
-0.021538
-0.0263627
-0.0212619
-0.0234487
-0.0468719
-0.027566
-0.0357422
-0.0286005
-0.0353371
-0.025148
-0.032338
-0.0431235
-0.0270418
-0.0247225
-0.0205815
-0.0220607
-0.0209637
-0.0220364
-0.0596882
-0.0246837
-0.0320979
-0.0231543
-0.0274645
-0.02302
-0.0286101
-0.0686362
-0.0376585
-0.0519141
-0.0292139
-0.0351806
-0.0314292
-0.0414573
-0.0766739
-0.0569397
-0.0688382
-0.0368969
-0.0384776
-0.0451494
-0.0526488
-0.0794267
-0.0728053
-0.0788752
-0.037744
-0.0325124
-0.0539348
-0.0529416
-0.0519078
-0.0780798
-0.0681642
-0.0302694
-0.0248872
-0.0514009
-0.0449976
-0.03083
-0.0636623
-0.0496526
-0.0239739
-0.024463
-0.0425488
-0.0364119
-0.0334219
-0.045424
-0.0373749
-0.0256586
-0.0317422
-0.0351191
-0.0344967
-0.012408
-0.0100385
-0.0136405
-0.0105395
-0.0119877
-0.00967565
-0.0106131
-0.0159399
-0.0144897
-0.0148964
-0.0128216
-0.0167784
-0.0109472
-0.0124734
-0.0218377
-0.014861
-0.0164866
-0.0178695
-0.0203749
-0.01318
-0.0155254
-0.0305909
-0.0176974
-0.0226438
-0.0213792
-0.0239272
-0.0162756
-0.018089
-0.0390369
-0.0244823
-0.0296045
-0.0243929
-0.0245578
-0.0185159
-0.0190701
-0.0456842
-0.0310716
-0.0348617
-0.0244086
-0.0230387
-0.0190402
-0.0182934
-0.0458469
-0.0359711
-0.0379681
-0.0220387
-0.0180798
-0.0178617
-0.0158155
-0.0356793
-0.0379033
-0.0343391
-0.0165268
-0.0125186
-0.014956
-0.0121916
-0.0147518
-0.0109999
-0.0153968
-0.00990506
-0.0107648
-0.0105411
-0.0122296
-0.016209
-0.017392
-0.0209171
-0.0110938
-0.0121758
-0.0128413
-0.0147353
-0.015764
-0.0211665
-0.0208578
-0.0125925
-0.0140543
-0.0152719
-0.0158199
-0.014935
-0.0174417
-0.01659
-0.0150689
-0.0169477
-0.0159674
-0.0145457
-0.0177898
-0.0234007
-0.0195673
-0.0192068
-0.0206907
-0.0202902
-0.0169707
-0.0306408
-0.0177474
-0.0196801
-0.0176167
-0.0173387
-0.0142606
-0.0152696
-0.0345472
-0.0208169
-0.0255216
-0.0171044
-0.0158864
-0.0156976
-0.0170123
-0.0337687
-0.027333
-0.0314586
-0.0152931
-0.0130753
-0.0173384
-0.0175914
-0.0153941
-0.0121611
-0.0165017
-0.0110238
-0.0124435
-0.0112837
-0.0130682
-0.0215409
-0.0179671
-0.0219535
-0.0131532
-0.0156919
-0.0140343
-0.0180685
-0.0233307
-0.0232678
-0.0273352
-0.0165136
-0.017756
-0.0196018
-0.0231601
-0.0218948
-0.0225646
-0.0256379
-0.0196364
-0.0255638
-0.0196367
-0.0220102
-0.0186181
-0.0187971
-0.0227467
-0.0176735
-0.0212998
-0.0169671
-0.0196138
-0.0179527
-0.0225797
-0.020427
-0.0144035
-0.0151988
-0.0202831
-0.0191793
-0.023503
-0.0204952
-0.0231066
-0.0156993
-0.0176101
-0.0192625
-0.0212334
-0.0307611
-0.0247002
-0.0309104
-0.0182649
-0.0197367
-0.0224347
-0.0269012
-0.016941
-0.014151
-0.0155604
-0.0124976
-0.0138283
-0.0130604
-0.0148319
-0.0215141
-0.0163932
-0.0214511
-0.0147231
-0.0189342
-0.0162086
-0.0222534
-0.0279601
-0.0237403
-0.03043
-0.0206434
-0.0248894
-0.0243467
-0.0296043
-0.0311765
-0.0326202
-0.0368683
-0.0257035
-0.0262404
-0.0311026
-0.0336401
-0.0277899
-0.037725
-0.0383775
-0.0259751
-0.0243327
-0.0340895
-0.0342807
-0.0234712
-0.0381395
-0.0366877
-0.0236671
-0.0221335
-0.0342363
-0.0337682
-0.0244638
-0.0360155
-0.0341382
-0.0219845
-0.0232588
-0.0335803
-0.0335128
-0.0310708
-0.0338053
-0.0346093
-0.0242984
-0.0288
-0.0338787
-0.0365624
-0.0105659