/*--------------------------------*- C++ -*----------------------------------*\
  =========                 |
  \\      /  F ield         | OpenFOAM: The Open Source CFD Toolbox
   \\    /   O peration     | Website:  https://openfoam.org
    \\  /    A nd           | Version:  10
     \\/     M anipulation  |
\*---------------------------------------------------------------------------*/
FoamFile
{
    format      ascii;
    class       volScalarField;
    location    "9";
    object      turbidity_0;
}
// * * * * * * * * * * * * * * * * * * * * * * * * * * * * * * * * * * * * * //

dimensions      [0 0 0 0 0 0 0];

internalField   nonuniform List<scalar> 
12920
(
-0.0311
-0.0476871
-0.0650355
-0.0776472
-0.0880122
-0.0980689
-0.109847
-0.127491
-0.149998
-0.173408
-0.193667
-0.210032
-0.222732
-0.232478
-0.240671
-0.250107
-0.261617
-0.270881
-0.272018
-0.272608
-0.033377
-0.0519013
-0.0631071
-0.0791933
-0.0970762
-0.114008
-0.133337
-0.151821
-0.169803
-0.186894
-0.205549
-0.222127
-0.240567
-0.258225
-0.276671
-0.295726
-0.313719
-0.330145
-0.346337
-0.364888
-0.0345468
-0.0398019
-0.0502945
-0.0677521
-0.0846835
-0.101433
-0.120871
-0.138651
-0.159708
-0.182794
-0.215616
-0.254411
-0.296298
-0.336053
-0.369754
-0.392333
-0.409251
-0.425515
-0.442623
-0.462584
-0.0526377
-0.0769568
-0.0842538
-0.100009
-0.121124
-0.141099
-0.161684
-0.182386
-0.208586
-0.238822
-0.277795
-0.321181
-0.367275
-0.409929
-0.446282
-0.475118
-0.497154
-0.515163
-0.53061
-0.54624
-0.0848361
-0.0673534
-0.0796104
-0.117731
-0.141244
-0.161064
-0.178388
-0.195803
-0.216403
-0.241746
-0.272096
-0.306977
-0.344311
-0.382854
-0.420997
-0.457778
-0.49173
-0.52153
-0.545968
-0.566255
-0.021898
-0.0517223
-0.0686111
-0.111261
-0.135609
-0.159354
-0.173792
-0.187432
-0.203654
-0.222795
-0.248978
-0.280231
-0.31543
-0.354782
-0.397971
-0.44326
-0.486079
-0.521834
-0.551535
-0.576944
-0.00958576
-0.0388367
-0.0502418
-0.0853641
-0.115297
-0.143964
-0.157559
-0.182281
-0.198947
-0.22849
-0.259835
-0.295059
-0.330356
-0.366425
-0.40349
-0.441534
-0.479068
-0.51341
-0.544409
-0.573551
-0.0440454
-0.0406541
-0.0613572
-0.0976645
-0.121978
-0.150804
-0.141313
-0.11943
-0.119206
-0.12118
-0.144459
-0.168292
-0.197469
-0.215086
-0.224498
-0.265713
-0.309641
-0.356105
-0.406
-0.456586
-0.00891618
-0.0214992
-0.0470145
-0.0795555
-0.112501
-0.120256
-0.124097
-0.115277
-0.104237
-0.0975608
-0.102649
-0.114413
-0.123572
-0.130205
-0.138742
-0.160079
-0.203972
-0.250529
-0.299248
-0.349952
-0.0207751
-0.0399707
-0.061147
-0.0878016
-0.104966
-0.112587
-0.12053
-0.124222
-0.120313
-0.111714
-0.104689
-0.10115
-0.0969247
-0.0908857
-0.0966454
-0.133139
-0.177167
-0.219169
-0.260311
-0.303462
-0.0198985
-0.045051
-0.0577934
-0.0670739
-0.0782996
-0.0808959
-0.0835991
-0.0970522
-0.120642
-0.126131
-0.114664
-0.0981085
-0.0851678
-0.0758526
-0.0762492
-0.119883
-0.163222
-0.205545
-0.246659
-0.287739
-0.0315412
-0.0632547
-0.0731619
-0.0870703
-0.103843
-0.10285
-0.106615
-0.126027
-0.147273
-0.155222
-0.14917
-0.120669
-0.0924511
-0.0741849
-0.0692489
-0.104004
-0.13986
-0.178573
-0.22609
-0.279925
-0.0359965
-0.0539534
-0.0747398
-0.0967278
-0.119606
-0.149382
-0.149716
-0.155254
-0.167459
-0.184511
-0.209808
-0.220784
-0.212354
-0.171707
-0.149398
-0.153516
-0.170916
-0.20093
-0.247871
-0.316579
-0.0322828
-0.0451414
-0.0635993
-0.0963992
-0.129702
-0.160419
-0.177129
-0.196163
-0.219942
-0.257688
-0.304786
-0.348155
-0.376912
-0.374921
-0.342373
-0.321948
-0.320091
-0.338944
-0.381058
-0.445015
-0.0304161
-0.0445462
-0.0578825
-0.0807437
-0.114047
-0.128343
-0.147721
-0.154242
-0.173143
-0.194671
-0.232847
-0.281712
-0.340524
-0.395547
-0.422345
-0.424066
-0.420733
-0.427103
-0.442452
-0.466145
-0.035556
-0.0501123
-0.0623297
-0.0773503
-0.0967926
-0.111525
-0.131418
-0.150606
-0.178781
-0.213094
-0.253667
-0.302835
-0.35867
-0.414
-0.454455
-0.474868
-0.480607
-0.477726
-0.472248
-0.476485
-0.0263164
-0.0425735
-0.0633151
-0.0896643
-0.109594
-0.128521
-0.150492
-0.17943
-0.213047
-0.253425
-0.296875
-0.344291
-0.391166
-0.434428
-0.46977
-0.495549
-0.512601
-0.52361
-0.531601
-0.541372
-0.0140504
-0.0370137
-0.0577294
-0.0841101
-0.110051
-0.138744
-0.168656
-0.203349
-0.239288
-0.27791
-0.317906
-0.359886
-0.401808
-0.441516
-0.476891
-0.506924
-0.531611
-0.551892
-0.569683
-0.586412
-0.0281856
-0.0473357
-0.0606473
-0.0946352
-0.121821
-0.152219
-0.185713
-0.219253
-0.250633
-0.28062
-0.309992
-0.339318
-0.366704
-0.389512
-0.406645
-0.417212
-0.425251
-0.433713
-0.440659
-0.450763
-0.0263948
-0.053133
-0.0693324
-0.108501
-0.135736
-0.156667
-0.173824
-0.187491
-0.201038
-0.219608
-0.246696
-0.280146
-0.315282
-0.348697
-0.377986
-0.402835
-0.423839
-0.44202
-0.458002
-0.472198
-0.00254257
-0.00724515
-0.0146561
-0.020675
-0.0264498
-0.0331605
-0.0444608
-0.0547859
-0.0623493
-0.0652502
-0.0654086
-0.062601
-0.0623165
-0.068697
-0.0811791
-0.092991
-0.0912862
-0.0717427
-0.0508603
-0.0363473
-0.00412558
-0.00848385
-0.00961547
-0.0128235
-0.0212321
-0.0279812
-0.0370198
-0.0393741
-0.0423657
-0.0431857
-0.0474384
-0.0544722
-0.064192
-0.074562
-0.0846952
-0.092527
-0.0966758
-0.099262
-0.105126
-0.110232
-0.00511674
-0.00743126
-0.00752022
-0.00801118
-0.0105998
-0.0139089
-0.0180338
-0.02101
-0.0259672
-0.0334181
-0.0439344
-0.0554419
-0.0684113
-0.0820039
-0.0959485
-0.107078
-0.115954
-0.123285
-0.126215
-0.122256
-0.0200646
-0.0303132
-0.0321387
-0.0251249
-0.0209699
-0.0212542
-0.02691
-0.0278951
-0.0337405
-0.0387274
-0.0463006
-0.0516467
-0.057606
-0.0645029
-0.0727922
-0.0786852
-0.0844436
-0.0874838
-0.0863404
-0.0839745
-0.0164751
-0.00668007
-0.00718117
-0.0170576
-0.0161432
-0.0225871
-0.0311554
-0.0369005
-0.0471886
-0.0548198
-0.064461
-0.0691152
-0.0743509
-0.076978
-0.079917
-0.0768891
-0.0708164
-0.0627458
-0.0557593
-0.0523013
-0.00429759
-0.00640585
-0.00719467
-0.0147726
-0.0139569
-0.0211506
-0.0231781
-0.0255425
-0.0313451
-0.0397069
-0.0516888
-0.065576
-0.0833432
-0.0975531
-0.102041
-0.090798
-0.0703759
-0.0530155
-0.0423177
-0.0380548
-0.0122789
-0.0109646
-0.00680619
-0.00807501
-0.0108824
-0.0139529
-0.0181777
-0.024529
-0.0324573
-0.0431335
-0.0580752
-0.0755589
-0.0912876
-0.0973483
-0.0875509
-0.0680974
-0.0489983
-0.0360203
-0.0289175
-0.0274511
-0.0090727
-0.00915788
-0.00841237
-0.00969708
-0.0124958
-0.016137
-0.0216308
-0.0228365
-0.0272324
-0.0358587
-0.0504733
-0.0713833
-0.0946688
-0.109255
-0.0679696
-0.0462449
-0.0303095
-0.0221781
-0.0191241
-0.0202115
-0.00268028
-0.00740613
-0.00913029
-0.0103187
-0.0124477
-0.0147095
-0.0178103
-0.0291281
-0.0321622
-0.0321524
-0.0411023
-0.0619377
-0.0882244
-0.105008
-0.0869663
-0.0383066
-0.0250924
-0.0186354
-0.0175594
-0.0206164
-0.00528072
-0.0180685
-0.017001
-0.0115387
-0.0121355
-0.0152251
-0.0230536
-0.0490411
-0.0458577
-0.0301685
-0.036884
-0.0560102
-0.0679005
-0.0727744
-0.0670888
-0.0415699
-0.0329865
-0.0275977
-0.0260664
-0.0278366
-0.0125264
-0.019644
-0.0158642
-0.0141281
-0.0148841
-0.0158517
-0.0178883
-0.0303497
-0.0618614
-0.0702865
-0.0628052
-0.044326
-0.0347796
-0.0369406
-0.0501955
-0.0481928
-0.0488197
-0.0482621
-0.0461979
-0.0445054
-0.0316745
-0.0365323
-0.0252973
-0.0213733
-0.0215721
-0.024552
-0.0329302
-0.0470483
-0.0627346
-0.0705508
-0.0798166
-0.0743677
-0.0443449
-0.0290595
-0.039564
-0.0476226
-0.0526942
-0.0573002
-0.0610297
-0.0648709
-0.0272533
-0.0253719
-0.0429781
-0.0414733
-0.0365565
-0.0294322
-0.0257195
-0.0255498
-0.0365347
-0.0560859
-0.0669664
-0.0675582
-0.0603317
-0.0496603
-0.0481548
-0.0509592
-0.0573376
-0.0687429
-0.0849226
-0.0925699
-0.0235755
-0.0181994
-0.0388069
-0.0516089
-0.0508276
-0.0351191
-0.0263951
-0.0293754
-0.0401352
-0.0543116
-0.0703449
-0.0829147
-0.0817798
-0.0740788
-0.0707241
-0.0756624
-0.0860692
-0.0953924
-0.0965642
-0.0856194
-0.020037
-0.0109511
-0.015039
-0.0239875
-0.0274879
-0.021148
-0.0215182
-0.0263769
-0.0374751
-0.0535309
-0.0763753
-0.101323
-0.11168
-0.0974745
-0.0764244
-0.0656777
-0.0615049
-0.0595821
-0.0573228
-0.0552119
-0.00317222
-0.008407
-0.00980332
-0.0131534
-0.0163312
-0.0183874
-0.0240444
-0.0353057
-0.0515418
-0.0724066
-0.0973438
-0.115287
-0.126525
-0.118932
-0.100286
-0.0813764
-0.064685
-0.0537097
-0.0483292
-0.0472596
-0.00856435
-0.0276221
-0.035986
-0.0325106
-0.0334734
-0.0394498
-0.0529049
-0.0702983
-0.0908678
-0.109135
-0.126013
-0.135351
-0.14053
-0.138667
-0.135168
-0.128434
-0.117265
-0.103468
-0.092782
-0.0910246
-0.00202806
-0.00834231
-0.0162549
-0.0284844
-0.0432907
-0.0519575
-0.0673727
-0.0804486
-0.100203
-0.116489
-0.133384
-0.1418
-0.145597
-0.143274
-0.141091
-0.140665
-0.141878
-0.144811
-0.14939
-0.158878
-0.00955888
-0.0100381
-0.0130139
-0.0204733
-0.0301501
-0.0398944
-0.0566499
-0.0747739
-0.0980999
-0.114001
-0.124083
-0.120372
-0.107641
-0.0857238
-0.0643418
-0.0485212
-0.0401043
-0.0372094
-0.0384271
-0.0441103
-0.032557
-0.0213839
-0.00949649
-0.0215019
-0.0395444
-0.0451173
-0.0470174
-0.042767
-0.0432355
-0.0439937
-0.0481516
-0.0508582
-0.0538035
-0.0554486
-0.0570259
-0.0593566
-0.0618579
-0.0637812
-0.0622756
-0.0609581
-0.00227029
-0.00597025
-0.00974337
-0.0123624
-0.0162784
-0.020672
-0.0265499
-0.0297953
-0.0319066
-0.0329666
-0.0348096
-0.0372087
-0.0409201
-0.0450359
-0.0484488
-0.0482315
-0.0411257
-0.0299579
-0.0213301
-0.0162084
-0.00106361
-0.00223159
-0.00493546
-0.00876611
-0.0139798
-0.017223
-0.0208604
-0.0224738
-0.0250499
-0.0274454
-0.0308885
-0.0341086
-0.037668
-0.040399
-0.0423205
-0.042394
-0.040815
-0.0385975
-0.0372167
-0.0351324
-0.00469694
-0.0032067
-0.00298887
-0.00443001
-0.0070881
-0.00925986
-0.0118286
-0.0140945
-0.0174419
-0.0209166
-0.0251021
-0.0291451
-0.0336613
-0.0377532
-0.0413508
-0.0430621
-0.0434221
-0.0429121
-0.0410461
-0.0380865
-0.0158642
-0.0129154
-0.00979801
-0.00755871
-0.00832595
-0.0100004
-0.0124689
-0.0142932
-0.0169866
-0.0187139
-0.0203822
-0.021323
-0.0223642
-0.0234647
-0.0247699
-0.0254077
-0.0259356
-0.0260669
-0.0259832
-0.0262519
-0.0144717
-0.00600558
-0.00505167
-0.00668831
-0.00843399
-0.0111819
-0.0153351
-0.0181392
-0.0223527
-0.0244827
-0.0268116
-0.0268746
-0.0268116
-0.0254454
-0.0239604
-0.0217154
-0.0198494
-0.0185866
-0.0181763
-0.0184429
-0.00876118
-0.00598613
-0.00515074
-0.00639346
-0.00820329
-0.0113171
-0.0153575
-0.0182545
-0.0230035
-0.0268636
-0.0315649
-0.0344559
-0.0364176
-0.0350938
-0.0307129
-0.0241937
-0.0185557
-0.015331
-0.0140384
-0.0138674
-0.00987971
-0.00473233
-0.00429323
-0.00539531
-0.00738959
-0.0108069
-0.0154506
-0.0208101
-0.0268195
-0.0314965
-0.0353814
-0.0372347
-0.0359766
-0.0313173
-0.0240947
-0.0176143
-0.0135933
-0.0118258
-0.0115243
-0.0122077
-0.00280025
-0.00520658
-0.00610407
-0.00645956
-0.00772009
-0.0111103
-0.0129255
-0.0195862
-0.0250095
-0.0312699
-0.0370485
-0.0426149
-0.0443103
-0.0394412
-0.0182752
-0.0128727
-0.0106941
-0.0105799
-0.0115571
-0.0132227
-0.00237548
-0.00417403
-0.00411746
-0.00524662
-0.00697377
-0.00845643
-0.0102927
-0.0131174
-0.0171841
-0.0239871
-0.0329527
-0.0411808
-0.0467023
-0.0442156
-0.0242276
-0.0117364
-0.0111048
-0.0121994
-0.0140185
-0.0160832
-0.00290524
-0.00779372
-0.00799478
-0.00846109
-0.00868172
-0.00905565
-0.0107434
-0.0158206
-0.0157904
-0.0164674
-0.0218865
-0.027541
-0.0317003
-0.0351009
-0.0262966
-0.017204
-0.0167422
-0.0172951
-0.0183279
-0.0196464
-0.0138124
-0.00968844
-0.00879602
-0.00912007
-0.00981831
-0.0102443
-0.0113231
-0.0173983
-0.0222392
-0.0227879
-0.0197457
-0.0170112
-0.0189546
-0.025525
-0.0304924
-0.0327187
-0.0333136
-0.0316816
-0.0293006
-0.0275919
-0.0102176
-0.0212512
-0.0143068
-0.0119929
-0.0117774
-0.012007
-0.0140252
-0.0179503
-0.0230753
-0.0294145
-0.0309118
-0.0263976
-0.0231358
-0.025744
-0.0348524
-0.0438029
-0.0458228
-0.0442648
-0.0406845
-0.0371699
-0.00267928
-0.0143626
-0.0216142
-0.0217185
-0.0171953
-0.015223
-0.0149316
-0.0182857
-0.0258462
-0.0334362
-0.0375448
-0.0394652
-0.0402807
-0.0403245
-0.0464391
-0.0499312
-0.0523235
-0.0528673
-0.0510468
-0.0452333
-0.0187375
-0.0209488
-0.0337743
-0.0284847
-0.0215447
-0.0167905
-0.0173625
-0.0226606
-0.0289476
-0.034575
-0.0385394
-0.0404721
-0.0403507
-0.0408781
-0.0433327
-0.045601
-0.0464547
-0.0448614
-0.0406525
-0.0353986
-0.00617213
-0.00755164
-0.0134367
-0.015956
-0.0146539
-0.0146639
-0.0179588
-0.0234048
-0.0303582
-0.0372122
-0.0434731
-0.0469792
-0.0446226
-0.0375327
-0.0323341
-0.0302496
-0.0296436
-0.0292995
-0.0291268
-0.0297424
-0.00305289
-0.00626206
-0.0102818
-0.0128376
-0.0145405
-0.018074
-0.0228523
-0.0301985
-0.0384915
-0.0458076
-0.0522058
-0.0526901
-0.0502777
-0.0431643
-0.0360078
-0.0310142
-0.0283551
-0.0278784
-0.0291585
-0.0320169
-0.0115271
-0.0182416
-0.019588
-0.018665
-0.0216066
-0.0256333
-0.0323582
-0.039633
-0.0493744
-0.0555044
-0.0602276
-0.0594249
-0.0570576
-0.0528123
-0.0494894
-0.0466557
-0.0443873
-0.0434498
-0.0446418
-0.0479646
-0.00390144
-0.00543491
-0.00854644
-0.0148848
-0.0219488
-0.0256093
-0.0336522
-0.040254
-0.0512098
-0.0574871
-0.0623751
-0.0607487
-0.0575604
-0.0531953
-0.0512422
-0.051882
-0.0546187
-0.0588668
-0.0639289
-0.0704016
-0.00377172
-0.00714029
-0.0117022
-0.0156908
-0.0208825
-0.026455
-0.0357111
-0.0435769
-0.0521917
-0.0542155
-0.0528397
-0.0450234
-0.0360289
-0.0272866
-0.0219578
-0.0198978
-0.0203484
-0.0227084
-0.0267026
-0.0326504
-0.00154761
-0.00690597
-0.00710501
-0.00895286
-0.0150058
-0.0176581
-0.0211791
-0.0222933
-0.0239934
-0.0245878
-0.0250585
-0.0246288
-0.0240028
-0.0230176
-0.0221539
-0.021494
-0.0210942
-0.0207384
-0.0201545
-0.0200733
-0.00322187
-0.00469091
-0.00631832
-0.00797937
-0.0109072
-0.0131874
-0.0163886
-0.0182032
-0.0203658
-0.0222041
-0.024041
-0.0249465
-0.0253513
-0.024756
-0.0233354
-0.0202783
-0.0158948
-0.0119813
-0.00991705
-0.00930167
-0.00328373
-0.00379253
-0.0055334
-0.00771165
-0.0104417
-0.0120627
-0.0141834
-0.0151369
-0.0163654
-0.0167216
-0.0172498
-0.0173321
-0.0172845
-0.0166642
-0.0157355
-0.0144961
-0.0135164
-0.013084
-0.0135547
-0.0145417
-0.00727831
-0.00363135
-0.00271902
-0.00432497
-0.00641604
-0.00782667
-0.00949478
-0.0107013
-0.0120603
-0.0130158
-0.0139949
-0.0146979
-0.0153906
-0.0157051
-0.0159259
-0.0158233
-0.0158366
-0.0161674
-0.016654
-0.0173876
-0.0312276
-0.0120689
-0.00443678
-0.00504203
-0.00628192
-0.00737367
-0.00872217
-0.00959678
-0.0105207
-0.0108805
-0.011096
-0.0111062
-0.011155
-0.0112792
-0.0115773
-0.0118881
-0.0123891
-0.013034
-0.0138071
-0.0146564
-0.0119014
-0.00627401
-0.0047556
-0.00574894
-0.00714457
-0.00872099
-0.0109786
-0.0118594
-0.0130653
-0.0129093
-0.0127518
-0.0118545
-0.0111511
-0.0104367
-0.0100485
-0.00985705
-0.00997684
-0.010323
-0.0108559
-0.0114475
-0.00133518
-0.00319005
-0.00461027
-0.00636679
-0.00855388
-0.0108744
-0.013592
-0.0145014
-0.0158737
-0.0157392
-0.0154708
-0.0142586
-0.012979
-0.0113688
-0.00987102
-0.00875783
-0.0083297
-0.00847379
-0.00894452
-0.00958114
-0.00356003
-0.00370302
-0.00430299
-0.00547381
-0.00763978
-0.0111043
-0.0134285
-0.0153555
-0.0157929
-0.0157523
-0.0146334
-0.013378
-0.0114752
-0.00968114
-0.00826421
-0.00763809
-0.00772081
-0.00826303
-0.00909876
-0.0101591
-0.00265599
-0.00349992
-0.00442994
-0.00535583
-0.00704871
-0.0107482
-0.0118793
-0.015238
-0.0160789
-0.0165332
-0.0160189
-0.015102
-0.0129407
-0.0102514
-0.0074059
-0.00750397
-0.00803429
-0.00878765
-0.00966236
-0.0106474
-0.000581075
-0.00140412
-0.00220413
-0.00378029
-0.00571711
-0.00788565
-0.00995976
-0.0109945
-0.0133586
-0.0150044
-0.016082
-0.0153598
-0.0131718
-0.010077
-0.00738007
-0.0084881
-0.00921153
-0.00989523
-0.0105291
-0.0111855
-0.00422532
-0.00713854
-0.00640887
-0.00685503
-0.00740137
-0.00781296
-0.00891894
-0.0103952
-0.0114882
-0.0122863
-0.0131396
-0.0127775
-0.0118029
-0.0106244
-0.00959012
-0.0121684
-0.0130303
-0.0137712
-0.0145075
-0.0152364
-0.00803409
-0.00496274
-0.00646331
-0.0075855
-0.00846928
-0.00897273
-0.0101107
-0.0126052
-0.0156639
-0.0163011
-0.0140435
-0.0123586
-0.0130777
-0.0152904
-0.0181316
-0.020691
-0.0200847
-0.019174
-0.0187504
-0.0189382
-0.00283149
-0.00667963
-0.00774979
-0.00949212
-0.0103099
-0.010603
-0.0115279
-0.0139165
-0.0182482
-0.022088
-0.0234039
-0.0219503
-0.0207905
-0.0234703
-0.0329599
-0.0339026
-0.0294826
-0.0247932
-0.0214668
-0.0196594
-0.00590716
-0.00885892
-0.0124836
-0.0125277
-0.0111259
-0.0114564
-0.012145
-0.0157751
-0.0192337
-0.0221122
-0.0248075
-0.0292267
-0.034106
-0.0396689
-0.0401152
-0.0387627
-0.035116
-0.0303361
-0.0253741
-0.0208058
-0.00672356
-0.0136351
-0.0188099
-0.0146337
-0.0118667
-0.0125222
-0.0142485
-0.0171487
-0.0189375
-0.0200888
-0.0209963
-0.0214582
-0.0223903
-0.0231851
-0.0241718
-0.0238473
-0.0225274
-0.0204772
-0.0183155
-0.016654
-0.00582292
-0.0100885
-0.0108133
-0.0102658
-0.0107609
-0.0130345
-0.0155999
-0.0184967
-0.0205523
-0.0215084
-0.0218501
-0.0214068
-0.0199918
-0.0181601
-0.0171255
-0.0166391
-0.0164902
-0.0164334
-0.0165004
-0.0167647
-0.0027609
-0.00528158
-0.00833838
-0.0105084
-0.0123315
-0.0151488
-0.0181146
-0.021142
-0.0237015
-0.0243625
-0.0247559
-0.0232124
-0.0218716
-0.0203082
-0.0194138
-0.0190948
-0.0191288
-0.0194687
-0.0200337
-0.0207205
-0.00759754
-0.0111438
-0.0131872
-0.013656
-0.0148906
-0.0163814
-0.0197397
-0.0222872
-0.0257878
-0.0263497
-0.0268101
-0.0255813
-0.0249983
-0.0245971
-0.0248987
-0.0253842
-0.0258611
-0.0262435
-0.0265543
-0.0268103
-0.00224529
-0.00618378
-0.00972588
-0.0127487
-0.0150023
-0.0160604
-0.0195721
-0.0217302
-0.0254963
-0.0257977
-0.0262633
-0.0249316
-0.024712
-0.0251941
-0.0270057
-0.0294215
-0.031881
-0.0339742
-0.0354423
-0.0363989
-0.00309949
-0.00710537
-0.0119982
-0.0154165
-0.0182037
-0.020292
-0.0228987
-0.022383
-0.0225756
-0.0197637
-0.0178117
-0.0150949
-0.0137393
-0.0135286
-0.0144818
-0.016246
-0.0185764
-0.02143
-0.0248102
-0.0289046
-0.00141525
-0.00438849
-0.00695604
-0.00976689
-0.0130144
-0.0144882
-0.0163004
-0.0164993
-0.0167206
-0.0161402
-0.0156567
-0.0148662
-0.0141599
-0.0133989
-0.0127803
-0.0123162
-0.0121225
-0.0122735
-0.0129546
-0.0145159
-0.00590469
-0.00427615
-0.00587924
-0.00673478
-0.00854283
-0.00974153
-0.0116062
-0.0125007
-0.0134458
-0.0133387
-0.0128479
-0.0115621
-0.0103051
-0.00917649
-0.00860633
-0.00845964
-0.00888515
-0.00987416
-0.0112191
-0.0126036
-0.00602307
-0.00402491
-0.00532096
-0.00693668
-0.00865482
-0.00956812
-0.0103223
-0.0101372
-0.00985946
-0.0092509
-0.00879083
-0.00849918
-0.00855613
-0.00888669
-0.00944448
-0.0101251
-0.0108725
-0.0116358
-0.0123854
-0.0130723
-0.0148476
-0.00497728
-0.00384724
-0.00515448
-0.00652525
-0.00742133
-0.00800496
-0.00810463
-0.00815347
-0.00820688
-0.00846343
-0.00887649
-0.00943798
-0.0100183
-0.0106187
-0.0111547
-0.0116373
-0.0120592
-0.0124092
-0.0126899
-0.0367204
-0.015044
-0.00516232
-0.00509135
-0.00609605
-0.00680196
-0.00721654
-0.00734021
-0.0074586
-0.0076204
-0.00794862
-0.00840931
-0.00895705
-0.00953161
-0.0100795
-0.0105565
-0.0109602
-0.0112873
-0.0115686
-0.0118039
-0.012439
-0.00831763
-0.00492882
-0.0055918
-0.00663755
-0.00732051
-0.00763923
-0.0075055
-0.00739441
-0.00727253
-0.00739537
-0.00770262
-0.00816335
-0.00871451
-0.00927389
-0.00980802
-0.0102886
-0.0107094
-0.0110831
-0.0113842
-0.000263581
-0.00202019
-0.00422215
-0.00618785
-0.00739224
-0.00805539
-0.00785592
-0.00759791
-0.00730554
-0.00706458
-0.00709521
-0.00731613
-0.00772539
-0.00824969
-0.00884337
-0.00948116
-0.0101193
-0.0107275
-0.0112954
-0.0117643
-0.00104656
-0.00223789
-0.00360396
-0.00531365
-0.00667123
-0.00745912
-0.00702236
-0.00700568
-0.00665371
-0.00671879
-0.00680194
-0.00712909
-0.00755341
-0.00811957
-0.00879196
-0.00952716
-0.0102804
-0.0110322
-0.0117652
-0.0123912
-0.000916492
-0.00254775
-0.00367194
-0.00492574
-0.0060199
-0.00714968
-0.00675432
-0.00716754
-0.00649553
-0.00653034
-0.00634785
-0.00653371
-0.00682901
-0.00734351
-0.00882663
-0.00948971
-0.0101568
-0.0108066
-0.0114272
-0.0119384
-0.000736536
-0.0011285
-0.00190266
-0.00336538
-0.00503925
-0.0064343
-0.00677253
-0.0067538
-0.00628696
-0.00592345
-0.00579907
-0.00597843
-0.00643672
-0.00697566
-0.00800123
-0.00955371
-0.0100477
-0.0105013
-0.0109137
-0.0112494
-0.00298767
-0.0056961
-0.0043378
-0.00474147
-0.00618217
-0.00677387
-0.00747724
-0.00837132
-0.00766562
-0.0066197
-0.00607277
-0.00645111
-0.00748742
-0.00847339
-0.0098646
-0.0111941
-0.0114735
-0.0115932
-0.0116473
-0.0117156
-0.00201727
-0.00524566
-0.00615518
-0.00689702
-0.00768868
-0.00827713
-0.00957448
-0.0115885
-0.012479
-0.01128
-0.00953432
-0.00925102
-0.0105078
-0.0116163
-0.0124971
-0.0126841
-0.0128751
-0.0128746
-0.0128288
-0.0128647
-0.00159048
-0.00496564
-0.00768935
-0.0091219
-0.00940954
-0.00974103
-0.0103704
-0.0117164
-0.0131854
-0.0148034
-0.0151637
-0.0153625
-0.0167417
-0.0182597
-0.015817
-0.0129709
-0.0123806
-0.0119551
-0.0117365
-0.0116981
-0.00251381
-0.00760646
-0.00930852
-0.00940938
-0.00948707
-0.00980811
-0.0101015
-0.0114503
-0.0121841
-0.0135777
-0.0153725
-0.0182277
-0.0205829
-0.0216451
-0.0151602
-0.0140755
-0.0128799
-0.011801
-0.0110007
-0.0105436
-0.00448802
-0.00948343
-0.00975764
-0.00933598
-0.00921874
-0.0098533
-0.0102919
-0.0107095
-0.0109199
-0.0110135
-0.0111761
-0.0111043
-0.0111221
-0.0109884
-0.0108959
-0.0106431
-0.0103531
-0.0101087
-0.0100057
-0.0100906
-0.0113569
-0.00800255
-0.00730645
-0.00824392
-0.00925456
-0.0103613
-0.0109066
-0.0113823
-0.0114023
-0.011329
-0.0112042
-0.0109789
-0.0106024
-0.010156
-0.00984256
-0.00965554
-0.0095945
-0.00964638
-0.00981431
-0.0100887
-0.010565
-0.0130334
-0.00931274
-0.00936663
-0.010328
-0.0112615
-0.0119331
-0.0123249
-0.0125008
-0.0123762
-0.012316
-0.0120018
-0.0117357
-0.0113828
-0.0110493
-0.0107162
-0.0104724
-0.0103879
-0.0104692
-0.0107075
-0.00566261
-0.00953941
-0.00932704
-0.00958927
-0.0102017
-0.0111218
-0.0121859
-0.012712
-0.0134881
-0.0135908
-0.0139071
-0.0138763
-0.0138484
-0.0136328
-0.0133418
-0.0129097
-0.0124293
-0.0120236
-0.0118197
-0.0118604
-0.00515003
-0.00879298
-0.00925797
-0.00909171
-0.00941504
-0.010095
-0.0113444
-0.0118764
-0.0131045
-0.0136473
-0.0147041
-0.0154391
-0.0162193
-0.0167171
-0.0170272
-0.0170255
-0.0167916
-0.0164073
-0.0160255
-0.015751
-0.00453449
-0.00868097
-0.0109511
-0.0120526
-0.0118992
-0.0112527
-0.0107203
-0.00949291
-0.00954291
-0.00978432
-0.0110025
-0.0126665
-0.0147622
-0.0170426
-0.019372
-0.0216296
-0.0237272
-0.0256288
-0.027335
-0.0287879
-0.00177341
-0.00350985
-0.00579281
-0.00952079
-0.011637
-0.0119242
-0.0119708
-0.0110566
-0.0103317
-0.009198
-0.00849368
-0.0079797
-0.00817419
-0.00909469
-0.0109527
-0.0137067
-0.0171924
-0.0211863
-0.0253177
-0.0293332
-0.0202953
-0.0201445
-0.0185921
-0.0146086
-0.0161937
-0.0155794
-0.0145224
-0.0263266
-0.0181267
-0.0175522
-0.0166518
-0.017523
-0.0142509
-0.0140432
-0.020812
-0.0284307
-0.0287361
-0.0175049
-0.0158586
-0.0237278
-0.0233857
-0.0173461
-0.0279003
-0.0238611
-0.0152935
-0.0143988
-0.0228811
-0.0209235
-0.117763
-0.12392
-0.123519
-0.105226
-0.100844
-0.111117
-0.117272
-0.106911
-0.122945
-0.118347
-0.0990343
-0.0908702
-0.118646
-0.116657
-0.0983239
-0.115965
-0.108775
-0.0888187
-0.081785
-0.113074
-0.099116
-0.100248
-0.106857
-0.102888
-0.0790748
-0.078782
-0.0952139
-0.0901422
-0.111487
-0.102191
-0.101592
-0.0826117
-0.0992779
-0.0910317
-0.0969131
-0.121929
-0.101563
-0.100261
-0.105798
-0.12187
-0.0990146
-0.103349
-0.128519
-0.099209
-0.0955098
-0.125646
-0.133849
-0.104283
-0.1073
-0.137857
-0.0947614
-0.0963136
-0.135791
-0.138473
-0.10847
-0.110021
-0.124015
-0.102853
-0.101227
-0.104687
-0.116787
-0.0821778
-0.0904987
-0.121998
-0.10439
-0.117822
-0.118983
-0.120737
-0.0956083
-0.116079
-0.113901
-0.121094
-0.122929
-0.118859
-0.10564
-0.121715
-0.126359
-0.10611
-0.121404
-0.113225
-0.101189
-0.0948044
-0.124162
-0.111474
-0.101853
-0.109988
-0.100727
-0.0951732
-0.0983532
-0.106847
-0.0956738
-0.0983231
-0.0978672
-0.0899714
-0.0991824
-0.100072
-0.0927561
-0.0833206
-0.0921091
-0.0875611
-0.0811518
-0.100069
-0.100665
-0.0800613
-0.0736404
-0.0899954
-0.079314
-0.0746735
-0.101225
-0.101971
-0.0733292
-0.075488
-0.0918755
-0.0837908
-0.095276
-0.0715408
-0.0807943
-0.0789715
-0.0883402
-0.115818
-0.1026
-0.128593
-0.0870843
-0.114105
-0.0962584
-0.130232
-0.126535
-0.135315
-0.147646
-0.122269
-0.133444
-0.139597
-0.153901
-0.118666
-0.149815
-0.147587
-0.13288
-0.12149
-0.154768
-0.146687
-0.102027
-0.143109
-0.121722
-0.115833
-0.0988492
-0.140818
-0.117425
-0.0879963
-0.113697
-0.0925372
-0.0935629
-0.0774054
-0.108449
-0.0800285
-0.0779185
-0.0869773
-0.0744721
-0.0727138
-0.0644436
-0.0712795
-0.0529465
-0.0706147
-0.0713233
-0.064119
-0.0640887
-0.06769
-0.050044
-0.0512145
-0.11881
-0.121375
-0.132165
-0.100728
-0.111248
-0.111392
-0.113383
-0.143808
-0.136045
-0.147172
-0.119325
-0.143458
-0.115354
-0.135996
-0.153868
-0.150753
-0.161906
-0.148996
-0.157808
-0.143772
-0.160323
-0.15323
-0.166359
-0.180351
-0.158394
-0.150261
-0.164722
-0.174209
-0.128581
-0.184065
-0.185855
-0.145112
-0.124656
-0.176363
-0.173049
-0.0986038
-0.183691
-0.171459
-0.116311
-0.0884187
-0.168527
-0.146199
-0.0779341
-0.163906
-0.136046
-0.0788963
-0.0561948
-0.135118
-0.0977344
-0.0654082
-0.1251
-0.0972633
-0.0515691
-0.0483717
-0.0858538
-0.0606559
-0.0265031
-0.0219387
-0.0387385
-0.0162469
-0.0192902
-0.0180082
-0.0215997
-0.0317924
-0.0434263
-0.0417244
-0.0201365
-0.0220482
-0.0221048
-0.0217263
-0.0319828
-0.0381856
-0.0308845
-0.0227701
-0.0262024
-0.0215609
-0.0227898
-0.0373927
-0.030419
-0.0345249
-0.0282781
-0.0366968
-0.02391
-0.0288349
-0.0556309
-0.0375759
-0.0507873
-0.0400507
-0.049315
-0.0307542
-0.0363632
-0.0815742
-0.0559011
-0.0695174
-0.0524591
-0.0601533
-0.0381075
-0.042984
-0.102102
-0.073078
-0.0808296
-0.0619575
-0.0635063
-0.0444538
-0.0475441
-0.105894
-0.0828736
-0.0863035
-0.0624055
-0.054077
-0.0478326
-0.0452777
-0.0429214
-0.019225
-0.0287866
-0.0187375
-0.022639
-0.0167081
-0.0221528
-0.0507746
-0.0366799
-0.0592805
-0.0232755
-0.0227025
-0.0238619
-0.0271027
-0.0319699
-0.0620621
-0.0584525
-0.022142
-0.0218619
-0.0271782
-0.0259818
-0.0333949
-0.0568406
-0.0498678
-0.0224659
-0.0261051
-0.0253765
-0.0231412
-0.0512487
-0.0483027
-0.0451586
-0.0277007
-0.0324978
-0.0225794
-0.0217668
-0.0660357
-0.0444021
-0.0426056
-0.0339726
-0.0380644
-0.0218835
-0.0236843
-0.0713873
-0.0422525
-0.0430854
-0.0394005
-0.0429033
-0.0247996
-0.0298097
-0.0772263
-0.0444177
-0.0529923
-0.0436412
-0.0432365
-0.0318634
-0.0371556
-0.0237309
-0.0196068
-0.0315996
-0.0172408
-0.0212106
-0.0178799
-0.0210993
-0.0561429
-0.0391118
-0.0632892
-0.0229598
-0.0274823
-0.022712
-0.0277386
-0.0690329
-0.0680821
-0.0758501
-0.028144
-0.0285896
-0.0292673
-0.0338409
-0.0665269
-0.0784215
-0.0835337
-0.0283565
-0.0257833
-0.0350145
-0.0349804
-0.048621
-0.0838886
-0.0732812
-0.0244732
-0.0208092
-0.0337152
-0.0276367
-0.0359536
-0.0658512
-0.0421325
-0.0202225
-0.0206794
-0.025535
-0.0215531
-0.0353588
-0.0362569
-0.0276338
-0.0215681
-0.0264492
-0.0212571
-0.0235187
-0.0470531
-0.0275493
-0.0359539
-0.0287011
-0.0354299
-0.0252412
-0.0324767
-0.0431359
-0.0268271
-0.0244965
-0.0206011
-0.0221187
-0.0209592
-0.0220711
-0.0596321
-0.0245718
-0.0321165
-0.0232207
-0.0275445
-0.0230736
-0.0287257
-0.0685784
-0.0377412
-0.052009
-0.0293031
-0.0352798
-0.0315711
-0.0416146
-0.0768064
-0.0570913
-0.068943
-0.0369822
-0.0384866
-0.0453111
-0.0527364
-0.0793122
-0.072941
-0.0788669
-0.0377314
-0.0324417
-0.0540062
-0.0529406
-0.0515361
-0.0780096
-0.0679539
-0.0301932
-0.0248426
-0.0513772
-0.0449481
-0.0306745
-0.0634329
-0.0494464
-0.0239507
-0.0245116
-0.0424874
-0.0363761
-0.0335756
-0.0452288
-0.0373037
-0.0257307
-0.0318682
-0.0350942
-0.0345349
-0.0124392
-0.0100799
-0.0136777
-0.0105588
-0.0120117
-0.00969516
-0.0106263
-0.0159763
-0.0145057
-0.0148764
-0.0128547
-0.0168116
-0.0109619
-0.0125006
-0.0219096
-0.0148515
-0.0165296
-0.0179071
-0.0203984
-0.0132103
-0.0155553
-0.0306806
-0.0177544
-0.0227259
-0.0214085
-0.0239337
-0.0163025
-0.0181051
-0.039137
-0.0245651
-0.0296725
-0.0244027
-0.0245392
-0.0185274
-0.0190681
-0.0457611
-0.0311305
-0.0348978
-0.0243917
-0.0229824
-0.019034
-0.0182752
-0.0458111
-0.0359993
-0.0379545
-0.0219791
-0.0179876
-0.0178393
-0.0157775
-0.0354961
-0.0378688
-0.0342239
-0.0164397
-0.0124331
-0.0149146
-0.0121468
-0.0147949
-0.0110355
-0.0154875
-0.00992011
-0.0107779
-0.0105684
-0.012256
-0.016173
-0.0174714
-0.0209177
-0.0111073
-0.0121926
-0.0128686
-0.0147639
-0.0157748
-0.0211511
-0.0208341
-0.0126108
-0.0140735
-0.0152981
-0.0158227
-0.0149496
-0.0174884
-0.0165897
-0.0150997
-0.0169631
-0.0160047
-0.0145538
-0.0178193
-0.0234707
-0.0196111
-0.0192496
-0.0207372
-0.0203309
-0.016999
-0.0306691
-0.0177431
-0.0197068
-0.017615
-0.0173299
-0.0142662
-0.015291
-0.0345616
-0.0208562
-0.025593
-0.0170931
-0.0158642
-0.015723
-0.0170393
-0.0336937
-0.0274082
-0.0314869
-0.0152662
-0.013038
-0.0173612
-0.0175935
-0.0154825
-0.0122194
-0.0165547
-0.0110455
-0.0124734
-0.0113065
-0.0131096
-0.0215635
-0.0180114
-0.0219875
-0.0131878
-0.0157345
-0.0140856
-0.0181442
-0.023328
-0.0233082
-0.0273854
-0.0165546
-0.0177681
-0.019678
-0.0232068
-0.0218819
-0.0225359
-0.0256375
-0.0196345
-0.0255439
-0.0196082
-0.0220174
-0.0185724
-0.0187385
-0.0226839
-0.0176154
-0.0212336
-0.0169133
-0.0195679
-0.0179761
-0.0225365
-0.0204269
-0.0144058
-0.0152227
-0.0202805
-0.0191946
-0.023584
-0.0205139
-0.0231807
-0.0157295
-0.0176502
-0.0192878
-0.0212938
-0.030824
-0.0247908
-0.0310277
-0.0183043
-0.0197643
-0.0225062
-0.0269871
-0.0169546
-0.0141443
-0.0155467
-0.012516
-0.0138685
-0.0130736
-0.0148766
-0.0215505
-0.0164015
-0.0215231
-0.0147742
-0.0190152
-0.0162749
-0.0223452
-0.0280223
-0.0238283
-0.030509
-0.0207266
-0.0249459
-0.0244374
-0.0296662
-0.0311966
-0.0326974
-0.0369103
-0.0257472
-0.0262567
-0.0311603
-0.0336716
-0.0277561
-0.0377617
-0.0383881
-0.025987
-0.0243348
-0.0341208
-0.034303
-0.0234624
-0.0381446
-0.0366915
-0.0236694
-0.0221467
-0.0342595
-0.0337947
-0.0245218
-0.0360154
-0.0341481
-0.022006
-0.023314
-0.0336073
-0.033556
-0.031181
-0.0338202