/*--------------------------------*- C++ -*----------------------------------*\
  =========                 |
  \\      /  F ield         | OpenFOAM: The Open Source CFD Toolbox
   \\    /   O peration     | Website:  https://openfoam.org
    \\  /    A nd           | Version:  10
     \\/     M anipulation  |
\*---------------------------------------------------------------------------*/
FoamFile
{
    format      ascii;
    class       volVectorField;
    location    "9";
    object      U;
}
// * * * * * * * * * * * * * * * * * * * * * * * * * * * * * * * * * * * * * //

dimensions      [0 1 -1 0 0 0 0];

internalField   nonuniform List<vector> 
12920
(
(162.697 -25.5706 -44.0515)
(58.5291 8.9463 -24.9676)
(170.741 0.978873 -6.71222)
(140.569 -17.1734 0.154621)
(184.507 -10.8125 1.70054)
(185.317 -5.18845 1.02917)
(197.404 5.53444 2.30605)
(182.683 9.19213 2.79904)
(173.174 9.70519 3.72641)
(155.632 1.55548 3.1653)
(154.944 -3.03367 2.05188)
(154.718 -9.75737 1.11562)
(163.923 -12.465 -0.108121)
(176.369 -9.86787 -0.327341)
(182.253 -3.94059 0.541305)
(179.684 -1.3144 1.37271)
(166.701 4.41956 1.88982)
(147.763 7.19338 0.800901)
(140.2 7.33001 -1.04571)
(137.148 6.12149 -1.81095)
(57.262 -60.3677 48.1494)
(-52.5488 -2.96926 -8.13502)
(148.973 -84.197 0.980627)
(68.7981 -60.0398 -0.0191563)
(128.787 -45.9745 0.141614)
(110.335 -30.5234 -0.566244)
(129.715 -17.9527 0.544433)
(120.72 -10.7787 0.0832029)
(130.4 -7.37665 0.456066)
(125.241 -7.53661 -0.263911)
(128.236 -8.99483 -0.295124)
(124.027 -9.1937 -1.19831)
(124.63 -9.44245 -1.64358)
(122.167 -7.40967 -1.96016)
(125.825 -1.14252 -1.46618)
(125.562 7.60479 -0.914451)
(125.986 12.6758 -0.241568)
(124.497 12.8622 0.141174)
(124.273 11.7996 0.443175)
(124.96 8.56901 0.569388)
(101.126 -187.037 -147.557)
(33.7277 -64.9307 -34.5828)
(165.398 -87.1612 -21.003)
(123.956 -53.0054 -10.5412)
(148.115 -27.7491 -5.41358)
(126.934 -10.0357 -3.3994)
(137.715 0.507414 -1.66776)
(124.221 4.79388 -1.26412)
(127.385 4.62739 -0.682035)
(116.948 3.33368 -0.998614)
(114.991 0.924456 -0.459132)
(104.041 0.181095 -0.516845)
(100.638 -0.356952 -0.650244)
(93.619 0.666894 -0.924601)
(93.9918 1.44525 -0.714276)
(93.9337 3.94275 -0.249035)
(99.4878 6.46132 0.116407)
(101.41 7.32126 0.387067)
(104.161 7.7736 0.53396)
(107.302 6.59615 0.53758)
(246.041 -274.174 44.5783)
(249.81 -55.4868 -45.5954)
(243.588 0.185149 6.77595)
(106.216 -11.9402 11.442)
(126 -9.93919 5.57466)
(79.6582 -7.49796 0.518788)
(104.386 -2.88655 0.521533)
(85.4256 2.50098 -0.050075)
(97.7677 5.10735 0.174472)
(87.8691 7.48814 -0.0825915)
(91.3629 7.85787 0.00550399)
(84.2283 7.5996 -0.0776627)
(84.2509 5.74886 -0.0351016)
(80.3065 4.15514 0.0112041)
(81.0033 3.00184 0.0484164)
(80.5642 3.02206 0.0758637)
(83.6415 4.01969 0.163024)
(85.3874 4.97819 0.206675)
(88.085 6.54248 0.187123)
(92.6559 5.91793 0.235896)
(59.8716 -287.984 -125.892)
(-92.1373 -30.0366 4.16984)
(130.369 -31.543 -8.12376)
(38.8752 -16.1244 3.15362)
(115.098 -11.681 0.641825)
(78.7261 -0.419402 1.10316)
(105.64 -1.10219 1.04393)
(91.5839 8.23146 0.669253)
(101.133 4.59632 0.639203)
(92.0501 8.70677 0.484342)
(94.9817 5.92301 0.54504)
(88.5911 7.24443 0.351152)
(88.85 4.61001 0.254496)
(84.5156 3.9103 0.0217207)
(84.3085 1.4956 0.223382)
(82.5527 0.975309 0.245747)
(83.5748 0.669976 0.187555)
(83.165 1.23907 0.0935648)
(84.2686 3.21018 0.02713)
(88.833 4.26382 0.0142151)
(283.701 52.8423 15.7081)
(69.95 -70.1409 -1.18366)
(159.982 -47.1214 -2.01894)
(42.0409 -35.389 1.86935)
(111.171 -33.7628 -0.0385341)
(53.6226 -10.0371 1.1574)
(94.4864 -15.7577 0.414212)
(79.0919 0.268565 -0.0380851)
(93.1544 3.22588 -0.251707)
(89.394 9.0804 -0.388134)
(93.7547 9.48138 -0.196727)
(91.1643 10.7782 -0.1435)
(91.6357 8.84291 0.070163)
(88.7791 7.80534 0.29629)
(86.4809 3.84819 0.73261)
(82.1399 2.39668 0.56215)
(81.2364 2.53842 0.158748)
(79.6607 3.16552 -0.0561912)
(79.7868 4.35953 -0.122332)
(83.8176 4.6141 -0.0630013)
(366.102 -50.874 36.9005)
(-20.8298 18.1525 31.7642)
(151.241 26.5861 -11.6072)
(60.0174 0.704393 -4.24484)
(118.493 -7.11827 -2.79113)
(84.7097 -0.332786 -1.28885)
(91.2661 -25.35 -1.17709)
(72.985 6.46286 -0.291665)
(82.1055 -3.66532 -0.721441)
(77.7331 9.39556 -0.382039)
(83.8925 5.87452 -0.452746)
(81.1604 10.016 -0.0894446)
(82.2193 6.71762 0.228049)
(78.9555 7.09416 0.574591)
(77.9864 4.21278 0.502447)
(74.4088 3.15566 0.259723)
(74.3883 2.35277 0.0467821)
(73.8278 2.3854 -0.0299024)
(74.5695 3.2974 -0.131354)
(79.7142 3.82279 -0.0893835)
(74.389 23.9533 84.5299)
(-77.5533 -0.61703 -1.57867)
(132.911 0.984085 -8.31767)
(1.11279 2.80439 -1.39767)
(97.3451 -16.421 -3.53801)
(39.1242 22.1098 -0.473676)
(65.3391 14.6004 0.0836836)
(49.87 -5.55527 -0.451539)
(73.125 7.78073 0.195047)
(75.3044 0.559652 0.509036)
(83.4552 10.1458 -0.0662905)
(82.121 9.58456 0.00219485)
(82.9199 10.8927 0.0256283)
(79.4209 8.25441 0.296262)
(71.6866 5.88405 0.921621)
(68.1151 4.31113 0.366999)
(67.594 2.93003 -0.0259979)
(67.3693 2.6971 -0.198118)
(68.1036 2.77015 -0.285561)
(73.8262 3.07196 -0.160892)
(252.811 -81.4341 -32.7508)
(159.822 -31.8002 -6.54716)
(188.53 17.2425 7.49621)
(106.307 16.5437 2.26392)
(122.965 -1.22773 1.26767)
(86.4515 7.72954 -2.25212)
(111.122 13.3528 -1.91421)
(96.9237 -9.55911 -0.677769)
(95.1124 -2.80013 -0.0654053)
(88.7956 0.786279 0.0470788)
(85.9609 9.29889 -0.047311)
(85.1728 11.5328 -0.27685)
(85.9929 10.8467 -0.0322682)
(86.0276 9.54396 0.193198)
(78.3054 8.8688 0.679276)
(68.6097 5.50459 0.618385)
(65.5701 3.37239 0.263161)
(64.7424 2.32695 0.00439411)
(65.031 1.90675 -0.138435)
(70.4836 2.01154 -0.0833431)
(249.603 154.376 -67.6629)
(134.575 93.7825 -43.3779)
(167.503 91.0685 13.8623)
(43.5946 55.1179 2.24023)
(90.1019 33.3728 -1.51615)
(30.4999 23.5795 -0.514334)
(62.5331 14.1092 0.160974)
(75.4732 -1.73785 0.051353)
(77.8286 -2.44893 -0.0944127)
(82.3208 4.55227 -0.132885)
(87.3703 11.176 -0.0876216)
(91.4428 11.9692 0.0978921)
(92.7681 8.69995 0.101816)
(88.9134 8.288 -0.0799335)
(83.2038 11.26 0.403054)
(70.7555 9.06962 0.867097)
(66.5119 5.567 0.486033)
(65.4412 2.87607 0.0600871)
(65.6167 1.20195 -0.0651912)
(69.9303 1.1304 -0.0536807)
(109.412 -17.8316 -29.5983)
(63.3757 87.304 2.19161)
(163.655 69.0491 7.06903)
(113.946 54.146 -5.22158)
(163.784 45.6724 -5.00501)
(129.251 28.0334 -1.61823)
(124.51 1.18269 -0.126416)
(110.672 -9.73021 -0.861288)
(89.9117 0.848738 -0.188178)
(81.5606 2.30089 0.136804)
(83.4354 6.1619 0.169016)
(83.0909 8.7556 0.0531036)
(83.4617 10.3076 -0.180312)
(84.8809 11.6222 -0.236849)
(81.9324 13.3798 0.421822)
(69.3822 12.8509 0.313848)
(66.9579 6.46318 -0.627497)
(66.0186 2.63948 -0.455937)
(66.9358 1.25459 -0.254202)
(71.4602 1.11683 -0.140326)
(39.9825 -199.034 97.2509)
(-60.9315 -10.0786 1.22216)
(125.025 74.8744 -8.13313)
(80.8147 54.4307 2.01042)
(127.065 65.5424 2.1863)
(86.0794 38.2041 1.11412)
(96.1987 29.4047 2.44593)
(87.7928 22.1924 0.0516648)
(81.4294 12.1355 0.130551)
(75.7486 -0.465356 0.162424)
(70.4918 -0.137052 -0.364642)
(75.6709 9.35461 0.0847059)
(77.4852 9.54937 0.0233249)
(81.8225 10.575 -0.00861399)
(83.8643 15.9573 0.67003)
(77.392 17.5136 0.0691924)
(76.7925 13.1762 -0.885953)
(74.5722 4.80579 -1.1436)
(72.6517 0.276686 -0.635219)
(73.2446 0.311045 -0.195705)
(51.0243 -117.39 196.668)
(-14.3614 -103.81 -9.33074)
(133.527 -24.4314 20.8705)
(50.0391 19.6627 6.33091)
(119.078 56.7743 4.45486)
(70.9303 25.4904 0.796461)
(85.4274 37.0934 -0.898046)
(63.536 27.2509 -0.573142)
(72.2226 16.8756 -0.163549)
(58.8888 8.27143 0.38425)
(59.8974 2.51123 0.214759)
(56.609 1.0233 0.172374)
(63.4381 1.41641 0.00351678)
(71.2107 6.20227 -0.440286)
(79.6472 14.4546 -0.228361)
(85.7699 17.0708 -0.241496)
(90.6247 14.6792 -0.198757)
(89.8522 11.9124 -0.225452)
(84.8847 8.32287 0.537955)
(77.708 4.1854 0.486964)
(-29.6248 159.936 14.6435)
(-9.49261 -67.1985 -22.1998)
(126.463 -29.6543 -5.17198)
(35.6984 4.55166 2.87059)
(102.945 50.1107 6.82481)
(49.1021 35.6716 1.311)
(76.9467 59.5417 0.406216)
(55.8522 21.9555 -0.487779)
(69.0137 27.7332 -1.16875)
(60.591 8.37939 -1.19512)
(65.8976 8.41318 -0.852759)
(60.6875 -1.67863 -0.187097)
(61.8816 -2.11128 0.269639)
(60.4917 -2.1901 -0.203447)
(66.8641 3.30513 -0.477884)
(74.4402 8.16265 -0.206513)
(78.3034 10.3297 0.234002)
(77.4017 10.35 0.663997)
(74.1754 10.7963 0.998539)
(72.5216 7.11548 0.392234)
(-2.01068 39.6481 -4.83275)
(-141.824 -103.224 -48.8231)
(123.116 -58.6955 -11.006)
(-8.17708 -13.4265 -6.40468)
(94.9885 20.9938 0.980489)
(40.1718 26.2312 -1.70694)
(84.4081 37.7931 -0.927924)
(72.1432 24.0023 -2.3728)
(87.4861 21.625 -2.23403)
(85.4153 12.7354 -2.44052)
(90.322 9.34356 -1.1361)
(84.676 2.79159 0.207476)
(76.6692 1.19559 1.5146)
(63.7832 -0.84944 0.874505)
(61.9537 3.0309 -0.180663)
(60.0633 5.90354 -0.223467)
(62.7404 9.21188 -0.288805)
(63.3179 10.2772 -0.289802)
(64.7885 10.1395 -0.371654)
(70.6423 6.47205 -0.361421)
(330.067 21.0933 -152.582)
(67.4389 40.01 -1.52763)
(160.336 -16.4333 -9.24947)
(52.257 24.5204 -3.71707)
(99.8063 37.0122 -3.8822)
(55.0654 38.7804 -3.65159)
(87.1508 44.0505 -2.51935)
(73.2506 28.7889 -2.5345)
(89.8792 27.9647 -1.45711)
(83.5129 16.4458 -0.823808)
(89.1941 14.6866 0.235297)
(81.6185 8.73741 0.570306)
(78.9026 10.191 1.54725)
(68.0645 7.01548 0.980509)
(65.9113 7.29108 0.504681)
(62.5043 7.78354 0.268842)
(64.0541 8.64541 0.0902529)
(65.3695 9.28468 -0.126728)
(68.2473 8.97217 -0.555878)
(77.0518 6.12058 -0.488946)
(180.706 -92.1905 -85.5763)
(100.149 -42.5732 13.7295)
(130.174 -7.08353 24.4275)
(33.3901 24.5075 10.3054)
(89.0713 40.4646 4.91732)
(50.1749 38.2092 0.346393)
(86.0095 38.0081 0.468779)
(71.1077 26.1376 0.333109)
(86.877 21.1116 1.0646)
(77.3999 12.7506 1.16324)
(82.2641 10.3304 1.39412)
(75.0456 6.90113 1.08642)
(76.3316 6.77212 1.11074)
(73.0579 5.3594 0.718606)
(74.0008 5.16257 0.661914)
(72.9354 5.29758 0.624354)
(74.4593 5.72021 0.503147)
(75.7808 6.14722 0.239144)
(78.6154 5.00844 -0.00175365)
(85.4951 3.09625 0.00492708)
(172.654 -223.037 -148.738)
(-13.9032 -106.056 -52.7268)
(125.829 -44.4815 -20.5104)
(70.0543 -2.86192 -3.43976)
(103.146 28.4469 4.6592)
(63.8591 28.6034 2.6837)
(88.7441 30.9654 3.04219)
(69.3243 20.9702 1.86005)
(84.3213 18.7253 2.03508)
(73.8124 12.1261 1.46096)
(81.1675 10.6952 1.53627)
(75.2095 7.29072 1.14192)
(78.5191 6.48075 1.05077)
(75.9652 4.56796 0.754025)
(78.0339 3.83127 0.652881)
(77.3898 3.29192 0.580013)
(79.359 3.11489 0.520372)
(80.366 3.20187 0.46305)
(82.6956 2.75055 0.36741)
(87.8307 2.19351 0.398883)
(-40.1321 1.02813 19.0807)
(-160.409 -34.3636 -27.7087)
(56.5409 18.2083 -19.9449)
(-13.7078 10.9366 -7.80652)
(77.7434 32.6187 -4.04922)
(42.316 23.8059 -1.87015)
(83.2237 22.6115 -0.508117)
(65.7279 13.7375 -0.0873657)
(84.7609 8.70621 0.881415)
(76.6969 4.24763 1.10128)
(86.0318 2.02518 1.57215)
(82.1073 1.18325 1.34283)
(86.1458 0.870328 1.18038)
(83.9117 0.71188 0.669211)
(85.4538 0.417637 0.360763)
(84.0824 0.222831 -0.0159979)
(84.9527 -0.0335201 -0.220062)
(84.4153 -0.25448 -0.332431)
(84.9418 -0.790904 -0.492028)
(88.3561 -1.19432 -0.593718)
(145.768 -241.58 43.7632)
(-88.6308 -87.6825 -67.4223)
(114.788 -46.9853 -28.5638)
(31.6923 -17.1041 0.623316)
(91.3433 9.90123 4.91124)
(56.2946 16.6094 3.58058)
(95.6132 16.7829 2.29435)
(87.0124 11.605 0.430402)
(107.32 6.24401 0.0492652)
(103.131 1.46945 -0.353518)
(109.546 -1.12973 0.102192)
(104.268 -1.51954 0.136417)
(105.794 -0.423558 0.329748)
(103.048 1.32196 0.30577)
(104.562 2.49005 0.276254)
(104.061 4.02102 0.313025)
(105.962 4.63139 0.281992)
(106.594 5.10587 0.305708)
(108.104 5.59212 0.210166)
(113.831 5.48068 0.28438)
(256.377 -291.282 33.0889)
(125.741 -106.843 -1.88298)
(193.87 -28.9203 22.5731)
(142.571 -18.8997 14.0846)
(177.438 -4.56167 9.41974)
(169.391 1.88171 4.43961)
(175.919 9.59858 5.87145)
(159.077 11.2958 5.83066)
(154.973 9.8611 7.38988)
(143.82 4.73067 5.63191)
(145.34 1.66106 4.05877)
(143.302 -1.03131 2.20166)
(146.877 -1.83615 0.57007)
(147.151 -1.33822 -0.274483)
(147.93 0.747185 0.27959)
(143.288 3.23405 2.29633)
(134.662 6.55291 3.98922)
(122.678 5.16951 1.55045)
(118.144 2.45681 -0.789197)
(116.024 0.374651 -1.3509)
(260.953 -282.139 -93.7992)
(-49.2231 -37.8721 -22.6189)
(148.517 -67.9987 -20.6444)
(47.8565 -40.2127 -2.48037)
(112.548 -26.2376 -0.602538)
(88.4181 -13.2437 -2.57097)
(113.26 -3.90311 0.00190855)
(101.719 -0.239554 -0.00408604)
(112.254 1.05814 1.31658)
(104.881 0.260823 -0.0189668)
(108.483 -0.394067 -0.035986)
(103.934 -0.636596 -1.60492)
(105.158 -0.222295 -2.11142)
(102.035 1.16787 -2.78529)
(103.146 3.68561 -2.0289)
(101.125 7.49479 -1.18247)
(102.06 9.73662 0.0138757)
(100.645 8.82032 0.382587)
(100.431 6.91159 0.699335)
(101.019 4.30078 0.429029)
(240.573 -233.427 131.263)
(123.152 -92.2703 5.85393)
(182.745 -66.8019 -9.55535)
(106.605 -31.0411 -4.40676)
(127.529 -11.3038 -3.80128)
(95.6299 0.00367951 -3.60844)
(110.256 6.79328 -1.42106)
(94.1178 8.77178 -1.51464)
(101.376 7.88011 -0.486536)
(90.4073 6.59713 -1.05639)
(91.9093 4.72899 -0.453201)
(84.2505 3.57572 -0.841933)
(84.4099 2.48209 -0.849196)
(80.4955 2.35031 -1.20374)
(81.413 2.85788 -0.850321)
(80.8818 4.67218 -0.237962)
(84.512 6.14098 0.307375)
(85.3311 6.04917 0.687862)
(86.8004 5.99972 0.768969)
(89.6614 4.67754 0.658855)
(247.706 -68.2368 45.8907)
(34.3802 21.6521 16.494)
(139.471 2.81099 29.2007)
(39.0098 -9.71165 9.71519)
(104.451 -2.82956 2.74877)
(55.9088 -1.28376 -0.333341)
(89.7869 1.47242 0.21617)
(67.962 5.4683 -0.234112)
(83.1528 6.62995 0.354582)
(71.8633 8.15785 -0.17702)
(77.118 7.49437 0.051842)
(70.4798 6.82756 -0.247108)
(72.228 5.01203 -0.146524)
(69.2849 4.01931 -0.112706)
(70.8417 3.35413 0.030595)
(70.5177 3.81132 0.113305)
(73.4617 4.72724 0.276377)
(74.3031 5.27548 0.267554)
(75.7977 5.88318 0.250477)
(79.6546 4.90496 0.302693)
(-25.5659 -79.2018 -69.4559)
(-60.0305 -41.2149 -25.0955)
(100.661 -31.4072 -20.6681)
(21.5077 -8.82181 2.37728)
(102.257 -4.20062 -2.31629)
(61.5729 5.26055 1.10029)
(92.8236 2.27119 1.73104)
(74.3194 11.7415 0.893079)
(85.44 7.2592 0.953856)
(74.1664 11.6982 0.562981)
(78.4396 7.71317 0.735324)
(71.8852 8.3785 0.360492)
(73.4325 4.81629 0.325402)
(69.7911 4.06919 0.0531126)
(70.7187 2.18206 0.369635)
(69.5541 2.17161 0.359839)
(71.1447 2.34694 0.286871)
(70.9317 3.19631 0.126615)
(71.9163 4.27013 0.0607444)
(75.8468 4.16608 0.0733023)
(346.231 164.333 69.8582)
(70.4992 -22.4698 7.77421)
(140.211 -30.0006 2.71803)
(25.1437 -23.7912 0.933342)
(96.4967 -21.1861 -1.85927)
(34.4844 1.45943 2.13427)
(82.7749 -7.04629 0.415361)
(61.6374 9.16982 -0.0946248)
(76.325 8.8087 -0.104923)
(69.2092 13.4637 -0.438497)
(73.9931 11.077 -0.0248406)
(70.6105 11.0268 -0.0430105)
(72.08 7.6904 0.317799)
(69.7433 6.08442 0.543537)
(69.7854 3.77172 0.869814)
(68.2948 3.34078 0.639812)
(68.5971 3.41688 0.247012)
(67.8131 3.87691 -0.0110613)
(68.0074 4.48869 -0.0892509)
(71.8005 4.06442 -0.00601503)
(215.795 102.402 112.426)
(22.7308 46.8091 15.0227)
(150.043 32.6914 -24.7976)
(55.8353 5.43944 -10.4481)
(106.145 -0.0229053 -7.86569)
(64.1561 7.15461 -2.84365)
(75.7215 -19.5988 -1.84768)
(57.1125 15.2512 -0.427103)
(67.9657 1.13968 -1.1447)
(61.9217 13.5384 -0.371887)
(68.2713 6.95373 -0.409453)
(64.9679 10.3322 0.217139)
(67.1027 5.82731 0.617184)
(64.8084 6.22639 0.930677)
(65.2304 3.89982 0.710144)
(63.434 3.48391 0.395477)
(63.9468 3.02004 0.0957599)
(63.683 3.21777 -0.0258875)
(64.3801 3.63871 -0.133722)
(68.8156 3.40832 -0.0258531)
(178.745 -38.1379 -163.862)
(-24.8829 -27.0143 -9.28162)
(120.439 -11.0974 -13.7819)
(8.29502 -1.67277 -3.66984)
(84.4939 -8.28632 -6.26495)
(25.3945 28.108 -0.026385)
(52.7412 8.32196 0.456205)
(42.1754 3.72837 -0.532722)
(59.6763 10.7634 -0.0515474)
(60.0858 6.09457 -0.150725)
(66.7993 11.2133 -0.439362)
(65.6852 9.37717 -0.128973)
(67.57 9.37162 0.352801)
(65.3091 7.08195 0.913663)
(61.3656 5.44704 0.937195)
(60.1741 4.43111 0.321307)
(60.2356 3.1729 -0.0554177)
(60.023 2.97337 -0.206763)
(60.5078 2.76802 -0.289402)
(65.2071 2.52532 -0.0976036)
(223.377 16.9397 -118.507)
(76.6777 30.9755 -18.2409)
(149.791 37.1485 -7.20693)
(79.6845 16.4636 -6.37422)
(102.004 2.64608 -3.93815)
(81.3939 12.7133 -2.15353)
(91.9566 13.0916 -2.12415)
(72.1259 -9.34741 -0.321573)
(73.0035 -1.35645 -0.395751)
(70.6553 3.39336 -0.705137)
(71.0046 9.05143 -0.773987)
(70.5039 9.0596 -0.533395)
(71.3328 9.22193 0.302571)
(70.0984 9.0783 0.821963)
(65.1024 7.22944 1.29919)
(59.8966 4.77776 0.562946)
(58.9482 3.18413 0.160743)
(58.5973 2.26132 0.0116782)
(58.8919 1.73267 -0.141463)
(63.4951 1.49531 -0.0156588)
(140.421 135.154 -190.6)
(-119.991 57.1476 31.9902)
(111.859 81.7293 14.5106)
(23.385 50.7191 -2.37488)
(81.1286 36.5825 -5.47113)
(40.3052 25.9761 -3.40637)
(62.3611 18.4704 -1.16757)
(72.4789 -3.19004 1.67489)
(73.3004 -3.29172 0.602343)
(74.5584 3.6296 -0.204853)
(76.2675 8.40261 -0.253957)
(77.2489 8.7945 -0.061974)
(76.4353 8.88315 -0.0636605)
(73.7568 10.5749 0.249808)
(68.8319 9.28688 1.22746)
(60.988 7.05657 0.595522)
(59.9421 4.44924 0.315536)
(59.2555 2.39999 0.0384521)
(59.3626 0.974663 -0.0456125)
(63.3005 0.750158 -0.00989511)
(148.715 -173.955 62.0233)
(26.903 -15.8652 8.21343)
(151.141 1.70539 -2.02983)
(97.8525 20.6159 -13.4547)
(135.757 22.396 -8.87)
(120.262 25.5031 -10.3394)
(118.86 9.74085 -5.54723)
(99.0394 -6.25858 1.85382)
(79.7829 -1.21371 1.68205)
(74.673 1.0808 1.25834)
(75.81 5.82465 1.3108)
(76.635 9.07751 -0.040896)
(77.3697 11.1708 -0.957082)
(76.7743 12.7329 -0.531782)
(70.8838 12.7471 1.43072)
(62.5792 10.1468 -0.277316)
(61.3658 4.91445 -1.09383)
(60.0077 2.09823 -0.495334)
(60.3968 0.774015 -0.177294)
(64.1781 0.41581 -0.0652675)
(154.86 61.0749 78.572)
(49.6101 38.6169 39.2614)
(118.255 54.6805 -0.93749)
(73.391 34.3597 2.70179)
(106.504 48.0291 1.38527)
(87.1941 30.3234 0.44165)
(102.094 22.5227 3.09074)
(87.3846 17.8826 3.15043)
(73.1091 8.56329 1.45123)
(65.2406 2.10918 0.668287)
(63.7619 4.74432 -0.258882)
(66.4849 8.35323 0.1069)
(70.4713 10.0318 -0.37098)
(73.9871 12.2654 -0.363287)
(73.7601 17.5164 1.20086)
(71.0637 13.7244 -0.590978)
(70.0262 7.03747 -1.39411)
(65.9404 2.14498 -1.10477)
(63.6476 -0.602915 -0.34321)
(64.6034 -0.38543 0.0370472)
(76.3456 -4.07139 -55.9475)
(-186.669 -2.77179 0.407975)
(147.245 26.3798 5.47963)
(38.1789 30.9366 9.78495)
(109.419 52.1576 3.90955)
(59.8488 18.8084 1.85317)
(75.959 33.5296 0.573274)
(52.0781 25.0244 0.260644)
(59.3513 15.1239 -0.0516831)
(46.9206 7.06492 0.427914)
(51.7284 3.58261 0.257815)
(50.7719 3.36529 0.222774)
(59.0713 4.83359 -0.240973)
(64.9424 8.73979 -0.733492)
(71.1219 13.775 -0.677721)
(75.1911 12.6416 -0.419451)
(77.4229 9.46273 -0.199898)
(74.1168 6.62908 0.0937842)
(69.7832 3.92567 1.51575)
(66.982 1.87914 0.936359)
(-38.4301 182.104 36.6701)
(-114.939 -13.6064 -42.338)
(107.3 12.1072 -1.86768)
(2.59235 38.4916 5.3485)
(94.214 59.0653 8.23197)
(35.9766 35.0771 1.21718)
(65.9029 56.5168 0.488844)
(42.2951 15.7 -0.794995)
(56.4169 23.5679 -1.56563)
(46.3262 3.67114 -1.35139)
(52.2722 6.05117 -0.636184)
(47.7933 -2.63684 0.101023)
(51.9924 -0.470066 0.58607)
(52.1994 -0.391636 -0.296343)
(58.6671 4.55783 -0.435959)
(62.8658 6.74738 0.0772621)
(65.4209 7.85013 0.787521)
(64.0763 7.7296 1.41165)
(62.9028 7.55427 1.58299)
(63.8991 4.75389 0.61448)
(376.816 -219.593 -39.198)
(-100.022 -61.4944 -26.6718)
(119.254 -32.2529 -24.7645)
(-39.9651 16.7515 -5.5782)
(83.1677 36.7955 0.849128)
(18.4029 28.7837 -2.39073)
(70.1264 36.5795 -1.10098)
(51.8137 18.4943 -3.11851)
(67.3931 16.627 -2.34261)
(60.4809 5.853 -2.45638)
(64.5608 4.88132 -0.809575)
(59.1674 -0.272276 0.669705)
(58.71 0.434773 2.00328)
(54.0804 -0.203361 1.21975)
(54.329 2.29334 0.0950361)
(53.5683 4.26675 -0.0669191)
(56.1006 6.47915 -0.233102)
(56.6609 6.98118 -0.269517)
(58.2178 6.54275 -0.417879)
(63.2365 3.61762 -0.393087)
(143.056 -57.1759 -18.0991)
(47.3401 58.8276 22.8345)
(127.914 4.46713 -9.19119)
(29.5392 30.0363 -2.15584)
(84.6819 34.5825 -2.63349)
(32.685 29.6289 -3.59154)
(70.6034 33.7939 -2.4074)
(50.4261 15.415 -2.73683)
(69.259 16.5669 -0.982529)
(58.9904 5.15136 -0.57237)
(67.1686 6.67146 0.911385)
(60.0444 2.64227 1.01791)
(62.3655 4.97948 1.97623)
(57.856 3.47101 1.27543)
(58.5126 4.02992 0.930657)
(57.0003 4.09364 0.579653)
(59.0378 4.68417 0.246014)
(60.2531 4.84483 -0.171011)
(62.796 4.1494 -0.669657)
(68.548 2.41 -0.512915)
(66.5493 -3.64803 42.1332)
(-1.35638 6.90951 54.9664)
(77.2797 26.3408 42.7024)
(-3.25208 33.5571 9.34231)
(75.303 35.5317 6.45133)
(28.5363 24.3681 0.398707)
(70.9849 22.8553 1.36975)
(50.9442 12.0653 0.657681)
(69.976 10.2327 1.88185)
(59.2723 4.56828 1.43574)
(66.9978 4.63394 1.98822)
(61.023 2.58951 1.37186)
(64.7587 3.32855 1.56005)
(62.8054 2.4912 1.00794)
(65.0439 2.60785 0.98735)
(64.6318 2.70702 0.901074)
(66.7513 2.95139 0.686358)
(67.5342 2.64479 0.336748)
(69.3976 1.55232 0.0252782)
(73.9406 0.514915 0.0410427)
(503.397 -1.75303 68.0843)
(57.8226 3.36043 17.5877)
(103.707 17.048 -0.974867)
(21.8577 28.4264 1.28541)
(80.981 33.6927 6.37538)
(40.2979 22.0852 2.56883)
(74.3495 21.8191 3.78471)
(52.4839 12.1075 1.83424)
(71.154 11.8443 2.74311)
(59.8697 6.51296 1.65562)
(69.49 6.44221 2.15551)
(63.9778 3.792 1.41795)
(68.7598 3.72089 1.4733)
(66.6166 2.41442 0.969257)
(69.257 2.20899 0.880503)
(68.6981 1.89177 0.762483)
(70.8635 1.87275 0.679787)
(71.3825 1.65484 0.525165)
(72.9126 1.11612 0.367794)
(76.9771 0.749196 0.416804)
(122.575 135.982 -17.7015)
(-51.0143 -21.3855 -34.7397)
(43.1427 6.35417 -20.8572)
(-19.0619 3.26204 -4.16557)
(69.3407 24.6613 0.37684)
(31.9836 16.1571 0.711465)
(74.6555 16.3839 1.85103)
(54.571 9.24473 0.76991)
(74.8491 6.11814 1.89431)
(65.3284 3.29 1.41891)
(75.6494 2.07581 2.1223)
(71.5369 1.596 1.51552)
(76.4294 1.32628 1.38159)
(74.4851 1.14838 0.61113)
(76.5985 0.848406 0.279562)
(75.4771 0.706051 -0.214038)
(76.6758 0.481628 -0.441951)
(76.1521 0.263727 -0.628866)
(76.7044 -0.278541 -0.865773)
(79.748 -0.461847 -0.927494)
(492.508 213.929 -15.1146)
(173.699 82.0996 12.0042)
(137.093 -33.7185 -19.3492)
(37.2679 -33.4412 -0.053578)
(90.8302 -15.8585 7.49927)
(55.1922 -5.25895 5.11299)
(92.3107 1.41059 5.30505)
(78.2097 2.86561 1.80691)
(95.9628 3.41674 1.55558)
(88.768 2.9086 0.189832)
(96.8373 2.51694 0.732691)
(93.5401 2.3655 0.407218)
(97.7832 2.51881 0.735504)
(97.0164 2.61935 0.620005)
(99.703 2.74347 0.650514)
(99.9062 2.69761 0.654356)
(101.974 2.67384 0.617671)
(102.538 2.65196 0.556827)
(104.068 2.46944 0.21284)
(108.727 1.63471 0.275311)
(203.211 -339.134 191.348)
(16.0806 -94.206 55.3454)
(163.489 -26.4312 48.1438)
(116.953 -3.80732 19.5011)
(157.637 13.4923 10.6472)
(136.381 15.8535 3.44812)
(141.494 17.4811 6.12124)
(123.795 13.1158 5.24506)
(127.123 9.53111 6.51025)
(120.387 5.55552 4.15203)
(123.733 3.21887 2.55335)
(120.295 2.27459 0.783362)
(120.731 1.97806 -0.434278)
(116.42 2.16171 -0.80747)
(113.911 3.44146 0.503708)
(107.557 4.76556 2.41016)
(106.687 4.96608 3.36469)
(103.001 3.66305 1.60707)
(100.325 1.649 -0.622697)
(98.9237 0.514746 -1.34535)
(383.446 -249.774 -62.6343)
(73.4362 -47.5047 26.5018)
(129.275 -63.1642 -8.70028)
(27.406 -22.0709 -5.55231)
(99.8779 -9.97393 -4.24694)
(69.7717 -1.494 -4.64051)
(98.3035 3.41241 -0.687444)
(83.1869 4.24495 0.0187301)
(95.9371 4.54928 1.46006)
(87.2296 3.68872 -0.1999)
(92.1107 3.34414 -0.402188)
(86.6607 2.7732 -1.95735)
(87.976 2.9527 -2.18831)
(84.0549 3.43281 -2.72348)
(84.1255 4.75378 -1.83093)
(81.811 6.27156 -0.919785)
(82.8728 7.0332 0.112801)
(81.7031 5.82761 0.284483)
(81.7172 4.52148 0.392742)
(83.0643 2.5657 0.113625)
(147.284 -86.2291 -125.514)
(55.418 -39.3779 -51.6633)
(139.097 -46.4993 -12.3894)
(79.1998 -21.5705 -2.84743)
(109.705 -3.52923 -4.22357)
(73.8204 5.36438 -3.59331)
(93.6512 10.2589 -1.26435)
(74.4626 10.9946 -1.31939)
(84.6748 9.58899 -0.344962)
(72.7131 8.39746 -1.10644)
(76.7423 6.37259 -0.521933)
(69.5986 5.06079 -0.928813)
(71.3513 3.65129 -0.865015)
(67.6248 3.22 -1.01349)
(68.9149 3.45694 -0.577754)
(68.0425 4.50021 -0.134826)
(70.6267 5.27113 0.299338)
(70.7747 4.97416 0.644916)
(71.8348 4.88261 0.693689)
(74.7295 3.51818 0.524605)
(236.453 -3.54835 86.3485)
(-6.92295 -6.59946 -34.4606)
(126.935 -4.57461 2.04651)
(30.3875 -5.64461 4.52027)
(93.3611 1.71715 0.130452)
(41.0311 3.04075 -0.0415661)
(78.5751 4.43391 -0.0741635)
(53.5189 7.46055 -0.120871)
(71.1405 7.56707 0.308597)
(58.4002 8.602 -0.306628)
(65.4035 7.21427 0.00292496)
(58.7388 6.38409 -0.32766)
(61.6439 4.60524 -0.17402)
(58.7963 3.88889 -0.172327)
(60.7727 3.44797 0.0189566)
(60.2531 3.94284 0.0558514)
(62.7624 4.64425 0.203586)
(63.0441 4.80394 0.228651)
(64.0648 5.03527 0.225504)
(67.647 3.87163 0.294956)
(116.778 175.819 -6.95353)
(-16.1528 -16.7991 -27.0498)
(93.5899 -15.8997 -21.0025)
(22.8681 -0.96599 1.38494)
(92.2258 1.63349 -2.7331)
(47.4162 9.22763 1.27142)
(81.5515 4.59943 1.62338)
(59.0866 13.9418 0.844421)
(72.3962 8.20884 0.787394)
(59.5815 12.6468 0.344533)
(65.4353 7.54487 0.54755)
(58.7146 8.16234 0.213061)
(61.3773 4.31982 0.249589)
(58.0012 4.03532 0.0627271)
(59.5863 2.48976 0.304445)
(58.5403 2.80699 0.276937)
(60.3378 3.03785 0.226149)
(60.0638 3.62735 0.106158)
(60.8918 4.07154 0.067304)
(64.5103 3.52225 0.120802)
(265.36 169.401 81.308)
(-7.63609 -29.3318 18.8065)
(129.53 -23.588 5.9662)
(21.9529 -16.6038 2.09445)
(85.589 -13.1957 -0.976826)
(21.6372 7.86588 2.84683)
(73.3729 -2.412 0.651556)
(47.6444 13.6429 -0.00248407)
(63.7986 10.26 0.0952906)
(54.4392 14.4143 -0.410205)
(60.2254 10.2349 0.012224)
(56.363 10.0539 -0.0670023)
(58.5051 6.34067 0.288002)
(56.7083 5.31738 0.434647)
(57.579 3.77601 0.684557)
(56.8567 3.7179 0.49971)
(57.8435 3.73155 0.181889)
(57.3925 3.88632 -0.0148409)
(57.7047 4.08276 -0.0435505)
(61.3278 3.31948 0.0723951)
(176.929 14.8156 127.462)
(87.5993 46.3228 41.1494)
(169.441 36.1287 -8.37336)
(70.9202 11.9777 -5.33837)
(101.743 6.9073 -5.29842)
(51.9401 12.0789 -1.7569)
(66.1866 -15.4253 -1.27317)
(45.3829 20.3552 -0.151834)
(57.3789 2.66576 -0.945378)
(49.7514 15.0396 -0.0626357)
(56.5386 6.3183 -0.292914)
(52.6546 9.90995 0.27769)
(55.4896 4.89633 0.516495)
(53.5937 5.89649 0.752991)
(54.8885 3.78291 0.601487)
(53.7023 3.63401 0.331282)
(54.6779 3.21865 0.0920986)
(54.4737 3.30361 -0.0162918)
(55.1209 3.35213 -0.0865357)
(59.1533 2.78482 0.0645557)
(117.203 84.7719 -169.749)
(-1.45294 -23.4955 -2.68532)
(119.109 -8.17811 -3.9627)
(13.4955 1.82756 -2.53797)
(76.8226 0.272312 -3.48139)
(16.5965 32.0144 0.640764)
(43.0161 5.97912 -0.466139)
(34.6791 11.8097 -0.494464)
(49.3563 10.3322 -0.206702)
(48.6848 8.53701 -0.00605296)
(54.9636 10.3998 -0.447978)
(53.6953 8.88237 0.012722)
(55.9598 8.09662 0.365922)
(54.6534 6.4438 0.903229)
(52.6082 5.13358 0.954402)
(52.0994 4.50673 0.318065)
(52.4101 3.23801 0.0191951)
(52.2181 2.96117 -0.120326)
(52.6188 2.51871 -0.179521)
(56.824 2.02128 0.0294154)
(339.838 -28.4373 -75.3973)
(176.89 1.5206 -15.3306)
(174.319 30.1816 -10.2197)
(83.9137 17.1138 -7.96987)
(94.1491 7.02317 -5.45179)
(66.7683 20.3783 -1.34144)
(72.0723 14.2336 -1.26563)
(55.1118 -6.88461 0.238921)
(59.374 1.22456 0.023278)
(58.0925 4.59091 -0.484804)
(59.5871 8.44297 -0.739239)
(58.8989 8.03258 -0.476727)
(59.4474 8.59914 0.241777)
(58.1784 8.26465 0.802814)
(55.7191 6.02726 1.19331)
(51.9454 4.42316 0.820923)
(51.5817 3.06888 0.236078)
(51.4693 2.15783 0.129281)
(51.7988 1.55603 -0.0297875)
(55.9585 1.14415 0.0988028)
(98.1242 148.615 -97.9042)
(-64.7918 64.2761 -17.9063)
(113.385 78.4187 -4.55508)
(25.2175 48.5462 -3.06345)
(72.4763 37.37 -5.69642)
(35.2713 27.7029 -4.17544)
(56.5323 20.265 -0.863179)
(63.7603 -1.16664 2.08837)
(64.8762 -0.990516 1.06115)
(65.507 4.18749 0.0197131)
(65.9496 7.57443 -0.296109)
(65.4052 8.2595 -0.284108)
(64.0967 9.32217 -0.177807)
(61.9274 9.80449 0.374362)
(57.786 7.54601 1.41205)
(52.3977 5.76361 0.852013)
(52.2706 3.64579 0.422055)
(51.9663 2.0483 0.200867)
(52.1753 0.780274 0.063541)
(55.8951 0.514114 0.115949)
(99.9387 -93.7815 138.451)
(8.72784 -8.86771 2.48988)
(142.567 -5.91909 -1.06156)
(76.5456 13.6099 -11.1318)
(111.46 15.7733 -7.58574)
(90.3601 18.7457 -9.24855)
(88.9993 5.72523 -3.28561)
(77.3573 -2.60584 3.67317)
(68.3557 0.231427 2.32916)
(66.321 3.3084 -0.68366)
(69.0458 7.39728 2.14405)
(70.2467 9.32429 -0.44581)
(67.8508 11.7312 -1.19448)
(65.5107 12.4619 -0.329384)
(59.2458 10.677 1.47099)
(53.2971 6.99954 -0.11539)
(52.9017 3.25074 -0.603908)
(52.0812 1.3792 -0.123476)
(52.6359 0.333333 -0.00259212)
(56.3178 0.0315037 0.0669314)
(206.822 -45.7116 -73.7625)
(75.7549 33.1679 5.00689)
(117.318 35.9514 -12.4773)
(61.4516 22.657 -3.79614)
(89.5285 38.6633 -2.89039)
(65.727 19.8526 -1.93517)
(81.7756 15.0917 3.10697)
(72.5634 14.4722 4.72222)
(62.0798 8.21898 2.21778)
(56.7094 5.04303 0.777069)
(56.4471 6.98199 -0.249645)
(58.9317 9.35435 -0.400405)
(62.5147 11.1567 -0.840091)
(64.7462 13.2485 -0.511188)
(63.1292 15.2052 1.11464)
(60.1301 8.09436 -0.52132)
(58.5953 2.74383 -0.809131)
(55.4129 0.46758 -0.554453)
(54.1416 -0.995854 -0.0304603)
(56.1632 -0.654047 0.173822)
(189.707 44.9429 69.4577)
(-50.9789 49.1214 -20.753)
(124.576 50.7816 -33.5306)
(32.7497 34.0621 5.6027)
(95.8526 47.1836 1.03695)
(44.0141 12.0161 1.97033)
(62.3348 30.2189 1.43117)
(41.1445 22.254 0.983577)
(49.0428 14.8924 0.230663)
(38.4639 7.37283 0.285551)
(44.705 5.29113 0.0476968)
(44.504 5.14006 -0.143755)
(52.7086 6.8424 -0.56816)
(57.1749 9.64421 -0.68461)
(60.9308 10.7098 -0.188754)
(62.5984 8.28931 0.0128195)
(63.2063 5.49688 0.0110411)
(58.9774 3.13185 0.404667)
(56.8098 1.69273 1.48409)
(57.3043 0.788359 0.826899)
(147.921 8.7313 -39.9012)
(-147.992 46.3701 -53.9875)
(105.62 61.5455 -25.3565)
(-13.6026 51.9191 2.23137)
(84.5528 57.7843 4.14891)
(21.5456 30.8683 1.39523)
(55.5137 53.3406 0.519011)
(29.7666 10.7021 -0.65822)
(45.8453 21.7263 -1.32577)
(34.5976 1.38755 -1.19258)
(41.9734 6.02368 -0.346353)
(38.1114 -2.21578 0.138302)
(43.7431 1.31813 0.468143)
(44.2365 0.431832 -0.275525)
(49.5639 3.93443 -0.0775767)
(51.5425 4.87938 0.419003)
(53.6423 5.8561 0.966425)
(52.6391 5.6707 1.32595)
(52.8953 5.40694 1.34045)
(55.3745 3.12736 0.533665)