/*--------------------------------*- C++ -*----------------------------------*\
  =========                 |
  \\      /  F ield         | OpenFOAM: The Open Source CFD Toolbox
   \\    /   O peration     | Website:  https://openfoam.org
    \\  /    A nd           | Version:  10
     \\/     M anipulation  |
\*---------------------------------------------------------------------------*/
FoamFile
{
    format      ascii;
    class       volVectorField;
    location    "9";
    object      U_0;
}
// * * * * * * * * * * * * * * * * * * * * * * * * * * * * * * * * * * * * * //

dimensions      [0 1 -1 0 0 0 0];

internalField   nonuniform List<vector> 
12920
(
(171.795 -5.67259 -32.9622)
(58.5922 16.749 -15.1624)
(167.286 2.08308 -6.57253)
(133.089 -16.3658 0.0274045)
(175.001 -10.6054 1.56194)
(175.766 -4.89894 1.02087)
(187.619 5.80105 2.37878)
(172.17 9.35994 2.86766)
(162.711 9.60262 3.75863)
(145.28 1.34985 3.15663)
(144.8 -3.16463 2.03946)
(144.73 -9.89821 1.07301)
(154.229 -12.501 -0.125615)
(166.687 -9.7638 -0.30588)
(172.376 -3.87739 0.555576)
(169.64 -1.21965 1.40531)
(156.291 4.55744 1.90452)
(137.519 7.20295 0.750067)
(130.405 7.29185 -1.08923)
(125.79 6.09411 -1.8384)
(43.6831 -80.5009 69.6598)
(-68.9424 -4.09669 -2.70209)
(138.797 -86.2124 0.881012)
(58.966 -61.0408 -0.0827793)
(117.809 -45.8932 0.0633526)
(100.23 -30.1257 -0.542936)
(119.96 -17.5095 0.561136)
(110.67 -10.4422 0.123589)
(120.51 -7.19275 0.487796)
(115.148 -7.50059 -0.238905)
(118.218 -9.00003 -0.290355)
(113.937 -9.24495 -1.21356)
(114.617 -9.48355 -1.6523)
(112.196 -7.39908 -1.94478)
(115.955 -0.977663 -1.43419)
(115.649 7.73137 -0.888599)
(116.073 12.6921 -0.223858)
(114.573 12.8241 0.140728)
(114.629 11.7219 0.442229)
(113.69 8.51196 0.556777)
(111.497 -177.854 -121.774)
(54.8425 -65.7388 -31.1653)
(161.644 -86.2589 -20.4141)
(117.228 -52.7662 -10.5617)
(139.22 -26.1455 -5.41536)
(116.941 -8.83952 -3.3478)
(127.878 1.23436 -1.58096)
(114.009 5.21129 -1.24804)
(117.29 4.78246 -0.69289)
(106.616 3.34053 -1.00545)
(104.754 0.885471 -0.459926)
(93.7581 0.10173 -0.515173)
(90.4397 -0.423807 -0.662877)
(83.5311 0.612413 -0.933266)
(84.0084 1.40502 -0.705008)
(84.0463 3.92105 -0.236657)
(89.6943 6.43462 0.125342)
(91.561 7.27923 0.394342)
(94.579 7.73259 0.525594)
(96.0661 6.58001 0.511059)
(245.135 -227.235 43.1369)
(247.753 -38.9283 -47.6631)
(234.232 7.1523 7.76173)
(93.4803 -9.38258 11.714)
(115.589 -8.09855 5.42072)
(68.558 -6.16234 0.563601)
(94.1475 -1.93902 0.493094)
(74.9042 3.00541 -0.0321929)
(87.5787 5.30861 0.188648)
(77.5196 7.54109 -0.0869129)
(81.162 7.80066 -0.000482925)
(73.9896 7.46748 -0.0797143)
(74.1208 5.57553 -0.0461418)
(70.2364 3.99396 0.00339252)
(71.0369 2.881 0.050405)
(70.6773 2.9316 0.0820742)
(73.8453 3.96897 0.170181)
(75.5645 4.95523 0.210342)
(78.535 6.52136 0.176217)
(81.4526 5.9134 0.210391)
(47.231 -297.288 -144.706)
(-111.704 -22.856 3.44443)
(119.216 -27.9055 -7.59668)
(27.8589 -13.1758 3.07695)
(104.91 -9.47432 0.544366)
(67.5162 1.33738 1.12339)
(95.0368 0.10569 0.980745)
(80.6555 8.94447 0.72323)
(90.6758 4.73833 0.676342)
(81.5629 8.70434 0.494762)
(84.7063 5.73927 0.543843)
(78.3357 7.04149 0.347812)
(78.7438 4.35696 0.247443)
(74.4677 3.67967 0.0218025)
(74.3524 1.33706 0.22413)
(72.6896 0.88546 0.252498)
(73.7874 0.607124 0.192484)
(73.3499 1.22138 0.093611)
(74.7439 3.22803 0.0168209)
(77.6443 4.28397 -0.0159543)
(282.546 53.3669 6.04291)
(57.4712 -68.5759 0.192439)
(148.666 -43.6931 -2.3954)
(29.213 -32.2893 2.08271)
(100.155 -31.8353 -0.113202)
(41.6004 -8.16796 1.1862)
(83.3822 -14.779 0.367345)
(67.6615 1.02147 -0.0295938)
(82.3835 3.49636 -0.247517)
(78.8288 9.09376 -0.381085)
(83.437 9.31425 -0.194372)
(80.9414 10.5883 -0.142993)
(81.5612 8.60168 0.0700891)
(78.7905 7.57312 0.303817)
(76.5747 3.64452 0.731205)
(72.2883 2.27621 0.548821)
(71.4231 2.48162 0.146565)
(69.8486 3.13796 -0.0654354)
(70.2513 4.36794 -0.134509)
(72.6364 4.63669 -0.0901165)
(376.088 -25.9801 72.8173)
(-36.3027 26.2983 33.7998)
(139.35 31.0126 -12.3678)
(47.627 5.01806 -4.24992)
(106.737 -4.95212 -2.75342)
(72.5122 1.55514 -1.211)
(79.3679 -24.734 -1.15181)
(61.2256 7.10014 -0.352197)
(71.0021 -3.54814 -0.795526)
(66.8969 9.47907 -0.362803)
(73.4958 5.76711 -0.459284)
(70.9004 9.90798 -0.0937289)
(72.1263 6.54135 0.222403)
(68.9591 6.97582 0.573664)
(68.0806 4.0123 0.494255)
(64.6131 2.99489 0.244645)
(64.6401 2.25469 0.03591)
(64.0561 2.3412 -0.0361563)
(65.0813 3.30677 -0.141553)
(68.5216 3.85212 -0.115825)
(62.1069 41.3072 77.1426)
(-93.6315 5.46046 0.349937)
(118.843 6.93709 -8.92184)
(-13.2701 7.13945 -1.85973)
(83.2476 -13.8306 -3.58935)
(25.4943 24.187 -0.42747)
(52.559 17.6826 0.097873)
(37.7315 -2.95864 -0.594465)
(62.0035 9.84583 0.2126)
(64.4766 2.70629 0.473074)
(73.0002 12.0749 -0.0878634)
(71.8489 11.4482 -0.0180166)
(72.8064 12.6126 0.0296805)
(69.4984 9.89924 0.301126)
(61.7128 5.67663 0.895079)
(58.3309 4.09555 0.349744)
(57.884 2.79028 -0.037685)
(57.6451 2.62333 -0.207006)
(58.6384 2.77196 -0.296576)
(62.622 3.10318 -0.186701)
(257.718 -71.3531 -32.4471)
(147.445 -23.3699 -3.01748)
(173.848 21.0248 7.30065)
(90.8499 18.1685 1.93756)
(107.917 -0.33878 1.24644)
(72.3683 10.9628 -2.31648)
(97.567 16.6003 -1.86059)
(84.4824 -6.82199 -0.664076)
(83.5686 -0.399176 -0.0762556)
(77.8054 2.89994 0.047943)
(75.4312 11.2709 -0.0928024)
(74.8593 13.2203 -0.290008)
(75.9484 12.4217 -0.0285999)
(76.0714 11.0552 0.193409)
(68.5376 10.2496 0.663246)
(58.8017 5.19611 0.606856)
(55.9077 3.18788 0.247516)
(55.0827 2.22932 -0.013904)
(55.6156 1.90159 -0.151349)
(59.2614 2.05397 -0.110066)
(243.008 178.919 -105.009)
(102.132 100.828 -46.9833)
(147.667 91.9993 13.5076)
(27.2244 54.8748 2.01134)
(74.5871 32.0171 -1.82117)
(15.5533 22.9627 -0.517863)
(48.8996 13.2861 0.174234)
(62.9046 -2.01875 0.0257071)
(65.8335 -2.66629 -0.125163)
(71.0613 4.08026 -0.135398)
(76.7237 10.493 -0.0774601)
(81.1345 11.2749 0.108722)
(82.5631 8.07391 0.104937)
(78.7681 7.8112 -0.0862845)
(73.3912 10.684 0.368062)
(61.122 8.7188 0.855913)
(56.9661 5.34217 0.468679)
(55.8667 2.78485 0.0402467)
(56.2563 1.21615 -0.0823311)
(58.671 1.19538 -0.0873649)
(98.8761 -26.8678 -22.0464)
(32.1987 84.2139 3.23526)
(141.66 66.8278 7.83623)
(98.4116 50.6946 -5.27337)
(149.389 42.7992 -5.00328)
(116.531 25.8141 -1.57539)
(110.301 0.422976 0.00315417)
(97.4205 -10.3753 -0.824875)
(77.8258 0.385415 -0.231823)
(70.0916 1.55221 0.119053)
(72.6713 5.38095 0.174507)
(72.7124 7.8695 0.0523192)
(73.3004 9.45074 -0.180868)
(74.9287 10.918 -0.231102)
(72.178 12.8598 0.393541)
(59.9184 12.4869 0.283381)
(57.5545 6.22642 -0.647307)
(56.5727 2.56581 -0.468443)
(57.6533 1.33357 -0.260435)
(60.1243 1.21274 -0.171284)
(24.7646 -202.066 75.9974)
(-85.1556 -18.6126 -0.550965)
(106.369 70.1031 -7.36929)
(64.6357 48.5113 2.18881)
(112.705 60.9098 2.2798)
(72.9429 34.2116 1.17147)
(83.0479 26.2433 2.52357)
(74.9962 19.1837 0.0490235)
(69.5007 10.0504 0.116734)
(64.1909 -2.05011 0.158568)
(59.6686 -1.27712 -0.38797)
(65.3895 8.08734 0.0901243)
(67.5425 8.48072 0.0310455)
(72.1314 9.76356 -0.0156451)
(74.4493 15.3767 0.638923)
(68.0767 17.2249 0.0460713)
(67.5691 12.9255 -0.893414)
(65.263 4.6733 -1.1349)
(63.4139 0.299408 -0.642128)
(61.7636 0.387356 -0.22045)
(16.7911 -123.761 176.095)
(-44.4259 -107.698 -10.8048)
(114.446 -30.2452 20.3383)
(33.8784 14.7693 6.48335)
(105.823 51.2266 4.56652)
(58.5039 20.5398 0.879713)
(73.8846 32.734 -0.875091)
(51.8167 23.583 -0.572173)
(61.3694 14.0175 -0.179151)
(48.0261 6.15001 0.346354)
(49.5023 1.27737 0.176683)
(46.4587 0.347875 0.108921)
(53.7384 0.939674 -0.0663416)
(61.823 5.72619 -0.419092)
(70.5246 14.2136 -0.23868)
(76.7135 16.8445 -0.241225)
(81.5361 14.4829 -0.192496)
(80.6306 11.7898 -0.19845)
(75.6251 8.22808 0.549064)
(66.1631 4.17828 0.45619)
(-43.5325 149.008 6.90441)
(-36.6825 -74.6409 -19.5596)
(105.753 -40.4654 -5.76718)
(19.6925 -2.59029 2.35415)
(89.5473 42.6559 6.8219)
(37.619 29.4875 1.30703)
(66.1461 54.5118 0.357284)
(45.6466 17.9524 -0.474582)
(59.2392 24.7666 -1.20307)
(50.9548 6.20921 -1.24803)
(56.3213 6.88731 -0.896017)
(51.1555 -2.66595 -0.206568)
(52.4153 -2.64267 0.205832)
(51.1049 -2.46747 -0.258547)
(57.6853 3.12552 -0.485858)
(65.3713 7.97001 -0.20025)
(69.221 10.1544 0.23995)
(68.193 10.2379 0.674912)
(64.9905 10.7243 0.990506)
(61.0354 7.08816 0.356212)
(-24.2709 15.9544 -8.34866)
(-173.584 -122.334 -48.6161)
(101.835 -70.9964 -10.5329)
(-20.6523 -23.4171 -6.57812)
(83.1623 13.3899 0.844364)
(31.1269 19.6982 -1.70623)
(75.1576 32.7076 -1.02539)
(63.3421 19.8944 -2.40515)
(78.748 18.5819 -2.26277)
(76.5941 10.3216 -2.43231)
(81.3947 7.61651 -1.12887)
(75.5628 1.51085 0.157171)
(67.403 0.359394 1.48005)
(54.5256 -1.35009 0.836678)
(52.7706 2.7451 -0.221775)
(50.9641 5.70048 -0.236197)
(53.7021 9.05171 -0.294255)
(54.2152 10.1644 -0.293313)
(55.756 10.0742 -0.384628)
(59.2734 6.45883 -0.396997)
(331.466 -41.153 -157.017)
(43.5043 6.15807 0.390214)
(147.248 -34.8785 -10.6146)
(39.4798 12.035 -4.0502)
(89.9694 28.7964 -4.03407)
(46.5913 32.0005 -3.73347)
(79.0707 39.0937 -2.5883)
(65.1993 24.8194 -2.55955)
(81.868 25.0167 -1.46461)
(75.2011 14.1472 -0.809334)
(80.7471 12.998 0.248506)
(72.9117 7.46693 0.582927)
(70.0469 9.27975 1.54813)
(59.055 6.37939 0.977417)
(56.8722 6.88641 0.48866)
(53.5034 7.52706 0.256782)
(55.1082 8.48661 0.0818794)
(56.3717 9.1943 -0.136274)
(59.3325 8.94429 -0.572088)
(65.7173 6.14511 -0.527801)
(193.099 -136.485 -70.0799)
(117.298 -66.9381 16.247)
(131.267 -26.105 25.3467)
(29.2014 12.1761 10.05)
(83.2861 32.0218 4.64008)
(44.6292 31.8476 0.292731)
(79.7197 33.3306 0.422923)
(64.2876 22.5769 0.344392)
(79.6939 18.4414 1.06481)
(69.6523 10.717 1.17206)
(74.2511 8.82921 1.39587)
(66.717 5.77043 1.08937)
(67.821 5.9386 1.10356)
(64.3796 4.74724 0.714033)
(65.2229 4.75717 0.659424)
(64.0998 5.05389 0.622526)
(65.6277 5.58778 0.498827)
(66.8816 6.08267 0.232368)
(69.7863 4.99743 -0.0173153)
(74.1084 3.1315 -0.034967)
(190.158 -247.654 -145.669)
(1.2217 -120.136 -47.7428)
(126.424 -56.1934 -18.1004)
(69.2232 -12.2157 -3.13666)
(99.5813 22.369 4.62897)
(59.3995 23.6719 2.66287)
(83.5061 27.3356 3.00848)
(63.2098 18.2325 1.8472)
(77.7202 16.6742 2.02328)
(66.534 10.5677 1.46243)
(73.5401 9.53101 1.53552)
(67.1818 6.40726 1.14676)
(70.2508 5.82503 1.04891)
(67.4854 4.08836 0.755202)
(69.4204 3.50978 0.65205)
(68.6747 3.0962 0.582327)
(70.6105 3.01461 0.523072)
(71.5204 3.16327 0.466424)
(73.8805 2.76203 0.361703)
(76.395 2.22716 0.367403)
(-24.1795 9.76585 37.7674)
(-144.017 -47.2841 -27.9068)
(61.4726 12.2994 -19.1963)
(-11.4125 4.49894 -7.65943)
(76.8308 28.54 -4.17782)
(39.6284 20.6533 -1.93176)
(79.2203 20.1862 -0.554821)
(60.4907 11.9383 -0.0981126)
(78.7358 7.31725 0.881305)
(69.8531 3.20468 1.11033)
(78.7295 1.25124 1.58111)
(74.3288 0.615344 1.34802)
(78.0691 0.46323 1.18328)
(75.5772 0.415834 0.667632)
(76.9508 0.213162 0.358339)
(75.4483 0.0966297 -0.0145925)
(76.2573 -0.104551 -0.217185)
(75.6065 -0.28582 -0.326657)
(76.1343 -0.780235 -0.494894)
(76.8919 -1.15226 -0.619696)
(152.67 -227.021 41.3428)
(-79.4644 -90.7849 -69.7418)
(120.083 -46.8928 -26.2171)
(32.4029 -18.0735 1.3781)
(91.2579 9.45204 4.99138)
(53.7528 15.9728 3.51445)
(91.9701 16.1405 2.24155)
(82.1539 11.0372 0.391342)
(101.597 5.74368 0.0290273)
(96.5022 1.06996 -0.356275)
(102.354 -1.41698 0.103993)
(96.5508 -1.7071 0.140153)
(97.7599 -0.52977 0.327093)
(94.7468 1.25926 0.310108)
(96.1018 2.45642 0.279733)
(95.4721 4.00215 0.316127)
(97.3126 4.62609 0.287002)
(97.8289 5.10953 0.309381)
(99.3601 5.61437 0.20569)
(102.353 5.51627 0.269848)
(263.124 -271.161 56.0178)
(123.106 -97.9923 17.2115)
(185.907 -26.863 23.0839)
(134.67 -17.6071 13.7501)
(167.722 -4.29331 9.09551)
(159.481 2.15365 4.38131)
(165.961 9.82348 6.00793)
(148.586 11.3884 5.96018)
(144.664 9.79901 7.42799)
(133.546 4.64602 5.62714)
(135.202 1.5807 4.03335)
(133.231 -1.07359 2.15392)
(136.878 -1.85563 0.546898)
(137.172 -1.34031 -0.262924)
(137.961 0.774651 0.314147)
(133.152 3.31607 2.39502)
(124.494 6.54544 3.99468)
(112.573 5.09327 1.46668)
(108.41 2.37733 -0.850424)
(104.693 0.335455 -1.40372)
(250.434 -303.7 -74.9653)
(-77.9294 -37.0721 -8.00567)
(136.46 -69.3832 -18.7898)
(37.945 -41.1462 -2.57825)
(101.58 -26.118 -0.736222)
(78.281 -12.8663 -2.52174)
(103.529 -3.51584 0.077958)
(91.5898 0.0154671 0.101544)
(102.304 1.18899 1.37772)
(94.7166 0.291473 0.03048)
(98.4215 -0.369787 -0.0334207)
(93.8123 -0.654957 -1.61667)
(95.1193 -0.230952 -2.11407)
(92.0127 1.1698 -2.76582)
(93.1807 3.71503 -1.97812)
(91.1966 7.53403 -1.12997)
(92.1763 9.70685 0.0282915)
(90.7218 8.74935 0.377774)
(90.7777 6.83088 0.676217)
(89.7603 4.25594 0.379138)
(253.348 -255.793 162.392)
(134.515 -95.3992 11.3164)
(178.494 -64.3458 -8.87006)
(99.0709 -30.4254 -4.65671)
(118.594 -9.75724 -3.90075)
(85.4557 1.09344 -3.52249)
(100.416 7.42098 -1.31011)
(83.8391 9.13834 -1.48799)
(91.2947 8.03215 -0.504084)
(80.1052 6.6307 -1.06831)
(81.7482 4.69508 -0.462182)
(74.0397 3.50515 -0.850496)
(74.3046 2.40071 -0.868182)
(70.4259 2.27756 -1.21445)
(71.4471 2.79907 -0.835287)
(70.9928 4.63847 -0.217179)
(74.698 6.09269 0.32061)
(75.4679 6.00072 0.696757)
(77.2006 5.95613 0.739661)
(78.4445 4.6578 0.58935)
(256.751 -38.9004 64.57)
(24.886 32.3891 20.6255)
(130.093 8.39813 31.5743)
(27.6496 -6.94698 9.73258)
(94.434 -0.881032 2.6968)
(44.8174 0.0405515 -0.225275)
(79.5482 2.33433 0.186438)
(57.4222 5.958 -0.192841)
(72.9685 6.82823 0.37462)
(61.4991 8.19928 -0.184265)
(66.9316 7.4243 0.0276523)
(60.2556 6.68908 -0.259901)
(62.1298 4.84777 -0.172463)
(59.237 3.86979 -0.125632)
(60.8974 3.24078 0.0349854)
(60.6408 3.72904 0.12866)
(63.6621 4.6761 0.291759)
(64.4667 5.24485 0.273668)
(66.2242 5.85763 0.220823)
(68.472 4.89744 0.231261)
(-39.0547 -86.8795 -96.5376)
(-72.4072 -35.1234 -26.057)
(89.7903 -28.1782 -20.1117)
(10.424 -5.87951 2.03637)
(92.1209 -2.04974 -2.54497)
(50.3417 6.9367 1.181)
(82.265 3.43866 1.62989)
(63.3996 12.453 0.99129)
(74.9746 7.40273 1.01994)
(63.6475 11.713 0.58487)
(68.1682 7.53212 0.729555)
(61.6319 8.17213 0.353251)
(63.3415 4.56191 0.310443)
(59.7673 3.85627 0.0502056)
(60.8057 2.02304 0.370944)
(59.7025 2.08113 0.372593)
(61.3635 2.28734 0.297276)
(61.1156 3.18176 0.127651)
(62.3669 4.26909 0.0324341)
(64.6771 4.17803 -0.0085327)
(345.419 186.567 69.6768)
(60.1722 -21.9028 11.6636)
(127.708 -27.4221 1.99787)
(12.5055 -20.713 1.089)
(85.3797 -19.199 -1.99247)
(22.4347 3.32416 2.26006)
(71.6783 -6.05941 0.223942)
(50.1411 9.86669 -0.10159)
(65.5092 9.00989 -0.0889171)
(58.5786 13.4686 -0.421324)
(63.6425 10.8847 -0.0273782)
(60.3628 10.8206 -0.0442479)
(61.9932 7.43408 0.311346)
(59.7756 5.86265 0.548928)
(59.9168 3.5921 0.859249)
(58.4801 3.2219 0.616357)
(58.8284 3.35203 0.228027)
(58.0176 3.84827 -0.026424)
(58.4667 4.49182 -0.121729)
(60.6372 4.08155 -0.0875543)
(208.194 114.735 141.025)
(9.18271 53.4746 18.5987)
(136.916 36.8661 -25.3787)
(43.2637 9.45374 -10.4862)
(94.3226 2.19326 -7.74361)
(51.9481 9.05938 -2.72372)
(63.8452 -18.9617 -1.77586)
(45.323 15.8629 -0.495263)
(56.8998 1.23002 -1.29242)
(51.0854 13.6031 -0.344025)
(57.8535 6.81193 -0.435586)
(54.6999 10.2057 0.205356)
(57.021 5.64921 0.596423)
(54.8366 6.11235 0.919479)
(55.3734 3.70522 0.691912)
(53.663 3.33094 0.367712)
(54.2216 2.92291 0.0727423)
(53.9213 3.17743 -0.0382241)
(54.8824 3.64109 -0.161212)
(57.6355 3.43193 -0.104858)
(170.744 -23.7015 -157.848)
(-40.0813 -21.5636 -5.38878)
(105.73 -5.48928 -13.7906)
(-5.86355 2.61129 -4.29574)
(70.4895 -5.63418 -6.28371)
(11.7078 30.171 0.0739213)
(39.9256 11.3486 0.529944)
(30.0156 6.47675 -1.02814)
(48.489 12.7783 -0.0414846)
(49.2389 8.18724 -0.184321)
(56.316 13.0777 -0.470816)
(55.4296 11.2089 -0.161544)
(57.4758 11.0742 0.384495)
(55.419 8.73793 0.921804)
(51.441 5.2512 0.877237)
(50.4185 4.22616 0.285163)
(50.5413 3.03371 -0.0835688)
(50.3074 2.89623 -0.224614)
(51.0342 2.76495 -0.319062)
(54.0149 2.5513 -0.172952)
(220.045 23.5765 -99.9827)
(61.0488 36.7738 -10.7542)
(134.093 39.573 -6.82604)
(64.8169 17.9106 -6.88534)
(87.2621 3.43929 -3.94856)
(67.5002 16.0216 -2.38162)
(78.5189 16.2505 -2.09679)
(59.9344 -6.71389 -0.328726)
(61.7058 1.0934 -0.496207)
(59.8937 5.50478 -0.807779)
(60.6731 10.9968 -0.894566)
(60.3314 10.7726 -0.5632)
(61.4026 10.8477 0.323013)
(60.2003 10.6203 0.835312)
(55.434 8.59197 1.24934)
(50.1285 4.48363 0.534419)
(49.3024 3.00247 0.126862)
(48.9457 2.15942 -0.0208586)
(49.473 1.725 -0.177647)
(52.2838 1.53128 -0.101353)
(109.308 125.979 -193.719)
(-137.576 64.5119 30.4057)
(91.9542 83.0871 12.8365)
(8.46598 50.9624 -2.8493)
(65.7648 35.4539 -5.91787)
(25.627 25.3931 -3.47046)
(48.9002 17.6105 -0.919246)
(60.1595 -3.5312 1.51002)
(61.5657 -3.57459 0.509663)
(63.5051 3.16756 -0.212589)
(65.7887 7.72941 -0.203209)
(67.0404 8.16002 0.00646808)
(66.3557 8.33003 -0.028685)
(63.7529 10.051 0.247163)
(59.0198 8.70369 1.1582)
(51.4114 6.70713 0.558878)
(50.4185 4.23403 0.277586)
(49.6887 2.31628 -0.000160053)
(50.0002 0.991758 -0.0947559)
(52.0619 0.811542 -0.112279)
(123.112 -178.719 81.2779)
(-5.73347 -19.3968 4.81694)
(129.641 0.507733 -1.46946)
(81.93 17.379 -13.4863)
(121.024 19.6749 -8.8619)
(107.905 23.6916 -10.3439)
(105.771 8.87956 -5.47118)
(86.2864 -7.05726 1.86722)
(67.9646 -1.86064 1.6274)
(63.4446 0.328366 1.09252)
(65.1684 5.00654 1.28991)
(66.3974 8.19588 0.0188529)
(67.3237 10.3178 -0.941392)
(66.8719 12.0232 -0.531525)
(61.1551 12.2013 1.38449)
(53.1632 9.78631 -0.34355)
(51.9786 4.70014 -1.14046)
(50.5667 2.04271 -0.535001)
(51.1051 0.855243 -0.19855)
(52.8608 0.511472 -0.149137)
(148.82 53.402 59.8445)
(37.7449 29.6583 39.7586)
(100.574 49.2787 0.706944)
(57.0106 28.5813 3.46656)
(92.2579 43.5869 1.67619)
(74.5661 26.3728 0.777026)
(89.4964 19.5567 3.30664)
(74.9285 15.115 2.93487)
(61.3941 6.56183 1.26139)
(53.9774 0.714381 0.626165)
(53.087 3.51768 -0.287583)
(56.3682 7.14212 0.137953)
(60.6897 9.02492 -0.353047)
(64.3809 11.5141 -0.39231)
(64.3673 16.9189 1.11924)
(61.7828 13.3887 -0.636584)
(60.7981 6.80639 -1.40177)
(56.6144 2.05919 -1.08617)
(54.3992 -0.566099 -0.396073)
(53.1496 -0.308892 -0.080111)
(70.2973 10.2226 -136.751)
(-208.693 -4.13415 -4.83106)
(127.916 19.4299 5.10621)
(21.8967 25.4443 9.7247)
(96.2374 46.4593 4.09065)
(47.4612 13.8615 2.08714)
(64.3992 29.1521 0.758146)
(40.3622 21.3807 0.195239)
(48.525 12.3371 -0.192468)
(36.1283 5.03082 0.174051)
(41.4302 2.3493 0.111705)
(40.6572 2.66306 0.0559775)
(49.441 4.27832 -0.288317)
(55.5641 8.215 -0.717218)
(61.9842 13.5012 -0.692098)
(66.1107 12.391 -0.424431)
(68.3345 9.2715 -0.16468)
(64.8643 6.49678 0.156421)
(60.5467 3.85764 1.53068)
(55.4822 1.88379 0.849233)
(-55.798 174.375 14.1831)
(-142.354 -21.8489 -38.0465)
(84.0659 1.16521 -2.30934)
(-13.254 31.0679 4.25742)
(81.0879 51.3753 8.26773)
(24.4908 28.8071 1.26104)
(55.113 51.4369 0.358864)
(32.0757 11.7431 -0.75592)
(46.5978 20.6226 -1.65923)
(36.6478 1.54264 -1.49591)
(42.6819 4.56903 -0.780293)
(38.257 -3.61532 0.0131655)
(42.5366 -0.980945 0.415784)
(42.8472 -0.671056 -0.407578)
(49.4813 4.3364 -0.454167)
(53.7788 6.53344 0.0891076)
(56.3421 7.66823 0.802054)
(54.8758 7.60527 1.43072)
(53.7496 7.48183 1.55906)
(52.4647 4.72603 0.517634)
(354.165 -232.481 -22.8423)
(-135.43 -77.2272 -29.3848)
(98.8911 -44.3884 -25.6839)
(-53.0342 6.92439 -6.46054)
(71.1648 29.0155 0.286339)
(9.30208 22.1254 -2.43836)
(60.7972 31.4501 -1.35119)
(42.9379 14.3425 -3.18294)
(58.5726 13.5788 -2.40888)
(51.5448 3.46734 -2.46403)
(55.5676 3.17815 -0.832231)
(50.0972 -1.49872 0.580521)
(49.5894 -0.351088 1.93411)
(44.8835 -0.696765 1.15233)
(45.1841 1.99877 0.0209541)
(44.4949 4.04601 -0.099086)
(47.0773 6.30055 -0.248572)
(47.5683 6.85859 -0.277758)
(49.1849 6.47074 -0.449757)
(51.8786 3.60903 -0.491258)
(130.912 -119.404 -16.688)
(29.2065 26.5268 23.5155)
(115.284 -13.6525 -9.87868)
(17.9049 17.2698 -2.27723)
(74.9808 26.141 -2.91497)
(24.1887 22.6681 -3.74642)
(62.4873 28.744 -2.59112)
(42.3089 11.3852 -2.79257)
(61.2038 13.5943 -1.01982)
(50.629 2.84519 -0.547594)
(58.7112 4.99699 0.902802)
(51.3764 1.41903 0.989427)
(53.5792 4.09227 1.95492)
(48.9321 2.85481 1.25983)
(49.5263 3.63348 0.90151)
(48.0221 3.83158 0.554644)
(50.1098 4.51316 0.224148)
(51.2619 4.74282 -0.191301)
(53.8646 4.11492 -0.711085)
(57.2046 2.43887 -0.621764)
(76.2279 -42.8611 35.5119)
(10.1929 -15.7477 56.5729)
(77.6486 8.93948 43.4082)
(-7.43752 21.1523 8.81395)
(69.5319 26.8582 5.79078)
(23.034 17.8788 0.278313)
(64.68 18.1306 1.19467)
(44.1091 8.51955 0.641112)
(62.7949 7.59574 1.84486)
(51.5456 2.57405 1.42721)
(59.015 3.15878 1.97756)
(52.7266 1.47653 1.3671)
(56.2775 2.50208 1.54074)
(54.1527 1.88199 0.999509)
(56.2838 2.20665 0.981069)
(55.8079 2.46539 0.900362)
(57.9245 2.81352 0.67873)
(58.6252 2.57718 0.324063)
(60.5285 1.5494 -0.0227737)
(62.5632 0.554951 -0.0736346)
(480.98 -29.4695 52.702)
(61.3225 -10.4754 19.9807)
(101.296 5.44704 0.677474)
(19.9186 18.8761 1.11353)
(77.3829 27.3478 5.92193)
(35.9146 17.0487 2.45873)
(69.1481 18.1665 3.65935)
(46.3876 9.3858 1.79881)
(64.5704 9.82224 2.70588)
(52.6087 4.9756 1.66506)
(61.8831 5.29396 2.15166)
(55.9707 2.91791 1.43493)
(60.508 3.0767 1.46862)
(58.1527 1.94397 0.973344)
(60.6554 1.89477 0.879284)
(59.9937 1.70151 0.771181)
(62.1213 1.77502 0.688552)
(62.5332 1.61857 0.536335)
(64.0748 1.13288 0.358004)
(65.5569 0.788837 0.329416)
(131.999 126.224 4.97515)
(-38.4419 -38.2535 -34.6478)
(48.0025 0.0471534 -19.5992)
(-17.2882 -3.18998 -3.84229)
(68.3631 20.5285 -0.30766)
(29.3896 12.9798 0.506489)
(70.6789 13.9794 1.7234)
(49.3432 7.47784 0.726884)
(68.8284 4.77026 1.87094)
(58.4823 2.2825 1.42724)
(68.3464 1.32388 2.12945)
(63.764 1.03614 1.52581)
(68.3608 0.920785 1.38472)
(66.1612 0.853957 0.612199)
(68.1088 0.646539 0.280986)
(66.8563 0.581484 -0.203752)
(67.9913 0.412822 -0.427757)
(67.3482 0.233827 -0.607935)
(67.8879 -0.264823 -0.869763)
(68.295 -0.409478 -1.00621)
(514.743 221.487 -11.9738)
(180.353 72.9241 7.90556)
(141.714 -34.8043 -18.8736)
(37.193 -34.8889 -0.0523039)
(90.5511 -16.5349 7.21791)
(52.6274 -5.98837 4.89629)
(88.6448 0.790333 5.19517)
(73.2593 2.37047 1.74236)
(90.1537 3.01064 1.51581)
(82.09 2.59006 0.1772)
(89.6554 2.27305 0.726406)
(85.8682 2.18529 0.408411)
(89.797 2.39383 0.731566)
(88.7626 2.52761 0.63205)
(91.2689 2.68132 0.663109)
(91.3281 2.65742 0.662951)
(93.3266 2.64993 0.628572)
(93.7698 2.64251 0.566527)
(95.3174 2.47402 0.199519)
(97.2367 1.66251 0.225015)
(194.806 -316.923 206.937)
(7.69379 -85.7666 70.0179)
(152.272 -23.2024 47.012)
(108.721 -2.21595 18.9986)
(147.677 13.8429 10.2496)
(126.034 16.0297 3.41164)
(131.385 17.5301 6.26208)
(113.404 13.0752 5.34638)
(117.028 9.45555 6.53336)
(110.165 5.4841 4.12956)
(113.648 3.1825 2.54519)
(110.163 2.24551 0.746277)
(110.623 1.96522 -0.425448)
(106.307 2.16331 -0.777908)
(103.825 3.44155 0.561353)
(97.5402 4.76267 2.48885)
(96.7637 4.9333 3.3609)
(93.0084 3.59712 1.53787)
(90.6226 1.59309 -0.689031)
(87.6223 0.4864 -1.42379)
(343.567 -269.506 -51.4046)
(44.9672 -51.1276 37.4492)
(113.385 -64.4983 -8.69467)
(16.7077 -22.9198 -5.99215)
(88.9581 -9.79368 -4.43397)
(59.5653 -1.17458 -4.53242)
(88.526 3.70306 -0.57399)
(72.9963 4.43596 0.114326)
(85.9788 4.66422 1.49397)
(77.0318 3.72752 -0.181895)
(82.0295 3.37326 -0.413596)
(76.5115 2.75817 -1.95836)
(77.9035 2.93816 -2.17991)
(74.0035 3.41948 -2.70358)
(74.1332 4.7335 -1.78378)
(71.8817 6.2543 -0.874427)
(73.007 6.99098 0.126932)
(71.7872 5.76266 0.280635)
(72.0625 4.4536 0.3563)
(71.8323 2.52346 0.0213377)
(157.45 -99.4263 -103.565)
(62.8124 -43.8939 -40.3172)
(132.545 -44.6789 -9.88195)
(71.8222 -21.1734 -3.00087)
(100.926 -1.98423 -4.33245)
(63.6317 6.39856 -3.49328)
(83.8225 10.8438 -1.20514)
(64.1339 11.3407 -1.28569)
(74.596 9.74465 -0.355901)
(62.4028 8.43448 -1.11577)
(66.5979 6.34244 -0.541355)
(59.3996 4.98715 -0.945416)
(61.2617 3.56227 -0.887872)
(57.563 3.13859 -1.01302)
(58.9557 3.38422 -0.559651)
(58.1493 4.44985 -0.114158)
(60.7929 5.21628 0.313527)
(60.8978 4.93045 0.649861)
(62.2219 4.84201 0.654121)
(63.541 3.49354 0.423474)
(203.868 -17.3872 80.1485)
(-21.1006 0.250522 -33.7622)
(117.688 0.981883 5.2143)
(18.8686 -2.75608 4.72031)
(83.2806 3.63652 0.269442)
(29.8774 4.35177 0.0567245)
(68.3254 5.25359 -0.0740358)
(42.9541 7.94856 -0.0731191)
(60.9462 7.77116 0.313215)
(48.0153 8.64143 -0.310404)
(55.2191 7.13971 -0.0319498)
(48.5188 6.24638 -0.342778)
(51.554 4.4447 -0.199031)
(48.7569 3.74352 -0.177092)
(50.836 3.33631 0.0239566)
(50.3772 3.86173 0.0733594)
(52.9496 4.59031 0.219759)
(53.1928 4.76837 0.2342)
(54.4703 5.00997 0.185148)
(56.4916 3.85842 0.181052)
(113.912 155.08 -16.5848)
(-20.2377 -10.5474 -26.9123)
(82.7704 -13.3873 -20.5679)
(11.8217 1.88309 1.05884)
(82.1074 3.71432 -2.88069)
(36.1872 10.9041 1.40097)
(71.0014 5.70359 1.60576)
(48.1599 14.6391 0.924384)
(61.9193 8.3538 0.829085)
(49.0349 12.6683 0.367139)
(55.1598 7.36347 0.536056)
(48.457 7.95763 0.207378)
(51.2906 4.06987 0.233509)
(47.9818 3.83173 0.061885)
(49.6795 2.33427 0.306115)
(48.6913 2.71379 0.287569)
(50.5538 2.97538 0.233257)
(50.2376 3.60398 0.10712)
(51.319 4.06399 0.0264795)
(53.3657 3.52723 -0.000638361)
(244.258 166.336 115.068)
(-8.1193 -26.0075 25.7509)
(116.399 -20.7136 7.00319)
(9.72503 -13.4227 2.44216)
(74.3638 -11.1071 -0.922846)
(9.53017 9.69524 3.03957)
(62.2138 -1.40506 0.341708)
(36.1545 14.3106 -0.0284085)
(52.9709 10.4 0.120555)
(43.7687 14.4087 -0.388093)
(49.8548 10.0216 -0.00206604)
(46.0982 9.84079 -0.0696459)
(48.4198 6.08473 0.276784)
(46.7478 5.10954 0.437823)
(47.7291 3.59384 0.675007)
(47.049 3.5958 0.480929)
(48.0826 3.66159 0.166729)
(47.5961 3.85079 -0.0264981)
(48.1451 4.08146 -0.0849528)
(50.1864 3.33321 -0.0543073)
(174.234 25.4674 145.514)
(72.8747 51.865 46.6925)
(156.378 40.5761 -7.81532)
(58.3582 15.8898 -5.24933)
(89.8115 9.17391 -5.10197)
(39.6775 13.9547 -1.67518)
(54.3183 -14.7279 -1.17446)
(33.5343 20.9511 -0.12434)
(46.3089 2.7319 -1.05244)
(38.9131 15.0854 -0.0359731)
(46.1039 6.16561 -0.33002)
(42.3805 9.78016 0.26752)
(45.4105 4.73031 0.488418)
(43.6319 5.78504 0.738388)
(45.0412 3.58296 0.58186)
(43.9398 3.48216 0.308417)
(44.9606 3.11952 0.0720593)
(44.711 3.26096 -0.0301182)
(45.6007 3.35012 -0.124468)
(47.996 2.80747 -0.0633452)
(120.105 95.7615 -160.419)
(-14.069 -19.9853 2.30323)
(104.598 -2.83612 -1.60267)
(-0.830325 5.94629 -2.79024)
(62.8143 2.90837 -3.41417)
(2.87428 34.0282 0.731249)
(30.142 9.0165 -0.46285)
(22.5206 14.5716 -0.55698)
(38.1163 12.3135 -0.183996)
(37.8533 10.5779 -0.0487781)
(44.4669 12.2156 -0.430012)
(43.4537 10.7105 0.00957291)
(45.8793 9.79714 0.420438)
(44.7795 8.10792 0.90675)
(42.7039 4.9479 0.897121)
(42.3624 4.30396 0.28061)
(42.7264 3.09645 -0.0115333)
(42.5058 2.88079 -0.139286)
(43.1276 2.51063 -0.220255)
(45.6548 2.04248 -0.0998007)
(322.328 -16.1416 -74.7112)
(156.598 6.89756 -12.4746)
(157.226 32.1252 -11.9356)
(68.6364 18.5553 -9.26593)
(79.4402 7.7606 -5.93392)
(53.0097 23.7071 -1.54017)
(58.9116 17.2962 -1.22667)
(43.0712 -4.19697 0.216516)
(48.315 3.63149 0.00472617)
(47.3868 6.68845 -0.523197)
(49.3928 10.3388 -0.789384)
(48.8181 9.75814 -0.458969)
(49.5953 10.2353 0.290079)
(48.3412 9.81457 0.835427)
(46.1124 7.39759 1.19351)
(42.1985 4.13531 0.791759)
(41.9506 2.88578 0.201231)
(41.8219 2.0517 0.106359)
(42.3645 1.54242 -0.0786825)
(44.7762 1.17101 -0.0445524)
(84.2275 157.604 -110.403)
(-83.2659 70.3498 -19.1303)
(94.3315 79.9024 -6.19745)
(10.5298 49.0056 -3.76527)
(57.1574 36.3452 -6.14081)
(20.7982 27.1292 -4.34665)
(43.3123 19.486 -0.708969)
(51.6434 -1.53365 1.93396)
(53.3649 -1.28906 0.921811)
(54.6236 3.73762 0.000903902)
(55.5462 6.96632 -0.253356)
(55.25 7.67245 -0.21371)
(54.0698 8.77589 -0.132133)
(51.9797 9.24758 0.385549)
(48.013 6.96924 1.38593)
(42.8451 5.41329 0.807779)
(42.7611 3.43241 0.376575)
(42.403 1.96285 0.167718)
(42.7976 0.801567 0.00939873)
(44.695 0.577596 -0.0436899)
(80.9278 -84.9667 152.038)
(-23.5485 -11.6825 -1.45212)
(122.23 -6.59519 0.0109076)
(60.405 10.7053 -11.3293)
(96.4705 13.1222 -7.69592)
(77.6953 17.041 -9.36939)
(76.0791 4.93529 -3.32536)
(65.0373 -3.38493 3.6639)
(56.8112 -0.473525 2.31576)
(55.6028 1.80498 0.311513)
(58.203 6.52968 2.07143)
(59.7985 8.2859 -0.38733)
(57.7812 10.8544 -1.16197)
(55.5972 11.7328 -0.31268)
(49.5623 10.1102 1.4242)
(43.9002 6.64801 -0.19587)
(43.5268 3.05642 -0.67356)
(42.6533 1.34095 -0.185105)
(43.3382 0.41072 -0.0519051)
(45.0276 0.117768 -0.0856826)
(181.867 -65.5665 -50.5129)
(55.3067 23.9566 7.1937)
(98.91 30.2022 -11.2537)
(44.6842 16.6757 -3.02931)
(75.0854 34.2424 -2.63516)
(53.1587 15.9718 -1.65556)
(69.5725 12.2422 3.17489)
(60.4777 11.9537 4.39069)
(50.6257 6.29807 1.9374)
(45.6387 3.64662 0.600054)
(45.9477 5.70275 -0.276792)
(48.9124 8.2014 -0.374558)
(52.7939 10.1844 -0.81352)
(55.1429 12.52 -0.519586)
(53.763 14.5663 1.04787)
(50.8641 7.75991 -0.566064)
(49.3714 2.55052 -0.825795)
(46.081 0.426791 -0.561023)
(44.8662 -0.944069 -0.119455)
(44.7802 -0.577589 -0.0286833)
(200.475 41.2097 46.8737)
(-61.6752 47.7395 -29.2468)
(107.895 43.5435 -33.14)
(16.8065 27.9108 5.47952)
(82.8465 41.3481 1.22816)
(31.6751 7.06186 2.17249)
(50.7768 25.8373 1.54739)
(29.407 18.6731 0.800759)
(38.2333 12.1526 0.0233533)
(27.6978 5.39549 -0.021251)
(34.4812 4.01138 -0.102011)
(34.4366 4.34256 -0.217164)
(43.1195 6.16226 -0.538966)
(47.7871 9.09181 -0.673346)
(51.7666 10.4132 -0.178979)
(53.4972 8.03799 0.0169105)
(54.1031 5.30567 0.0771642)
(49.7144 3.01361 0.480321)
(47.575 1.64999 1.4825)
(45.8494 0.813457 0.682156)
(107.965 5.98242 -45.6486)
(-171.401 40.1919 -54.0406)
(81.7876 50.5448 -25.1591)
(-29.7045 44.2294 1.46437)
(71.7079 49.836 4.21407)
(10.0459 24.5435 1.4752)
(44.7254 48.1973 0.286372)
(19.5479 6.83635 -0.703713)
(35.9586 18.8125 -1.48202)
(24.8892 -0.687134 -1.35525)
(32.3861 4.58379 -0.564501)
(28.5825 -3.14215 0.00521761)
(34.3032 0.814589 0.313623)
(34.9255 0.12311 -0.364476)
(40.3744 3.67957 -0.0765609)
(42.4482 4.65242 0.439459)
(44.5673 5.65893 0.98415)
(43.4586 5.53326 1.34273)
(43.7442 5.32312 1.30735)
(43.9863 3.10286 0.370799)