/*--------------------------------*- C++ -*----------------------------------*\
  =========                 |
  \\      /  F ield         | OpenFOAM: The Open Source CFD Toolbox
   \\    /   O peration     | Website:  https://openfoam.org
    \\  /    A nd           | Version:  10
     \\/     M anipulation  |
\*---------------------------------------------------------------------------*/
FoamFile
{
    format      ascii;
    class       volScalarField;
    location    "1.9";
    object      k;
}
// * * * * * * * * * * * * * * * * * * * * * * * * * * * * * * * * * * * * * //

dimensions      [0 2 -2 0 0 0 0];

internalField   nonuniform List<scalar> 
12920
(
971.001
1183.98
895.191
412.545
335.323
372.849
395.27
395.492
377.445
329.022
260.83
191.678
133.556
96.5387
78.6835
68.0768
59.132
53.0822
52.3362
53.7373
2214.25
1521.19
1214.46
836.861
646.838
523.791
411.899
332.327
281.196
241.96
201.648
169.035
147.55
134.403
126.392
119.76
113.464
103.025
98.2939
83.7557
457.124
1332.58
1607.19
1481.03
1044.16
775.953
573.113
411.492
296.726
234.251
193.457
166.627
147.44
133.979
126.525
118.918
109.895
94.035
87.4534
69.4822
8773.69
4879.6
2505.64
1698.53
1152.2
844.05
595.388
407.186
277.872
208.652
162.056
128.331
99.189
82.1142
76.2211
75.2863
73.6339
67.9032
60.6113
42.5715
12225
3704.56
2351.22
1780.82
1318.38
1014.43
748.141
521.808
357.796
254.782
183.529
129.635
84.9577
51.6337
33.4159
27.6441
26.0884
23.5477
19.7583
10.7713
4921.86
2876.76
2052.62
1750.99
1299.09
941.182
700.943
541.446
402.908
299.59
214.079
146.24
85.1465
40.5127
17.693
9.33243
6.27601
4.37947
3.09574
1.31654
9028.68
4577.56
2662.33
1893.21
1369.66
1029.7
767.142
599.743
453.938
312.528
186.902
91.8486
35.6404
16.9081
14.1372
13.9814
13.6439
11.7714
9.98254
5.25311
11411.2
9613.83
4355.03
1870.67
1295.8
1104.18
683.837
440.119
337.155
243.942
161.026
82.1738
28.6868
17.8331
62.1402
66.5293
63.7974
49.8428
37.4546
18.5498
10388.5
4566.46
2485.04
1512.26
1055.36
602.821
466.134
301.901
259.808
203.986
180.689
111.175
51.1666
26.8512
62.5488
130.608
129.441
111.739
77.044
35.8116
7315.98
4818.49
2717.85
1553.48
945.903
488.647
315.523
320.672
312.725
257.817
247.734
107.058
79.8477
91.236
151.69
173.082
152.644
133.612
98.4557
46.6808
8020.76
5399.04
2971.83
1850.92
1046.11
471.361
207.783
166.051
262.531
287.939
275.904
100.313
71.973
67.6943
92.6222
172.107
161.93
140.279
104.326
50.8498
4979.17
3852.86
2836.59
1962.08
1147.21
536.184
235.059
119.21
87.3629
100.228
74.7937
55.1183
77.0745
91.9737
166.86
255.42
212.413
153.21
107.663
53.2664
4350.9
3541.39
2652.44
1637.57
906.871
611.988
349.447
221.463
200.586
175.574
173.552
170.125
149.485
133.361
168.494
138.699
130.282
108.296
81.2513
50.9758
1613.42
1272.9
1131.78
1076.94
824.592
534.426
445.978
368.949
326.164
279.53
244.514
203.432
166.961
132.363
100.599
76.6475
64.8336
54.5756
49.8295
46.0997
521.634
1035.17
859.73
648.931
538.432
416.966
373.985
329.744
281.229
239.885
201.114
165.119
131.289
104.629
83.8187
67.527
57.6621
54.4862
56.0297
58.6016
78.3041
522.533
983.226
895.545
657.1
538.032
410.232
346.808
280.168
240.707
198.784
166.148
134.737
109.627
90.6755
74.3589
63.1823
46.9362
37.8565
30.1756
2262.25
3047.52
2615.93
1481.27
975.314
667.905
468.072
375.027
282.082
228.181
183.235
156.39
132.19
109.818
86.9802
63.6761
43.5705
28.4559
18.4961
14.2384
2213.89
3236.82
3093.13
2156.92
1387.28
987.537
674.958
542.293
430.024
338.183
249.512
188.153
148.097
125.108
108.853
92.1408
78.1086
61.2808
53.9639
37.8538
3731.81
4874.09
3264.12
1739.94
1069.25
681.834
415.333
307.114
258.674
236.194
195.645
160.764
133.865
113.277
95.9011
77.8634
64.4189
51.9384
46.6258
34.4417
1231.26
1653.51
1268.82
717.834
492.444
376.211
282.318
202.691
144.535
115.282
104.815
101.064
96.5153
87.5431
77.5383
67.6923
58.9647
46.4057
34.0712
16.2356
2164.45
2071.42
1175.08
954.981
866.477
906.281
911.354
881.392
805.137
705.026
573.392
432.143
313.932
231.612
182.449
151.703
137.742
128.168
124.524
115.128
3577.97
2736.28
2691.61
1800.11
1355
1204.44
939.128
769.471
639.246
572.35
494.374
436.095
389.602
360.44
339.667
323.519
299.205
272.058
249.267
185.376
9543.38
5492.34
3999.8
2853.81
1958.09
1728.33
1317.94
993.328
724.077
594.269
497.562
441.918
397.161
367.081
344.069
321.217
288.572
238.662
202.455
128.067
13943.1
8255.6
4798.78
3462.76
2302.17
1850.52
1276.03
952.935
676.104
534.323
412.894
332.712
269.293
239.874
227.247
215.155
190.029
149.852
116.379
57.9175
15701
6593.7
5242.94
4033.77
2713.52
2264.9
1643.48
1216.34
855.101
631.037
438.34
290.259
176.779
109.268
76.2368
61.3503
49.9825
35.1436
22.2337
8.81199
5357.19
4655.71
4241.91
3761.04
2347.35
1861.2
1496.83
1308.81
973.121
732.416
479.113
284.079
140.728
62.4465
26.6504
13.0159
7.87679
5.13939
3.36972
1.29031
17567.4
6609.78
4686.14
4152.96
2972
2151.6
1535
1284.7
1030.31
695.937
379.958
164.973
64.6704
30.0835
23.105
22.0821
23.3687
23.4769
20.9268
9.88409
14383
8306.65
4781.55
3791.27
3136.14
2534.82
1871.38
1434.92
1132.66
827.819
486.351
217.795
83.4722
59.3146
118.55
123.654
121.881
104.113
78.2149
36.3767
15984.8
6846.82
4606.12
3346.57
2559.83
2272.22
1992.84
1688.1
1353.93
1110.07
821.031
456.347
227.217
168.952
227.11
306.003
298.604
254.821
185.863
88.071
7595.3
6386.66
5193.56
3333.44
2081.26
1749.64
1720.5
1732.84
1530.05
1351.72
1059.66
566.333
439.209
414.616
427.475
415.12
391.592
355.746
273.85
136.34
7685.24
6203.39
5724.62
4253.63
2200.57
1434.25
1096.79
1254.73
1356.75
1335.94
1077.23
544.771
374.318
339.777
320.514
386.791
375.232
335.099
283.573
157.033
13183.2
9137.54
6697.22
4744.29
2626.56
1636.08
1072.56
914.072
769.691
717.542
536.433
425.082
451.142
444.203
449.384
493.572
454.17
359.881
278.278
140.658
12502.4
9162.39
7190.21
4016.63
2130.16
1462.5
1105.35
937.899
839.457
682.889
633.28
582.762
508.807
444.706
388.448
354.952
330.716
263.921
194.976
108.59
4477
5360.11
4060.51
3009.8
1758.77
1317.81
1168.17
967.045
826.124
695.313
590.506
493.282
406.264
327.798
260.725
191.793
150.593
120.02
111.173
98.5882
5825.91
5714.81
2577.08
1683.49
1308.07
1059.22
992.667
869.569
721.124
609.204
498.938
413.637
332.825
272.497
223.129
182.754
164.403
163.143
170.421
166.305
4527.38
4895.67
3874.22
2502.66
1663.36
1340.11
1019.87
860.945
685.826
585.439
476.834
404.299
332.74
273.603
228.031
184.867
162.443
123.658
109.281
78.4519
7845.43
9737.06
7250.32
3686.75
2277.64
1535.91
1083.9
898.375
675.819
561.993
443.533
368.371
292.906
227.557
165.687
112.2
72.4727
43.2744
27.0911
17.196
3738.81
10415.8
8640.4
4850.74
2940.9
2033.31
1356.76
1152.48
933.911
797.109
575.834
444.79
351.985
295.704
245.621
202.17
164.561
123.216
100.743
58.168
9341.66
8596.74
5781.27
3419.24
2115.86
1329.55
829.542
673.674
583.06
539.998
446.597
375.598
304.186
252.605
202.724
157.491
120.405
87.2385
70.5139
40.0575
432.787
2410.73
1664.81
1086.6
819.3
653.036
492.361
370.11
274.996
231.839
214.503
206.675
191.248
174.68
157.903
138.01
110.984
77.1706
49.2292
20.6132
5789.36
3880.23
1957.67
1422.68
1294.6
1249.49
1148.46
1016.44
897.438
768.646
619.871
466.265
342.084
258.221
209.851
178.982
163.003
148.205
141.542
125.762
7645.13
5469.5
3758.42
2507.1
2226.21
1962.11
1498.43
1203.53
966.671
844.444
716.646
633.529
566.993
522.997
489.121
456.863
415.097
369.92
321.756
210.186
14072.4
7257.93
4622.02
3205.2
2719.57
2462.09
1854.2
1391.25
1029.29
851.813
716.464
639.049
577.941
534.43
494.623
450.002
388.163
312.156
222.791
107.579
7629.84
8275.3
5687.24
3899.66
2915.31
2458.2
1768.27
1316.47
945.584
755.362
597.35
501.778
429.449
390.524
357.414
310.834
242.554
161.408
92.4069
36.0107
11109.2
7997.39
6347.79
4837.15
3582.2
3020.94
2158.18
1562.41
1081.2
799.32
564.283
400.52
279.943
206.298
152.212
106.391
66.801
35.5101
16.5868
5.51216
11528.3
7084.4
5909.09
4718.06
3242.83
2820.57
2142.21
1660.69
1176.45
850.034
548.619
344.381
192.69
103.368
50.5758
22.6038
10.0765
5.33243
3.75032
1.70289
11144.5
9828.03
6358.13
4686.65
3327.53
2814.41
2240.64
1850.94
1351.95
862.36
462.829
217.099
101.962
49.2244
28.8905
22.3002
22.9446
25.7697
25.8091
17.2665
17183.5
8991.54
6408.04
4694.37
3777.35
3162.68
2538.54
2058.16
1582.57
1048.38
574.639
269.591
130.134
94.8828
137.575
134.485
135.522
130.944
115.321
66.7621
13891.5
8094.02
5970.59
4035.12
3391.38
3083.35
2747.99
2300.54
1820.35
1394.11
892.775
528.836
342.056
284.787
339.448
422.308
377.168
305.026
254.641
149.316
5593.33
7990.84
6600.49
3955.7
2867.86
2562.6
2535.84
2305.71
1985.79
1654.25
1154.02
769.527
639.208
580.567
590.926
654.664
638.61
559.398
429.596
240.926
10815.9
7650.27
7064.5
4947.35
2806.28
2043.62
1865.75
1881.17
1790.69
1630.76
1039.24
594.353
472.213
480.897
534.895
680.169
678.808
648.703
551.39
298.92
23429.7
10672.6
8087.29
5690.54
3144.93
2122.65
1652.17
1459.14
1271.73
1137.6
948.112
794.03
713.187
625.92
617.376
688.113
671.098
599.715
491.218
268.372
13739.5
11598
9145.54
5130.68
2895.53
1935.78
1592.87
1379.8
1201.02
999.087
899.73
797.71
683.207
597.131
520.961
500.997
484.672
426.478
370.07
243.735
9691.48
8420.5
6079.73
4014.06
2532.76
1860.5
1585.21
1255.55
1058.8
873.553
738.871
628.623
542.453
473.335
416.918
358.279
321.586
289.562
280.669
250.119
8264.4
7865.85
4527.12
2519.72
2006.47
1468.61
1361
1143.88
941.062
762.306
635.382
536.793
464.323
411.454
367.64
330.663
310.805
300.893
295.597
260.095
6193.37
8294.85
6329.6
3607.05
2323.11
1699.13
1323
1070.09
851.871
695.256
566.075
467.746
395.088
331.882
294.053
252.523
233.276
193.572
173.43
119.081
6323.97
11487.3
9458.1
4815.29
2828.03
1836.16
1330.08
1062.34
806.684
653.84
505.354
398.394
304.721
226.289
166.383
118.437
85.7159
59.7406
48.0929
28.1527
22056.9
20015.1
11526.8
6034.03
3461.2
2280.02
1524.23
1262.1
973.512
802.306
603.557
487.624
380.495
301.791
224.73
160.956
110.351
71.1086
51.0036
29.4436
10546.6
10013.8
7291.25
4019.2
2340.7
1439.87
938.367
800.944
692.734
623.375
508.882
424.988
338.403
268.084
202.071
148.668
107.404
74.4255
55.7119
27.0168
1165.37
2340.47
1911.01
1324.03
980.744
742.097
549.616
419.162
337.403
295.363
268.693
244.124
217.542
189.924
163.01
133.681
102.701
70.2195
44.4761
17.9831
5435.81
4593.33
2267.43
1604.66
1517.94
1415.91
1235.76
1051.09
892.665
728.552
568.56
422.565
316.923
249.372
211.081
183.72
167.148
151.546
147.74
140.448
6817.52
6113.75
4645.33
3132.13
3045.65
2560.01
1974.55
1558.27
1268.33
1116.32
967.895
875.275
796.716
735.541
686.988
628.214
566.284
491.942
415.996
314.979
7694.09
7967.97
5781.54
4188.4
3807.01
3120.14
2308.19
1697.45
1316.49
1113.45
969.248
881.475
813.229
751.22
690.316
610.987
518.337
407.758
296.259
210.884
12022.8
8418.52
6742.25
4462.59
3746.34
2957.7
2184.76
1576.88
1189.61
969.333
807.522
711.5
639.783
585.457
522.978
434.573
326.725
216.017
133.053
91.906
20080.6
8789.54
7569.97
5085.33
4241.29
3361.98
2492.16
1771.23
1279.12
960.171
717.775
554.537
441.602
359.765
283.941
204.037
135.906
85.938
57.7306
46.4221
12600.2
9549.49
7339.92
5054.42
4106.41
3337.52
2553.72
1866.72
1322.92
949.299
632.099
443.62
300.776
211.172
134.938
79.9823
49.459
37.3395
34.8121
30.5585
6282.1
10950.4
8017.15
4972.26
4100.6
3416.35
2779.68
2111.88
1468.46
925.647
529.379
293.716
176.309
106.003
70.7282
55.3494
53.3221
57.9494
69.6879
74.6447
19944.8
10828.3
7977.73
5128.04
4516.68
3823.38
3133.76
2395.98
1728.41
1074.06
603.017
332.388
199.271
152.585
174.638
162.944
164.542
169.242
169.209
154.337
24506.1
9998.69
7502.2
4684.04
4169.1
3719.43
3304.29
2664.86
1992.4
1406.7
876.071
586.741
441.526
388.934
435.58
489.513
413.33
342.617
298.28
232.616
11629.7
10388.5
8438.92
4734.59
3632.21
3220.5
3061.03
2666.25
2183.04
1677.69
1169.99
916.547
799.881
749.565
796.4
910.119
814.441
625.945
484.632
328.25
11326.8
8469.75
8626.26
5753.27
3445.34
2603.01
2411.68
2258.89
2016.78
1716.66
1162.86
804.255
733.6
753.753
894.912
1050.73
1001.57
835.203
614.92
379.081
13422.1
10729.3
9460.74
5959.33
3553.76
2555.81
2128.2
1859.14
1616.09
1432.96
1253.34
1085.18
940.409
840.939
875.391
952.475
905.718
749.699
573.761
358.316
13177.7
13156.3
10887.4
5777.16
3546.77
2374.81
1981.26
1694.51
1458.34
1257.72
1100.89
962.618
824.032
741.165
688.635
679.844
665.751
615.497
548.958
391.093
9672.43
9637.23
7558.84
4519.73
3220.2
2276.63
1966.61
1500.73
1282.53
1012.43
876.972
759.766
690.693
641.809
608.447
582.582
577.363
574.67
564.004
493.822
12540.1
9658.24
5895.06
3224.37
2606.07
1791.85
1703.45
1369.67
1134.71
883.059
763.037
659.88
609.201
570.246
544.295
525.623
521.347
517.698
507.687
431.395
8549.17
10820.4
8118.43
4270.41
2899.48
1964.07
1619.84
1245.44
1013.41
784.895
656.428
537.752
479.095
419.499
392.966
354.366
334.768
292.554
268.242
200.618
5537.94
11289.5
10382.7
5410.3
3257.3
2003.42
1565.67
1176.82
923.13
708.077
549.967
418.735
334.406
269.165
230.604
197.42
174.836
153.086
141.666
113.982
39616.2
27584.8
12714.1
6278.21
3769.79
2405.84
1720.4
1352.21
1044.46
822.611
635.418
509.561
402.114
320.23
249.667
202.593
165.771
146.374
121.39
91.6564
7347.35
9032.12
7415.82
4132.75
2451.72
1517.91
1107.52
940.2
800.329
681.931
552.896
452.98
359.013
282.304
215.627
164.777
125.999
96.006
74.1389
58.7997
486.26
1878.19
1669.99
1298.32
982.783
745.266
557.064
423.144
346.173
296.489
263.829
232.051
203.627
174.359
145.33
113.387
82.8193
54.3307
33.5656
13.749
1421.78
2241.05
1983.03
1691.23
1600.49
1386.88
1160.66
933.458
709.632
511.614
370.856
281.666
231.534
198.557
177.732
162.697
152.641
147.909
149.926
156.907
7638.74
6999.43
6667.27
3952.77
4508.9
3054.6
2809.66
1992.73
1853.46
1528.95
1460.19
1315.21
1265.98
1154.18
1089.8
971.574
882.742
785.197
734.706
681.83
10886.8
8998.41
8366.34
5370.73
5468.11
3795.63
3163.69
2050.43
1877.82
1533.47
1469.06
1324.72
1280.25
1168.45
1083.51
934.833
830.841
729.81
691.197
645.157
8281.28
9116.22
8715.05
5203.14
5112.91
3467.35
2961.42
1869.15
1688.19
1319.84
1250.47
1112.1
1075.52
978.195
879.433
740.9
649.013
572.201
550.047
548.093
11398.6
9666.92
9307.53
5517.77
5436.1
3711.31
3178.24
2026.21
1731.14
1255.97
1106.86
906.369
845.972
726.676
648.151
550.65
501.68
468.714
471.433
494.639
18096.5
11832.2
9183.85
5240.33
5340.48
3713.16
3235.03
2092.7
1673.44
1170.32
907.554
729.604
625.743
540.833
451.715
384.094
355.308
359.67
377.436
417.049
18361.2
12475
10005.2
5248.02
5448.45
3929
3438.3
2342.43
1720
1100.66
782.938
546.752
445.277
362.183
325.77
304.292
308.685
337.818
375.359
466.663
14905.5
12770.3
9597.51
5529.68
5784.26
4505.91
3728.14
2680.8
1909.09
1168.36
785.444
548.555
441.305
371.586
425.61
384.161
378.306
393.864
416.925
480.324
25815.3
13420.1
9007.14
5347.65
5223.43
4359.39
3931.94
2990.44
2177.48
1496.04
1055.3
857.321
744.661
672.136
691.829
688.534
559.689
490.79
477.984
493.181
16594.7
14955.1
11069
5359.99
4700.59
3815.08
3645.78
3089.37
2424.2
1795.06
1387.3
1208.34
1197.78
1210.77
1278.4
1273.67
994.206
755.586
624.861
554.608
14141
11835.7
11680.8
5815.18
4379.25
3189.37
3019.61
2743.85
2368.1
1936.92
1587.92
1318.46
1269.25
1384.67
1515.47
1565.01
1279.02
950.653
737.769
609.605
12610.6
11812.3
10958.1
5747.23
4325.56
3071.94
2776.28
2396.37
2098.16
1861.63
1665.86
1487.31
1410.45
1369.38
1380.75
1345
1143.85
894.998
723.24
605.016
17581.8
14532.8
13071
6288.07
4666.93
2961.88
2493
2047.65
1864.83
1627.7
1455.56
1287.11
1160.1
1070.54
1106.42
1055.65
1009.61
906.868
822.66
736.979
20373.6
11101
9606.61
5000.51
4507.79
2806.07
2681.04
1975.19
1776.35
1311.76
1247.51
1078.51
1064.47
1021.52
1026.81
1018.59
1040.91
1049.52
1041.41
963.298
19809.1
11591.9
7728.66
4052.43
3719.54
2204.8
2425.18
1712.27
1569.59
1154.97
1096.56
955.704
949.633
913.513
916.891
911.334
921.507
905.386
876.457
772.425
12542
11711.1
10675.8
4899.29
4146.13
2381.54
2315.42
1658.06
1479.63
1044.01
964.629
771.952
747.674
666.287
653.119
604.176
593.062
562.184
556.05
553.702
5999.48
13288.6
12512.4
5758.21
4294.18
2240.54
2172.14
1451.42
1309.8
895.579
790.404
575.487
547.202
482.734
484.493
473.217
483.419
490.275
491.355
503.575
17595.1
15936
14207.5
6548.79
5112.14
2739.15
2434.43
1661.97
1463.91
1018.64
907.491
682.001
642.506
559.238
554.541
533.307
535.715
534.164
524.026
531.333
5203.15
8866.37
9704.13
5477.99
3778.71
1894.29
1721.91
1266.67
1188.93
897.074
812.787
627.848
584.498
498.874
484.305
456.702
451.579
446.3
441.88
455.358
756.599
1893.99
1748.72
1276.52
983.878
735.695
528.295
382.619
307.044
250.242
213.271
177.351
149.488
122.692
98.8091
76.4029
57.4043
40.9511
29.26
16.9633
1294.66
1684.16
1196.95
1679.77
1277.56
1714.2
1149.86
830.61
1049.67
736.911
1158.02
924.538
977.761
739.912
1190.84
1265.82
1087.37
1701.74
1188.19
1447.82
1271.9
694.048
1014.38
803.182
1010.23
699.939
1204.23
1020.37
316.241
363.736
318.465
1597.75
1506.5
1518.08
1563.22
275.88
325.051
312.591
1440.21
1233.12
1534.39
1382.89
211.505
290.081
234.839
1138.76
981.043
1316.51
1168.5
191.206
231.879
233.688
944.383
823.529
1139.43
1018.35
136.597
229.272
133.524
747.488
495.076
927.71
558.771
66.485
107.416
73.2786
410.315
227.718
475.447
351.375
28.8547
70.1903
72.6299
183.302
130.72
335.08
318.241
22.5275
75.4882
67.5759
131.265
149.172
316.387
325.162
302.305
255.446
202.659
1329.65
1516.24
947.58
1148.51
325.688
213.251
284.622
1511.25
1399.41
1199.39
1284.64
262.458
297.766
295.855
1346.75
1220.84
1288.83
1254.41
254.856
293.257
290.5
1192.25
1069.7
1234.73
1121.86
135.576
279.882
139.689
978.885
578.404
1033.94
598.989
79.8224
102.961
76.6988
487.866
380.107
482.755
356.078
89.1731
76.8375
79.8423
371.543
362.881
349.713
341.37
75.4175
79.5887
52.9258
360.811
357.774
335.638
312.625
156.778
203.319
117.897
754.272
964.077
728.477
743.311
238.308
103.913
102.678
1027.55
1160.88
721.086
696.86
287.826
113.074
153.972
1186.14
1205.85
716.069
766.819
286.416
161.619
158.21
1196.79
1090.78
765.387
669.536
136.173
147.106
76.7179
1004.7
578.036
594.967
372.054
72.854
65.4528
61.3912
461.8
327.09
331.957
308.214
69.0214
64.5148
82.0064
316.281
296.493
314.066
341.276
49.4606
83.6806
69.931
287.856
268.771
341.409
340.728
139.199
301.7
178.979
783.529
779.538
821.267
812.128
86.4948
154.685
120.512
740.557
613.523
783.149
652.305
99.9414
112.335
84.9817
606.741
594.921
610.005
496
83.1321
79.6468
79.7657
575.974
452.279
469.779
438.305
55.6497
84.1511
98.8662
405.206
322.617
436.861
454.816
67.3454
103.111
108.42
318.187
348.168
464.219
470.764
92.1024
108.23
100.558
370.689
390.647
462.211
419.842
71.7073
98.7127
80.009
386.529
367.534
408.805
398.478
1767.47
1891.91
1801.82
2581.77
2284.02
2507.02
2299.97
1452.51
1754.01
1573.2
2175.35
1854.48
2219.2
1967.65
1168.66
1504.44
1343.68
1740.53
1465.13
1884.9
1651.32
917.205
1301.59
1117.55
1361.11
1019.34
1566.82
1229.82
541.629
1004.9
628.554
893.092
595.07
1089.81
754.246
270.81
545.948
417.65
517.182
354.585
687.434
568.281
169.05
398.431
371.792
317.546
261.229
544.054
497.824
172.754
367.122
361.052
259.432
257.943
487.617
478.227
1758.26
1308.96
1392.2
2363.33
2258.26
1911.82
1920.15
1585.64
1425.33
1465.38
2192.67
1974.94
1910.46
1842.54
1391.81
1462.41
1409.83
1904.58
1696.65
1813.5
1688.69
1172.19
1382.07
1218.19
1617.08
1290.8
1640.68
1288.1
654.98
1111.51
684.862
1149.69
797.031
1146.95
766.438
452.218
568.005
426.422
728.958
618.539
676.798
560.77
419.044
415.503
398.731
597.049
553.158
549.098
530.207
396.128
391.959
357.852
543.586
519.422
524.754
515.989
1208.16
1008.65
947.217
1685.78
1755.38
1492.98
1434.89
1343.15
915.674
877.57
1757.96
1728.38
1389.3
1299.22
1353.87
887.902
910.695
1711.12
1619.14
1286.58
1230.79
1180.73
902.842
776.546
1582.22
1248.22
1194.32
1021.49
663.314
702.268
483.274
1108.94
728.529
948.192
734.24
389.416
435.462
388.741
627.839
480.568
679.618
595.626
348.508
390.227
399.973
465.322
449.42
582.081
541.561
310.991
396.981
378.351
446.009
455.053
525.875
497.035
965.235
1138.85
1002.04
1516.05
1404.82
1524.27
1375.35
781.375
949.135
791.779
1342.48
1192.79
1309.31
1135.3
741.333
740.773
612.164
1167.06
1088.62
1073.11
920.604
584.602
582.528
538.294
1050.51
908.453
886.442
820.907
437.72
532.591
539.888
859.941
737.409
803.614
770.307
437.53
546.103
542.802
711.191
667.78
761.536
716.102
454.039
529.015
479.43
654.865
601.721
691.83
620.805
408.951
466.278
443.06
583.228
537.817
602.875
573.62
2422.1
2666.59
2424.04
3164.09
2753.46
3056.63
2736.64
1944.75
2334.35
2057.19
2586.93
2117.57
2615.95
2245.01
1510.42
1966.35
1700.52
1962.2
1557.87
2122.84
1755.64
1020.69
1602.41
1232.15
1411.24
995.458
1623.88
1213.16
601.954
1092.95
782.747
875.529
624.209
1094.36
861.82
376.577
721.721
607.217
565.568
441.641
813.969
712.767
286.87
582.282
532.719
411.982
360.462
688.327
638.642
278.231
521.662
508.04
357.641
344.08
627.813
621.013
2380.38
2081.2
2049.14
2928
2686.28
2479.56
2360.07
2064.11
2027.09
1928.73
2582.98
2254.1
2305.2
2119.75
1746.75
1890.72
1738.27
2145.13
1805.85
2053.62
1818.87
1601.35
1550.24
1686.67
1673.72
1591.76
1557.78
1707.72
1075.98
1022.72
1201.43
1153.69
1067.16
1032.74
1199.89
662.152
663.169
585.943
877.985
779.745
725.824
726.804
591
580.648
570.495
755.73
706.937
726.788
723.671
550.87
567.124
561.646
697.449
674.564
725.102
753.166
1890.86
1643.15
1565.12
2277.85
2216.72
2018.06
1895.85
1817.61
1514.73
1407.08
2171.74
2019.83
1829.53
1671.66
1668.61
1386.93
1308.09
1965.56
1766.08
1631.92
1499.88
1454.91
1524.89
1528.55
1647.54
1447.41
1407.11
1564.61
837.341
915.328
1045.92
785.757
918.912
696.148
967.576
477.793
749.731
657.93
643.952
624.895
970.905
855.107
478.814
639.194
585.385
633.232
657.94
823.384
746.56
499.126
567.705
532.599
666.04
725.865
730.949
725.524
1524.48
1648.79
1475.49
2002.35
1839.21
1950.36
1735.64
1302.18
1405.9
1229.87
1762.13
1577.34
1658.15
1469.92
1178.57
1164.31
1007.08
1533.62
1406.54
1399.27
1239.06
995.498
972.439
903.215
1360.65
1224.85
1203.7
1120.27
822.858
882.509
835.63
1180.26
1052.15
1090.04
1005.74
732.873
821.957
763.659
1015.62
913.323
980.695
891.158
646.341
736.424
660.193
880.048
793.802
858.072
775.044
575.607
641.486
606.069
773.873
752.242
756.802
721.244
2847.93
3182.3
2832.31
3746.52
3123.72
3597.01
3153.66
2157.59
2699.05
2291.82
2891.46
2290.27
2978.56
2458.78
1559.61
2158.18
1759.4
2103.31
1602.61
2293.14
1815.21
989.645
1619.98
1212.94
1438.24
1053.23
1664.01
1300.33
640.351
1103.71
892.659
964.485
782.996
1218.46
1058.35
469.651
848.051
752.582
740.53
640.083
1023.79
966.78
392.067
729.9
684.867
616.762
567.951
959.025
938.981
365.219
674.903
666.308
556.383
490.244
929.461
902.652
2780.83
2610
2454.33
3466.29
3107.12
3023.33
2792.01
2303.15
2389.01
2174.63
2954.23
2484.64
2699.13
2401.57
1811.4
2098.8
1835.32
2330.56
1874.2
2294.5
1950.4
1278.82
1728.49
1289.23
1727.52
1371.94
1827.33
1518.04
959.972
1146.07
891.535
1290.76
1131.27
1426.28
1219.72
822.339
852.67
804.961
1095.45
1037.32
1170.07
1092.7
757.343
797.943
792.258
1034.56
1033.91
1093.93
1144.28
722.713
796.389
827.816
1030.54
991.293
1161.56
1204.43
2313.96
2148.11
1999.19
2835.17
2663.65
2586.5
2380.28
2079.87
1927.25
1753.95
2583.36
2330.41
2292.46
2077.96
1791.64
1708.65
1562.58
2238.11
1939.86
2017.58
1824.71
1312.28
1508.13
1335.63
1837.09
1555.84
1760.75
1588.57
859.436
1271.91
1095.87
1460.3
1229.62
1532.01
1367.72
737.742
1046.97
926.151
1174.3
1082.62
1319.26
1214.81
743.891
892.732
819.246
1082.5
1135.73
1198.04
1178.31
808.391
807.663
803.444
1156.32
1212.11
1177.46
1185.41
1940.92
2065.74
1822.7
2571.53
2324.38
2468.9
2133.08
1663.56
1740.08
1544.35
2224.82
1995.64
2030.71
1812.85
1480.01
1472.53
1314.45
1938.9
1772.1
1751.83
1607.23
1297.65
1278.34
1187.46
1716.55
1571.3
1562.2
1438.9
1123.84
1153.73
1059.55
1525
1388.67
1400.06
1291.33
974.995
1031.68
934.821
1346.33
1248.55
1254.73
1145.78
857.771
900.896
819.165
1226.35
1183.05
1113.75
1044.27
822.836
801.806
760.718
1173.64
1164.73
1025.57
971.303
3237.11
3775.42
3295.66
4619.61
3733.78
4478.15
3953.96
2368.06
3106.53
2553.24
3455.55
2864.3
3730.48
3123.03
1660.43
2379.64
1880.95
2670.13
2139.26
2941.89
2405.82
1132.82
1729.38
1387.03
1988.03
1766.81
2264
2012.42
895.233
1313.63
1168.53
1731.66
1646.37
1973.47
1912.61
764.162
1139.06
1115.33
1624.22
1609.46
1921.93
2058.17
690.493
1118.04
1106.66
1602.62
1506.65
2080.63
2062.31
576.198
1094.39
1035.33
1468.14
1341.34
2036.93
1941.14
3254.17
3201.51
2952.38
4365.92
3943.11
3896.39
3711.94
2587.41
2852.59
2530.98
3748.48
3190.8
3599.64
3230.01
1942.18
2412.61
2040.97
3007.25
2483.18
3083.16
2667.77
1460.1
1916.76
1627.72
2344.58
2095.63
2548.38
2340.65
1240.39
1546.68
1353.11
2054.67
1982.49
2292.87
2149.39
1183.87
1304.77
1251.25
1989
2144.51
2127.38
2279.6
1214.5
1270.19
1363.7
2206.19
2219.78
2386.21
2484.03
1144.38
1380.48
1396.86
2208.08
2124.23
2485.03
2472.94
2829.92
2784.17
2558.19
3746.21
3609.79
3552.24
3369.84
2470.04
2465.55
2239.57
3514.72
3200.99
3262.45
3018.88
2042.76
2174.35
1966.26
3072.05
2707.13
2939.36
2695.87
1672.36
1898.22
1724.57
2603.71
2405.7
2628.76
2505.45
1371.93
1669.73
1507.45
2350.11
2179.57
2473.25
2357.73
1251.79
1459.91
1386.66
2151.21
2297.67
2339.76
2450.79
1364.97
1389.2
1391.62
2404.96
2503.66
2502.5
2481.17
1410.07
1388.74
1371.22
2506.74
2509.23
2465.8
2436.54
2502.54
2661.86
2270.78
3645.5
3306.99
3455.52
2820.16
2156.33
2160.14
1942.39
3171.84
2920.72
2702.93
2576.75
1920.44
1888.31
1746.39
2866.03
2653.45
2568.35
2408.43
1711.74
1696.15
1566.18
2593.84
2497.35
2356.21
2305.17
1528.74
1530.64
1424.81
2475.76
2386.16
2315.04
2222.76
1420.15
1385.88
1279.87
2372.86
2467.18
2193.62
2147.31
1380.55
1251.96
1186.82
2473.71
2423.61
2149.5
2066.28
1337.94
1165.24
1092.96
2400.15
2359.72
2044.06
1976.24
1474.79
1429.35
1342.06
1289.95
1474.31
1428.11
1337.53
1626.06
1692.93
1572.43
1693.5
1616.07
1717.06
1474.14
1484.68
1348.44
1381.87
983.505
1488.99
1334.01
1186.09
1597.94
1680.42
1546.54
1717.21
1554.51
1715.9
1590.08
1466.72
1282.45
1410.23
1326.34
1419.77
1329.68
1458.45
1611.73
1696.42
1731.78
1549.39
1727.63
1448.35
1604.63
1469.95
947.293
1324.72
1361.9
1318.77
1155.41
1468.14
972.872
913.758
862.034
861.694
951.504
935.544
894.099
1063.48
1201.94
917.765
839.838
1066.75
1187.28
735.107
950.037
847.019
811.135
646.247
942.167
867.676
668.331
1087.11
1153.76
1060.19
1205.14
1044.5
1199.01
1104.86
997.285
892.437
983.928
963.869
958.454
927.443
1026.45
1067.8
800.274
1194.62
853.912
1179.24
699.087
1091.13
972.631
623.781
944.621
785.448
898.366
639.908
1012.02
1289.09
1357.27
1184.91
935.818
1322.37
1134.67
1122.89
1384.59
1401.44
1213.44
1329.71
1340.62
1450.24
1274.86
1291.49
1160.26
1153.5
1149.66
1256.92
1190.23
1216.06
1486.34
1670.01
1573.71
1628.82
1422.48
1598.79
1534.01
1315.04
908.151
1383.13
1251.09
1128.39
1142.06
1399.95
1428.52
1389.45
1540.47
1392.04
1496.15
1333.87
1472.8
1335.68
1210.32
1293.36
1334.83
1235.7
1275.83
1387.17
722.753
787.966
691.168
562.794
796.292
590.741
627.56
975.826
1054.18
937.502
1075.54
946.998
1083.4
1001.69
878.607
751.953
866.993
872.954
846.23
788.968
934.164
842.483
733.536
881.732
1099.69
630.383
978.371
965.727
732.563
515.915
756.001
766.089
530.656
638.554
852.676
1026.26
1138.87
1195.07
1137.73
1131.01
1068.64
1097.02
934.006
945.86
933.478
1076.29
851.643
1004.22
1010.37
548.107
688.25
566.42
1085.16
1037.31
1144.86
1138.76
405.578
486.094
411.646
905.343
776.232
1101.16
980.169
300.524
343.41
297.744
660.679
608.927
831.902
760.234
210.084
265.762
245.321
504.535
427.021
729.449
661.366
122.697
212.147
168.233
321.535
237.38
556.358
410.273
51.378
121.56
77.4153
143.573
90.1019
267.573
148.789
18.7909
44.4414
30.1194
52.1572
39.4782
87.566
71.5904
10.2024
28.657
30.9794
37.6765
38.668
73.2524
104.804
586.457
568.51
534.091
1189.06
1401.89
1110.96
1261.26
717.732
379.346
406.808
696.706
739.338
651.231
343.775
786.767
295.464
297.139
745.81
721.624
794.007
290.938
590.473
242.424
248.548
526.789
475.572
649.035
230.042
506.277
199.729
198.208
402.294
396.513
510.223
196.884
455.688
171.731
190.902
370.757
349.032
490.931
180.929
202.856
98.9217
109.76
212.909
172.501
252.105
92.3151
84.9824
41.2326
54.5712
78.5908
61.2856
103.902
44.8197
81.6411
26.4563
32.2817
48.6612
50.7279
77.459
31.5599
51.4368
102.929
74.5745
151.446
165.236
225.351
230.198
424.557
475.174
369.722
898.818
955.014
792.528
756.63
538.192
283.039
300.041
501.449
612.989
467.283
256.778
849.551
329.072
292.252
868.189
881.5
807.197
315.272
806.772
290.869
318.792
820.327
774.324
835.111
307.232
745.736
257.123
281.535
704.252
699.245
751.388
280.426
599.267
227.509
265.761
648.413
571.615
682.434
242.941
218.428
90.2741
107.292
260.194
220.699
255.775
90.2664
212.434
81.6864
82.7806
199.263
204.363
204.754
85.3392
225.883
92.1432
94.1741
217.616
218.207
225.581
95.1567
111.938
125.502
95.8599
311.453
318.987
284.182
296.403
312.733
474.439
311.576
736.398
619.256
747.718
623.088
287.552
169.29
201.447
305.78
312.519
287.707
163.501
413.585
188.215
137.485
465.01
540.407
353.323
147.506
632.377
279.681
215.891
702.367
734.374
590.297
237.54
700.544
289.706
270.242
750.255
748.913
696.583
274.898
529.233
249.625
261.204
686.968
582.993
638.495
235.295
173.613
82.4701
96.0177
213.909
182.733
199.038
80.3389
143.803
71.2079
68.9154
160.804
156.207
147.538
67.7833
137.687
65.2214
66.8723
139.45
134.698
139.247
66.3721
62.9677
128.367
123.628
213.998
216.178
270.989
317.101
366.59
550.652
437.435
850.466
715.344
877.661
749.557
355.799
186.889
245.633
336.655
337.646
353.013
202.069
319.727
99.8192
140.613
322.8
277.448
355.427
118.373
201.758
91.397
78.3634
240.841
247.292
217.04
74.5808
146.586
98.201
65.9367
238.933
216.506
160.72
61.6566
121.507
66.1824
53.1666
139.003
119.967
122.49
52.5722
167.194
56.0551
58.5544
115.846
124.505
144.039
66.4988
247.591
85.6808
94.9966
186.241
207.868
238.862
98.6294
240.803
90.5508
97.2278
223.067
219.617
242.797
96.4558
152.865
171.813
144.495
350.77
388.421
363.593
383.042
260.625
368.857
263.359
595.804
610.817
623.83
658.035
210.996
235.564
238.755
604.257
602.249
639.538
604.9
184.833
230.246
203.062
578.085
513.98
591.129
547.034
173.605
184.756
179.656
474.993
463.645
512.246
489.615
173.131
172.97
159.33
453.22
442.438
465.476
429.998
161.727
146.894
136.839
428.844
409.218
399.006