/*--------------------------------*- C++ -*----------------------------------*\
  =========                 |
  \\      /  F ield         | OpenFOAM: The Open Source CFD Toolbox
   \\    /   O peration     | Website:  https://openfoam.org
    \\  /    A nd           | Version:  10
     \\/     M anipulation  |
\*---------------------------------------------------------------------------*/
FoamFile
{
    format      ascii;
    class       volScalarField;
    location    "1.9";
    object      omega_0;
}
// * * * * * * * * * * * * * * * * * * * * * * * * * * * * * * * * * * * * * //

dimensions      [0 0 -1 0 0 0 0];

internalField   nonuniform List<scalar> 
12920
(
128.347
154.605
131.983
88.9791
81.6546
86.7455
89.1117
89.043
86.7511
80.7454
71.7323
61.3466
51.152
43.5655
39.4131
36.6808
34.1896
32.4407
32.2437
32.6905
213.947
172.686
155.586
128.507
113.243
101.903
90.2939
81.1644
74.6929
69.2252
63.1339
57.804
54.0414
51.6015
50.048
48.7122
47.3932
45.15
44.0916
40.6698
95.5326
162.627
180.387
172.188
143.208
123.778
106.293
89.9969
76.4627
68.0172
61.8449
57.4136
54.021
51.516
50.0741
48.5262
46.6034
43.097
41.5506
37.0053
429.425
310.166
222.7
183.342
150.998
129.1
108.263
89.4499
73.9213
64.136
56.5401
50.2939
44.2044
40.2697
38.8569
38.6216
38.1839
36.609
34.5479
28.9021
487.702
272.005
217.294
188.554
161.969
141.795
121.46
101.253
83.825
70.763
60.0554
50.4323
40.7521
31.7357
25.5904
23.3601
22.7052
21.5408
19.6684
14.4614
297.753
238.308
202.369
187.087
160.74
136.537
117.772
103.39
89.1007
76.7806
64.8625
53.5278
40.7118
27.9819
18.482
13.4746
11.075
9.24511
7.74741
5.02919
394.818
292.85
226.141
194.188
165.044
142.726
123.258
108.94
94.546
78.2317
60.3315
42.1471
26.1794
18.1608
16.7269
16.6416
16.4202
15.2081
13.9757
10.0893
501.855
449.889
288.016
190.16
160.487
148.029
232.98
187.16
163.407
138.635
112.294
79.8181
46.9464
37.5478
35.2699
36.3837
35.5447
31.2558
27.047
18.9953
466.203
294.158
222.088
172.967
145.082
220.161
387.202
311.139
287.675
255.15
239.444
186.176
125.682
92.1592
70.7344
50.9914
50.7191
46.8753
38.7738
26.3783
398.529
300.51
229.245
173.622
136.092
196.503
319.148
319.916
313.229
286.49
280.023
181.13
159.516
170.593
109.658
58.4519
54.9602
51.3377
43.8505
30.1086
417.773
319.223
240.216
189.34
142.376
191.422
256.449
232.163
290.464
302.714
294.772
174.294
151.059
146.229
85.6594
58.4691
56.6584
52.5693
45.1005
31.4079
328.681
276.265
237.073
195.87
149.475
203.897
270.738
191.697
166.829
177.494
151.381
132.252
158.451
170.995
115.473
71.2406
64.6859
54.7929
45.7777
32.1494
305.261
265.797
229.606
179.682
133.393
109.914
165.988
132.546
126.004
118.183
117.618
116.251
108.722
102.753
57.6455
52.39
50.7487
46.0823
39.8189
31.6008
176.848
157.154
150.501
147.22
127.293
102.61
94.005
85.5364
80.4566
74.4684
69.6101
63.4287
57.415
51.0678
44.4843
38.8603
35.7686
32.8157
31.389
30.2175
107.198
145.368
129.372
113.251
103.399
90.9118
86.2019
80.888
74.6781
68.9409
63.087
57.1096
50.8831
45.4083
40.6349
36.4856
33.7606
32.8706
33.3772
34.0989
26.0145
111.039
141.476
132.933
113.823
103.135
90.0457
82.8579
74.4681
69.0435
62.7091
57.2994
51.5626
46.5016
42.291
38.2956
35.2652
30.3523
27.2549
24.3807
229.421
248.311
226.709
170.445
138.6
114.673
96.0237
86.0085
74.5833
67.1296
60.1887
55.6361
51.1221
46.5605
41.3856
35.3525
29.2044
23.5752
19.013
16.7449
221.884
256.041
248.44
206.071
165.324
139.464
115.291
103.516
92.1241
81.5681
70.0229
60.8427
54.0475
49.7405
46.3988
42.6708
39.2608
34.7698
32.6195
27.2891
282.999
321.106
252.821
183.899
144.634
115.432
90.1164
77.793
71.5774
68.3798
62.1583
56.3373
51.4249
47.3063
43.5042
39.1767
35.63
32.0077
30.326
26.032
161.356
182.782
156.228
117.996
98.3299
86.1414
74.5569
63.0577
53.265
47.7258
45.6308
44.8374
43.7838
41.6549
39.1755
36.5884
34.1074
30.1898
25.7748
17.7452
83.9405
80.2681
60.4793
55.1171
52.729
53.9562
54.062
53.0525
50.6299
47.2974
42.5537
36.8647
31.3916
26.9783
23.9761
21.8959
20.8921
20.1654
19.8782
19.1109
111.638
138.914
126.618
94.6418
77.6592
64.7657
56.2985
48.9945
43.9167
39.186
34.6739
30.799
28.0438
26.3122
25.2519
24.5228
23.7242
23.121
22.8767
23.101
305.354
159.681
137.099
119.546
91.1544
74.8188
61.9631
49.7274
41.1382
35.7345
32.0664
29.2024
27.0535
25.6228
24.7365
24.1108
23.2151
22.1717
21.6808
22.448
217.21
162.225
118.563
100.025
91.9926
81.4225
65.949
49.5528
39.0068
33.1466
29.7009
26.5178
23.5754
21.3307
20.3944
20.1565
19.7704
19.3596
19.6032
19.8901
281.615
168.706
126.599
114.268
109.824
99.5581
77.7539
54.8976
41.9461
34.8143
31.4628
28.4103
24.1633
19.3724
16.3119
14.9917
14.5886
14.1762
13.2979
9.52919
138.709
150.433
134.187
124.59
116.999
98.6892
76.4862
58.0567
47.4395
39.8368
36.8326
34.0441
27.4551
18.8556
13.1374
10.2114
8.72632
7.55278
6.60039
4.86452
271.724
159.373
133.04
107.443
100.394
94.0902
86.3468
74.7759
60.0855
47.7294
38.588
27.0782
16.7866
12.4254
11.3501
11.3127
11.7111
12.04
12.0355
10.1405
209.191
233.938
162.631
102.504
81.7383
77.6176
82.5351
79.8006
71.6047
52.6655
42.889
36.1801
20.1072
15.1385
18.1882
19.0488
19.2689
19.1385
18.6037
15.3123
243.269
149.392
120.962
90.2892
77.6375
78.3535
78.0676
75.5176
74.4625
60.7022
50.6853
48.7898
37.3571
26.5491
27.1315
29.4217
28.4116
24.9106
22.967
17.971
215.667
155.782
108.567
86.0919
76.9393
75.5673
70.3588
63.605
61.7055
58.1975
54.2284
51.0719
36.2315
31.0963
31.0714
34.0126
34.2636
33.1815
30.2648
21.6882
225.324
204.944
136.193
95.8949
79.95
78.1711
70.2868
61.8872
57.6896
57.0351
57.665
58.8217
41.5774
37.1008
34.6144
33.7731
34.4978
34.3807
33.1772
25.6544
206.509
198.87
151.794
102.79
76.8089
74.5063
65.5767
54.7476
53.7774
56.8382
59.2872
57.3795
42.29
36.1206
31.9014
32.3355
32.8088
32.4977
31.2987
24.8633
228.604
155.194
131.66
90.5198
66.9671
53.5167
55.5229
50.1798
44.8526
40.235
38.0065
35.2069
31.6542
29.3185
26.5586
26.5562
27.2634
27.5903
27.0779
23.6081
100.276
154.207
141.154
103.105
74.9729
58.7807
50.0481
44.8414
40.0918
37.4309
34.8344
32.6411
30.8587
29.0137
27.053
25.9561
25.7635
25.3115
24.7367
22.9582
175.803
156.144
108.273
80.4635
60.5944
48.7283
45.066
41.7215
39.1855
36.4898
34.6527
31.9362
29.6851
26.861
24.701
22.8154
22.0326
21.4876
21.4374
21.1978
155.905
147.345
108.241
83.2872
62.5793
51.4584
43.6564
40.5187
37.0797
35.296
32.8765
30.7922
27.8179
24.8185
22.2951
20.0876
18.8115
17.1062
16.3927
15.613
186.124
173.823
121.774
86.8452
62.6398
52.1275
44.1184
41.9981
38.5962
36.3724
32.0891
29.3909
26.4013
24.216
21.7817
19.6457
17.5623
15.5776
14.4205
13.4585
208.768
201.731
147.469
107.231
79.9607
64.5815
51.299
48.0768
46.6672
46.1399
44.0688
38.1971
31.9975
28.596
26.9644
26.5581
26.6153
26.9056
27.0997
25.1898
233.081
204.804
145.055
103.536
74.5957
55.5894
41.9777
36.9359
34.5845
34.0061
33.0893
31.2511
29.3615
27.6733
26.5793
25.8644
25.5526
24.9681
24.3992
21.7175
35.1946
86.6326
71.8262
58.2846
50.8416
45.4129
39.3781
34.1106
29.4276
27.1043
26.1231
25.6379
24.643
23.5413
22.3679
20.8804
18.6755
15.5286
12.3604
7.97562
136.22
109.543
78.2952
67.2981
64.3697
63.2247
60.5336
56.9
53.4316
49.3757
44.2475
38.3025
32.7869
28.5082
25.7329
23.7917
22.7223
21.6759
21.1849
19.9635
168.146
151.857
109.632
75.0557
61.9842
52.1382
45.3286
41.0848
37.7524
35.3439
32.3731
29.7736
27.8421
26.6174
25.7771
25.1144
24.6022
24.4139
24.2824
23.4436
255.542
148.584
123.72
93.0862
73.2876
60.2018
48.1204
40.05
34.1588
31.1162
28.641
27.0092
25.7887
25.0178
24.4023
23.9085
23.4376
23.0654
22.2314
19.6561
144.964
148.539
112.547
84.1816
71.6703
60.511
47.603
38.0663
31.7731
28.4415
26.1455
24.4406
23.2025
22.308
21.8468
21.5275
20.9161
19.2774
17.2768
12.9556
196.368
144.677
112.677
93.9561
84.0177
71.2848
54.2149
41.4422
33.699
29.415
26.5479
24.2338
21.8245
19.6853
18.4318
17.007
15.2986
12.6463
10.3185
7.7325
225.373
131.192
108.771
97.2222
84.7563
70.9957
55.1553
43.9219
36.4633
32.0484
28.4739
25.4194
21.2158
17.779
14.7203
11.5806
9.31352
7.88546
7.26302
6.10446
192.717
147.248
102.826
85.2448
78.1342
72.591
64.65
54.2824
43.2711
35.1018
28.1476
21.0281
16.0996
13.0946
11.704
11.1751
11.2981
12.0159
12.4735
11.7581
182.247
140.274
100.7
76.1909
69.2429
66.7401
65.4923
59.9728
49.6124
38.5011
31.5391
24.5087
17.6248
15.977
19.1508
18.9914
19.1894
19.3125
19.2117
17.4686
203.047
117.854
88.3713
66.2254
60.2278
61.2786
61.6827
59.0573
52.7947
43.7204
37.3883
32.9109
26.7125
24.6941
27.8043
30.5856
27.9074
24.9719
23.7638
20.5512
145.824
135.96
93.5656
65.3805
57.0234
55.5008
55.1122
52.7281
50.3554
46.599
42.8592
38.1405
31.0897
29.1691
30.4054
35.2392
35.8038
34.6372
31.5849
24.567
216.778
155.466
115.491
77.0354
58.2642
53.3497
52.2716
49.9337
48.0639
46.237
90.1717
72.3028
53.7815
41.52
38.8498
39.0536
39.0597
39.0277
37.6729
28.9352
360.559
162.961
127.175
88.9594
60.3354
51.9177
46.9031
44.995
44.5066
45.795
47.3318
46.093
37.8552
33.8857
33.9131
37.4742
37.6684
37.2742
35.7077
28.0006
190.633
154.68
129.331
82.5
56.1744
43.8786
42.3087
40.6165
38.5081
35.6843
33.9292
31.4838
29.1222
28.238
28.1827
28.9307
30.0701
30.031
29.3033
25.9655
161.285
155.947
123.665
81.0388
57.1768
45.6364
40.7349
36.1981
33.3794
31.0234
29.1488
27.614
26.5016
25.4751
25.0295
25.0251
25.5704
25.8395
25.853
25.256
162.187
132.531
83.9632
56.4959
46.5649
38.5262
37.2826
34.7051
32.36
29.8437
28.148
26.3099
24.9503
23.6394
22.9321
22.67
22.7407
23.0678
23.8661
23.9185
147.965
144.337
103.444
68.7272
50.5154
41.3622
36.357
33.6254
30.8336
29.055
26.7772
25.0249
23.0674
21.6303
20.7229
20.3259
20.3606
20.4823
20.6134
20.0681
136.798
171.442
126.689
77.6337
55.2877
43.5464
37.3096
34.7198
31.1167
29.1094
25.8296
23.9676
21.8484
20.4173
19.4322
18.5625
18.1727
17.9979
17.7868
16.2364
413.715
318.153
173.194
104.17
71.055
53.6245
42.1417
38.8695
36.1668
34.7722
31.2715
28.2773
25.1114
23.6987
22.6275
21.5635
20.5332
18.7992
18.042
16.3174
193.658
177.268
137.634
93.9869
66.5739
49.2281
38.0521
33.9968
30.9724
29.8464
27.77
26.2451
24.4922
23.0861
21.8911
20.6278
19.7973
18.143
16.9
12.9465
55.1609
84.9094
77.0564
64.4599
55.6002
48.3631
41.5952
36.3506
32.6647
30.6081
29.2078
27.8298
26.2549
24.5174
22.6954
20.5236
17.9524
14.8087
11.7437
7.44371
139.515
120.628
84.2087
71.4872
69.6821
67.253
62.7297
57.8069
53.233
48.0245
42.3552
36.4684
31.5822
28.0429
25.8259
24.1095
23.0081
21.9232
21.6558
21.1128
137.937
135.161
103.575
69.549
63.3679
52.4049
48.2396
44.5482
42.4969
40.8487
39.0705
37.5447
37.1017
36.3172
35.7572
34.7764
34.2218
33.8673
33.9664
34.0646
142.311
138.484
117.501
87.1729
74.0558
58.6935
49.0741
42.13
38.1643
35.9772
34.7955
34.0358
34.0191
33.635
33.2348
32.6218
32.5458
32.7065
33.4342
33.6165
203.803
147.23
115.291
77.9783
67.8501
54.7379
46.486
38.8741
35.1437
32.5383
31.8747
31.6269
32.1367
32.1318
31.9414
31.5533
31.192
30.2566
28.5937
28.4829
313.167
145.267
115.856
81.6532
73.4976
59.9352
50.1287
41.2508
36.4253
32.8192
31.0042
30.3786
30.6471
30.5518
30.2111
29.0965
27.382
25.1774
24.0882
24.6723
177.04
138.158
108.214
82.0445
73.8086
60.5552
51.2528
42.7262
37.3229
33.4639
29.7779
28.4298
27.6718
27.2199
26.0073
23.4833
21.262
20.5991
20.7609
21.8789
139.176
154.636
108.142
76.5414
72.6261
64.5061
57.4815
47.9392
40.3622
33.517
28.2488
25.2944
24.3206
22.6463
21.4494
20.4386
20.3638
20.9961
22.1777
25.2086
231.448
129.419
97.938
71.1888
69.8986
65.0474
60.3595
51.517
42.9551
35.1236
29.5565
25.9972
24.508
24.2112
26.7971
24.8557
24.3056
24.5035
25.0494
26.806
305.645
119.996
89.6523
62.8244
61.087
60.5908
59.6212
54.0746
46.431
40.4075
35.0462
31.8828
31.0347
31.752
34.6457
34.6978
30.5223
27.98
26.9189
27.4527
195.435
149.592
106.851
64.1359
56.2656
53.74
53.9869
52.6974
49.5536
45.5351
41.3495
38.1105
37.1974
38.0105
40.6745
45.0401
41.9079
36.9117
32.8438
29.8692
218.583
144.4
123.837
77.6441
55.9976
49.1619
48.9774
48.9741
48.3412
46.8579
70.2676
70.534
55.8714
48.8087
48.7282
50.4359
49.1192
45.6859
39.038
32.1863
230.859
139.117
121.26
81.7149
57.596
48.3656
45.7219
45.3871
44.7957
44.7854
44.703
44.2158
42.3231
42.6101
45.6416
47.2024
45.5556
42.225
38.1387
32.3476
217.738
162.217
131.793
81.9418
58.642
44.7934
42.5798
41.8928
40.3045
39.1544
37.6353
36.6088
35.6907
35.829
36.7959
36.7686
36.81
36.6169
36.2403
35.0247
156.987
141.971
111.638
70.1782
56.613
44.9375
42.5307
36.9148
35.474
32.2642
31.6243
30.3988
30.3404
30.4134
31.0544
32.0302
34.0986
35.8336
37.4366
38.2981
203.96
137.866
83.7198
54.4738
48.5374
39.0163
39.6137
35.5465
33.7073
30.3875
29.5223
28.2753
28.1604
28.3495
29.1707
30.387
32.4336
34.073
35.5907
35.8647
157.38
150.784
108.758
64.9162
52.2479
41.1221
38.7806
34.5229
32.7565
29.7264
28.266
26.6626
26.1181
26.078
26.5858
27.4149
28.6866
29.8336
30.9145
31.616
125.552
152.992
129.242
74.7533
57.4699
42.8425
39.5241
34.2423
32.0359
29.0371
26.9369
25.3919
24.8981
25.1387
26.3809
27.6555
29.0152
30.0935
30.8764
31.0345
516.638
354.617
162.831
94.3376
69.5826
52.0983
43.9969
38.5597
35.4642
32.7861
30.2198
28.6112
27.187
27.0583
27.508
28.2772
28.7563
29.287
29.2179
28.8472
173.113
157.426
136.74
90.6675
67.3267
50.6311
42.9192
36.7275
33.8809
31.7945
30.0215
28.6513
27.4728
26.3777
25.9735
25.3836
24.7155
23.9708
23.2503
24.003
34.957
75.7145
72.1398
64.0305
55.6895
48.4811
41.9021
36.5446
33.0963
30.6529
28.9212
27.1136
25.3877
23.476
21.4091
18.881
16.1071
13.0176
10.2002
6.51226
70.6211
84.0791
79.5204
73.5624
71.532
66.4925
60.7361
54.409
47.3552
40.1604
34.1914
29.8156
27.054
25.069
23.7304
22.7149
22.0128
21.6823
21.8367
22.3373
136.615
129.502
127.343
76.9532
91.054
64.6961
77.4081
65.4102
71.0841
65.3392
67.4748
65.203
65.9288
64.5477
64.103
62.6007
61.9332
60.9689
60.8577
60.4519
151.377
140.658
140.891
94.4972
97.6069
69.9325
73.0162
60.5372
63.3192
58.2096
60.1816
58.5746
59.774
59.0806
59.2574
58.4453
58.3865
58.2625
58.6964
57.8104
184.711
150.507
137.008
80.8908
87.0098
61.9184
67.5545
54.6863
58.3273
52.9769
55.7887
54.7185
56.769
56.785
57.5218
57.1653
57.4066
57.7053
58.6968
59.0044
202.065
158.01
135.961
79.9777
87.4503
64.1101
68.4148
56.8893
58.9434
53.7981
55.6386
54.3899
56.1283
55.8327
56.1981
55.632
55.7509
56.4127
58.1741
61.1152
239.256
150.207
122.254
76.629
86.6107
63.4799
68.3307
56.0694
56.4095
50.8468
51.2713
50.306
51.6194
52.0726
51.551
50.6863
50.7318
51.9538
53.9994
59.2718
257.089
163.085
127.202
75.0616
89.3174
67.5401
68.4793
58.5139
56.5616
49.3347
49.2199
47.1199
47.372
46.2044
45.8144
44.9421
45.4451
47.3238
49.2446
54.9039
174.901
147.816
112.691
73.0859
86.6515
72.0177
66.7857
56.6757
53.3558
46.3518
46.9068
45.9263
47.147
45.6558
47.4248
44.4742
43.6946
44.822
46.1856
50.4405
272.35
148.168
103.544
67.6668
74.3134
67.5082
68.3179
61.2109
57.5875
54.6674
54.3117
55.8152
56.8326
55.6733
56.4372
50.6808
45.7305
44.326
44.9001
47.7767
224.855
189.804
132.385
69.2014
70.0663
61.4741
64.8593
66.7513
64.6697
61.4968
61.7766
64.5403
67.5388
67.4431
68.0932
64.9139
57.5776
52.0612
49.7186
49.0526
217.749
187.088
149.229
75.8767
70.8897
57.2542
60.5367
66.4323
66.4814
63.4739
64.8408
68.6285
73.9634
74.0082
73.347
71.5455
65.6863
58.7121
54.5631
51.9019
220.132
139.577
125.505
74.96
71.3524
58.8358
63.8552
65.5771
64.9563
65.0353
66.6017
68.3271
70.6757
70.758
69.4826
64.5926
61.1893
57.4771
55.278
52.808
335.374
177.894
143.134
81.3225
78.789
57.0852
56.4439
52.7189
56.6013
55.6922
58.0526
57.8348
58.6302
57.6748
59.5022
57.3351
57.8796
58.6908
60.091
59.981
301.273
137.478
121.443
70.9456
79.1787
56.763
61.6551
49.4286
52.1077
46.248
50.455
48.8391
51.9166
52.216
54.0512
55.0859
58.8457
62.4307
65.42
66.6566
287.647
154.068
103.989
65.6289
71.9176
49.1674
60.722
45.5424
50.2263
44.116
47.5659
46.256
48.9323
49.4582
51.5676
53.1155
56.5394
58.8261
60.8785
61.7713
240.844
163.905
137.836
69.6029
78.0595
53.1425
62.1282
49.0742
53.6828
45.9217
48.6934
44.9315
47.3372
46.1486
48.2171
48.5303
50.604
52.3948
54.5801
57.3517
131.477
163.086
147.198
76.3014
78.9546
51.7152
61.0998
45.2123
52.0673
43.4221
47.294
43.1726
45.9235
44.8409
47.1959
48.1186
50.8693
53.003
54.625
56.9176
311.506
189.978
170.479
94.7942
96.9861
66.6551
70.161
54.0729
57.3956
49.256
52.5227
49.6505
52.7247
51.7587
53.7049
53.6767
55.0264
55.9854
57.0158
58.9771
181.125
175.53
174.74
107.08
102.933
69.3488
71.7934
54.3698
59.5013
51.7716
56.4338
54.0014
57.312
56.949
58.8999
58.9188
59.6868
60.089
60.7415
62.4281
45.6739
77.3709
74.3007
63.4283
55.8031
48.2181
40.8203
34.7588
31.1675
28.1439
25.9799
23.683
21.7346
19.6776
17.6447
15.5021
13.4229
11.3246
9.55609
7.27398
43.5852
48.1024
111.029
44.8583
41.5816
46.7966
122.173
40.1316
108.192
76.7138
40.6803
37.7842
124.597
96.4138
91.4845
46.7307
48.4764
45.6495
99.5224
44.9558
46.1258
75.5512
49.7901
51.1768
102.935
95.0065
47.3776
49.4798
319.065
342.139
319.003
91.569
85.2142
84.4798
75.0495
296.876
321.334
313.025
84.0971
84.4558
73.3431
71.1946
259.596
301.197
272.812
84.2205
75.9662
71.0498
68.1782
247.086
271.74
272.839
70.3671
60.5792
65.9123
60.7999
206.777
269.564
201.755
58.4703
56.4537
59.9657
57.492
143.494
181.724
152.011
56.3062
50.448
55.4315
43.4811
95.1572
149.407
152.803
44.3361
30.3902
39.9671
33.9339
84.8931
155.484
146.393
28.24
24.4263
33.3392
32.45
311.789
286.343
255.994
82.0025
72.4689
82.9593
71.5045
320.757
262.623
301.951
70.6959
68.5008
69.1464
64.9542
288.446
308.114
306.387
68.3048
66.3082
64.4023
63.8899
284.806
305.46
303.599
64.8103
61.1905
63.6368
62.6607
202.9
297.018
204.349
60.8706
58.7554
63.1096
65.433
159.264
176.663
155.958
56.477
43.5787
63.8945
46.6653
168.883
156.256
159.143
40.0651
34.5829
43.2096
39.4343
154.631
158.791
128.722
34.0732
32.6871
39.1722
37.8086
225.223
251.996
191.953
80.8917
70.2148
78.3016
64.3351
277.221
180.728
181.757
68.3359
64.4336
63.1064
62.2087
302.428
191.262
221.479
63.8224
63.5188
62.1288
62.8284
301.338
225.96
221.872
63.4249
63.1548
63.4652
66.5265
201.462
212.042
152.365
64.0187
67.0484
67.6092
67.1314
151.827
142.428
140.044
65.1835
47.2736
64.1041
49.5358
147.784
144.495
162.067
44.1936
41.0644
46.5956
41.2938
124.576
163.297
149.213
40.7753
38.3915
40.6635
37.3127
207.947
308.369
237.451
79.1616
63.3299
83.5317
67.71
165.714
220.189
194.135
60.7404
58.1955
62.566
52.1816
177.613
187.527
163.353
58.7119
61.747
50.5491
47.7057
159.885
158.825
159.908
62.8219
65.5266
46.8501
44.72
132.392
164.75
178.18
65.8891
64.6415
44.3097
43.0416
148.297
181.723
185.707
61.6065
48.8031
42.4001
39.4236
171.313
185.38
178.405
45.8397
40.6978
38.4088
35.251
151.523
176.867
159.296
40.0003
36.6268
34.4337
31.6693
75.9954
72.2569
67.0925
64.0381
62.6369
59.1363
56.4377
75.3251
65.9181
64.3976
61.8472
59.0281
55.7446
53.8842
65.3122
64.2217
61.0443
56.7433
49.1535
53.152
49.4619
52.3265
58.9467
54.116
46.3586
40.9318
47.931
44.059
49.1175
53.1957
51.2074
39.5618
37.1059
43.1456
40.3628
41.939
49.6136
38.8979
35.6874
29.9359
38.3937
31.9221
27.9447
35.9259
30.9882
27.8938
24.6837
30.4287
28.1758
24.573
30.4829
30.5773
24.5496
24.6641
27.9666
28.1206
64.9069
70.9882
63.9766
57.2472
54.8272
55.8886
52.7722
61.8936
62.0775
58.5595
54.1282
52.5101
51.8647
50.0297
59.6348
58.0778
57.5211
51.9964
49.4598
49.7437
49.0332
54.7361
57.2048
56.5744
48.2916
45.2864
49.0688
65.2348
52.6635
56.9411
58.5869
44.6251
42.443
65.4547
60.2622
39.2534
57.6563
43.6826
40.3083
32.9459
57.3255
45.4182
31.5728
40.3783
36.1605
31.3543
29.014
42.109
36.2781
30.8963
35.6995
35.5536
28.7678
28.5556
35.2383
34.4412
63.5935
65.7583
58.2158
55.2703
52.617
50.8424
49.2323
58.2956
57.46
56.7208
51.69
49.6711
48.71
47.8327
57.2265
56.6322
56.995
49.3441
48.8941
47.835
48.1861
56.986
57.3785
59.3227
48.4984
62.7271
48.3788
49.7734
59.8884
60.1323
60.2523
63.483
61.0525
50.8261
51.7322
44.6346
58.9012
46.3345
59.2268
49.5246
51.1458
43.2306
37.6046
43.3593
37.9133
46.2933
39.5063
40.9179
36.2956
35.9787
37.1044
34.9162
38.2069
35.901
35.3754
33.7298
56.6432
65.1097
58.0565
49.5064
46.9592
48.483
45.0759
53.2644
54.7513
47.6728
46.2959
45.6593
43.8067
41.3767
56.1229
46.3896
44.0915
45.8854
47.1575
40.5902
38.9726
58.8061
43.5476
41.9501
47.5546
48.79
38.7057
37.963
58.9388
41.5775
39.8902
49.3174
49.2467
37.6029
35.6395
45.2829
39.0839
35.9064
48.012
39.9891
34.8142
32.0836
36.9722
34.852
31.9339
37.9143
33.9886
31.2233
29.2729
33.9466
31.2199
29.7515
33.258
32.467
28.9423
28.6495
60.2093
57.1673
54.8523
59.3803
56.2486
55.3312
53.5376
55.2465
54.1545
51.9787
54.4544
49.0085
52.716
49.7603
46.0453
51.1015
47.4172
46.8214
41.7912
48.665
45.1525
38.7427
46.003
42.2538
40.1725
35.741
43.8974
40.2164
34.4208
41.3072
38.1287
34.4738
31.2831
39.1778
36.1796
28.1613
36.3328
31.166
30.372
28.4719
35.2213
33.3685
24.6835
30.0431
28.403
28.1084
28.142
33.1031
32.9529
25.1297
28.2678
28.3855
28.4466
29.2732
32.9787
33.2941
53.369
53.1108
50.9656
53.3637
52.4119
49.8607
49.2181
50.9751
50.2614
48.7834
51.8311
49.6407
48.9496
48.1779
47.7207
48.5201
47.817
48.8193
45.9753
47.923
46.7521
45.3677
45.5062
47.0438
45.4556
46.2947
44.3587
45.9969
43.5939
42.2465
44.9541
41.5688
44.5405
40.8327
44.1266
32.2993
68.158
50.4043
36.7039
34.5218
81.9971
55.3071
29.3387
45.9247
38.1728
34.2159
34.1031
50.5953
43.3616
28.9238
36.8286
35.5415
34.173
34.1278
42.2462
41.3564
50.675
48.3554
47.6365
48.793
48.4954
46.0311
45.9666
48.3343
47.1276
46.2545
48.1971
47.507
45.5687
44.9511
47.6583
46.2657
46.5831
47.333
46.6202
44.9589
44.9685
77.1803
69.4916
47.7374
53.1255
55.064
315.493
47.6274
113.31
86.4091
73.4777
254.615
73.375
233.856
113.601
58.4393
50.7007
43.9227
90.7028
65.7912
49.3381
46.1944
43.4595
41.8446
37.5048
59.8921
49.3257
45.0402
42.8278
37.5562
36.6054
34.9109
47.5618
44.1176
42.5936
43.0239
45.5253
45.4034
43.2577
44.8201
44.5751
43.1857
42.2043
44.3659
42.3351
40.5288
44.2434
43.6322
41.7394
40.6502
45.4889
39.8059
38.3164
43.6574
43.9011
40.0449
38.9747
46.8526
38.0905
37.4768
43.9606
44.1174
38.8512
38.3956
47.2736
37.1074
35.2064
44.325
44.3323
38.0297
36.5882
39.5803
34.4512
32.0324
43.7203
40.9655
36.1391
34.875
34.4754
31.2716
29.6828
40.2262
39.2089
34.4899
34.1182
33.4799
29.4879
29.3261
39.248
40.918
34.2258
35.1907
56.0426
55.9377
54.2605
64.3782
59.8098
62.1326
61.7471
48.3878
53.3966
50.2875
57.6869
52.9538
60.9087
58.0789
41.857
49.1792
45.7636
52.0389
49.2226
57.2573
54.5132
36.1921
44.5387
40.9497
48.2361
46.4478
53.5435
51.7833
32.4334
39.9696
37.4664
46.5917
46.8676
51.8215
52.6156
31.0744
36.8479
36.1488
46.9392
47.0349
53.1408
54.7164
31.4347
36.2034
36.6428
47.2278
47.2941
55.1952
55.5233
31.5633
36.6996
36.3968
46.9502
44.8592
55.2804
53.9901
53.2688
50.1494
49.9542
60.3702
61.3965
56.2775
59.1266
50.399
49.8103
49.2008
61.036
58.9616
59.505
59.484
46.6605
48.9304
47.5058
58.2691
55.2926
58.9632
56.5541
42.2329
46.9847
70.8058
54.304
52.2288
55.5391
55.738
38.8583
74.2499
70.8457
52.0262
52.7058
56.7371
58.0951
37.1463
66.1823
52.6072
53.4578
55.9408
58.2484
60.9738
37.8602
49.6926
45.477
56.6844
57.4811
61.756
62.844
37.3308
44.9032
44.0754
57.3491
55.8077
62.7453
61.9747
49.1312
46.6333
46.7855
55.2757
58.6943
55.5721
58.3753
48.5144
46.4588
45.9731
59.1567
59.3416
58.4173
58.3085
47.3432
45.9693
45.7989
58.8542
56.6588
58.2445
56.6339
66.5976
45.6731
46.1404
55.8558
56.5104
56.0973
55.8319
72.0229
46.975
48.6437
57.5878
59.1592
56.1635
57.6426
59.221
48.5629
46.7778
59.4737
62.4715
58.3326
60.9522
49.7926
46.1641
45.4159
63.2411
64.2032
61.6493
62.8
46.3331
45.4752
45.9088
64.0717
62.9481
62.7916
62.4012
45.7079
44.0301
43.3406
56.7969
58.4314
54.2902
53.3902
44.7948
42.8676
41.7771
58.0723
57.452
52.5485
51.8767
44.8285
41.2383
40.443
57.4536
56.7463
52.4148
53.0835
44.6313
40.3512
39.8783
56.3194
56.2094
52.9526
52.7597
44.6589
39.537
38.3853
56.4741
57.4376
53.0444
53.5257
42.6602
38.0669
37.2083
57.9214
59.5443
53.4805
53.3717
42.3255
36.9629
36.9748
60.0321
60.9853
53.4717
53.7702
44.059
37.1978
37.7094
60.992
60.9788
53.7049
53.0368
63.2347
66.623
66.9074
88.4357
83.3709
88.8314
92.4882
57.9406
66.2082
63.9702
82.3599
87.658
92.4615
93.8449
55.494
63.4339
61.409
88.3386
88.9667
94.5869
99.4282
53.8877
60.8668
60.7355
89.1663
94.5225
101.345
107.869
55.5335
61.2403
62.5711
96.1844
99.0212
110.211
114.993
56.4263
63.0225
65.0735
99.6982
103.36
115.313
112.192
56.4051
65.5648
65.5429
103.84
102.13
111.783
110.957
52.3606
65.0644
62.5685
101.383
99.6287
110.449
109.73
66.9348
61.3573
65.868
87.1377
93.6504
83.3537
95.2288
65.1722
66.5032
66.7799
94.1571
95.6372
96.6714
99.7506
62.1473
66.2504
63.7782
96.739
103.663
102.127
114.002
61.3155
62.9643
62.8324
106.118
113.48
118.161
129.036
63.8224
63.7318
66.2953
116.148
121.989
132.298
138.228
66.7624
67.6909
71.847
122.285
117.211
137.998
129.644
67.7965
72.8077
73.3849
115.213
113.521
124.947
118.671
64.8557
72.9401
70.8956
113.338
113.174
117.992
117.41
65.7304
62.0725
65.8892
83.7529
95.5618
87.3169
97.0002
66.8901
65.997
65.9316
97.1235
100.322
97.4083
98.5439
64.1326
65.9225
65.198
102.747
115.156
99.7768
108.069
63.8926
64.835
65.7063
119.828
130.446
111.386
120.723
67.1904
66.4557
68.6707
133.263
138.517
123.647
129.509
72.9832
69.4915
71.6762
138.277
130.271
129.577
123.604
74.4891
72.4891
72.9413
125.642
119.257
121.004
118.021
71.7686
72.6167
70.9003
118.589
118.196
117.492
117
65.96
61.4633
59.378
93.253
96.8787
89.5251
81.2038
64.9078
58.4488
58.2941
96.3759
96.9689
80.9419
86.9257
65.0808
59.1856
59.8653
97.7857
104.073
90.1658
90.8986
66.0068
59.7149
60.1223
106.758
115.449
91.702
98.6387
67.9997
60.8662
61.839
118.273
123.429
101.976
103.949
70.1406
61.8282
62.0644
123.459
118.926
104.743
107.591
71.0216
62.4325
62.6285
118.073
116.26
108.96
107.891
69.4431
62.3678
60.7765
115.747
115.504
107.934
107.477
45.0108
44.4682
45.3663
42.3677
45.7785
43.2998
44.6118
50.8506
47.3463
73.4316
52.5475
48.4713
46.5694
240.648
56.188
52.425
102.187
286.562
51.2427
57.3363
311.603
44.7742
44.87
43.6941
45.5334
43.7399
45.4834
44.605
44.4114
41.6731
42.5883
43.5899
42.6537
43.9888
44.0655
50.3044
52.7817
45.9008
73.2609
46.0482
242.718
46.9655
55.955
282.355
52.1192
106.506
57.4298
308.805
50.1669
42.9323
41.4728
42.8942
38.5129
43.998
39.8966
41.5547
55.8988
52.3156
102.718
264.771
51.8346
56.795
245.189
54.9198
49.3474
89.6081
115.543
51.1233
51.1767
161.871
42.8635
40.8055
39.8154
43.0488
39.9725
43.4582
42.438
42.123
37.7031
38.8663
40.5544
38.977
40.7644
41.6903
56.2135
259.549
52.4538
124.026
57.0012
240.309
52.2004
55.1554
123.083
49.4439
114.916
51.3547
161.518
51.6657
100.284
87.5171
71.2325
277.871
65.3478
298.936
110.675
48.4399
47.2037
47.0066
45.5862
48.1657
46.2589
45.8896
52.673
53.1328
47.528
47.7
50.4515
56.7984
46.5581
74.8837
53.7551
70.202
46.4979
300.502
47.1918
54.0211
98.1495
272.612
90.8008
74.3487
297.263
108.668
65.6254
47.838
44.965
45.6917
45.0544
45.7292
45.2051
46.646
52.0753
46.8696
52.3293
45.3948
56.2796
45.8022
49.0666
108.896
84.9333
71.0793
134.983
72.9277
203.755
102.373
63.3704
55.6412
50.8772
49.2609
57.4665
60.4978
50.6504
64.1822
58.0694
51.2293
51.1757
58.055
64.1917
51.1714
112.636
244.883
103
80.708
221.896
112.707
84.623
109.439
142.819
103.423
85.565
183.007
105.543
86.0504
63.4142
48.3954
55.8399
48.685
60.225
49.8833
59.0015
64.559
50.6206
61.3152
49.3557
64.8791
50.5463
60.5978
208.763
233.985
212.147
131.088
112.179
129.224
109.856
179.722
196.052
180.261
103.651
100.729
101.744
99.2404
154.166
164.616
153.407
93.9472
85.9795
95.3314
86.1598
128.487
145.168
139.447
71.9988
64.6641
73.2288
64.3313
97.8786
129.198
114.738
56.5736
54.4831
59.3996
59.0272
62.8997
97.1765
77.2452
50.1525
39.75
58.7102
53.767
38.3059
58.4759
48.5792
27.0614
19.6142
38.3583
26.7816
28.3666
47.6933
50.0155
17.9011
14.1149
23.8959
20.4
217.392
213.537
207.15
122.237
101.889
122.894
99.1508
163.909
349.791
361.085
192.773
165.48
191.927
331.654
124.678
308.064
307.018
134.787
133.201
128.818
303.459
118.482
277.746
279.646
134.368
133.711
119.554
269.175
108.622
252.875
251.345
125.315
123
111.218
250.801
97.6501
233.099
246.229
109.744
106.764
100.213
238.488
86.7131
175.591
184.275
94.0103
91.6666
90.0553
169.129
62.9023
112.953
130.075
70.6739
62.3234
70.2714
118.041
47.0331
91.673
101.169
45.7196
43.7143
47.7735
100.113
64.3111
90.1639
76.2809
31.2057
25.3353
39.7802
37.9841
184.504
193.441
171.967
117.49
95.8216
116.921
95.7534
142.232
302.461
310.246
165.22
141.884
165.173
287.711
114.086
323.147
306.996
118.173
115.915
116.267
317.422
110.73
302.182
317.354
112.524
110.763
111.855
311.226
106.89
286.318
299.342
106.04
104.718
107.897
298.862
106.322
265.343
289.903
103.592
103.595
105.779
274.009
79.2557
167.501
181.02
86.0573
78.7107
89.263
167.562
61.5512
161.934
162.371
63.1853
60.2022
63.6207
165.43
59.7304
171.275
173.127
58.0734
58.1113
59.7827
173.895
93.779
99.5509
87.1574
40.6404
38.309
43.0747
40.3735
156.723
191.824
156.044
115.747
93.4504
118.559
94.0519
123.503
232.201
252.481
142.137
123.635
142.661
228.062
98.5594
247.3
211.029
103.801
102.863
101.257
218.828
102.46
298.926
263.787
105.753
106.975
100.417
276.027
107.23
303.769
293.575
108.651
108.396
107.011
295.679
121.5
276.929
286.469
111.714
119.306
115.319
268.261
83.8783
159.84
170.677
102.179
84.2772
100.966
157.81
68.4876
150.214
147.711
67.8685
68.1123
68.6125
146.622
67.1431
143.424
145.718
70.105
70.1352
68.0243
145.073
70.5331
101.212
99.4262
43.1306
37.9932
42.8658
37.5446
168.969
207.229
185.132
121.618
94.6658
117.88
97.2554
130.843
241.725
276.986
152.834
128.926
153.699
251.951
93.1804
175.828
208.86
95.9988
90.8862
99.2266
190.826
84.3917
171.013
156.988
86.2541
87.3778
84.0565
153.432
88.9309
174.777
143.725
99.5458
103.292
88.6851
138.876
81.1852
142.483
129.662
106.194
104.543
83.8785
129.181
69.8265
134.011
138.113
82.5007
75.17
70.9561
147.654
67.9669
166.336
174.766
68.5263
68.0869
68.5016
177.504
64.3821
169.545
175.584
68.1825
68.0166
66.1508
175.094
110.612
116.951
107.155
39.4481
31.935
37.4899
29.9781
143.595
170.521
143.978
95.298
79.5246
91.6444
78.6599
129.377
136.571
137.58
66.8131
60.6525
66.0564
62.7849
121.04
135.045
126.647
57.4387
53.8054
59.8827
54.0421
117.625
121.025
119.374
51.0349
49.8463
49.7139
48.4382
117.435
117.123
112.274
48.4113
47.0879
47.0724
44.4368
113.15
107.76
103.986
45.7595
43.9297
42.452
40.7431