/*--------------------------------*- C++ -*----------------------------------*\
  =========                 |
  \\      /  F ield         | OpenFOAM: The Open Source CFD Toolbox
   \\    /   O peration     | Website:  https://openfoam.org
    \\  /    A nd           | Version:  10
     \\/     M anipulation  |
\*---------------------------------------------------------------------------*/
FoamFile
{
    format      ascii;
    class       volScalarField;
    location    "1.9";
    object      p;
}
// * * * * * * * * * * * * * * * * * * * * * * * * * * * * * * * * * * * * * //

dimensions      [0 2 -2 0 0 0 0];

internalField   nonuniform List<scalar> 
12920
(
-712804
-395205
-433048
-387651
-372017
-330990
-309723
-278672
-254571
-227547
-204577
-180606
-158603
-136490
-115552
-94562.3
-74737.3
-55084.3
-34599.6
-12658.8
-339262
-365144
-414014
-375346
-366070
-326852
-308696
-277460
-253706
-226418
-203689
-179713
-157736
-135705
-114898
-94100.2
-74422.6
-54887.6
-34484.9
-12607.4
-197507
-335098
-452954
-392256
-377891
-334507
-310477
-277644
-252511
-225212
-201850
-177814
-156124
-134380
-113889
-93285.3
-73837.8
-54447
-34228.5
-12483.1
-516905
-478555
-497903
-407878
-381163
-331678
-307249
-274442
-249924
-223420
-200135
-176387
-155191
-133745
-113120
-92333.5
-72950.6
-53855
-33811.3
-12332.9
-946430
-603070
-550886
-421689
-390279
-334839
-306353
-271706
-246469
-219705
-196534
-172934
-151868
-130746
-110900
-90853.4
-71771
-52970.6
-33261.6
-12023.5
-1.04869e+06
-590528
-533000
-410879
-371309
-321059
-293012
-261874
-237822
-213044
-190905
-168734
-147506
-127210
-108011
-88944.2
-70195.5
-51937.6
-32491
-11658.9
-430503
-420398
-469745
-373997
-348213
-305423
-280559
-249485
-227483
-203545
-183631
-162756
-143325
-123879
-105544
-86804.8
-68821.4
-50672.2
-31683.1
-11288.9
-263623
-294877
-353420
-307638
-299752
-273005
-266792
-242688
-222877
-201659
-182553
-163048
-144572
-125813
-101584
-83936.3
-66444.5
-49434.4
-30903.3
-11134.6
-12400.5
-205170
-299692
-256275
-269154
-254353
-249146
-230886
-212878
-194389
-176691
-158815
-141219
-123834
-103668
-80716.7
-64089.5
-47943.2
-30146.8
-10945.1
54499.6
-97867.6
-181122
-190109
-219985
-221435
-223842
-212260
-198260
-183003
-167305
-151155
-135063
-118814
-99698.2
-78281.9
-61770.3
-46072.9
-29119.1
-10754.9
51963.4
-55181.4
-167135
-170263
-203192
-197987
-202332
-196163
-185092
-172301
-158414
-143635
-128834
-113520
-95486.3
-75480.1
-59680.8
-44874.2
-27952.5
-10423.8
-158833
-117301
-170766
-157970
-185323
-183273
-186753
-182754
-174076
-162952
-150326
-136668
-122447
-108023
-91085
-72793.1
-58037.4
-43392.1
-27046.8
-10380
-224205
-106070
-166918
-149870
-181697
-171281
-176651
-170928
-163614
-152334
-141072
-128100
-114929
-101230
-84348.6
-70278.1
-56347.8
-42374
-26485.4
-9460.28
-240015
-129012
-182602
-168966
-180094
-168337
-170418
-159320
-154249
-142419
-133030
-119686
-108209
-95038.2
-82113.1
-67986.4
-54796.2
-41017.9
-25682.5
-9219.72
-221546
-147416
-173867
-169261
-186485
-167370
-168567
-156416
-151022
-139527
-129669
-117560
-105695
-92657.6
-79823.6
-66488.2
-53576.3
-40207.6
-25188.2
-9092.76
-424974
-235132
-219729
-186226
-192728
-169437
-165558
-152512
-146331
-134649
-125779
-113513
-102347
-89651.3
-77590.4
-64748.3
-52223.5
-39148.5
-24554.4
-8777.67
-311254
-256082
-233767
-193917
-196700
-170404
-165767
-150364
-143289
-131187
-122595
-110720
-100280
-88037.2
-76145.9
-63262.3
-50928.4
-38240.1
-23984.9
-8659.12
-514623
-268005
-244797
-189929
-197268
-170755
-165172
-150172
-142279
-129823
-120724
-108977
-98534.5
-86548.7
-74998.9
-62363.1
-50248.3
-37703.3
-23626.8
-8565.14
-428013
-228842
-254956
-198349
-195994
-171693
-165050
-149626
-141649
-128787
-119636
-108009
-97638.8
-85776
-74304.3
-61980.1
-49945.8
-37461.7
-23383.2
-8611.72
-130801
-138790
-214369
-169366
-189511
-170457
-165019
-150013
-141685
-128709
-119218
-107426
-97134.3
-85282.4
-73922.9
-61639.7
-49683.4
-37287.6
-23171.4
-8512.47
-608384
-401345
-431472
-387683
-372348
-330808
-309830
-278584
-254538
-227523
-204606
-180645
-158602
-136477
-115549
-94562.7
-74724.8
-55076.5
-34577.9
-12656.3
-432993
-393181
-419840
-376431
-366025
-326540
-308535
-277339
-253724
-226484
-203677
-179712
-157754
-135726
-114923
-94125.3
-74416.9
-54890.4
-34493.6
-12618.8
-270960
-345780
-457770
-392097
-378267
-334473
-310348
-277424
-252442
-225212
-201899
-177778
-156107
-134333
-113833
-93275.7
-73826.3
-54445.2
-34232.5
-12489.8
-642609
-500056
-504427
-407783
-381030
-331673
-307262
-274599
-250112
-223422
-200094
-176434
-155108
-133685
-113008
-92243.8
-72917.8
-53853.6
-33802.2
-12341.2
-1.04791e+06
-623794
-554062
-421089
-390447
-334753
-306546
-271612
-246485
-219669
-196478
-172980
-151864
-130749
-110902
-90852.9
-71763.9
-52960.7
-33243.5
-12001.1
-1.0665e+06
-609961
-536515
-411206
-371922
-320851
-293071
-261718
-237766
-213129
-190851
-168642
-147585
-127372
-108152
-89036
-70235.8
-51946.8
-32457.4
-11637.4
-689586
-436543
-476902
-374201
-348693
-305370
-280301
-249444
-227338
-203538
-183722
-162790
-143440
-123907
-105461
-86672.2
-68759.2
-50642.5
-31681.4
-11285.8
-416697
-330140
-362769
-309294
-300799
-272821
-266783
-243126
-222831
-201665
-182527
-163034
-144488
-125885
-101540
-83987.8
-66476.5
-49424.2
-30898.6
-11120.6
-253139
-217944
-307812
-256242
-270001
-254710
-249475
-230877
-212925
-194504
-176724
-158815
-141248
-123854
-103664
-80748.1
-64130.5
-47933.2
-30132.6
-10938.9
29085.7
-127071
-189401
-193175
-221485
-222071
-224249
-212242
-198259
-182999
-167260
-151132
-135069
-118813
-99605.9
-78190.6
-61780.3
-46134.5
-29128
-10760.5
-60883.5
-116235
-172085
-172510
-204185
-198609
-202757
-195781
-185021
-172253
-158258
-143567
-128760
-113452
-95348.2
-75316.8
-59687.1
-44876.5
-27954.2
-10488.2
-144649
-105876
-164990
-157187
-185190
-183507
-187130
-182774
-173869
-162781
-150203
-136535
-122426
-108012
-90957.4
-72793.8
-58047.1
-43397.6
-27073.9
-10343.3
-94600.2
-98478.7
-161562
-149884
-181714
-171097
-176804
-171275
-163577
-152251
-141055
-128081
-114904
-101333
-84340.4
-70292
-56334.7
-42367.3
-26499.4
-9472.29
-315890
-151399
-182089
-167743
-179697
-168231
-170152
-159347
-154330
-142333
-133056
-119688
-108177
-94846.1
-82141.7
-68044
-54794.8
-41035.9
-25684.7
-9232.25
-183718
-148658
-176730
-170267
-186515
-167379
-169109
-156628
-151081
-139553
-129389
-117423
-105512
-92722.4
-79867.6
-66496.8
-53592.1
-40278.8
-25213.4
-9105.03
-508694
-252968
-234811
-190037
-192803
-169389
-165574
-152538
-146467
-134695
-125838
-113571
-102547
-89801.4
-77685.9
-64768.2
-52225.9
-39206.5
-24590.3
-8815.52
-385808
-263295
-237749
-194663
-197216
-170464
-165719
-150357
-143300
-131293
-122769
-110889
-100371
-88090.8
-76196.8
-63310.5
-50971
-38245.6
-23989.6
-8662.76
-515779
-267237
-244704
-189455
-197293
-170924
-165319
-150224
-142300
-129827
-120782
-108975
-98569.6
-86559.8
-74984.5
-62366.4
-50266
-37717
-23650.4
-8547.19
-430368
-227589
-255737
-197228
-196292
-171861
-165181
-149684
-141678
-128755
-119635
-107974
-97634.8
-85765.3
-74296.7
-61972.9
-49940.9
-37477.4
-23404.7
-8577.57
-151523
-134185
-216185
-168835
-189678
-170431
-165048
-150018
-141661
-128707
-119211
-107419
-97115.3
-85266.5
-73911.1
-61633.6
-49673.5
-37309.3
-23187.2
-8514.83
-676892
-409791
-429544
-388311
-372304
-330687
-309828
-278435
-254514
-227479
-204590
-180644
-158593
-136447
-115542
-94562.5
-74701.5
-55053.8
-34571.3
-12649.3
-599474
-410694
-424669
-376265
-365904
-326204
-308437
-277149
-253647
-226507
-203646
-179705
-157759
-135723
-114918
-94111.5
-74391.9
-54883.5
-34466
-12574.1
-414482
-369846
-467434
-391549
-379322
-334839
-310273
-277309
-252404
-225195
-201947
-177750
-156072
-134305
-113838
-93248.3
-73783
-54456.3
-34169.3
-12437.2
-692908
-529315
-505628
-403342
-378979
-331002
-307499
-274897
-250212
-223366
-200082
-176373
-154951
-133500
-112787
-92194.6
-72838.1
-53800.6
-33748.4
-12294.6
-1.00703e+06
-622055
-550217
-418868
-389633
-334518
-306722
-271460
-246412
-219455
-196458
-172970
-151833
-130726
-110911
-90843.2
-71756.8
-52943.3
-33212.4
-11957.3
-1.11971e+06
-611371
-539164
-410765
-371502
-320388
-293039
-261615
-237803
-213151
-190743
-168667
-147722
-127679
-108315
-89090.8
-70316.7
-51939.6
-32421
-11624.8
-800349
-444844
-474472
-374438
-348802
-304857
-279958
-249346
-227386
-203595
-183746
-162773
-143549
-123866
-105373
-86579
-68647.2
-50617.8
-31674.2
-11269.3
-455378
-312727
-358217
-308831
-301350
-272571
-267039
-243260
-222739
-201692
-182420
-163038
-144430
-125839
-101547
-83993.8
-66483.3
-49390.9
-30896.9
-11096.5
-239001
-217991
-306191
-256508
-270516
-254743
-249553
-230634
-212829
-194484
-176656
-158815
-141313
-123889
-103629
-80795.9
-64155.7
-47868
-30074.3
-10894.9
16319.2
-110154
-185984
-192283
-221265
-222568
-223688
-211860
-198041
-182875
-167212
-151107
-135033
-118776
-99473.2
-78117.6
-61725.3
-46206
-29059.7
-10652
78632.8
-88209.2
-163312
-170263
-203206
-198702
-203265
-195409
-184791
-171796
-158048
-143463
-128660
-113363
-95208.4
-75197.3
-59678.9
-44880.3
-27935
-10364.5
45410.2
-64472.9
-161377
-155847
-184537
-183185
-187251
-182770
-173654
-162579
-150026
-136456
-122413
-108002
-90931.9
-72700
-58006.6
-43352.4
-27080.4
-10207.5
-176240
-91802.7
-155335
-150113
-181174
-170914
-176936
-171555
-163278
-152264
-141008
-128058
-114885
-101326
-84403.9
-70309.9
-56344
-42365.5
-26464.9
-9472.97
-268734
-149073
-181899
-166963
-179661
-168408
-170179
-159418
-154414
-142521
-133082
-119686
-108176
-94642.5
-82046.2
-68015.6
-54789.9
-41029.1
-25667.8
-9212.7
-146742
-140348
-174787
-172016
-186493
-167715
-169577
-156852
-151029
-139338
-129243
-117244
-105369
-92716.4
-79847
-66502.7
-53592.4
-40286.7
-25207.2
-9072.82
-446252
-237428
-232970
-190608
-192577
-169298
-165619
-152661
-146589
-134727
-125885
-113673
-102733
-90088.1
-77876.3
-64846.2
-52238.9
-39228.9
-24604.1
-8794.42
-394641
-264626
-235727
-195935
-197188
-170413
-165542
-150310
-143349
-131402
-122872
-111034
-100429
-88125.9
-76234.5
-63315.4
-50949.3
-38236.5
-24001.4
-8654.56
-529011
-285969
-242248
-190641
-197330
-171059
-165263
-150111
-142183
-129732
-120759
-108951
-98594.6
-86513.7
-74949.9
-62349.3
-50215
-37690.6
-23657.2
-8529.39
-455039
-236103
-248099
-196335
-195846
-171681
-165081
-149579
-141616
-128677
-119589
-107878
-97578.7
-85729.5
-74267.4
-61943.4
-49923.3
-37478.4
-23419.3
-8548.12
-159763
-104935
-211653
-167022
-189479
-170346
-165018
-149997
-141656
-128692
-119234
-107421
-97105.5
-85240.6
-73904.1
-61621.6
-49664.5
-37316.5
-23220.7
-8533.33
-569424
-419946
-430134
-389200
-372378
-330405
-309675
-278179
-254446
-227458
-204588
-180656
-158591
-136435
-115536
-94553.4
-74688.6
-55059.9
-34546.6
-12603.7
-648734
-427443
-433207
-376699
-365985
-326089
-308311
-276947
-253606
-226520
-203645
-179695
-157759
-135712
-114910
-94089.4
-74366.6
-54878.5
-34423.6
-12522.9
-411901
-381719
-467984
-391993
-380110
-335220
-310432
-277432
-252467
-225216
-201947
-177732
-156031
-134275
-113820
-93200.8
-73727
-54421
-34116.7
-12359.2
-955114
-567088
-514548
-402740
-378783
-331053
-307754
-275011
-250231
-223340
-200120
-176279
-154806
-133212
-112620
-92206.9
-72823.9
-53752.7
-33694.3
-12231.9
-1.00017e+06
-639104
-551561
-415724
-389216
-334005
-306681
-271340
-246238
-219269
-196432
-172903
-151763
-130704
-110956
-90859.3
-71666.9
-52900.3
-33187.7
-11915.3
-1.03714e+06
-624966
-539322
-410516
-371266
-320201
-292891
-261505
-237878
-213123
-190702
-168791
-147965
-127956
-108390
-89058.4
-70341.8
-51883.9
-32396.7
-11613.6
-821448
-455753
-470575
-376006
-348377
-304872
-280053
-249330
-227455
-203669
-183717
-162729
-143559
-123846
-105302
-86503.5
-68564
-50609.3
-31666.3
-11242
-343131
-317735
-361536
-310958
-302257
-272612
-266847
-243105
-222566
-201685
-182319
-163079
-144385
-125765
-101588
-83973.1
-66471
-49347.5
-30892.9
-11056.4
-324201
-235799
-312176
-260059
-271353
-253989
-249366
-230270
-212642
-194373
-176589
-158832
-141396
-123983
-103630
-80871.8
-64206.6
-47830.9
-30029.8
-10717.4
-62186.5
-134632
-191101
-195259
-222069
-222799
-222929
-211417
-197762
-182674
-167016
-151024
-134935
-118735
-99401.3
-77997.3
-61710.9
-46265.7
-29022.8
-10554.2
34138.4
-94640.5
-167605
-172119
-203342
-199239
-203552
-195051
-184513
-171658
-157873
-143416
-128588
-113329
-95122.1
-75124.1
-59653.3
-44845.3
-27960.3
-10281.5
182404
-55628.6
-153869
-155722
-184079
-183068
-187413
-182720
-173566
-162452
-149904
-136411
-122395
-107995
-90872
-72621.8
-57933.2
-43347.1
-27076.5
-10069
54406.7
-64414.4
-148251
-150692
-180809
-171273
-177335
-171882
-163275
-152433
-140963
-128058
-114907
-101326
-84409.1
-70336.5
-56286.6
-42318
-26452.8
-9459.13
-50500.9
-117027
-174572
-165704
-179332
-168543
-170175
-159509
-154509
-142748
-133114
-119714
-108164
-94556.3
-81950.7
-67912.8
-54750.1
-41031.8
-25694.5
-9204.91
-103963
-139725
-181448
-173397
-186530
-167976
-169711
-157000
-150993
-139137
-129259
-117200
-105356
-92667.6
-79847.7
-66539.3
-53586.7
-40289.6
-25238.3
-9052.91
-479710
-258164
-239131
-192180
-192858
-169344
-165771
-152801
-146621
-134744
-125906
-113734
-102853
-90325.9
-78084.7
-64937.7
-52304.8
-39246.9
-24631.5
-8781.16
-416156
-272571
-235862
-197201
-197243
-170448
-165484
-150426
-143455
-131484
-122900
-111064
-100503
-88116.2
-76182
-63280
-50876.8
-38232.7
-24014.4
-8622.73
-395337
-272970
-232954
-189215
-197220
-171106
-165292
-150114
-142134
-129722
-120858
-108927
-98541
-86482.1
-74905.2
-62310.6
-50178
-37686.7
-23668.1
-8494.29
-402279
-231720
-243829
-197471
-195664
-171596
-164946
-149510
-141586
-128651
-119478
-107770
-97516.9
-85679.5
-74254.7
-61933.5
-49908.5
-37483
-23429.6
-8503.05
-15994.5
-84591.6
-207467
-166096
-189443
-170306
-165063
-150036
-141670
-128682
-119240
-107391
-97075.7
-85221.9
-73897.2
-61630.3
-49650.9
-37311.2
-23235.1
-8501.98
-593971
-424073
-431946
-389041
-372503
-330250
-309483
-277773
-254193
-227338
-204570
-180639
-158600
-136434
-115528
-94547.6
-74678.1
-55062
-34519.6
-12525
-722003
-433431
-435179
-376071
-365647
-325620
-307969
-276761
-253577
-226522
-203590
-179648
-157745
-135698
-114894
-94075.6
-74357.4
-54898.1
-34411.2
-12487.4
-510949
-410118
-470905
-389989
-380629
-335282
-310544
-277461
-252505
-225240
-201946
-177726
-156020
-134206
-113726
-93122.4
-73659.7
-54400.8
-34103.4
-12319.4
-998875
-578901
-519078
-399892
-378424
-330726
-307552
-274888
-250171
-223297
-200154
-176188
-154694
-133072
-112622
-92265.2
-72804.6
-53714.7
-33654.9
-12119.3
-914773
-644375
-550871
-413708
-387961
-333322
-306112
-271203
-246067
-219101
-196358
-172841
-151735
-130749
-110959
-90822.2
-71624.4
-52867.1
-33176.1
-11896.5
-855204
-617163
-536768
-408444
-370767
-319982
-292728
-261384
-237743
-212989
-190706
-168806
-148055
-128065
-108434
-89051.4
-70360.6
-51865.1
-32371.9
-11606.2
-903504
-478752
-476881
-375671
-348352
-305044
-280079
-249264
-227549
-203745
-183687
-162754
-143486
-123841
-105253
-86479.5
-68521.2
-50613.2
-31674.1
-11218.3
-287358
-300681
-361901
-311001
-301891
-272287
-266686
-242855
-222298
-201611
-182057
-163024
-144364
-125722
-101686
-83949
-66395.2
-49367.2
-30921.1
-11046.6
-451873
-243148
-313666
-260835
-271010
-254122
-249025
-229928
-212447
-194295
-176555
-158922
-141551
-124142
-103444
-80867.1
-64283
-47868.6
-30000.5
-10588.1
-29260.9
-128925
-190188
-195683
-221736
-222935
-222699
-211034
-197479
-182394
-166605
-150670
-134800
-118698
-99424.4
-77953.6
-61770.3
-46280.4
-29034.8
-10445.9
-25963.7
-94945.3
-162506
-172197
-202969
-199785
-203425
-195146
-184305
-171612
-157775
-143305
-128519
-113326
-95089.4
-75067.4
-59563.7
-44879.4
-28007.6
-10189.2
172839
-47415.8
-150392
-156056
-183711
-183147
-187457
-182669
-173637
-162406
-149872
-136417
-122432
-108016
-90812.6
-72580.2
-57859.6
-43326.7
-27067.1
-9967.73
-67628
-62652.8
-148664
-151382
-180406
-171492
-177675
-171982
-163311
-152567
-140915
-128030
-114868
-101270
-84377.5
-70375.3
-56249
-42305.3
-26431.5
-9433.96
-41180.2
-119846
-173582
-165215
-178962
-168725
-170061
-159522
-154455
-142680
-133038
-119892
-108078
-94660.2
-81882.5
-67811.1
-54721.4
-41009
-25703.9
-9182.57
-59810.6
-129801
-177808
-173511
-186224
-168181
-169702
-157064
-150960
-139024
-129356
-117097
-105388
-92627.4
-79838.7
-66552.7
-53572.2
-40292.5
-25264.7
-9055.48
-539892
-258771
-235255
-191988
-192584
-169318
-165850
-152860
-146563
-134715
-125883
-113726
-103061
-90375.4
-78249
-65009.6
-52330.9
-39247.3
-24664.7
-8785.92
-283364
-260767
-234692
-198269
-197115
-170415
-165406
-150505
-143481
-131502
-122903
-111044
-100490
-88082.5
-76108.7
-63247.9
-50831.4
-38229.8
-24031.3
-8618.67
-427781
-290064
-234959
-191612
-197437
-171103
-165281
-150091
-142112
-129702
-120796
-108907
-98500.7
-86457.7
-74876.2
-62280.9
-50142.7
-37676.3
-23675
-8480.11
-273162
-226377
-239112
-197401
-195411
-171533
-164934
-149503
-141566
-128643
-119427
-107722
-97485.6
-85641.1
-74240.1
-61913.1
-49883.4
-37465.1
-23431.4
-8479.85
81389.7
-64984.9
-207569
-165355
-189444
-170254
-165077
-150040
-141662
-128668
-119239
-107367
-97057.3
-85212.3
-73889.4
-61619.3
-49659.3
-37309.7
-23253.3
-8480.59
-171141
-174271
-163986
-182728
-171028
-173931
-163744
-155096
-160442
-149169
-167115
-155034
-160210
-149128
-161667
-164783
-155181
-171439
-161539
-164665
-155072
-147432
-151896
-141657
-157956
-147422
-151797
-141600
-235924
-230676
-220374
-249550
-236273
-230921
-220449
-217995
-216796
-205661
-231009
-218020
-216828
-205697
-199376
-201807
-189871
-212936
-199375
-201825
-189878
-181327
-185833
-173611
-194453
-181337
-185835
-173623
-163503
-169577
-157188
-176716
-163514
-169567
-157166
-145817
-153064
-140691
-158809
-145824
-153049
-140696
-128432
-136612
-124213
-141228
-128441
-136620
-124224
-111322
-120081
-107240
-123842
-111312
-120094
-107199
-215341
-207527
-202728
-224021
-215446
-207612
-202544
-201899
-199814
-191265
-212295
-201942
-199703
-191253
-186880
-188174
-178276
-198290
-186889
-188173
-178283
-171203
-174840
-164175
-183010
-171210
-174828
-164159
-155179
-160548
-149182
-167279
-155171
-160511
-149157
-139071
-145451
-134165
-151139
-139072
-145417
-134129
-122904
-130365
-118806
-135068
-122908
-130334
-118750
-106431
-114898
-102912
-118818
-106434
-114842
-102856
-198967
-190440
-187228
-202486
-198783
-190696
-187374
-188040
-185792
-179183
-195937
-187989
-185836
-179013
-175621
-176697
-168214
-185056
-175612
-176547
-168090
-161985
-165181
-155567
-172280
-161904
-165059
-155444
-147269
-152255
-141836
-158317
-147237
-152121
-141796
-132558
-138359
-127711
-143594
-132518
-138299
-127655
-117413
-124062
-112999
-128783
-117349
-124039
-112992
-101717
-109342
-98455.2
-113474
-101637
-109305
-98458.4
-184176
-179951
-176889
-186903
-184248
-179897
-176802
-176430
-175495
-169958
-182770
-176263
-175513
-169848
-165925
-167720
-159324
-173929
-165778
-167327
-159342
-153546
-156468
-147864
-162836
-153459
-156524
-148055
-140128
-144940
-135360
-150242
-140050
-144980
-135426
-126035
-131872
-121599
-136565
-125993
-131909
-121737
-111593
-117995
-108303
-122429
-111597
-118110
-107944
-97069.1
-104535
-94742.4
-108017
-96941.6
-104305
-94766.3
-236121
-231039
-220403
-249522
-235951
-230400
-220148
-217950
-216785
-205661
-230714
-217803
-216548
-205491
-199387
-201795
-189864
-212834
-199281
-201653
-189775
-181356
-185820
-173614
-194456
-181293
-185740
-173562
-163517
-169553
-157152
-176660
-163499
-169505
-157122
-145840
-153043
-140706
-158809
-145885
-153035
-140719
-128448
-136624
-124227
-141293
-128452
-136620
-124221
-111299
-120094
-107149
-123876
-111298
-120085
-107147
-215403
-207858
-202315
-223827
-215110
-208042
-201661
-201906
-199588
-191211
-211970
-201725
-199246
-191015
-186873
-188138
-178262
-198105
-186777
-187967
-178109
-171199
-174805
-164126
-182917
-171156
-174621
-164014
-155158
-160480
-149133
-167218
-155114
-160397
-148928
-139077
-145399
-134112
-151116
-139074
-145321
-134047
-122904
-130317
-118727
-135049
-122879
-130252
-118661
-106352
-114816
-102769
-118786
-106383
-114748
-102700
-198597
-190940
-187432
-203038
-198029
-190997
-187589
-187945
-185847
-178953
-195516
-187755
-185844
-178790
-175592
-176484
-168033
-184860
-175459
-176307
-167861
-161853
-165003
-155390
-172073
-161630
-164834
-155231
-147208
-152079
-141765
-157999
-147028
-151941
-141685
-132497
-138264
-127633
-143455
-132425
-138195
-127573
-117325
-124024
-113004
-128686
-117251
-123975
-113012
-101606
-109313
-98434.6
-113383
-101584
-109331
-98360.3
-184272
-180153
-176864
-187081
-184353
-180081
-176793
-176209
-175598
-169799
-182772
-176063
-175611
-169633
-165714
-167216
-159369
-173699
-165534
-167025
-159291
-153414
-156528
-148055
-162625
-153278
-156431
-147952
-140018
-144965
-135407
-150068
-139910
-144846
-135307
-125983
-131893
-121775
-136471
-125958
-131803
-121796
-111594
-118148
-107918
-122418
-111597
-118186
-107929
-96892.1
-104281
-94741.7
-108003
-96844.4
-104301
-94457.7
-235835
-230285
-220041
-249239
-235516
-229769
-219723
-217757
-216453
-205423
-230331
-217516
-216164
-205206
-199311
-201595
-189730
-212635
-199184
-201410
-189591
-181304
-185702
-173538
-194370
-181244
-185582
-173442
-163505
-169489
-157113
-176582
-163505
-169419
-157078
-145907
-153032
-140717
-158817
-145952
-153008
-140647
-128467
-136617
-124218
-141362
-128527
-136584
-124207
-111266
-120082
-107073
-123943
-111327
-120074
-107153
-214987
-208237
-201572
-222930
-214613
-208240
-201303
-201651
-199140
-190935
-211524
-201413
-198817
-190681
-186726
-187893
-178001
-197834
-186560
-187663
-177762
-176078
-178982
-179994
-182823
-176185
-178937
-179894
-160902
-163177
-164849
-167203
-160931
-163158
-164817
-139040
-145337
-134021
-151059
-138955
-145260
-133951
-122867
-130227
-118640
-134964
-122827
-130159
-118588
-106264
-114730
-102605
-118745
-106325
-114684
-102643
-197896
-191175
-187614
-203427
-197686
-191255
-187634
-187679
-185798
-178746
-195112
-187446
-185634
-178660
-175338
-176257
-167809
-184578
-175161
-176152
-167693
-166013
-168648
-169487
-171403
-166175
-168268
-169311
-152114
-154433
-155862
-157612
-152304
-153992
-155697
-132400
-138176
-127554
-143431
-132338
-138135
-127513
-117228
-123960
-113008
-128602
-117189
-123929
-112997
-101493
-109328
-98264.6
-113332
-101522
-109320
-98284.3
-184377
-180319
-176861
-187278
-184414
-180341
-177003
-176029
-175686
-169591
-182733
-175971
-175815
-169573
-165483
-167005
-159261
-173573
-165375
-166999
-159177
-153235
-156391
-147897
-162474
-153130
-156288
-147708
-139880
-144790
-135263
-149926
-139819
-144628
-135135
-125949
-131765
-121783
-136417
-125920
-131654
-121699
-111598
-118188
-107949
-122398
-111597
-118148
-107954
-96764.6
-104323
-94389.8
-107997
-96839.9
-104335
-94395.1
-235457
-229774
-219627
-248788
-235158
-229091
-219391
-217494
-216073
-205134
-229941
-217246
-215824
-204929
-199220
-201349
-189546
-212422
-199156
-201176
-189415
-181257
-185543
-173397
-194269
-181205
-185420
-173196
-163523
-169368
-157056
-176516
-163546
-169132
-156800
-145980
-152978
-140624
-158867
-146032
-152749
-140539
-128566
-136571
-124205
-141487
-128714
-136516
-124198
-111289
-120074
-107081
-124117
-111442
-120081
-107286
-214496
-208362
-201281
-222453
-214158
-208147
-201355
-201333
-198708
-190597
-211124
-201099
-198642
-190366
-186506
-187589
-177720
-197547
-186317
-187358
-177580
-170955
-174208
-163727
-182475
-170652
-174111
-163512
-155005
-160190
-148860
-166723
-154759
-159929
-148817
-138919
-145223
-133924
-150750
-138789
-145101
-133813
-122812
-130131
-118572
-134829
-122758
-130045
-118528
-106202
-114671
-102527
-118706
-106345
-114634
-102699
-197659
-191387
-187627
-203350
-197706
-191278
-187574
-187372
-185622
-178649
-195103
-187158
-185618
-178691
-175130
-176134
-167671
-184330
-174963
-176131
-167644
-161409
-164641
-155053
-171629
-161333
-164598
-155031
-147067
-151783
-141595
-157799
-146979
-151774
-141599
-132320
-138131
-127507
-143337
-132240
-138135
-127516
-117184
-123927
-112997
-128534
-117178
-123954
-113023
-101391
-109321
-98126.3
-113325
-101535
-109344
-98304.2
-184418
-180587
-177097
-187302
-184402
-180416
-177255
-175968
-175845
-169592
-182688
-176043
-175992
-169882
-165353
-167018
-159138
-173610
-165300
-167415
-159228
-153104
-156237
-147614
-162417
-153056
-156251
-147648
-139810
-144554
-135064
-149874
-139809
-144459
-134899
-125913
-131592
-121634
-136412
-125910
-131454
-121650
-111597
-118111
-107926
-122411
-111613
-118068
-107936
-96692.6
-104317
-94287.4
-108006
-96901.5
-104274
-94481.3
-235173
-229224
-219281
-248435
-234900
-228871
-219180
-217271
-215736
-204862
-229686
-217048
-215631
-204805
-199222
-201121
-189375
-212232
-199088
-201040
-189307
-181229
-185379
-173110
-194091
-181191
-185290
-173009
-163605
-169039
-156728
-176395
-163490
-168924
-156682
-146094
-152692
-140496
-158655
-146078
-152655
-140508
-128798
-136484
-124198
-141357
-128723
-136479
-124210
-111367
-120085
-107189
-123931
-111514
-120089
-107492
-214112
-208245
-201426
-222404
-214200
-207533
-201464
-201027
-198707
-190314
-211029
-200961
-198844
-190380
-186244
-187298
-177501
-197396
-186173
-187317
-177484
-170534
-174069
-163484
-182310
-170481
-174046
-163377
-154630
-159889
-148784
-166528
-154577
-159787
-148722
-138755
-145060
-133786
-150625
-138765
-145015
-133850
-122736
-130028
-118521
-134802
-122749
-130089
-118526
-106178
-114626
-102521
-118703
-106477
-114621
-102813
-197723
-191408
-187544
-202782
-197600
-190900
-187411
-187186
-185597
-178707
-195195
-187258
-185494
-178684
-174915
-176148
-167655
-184314
-174891
-176104
-167543
-161314
-164578
-155022
-171579
-161247
-164503
-154931
-146961
-151767
-141589
-157726
-146914
-151667
-141517
-132217
-138126
-127539
-143278
-132279
-138076
-127606
-117183
-123986
-113040
-128575
-117174
-124042
-113051
-101343
-109359
-98081.1
-113312
-101649
-109354
-98386.4
-184390
-180603
-177302
-187093
-184330
-180013
-177381
-176078
-175989
-169975
-182635
-176112
-175767
-169913
-165263
-167523
-159328
-173618
-165235
-167595
-159568
-153044
-156279
-147711
-162321
-152961
-156526
-147801
-139816
-144423
-134868
-149779
-139767
-144644
-135201
-125925
-131400
-121717
-136387
-125999
-131646
-121909
-111625
-118052
-107977
-122469
-111631
-118288
-108241
-96700.4
-104251
-94330.8
-108008
-97018.6
-104530
-94705.1
-172448
-175118
-168658
-171122
-172507
-175089
-168618
-173641
-177350
-170634
-173875
-173863
-177162
-169440
-170239
-166427
-167777
-164193
-170250
-166447
-168241
-176010
-182773
-178840
-179810
-178889
-179831
-175995
-172382
-171085
-174985
-168511
-175044
-168567
-172327
-173547
-173634
-177118
-170260
-177079
-169287
-173570
-170130
-164227
-166209
-167460
-166344
-168185
-169996
-157038
-159160
-153070
-155074
-157050
-159137
-153049
-158842
-162682
-156743
-160697
-158818
-162709
-157016
-154846
-150966
-153255
-148926
-154844
-150865
-154247
-160856
-167176
-163072
-164673
-163124
-164760
-160787
-157001
-155055
-159075
-152985
-159109
-153023
-156937
-158778
-160718
-162478
-156522
-162632
-157098
-158641
-154804
-148960
-150857
-153107
-150834
-154169
-154693
-162653
-165253
-159332
-161300
-162808
-164915
-159182
-163830
-167099
-161637
-164733
-163906
-167013
-161586
-160634
-157339
-158451
-155133
-160676
-157313
-158400
-165921
-171233
-168349
-169236
-168000
-169203
-165975
-162602
-161206
-165088
-159187
-164796
-159153
-162627
-163782
-164693
-166956
-161522
-166965
-161547
-163765
-160596
-155096
-157220
-158338
-157281
-158363
-160544
-148478
-150841
-145167
-147375
-148718
-150526
-145018
-150487
-153957
-148518
-151850
-150500
-153929
-148475
-147009
-143474
-145125
-141626
-147014
-143464
-145086
-152128
-157599
-154372
-155738
-154044
-155685
-152205
-148476
-147473
-150770
-145137
-150733
-145037
-148628
-150482
-151818
-153854
-148432
-153909
-148448
-150430
-147024
-141610
-143442
-145052
-143472
-145065
-146966
-255403
-256025
-246109
-267320
-255332
-256318
-246258
-234154
-235476
-225712
-243033
-234177
-235624
-225817
-212594
-215903
-206269
-222889
-212580
-215952
-206314
-192502
-196252
-187244
-201628
-192497
-196298
-187302
-173003
-177890
-168879
-182535
-173003
-177927
-168915
-154140
-159429
-150428
-163031
-154131
-159436
-150453
-135989
-141454
-132719
-144539
-135861
-141465
-132722
-117714
-123490
-114731
-125873
-117610
-123518
-114741
-253109
-240856
-239771
-254442
-253242
-240680
-239842
-239189
-244928
-242283
-249424
-244952
-242596
-239113
-222206
-227019
-226095
-231007
-227093
-226153
-222205
-204955
-208607
-209126
-212910
-208646
-209144
-204936
-187360
-190117
-191562
-194393
-190122
-191559
-187360
-170074
-172305
-174227
-176698
-172318
-174235
-170063
-152682
-154559
-156890
-158809
-154555
-156886
-152688
-135518
-137032
-139661
-141215
-137029
-139659
-135517
-118369
-119652
-122571
-123830
-119649
-122565
-118365
-96289.5
-101597
-93276.9
-103695
-96315.8
-101604
-93246.3
-223833
-209377
-212914
-221554
-223825
-209426
-213012
-216617
-221398
-217767
-223958
-221449
-217945
-216546
-204799
-208939
-207870
-212311
-208993
-207877
-204758
-191257
-194531
-194759
-198297
-194559
-194795
-191228
-176414
-179063
-180200
-183011
-179077
-180214
-176398
-161126
-163318
-164992
-167305
-163326
-165000
-161139
-145277
-147109
-149224
-151153
-147105
-149220
-145283
-129510
-131033
-133480
-135063
-131032
-133481
-129512
-113441
-114688
-117506
-118819
-114697
-117507
-113440
-91581.3
-97738.6
-89276.9
-99655.1
-91589.7
-97693.7
-89251.8
-202238
-190842
-194301
-198075
-202140
-191150
-194164
-197573
-201674
-198005
-202483
-201676
-198167
-197570
-190224
-193562
-193062
-196141
-193540
-193069
-190273
-179224
-182037
-182169
-185094
-182042
-182160
-179228
-166514
-168914
-169809
-172308
-168927
-169811
-166505
-152742
-154858
-156273
-158397
-154808
-156253
-152779
-138212
-139947
-141843
-143630
-139939
-141841
-138223
-123541
-125058