/*--------------------------------*- C++ -*----------------------------------*\
  =========                 |
  \\      /  F ield         | OpenFOAM: The Open Source CFD Toolbox
   \\    /   O peration     | Website:  https://openfoam.org
    \\  /    A nd           | Version:  10
     \\/     M anipulation  |
\*---------------------------------------------------------------------------*/
FoamFile
{
    format      ascii;
    class       surfaceScalarField;
    location    "1.9";
    object      phi;
}
// * * * * * * * * * * * * * * * * * * * * * * * * * * * * * * * * * * * * * //

dimensions      [0 3 -1 0 0 0 0];

internalField   nonuniform List<scalar> 
38556
(
940.337
-125.886
-3550.62
1548.22
53.0005
-660.885
1537.29
-42.684
53.6149
1493.22
-31.0747
75.1473
1332.72
-36.5135
197.009
1283.91
-25.7999
74.6121
1268.22
-22.6508
38.3438
1272.3
17.3345
-21.42
1259.1
50.5484
-37.3435
1242.64
67.9538
-51.4908
1217.33
66.9925
-41.6833
1205.63
50.7054
-39.01
1201.57
30.7889
-26.731
1203.1
2.56361
-4.0892
1209.85
-16.4687
9.71621
1213.89
-20.1861
16.1462
1222.12
-18.0652
9.83211
1233.73
-10.8489
-0.756409
1253.14
8.80796
-28.2159
35.6115
-51.7412
1867.22
424.823
-562.977
1102.9
-192.885
1010.2
1170.75
-280.654
170.116
1075.42
-235.039
299.297
1004.88
-235.495
269.517
970.408
-178.965
187.64
972.561
-193.021
168.218
989.971
-113.531
113.455
1012.52
-56.0448
84.0442
1031.34
-1.50254
50.6362
1048.29
17.7542
32.293
1064.99
18.8198
15.1795
1079.46
7.85836
8.46573
1088.36
-3.47335
-2.86332
1091.63
-9.04838
-10.698
1091.83
-4.77852
-15.601
1090.24
4.23096
-20.7071
1089.45
19.3464
-29.4093
1107.3
50.575
-59.6175
78.9918
-63.2346
2167.19
173.147
1632.24
2032.26
-303.481
245.528
1722.02
-210.765
240.348
1663.37
-206.26
29.8713
1479.04
-162.773
111.601
1351.81
-135.582
83.8507
1192.18
-155.596
122.209
1100.6
-97.2374
75.2816
1047.23
-59.2234
56.5503
1025.23
-13.5838
34.086
1025.24
-2.99173
20.7341
1033.26
1.80643
8.99225
1044.04
-8.93671
6.01762
1056.01
-12.1868
-3.26145
1065.17
-10.007
-8.20291
1072.36
1.40798
-13.3707
1076.65
17.4178
-17.4849
1082.64
36.7464
-23.3867
1111.75
58.6646
-37.1952
72.4388
-20.1819
923.396
1442.91
-807.422
877.699
-2.77506
-255.009
1073.27
-203.383
-202.957
1281.57
-282.602
-131.957
1342.45
-227.105
3.45886
1319.3
-159.073
46.6347
1159.42
-116.925
121.21
1022.6
-43.4829
83.0719
941.956
-41.0785
62.4943
909.512
-9.76201
28.6226
913.936
-27.6773
20.2619
927.524
-25.6486
13.8671
948.116
-44.9808
15.4516
972.772
-42.7863
5.94406
996.197
-30.041
-3.39124
1017.26
1.62222
-21.2737
1035.99
26.5955
-27.9065
1057.03
45.0879
-29.3871
1075.29
50.5499
-10.144
43.2393
21.8833
271.674
206.353
-617.868
202.385
-552.646
619.161
1013.77
-794.252
-220.513
1399.41
-679.237
10.993
1584.12
-557.361
145.549
1582.19
-290.024
132.881
1345.7
-56.7054
176.269
1148.49
62.9386
90.7799
1056.57
20.5766
30.2655
1014.45
22.8798
9.47716
992.551
-18.8261
13.0521
972.773
-26.1305
20.2606
949.438
-54.2188
32.5728
929.696
-52.5085
29.4637
910.049
-30.3917
19.9981
897.568
2.31388
11.7887
892.577
21.3797
10.2071
886.551
28.1834
22.9308
867.23
26.6905
43.1804
15.3266
41.9845
487.3
-2147.55
-2172.34
992.514
-1527.46
469.604
1198.96
-1363.59
362.886
1419.41
-1071.51
171.831
1443.08
-813.906
232.869
1425.33
-463.043
190.775
1338.01
-130.095
160.709
1230.15
104.084
66.7099
1147.14
57.2274
46.3596
1085.84
74.9936
9.18932
1053.43
-14.0794
27.6578
984.761
-9.89694
52.4382
877.987
-33.8581
86.4132
778.966
-18.5226
65.0353
727.83
-13.3312
34.0755
705.823
-3.14737
27.4676
696.743
-0.565112
31.0254
696.697
-6.38183
34.6115
710.197
-24.6398
37.8299
-27.2693
28.1681
607.119
-775
-2356.65
961.674
-1354.69
-527.325
1095.67
-1603.65
106.068
1286.72
-1221.25
-41.3081
1411.57
-930.062
-8.69351
1505.54
-507.615
-49.4006
1524.7
-70.4285
86.5627
-65.7061
-50.6432
-49.0368
1449.44
-4.7004
130.856
18.7711
7.34843
27.0708
1295.51
23.3505
116.79
22.413
27.3994
21.2094
1110.16
35.1303
114.846
39.3007
34.2247
36.8419
933.673
21.9917
94.9743
13.5927
20.5596
11.285
785.741
10.5255
92.7176
12.0434
11.0105
11.7379
681.093
7.15195
51.6521
1.34813
7.7377
2.90019
629.171
2.02379
27.5395
-2.93504
4.47048
2.30118
618.037
-7.39744
5.19953
621.039
-25.4469
19.2973
637.195
-44.549
27.8281
658.593
-58.37
30.5899
692.808
-88.6985
29.8436
-79.5753
25.1146
3142.93
-1961.77
-1926.22
2790.62
-1423.82
421.442
1795.82
-1421.67
812.812
1411.04
-1145.59
309.122
1293.33
-852.468
40.1213
328.987
-108.084
-168.63
321.891
346.038
334.37
-69.5912
-126.315
-72.9533
338.719
-70.4529
-9.70825
-341.728
357.695
-23.8314
3.16413
-355.006
338.174
30.9008
9.28108
-310.177
289.108
47.8219
8.3777
-273.672
255.512
39.3572
0.793806
-233.192
211.005
19.3043
13.4078
-192.129
176.738
17.5392
5.00386
-167.112
166.323
6.50661
-3.69433
720.513
6.032
-45.7258
-166.575
-177.878
-167.917
-178.902
-2.51268
7.31059
-1.74247
750.446
-13.6281
-41.7522
769.406
-48.8429
-14.6654
777.341
-78.665
12.3601
778.367
-124.425
34.7004
-116.154
32.1251
1514.86
-1178.95
-1483.26
1182.72
-1416.45
324.776
1084.54
-1529.12
205.631
1069.78
-1148.2
17.365
235.755
-863.846
124.406
220.796
254.692
245.509
255.963
-117.164
-11.1277
15.5457
-71.8005
74.4881
-15.1834
-3.04988
-81.4659
6.84897
84.3713
-6.96123
-2.79314
-89.7312
-9.12724
90.3759
8.89885
-0.416331
-85.897
-15.9099
83.8995
17.5511
0.356191
-79.0683
-13.4056
77.864
15.7072
-1.09734
-73.9192
-7.33372
72.0578
7.59231
1.60286
-62.7232
-6.90925
59.1893
8.07445
2.36868
-51.7476
-4.69736
50.3018
6.08093
0.0622304
-49.8346
209.702
12.762
-5.35867
-52.4937
-52.3332
-56.4121
886.363
52.1641
-42.6682
-209.53
-235.161
-215.621
-249.176
869.658
33.1453
-65.283
844.696
-16.5512
-37.1519
826.447
-114.449
8.273
-121.028
11.78
3322.53
-1300.13
-2694.7
2366.58
-984.779
524.274
1761.92
-919.207
-5.24765
1453.44
-821.778
-17.9437
278.349
-705.839
145.507
269.83
300.618
301.125
128.049
263.111
-123.196
10.385
18.9883
-68.8641
70.098
-17.8256
-2.39649
5.98799
-76.7325
79.6239
-4.64346
-4.23596
-11.1788
-86.6784
87.7916
12.5575
-2.49192
-22.3359
-89.2825
89.3079
23.4011
-1.09061
-22.9024
-89.0182
87.9272
24.4171
-0.423636
-8.86259
-79.0255
76.7935
9.82946
1.26511
-10.3868
-72.3143
71.8574
10.6779
0.165868
-7.37694
-73.0915
74.0066
7.43879
-0.976907
-76.9053
-16.789
315.328
10.0962
4.72465
-80.3573
-76.3419
-79.7558
1264.81
39.974
58.6718
-316.042
-344.736
-312.714
-337.805
1159.2
90.6756
48.0806
1036.36
80.8699
25.4226
931.388
-33.6437
24.1668
-79.2092
7.88664
3883.78
-2157.77
-2415.41
2579.61
-743.055
1062.45
1900.71
-381.155
140.85
1603.65
-451.228
-73.4973
280.266
-437.305
126.437
276.217
327.936
324.261
121.18
250.977
-115.741
23.8496
20.9081
-62.4356
63.5453
-21.7464
-0.271327
2.55553
-73.5795
76.8072
-4.71565
-1.06757
-13.4436
-82.6203
84.5653
12.7395
-1.2408
-24.8104
-90.7297
91.9494
24.3588
-0.768078
-25.4281
-96.8481
97.091
24.2504
0.934801
-11.5446
-85.3721
82.1354
11.6234
3.15792
-8.07622
-81.0958
82.0362
5.64429
1.49152
-3.13484
-85.286
86.172
-0.177204
2.42595
-86.7309
4.43163
345.178
-15.9372
12.4462
-85.3089
-87.5755
-86.5029
1394.13
-31.69
27.1471
-346.784
-321.225
-349.825
-331.774
1358.26
70.8095
55.727
1235.47
134.158
69.5074
1053.81
93.7459
54.2735
15.5501
6.9463
715.557
-782.941
-1231.43
1072.49
-503.408
-596.577
1408.64
-378.077
-339.231
1497.84
-324.827
-215.603
310.739
-210.759
-13.1116
301.325
341.505
330.839
112.582
286.015
-101.584
13.7264
27.4451
-70.8367
69.6971
-26.528
0.222526
16.5678
-69.2922
68.3343
-16.7444
1.13447
-5.45732
-72.422
75.459
1.13893
1.28135
-15.2115
-82.5552
83.6426
9.53848
4.58554
-13.5077
-81.379
79.9507
8.58256
6.35338
-8.74307
-78.3971
78.9708
6.85993
1.30945
-0.721629
-79.7982
79.2233
0.530883
0.76565
3.00188
-76.447
75.2133
-2.67145
0.903238
-72.1477
19.6253
286.746
-16.5101
-3.19151
-69.8777
-73.6659
-70.9779
1201.31
-33.8817
-63.015
-288.769
-274.443
-294.423
-278.472
1218.58
75.1667
-21.623
1187.39
157.208
8.13613
1109.57
161.725
9.84424
78.6396
5.1714
380.998
-485.159
-327.22
638.147
-290.583
-469.974
1072.4
-471.333
-341.001
1088.34
-283.147
-57.6177
1075.27
-199.577
1.89184
244.001
-282.935
-13.9961
92.6524
122.509
81.297
111.453
242.901
239.71
237.677
19.5006
228.127
-65.0592
1.86587
16.8061
23.3391
19.4209
9.8601
-204.426
196.36
-32.2697
4.39463
8.30119
9.87804
7.90189
5.19783
-212.149
226.469
-31.9983
1.0288
4.65234
3.79079
3.0088
-2.04943
-230.617
233.872
5.46928
2.2199
-2.20945
-3.17404
-3.512
-3.58842
-243.283
249.834
9.83529
1.05468
-3.98933
-4.73008
-5.13303
-3.6832
-251.11
250.562
16.6491
0.283664
-3.58143
-4.66484
-4.45495
-1.48774
-252.488
253.836
7.27597
-2.17978
-0.995292
-2.20409
-1.75641
1.4727
-252.175
249.427
1.57669
-3.64268
1.6667
0.872679
0.801989
994.222
-35.4052
-12.7559
11.7544
14.2759
7.49652
6.89551
-248.5
-248.048
-246.193
-243.742
1019.83
-31.5267
-27.9588
1062.67
35.9852
-3.66418
1105.56
77.7548
36.5632
1138.71
67.3804
61.1938
-0.226043
67.6907
2092.21
-1394.88
-1067.15
2469.76
-675.116
6.98405
1962.88
-476.618
512.164
1631.44
-252.055
300.347
1365.04
-133.434
200.26
1193.98
-189.803
77.9281
1062.49
-10.2428
35.1162
42.5968
15.9719
39.2419
8.81009
981.625
-106.529
23.2819
33.4567
53.9793
28.8651
47.8061
938.455
-19.7493
8.68023
30.5471
5.91633
22.0686
-4.29256
947.589
-30.9016
14.2633
0.370899
9.15475
-5.77687
3.75486
971.185
9.2764
13.7384
-5.80584
-13.9826
-9.88178
-16.9403
1003.33
-9.99061
12.6703
-12.0436
-3.91142
-13.4257
-5.44238
1024.63
-15.7501
21.4579
-6.12625
-5.30643
-7.91481
-7.65875
1034.32
-42.7644
28.434
0.44859
4.90942
-2.42982
1.7073
1026.15
-65.4236
38.1922
1016.13
-81.8611
60.3483
1026.44
-62.1666
87.8427
1048.27
-54.3993
110.326
1078.03
-62.4249
100.043
-86.3847
64.9796
2347.68
-1366.69
-465.318
2269.7
-747.785
150.652
1522.58
-211.464
481.967
1086.56
-102.339
286.298
858.163
-118.61
213.575
803.861
-178.966
43.4648
887.27
-117.199
23.5468
893.696
-131.842
18.8873
934.399
-79.3601
18.9076
961.005
-72.9578
15.4503
988.843
-36.2458
17.6846
1002.42
-38.2041
14.6409
1001.58
-35.4904
20.5795
984.543
-53.1552
27.4238
952.012
-69.689
36.7964
921.01
-93.551
42.6925
906.218
-86.0261
38.6511
906.108
-83.5706
29.281
928.7
-76.1888
-8.8278
-55.2094
-50.9479
4876.72
515.142
-806.331
3131.9
350.952
646.084
1810.66
370.929
738.851
1365.45
115.017
227.849
1167.29
-23.8202
103.368
1077.46
-106.527
17.3915
1047.73
-97.6953
10.2299
1035.31
-110.605
-8.81161
1030.59
-70.0228
-4.61615
1030.53
-63.6882
-9.2099
1027.62
-29.3931
-3.95217
1019.09
-21.922
-7.74353
997.253
-7.34747
-6.31007
965.78
-8.6529
-13.0287
919.036
-5.44266
-17.5025
876.819
-13.5316
-37.8023
856.555
-10.7895
-54.9725
849.739
-5.96057
-70.7944
874.313
-1.86581
-98.8963
18.2426
-100.505
1562.88
2635.47
-564.188
1010.67
1137.47
-234.31
1135.37
740.215
-493.986
1024.07
313.952
-87.6373
982.499
112.667
-94.911
950.239
-11.8535
-62.413
982.495
-74.0408
-55.9112
994.549
-85.7853
-36.8732
1006.6
-75.5293
-6.54632
1000.32
-63.4001
5.99782
987.364
-24.3231
7.88156
971.91
1.32218
-7.79014
955.988
29.8724
-21.298
940.019
39.2318
-31.9159
924.246
47.9518
-37.6218
909.023
47.6804
-45.989
898.533
46.5498
-46.8493
893.876
48.966
-50.2689
907.437
47.8931
-63.3202
57.096
-54.2435
476.585
1216.32
2632.89
748.447
579.661
285.951
1251.96
508.17
-271.468
1287.27
419.449
-140.81
1324.25
206.538
-130.849
1332.22
98.3613
-118.179
1341.79
4.14726
-87.7668
1365.23
-30.9707
-78.2455
1367.86
-36.2669
-41.8975
1355.6
-27.3459
-23.7913
1289.12
15.8907
26.2638
1207.58
45.3443
37.5142
1138.93
68.6465
29.8758
1103.22
67.0272
7.91547
1096.87
61.1752
-6.87407
1102.66
50.2242
-8.32859
1117.95
35.9114
-4.65287
1133.5
30.4499
2.96844
1133.94
20.6645
26.7851
28.6854
33.3534
1310.53
-865.372
788.237
1530.54
88.0815
271.566
1377.56
394.512
266.635
1343
367.302
86.7146
1249.01
286.36
14.1603
1195.81
204.619
-53.0505
1147.22
126.212
-73.4801
1121.7
75.654
-81.099
1106.77
38.882
-60.2186
1104.27
31.3995
-56.2461
1105.29
37.451
-22.5881
1106.27
51.0289
-6.66063
1106.46
56.1579
12.3031
1108.8
50.8111
13.8711
1108.44
40.5667
20.9657
1109.28
25.3378
24.0526
1114.63
-4.29203
34.8503
1120.34
-21.2787
46.0243
1113.71
-26.3396
53.633
-3.62129
43.897
1262.31
-2725.83
1312.55
37.8431
1307.17
399.891
1333.57
340.904
1344.29
275.634
1380.11
168.805
1396.57
109.75
1404.43
67.7914
1373.36
69.9484
1337.18
67.582
1295.95
78.6806
1276.05
70.9264
1267.64
64.5708
1266.5
51.9495
1264.83
42.2397
1257.86
32.3069
1222.19
31.3826
1145.28
55.6317
1030.82
88.1187
64.3187
598.113
461.497
-1420.25
697.936
27.4966
-788.204
941.538
-38.0021
-151.985
987.713
-39.678
68.65
1052.09
-86.1914
218.819
1120.28
-74.8763
81.3034
1192.28
-81.5471
47.8917
1249.41
-54.5108
-24.0408
1274.11
-25.1313
-36.9126
1275.2
0.887127
-53.4688
1251.65
17.9168
-36.0522
1226.22
19.7772
-33.3527
1200.23
12.032
-12.7775
1185.96
1.85478
8.32605
1184.81
-3.58662
14.4555
1186.83
-2.65805
16.7825
1189.15
2.76355
4.74957
1190.16
9.93342
-11.6983
1191.4
16.7191
-46.1731
14.4322
-69.5568
1417.69
501.598
491.505
1297.13
-384.706
1542.96
991.322
-144.27
582.193
887.747
-68.7683
431.963
861.47
-106.953
316.557
864.872
-92.548
201.909
895.531
-131.375
187.387
921.785
-85.9282
118.618
949.572
-56.0105
87.1367
969.335
-17.1176
48.8776
983.888
1.54075
34.116
994.161
8.13286
16.5509
1002.6
3.6843
8.3741
1005.74
3.22312
-7.37352
1004.52
3.82221
-16.8881
1002.73
8.84412
-25.3053
999.451
17.3955
-32.0636
995.517
26.1605
-41.7033
991.945
25.6584
-64.9839
12.974
-61.5668
1484.48
75.9784
-1433.38
1469.16
-404.494
280.64
1327.3
-165.826
403.762
1223.33
-97.2116
162.292
1097.37
-66.143
196.745
1047.22
-65.8901
107.342
987.931
-88.872
138.998
950.862
-56.3979
82.8199
928.093
-44.4163
67.7254
919.536
-12.6096
38.1353
922.77
-9.00745
28.0485
932.15
-5.76207
13.5067
944.47
-12.896
10.2785
955.379
-9.83695
-1.11027
961.934
-4.13545
-6.80047
966.542
6.33766
-15.4726
971.494
15.7999
-20.8409
980.055
21.7624
-27.5496
991.793
18.4582
-41.7329
6.06141
-21.9349
267.408
-56.7097
-3068.12
427.09
-273.112
-546.073
753.484
-262.904
-432.274
924.151
-250.298
-149.537
971.498
-169.483
59.4521
963.884
-108.251
96.61
907.074
-76.6573
165.804
852.616
-16.0597
97.1923
828.077
-28.6795
71.2959
819.052
-6.39126
31.4298
832.601
-29.829
27.5338
852.125
-29.7299
18.3108
876.806
-44.2079
22.0826
900.645
-37.3317
9.59967
919.509
-23.7505
-2.63959
930.102
-4.74503
-20.7843
935.756
11.3949
-29.1553
942.369
17.2414
-31.4797
942.139
15.7822
-7.23772
8.96779
22.6421
-1314.81
183.783
-1577.97
-99.6928
-601.639
-267.434
684.667
-740.133
-527.643
1016.56
-466.503
-104.692
1165.09
-290.243
117.778
1151.27
-88.0689
126.515
1045.68
-0.967613
206.175
957.293
53.631
109.474
900.165
1.90086
56.8129
876.232
4.72201
22.2967
869.327
-37.514
27.6418
868.034
-39.132
30.9553
869.169
-56.6972
43.9276
868.761
-43.4845
36.0243
862.004
-21.5151
24.5199
853.971
-0.452022
15.5284
844.6
11.3072
19.6656
833.575
13.6986
37.4989
818.918
10.8037
62.8158
3.43681
55.4673
-55.9627
-1595.46
1538.67
374.131
-1207.17
645.041
744.607
-1041
293.281
1023.89
-670.844
96.8908
1115.41
-345.606
196.709
1109.15
-51.7804
160.749
1054.65
39.5829
174.658
976.087
119.693
79.2117
919.019
43.0773
62.2511
874.996
41.7157
16.2187
859.552
-38.4173
44.0051
833.414
-26.4976
65.9416
794.184
-32.7942
101.74
745.311
-5.96282
76.3874
712.73
3.02714
42.1136
695.808
5.90423
38.0336
689.088
-3.16516
52.2174
692.546
-18.1653
63.0176
711.138
-37.5184
67.5603
-36.8082
51.2987
-209.332
-1278.75
-4924.29
124.916
-1113.59
-955.15
710.432
-1209.54
-310.911
937.717
-829.078
-110.358
1102.64
-495.001
-24.2241
1146.8
-100.357
-44.9859
1170
-1.81355
113.264
-6.68998
1.61477
-3.42365
1131.56
27.903
144.522
41.1067
32.289
43.1668
1032.62
33.8281
145.494
24.0531
33.4627
21.9728
918.237
31.2793
148.389
32.1802
28.8787
30.2133
802.737
16.9057
126.27
7.61105
15.0631
6.20732
712.554
9.81297
113.334
11.491
9.96316
11.8015
648.362
8.98494
56.1555
4.21866
9.33738
4.35326
615.899
7.02184
27.49
5.38306
7.4777
6.66657
609.358
11.1538
3.61434
616.423
-7.13317
25.2695
640.627
-36.3035
36.7625
669.215
-63.2488
47.0857
704.834
-98.2696
54.9753
-88.33
50.0586
305.073
-1233.64
-2384.48
612.416
-1348.93
349.439
861.659
-1061.07
415.096
977.36
-804.183
168.527
1081.39
-526.857
-32.0562
287.83
-63.4776
-146.933
279.266
271.727
263.005
-21.1819
-51.6214
-6.2075
23.2427
293.436
-5.07927
-25.5821
-5.40143
-285.924
288.941
24.4293
5.85812
-13.8595
-284.05
270.654
45.2643
15.8199
-17.0433
-250.999
239.078
40.1373
20.1062
-4.94497
-229.122
214.34
28.1582
8.47476
-22.6406
-198.498
188.029
17.1044
25.8187
-8.93075
-178.659
169.999
17.027
9.54857
7.14775
-164.196
164.029
9.284
-9.24242
681.16
8.09194
-55.4007
-163.858
-175.602
-161.63
-172.013
-0.910086
6.9938
-1.40443
697.211
-6.73975
-58.1959
723.741
-45.7648
-31.7347
751.237
-77.6255
-0.759531
770.704
-122.042
39.0056
-115.413
46.1884
-338.874
-2892.03
-2602.92
-46.0529
-1585.42
268.439
508.217
-1257.68
-152.023
601.93
-841.176
-39.3552
202.89
-605.436
42.067
189.153
193.039
177.767
11.2363
241.206
-97.1751
-15.8547
8.60004
4.52071
-69.2426
71.3528
-6.92658
-8.30445
8.82447
-72.0985
-4.96277
72.4398
4.22359
-8.42665
0.638592
-71.5786
-13.4216
71.0562
13.6949
-0.389535
-0.758439
-67.836
-14.0197
66.6747
15.5263
0.413116
1.74383
-63.6323
-9.3889
62.4304
10.5966
-1.74973
-3.78598
-59.7266
-6.28064
59.0311
6.6225
4.1396
-4.99926
-56.4857
-6.7813
55.5902
7.76145
4.91462
0.208109
-53.3616
-5.04302
52.7296
6.08762
-0.62073
-52.6076
9.10451
215.615
12.8984
-11.041
-57.0959
-52.2601
-56.5214
852.801
45.7611
-44.9458
-212.108
-245.975
-206.68
-238.262
812.439
17.166
-87.8518
798.308
-31.502
-69.1439
808.346
-111.113
-12.6938
-115.268
4.68663
1432.82
-1886.45
-2988.33
1208.7
-1067.91
230.883
1028.16
-844.493
-237.891
893.396
-649.839
-74.52
230.702
-530.457
73.7127
227.972
217.906
213.632
-17.7447
114.723
236.865
-111.065
7.9241
2.7249
13.599
-63.1138
64.6826
-14.4338
-3.45886
8.48033
-3.44565
-68.7505
69.8824
2.47485
-8.64146
5.33297
-14.0266
-71.9618
72.3353
13.7828
-5.46279
2.99445
-17.6598
-73.098
73.2019
17.9175
-3.35604
1.31696
-14.0247
-72.1726
71.1452
15.1576
-1.42248
-2.86708
-7.94601
-68.2039
67.4593
8.60884
2.94885
-0.213942
-8.25196
-66.9635
67.3165
8.0886
0.0243281
1.80658
-5.6681
-69.2477
69.9638
5.04184
-1.89638
-72.3681
-5.85344
-16.0581
297.224
11.7112
6.46878
-75.4236
-71.3744
-74.3265
1192.89
78.0007
54.8003
-299.004
-323.834
-288.592
-309.831
1117.22
101.309
39.6123
1026.03
80.3982
4.7142
950.111
-10.8819
-0.149788
-61.7795
-5.85985
1776.18
-1416.17
-2397.96
1621.82
-759.677
908.562
1237.59
-403.345
83.934
1029.92
-403.195
-112.469
237.276
-357.809
82.3024
231.26
219.473
213.398
-38.7817
111.49
242.968
-107.58
29.1791
-5.52446
20.75
-62.1301
63.0513
-21.9018
5.75506
0.0353338
1.14038
-67.2338
69.1054
-3.49721
0.449902
2.18194
-11.4026
-72.9664
74.1696
10.1435
-2.12601
1.42699
-16.72
-77.5867
78.5348
15.4655
-1.12065
-3.71091
-15.4861
-80.3182
80.6208
14.3467
4.54771
-7.27581
-10.8403
-80.0478
79.1961
11.4248
7.54302
-3.87145
-6.79423
-78.7715
79.3927
5.91253
4.13191
-4.65657
-2.90582
-81.8643
82.6394
2.12374
4.66359
-84.4564
-15.9071
-6.52443
340.015
4.59798
14.2961
-84.7659
-83.3394
-83.9155
1345.1
51.5281
31.7753
-341.054
-329.055
-329.847
-323.305
1318.45
124.336
59.3576
1259.47
155.151
53.7349
1133.17
119.977
49.7167
36.1443
7.50837
1166.71
-1642.85
-2632.87
1427.1
-667.211
-949.438
1279.08
-414.772
-179.785
1146.57
-349.256
-137.036
260.263
-228.516
15.381
251.328
241.987
235.211
-8.85261
94.4767
256.824
-82.2105
0.0254056
-2.77051
22.8546
-67.0494
67.4391
-22.5236
2.04977
-2.93676
10.1849
-65.8702
65.7903
-10.3132
3.14505
-3.69221
-5.07935
-68.6396
70.1284
3.2565
4.0263
-8.80271
-10.2268
-75.0673
76.5158
8.54687
9.03405
-11.8912
-11.2445
-79.7875
80.3544
10.3555
12.2134
-8.76583
-10.6305
-80.593
80.0191
9.76253
10.2076
-4.64917
-3.52645
-77.4612
76.6812
3.50635
5.44924
-2.68603
-0.632226
-74.9636
74.6166
0.721007
2.94431
-73.8939
5.42869
-2.07334
292.646
0.583273
-7.18418
-71.1502
-73.5222
-70.8345
1174.12
25.5843
-85.5403
-292.921
-274.654
-288.654
-269.426
1195.37
116.074
-34.6027
1185.85
165.812
6.99525
1124.72
161.838
29.1061
92.9548
8.82079
189.554
-981.413
-532.309
438.965
-495.003
-891.593
814.177
-522.472
-608.513
806.526
-337.734
-61.489
857.544
-250.501
-27.1417
199.671
-330.612
-10.9425
88.2353
117.309
88.6504
116.765
196.208
190.979
187.286
20.2448
-8.50248
189.555
-59.7666
6.20797
16.327
19.841
15.7642
5.97016
-8.05691
-171.857
172.905
-19.2945
6.11684
4.77169
5.26364
4.18037
0.0263224
-1.75461
-193.422
210.019
-13.7551
2.38696
-1.21799
-0.573188
-1.70891
-5.39733
-4.58211
-213.511
216.706
17.3324
6.42102
-5.65714
-5.53289
-5.77932
-6.45653
-3.19119
-226.188
232.956
18.0708
5.13522
-6.85527
-6.53803
-6.93262
-6.02938
-2.04858
-234.2
235.108
21.1114
3.68981
-5.74687
-6.07179
-5.81257
-3.30995
3.01585
-238.825
240.758
11.8172
-3.43817
-3.18613
-3.45652
-3.3747
-1.32809
6.27898
-239.749
239.669
7.58706
-8.21738
-1.09849
-1.65824
-1.48386
953.85
-2.85917
-16.8947
-0.144626
-0.780998
-5.04232
-4.71263
-239.316
-234.559
-234.132
-228.164
987.736
4.57085
-40.8312
1035.95
68.9323
-4.73588
1088.13
108.164
42.0325
1120.95
112.69
77.5154
73.5127
81.9357
1708.48
-165.09
-2437.79
1593.23
-448.395
75.6236
1325.29
-342.018
599.649
1213.2
-252.198
326.902
1090.04
-159.059
231.976
955.229
-208.049
90.1788
860.919
15.2517
42.8557
37.4821
1.68895
33.6829
-1.53499
802.764
-101.92
32.9162
28.4365
48.1402
26.9897
46.8748
786.935
8.34489
11.6228
16.3685
-10.594
12.448
-13.681
810.557
-22.9312
28.8687
-8.26378
1.15842
-9.10013
0.908534
842.265
24.3766
19.4292
-11.9818
-18.6506
-12.3117
-18.8312
877.649
-0.949773
19.0486
-14.1584
-6.33747
-14.0071
-6.30932
908.795
4.38394
26.8889
-9.73786
-10.2297
-10.0028
-10.9908
936.387
-21.1153
36.7291
-5.4716
-1.24315
-6.37326
-1.68303
950.622
-18.9905
40.0885
966.655
-21.5947
70.4809
1007.96
7.16725
108.299
1069.6
24.9063
131.944
1127.76
46.0157
108.557
35.6188
74.6104
660.354
608.5
-249.58
786.808
-154.094
-270.104
803.453
-46.2994
169.604
686.959
-112.817
263.412
724.016
-152.461
169.921
685.863
-179.926
53.4946
776.342
-77.9466
26.2653
767.654
-99.1688
24.8242
802.709
-35.8819
28.0789
819.908
-43.3865
18.7067
849.48
-14.6398
27.1289
866.729
-22.9022
19.3439
880.876
-17.8676
28.6838
884.857
-28.6648
30.9926
891.314
-26.7405
38.0899
898.684
-30.5406
44.2685
914.048
-13.917
44.3712
949.153
-9.78832
28.8702
990.106
7.81654
-11.5809
15.5422
-50.6664
430.826
-436.765
-28.4445
831.881
-30.0767
121.012
1098.76
168.429
257.247
1050.07
28.9679
134.753
966.766
-65.6979
99.9073
907.049
-122.759
19.9424
903.417
-90.3449
26.2591
889.54
-96.6927
2.5895
882.645
-42.2259
8.62326
873.796
-40.599
-3.14867
865.599
-13.1638
2.76879
855.467
-15.076
-5.43781
841.285
-3.87998
-6.11573
826.914
-9.251
-18.0713
815.983
-5.70137
-27.611
807.921
-9.50684
-50.7737
811.478
-5.06607
-67.3809
823.306
-10.6956
-81.7144
852.013
-14.2624
-105.525
-1.39373
-107.383
590.418
924.672
-1750.75
701.938
464.255
-840.161
914.972
474.611
-1013.2
867.963
191.516
-203.176
852.597
24.9382
-170.182
824.859
-76.036
-81.3977
850.492
-112.342
-59.5474
847.316
-100.308
-30.0806
857.623
-65.9917
6.91155
848.814
-38.0304
12.2383
839.842
-8.64506
12.3355
823.351
3.29954
-9.6752
808.508
13.77
-24.1048
793.84
13.4242
-39.9227
786.2
13.5627
-49.2456
782.829
10.4689
-62.5942
789.923
10.0197
-69.0292
804.166
7.59482
-82.8025
829.385
-3.93318
-98.8682
4.6263
-78.828
263.346
1087.89
4201.42
605.583
604.748
-196.779
1132.82
415.535
-739.627
1133.73
277.391
-227.594
1150.45
61.7188
-184.356
1119.06
-27.3097
-135.51
1092.74
-86.1751
-87.6119
1077.64
-86.1156
-77.3458
1059.2
-58.2007
-31.2423
1038.56
-25.1526
-16.0352
1010.44
13.7936
31.951
983.376
30.9323
36.9439
959.616
38.3564
29.0499
944.164
32.2682
4.52325
936.824
25.7949
-11.7663
935.641
19.4226
-16.0992
944.238
14.479
-17.7095
965.488
11.3368
-22.0235
993.635
-6.24049
0.946098
0.942996
21.6167
83.984
-142.132
1101.41
516.525
389.559
54.2135
1034.83
357.684
-193.816
1160.53
251.498
-13.092
1132.9
159.034
-55.5293
1080.9
83.8847
-112.248
1028.93
13.0252
-120.71
995.61
-17.3918
-116.498
976.101
-27.2644
-71.6461
968.115
-14.4209
-58.9923
971.603
4.6204
-16.9029
979.12
21.0746
-4.3196
988.026
26.265
15.4888
995.121
22.7357
16.3085
1000.2
15.0352
26.6492
1003.79
7.5921
32.289
1011.08
-6.62941
48.6719
1020.62
-16.7757
64.5945
1018.41
-27.4308
77.0329
-10.2628
63.5942
237.847
-1565.17
605.593
59.6562
1005.13
358.04
1197.32
400.209
1300.22
331.764
1350.23
202.681
1345.32
127.687
1323.67
72.0511
1277.33
89.0236
1242.89
87.6011
1217.31
108.883
1210.59
98.7145
1209.17
92.2631
1207.28
76.5762
1198.41
66.1375
1181.55
56.7624
1143.96
62.3454
1086.32
96.498
1004.5
142.499
105.848
1072.48
-112.707
-3609.22
958.051
50.1421
-723.916
841.788
7.05908
-42.7815
836.584
-31.6574
105.511
944.197
-112.599
223.806
1038
-95.8796
83.3839
1131.34
-103.489
58.042
1200.48
-77.3202
-15.8699
1236.85
-48.1639
-25.1138
1245.41
-22.6369
-39.3886
1225.15
1.5105
-17.3045
1194.56
9.76581
-12.5268
1160.86
11.2475
9.67033
1141.65
9.6058
17.9306
1135.16
9.07543
11.8714
1131.43
12.1607
8.34651
1126.02
14.8394
-4.67347
1113.07
18.1358
-16.8828
1086.67
8.76351
-28.5424
-16.3359
-37.8484
468.978
106.371
-425.221
748.357
82.4658
1231.26
644.406
124.948
568.255
644.638
77.2421
322.832
704.556
-65.7785
209.817
734.465
-64.5598
140.681
789.826
-104.934
133.471
823.708
-68.8209
76.2362
857.29
-51.4695
56.861
877.73
-19.8371
25.6377
895.451
-4.87311
22.7786
906.033
5.03038
10.7037
914.691
5.05493
5.90868
917.044
8.78584
-8.90584
915.151
10.5759
-16.4965
911.38
14.9636
-24.3369
904.547
18.1835
-28.5741
895.991
16.6282
-31.6402
883.087
-2.6242
-40.6917
-37.615
-33.1174
118.33
-226.487
-3119.62
436.263
-154.999
200.173
785.219
72.1701
107.583
868.266
70.1474
86.34
848.736
16.1408
134.354
833.536
-12.0659
70.0485
819.042
-64.0363
112.593
808.43
-39.7418
64.3528
808.093
-38.8674
55.4599
809.899
-11.2562
27.7485
821.288
-12.4625
24.2491
834.529
-6.35434
11.6507
849.295
-9.94591
10.5128
859.718
-3.71515
0.968714
864.821
3.16097
-4.48865
867.971
8.69838
-12.3578
870.458
10.3016
-15.4456
875.213
6.33892
-22.0154
870.33
-11.4003
-28.074
-33.57
-18.9691
489.225
-177.672
821.484
474.732
-349.823
-336.757
554.88
-150.971
-289.28
667.059
-103.364
-88.204
713.273
-47.5686
76.947
724.466
-10.4455
83.7971
727.451
-36.7328
135.515
713.473
1.32383
70.1051
720.036
-28.0041
53.8692
725.214
-8.54483
23.54
748.353
-33.2247
25.1571
772.721
-28.7794
16.3678
800.11
-35.1816
19.9299
822.216
-24.2168
7.99462
837.774
-15.0223
-0.0141681
844.202
-6.03368
-12.4802
844.269
-2.57117
-16.3497
838.951
-4.61249
-15.2097
822.095
-10.7981
9.01547
-16.4034
17.6065
-108.054
-386.63
674.957
142.609
-687.599
-180.321
477.835
-563.652
-450.188
660.658
-271.109
-119.77
773.318
-133.993
91.5425
785.618
13.9405
89.8287
785.233
9.15622
160.672
772.819
41.789
81.422
763.186
-10.7999
49.2422
760.792
-6.19918
22.3442
769.97
-43.3345
28.5738
782.542
-38.0134
27.617
796.084
-40.6966
35.9011
802.656
-25.0195
30.2543
800.237
-11.0424
22.9591
794.19
-2.80067
18.3431
782.971
0.444636
27.8682
771.92
-3.74363
47.6811
767.893
-8.18236
64.2276
-12.6349
50.4978
-457.821
-1365.49
-880.834
99.0569
-1210.89
611.459
524.489
-845.091
149.288
706.692
-424.896
68.4744
783.395
-153.025
139.038
791.726
60.0365
106.322
805.291
43.3433
126.906
767.925
99.5212
58.8461
749.606
16.6535
53.1167
726.847
15.4182
17.3596
723.658
-39.456
43.3159
719.102
-21.6758
54.1599
721.5
-20.0189
78.664
705.265
7.78518
59.8181
679.734
15.6729
40.929
663.276
13.2523
38.4388
660.205
3.13479
52.5982
669.895
-14.285
63.8686
697.5
-35.2751
67.0478
-33.623
50.1391
524.349
-1123.72
-4713.49
256.756
-961.406
-937.046
573.436
-910.264
-562.418
699.54
-579.063
-82.2941
818.243
-268.691
-27.2614
819.969
38.1256
-24.8013
853.687
10.9431
102.247
0.874299
10.1091
-1.28403
834.896
33.3858
115.069
42.3453
31.6601
40.3731
791.674
28.9297
121.946
16.3545
25.524
12.6162
741.054
22.9463
124.985
24.1688
20.0168
22.3107
688.927
13.4229
105.098
4.95245
11.7858
3.68181
649.805
10.2426
86.544
12.195
9.73789
12.061
618.946
9.8597
37.2767
5.14943
9.64437
5.06502
600.828
8.46001
18.2905
7.98159
8.86993
9.79118
592.497
23.4417
4.1767
596.36
14.9252
19.7336
619.731
-12.7948
29.3208
650.793
-40.6239
42.3625
692.585
-75.963
53.8716
-65.3665
50.8386
155.845
-1732.95
-4216.17
624.968
-944.713
-136.377
752.276
-799.355
176.878
809.028
-620.611
153.323
888.929
-361.916
-18.7327
226.21
-23.3367
-78.3764
219.393
208.185
201.661
17.105
-13.295
22.5751
20.7543
224.67
13.9457
-22.2171
-5.5116
-211.333
213.1
31.4298
5.70075
-16.4621
-212.224
204.896
39.2572
13.4621
-21.6653
-194.462
190.623
28.9773
19.4733
-11.3376
-185.709
176.228
21.9907
12.2504
-24.7504
-167.519
165.299
15.7423
21.4707
-7.0824
-162.9
159.888
16.183
3.77141
10.7482
-156.332
155.968
9.09318
-11.0168
620.409
6.91945
-38.3652
-154.048
-163.122
-149.99
-155.66
-1.71245
5.29656
-1.68581
627.34
-2.0598
-48.1424
651.664
-38.5551
-30.2986
685.189
-65.9175
-8.99033
719.712
-98.8943
27.4135
-83.2948
40.7386
-432.996
-2959.71
-730.411
41.7211
-1418.42
267.431
389.482
-1108.26
-190.875
448.324
-719.811
1.00289
167.819
-487.774
0.352536
153.122
154.798
140.159
19.7125
201.41
-56.9579
-19.6826
7.24554
-2.74581
-57.374
58.2852
1.62539
-7.03636
6.45727
-55.931
-7.26585
55.4927
6.80482
-5.558
0.0221473
-54.678
-11.3479
54.6262
11.5044
-0.126891
0.23387
-53.4304
-9.76699
52.8088
10.7152
-0.560551
0.824151
-51.1625
-6.77977
50.4779
7.19385
-0.553624
-4.24142
-49.2902
-5.59359
49.272
5.95736
3.8958
-3.37229
-49.6991
-5.80141
49.9052
6.29851
2.66915
1.94042
-49.6691
-4.16798
49.3269
4.88853
-2.31886
-48.8479
12.4391
196.929
10.2956
-12.1044
-52.5697
-47.8392
-51.3826
745.168
32.5308
-27.6493
-190.847
-220.211
-180.295
-205.703
706.984
-8.50898
-79.7139
698.2
-58.1299
-68.1473
720.057
-110.61
-22.8352
-96.3107
0.950968
2059.76
-1857.74
-1540.25
1397.11
-898.325
373.44
952.873
-705.844
-196.077
738.808
-540.661
-39.6043
191.76
-428.279
21.4093
186.397
179.42
174.039
-5.78192
82.5619
197.38
-83.7999
1.40079
3.26208
6.41784
-53.9024
55.7136
-8.11031
-3.38088
7.26667
-5.15719
-58.663
59.0608
3.9721
-6.47939
4.91445
-10.8204
-59.6735
59.8899
10.2722
-4.58272
3.53459
-11.6531
-60.6217
60.6243
11.6663
-3.55037
-59.4319
1.06757
-8.17838
58.835
8.55646