/*--------------------------------*- C++ -*----------------------------------*\
  =========                 |
  \\      /  F ield         | OpenFOAM: The Open Source CFD Toolbox
   \\    /   O peration     | Website:  https://openfoam.org
    \\  /    A nd           | Version:  10
     \\/     M anipulation  |
\*---------------------------------------------------------------------------*/
FoamFile
{
    format      ascii;
    class       surfaceScalarField;
    location    "1.9";
    object      phi_0;
}
// * * * * * * * * * * * * * * * * * * * * * * * * * * * * * * * * * * * * * //

dimensions      [0 3 -1 0 0 0 0];

internalField   nonuniform List<scalar> 
38556
(
849.181
211.89
-3387.61
1569.87
0.181514
-720.871
1560.1
-77.6792
87.448
1529.24
-43.2698
74.1294
1372.81
-40.4408
196.876
1327.02
-26.7227
72.5077
1313.07
-22.5954
36.5497
1316.73
18.706
-22.366
1301.93
52.406
-37.6132
1283.76
70.0013
-51.822
1257.09
68.2999
-41.6299
1244.5
51.6304
-39.0448
1239.6
31.2373
-26.3422
1240.24
2.98327
-3.62135
1246.18
-15.8645
9.92986
1249.55
-19.5603
16.1867
1257.34
-17.5322
9.73984
1268.77
-10.384
-1.04679
1287.96
9.44215
-28.6325
35.9982
-51.9069
1633.29
155.968
-1565.8
1034.82
-287.404
886.055
1191.53
-342.716
108.327
1103.17
-250.592
295.684
1041.04
-248.556
270.243
1011.29
-185.128
188.157
1016.37
-196.46
168.783
1034.18
-112.403
113.297
1056.07
-52.6266
83.14
1072.62
5.05549
48.396
1088.63
20.1798
32.1129
1104.34
21.0282
14.8926
1117.73
9.62506
8.22457
1125.43
-1.65092
-3.06878
1127.72
-7.25263
-10.9009
1127.16
-3.13918
-15.8624
1125.12
5.26343
-20.7595
1124.22
20.1551
-29.6376
1142.08
51.4405
-59.8583
79.4015
-63.2467
1972.63
12.428
184.875
2030.77
-435.639
90.1027
1756.39
-284.398
216.058
1710.2
-237.842
33.4368
1528.35
-177.206
110.501
1400.25
-140.429
83.4064
1239.3
-158.249
122.732
1145.52
-93.6569
75.0358
1091.14
-54.2461
55.9981
1067.42
-6.01006
34.785
1065.65
2.53666
19.4197
1072.26
5.49269
8.92525
1081.91
-5.96496
5.94036
1092.71
-9.76632
-2.6876
1101.11
-8.17146
-7.48222
1107.32
4.17792
-13.522
1111.32
18.5664
-17.3073
1117.33
37.5529
-23.4057
1146.53
59.3046
-37.0641
72.6393
-19.9042
899.887
1190.78
-1916.32
983.461
-88.0239
-431.19
1170.8
-239.217
-232.524
1354.85
-292.751
-129.135
1404
-229.221
2.8666
1372.77
-154.934
45.7298
1205.83
-111.735
120.427
1066.4
-37.2648
83.0409
985.552
-35.2514
61.8512
950.799
0.212042
28.5306
954.406
-22.0604
20.9902
966.183
-20.2213
13.9369
985.717
-41.4313
15.9326
1009.41
-39.8266
6.3672
1032.81
-27.3245
-4.24572
1052.1
5.39437
-20.5081
1070.58
27.4263
-27.3429
1091.32
45.7826
-28.9705
1109.24
50.8733
-9.48826
43.1145
22.372
314.677
-301.643
-1966.83
334.095
-578.086
470.644
1134.57
-787.307
-252.385
1497.29
-665.271
9.7959
1660.45
-538.953
146.572
1642.92
-268.497
131.104
1394.78
-40.5709
176.972
1193.33
75.7439
88.4436
1099.15
29.1997
29.7264
1057.65
31.33
10.3767
1032.23
-9.89771
13.2584
1010.44
-18.7275
20.304
985.465
-49.158
32.6978
964.881
-48.6396
29.3967
944.417
-26.6962
19.836
932.068
5.91936
11.8232
926.264
23.036
10.1948
919.785
29.0139
23.2474
900.171
26.8467
43.6409
15.1222
42.2878
800.782
-1454.3
-2133.32
1194.23
-1352.88
381.354
1336.09
-1277.72
348.549
1517.47
-1020.33
173.677
1516.93
-771.934
233.519
1484.06
-428.44
192.809
1386.67
-104.086
160.912
1274.4
122.293
65.7132
1188.28
69.4529
45.8756
1126.18
85.4034
8.01937
1091.63
-2.94087
27.5956
1020.87
0.43535
51.601
912.117
-26.1758
85.767
812.201
-12.3645
63.6409
761.249
-8.47895
32.7352
739.664
1.59893
25.9052
729.749
3.04328
29.9079
729.519
-4.68184
33.9254
743.197
-24.5904
37.7591
-27.4096
28.1367
510.103
-844.433
-3023.8
1002.69
-1315.62
-529.849
1179.36
-1527.23
72.8411
1364.04
-1157.45
-47.5499
1481.68
-879.925
-9.64954
1566.69
-466.475
-46.9756
1575.34
-62.646
87.5832
-55.8565
-42.5127
-39.308
1493.09
-1.04615
131.993
26.3239
12.9052
34.3622
1332.29
27.0802
117.243
28.1576
30.9732
26.806
1143.69
37.7472
114.464
43.7155
36.7892
41.2805
967.248
23.7464
95.3441
17.1455
22.345
14.9241
819.82
12.028
93.2373
15.1971
12.4927
14.908
714.212
8.24137
50.2153
5.66136
8.85262
6.4624
662.15
1.47836
25.9978
1.1554
4.9997
6.06625
650.55
-1.74972
4.87061
653.332
-21.6834
20.5002
670.039
-42.3984
28.7347
691.475
-57.3667
31.2484
725.278
-88.3498
29.9567
-79.5744
25.1501
3384.19
-1638.99
-923.675
2879.18
-1321.52
510.909
1843.55
-1323.01
831.405
1451.83
-1066.82
301.094
1340.9
-795.857
26.8571
341.264
-99.5895
-170.466
333.793
358.457
346.321
-57.6235
-116.917
-60.8116
349.249
-61.5705
-9.05966
-353.315
367.395
-17.5448
2.41911
-364.892
346.712
35.8814
9.37893
-318.953
297.091
51.4142
8.19509
-282.219
263.433
41.6304
0.902846
-241.402
218.705
21.2276
13.4978
-200.104
184.106
19.1957
5.04399
-175.921
174.029
7.41805
-4.04818
752.19
5.94926
-44.7222
-175.378
-186.474
-176.704
-187.47
1.25975
7.30832
2.29096
782.287
-10.4084
-41.3717
801.312
-47.3071
-14.1165
808.993
-77.7798
12.7324
809.794
-124.085
34.9339
-116.18
32.2632
1506.88
-1088.91
-1663.98
1149.7
-1356.19
391.842
1107.45
-1450.63
169.88
1107.6
-1080.42
13.4448
247.282
-807.417
120.948
230.405
266.029
254.498
265.554
-105.749
-12.1125
13.6687
-74.6708
76.9345
-12.851
-3.08143
-84.157
5.45081
86.682
-5.14581
-2.83
-92.1992
-10.3593
92.5089
10.4693
-0.419657
-88.0564
-16.7296
85.8233
18.6392
0.323521
-81.2384
-13.8843
79.8407
16.3966
-1.11458
-75.9868
-7.69615
73.931
8.09459
1.65733
-64.6041
-7.22624
60.9317
8.56197
2.33665
-53.7232
-4.877
52.1726
6.40162
0.0260472
-51.7602
216.587
13.6002
-5.5228
-54.3867
-54.2595
-58.3086
917.798
56.969
-43.6591
-217.891
-242.725
-223.968
-256.932
900.189
35.5867
-65.2849
875.112
-15.9547
-36.7487
856.767
-114.5
8.76079
-121.199
11.999
3438.3
-1026.09
-1925.64
2296.2
-864.518
650.418
1725.65
-852.533
-27.547
1441.59
-768.943
-27.4067
280.299
-662.631
141.223
271.971
301.484
301.823
116.035
267.071
-112.478
9.67242
16.5168
-70.5544
71.8877
-15.3654
-2.48471
3.97405
-78.8425
81.7847
-2.66983
-4.24643
-12.9403
-88.7615
89.8464
14.2996
-2.44418
-23.6008
-91.2991
91.3158
24.6755
-1.09126
-23.8411
-90.9666
89.7894
25.3726
-0.354378
-9.4975
-80.7628
78.5592
10.4509
1.25019
-11.0219
-74.1747
73.7592
11.3186
0.118891
-7.82439
-75.0669
75.9808
7.88445
-0.973888
-78.8872
-18.2736
322.822
11.6855
4.92967
-82.2808
-78.3145
-81.6808
1293.59
45.7544
58.9231
-323.527
-352.115
-320.368
-345.289
1186.9
94.6607
47.6162
1063.86
81.9331
25.149
959.515
-34.2744
24.1216
-79.8375
7.84448
3890.96
-2431.2
-2586.25
2490.76
-626.359
1162.05
1859.89
-337.862
116.189
1595.67
-419.395
-85.328
281.486
-409.207
128.21
278.457
328.214
325.884
112.179
254.302
-108.471
23.4761
18.844
-63.5535
64.9218
-19.8358
-0.376541
0.567171
-75.5165
78.6122
-2.66873
-0.994089
-15.0974
-84.4138
86.4068
14.3443
-1.23994
-26.0801
-92.5782
93.8094
25.6225
-0.773566
-26.334
-98.7499
98.8493
25.1187
1.11586
-12.0294
-86.7469
83.7104
12.074
2.99183
-8.65513
-82.9418
83.914
6.14582
1.53711
-3.54562
-87.163
88.0126
0.304686
2.39125
-88.5126
2.82427
352.322
-14.4695
12.4286
-86.996
-89.3803
-88.2167
1422.99
-26.2269
27.3864
-354.098
-328.196
-357.234
-338.871
1385.69
75.9716
55.9888
1261.08
136.76
69.7875
1079.21
93.7954
53.8002
14.4711
6.24812
862.825
-835.78
-645.573
1107.16
-458.571
-412.123
1415.99
-336.015
-310.677
1506.19
-295.992
-213.608
311.045
-185.435
-7.82696
304.435
341.403
333.366
105.431
287.651
-96.006
13.9695
25.7557
-71.3782
70.5026
-25.1133
0.233236
14.8896
-70.4159
69.5647
-15.2362
1.19776
-6.91016
-74.02
77.0682
2.54005
1.32198
-16.1734
-84.0602
85.0622
10.4622
4.70918
-14.3039
-82.6171
81.223
9.36754
6.33048
-9.25306
-79.9693
80.6044
7.39439
1.22356
-1.24151
-81.3985
80.794
1.09022
0.755844
2.55811
-78.0016
76.7702
-2.2227
0.896022
-73.8592
18.2444
293.159
-14.75
-3.25193
-71.5368
-75.3672
-72.6383
1229.32
-29.1457
-63.0375
-295.659
-281.072
-301.359
-285.276
1245.93
80.2841
-20.9243
1214.26
160.053
8.37978
1135.9
162.489
9.6686
77.8337
5.61611
488.923
-271.638
-82.6592
648.452
-192.907
-425.193
1056.24
-442.162
-301.642
1084.28
-264.916
-59.1176
1078.66
-182.807
2.98933
245.919
-270.377
-13.859
86.0194
118.904
75.0228
108.05
246.404
241.505
241.077
17.8717
231.272
-61.427
2.18743
15.9501
21.5395
18.525
8.4342
-208.139
200.524
-27.9231
4.39916
7.36193
8.42121
6.92102
3.93267
-217.495
232.086
-27.8363
0.990191
3.74217
2.27671
2.30347
-3.55588
-236.612
239.393
9.92717
2.47162
-3.02637
-4.30727
-4.29013
-4.5519
-249.278
255.609
13.2041
0.967754
-4.61037
-5.6681
-5.67207
-4.45237
-257.191
256.417
19.228
0.364943
-4.08899
-5.40442
-4.87292
-2.58105
-258.659
259.833
9.91661
-2.06555
-1.29189
-3.0507
-2.10157
0.705696
-258.401
255.179
3.93919
-4.0547
1.68635
-0.000228081
0.945142
1020.32
-30.9043
-12.2111
10.1
13.9707
2.99702
7.28488
-254.802
-254.268
-252.522
-249.964
1046.37
-27.715
-27.4877
1089.9
39.6294
-2.86724
1132.97
79.7145
37.2646
1166.29
67.5643
61.6084
-0.469658
67.5596
1931.7
-1406.75
-1541.01
2457.78
-669.302
-49.6857
1954.13
-457.259
518.745
1627.31
-238.537
300.448
1366.97
-121.938
199.465
1201.6
-180.779
75.7788
1073.45
-0.906089
37.6732
38.1208
12.5418
34.7411
5.9792
997.657
-99.46
22.8346
29.37
52.2735
24.7229
46.0483
956.4
-8.56772
7.9523
26.624
4.73029
18.0194
-7.50109
968.564
-21.0188
14.7081
-5.71527
7.75799
-11.2957
3.39958
993.652
19.0027
14.3677
-10.9039
-15.7794
-13.4183
-18.357
1026.04
-3.06568
13.3418
-14.7736
-5.13645
-15.9492
-6.80797
1048.05
-9.38014
22.7893
-9.99989
-5.98144
-10.9363
-8.49861
1058.65
-38.9694
30.3086
-3.90357
5.55223
-6.45351
2.86069
1051.06
-62.5651
39.2513
1041.65
-79.4165
61.1115
1052.41
-60.0781
88.9509
1074.71
-53.1458
110.558
1104.65
-62.1965
99.8243
-86.5982
64.9037
2096.32
-1581.96
-654.124
2167.65
-810.991
70.3567
1475.51
-236.18
471.069
1073.02
-110.247
274.195
858.717
-121.569
213.934
812.308
-175.408
41.0383
900.923
-109.678
20.1567
908.617
-125.375
18.221
952.588
-71.4155
18.8768
981.267
-66.2076
16.5099
1010.12
-28.787
18.9329
1024.57
-32.3539
14.8424
1024.28
-30.3278
21.2354
1007.81
-49.9305
27.4339
975.725
-67.329
36.848
945.377
-91.8428
42.774
931.054
-84.6156
38.8606
931.551
-82.7368
29.0938
954.539
-75.6018
-9.58253
-55.0662
-51.2716
4846.19
98.3874
-543.429
3019.17
258.984
757.045
1788.38
344.971
649.646
1372.24
105.981
199.914
1175.1
-25.4051
100.966
1087.51
-103.427
15.6167
1060.26
-92.0146
9.58851
1049.36
-104.998
-9.47974
1047.08
-63.9393
-5.20084
1048.93
-58.4944
-9.56368
1047.72
-23.3328
-4.23729
1040.33
-16.519
-8.45192
1019.09
-2.49031
-6.59169
988.244
-4.61528
-14.4723
941.782
-1.71014
-19.1571
900.535
-12.0031
-38.5921
880.808
-9.49492
-55.3938
874.567
-4.65077
-71.8444
899.516
-0.744001
-99.807
18.1854
-100.496
1643.19
2578.37
-158.042
1017.03
1111.89
-226.742
1156.12
722.518
-516.637
1037.15
311.982
-87.0327
993.889
114.946
-97.0922
962.177
-9.31835
-62.3961
995.761
-70.1919
-55.4066
1008.83
-81.3762
-36.6909
1022.18
-70.9396
-6.35226
1017.17
-59.0485
5.56839
1006.1
-19.3136
7.05088
991.504
6.80516
-8.73043
977.311
33.874
-22.1714
962.168
42.569
-32.0407
947.568
50.6046
-37.7151
932.619
49.3823
-46.436
922.663
47.7192
-47.2583
918.341
49.6661
-49.9953
932.183
48.1948
-62.7808
57.0183
-54.059
767.174
1854.79
2416.61
839.566
781.732
257.77
1288.53
545.131
-271.58
1303.47
438.276
-141.231
1335.53
212.957
-130.066
1344.27
100.876
-118.942
1355.32
6.17007
-87.4062
1380.55
-28.3048
-78.3075
1384.02
-33.1997
-41.2091
1372.38
-24.2007
-23.2052
1305.95
19.8571
27.2638
1225.87
49.087
37.7961
1158.95
71.4389
29.3547
1124.99
69.0792
7.44938
1119.88
62.7094
-6.99706
1126.53
51.2008
-8.47131
1142.3
36.5268
-4.57
1157.9
30.8641
3.20003
1158.24
20.8677
26.9821
28.7348
33.6849
1216.94
-541.353
71.7068
1590.18
219.387
189.095
1408.56
453.939
272.82
1357.56
397.954
91.3162
1259.53
298.25
12.743
1205.32
209.452
-54.3738
1158.13
128.147
-74.7807
1134.65
76.7453
-81.5738
1121.61
39.9446
-60.1084
1120.81
32.7444
-56.14
1123.33
39.3101
-21.9695
1125.7
52.8019
-6.08738
1127.08
57.4954
12.5618
1130.51
51.7732
13.8785
1130.97
41.1377
21.1103
1132.43
25.4987
24.2383
1138.22
-4.39495
35.1382
1144.14
-21.2243
46.1594
1137.36
-26.0044
53.659
-3.38761
44.094
947.883
-3538.27
1218.11
-50.8401
1273.09
398.956
1323.14
347.903
1347.05
274.348
1389.03
167.465
1408.23
108.955
1417.85
67.1257
1387.55
70.2424
1352.65
67.6465
1313.11
78.8434
1295.08
70.839
1288.05
64.5235
1288.01
51.8148
1287.1
42.0448
1280.42
32.1751
1244.32
31.7083
1166.88
56.2123
1052.64
88.2395
64.1771
505.088
567.835
-896.928
677.2
-53.0894
-839.895
961.09
-83.4752
-112.966
1023.9
-52.8855
64.2055
1095.69
-93.6924
218.778
1166.07
-77.0189
79.1461
1239.1
-82.9298
46.4478
1295.4
-53.3173
-25.3463
1318.06
-22.6759
-37.5935
1317
3.15342
-53.9243
1291.57
19.6784
-35.8742
1264.78
20.9959
-33.2474
1237.84
12.943
-12.3499
1222.85
2.61841
8.7516
1221.02
-2.77107
14.5291
1222.43
-1.93522
16.7138
1224.26
3.30026
4.61049
1224.9
10.365
-12.05
1225.88
16.9561
-46.569
14.4755
-69.7066
1316.37
-175.271
-1281.61
1303.38
-482.718
1328.68
1019.05
-199.352
508.531
918.728
-85.4035
428.527
899.626
-119.51
315.162
907.079
-97.6791
201.365
939.832
-134.649
187.749
966.117
-84.8255
118.519
993.132
-53.2138
86.6631
1011.06
-13.7317
47.3514
1024.19
4.9054
33.7576
1033.37
10.5425
16.1698
1040.68
5.71347
8.1393
1042.68
5.19433
-7.64042
1040.53
5.5538
-17.0754
1038
10.2365
-25.5046
1034.27
18.3546
-32.0838
1030.1
26.7135
-41.8171
1026.37
25.8399
-65.0162
12.8629
-61.4113
1501.68
92.4464
-2110.32
1476.89
-509.309
141.482
1358.7
-240.468
375.365
1268.37
-130.3
168.669
1147.67
-82.3254
194.014
1097.79
-71.1479
106.756
1036.53
-88.8254
138.164
996.789
-51.7367
81.6907
972.665
-40.0606
66.9685
961.287
-5.18475
37.616
963.397
-4.56185
26.7768
971.078
-1.30719
13.0939
982.385
-10.0007
10.3471
992.014
-7.43832
0.317015
997.636
-0.631411
-6.9198
1001.5
8.38328
-15.5347
1006.14
16.8847
-20.4715
1014.58
22.2959
-27.4364
1026.21
18.5976
-41.4496
5.88509
-21.6298
388.887
-505.123
-4287.9
539.506
-369.634
-721.484
845.737
-291.466
-487.756
996.872
-260.374
-150.196
1032.44
-172.864
57.8337
1016.57
-107.444
97.9007
955.489
-72.7227
165.404
897.656
-5.9495
95.0863
872.175
-23.3165
70.5886
860.349
4.139
31.0327
872.951
-24.4657
28.2912
890.825
-23.5618
18.3181
914.407
-40.4972
22.8469
937.296
-33.975
10.0152
955.86
-20.6506
-2.79113
964.676
-0.349786
-20.5911
969.968
12.2151
-27.9647
976.423
17.7867
-30.9162
975.934
16.0304
-6.43269
8.89562
23.2419
-1006.72
-158.161
-1560.17
66.2302
-621.857
-350.085
805.263
-734.295
-548.589
1111.19
-453.605
-102.901
1237.64
-270.011
117.273
1211.25
-74.531
124.582
1096.86
11.2154
207.424
1004.48
65.7727
109.097
943.063
10.9481
56.8781
919.08
14.1394
24.3594
909.051
-29.4529
28.2751
905.882
-31.3809
31.2917
905.56
-51.7634
44.2852
904.1
-39.0418
35.9239
896.495
-17.2522
24.0426
888.418
3.94458
15.6061
878.295
12.8192
19.7134
866.804
14.4017
38.1238
852.001
10.9971
63.4772
3.44654
55.7535
422.015
-1013.17
1618.8
585.832
-1033.94
629.616
876.215
-965.967
289.838
1119.12
-622.684
99.8498
1187.96
-303.257
197.927
1167.75
-22.0088
160.492
1103.6
61.4485
174.829
1019.97
136.965
78.1531
960.034
55.0517
61.7081
915.128
52.2669
14.7975
897.754
-28.7886
44.3052
870.186
-18.0822
65.8704
828.947
-25.1715
100.414
778.838
2.04595
72.6625
746.153
7.77799
40.3898
729.723
9.27458
37.0043
722.175
0.022751
50.2532
725.532
-17.4731
62.4427
744.175
-37.4264
67.5397
-36.8908
51.4592
-84.5252
-1101.38
-5479.32
287.957
-1041.21
-895.055
805.208
-1124.82
-285.553
1018.17
-766.434
-116.76
1170.4
-445.003
-20.1354
1205.16
-58.442
-45.3055
1220.55
2.39326
117.392
1.05567
7.5985
5.20192
1174.71
33.3933
145.372
48.2047
37.6175
50.2117
1070.52
37.3121
145.689
29.4189
36.8317
27.239
953.313
33.7415
147.728
36.5452
31.3386
34.5815
837.062
18.6811
126.025
11.2795
16.8777
9.94352
746.868
11.3399
112.991
14.6192
11.4835
14.915
681.781
10.0686
54.9608
7.37516
10.3589
7.36806
649.156
7.86687
27.407
8.04776
8.33663
9.01053
642.017
16.0924
3.69509
648.773
-2.92829
25.9471
673.53
-34.3415
38.3419
702.096
-62.5069
47.7158
737.34
-97.9791
55.2653
-88.3561
50.2583
449.474
-819.16
-2219.09
688.019
-1261.32
492.468
924.029
-963.827
434.397
1030.75
-730.339
158.279
1131.91
-476.123
-43.1831
299.773
-52.6623
-147.944
290.335
283.31
273.718
-8.55015
-40.9486
5.96894
21.5345
303.112
3.01954
-25.4992
-5.38351
-296.363
298.194
30.7615
6.18449
-14.1315
-293.823
279.228
49.8436
16.1946
-16.8208
-259.956
247.278
43.4016
19.8379
-5.13096
-237.745
222.318
30.5284
8.7106
-22.7499
-206.897
195.991
19.133
25.8627
-8.95905
-186.86
177.767
18.6546
9.46597
7.28564
-172.628
172.039
10.394
-9.22346
712.458
8.12018
-54.8828
-172.508
-184.15
-170.209
-180.508
3.37063
6.9808
2.69826
728.985
-3.56559
-57.2617
755.83
-44.2837
-31.0197
783.166
-76.7641
-0.34623
802.348
-121.743
39.5169
-115.518
46.5127
-329.891
-2622.23
-2251.35
-5.12471
-1502.15
307.91
536.14
-1165.46
-169.749
644.557
-774.706
-50.6052
214.276
-552.78
37.3156
198.674
204.621
187.276
13.0083
250.452
-84.9716
-16.875
8.7081
2.75936
-71.8019
73.4321
-4.70547
-8.39212
8.71211
-74.4814
-6.47177
74.5306
6.01067
-8.30022
0.626252
-73.8311
-14.5254
73.0575
15.0643
-0.391591
-0.662928
-69.9896
-14.7618
68.6194
16.475
0.320017
1.74004
-65.7195
-9.8651
64.3536
11.2231
-1.73212
-3.88932
-61.8063
-6.725
60.9558
7.22301
4.24183
-4.93864
-58.5118
-7.11979
57.4716
8.24761
4.85103
0.282539
-55.3974
-5.2409
54.6297
6.41108
-0.685108
-54.5329
9.27574
222.435
13.7859
-11.1727
-59.0268
-54.1869
-58.4575
884.02
50.3696
-46.0995
-220.458
-253.85
-215.023
-246.183
842.915
19.6023
-88.0662
829.045
-30.9622
-68.6802
839.049
-111.014
-11.9728
-115.509
5.06878
1343.14
-1871.36
-3023.11
1170.37
-961.508
282.547
1016.63
-768.133
-271.143
892.103
-595.757
-81.8255
232.971
-489.179
70.2611
230.226
220.304
215.963
-15.8423
102.949
240.283
-100.115
5.69482
2.95681
10.8614
-64.6417
66.3063
-11.8078
-3.67507
8.46449
-5.39854
-70.5608
71.7258
4.38388
-8.61477
5.2303
-15.5422
-73.8527
74.2344
15.2917
-5.3616
3.00109
-18.7557
-75.0203
75.1165
19.0169
-3.35859
1.21089
-14.7692
-74.0346
72.9899
15.9112
-1.30811
-2.9011
-8.67898
-70.0745
69.3325
9.336
2.98603
-0.119612
-8.83715
-68.8802
69.2421
8.6591
-0.0642247
1.80765
-6.11604
-71.1892
71.9105
5.48496
-1.89781
-74.3126
-6.07533
-17.6114
304.842
13.3695
6.66431
-77.3226
-73.3169
-76.2366
1222.61
83.5971
54.8231
-306.719
-331.352
-296.315
-317.347
1145.94
104.936
38.95
1054.3
81.6986
4.12963
978.842
-11.0401
-0.39692
-62.5484
-5.64353
1815.26
-1363.07
-1546.7
1608.92
-651.426
1058.31
1223.53
-350.792
84.2396
1027.64
-366.567
-118.634
238.689
-327.748
85.3422
233.654
220.938
215.798
-38.3319
102.337
245.99
-100.14
28.8337
-5.38143
18.556
-63.0493
64.1916
-19.9126
5.59571
0.073553
-0.715429
-68.7621
70.6521
-1.71339
0.465249
2.16575
-12.8312
-74.6178
75.8536
11.5361
-2.10643
1.3415
-17.7921
-79.3674
80.2903
16.4693
-0.941618
-4.10997
-16.2845
-82.0805
82.3633
15.1448
4.96692
-7.1405
-11.4961
-81.7315
80.8943
12.0353
7.43848
-3.91259
-7.32228
-80.5824
81.2278
6.42486
4.16458
-4.67442
-3.35136
-83.7124
84.4859
2.5728
4.67945
-86.2875
-15.7971
-8.20664
347.298
6.30157
14.1397
-86.5567
-85.187
-85.704
1374.26
56.8899
32.087
-348.437
-336.153
-337.25
-330.415
1346.96
128.717
59.5151
1287.09
157.607
53.7391
1159.84
120.298
49.7129
35.0104
7.52859
1254.55
-1618.1
-1191.83
1462.63
-607.956
-663.67
1278.88
-367.198
-110.527
1148.86
-319.717
-130.437
260.326
-201.362
21.2038
253.787
241.866
237.468
-9.55004
87.4139
258.378
-77.0443
1.12842
-2.74781
21.2111
-67.6562
68.2556
-21.1227
2.06004
-2.97697
8.54608
-67.0162
67.0605
-8.78641
3.17302
-3.78644
-6.36115
-70.1104
71.6323
4.49629
4.1294
-8.98558
-11.1784
-76.6518
78.1057
9.50342
9.2067
-11.8893
-12.1158
-81.3766
81.9349
11.206
12.2408
-8.6754
-11.1628
-82.1489
81.5506
10.3021
10.1344
-4.56227
-4.01551
-79.0303
78.2579
4.00024
5.34996
-2.67201
-1.11262
-76.5817
76.2454
1.20455
2.91645
-75.627
5.52047
-3.79467
299.141
2.9582
-7.57501
-72.8303
-75.2669
-72.5254
1202.19
30.1701
-85.5361
-299.844
-281.44
-295.587
-276.097
1223.24
120.496
-33.7575
1213.47
168.308
7.44578
1151.52
162.631
29.2914
92.4459
9.52145
132.396
-940.502
-613.587
374.858
-422.376
-853.234
792.318
-498.237
-588.063
799.119
-321.402
-64.2339
860.997
-234.704
-25.547
201.499
-317.809
-10.5209
81.7731
113.873
82.1516
113.237
199.603
192.763
190.57
18.5424
-8.97281
192.697
-55.8739
6.79102
15.3773
18.1385
14.7992
4.42776
-8.28138
-175.588
177.093
-14.9955
6.54186
3.79675
3.71528
3.29035
-1.74767
-1.71692
-198.75
215.531
-9.01839
2.77274
-2.14177
-2.30093
-2.62782
-6.46573
-4.80158
-219.293
221.991
21.2985
6.54842
-6.28385
-6.5944
-6.39944
-7.37302
-3.08558
-232.189
238.7
21.0787
5.07407
-7.33553
-7.45432
-7.41551
-6.76896
-2.04824
-240.299
241.005
23.603
3.62035
-6.1153
-6.81544
-6.18109
-3.96925
3.03067
-245.034
246.675
14.2131
-3.51317
-3.56098
-4.11057
-3.73074
-2.2781
6.61615
-245.957
245.547
9.97217
-8.26691
-1.35453
-2.51038
-1.76918
980.202
3.57557
-17.0573
-4.22546
0.689298
-8.52943
-5.49851
-245.698
-240.778
-240.555
-234.336
1014.4
9.96482
-41.4806
1063.36
72.5611
-3.88843
1115.74
110.245
42.942
1148.53
113.264
78.1896
73.271
82.0336
1709.62
-363.374
-2217.43
1595.63
-459.794
101.722
1321.59
-329.228
623.77
1214.28
-243.577
329.941
1094.82
-148.665
232.884
964.436
-198.888
87.2395
872.248
29.7523
42.2657
32.7312
1.06471
28.8541
-4.80739
818.991
-94.7215
32.1809
24.3538
46.3103
22.9672
45.0004
805.349
21.3385
10.9193
12.0983
-13.8777
7.98793
-16.8711
831.3
-14.3599
27.7434
-13.473
1.45669
-13.8087
1.19794
864.579
33.1796
18.885
-15.246
-20.0391
-15.4887
-20.2017
900.241
7.73556
18.6772
-16.6697
-7.79311
-16.4977
-7.77276
932.25
11.9109
26.9547
-12.3403
-11.2135
-12.5284
-12.0027
960.841
-15.4259
38.2269
-9.20553
-0.236038
-10.0733
-1.56882
975.757
-13.8307
41.7411
992.65
-17.9265
72.1105
1034.59
10.3867
109.185
1096.74
26.5902
132.059
1154.87
46.7647
108.198
35.5991
74.6018
475.596
489.984
-199.169
687.727
-252.546
-349.023
773.844
-88.8541
144.578
676.9
-126.09
253.652
727.202
-156.187
171.155
694.18
-176.127
51.2987
790.149
-69.5657
23.5055
782.331
-92.7833
24.1008
820.725
-26.6612
28.4829
839.981
-36.0692
18.9634
870.318
-6.55081
28.3263
888.892
-15.9577
19.9613
903.641
-11.9362
30.3334
908.679
-24.2758
31.2456
915.722
-23.0134
38.9876
923.657
-28.2263
45.139
939.508
-10.8584
44.2548
975.06
-7.81168
27.9443
1016.2
8.60237
-12.5594
15.613
-50.8747
449.315
-868.167
-94.0532
936.469
-139.519
156.865
1130.76
146.602
219.894
1066.77
20.4298
117.391
977.953
-65.7822
99.3762
918.001
-119.059
18.5019
916.497
-84.2099
25.736
903.616
-91.0909
1.70915
899.052
-35.5465
8.24833
891.904
-34.9046
-3.57987
885.405
-6.69657
2.40702
876.457
-9.4736
-5.98811
863.159
2.6118
-7.84116
849.755
-5.42547
-19.9193
839.349
-2.21395
-29.5497
832.093
-7.00376
-52.5587
835.909
-2.30951
-67.7588
848.372
-10.0154
-82.1043
877.277
-14.0966
-106.013
-1.12119
-107.445
691.974
799.966
-1853.58
748.362
471.345
-893.995
939.427
472.864
-1033.96
882.897
194.944
-205.017
864.629
26.8918
-171.498
836.649
-72.2494
-81.2266
863.687
-107.722
-58.9321
861.169
-95.3619
-29.9023
873.257
-61.0039
7.01754
865.505
-33.2996
11.7159
858.517
-3.95246
11.2946
842.792
8.51675
-10.9965
829.779
17.613
-24.1595
815.866
16.5112
-40.0639
809.444
16.1612
-49.6686
806.449
12.4771
-62.9216
814.388
11.58
-69.0867
828.834
8.48748
-82.9446
853.998
-3.18637
-98.8545
4.58256
-78.2567
553.792
1600.92
4963.59
674.454
804.027
-195.574
1165.09
451.1
-740.45
1147.68
295.659
-224.536
1160.94
68.5024
-184.935
1130.55
-24.6358
-136.173
1105.49
-82.7338
-87.3334
1091.93
-82.5032
-77.5997
1074.61
-54.4068
-30.4904
1055.15
-21.5497
-15.4974
1028.12
17.4685
32.8783
1002.64
34.2222
37.5688
980.176
40.8744
28.557
965.877
34.1617
4.09739
959.596
27.3148
-11.8695
959.093
20.5433
-16.0345
968.253
15.2736
-17.4243
989.82
11.7987
-21.678
1018.05
-6.01435
1.58299
1.0292
22.1506
78.21
-29.3899
650.098
585.626
509.828
-24.1218
1060.11
409.804
-160.366
1177.82
279.239
-9.97551
1144.47
169.909
-55.313
1090.58
88.2729
-113.395
1039.93
13.7598
-120.627
1008.32
-16.134
-116.324
990.695
-25.8732
-71.0211
984.457
-12.7416
-58.7102
989.604
6.42035
-16.0685
998.551
22.7742
-3.58652
1008.69
27.5765
15.7176
1016.83
23.7604
16.1455
1022.7
15.692
26.856
1026.89
7.96534
32.635
1034.57
-6.43066
49.1539
1044.3
-16.649
64.8851
1041.96
-27.2129
77.1985
-10.1255
64.0058
77.8179
-2059.15
528.212
8.59333
976.36
360.613
1191.63
411.87
1304.4
331.489
1359.2
200.94
1356
125.917
1336.16
70.8252
1291.1
89.4305
1258.34
87.6637
1234.52
109.081
1229.64
98.4938
1229.56
92.1863
1228.6
76.5318
1220.32
66.0193
1203.75
56.7054
1166.15
62.8789
1108.36
97.356
1026.69
142.693
105.637
1011.02
-145.801
-2475.97
913.107
-8.54179
-733.443
860.029
-48.4025
-11.4856
872.759
-44.1039
95.5792
989.204
-122.002
224.336
1084.78
-98.9686
82.5344
1178.84
-104.966
57.3622
1247.05
-76.4021
-17.1605
1281.39
-46.3395
-25.5942
1287.56
-20.2228
-39.8661
1265.2
3.57849
-17.0973
1233.07
11.1806
-12.3011
1198.41
12.3479
9.96686
1178.52
10.5724
18.0707
1171.3
9.94157
11.8052
1166.92
12.9028
8.19348
1160.92
15.3572
-4.74848
1147.43
18.4429
-17.0078
1120.77
8.64427
-28.5468
-16.5217
-37.8107
592.383
-277.658
-591.787
799.215
-70.1979
1183.5
679.653
78.2112
501.478
677.655
66.8141
319.607
744.295
-81.3507
207.87
777.551
-71.6436
140.783
834.476
-107.901
133.758
868.158
-67.4693
75.9046
900.84
-48.794
56.4362
919.689
-16.3346
24.6142
935.853
-0.949878
22.1218
945.266
7.54468
10.3924
952.769
7.22206
5.76283
953.924
10.8807
-9.10465
951.078
12.3018
-16.5886
946.571
16.3338
-24.4286
939.272
19.0464
-28.474
930.439
17.0164
-31.5582
917.353
-2.84631
-40.4396
-37.9609
-32.9273
232.08
-378.985
-3535
449.767
-268.674
122.272
814.549
3.28104
85.5133
919.885
41.7375
88.4099
901.934
2.0384
128.576
885.643
-15.812
67.2148
868.591
-64.1945
111.51
854.849
-35.9872
63.9505
853.043
-34.8949
54.8761
851.526
-3.93506
26.7327
862.144
-8.86478
24.074
873.52
-1.8641
11.1269
887.222
-6.99068
10.8583
896.235
0.872793
1.31155
900.466
5.73848
-4.58688
902.903
10.5258
-12.1642
904.998
11.5098
-15.0303
909.596
6.87809
-21.896
904.482
-11.5167
-27.6652
-33.8154
-18.7593
631.295
-428.437
-29.2957
594.812
-417.031
-536.644
649.914
-180.522
-359.056
737.856
-117.605
-78.7961
773.012
-56.0669
80.7823
776.847
-3.75753
82.0119
776.748
-33.7973
135.105
759.216
8.79834
67.8328
764.461
-22.8904
53.3396
766.808
1.65426
23.096
788.601
-27.9816
25.6149
811.583
-23.0967
16.5694
837.719
-30.4655
20.1855
859.008
-19.4127
9.01101
873.696
-11.373
-0.367619
878.852
-2.03597
-13.1846
878.261
0.753935
-16.6186
872.719
-3.38878
-15.1068
855.593
-10.4717
9.64841
-16.4497
17.9275
52.8594
-624.008
361.277
304.631
-680.89
-337.997
589.581
-553.724
-460.337
747.63
-257.202
-121.352
842.694
-120.706
86.8476
846.165
27.7982
89.555
837.775
21.2876
160.729
821.189
53.383
81.0988
806.906
-1.35176
49.6223
803.451
5.32954
24.1388
809.794
-35.2646
29.215
820.551
-30.3415
27.7802
832.717
-34.3277
35.9813
838.01
-19.7998
31.0181
834.851
-7.29333
23.1219
828.583
1.86307
17.9745
816.769
3.31466
28.9672
805.214
-1.99225
48.2819
801.17
-7.61352
64.6638
-12.8126
50.8391
-72.1439
-860.108
-333.644
311.466
-1028.73
593.846
651.86
-770.391
166.111
799.723
-376.142
70.9256
855.259
-118.385
140.07
850.23
88.2776
105.042
854.8
63.3713
128.176
812.339
116.024
57.9723
790.796
28.8968
53.0029
767.065
26.679
17.1795
761.888
-29.4841
43.7011
755.866
-12.7783
54.3295
756.465
-12.7925
78.2798
739.402
13.4209
56.5049
713.185
19.7479
39.566
696.967
16.4185
38.6671
693.585
5.55616
51.3929
703.11
-13.1756
64.102
730.649
-35.1024
67.4886
-33.7096
50.3963
564.363
-1050.67
-4320.04
377.708
-879.125
-858.004
667.064
-821.083
-524.216
777.524
-514.478
-88.8832
882.455
-213.711
-29.7409
876.946
74.6722
-26.1913
903.219
17.3186
104.618
9.34205
16.2888
6.92297
877.769
38.49
115.226
49.2402
36.6309
47.2596
830.416
32.285
121.471
21.5318
28.8329
17.8181
777.525
25.5244
123.778
28.5898
22.6153
26.7912
724.015
15.2343
105.005
8.68616
13.6282
7.49755
684.469
11.805
86.144
15.3223
11.3148
15.1723
652.745
10.8936
36.3196
8.08676
10.6588
7.93371
634.141
9.42496
17.8892
10.3187
9.84182
11.9567
625.075
28.3263
4.18336
628.891
18.2204
20.3287
652.458
-9.77592
30.1068
683.67
-39.846
43.1744
725.206
-75.6566
54.2838
-65.4148
51.228
270.833
-1341.47
-2746.33
712.652
-850.299
21.8227
816.54
-710.718
220.143
862.093
-549.459
147.707
938.285
-310.045
-23.042
237.445
-13.5201
-79.2335
229.779
219.35
211.97
29.3007
-4.82247
34.744
20.5338
233.915
21.9481
-21.6329
-6.0677
-221.351
222.155
37.4663
6.28715
-16.8813
-221.96
213.651
43.6459
13.8293
-21.4158
-203.621
198.984
32.2792
19.2979
-11.585
-194.447
184.281
24.5272
12.4579
-24.6996
-176.094
173.416
17.8391
21.3439
-6.85895
-171.253
167.793
17.8054
3.40711
10.7217
-164.724
164.103
10.2536
-10.9291
651.555
6.93181
-38.7243
-162.488
-171.553
-158.406
-164.029
2.41934
5.2346
2.50238
658.92
1.03223
-47.4391
683.786
-37.0354
-28.6256
717.179
-65.115
-8.47035
751.612
-98.4917
27.9194
-83.3071
41.2091
-515.666
-2885.52
-1990.73
91.7334
-1335.55
185.76
423.484
-1012.08
-200.141
490.772
-651.985
-15.3669
179.437
-434.987
-5.52752
162.693
166.504
149.923
19.7881
209.588
-44.1411
-19.3179
7.24957
-4.52082
-59.8054
60.2693
3.86458
-7.05723
6.31592
-58.1314
-8.72056
57.4363
8.51583
-5.41604
-0.00266756
-56.8716
-12.4071
56.5977
12.7799
-0.096297
0.318585
-55.5681
-10.4918
54.7486
11.6286
-0.635885
0.804212
-53.2391
-7.30078
52.4003
7.87661
-0.54128
-4.31468
-51.386
-6.03949
51.2221
6.56623
3.9518
-3.29363
-51.7744
-6.13085
51.8434
6.76734
2.5881
2.00755
-51.7047
-4.36824
51.2348
5.22538
-2.39475
-50.7677
12.5847
203.745
11.1668
-12.2107
-54.5077
-49.7593
-53.3188
776.254
36.9098
-28.8512
-199.103
-228.128
-188.542
-213.605
737.446
-5.52098
-80.7727
728.991
-57.1712
-68.1693
750.951
-110.138
-22.2864
-96.286
1.25914
1987.22
-1592.37
-1575.79
1371.09
-768.231
331.358
936.669
-628.167
-220.631
737.541
-487.287
-47.3949
194.388
-387.108
18.0926
188.794
182.172
176.477
-3.38996
70.341
201.263
-72.9444
-0.881434
3.41812
3.93918
-55.3582
57.161
-5.559
-3.60107
7.21368
-7.00417
-60.3322
60.7665
5.7788
-6.42266
4.84207
-12.2134
-61.4731
61.7093
11.6578
-4.52267
3.51317
-12.6869
-62.4782
62.4689
12.7077
-3.52473
-61.2687
0.959232
-8.95854
60.6886
9.33753
-0.758147
-60.3768
-2.09288