/*--------------------------------*- C++ -*----------------------------------*\
  =========                 |
  \\      /  F ield         | OpenFOAM: The Open Source CFD Toolbox
   \\    /   O peration     | Website:  https://openfoam.org
    \\  /    A nd           | Version:  10
     \\/     M anipulation  |
\*---------------------------------------------------------------------------*/
FoamFile
{
    format      ascii;
    class       volScalarField;
    location    "1.9";
    object      turbidity_0;
}
// * * * * * * * * * * * * * * * * * * * * * * * * * * * * * * * * * * * * * //

dimensions      [0 0 0 0 0 0 0];

internalField   nonuniform List<scalar> 
12920
(
-0.0286548
-0.0525867
-0.0674404
-0.0814009
-0.103995
-0.130722
-0.150311
-0.159779
-0.167654
-0.179964
-0.203549
-0.239663
-0.28709
-0.337886
-0.381795
-0.415773
-0.438185
-0.445331
-0.430918
-0.402256
-0.0478648
-0.0687834
-0.0868037
-0.112721
-0.140811
-0.172821
-0.201134
-0.222264
-0.238204
-0.256844
-0.282791
-0.314619
-0.347424
-0.374575
-0.394075
-0.405396
-0.406805
-0.396773
-0.373497
-0.35269
-0.0148995
-0.0278458
-0.0468277
-0.0707099
-0.0953652
-0.12632
-0.165805
-0.211967
-0.255068
-0.291151
-0.324152
-0.355994
-0.386011
-0.409519
-0.426176
-0.435972
-0.440639
-0.438084
-0.428257
-0.425465
-0.0151824
-0.0306939
-0.0445486
-0.0622864
-0.0832046
-0.111012
-0.152092
-0.210471
-0.272223
-0.326872
-0.374783
-0.41832
-0.457953
-0.488675
-0.504964
-0.507697
-0.508514
-0.51386
-0.527393
-0.542922
-0.0387283
-0.0375301
-0.0467996
-0.0604086
-0.07312
-0.0904904
-0.120278
-0.168963
-0.225349
-0.281975
-0.3352
-0.388622
-0.444748
-0.503583
-0.5574
-0.598054
-0.62654
-0.650099
-0.676888
-0.711725
-0.0254455
-0.039958
-0.0549208
-0.0686105
-0.0821355
-0.0990936
-0.123388
-0.157148
-0.196287
-0.240468
-0.287931
-0.342138
-0.410266
-0.493397
-0.575963
-0.642493
-0.690769
-0.724895
-0.751444
-0.783083
-0.029374
-0.0449769
-0.0611388
-0.0736724
-0.0872667
-0.100397
-0.117956
-0.144359
-0.183461
-0.239522
-0.309988
-0.385849
-0.440853
-0.456298
-0.452383
-0.451057
-0.453439
-0.462294
-0.484344
-0.531331
-0.0233798
-0.0377118
-0.0556765
-0.0781411
-0.0947775
-0.100625
-0.101922
-0.112447
-0.138492
-0.181527
-0.226759
-0.265443
-0.308303
-0.266266
-0.161771
-0.1698
-0.19891
-0.238263
-0.284022
-0.337387
-0.0173288
-0.0344265
-0.0547109
-0.0815902
-0.10601
-0.104073
-0.0988351
-0.0986638
-0.111819
-0.136292
-0.159899
-0.171027
-0.2025
-0.204619
-0.143076
-0.116186
-0.135228
-0.176972
-0.23289
-0.29197
-0.0179188
-0.0304939
-0.0477173
-0.0752525
-0.106848
-0.113603
-0.113945
-0.102033
-0.098181
-0.1081
-0.118449
-0.120509
-0.138827
-0.14763
-0.129993
-0.118708
-0.13545
-0.167117
-0.216531
-0.276878
-0.0301151
-0.0340231
-0.042735
-0.0627174
-0.0936663
-0.104649
-0.114512
-0.109854
-0.100469
-0.0972829
-0.0987636
-0.101275
-0.109039
-0.108082
-0.0993261
-0.111133
-0.130495
-0.159601
-0.205848
-0.267425
-0.0210224
-0.0338075
-0.0385379
-0.0542968
-0.0843313
-0.0967824
-0.116962
-0.127348
-0.115547
-0.105466
-0.102019
-0.102005
-0.0976008
-0.0924606
-0.101337
-0.105406
-0.13148
-0.165212
-0.21008
-0.269687
-0.0174817
-0.0373133
-0.0499202
-0.0706688
-0.101976
-0.138036
-0.142983
-0.143364
-0.140116
-0.132149
-0.125372
-0.122395
-0.128171
-0.141457
-0.179875
-0.195272
-0.202817
-0.218884
-0.249909
-0.295458
-0.0118513
-0.021513
-0.0388482
-0.0731896
-0.111626
-0.150462
-0.176874
-0.200756
-0.211932
-0.223644
-0.234566
-0.258457
-0.290811
-0.330488
-0.36569
-0.382468
-0.378221
-0.377808
-0.389346
-0.406144
-0.0116287
-0.0267968
-0.045646
-0.0944326
-0.145785
-0.180143
-0.203149
-0.221822
-0.23886
-0.257854
-0.279137
-0.307433
-0.340717
-0.373366
-0.398032
-0.408449
-0.406385
-0.391223
-0.363825
-0.339803
-0.00403581
-0.0181742
-0.0494135
-0.0899412
-0.124569
-0.149935
-0.176104
-0.198327
-0.222658
-0.24598
-0.273096
-0.301157
-0.330394
-0.34983
-0.354403
-0.338976
-0.312533
-0.284403
-0.259714
-0.251568
-0.0174904
-0.0492889
-0.0581407
-0.087277
-0.103787
-0.126397
-0.152596
-0.181642
-0.216691
-0.249798
-0.280375
-0.301103
-0.316055
-0.326066
-0.334455
-0.339503
-0.340532
-0.335466
-0.328977
-0.334848
-0.0243405
-0.0573935
-0.0598998
-0.0717393
-0.0822579
-0.0934019
-0.10895
-0.127196
-0.150367
-0.177592
-0.211041
-0.251273
-0.292633
-0.326411
-0.350984
-0.370936
-0.389704
-0.406104
-0.421592
-0.438803
-0.0471533
-0.071342
-0.071529
-0.0803441
-0.0960185
-0.115068
-0.140082
-0.165593
-0.194319
-0.222728
-0.256304
-0.290274
-0.322491
-0.352694
-0.381298
-0.409446
-0.437577
-0.465936
-0.496312
-0.529518
-0.0334236
-0.0637419
-0.0791322
-0.0939702
-0.111805
-0.131666
-0.152277
-0.173058
-0.194824
-0.219233
-0.246206
-0.274364
-0.30171
-0.327868
-0.35385
-0.382068
-0.416632
-0.464132
-0.529941
-0.611299
-0.0192913
-0.037571
-0.0466243
-0.0503707
-0.0587126
-0.0548591
-0.0484561
-0.0418665
-0.0375437
-0.0356394
-0.0372642
-0.0442901
-0.0583089
-0.078378
-0.0996152
-0.113891
-0.115074
-0.105738
-0.0914635
-0.0764935
-0.00765522
-0.0272491
-0.0358069
-0.0574283
-0.0702152
-0.0766354
-0.0807278
-0.0776845
-0.0710002
-0.0607655
-0.0531728
-0.0485086
-0.0475113
-0.0475694
-0.0478321
-0.0472711
-0.0462598
-0.0454774
-0.0459186
-0.0496225
-0.00662093
-0.00767376
-0.0142726
-0.0213031
-0.0300478
-0.0375083
-0.0495288
-0.0548232
-0.0581626
-0.0572211
-0.0587463
-0.061279
-0.0658488
-0.0692428
-0.0710329
-0.0712573
-0.07158
-0.0741277
-0.0825636
-0.101838
-0.00182249
-0.00388896
-0.00839716
-0.0161818
-0.029001
-0.0427909
-0.0595634
-0.0684503
-0.0797759
-0.0915637
-0.108872
-0.12377
-0.136427
-0.139102
-0.136106
-0.13221
-0.134457
-0.149543
-0.187217
-0.243209
-0.00548272
-0.00873933
-0.0100871
-0.0146845
-0.0248322
-0.0328499
-0.041347
-0.04536
-0.0557559
-0.0758722
-0.108776
-0.147699
-0.187232
-0.215671
-0.234148
-0.248177
-0.26684
-0.294691
-0.323971
-0.331615
-0.00185061
-0.0152382
-0.0218741
-0.0279677
-0.0394289
-0.0449669
-0.0479448
-0.0487538
-0.0607264
-0.080376
-0.118636
-0.166062
-0.212615
-0.242072
-0.260616
-0.281798
-0.299839
-0.304859
-0.29589
-0.271195
-0.00564525
-0.0157657
-0.0216951
-0.0222619
-0.030571
-0.0407799
-0.0537079
-0.0659618
-0.0833619
-0.112428
-0.149723
-0.174413
-0.161583
-0.147287
-0.139593
-0.145305
-0.146035
-0.143475
-0.141724
-0.138263
-0.0036137
-0.0257334
-0.0307094
-0.0234671
-0.0219088
-0.0283295
-0.0351464
-0.052372
-0.0722437
-0.0897687
-0.122922
-0.168486
-0.14887
-0.0962465
-0.0527516
-0.0450136
-0.0476243
-0.0613804
-0.0795181
-0.0924888
-0.00358789
-0.0146075
-0.0220031
-0.0228936
-0.0286907
-0.0259379
-0.0281021
-0.0381807
-0.0539758
-0.062573
-0.0794796
-0.128403
-0.152811
-0.118089
-0.0802579
-0.0558348
-0.0481722
-0.0491601
-0.0601605
-0.0694024
-0.00146531
-0.0100714
-0.0135774
-0.0227556
-0.0411746
-0.0423086
-0.0352391
-0.029901
-0.0335856
-0.0379509
-0.0559484
-0.0961764
-0.100982
-0.078738
-0.062322
-0.060081
-0.0601447
-0.0609659
-0.0659043
-0.0678063
-0.00205245
-0.00841606
-0.00916277
-0.0168381
-0.0405642
-0.0561368
-0.0687611
-0.0532349
-0.0368372
-0.0356824
-0.0585044
-0.0898656
-0.102201
-0.103642
-0.0896894
-0.063929
-0.0667557
-0.0731342
-0.0784419
-0.078072
-0.00521427
-0.00567792
-0.00631338
-0.0101552
-0.0257394
-0.0386559
-0.0529105
-0.0780035
-0.0939254
-0.096686
-0.100584
-0.103886
-0.0962128
-0.0690705
-0.0333233
-0.042296
-0.0517489
-0.0620204
-0.0733336
-0.0853454
-0.00943105
-0.0118119
-0.0152174
-0.0183243
-0.0278302
-0.0304835
-0.0369073
-0.0505404
-0.0572853
-0.0600471
-0.0501847
-0.036948
-0.0303695
-0.0340344
-0.0553025
-0.0626065
-0.0717086
-0.0864254
-0.106564
-0.132247
-0.0027547
-0.0114539
-0.0233696
-0.0332831
-0.0433514
-0.0415989
-0.0350011
-0.0311257
-0.0298985
-0.036142
-0.0466364
-0.0650833
-0.0903903
-0.120634
-0.148868
-0.172777
-0.186457
-0.196827
-0.204599
-0.21029
-0.0102943
-0.0234403
-0.0399541
-0.0506244
-0.0463328
-0.0357084
-0.0314228
-0.0337649
-0.0408743
-0.0512775
-0.0681832
-0.0867593
-0.108061
-0.124547
-0.136627
-0.14147
-0.139617
-0.127427
-0.113201
-0.103267
-0.00431346
-0.0124596
-0.0232681
-0.029055
-0.027609
-0.0204147
-0.0202934
-0.0233497
-0.0303765
-0.0383641
-0.0474867
-0.0523459
-0.0535097
-0.0505559
-0.0476193
-0.0458049
-0.0461606
-0.0470707
-0.049473
-0.05244
-0.00362555
-0.0121371
-0.0140201
-0.0142139
-0.0128828
-0.0145953
-0.0195552
-0.0255007
-0.0332122
-0.0376557
-0.0384805
-0.0374913
-0.0369416
-0.0366174
-0.0373902
-0.0397961
-0.04417
-0.0507417
-0.0596468
-0.0684705
-0.016887
-0.0212666
-0.015481
-0.0122585
-0.0108133
-0.0119253
-0.0159815
-0.0230176
-0.0352688
-0.049985
-0.0660398
-0.0705486
-0.063401
-0.0534078
-0.0507359
-0.0570502
-0.0734181
-0.101496
-0.143775
-0.183928
-0.0213347
-0.0280725
-0.0201925
-0.0169839
-0.0149735
-0.0164444
-0.0202936
-0.0248709
-0.0308574
-0.0382428
-0.049579
-0.0615854
-0.0767852
-0.0928579
-0.114426
-0.140792
-0.173325
-0.210033
-0.25167
-0.28932
-0.00150794
-0.025883
-0.0408049
-0.0464887
-0.0504378
-0.0537251
-0.0581927
-0.0633485
-0.0741084
-0.086413
-0.099264
-0.108551
-0.115312
-0.119208
-0.124181
-0.136787
-0.168909
-0.225303
-0.292506
-0.339368
-0.0238827
-0.0294897
-0.0310831
-0.0337247
-0.0358697
-0.033414
-0.0316004
-0.0303642
-0.0299459
-0.0300847
-0.0313617
-0.0346446
-0.0406434
-0.0486189
-0.0557454
-0.0593153
-0.0579384
-0.0532995
-0.0472794
-0.0419612
-0.00869701
-0.0236095
-0.0253492
-0.0337034
-0.0341659
-0.0337212
-0.0338736
-0.0314635
-0.0291995
-0.0272622
-0.0268969
-0.0272764
-0.0280058
-0.0286394
-0.0291991
-0.029808
-0.0307275
-0.0327071
-0.03734
-0.0461876
-0.00662105
-0.00959176
-0.0117842
-0.0128863
-0.0138608
-0.0158214
-0.0202331
-0.0224005
-0.0248603
-0.026913
-0.030102
-0.0331467
-0.0358933
-0.0377131
-0.0393181
-0.0414125
-0.0451358
-0.0515914
-0.0627579
-0.0777894
-0.000898831
-0.00337357
-0.00668521
-0.0111471
-0.0179262
-0.0218875
-0.0272224
-0.0306974
-0.0384092
-0.0468534
-0.0571301
-0.0645211
-0.0693623
-0.0699086
-0.0695371
-0.0708103
-0.0767759
-0.0899201
-0.11229
-0.135405
-0.00133512
-0.00322285
-0.00509644
-0.00740374
-0.012736
-0.0162215
-0.0206739
-0.0265723
-0.0381601
-0.0530504
-0.0717433
-0.0895094
-0.104525
-0.113108
-0.119808
-0.128301
-0.141467
-0.156379
-0.164649
-0.153125
-0.00281927
-0.00704213
-0.0102208
-0.013435
-0.0200882
-0.0214026
-0.0239643
-0.029048
-0.0417739
-0.0586941
-0.0813201
-0.102627
-0.118201
-0.121238
-0.123973
-0.135167
-0.146787
-0.147333
-0.13539
-0.113
-0.00228791
-0.00836056
-0.0125739
-0.0163712
-0.022336
-0.0260723
-0.0324957
-0.0391167
-0.0518988
-0.0725629
-0.0889574
-0.0881996
-0.0712648
-0.0635807
-0.0641744
-0.0697375
-0.0714812
-0.0696738
-0.0663622
-0.0597725
-0.00300398
-0.0115534
-0.0108932
-0.0114003
-0.0148823
-0.0195978
-0.0233492
-0.0314359
-0.0417957
-0.0578193
-0.0826301
-0.0942993
-0.0685294
-0.0453803
-0.0352092
-0.0353593
-0.0370525
-0.0408551
-0.0457323
-0.0477873
-0.00235956
-0.00763408
-0.0109532
-0.0130366
-0.0146848
-0.0156724
-0.0184738
-0.0227945
-0.0291614
-0.038169
-0.0583861
-0.0817778
-0.0793369
-0.0594772
-0.0468836
-0.0390009
-0.0358146
-0.0371883
-0.0407707
-0.0416258
-0.00099656
-0.00590166
-0.00984868
-0.0156977
-0.0212199
-0.0199075
-0.0176075
-0.0170458
-0.0192577
-0.0274101
-0.0455068
-0.0562887
-0.0500717
-0.0458679
-0.044438
-0.0444952
-0.0453546
-0.0462311
-0.0484717
-0.0480237
-0.00211682
-0.00473987
-0.00745944
-0.0139807
-0.0262554
-0.0324438
-0.0365447
-0.0277772
-0.0246788
-0.0335394
-0.0498879
-0.0587188
-0.0509812
-0.0440861
-0.0403589
-0.0413142
-0.0463071
-0.0520559
-0.0571625
-0.0579554
-0.00520221
-0.00463917
-0.00524335
-0.00894142
-0.019111
-0.0247535
-0.0300714
-0.0422587
-0.0529575
-0.0624156
-0.0717465
-0.0700513
-0.0518951
-0.035615
-0.0307444
-0.0448783
-0.0503776
-0.0566466
-0.0630624
-0.0655389
-0.00512451
-0.0107672
-0.0122636
-0.0120571
-0.0153155
-0.0158666
-0.0172491
-0.0228343
-0.0267927
-0.0291861
-0.0258908
-0.022299
-0.0242264
-0.0321739
-0.0491793
-0.0552803
-0.061428
-0.0694899
-0.0798639
-0.0915404
-0.00483434
-0.0115298
-0.0143444
-0.0153995
-0.017927
-0.016732
-0.0152792
-0.0168651
-0.0188958
-0.0241985
-0.0308089
-0.0413822
-0.0544908
-0.0708744
-0.0867362
-0.102713
-0.114935
-0.123877
-0.127864
-0.129737
-0.00538507
-0.0128835
-0.0183376
-0.0204809
-0.0167759
-0.0167736
-0.0170174
-0.021103
-0.0259761
-0.0327659
-0.0409011
-0.049469
-0.0592425
-0.0680086
-0.0764102
-0.0834193
-0.0889891
-0.0910538
-0.0915024
-0.0905001
-0.00236958
-0.00638687
-0.0101932
-0.0118032
-0.012271
-0.0132912
-0.0164156
-0.0204374
-0.025618
-0.0299628
-0.0342609
-0.0367983
-0.0397746
-0.0420082
-0.0450968
-0.0474352
-0.0502084
-0.0517286
-0.0534171
-0.0550346
-0.00405172
-0.00719684
-0.00791495
-0.00923622
-0.0109324
-0.0127741
-0.0159073
-0.018927
-0.0226733
-0.0253718
-0.027989
-0.0303626
-0.033027
-0.0359168
-0.0393541
-0.0440697
-0.050127
-0.0583238
-0.0690599
-0.0810968
-0.0293747
-0.0280537
-0.0193814
-0.0131555
-0.011105
-0.0120812
-0.0152017
-0.0196208
-0.0252572
-0.0297494
-0.0335404
-0.0345594
-0.0357035
-0.0401991
-0.0492138
-0.0624963
-0.0792706
-0.0983663
-0.120466
-0.141403
-0.00830406
-0.0124146
-0.0119832
-0.0116826
-0.0122653
-0.0141972
-0.0171734
-0.0204385
-0.0241618
-0.0283402
-0.0337631
-0.0409543
-0.0514616
-0.0654577
-0.0837372
-0.105567
-0.130944
-0.157887
-0.184059
-0.199725
-0.00178322
-0.0143359
-0.0241788
-0.0279508
-0.0300782
-0.0301514
-0.0302137
-0.0314801
-0.0375253
-0.0443932
-0.0512769
-0.0557042
-0.0592232
-0.0632594
-0.0719218
-0.0900926
-0.122939
-0.169037
-0.214011
-0.232363
-0.0108803
-0.0206286
-0.0249852
-0.0267576
-0.0261842
-0.0244026
-0.023337
-0.0228201
-0.0231387
-0.0239983
-0.0256291
-0.0281909
-0.0316051
-0.0348329
-0.0364647
-0.0358711
-0.033552
-0.0303914
-0.0272591
-0.0248419
-0.00284029
-0.0206692
-0.0222181
-0.0231696
-0.0198522
-0.0193784
-0.0197842
-0.0198953
-0.0203997
-0.0209616
-0.0217723
-0.0224593
-0.0230205
-0.023301
-0.0233245
-0.023207
-0.0231501
-0.0235746
-0.0249165
-0.026701
-0.00295385
-0.00987084
-0.0100575
-0.0105419
-0.0105835
-0.0119297
-0.0143378
-0.0162365
-0.0184089
-0.0201878
-0.0220196
-0.0233454
-0.0244974
-0.0254566
-0.0266296
-0.0280419
-0.0299385
-0.0323298
-0.0348223
-0.0359631
-0.0010947
-0.0032218
-0.00533963
-0.0074523
-0.0105546
-0.0127292
-0.0168111
-0.0206735
-0.0261593
-0.0303272
-0.0344082
-0.0362508
-0.0372265
-0.0371827
-0.0379348
-0.0399724
-0.0438022
-0.0488594
-0.0544158
-0.054641
-0.00220547
-0.00273461
-0.00411034
-0.0056934
-0.00851433
-0.0111507
-0.0162289
-0.0225192
-0.0311276
-0.0387751
-0.0467307
-0.0521782
-0.056181
-0.0585225
-0.0619441
-0.0667856
-0.0726577
-0.0760007
-0.0729474
-0.060331
-0.00267664
-0.00544583
-0.00805266
-0.00888759
-0.0119157
-0.0138408
-0.0191545
-0.0260297
-0.0361251
-0.0451221
-0.053594
-0.0576022
-0.0584078
-0.0556459
-0.0553662
-0.0592797
-0.0633888
-0.061936
-0.0540023
-0.0413486
-0.000533398
-0.00380253
-0.00839352
-0.0117853
-0.0155172
-0.0177574
-0.0228499
-0.0293437
-0.0402552
-0.0512165
-0.0527385
-0.045096
-0.0349849
-0.0319349
-0.0326383
-0.0347402
-0.0352127
-0.0334844
-0.0303016
-0.0251332
-0.00312273
-0.00493972
-0.00727479
-0.00909842
-0.0115839
-0.0145314
-0.0170808
-0.0240402
-0.0338048
-0.0473024
-0.0569696
-0.0506843
-0.0338216
-0.0260505
-0.0255417
-0.0270716
-0.0275255
-0.0273166
-0.0268527
-0.0247908
-0.00441482
-0.00580413
-0.00908147
-0.0106288
-0.0116956
-0.0127806
-0.014486
-0.0181036
-0.0260735
-0.0371475
-0.0507265
-0.0565601
-0.0482036
-0.0363639
-0.0277704
-0.0234544
-0.0216364
-0.0208361
-0.019705
-0.0173589
-0.00163811
-0.00440011
-0.00851128
-0.0127947
-0.0144103
-0.0141452
-0.0142081
-0.0157027
-0.0201272
-0.0278126
-0.0357789
-0.0410599
-0.0467591
-0.0525656
-0.05346
-0.0446466
-0.0393695
-0.0339707
-0.0287886
-0.022153
-0.0012186
-0.00247575
-0.00540849
-0.0115945
-0.0166332
-0.0190803
-0.0210633
-0.0198101
-0.0218275
-0.0272806
-0.0315551
-0.029166
-0.026458
-0.0294981
-0.0424593
-0.0486267
-0.0484211
-0.0464926
-0.0412286
-0.0320715
-0.00265293
-0.00515931
-0.00730319
-0.0103301
-0.0143971
-0.0161846
-0.0176724
-0.0229083
-0.0280842
-0.0326418
-0.0338088
-0.0281201
-0.0230135
-0.0256969
-0.0434117
-0.0494252
-0.0504997
-0.0494445
-0.0460994
-0.0381253
-0.00386369
-0.00949157
-0.0125591
-0.0121871
-0.0119109
-0.0121357
-0.0125207
-0.0146565
-0.0160982
-0.0170471
-0.018369
-0.0222768
-0.030009
-0.0390637
-0.0467928
-0.0506187
-0.0542199
-0.0577771
-0.0613886
-0.0632301
-0.00293952
-0.00864936
-0.00968906
-0.0104185
-0.0114619
-0.0127629
-0.0135165
-0.0172946
-0.0202829
-0.0254322
-0.0304675
-0.0375766
-0.0452617
-0.0548165
-0.0639303
-0.0729386
-0.0794939
-0.0830352
-0.082787
-0.0812235
-0.00444888
-0.00938161
-0.0103231
-0.0122474
-0.0140088
-0.0168073
-0.0171934
-0.0208668
-0.0245006
-0.0291384
-0.0343379
-0.039862
-0.0461687
-0.0521746
-0.0580746
-0.0625182
-0.0654366
-0.0656567
-0.0645842
-0.0618936
-0.00170371
-0.00434424
-0.00729816
-0.00963899
-0.012838
-0.0162975
-0.0192522
-0.0224557
-0.025797
-0.0287943
-0.0320971
-0.0346013
-0.037557
-0.0393883
-0.0413686
-0.0420403
-0.0425564
-0.0418957
-0.0411121
-0.0402256
-0.00083704
-0.00354688
-0.00600344
-0.00893362
-0.0127077
-0.0157056
-0.0191432
-0.0221568
-0.0254414
-0.0287515
-0.0321017
-0.0354411
-0.0383851
-0.0413023
-0.0436737
-0.0455545
-0.0464284
-0.0466684
-0.0470645
-0.0488862
-0.0167791
-0.0123073
-0.00951865
-0.00974946
-0.0112146
-0.0137482
-0.0169781
-0.0205871
-0.0243215
-0.0283297
-0.0328298
-0.0385415
-0.0455711
-0.0535831
-0.0615373
-0.06843
-0.0736693
-0.0761455
-0.076639
-0.0762523
-0.0033843
-0.0059637
-0.00929671
-0.0113431
-0.0127478
-0.014573
-0.0176272
-0.0217742
-0.026375
-0.0313237
-0.0369756
-0.0438427
-0.0523614
-0.0625941
-0.0749342
-0.088702
-0.103128
-0.114728
-0.120214
-0.11318
-0.000826445
-0.00816664
-0.0150635
-0.0188705
-0.0200807
-0.0187412
-0.0179089
-0.0189436
-0.0231381
-0.027419
-0.0316789
-0.0352136
-0.0397069
-0.0468297
-0.0592157
-0.0789205
-0.106654
-0.137826
-0.160725
-0.160912
-0.00193945
-0.0177918
-0.0172612
-0.0169727
-0.0158642
-0.0144223
-0.0141859
-0.0146094
-0.015771
-0.0174159
-0.019415
-0.0209486
-0.0215619
-0.020924
-0.0193435
-0.0174559
-0.0156021
-0.0139483
-0.0126001
-0.0116492
-0.00269998
-0.0153451
-0.0141307
-0.0149439
-0.0145052
-0.0152171
-0.0157264
-0.0162183
-0.0169625
-0.0174568
-0.0177118
-0.0174107
-0.016627
-0.0153969
-0.0138337
-0.0121748
-0.0106699
-0.00956263
-0.00910907
-0.00942321
-0.00377096
-0.00794023
-0.00767179
-0.00860176
-0.0100506
-0.0123436
-0.0144053
-0.0158905
-0.0171503
-0.017774
-0.01803
-0.0176639
-0.0169136
-0.0157597
-0.0144155
-0.012999
-0.0115886
-0.0101933
-0.00885062
-0.00780826
-0.000542258
-0.00263943
-0.0049645
-0.00752851
-0.0101752
-0.0129587
-0.0159203
-0.0177825
-0.0196364
-0.0202208
-0.0206492
-0.0201473
-0.0195512
-0.0185523
-0.0176979
-0.0169856
-0.0164208
-0.0153311
-0.013375
-0.0100171
-0.000671303
-0.0018091
-0.00334627
-0.00609708
-0.00940746
-0.0130707
-0.0172181
-0.0199926
-0.0227505
-0.0238217
-0.0248985
-0.0249109
-0.0250204
-0.0249826
-0.0254904
-0.0257381
-0.0253824
-0.0233221
-0.0190338
-0.0130417
-0.00202766
-0.00462307
-0.00600998
-0.00833023
-0.011615
-0.0153602
-0.0198229
-0.0225195
-0.025067
-0.0253076
-0.0248521
-0.0229919
-0.0212197
-0.019449
-0.0186722
-0.0183096
-0.0174487
-0.0152078
-0.0119766
-0.00810947
-0.00163786
-0.00396335
-0.00688804
-0.0101253
-0.0133546
-0.0168349
-0.0212049
-0.0245036
-0.0268354
-0.0265284
-0.0216063
-0.0162408
-0.0118931
-0.010415
-0.0096227
-0.00914962
-0.0084509
-0.00743165
-0.00620892
-0.00456073
-0.00149814
-0.00525556
-0.00742521
-0.00959718
-0.0124994
-0.0161837
-0.0186069
-0.0235407
-0.0262406
-0.0289367
-0.0255033
-0.0177122
-0.0111923
-0.00917792
-0.00762061
-0.0075264
-0.00728714
-0.00695731
-0.00646104
-0.00520359
-0.00480848
-0.0064413
-0.00928006
-0.0111748
-0.0137536
-0.0157697
-0.0175343
-0.0214298
-0.0262099
-0.0299401
-0.0311821
-0.0271406
-0.018337
-0.011423
-0.00731157
-0.00404045
-0.00332209
-0.00272772
-0.0022926
-0.00197071
-0.00144067
-0.00557753
-0.00991084
-0.0127021
-0.0146406
-0.0159109
-0.0176491
-0.0201656
-0.0239333
-0.0286595
-0.034081
-0.0393223
-0.0414397
-0.0392643
-0.0250341
-0.0113913
-0.00630958
-0.00339558
-0.00196989
-0.00127122
-0.000701924
-0.00372509
-0.0080422
-0.01215
-0.014402
-0.0155499
-0.0167496
-0.0182558
-0.02013
-0.0223968
-0.0251626
-0.0301296
-0.0381671
-0.0436627
-0.0350072
-0.0199212
-0.0145668
-0.00890512
-0.00531666
-0.00262601
-0.00212725
-0.00774319
-0.00971647
-0.0112353
-0.0132282
-0.0141637
-0.0149058
-0.0159933
-0.0170847
-0.0184207
-0.0205614
-0.0256696
-0.0342872
-0.0389008
-0.0311712
-0.0179346
-0.0138947
-0.0100755
-0.0074573
-0.0044838
-0.00157373
-0.00530151
-0.00907563
-0.0100317
-0.0119439
-0.0147099
-0.0154507
-0.0173617
-0.0192435
-0.0208404
-0.0231862
-0.0252056
-0.0270684
-0.0285127
-0.0267112
-0.0254742
-0.0239506
-0.022981
-0.0216924
-0.0180314
-0.0031577
-0.00592678
-0.00787889
-0.0100694
-0.0125135
-0.0161025
-0.0188097
-0.0231775
-0.0258286
-0.0296819
-0.0322276
-0.0361526
-0.039103
-0.0425683
-0.043975
-0.0439625
-0.0420823
-0.0393126
-0.0361365
-0.0332775
-0.00366608
-0.0062861
-0.00898603
-0.0126812
-0.016677
-0.0202376
-0.0219005
-0.0249011
-0.027483
-0.029623
-0.0319049
-0.0328953
-0.0342505
-0.0338769
-0.0331736
-0.0307589
-0.0282517
-0.0251821
-0.0225658
-0.0192872
-0.00102662
-0.00315586
-0.00656504
-0.011802
-0.0170152
-0.0212705
-0.0238033
-0.0263718
-0.0279254
-0.029126
-0.0292775
-0.0285797
-0.0271875
-0.0252017
-0.0229245
-0.0204355
-0.018104
-0.0159941
-0.0144345
-0.0134636
-0.000775467
-0.00404636
-0.0072248
-0.0130001
-0.0184023
-0.0232993
-0.0270291
-0.0304333
-0.0328257
-0.0359716
-0.0375902
-0.0397379
-0.0400982
-0.0403667
-0.0387524
-0.036145
-0.0320591
-0.0273895
-0.0229319
-0.0197986
-0.00172286
-0.00956198
-0.0105527
-0.0119571
-0.0153261
-0.020583
-0.0262006
-0.031324
-0.0356172
-0.0402495
-0.0445597
-0.0493244
-0.0536463
-0.0570931
-0.0589399
-0.0584082
-0.054934
-0.0483564
-0.0396261
-0.0305246
-0.00175744
-0.00448737
-0.00796423
-0.0106579
-0.0126311
-0.0165823
-0.0224099
-0.0284689
-0.0337412
-0.0381954
-0.042843
-0.0479056
-0.0539617
-0.060731
-0.0680605
-0.0744421
-0.0784996
-0.0773764
-0.0697014
-0.0552923
-0.00264432
-0.00800872
-0.0107544
-0.0128635
-0.0132083
-0.0127041
-0.014084
-0.0173198
-0.0213194
-0.0249296
-0.0288314
-0.0335183
-0.0400066
-0.0490066
-0.0611486
-0.0760137
-0.0921641
-0.105387
-0.109754
-0.100571
-0.0404601
-0.0304813
-0.0427714
-0.0284023
-0.0359709
-0.030166
-0.0376659
-0.0557167
-0.0472441
-0.0559471
-0.0380859
-0.042082
-0.0392866
-0.037927
-0.0454235
-0.0553981
-0.064569
-0.0315369
-0.0369593
-0.0385559
-0.0428762
-0.0584467
-0.0673775
-0.0716556
-0.0376424
-0.0353107
-0.0434335
-0.0409118
-0.0974662
-0.100958
-0.0949709
-0.0797646
-0.072514
-0.0829483
-0.0611902
-0.107003
-0.0939706
-0.0964529
-0.0757975
-0.0972896
-0.0589896
-0.0669123
-0.128562
-0.0988629
-0.109279
-0.107088
-0.128654
-0.0734907
-0.0914602
-0.15508
-0.113304
-0.123839
-0.134544
-0.143058
-0.0940291
-0.0991211
-0.167455
-0.126093
-0.127353
-0.146743
-0.162336
-0.103386
-0.120192
-0.192742
-0.128504
-0.143249
-0.169479
-0.193242
-0.126521
-0.145351
-0.212281
-0.149959
-0.161505
-0.199159
-0.194269
-0.148902
-0.144174
-0.165591
-0.161173
-0.149978
-0.182118
-0.136276
-0.13962
-0.127728
-0.105311
-0.11573
-0.11104
-0.101244
-0.0691468
-0.112421
-0.101302
-0.0974634
-0.108474
-0.10095
-0.0628661
-0.0620752
-0.092868
-0.0714358
-0.105043
-0.0992807
-0.0980041
-0.0663132
-0.0798911
-0.067841
-0.0654374
-0.116544
-0.0985497
-0.101256
-0.0822481
-0.0894242
-0.0662442
-0.0745165
-0.119407
-0.102066
-0.103234
-0.0944252
-0.111429
-0.0803292
-0.0967258
-0.133334
-0.10436
-0.112028
-0.11737
-0.133556
-0.101186
-0.112829
-0.147923
-0.114793
-0.118473
-0.135741
-0.127959
-0.115465
-0.117881
-0.139457
-0.117808
-0.111327
-0.123146
-0.111324
-0.117185
-0.112434
-0.112023
-0.117831
-0.123231
-0.11099
-0.108515
-0.112455
-0.119634
-0.102495
-0.121926
-0.112339
-0.103741
-0.083874
-0.1194
-0.112542
-0.0973863
-0.109262
-0.102132
-0.0786189
-0.0710183
-0.109498
-0.101687
-0.0983214
-0.10056
-0.0981045
-0.0707544
-0.0774934
-0.10015
-0.0989708
-0.100074
-0.0978834
-0.0994741
-0.0822196
-0.0958753
-0.0993891
-0.102419
-0.107307
-0.100475
-0.101228
-0.0996485
-0.109637
-0.104021
-0.107914
-0.109642
-0.100263
-0.0950758
-0.112026
-0.114753
-0.107995
-0.102956
-0.0997106
-0.0934624
-0.0926838
-0.11431
-0.110244
-0.0997975
-0.0878973
-0.127069
-0.125939
-0.13509
-0.110486
-0.122434
-0.121473
-0.131109
-0.119211
-0.134769
-0.130552
-0.123703
-0.1195
-0.130958
-0.12799
-0.107235
-0.128406
-0.121107
-0.116826
-0.109924
-0.126491
-0.121387
-0.102479
-0.118661
-0.112145
-0.108429
-0.106037
-0.119532
-0.113541
-0.102033
-0.110098
-0.104463
-0.105741
-0.106547
-0.111312
-0.103099
-0.0993307
-0.102803
-0.0999131
-0.107259
-0.106908
-0.0994595
-0.0855393
-0.0929107
-0.100265
-0.107452
-0.105049
-0.0942994
-0.0803479
-0.0654598
-0.0963189
-0.111728
-0.12676
-0.0894695
-0.0720007
-0.0612923
-0.0540517
-0.034728
-0.0262454
-0.0283658
-0.0264418
-0.0315006
-0.0231945
-0.0235493
-0.0496108
-0.0298899
-0.0355667
-0.0345197
-0.0431324
-0.0243893
-0.0281605
-0.0613008
-0.0374697
-0.0414308
-0.0456724
-0.0501776
-0.0293873
-0.032796
-0.0716585
-0.0425255
-0.0520813
-0.0525387
-0.0644079
-0.0346891
-0.046139
-0.114449
-0.0595742
-0.0926232
-0.0713154
-0.0921071
-0.0515324
-0.0658533
-0.153087
-0.102351
-0.114532
-0.0986623
-0.105917
-0.0685227
-0.0686274
-0.13018
-0.112125
-0.0965322
-0.102803
-0.0860736
-0.0668979
-0.0612735
-0.0894696
-0.0916847
-0.0861134
-0.0785012
-0.0602186
-0.0598622
-0.0581728
-0.0300921
-0.0519664
-0.0399071
-0.0302318
-0.0237974
-0.039187
-0.0315573
-0.0323598
-0.0366445
-0.0315831
-0.0234065
-0.0249528
-0.0293444
-0.0258041
-0.0367465
-0.0308971
-0.0313478
-0.0258488
-0.0295115
-0.0257521
-0.0292703
-0.0482371
-0.032613
-0.0446995
-0.031732
-0.0438471
-0.0318575
-0.0438823
-0.0876275
-0.0535504
-0.0823111
-0.0492555
-0.0626296
-0.0490296
-0.0625715
-0.104461
-0.0889628
-0.0994743
-0.0644203
-0.0609262
-0.0644538
-0.0606367
-0.0839747
-0.100348
-0.0988291
-0.0582395
-0.051169
-0.0576468
-0.0493462
-0.0701528
-0.0977569
-0.093889
-0.0496267
-0.0480772
-0.0473463
-0.043773
-0.0598236
-0.0649987
-0.0784754
-0.0524977
-0.0430932
-0.0528568
-0.0571094
-0.0393086
-0.0834312
-0.0858085
-0.0392931
-0.0317968
-0.0580564
-0.056836
-0.0346133
-0.0841064
-0.0811896
-0.0309412
-0.0333309
-0.0563038
-0.0583281
-0.049347
-0.0820079
-0.0885692
-0.0356564
-0.0468296
-0.0604471
-0.0695314
-0.0842005
-0.0912075
-0.0982679
-0.0518346
-0.0653871
-0.0727803
-0.0796592
-0.100421
-0.100367
-0.103577
-0.0674323
-0.065491
-0.0802102
-0.0748368
-0.103949
-0.102755
-0.0934904
-0.063478
-0.0578544
-0.0710822
-0.0579765
-0.100758
-0.0886602
-0.0718243
-0.0565028
-0.0537662
-0.0538983
-0.0448848
-0.0699646
-0.0421281
-0.0496892
-0.044736
-0.0528618
-0.0356597
-0.0387164
-0.0925451
-0.0557137
-0.0788092
-0.055625
-0.0608519
-0.0412141
-0.0495634
-0.0957982
-0.0858898
-0.0973752
-0.0619727
-0.0669788
-0.0522706
-0.0588478
-0.0997058
-0.0982847
-0.0948512
-0.0694308
-0.0771863
-0.0601702
-0.0595998
-0.103246
-0.0921311
-0.0784575
-0.0793402
-0.0819084
-0.0578387
-0.0476944
-0.100301
-0.0715467
-0.0470103
-0.080606
-0.0685823
-0.0430703
-0.029929
-0.0767248
-0.0398735
-0.0283516
-0.0627349
-0.0460117
-0.0269431
-0.0237477
-0.0470879
-0.0274559
-0.0300236
-0.0416484
-0.0338504
-0.0243931
-0.0296983
-0.021376
-0.0159242
-0.0172005
-0.0181673
-0.0202154
-0.0156938
-0.0165549
-0.0272183
-0.0176702
-0.019486
-0.0213044
-0.0253394
-0.0169555
-0.019353
-0.034766
-0.0204351
-0.0255878
-0.0276608
-0.0351025
-0.0207629
-0.0269165
-0.0517555
-0.0284532
-0.0412287
-0.0390283
-0.0517736
-0.029496
-0.0379191
-0.0771039
-0.0463435
-0.0580642
-0.0565523
-0.0658603
-0.040598
-0.0470519
-0.0834571
-0.0596554
-0.0584834
-0.066952
-0.0640663
-0.0486593
-0.0521815
-0.0641914
-0.057243
-0.054414
-0.0608634
-0.0498399
-0.052991
-0.0546404
-0.0486996
-0.0539178
-0.0539457
-0.045805
-0.0355705
-0.0549224
-0.0546757
-0.0168975
-0.0240167
-0.0203723
-0.0169829
-0.0163616
-0.0202708
-0.0191262
-0.0183754
-0.0197732
-0.0201845
-0.0165996
-0.0187783
-0.0192125
-0.020943
-0.0244611
-0.0210086
-0.0264565
-0.0201085
-0.0259577
-0.0220742
-0.0271758
-0.0318342
-0.0311154
-0.02725
-0.0281835
-0.0310385
-0.0316467
-0.0282726
-0.0467759
-0.0501108
-0.0455721
-0.0433288
-0.0501312
-0.0464885
-0.0437407
-0.0519677
-0.0561878
-0.0496405
-0.0428655
-0.0452862
-0.0362688
-0.0312037
-0.0463697
-0.0465914
-0.0394465
-0.0462748
-0.0495433
-0.0301842
-0.0298487
-0.0462597
-0.0379649
-0.0358574
-0.0505604
-0.0525206
-0.030564
-0.0345245
-0.0303825
-0.0365693
-0.0437438
-0.0284701
-0.0241668
-0.0296403
-0.0308772
-0.024372
-0.0458311
-0.0478
-0.0232927
-0.0233792
-0.0313221
-0.0321733
-0.0296858
-0.0482837
-0.0528036
-0.0242126
-0.0286627
-0.032841
-0.0368105
-0.041131
-0.0368685
-0.0386448
-0.0337676
-0.0422296
-0.0367492
-0.0377219
-0.0551638
-0.0538108
-0.0546329
-0.0498436
-0.0583819
-0.053406
-0.0522878
-0.0534125
-0.071029
-0.0629914
-0.0343015
-0.0299074
-0.0387764
-0.0316507
-0.0452599
-0.0590261
-0.0475089
-0.0288589
-0.0279166
-0.0297338
-0.0265857
-0.0420647
-0.0444266
-0.0383601
-0.028278
-0.0311089
-0.0263647
-0.0282242
-0.038513
-0.0224278
-0.0253445
-0.0254351
-0.0280011
-0.0198065
-0.0201088
-0.0508948
-0.0286003
-0.0400768
-0.0292672
-0.0327149
-0.021233
-0.0248766
-0.0597598
-0.0433181
-0.0502731
-0.0339196
-0.0384759
-0.025917
-0.0283294
-0.0699568
-0.051549
-0.0508989
-0.0401094
-0.0432716
-0.0286785
-0.0272947
-0.0722201
-0.0492048
-0.0400617
-0.0432692
-0.0390837
-0.0261739
-0.0221433
-0.0571184
-0.0361502
-0.0259079
-0.036521
-0.0287558
-0.0210605
-0.0206497
-0.0386264
-0.0239301
-0.0233596
-0.026872
-0.0245678
-0.0217129
-0.0280312
-0.0310101
-0.0246915
-0.0313925
-0.0248859
-0.0290174
-0.0308938
-0.0401936
-0.0166152
-0.0135942
-0.0150644
-0.0149589
-0.0173867
-0.0143001
-0.0166338
-0.0234556
-0.0157582
-0.0190922
-0.0192722
-0.0260417
-0.0177014
-0.0220611
-0.0336418
-0.020716
-0.0268712
-0.0288896
-0.0361246
-0.0238528
-0.0297525
-0.0474003
-0.0292277
-0.036576
-0.0389367
-0.0453694
-0.0318159