/*--------------------------------*- C++ -*----------------------------------*\
  =========                 |
  \\      /  F ield         | OpenFOAM: The Open Source CFD Toolbox
   \\    /   O peration     | Website:  https://openfoam.org
    \\  /    A nd           | Version:  10
     \\/     M anipulation  |
\*---------------------------------------------------------------------------*/
FoamFile
{
    format      ascii;
    class       volScalarField;
    location    "1.9";
    object      turbidity;
}
// * * * * * * * * * * * * * * * * * * * * * * * * * * * * * * * * * * * * * //

dimensions      [0 0 0 0 0 0 0];

internalField   nonuniform List<scalar> 
12920
(
-0.029883
-0.0524288
-0.0674753
-0.0814753
-0.103831
-0.130512
-0.150314
-0.159978
-0.16785
-0.179999
-0.203316
-0.239119
-0.286309
-0.337127
-0.381224
-0.415431
-0.438118
-0.44563
-0.431577
-0.403139
-0.0464053
-0.0683237
-0.0866753
-0.112411
-0.140481
-0.172496
-0.200932
-0.222291
-0.238321
-0.256851
-0.282637
-0.314361
-0.347174
-0.374455
-0.394069
-0.40553
-0.40712
-0.397281
-0.374125
-0.353306
-0.0147888
-0.0278202
-0.046552
-0.0703444
-0.0949916
-0.125847
-0.165176
-0.21134
-0.254616
-0.290882
-0.323945
-0.35581
-0.38588
-0.409512
-0.426272
-0.436159
-0.440902
-0.438448
-0.428656
-0.425781
-0.015079
-0.0307289
-0.0446376
-0.0622601
-0.0831086
-0.110688
-0.15142
-0.209564
-0.2714
-0.32631
-0.374369
-0.417987
-0.457689
-0.488591
-0.505141
-0.507976
-0.508762
-0.513977
-0.527418
-0.54291
-0.0394173
-0.0380589
-0.0472027
-0.0607228
-0.0733477
-0.0904755
-0.119826
-0.168136
-0.224531
-0.281256
-0.334583
-0.388021
-0.444101
-0.502935
-0.55689
-0.597792
-0.626451
-0.650045
-0.676751
-0.711463
-0.0268474
-0.0404161
-0.0552519
-0.0688676
-0.0823188
-0.0991046
-0.123172
-0.156748
-0.195824
-0.239961
-0.287389
-0.341484
-0.409422
-0.492403
-0.575125
-0.641991
-0.690539
-0.724834
-0.751393
-0.782964
-0.0291077
-0.0447961
-0.0611447
-0.073935
-0.0875278
-0.100464
-0.11785
-0.144072
-0.182833
-0.238558
-0.308904
-0.384908
-0.440468
-0.456563
-0.452898
-0.451443
-0.453692
-0.462418
-0.484193
-0.53086
-0.0228316
-0.0372048
-0.0551443
-0.0779002
-0.094979
-0.100708
-0.101895
-0.112074
-0.13783
-0.180636
-0.226137
-0.264893
-0.308023
-0.267264
-0.162458
-0.170065
-0.198861
-0.23805
-0.28367
-0.336936
-0.0171979
-0.0343072
-0.0545372
-0.0813629
-0.105989
-0.104218
-0.0989558
-0.0984915
-0.111377
-0.13574
-0.159726
-0.170951
-0.201975
-0.205138
-0.143998
-0.116636
-0.135273
-0.17664
-0.232393
-0.291441
-0.0176457
-0.0302316
-0.0473311
-0.074588
-0.106262
-0.113329
-0.114034
-0.102309
-0.0980777
-0.107869
-0.118422
-0.120464
-0.138432
-0.147755
-0.130428
-0.11899
-0.135522
-0.166877
-0.21599
-0.276224
-0.0287319
-0.0341511
-0.0427689
-0.0623323
-0.0931068
-0.104191
-0.114378
-0.110035
-0.100632
-0.097305
-0.0987841
-0.101161
-0.108884
-0.108256
-0.0995074
-0.111208
-0.130459
-0.159317
-0.205199
-0.266616
-0.0206473
-0.0338556
-0.0388024
-0.0542708
-0.0839969
-0.0963259
-0.116496
-0.127329
-0.115808
-0.105526
-0.101962
-0.101955
-0.0977472
-0.092483
-0.101323
-0.105423
-0.131312
-0.164868
-0.209498
-0.268853
-0.0176291
-0.0373257
-0.049931
-0.0706779
-0.101836
-0.137801
-0.142866
-0.143478
-0.140322
-0.132329
-0.125512
-0.122433
-0.128018
-0.141183
-0.179801
-0.195495
-0.203039
-0.218868
-0.249587
-0.294872
-0.0121569
-0.0216786
-0.0385565
-0.0724531
-0.110961
-0.150012
-0.176741
-0.200789
-0.212203
-0.22392
-0.234739
-0.258392
-0.290575
-0.330183
-0.365494
-0.382656
-0.378703
-0.37808
-0.389382
-0.406162
-0.0114608
-0.0264745
-0.0453186
-0.0934698
-0.145121
-0.17994
-0.203211
-0.221925
-0.239026
-0.257978
-0.279207
-0.307363
-0.340536
-0.37318
-0.397979
-0.408616
-0.406759
-0.391818
-0.364617
-0.340413
-0.00404185
-0.0173304
-0.0480163
-0.0889757
-0.124101
-0.149785
-0.17599
-0.198287
-0.222622
-0.245959
-0.273017
-0.301034
-0.330252
-0.34985
-0.354695
-0.339533
-0.313208
-0.285054
-0.26022
-0.251811
-0.0166378
-0.0484295
-0.0579397
-0.0869914
-0.103768
-0.126301
-0.152382
-0.18136
-0.216366
-0.249535
-0.280225
-0.301142
-0.316139
-0.326185
-0.334569
-0.339629
-0.340731
-0.335767
-0.329251
-0.33492
-0.0235912
-0.057331
-0.0600892
-0.0718649
-0.0823445
-0.093411
-0.10887
-0.127063
-0.150166
-0.177307
-0.210629
-0.250734
-0.292141
-0.326132
-0.350875
-0.370908
-0.389709
-0.406161
-0.421647
-0.438789
-0.0468869
-0.0710128
-0.0718936
-0.0805234
-0.0960374
-0.114941
-0.139801
-0.165275
-0.193973
-0.222386
-0.255948
-0.28995
-0.322229
-0.352483
-0.381118
-0.409275
-0.437409
-0.465759
-0.49611
-0.529224
-0.0327166
-0.0635212
-0.079169
-0.0939798
-0.111737
-0.131561
-0.152173
-0.172961
-0.194707
-0.21906
-0.245987
-0.274145
-0.301529
-0.327723
-0.353708
-0.381862
-0.416256
-0.463464
-0.528925
-0.610109
-0.0182008
-0.0372154
-0.0464767
-0.0503485
-0.0587401
-0.055083
-0.0487294
-0.0420599
-0.0376641
-0.0356837
-0.037219
-0.044107
-0.057958
-0.0778915
-0.0991572
-0.113641
-0.115105
-0.105948
-0.0917652
-0.0768061
-0.00745807
-0.0273408
-0.0356568
-0.0572749
-0.0702779
-0.0768127
-0.080979
-0.0780288
-0.0713913
-0.0611576
-0.0534653
-0.0486813
-0.047585
-0.0475676
-0.0478206
-0.0472736
-0.0462746
-0.0454949
-0.0459142
-0.0495522
-0.00702668
-0.00769693
-0.014206
-0.0211393
-0.029971
-0.0374941
-0.0495721
-0.0549654
-0.0583366
-0.0574029
-0.0588329
-0.0612876
-0.065814
-0.0691869
-0.0709952
-0.071239
-0.0715538
-0.0740504
-0.0823617
-0.101428
-0.00185452
-0.00389779
-0.00834762
-0.0160376
-0.0287479
-0.0425596
-0.0594307
-0.0685093
-0.0798026
-0.0914954
-0.10869
-0.123608
-0.13635
-0.139151
-0.1362
-0.132256
-0.134362
-0.149189
-0.186451
-0.242257
-0.00559025
-0.0091137
-0.010203
-0.0147298
-0.0248372
-0.0328291
-0.0414224
-0.0454972
-0.055656
-0.0755453
-0.108256
-0.147119
-0.186728
-0.215357
-0.233959
-0.248012
-0.266559
-0.294326
-0.323737
-0.331788
-0.00187793
-0.0154145
-0.0220426
-0.027939
-0.0393285
-0.0450418
-0.0481154
-0.0488753
-0.0606145
-0.0800368
-0.118071
-0.165423
-0.212135
-0.241908
-0.260542
-0.281683
-0.299809
-0.305017
-0.296251
-0.271746
-0.00557028
-0.015829
-0.0218902
-0.0222638
-0.0303298
-0.0405176
-0.0535108
-0.0658299
-0.0831738
-0.112081
-0.149332
-0.174398
-0.16205
-0.147649
-0.139737
-0.145366
-0.146131
-0.143602
-0.14183
-0.138429
-0.00360393
-0.0254054
-0.0308685
-0.0239074
-0.0220505
-0.0281618
-0.0348401
-0.051997
-0.0719884
-0.0896906
-0.122336
-0.168185
-0.149692
-0.0969282
-0.0530005
-0.0451128
-0.0475821
-0.0612044
-0.0793363
-0.0923893
-0.00369451
-0.014612
-0.0218807
-0.0228888
-0.0289488
-0.0260472
-0.0279774
-0.03791
-0.0537226
-0.0626914
-0.0790632
-0.127644
-0.153034
-0.118777
-0.0806039
-0.0560319
-0.0482836
-0.0491359
-0.060021
-0.0692998
-0.00141504
-0.0100505
-0.0134088
-0.0224885
-0.0410308
-0.0425539
-0.0355021
-0.0299118
-0.033538
-0.0379402
-0.0552998
-0.0955587
-0.101402
-0.0792706
-0.0623827
-0.060115
-0.0602104
-0.061001
-0.0658777
-0.0678126
-0.00203875
-0.00871667
-0.00919977
-0.0165971
-0.0401172
-0.0557734
-0.0687797
-0.0538485
-0.0369767
-0.0355114
-0.0575731
-0.0893498
-0.102048
-0.103713
-0.0899085
-0.063994
-0.0667378
-0.073066
-0.0784433
-0.0781042
-0.00534049
-0.00573133
-0.00636365
-0.010112
-0.0253979
-0.0381722
-0.0525644
-0.0774411
-0.0938395
-0.0965355
-0.100431
-0.103805
-0.0966945
-0.0698996
-0.0335076
-0.0421431
-0.0515626
-0.0618249
-0.0731023
-0.0850882
-0.00915307
-0.0117817
-0.0152404
-0.0183684
-0.0277549
-0.030508
-0.0368408
-0.0504345
-0.0571508
-0.060213
-0.0505722
-0.0373107
-0.0304467
-0.0339167
-0.0551212
-0.0624482
-0.0714795
-0.0861347
-0.106191
-0.1318
-0.00281062
-0.0112635
-0.0232583
-0.0333433
-0.0433884
-0.0417773
-0.0352276
-0.031276
-0.0299505
-0.0361029
-0.0464954
-0.0647906
-0.089986
-0.12018
-0.148493
-0.172544
-0.186366
-0.196774
-0.204578
-0.210299
-0.0099159
-0.0231879
-0.0397406
-0.0506431
-0.046751
-0.0359289
-0.0315427
-0.0337781
-0.0408309
-0.0511635
-0.067967
-0.0864931
-0.107769
-0.124349
-0.136557
-0.141553
-0.13984
-0.127826
-0.113554
-0.10353
-0.0043766
-0.0124599
-0.0234142
-0.0291784
-0.0278154
-0.0205825
-0.0203263
-0.0232991
-0.0302538
-0.0382214
-0.0473247
-0.052255
-0.0534865
-0.0506002
-0.0476661
-0.0458356
-0.0461604
-0.0470643
-0.0494548
-0.052411
-0.00358756
-0.0119489
-0.0139
-0.0141972
-0.012899
-0.0145593
-0.0194612
-0.0253903
-0.0330836
-0.037612
-0.0385051
-0.0375067
-0.0369494
-0.0366222
-0.0373799
-0.0397635
-0.0441093
-0.0506496
-0.059527
-0.0683425
-0.0161331
-0.0213622
-0.0155951
-0.0123439
-0.0108488
-0.0119034
-0.0158971
-0.0228619
-0.0349936
-0.0496604
-0.0657814
-0.0705865
-0.0636676
-0.0536381
-0.0507842
-0.0569303
-0.0731067
-0.100973
-0.143116
-0.183282
-0.0219043
-0.0281844
-0.0204999
-0.0171407
-0.0150349
-0.0164069
-0.0202032
-0.0247797
-0.0307518
-0.0381001
-0.0493588
-0.061355
-0.0765367
-0.0925846
-0.114073
-0.140358
-0.172822
-0.209501
-0.251098
-0.288765
-0.00148068
-0.0258576
-0.0407842
-0.0465482
-0.0505638
-0.0538377
-0.0582678
-0.0633579
-0.0739935
-0.0862775
-0.0991688
-0.108537
-0.115366
-0.119317
-0.124251
-0.136644
-0.168307
-0.224277
-0.291455
-0.338763
-0.0234078
-0.0292342
-0.0310464
-0.0337012
-0.0359287
-0.0334968
-0.0316599
-0.0303924
-0.0299523
-0.0300754
-0.0313277
-0.034562
-0.0404988
-0.0484368
-0.0555927
-0.0592504
-0.0579719
-0.0533968
-0.0474034
-0.0420669
-0.00857229
-0.0235564
-0.0254329
-0.0337929
-0.0343611
-0.0338799
-0.0340192
-0.0316007
-0.0293068
-0.0273289
-0.0269223
-0.0272783
-0.0279987
-0.0286307
-0.0291917
-0.0298009
-0.0307144
-0.0326727
-0.0372492
-0.0460404
-0.00659379
-0.00957787
-0.0118168
-0.0129325
-0.013905
-0.015834
-0.0202468
-0.022423
-0.0248738
-0.0269052
-0.0300706
-0.0331053
-0.0358571
-0.0376814
-0.0392865
-0.0413689
-0.0450604
-0.0514628
-0.0625557
-0.0775469
-0.000827729
-0.00334524
-0.0066431
-0.011083
-0.0178391
-0.0218675
-0.0272448
-0.0307171
-0.0383545
-0.0467566
-0.0570136
-0.0644411
-0.0693383
-0.0699314
-0.0695537
-0.0707806
-0.0766586
-0.089683
-0.111921
-0.135074
-0.00129536
-0.00326962
-0.00513571
-0.007406
-0.0127081
-0.0162083
-0.0206873
-0.0265193
-0.0379974
-0.0528283
-0.0714801
-0.0892744
-0.104368
-0.113045
-0.119755
-0.1282
-0.141303
-0.156245
-0.164714
-0.153491
-0.00298312
-0.00717073
-0.0103111
-0.0134484
-0.0200706
-0.0214545
-0.0240052
-0.0289933
-0.041598
-0.0584414
-0.0810224
-0.10239
-0.118147
-0.121372
-0.124047
-0.135123
-0.146788
-0.147502
-0.135721
-0.113444
-0.00209271
-0.00826777
-0.0124759
-0.0162642
-0.0222104
-0.0259971
-0.0324263
-0.0390564
-0.0517682
-0.0723421
-0.0888617
-0.0884033
-0.0715896
-0.0637376
-0.0641951
-0.0697286
-0.0715142
-0.069743
-0.0664577
-0.0599281
-0.00307821
-0.01156
-0.0110652
-0.0114514
-0.0148235
-0.0195109
-0.0232358
-0.0313169
-0.0417024
-0.0576232
-0.0823114
-0.0944283
-0.0690272
-0.045629
-0.0352591
-0.0353611
-0.0370244
-0.0407976
-0.0456809
-0.047788
-0.00238839
-0.00762275
-0.0109177
-0.0130551
-0.0147403
-0.015642
-0.0184058
-0.0227279
-0.0291025
-0.0380364
-0.0580471
-0.081607
-0.0796483
-0.0597166
-0.0470032
-0.0390931
-0.0358419
-0.0371572
-0.0407274
-0.041628
-0.000963333
-0.00571742
-0.00970418
-0.0155694
-0.0212086
-0.0200031
-0.0176673
-0.0170397
-0.0192097
-0.0272014
-0.0451267
-0.056291
-0.0502719
-0.0459583
-0.0444105
-0.0444759
-0.0453481
-0.0462112
-0.0484332
-0.0480377
-0.00211086
-0.00474383
-0.00737951
-0.0138137
-0.026048
-0.0323121
-0.0366454
-0.0279919
-0.0246168
-0.0332306
-0.0494605
-0.0587216
-0.0512467
-0.0442449
-0.0403998
-0.0412388
-0.046212
-0.0519407
-0.0570713
-0.0579419
-0.00512208
-0.00472291
-0.00529759
-0.00889496
-0.0189278
-0.0245477
-0.0299261
-0.042016
-0.0528163
-0.0622095
-0.0716568
-0.0703934
-0.0524826
-0.0359419
-0.0306766
-0.0447568
-0.0502516
-0.0565035
-0.0629255
-0.0654917
-0.00510457
-0.0107163
-0.0122756
-0.012084
-0.0152835
-0.0158642
-0.0172221
-0.0227551
-0.0267518
-0.0292541
-0.0260401
-0.0223892
-0.0241579
-0.0320058
-0.0490333
-0.0551565
-0.0612893
-0.0693174
-0.0796593
-0.0913366
-0.004767
-0.0114891
-0.0144499
-0.0155263
-0.0179951
-0.0167976
-0.0153193
-0.0168611
-0.0188701
-0.0241347
-0.0307085
-0.0412203
-0.0542846
-0.0706306
-0.0865032
-0.102513
-0.11479
-0.123802
-0.127854
-0.129759
-0.00503383
-0.0126495
-0.018293
-0.02058
-0.0168991
-0.0167817
-0.0170198
-0.0210523
-0.0259166
-0.0326755
-0.0407935
-0.0493512
-0.0591192
-0.0679015
-0.0763242
-0.0833614
-0.0889642
-0.0910762
-0.0915464
-0.0905597
-0.00238337
-0.00632771
-0.0101664
-0.0118101
-0.0122899
-0.0132757
-0.0163678
-0.0203705
-0.0255359
-0.0298919
-0.0341954
-0.0367576
-0.0397302
-0.0419725
-0.0450514
-0.0473993
-0.0501806
-0.05172
-0.0534168
-0.055033
-0.00363615
-0.00703255
-0.0078609
-0.00920765
-0.0109078
-0.0127468
-0.0158616
-0.0188833
-0.0226219
-0.0253361
-0.027953
-0.0303285
-0.0329903
-0.0358792
-0.0393111
-0.0440133
-0.0500548
-0.0582277
-0.0689384
-0.0809527
-0.0290596
-0.0277872
-0.0194616
-0.0132961
-0.0111541
-0.0120686
-0.0151472
-0.0195402
-0.0251533
-0.0296686
-0.0334952
-0.0345682
-0.0357
-0.0401251
-0.0490712
-0.0622935
-0.0790219
-0.0980953
-0.12017
-0.141131
-0.00919726
-0.0124906
-0.0120116
-0.011693
-0.0122529
-0.0141634
-0.017133
-0.0203952
-0.0241115
-0.028278
-0.0336722
-0.0408262
-0.0512786
-0.0652134
-0.0834212
-0.105191
-0.130523
-0.157474
-0.183714
-0.199574
-0.00193188
-0.0142753
-0.0241144
-0.0279797
-0.0301455
-0.0302443
-0.0302832
-0.0314955
-0.0374509
-0.0443127
-0.0512286
-0.0557091
-0.0592473
-0.0632548
-0.0717987
-0.0897485
-0.122295
-0.168199
-0.213348
-0.232236
-0.0100593
-0.0203234
-0.0248914
-0.0267436
-0.0262262
-0.0244429
-0.0233612
-0.0228259
-0.023128
-0.0239752
-0.0255921
-0.0281339
-0.0315326
-0.0347688
-0.0364344
-0.035886
-0.0335981
-0.0304536
-0.0273204
-0.0248891
-0.00277092
-0.0206652
-0.0222402
-0.0232309
-0.0199398
-0.0194216
-0.0198092
-0.0199083
-0.0204011
-0.0209564
-0.0217626
-0.0224507
-0.0230148
-0.0232998
-0.0233273
-0.023212
-0.0231525
-0.0235672
-0.0248982
-0.0266808
-0.00272192
-0.00982849
-0.0101098
-0.0105831
-0.0105921
-0.0119184
-0.0143228
-0.0162211
-0.0183919
-0.0201689
-0.0220017
-0.02333
-0.0244845
-0.0254422
-0.0266113
-0.0280181
-0.0299064
-0.0322932
-0.034795
-0.0359599
-0.00120402
-0.00321713
-0.00535135
-0.00744676
-0.0105387
-0.0127223
-0.0167951
-0.0206423
-0.026111
-0.0302847
-0.0343757
-0.036242
-0.0372348
-0.0371931
-0.0379264
-0.039942
-0.0437492
-0.0487987
-0.0543586
-0.0546702
-0.00226658
-0.00277046
-0.00413886
-0.00569643
-0.00850613
-0.0111343
-0.0161885
-0.0224494
-0.0310303
-0.0386845
-0.0466469
-0.0521284
-0.0561616
-0.0585218
-0.0619213
-0.0667388
-0.0726129
-0.0760265
-0.0731013
-0.0606009
-0.00268529
-0.00543958
-0.00806071
-0.0089048
-0.0119179
-0.0138349
-0.0191083
-0.0259461
-0.0360106
-0.0450168
-0.0535151
-0.0575975
-0.0584883
-0.0557588
-0.0554265
-0.0592887
-0.0634238
-0.0620637
-0.0542072
-0.0415883
-0.000490462
-0.00366037
-0.00829379
-0.0117332
-0.0154669
-0.0177259
-0.0228112
-0.0292811
-0.0401475
-0.0511322
-0.0527948
-0.0452625
-0.0351337
-0.0319961
-0.0326488
-0.0347454
-0.0352404
-0.0335381
-0.0303777
-0.0252362
-0.00300893
-0.00494402
-0.007294
-0.00910209
-0.011557
-0.0144977
-0.0170216
-0.0239559
-0.0336906
-0.047152
-0.0569156
-0.050885
-0.0340256
-0.02611
-0.0255254
-0.0270534
-0.0275168
-0.0273145
-0.0268621
-0.024831
-0.00437874
-0.00578981
-0.00907023
-0.0106476
-0.0117115
-0.0127584
-0.014454
-0.0180425
-0.0259686
-0.0369974
-0.0505716
-0.0565757
-0.0483578
-0.0364816
-0.0278762
-0.0235196
-0.0216576
-0.0208497
-0.0197284
-0.0173931
-0.0015299
-0.00430875
-0.00838765
-0.0127216
-0.0144097
-0.0141656
-0.0142089
-0.0156683
-0.0200445
-0.0276917
-0.0356868
-0.0410129
-0.0466764
-0.052487
-0.0534728
-0.0447237
-0.0394562
-0.0340479
-0.0288728
-0.0222495
-0.00124008
-0.00249782
-0.00534903
-0.0114816
-0.0165681
-0.0190457
-0.0211002
-0.0198372
-0.0217606
-0.02717
-0.031544
-0.029284
-0.0264863
-0.0293969
-0.0422725
-0.0486054
-0.0484167
-0.0465281
-0.0413251
-0.0322147
-0.00256064
-0.00518095
-0.00731319
-0.0103011
-0.0143415
-0.0161304
-0.0176347
-0.022813
-0.0280312
-0.0326207
-0.0339349
-0.0283436
-0.0230899
-0.025578
-0.0432009
-0.0493826
-0.0504769
-0.0494598
-0.0461644
-0.0382516
-0.00348935
-0.0093137
-0.0124691
-0.0121794
-0.0119117
-0.0121371
-0.0125136
-0.0146338
-0.0160912
-0.0170512
-0.0183503
-0.0221946
-0.0298712
-0.0389158
-0.0467208
-0.0505552
-0.0541598
-0.0577195
-0.0613394
-0.0632256
-0.00269883
-0.00855802
-0.00970718
-0.0104412
-0.0114784
-0.0127658
-0.0135078
-0.017258
-0.0202465
-0.025374
-0.0304004
-0.0374835
-0.0451557
-0.0546894
-0.0638072
-0.0728307
-0.0794275
-0.0830307
-0.0828268
-0.081281
-0.00429543
-0.00926563
-0.0103172
-0.012256
-0.0139953
-0.0167771
-0.0171888
-0.0208267
-0.0244599
-0.0290836
-0.0342761
-0.039793
-0.0460921
-0.0520995
-0.0580049
-0.0624702
-0.0654196
-0.065679
-0.0646244
-0.0619577
-0.00168184
-0.00432838
-0.00727498
-0.00960848
-0.0127915
-0.0162457
-0.0192101
-0.0224101
-0.0257515
-0.0287538
-0.0320539
-0.0345685
-0.0375192
-0.0393624
-0.0413446
-0.0420318
-0.0425577
-0.0419134
-0.0411387
-0.0402532
-0.00077981
-0.0034614
-0.00593288
-0.00888277
-0.0126532
-0.0156622
-0.0190962
-0.0221152
-0.0253981
-0.0287073
-0.0320577
-0.0353992
-0.0383504
-0.0412728
-0.0436568
-0.0455527
-0.0464468
-0.0467032
-0.0470988
-0.0488926
-0.01582
-0.0125523
-0.00962287
-0.00974604
-0.0111916
-0.0137097
-0.0169279
-0.0205348
-0.0242665
-0.0282711
-0.0327645
-0.0384565
-0.0454658
-0.0534698
-0.0614306
-0.0683484
-0.073629
-0.0761661
-0.0767044
-0.0763093
-0.00353584
-0.00591967
-0.00920982
-0.0112992
-0.0127311
-0.0145504
-0.017579
-0.0217068
-0.0263017
-0.0312468
-0.0368867
-0.0437321
-0.0522202
-0.0624205
-0.0747258
-0.0884756
-0.102913
-0.114597
-0.12023
-0.11339
-0.000846505
-0.00810811
-0.0149912
-0.0188643
-0.0201144
-0.0188108
-0.0179536
-0.0189342
-0.0230762
-0.0273607
-0.0316348
-0.0351807
-0.0396522
-0.0467121
-0.0589855
-0.0785441
-0.106141
-0.137305
-0.16045
-0.161053
-0.00184169
-0.0177348
-0.0173051
-0.017
-0.0159068
-0.014451
-0.0141986
-0.014604
-0.015754
-0.0173909
-0.0193855
-0.0209262
-0.0215559
-0.0209372
-0.0193684
-0.0174841
-0.0156292
-0.013972
-0.0126191
-0.0116623
-0.00279178
-0.0153936
-0.01417
-0.0149654
-0.0145146
-0.0152187
-0.0157266
-0.0162166
-0.0169581
-0.017453
-0.0177104
-0.017414
-0.0166358
-0.0154105
-0.0138506
-0.0121927
-0.0106856
-0.00957374
-0.0091134
-0.00941963
-0.00387755
-0.00797315
-0.00770115
-0.00861866
-0.0100462
-0.0123335
-0.0143947
-0.0158809
-0.0171434
-0.0177701
-0.0180301
-0.0176681
-0.0169217
-0.0157705
-0.0144279
-0.0130121
-0.011602
-0.0102076
-0.00886512
-0.00781886
-0.000581403
-0.00263404
-0.00496838
-0.00752595
-0.0101692
-0.0129488
-0.015909
-0.0177733
-0.0196307
-0.0202196
-0.0206527
-0.0201558
-0.0195626
-0.0185644
-0.0177078
-0.0169933
-0.0164278
-0.0153444
-0.0134009
-0.0100538
-0.000674697
-0.00183573
-0.00336578
-0.00610353
-0.00940831
-0.0130599
-0.0172024
-0.0199781
-0.0227391
-0.0238182
-0.0248975
-0.0249182
-0.0250297
-0.0249919
-0.0254935
-0.0257446
-0.0254033
-0.0233715
-0.0191109
-0.0131238
-0.00196601
-0.00462415
-0.00602192
-0.00833839
-0.0116119
-0.0153458
-0.0198036
-0.0225043
-0.0250593
-0.0253113
-0.0248678
-0.0230218
-0.0212589
-0.0194838
-0.0186962
-0.0183318
-0.017483
-0.0152596
-0.0120365
-0.00816664
-0.00162243
-0.00396553
-0.0068752
-0.0101143
-0.0133396
-0.0168185
-0.0211859
-0.0244894
-0.0268363
-0.0265653
-0.0216757
-0.0163103
-0.0119367
-0.0104342
-0.0096342
-0.00916189
-0.00846551
-0.0074504
-0.0062311
-0.00458598
-0.00147648
-0.00522854
-0.00742314
-0.00959595
-0.0124856
-0.0161593
-0.0185712
-0.0235062
-0.0262247
-0.0289447
-0.0255662
-0.0178117
-0.0112428
-0.00918827
-0.00762158
-0.00752813
-0.00728937
-0.00696012
-0.00646853
-0.00522155
-0.00490386
-0.00642702
-0.00928766
-0.0111854
-0.0137528
-0.0157501
-0.0175081
-0.0213832
-0.0261698
-0.0299035
-0.0311835
-0.0272076
-0.0184241
-0.0114748
-0.0073319
-0.00405476
-0.00333014
-0.00273305
-0.00229589
-0.00197385
-0.00134713
-0.00544624
-0.00981344
-0.0126702
-0.0146252
-0.0158904
-0.0176257
-0.020135
-0.0238881
-0.0286061
-0.0340177
-0.039259
-0.0414077
-0.0393103
-0.0251555
-0.0114693
-0.00636316
-0.00342554
-0.00198521
-0.00127784
-0.000656633
-0.00365837
-0.00796909
-0.0121063
-0.0143828
-0.0155334
-0.0167355
-0.0182329
-0.020104
-0.0223655
-0.0251185
-0.0300376
-0.0380461
-0.0436162
-0.035055
-0.0199741
-0.0146288
-0.00896696
-0.00536838
-0.00265455
-0.00204259
-0.00769784
-0.00970108
-0.011222
-0.0132116
-0.014151
-0.0148958
-0.0159775
-0.0170716
-0.018403
-0.0205211
-0.0255651
-0.0341661
-0.0388789
-0.0311893
-0.017973
-0.0139325
-0.010124
-0.00749967
-0.00451479
-0.00170927
-0.00524345
-0.00902993
-0.010028
-0.0119333
-0.0146967
-0.0154416
-0.0173558
-0.0192364
-0.0208195
-0.0231624
-0.0251837
-0.0270495
-0.0284948
-0.0267257
-0.0254937
-0.023966
-0.0230043
-0.0217244
-0.0180857
-0.00312821
-0.00592777
-0.00787864
-0.0100633
-0.0125002
-0.0160784
-0.0187864
-0.0231452
-0.0258079
-0.0296495
-0.0322045
-0.0361159
-0.0390755
-0.0425358
-0.0439649
-0.043975
-0.0421261
-0.0393716
-0.0361867
-0.0333218
-0.00377552
-0.00623534
-0.008959
-0.0126603
-0.016653
-0.0202137
-0.02189
-0.0248787
-0.0274625
-0.0296045
-0.0318856
-0.0328847
-0.0342396
-0.0338811
-0.0331854
-0.0307859
-0.0282861
-0.0252201
-0.0226025
-0.0193286
-0.00109668
-0.00315441
-0.0065436
-0.0117561
-0.0169661
-0.0212316
-0.0237802
-0.0263512
-0.0279117
-0.0291208
-0.0292788
-0.0285937
-0.0272046
-0.0252285
-0.0229515
-0.0204665
-0.0181335
-0.0160212
-0.0144556
-0.0134765
-0.000700531
-0.00392763
-0.00715625
-0.012937
-0.0183455
-0.023254
-0.0269969
-0.0304029
-0.0328035
-0.0359429
-0.0375761
-0.0397231
-0.0401023
-0.0403767
-0.0387835
-0.0361901
-0.03212
-0.0274568
-0.0229937
-0.0198391
-0.00165881
-0.00944994
-0.0105364
-0.0119406
-0.0152841
-0.0205187
-0.0261352
-0.0312668
-0.0355702
-0.0401992
-0.0445101
-0.0492706
-0.0535991
-0.0570586
-0.0589285
-0.0584313
-0.0550005
-0.0484668
-0.0397634
-0.030648
-0.00162632
-0.00440594
-0.00788379
-0.0106183
-0.0126045
-0.0165225
-0.0223223
-0.0283842
-0.0336712
-0.0381355
-0.0427809
-0.0478362
-0.053878
-0.0606369
-0.0679618
-0.0743623
-0.0784679
-0.0774346
-0.0698642
-0.0555351
-0.00270226
-0.00800512
-0.0107425
-0.0128563
-0.0132256
-0.0127228
-0.0140636
-0.017267
-0.0212592
-0.0248765
-0.0287756
-0.0334471
-0.039903
-0.0488572
-0.0609448
-0.0757677
-0.0919132
-0.105219
-0.109776
-0.100813
-0.0400872
-0.0301945
-0.0423584
-0.0282486
-0.0358235
-0.0299844
-0.0375072
-0.0555934
-0.0468352
-0.0558021
-0.0379639
-0.0420521
-0.0391833
-0.0380433
-0.0449914
-0.0551376
-0.0642912
-0.0313629
-0.0368555
-0.038451
-0.0428633
-0.0583036
-0.06714
-0.0716844
-0.0376027
-0.0354469
-0.0434839
-0.0411636
-0.0973917
-0.10136
-0.0952026
-0.0798659
-0.0720405
-0.0836828
-0.061302
-0.106633
-0.0940735
-0.0962545
-0.0751514
-0.0964803
-0.0588951
-0.0663274
-0.128025
-0.0986038
-0.108946
-0.106326
-0.128222
-0.0728302
-0.0911778
-0.154764
-0.112989
-0.123699
-0.134268
-0.143037
-0.0939398
-0.0989792
-0.167465
-0.126049
-0.127455
-0.146634
-0.162082
-0.103102
-0.119799
-0.192198
-0.128467
-0.142771
-0.169148
-0.19283
-0.126084
-0.145039
-0.212459
-0.149491
-0.161479
-0.198914
-0.194741
-0.148779
-0.144613
-0.166537
-0.161314
-0.150462
-0.182872
-0.137181
-0.14011
-0.128171
-0.105595
-0.11568
-0.111222
-0.101748
-0.0696025
-0.112364
-0.101842
-0.0974559
-0.108695
-0.101132
-0.0630751
-0.0616844
-0.0934799
-0.0716637
-0.104804
-0.0994118
-0.0980001
-0.0658249
-0.0796424
-0.0679163
-0.0653005
-0.116441
-0.0985243
-0.101244
-0.0821364
-0.0891843
-0.0660853
-0.074031
-0.119497
-0.102079
-0.103245
-0.0940674
-0.111024
-0.0797746
-0.0963177
-0.132919
-0.104271
-0.111768
-0.116941
-0.133303
-0.100804
-0.112548
-0.147911
-0.114562
-0.118491
-0.135695
-0.128386
-0.115258
-0.117908
-0.13985
-0.117914
-0.11161
-0.12361
-0.111696
-0.117274
-0.112654
-0.112161
-0.117487
-0.123257
-0.110798
-0.108774
-0.112081
-0.119585
-0.10269
-0.122106
-0.112603
-0.104174
-0.0842208
-0.119481
-0.11277
-0.097434
-0.109488
-0.102246
-0.0788381
-0.070939
-0.109712
-0.101759
-0.0983337
-0.100634
-0.0980876
-0.0706104
-0.0770396
-0.100158
-0.0988542
-0.100039
-0.0978361
-0.0993118
-0.0817101
-0.0955029
-0.0992505
-0.102218
-0.107108
-0.100315
-0.101231
-0.0992992
-0.10937
-0.103805
-0.107819
-0.109733
-0.100335
-0.095235
-0.111819
-0.114755
-0.10799
-0.103225
-0.0999926
-0.0935955
-0.0926247
-0.114375
-0.110439
-0.100132
-0.0883234
-0.126901
-0.125718
-0.135101
-0.11003
-0.122218
-0.121286
-0.131131
-0.119515
-0.134863
-0.130742
-0.12362
-0.119695
-0.131016
-0.128099
-0.107345
-0.128602
-0.121256
-0.11702
-0.110006
-0.126603
-0.121521
-0.102444
-0.118802
-0.112267
-0.108466
-0.105993
-0.119672
-0.113719
-0.101949
-0.110221
-0.104574
-0.105676
-0.106419
-0.11151
-0.103409
-0.0994435
-0.102905
-0.0999119
-0.107135
-0.107003
-0.0998225
-0.0860121
-0.0930005
-0.1002
-0.107141
-0.105252
-0.0947418
-0.0808175
-0.0658265
-0.0961403
-0.111388
-0.126391
-0.0899582
-0.072601
-0.061592
-0.0541386
-0.0345078
-0.0263824
-0.0282651
-0.0262994
-0.0312754
-0.0232608
-0.0234607
-0.0493269
-0.0297657
-0.0354472
-0.0342691
-0.0429802
-0.0242831
-0.0280656
-0.0613607
-0.03738
-0.0414591
-0.0455835
-0.0501761
-0.0293226
-0.0327479
-0.0714422
-0.0425473
-0.0517284
-0.0525078
-0.0641615
-0.0345903
-0.0458017
-0.113613
-0.058981
-0.0917968
-0.0709819
-0.0917513
-0.0511536
-0.0656212
-0.152994
-0.101688
-0.114689
-0.098381
-0.10604
-0.0684086
-0.0688247
-0.130913
-0.112538
-0.0971373
-0.103084
-0.0864961
-0.0671361
-0.0614849
-0.0899536
-0.0922182
-0.0862569
-0.0789098
-0.0604964
-0.0600389
-0.0582363
-0.0301683
-0.0525699
-0.040412
-0.0304607
-0.0238269
-0.0395276
-0.0317887
-0.0322997
-0.036943
-0.031662
-0.0233878
-0.0248886
-0.0294973
-0.0258075
-0.0367579
-0.030941
-0.0312899
-0.0257927
-0.029421
-0.0257116
-0.0290778
-0.04783
-0.0324912
-0.0440799
-0.0315844
-0.043472
-0.0316023
-0.0434372
-0.0868332
-0.0526668
-0.0815978
-0.0488455
-0.0624057
-0.0485482
-0.0622672
-0.104657
-0.0884014
-0.0993141
-0.0643378
-0.0611779
-0.0643084
-0.0608802
-0.0845605
-0.100289
-0.0989255
-0.0585195
-0.0513932
-0.0579346
-0.0495899
-0.0703776
-0.0978743
-0.0940769
-0.0498116
-0.0481376
-0.047552
-0.0438812
-0.0604693
-0.0646367
-0.0780311
-0.0525587
-0.0434255
-0.052595
-0.0569556
-0.039536
-0.0831137
-0.0859212
-0.0395896
-0.0318688
-0.0579846
-0.0568739
-0.0345363
-0.0842138
-0.0810492
-0.0309404
-0.0331293
-0.0563023
-0.0581287
-0.0485733
-0.0817686
-0.0882088
-0.0353889
-0.0463733
-0.0601835
-0.0691873
-0.0835579
-0.0908612
-0.0979939
-0.0513333
-0.0650599
-0.0724563
-0.0795496
-0.100192
-0.10012
-0.10357
-0.0672561
-0.0656649
-0.0802227
-0.0752226
-0.103973
-0.102876
-0.0939676
-0.0636954
-0.0580606
-0.0715532
-0.0584944
-0.100939
-0.0892162
-0.0724592
-0.0566866
-0.0538959
-0.0543781
-0.0451762
-0.0693826
-0.0420157
-0.0493997
-0.0444518
-0.0526062
-0.0355088
-0.0385473
-0.0923925
-0.0552786
-0.0782594
-0.0554036
-0.0607621
-0.0410282
-0.0493765
-0.0956761
-0.0855092
-0.0973519
-0.0618792
-0.0667838
-0.0521329
-0.058824
-0.0995479
-0.098365
-0.0951743
-0.069208
-0.0769852
-0.0602028
-0.0598411
-0.103118
-0.0925358
-0.0791725
-0.0791792
-0.0820078
-0.0581575
-0.0482043
-0.100613
-0.0723689
-0.0478474
-0.0808488
-0.0692001
-0.0435983
-0.0303131
-0.0775277
-0.0405687
-0.0285578
-0.0633996
-0.0465606
-0.0272325
-0.0237727
-0.0477593
-0.0275369
-0.0298984
-0.0421128
-0.0340487
-0.0243482
-0.0295239
-0.0213225
-0.0159167
-0.0171736
-0.018106
-0.0201715
-0.0156815
-0.0165308
-0.0271621
-0.0176463
-0.0194583
-0.0212573
-0.0252861
-0.0169299
-0.0192966
-0.0346922
-0.0203959
-0.0254578
-0.0275814
-0.03498
-0.0206882
-0.0267863
-0.051475
-0.0282723
-0.0408873
-0.038866
-0.0515631
-0.0293512
-0.0377651
-0.0768244
-0.0459875
-0.0579128
-0.0563431
-0.0657635
-0.0404571
-0.0469744
-0.0836685
-0.0596126
-0.058647
-0.0669233
-0.0641873
-0.0485986
-0.052151
-0.0644733
-0.0574093
-0.0545225
-0.0610297
-0.0500234
-0.0529639
-0.0546192
-0.0488597
-0.0540008
-0.0539533
-0.0459774
-0.03571
-0.0549055
-0.0546874
-0.0168996
-0.0242969
-0.020493
-0.0170283
-0.0163545
-0.0204061
-0.019154
-0.0183444
-0.0198162
-0.0201349
-0.0165818
-0.0187173
-0.019209
-0.0208734
-0.0243075
-0.0209277
-0.0262371
-0.0200279
-0.0258186
-0.0219828
-0.0270207
-0.0315606
-0.0308448
-0.0270154
-0.0279807
-0.0307401
-0.0314014
-0.028044
-0.0465464
-0.0497731
-0.0451663
-0.0430566
-0.0497729
-0.0462707
-0.0434463
-0.0521719
-0.0561986
-0.0499285
-0.0428506
-0.045263
-0.0364265
-0.0313337
-0.0464904
-0.0468858
-0.0396422
-0.0462417
-0.0494903
-0.0302803
-0.0298371
-0.0462667
-0.0381192
-0.0359122
-0.0505078
-0.0524967
-0.0305193
-0.0344081
-0.0306583
-0.0363903
-0.0435601
-0.0285518
-0.0242664
-0.0295642
-0.0308228
-0.0243659
-0.0457151
-0.0477775
-0.0233565
-0.0233343
-0.0312938
-0.0321525
-0.0294449
-0.0482257
-0.0525865
-0.0241387
-0.0285169
-0.0327984
-0.0367085
-0.0408127
-0.0365089
-0.0383291
-0.0334923
-0.0418613
-0.0364281
-0.0374447
-0.0549238
-0.0534297
-0.0542216
-0.0494678
-0.058022
-0.0530875
-0.0519791
-0.0536685
-0.0711822
-0.0634347
-0.0344697
-0.0300509
-0.0390675
-0.0319098
-0.0454513
-0.0595078
-0.0479267
-0.0289705
-0.0279296
-0.0299511
-0.0266674
-0.0421498
-0.0447901
-0.0385471
-0.0282614
-0.0310174
-0.0264055
-0.0281394
-0.0382748
-0.0223599
-0.0251905
-0.0253648
-0.0279153
-0.0197615
-0.0200558
-0.0507489
-0.0283852
-0.0398552
-0.0291827
-0.0326547
-0.0211616
-0.0248157
-0.0595647
-0.0431592
-0.0502484
-0.0338548
-0.0383995
-0.0258788
-0.028347
-0.0698115
-0.0515793
-0.0511246
-0.0400457
-0.0433268
-0.0287249
-0.0274345
-0.0724303
-0.0494983
-0.0404987
-0.0433875
-0.0393834
-0.0263351
-0.0222958
-0.0577072
-0.0365892
-0.0261899
-0.0368483
-0.0290112
-0.0211819
-0.0206264
-0.039034
-0.0241245
-0.0233189
-0.0270735
-0.0246044
-0.0216382
-0.0278425
-0.0311153
-0.0245923
-0.0311925
-0.0248716
-0.0288618
-0.0306828
-0.0399655
-0.0165786
-0.0135765
-0.0150328
-0.0149323
-0.0173558
-0.014279
-0.0165966
-0.0233728
-0.0157203
-0.019021
-0.019207
-0.0259537
-0.017656
-0.0219891
-0.0335182
-0.0206314
-0.0267549
-0.0287851
-0.0360277
-0.0237741
-0.0296623
-0.0472374
-0.0291049
-0.0364531
-0.0388262
-0.0452916
-0.0317236
-0.0377733