/*--------------------------------*- C++ -*----------------------------------*\
  =========                 |
  \\      /  F ield         | OpenFOAM: The Open Source CFD Toolbox
   \\    /   O peration     | Website:  https://openfoam.org
    \\  /    A nd           | Version:  10
     \\/     M anipulation  |
\*---------------------------------------------------------------------------*/
FoamFile
{
    format      ascii;
    class       volScalarField;
    location    "6.5";
    object      k;
}
// * * * * * * * * * * * * * * * * * * * * * * * * * * * * * * * * * * * * * //

dimensions      [0 2 -2 0 0 0 0];

internalField   nonuniform List<scalar> 
12920
(
531.346
407.379
422.679
397.205
312.097
249.227
202.758
186.548
172.788
167.574
160.331
157.471
152.575
150.729
149.634
145.42
135.745
114.126
98.7598
74.2136
1011.82
1214.78
939.884
689.466
476.113
377.139
300.564
259.745
237.632
237.109
237.365
237.949
233.832
228.71
215.377
200.282
170.507
134.395
102.821
81.6199
2903.95
2025.86
1300.92
886.347
596.784
467.963
360.055
289.4
227.591
197.521
167.79
153.025
136.426
126.089
116.351
109.303
99.7554
88.7013
78.9506
73.3908
6964.91
4388.08
2023.18
1114.38
669.461
487.074
342.775
254.36
201.46
164.339
137.764
121.832
107.725
98.809
89.2876
81.8102
75.131
70.3887
67.6575
65.6064
1243.82
3168
2604.14
1494.69
885.693
612.391
453.418
353.472
301.771
236.713
181.816
137.546
109.956
96.4046
87.2458
81.0268
75.6815
72.0112
69.7108
67.8998
1059.28
2951.93
2290.89
1269.68
829.925
710.367
556.315
491.428
425.022
381.792
337.41
264.858
190.826
128.94
99.4357
86.9632
81.8055
79.1287
78.6082
77.6738
3048.61
3892.77
1818.34
957.289
780.92
698.422
528.034
446.324
369.82
331.556
307.847
278.29
226.989
161.854
118.476
97.8024
90.2667
87.9382
87.9567
88.8838
4256.6
4038.41
1849.34
1140.82
818.213
665.857
386.597
277.12
255.954
217.765
202.242
181.46
146.476
104.521
110.309
99.911
94.1167
89.0476
86.9348
87.1116
933.376
2033.95
1679.78
1496.93
1264.75
707.022
351.742
199.279
203.845
178.783
164.595
159.81
143.01
73.9828
65.0347
107.763
104.541
95.1563
88.8005
82.3867
826.599
2126.03
1922.86
1146.44
861.154
585.469
335.489
225.701
220.366
134.782
135.061
159.711
163.61
128.196
118.302
118.667
109.42
97.9314
87.9585
78.425
2962.28
2154.81
2111.62
1270.89
704.502
373.994
200.296
131.545
90.5481
68.2158
112.89
123.323
124.297
129.638
162.27
116.311
104.875
95.7582
88.3051
78.8301
1886.75
2291.39
1842.78
1008.45
524.767
210.316
116.877
63.8307
44.8902
71.7105
115.404
121.453
100.262
89.4026
114.843
124.043
118.975
107.829
93.86
78.8064
997.075
2502.67
2024.46
1554.36
944.674
681.344
369.799
172.384
157.674
147.67
133.629
135.148
125.546
110.274
153.603
139.989
125.752
106.771
88.1918
74.6431
2454.51
2964.15
2216.54
1119.95
757.79
594.204
450.583
345.833
265.859
195.819
165.166
148.794
145.281
140.809
135.781
126.394
111.048
94.1841
82.0508
76.5374
1898.51
2112.93
1495.08
862.943
657.521
476.84
388.182
306.21
241.297
194.267
157.724
135.546
123.679
114.257
106.845
99.8946
93.3137
88.5244
85.9044
87.293
1957.66
2388.08
1829.66
978.079
693.952
499.551
368.77
302.265
238.792
203.626
165.722
144.35
126.701
116.603
107.868
102.35
98.5715
97.8286
99.0942
105.084
1527.37
2176.43
1317.19
747.639
608.176
347.966
295.988
235.693
212.427
184.859
164.3
151.122
137.291
130.091
123.271
120.371
119.319
119.854
121.504
126.341
1843.24
1979.04
1484.31
887.085
645.412
417.151
289.498
242.405
208.145
195.743
179.25
174.156
166.892
164.67
161.584
160.934
160.97
161.864
164.87
165.701
1549.27
2265.61
1701.48
977.187
609.073
381.067
268.847
228.857
196.911
182.421
172.183
171.131
170.286
171.209
171.801
173.856
175.506
176.87
176.572
169.059
4933.47
1395.17
925.881
763.048
627.473
476.355
361.076
272.105
198.606
148.26
122.499
114.482
109.808
105.136
101.048
96.8093
94.4832
89.3083
85.7876
76.1029
1754.12
852.71
863.913
723.86
559.996
488.436
402.013
373.448
349.01
340.875
332.895
333.125
333.889
337.599
335.744
325.928
297.694
233.185
199.883
154.373
1702.03
4379.89
2956.23
1782.45
1041.85
873.668
707.902
657.586
608.304
607.968
596.523
591.911
569.03
554.124
518.44
480.854
428.908
375.799
316.602
272.937
5021.42
4790.42
3050.95
1735.15
1020.54
1013.57
898.726
742.09
580.807
518.778
445.65
414.413
373.11
351.855
328.195
309.886
288.963
266.056
245.792
232.815
23857.5
8801.32
3455.29
2017.83
1264.51
1149.97
843.636
654.808
519.845
432.546
364.051
325.117
289.487
270.899
249.115
234.394
219.463
209.358
203.185
198.271
6938.51
9111.56
5433.75
3209.22
1876.36
1460.5
1077.48
876.317
731.57
605.043
467.348
371.497
292.316
266.527
243.401
232.976
220.549
213.338
208.188
204.799
5547.11
6347.82
3574.69
2706.47
1900.4
1616.39
1294.87
1172.27
1019.1
955.324
847.58
650.864
419.056
299.92
265.396
248.981
238.653
232.255
230.253
230.813
23602.5
10836.1
3623.2
2420.07
1863.48
1693.2
1307.15
1136.75
946.976
868.359
793.324
714.736
551.503
388.084
300.101
270.57
261.381
257.335
257.708
264.76
17702.9
13174.1
5560.88
2938.24
1848.92
1604.51
1265.82
1081.69
936.812
812.758
743.358
656.995
523.941
367.228
289.747
272.536
260.587
253.269
253.522
260.783
7208.65
5595.56
4303.09
3905.92
2725.21
2100.43
1444.12
1285.61
1025.2
855.348
806.945
749.807
587.342
356.121
254.561
273.541
259.885
247.168
242.509
240.507
16171.8
6511.93
4771.79
2545.49
1930.7
1865.49
1667.86
1356.66
1031.24
747.4
744.93
727.264
653.659
474.394
299.309
278.917
262.307
248.995
238.301
232.777
6234.24
5366.1
5307.39
3132.4
1580.94
1201.42
856.166
729.479
563.951
544.169
576.787
488.317
481.108
493.037
339.825
274.004
265.113
256.042
243.613
235.255
6462.09
6751.82
5096.57
2649.91
1238.3
827.758
658.728
467.34
414.095
544.468
562.003
495.828
392.888
334.727
279.162
311.518
305.298
281.964
250.211
230.679
3369.05
7395.38
5292.07
3702.99
2235.25
1646.94
1193.51
765.56
633.732
549.364
477.917
438.263
388.135
345.777
368.356
351.245
321.05
277.249
239.282
220.887
6339.49
6661.85
5348.68
2902.74
1895.15
1492.89
1116.29
879.839
651.739
500.136
428.488
391.745
374.304
364.256
343.717
326.794
292.735
264.077
240.919
233.621
4369.37
5347.83
3768.22
2152.09
1634.01
1190.9
975.55
773.757
602.897
500.235
410.847
363.025
331.53
310.357
292.894
280.373
268.136
261.983
260.169
265.475
3114.44
5800.01
4316.59
2349.61
1666.13
1214.14
914.137
759.257
597.566
521.715
430.779
389.496
346.22
326.65
306.455
298.732
293.65
294.816
299.702
311.645
6041.76
5816.63
3534.67
2078.76
1434.23
813.609
769.989
607.566
556.263
485.506
442.475
414.729
386.748
373.806
360.909
357.265
355.905
357.388
361.443
372.837
11016.3
5108.12
3412.55
2151.86
1537.49
1013.63
731.009
628.31
545.856
517.66
484.536
476.239
462.698
460.228
455.269
455.45
455.976
459.124
466.821
478.361
3877.63
6618.15
3838.51
2563.15
1532.29
1084.13
728.797
642.607
520.174
488.594
460.296
464.093
465.817
473.052
477.956
489.985
499.076
508.311
513.581
509.127
3377.53
2400.19
1995.58
1602.61
1312.82
985.474
736.473
538.59
369.148
266.691
217.784
208.644
210.931
213.185
210.267
205.337
203.621
199.93
196.434
186.573
3028.13
1999.13
1446.43
1009.64
814.203
711.643
613.058
550.902
492.736
451.323
419.804
397.469
384.356
369.61
351.697
315.199
273.777
220.898
192.686
152.92
13697
7425.11
4835.95
2456
1698.97
1317.99
1027.1
929.101
827.085
811.375
767.163
750.373
701.823
670.427
614.991
562.22
503.19
458.662
421.271
396.772
10159.6
9296.91
4241.96
2738.14
1913.77
1656.42
1179.84
943.492
754.553
673.549
584.345
541.695
488.39
462.34
432.016
410.798
387.646
368.854
353.967
341.57
7862.04
8645.86
4507.1
2762.31
1984.17
1571.31
1116.96
849.177
685.042
566.401
485.932
432.603
390.586
365.585
340.666
325.467
311.279
303.225
298.017
295.233
16575.4
10915.9
5529.25
3661.99
2408.72
1819.56
1363.5
1058.33
882.414
705.426
568.546
472.025
402.841
368.853
340.024
324.802
310.841
304.208
299.26
298.789
8710.15
7534.1
4826.28
3294.96
2505.63
1952.02
1610.6
1375.27
1167.8
1028.91
857.419
669.889
513.004
426.649
379.094
350.247
334.783
327.351
325.369
326.741
20228.4
8512.27
4478.2
3291.45
2603.37
2125.28
1658.48
1391.46
1165.66
1052.05
906.023
771.389
610.16
488.653
420.051
384.751
367.669
361.678
361.924
366.866
24972.7
11745.6
5671.26
3593.68
2601.69
2077.98
1771.25
1454.68
1219.83
1044.83
915.37
767.928
604.658
457.986
397.87
376.1
362.833
359.879
361.599
366.311
7700.85
8042.43
6031.89
4408.59
3008.69
2431.6
1957.7
1637.55
1275.2
1090.36
984.279
849.188
619.369
440.35
367.587
363.533
348.739
341.769
339.505
337.427
16313.2
9552.15
5754.5
3191.89
2339.99
2252.6
2103.12
1598.42
1187.12
1022.04
952.52
843.91
689.988
507.179
381.226
362.154
345.649
334.365
327.06
323.865
14482.4
8369.5
6982.42
4101.4
2270.77
1713.15
1289.07
1045
885.947
881.303
578.139
397.81
524.239
516.458
383.515
366.32
355.773
342.229
330.287
325.127
4373.57
9149.85
7354.25
3747.35
1985.74
1443.17
1222.03
942.385
837.867
807.945
713.015
574.99
438.958
388.152
382.997
415.516
391.849
358.868
333.51
322.841
13360.2
11250.8
7344.56
4783.39
2892.69
2104.49
1664.23
1127.73
873.93
743.906
633.598
570.533
512.461
475.488
474.004
440.137
398.757
358.487
332.592
323.33
8864.45
8266.22
6314.69
3617.15
2490.29
1850.87
1420.44
1070.27
824.059
653.917
579.377
529.422
499.819
475.556
442.46
414.136
381.036
360.072
345.641
344.401
9275.09
7156.31
4741.51
2827.4
2155.71
1519.07
1283.7
979.507
776.956
636.496
545.64
486.105
450.511
424.038
402.883
389.398
378.475
375.245
375.894
384.128
5174.29
7595.93
5434.14
3028.34
2144.38
1477.18
1204.61
943.847
774.944
661.921
568.769
517.549
472.652
451.044
431.074
425.12
421.935
424.521
429.714
440.82
14960.8
9292.39
4690.54
2706.51
1782.08
1133.99
1047.25
810.479
745.926
649.867
603.392
569.255
540.162
526.564
513.699
510.311
508.15
509.561
512.901
521.645
11219.7
6013.83
4299.31
2845.38
1940.36
1266.83
983.51
831.001
740.44
696.271
662.671
653.506
641.548
641.487
638.251
639.512
638.604
639.481
640.843
641.302
13541.3
7986.72
4822.67
3185.95
1924.46
1344.47
914.771
793.28
645.37
619.961
596.022
609.913
619.215
644.404
656.1
680.079
689.441
697.596
697.491
686.387
5002.81
3681.59
2705.21
2158.13
1695.08
1274.76
937.478
660.714
460.591
354.689
309.454
289.707
274.789
258.891
245.451
234.146
229.046
223.111
219.932
210.602
1722.11
3410.05
2473.65
1348.13
1043.82
869.354
749.076
654.099
577.98
508.94
458.617
409.706
370.894
322.396
282.935
242.813
213.167
179.514
161.68
137.203
6531.02
8121.98
7299.01
3456.67
2402.99
1673.84
1357.3
1175.69
1035.96
977.181
893.235
845.341
776.405
719.102
658.273
608.393
568.019
541.715
521.172
510.183
15300.5
11235.5
5719.34
3432.31
2697.64
1970.75
1457.94
1112.01
927.472
794.424
702.55
629.244
575.301
536.385
508.697
486.863
471.093
458.756
450.119
443.919
8254.81
9843
5976.51
3388.23
2682.94
1834.34
1379.95
992.748
835.546
666.158
591.848
514.571
476.783
442.539
422.098
406.396
397.278
392.226
390.618
392.417
31903.8
10710.8
6235.39
3961.78
3037.97
2084.55
1640.65
1187.42
1008.54
764.362
653.981
543.45
492.839
449.41
425.587
408.088
398.218
393.12
391.094
393.626
26137.4
10942.5
5971.15
3742.97
3122.91
2166.01
1902.99
1489.93
1264.59
1009.69
836.169
661.958
567.84
500.532
465.164
437.68
425.899
419.239
418.29
420.685
19141.7
9105.06
5957.47
3858.07
3302.06
2401
1952.31
1545.35
1305.99
1095.12
916.887
755.806
633.205
548.378
504.77
478.322
466.581
461.18
460.754
462.589
38737.9
9921.35
6590.3
3946.64
3258.45
2365.68
2042.04
1650.15
1363.55
1132.29
952.679
760.295
622.266
518.916
485.405
469.043
462.989
462.636
463.467
463.294
19088.5
11051.4
7504.9
4685.6
3366.84
2662.8
2224.73
1743.59
1386.3
1183.25
993
802.31
603.362
493.087
449.969
445.229
436.669
434.4
432.891
430.152
11769.7
11433.7
6780.36
3829.41
2645.38
2453.13
2302.3
1652.76
1308.73
1154.49
984.041
800.978
634.142
510.196
450.3
436.656
423.976
417.024
414.092
413.948
28553.3
10813.3
8763.48
4698.34
2831.06
2081.84
1624.52
1321.53
1151.93
1048.6
704.303
505.35
510.923
489.251
443.047
446.179
432.425
420.329
414.821
415.391
12277.3
11831.5
9141.5
4496.91
2549.68
1924.11
1657.81
1296.34
1090.96
940.449
770.486
598.393
486.808
463.215
483.077
485.552
454.978
428.99
416.825
416.493
32485.3
12405.7
9299.4
5424.74
3505.61
2439.79
1957.46
1342.64
1028.21
864.905
741.149
670.763
611.728
575.127
544.886
499.381
463.455
436.611
424.446
424.482
20133.7
11853.2
7239.81
4057.13
3061.09
2071.26
1697.8
1209.6
974.71
768.802
708.669
629.009
599.389
554.51
519.265
488.756
466.088
453.737
448.238
452.419
17839.6
10439.7
5763.38
3363.37
2657.82
1779.17
1577.61
1127.73
929.85
740.611
662.353
583.828
553.235
519.833
502.617
490.188
484.846
484.909
487.68
498.165
31153.9
13645.8
6412.55
3528.77
2582.34
1700.15
1477.74
1082.42
940.627
776.894
698.019
629.224
592.594
566.899
553.181
547.612
547.353
549.133
553.012
561.537
22127
10627.1
5595.41
3165.38
2115.12
1413.32
1282.76
966.568
917.212
786.621
754.196
705.309
685.799
667.033
658.963
652.556
651.027
650.39
651.18
653.958
20175.7
7921.9
5248.01
3357.08
2304.44
1451.75
1219.12
986.518
927.271
851.929
836.847
815.502
815.124
811.428
812.331
810.459
807.749
801.449
794.923
781.301
10284.9
7934.22
5716.42
3598.7
2182.44
1415.58
1033.14
872.951
758.884
735.191
727.954
748.887
770.547
807.85
829.063
854.435
863.587
865.494
857.136
829.062
1584.9
2489.55
2744.48
2442.39
1804.61
1304.13
937.059
651.508
475.622
386.538
343.112
313.116
289.185
269.169
256.872
247.127
242.827
234.93
229.519
214.308
3725.9
4176.64
3097.26
1521.2
1150.06
913.535
774.048
657.759
557.354
457.543
372.92
299.353
243.985
202.572
176.225
156.024
141.876
128.861
120.117
111.613
7807.15
9847.29
9198.01
4073.79
3459.84
1994.4
1970.9
1476.45
1421.93
1164.21
1106.13
933.555
884.982
772.629
737.704
672.153
658.074
639.877
639.202
646.444
21107.7
10988.2
7609
3816.19
3745.3
2294.7
2039.22
1332.95
1255.53
953.637
906.587
743.716
718.861
638.852
628.143
591.255
590.864
579.595
580.986
584.395
36951.4
12026.9
7663.48
3932.63
3682.8
2111.96
1865.09
1172.65
1099.92
807.179
771.189
635.209
620.49
558.445
551.168
524.092
524.552
519.415
522.676
531.662
20496.9
12605.1
8231.6
4502.39
4211.3
2400.12
2156.84
1394.05
1265.94
890.273
829.847
661.968
643.216
570.463
562.732
533.224
532.623
524.929
526.214
532.427
55379.2
20350.7
7760.67
4781.54
4119.7
2496.66
2385.19
1658.95
1463.11
1051.29
918.786
727.262
685.044
615.309
598.825
567.189
562.359
552.824
552.037
556.131
35598.1
11876.5
7821
4535.48
4417.13
2718.43
2397.44
1786.2
1523.81
1178.1
1006.6
815.107
735.481
662.345
640.536
615.206
611.766
601.896
598.54
597.285
23452.4
13521.2
7684.33
5002.54
4226.19
2854.62
2272.49
1830.59
1522.61
1219.59
1026.62
810.296
716.565
636.816
627.442
611.909
607.067
603.416
598.643
594.566
34383.8
15003.2
8737.74
5192.66
3969.08
3013.6
2524.33
1841.9
1528.56
1260.61
1022.92
801.804
678.574
609.48
595.69
579.523
569.297
564.353
560.834
558.296
8512.83
12899.8
8360.54
4941.88
3034.47
2689.92
2486.69
1808.48
1513.9
1266.6
992.014
770.925
669.313
616.354
588.313
557.428
541.456
536.177
536.182
540.199
32281.6
15643.4
10027.2
5612.69
3453.36
2372.97
1961.94
1647.35
1424.2
1164.11
834.746
599.917
579.17
593.525
580.949
561.183
543.373
535.692
536.423
544.089
18754.9
14370.1
10547.2
5147.14
3077.51
2337.72
2043.27
1616.55
1330.43
1070.73
853.442
688.134
640.827
632.73
630.483
588.895
559.001
542.663
542.001
550.635
43168.6
16213.3
10920.3
5784.19
4302.96
2770.06
2193.14
1508.55
1227.58
1007.1
917.416
820.135
774.152
709.642
654.888
601.112
574.265
559.84
557.995
566.32
26838.1
13715.4
8493.73
4575.19
3885.59
2371.99
2162.32
1452.23
1216.11
932.275
896.348
762.688
748.792
670.053
647.435
608.166
601.633
590.862
592.145
601.829
20083.5
11834.2
6803.81
4197.31
3265.94
2210.19
1984.31
1336.04
1158.66
885.722
831.99
716.756
702.232
653.657
648.159
632.502
636.451
635.386
639.691
651.217
13132.4
12209.3
7746.22
4146.75
3194.96
2085.63
1853.11
1301.13
1187.37
940.323
888.955
777.494
766.031
720.882
724.965
709.576
716.118
711.255
714.071
718.432
16828.7
11624.9
6649.65
3936.53
2540.97
1879.84
1578.09
1206.63
1152.78
963.716
958.856
871.405
877.725
837.695
844.669
825.874
830.986
821.723
819.382
814.16
11515.2
9943.64
6711.95
4034.77
2806.52
1762.48
1550.8
1191.57
1190.16
1037.77
1070.75
1002.24
1036.04
1002.91
1023.13
1001.87
1004.71
982.459
967.436
938.005
7087.02
8444.68
7040.15
3888.44
2559.01
1415.57
1233.78
919.206
981.055
873.882
959.388
928.147
1001.25
1004.16
1052.7
1053.32
1064.04
1042.76
1014.07
965.606
3720.44
2924.47
3058.1
2349.07
1587.8
1040.17
685.543
480.778
395.105
342.491
307.176
276.676
257.384
245.161
238.666
230.396
222.878
208.576
199.31
178.011
974.863
915.679
682.663
1129.73
1027.98
1035.26
749.781
873.427
606.472
501.317
986.501
860.658
663.836
578.128
656.727
820.688
755.451
1018.7
723.829
937.692
814.981
408.647
719.894
593.131
630.382
480.865
763.948
603.333
201.082
371.558
231.037
1060.83
1105.99
1406.32
1259.79
207.188
223.232
229.529
1098.94
969.589
1212.53
1062.6
183.625
226.983
171.924
909.324
780.919
988.598
744.389
166.462
152.52
140.264
759.253
727.311
694.904
665.725
160.857
141.946
157.222
719.502
693.039
671.282
681.708
151.5
161.889
165.911
680.265
607.049
677.737
638.539
88.5773
164.9
141.27
548.4
371.328
613.45
469.321
44.6053
116.767
51.4301
313.426
219.405
404.171
266.274
231.391
245.599
177.01
1399.2
1248.59
982.434
872.314
225.378
166.296
139.36
1193.46
1024.56
821.538
666.395
151.21
123.005
84.2798
945.768
687.781
603.091
481.465
129.801
83.1934
105.684
646.029
639.22
483.923
540.722
155.094
116.522
133.465
651.573
661.99
544.256
518.367
164.419
135.102
138.825
658.04
627.13
507.744
504.147
148.213
140.661
140.428
607.263
494.896
508.077
496.915
63.3805
136.809
99.4559
443.192
309.656
476.201
411.089
142.195
154.611
80.7345
659.42
637.82
419.592
307.672
104.612
69.8467
48.8687
617.18
515.873
275.666
244.645
67.1695
45.5647
52.6538
467.673
414.513
253.62
382.064
103.284
66.0018
108.846
431.247
510.157
429.42
502.525
123.359
117.998
124.057
511.971
476.533
505.026
473.303
123.038
122.392
106.512
460.279
443.553
453.216
384.3
129.769
101.468
98.1887
447.199
462.268
365.281
338.587
100.897
98.6007
84.0208
458.445
409.397
336.365
312.15
73.899
263.651
118.305
464.581
392.486
748.954
582.102
45.3155
95.2597
82.3507
341.941
283.422
538.215
511.589
58.4336
87.7188
96.983
292.095
415.194
504.496
485.059
107.374
100.496
100.899
449.609
497.145
484.278
454.304
122.637
99.5319
100.354
497.912
471.373
441.855
418.101
106.346
100.841
95.1987
454.287
386.893
410.597
368.5
91.759
91.6222
75.2197
364.619
318.964
352.682
302.615
75.8467
71.9915
51.1784
310.765
283.24
291.129
259.724
1331.92
1715.63
1462.26
1863.72
1680.52
2050.07
1755.99
1098
1393.57
1173.84
1586.86
1321.7
1644.91
1317.12
877.988
1083.59
836.989
1233.61
1070.86
1219.93
1031.23
819.065
793.625
766.043
1048.64
989.736
1004.53
963.145
766.845
767.644
759.713
961.069
877.479
947.27
883.019
653.708
749.452
691.048
844.325
691.714
855.654
741.647
411.905
657.676
496.508
622.445
468.708
690.598
523.855
256.168
434.307
293.85
424.631
351.527
474.919
365.826
1432.17
1177.03
994.718
2028.15
1695.38
1486.22
1211.65
1124.36
934.429
759.247
1574.33
1250.97
1133.75
943.625
782.691
695.238
588.222
1158.94
989.675
895.702
846.995
739.629
592.613
620.801
969.834
936.899
849.434
726.692
736.773
613.959
559.734
921.118
859.054
673.236
554.699
680.499
546.36
546.627
834.579
737.973
556.856
606.314
525.511
551.256
533.698
696.147
552.654
608.684
568.289
332.411
511.11
426.01
506.761
384.5
540.61
428.437
759.878
605.815
432.505
1188.45
1026.55
994.956
822.928
610.451
394.931
360.605
974.725
838.787
782.777
721.794
523.684
371.136
493.662
809.536
802.792
724.077
761.289
585.04
530.753
574.47
808.885
687.148
764.301
723.926
510.109
570.342
517.152
630.142
471.715
694.991
584.655
473.103
491.905
411.004
444.777
495.909
543.293
430.478
498.628
390.274
361.852
522.208
536.682
411.79
389.927
424.045
359.651
326.145
522.483
424.96
387.831
356.356
521.846
1019.27
740.233
1093.87
888.123
1433.44
1080.18
405.007
679.761
620.964
834.454
753.23
999.856
872.235
519.934
601.09
562.311
750.761
761.606
824.823
740.484
566.914
558.158
515.187
757.73
711.406
724.856
649.345
517.18
499.262
466.016
687
597.434
625.576
569.135
417.942
455.937
406.76
564.236
461.321
553.06
491.741
343.328
389.523
336.475
431.57
383.453
473.438
423.155
296.345
324.99
292.281
375.749
348.141
414.1
397.114
1740.57
2118.8
1795.88
2160.56
1839.66
2273.46
1852.32
1365.87
1673.3
1336.41
1723
1453.53
1708.61
1388.93
1112.95
1245.12
1077.62
1361.67
1197.7
1316.68
1180.98
1019.08
1053
1000.34
1166.94
1047.71
1150.89
1048.3
887.538
978.023
895.831
997.725
869.216
1006.71
877.791
686.688
863.086
735.183
817.945
655.182
832.49
687.491
479.031
682.164
524.281
604.923
504.785
639.969
522.886
374.273
480.051
382.937
479.061
435.022
492.943
433.298
1729.49
1554.59
1262.2
2257.44
1779.67
1734.49
1408.47
1271.49
1181.75
997.055
1636.06
1337.96
1327.13
1161.03
1040.85
955.992
913.359
1274.25
1157.23
1128.24
1068.9
1017.27
1008.06
987.918
1065.28
976.216
1047.38
1034.29
896.509
927.515
908.865
973.095
880.974
942.059
930.004
733.916
537.255
609.872
819.032
689.67
582.594
591.349
550.16
610.168
563.637
648.11
537.164
585.012
535.095
397.105
535.133
427.879
506.299
438.78
511.793
444.047
1100.65
1122.75
942.366
1540.04
1313.71
1453.81
1253.63
910.798
899.933
824.343
1251.18
1116.06
1198.06
1070.27
874.577
820.614
826.464
1090.37
1038.76
1042.93
967.953
861.97
829.552
847.509
926.919
823.375
771.772
902.377
541.171
511.444
643.65
421.147
575.795
362.572
619.048
497.535
547.265
430.275
467.991
505.364
553.698
447.256
533.014
413.202
395.274
514.533
506.023
434.337
427.227
423.517
393.44
368.025
491.198
437.532
427.706
424.139
996.853
1552.66
1167.54
1556.23
1281.42
1828.23
1375.67
848.362
1083.85
935.199
1216.65
1071.54
1282.29
1080.93
820.277
880.973
784.723
1037.25
947.193
1013.73
888.165
742.716
766.067
681.424
914.313
802.174
860.155
754.568
611.437
655.431
593.499
760.437
633.308
724.775
652.92
468.047
576.505
513.984
592.471
491.575
634.564
574.75
394.332
495.962
448.344
469.941
440.789
559.17
521.553
366.168
440.724
424.645
439.192
435.625
516.404
501.348
1863.14
2324.69
1867.1
2433.27
1933.06
2501.77
1946.07
1477.77
1721.07
1413.34
1809.4
1565.17
1803.65
1531.57
1219.09
1345.3
1208.55
1481.67
1289.76
1468.92
1300.78
1046.98
1173.21
1050.02
1232.79
1058.66
1243.2
1057.14
856.034
1002.52
861.003
999.463
838.292
995.033
825.117
647.341
813.173
670.9
783.482
667.257
775.691
663.736
515.328
627.706
525.87
639.861
578.816
637.332
578.707
453.55
500.445
449.745
563.847
536.6
564.407
533.083
1795.32
1792.58
1462.08
2435.58
1882.08
1967.23
1656.84
1368.55
1381.81
1218.22
1753.09
1507.37
1583.53
1418.23
1188.2
1183.9
1105.17
1449.93
1288.55
1370.45
1215.98
1031.52
1069.99
835.048
1230.79
1042.18
1152.36
923.728
845.237
751.007
616.427
979.106
809.809
842.136
663.704
672.565
600.315
581.773
762.684
659.82
628.179
581.416
536.521
573.391
528.789
636.526
582.072
577.879
563.843
453.591
509.189
454.192
567.88
534.147
555.538
525.952
1385.8
1561.13
1346.49
1874.91
1623.72
1875.43
1621.49
1181.6
1284.86
1138.11
1557.13
1396.06
1542.02
1344.55
1076.32
1102.97
1003.05
1347.72
1188.98
1288.05
1112.45
797.585
965.261
827.021
1127.07
891.095
1051.55
871.559
526.562
772.576
607.36
803.856
608.736
811.202
645.036
506.905
558.85
460.677
571.775
536.106
603.03
542.504
501.182
449.458
445.531
539.315
546.121
540.802
547.571
447.717
447.031
445.77
542.833
522.5
549.519
545.548
1366.76
1916.3
1433.5
1948.95
1619.96
2152
1592.54
1132.47
1336.49
1120.85
1532.49
1319.5
1483.69
1248.34
979.701
1051.06
917.642
1260.7
1086.56
1179.92
1022.85
814.91
886.716
775.842
1027.46
866.951
979.311
864.73
638.919
745.602
672.427
818.127
683.389
837.836
763.223
504.865
654.365
596.009
647.984
589.003
743.126
692.899
463.908
581.341
546.454
582.496
574.408
681.623
649.793
460.05
541.664
522.946
573.425
562.212
640.696
608.818
1966.81
2582.52
1991.86
2813.28
2161.73
2889.28
2218.73
1608.06
1852.33
1590.13
2029.84
1832.82
2082.52
1837.35
1324.59
1527.59
1343.17
1750.53
1514.71
1772.77
1554.56
1082.26
1277.54
1074.26
1439.13
1273.44
1476.12
1249.33
854.214
1008.91
833.749
1212.24
1025.31
1180.72
1003.06
701.197
786.378
692.585
989.719
924.196
966.752
926.08
622.311
672.139
625.056
911.925
859.125
918.257
889.746
583.923
613.44
583.423
856.218
828.69
883.897
848.291
1931.22
2027.19
1736.32
2681.76
2165.91
2277.4
2026.5
1572.81
1666.37
1499.25
2053.08
1831.84
1959.02
1783.64
1332.92
1445.4
1262.5
1767.92
1549.69
1718.82
1483.54
1058.9
1189.75
950.878
1468.34
1231.2
1391.78
1132.42
816.752
869.354
684.867
1159.91
981.75
1053.02
868.082
685.662
647.521
607.933
944.151
912.284
834.142
835.912
627.633
610.591
609.443
913.647
893.101
861.98
881.109
584.046
603.602
574.549
886.752
848.956
877.437
833.967
1713.78
1983.31
1717.39
2251.84
2020.52
2317.63
2028.77
1479.62
1633.25
1423.85
1951.13
1767.56
1933.5
1706.06
1235.94
1361.39
1161.21
1699.9
1459.02
1633.7
1393.23
920.612
1092.72
901.943
1367.64
1109.41
1312.16
1111.59
638.061
841.121
678.052
1028.19
837.66
1053.07
901.407
570.57
639.586
596.012
804.071
815.462
871.258
874.558
595.316
599.006
608.275
846.142
874.495
889.429
894.862
572.135
609.359
598.838
872.603
834.515
892.79
859.037
1709.12
2225.81
1651.1
2340.97
2008.82
2495.54
1919.2
1393.29
1537.05
1303.27
1903.88
1667.89
1773.03
1543.01
1136.31
1238.26
1074.34
1599.91
1371.18
1490.82
1324.13
902.427
1024.94
914.438
1293.98
1123.59
1240.6
1155.67
720.884
889.575
814.61
1076.62
952.443
1133.88
1064.58
643.853
792.518
745.806
925.151
921.553
1024.06
994.687
634.718
735.51
702.59
923.107
914.474
983.542
949.547
615.6
691.059
654.109
909.36
876.466
926.581
879.268
993.633
993.759
935.414
1001.88
958.969
1027.29
963.045
978.022
950.09
872.259
958.284
935.869
999.689
843.84
930.591
860.886
779.002
553.227
902.662
878.908
665.26
1049.61
1100.66
1100.33
1103.5
1077.6
1072.22
1074
1019.48
1019.03
1066.77
992.745
1051.07
981.929
1036.93
1013.39
991.689
1075.24
968.753
1040.92
863.482
1041.86
959.724
572.467
923.873
860.909
901.288
683.619
986.076
864.692
901.256
829.751
877.264
854.646
910.101
834.948
797.093
822.038
530.44
488.144
787.351
834.568
438.691
763.971
740.775
499.286
472.729
759.538
743.694
446.534
903.473
983.767
944.289
946.972
946.971
942.352
903.061
866.591
872.251
902.33
822.913
909.787
831.976
861.826
808.745
507.946
866.439
611.766
850.623
467.875
818.136
770.03
500.28
746.797
590.218
745.683
472.52
777.733
785.409
740.149
711.319
504.33
772.37
611.719
703.251
861.848
832.534
807.099
867.215
819.528
884.262
846.142
823.781
752.857
785.429
780.537
791.412
775.828
817.276
905.5
971.035
952.868
989.268
815.41
951.107
944.576
817.733
529.105
834
776.026
641.35
724.229
865.678
897.813
905.748
962.028
903.03
927.233
877.677
926.121
851.991
800.047
814.343
862.579
796.208
842.719
875.167
466.993
443.371
441.358
335.361
505.495
309.862
402.454
660.17
705.989
680.099
738.937
653.96
719.853
693.793
599.677
541.309
637.786
597.86
599.619
537.014
646.698
549.481
448.04
558.835
685.675
392.365
632.056
602.924
475.356
377.102
503.818
479.766
347.201
422.621
530.856
667.552
753.243
747.082
710.68
733.172
703.558
677.924
602.428
600.679
544.437
656.777
537.311
652.527
609.809
284.088
367.511
291.465
688.849
739.922
686.934
779.188
270.336
287.177
281.93
709.174
647.075
797.833
774.944
226.892
266.455
262.537
634.554
617.41
721.77
687.67
211.509
257.392
253.099
597.25
572.531
663.207
653.312
194.696
248.813
241.14
551.565
534.402
637.26
616.548
165.897
229.014
203.306
497.294
447.191
587.261
526.425
127.677
166.767
128.817
379.718
330.176
424.332
343.447
91.0435
106.139
65.9831
245.863
205.717
241.52
201.564
563.94
733.802
574.68
1189.09
1033.65
1327.33
1258.87
485.606
267.83
357.737
481.311
445.175
500.449
277.982
604.178
202.616
202.092
490.423
525.88
556.736
207.652
564.02
197.204
216.92
505.507
489.2
597.208
210.978
448.441
172.982
175.062
471.21
461.725
469.114
166.157
431.702
162.713
157.574
452.468
450.983
430.686
157.598
439.845
157.93
163.117
442.124
435.417
440.814
163.654
390.877
127.784
160.113
368.662
324.857
415.084
153.216
157.804
66.315
82.0121
155.86
130.205
197.355
65.0015
54.7602
74.0403
49.3734
158.209
160.246
179.111
179.951
509.155
440.782
392.325
1229.96
1227.79
943.364
988.257
599.896
278.217
306.661
592.816
619.565
565.531
252.132
615.912
225.852
219.906
635.909
640.964
618.923
218.466
469.705
207.196
202.231
609.171
556.497
547.787
179.574
319.272
129.027
116.933
367.685
356.555
320.196
114.882
383.405
143.156
129.142
380.497
398.538
366.273
137.528
405.844
162.964
153.85
423.491
424.702
403.964
157.018
396.013
161.608
158.781
415.389
405.414
401.87
157.748
296.592
104.737
135.438
313.251
265.019
330.987
116.69
66.5982
157.32
94.2319
236.543
205.725
299.318
227.421
291.956
350.851
254.528
664.096
555.633
601.781
439.168
233.311
170.066
191.588
297.778
304.186
254.413
156.059
191.733
122.484
107.559
301.393
286.664
200.459
97.7442
132.649
77.1686
65.7409
203.551
176.295
134.717
58.1178
225.038
74.7568
61.5707
185.267
220.57
180.741
75.992
316.738
119.281
116.422
306.753
316.582
309.776
121.784
293.79
122.536
121.696
313.354
307.511
304.299
118.295
280.496
126.354
113.556
307.45
311.546
279.349
114.32
291.765
126.649
119.977
317.838
311.236
291.731
120.054
97.7786
146.355
90.0835
300.119
230.747
260.528
216.208
191.455
348.096
321.056
432.343
449.732
582.877
619.03
225.623
95.2806
132.693
185.155
174.267
220.512
113.543
142.121
55.2292
75.4567
120.991
100.942
171.551
61.9531
163.593
45.7845
51.5408
99.6918
111.421
140.82
54.5659
272.387
84.8838
85.5779
218.272
251.162
254.539
93.6491
303.372
120.781
113.417
307.535
313.602
301.141
116.367
288.562
118.155
117.265
306.107
294.238
297.706
115.103
231.248
96.1776
98.5991
249.334
237.316
245.863
93.1029
195.089
88.4711
81.485
215.629
212.452
199.844
79.6892
75.0511
99.4728
68.9104
213.137
206.462
217.109
232.814
242.438
380.675
223.654
646.505
595.167
691.441
675.781
164.97
191.921
199.084
481.205
475.207
591.108
495.303
156.273
178.759
138.433
444.947
429.931
460.873
398.83
137.614
126.974
120.022
395.555
374.016
374.216
331.258
135.801
109.007
102.475
352.455
346.835
311.195
301.354
132.364
101.898
100.289
334.881
317.555
297.336
288.17