/*--------------------------------*- C++ -*----------------------------------*\
  =========                 |
  \\      /  F ield         | OpenFOAM: The Open Source CFD Toolbox
   \\    /   O peration     | Website:  https://openfoam.org
    \\  /    A nd           | Version:  10
     \\/     M anipulation  |
\*---------------------------------------------------------------------------*/
FoamFile
{
    format      ascii;
    class       volScalarField;
    location    "6.5";
    object      nut;
}
// * * * * * * * * * * * * * * * * * * * * * * * * * * * * * * * * * * * * * //

dimensions      [0 2 -1 0 0 0 0];

internalField   nonuniform List<scalar> 
12920
(
0.793683
3.55975
2.50277
4.46844
2.17558
2.88754
1.60113
1.75756
1.3776
1.38093
1.20294
1.14748
1.01614
0.946419
0.839012
0.758511
0.684244
0.610329
0.573113
0.501312
2.57252
7.86933
4.80897
5.90085
3.527
4.35818
3.18112
3.61662
3.13546
3.45397
3.2987
3.46076
3.02152
2.91803
2.53908
2.29549
1.78866
1.35209
1.02633
0.904232
5.63166
9.26112
4.96273
4.82524
2.95133
3.92339
3.18059
3.81907
3.31494
3.15505
2.90779
2.77692
2.62201
2.52079
2.22198
2.14742
1.78791
1.54046
1.36531
1.40306
18.4165
14.9222
8.384
7.50103
5.14725
4.95143
4.15548
3.58041
3.18606
2.87784
2.63475
2.47763
2.32973
2.23139
2.12132
2.03075
1.94617
1.88374
1.84679
1.81863
4.35091
12.5482
11.4133
8.67577
6.67843
5.55359
4.7772
4.21828
3.89742
3.45367
3.02734
2.63348
2.34483
2.20409
2.09677
2.02081
1.95307
1.90515
1.87452
1.85008
2.89472
12.0788
10.6949
7.98708
6.45678
5.9741
5.28892
4.97206
4.62444
4.38383
3.71815
3.02157
2.21975
1.94636
1.95122
2.09359
2.03044
1.99689
1.99035
1.97856
6.65503
14.0136
8.24636
6.95747
6.17387
5.92589
5.15606
4.74086
4.31522
4.08501
3.47221
3.18091
2.51662
1.98796
1.76627
1.87745
1.88217
1.87704
1.91287
1.86033
14.5139
14.2831
9.67035
7.57568
6.41252
5.78621
2.2022
1.86716
1.79424
1.65561
1.2833
1.08094
0.829553
0.63224
2.05815
2.00006
1.95876
1.79604
1.74433
1.73833
1.83127
10.1066
9.19304
8.66771
7.96538
2.97603
0.656574
0.575224
0.63489
0.48698
0.404455
0.379441
0.336584
0.195901
0.463399
2.11869
2.04458
1.78194
1.6629
1.66808
1.69139
5.78502
9.8314
7.58986
6.57792
2.7109
0.718433
0.413038
0.408963
0.30096
0.30883
0.399371
0.413814
0.299653
0.655544
1.92552
1.80029
1.58876
1.46849
1.46601
12.1873
6.36263
10.2891
7.99204
5.95022
2.16561
0.558992
0.283644
0.193754
0.168956
0.318903
0.354619
0.340563
0.321322
0.817482
1.64518
1.53401
1.4465
1.3974
1.41153
7.35761
10.7511
9.66089
7.14073
5.14699
1.62718
0.480529
0.190197
0.131542
0.212906
0.382129
0.390787
0.305685
0.254437
0.661254
1.81332
1.76612
1.68614
1.55377
1.51554
1.55522
11.227
10.086
8.83069
6.78425
5.8619
1.77746
1.47394
1.40897
1.36387
1.18974
1.24798
0.977787
0.834504
2.4269
2.17351
1.96096
1.74386
1.58123
1.64386
8.87514
12.1493
10.5534
7.51055
6.02672
5.46622
4.76319
4.17276
3.65931
3.14096
2.88465
2.73757
2.70499
2.66302
2.43396
2.29858
1.94552
1.72194
1.63056
1.81824
5.18758
8.79889
8.68224
6.58858
5.75199
4.89905
4.42071
3.92625
3.48584
3.12818
2.81879
2.61314
2.49612
2.39929
2.32035
2.2438
2.16872
2.07599
2.07035
2.09733
4.51939
10.9516
8.22907
7.02555
5.73197
5.01596
4.30958
3.90139
3.46767
3.20255
2.88933
2.69694
2.5266
2.42401
2.33147
2.27113
2.22872
2.22021
2.23447
2.30094
5.02616
10.5196
8.1636
6.14172
5.53617
4.18406
3.86022
3.44437
3.27068
3.0512
2.87689
2.75941
2.63017
2.56041
2.49227
2.46274
2.45182
2.45734
2.47422
2.52297
8.70318
7.14406
8.00779
6.67885
5.43797
4.58506
3.72366
3.49394
3.23737
3.13974
3.00471
2.96202
2.89953
2.88025
2.85302
2.8472
2.63435
2.56015
2.52052
2.47669
5.5489
9.29619
9.2639
7.01485
5.33848
4.38617
3.42361
3.39744
2.9032
3.03179
2.55124
2.93567
2.42073
2.52783
2.2987
2.28909
2.13974
2.06941
1.98443
1.87864
7.37722
7.22087
3.34295
6.19278
3.08281
3.04568
1.86224
1.62948
1.07616
0.915401
0.771013
0.861387
0.832005
0.835442
0.773903
0.73033
0.674361
0.610357
0.568952
0.498431
5.14326
8.90717
11.6565
14.4012
9.84882
12.3952
9.17644
10.7583
8.12984
8.326
7.35077
7.30325
6.81131
6.65008
6.05373
5.54487
4.75215
3.85574
3.65863
3.36332
3.73646
28.2366
28.2654
22.7866
15.7346
16.5599
16.3459
17.2832
17.4317
17.6321
17.6336
17.5118
16.9992
16.6379
15.8097
15.0635
13.8655
12.0253
9.67816
9.02699
15.7115
33.8242
24.944
15.5396
10.8713
14.4956
18.5327
19.7013
18.3606
17.4948
16.2895
15.5876
14.6749
14.0794
13.3182
12.5977
11.7846
11.0399
10.4293
10.6978
33.1921
51.2299
27.4736
19.7512
16.0176
20.6502
20.1623
19.2232
17.4006
15.8206
14.3496
13.5307
12.7062
12.3689
11.8809
11.5022
11.0514
10.7869
10.6888
10.7416
31.1716
47.0258
36.9492
33.1972
26.4422
26.4175
23.4304
21.7086
19.2486
17.3802
14.1029
12.4325
10.7245
11.1283
11.132
11.4093
11.263
11.2046
11.165
11.0385
11.1196
45.4379
32.2276
34.6184
29.9516
28.8618
26.0173
24.6074
22.3431
20.8888
18.4703
14.1422
9.38094
8.38157
10.0229
11.3231
11.7895
11.8125
11.7732
11.6359
38.2845
45.6538
29.7516
27.7804
27.342
29.3362
26.1127
23.7585
21.0414
19.1356
17.5979
15.6884
12.2913
9.448
9.4178
10.6398
11.7167
12.0812
12.1416
12.1475
48.3697
44.4335
38.2183
31.7644
24.8193
27.3287
21.0637
21.301
20.0561
18.9322
17.3575
15.3683
12.2745
9.0981
10.4887
11.4785
11.8557
11.8054
11.8213
11.9575
13.5087
33.0236
35.2446
41.8762
35.5079
23.0998
17.6291
20.3507
19.9981
18.5574
18.4485
16.999
12.9051
8.63038
8.29258
11.8531
11.7266
11.3942
11.2648
11.3791
31.9735
41.0993
52.6325
35.0025
31.5204
27.3313
22.3366
20.5976
17.3413
15.1053
17.6636
18.1863
16.0803
11.098
8.19712
11.2823
11.2177
10.8654
10.5522
10.7588
20.9592
35.3829
46.3461
40.5758
24.8474
18.1012
12.3427
11.1096
9.13313
11.7536
15.0947
12.0125
12.0101
12.539
8.66124
10.216
10.679
10.739
10.4521
10.6795
14.168
49.981
50.8988
37.0964
21.3191
14.5495
10.9109
8.68677
8.28756
14.2561
17.2108
15.2247
11.435
9.60567
8.49956
11.9012
12.1918
11.6155
10.6454
10.6785
6.37858
42.9209
45.0216
40.3467
32.5102
29.7421
19.9386
15.9772
16.9075
16.5283
15.7073
15.2014
13.7241
12.2605
13.5364
13.1697
12.4368
11.1405
10.2552
10.6316
18.5335
34.4469
43.2695
37.322
31.6666
27.7229
23.163
20.3397
17.9134
15.4265
14.7269
13.7514
13.5336
13.2222
12.7155
12.5463
11.6715
11.138
10.8689
11.3207
6.60935
43.9367
44.9208
34.8324
31.6962
26.2644
23.138
20.2189
17.859
16.5591
14.7796
13.8892
13.0643
12.5849
12.2601
12.1902
12.0884
12.2013
12.4059
12.6832
7.19027
35.7805
42.3032
35.5722
31.6074
26.0839
22.5166
20.3914
18.1142
17.1606
15.5477
15.0484
14.1497
13.9159
13.4766
13.4582
13.451
13.6263
13.8655
14.1313
9.54136
36.3527
42.1759
36.8976
31.6298
19.4242
20.6045
17.9592
17.9873
16.9021
16.412
16.0745
15.6584
15.5336
15.3511
15.3538
15.3551
15.3781
15.4188
15.3925
17.6191
31.4849
40.9157
35.4661
31.5918
23.8345
19.2959
17.9999
17.0988
17.1098
16.9692
17.1267
17.1178
17.1934
17.1312
17.1282
17.0871
17.0265
17.0229
16.7353
11.0268
29.511
41.4476
35.814
29.2031
23.4472
18.682
17.1885
15.4608
15.205
15.2253
15.6884
16.0898
16.4103
16.5876
16.9422
17.0939
17.1798
17.0765
16.6309
15.0023
16.3759
19.8017
22.4488
20.3271
17.6223
12.7057
12.3205
6.75003
6.17641
4.96699
5.93334
5.52098
5.70921
5.24373
5.04527
4.70175
4.43911
4.2811
4.02036
7.01803
11.2226
17.9984
17.8172
15.9998
14.9568
13.8829
13.1628
11.5971
11.3499
9.40166
9.03332
8.03384
7.39248
6.3213
5.14432
4.42058
3.931
3.84483
3.62515
48.2113
49.7627
47.1002
38.1868
32.9455
31.0142
28.1674
26.8597
24.93
24.3374
23.2418
22.7106
21.506
20.6781
19.3716
17.3861
15.3794
14.1823
13.0797
13.6558
31.3606
56.1677
36.9117
28.6232
26.8487
32.5659
32.1271
30.2491
27.333
25.4843
23.5498
22.2472
20.8078
19.8213
18.7
17.818
16.9665
16.5582
16.2578
16.5497
29.3779
57.7058
44.8622
35.5565
33.9587
37.0674
33.6003
30.1248
26.7348
24.0592
21.8755
20.4456
19.2361
18.4446
17.6807
17.1413
16.6833
16.4627
16.3745
16.3897
40.6272
70.3334
53.7332
49.9488
43.77
41.8775
36.7867
32.7613
28.7401
25.2354
21.3888
19.7485
18.358
18.1133
17.6555
17.383
17.0286
16.8477
16.6843
16.6024
38.6531
63.9996
58.8969
54.4011
48.9384
44.1394
39.901
36.2914
32.2908
28.7851
24.3151
19.7627
16.9147
17.1861
17.9062
18.0065
17.8251
17.5726
17.4342
17.2246
59.1326
56.0364
50.7656
50.8538
49.5936
46.4035
40.8099
36.3757
32.1396
28.9517
25.2156
21.8741
18.6971
17.4927
17.6832
18.0997
18.1888
18.0845
18.0086
17.7968
78.5107
55.6653
58.7297
53.4148
47.7098
45.5599
39.3943
35.7621
32.5035
29.3792
26.1587
22.4457
18.647
16.119
17.3756
17.6564
17.5777
17.5201
17.5327
17.5454
21.8136
58.1614
58.9208
61.2269
53.422
45.2423
36.6911
35.7952
31.6519
29.1473
27.3224
24.0404
18.7869
15.3338
15.41
16.3445
16.1901
16.2323
16.2972
16.5709
46.1372
52.2254
72.6879
57.0462
47.7843
44.7029
39.643
33.5672
27.6482
26.7322
26.7093
24.5868
20.7971
16.3735
14.5633
14.9162
14.8125
14.9336
15.0364
15.6435
28.3079
57.1579
64.5387
60.2728
44.5124
34.2933
25.7548
21.8126
19.9614
24.9003
7.35876
5.60331
12.8922
15.6299
13.3092
13.9642
14.5251
14.8556
14.9135
15.5571
8.00835
61.6916
68.2487
57.3254
41.5388
32.0079
26.7253
22.4306
21.5968
25.1912
24.3599
18.6997
13.1787
12.0131
13.6021
16.5093
16.4782
15.9513
15.5422
15.9971
31.2937
55.5389
64.4891
59.1837
50.138
45.6725
36.7777
30.1958
28.132
25.9238
23.8091
22.1158
20.196
18.7687
18.9357
18.2869
17.3203
16.4876
16.2426
16.7416
26.0795
47.9834
61.1388
56.5128
49.3763
42.7279
36.4717
32.1442
28.3924
25.2999
23.4869
21.9732
20.9229
20.0889
19.179
18.5918
17.8224
17.577
17.5701
17.9486
14.8119
51.6411
60.2339
53.1989
48.6711
40.8564
36.3615
31.7972
28.3872
25.8419
23.5657
22.1037
20.9257
20.156
19.5569
19.314
19.1298
19.2085
19.3613
19.668
12.0151
50.6272
52.4562
51.5712
47.7184
40.1013
35.7884
31.547
28.5886
26.5734
24.4861
23.4551
22.234
21.7369
21.1633
21.079
21.0706
21.1873
21.3492
21.4377
49.0647
50.4628
52.5984
52.6124
45.9859
34.476
33.1947
29.1493
28.2841
26.6045
25.7571
25.1278
24.4995
24.1865
23.8618
23.7185
23.5821
23.4611
23.343
23.082
31.9482
43.3093
51.0438
51.6314
44.555
35.2764
30.0847
27.6311
26.4837
25.9393
25.7301
25.7422
25.7458
25.8115
25.7493
25.7269
25.5349
25.2524
24.9429
24.3048
40.9068
39.1569
46.0801
47.1475
37.4651
30.4529
23.6245
22.3344
20.2333
20.4899
20.7428
21.4728
22.1489
23.0182
23.4111
24.0811
24.2244
24.2035
23.9591
23.335
19.9695
22.1498
26.7997
26.0543
23.0944
20.0399
16.3107
14.4492
8.78686
8.52093
7.32018
8.07654
7.10555
6.93975
6.21121
5.87905
5.46485
5.13181
4.98178
4.79968
4.28915
32.7235
27.8993
20.5819
18.1175
16.53
15.3461
14.3423
12.2584
10.3862
8.31554
6.73701
5.64529
4.52903
3.93614
3.43698
3.27264
3.15113
3.11771
2.96042
29.7224
53.2364
55.4271
50.5105
44.2232
38.582
33.1584
30.1185
26.5464
25.1674
23.3231
22.1447
20.9148
18.0212
16.9583
15.6475
15.1732
15.1848
14.9778
15.7683
71.3203
66.3779
51.9402
46.5712
44.6237
44.1918
38.443
34.0595
30.015
27.6001
25.1341
23.5166
21.8865
20.7588
19.7443
19.0301
18.5022
18.2345
18.0339
18.0332
22.4573
67.7188
61.5158
52.8444
49.6523
46.3903
39.6401
34.2943
30.2309
26.8218
24.3978
22.4354
20.9954
19.8772
19.0263
18.4274
18.0182
17.7843
17.6687
17.6252
60.7827
82.6186
68.5506
63.3129
55.676
50.0285
43.0855
37.3175
32.9335
28.2422
25.0888
22.8542
21.3819
20.266
19.4238
18.7726
18.3207
18.0518
17.8799
17.7926
68.4273
71.0133
75.706
66.6671
59.3063
51.7584
46.7646
41.2945
36.5517
31.6891
27.2969
23.7655
21.8937
21.0487
20.4728
19.6951
19.1996
18.8346
18.6264
18.451
47.3415
72.9586
72.733
67.4037
61.7991
54.7145
47.5024
42.3484
37.1459
32.9415
28.554
25.3224
22.7719
21.5442
20.8584
20.3509
19.9026
19.5988
19.3565
19.1728
95.9398
72.5533
71.5411
68.1306
61.3968
54.3944
48.3695
42.7174
37.9186
33.4061
29.4113
24.981
22.0026
20.028
18.8109
18.9559
18.9813
19.0049
18.9831
18.93
49.3873
76.8971
76.0388
72.4519
63.0824
56.2087
41.0644
41.8511
36.5448
32.8031
29.4385
25.0078
20.8214
18.2768
16.7523
16.4635
17.0211
17.461
17.6578
17.8384
21.9713
87.3127
82.678
68.7578
55.6635
52.5011
47.8634
39.1123
33.4778
31.3231
27.8648
23.9953
20.251
17.3649
15.4285
15.0699
15.6902
16.2319
16.6005
17.0457
72.8739
76.2717
79.2507
70.1747
54.3431
45.0831
36.9647
31.7352
29.7071
29.1725
13.4175
11.736
14.6368
15.3873
14.1168
14.9755
15.7393
16.2149
16.5338
17.0489
31.4276
79.2975
78.9462
68.2908
52.247
43.7958
38.4185
32.5671
29.8522
28.2895
24.1279
18.4909
14.8904
14.4786
15.6629
16.9043
17.0868
17.0738
17.1707
17.6006
62.4329
80.3625
81.164
71.4857
60.1412
53.0002
45.0007
36.8546
32.0838
28.2237
25.3532
23.1636
21.4809
20.2367
19.3865
18.9792
18.5206
18.2325
18.2657
18.5692
76.245
71.1711
76.1227
68.3528
58.7868
50.0683
43.099
37.7803
32.6635
29.4149
26.896
24.8783
23.3895
22.0758
20.9832
20.3497
19.864
19.7244
19.7596
19.9487
68.1342
64.4961
70.0388
63.0972
56.5086
47.681
42.9506
36.9474
33.0554
29.6275
27.0768
25.1162
23.7622
22.6895
21.9867
21.642
21.4217
21.4303
21.4875
21.6854
53.0617
69.2733
66.1924
61.5825
55.1944
46.7525
41.9691
36.277
33.0113
30.2762
27.8908
26.4408
25.0509
24.3887
23.7856
23.6216
23.5476
23.5162
23.4952
23.4828
62.5872
68.8741
63.5807
59.9641
51.4152
41.2118
38.4126
33.9019
32.3862
30.3591
29.2055
28.3177
27.5152
27.0172
26.5795
26.2874
26.0352
25.8142
25.5552
25.2875
71.9091
55.5138
57.9182
58.2293
48.0878
39.3953
34.2609
31.4332
29.9156
28.9277
28.4402
28.2412
28.2498
28.3181
28.2749
28.1917
27.9279
27.5336
27.056
26.3635
37.9179
44.809
50.1808
51.8398
38.223
30.6217
23.7809
23.2942
21.2857
21.7947
21.7785
22.5396
23.1856
24.293
24.8886
25.5211
25.6939
25.6301
25.3538
24.5041
5.18167
27.1758
25.9077
27.7066
23.8374
20.2705
14.2319
10.4877
8.07042
7.39288
7.0106
6.70825
6.12228
5.62384
5.2434
4.9166
4.74239
4.50794
4.43019
4.16257
18.5729
36.1983
31.1685
21.853
12.7088
16.9446
7.62545
7.70036
5.05835
4.5887
3.53772
3.22501
2.67931
2.58524
2.39349
2.59064
2.45245
2.39768
2.27376
2.28002
14.6872
56.5214
61.1851
55.9139
45.0941
37.2272
30.8187
28.4461
24.73
23.3426
21.2951
20.0576
18.8606
17.8912
17.2785
16.6513
16.3095
16.0162
15.8144
15.7186
68.7334
71.9929
63.3648
57.1256
49.9606
44.9055
35.8415
31.3878
27.5318
25.7482
23.1613
21.6903
20.1679
19.2376
18.4234
17.8799
17.4363
17.1894
16.9721
16.9405
59.2412
79.2969
67.747
61.753
52.9349
46.3442
37.2095
32.6142
28.1318
25.7377
22.836
21.2667
19.6127
18.6704
17.8441
17.3736
16.9941
16.8132
16.6507
16.6162
54.1075
66.1306
76.7255
64.5737
56.5976
49.4323
40.7056
35.9586
30.9207
27.1201
23.9826
21.8652
20.2027
19.0652
18.1574
17.5976
17.1859
16.9861
16.8209
16.7703
109.527
86.6148
79.3386
39.0301
59.6896
37.8782
45.1796
41.5906
35.7022
30.351
26.3193
23.1836
21.514
19.9652
19.0988
18.3458
17.9687
17.6617
17.4729
17.3376
100.273
80.4545
81.678
68.7275
61.5027
55.3452
46.5633
42.5111
36.4701
31.9208
27.207
24.1847
21.9353
20.6124
19.68
19.0303
18.6575
18.3847
18.1349
17.969
61.3582
50.3891
84.7545
42.1034
62.542
38.1434
48.0691
42.6868
36.8345
32.2132
27.3614
23.4427
20.5979
18.8
17.6926
18.095
18.1163
18.0444
17.881
17.7499
96.0857
52.8593
82.9482
48.6772
63.0404
56.1858
45.8048
39.7136
34.0445
29.5224
24.9107
20.4506
17.3055
15.4987
14.7768
16.1252
16.6393
16.8109
16.7782
16.8459
22.897
74.8693
87.3716
49.4765
56.8225
51.6864
46.5743
35.9614
30.6822
26.9989
22.1616
17.8731
15.4352
14.1072
13.8451
15.0843
15.6192
15.8946
16.0218
16.2894
77.3164
45.8892
86.4555
38.1118
53.4285
46.4227
39.0661
31.9561
28.3046
24.7917
18.1178
13.5655
12.829
13.1628
13.483
15.1042
15.5866
15.8255
15.9717
16.3488
37.3199
90.8475
85.7899
72.3946
53.6915
45.2309
39.1788
31.8642
27.1292
23.0684
18.8627
15.291
14.1263
14.0321
14.688
16.0685
16.2169
16.3028
16.412
16.7716
106.054
83.7736
89.2658
62.3117
59.383
37.2254
43.227
35.5909
29.0427
25.5348
22.4473
20.8895
19.2451
18.138
17.7412
17.5469
17.3022
17.236
17.3068
17.5617
103.4
86.4404
83.2061
72.5729
59.149
49.9117
42.5938
28.7467
31.8924
28.6467
25.8525
23.8388
22.0071
20.6272
19.5255
18.9125
18.6277
18.5755
18.6003
18.7906
46.8469
78.1911
75.17
38.4737
55.664
28.2689
41.8547
32.3032
32.1123
28.6489
25.8948
23.8988
22.4091
21.444
20.7224
20.4191
20.1992
20.2093
20.2069
20.3442
19.8458
77.8528
54.7837
65.112
50.9057
43.4607
41.0065
33.683
31.6665
29.1853
26.2839
24.977
23.4614
22.99
22.3372
22.2776
22.0426
22.0515
21.982
22.0044
29.3594
76.5802
57.7581
61.4451
49.9866
27.3321
36.5696
26.8941
30.5392
29.8359
27.48
27.2172
25.8456
25.6237
24.8917
24.6998
24.3093
24.1507
23.8967
23.706
24.641
64.8721
63.9672
60.889
45.507
38.6336
32.8888
31.0319
28.3535
28.1139
26.9093
27.0827
26.6762
26.8375
26.5491
26.465
26.0763
25.7081
25.1922
24.5539
15.8105
38.6274
49.3977
53.9345
33.7419
27.5186
21.5042
21.8737
20.2546
20.7561
20.4582
21.3011
21.772
22.6751
23.0722
23.4553
23.3595
23.1343
22.533
21.6018
8.10992
30.3671
13.5907
27.1872
10.2191
10.8886
5.18834
5.93039
3.91816
4.76366
3.50631
3.64795
3.09428
3.29353
3.1277
3.25864
3.15577
3.11859
3.16194
3.23702
27.0371
24.0112
7.76304
31.0338
29.1216
25.7467
8.79406
25.2052
6.47843
6.51247
28.2056
25.5346
7.95232
10.0609
8.59949
24.9415
24.2666
22.4107
9.343
28.5759
24.9899
5.27975
22.9042
17.2641
8.35448
8.31849
23.0417
17.3047
0.543669
0.626437
0.396144
10.6926
13.8099
14.6177
15.6646
0.674593
0.394209
0.428278
15.1635
16.1424
15.9909
15.7915
0.512117
0.431661
0.365846
15.7996
14.901
15.0451
12.6832
0.409037
0.338427
0.320492
14.8549
14.9375
12.5849
13.7899
0.374863
0.323935
0.372404
14.8779
14.289
14.1933
14.8169
0.351384
0.391398
0.409499
13.8639
11.8476
14.7933
13.8205
0.225184
0.405686
0.333635
10.5955
7.39245
13.0664
9.45572
0.142448
0.273824
0.142601
6.56167
5.45847
8.16319
6.36407
0.425002
0.875812
0.40659
15.7743
16.0462
11.8368
11.6353
0.413406
0.358433
0.284723
16.0747
15.1187
11.2509
9.75322
0.32446
0.256207
0.187663
14.151
11.5829
8.93997
8.09614
0.295011
0.187582
0.265054
11.6502
13.3376
8.83746
12.2645
0.379064
0.302833
0.370344
13.9111
14.74
12.6474
12.1334
0.41943
0.377019
0.380107
14.7754
14.062
11.8672
11.8974
0.357281
0.378589
0.353808
13.4461
10.3058
12.0288
11.4823
0.160837
0.332462
0.225257
9.12128
7.12227
10.7276
8.80131
0.318323
0.486841
0.212547
8.06334
8.57314
5.34101
4.45502
0.219243
0.180838
0.129494
8.44465
7.51097
4.08182
3.86206
0.160159
0.121888
0.144502
6.90641
7.19521
4.14732
8.21241
0.285668
0.186311
0.340712
8.41467
12.3248
10.0412
13.3903
0.356447
0.376656
0.393033
12.5033
11.4183
13.6567
12.7883
0.34313
0.381942
0.320875
10.9224
10.4999
12.104
9.96504
0.332867
0.3006
0.276366
10.6446
10.961
9.42973
8.73913
0.231856
0.268976
0.214047
10.692
8.88275
8.66546
7.95369
0.221235
0.697815
0.534844
6.57469
6.33153
9.65884
9.13319
0.134505
0.442155
0.443605
5.70684
5.05937
9.43206
10.9011
0.169522
0.435021
0.469207
5.43012
9.42026
11.2677
12.3906
0.349332
0.492692
0.422035
10.8013
13.3629
12.6434
12.7874
0.400826
0.415981
0.391666
13.6541
13.085
12.7265
12.646
0.32878
0.408889
0.343811
12.5391
10.4325
12.4816
11.3168
0.266139
0.33928
0.25026
9.80211
8.5891
10.8676
9.41924
0.20533
0.249863
0.154848
8.35615
7.46616
9.05452
8.19375
19.4309
21.7377
20.6749
32.8002
33.2962
36.2825
33.1136
20.5645
20.6987
19.4787
32.8498
30.4009
32.018
28.1325
18.63
18.4742
16.1006
29.3846
27.3622
26.8436
25.0577
18.5826
16.138
17.596
27.136
26.3157
25.2193
25.9642
17.5407
18.0178
18.437
25.8053
23.8555
25.9311
24.8564
14.3797
18.2504
16.6333
22.9156
19.1435
24.184
21.099
9.52451
15.5808
11.4043
17.6249
14.5414
19.7319
15.7508
7.20821
10.0755
7.83523
13.7829
13.2307
14.764
13.0103
20.9224
16.4738
14.9104
36.0124
32.4284
26.6462
23.4106
18.5591
14.3314
12.2772
31.0359
26.6721
22.353
19.4551
14.8928
11.3674
10.9747
25.3375
23.9068
18.8165
20.4194
17.1078
12.0513
15.2918
24.2976
25.3738
21.6498
13.6827
18.2857
15.2998
13.7004
25.3091
24.334
11.9274
9.5936
16.9624
13.3282
13.7257
23.8231
21.3623
10.3054
15.4052
12.3205
14.0614
13.5503
20.1852
16.4172
16.5621
16.64
8.50246
12.7135
9.93929
15.3519
13.2755
15.9559
13.4904
11.396
9.31513
7.06183
22.2251
19.7564
19.9906
17.2759
9.77449
6.53458
6.17272
19.0254
17.1158
16.4349
15.5563
10.0766
6.54497
11.4492
16.8895
19.84
16.3146
21.0957
15.2824
13.4481
16.9445
21.7771
13.8961
22.603
23.4461
12.7288
17.1078
15.3679
12.0631
8.13862
22.4452
17.549
11.6251
14.3631
11.3695
7.73308
10.9176
15.7539
11.3655
12.7894
10.6581
9.85071
12.7167
15.3582
10.7688
10.9079
9.98814
9.83982
8.8412
15.2277
13.2851
11.2444
11.4037
9.48012
16.5424
13.5181
22.6682
20.1369
27.0143
25.4421
7.80804
13.4866
14.5625
19.0105
17.7257
24.6196
24.1621
12.7655
14.8228
15.8115
18.3811
21.9815
23.9924
24.0604
16.9679
16.0769
16.119
23.0601
24.0411
24.0324
23.2336
16.0175
16.0102
15.6603
23.4825
20.0104
22.8819
21.5665
12.308
15.3966
13.8186
18.5219
14.0758
21.0205
18.7292
9.85414
13.248
11.4155
12.9247
11.4096
18.0086
15.9672
8.35064
10.9895
9.86609
11.4088
11.4109
15.6061
15.1611
36.6476
40.4275
36.1633
38.4463
42.742
48.2566
41.8538
32.7572
34.7553
30.3833
41.1658
37.2315
39.8153
34.9193
29.4663
29.1206
27.4561
35.9684
33.207
33.7916
31.8884
27.9434
27.5338
27.6981
32.5452
30.3744
31.503
29.8111
25.0784
27.4463
25.8452
29.4875
26.4831
29.0012
26.2292
20.2298
25.0486
21.7722
25.2828
21.8305
25.2058
21.9482
15.9756
20.4557
16.8174
20.7949
18.5724
20.8777
18.2436
14.8189
15.9341
14.3312
18.1472
17.5612
17.6031
16.3996
35.2151
29.6466
26.0118
46.5566
40.5518
37.1073
32.9061
28.8934
24.8797
22.0564
38.4641
33.7287
31.6828
29.2238
26.4301
21.6043
23.3657
32.7196
31.2835
28.9583
29.4468
27.6913
27.0543
25.8886
28.7127
26.1274
28.7886
27.9915
24.2054
26.2654
24.438
27.637
23.8071
27.0024
24.9606
21.9409
8.64883
15.6543
24.6715
21.8419
12.2173
16.8221
17.3284
16.928
17.1353
20.8846
18.3465
17.441
17.2628
14.4793
16.5288
14.3004
17.6722
16.3314
16.8623
15.4777
22.6116
24.1058
20.934
34.6472
30.7163
34.2184
30.4499
20.002
20.0176
19.0739
29.7863
28.11
29.3925
27.8884
22.8521
19.8058
23.784
28.0963
29.0979
27.991
28.6661
16.8526
14.6136
24.0735
20.3215
20.686
3.28673
25.5487
6.99686
6.36752
11.681
2.24856
9.82603
2.13699
8.23711
10.8794
15.385
11.2231
9.17488
13.3154
15.7619
12.7707
15.7108
10.7836
11.2561
14.4086
15.819
12.4946
12.98
14.017
11.6631
12.0851
15.7542
14.96
13.2992
13.9691
23.6112
31.1594
28.7026
36.3371
32.0789
34.7814
35.6621
21.0618
27.7255
26.7192
30.8307
28.8383
34.2963
31.826
24.4339
26.3756
25.9478
28.7224
28.6254
30.9623
28.8215
25.2174
25.77
24.5995
28.367
26.0087
28.199
26.1172
20.2903
24.1504
22.5479
24.6533
20.1241
25.4191
23.2483
14.2493
21.9462
19.623
18.6886
15.2465
22.6176
20.6768
11.9004
18.9235
17.0214
14.5605
13.8722
20.1521
18.822
12.2679
16.723
16.3546
14.037
14.5426
18.6457
18.3592
43.5288
49.6311
42.5559
41.2182
42.4943
48.8963
40.8251
37.8567
40.395
35.5075
40.8313
36.8946
38.5374
33.9061
33.5625
34.4044
32.2948
35.3394
31.8145
32.8001
30.1542
30.4199
31.745
29.5453
30.9272
27.9131
29.2484
25.9908
26.2158
28.6033
25.5689
26.6421
23.0363
24.7925
21.3247
21.7842
24.5051
21.322
21.9836
19.3153
20.2359
17.5328
18.712
20.3364
17.9663
18.4548
16.6856
16.8494
15.2916
17.6132
17.3845
16.2359
16.3039
15.5536
14.9069
14.0827
41.2674
39.0129
34.5197
47.8821
39.7241
41.2411
35.2547
34.4572
33.2502
30.7406
37.4821
33.0892
33.755
30.7152
31.7833
30.4009
30.2034
32.0852
29.7402
30.1341
28.2233
28.9039
29.1967
15.4299
28.8276
25.4476
27.2218
21.6232
24.9179
13.9814
13.5969
24.217
20.8405
19.7833
16.2996
21.1471
14.4437
16.8626
19.8321
17.2395
15.7407
14.7675
17.9692
17.1519
16.7731
16.6228
15.1787
14.6221
14.2486
16.125
16.4155
15.2301
14.8032
13.9703
14.0568
13.4398
32.7393
36.6601
32.5927
39.7016
34.2778
39.1292
33.9956
29.8656
31.4845
29.6025
32.9592
30.1833
32.6812
29.5721
29.826
29.426
29.0256
29.64
27.7342
28.6799
26.3575
15.1088
28.6022
24.7829
26.7554
20.8531
25.4042
21.7205
11.4237
22.8928
17.4964
18.8594
14.9161
20.2672
16.2826
14.0026
16.0851
13.3523
14.2661
13.4318
15.2167
13.3886
15.4685
13.0856
13.4272
13.4419
13.6372
13.2906
13.4966
14.7337
13.6792
14.2273
13.588
13.256
13.5875
13.7293
33.8423
38.7123
36.8444
40.0794
34.3882
41.6373
36.539
30.2298
35.4054
32.5076
33
29.5729
35.0119
30.9308
28.8222
31.4507
28.7877
28.5555
25.8861
29.3278
25.8109
25.4964
28.0778
25.8186
24.9478
21.7564
25.08
22.6213
19.804
25.0662
22.8368
20.5955
17.305
21.793
19.8824
15.4548
22.244
20.5044
16.3773
14.6216
19.5248
18.3264
14.3487
20.0323
18.8553
14.4183
14.2495
17.9593
17.1344
14.872
18.6926
18.3581
14.2673
14.2134
16.9831
16.4561
41.3315
47.3256
39.1952
30.8704
16.9037
29.8643
25.2348
35.7109
36.9655
32.4994
18.8066
20.0468
23.0435
22.246
30.4521
31.3799
28.4983
22.2977
14.9976
22.0543
20.9352
26.2337
27.4814
23.9605
18.3136
17.7519
21.0777
18.8819
21.4261
22.7283
19.331
18.7736
12.5169
17.8256
15.4704
18.0163
18.3487
16.1909
12.9512
12.9872
14.7169
14.7868
15.807
15.686
14.5066
13.0833
11.3373
14.5228
13.9483
14.9342
14.2063
13.604
12.0584
12.1975
14.0104
13.542
38.1526
40.6113
34.1461
29.2501
25.0023
18.3255
24.8356
31.714
32.6382
29.5176
23.2505
22.8015
24.07
24.8227
28.0315
28.7922
26.3831
22.503
21.9847
24.8083
20.1784
23.4059
25.2952
20.588
21.4846
17.7191
18.6269
14.7736
18.8332
18.9195
15.3995
16.6944
14.4632
13.7004
11.5685
15.8483
14.7066
13.6661
14.1252
14.301
11.4131
12.4444
14.3948
13.681
13.6134
14.4175
14.0931
13.0879
13.6318
13.4964
13.4846
13.0516
13.9426
13.5082
13.5756
13.1935
33.2962
38.3935
33.0087
19.8561
25.1979
17.493
28.3917
29.0207
31.6495
28.3217
24.804
26.2539
27.4552
25.7566
25.8654
27.3118
24.4954
24.8742
19.7045
24.4943
19.958
19.8936
23.4581
19.906
18.1557
14.3964
18.5912
15.6046
14.3179
18.6138
15.1307
13.3278
11.1283
14.7803
12.8706
12.6868
14.2265
13.0952
10.9706
12.0725
12.6463
13.3405
13.1862
13.1271
13.388
12.7828
13.4958
13.7242
13.9532
12.9381
13.4401
13.4856
13.4741
13.1939
13.9155
13.6282
33.2927
42.5088
35.4258
23.7745
27.7467
28.0946
20.3155
28.2337
33.874
29.4674
26.0688
25.6292
16.8426
24.6741
24.0845
27.8259
24.4205
24.4771
20.411
22.7158
18.451
19.9144
23.7134
21.3202
19.1571
16.4492
14.8839
19.3919
16.0194
20.5634
18.9227
15.744
14.1116
18.8341
17.3356
14.2123
18.6068
17.5543
13.8952
14.3082
14.4209
16.5942
14.0471
17.2264
16.4925
14.4092
14.3509
16.3285
15.7648
13.901
16.3129
15.7685
14.2592
13.8964
14.5305
14.8358
26.8431
27.1841
25.1052
28.1961
25.7699
28.6283
25.7987
23.0427
24.9261
15.4109
21.2717
23.744
26.7887
4.61095
18.8145
19.0108
10.195
2.55904
21.0209
17.0234
2.83445
28.8954
30.1614
30.6283
30.5018
29.9852
29.5455
29.7384
27.734
28.8841
29.9794
27.0653
29.5565
26.4551
28.4797
23.8533
23.5053
29.6037
15.7204
28.3309
4.58256
26.9731
19.418
2.59343
20.71
10.6205
17.6048
2.86182
22.9631
23.6182
25.7601
23.0309
25.677
23.3131
26.3433
23.3446
15.96
17.8719
5.49352
2.40435
17.1895
16.3419
2.3033
15.9078
17.3499
5.52274
5.20472
16.8574
17.0511
3.35815
24.5728
28.1272
27.2831
25.8904
27.3347
25.4513
24.8863
23.9008
25.7855
26.3942
23.5939
26.5519
23.5502
24.1238
16.4622
2.4432
19.5367
7.59248
16.9073
2.36938
18.7497
16.3868
5.83365
18.9909
8.32295
17.6324
3.39398
18.4923
12.3794
10.4313
13.9328
2.459
16.7625
2.77135
9.92706
25.2307
24.6868
25.4653
26.7397
24.4292
26.5533
26.7847
22.8103
21.0556
25.2225
24.69
23.0823
20.2284
26.0102
17.2703
18.7565
15.6679
28.2623
3.56561
26.9654
22.6893
12.3671
2.52676
10.9577
14.3292
2.8452
9.86321
17.4249
26.0674
27.9585
28.6448
27.9376
27.8682
27.5972
27.0321
23.1466
24.91
21.5052
26.6599
20.315
26.4744
24.3226
6.00475
5.42767
6.84493
3.28875
8.10675
2.08745
5.34496
15.4906
18.8163
21.1398
22.9926
16.5442
17.7612
21.0043
13.5206
12.3502
19.2329
17.0437
14.4053
11.6498
19.023
7.07805
2.32607
7.75264
12.2207
2.22781
8.21593
10.7174
6.27658
4.19569
7.40866
9.05842
2.33184
6.04217
9.54042
15.5023
23.0103
18.9351
21.0105
17.756
20.9515
16.6802
13.6213
17.0686
13.1084
19.1028
11.9267
18.9853
14.7637
1.88937
2.14724
1.91358
7.16978
9.42541
7.1277
9.90476
1.84369
1.90062
1.88377
10.2918
9.56053
11.846
12.2873
1.68973
1.83174
1.81813
9.81225
10.6006
12.0188
11.9305
1.47127
1.76939
1.55829
10.6881
10.2144
11.6074
11.4161
1.16641
1.35409
1.26858
9.89379
9.62794
11.0998
10.6525
0.933965
1.21162
1.0543
8.97582
8.07096
10.0023
8.91792
0.743089
0.874198
0.712022
6.92971
6.22144
7.27563
6.21531
0.582133
0.644575
0.443359
4.78551
4.34474
4.58379
4.5438
1.93588
3.03285
1.92776
8.46304
8.95408
9.64883
11.209
3.03954
0.605812
0.630256
2.55287
2.76376
2.66334
0.499194
5.5676
0.656446
0.427425
4.09111
4.67827
4.83573
0.469379
5.87226
0.600331
0.538363
4.98442
5.00517
6.07042
0.520624
5.23185
0.448881
0.422008
5.51175
5.52767
5.33254
0.395432
5.24744
0.386207
0.368681
5.59477
5.58321
5.23961
0.365364
5.19482
0.36563
0.380901
5.34037
5.17419
5.25297
0.380238
4.46256
0.301627
0.374407
4.14719
3.65288
4.83343
0.351821
2.04724
0.185032
0.207184
1.91878
1.66261
2.3027
0.175742
0.451099
0.486296
0.374915
3.7602
4.56593
4.14261
5.06159
2.47819
2.35096
2.21937
11.6422
12.786
9.50055
10.3874
4.17565
0.551916
0.850141
3.38095
4.12593
3.3312
0.590557
5.6415
0.411359
0.434851
5.54343
5.8372
5.4794
0.417737
4.44281
0.397858
0.382184
5.78514
5.30898
5.18176
0.353035
3.95914
0.292382
0.263038
4.093
4.28151
3.68586
0.258778
4.94352
0.332634
0.298523
4.85897
5.04353
4.76542
0.326745
5.23665
0.413908
0.398565
5.31257
5.33249
5.20705
0.411647
5.03579
0.406228
0.409928
5.18167
5.0368
5.14207
0.401943
3.71946
0.248109
0.320567
3.81627
3.24313
4.14616
0.272488
0.441978
0.799389
0.541815
4.7358
4.99523
5.5143
4.67179
1.45107
2.09404
1.3244
6.59983
6.22607
6.51088
5.09104
1.75546
0.423999
0.553852
2.08792
2.36099
1.76797
0.39982
1.78719
0.257653
0.241479
2.72537
2.67629
1.79733
0.215718
1.47612
0.171723
0.153729
2.03018
1.8408
1.3847
0.140688
3.49668
0.19295
0.164292
2.55461
3.19464
2.77621
0.209939
4.60405
0.342183
0.344867
4.40903
4.50405
4.56427
0.364018
4.2286
0.349893
0.357811
4.41584
4.3506
4.36578
0.344656
4.14781
0.338607
0.316722
4.40636
4.45363
4.12521
0.313318
4.15306
0.303492
0.304982
4.3811
4.2209
4.21932
0.298404
0.542152
0.777575
0.502504
5.60144
4.75005
5.31924
4.85194
1.23852
2.09989
1.38664
5.57096
5.61961
6.87504
7.08734
2.11035
0.342435
0.509821
1.591
1.60583
1.88067
0.356334
1.70862
0.165052
0.234838
1.31468
1.17328
1.91159
0.198845
2.51113
0.13181
0.161332
1.4286
1.71583
2.09534
0.169591
4.18448
0.259465
0.27414
3.53169
3.98331
3.94647
0.305834
4.6136
0.402235
0.399818
4.64322
4.70594
4.58021
0.411189
4.39546
0.374756
0.40463
4.54628
4.37738
4.52863
0.389918
3.73818
0.289757
0.319569
3.85688
3.75201
3.88487
0.298031
3.34746
0.247301
0.246268
3.54157
3.49055
3.40699
0.236785
0.439111
0.634217
0.415948
5.08945
5.5157
5.96511