/*--------------------------------*- C++ -*----------------------------------*\
  =========                 |
  \\      /  F ield         | OpenFOAM: The Open Source CFD Toolbox
   \\    /   O peration     | Website:  https://openfoam.org
    \\  /    A nd           | Version:  10
     \\/     M anipulation  |
\*---------------------------------------------------------------------------*/
FoamFile
{
    format      ascii;
    class       volScalarField;
    location    "6.5";
    object      omega;
}
// * * * * * * * * * * * * * * * * * * * * * * * * * * * * * * * * * * * * * //

dimensions      [0 0 -1 0 0 0 0];

internalField   nonuniform List<scalar> 
12920
(
98.1308
89.5356
91.6872
88.8912
78.7152
70.3536
63.4723
60.9031
58.6099
57.7196
56.4565
55.9472
55.0689
54.7368
54.5344
53.7391
51.9046
47.5569
44.2285
38.3465
138.923
154.369
135.87
116.842
97.188
86.5359
77.2418
71.8197
68.7247
68.6483
68.6811
68.7563
68.1476
67.3823
65.3662
62.9998
58.0897
51.5496
45.1043
40.2142
238.96
198.273
160.142
132.411
108.73
96.4016
84.5194
75.7775
67.1989
62.6049
57.7037
55.1061
52.031
50.0194
48.0481
46.5658
44.4695
41.9262
39.5576
38.1499
378.189
294.063
199.888
148.563
115.31
98.3704
82.4875
71.042
63.2319
57.1051
52.2872
49.1727
46.2394
44.2814
42.0906
40.2856
38.6046
37.3665
36.6351
36.0746
160.897
252.466
228.166
172.283
132.62
110.269
94.913
83.7951
77.4284
68.5396
60.058
52.23
46.7073
43.7389
41.6096
40.0962
38.7499
37.7982
37.1885
36.7009
145.527
244.389
214.204
158.967
128.535
118.908
105.185
98.8378
91.9078
87.0909
81.85
72.4817
61.4963
50.5481
44.4078
41.5379
40.2896
39.6259
39.4946
39.2578
250.64
277.785
188.035
137.592
124.685
117.859
102.41
94.144
85.7012
81.1642
78.2169
74.3427
67.0994
56.6312
48.4611
44.0484
42.3235
41.7767
41.7803
41.9987
293.277
282.74
191.239
150.589
127.596
115.076
175.55
148.418
142.653
131.532
126.783
120.035
107.828
91.0313
46.7749
44.5328
43.2215
42.0385
41.5358
41.5756
136.407
201.25
182.723
172.702
158.781
237.572
335.319
252.294
254.813
238.308
228.812
225.465
213.109
153.067
71.7653
46.2756
45.5664
43.4559
41.9754
40.4259
124.218
206.074
195.584
151.049
130.916
215.968
326.914
267.745
264.307
206.707
207.47
225.449
228.153
201.444
96.8401
48.5383
46.6084
44.0809
41.7691
39.4358
243.063
207.894
205.228
159.02
118.399
172.697
253.133
204.586
169.184
147.51
189.793
198.173
198.94
203.103
113.382
48.0274
45.6228
43.59
41.8545
39.5386
196.811
213.13
190.747
141.224
101.956
129.252
193.088
142.482
119.679
151.4
191.72
196.526
178.5
168.555
95.3495
49.6427
48.6105
46.2581
43.1474
39.531
145.872
222.915
200.72
176.018
136.958
116.233
171.344
116.955
111.907
108.273
102.99
103.582
99.8189
93.5505
55.2368
52.7273
49.9594
46.021
41.8178
38.4742
216.262
243.977
210.03
149.117
122.642
108.705
94.5969
82.8786
72.6526
62.3437
57.2567
54.3527
53.7084
52.8758
51.9197
50.0827
46.9314
43.2148
40.3399
38.9655
197.889
205.337
172.2
130.975
114.312
97.3332
87.8099
77.9906
69.2219
62.1021
55.9545
51.8711
49.5487
47.6212
46.0472
44.5202
43.0271
41.9084
41.2868
41.621
195.141
218.058
190.465
139.217
117.34
99.5923
85.5699
77.4763
68.8624
63.5824
57.3564
53.5237
50.1471
48.1032
46.2663
45.0658
44.2278
44.0628
44.3479
45.67
167.664
206.893
161.35
121.731
109.855
83.1648
76.6765
68.4285
64.9489
60.5858
57.1102
54.766
52.1986
50.8087
49.4614
48.877
48.6654
48.7741
49.1079
50.0763
192.379
196.773
171.809
132.82
113.169
90.9803
75.8075
69.3787
64.2944
62.3437
59.6565
58.7963
57.5581
57.1721
56.6362
56.5236
56.5311
56.6882
57.211
57.351
170.169
211.678
183.668
139.303
109.817
86.8791
72.9947
67.3618
62.5011
60.1694
58.4732
58.2937
58.147
58.3011
58.401
58.7458
59.022
59.2458
59.1907
57.9063
314.148
162.189
135.276
123.216
111.7
97.2491
84.6327
73.4233
62.6967
54.1862
49.3107
47.6992
46.7127
45.6981
44.7958
43.842
43.3086
42.0959
41.2532
38.8489
74.439
52.1901
52.3833
47.9236
42.1912
39.4054
35.7564
34.4653
33.3179
32.9275
32.5408
32.552
32.5906
32.7679
32.6731
32.1829
30.7247
27.1731
25.1676
22.1221
121.9
134.898
104.588
78.2237
66.2141
52.7582
43.3077
38.0476
34.8964
34.4807
33.8288
33.8007
33.4739
33.305
32.7925
31.9219
30.9335
29.438
28.8182
27.0497
146.692
141.627
122.312
111.66
93.8743
69.923
48.4942
37.6672
31.6333
29.6533
27.3581
26.5861
25.425
24.9909
24.6426
24.5986
24.5204
24.0996
23.5674
21.763
402.496
171.8
125.768
102.163
78.9452
55.6879
41.8422
34.0634
29.8751
27.3407
25.37
24.0281
22.7831
21.9016
20.9678
20.3781
19.8584
19.4086
19.0092
18.4583
168.501
193.756
147.06
96.6715
70.9608
55.2854
45.9863
40.3673
38.0064
34.8122
33.1384
29.8811
27.257
23.9503
21.8649
20.4199
19.5817
19.0401
18.6464
18.5532
195.51
139.703
110.92
78.1801
63.4489
56.0045
49.7697
47.639
45.6112
45.7337
45.8888
46.0228
44.671
35.7833
26.4791
21.9889
20.2429
19.6618
19.5575
19.8364
437.964
237.354
121.782
87.1143
68.1543
57.7172
50.058
47.846
45.0054
45.3792
45.0807
45.5584
44.8693
41.0758
31.8653
25.4299
22.3084
21.3004
21.2252
21.7954
365.992
296.491
145.503
92.501
74.4951
58.7114
60.0945
50.7812
46.7095
42.9299
42.8263
42.7499
42.6854
40.3631
27.6246
23.7432
21.9799
21.4536
21.4462
21.8091
315.983
169.442
122.092
93.2732
76.7492
83.4955
77.6248
63.1728
51.2651
46.0919
43.7404
44.1088
45.5123
41.2637
30.6975
23.0777
22.162
21.6924
21.5281
21.1359
453.819
152.484
90.6626
72.7232
61.2525
68.2547
74.6695
65.8649
59.4672
49.4794
42.1731
39.9896
40.6497
42.7458
36.5139
24.7217
23.3833
22.9163
22.583
21.636
252.435
151.658
114.516
77.1988
63.6259
66.3722
69.3663
65.6619
61.7478
46.2982
38.2113
40.6509
40.0585
39.3202
39.2351
26.8212
24.8256
23.8423
23.3076
22.0285
237.801
135.088
100.131
71.4331
58.0842
56.8925
60.3733
53.7991
49.9658
38.1921
32.6541
32.5674
34.3584
34.8468
32.8443
26.1753
25.0412
24.2748
23.5041
21.6023
251.186
172.303
117.545
91.7792
68.7555
55.3742
59.8594
47.9157
37.4824
33.2378
30.4265
28.8303
28.2813
28.2025
27.2123
26.6708
25.8145
24.8866
23.3328
20.7765
277.577
193.394
123.613
77.7756
59.8469
53.8505
48.1928
43.2572
36.3828
32.4207
29.0955
28.4876
27.6573
27.5489
27.0313
26.047
25.0812
23.7097
22.1659
20.6366
225.769
121.716
83.886
61.7843
51.5523
45.3427
42.1623
38.2691
33.7588
30.209
27.7984
26.1371
25.3768
24.6612
23.8901
22.9998
22.1812
21.4718
20.9713
20.9313
216.083
162.1
102.039
66.0519
52.7132
46.5474
40.5984
37.2342
32.9888
30.402
27.7069
25.883
24.4685
23.4731
22.7399
22.197
21.831
21.6357
21.615
22.0536
301.548
148.874
83.8078
56.3385
45.3444
41.8864
37.37
33.8304
30.9254
28.7246
26.9605
25.8005
24.6992
24.0643
23.5103
23.2687
23.1783
23.24
23.4417
24.2221
526.587
154.661
83.4044
60.6738
48.6673
42.528
37.8841
34.9063
31.9236
30.2551
28.5538
27.8069
27.0303
26.7678
26.5755
26.5907
26.6855
26.9653
27.4231
28.584
205.404
162.01
92.6112
71.5685
52.47
46.2369
39.0106
37.3859
33.6448
32.1338
30.2323
29.5819
28.9511
28.8265
28.8141
28.9209
29.1962
29.5877
30.0754
30.6134
104.3
87.6588
79.2683
71.3894
64.5846
55.922
48.3169
41.2817
34.1556
29.0544
26.2982
25.7649
25.9093
26.0378
25.8494
25.5405
25.4317
25.197
24.9745
24.3373
98.7101
80.0152
67.7693
56.6666
50.8884
47.5799
44.1593
41.853
39.5801
37.8781
36.5321
35.5487
34.959
34.2785
33.4275
31.6282
29.4614
26.4599
24.7156
22.0223
284.104
149.21
102.674
64.3156
51.5691
42.4964
36.464
34.5909
33.1763
33.3386
33.0078
33.0406
32.6338
32.4221
31.7471
30.8576
29.6728
28.2572
27.4193
25.543
170
165.521
114.922
95.6615
71.2797
50.8637
36.7241
31.1907
27.606
26.4299
24.8131
24.3489
23.4715
23.3254
23.1025
23.0552
22.8477
22.2763
21.7722
20.639
134.517
132.402
100.465
77.6878
58.4289
42.3905
33.2424
28.1886
25.6236
23.542
22.2135
21.1587
20.3048
19.8207
19.2677
18.9873
18.6582
18.4189
18.2001
18.0133
251.013
155.202
102.902
73.3148
55.0313
43.4495
37.0651
32.3044
30.7032
27.9539
26.5815
23.9018
21.9437
20.3637
19.2588
18.6851
18.254
18.0563
17.9366
17.9968
199.373
117.721
81.9447
60.5678
51.1997
44.2239
40.3649
37.8953
36.1653
35.7446
35.2628
33.8966
30.3288
24.8253
21.1711
19.4512
18.7815
18.6285
18.6626
18.9695
264.129
151.906
88.2131
64.7238
52.4942
45.8
40.6391
38.2525
36.2687
36.3383
35.9311
35.265
32.6339
27.9346
23.7543
21.2573
20.214
19.9993
20.0973
20.6142
318.081
211.004
96.5654
67.2787
54.5315
45.6099
44.9621
40.6766
37.5293
35.5636
34.993
34.2127
32.4266
28.4127
22.8982
21.301
20.6417
20.5409
20.6243
20.878
143.91
138.278
102.373
72.0041
56.3193
53.7462
50.0387
45.7478
40.2881
37.4087
36.0246
35.3234
32.9682
28.7175
23.8538
22.2419
21.5403
21.0549
20.8321
20.3626
205.916
136.043
79.1672
55.9527
48.9698
50.3904
53.0516
47.6184
42.9367
38.2324
35.6625
34.3237
33.1772
30.9756
26.1772
24.2792
23.335
22.3902
21.7512
20.7028
321.317
146.428
108.19
68.0474
51.0144
49.9558
50.0519
47.9081
44.383
35.3932
78.5647
70.9956
40.6631
33.043
28.8157
26.2328
24.4937
23.037
22.1468
20.8989
127.281
142.915
107.757
65.3699
47.8045
45.0881
45.7256
42.0134
38.7959
32.0725
29.27
30.7486
33.3082
32.3108
28.1572
25.1686
23.7798
22.4977
21.4584
20.1812
407.278
202.575
113.888
80.8228
57.6944
46.0778
45.251
37.3472
31.0653
28.6959
26.6116
25.7975
25.3744
25.3341
25.0323
24.0684
23.0225
21.7428
20.4765
19.313
209.348
172.272
103.285
64.0058
50.4348
43.3176
38.9465
33.296
29.0239
25.8466
24.6681
24.094
23.8887
23.6726
23.07
22.2752
21.3796
20.4854
19.6721
19.1883
252.609
138.578
78.7183
53.1476
44.2913
37.1806
35.3038
30.8048
27.3699
24.6304
23.154
21.9921
21.5291
21.0379
20.6005
20.1614
19.7846
19.5353
19.4147
19.5306
161.765
150.037
103.594
58.7215
44.9382
36.8362
33.6592
29.9188
27.1067
24.9092
23.2282
22.0655
21.2581
20.7502
20.369
20.168
20.0248
20.0366
20.1279
20.5629
304.92
184.143
89.1764
51.4425
38.7527
32.892
31.5488
27.8044
26.3726
24.4269
23.4262
22.6544
22.0479
21.771
21.5281
21.5153
21.5481
21.7194
21.9724
22.5997
215.929
138.858
84.2279
55.1094
43.5499
35.9116
32.6913
30.0749
27.9583
26.8423
25.7547
25.3865
24.9186
24.8528
24.7871
24.8577
25.0091
25.3235
25.6924
26.3858
323.759
203.967
104.658
67.5742
51.3669
44.1493
38.7213
35.5183
31.8964
30.257
28.734
28.404
27.9569
27.9954
28.0251
28.2412
28.4606
28.8221
29.1117
29.4145
125.293
107.995
92.5544
82.8321
73.3978
63.6115
54.5089
45.7267
38.177
33.5379
31.3572
30.348
29.5517
28.6781
27.921
27.2698
26.9715
26.6189
26.4278
25.8593
74.7001
104.208
88.6637
65.5008
57.6138
52.5924
48.8122
45.6063
42.8635
40.2154
38.1735
36.0773
34.321
31.9914
29.9666
27.7585
26.0051
23.8626
22.6466
20.8651
166.75
152.564
131.687
68.4346
54.3378
43.3841
40.9339
39.0355
39.0245
38.8272
38.2983
37.7729
36.6918
35.9409
34.5594
33.3571
32.0084
30.884
30.0872
29.3874
193.509
169.265
110.114
73.7001
60.453
44.5954
37.9247
32.649
30.9003
28.7834
27.952
26.7575
26.2857
25.839
25.7642
25.5839
25.4614
25.1587
24.9596
24.6167
143.467
138.947
97.1541
64.1172
54.0345
39.5416
34.812
28.9479
27.6388
24.8365
24.2582
22.9357
22.7089
22.2637
22.185
22.0538
22.0487
22.0546
22.108
22.2645
350.917
129.641
90.9604
62.5746
54.5652
41.6673
38.079
31.8195
30.6235
27.0646
26.0667
23.779
23.0494
22.1755
21.9106
21.7385
21.736
21.7773
21.8734
22.123
381.974
154.091
78.8728
56.1442
52.6573
41.8485
40.6928
36.0806
34.5974
31.8622
30.6325
27.8537
25.9362
23.7797
22.7211
22.2227
22.1828
22.259
22.4569
22.8002
222.644
124.798
81.9088
57.2383
53.4322
43.8823
41.0991
36.4915
35.1583
33.2443
32.1106
29.8473
27.8064
25.4536
24.1999
23.5038
23.4432
23.531
23.8035
24.1273
403.773
136.746
84.333
57.9276
53.0719
43.4913
42.2175
38.6294
35.9599
33.8947
32.3916
30.435
28.2815
25.9095
25.8044
24.7439
24.3919
24.343
24.4147
24.4741
226.641
143.717
98.6983
64.6719
53.3721
47.3735
45.0123
41.6617
37.9344
36.0713
33.7313
32.0824
28.978
26.9788
26.8602
27.0434
25.6545
24.8783
24.5156
24.1138
161.475
130.951
82.0092
55.6941
47.5245
46.7253
48.1015
42.2567
39.0924
36.8576
35.3148
33.3807
31.3142
29.3809
29.1863
28.9753
27.0217
25.6916
24.9446
24.2846
391.818
141.774
110.579
66.952
52.0961
46.1778
43.9479
41.6424
38.7761
35.9449
52.4915
43.0597
34.9068
31.7957
31.3844
29.7939
27.4742
25.9223
25.0893
24.3647
162.933
149.204
115.794
65.8495
48.8006
43.9335
43.1515
39.8053
36.5454
33.2437
31.9333
32.3615
32.6927
31.9931
30.8421
28.7236
26.6274
25.1257
24.2754
23.6635
485.71
154.372
114.575
75.8857
58.2896
46.0335
43.4984
36.4308
32.0476
30.6446
29.233
28.9576
28.4778
28.4201
28.1065
26.312
25.0238
23.9468
23.2373
22.8595
264.067
166.545
95.1072
59.3557
52.0711
41.3687
39.3931
32.0166
29.8409
26.1365
26.3484
25.2834
25.6264
25.1185
24.7467
24.0179
23.464
23.0039
22.6846
22.6791
261.83
161.865
82.2883
53.3046
47.0338
37.314
36.7307
30.5227
28.13
24.9974
24.4621
23.2451
23.2821
22.9108
22.86
22.6498
22.6334
22.6273
22.6959
22.9724
416.646
196.984
96.8774
57.3016
46.7862
36.3649
35.2103
29.8378
28.4941
25.6602
25.0269
23.7975
23.6556
23.2443
23.257
23.1826
23.2446
23.3513
23.5373
23.9126
266.854
154.298
88.0049
52.7879
41.1381
34.2942
33.3942
28.5108
28.3211
25.9106
25.8238
24.907
24.9243
24.6892
24.7922
24.8239
25.0057
25.195
25.4813
25.8609
280.572
142.701
90.6108
57.6527
47.9214
36.8508
35.5834
31.3846
30.9963
29.4502
29.4248
28.8764
28.8542
28.6541
28.7298
28.7482
28.9226
29.108
29.3806
29.6357
216.436
177.067
113.916
69.4195
57.0976
46.2282
43.4442
37.475
35.6522
33.7325
33.4254
33.2253
33.2339
33.2544
33.311
33.4796
33.6106
33.7686
33.8071
33.8336
71.366
88.6763
93.4569
88.1517
75.7048
64.3364
54.5045
45.4312
38.8318
35.0319
33.0168
31.5396
30.3067
29.237
28.5617
28.0146
27.7696
27.3127
26.9954
26.0829
108.235
115.382
99.3715
69.6106
60.4832
53.9132
49.6203
45.7286
42.0821
38.117
34.4061
30.8225
27.8257
25.3553
23.6501
22.2532
21.2184
20.2208
19.5218
18.8165
224.696
174.222
150.331
72.8583
76.7248
53.5738
63.9513
51.9034
57.4983
49.8747
51.9429
46.5438
46.9223
43.1849
42.6949
40.3665
40.3492
39.952
40.419
41.1261
228.032
152.629
120.083
66.8035
74.9651
51.1006
56.8954
42.4671
45.6029
37.037
39.1423
34.2879
35.6439
33.2084
34.0948
33.0681
33.887
33.7182
34.2319
34.497
364.003
151.669
111.326
63.6832
69.5722
45.5712
50.124
35.9551
39.0986
31.3617
33.7707
29.8688
31.6371
29.9107
30.888
30.166
30.8668
30.8933
31.3907
31.9965
206.034
144.079
107.286
64.4259
74.4078
48.5536
52.9863
38.7681
40.9415
32.827
34.602
30.275
31.8381
29.9217
30.9919
30.301
30.9919
30.9035
31.2834
31.7482
505.619
234.956
97.8172
67.2843
69.0187
47.5354
52.7935
39.8876
40.9809
34.6378
34.9092
31.3696
31.8417
30.8191
31.354
30.9165
31.2965
31.3008
31.5938
32.0766
355.011
147.617
95.7541
61.1001
71.8202
49.1178
51.4879
42.0174
41.7824
36.907
36.9979
33.7034
33.5296
32.1333
32.5475
32.3278
32.7892
32.739
33.0048
33.2397
237.331
160.797
90.6657
67.5504
67.5736
52.4563
47.2755
42.8842
41.3365
37.86
37.5208
34.5649
34.7882
33.8733
35.4635
33.8164
33.5094
33.4407
33.4792
33.4969
341.574
166.814
105.34
66.5295
62.9609
53.6363
52.9648
46.3796
44.8989
42.7
41.0633
39.207
39.2115
39.3246
40.3124
35.939
34.2141
33.5706
33.4264
33.1414
162.586
149.344
95.6894
69.4537
53.4026
52.043
53.392
50.2894
49.3414
46.9129
44.7628
43.1332
43.3628
43.6908
42.4924
36.9541
34.6661
33.7333
33.4658
33.1626
340.999
172.071
115.982
75.4088
64.6351
51.1166
50.2209
51.5505
50.3168
46.9558
46.0733
44.2238
45.1455
45.0911
43.0876
37.154
34.8616
33.85
33.5859
33.28
197.889
158.178
122.943
71.0984
57.3185
51.684
52.1524
50.7326
49.0406
46.4157
45.245
45.0025
45.3641
45.0917
42.925
36.649
34.4703
33.2864
33.0248
32.8313
407.042
171.15
122.335
74.1394
72.4611
54.547
50.7354
42.3858
42.2682
39.4403
40.8698
39.2605
40.2258
39.1246
36.9134
34.2575
33.1903
32.4809
32.2413
32.2474
259.557
158.669
102.081
63.0427
65.6917
47.2001
50.7661
38.5962
38.1317
32.5439
34.6716
31.9936
34.025
32.4839
33.1585
32.1569
32.2978
31.8086
31.8353
32.0282
240.072
151.349
90.5124
63.0631
58.6724
46.2209
47.4095
35.9206
36.0814
30.9165
32.1296
29.9913
31.3369
30.482
31.2782
30.976
31.5086
31.4403
31.6571
32.01
212.389
156.826
106.078
63.6864
57.6931
44.3933
45.1905
36.0808
37.4961
32.2191
33.8213
31.1283
32.6507
31.3563
32.4555
31.8515
32.4879
32.2542
32.4843
32.6494
204.473
151.801
96.2547
64.0657
50.833
46.5802
43.153
35.6745
37.7474
32.3006
34.8928
32.0168
33.9604
32.6922
33.9338
33.4364
34.1838
34.0248
34.2884
34.3441
172.522
153.281
104.928
66.2644
59.8623
45.6203
47.153
38.3982
41.9756
36.913
39.7909
37.0069
38.8375
37.3699
38.5373
37.8563
38.5295
38.2159
38.4023
38.2019
175.874
174.026
127.411
72.0955
71.731
51.4404
54.7593
42.0234
48.436
42.1025
46.8951
43.5727
45.9878
44.2847
45.6261
44.9077
45.5507
45.0744
45.004
44.7003
105.465
96.3038
98.5256
86.4036
71.0139
57.4353
46.6141
39.0575
35.4207
32.9835
31.2328
29.6394
28.587
27.9004
27.5276
27.0447
26.5975
25.7272
25.1479
23.7639
36.0565
38.1355
87.9375
36.4034
35.2994
36.875
85.2599
34.6526
93.614
76.978
34.9754
33.7055
83.477
57.4631
76.3681
32.9045
31.1314
35.4266
77.4729
32.814
32.6124
77.3989
31.4306
34.3564
75.4544
57.8068
33.155
34.8652
253.597
344.18
270.945
99.2114
80.0868
96.2071
80.4232
256.955
266.42
269.9
72.4728
60.0648
75.826
67.2894
241.563
268.315
233.133
57.5535
52.4071
65.709
58.6908
230.097
219.773
211.206
51.1113
48.6902
55.2172
48.2761
226.277
212.528
223.69
48.3606
48.5014
47.2959
46.0087
219.46
226.978
229.758
49.0673
51.2379
45.8136
46.2023
167.453
229.048
211.505
51.758
50.2307
46.9487
49.6336
118.971
192.101
127.558
47.7662
40.1953
49.5114
41.8402
271.104
280.425
237.278
88.7016
77.8126
82.9981
74.971
267.414
229.734
209.987
74.245
67.7678
73.02
68.3256
218.57
197.052
163.685
66.834
59.3791
67.46
59.4685
203.251
162.776
183.782
55.4523
47.9261
54.7582
44.0883
222.178
192.848
206.183
46.8385
44.9111
43.0331
42.7223
228.734
207.415
210.272
44.5362
44.5975
42.7856
42.3744
216.85
211.636
211.38
45.1628
48.0211
42.2384
43.2766
141.829
208.553
177.773
48.5888
43.4771
44.3901
46.7077
212.93
222.394
160.436
81.7799
74.3975
78.5604
69.062
181.993
149.204
124.707
73.0853
68.6826
67.5351
63.3457
146.261
120.542
129.825
67.7159
57.6096
61.1527
46.5228
181.656
145.432
186.297
51.2494
41.3928
42.7658
37.5291
198.201
193.886
198.668
40.947
41.7342
36.9801
37.0105
197.929
197.307
184.002
42.1408
42.2437
37.4436
38.5648
203.229
179.62
176.756
42.0117
42.1739
38.7372
38.7438
179.027
177.084
163.228
42.8775
46.089
38.8168
39.2459
153.345
288.854
193.525
70.6621
61.9891
77.5408
63.7348
120.185
173.536
161.67
59.9177
56.0192
57.0623
46.9299
136.8
166.844
175.53
53.7917
44.0746
44.7737
39.1474
184.983
178.618
178.959
41.6253
37.2033
38.3027
35.5275
197.502
177.762
178.514
36.4662
36.024
34.7193
33.062
183.831
178.933
173.829
36.2297
37.0854
32.8961
32.5623
170.777
170.509
154.472
37.198
37.1359
32.4527
32.1273
155.031
151.124
127.147
37.1899
37.9365
32.1529
31.6979
68.5463
78.9244
70.7262
54.2756
50.4718
56.503
53.0293
53.3929
67.3262
60.2625
48.3066
43.4758
51.3746
46.8185
47.1276
58.6542
51.9848
41.9814
39.1363
45.4457
41.1542
44.0771
49.1773
43.5349
38.6439
37.6101
39.8318
37.0952
43.718
42.6047
41.2059
37.2431
36.7831
36.5303
35.5248
45.4604
41.0651
41.5461
36.845
36.1331
35.3811
35.1509
43.2469
42.2106
43.5371
35.3162
32.2327
34.9991
33.2589
35.5383
43.1053
37.5037
30.8085
26.5691
32.1674
28.1182
68.4516
71.4489
66.7131
56.318
52.2807
55.776
51.7563
60.5825
65.2014
61.8421
50.726
46.9018
50.72
48.5029
52.5551
61.1604
53.5981
45.7402
41.3972
47.602
41.4798
43.2334
49.1744
40.5969
39.9147
36.9239
39.2353
53.1103
40.2923
40.1285
40.8553
36.3948
35.3026
56.4447
57.8197
40.1182
40.9926
39.825
35.0324
34.5456
54.0354
39.3577
42.6533
39.2036
39.3865
34.4879
33.6631
36.7516
34.1521
39.0959
40.2021
42.8612
33.0097
28.9632
33.8814
31.7586
66.6796
65.0356
61.2454
53.4734
51.9603
49.7713
47.6343
62.4535
60.4372
58.419
51.2328
49.0067
47.6291
46.3987
51.9701
56.7056
43.1174
47.9312
40.4633
44.3821
36.0874
38.2819
39.4667
33.9031
37.1437
49.4491
33.8141
30.8762
40.075
33.3381
33.6513
52.2371
57.9601
30.9639
33.3155
40.6968
34.2479
36.1498
57.5161
45.4227
34.4861
37.8758
38.9875
36.6178
36.7336
41.0647
34.9444
38.2391
35.7473
42.4548
36.5506
36.8893
34.3114
31.9876
34.4912
31.2492
55.0463
61.6157
54.7587
48.2556
44.1043
47.8567
42.4564
51.8705
50.4026
42.6412
43.8944
42.4937
40.6123
36.0993
40.7297
40.5518
35.5635
40.8443
34.6475
34.3786
30.776
33.4109
34.7179
31.9615
32.8589
29.5912
30.1616
27.9486
32.2885
31.1839
29.7578
29.2558
29.8562
27.3394
26.3898
33.9568
29.6127
29.4358
30.4632
32.7741
26.3105
26.2553
34.841
29.4024
29.4753
33.391
33.608
26.2896
26.5015
35.4877
29.5726
29.6248
32.935
30.5095
26.5346
26.1929
47.4947
52.4098
49.6602
45.2835
43.041
47.1118
44.2568
41.697
48.1451
43.9849
41.8552
39.0404
42.9135
39.7754
37.7703
42.7573
39.2488
37.8575
36.0678
38.9646
37.0347
36.4694
38.2439
36.1158
35.8561
34.4932
36.5326
35.1647
35.3905
35.634
34.6614
33.8355
32.8216
34.7126
33.4662
33.9444
34.4565
33.7671
32.3518
30.0122
33.0277
31.3233
29.9852
33.3483
31.175
29.0899
27.1793
30.6532
28.6614
25.2564
30.1273
26.7205
26.3986
24.7718
28.0032
26.4212
49.1123
52.4372
48.524
48.488
43.8865
46.7425
42.8026
44.0064
47.4987
45.2047
42.5347
39.6684
41.888
39.7289
39.3813
44.2501
39.0897
38.9445
36.9918
38.9607
36.2994
36.7362
37.2608
38.1604
37.1015
37.3638
36.3818
36.95
37.0376
35.3132
37.1907
35.2098
37.0047
34.8879
37.2588
33.4496
62.1188
38.9587
33.1974
31.5756
47.6858
35.1531
31.749
36.0448
32.8933
31.0329
29.2789
33.5423
30.997
27.4257
32.3758
29.9208
28.6495
26.8672
30.3513
28.6895
48.6763
46.5759
45.016
44.4492
42.7692
42.4862
41.1701
45.5353
44.957
43.2183
42.0051
39.7032
40.7607
38.3768
38.2712
41.4329
34.7487
38.8083
35.6989
37.2596
33.7665
51.1475
56.7656
35.205
41.306
39.8034
234.815
35.3199
77.3448
80.3208
55.1025
187.296
58.599
169.665
75.1535
45.732
35.5713
38.3383
51.0079
37.9534
35.1289
35.0219
33.9266
38.3176
35.1163
35.7101
31.9882
34.7619
32.9142
30.2145
33.7338
30.4528
31.1789
29.2468
32.1604
30.3627
42.2195
45.5019
40.6771
42.8275
39.9459
43.5165
38.5751
40.2797
39.0923
35.001
39.4621
37.1567
37.3886
33.9637
33.5712
33.4011
30.2424
36.1129
33.0892
32.7407
30.816
29.4525
29.7271
27.7008
32.2315
30.8425
30.503
28.8916
30.1344
27.1395
26.3217
30.8453
31.4702
28.513
28.0846
32.847
26.269
26.1929
31.7022
32.2418
28.0562
27.7969
33.136
26.2088
26.34
32.275
31.7749
27.7475
27.7097
29.8476
26.3543
25.9649
31.2881
29.9552
27.6956
27.3077
42.8025
46.8393
43.874
49.4197
45.4899
51.1649
47.6684
39.036
42.606
39.8041
44.314
42.4228
46.8025
45.1709
36.3231
39.1025
37.4223
41.9268
40.5399
44.784
43.1378
34.4176
36.9575
35.5393
39.861
37.927
42.5047
40.6735
32.6534
35.0491
33.6738
37.5144
36.3901
40.1345
38.6929
29.716
33.1839
31.4652
35.6395
34.5455
38.3325
37.8569
27.5399
30.8661
29.2697
34.6718
34.6895
37.8252
37.8447
25.7505
28.7869
27.7006
34.5835
34.5
37.8622
37.8538
43.5045
45.9484
42.355
50.8663
47.3788
47.7007
46.9961
39.7176
41.5579
39.6291
46.7714
45.5546
46.9126
46.1735
37.3844
38.9429
36.5909
45.1901
43.327
45.4783
43.0843
35.6877
36.6474
54.1188
42.6949
40.9541
42.3322
42.7193
33.9208
53.7147
45.3358
40.4305
38.8575
42.568
40.719
31.8042
41.5625
34.5009
38.4571
38.2738
39.908
39.3713
29.8578
33.4301
31.526
38.2924
38.3479
39.5211
39.5717
28.1297
31.0189
29.8219
38.362
38.2346
39.5209
39.1339
42.3282
42.5839
41.3125
47.225
47.3694
47.9291
47.697
39.5638
40.8092
38.4463
47.2442
46.2527
47.1838
45.4668
36.0868
37.4829
34.5576
45.4696
42.8704
44.9111
42.2062
52.7895
33.7478
33.3706
42.125
42.732
41.3928
40.1262
46.0941
33.7476
34.7134
42.6237
40.8107
40.0253
39.6149
36.2009
34.7434
34.5018
40.0793
39.9133
39.6294
40.5197
32.4002
34.3475
33.1813
40.1218
40.0462
40.6907
40.5709
30.3872
32.6796
31.3321
39.9494
39.4162
40.443
39.7361
40.3863
43.942
38.9069
48.6272
47.108
49.2598
43.5846
37.4621
37.7483
34.4795
46.4392
44.6184
42.3768
40.359
33.9912
33.4194
31.8762
44.1491
41.9747
40.2322
39.6285
31.9618
31.5807
30.0497
41.1843
39.8481
39.0474
38.2263
32.2621
29.7453
29.4449
39.7236
39.4909
38.4451
38.3869
32.6672
29.4177
29.0674
39.5661
40.2831
38.0606
37.8087
32.3309
29.0201
28.9815
40.3998
40.3108
37.9537
37.9232
30.934
28.9775
28.4858
40.1915
39.5551
37.7255
36.9965
47.5862
54.5691
50.819
65.0817
56.7742
67.8178
63.2919
45.0299
50.1096
48.9282
55.7456
56.987
62.6571
62.4998
43.4975
48.6804
47.1315
57.4296
55.9171
62.7028
64.4839
41.2547
46.4875
44.8347
55.4339
56.9664
65.1053
66.1653
39.8678
44.3899
43.1301
57.204
55.8167
66.2374
64.8376
38.9202
42.8574
42.7763
55.758
57.1155
64.1665
62.5461
39.3694
42.8495
43.0876
57.6175
57.7302
62.5165
62.7794
39.0997
43.1808
42.8862
58.0911
57.6821
63.0886
62.6417
50.6185
49.9169
50.8498
63.0798
63.3289
59.7475
64.8496
49.5936
51.0559
50.7917
63.3164
63.7151
65.3854
66.6366
47.5507
50.2012
47.8523
64.1772
67.4471
67.8933
73.5213
45.2407
47.0347
46.1861
68.3441
69.4842
74.7188
76.6511
43.3677
45.9503
44.4732
69.4789
67.879
76.8608
75.0384
43.264
44.0292
44.4847
66.8418
63.7915
73.0865
67.1719
43.6013
44.6306
44.7678
63.3705
63.3714
65.8606
64.6361
43.2741
44.7624
44.0215
63.6003
62.8473
64.6332
63.2106
51.4708
51.6574
52.0285
61.6692
65.948
64.0257
66.4154
50.9849
51.6042
50.2742
66.2492
67.1348
66.1905
66.2379
47.7837
49.8463
47.4054
68.3399
74.0447
66.6972
69.8082
46.2768
46.5817
45.31
75.3287
77.0613
70.5796
71.235
44.5639
45.188
44.813
77.1462
75.2728
71.2481
70.0359
44.9734
44.9574
45.5137
73.2935
67.5472
68.8941
65.5564
45.1469
45.6314
45.4344
66.1936
64.7978
64.8074
64.1332
44.2209
45.3387
44.4059
64.7617
63.2499
64.1578
63.0336
51.3363
52.3612
46.6073
63.7301
65.2179
63.0103
58.7416
49.3486
45.3756
44.2275
64.8363
65.0778
56.9769
58.6667
47.1803
44.5002
43.9931
65.3635
67.1782
59.7169
59.4233
45.3153
43.2219
42.8907
67.5459
68.3071
57.8656
59.5956
45.0007
43.2601
43.0494
68.383
67.4939
60.2036
59.7968
45.3025
42.5929
42.4856
66.5808
64.4073
58.8213
59.9419
45.1849
42.6966
42.6006
64.0635
63.7222
60.2346
60.2319
44.2846
42.3628
41.4821
63.7737
63.0717
59.8968
59.2667
37.0163
36.5566
37.2597
35.5325
37.2127
35.8836
37.3293
42.4439
38.1163
56.6003
41.9222
39.415
37.3176
183.008
49.4613
45.2839
76.4102
216.186
42.9412
51.6295
234.705
36.3243
36.4924
35.9254
36.1781
35.9378
36.2904
36.1151
36.7594
35.2798
35.5835
36.6796
35.5615
37.1168
36.4095
42.4844
42.19
36.321
61.6241
36.7415
188.428
38.6261
49.4243
220.738
44.61
81.0613
51.1956
238.876
42.9418
36.6113
34.9865
36.0277
34.1653
36.6594
34.5478
35.7662
49.943
45.9961
96.5574
203.026
45.8041
51.0691
190.462
48.0249
42.6962
90.4056
90.8269
45.0566
43.6156
132.97
36.7672
34.9757
34.6108
36.5762
34.6436
37.0258
36.2875
36.2579
33.8272
34.1867
34.8782
34.2644
35.3278
35.7252
49.1273
207.902
44.3492
80.5752
50.311
197.467
43.6346
46.9908
85.7576
39.3238
70.9146
42.2905
139.223
42.0571
63.4446
70.9545
51.0534
205.096
46.0773
220.729
70.8418
34.1587
33.7238
31.6941
32.4317
33.547
33.3014
31.5905
36.1144
35.7557
31.14
31.6134
34.2865
38.3534
31.4214
52.4311
42.1248
60.8165
35.0031
228.688
35.2715
41.6309
66.1214
209.401
76.1106
54.1569
225.415
73.4273
49.6806
34.442
32.3961
33.5847
32.3231
33.2721
31.8032
34.26
36.8085
32.1175
37.8673
32.355
39.1931
31.8315
35.9817
77.7706
81.6872
64.4796
101.972
62.3548
148.44
75.296
42.6175
37.5201
32.1715
32.1381
39.528
40.5296
33.031
44.3529
43.83
33.1612
35.0782
41.6248
46.0963
33.9956
77.6318
192.617
72.0832
56.1078
176.122
76.9306
56.2568
75.7349
89.8786
68.0039
52.9636
148.896
69.9451
55.6429
43.0616
32.735
39.4548
33.8249
41.2915
33.5803
40.6424
44.2268
35.192
41.5335
34.3812
45.0512
34.3701
41.3047
150.361
171.155
152.313
96.0768
78.5028
96.3753
78.668
146.627
151.096
149.663
68.907
67.6819
67.3505
63.0688
134.277
145.465
144.399
64.6696
58.2431
60.0535
57.6397
129.67
143.012
141.815
55.88
56.0514
57.1365
57.2271
124.394
140.602
138.405
55.7486
55.5053
57.4118
57.878
114.768
134.844
126.946
55.4037
55.4074
58.7128
59.03
100.65
114.924
100.973
54.7956
53.0706
58.3224
55.2582
85.005
91.6877
72.2449
51.3766
47.3485
52.6901
44.3602
211.942
241.952
213.715
140.504
115.439
137.564
112.309
159.763
292.636
338.048
188.537
161.076
187.903
297.793
108.517
254.299
253.704
119.875
112.409
115.13
257.056
96.0481
250.608
262.414
101.417
97.739
98.3799
258.756
85.7137
234.466
235.607
85.492
83.5297
87.972
229.63
82.269
227.561
223.813
80.8734
80.7748
82.1982
223.86
84.6699
224.181
227.793
82.789
84.1516
83.9171
228.164
87.5904
201.199
225.622
88.8944
88.9317
85.8777
220.565
77.0813
145.014
160.887
81.2285
78.3138
85.7059
143.346
65.9085
76.6134
62.5491
42.0745
35.0961
43.2362
35.5522
201.162
187.491
176.773
105.647
96.026
99.2957
95.1404
143.665
297.542
312.86
175.34
150.164
169.768
283.341
109.175
267.797
264.201
114.714
109.807
112.955
263.28
105.722
255.994
253.034
105.299
104.822
105.715
237.897
80.6419
202.522
192.702
89.8325
83.2779
86.8714
191.171
77.5571
213.537
202.903
78.3083
79.0197
76.8606
209.299
77.5007
227.74
221.334
79.715
79.6441
77.5802
223.577
78.6397
226.742
224.786
80.165
80.4905
78.1534
224.065
79.7408
182.139
207.196
82.0831
81.7171
79.8299
192.395
72.6056
111.666
86.3286
49.9478
41.1842
54.2802
48.6795
152.501
167.548
142.412
100.623
89.243
92.4269
86.2629
132.906
233.254
247.579
142.62
128.838
143.902
223.417
107.282
197.325
185.133
110.588
107.112
111.532
176.347
89.8633
156.288
144.324
100.263
95.771
97.2895
135.872
64.3577
154.718
140.345
72.5226
69.0438
65.1036
156.123
68.7956
195.005
192.682
69.5737
70.2884
67.8697
196.971
69.477
197.518
196.816
70.9615
70.6824
69.7009
194.008
67.6252
200.585
190.136
69.7742
69.9532
67.7175
190.777
70.2531
200.64
195.403
72.5477
73.7369
69.1417
195.438
87.9065
107.617
84.3251
53.5789
48.5778
48.9784
44.5612
123.215
165.769
159.163
77.6066
80.029
84.7817
87.3431
106.913
174.336
205.357
116.377
108.522
117.252
190.041
83.1791
132.548
154.686
92.0301
86.0341
89.7426
140.189
65.147
120.91
128.155
69.7828
64.9369
67.2063
131.997
65.0946
164.601
165.146
61.8038
63.0535
64.4979
172.693
65.7561
196.071
189.977
66.2331
66.6397
65.7482
192.394
65.6501
193.804
193.083
67.3313
67.2179
65.7386
191.266
61.8612
174.856
176.969
64.6464
63.2506
63.2874
171.975
58.2797
167.664
160.881
60.8852
60.865
58.6571
159.099
76.9636
88.7815
73.9019
41.8781
37.4317
36.3964
31.5896
138.636
173.939
133.123
98.8588
86.1663
100.304
81.676
114.419
123.286
125.515
63.5785
53.372
60.8703
57.2445
111.4
119.141
104.86
49.2886
45.9011
55.0681
48.2492
104.496
100.342
97.5465
44.1235
42.2031
43.6456
42.4672
103.824
93.0107
90.181
40.3105
39.2595
40.6285
38.0081
102.506
89.9195
89.214
38.6503