/*--------------------------------*- C++ -*----------------------------------*\
  =========                 |
  \\      /  F ield         | OpenFOAM: The Open Source CFD Toolbox
   \\    /   O peration     | Website:  https://openfoam.org
    \\  /    A nd           | Version:  10
     \\/     M anipulation  |
\*---------------------------------------------------------------------------*/
FoamFile
{
    format      ascii;
    class       surfaceScalarField;
    location    "6.5";
    object      phi_0;
}
// * * * * * * * * * * * * * * * * * * * * * * * * * * * * * * * * * * * * * //

dimensions      [0 3 -1 0 0 0 0];

internalField   nonuniform List<scalar> 
38556
(
955.713
-1051.36
-1961.63
690.498
-529.727
794.942
830.799
-381.498
241.197
780.669
-218.067
268.197
718.091
-199.651
262.229
710.007
-147.554
155.637
703.909
-151.502
157.601
713.749
-143.066
133.226
728.458
-131.564
116.855
756.504
-126.379
98.3333
790.101
-110.985
77.3872
842.161
-113.639
61.5796
902.478
-105.145
44.8278
999.976
-111.049
13.5504
1119.17
-106.249
-12.9421
1211.83
-75.6116
-17.0508
1210.94
-10.5537
11.4482
1142.11
39.781
29.046
1041.69
73.0516
27.3645
59.5511
-0.595475
-88.9487
-972.884
-2410.57
451.595
-564.231
-506.039
848.124
-422.332
-355.695
857.337
-175.855
-51.4245
687.948
-150.579
120.317
598.931
-118.402
59.8657
523.764
-140.005
63.6697
482.442
-117.326
15.583
462.079
-101.84
-9.36141
456.295
-79.8189
-40.7756
472.283
-62.7945
-64.1784
492.931
-49.479
-84.8076
520.378
-39.4087
-93.1835
545.377
-29.4671
-106.58
568.932
-19.3173
-110.487
607.905
8.46246
-123.047
659.006
43.3015
-104.956
698.512
68.2039
-67.9291
699.901
80.7327
-9.07025
62.1264
10.1415
1387.53
166.941
-2502.96
1587.59
-377.992
-386.3
1565.76
-415.345
14.8401
1488.2
-264.209
165.914
1155.71
-67.2878
249.198
897.623
3.7977
135.892
645.159
14.6906
97.7677
512.485
10.5916
4.75641
434.607
-7.62185
-16.3399
391.253
-5.27872
-31.1864
374.026
-14.0196
-31.5477
368.863
-13.2768
-31.0387
374.017
-18.2946
-26.2681
383.058
-15.2967
-23.2119
392.98
-9.05802
-20.181
406.992
8.36504
-13.9146
422.835
34.4998
-7.04198
429.458
55.9719
5.60985
425.735
69.0896
15.3653
55.5178
11.8606
629.341
-400.027
687.642
1163.72
-218.528
-693.846
1027.35
-167.784
-111.186
879.851
-138.176
21.4626
632.268
33.0927
147.203
497.703
103.898
34.4648
381.025
99.6066
31.7616
307.067
93.9549
-9.40472
280.041
29.6621
-10.2582
251.064
35.222
-11.5242
254.681
-7.54473
-10.0922
250.276
-1.88819
-6.98362
264.281
-27.7406
-4.55901
271.424
-15.9885
-6.45101
278.135
-10.9663
-4.80304
277.352
16.5972
-7.4487
280.351
34.9305
-3.42976
285.584
50.0238
0.715054
296.824
54.4953
3.35425
43.0603
4.45323
1142.34
-210.047
576.792
1108.52
-112.348
-72.3664
864.099
-22.9085
99.5502
825.921
-66.9645
-33.0333
700.01
124.028
34.9755
640.956
175.303
-12.3511
583.515
156.26
0.787931
532.446
164.48
-19.4573
489.311
88.7274
-15.9293
450.28
86.8803
-12.628
409.772
32.6468
0.316525
360.793
41.3328
5.75785
322.353
-8.92486
19.6238
297.687
-6.97349
15.6516
292.576
-22.3108
16.4555
290.064
16.6719
2.43796
292.141
31.6986
1.15403
294.879
46.9218
0.364467
304.933
45.9564
-1.51499
34.2726
1.01341
1287.78
1034.29
-996.516
961.452
363.894
-149.918
499.33
153.855
285.358
446.443
56.1994
-70.277
434.654
105.641
30.1763
459.345
208.549
-57.9368
587.384
64.4849
-36.2642
620.9
178.569
-47.6043
670.936
71.4547
-32.7631
705.66
80.1322
-27.9759
724.34
23.8827
-9.9153
710.464
44.4494
10.7595
609.546
21.0937
70.8986
463.762
47.0741
91.737
361.576
22.0854
57.7897
312.539
49.3702
16.3383
300.271
43.0753
0.891259
300.697
48.6178
-2.12129
317.007
36.9957
-7.34939
19.5672
-0.39059
1334.31
1586.51
-42.9814
1307.78
936.188
-545.763
958.149
542.504
-39.0224
815.747
176.671
21.9306
676.763
128.121
116.503
606.092
284.204
-4.98405
597.301
46.7511
4.468
-8.94589
41.8305
-10.8277
596.817
42.336
5.39348
45.722
42.6224
42.9791
606.765
37.4935
8.7552
-5.05785
30.5238
-10.2077
649.333
6.1172
29.9968
-3.7372
6.54959
-1.36236
685.799
-4.50365
29.8465
-23.1829
1.36157
-16.1047
713.726
-4.24031
24.9476
-6.07794
4.34444
-2.45175
691.488
8.11443
25.7964
-2.87025
14.2974
-2.0063
597.026
22.8372
62.5901
15.1372
25.882
15.0892
465.146
79.4214
74.5444
388.969
86.2673
39.2799
362.178
60.107
9.75996
357.144
52.676
0.975753
380.682
17.7288
-4.27085
-3.00811
0.295515
-111.419
1507.92
195.493
248.793
870.488
-294.512
496.639
362.771
-68.1125
550.474
35.0143
87.8209
515.516
-7.79778
170.878
115.898
71.5917
52.987
103.538
110.068
100.138
95.1071
60.8161
89.5761
99.9121
55.5172
7.21935
-70.5414
89.9323
25.0556
-2.11043
-99.0629
107.203
32.8163
-3.46339
-103.262
121.865
-10.3668
-2.11892
-128.43
143.228
-20.0859
0.783658
-142.771
155.266
-19.7143
2.97918
-151.851
155.654
-1.49621
5.80737
-143.379
140.572
18.1157
7.52925
395.456
40.6618
29.6195
-119.553
-119.468
-113.626
-106.73
18.4079
38.2202
16.4325
367.355
98.669
15.6994
361.918
65.855
-0.311008
373.81
40.8722
-0.0880287
399.613
-6.50491
-1.56976
-19.7883
-0.992141
999.897
1265.35
2399.13
1166.8
349.549
354.038
927.931
216.911
384.727
945.707
-5.05709
22.2953
197.543
82.045
57.7281
192.569
206.079
201.944
211.63
59.685
-2.17989
-16.8945
-50.3441
45.991
20.447
0.800652
-34.1316
-9.09486
33.5154
11.6398
-1.9287
-31.3519
-8.0295
34.4549
7.15645
-2.23001
-37.7223
1.60161
40.0203
-2.32267
-1.57692
-41.4518
5.64628
43.6178
-7.46484
-0.347424
-43.2628
5.41414
45.3266
-7.79986
0.321846
-44.5141
0.252613
45.7532
-2.05064
0.558945
-39.3943
-7.17245
39.0157
5.56937
1.98174
-30.1276
114.579
40.7021
6.27389
-31.359
-29.3221
-30.0847
373.882
112.14
0.537546
-98.4698
-104.47
-90.7483
-94.2021
379.964
66.8273
-7.05366
397.534
33.4726
-10.1705
408.098
-6.76284
-10.3065
-13.2794
-8.63246
-184.869
993.083
1508.04
-13.0298
212.762
-35.0511
275.195
90.9382
-162.252
213.67
-42.0962
98.5643
103.953
73.1606
-64.1651
50.4318
85.9328
46.4026
-46.2637
122.624
52.78
-25.1882
-23.1397
-41.394
44.4426
21.5727
-1.48166
-21.5606
-52.6236
53.5713
22.6767
-2.06381
-14.3832
-55.4356
54.7144
15.7412
-0.636855
-2.26535
-47.2503
45.9413
2.95291
0.621455
4.91474
-45.3536
45.0254
-4.08937
-0.497241
3.92834
-42.1485
41.3755
-1.94997
-1.20536
0.341631
-41.0582
41.3605
0.884768
-1.5287
-8.29126
-43.9919
44.1743
8.22979
-0.120902
-39.5995
-46.1358
142.494
52.3724
7.11531
-41.8455
-36.019
-38.382
437.754
144.495
4.66512
-122.164
-133.745
-104.873
-113.992
441.057
80.6598
-17.1359
450.671
42.1245
-18.2663
448.685
9.05977
-13.836
2.05247
-10.0215
-751.899
-491.255
242.297
-562.675
-140.584
164.122
190.107
-364.094
-297.751
257.852
-126.235
16.3947
93.0283
-121.239
93.8051
81.9866
98.9979
84.4337
-39.4685
125.988
-3.48366
9.99287
-11.5747
-34.8093
36.1898
8.99812
1.19616
-16.3865
-43.9983
45.3234
13.3571
1.70433
-13.7877
-45.353
44.0813
10.6567
4.40271
-0.892497
-40.547
39.3178
1.29331
0.828362
0.267723
-36.4277
35.9725
-0.0551268
0.242597
-2.75864
-35.574
35.7073
3.4163
-0.79087
-4.46577
-36.6896
37.4078
5.46553
-1.7179
-8.30319
-40.0618
41.3948
8.6104
-1.64017
-42.866
-58.1056
156.849
61.1444
4.49989
-42.6275
-39.5429
-39.3511
493.384
162.939
6.48684
-139.526
-136.328
-120.89
-121.571
483.715
99.4721
-9.14353
478.912
54.2652
-7.33719
468.616
25.0642
-5.7086
17.0821
-6.30841
603.026
17.2826
930.551
560.918
242.293
-340.769
427.034
-1.59683
-228.613
356.969
-46.7387
-9.43194
28.8951
-45.9419
72.4622
69.7586
39.9933
70.5631
44.4596
27.5726
-47.1661
4.02892
7.9538
-18.6506
20.6405
-11.9504
2.00673
0.346066
-30.847
31.2098
-3.96949
3.26066
-5.00208
-32.1169
33.0231
3.44103
0.654832
-3.05456
-34.1379
33.699
3.33013
0.163311
-2.94678
-31.1219
30.7932
4.17268
-0.897179
-5.21642
-31.5126
31.9919
5.95952
-1.2224
-7.38095
-32.8596
33.034
8.03506
-0.828484
-11.2705
-33.976
34.3725
12.1263
-1.2522
-34.8037
-63.1993
133.769
61.5012
0.385493
-33.5878
-32.6192
-31.4459
475.692
152.078
7.02854
-125.624
-119.333
-115.288
-111.613
470.048
108.203
-3.08655
460.665
65.6652
-2.01769
442.877
43.102
-0.249242
32.116
-1.1924
-296.484
84.2216
5862.41
161.247
212.485
-427.923
467.948
-139.518
-168.779
534.465
-78.3343
-34.921
571.854
-75.9634
-7.36787
140.806
-277.482
-42.129
69.1779
111.267
67.0538
104.593
136.674
132.056
129.838
18.584
126.914
-42.9849
-3.38968
12.1854
17.6883
11.8085
7.45724
-72.7229
47.0041
-6.95517
7.9293
4.92923
7.49914
4.859
1.94418
-65.1991
73.527
-8.94685
0.919338
-1.58305
1.57699
-2.23852
-2.60504
-61.5678
65.5429
13.0753
-0.120356
-5.73085
-2.8439
-5.7502
-4.33184
-81.7462
92.1281
16.8124
-2.2125
-8.18087
-4.36682
-8.10222
-6.41807
-88.5114
91.8965
32.6238
-3.38455
-10.0261
-6.34103
-9.83914
-8.48042
-96.8567
101.602
40.3598
-2.88907
-12.7651
-8.40549
-12.5646
-11.6223
-99.7739
104.658
49.8225
-0.849597
-15.7413
-11.2607
-15.2328
437.812
165.895
11.1687
-50.2711
-64.1981
-43.1913
-56.3646
-106.167
-102.192
-97.4998
-94.9909
455.326
128.496
6.06729
454.052
110.067
-0.589741
436.608
80.215
2.89388
398.465
70.6827
10.5626
49.7032
6.57388
-1401.92
-954.899
-750.001
-264.547
-337.526
-587.366
383.419
-355.963
-431.521
472.425
-188.352
21.0124
505.007
-61.8269
-46.7186
423.249
-183.051
-12.6738
356.541
164.873
2.3468
7.4444
-56.2334
6.28368
-58.0073
309.255
-49.2237
3.78931
5.93522
40.5985
7.17825
39.0087
275.826
109.932
15.3617
3.95963
-45.4488
-1.4009
-48.9742
261.465
-17.5289
18.9728
0.901247
6.16245
0.206208
5.64746
268.745
90.8796
12.1084
-9.28108
-44.9204
-11.5442
-44.5223
294.463
51.9686
15.5687
-18.9582
-30.7045
-16.5617
-27.0318
330.249
117.426
14.43
-31.5717
-56.4755
-27.9915
-51.6035
364.199
101.464
15.2633
-33.9805
-47.4027
-28.4308
-40.8626
391.569
121.362
17.1624
405.287
106.914
7.86442
405.537
102.882
6.93481
388.92
88.7076
8.12456
360.683
84.2581
14.6609
56.9843
7.28257
-814.256
-1025.65
1213.83
-251.925
-715.826
-184.03
122.054
-489.391
-240.552
142.619
-223.437
14.5199
208.57
-89.5921
-38.1858
175.081
-131.202
-18.3596
272.755
90.03
-22.8314
243.302
-27.8146
8.04396
249.728
100.708
2.79763
227.508
5.44589
-0.754382
230.653
82.7343
5.00001
234.441
43.8026
4.3776
253.282
91.416
7.16942
268.732
78.2373
7.77627
284.325
98.8987
6.87064
296.332
88.6164
6.29062
302.952
91.1484
5.11312
305.543
81.7395
4.37668
310.45
76.6874
2.66375
50.4792
1.43938
-601.982
-957.765
-1258.97
-65.3575
-564.781
-687.67
461.167
-393.973
-621.942
462.872
-130.057
-95.0857
417.93
15.5167
-60.166
338.724
-23.7449
-28.2521
300.528
126.486
1.74091
276.348
14.485
-18.1193
268.26
107.94
0.855847
257.239
29.4327
-12.9666
257.243
80.6352
2.09521
257.693
49.362
-6.0097
266.233
80.4831
2.39315
275.429
71.1548
-2.11359
286.918
85.1418
2.26721
294.901
80.4003
0.233172
302.039
83.2996
0.711108
306.656
77.8615
-0.739304
315.711
72.7812
-5.14856
47.4493
-4.14604
-798.387
619.279
-1584.28
-102.714
-78.1914
-1182.26
-71.8432
51.3293
-476.174
-42.2174
-14.8819
-144.801
126.488
29.3212
-182.51
65.0892
-18.7512
56.4052
142.493
44.0483
5.03344
123.289
9.36924
24.32
189.023
48.8497
-6.64359
195.731
27.2754
-4.5513
231.878
49.2878
-4.7997
243.839
45.5762
-8.17465
265.461
63.3013
-4.44012
278.575
65.2868
-7.2456
295.126
73.913
-5.32301
307.041
74.86
-6.37416
319.382
77.3843
-6.42613
330.349
75.2875
-8.39308
348.391
68.7837
-14.0444
42.3672
-8.35786
-1356.38
96.5085
3072.44
-151.673
-242.851
-1040.05
189.191
97.7439
-387.279
175.315
39.2605
-40.2668
337.55
-1.76254
-131.151
287.142
44.3126
-12.6566
292.788
33.0604
5.34177
276.69
44.002
-18.5339
285.493
40.2383
-0.191606
289.998
42.0207
-19.2509
306.302
43.5104
-10.5263
320.295
51.8727
-20.2892
337.084
62.9444
-16.4323
353.587
68.7867
-20.0035
372.485
73.2797
-18.2641
390.835
74.7533
-18.2435
411.897
74.5636
-18.2412
438.572
70.6932
-22.0811
480.377
54.7925
-27.8135
31.2716
-16.7653
-1204.34
-228.927
908.2
-380.584
-477.892
-588.717
169.657
310.415
-762.911
151.303
138.816
-81.2029
234.329
112.332
-197.12
166.029
163.435
-50.8231
195.472
93.6611
-90.0432
189.693
114.266
-64.4847
252.019
46.6447
-68.7323
288.808
47.1753
-41.9437
349.14
6.9082
-23.73
387.178
38.4649
-24.6302
419.881
57.9621
-27.7206
445.795
75.9236
-33.0509
471.943
78.5237
-31.392
502.761
80.4395
-36.5045
537.055
74.9205
-34.6506
578.386
66.2714
-36.9092
625.361
43.8036
-35.9868
20.7487
-14.2432
1125.59
-3977.74
118.227
529.472
836.559
-407.917
907.184
68.1916
977.916
41.6011
1026.79
114.566
1016.38
104.066
1045.81
84.8348
1010.07
82.3819
967.671
89.5783
855.432
119.147
780.884
113.013
743.595
95.2512
743.583
75.9357
759.901
62.2056
794.903
45.437
840.197
29.6268
892.591
13.8772
946.033
-9.63874
-9.01584
1.99298
449.95
-2083.45
423.06
-160.811
534.685
544.093
-167.311
287.476
611.353
-119.408
320.346
658.83
-151.449
366.201
703.881
-101.807
212.393
740.916
-94.233
214.798
782.245
-77.0751
168.973
814.341
-61.2636
146.022
853.727
-56.9074
115.855
889.686
-46.1325
87.5601
944.335
-50.7646
57.6956
1000.41
-44.5655
33.3188
1070.14
-49.8045
-6.37413
1125.48
-34.9047
-33.3769
1142.9
-10.2375
-24.239
1098.24
33.4086
22.7048
1021.31
65.8878
40.0868
932.003
71.5196
45.1516
37.4192
12.0811
742.62
287.096
1335.75
300.759
-81.6108
-143.378
519.486
-102.107
-639.626
540.47
-61.6037
-130.212
521.87
-121.589
109.056
494.192
-84.0929
69.8297
473.227
-90.6423
81.0437
455.6
-59.3211
15.4562
451.864
-46.3702
-20.519
452.658
-30.3666
-68.1106
464.372
-24.9285
-97.0973
477.603
-25.1596
-123.643
494.799
-22.4764
-132.469
510.259
-22.0507
-149.794
522.333
-9.27376
-148.193
536.723
7.58675
-155.261
549.736
35.7168
-120.278
556.962
54.6458
-63.9124
547.394
62.3294
9.68758
42.2592
17.776
1590.61
740.173
-831.809
1273.78
30.9544
-182.036
1213.14
-40.8506
14.2186
1194.35
-10.1513
133.258
915.577
48.6258
357.755
697.99
74.9357
194.45
508.535
50.6892
145.892
404.183
37.8677
11.9191
345.967
8.75165
-13.246
310.836
8.84969
-35.2711
299.915
-8.04686
-37.5084
294.067
-9.51045
-40.8401
297.659
-15.827
-36.5095
300.869
-13.3786
-35.0937
306.968
-8.29407
-27.2596
312.561
7.5016
-19.4222
320.546
27.8669
-7.17724
326.596
45.3758
8.83016
329.266
55.3943
19.6301
41.7793
12.4279
827.728
-1429.1
-3684.12
673.031
-86.863
-421.331
767.858
43.0029
-289.867
668.256
80.044
30.8699
473.924
211.115
179.044
359.433
182.387
41.5045
285.201
114.946
41.7373
225.436
103.322
-15.0956
211.222
28.2418
-15.5336
183.409
42.4218
-17.2838
188.254
-7.77094
-15.2134
181.213
2.02601
-11.4795
193.568
-26.2895
-6.45126
197.414
-14.0221
-9.65263
203.221
-11.4463
-7.4582
202.501
11.5199
-10.7475
207.783
24.8335
-5.67837
215.342
38.5039
0.0282165
229.431
41.3616
3.29769
31.7743
4.3991
925.63
-1362.35
2375.31
964.257
-203.716
5.85984
658.264
129.886
318.659
612.965
58.7629
33.5476
509.028
253.724
96.3026
450.674
224.687
3.7034
412.372
142.917
11.1189
362.287
156.064
-22.1144
330.824
61.9033
-18.1273
295.676
78.0588
-13.1173
271.227
15.7676
1.22646
237.645
33.1128
8.25319
221.668
-14.1457
23.4568
209.126
-4.38216
18.5533
210.908
-16.2302
19.4574
209.544
12.4883
2.83434
213.623
20.3194
1.58834
218.675
33.2976
0.519642
230.291
30.2466
-2.01597
23.3422
0.368688
-52.0556
-257.523
2237.92
-11.8016
-153.012
-240.876
187.914
-17.6741
233.203
169.513
37.8971
-31.0094
292.353
145.098
15.9617
282.991
223.965
-47.8535
400.263
21.6192
-32.2377
393.455
165.328
-50.0614
423.954
34.3188
-35.6783
432.695
73.2759
-31.9336
435.41
15.5268
-12.3896
413.237
51.1323
14.9131
365.221
25.57
79.1991
301.9
53.6791
96.9968
255.23
22.6794
65.55
228.097
36.3565
19.603
222.192
25.6687
1.4472
225.603
29.8032
-2.03748
239.288
17.0271
-7.81564
11.1734
-0.494538
1248.61
-238.676
-3458.51
938.629
-288.947
-99.8476
593.04
22.7631
266.129
498.41
58.5321
95.9259
480.347
135.454
144.21
396.416
304.332
-1.41897
390.017
33.4265
5.58169
-16.2406
28.2167
-18.4986
382.91
44.4092
2.49172
42.4348
46.1247
42.3689
403.109
24.9459
3.86048
-13.2197
21.5383
-14.2505
440.851
10.9164
29.0003
4.39082
13.1247
8.09907
457.383
8.73776
24.0609
-9.20791
11.959
-6.70785
455.258
14.8586
28.1791
6.39697
18.6199
10.1502
415.406
22.1377
38.6362
2.66575
24.4864
3.29181
362.058
30.4403
72.8157
17.7158
31.1326
17.5126
311.944
66.3533
80.9848
280.673
62.606
44.3015
270.883
33.8068
11.412
273.115
27.1556
1.39143
288.977
0.9857
-4.09183
-1.81943
-0.321715
985.777
-648.224
-1390.47
768.942
-418.47
51.8453
340.737
-19.7071
402.562
340.627
12.6976
133.765
352.438
83.8748
210.646
73.3397
87.4389
55.3583
65.6073
63.1093
55.3801
106.184
93.9757
109.364
-17.482
61.1288
48.4115
14.708
4.8377
-39.0536
62.1515
23.8163
-7.34271
3.07374
-70.2366
78.9216
17.9112
-4.72397
3.51265
-74.4036
92.146
-7.22509
-3.11356
0.543974
-96.3191
105.999
-1.38423
-0.101915
-1.01742
-100.757
110.871
3.89205
1.87014
-3.64119
-104.668
107.267
19.3667
3.81324
-7.60447
-93.3194
96.4699
24.7797
10.1146
280.641
33.0894
33.3143
-82.6869
-81.605
-69.0826
-69.3153
11.7746
30.0837
9.7597
278.912
65.5887
14.4459
281.026
31.8786
-0.4975
293.219
15.1888
-0.313695
306.388
-11.7939
-1.95928
-9.758
-1.50168
-66.2933
702.865
-1679.3
-21.2648
-169.314
59.853
236.619
-11.9472
119.083
332.401
-39.6769
-21.113
106.808
77.8157
22.2835
102.369
85.478
79.251
-12.1021
136.607
64.0581
5.6839
-6.42806
-18.0044
-37.3129
34.8376
21.0644
5.84335
2.87148
-24.7752
-7.40562
25.0912
7.63414
-3.41598
4.67683
-25.0508
-3.93414
27.5192
1.98323
-5.19431
3.78144
-28.0514
2.10373
29.484
-3.41257
-3.90516
1.88016
-30.2823
1.38559
31.8916
-2.76779
-2.10726
1.52256
-31.1039
-1.90512
32.3447
0.383321
-1.24152
-0.4259
-29.2272
-7.12344
30.0945
5.94523
0.736819
-3.12664
-24.425
-9.47899
25.1218
8.61096
3.29788
-20.5025
-8.64046
82.9942
31.3363
8.56163
-21.5267
-19.0988
-20.0341
297.216
66.545
-6.09904
-73.7475
-79.2058
-66.8093
-71.7731
304.061
27.7041
-9.72408
311.022
6.51442
-8.45674
310.719
-11.9361
-9.86212
-7.65445
-9.21742
281.135
2046.24
-2070.78
-315.964
190.147
202.588
-6.08643
13.2417
-497.318
1.93236
-57.9025
108.771
50.4449
7.23038
-113.731
20.7315
37.6869
13.2203
49.8476
-33.9355
60.8311
29.8021
-56.1003
6.50006
-18.1609
-27.999
31.2429
16.2173
-7.8003
3.48651
-12.3045
-37.7247
38.3469
11.828
-3.63224
1.00656
-3.36994
-37.6903
36.8947
4.03855
-0.879586
-1.206
2.50763
-35.2086
34.8714
-2.09659
1.13218
1.60361
2.02096
-33.7021
33.3358
-1.57019
-1.688
3.24841
-1.70838
-32.1997
31.915
2.45385
-3.70922
3.30705
-7.03641
-31.126
30.781
7.31195
-3.23762
-0.694839
-11.2562
-28.7198
27.8981
11.7718
1.00094
-24.6879
-10.8649
-34.7396
92.2057
40.4589
10.9625
-26.2582
-22.8572
-24.2193
350.606
76.143
-10.2525
-87.2138
-94.3292
-78.8781
-84.8651
347.985
34.835
-21.646
342.415
9.82686
-16.0091
331.134
-2.87076
-11.6202
0.471152
-10.6832
-216.445
-277.914
777.372
-203.562
-170.665
512.051
-51.3625
-360.099
-76.6095
29.8943
-129.042
6.27782
60.4339
-132.92
81.0756
44.0087
46.8401
31.4912
-14.9231
-14.7251
95.3111
-13.9552
8.72627
-7.81623
-3.83945
-29.7807
31.8689
1.41206
8.15547
-5.29599
-6.47279
-36.9877
37.8909
4.8494
6.01615
-7.66384
-4.4247
-38.5841
38.1702
4.44564
8.05675
-3.68566
0.844799
-34.6381
33.4769
0.119387
3.88259
-0.242256
-1.56741
-30.8803
30.4847
2.16167
0.0436461
3.3369
-4.77714
-30.241
30.3724
5.40825
-4.09941
4.89053
-7.93072
-30.6663
30.6861
8.29832
-5.27799
2.59808
-11.9546
-30.471
30.3154
11.8709
-2.35875
-28.062
-9.4496
-46.134
104.71
48.6438
10.9963
-28.3454
-25.965
-26.3941
386.274
87.0412
-2.41681
-100.64
-103.28
-90.84
-93.5093
371.796
49.5172
-9.34816
358.171
20.8836
-4.769
342.051
11.1219
-3.58092
10.7038
-7.37201
431.713
921.27
-3699.69
359.488
42.1647
-481.373
256.295
-73.0079
-412.511
193.117
-47.7292
-27.5668
26.342
-43.8711
29.9647
50.587
24.2847
45.3523
-3.67168
49.9839
27.7074
-49.6786
2.00089
-9.49204
7.58629
-18.6468
21.1385
-10.4982
9.91224
-8.98559
1.81256
-29.0918
29.8783
-2.96944
9.35598
-6.14825
-4.11075
-30.9318
30.5985
3.45163
7.1407
-1.24209
-3.22076
-27.8384
26.89
4.16172
1.2495
2.69296
-4.25134
-25.1141
24.8886
4.91262
-3.12873
3.63333
-6.67818
-24.725
24.9069
6.9984
-4.13545
3.01725
-9.23277
-25.7927
26.1409
9.2987
-3.43134
2.89005
-11.8766
-26.5146
26.5173
11.8082
-2.82424
-25.4295
-2.36111
-47.9837
102.505
41.9694
4.07523
-24.9656
-24.0405
-23.7695
368.876
88.4665
7.89908
-99.0667
-95.6376
-89.5889
-86.8785
354.461
62.0806
-1.23483
337.395
34.8808
1.05108
319.121
27.1996
1.947
21.6593
-2.25079
-305.547
281.256
6235.49
242.478
1.075
-934.858
356.019
-155.316
-200.012
413.607
-72.0828
-68.1552
390.592
-56.8711
28.647
88.6077
-265.069
-46.9051
67.6457
100.575
68.2616
98.6291
86.023
76.3375
74.3565
12.7522
-6.57285
72.0366
-20.8967
6.04053
7.16279
11.8779
6.20726
4.33114
-12.5666
-31.2199
28.1412
-10.2477
12.0531
3.13379
3.66514
2.70979
-0.141145
-2.44653
-49.8254
54.5373
3.59794
2.77629
-3.87566
-0.486393
-4.13637
-3.02722
1.18739
-41.8178
47.9556
11.9796
-2.37768
-5.44008
-3.06584
-5.394
-4.10681
4.01772
-63.0187
69.7359
17.3257
-4.94067
-7.48979
-4.09945
-7.42391
-5.59621
5.15244
-64.9007
68.6994
25.0694
-5.673
-8.71524
-5.50286
-8.53334
-7.14674
3.6941
-74.5957
79.0262
30.5004
-3.18868
-10.8792
-6.89641
-10.5141
-8.58676
-0.477779
-76.9718
82.0225
33.5942
1.91968
-12.0509
-8.06049
-11.3888
332.628
111.63
14.3956
-30.1629
-43.9052
-24.2104
-37.6085
-82.947
-80.4618
-75.6363
-72.5526
338.504
80.4754
8.18219
323.973
72.0976
3.92473
305.301
50.6272
5.81875
283.599
47.6615
11.8027
33.4536
4.41077
50.655
-910.673
-726.157
397.934
-345.175
-588.395
367.839
-262.831
-293.912
394.6
-108.565
30.7332
346.344
-35.3571
-19.9764
225.292
-154.517
-2.17342
167.832
211.697
-5.24255
-4.46939
-64.7634
-10.2089
-67.207
122.528
-78.2542
7.23017
16.7893
41.8738
20.9875
40.4668
131.843
117.384
10.8484
-7.78261
-50.8292
-12.6229
-50.9518
137.583
-31.775
21.4686
2.52081
8.06673
3.89076
9.06112
166.304
86.9164
7.45549
-12.3641
-43.2942
-13.1119
-42.2144
195.475
29.7929
17.1702
-11.9203
-21.2338
-9.52537
-17.8858
229.908
93.7564
15.125
-22.4617
-45.1392
-19.761
-41.5222
256.082
66.9239
19.0027
-20.1878
-32.7598
-16.1402
-27.7501
275.136
89.6213
20.1169
278.935
73.2431
11.2973
274.394
73.2607
10.313
264.853
60.3397
7.95272
255.261
58.2135
13.7012
37.9365
4.89081
-740.572
108.145
1957.56
-259.378
-528.888
-481.512
-31.1831
-416.745
-314.833
6.56259
-179.528
47.7374
89.5078
-73.3803
-83.1078
54.419
-124.528
-13.2602
154.315
113.886
-24.9159
114.233
-43.6359
13.5076
134.47
94.3368
5.60747
118.777
-18.5974
1.76203
136.099
68.7539
5.84025
143.857
20.3305
6.08153
166.678
70.4643
7.64078
180.675
51.8168
8.88593
196.005
72.7625
8.39945
206.766
61.4067
7.36658
214.073
65.6617
5.405
218.969
56.672
3.14844
225.958
53.2509
0.636586
32.8264
-1.10092
365.851
-188.884
-611.431
378.132
-480.149
-748.689
306.569
-372.103
-595.02
276.658
-133.172
-111.53
238.574
-4.80753
-90.6547
162.792
-50.3227
-26.6752
172.387
109.528
-3.4956
141.055
-22.6567
-7.7655
154.171
79.0654
3.01093
142.54
-8.69893
-11.2339
158.027
51.0468
4.31443
162.134
16.4121
-6.1985
178.784
51.7899
4.41779
189.711
41.6425
-2.86619
203.9
57.763
3.0774
212.386
53.8904
-0.737347
220.75
58.0711
-0.0625076
226.121
53.5387
-2.97653
234.132
48.2616
-8.17055
28.8936
-7.81905
847.963
-912.758
1018.12
468.603
-84.5764
-1198.47
65.8316
61.8952
-507.401
-33.6575
-21.384
-157.1
-15.5489
2.28504
-207.711
-29.8339
-45.8777
66.2454
71.4654
15.8485
-2.5868
57.0805
-19.2985
35.3468
122.452
12.2654
-5.21497
123.532
-11.7157
-2.61455
161.936
11.9177
-4.07504
172.068
8.72113
-10.6161
195.881
28.1687
-4.63171
208.442
31.7576
-9.92147
225.758
41.8206
-6.69717
237.301
44.5806
-8.60702
249.442
47.8839
-8.37999
259.117
47.0398
-11.5696
270.962
39.8265
-17.4545
23.3762
-12.9062
708.958
-1380.83
-2961.33
-5.19248
227.251
-637.726
169.533
97.7465
-597.856
117.969
23.4626
-33.5489
206.288
-42.3569
-174.828
161.108
0.498974
-13.8531
203.275
-14.2837
-6.69264
188.721
-4.98696
-18.2916
213.858
-12.4119
-0.65072
219.047
-9.39955
-26.7567
242.08
-8.34368
-13.297
257.468
1.88694
-28.8434
276.827
13.7294
-21.3517
292.87
22.0104
-26.2989
310.968
27.4331
-21.9754
326.515
33.1769
-22.3865
343.003
34.5471
-21.3924
359.798
33.8133
-25.6504
378.209
24.2902
-30.6881
13.5435
-19.1162
-607.119
157.208
-1465.66
140.904
34.0751
-1143.56
239.691
221.088
-985.04
252.206
27.296
-97.5513
241.093
-0.833516
-227.53
210.818
55.4229
-75.4722
243.218
-0.974522
-135.752
254.314
20.5474
-101.115
292.976
-41.769
-78.0371
315.122
-29.0739
-44.4147
348.221
-41.6996
-23.473
370.139
-3.1339
-41.5276
393.534
10.1318
-47.5187
413.757
25.3835
-56.647
434.098
27.1193
-51.4188
454.874
31.5718
-55.6754
475.689
28.433
-49.3515
497.235
22.5237
-47.1662
516.332
11.27
-42.0634
7.93531
-18.8902
-157.275
-2196.63
286.415
119.857
806.712
-707.127
932.967
-30.7672
969.738
3.99669
1036.09
103.632
1031.42
107.769
1050.95
85.8535
982.962
108.597
926.759
116.708
834.01
170.196
786.63
157.26
764.084
127.929
767.992
97.4115
780.245
77.0716
806.32
50.9341
836.319
28.0604
864.721
7.99906
881.419
-15.0664
-8.48246
-907.589
71.7604
-351.128
-89.0871
-75.898
-207.918
351.799
-64.0734
-89.3369
444.461
-19.1768
246.86
596.803
-92.1494
306.008
684.379
-54.1914
179.009
761.957
-50.257
187.476
831.495
-32.3224
131.757
878.616
-9.53987
108.441
925.318
-2.67433
71.8275
957.761
8.96197
46.1553
992.523
8.97077
13.9625
1013.89
16.3295
-4.38131
1021.53
14.8738
-28.8878
1003.04
27.5896
-42.4758
959.215
41.5485
-21.9599
877.034
71.5406
33.3462
804.583
71.6716
40.8662
751.571
51.9773
46.1857
21.8423
16.7394
-514.83
-1750.14
3685.61
-204.015
-434.306
-95.784
338.021
-118.883
-1126.85
358.593
-19.2131
-150.748
406.062
-64.7356
34.1725
411.106
-34.5999
45.1944
424.097
-39.4507
57.2465
422.43
-15.737
0.537225
427.906
-8.95506
-26.5798
429.964
-4.67175
-68.1705
436.409
-3.55224
-91.0287
439.642
-5.21783
-112.688
444.295
-5.18221
-115.61
444.542
-6.56339
-128.604
441.221
1.3032
-118.585
431.974
12.9857
-117.451
418.551
35.4379
-70.7517
407.392
42.5535
-23.6357
398.322
46.0694
24.6653
29.7118
15.262
1343.29
-458.96
-475.415
871.038
-280.367
136.273
715.295
-23.608
74.6875
667.81
54.2042
107.326
549.815
111.855
299.159
462.222
102.05
145.393
385.897
65.0837
117.683
319.111
55.0252
7.94231
280.64
21.0432
-4.77324
247.849
22.0019
-29.1537
237.139
-1.39118
-28.9595
225.854
-2.6939
-32.0791
224.575
-11.9146
-28.4983
220.523
-9.94259
-27.6626
221.151
-5.8571
-20.7266
219.889
8.88771
-14.0627
224.198
25.3724
-1.42016
229.695
37.0034
8.88241
236.039
43.7323
15.6239
30.9856
6.20301
1061.57
-297.865
-2128.23
794.695
2.4938
-437.314
542.494
220.787
-282.061
436.038
188.445
3.08506
318.212
264.538
144.188
243.136
191.572
27.0584
209.955
106.215
33.7867
158.813
105.638
-14.5663
151.714
24.2033
-11.5952
122.762
47.2457
-13.5746
128.528
-10.1259
-12.2446
118.639
4.58713
-8.87186
129.799
-24.6378
-4.88853
130.409
-12.162
-8.04204
135.352
-11.9239
-6.33515
133.69
8.34475
-8.54258
139.978
18.0098
-4.60385
147.717
29.5643
-0.271928
161.443
30.903
2.40189
23.5173
0.115985
12.1297
-460.038
816.841
288.69
-109.084
-159.123
325.644
243.867
258.625
384.563
125.732
37.3409
361.389
294.677
89.3377
316.27
231.416
8.97867
298.039
122.176
13.3894
246.097
152.032
-16.5668
219.406
44.5126
-11.7447
181.855
79.138
-7.45854
166.444
4.37695
2.13353
141.114
30.3738
7.79727
139.201
-16.2717
17.0036
133.027
-0.788922
13.3546
140.274
-13.5434
13.8292
139.77
9.59367
2.09009
145.609
12.6184
1.14073
151.215
24.3961
0.0821763
161.331
20.3191
-1.5482
17.0136
-3.2283
-489.546
-780.125
2671.21
-136.663
-133.757
-569.085
72.2364
88.925
179.245
75.5015
93.3607
-1.90341
181.582
186.332
18.2259
159.01
231.654
-25.5195
272.164
-2.83129
-20.3844
238.869
171.53
-36.2648
256.195
17.5187
-26.0098
241.098
85.584
-23.2827
228.831
12.2033
-7.94935
199.362
60.2646
14.4915
185.028
20.7462
56.5153
169.749
47.4115
64.0744
162.275
17.7275
41.7537
153.119
25.2634
13.0893
152.194
14.2544
0.736385
156.822
19.545
-1.81455
166.768
8.04441
-5.48731
8.35788
-3.40498
458.809
-927.642
-1266.45
351.883
-147.386
20.7079
312.275
169.683
224.978
285.929
108.56
107.072
335.546
172.764
108.16
241.996
316.659
7.1267
244.73
22.2494
4.38961
-21.4049
17.4128
-22.6309
229.036
50.1527
-0.760863
44.0188
52.1333
44.1722
245.283
18.2831
0.339026
-14.6014
15.6672
-14.5557
264.245
19.2481
21.2703
14.8305
22.3465
17.9262
261.699
15.7392
16.3704
-5.05345
16.8437
-5.08923
244.313
24.5781
22.2103
15.6622
26.3498
17.0291
214.67
25.5
33.4819
3.13443
24.9029
2.00555
194.366
30.0464
51.1752
15.6015
29.0906
14.6181
192.363
46.0654
54.6497
189.813
43.2843
28.8306
189.667
18.1994
7.61269
194.588
15.5687
0.447296
204.031
-2.57149
-2.91955
0.941521
-3.4667
40.2078
-640.32
-1888.73
-62.7461
-378.862
386.275
95.5679
-11.5897
425.521
97.1484
70.9892
169.756
220.35
123.735
136.474
37.1058
100.877
45.4612
29.8746
28.4019
20.8276
113.659
102.601
113.559
-16.9445
29.3132
36.5833
10.4033
8.77751
-9.90989
34.7492
25.295
-8.75903
5.98334
-42.4051
50.5021
10.882
-6.67923
3.66628
-43.9944
61.0547
1.12259
-2.60108
1.02221
-62.9258
68.7415
10.1287
-1.22723
-1.15079
-60.1301
67.7824
15.9901
2.08662
-3.55977
-59.9348
61.9309
23.8693
3.19432
-11.0125
-49.7929
57.0398
23.9724
9.8395
189.054
24.794
20.3661
-49.7718
-51.9003
-40.9989
-43.2783
5.29111
22.0963
3.72698
197.477
41.764
7.54303
201.462
14.692
-0.974842
210.534
6.64437
-0.461987
215.538
-7.91269
-1.62198
-2.67556
-4.57067
377.052
235.759
-448.732
178.839
-492.117
371.321
43.1167
-56.4247
299.641
101.948
-35.4865
26.5314
48.7322
75.8344
19.0507
42.6846
34.4243
27.2397
-6.25795
72.826
80.4923
2.54882
-5.33556
-15.3806
-21.8103
19.6524
19.2255
3.64863
4.23672
-14.0512
-4.63362
15.464
3.34559
-4.36147
4.89761
-17.6571
-1.78947
19.5346
-0.33756
-4.6481
3.99707
-19.1575
0.598665
20.4277
-2.14427
-3.72165
1.85176
-20.8622
-2.59812
22.5039
0.581068
-1.47648
1.05293
-20.0159
-5.59839
21.0509
4.31038
-0.799959
-1.11128
-17.5077
-8.63272
18.5191
7.58113
1.15149
-3.20459
-14.4738
-8.65902
15.8165
7.59048
2.9304
-13.6258
-7.29453
60.1391
22.1034
4.63296
-14.7167
-12.6879
-13.7566
216.186
36.4646
-7.71739
-53.2398
-58.7014
-46.3697
-50.9573
218.292
9.37014
-6.50808
221.131
-0.287075
-4.36482
217.13
-8.06463
-5.70913
-2.11361
-10.1296
-349.88
1740.24
-2919.93
-64.1904
13.0387
-588.257
-154.759
27.0688
-490.244
-84.1034
-54.1826
56.8112
13.8814
-5.0693
-116.948
-3.72658
3.63934
-13.7766
46.9589
-43.8341
21.8854
27.0563
-38.1851
6.45523
-16.8442
-17.9005
20.6025
13.7924
-6.10547
3.1888
-4.85517
-25.3522
25.7015
4.13561
-2.81857
0.282302
1.42228
-25.4824
25.3832
-1.45626
-0.149087
-0.553436
2.21391
-25.4625
25.4028
-2.05827
0.457492