/*--------------------------------*- C++ -*----------------------------------*\
  =========                 |
  \\      /  F ield         | OpenFOAM: The Open Source CFD Toolbox
   \\    /   O peration     | Website:  https://openfoam.org
    \\  /    A nd           | Version:  10
     \\/     M anipulation  |
\*---------------------------------------------------------------------------*/
FoamFile
{
    format      ascii;
    class       volScalarField;
    location    "6.5";
    object      turbidity_0;
}
// * * * * * * * * * * * * * * * * * * * * * * * * * * * * * * * * * * * * * //

dimensions      [0 0 0 0 0 0 0];

internalField   nonuniform List<scalar> 
12920
(
-0.0314064
-0.0442777
-0.0684253
-0.0995816
-0.135039
-0.170345
-0.201198
-0.226751
-0.245867
-0.259272
-0.268869
-0.275918
-0.281776
-0.285978
-0.289363
-0.29683
-0.306749
-0.317488
-0.330902
-0.347186
-0.0225463
-0.0361989
-0.0568685
-0.0874143
-0.123371
-0.166583
-0.209307
-0.242552
-0.259536
-0.261401
-0.258094
-0.253151
-0.251791
-0.251632
-0.258905
-0.275534
-0.309814
-0.356482
-0.410599
-0.463291
-0.0196824
-0.0328574
-0.049549
-0.069267
-0.0949328
-0.137196
-0.190702
-0.23804
-0.278739
-0.311732
-0.345711
-0.375376
-0.405116
-0.430694
-0.455326
-0.479084
-0.507847
-0.54554
-0.591812
-0.646551
-0.0260698
-0.0420987
-0.0640616
-0.0907681
-0.121776
-0.16537
-0.218196
-0.273533
-0.323525
-0.369862
-0.408979
-0.44579
-0.480571
-0.5127
-0.5481
-0.586343
-0.631108
-0.679117
-0.730304
-0.784931
-0.0119345
-0.0371699
-0.0627711
-0.0877042
-0.115315
-0.144782
-0.177586
-0.212906
-0.250121
-0.297826
-0.346461
-0.400594
-0.451609
-0.509705
-0.564309
-0.613899
-0.661322
-0.707561
-0.751579
-0.790393
-0.0118802
-0.0362837
-0.0626492
-0.0878659
-0.113062
-0.127915
-0.147317
-0.166067
-0.184087
-0.206452
-0.227042
-0.255705
-0.294944
-0.370676
-0.474004
-0.568378
-0.632833
-0.672627
-0.697542
-0.717143
-0.0165363
-0.029904
-0.0474693
-0.0753398
-0.10763
-0.132195
-0.1562
-0.177399
-0.192278
-0.204585
-0.214013
-0.233505
-0.263347
-0.316196
-0.395329
-0.4886
-0.559381
-0.59821
-0.606711
-0.597672
-0.0235936
-0.0457354
-0.0661533
-0.0879214
-0.111049
-0.136961
-0.137994
-0.135709
-0.139479
-0.119716
-0.111877
-0.112825
-0.13884
-0.195811
-0.309114
-0.387199
-0.431934
-0.447175
-0.433769
-0.418854
-0.0107605
-0.0316501
-0.0443156
-0.057126
-0.0733998
-0.0854075
-0.104222
-0.108598
-0.101079
-0.0857413
-0.0785161
-0.077678
-0.0796605
-0.111505
-0.198644
-0.250295
-0.278738
-0.290307
-0.297397
-0.313235
-0.0136133
-0.0548363
-0.0695628
-0.0938919
-0.108827
-0.0929601
-0.0858898
-0.0845945
-0.0815105
-0.0758039
-0.0775391
-0.0796169
-0.0772657
-0.0788104
-0.10639
-0.168353
-0.202672
-0.228818
-0.25562
-0.285157
-0.0571199
-0.0662059
-0.0747216
-0.108898
-0.135177
-0.127496
-0.113293
-0.091754
-0.0828965
-0.0912778
-0.0998845
-0.0938669
-0.0832607
-0.076255
-0.083239
-0.144698
-0.183154
-0.215573
-0.245953
-0.276076
-0.0461243
-0.0526692
-0.0730052
-0.117064
-0.156052
-0.151903
-0.152252
-0.141492
-0.127338
-0.129944
-0.124036
-0.107252
-0.0943053
-0.08344
-0.0851394
-0.142825
-0.180577
-0.214993
-0.250418
-0.288862
-0.0398559
-0.0608309
-0.0753432
-0.102276
-0.130644
-0.158695
-0.163614
-0.175513
-0.186137
-0.173493
-0.154411
-0.131466
-0.113321
-0.102601
-0.142762
-0.180107
-0.216533
-0.256324
-0.3025
-0.356197
-0.083104
-0.0691278
-0.0782196
-0.112872
-0.136123
-0.160463
-0.185793
-0.223999
-0.257901
-0.301007
-0.30192
-0.297372
-0.277655
-0.273962
-0.281725
-0.30573
-0.337968
-0.382706
-0.436389
-0.500483
-0.0854715
-0.0702337
-0.0895015
-0.128344
-0.151801
-0.185257
-0.210047
-0.247235
-0.283465
-0.325509
-0.355646
-0.383202
-0.390524
-0.404951
-0.419975
-0.446679
-0.479925
-0.522122
-0.566812
-0.612885
-0.0757766
-0.0636856
-0.0736782
-0.115979
-0.14922
-0.186996
-0.224299
-0.255011
-0.290418
-0.325075
-0.366334
-0.406714
-0.441081
-0.474167
-0.50327
-0.5344
-0.564221
-0.591643
-0.610132
-0.62112
-0.0534177
-0.0648214
-0.102115
-0.164226
-0.160111
-0.226215
-0.263534
-0.300306
-0.324058
-0.359054
-0.391676
-0.426533
-0.460191
-0.490709
-0.518916
-0.544065
-0.566778
-0.583555
-0.591914
-0.597875
-0.0867664
-0.0618465
-0.0752883
-0.124672
-0.146391
-0.194585
-0.244021
-0.278982
-0.314365
-0.339461
-0.369319
-0.393617
-0.419172
-0.439976
-0.459558
-0.474726
-0.486504
-0.492669
-0.495105
-0.499931
-0.0463195
-0.0461853
-0.0611317
-0.11435
-0.132567
-0.183252
-0.217842
-0.26134
-0.297257
-0.331677
-0.356167
-0.370204
-0.383127
-0.394453
-0.407513
-0.418164
-0.429729
-0.440601
-0.454877
-0.476389
-0.0700156
-0.0573144
-0.0712454
-0.100879
-0.121525
-0.144088
-0.161608
-0.180097
-0.193415
-0.213267
-0.241802
-0.283211
-0.324356
-0.358115
-0.383973
-0.4038
-0.419183
-0.430984
-0.436429
-0.440323
-0.00977822
-0.0265262
-0.0433578
-0.0569838
-0.0704826
-0.0776216
-0.0874572
-0.0953001
-0.100265
-0.101708
-0.0999644
-0.094704
-0.0869636
-0.0765933
-0.0717622
-0.0747352
-0.0838161
-0.0885105
-0.0817267
-0.0658269
-0.00348902
-0.0138969
-0.0251555
-0.033227
-0.0525922
-0.0560143
-0.0550705
-0.0438445
-0.0354483
-0.0313835
-0.0303343
-0.0310455
-0.0333025
-0.0368661
-0.0426901
-0.0518778
-0.0663467
-0.0852516
-0.111967
-0.13865
-0.00429592
-0.00737963
-0.0169235
-0.0304621
-0.0469244
-0.0510006
-0.0478909
-0.0393303
-0.0407411
-0.0445563
-0.0498633
-0.055404
-0.0630659
-0.0723226
-0.0839045
-0.0973801
-0.111788
-0.126404
-0.135397
-0.126516
-0.00729268
-0.0125944
-0.0252781
-0.0342812
-0.0441248
-0.0386198
-0.0428625
-0.043588
-0.0508436
-0.056875
-0.0655232
-0.0693842
-0.0765274
-0.0812671
-0.0895367
-0.0996031
-0.11033
-0.118006
-0.121419
-0.121979
-0.00511307
-0.010634
-0.0174683
-0.0167979
-0.0218841
-0.0204808
-0.0237128
-0.0329886
-0.0484203
-0.0689782
-0.0958798
-0.115439
-0.131777
-0.123243
-0.113533
-0.101604
-0.0995553
-0.100296
-0.103426
-0.110834
-0.0078843
-0.0121839
-0.0201888
-0.0105403
-0.0115893
-0.0114048
-0.0142269
-0.0198291
-0.0271308
-0.0417205
-0.0654187
-0.104466
-0.152604
-0.174142
-0.152733
-0.115802
-0.0926319
-0.0866655
-0.0895907
-0.100941
-0.0101983
-0.0133995
-0.022696
-0.0222942
-0.0216153
-0.0149353
-0.0187434
-0.0244772
-0.0340192
-0.0475763
-0.0619688
-0.0861933
-0.117904
-0.15162
-0.160361
-0.134983
-0.100123
-0.080518
-0.0753957
-0.0808161
-0.0184537
-0.0196704
-0.0188408
-0.0211287
-0.029513
-0.0224778
-0.0285337
-0.0242478
-0.026242
-0.0310102
-0.0409269
-0.0592208
-0.0914997
-0.134066
-0.118542
-0.0930395
-0.0727325
-0.0662061
-0.0657019
-0.0688741
-0.00925705
-0.0113428
-0.0146069
-0.0105521
-0.0138574
-0.0186404
-0.0279825
-0.0230025
-0.0268218
-0.0336643
-0.0333933
-0.0408416
-0.0729405
-0.118438
-0.132257
-0.0679477
-0.0550331
-0.0519934
-0.052955
-0.0552955
-0.0410987
-0.0219188
-0.0138127
-0.0223834
-0.0245318
-0.0217543
-0.0213747
-0.0242132
-0.0374651
-0.0524914
-0.0397796
-0.0302432
-0.0441886
-0.0820214
-0.105569
-0.0581656
-0.0469478
-0.0440816
-0.0455313
-0.048456
-0.0168045
-0.0184934
-0.0204561
-0.0321932
-0.0545657
-0.060904
-0.0733953
-0.0736849
-0.0794631
-0.0817503
-0.0507589
-0.0306308
-0.0322586
-0.0523675
-0.0838426
-0.0555879
-0.045661
-0.0419987
-0.0430388
-0.0467614
-0.0123038
-0.0143629
-0.0217419
-0.0379207
-0.0691049
-0.0794854
-0.0964652
-0.118115
-0.116346
-0.0985389
-0.056115
-0.0379926
-0.0393735
-0.0538203
-0.078469
-0.0542053
-0.0469883
-0.0461798
-0.0504324
-0.0554318
-0.051911
-0.0173821
-0.0190712
-0.0228232
-0.0304399
-0.0337065
-0.047847
-0.0785196
-0.070387
-0.0721797
-0.0724312
-0.0673073
-0.068111
-0.0753003
-0.0646243
-0.059029
-0.0592127
-0.0677249
-0.0792397
-0.0846179
-0.0569525
-0.0466259
-0.0277113
-0.0201788
-0.0229019
-0.0261461
-0.0410936
-0.0497036
-0.0647194
-0.0780419
-0.0809349
-0.0829807
-0.0797094
-0.0787154
-0.0783155
-0.081418
-0.0925435
-0.107612
-0.122346
-0.130038
-0.0406112
-0.0150585
-0.0119123
-0.014552
-0.0168661
-0.0208204
-0.032244
-0.0358713
-0.0476619
-0.0531801
-0.0663322
-0.0726174
-0.0779172
-0.0835516
-0.0884416
-0.0952489
-0.102031
-0.10519
-0.103713
-0.0999139
-0.0140169
-0.0149785
-0.0129983
-0.0158758
-0.0175193
-0.0219185
-0.0273367
-0.0288722
-0.0365228
-0.0408346
-0.0510395
-0.0555821
-0.0629304
-0.0661041
-0.0710089
-0.0717211
-0.0713345
-0.0667414
-0.0606014
-0.0550128
-0.0392845
-0.010871
-0.0110774
-0.0172065
-0.0203308
-0.0553396
-0.0378124
-0.0442105
-0.0393875
-0.0412741
-0.0447708
-0.0468728
-0.0495371
-0.0504102
-0.051248
-0.0505199
-0.0491297
-0.0465544
-0.0434916
-0.0414275
-0.0367185
-0.0123888
-0.00941728
-0.0138521
-0.0180915
-0.0285038
-0.0415964
-0.0427542
-0.0426679
-0.0396458
-0.038603
-0.0375731
-0.0374031
-0.0369422
-0.0367734
-0.0364028
-0.0361672
-0.0359654
-0.0360991
-0.0371851
-0.0266089
-0.0114503
-0.0100841
-0.0135583
-0.0175887
-0.0250903
-0.0326924
-0.0379573
-0.0414412
-0.0399084
-0.0372921
-0.0334855
-0.03316
-0.0346658
-0.0376709
-0.0417256
-0.0472098
-0.0541819
-0.0634784
-0.0759748
-0.0111675
-0.0114326
-0.0135863
-0.0261227
-0.0415174
-0.0545711
-0.0624001
-0.0667969
-0.0743413
-0.0882725
-0.109952
-0.130783
-0.144227
-0.151383
-0.154567
-0.151196
-0.142016
-0.127667
-0.110893
-0.0963267
-0.0149344
-0.0230734
-0.0334204
-0.0329492
-0.0362783
-0.0361428
-0.0394722
-0.0422503
-0.0439601
-0.0438054
-0.042016
-0.0387253
-0.0352137
-0.0329423
-0.0337087
-0.0369616
-0.0408701
-0.040573
-0.0358263
-0.0295037
-0.0207373
-0.0132805
-0.0145068
-0.0169728
-0.024029
-0.0236278
-0.0219946
-0.0188563
-0.0176103
-0.0175181
-0.0185284
-0.0199403
-0.0221417
-0.0249032
-0.0288714
-0.033748
-0.0398713
-0.0463786
-0.0540497
-0.056259
-0.00399499
-0.00831336
-0.0148617
-0.0218303
-0.0290335
-0.0245788
-0.0214042
-0.0202952
-0.0223371
-0.0244675
-0.0270347
-0.029628
-0.0327642
-0.0359137
-0.0390298
-0.0416698
-0.0434142
-0.0437829
-0.0422714
-0.0371647
-0.00142976
-0.00859583
-0.0168
-0.0191647
-0.0211928
-0.0175396
-0.0198022
-0.022245
-0.0267933
-0.028801
-0.0317839
-0.0322697
-0.0335582
-0.0337865
-0.0343962
-0.0348987
-0.0352685
-0.034993
-0.0344751
-0.0342586
-0.00389516
-0.00698066
-0.0119036
-0.0105516
-0.0114768
-0.0119579
-0.0160503
-0.0223264
-0.031426
-0.0385066
-0.0472375
-0.048298
-0.048977
-0.0419371
-0.0374915
-0.0341038
-0.0332889
-0.0330567
-0.0335136
-0.0347201
-0.00411793
-0.00516714
-0.00694298
-0.00606667
-0.00734037
-0.00939785
-0.0127919
-0.0183809
-0.0267875
-0.0390366
-0.0560255
-0.0722997
-0.0847087
-0.0744849
-0.0540896
-0.0407504
-0.0366113
-0.0366718
-0.0384263
-0.0412192
-0.00492043
-0.00859312
-0.0117438
-0.00903418
-0.00843159
-0.00921801
-0.0117623
-0.0167872
-0.0231628
-0.033946
-0.0454709
-0.0596508
-0.070619
-0.0738766
-0.0644397
-0.050789
-0.0438499
-0.0431002
-0.0450745
-0.0477273
-0.00814068
-0.0130094
-0.00867694
-0.00892324
-0.0110274
-0.0102844
-0.0111452
-0.0144241
-0.0182078
-0.0245378
-0.0359796
-0.0508466
-0.0655646
-0.0733365
-0.0484468
-0.0432793
-0.0429648
-0.0442635
-0.0446837
-0.0440551
-0.00274265
-0.0050699
-0.00593961
-0.00714385
-0.00955727
-0.0104051
-0.0114357
-0.0126502
-0.0146309
-0.0155481
-0.022278
-0.0382554
-0.0595107
-0.0714702
-0.051189
-0.0364341
-0.0365443
-0.0360424
-0.0341198
-0.0312957
-0.0154997
-0.0121468
-0.0109175
-0.0152711
-0.0182239
-0.0155119
-0.0146111
-0.0180064
-0.025089
-0.0221645
-0.0156556
-0.0222103
-0.0414788
-0.0595493
-0.0449187
-0.028856
-0.0291367
-0.0300515
-0.0299448
-0.0283128
-0.0190731
-0.0175382
-0.0156071
-0.0204623
-0.0320819
-0.0373061
-0.0494337
-0.057113
-0.0593853
-0.0372954
-0.0193354
-0.0180259
-0.0277936
-0.0434171
-0.0382876
-0.0254517
-0.027998
-0.0311724
-0.032595
-0.0315168
-0.00398744
-0.00994661
-0.0124559
-0.0207635
-0.0368373
-0.0436552
-0.0485372
-0.064454
-0.065342
-0.0405506
-0.0232745
-0.0206428
-0.0258972
-0.034246
-0.0308655
-0.0270398
-0.0307476
-0.0333171
-0.0330808
-0.0304415
-0.0520626
-0.0173246
-0.0147994
-0.0171474
-0.0189715
-0.0180702
-0.0225407
-0.0309675
-0.0313153
-0.0348446
-0.0358016
-0.0343331
-0.0344519
-0.0345624
-0.0314827
-0.0341602
-0.037295
-0.038465
-0.0369225
-0.0329474
-0.0312662
-0.022977
-0.0130449
-0.011256
-0.0128576
-0.0140829
-0.0199011
-0.0223026
-0.0274062
-0.0312232
-0.0322539
-0.0343996
-0.0350122
-0.0376958
-0.0403578
-0.043431
-0.0459962
-0.0464289
-0.0457036
-0.0435735
-0.0235958
-0.0144346
-0.00877992
-0.00922279
-0.010127
-0.0116553
-0.0168031
-0.0179701
-0.0224879
-0.0239791
-0.0279386
-0.0306356
-0.0337957
-0.0367639
-0.0389234
-0.0397356
-0.0392841
-0.0371181
-0.0345177
-0.0323425
-0.0105281
-0.0103265
-0.00909817
-0.009012
-0.00936563
-0.0113119
-0.0140524
-0.0155921
-0.0189022
-0.0203249
-0.0232837
-0.0243572
-0.0266063
-0.0271334
-0.0279497
-0.0271931
-0.0262916
-0.0247579
-0.0234586
-0.0226506
-0.021136
-0.00843344
-0.00707148
-0.0097569
-0.0118291
-0.0199437
-0.0161194
-0.0180208
-0.0180599
-0.0183226
-0.0191091
-0.0190769
-0.019686
-0.0196164
-0.0197814
-0.0195538
-0.0193862
-0.0191699
-0.019138
-0.0194953
-0.00441669
-0.005344
-0.00700124
-0.00916884
-0.0112987
-0.0142344
-0.0167536
-0.016807
-0.0166474
-0.0159475
-0.0155893
-0.0152587
-0.0152009
-0.0152533
-0.0155705
-0.0159793
-0.016549
-0.0172294
-0.018091
-0.0192385
-0.0297876
-0.0127216
-0.00766699
-0.00921815
-0.0119983
-0.0148929
-0.0178821
-0.0197786
-0.0222698
-0.0231074
-0.0240991
-0.0235698
-0.0233607
-0.0229426
-0.0231451
-0.0232798
-0.0239359
-0.0248647
-0.0261939
-0.0278632
-0.0115222
-0.00830875
-0.00753581
-0.0102742
-0.0154304
-0.021285
-0.0245907
-0.0269085
-0.0331613
-0.0443463
-0.0601283
-0.0737375
-0.0822757
-0.0862108
-0.0860748
-0.0808422
-0.0715602
-0.0599418
-0.0484749
-0.038952
-0.00499512
-0.0121044
-0.0136837
-0.0146951
-0.0166117
-0.0159723
-0.0167766
-0.0167842
-0.0161645
-0.0146791
-0.0131454
-0.0122005
-0.0128267
-0.0147907
-0.0174075
-0.0197388
-0.0213212
-0.0210316
-0.0203268
-0.0200003
-0.00520536
-0.00784235
-0.011099
-0.0111795
-0.0119867
-0.0117138
-0.011411
-0.0109156
-0.0112351
-0.0120017
-0.0131028
-0.0144745
-0.0161261
-0.0178742
-0.0198071
-0.0215084
-0.0230876
-0.0240755
-0.0249495
-0.0231279
-0.00896287
-0.012622
-0.0153232
-0.0156465
-0.0164874
-0.0138107
-0.0139659
-0.0146425
-0.015797
-0.0166774
-0.0174822
-0.0181055
-0.018576
-0.0187661
-0.0187995
-0.0185872
-0.0183008
-0.0177205
-0.0171867
-0.0165052
-0.00126548
-0.00726946
-0.012079
-0.0113549
-0.0118952
-0.0121992
-0.0143221
-0.01555
-0.016865
-0.0169857
-0.0171614
-0.0165749
-0.0161728
-0.0156379
-0.0153383
-0.0152061
-0.0153034
-0.01549
-0.0158967
-0.0166235
-0.00578189
-0.00640565
-0.00876667
-0.00765545
-0.00884714
-0.0107762
-0.0137251
-0.0162305
-0.0194383
-0.0202883
-0.0219774
-0.0204385
-0.0195762
-0.0171813
-0.0161061
-0.0154056
-0.0154423
-0.0156585
-0.0161613
-0.0169213
-0.0063394
-0.00445202
-0.00532277
-0.00561136
-0.00745984
-0.0098967
-0.0122207
-0.0157012
-0.0206524
-0.0252146
-0.0308688
-0.03319
-0.0332747
-0.0262634
-0.0203428
-0.0176159
-0.0169021
-0.0168289
-0.0170738
-0.0176687
-0.00336819
-0.00587849
-0.00550388
-0.0054425
-0.0067027
-0.00869627
-0.0101189
-0.0141129
-0.0178117
-0.0233386
-0.0271179
-0.030443
-0.0313244
-0.0293916
-0.0256279
-0.0223732
-0.0209374
-0.0202461
-0.0199291
-0.0199578
-0.00938299
-0.00761285
-0.0049614
-0.00609211
-0.00723759
-0.00828305
-0.00857792
-0.0125214
-0.0149399
-0.0193751
-0.0238492
-0.028295
-0.0299826
-0.0294102
-0.0227848
-0.0218845
-0.0210795
-0.0198552
-0.0181682
-0.0168168
-0.00602827
-0.00665455
-0.00591514
-0.00656855
-0.00812404
-0.00848267
-0.00856132
-0.00910951
-0.0101356
-0.0124605
-0.0189266
-0.0250596
-0.029543
-0.029462
-0.0251563
-0.0172985
-0.0154708
-0.0136715
-0.0121459
-0.0113184
-0.00358915
-0.0083925
-0.00918302
-0.0114592
-0.0127391
-0.0110224
-0.0106701
-0.0129154
-0.0131893
-0.0111325
-0.0133704
-0.0190984
-0.0242595
-0.0259727
-0.0215634
-0.0145292
-0.0131802
-0.0118871
-0.0109408
-0.0105344
-0.0265485
-0.0127336
-0.0113857
-0.0145756
-0.0187578
-0.0227173
-0.0314458
-0.0341653
-0.026583
-0.015158
-0.0134797
-0.0165209
-0.019486
-0.0210454
-0.0183711
-0.0146772
-0.0143699
-0.0134238
-0.0123439
-0.0116261
-0.00512406
-0.00954688
-0.0108751
-0.014727
-0.0202815
-0.0237107
-0.0246262
-0.0313084
-0.0264372
-0.0172445
-0.0147083
-0.015201
-0.0161906
-0.0169414
-0.0168259
-0.0152216
-0.0145434
-0.0133081
-0.0121621
-0.0115365
-0.0323215
-0.00596094
-0.00800166
-0.00993482
-0.0116299
-0.0114094
-0.0135814
-0.0170644
-0.017276
-0.0183514
-0.0181047
-0.0175096
-0.0175584
-0.0182332
-0.0171771
-0.0165079
-0.0154832
-0.0140319
-0.0128325
-0.012107
-0.015206
-0.00874868
-0.00717585
-0.00814664
-0.00925614
-0.0101314
-0.012574
-0.0133259
-0.0146358
-0.0158783
-0.0161397
-0.0175127
-0.0178764
-0.0186253
-0.0182224
-0.0171372
-0.016199
-0.0150237
-0.0145025
-0.0144104
-0.0382286
-0.0172888
-0.00741338
-0.00765465
-0.00830771
-0.00935243
-0.0115439
-0.0119959
-0.0133954
-0.0136231
-0.0148238
-0.0152085
-0.0157666
-0.0155502
-0.0151124
-0.0142692
-0.0135831
-0.0130039
-0.012949
-0.013536
-0.0179425
-0.00889081
-0.0066498
-0.00746299
-0.00805496
-0.00909608
-0.0104274
-0.0109866
-0.0120353
-0.012111
-0.0128153
-0.0126082
-0.0128566
-0.0124828
-0.0123998
-0.0121772
-0.0122634
-0.0125921
-0.0132637
-0.0142832
-0.00702662
-0.00454066
-0.00642599
-0.00851008
-0.00954412
-0.0115758
-0.0107848
-0.0114448
-0.0111909
-0.0111165
-0.0111585
-0.0111174
-0.0112677
-0.0113675
-0.0115839
-0.0118815
-0.0123347
-0.012986
-0.0138539
-0.0149188
-0.0057027
-0.00436562
-0.00611757
-0.00824343
-0.0101571
-0.0118084
-0.0128395
-0.0131346
-0.0130613
-0.012861
-0.0123962
-0.0119898
-0.0116536
-0.0116059
-0.0118277
-0.0122755
-0.0128939
-0.0136349
-0.0144848
-0.0154184
-0.00514828
-0.00437487
-0.00541893
-0.00770893
-0.0101839
-0.0129712
-0.0154374
-0.0183636
-0.0214725
-0.0232849
-0.0244926
-0.0237743
-0.0224683
-0.0202237
-0.0180606
-0.0162397
-0.0152589
-0.0151494
-0.0156793
-0.0165874
-0.00178903
-0.00336235
-0.00479201
-0.00591579
-0.00752579
-0.00951128
-0.0113749
-0.0143229
-0.0208199
-0.0300815
-0.0404993
-0.0480707
-0.0515288
-0.0505521
-0.0460512
-0.0384679
-0.0298975
-0.0223337
-0.0171777
-0.0144618
-0.00736011
-0.0102902
-0.00860773
-0.00746791
-0.00775139
-0.00720899
-0.00708626
-0.00654402
-0.00621645
-0.00642115
-0.00758457
-0.00950234
-0.0117274
-0.013709
-0.0151263
-0.0157294
-0.0157778
-0.0153192
-0.0147487
-0.0141783
-0.00428954
-0.00673473
-0.0104544
-0.00895427
-0.00797615
-0.00810076
-0.00836281
-0.00882896
-0.00939571
-0.0103732
-0.0113502
-0.0122283
-0.0128369
-0.013121
-0.0134204
-0.0137069
-0.014265
-0.0149565
-0.0158843
-0.0166874
-0.0130867
-0.0125221
-0.0113176
-0.00966608
-0.0101438
-0.010615
-0.0113062
-0.0114337
-0.0113675
-0.0112187
-0.0111115
-0.0111158
-0.0113404
-0.0117373
-0.0123552
-0.0130791
-0.0138992
-0.0147154
-0.0155104
-0.0161478
-0.014559
-0.00987366
-0.00822194
-0.00799586
-0.00938589
-0.0105516
-0.0109152
-0.0108609
-0.0106206
-0.0104857
-0.0105397
-0.0107516
-0.0111855
-0.011738
-0.0124088
-0.0131193
-0.0138481
-0.0145525
-0.0152247
-0.0157856
-0.00489595
-0.00698235
-0.00670298
-0.00703015
-0.00855963
-0.00988202
-0.0105392
-0.0107695
-0.0109414
-0.0108913
-0.0110858
-0.0111218
-0.0114374
-0.0117606
-0.0123087
-0.0129274
-0.013614
-0.0143186
-0.0150363
-0.0156694
-0.0105807
-0.00500781
-0.00481336
-0.00607479
-0.00786026
-0.00936724
-0.0101276
-0.0108698
-0.0116508
-0.0120722
-0.0126799
-0.012856
-0.0129695
-0.012419
-0.0123866
-0.0128183
-0.0134658
-0.0142137
-0.0150031
-0.0157181
-0.00604064
-0.00370774
-0.0038429
-0.0054428
-0.00700374
-0.00847349
-0.00935521
-0.0104754
-0.0111421
-0.0120384
-0.0122886
-0.0127445
-0.0128497
-0.0128587
-0.0127636
-0.0128589
-0.0132423
-0.0138592
-0.0145863
-0.0153129
-0.00285475
-0.00413878
-0.00436306
-0.00588325
-0.0071411
-0.00818319
-0.00863306
-0.0103393
-0.010848
-0.0119571
-0.0119916
-0.0126323
-0.0122345
-0.012374
-0.0117205
-0.012058
-0.0125006
-0.013048
-0.0136349
-0.0142112
-0.0064734
-0.00613814
-0.00570116
-0.0066936
-0.0078951
-0.00822163
-0.00837317
-0.009278
-0.0105307
-0.0119172
-0.0125007
-0.0127603
-0.0121789
-0.0111358
-0.00967168
-0.0108167
-0.0113982
-0.0120365
-0.012652
-0.0131605
-0.00105671
-0.00562661
-0.00781925
-0.0087218
-0.00945816
-0.00924762
-0.00927273
-0.0100257
-0.0104871
-0.0118116
-0.0132334
-0.0132723
-0.0115017
-0.00920127
-0.00810227
-0.0102831
-0.0109997
-0.011732
-0.0124033
-0.012931
-0.0194567
-0.0104474
-0.0112066
-0.0109284
-0.0108403
-0.0125273
-0.0145223
-0.01354
-0.0119302
-0.0120424
-0.0133992
-0.0130322
-0.0108021
-0.00877945
-0.00796707
-0.0103261
-0.0111727
-0.0120304
-0.0128295
-0.013488
-0.00478368
-0.0108202
-0.0119702
-0.0111044
-0.010952
-0.0122978
-0.0119117
-0.0129036
-0.011736
-0.0113036
-0.0113929
-0.0103166
-0.00862221
-0.00749268
-0.00748497
-0.0107389
-0.0118396
-0.0129659
-0.0140076
-0.0148581
-0.0152577
-0.0102274
-0.00957407
-0.0090373
-0.00899361
-0.00876537
-0.00935052
-0.00992765
-0.00945009
-0.00955814
-0.00906487
-0.00858415
-0.00813699
-0.00805889
-0.0105331
-0.0116199
-0.0128446
-0.0141583
-0.0154397
-0.0165182
-0.00985428
-0.00830554
-0.00722745
-0.00747827
-0.00783999
-0.00810122
-0.00847643
-0.00812785
-0.00805741
-0.0083361
-0.00842205
-0.00906438
-0.00943202
-0.0102551
-0.0110298
-0.0120718
-0.0133413
-0.0147724
-0.0162357
-0.017477
-0.00862888
-0.00752719
-0.00692844
-0.00713686
-0.00737719
-0.00768464
-0.00799826
-0.00780708
-0.00778979
-0.00786097
-0.00821151
-0.00867467
-0.00929222
-0.0100978
-0.0110878
-0.0122939
-0.0136806
-0.0152158
-0.0167639
-0.0180149
-0.00267173
-0.00546149
-0.00682157
-0.00770195
-0.00754047
-0.00762645
-0.00770552
-0.00774828
-0.0077557
-0.00792085
-0.00821805
-0.00868482
-0.00933488
-0.0101797
-0.0112212
-0.0124545
-0.0138604
-0.0154018
-0.0169864
-0.0182918
-0.00279272
-0.00516301
-0.00677183
-0.00808274
-0.00827101
-0.00842139
-0.00803319
-0.00818505
-0.00803985
-0.00827988
-0.00858588
-0.0091152
-0.00979037
-0.0106301
-0.01162
-0.0127552
-0.014043
-0.0154693
-0.016992
-0.0183324
-0.00159893
-0.00403785
-0.00608078
-0.0088669
-0.00990066
-0.00992177
-0.0100439
-0.00967296
-0.00944725
-0.00925866
-0.00917901
-0.00933894
-0.00976362
-0.0104087
-0.0112399
-0.0122096
-0.0133262
-0.0145748
-0.0159383
-0.0172341
-0.000978824
-0.00217906
-0.00479044
-0.00844962
-0.0105951
-0.0129824
-0.0154341
-0.016444
-0.0173015
-0.0159524
-0.014665
-0.0125986
-0.0112735
-0.0106596
-0.0108201
-0.0114181
-0.0122806
-0.0133638
-0.0146481
-0.016081
-0.0019329
-0.0033154
-0.00542614
-0.00684095
-0.0078934
-0.00985898
-0.0132404
-0.0181276
-0.0230156
-0.0264239
-0.027797
-0.0253448
-0.0210489
-0.0160586
-0.0127784
-0.0108577
-0.0105183
-0.0109954
-0.0118845
-0.0130033
-0.0162709
-0.0338269
-0.0200571
-0.0130166
-0.0126539
-0.0172108
-0.0136243
-0.0191776
-0.0177565
-0.0166927
-0.0134638
-0.0182815
-0.0135882
-0.0157992
-0.0221452
-0.0419586
-0.0247473
-0.0186585
-0.0139848
-0.0217613
-0.0159915
-0.0171714
-0.0219226
-0.0190374
-0.0138248
-0.015844
-0.0152999
-0.0153352
-0.108945
-0.0824819
-0.0859545
-0.100502
-0.101404
-0.0740879
-0.0745284
-0.104003
-0.0867626
-0.0857394
-0.0914018
-0.0701384
-0.0718608
-0.0657932
-0.0892213
-0.0842343
-0.0781941
-0.067114
-0.0646727
-0.0670423
-0.0739204
-0.079475
-0.076596
-0.075722
-0.0652254
-0.0663046
-0.0750386
-0.0713441
-0.077649
-0.076343
-0.0783233
-0.0657163
-0.0654368
-0.0673642
-0.0527376
-0.0782224
-0.0785863
-0.0780377
-0.0675863
-0.0839702
-0.0492785
-0.0522515
-0.0967502
-0.0778042
-0.0791617
-0.0934735
-0.123646
-0.0585645
-0.0881774
-0.164011
-0.0815027
-0.101032
-0.138496
-0.181677
-0.0989724
-0.129272
-0.084605
-0.0917765
-0.0864852
-0.070146
-0.0677893
-0.0853793
-0.0812435
-0.0828227
-0.084939
-0.0804027
-0.0666299
-0.0675521
-0.0804246
-0.0792769
-0.0767684
-0.0791073
-0.0790183
-0.0700798
-0.0757855
-0.079375
-0.083
-0.0766001
-0.0809012
-0.088286
-0.0767457
-0.0730967
-0.0847509
-0.079568
-0.0796051
-0.0898261
-0.0893549
-0.0685384
-0.0512497
-0.0729044
-0.0497268
-0.0778895
-0.0878123
-0.0813979
-0.0468751
-0.0462907
-0.0439716
-0.0372793
-0.0775148
-0.0793323
-0.0755231
-0.0510691
-0.0772573
-0.0386628
-0.0527383
-0.0898915
-0.0752173
-0.0763363
-0.087392
-0.114258
-0.0599012
-0.0822452
-0.0957839
-0.130761
-0.123633
-0.115113
-0.0980686
-0.12885
-0.125802
-0.0839558
-0.119838
-0.111027
-0.0936711
-0.0865287
-0.122805
-0.112363
-0.0876758
-0.110729
-0.115832
-0.0860074
-0.0909024
-0.111019
-0.114027
-0.0993261
-0.118011
-0.119238
-0.0926722
-0.0839164
-0.113621
-0.0905397
-0.0961694
-0.117187
-0.107143
-0.076212
-0.0514574
-0.0786999
-0.0526794
-0.0859193
-0.103757
-0.094985
-0.0455104
-0.0375466
-0.0482115
-0.0435475
-0.0773048
-0.0922032
-0.0840694
-0.0381145
-0.0489053
-0.0439891
-0.0509238
-0.0754584
-0.081833
-0.0772433
-0.0550541
-0.0763262
-0.0553814
-0.0734996
-0.145619
-0.161199
-0.16384
-0.148907
-0.145261
-0.159257
-0.162045
-0.128877
-0.163851
-0.162875
-0.141913
-0.12899
-0.161717
-0.15957
-0.129031
-0.162809
-0.156227
-0.127115
-0.127629
-0.158186
-0.146282
-0.127241
-0.152463
-0.139331
-0.125775
-0.0977603
-0.139299
-0.115025
-0.111284
-0.134509
-0.119313
-0.084651
-0.056337
-0.105746
-0.0797816
-0.0972613
-0.114386
-0.101814
-0.0515615
-0.0471125
-0.0739215
-0.0670886
-0.0858372
-0.0982948
-0.089152
-0.0478047
-0.0549979
-0.0677711
-0.0748289
-0.0781472
-0.0865753
-0.0808785
-0.0592956
-0.0764143
-0.078625
-0.0911248
-0.0250804
-0.0186258
-0.0210285
-0.0175102
-0.017308
-0.0163871
-0.0182356
-0.0248956
-0.0216834
-0.0273847
-0.0175173
-0.0195023
-0.0192993
-0.0247676
-0.0326441
-0.0310118
-0.0430461
-0.0202527
-0.0217079
-0.0266552
-0.0282796
-0.033654
-0.0445086
-0.0394547
-0.0218928
-0.0245016
-0.0271255
-0.0215375
-0.0366908
-0.0364968
-0.0308539
-0.0268846
-0.038073
-0.0203743
-0.0233663
-0.0619381
-0.0311853
-0.042389
-0.0443189
-0.0649183
-0.0269301
-0.044284
-0.10572
-0.0500006
-0.0814942
-0.0730702
-0.0902081
-0.0514436
-0.0710377
-0.144447
-0.0929385
-0.121231
-0.0947019
-0.0948554
-0.0758082
-0.0791869
-0.0230135
-0.0415811
-0.0476735
-0.0190848
-0.0212892
-0.03646
-0.0424365
-0.0324219
-0.0506784
-0.0629381
-0.0229776
-0.0296392
-0.044588
-0.0518679
-0.0516773
-0.0670478
-0.0749736
-0.0314293
-0.0320366
-0.0537262
-0.0499504
-0.0439785
-0.0742993
-0.0565311
-0.030365
-0.0224782
-0.0451019
-0.0276535
-0.0308741
-0.0487211
-0.0322029
-0.020478
-0.0209103
-0.0234309
-0.0184458
-0.0380245
-0.0296456
-0.030388
-0.0235508
-0.0382278
-0.0191004
-0.0268939
-0.0715473
-0.0332992
-0.0493836
-0.0447288
-0.0640251
-0.0312126
-0.0473482
-0.109247
-0.0567422
-0.0810877
-0.0691823
-0.0751643
-0.0529155
-0.0642819
-0.0739235
-0.0911772
-0.108957
-0.0604837
-0.0610902
-0.0682726
-0.076009
-0.0773546
-0.109759
-0.105896
-0.0616047
-0.0650207
-0.0781316
-0.0802727
-0.0840768
-0.105144
-0.100148
-0.0655966
-0.0566851
-0.0785781
-0.0623236
-0.0594867
-0.0935375
-0.0622116
-0.0500033
-0.0303322
-0.0542837
-0.0324504
-0.0333373
-0.0530283
-0.0371027
-0.0255763
-0.0190976
-0.0278055
-0.0218793
-0.0300799
-0.0350323
-0.0347891
-0.019279
-0.0252312
-0.0218435
-0.0255194
-0.0457644
-0.0362571
-0.0458787
-0.0288548
-0.0435231
-0.0278198
-0.0378139
-0.075819
-0.0511443
-0.0716852
-0.0489835
-0.061102
-0.0418924
-0.0515849
-0.115383
-0.0596684
-0.0924377
-0.0648968
-0.0719407
-0.0462641
-0.0512942
-0.117312
-0.0971341
-0.093463
-0.075269
-0.0794614
-0.0524112
-0.0520109
-0.106915
-0.0889868
-0.0756528
-0.0773052
-0.0609904
-0.0516719
-0.0497739
-0.0652573
-0.0725933
-0.0653451
-0.0537623
-0.0339951
-0.0481043
-0.0428072
-0.0401158
-0.062814
-0.0548341
-0.0296278
-0.0237508
-0.0408339
-0.0356506
-0.0378442
-0.0530564
-0.0527537
-0.0236534
-0.027111
-0.0349639
-0.0362986
-0.0488029
-0.0544176
-0.0635393
-0.0292324
-0.0379416
-0.0375185
-0.0419232
-0.0731091
-0.067951
-0.0818702
-0.0412999
-0.0488698
-0.0433328
-0.0457222
-0.0120787
-0.011672
-0.0134077
-0.0106689
-0.0109433
-0.0113749
-0.0126793
-0.0142645
-0.014397
-0.0186205
-0.011093
-0.0118487
-0.0132439
-0.0141961
-0.0152086
-0.0198918
-0.019915
-0.0119964
-0.0130405
-0.014059
-0.0127206
-0.0194663
-0.0186291
-0.0155063
-0.0141434
-0.0201932
-0.0123058
-0.013129
-0.0329327
-0.0156507
-0.0213593
-0.0230971
-0.0308737
-0.0143381
-0.0203237
-0.0538774
-0.0251442
-0.0407957
-0.0341983
-0.0410724
-0.0228093
-0.029774
-0.0701515
-0.0467058
-0.0614968
-0.0423867
-0.0417463
-0.0314302
-0.0333493
-0.0659889
-0.0641563
-0.0614945
-0.0407632
-0.037317
-0.0329851
-0.030632
-0.0166055
-0.0322826
-0.0397945
-0.0138398
-0.015509
-0.0295184
-0.0332101
-0.023546
-0.0422676
-0.048624
-0.016184
-0.0167957
-0.0335564
-0.0313787
-0.0242831
-0.0492554
-0.0411938
-0.0163707
-0.0138578
-0.0292164
-0.0199086
-0.0180069
-0.0197661
-0.0264011
-0.0175688
-0.0229417
-0.0160307
-0.0205117
-0.0147813
-0.0159085
-0.0162222
-0.0144504
-0.0158223
-0.0152345
-0.0144993
-0.035957
-0.0179943
-0.0261152
-0.0204174
-0.0268285
-0.0171069
-0.0211871
-0.0563734
-0.0300133
-0.0431425
-0.0285456
-0.0311467
-0.0224664
-0.0252062
-0.0590988
-0.0470001
-0.0517816
-0.0310946
-0.029175
-0.025584
-0.0250298
-0.0557684
-0.0546773
-0.0663075
-0.0404593
-0.0418343
-0.0407233
-0.043418
-0.0600085
-0.0689
-0.0709285
-0.0415
-0.0372221
-0.0441629
-0.0407294
-0.0465791
-0.0684837
-0.050014
-0.034195
-0.0221522
-0.0372715
-0.0251054
-0.0261406
-0.0316852
-0.0408885
-0.0295764
-0.0336431
-0.0255856
-0.0319456
-0.016328
-0.0177206
-0.0200514
-0.0169746
-0.0182919
-0.0160171
-0.0172365
-0.0245158
-0.0193849
-0.0232512
-0.0169112
-0.0201351
-0.0157298
-0.0171731
-0.0396263
-0.0253012
-0.0328742
-0.0211335
-0.0233957
-0.0176567
-0.0189422
-0.0490804
-0.0354347
-0.0397901
-0.023756
-0.0234749
-0.0192232
-0.0194899
-0.0606761
-0.0285654
-0.0394483
-0.0341716
-0.0378665
-0.0235031
-0.0250938
-0.0680523
-0.0408976
-0.0389283
-0.0390872
-0.0367659
-0.0252359
-0.0252202
-0.0476849
-0.0377435
-0.0346033
-0.0339588
-0.0247245
-0.0253168
-0.0245913
-0.0257943
-0.0337779
-0.0320457
-0.0220722
-0.0169005
-0.0239408
-0.0220535
-0.0204016
-0.0312963
-0.0289657
-0.0161171
-0.0156228
-0.0212819
-0.0193646
-0.024085
-0.0288019
-0.0304766
-0.0158315
-0.0168623
-0.0190897
-0.0190598
-0.0322526
-0.0314687
-0.0344308
-0.0172479
-0.0183206
-0.0191348
-0.0194112
-0.0374142
-0.0351843
-0.0357094
-0.0185646
-0.0188983
-0.0194822
-0.0197581
-0.00885064
-0.00894118
-0.00999749
-0.00842076