/*--------------------------------*- C++ -*----------------------------------*\
  =========                 |
  \\      /  F ield         | OpenFOAM: The Open Source CFD Toolbox
   \\    /   O peration     | Website:  https://openfoam.org
    \\  /    A nd           | Version:  10
     \\/     M anipulation  |
\*---------------------------------------------------------------------------*/
FoamFile
{
    format      ascii;
    class       volScalarField;
    location    "6.5";
    object      turbidity;
}
// * * * * * * * * * * * * * * * * * * * * * * * * * * * * * * * * * * * * * //

dimensions      [0 0 0 0 0 0 0];

internalField   nonuniform List<scalar> 
12920
(
-0.0320617
-0.0444405
-0.0685429
-0.099586
-0.135014
-0.170395
-0.201339
-0.22698
-0.24616
-0.2596
-0.26921
-0.276259
-0.282116
-0.286325
-0.289683
-0.297066
-0.307018
-0.317737
-0.331107
-0.347332
-0.0229735
-0.0365093
-0.0569559
-0.0873438
-0.123244
-0.1665
-0.209311
-0.24274
-0.259892
-0.261791
-0.258461
-0.253466
-0.252052
-0.251815
-0.25896
-0.275314
-0.309423
-0.356007
-0.410206
-0.462959
-0.0196623
-0.0330092
-0.0497116
-0.0693468
-0.094794
-0.136839
-0.190357
-0.238
-0.278797
-0.311814
-0.34581
-0.375502
-0.40528
-0.430894
-0.455534
-0.479293
-0.507931
-0.545511
-0.591673
-0.646393
-0.0263062
-0.0419732
-0.0640433
-0.0907916
-0.121806
-0.165407
-0.218248
-0.273621
-0.323677
-0.370041
-0.409189
-0.446045
-0.480846
-0.512983
-0.548379
-0.586574
-0.631279
-0.679228
-0.730347
-0.784901
-0.0119662
-0.0371928
-0.0628018
-0.0877722
-0.11543
-0.144934
-0.177773
-0.213056
-0.25025
-0.297889
-0.346568
-0.4007
-0.451706
-0.509818
-0.564458
-0.614128
-0.661553
-0.707776
-0.751763
-0.790547
-0.0120084
-0.0362138
-0.0627102
-0.0880205
-0.113381
-0.12821
-0.147618
-0.166339
-0.184352
-0.206686
-0.227278
-0.255886
-0.29493
-0.370329
-0.473621
-0.568266
-0.632977
-0.672897
-0.697833
-0.717455
-0.016459
-0.0299607
-0.0475675
-0.0753634
-0.107654
-0.132372
-0.15641
-0.177637
-0.192557
-0.20489
-0.214244
-0.233686
-0.263419
-0.316043
-0.394966
-0.488354
-0.559422
-0.598508
-0.607147
-0.598179
-0.0237256
-0.0458692
-0.0663598
-0.0881518
-0.111245
-0.137194
-0.138114
-0.13592
-0.139761
-0.119913
-0.111959
-0.112786
-0.138592
-0.195413
-0.308907
-0.387273
-0.432254
-0.447702
-0.434349
-0.419354
-0.0106804
-0.0318062
-0.0445948
-0.057474
-0.0736228
-0.0854671
-0.104239
-0.108674
-0.101244
-0.0858595
-0.0785182
-0.0776438
-0.0795689
-0.111047
-0.198532
-0.250614
-0.279178
-0.29078
-0.297775
-0.313517
-0.0141584
-0.0551611
-0.0697642
-0.0942511
-0.109142
-0.0931766
-0.085913
-0.0846098
-0.0816058
-0.0758297
-0.0774744
-0.0795902
-0.0772564
-0.0787324
-0.106324
-0.168527
-0.202922
-0.229061
-0.255826
-0.285318
-0.0585539
-0.0667233
-0.0748642
-0.10926
-0.135568
-0.127605
-0.113479
-0.0918412
-0.0828756
-0.0910672
-0.0998355
-0.093917
-0.0833069
-0.0762523
-0.0831738
-0.14476
-0.183293
-0.215751
-0.246143
-0.27624
-0.0452578
-0.0527833
-0.0729808
-0.117076
-0.156182
-0.152029
-0.152336
-0.141683
-0.127315
-0.129847
-0.124113
-0.107346
-0.0943666
-0.0834806
-0.0850786
-0.14291
-0.180728
-0.215171
-0.250591
-0.288989
-0.0375198
-0.0609061
-0.075614
-0.102498
-0.130827
-0.158759
-0.163551
-0.175503
-0.186202
-0.17359
-0.154525
-0.131576
-0.113386
-0.102605
-0.142805
-0.180185
-0.21664
-0.256426
-0.30257
-0.356225
-0.0870934
-0.0694405
-0.0783633
-0.113148
-0.136303
-0.160764
-0.186023
-0.22424
-0.258076
-0.301257
-0.302162
-0.297661
-0.277805
-0.274058
-0.281745
-0.305751
-0.337967
-0.382667
-0.436307
-0.500378
-0.0835964
-0.0705537
-0.0895018
-0.128641
-0.152091
-0.185536
-0.210301
-0.247518
-0.283728
-0.325783
-0.355922
-0.383506
-0.390757
-0.405145
-0.42009
-0.446754
-0.479961
-0.522141
-0.566836
-0.61292
-0.0765583
-0.0635764
-0.0736367
-0.115977
-0.149212
-0.187095
-0.224499
-0.255238
-0.290695
-0.325334
-0.366598
-0.406952
-0.441321
-0.474385
-0.503461
-0.534581
-0.564404
-0.591858
-0.610385
-0.621419
-0.0542814
-0.0641261
-0.101753
-0.164256
-0.160087
-0.226476
-0.26387
-0.30067
-0.324406
-0.359379
-0.391986
-0.426794
-0.460467
-0.490966
-0.51919
-0.544344
-0.567074
-0.583865
-0.59222
-0.598201
-0.0855516
-0.0612331
-0.0752993
-0.124863
-0.146486
-0.194683
-0.244225
-0.279204
-0.314661
-0.339715
-0.369587
-0.393839
-0.419421
-0.440228
-0.459847
-0.475051
-0.486868
-0.493044
-0.49545
-0.500273
-0.0488343
-0.0464046
-0.0608713
-0.114488
-0.132539
-0.183338
-0.217893
-0.261375
-0.297264
-0.331752
-0.35637
-0.370453
-0.383369
-0.394673
-0.407732
-0.418368
-0.429929
-0.440767
-0.454966
-0.476494
-0.0691231
-0.0580841
-0.0711748
-0.100899
-0.121661
-0.144262
-0.161841
-0.180394
-0.19372
-0.213467
-0.241759
-0.283063
-0.324277
-0.358167
-0.384125
-0.404023
-0.419454
-0.431299
-0.436779
-0.440688
-0.00968272
-0.0267772
-0.0433088
-0.0570199
-0.0706176
-0.0777723
-0.0876266
-0.0954638
-0.100454
-0.101915
-0.100189
-0.0949504
-0.0872299
-0.0768093
-0.0718157
-0.07465
-0.0836699
-0.088538
-0.0819815
-0.0661093
-0.00332471
-0.0137686
-0.0249681
-0.0331155
-0.0525733
-0.0560857
-0.0552466
-0.04398
-0.0355122
-0.0314075
-0.0303338
-0.0310293
-0.0332727
-0.0368203
-0.0426092
-0.0517351
-0.0661528
-0.0850141
-0.111652
-0.138351
-0.00405111
-0.00731792
-0.0167524
-0.0303102
-0.0468172
-0.0511442
-0.0481762
-0.0394091
-0.0407261
-0.0445191
-0.0498224
-0.0553583
-0.0630112
-0.0722522
-0.0838192
-0.0972821
-0.111671
-0.126315
-0.135426
-0.126611
-0.00751459
-0.012466
-0.0250965
-0.0341781
-0.0442149
-0.038736
-0.0429467
-0.0435759
-0.0508026
-0.0568377
-0.0654951
-0.0693709
-0.07654
-0.0812605
-0.0895072
-0.099552
-0.110284
-0.117987
-0.121432
-0.121987
-0.00513396
-0.0105793
-0.0174541
-0.0168199
-0.0219668
-0.0205407
-0.0237316
-0.0329342
-0.0483205
-0.0688474
-0.0957309
-0.115378
-0.131824
-0.123395
-0.113733
-0.101674
-0.09958
-0.100307
-0.10342
-0.110801
-0.00732376
-0.0121759
-0.0204125
-0.0105864
-0.0116911
-0.0114324
-0.0142333
-0.0198182
-0.0270976
-0.0416368
-0.0652389
-0.104186
-0.15244
-0.174348
-0.153202
-0.116111
-0.0927386
-0.0866947
-0.0895755
-0.100884
-0.0104124
-0.013387
-0.0225523
-0.0223146
-0.0218098
-0.0149808
-0.0187392
-0.0244431
-0.0339708
-0.0475565
-0.0619383
-0.0860754
-0.117727
-0.151581
-0.160643
-0.135385
-0.100384
-0.0806229
-0.0754206
-0.0807885
-0.0181736
-0.01954
-0.0188439
-0.0212089
-0.0297248
-0.0226147
-0.0287569
-0.0242607
-0.0262409
-0.0309914
-0.0408914
-0.0590995
-0.0912909
-0.133874
-0.118773
-0.0933027
-0.0728517
-0.0662463
-0.0656995
-0.068849
-0.00969663
-0.0115612
-0.0148142
-0.0106159
-0.0139352
-0.0187062
-0.0283121
-0.0230517
-0.0267507
-0.0336225
-0.0333977
-0.0407045
-0.0726383
-0.118212
-0.13235
-0.0681245
-0.0551099
-0.0520104
-0.0529426
-0.0552695
-0.0407323
-0.0219926
-0.0137988
-0.022549
-0.0245481
-0.0217502
-0.0213366
-0.0241302
-0.0372146
-0.0525352
-0.0399465
-0.0302546
-0.0439983
-0.0817985
-0.105593
-0.0583198
-0.0470179
-0.0440962
-0.0455174
-0.0484278
-0.0182805
-0.0185983
-0.0204542
-0.0322265
-0.0547461
-0.0609419
-0.0735308
-0.0737117
-0.0793808
-0.0819079
-0.0510907
-0.0307047
-0.032175
-0.0521804
-0.0837346
-0.0557085
-0.0457311
-0.0420235
-0.0430306
-0.0467315
-0.0122803
-0.0142913
-0.021587
-0.0377763
-0.0690143
-0.0793053
-0.0966105
-0.118254
-0.116426
-0.0988655
-0.0563562
-0.0380123
-0.0392789
-0.0536099
-0.0783734
-0.0542944
-0.0470378
-0.0461836
-0.0504039
-0.0553953
-0.0501066
-0.0174096
-0.0190843
-0.0227869
-0.0303693
-0.0336192
-0.0477217
-0.0785708
-0.0704354
-0.0721467
-0.072385
-0.0672491
-0.0680132
-0.0752005
-0.064668
-0.0590734
-0.0591993
-0.0676665
-0.0791967
-0.0845842
-0.0582385
-0.0460996
-0.0276735
-0.020238
-0.0228674
-0.0261016
-0.0410435
-0.0496697
-0.0647415
-0.0780669
-0.0809757
-0.0830375
-0.0797623
-0.0787682
-0.0783631
-0.0814082
-0.0924774
-0.107536
-0.122313
-0.129981
-0.0400119
-0.0150428
-0.0119071
-0.0146189
-0.0168558
-0.020812
-0.0322519
-0.0358639
-0.0476851
-0.0531694
-0.066361
-0.072643
-0.0779552
-0.0835829
-0.0884576
-0.0952525
-0.102033
-0.105211
-0.103747
-0.0999513
-0.0137428
-0.0148682
-0.0129565
-0.0158428
-0.0174956
-0.0219352
-0.0273284
-0.0288764
-0.0365279
-0.0408185
-0.0510496
-0.0555689
-0.0629491
-0.0661059
-0.0710378
-0.0717508
-0.0713857
-0.0667999
-0.0606653
-0.05506
-0.0365549
-0.0113718
-0.0110401
-0.0171676
-0.0202985
-0.0554843
-0.0378212
-0.0443119
-0.0393906
-0.0412676
-0.044764
-0.0468622
-0.049537
-0.0504119
-0.0512607
-0.0505387
-0.0491555
-0.0465808
-0.0435142
-0.041437
-0.0403926
-0.0127011
-0.00939346
-0.0138314
-0.0180555
-0.0284513
-0.0415703
-0.0427402
-0.0426703
-0.0396495
-0.0386028
-0.0375666
-0.0373988
-0.0369397
-0.0367757
-0.0364074
-0.0361722
-0.0359665
-0.0360926
-0.0371696
-0.0274824
-0.0114894
-0.0100382
-0.0135319
-0.0175453
-0.0250346
-0.0326202
-0.0378941
-0.0414229
-0.0399342
-0.0373686
-0.0335157
-0.0331542
-0.0346415
-0.0376309
-0.0416675
-0.0471312
-0.0540772
-0.0633419
-0.0758127
-0.0109338
-0.0119128
-0.0134745
-0.0260127
-0.0412947
-0.0544869
-0.0624407
-0.066887
-0.0743793
-0.0882226
-0.109865
-0.130778
-0.144341
-0.151534
-0.154746
-0.151413
-0.142275
-0.127953
-0.111147
-0.0965622
-0.0149716
-0.0231076
-0.0334488
-0.0330931
-0.0364746
-0.036298
-0.0396176
-0.0423761
-0.0440951
-0.0439429
-0.0421524
-0.0388526
-0.0353166
-0.0329771
-0.0336819
-0.0368937
-0.0408186
-0.0406131
-0.0359351
-0.0295963
-0.0199192
-0.0132335
-0.0144377
-0.016948
-0.0240598
-0.023669
-0.0220547
-0.018885
-0.0176177
-0.0175134
-0.0185164
-0.0199222
-0.0221169
-0.0248685
-0.0288219
-0.0336835
-0.0398017
-0.0463098
-0.0539803
-0.0562388
-0.00387265
-0.00823195
-0.014776
-0.0217706
-0.0290779
-0.0247079
-0.021496
-0.0203031
-0.0223245
-0.0244517
-0.0270186
-0.0296097
-0.0327434
-0.0358904
-0.0390072
-0.0416514
-0.043405
-0.0437952
-0.0423139
-0.0371988
-0.00135271
-0.00844928
-0.0166658
-0.0191495
-0.021271
-0.0175828
-0.019812
-0.0222319
-0.0267754
-0.0287901
-0.0317798
-0.0322678
-0.0335645
-0.0337862
-0.0343934
-0.0348947
-0.03527
-0.0349997
-0.0344848
-0.034261
-0.00414384
-0.00696944
-0.0119403
-0.010584
-0.0115315
-0.0119713
-0.0160366
-0.0222927
-0.0313823
-0.0384695
-0.0472074
-0.0483022
-0.0490262
-0.0419894
-0.0375381
-0.0341174
-0.0332943
-0.0330588
-0.033512
-0.0347129
-0.00437516
-0.0051877
-0.00702398
-0.00607708
-0.00735814
-0.00939986
-0.0127861
-0.018361
-0.0267501
-0.0389733
-0.0559425
-0.0722313
-0.0847632
-0.0747056
-0.0542777
-0.0408198
-0.0366248
-0.0366701
-0.0384164
-0.0412016
-0.00482122
-0.00860054
-0.0117825
-0.00907077
-0.00846985
-0.0092141
-0.0117528
-0.0167695
-0.0231366
-0.0339108
-0.0454256
-0.0596068
-0.0706085
-0.0739739
-0.0646217
-0.050906
-0.0438855
-0.0431014
-0.0450629
-0.0477051
-0.00801544
-0.0129383
-0.00875719
-0.00895773
-0.011097
-0.0102965
-0.0111622
-0.0144327
-0.0182035
-0.0245153
-0.0359372
-0.0507934
-0.0655235
-0.0733902
-0.0485369
-0.043317
-0.0429661
-0.0442574
-0.0446773
-0.0440456
-0.00263143
-0.00515465
-0.00596958
-0.00716353
-0.00956202
-0.0104024
-0.0114569
-0.0126397
-0.0146207
-0.0155395
-0.0222202
-0.0381628
-0.0594332
-0.071518
-0.0513014
-0.036446
-0.0365432
-0.0360419
-0.034123
-0.031296
-0.0144394
-0.0121196
-0.0109216
-0.0153037
-0.0182274
-0.0154986
-0.0145743
-0.0179493
-0.0250696
-0.0222577
-0.0156711
-0.0221387
-0.0413826
-0.0595454
-0.045035
-0.0288725
-0.0291324
-0.030044
-0.0299421
-0.0283096
-0.020577
-0.017467
-0.0155753
-0.0204875
-0.032122
-0.037304
-0.049444
-0.0571195
-0.0594835
-0.0375617
-0.0194138
-0.0180007
-0.0277226
-0.0433575
-0.0383826
-0.0254608
-0.0279846
-0.0311561
-0.0325868
-0.0315116
-0.00363064
-0.00973965
-0.0124123
-0.0207037
-0.0367668
-0.0435389
-0.0485363
-0.0644505
-0.0655296
-0.0407563
-0.023316
-0.0206176
-0.0258391
-0.0342046
-0.0309138
-0.0270349
-0.0307286
-0.0333053
-0.0330816
-0.0304447
-0.0525633
-0.0175715
-0.0147921
-0.017116
-0.0189612
-0.0180485
-0.0225281
-0.0309793
-0.0313132
-0.0348266
-0.035779
-0.0343087
-0.0344322
-0.0345623
-0.0314822
-0.0341474
-0.0372797
-0.0384609
-0.0369347
-0.0329574
-0.0304994
-0.0229278
-0.0130954
-0.0112679
-0.012845
-0.0140687
-0.0198919
-0.0222928
-0.0274145
-0.0312331
-0.0322642
-0.0344152
-0.0350216
-0.0377005
-0.0403541
-0.043422
-0.0459901
-0.0464315
-0.0457176
-0.0435733
-0.0251593
-0.0144207
-0.00877617
-0.00922706
-0.0101228
-0.0116543
-0.0168139
-0.0179668
-0.0224969
-0.0239736
-0.027946
-0.0306362
-0.0337999
-0.0367681
-0.0389295
-0.0397459
-0.0392996
-0.0371354
-0.0345338
-0.0323496
-0.0100345
-0.0103037
-0.00909168
-0.00901276
-0.00936433
-0.0113187
-0.014052
-0.0155915
-0.0189034
-0.0203199
-0.0232862
-0.0243535
-0.0266119
-0.0271358
-0.0279612
-0.0272045
-0.0263064
-0.0247708
-0.0234689
-0.0226538
-0.020911
-0.00885269
-0.00709503
-0.00974333
-0.0118301
-0.0199776
-0.0161139
-0.0180361
-0.0180604
-0.0183206
-0.0191082
-0.019075
-0.0196873
-0.0196176
-0.0197856
-0.0195582
-0.0193911
-0.0191732
-0.0191394
-0.0194928
-0.00469615
-0.00534351
-0.00697819
-0.00915958
-0.0112899
-0.0142253
-0.0167487
-0.0168087
-0.0166545
-0.0159552
-0.0155973
-0.0152638
-0.0152035
-0.0152531
-0.0155695
-0.0159776
-0.0165466
-0.0172255
-0.0180852
-0.0192302
-0.027756
-0.0127495
-0.00771088
-0.00920388
-0.011975
-0.0148752
-0.0178717
-0.0197728
-0.022276
-0.0231278
-0.0241387
-0.0236087
-0.0233954
-0.0229636
-0.0231588
-0.0232818
-0.0239309
-0.0248524
-0.0261774
-0.0278436
-0.0116464
-0.00837344
-0.00751839
-0.0102158
-0.0153248
-0.0212356
-0.0246033
-0.026932
-0.033132
-0.0442565
-0.0600429
-0.073711
-0.0823076
-0.0862799
-0.0861825
-0.0809923
-0.0717404
-0.060128
-0.0486406
-0.0390902
-0.00492047
-0.0120831
-0.0136615
-0.0147908
-0.016714
-0.0160441
-0.0168501
-0.0168512
-0.0162343
-0.0147444
-0.0131977
-0.0122237
-0.0128173
-0.0147604
-0.0173695
-0.019709
-0.0213161
-0.0210488
-0.0203461
-0.0200036
-0.00626547
-0.00780185
-0.0110305
-0.011178
-0.0119966
-0.0117248
-0.0114246
-0.0109188
-0.0112344
-0.011997
-0.0130944
-0.0144619
-0.0161101
-0.0178564
-0.0197885
-0.0214914
-0.0230753
-0.0240685
-0.0249542
-0.0231375
-0.00889863
-0.0125687
-0.0153013
-0.0156559
-0.0165538
-0.0138524
-0.0139798
-0.0146386
-0.0157909
-0.0166712
-0.0174769
-0.018101
-0.018572
-0.0187631
-0.0187977
-0.0185873
-0.0183032
-0.0177294
-0.0171972
-0.0165101
-0.0011627
-0.00708528
-0.0120177
-0.0113677
-0.0119267
-0.0122031
-0.0143191
-0.0155454
-0.0168619
-0.0169846
-0.0171626
-0.0165756
-0.0161753
-0.0156388
-0.0153389
-0.0152064
-0.015304
-0.0154923
-0.0158973
-0.0166229
-0.00608519
-0.00641674
-0.00879547
-0.00767109
-0.00886148
-0.0107727
-0.0137168
-0.0162197
-0.0194279
-0.0202835
-0.0219773
-0.0204416
-0.0195928
-0.0171914
-0.0161155
-0.0154076
-0.0154432
-0.0156593
-0.0161604
-0.0169203
-0.00642403
-0.00447408
-0.00534275
-0.0056193
-0.00746556
-0.00989734
-0.0122174
-0.0156905
-0.0206382
-0.0251958
-0.030854
-0.0331886
-0.0333273
-0.0263332
-0.0203796
-0.0176262
-0.0169036
-0.0168291
-0.0170731
-0.0176679
-0.00330796
-0.00586902
-0.00553041
-0.00545137
-0.00670491
-0.00869226
-0.0101148
-0.014107
-0.0178034
-0.0233328
-0.0271134
-0.0304484
-0.031344
-0.0294367
-0.0256768
-0.0223949
-0.0209438
-0.0202477
-0.0199292
-0.0199573
-0.00949736
-0.00763024
-0.00499962
-0.00610394
-0.00724698
-0.00828458
-0.00858196
-0.0125308
-0.0149393
-0.0193797
-0.0238433
-0.0282986
-0.0299962
-0.0294515
-0.0227988
-0.0218905
-0.0210812
-0.0198582
-0.0181713
-0.0168204
-0.00609728
-0.00665367
-0.0059298
-0.00658263
-0.00812651
-0.0084824
-0.00856352
-0.0091104
-0.0101362
-0.0124508
-0.0189112
-0.0250476
-0.0295458
-0.0294893
-0.0251658
-0.0173045
-0.0154754
-0.0136762
-0.0121495
-0.0113215
-0.00328745
-0.00831815
-0.00918315
-0.0114725
-0.0127437
-0.0110116
-0.0106517
-0.0129101
-0.0132116
-0.0111414
-0.013354
-0.0190807
-0.0242559
-0.0259865
-0.0215793
-0.0145341
-0.0131839
-0.0118907
-0.0109435
-0.0105366
-0.0274867
-0.012712
-0.0113994
-0.0145987
-0.018767
-0.0227386
-0.0314864
-0.0342356
-0.026704
-0.0152082
-0.0134751
-0.0165129
-0.0194824
-0.0210512
-0.0183832
-0.0146775
-0.0143705
-0.0134263
-0.0123467
-0.0116289
-0.00481391
-0.00946665
-0.0108555
-0.014705
-0.0202571
-0.0236764
-0.0246376
-0.0313485
-0.0265282
-0.0172752
-0.0147078
-0.0151977
-0.0161888
-0.0169427
-0.0168261
-0.0152225
-0.014546
-0.0133119
-0.0121653
-0.0115395
-0.0365708
-0.00617231
-0.00800212
-0.00992849
-0.0116342
-0.0114026
-0.0135871
-0.0170707
-0.017274
-0.0183486
-0.0181013
-0.0175071
-0.0175553
-0.0182308
-0.0171796
-0.0165121
-0.0154881
-0.0140365
-0.0128378
-0.0121104
-0.015095
-0.00885421
-0.00718627
-0.00814584
-0.00925174
-0.0101276
-0.0125734
-0.0133244
-0.0146369
-0.0158823
-0.0161415
-0.017518
-0.01788
-0.0186327
-0.0182301
-0.0171444
-0.0162057
-0.0150281
-0.0145067
-0.0144121
-0.0387314
-0.0171657
-0.00740765
-0.00765735
-0.00830749
-0.0093561
-0.0115473
-0.0119947
-0.0133995
-0.0136213
-0.0148273
-0.0152098
-0.015772
-0.0155555
-0.0151194
-0.0142753
-0.0135882
-0.0130067
-0.0129501
-0.013537
-0.0180016
-0.00911601
-0.00667184
-0.00746089
-0.00805395
-0.00909814
-0.010428
-0.010987
-0.0120366
-0.0121098
-0.012818
-0.0126077
-0.0128601
-0.0124839
-0.0124032
-0.0121787
-0.0122644
-0.0125918
-0.0132626
-0.0142825
-0.00679743
-0.00459814
-0.00640459
-0.00850416
-0.00954652
-0.0115837
-0.0107846
-0.0114521
-0.0111927
-0.0111191
-0.0111598
-0.0111181
-0.0112679
-0.0113675
-0.0115838
-0.011881
-0.0123338
-0.0129845
-0.0138522
-0.0149178
-0.00565702
-0.00437096
-0.00611438
-0.00823745
-0.0101533
-0.0118065
-0.0128412
-0.0131395
-0.0130715
-0.0128728
-0.0124103
-0.0120015
-0.0116622
-0.0116104
-0.0118292
-0.0122747
-0.012892
-0.0136325
-0.0144823
-0.0154163
-0.00490115
-0.00435144
-0.00539418
-0.00769159
-0.0101677
-0.012958
-0.0154191
-0.0183436
-0.0214568
-0.0232835
-0.0245107
-0.0238017
-0.0225052
-0.0202601
-0.0180945
-0.0162634
-0.0152709
-0.0151518
-0.0156766
-0.0165824
-0.00173898
-0.0033437
-0.00475907
-0.00589594
-0.00749422
-0.00949238
-0.0113652
-0.0142912
-0.0207489
-0.0299878
-0.0404274
-0.0480446
-0.0515514
-0.0506169
-0.046153
-0.0385893
-0.0300139
-0.0224226
-0.0172362
-0.0144918
-0.00744582
-0.0102616
-0.00861009
-0.00749158
-0.00778024
-0.00722543
-0.00710706
-0.00656049
-0.00622851
-0.00642163
-0.0075749
-0.00948828
-0.0117136
-0.013699
-0.0151203
-0.0157271
-0.0157797
-0.0153227
-0.014753
-0.0141809
-0.00485906
-0.00672816
-0.0104121
-0.00895656
-0.00797895
-0.00810263
-0.00836373
-0.00882678
-0.0093915
-0.010367
-0.0113438
-0.0122241
-0.0128349
-0.0131205
-0.0134205
-0.0137073
-0.0142654
-0.0149565
-0.0158857
-0.0166871
-0.0125104
-0.0125209
-0.0113194
-0.00967655
-0.0101588
-0.0106181
-0.0113074
-0.0114329
-0.0113671
-0.0112186
-0.0111115
-0.0111159
-0.0113405
-0.0117376
-0.0123555
-0.0130795
-0.0138997
-0.014716
-0.0155108
-0.0161476
-0.0143287
-0.00986475
-0.00823399
-0.00800117
-0.00938916
-0.0105517
-0.010916
-0.010861
-0.0106209
-0.0104861
-0.0105403
-0.0107522
-0.0111861
-0.0117386
-0.0124093
-0.0131199
-0.0138487
-0.0145531
-0.0152251
-0.0157855
-0.00485521
-0.00698626
-0.0067097
-0.00703355
-0.00856169
-0.00988239
-0.0105395
-0.0107695
-0.0109414
-0.0108913
-0.0110865
-0.0111224
-0.0114392
-0.0117617
-0.0123096
-0.012928
-0.0136145
-0.0143191
-0.0150366
-0.0156693
-0.0106186
-0.00503304
-0.00482191
-0.00608041
-0.00786533
-0.00936919
-0.0101272
-0.0108704
-0.0116505
-0.012072
-0.0126796
-0.0128574
-0.012977
-0.0124264
-0.0123896
-0.0128193
-0.0134663
-0.0142142
-0.0150035
-0.0157179
-0.0062944
-0.00371598
-0.00384998
-0.00544412
-0.00700449
-0.0084748
-0.00935587
-0.0104768
-0.0111425
-0.0120406
-0.0122899
-0.0127469
-0.0128532
-0.0128642
-0.0127696
-0.0128615
-0.013243
-0.0138596
-0.0145865
-0.0153128
-0.00284717
-0.0041659
-0.00437277
-0.00588733
-0.00714266
-0.00818486
-0.00863598
-0.0103414
-0.0108485
-0.0119588
-0.0119913
-0.0126363
-0.0122367
-0.0123819
-0.0117216
-0.0120589
-0.0125007
-0.0130483
-0.013635
-0.0142112
-0.00667852
-0.00612555
-0.00571569
-0.00670325
-0.00789776
-0.00822175
-0.00837355
-0.00928002
-0.0105299
-0.0119161
-0.0124986
-0.01276
-0.0121802
-0.0111448
-0.00967645
-0.010817
-0.0113983
-0.0120366
-0.0126521
-0.0131604
-0.00115535
-0.00548956
-0.00780349
-0.00872824
-0.0094617
-0.00924642
-0.00926897
-0.0100275
-0.0104874
-0.0118085
-0.01323
-0.0132689
-0.0115026
-0.00920494
-0.00810383
-0.0102832
-0.0109999
-0.0117322
-0.0124035
-0.0129308
-0.0185468
-0.0104545
-0.0112049
-0.0109299
-0.010843
-0.0125501
-0.0145541
-0.013557
-0.0119383
-0.0120416
-0.0133964
-0.0130291
-0.010802
-0.00878154
-0.0079685
-0.0103262
-0.011173
-0.0120307
-0.0128297
-0.0134878
-0.00460365
-0.0107459
-0.0119568
-0.0111043
-0.0109484
-0.0122974
-0.0119244
-0.0129138
-0.0117449
-0.0113039
-0.0113922
-0.0103159
-0.00862214
-0.00749338
-0.00748587
-0.0107392
-0.0118399
-0.0129662
-0.0140078
-0.0148579
-0.0156898
-0.0102255
-0.00956378
-0.0090358
-0.00899171
-0.00876267
-0.00935463
-0.00992976
-0.00945055
-0.00955891
-0.00906515
-0.00858462
-0.00813761
-0.00806082
-0.0105339
-0.0116205
-0.0128449
-0.0141587
-0.0154399
-0.0165179
-0.0100932
-0.00830088
-0.00722637
-0.00747865
-0.00783944
-0.00810125
-0.00847678
-0.00812764
-0.00805842
-0.00833802
-0.00842331
-0.00906697
-0.00943369
-0.0102572
-0.011031
-0.0120728
-0.0133419
-0.0147729
-0.016236
-0.0174766
-0.00908202
-0.00750903
-0.0069287
-0.00713977
-0.00737864
-0.00768614
-0.00799891
-0.0078071
-0.00779117
-0.00786165
-0.00821307
-0.00867614
-0.00929393
-0.0100993
-0.0110889
-0.0122948
-0.0136812
-0.0152165
-0.0167643
-0.0180146
-0.0025315
-0.00540208
-0.00681053
-0.00770037
-0.00754164
-0.00762776
-0.00770567
-0.00774947
-0.00775598
-0.0079217
-0.00821887
-0.00868574
-0.00933575
-0.0101805
-0.0112218
-0.012455
-0.0138608
-0.0154023
-0.0169868
-0.0182915
-0.00265068
-0.00510488
-0.00675346
-0.00807968
-0.00827207
-0.00842388
-0.00803468
-0.00818805
-0.00804103
-0.00828152
-0.00858664
-0.00911574
-0.00979064
-0.0106304
-0.0116202
-0.0127554
-0.0140432
-0.0154695
-0.0169923
-0.0183321
-0.00149664
-0.00401071
-0.00607076
-0.00886233
-0.00990042
-0.00992348
-0.0100498
-0.00967751
-0.00945464
-0.00926438
-0.00918398
-0.00934148
-0.0097645
-0.0104086
-0.0112396
-0.0122092
-0.0133257
-0.0145744
-0.0159379
-0.0172337
-0.000907742
-0.0021435
-0.00474745
-0.00843478
-0.0105857
-0.012975
-0.0154249
-0.0164453
-0.0173132
-0.0159679
-0.0146893
-0.012619
-0.0112881
-0.0106655
-0.0108214
-0.011417
-0.0122788
-0.0133619
-0.014646
-0.0160793
-0.0020106
-0.00330867
-0.00541426
-0.00683078
-0.00788279
-0.00983952
-0.0132067
-0.0180889
-0.02298
-0.0264081
-0.027813
-0.0253894
-0.0211061
-0.0161061
-0.0128108
-0.0108718
-0.0105217
-0.0109932
-0.0118806
-0.0129988
-0.0163122
-0.0340172
-0.0201667
-0.0130394
-0.0126469
-0.0172896
-0.0136356
-0.0191245
-0.0178231
-0.0166794
-0.0134481
-0.0182511
-0.0135881
-0.015783
-0.0222696
-0.0422133
-0.0248415
-0.0187454
-0.013998
-0.0218348
-0.016008
-0.0171651
-0.0219787
-0.0190276
-0.0138262
-0.01583
-0.0153066
-0.0153295
-0.108975
-0.0824813
-0.0859412
-0.100585
-0.101595
-0.0740378
-0.0745626
-0.104118
-0.0867718
-0.0858349
-0.0916548
-0.0700994
-0.0719142
-0.0656737
-0.0893658
-0.0843488
-0.0782934
-0.0670499
-0.064536
-0.0668761
-0.0738364
-0.0795006
-0.0766603
-0.0756827
-0.0650841
-0.0662477
-0.0749959
-0.0714255
-0.0776168
-0.0762908
-0.078277
-0.0656766
-0.0653367
-0.0674788
-0.0528581
-0.0781721
-0.0785493
-0.0780174
-0.0674568
-0.0836695
-0.0493517
-0.0520936
-0.0963068
-0.0777811
-0.0790886
-0.0931921
-0.123278
-0.0583262
-0.0878752
-0.163426
-0.0813762
-0.100812
-0.138169
-0.181317
-0.0987005
-0.129135
-0.0846035
-0.0917921
-0.0865135
-0.0700076
-0.0677441
-0.0853957
-0.0812232
-0.0829034
-0.0849771
-0.0804583
-0.0665885
-0.067375
-0.0804031
-0.0792689
-0.076833
-0.0791503
-0.0789272
-0.0699139
-0.0757258
-0.0793592
-0.0829259
-0.0765402
-0.0807782
-0.0881735
-0.0767101
-0.0731934
-0.0846935
-0.0797533
-0.0795648
-0.0897446
-0.0893597
-0.0686781
-0.0514008
-0.0731538
-0.0499398
-0.0778847
-0.0878348
-0.0814401
-0.0469819
-0.046187
-0.0441295
-0.0372646
-0.0774644
-0.0793655
-0.0755151
-0.0508888
-0.0769763
-0.0385957
-0.0525508
-0.0897661
-0.0751976
-0.0763057
-0.0871452
-0.114141
-0.0597028
-0.0820807
-0.0958845
-0.131074
-0.12387
-0.115306
-0.0982357
-0.129134
-0.126032
-0.0839839
-0.120045
-0.111024
-0.0937999
-0.0865552
-0.123056
-0.112465
-0.0874745
-0.110665
-0.115679
-0.0859917
-0.0907879
-0.111045
-0.113958
-0.0992291
-0.117867
-0.119232
-0.0926034
-0.0841572
-0.113628
-0.0908765
-0.0962064
-0.117227
-0.10723
-0.0765148
-0.051691
-0.0790365
-0.052833
-0.0859727
-0.103836
-0.0950431
-0.0456792
-0.0375415
-0.0483029
-0.0435068
-0.0773153
-0.09226
-0.0841105
-0.0380614
-0.0487346
-0.0439146
-0.0507437
-0.0754374
-0.0818647
-0.0772532
-0.0548618
-0.0761274
-0.0551676
-0.073235
-0.145773
-0.161178
-0.163879
-0.148993
-0.14542
-0.159243
-0.162085
-0.12893
-0.163962
-0.16296
-0.142115
-0.129108
-0.161794
-0.159634
-0.128916
-0.162859
-0.156251
-0.127143
-0.127594
-0.158233
-0.146337
-0.127277
-0.152513
-0.139425
-0.125823
-0.0981089
-0.139339
-0.115128
-0.111389
-0.134614
-0.119429
-0.084985
-0.0564772
-0.105858
-0.0798235
-0.0973258
-0.114491
-0.101895
-0.0516387
-0.0470554
-0.0739269
-0.0669813
-0.0858847
-0.0983647
-0.0892071
-0.0477138
-0.0548054
-0.0676343
-0.0746106
-0.0781638
-0.0866198
-0.0808834
-0.0590725
-0.076152
-0.078403
-0.0909055
-0.0252584
-0.0186131
-0.0210174
-0.0175413
-0.0173036
-0.0163659
-0.0181902
-0.0248449
-0.0216558
-0.0272533
-0.0174942
-0.0194569
-0.0192388
-0.0246874
-0.0325824
-0.0308393
-0.0429481
-0.0202088
-0.0216825
-0.0265937
-0.0283107
-0.0336655
-0.0444983
-0.0395794
-0.0218674
-0.0244476
-0.0271773
-0.0215858
-0.0365984
-0.036618
-0.030882
-0.0268176
-0.0379367
-0.0203986
-0.0232971
-0.0616441
-0.0311662
-0.0422023
-0.0441736
-0.0647512
-0.0268306
-0.0441361
-0.105426
-0.049761
-0.0812048
-0.0729425
-0.0901332
-0.0513036
-0.0709727
-0.144377
-0.0926929
-0.121142
-0.0947159
-0.0949916
-0.0757836
-0.0793058
-0.0229497
-0.0416696
-0.0475743
-0.0190284
-0.0212051
-0.036498
-0.0424125
-0.0322214
-0.0505314
-0.0627715
-0.0228818
-0.0295617
-0.0445442
-0.0518245
-0.0516222
-0.0669041
-0.0749779
-0.0313838
-0.0320954
-0.053719
-0.0501368
-0.0441541
-0.0744025
-0.0568459
-0.0304487
-0.022555
-0.0453182
-0.0278251
-0.030933
-0.0490126
-0.0323272
-0.0205285
-0.0208657
-0.0235516
-0.0184501
-0.0378827
-0.0297144
-0.0303273
-0.0234762
-0.0380975
-0.019076
-0.02681
-0.0712965
-0.0332036
-0.04921
-0.0445984
-0.0639495
-0.0311149
-0.0472375
-0.109141
-0.0565571
-0.0809019
-0.0691376
-0.0752439
-0.0528154
-0.0642806
-0.0740065
-0.0913228
-0.109122
-0.0604696
-0.0610974
-0.0682148
-0.0760251
-0.0772876
-0.109961
-0.106001
-0.0616002
-0.0650172
-0.0781726
-0.080387
-0.0841119
-0.105205
-0.100323
-0.0656336
-0.056938
-0.0787409
-0.0626007
-0.0598677
-0.0938209
-0.0625444
-0.0502844
-0.0305331
-0.0545542
-0.032599
-0.0334692
-0.0532971
-0.0371787
-0.02572
-0.019115
-0.0279053
-0.0218782
-0.0300288
-0.0350631
-0.0347277
-0.0192641
-0.0251576
-0.0218215
-0.0254525
-0.0455975
-0.0361697
-0.0457021
-0.0287663
-0.0434081
-0.0277403
-0.0377061
-0.0756027
-0.0509363
-0.0714322
-0.0488728
-0.0610838
-0.041787
-0.0515702
-0.115514
-0.059619
-0.0923739
-0.064842
-0.0719147
-0.0461659
-0.0512717
-0.117417
-0.0970635
-0.0935749
-0.075252
-0.07958
-0.0524097
-0.0520312
-0.10715
-0.0892068
-0.075787
-0.0774821
-0.0612267
-0.0516968
-0.0497925
-0.0655652
-0.072676
-0.0653768
-0.0539838
-0.0341129
-0.0481067
-0.0427951
-0.0401777
-0.0628377
-0.0548217
-0.0297062
-0.0237431
-0.0408209
-0.0356157
-0.037775
-0.0530291
-0.0526571
-0.0236264
-0.0270418
-0.0349226
-0.0362345
-0.0486213
-0.0543009
-0.0633503
-0.0291523
-0.0378437
-0.0374541
-0.0418681
-0.0728684
-0.067758
-0.0816855
-0.041209
-0.0488678
-0.0432904
-0.0457305
-0.0120721
-0.0116569
-0.0133802
-0.0106637
-0.010938
-0.0113598
-0.0126605
-0.0142525
-0.0143621
-0.0185857
-0.0110871
-0.011841
-0.0132293
-0.0142019
-0.0152038
-0.0198717
-0.0199622
-0.0119916
-0.0130233
-0.0140712
-0.0127366
-0.0194143
-0.0186848
-0.0155231
-0.0141252
-0.0201504
-0.0123166
-0.0131143
-0.032835
-0.0156453
-0.0212886
-0.0230628
-0.0308302
-0.0143154
-0.0202878
-0.0537733
-0.0250563
-0.0406864
-0.0341739
-0.0410679
-0.0227756
-0.029762
-0.070161
-0.0466054
-0.0614732
-0.0424134
-0.0417898
-0.0314292
-0.0333785
-0.0661441
-0.0641739
-0.061623
-0.0408313
-0.0373648
-0.0330217
-0.0306669
-0.0165543
-0.0323178
-0.0397823
-0.0138033
-0.0154842
-0.029546
-0.033247
-0.0235043
-0.0422413
-0.0486331
-0.0161695
-0.0168153
-0.0336024
-0.031477
-0.0243645
-0.0493097
-0.0414075
-0.0163985
-0.0138879
-0.029333
-0.0200086
-0.0180864
-0.0198529
-0.0265361
-0.0176314
-0.0230681
-0.01608
-0.0206117
-0.0147727
-0.0158995
-0.0162577
-0.0144468
-0.0158301
-0.0152142
-0.0145089
-0.0358568
-0.0179619
-0.0260444
-0.0203869
-0.0268119
-0.0170882
-0.0211696
-0.0563354
-0.0299345
-0.0430705
-0.0285373
-0.0311656
-0.0224521
-0.0252092
-0.059202
-0.0469469
-0.0518326
-0.0311217
-0.0292068
-0.025593
-0.0250573
-0.0557818
-0.0546559
-0.0663241
-0.0404532
-0.0418804
-0.0406599
-0.0434477
-0.0600546
-0.0689339
-0.071061
-0.0415616
-0.037351
-0.0442148
-0.0408739
-0.0468517
-0.0686715
-0.0502933
-0.0343451
-0.0222706
-0.0374304
-0.0252064
-0.0263108
-0.0319189
-0.0411739
-0.029772
-0.0338916
-0.0257163
-0.0321666
-0.0163449
-0.0177633
-0.0201267
-0.0170197
-0.0183311
-0.0160385
-0.0172749
-0.0244535
-0.0193618
-0.0231984
-0.0168955
-0.0201211
-0.0157234
-0.0171678
-0.0395526
-0.0252415
-0.0328133
-0.021122
-0.0233987
-0.017652
-0.0189425
-0.0491197
-0.0353847
-0.0398185
-0.0237643
-0.0234999
-0.0192258
-0.0195022
-0.0606692
-0.0285315
-0.0394423
-0.0341425
-0.0378812
-0.0234741
-0.025101
-0.068185
-0.0408791
-0.0389586
-0.0391197
-0.0368816
-0.0252437
-0.0252246
-0.0479208
-0.0378023
-0.0346315
-0.0340797
-0.0247942
-0.0253197
-0.0245904
-0.0258656
-0.0337861
-0.0320323
-0.0221236
-0.0169127
-0.0239354
-0.0220451
-0.0203886
-0.0312816
-0.0289365
-0.0161219
-0.0156173
-0.0212738
-0.0193543
-0.0240322
-0.0287691
-0.0304298
-0.015825
-0.0168556
-0.0190798
-0.0190499
-0.0321992
-0.0314236
-0.0343986
-0.0172417
-0.0183183
-0.0191262
-0.019407
-0.0374415
-0.0351618
-0.0357248
-0.0185643
-0.0189068
-0.01948
-0.0197582
-0.00884948
-0.00893675
-0.00998878
-0.00842035
-0.00867369