/*--------------------------------*- C++ -*----------------------------------*\
  =========                 |
  \\      /  F ield         | OpenFOAM: The Open Source CFD Toolbox
   \\    /   O peration     | Website:  https://openfoam.org
    \\  /    A nd           | Version:  10
     \\/     M anipulation  |
\*---------------------------------------------------------------------------*/
FoamFile
{
    format      ascii;
    class       volVectorField;
    location    "6.5";
    object      U;
}
// * * * * * * * * * * * * * * * * * * * * * * * * * * * * * * * * * * * * * //

dimensions      [0 1 -1 0 0 0 0];

internalField   nonuniform List<vector> 
12920
(
(248.225 -2.90839 -51.7958)
(-1.28458 -16.1012 20.5748)
(108.086 -20.4315 0.342611)
(44.0691 -15.1277 6.41265)
(84.268 -13.5232 7.02138)
(50.1244 -9.99841 4.42868)
(72.2782 -10.8719 4.33394)
(58.8471 -12.7861 3.79976)
(69.5343 -13.7301 3.35772)
(66.5204 -15.5734 2.80009)
(73.4857 -15.6379 2.14326)
(75.5849 -18.2307 1.86214)
(83.2801 -18.3877 1.47321)
(89.0725 -21.2354 0.641401)
(102.345 -21.0744 -0.401529)
(113.901 -18.5354 -0.719481)
(121.058 -8.56628 0.343861)
(115.133 -0.541404 0.827751)
(106.22 6.05963 0.569434)
(91.4549 6.02702 -0.446335)
(85.838 -210.649 -203.301)
(-59.2089 -87.624 -29.1923)
(111.62 -58.9305 -12.2428)
(51.7034 -28.52 -1.11883)
(87.0709 -27.6557 4.01011)
(41.5959 -20.1636 1.87454)
(58.9609 -20.4573 1.77331)
(35.5646 -16.7269 0.492901)
(46.7029 -13.5088 -0.179807)
(36.0375 -10.5944 -0.991025)
(44.0401 -7.33976 -1.67874)
(41.5279 -5.25453 -2.26277)
(47.7685 -3.24853 -2.54923)
(48.4682 -1.55466 -3.01224)
(52.6159 -0.710292 -3.2721)
(54.0998 2.76259 -3.75417)
(60.4617 5.8145 -3.25667)
(65.283 7.72059 -2.30387)
(67.3129 7.99157 -0.672167)
(61.9957 5.49082 0.0686378)
(169.385 40.4226 -108.211)
(119.131 -30.3428 -17.9627)
(174.94 -21.3464 1.24714)
(128.912 -10.3574 6.69249)
(136.507 -3.85647 7.71614)
(84.9232 -4.04325 3.57179)
(76.6673 -7.5082 1.96054)
(42.3391 -7.26983 -0.202386)
(46.4589 -7.52148 -0.672752)
(30.9806 -6.35887 -0.972299)
(36.2612 -6.39211 -0.933588)
(29.9365 -5.85441 -0.876009)
(34.5516 -5.9629 -0.718442)
(32.6371 -5.53292 -0.594535)
(36.1286 -4.16062 -0.51038)
(35.5547 -1.9513 -0.359166)
(38.945 2.0397 -0.202709)
(39.7848 5.2408 0.104674)
(39.246 7.53693 0.380655)
(35.5912 6.39389 0.254732)
(125.489 -56.9132 71.4682)
(29.3206 -65.4475 -35.6272)
(145.017 -64.9362 -3.64521)
(57.7892 -44.8261 0.900856)
(85.8729 -18.7033 3.78016)
(30.9445 0.628827 0.711838)
(50.3945 5.74662 0.781863)
(15.9287 5.53202 -0.256344)
(32.2335 2.73161 -0.315937)
(14.4428 2.60219 -0.339974)
(25.1831 1.08828 -0.266758)
(17.3214 1.18504 -0.133752)
(23.8208 0.00664893 -0.137049)
(21.6336 0.462587 -0.168198)
(25.023 0.624645 -0.161897)
(23.824 2.39019 -0.177612)
(24.8998 3.72462 -0.0627448)
(25.3495 4.92125 0.0184341)
(25.0467 5.4662 0.0563)
(24.3085 4.15805 -0.0156131)
(175.696 -25.244 -5.88094)
(38.5119 7.25216 -4.28747)
(116.663 19.4772 -1.1991)
(51.0402 3.08475 -4.01694)
(81.4682 18.6147 -0.629544)
(45.602 13.2964 -0.927578)
(64.3973 9.36988 -0.281188)
(42.2917 8.69935 -0.670692)
(51.509 -0.852328 -0.4848)
(37.9965 0.757493 -0.422072)
(42.563 -5.38813 -0.0992249)
(31.939 -3.78438 0.139837)
(32.3687 -8.29986 0.514639)
(25.1727 -5.97676 0.451477)
(26.9053 -4.61969 0.457517)
(25.1718 -0.359719 0.0638496)
(26.4134 2.1184 0.0116105)
(26.4975 4.21447 -0.0133727)
(26.0499 4.81509 -0.102913)
(25.2941 4.12149 -0.146735)
(221.955 -53.3572 -64.4994)
(17.4766 -51.4647 -2.13559)
(114.433 -40.8858 14.2052)
(-7.79083 -28.5136 -2.05649)
(66.6092 -3.56213 1.91091)
(13.7281 13.7157 -2.02958)
(60.6808 13.6275 -1.56297)
(48.2943 17.1992 -1.76603)
(63.5237 12.6999 -1.21861)
(62.3406 11.4724 -1.00898)
(69.3135 7.76515 -0.39712)
(68.2571 8.37978 0.0872894)
(66.3644 3.84129 2.10911)
(49.3637 2.43172 2.92192)
(37.1692 -2.18158 1.7357)
(29.0992 2.00746 0.473962)
(27.4796 2.87058 0.00220447)
(27.4224 4.21777 -0.106148)
(26.6418 3.82339 -0.295854)
(27.3612 2.58233 -0.218845)
(185.521 158.966 134.874)
(97.2664 77.944 -22.6885)
(142.031 50.4121 -9.41048)
(55.3343 22.7361 -0.958809)
(85.3622 13.3187 3.96401)
(43.9294 17.0563 -0.042498)
(62.4513 -9.09037 0.104293)
(50.0464 11.7357 0.138779)
(58.2014 -5.16733 0.338253)
(56.4409 -0.596377 1.09252)
(64.5838 -8.08164 1.21504)
(66.4082 -3.55278 0.91217)
(69.145 -3.25052 0.669833)
(63.5799 4.27607 1.78858)
(49.9394 4.13022 2.36047)
(37.901 6.03617 1.20215)
(34.602 4.39046 0.288771)
(33.2714 4.6698 -0.0112288)
(32.5801 3.13429 -0.214151)
(34.5598 1.31865 -0.173558)
(73.9106 151.45 80.0592)
(-67.1115 85.8906 -14.836)
(102.192 37.0522 -13.4084)
(9.0602 2.10181 1.31164)
(79.6221 0.436401 4.94838)
(21.5456 29.2297 1.62386)
(48.7098 24.6831 -0.000288526)
(25.3452 11.3821 -0.317461)
(39.1538 17.8501 -0.550609)
(40.62 -1.85893 -0.107396)
(52.0725 -3.1581 0.393663)
(56.1501 -4.68307 0.908906)
(58.8981 2.27358 1.06389)
(54.206 6.94516 1.19937)
(39.1344 8.95827 1.01398)
(34.9187 9.24545 0.580598)
(33.7437 6.16696 -0.0116673)
(34.5522 4.92887 -0.0105257)
(35.0648 -0.105887 -0.0986107)
(36.182 -1.90443 -0.202599)
(232.575 105.98 184.501)
(34.1792 51.7382 36.5033)
(126.36 9.1174 25.306)
(64.0924 -9.87525 5.01131)
(98.327 -13.9109 3.40922)
(68.1711 19.4262 -2.06402)
(73.0133 26.424 1.49628)
(50.3803 10.8389 -0.972959)
(49.2847 9.50426 -1.09969)
(58.7971 -3.58637 -0.850012)
(65.0821 -10.7337 -0.0406022)
(67.6979 -11.2465 0.539754)
(69.4058 -2.50861 0.820792)
(60.0657 8.9036 1.1002)
(44.247 15.8563 0.722784)
(35.2732 8.34306 0.295318)
(35.2045 5.50394 -0.114473)
(37.2208 2.31345 -0.396477)
(37.7247 -1.75282 -0.420785)
(35.6443 -2.12738 -0.470338)
(112.969 171.932 178.546)
(-174.269 27.441 -4.77043)
(100.068 36.7483 2.52345)
(-34.4285 1.88978 3.56187)
(64.0486 22.2838 -0.632094)
(31.373 10.1489 -1.69594)
(66.1049 30.1663 -0.585712)
(82.0538 31.1244 -1.0663)
(86.1478 20.1698 -0.321363)
(72.0291 1.57916 0.362166)
(70.1293 -11.4585 -0.121176)
(64.3132 -8.3756 -0.374912)
(63.6958 -1.67854 -0.650146)
(69.3847 11.1303 -0.228805)
(59.6191 18.2884 0.802188)
(42.0893 11.9853 0.771623)
(41.9201 6.20359 -0.393835)
(43.3511 3.31198 -0.687351)
(42.7951 -0.237316 -0.593062)
(39.1174 -0.691141 -0.511402)
(111.929 -46.9609 -35.7835)
(-253.653 -18.7417 -8.88727)
(78.8517 -58.3755 -19.1315)
(-39.0229 -29.0936 0.361136)
(59.0622 -27.8402 3.7137)
(28.4301 2.23122 -0.101094)
(52.9523 8.93742 0.221318)
(70.0056 16.8191 0.411755)
(70.2505 14.9373 1.84173)
(62.4773 -1.70922 0.133909)
(55.9934 -3.34399 0.0877638)
(55.2656 2.55409 -0.217031)
(57.5396 6.02003 -0.589516)
(63.4548 11.6157 -0.794376)
(63.9525 22.4136 0.423079)
(48.2341 14.7756 0.69478)
(47.4867 8.3228 -0.210285)
(46.868 3.98092 -0.316964)
(45.3906 1.35452 -0.293283)
(40.9834 0.836071 -0.416687)
(105.239 -76.115 122.651)
(16.0604 -8.91564 -1.74559)
(92.3467 -21.4756 -3.75535)
(2.44128 -13.1148 0.913481)
(62.675 -7.18656 3.89838)
(-13.5543 -27.8957 0.430534)
(27.9944 -23.1331 0.415991)
(50.0332 -9.35602 1.0845)
(51.1532 3.0472 -0.155498)
(53.3999 1.86075 -0.049716)
(48.3359 3.36088 -0.263547)
(49.748 6.82737 -0.446558)
(51.5876 10.4676 -0.262505)
(53.4499 17.288 -0.512911)
(52.4352 24.1575 -0.0312965)
(45.9093 15.6013 0.424785)
(46.6647 9.98287 -0.0818952)
(45.4612 5.78856 -0.16212)
(43.6121 2.98766 -0.15478)
(38.1172 2.31335 -0.236643)
(73.0305 47.2968 141.574)
(-105.436 38.0968 -8.08188)
(104.278 -8.81889 -8.34258)
(-1.33311 -17.9843 -1.1119)
(90.6803 -21.7651 -1.2233)
(36.7244 -45.4727 -1.74462)
(63.0472 -19.8984 -1.84871)
(14.9291 -12.7935 0.40012)
(30.9711 -2.62007 0.0934286)
(22.7917 2.61067 0.0586905)
(36.2989 7.85946 -0.166984)
(34.5836 11.1123 -0.330066)
(39.5643 15.2059 -0.325663)
(39.1404 19.5192 -0.186977)
(41.4024 18.0999 0.531717)
(44.1125 12.8446 0.250867)
(45.1893 10.1852 -0.120362)
(44.2718 6.28115 -0.0396036)
(40.4787 5.01019 0.26486)
(32.8952 3.82783 0.101979)
(-85.6114 -98.7101 -14.2906)
(-170.755 -11.8579 -29.6031)
(81.1664 -34.9638 -20.8149)
(-1.85325 -18.0753 -0.286832)
(83.165 -8.03025 -2.04669)
(29.7442 -19.3634 -0.630358)
(52.7662 23.6282 -0.053988)
(24.456 -12.47 0.105209)
(35.9945 11.0528 0.438914)
(21.4402 -7.72943 0.584474)
(29.4415 8.26343 0.546552)
(24.7724 2.38099 0.619149)
(32.4912 12.3473 0.547691)
(33.018 9.5751 0.536536)
(38.3274 12.585 0.549271)
(38.9334 10.9211 0.182588)
(40.658 10.3493 0.13969)
(39.5453 8.74882 0.222542)
(36.0177 8.49057 0.477242)
(30.3075 5.82737 0.141913)
(-16.7749 -112.223 49.33)
(-112.552 -85.5579 -2.45176)
(82.9082 -52.1911 -5.20398)
(-53.0713 -36.3155 0.594864)
(67.0784 -24.521 -0.659281)
(-13.8262 -27.2179 -1.01878)
(46.4107 -0.390715 -0.707595)
(14.4602 -8.16818 0.0588305)
(33.6304 4.64616 -0.0886135)
(18.6494 -1.2974 -0.00436732)
(26.4189 5.51704 0.14796)
(20.1791 3.60332 0.162691)
(25.6809 8.08521 0.258246)
(24.6609 7.79784 0.256666)
(27.9483 9.7214 0.199381)
(28.1152 8.80014 0.180579)
(29.9729 9.01465 0.161108)
(29.9896 8.09987 0.154621)
(29.1811 7.82324 0.0901943)
(27.4334 5.34813 -0.079841)
(25.8646 -145.995 -32.9504)
(-118.1 -91.439 -23.989)
(106.726 -73.5716 -20.917)
(5.00972 -25.7383 -3.40609)
(80.4972 -8.72657 -1.27839)
(17.6539 -8.77913 -0.90625)
(51.407 12.4651 0.106196)
(16.9948 -4.56564 -0.668239)
(38.6875 11.048 -0.142215)
(19.6231 -1.85872 -0.407793)
(31.6334 7.35172 -0.0215964)
(22.0089 2.02452 -0.19339)
(28.8697 7.3912 0.044293)
(25.0744 5.67238 -0.0829161)
(29.1328 8.17035 0.0647564)
(27.976 7.45945 0.0270385)
(30.0929 8.06493 0.0464895)
(30.0277 7.46723 -0.00276537)
(29.6562 7.08681 -0.161038)
(28.2984 4.5841 -0.279288)
(-57.0369 1.46574 -128.778)
(-72.4843 -26.8496 -33.0087)
(82.2768 -9.76396 -12.1296)
(-76.3038 -11.3495 -4.42005)
(69.2295 0.392442 -6.05363)
(-31.28 -7.9019 1.64826)
(42.7336 4.84871 1.05539)
(-7.61803 0.290819 0.469819)
(32.2021 5.40366 -0.174857)
(9.92404 3.05798 -0.143649)
(29.0947 5.39607 -0.201459)
(19.74 4.7923 -0.229142)
(28.7894 6.43435 -0.131294)
(25.3771 6.55467 -0.184634)
(29.8973 7.37762 -0.149385)
(29.2037 7.42049 -0.170337)
(31.7156 7.75688 -0.173404)
(32.2821 7.59018 -0.232803)
(32.4321 7.24049 -0.434433)
(32.2525 4.92198 -0.390705)
(-127.127 79.2062 119.567)
(-133.353 -13.157 -43.9598)
(103.055 1.94789 -7.1297)
(-49.514 -3.29675 -1.01197)
(77.5024 -4.01088 -3.15074)
(6.4471 -3.56641 -0.52495)
(52.4108 0.973936 0.401766)
(15.972 -1.65501 -0.456114)
(40.8209 1.71063 -0.0503136)
(22.5346 -0.260678 -0.554423)
(36.3474 2.06658 -0.346332)
(28.4244 2.27043 -0.589284)
(36.0039 4.38882 -0.486968)
(33.1403 5.02804 -0.5989)
(37.5712 6.13884 -0.571614)
(37.5019 6.58571 -0.565643)
(40.5702 7.01571 -0.573511)
(42.2714 7.10296 -0.712452)
(44.2016 6.44051 -0.954517)
(46.884 3.64255 -0.637389)
(-89.1502 -70.6529 61.7796)
(-166.906 -46.9005 -9.96518)
(95.383 16.6944 -24.341)
(-39.9747 5.51211 -2.85577)
(70.81 -3.01711 -6.24491)
(-9.05562 8.50932 -1.03883)
(46.0371 1.58801 -2.12514)
(2.0567 7.16517 -1.61868)
(37.2229 3.36 -2.3248)
(19.5299 6.40551 -1.62388)
(39.1556 4.66849 -1.07002)
(34.3996 6.58102 -0.743753)
(43.6366 6.88752 -0.725646)
(42.296 7.68503 -0.823711)
(47.0892 7.69205 -0.784933)
(48.1339 7.7331 -0.965466)
(52.5892 7.46296 -0.956246)
(55.5043 6.84405 -1.11147)
(58.9096 4.47649 -1.17337)
(61.0767 2.66695 -0.439204)
(337.485 29.0357 -176.498)
(-117.297 -48.7472 12.0495)
(166.907 38.6076 -15.4402)
(51.6165 23.4426 0.446878)
(119.716 22.4209 0.723317)
(92.2497 23.3196 3.52403)
(114.546 16.4238 3.17264)
(99.417 15.0137 2.44775)
(110.282 5.48398 2.12684)
(98.7219 2.51049 2.49949)
(95.8601 -4.00147 3.09321)
(79.5716 0.415623 2.9169)
(77.6813 4.10846 2.44258)
(73.2673 7.02362 1.97427)
(75.7683 7.59719 1.58277)
(77.1366 8.04188 1.32874)
(82.0209 7.31392 0.953227)
(86.6466 6.35045 0.536569)
(90.4234 4.36196 -0.269307)
(93.6288 1.56813 -0.430786)
(32.0377 89.5424 -63.5823)
(-11.854 2.61216 46.8409)
(75.0617 -5.27698 21.5812)
(19.222 -5.22229 13.931)
(74.7968 -5.19897 13.6105)
(47.3521 -2.88012 7.65368)
(73.6504 -3.65079 8.13965)
(64.8655 -5.21734 6.84286)
(77.0477 -5.64155 6.04571)
(76.0998 -6.77238 5.1756)
(83.2313 -6.58551 4.17111)
(85.6611 -7.91455 3.20781)
(93.5681 -7.71692 2.25594)
(98.3209 -8.95689 0.563535)
(107.244 -7.10438 -0.503572)
(110.522 -4.31966 -0.584929)
(110.862 1.49143 0.507867)
(102.838 6.49837 1.37189)
(94.3451 7.9658 1.49569)
(81.362 3.78851 0.0827905)
(227.911 -13.0039 125.65)
(-65.2439 -39.1556 9.24832)
(85.1735 -30.5876 -10.5185)
(8.65649 -19.552 -3.34928)
(67.5784 -26.4365 5.60115)
(27.1823 -18.1838 2.34033)
(52.2453 -16.1565 3.03285)
(32.0201 -11.0444 0.543656)
(44.7783 -7.49763 -0.646051)
(35.7952 -5.5104 -2.31668)
(43.4425 -3.48003 -3.42761)
(40.4464 -3.0554 -4.46553)
(45.672 -1.86589 -4.81489)
(45.2949 -1.66687 -5.4526)
(48.637 -0.501972 -5.53215)
(48.6415 1.71843 -6.08596)
(51.6457 4.54082 -5.19244)
(52.2826 6.01741 -3.27508)
(52.029 5.87678 -0.290598)
(46.7556 3.28894 0.264333)
(203.01 77.5523 18.5034)
(104.653 5.88397 -4.06691)
(139.148 3.55235 1.04894)
(93.9634 -0.612462 5.51757)
(112.476 0.194978 12.7092)
(59.9163 -0.427164 6.83327)
(61.4545 -2.64326 5.39041)
(29.8755 -2.22797 0.393468)
(37.3551 -3.20816 -0.572346)
(22.1427 -2.61931 -1.5845)
(28.9582 -3.40442 -1.64139)
(22.2446 -3.4226 -1.66577)
(27.2066 -3.97544 -1.41543)
(24.5697 -3.91397 -1.28094)
(27.6814 -2.71271 -1.08175)
(26.639 -1.06231 -0.737898)
(28.8666 1.82383 -0.361493)
(29.2456 4.22535 0.243221)
(29.0429 5.95069 0.615758)
(26.4371 4.56754 0.0945764)
(323.782 -93.711 -49.1841)
(-56.2812 -30.46 -11.5439)
(123.259 -25.4853 -4.7117)
(28.5558 -10.4998 0.289315)
(72.5489 4.73414 6.9495)
(13.2338 10.8635 1.48587)
(40.6579 7.5881 1.67542)
(6.18633 5.49696 -0.614926)
(25.5309 1.51907 -0.785431)
(7.08344 1.41132 -0.860198)
(18.8542 -0.578193 -0.673421)
(10.1102 -0.389402 -0.463592)
(17.0003 -1.604 -0.247612)
(14.0598 -0.853865 -0.331856)
(17.5555 -0.524176 -0.26161)
(16.0783 1.33576 -0.383882)
(17.4274 2.62749 -0.216946)
(18.0195 3.82894 -0.0553758)
(18.0546 4.31562 -0.0112816)
(17.755 3.18854 -0.2888)
(143.81 -160.369 60.705)
(22.0967 -8.33809 -1.4382)
(104.507 27.8081 10.3516)
(23.7177 15.5943 -0.216515)
(65.6218 30.4375 3.28248)
(23.3682 18.7571 -0.0989233)
(48.7925 10.5714 0.466297)
(23.4763 10.5586 -0.845085)
(36.3868 0.162083 -0.572093)
(21.1731 3.39114 -0.505431)
(28.436 -3.73955 0.0045748)
(18.0485 -1.44666 0.314916)
(21.4131 -6.43838 0.863277)
(15.6852 -4.12787 0.703365)
(18.5155 -3.68204 0.827389)
(16.9041 -0.27096 0.126504)
(18.2761 1.21609 0.0598908)
(18.5709 3.00069 -0.0299559)
(18.4018 3.33669 -0.221128)
(17.9354 2.82419 -0.470131)
(130.094 -172.73 -5.62322)
(-126.239 -60.322 -11.4307)
(96.8598 -16.1375 9.08987)
(-52.6788 -10.3172 -4.00676)
(58.3086 9.69179 0.517135)
(-6.46918 18.0308 -2.53042)
(45.9427 9.90196 -1.70891)
(25.5331 13.6867 -2.16601)
(41.1222 6.52289 -1.52369)
(35.3543 7.06674 -1.32452)
(41.8921 2.91347 -0.411031)
(37.9298 4.41517 0.571109)
(37.4146 0.717769 3.41162)
(29.2333 1.09206 4.26295)
(24.6652 -1.99325 2.76061)
(20.0529 1.1362 0.81355)
(19.3767 1.54196 0.0468491)
(19.6197 2.73298 -0.141378)
(19.1265 2.18711 -0.459691)
(19.2802 1.70577 -0.515855)
(231.206 28.917 -90.4471)
(38.6891 -6.94081 -7.74346)
(114.857 -7.86898 8.71634)
(8.62122 0.995272 2.00829)
(68.7531 7.70204 5.67748)
(20.8868 15.7429 -0.265641)
(43.57 -13.4276 0.506251)
(27.2764 12.5266 0.248185)
(38.1004 -6.0946 0.377071)
(35.7893 2.3968 1.28984)
(43.593 -4.77006 1.32361)
(41.8452 1.80651 1.22302)
(42.1788 0.742498 1.46899)
(35.2856 6.89822 3.08808)
(31.1229 4.0855 3.52383)
(25.7554 4.3275 1.88246)
(24.8508 2.25342 0.470144)
(24.5261 2.39824 0.0211955)
(24.2706 0.799963 -0.349521)
(24.5019 0.51494 -0.485356)
(206.554 -34.1984 -56.5395)
(25.3511 -55.642 -6.27792)
(95.759 -1.3041 9.09123)
(-18.1271 2.08357 5.27414)
(66.1062 7.12579 8.98108)
(1.47552 34.3776 2.45782)
(33.0434 19.2677 2.74934)
(14.1995 12.3671 -1.229)
(26.9627 11.0781 -0.514192)
(28.3094 -0.653402 -0.436755)
(37.954 2.60105 0.302573)
(38.5242 3.04916 0.306216)
(39.6176 8.11572 0.323838)
(34.189 10.1867 1.19666)
(25.3792 6.39767 1.35614)
(25.4093 6.21497 0.674251)
(25.3539 3.08159 -0.024098)
(26.5473 2.12261 -0.078794)
(26.7259 -1.00423 -0.253528)
(25.8879 -0.875247 -0.53734)
(150.11 -134.69 52.2393)
(-135.665 -56.7804 -0.886124)
(62.9777 -24.6988 1.55963)
(-11.305 -14.4944 -3.11573)
(51.6334 -4.49528 0.999052)
(36.0956 26.4071 1.18538)
(54.5053 29.0316 4.56371)
(34.7531 8.36514 -1.53573)
(37.388 2.88977 -3.31001)
(41.4971 -6.56711 -2.52374)
(45.7369 -5.12424 -1.17855)
(46.6895 0.503588 -0.763989)
(43.8466 9.11017 0.150747)
(36.4636 13.5905 2.05457)
(29.613 12.7621 1.40863)
(26.9069 4.8151 -0.196119)
(28.0477 1.8207 -0.408808)
(29.0498 0.0174766 -0.491084)
(28.3862 -1.71598 -0.581224)
(25.474 -1.09011 -0.888868)
(227.568 347.505 -66.6668)
(-175.408 20.9791 2.76811)
(65.2399 18.4322 -16.2558)
(-71.3864 -2.68663 5.70891)
(48.1615 12.141 -4.13793)
(5.29281 3.7822 -8.69119)
(44.2546 19.911 -4.56883)
(56.7778 14.2616 -2.17857)
(56.2756 1.69215 -0.481541)
(52.938 -8.95119 0.731588)
(50.3813 -7.11683 -1.09235)
(47.8071 0.297676 -2.40347)
(46.4413 8.91295 -2.03642)
(42.603 16.5203 0.571239)
(35.7746 13.5733 1.90335)
(32.9123 6.34193 -0.321515)
(33.521 2.06395 -0.937452)
(33.026 0.304526 -0.846691)
(31.2997 -1.10844 -0.691745)
(27.0594 -0.51263 -0.937092)
(107.886 -41.9798 34.3104)
(-164.031 -19.1388 18.2622)
(50.9567 -52.594 -7.63505)
(-64.8297 -28.8007 1.29419)
(40.5477 -29.5486 3.71023)
(15.8424 -5.13267 1.83418)
(45.6106 -3.57543 4.78)
(57.5904 2.95931 3.2153)
(59.3924 2.70221 4.99911)
(52.3956 -4.39073 2.44776)
(46.896 -0.552389 -0.0641408)
(46.3113 5.30615 -2.14281)
(46.7182 10.459 -3.16828)
(46.2111 16.9675 -1.57708)
(40.0881 17.736 1.82365)
(37.3833 6.71576 -0.110354)
(36.8053 3.28336 -0.522677)
(35.0648 0.584167 -0.357332)
(32.8911 -0.0517135 -0.347042)
(28.2149 0.369971 -0.776385)
(136.952 -15.1903 -104.074)
(-23.0761 -25.1469 -27.7582)
(79.4787 -27.1921 -16.5176)
(-21.2072 -13.5593 -1.26633)
(51.8159 -7.8496 2.18393)
(-9.613 -28.7662 0.476455)
(28.9568 -22.11 6.97709)
(46.2046 -9.92995 6.36687)
(48.0085 1.58645 4.07844)
(41.7923 1.98889 0.843235)
(37.9237 4.14313 -1.70483)
(37.5969 8.11198 -2.36735)
(39.6577 12.4826 -2.01225)
(40.4831 17.0115 -1.84106)
(38.0024 17.2526 0.540706)
(35.502 8.46518 0.167349)
(35.5886 5.0128 -0.138348)
(33.2976 2.49062 -0.0991143)
(30.9485 1.59583 -0.106327)
(26.0668 1.49183 -0.536412)
(3.12077 176.033 300.107)
(-75.039 14.5812 -30.7285)
(85.3814 -17.0074 -5.14921)
(-10.121 -17.6493 -0.69479)
(74.8832 -20.7285 0.852118)
(13.7373 -43.9307 -1.66958)
(42.8155 -14.7727 0.883562)
(3.94994 -10.0338 1.49977)
(23.8698 -0.35188 0.483737)
(14.6816 1.97484 -0.333391)
(27.5396 6.12416 -0.755418)
(24.7366 8.14011 -0.896517)
(30.4452 11.3543 -0.586264)
(29.688 12.8022 0.192526)
(31.1507 10.9446 0.398759)
(33.1827 7.1631 0.262762)
(32.626 5.87089 0.110132)
(30.6594 3.39626 0.168802)
(27.6079 3.19166 0.385516)
(22.7795 2.54068 -0.184865)
(21.1076 -155.021 -23.0684)
(-38.2175 -31.8207 -14.5709)
(78.4258 -30.77 -14.332)
(-4.00692 -13.311 1.55606)
(70.9224 -5.00193 -1.42024)
(7.58195 -18.4581 -0.231965)
(34.8806 27.548 0.113142)
(1.56151 -17.4484 0.27157)
(19.939 11.9451 0.658214)
(6.58297 -9.72511 0.82996)
(18.6465 8.05521 0.536429)
(14.2817 -0.301461 0.741036)
(22.7455 9.33907 0.659248)
(22.3422 5.1761 0.739306)
(27.1503 8.8832 0.866013)
(26.5634 6.99026 0.470764)
(27.5373 7.06191 0.420289)
(26.1893 5.69799 0.344204)
(24.2652 5.69146 0.510158)
(20.9165 3.86868 -0.154854)
(-2.86633 -54.1368 95.7614)
(-104.866 -71.3999 -8.97248)
(61.504 -42.2198 -11.6354)
(-64.7393 -29.7135 1.32595)
(56.3937 -18.6512 -2.47325)
(-29.7385 -23.4837 -0.688773)
(35.5452 5.30108 -1.09161)
(-0.832334 -8.50991 0.331829)
(21.8871 5.38466 0.165994)
(5.74721 -2.90538 0.0276737)
(16.3588 4.95587 0.311531)
(10.2375 1.88253 0.248947)
(16.8386 6.32055 0.363618)
(15.5689 5.284 0.426518)
(18.9954 7.08801 0.38371)
(18.9575 5.981 0.345159)
(20.836 6.3686 0.258621)
(20.9778 5.47519 0.136)
(20.5376 5.41458 -0.0630334)
(19.1701 3.50093 -0.436847)
(119.019 19.8476 -119.49)
(-23.9486 -66.9773 -35.1207)
(92.8707 -71.1553 -28.8809)
(-17.3284 -24.4479 -4.6152)
(65.7813 -11.2493 -3.61449)
(-7.0374 -11.5965 -1.49414)
(40.0184 11.8139 -0.0510051)
(0.290131 -8.84017 -0.756877)
(27.6052 8.94109 0.0823174)
(6.25716 -5.62865 -0.43804)
(21.3374 5.05656 0.197034)
(11.395 -1.00675 -0.25401)
(19.8612 4.96542 0.129866)
(15.9972 2.88328 -0.109342)
(20.6867 5.57146 0.133975)
(19.4176 4.83197 0.0116913)
(21.8046 5.60779 0.0108755)
(21.7216 5.07332 -0.159423)
(21.5431 4.81533 -0.457297)
(20.1167 2.93307 -0.733008)
(161.476 -64.9245 -41.5518)
(52.9889 -35.8987 -65.8621)
(82.7112 -7.7391 -24.7693)
(-52.6747 -12.9478 -8.06712)
(48.1928 -2.87907 -9.21229)
(-43.626 -10.1957 3.03031)
(33.9839 1.77521 0.606709)
(-15.3697 -3.5952 1.21121)
(25.2123 1.73375 -0.30025)
(2.0428 -0.95409 -0.170403)
(21.9339 1.75462 -0.21964)
(12.0869 1.22806 -0.392593)
(21.7161 3.11371 -0.23358)
(18.0741 3.43158 -0.373498)
(22.8818 4.48624 -0.264519)
(22.0237 4.73049 -0.321193)
(24.6656 5.15791 -0.329413)
(25.0678 5.11687 -0.503878)
(25.1589 4.61764 -0.815218)
(24.103 2.90114 -0.881487)
(321.832 -214.51 4.92331)
(-103.423 -4.85965 -38.1604)
(98.6875 0.293076 -27.0532)
(-47.9956 -2.91602 -1.95169)
(64.8923 -7.07667 -6.76704)
(-10.077 -6.89085 -0.735964)
(43.7126 -3.0562 0.208947)
(5.32354 -5.21508 -0.818521)
(33.6457 -2.26324 -0.00863209)
(14.6827 -4.35376 -0.923973)
(29.7862 -1.92568 -0.545444)
(21.7657 -1.53093 -1.09007)
(29.914 0.655022 -0.880363)
(26.9383 1.43773 -1.05089)
(31.4957 2.62783 -0.884941)
(31.0868 3.23453 -0.890183)
(33.9691 3.7352 -0.876639)
(34.9431 3.95617 -1.10597)
(35.672 3.3066 -1.37836)
(35.0491 1.89619 -1.0837)
(-24.5937 -9.19902 -27.2951)
(-65.4654 38.7256 -48.8558)
(82.949 18.9326 -39.8471)
(-13.5811 2.23551 -3.30812)
(64.6712 -7.78464 -9.87772)
(-1.51897 1.35578 -2.87648)
(47.2987 -4.90244 -4.9924)
(10.9683 0.770252 -3.50841)
(41.2185 -3.05036 -3.2357)
(23.962 0.204876 -1.77156)
(40.0121 -1.57604 -0.892906)
(33.3338 0.500274 -1.26746)
(41.2855 0.861545 -1.50101)
(39.2873 1.95735 -1.86165)
(43.6225 2.01566 -1.76985)
(43.9489 2.76178 -1.98296)
(47.1244 2.73842 -1.84653)
(48.6372 2.62398 -1.91051)
(49.5496 1.54679 -1.81634)
(48.6674 0.958982 -0.932476)
(57.3739 55.5329 -145.429)
(-87.3055 -34.7806 35.8407)
(144.368 19.4996 -20.3007)
(60.0913 2.19581 4.58333)
(116.572 3.64389 2.49917)
(93.5487 8.59011 5.57209)
(115.263 3.1556 5.17947)
(101.766 2.42255 4.36226)
(109.151 -5.76395 4.49998)
(94.5653 -6.65664 4.62865)
(92.0014 -7.38568 6.51852)
(79.0361 -2.04054 6.16492)
(79.1997 0.60977 5.19342)
(75.7743 2.68958 4.1126)
(78.1205 3.05101 3.40189)
(78.8435 3.27444 2.32663)
(82.6102 2.76273 1.42996)
(85.3058 1.83232 0.549999)
(86.2658 0.78992 -0.56119)
(84.9275 0.716541 -0.400673)
(-64.708 146.638 -61.828)
(-113.737 0.189796 1.88074)
(64.0575 0.399279 7.42399)
(-6.75556 4.22914 13.095)
(66.7383 1.49631 15.0691)
(43.0453 1.68595 8.57025)
(73.982 0.238267 8.80962)
(68.7795 -0.741695 6.6239)
(82.8217 0.0321539 5.68797)
(83.0643 0.421732 4.20547)
(90.5101 1.53209 3.07713)
(91.9198 1.88936 1.61668)
(96.9311 2.59831 0.694061)
(97.7037 2.58159 -0.74775)
(98.2978 4.04514 -1.96535)
(95.1565 5.72666 -1.28806)
(89.7492 9.53305 1.25702)
(79.81 9.54828 1.62952)
(73.9526 6.14533 1.82806)
(65.6712 1.85911 0.269323)
(46.6161 -143.24 100.572)
(-166.392 -24.5509 -7.38099)
(70.6495 -18.0032 -38.1549)
(-16.7767 -12.6949 -5.33681)
(54.9297 -21.3703 2.95451)
(15.8943 -13.2795 2.25329)
(46.585 -11.2173 2.85172)
(27.7758 -6.61394 0.359257)
(42.334 -3.36036 -0.897001)
(33.4327 -2.13864 -2.81833)
(41.1955 -0.529386 -3.98598)
(37.0476 -0.894441 -5.13455)
(41.4586 -0.0558391 -5.51374)
(39.3755 -0.331193 -6.28247)
(41.454 0.852364 -6.05297)
(39.5523 1.94286 -6.20541)
(39.817 4.21995 -4.33166)
(37.8404 4.29359 -1.99228)
(36.4018 3.83548 0.664079)
(32.5264 2.03369 0.136033)
(208.225 -145.627 -46.4486)
(43.1635 -65.0583 -4.25678)
(102.945 -13.6116 2.78491)
(29.736 1.38151 5.23688)
(71.9274 4.41581 14.9765)
(26.6655 3.28885 7.16479)
(47.1823 0.766473 5.42165)
(19.1844 1.02173 0.151449)
(31.025 -0.556629 -0.578154)
(15.2591 -0.167011 -1.63459)
(23.2047 -1.43229 -1.61818)
(15.2892 -1.62504 -1.71122)
(20.4428 -2.50094 -1.52097)
(16.5595 -2.54448 -1.45111)
(19.4423 -1.59832 -1.15538)
(17.534 -0.223788 -0.773585)
(19.237 2.08967 -0.196418)
(19.3394 3.51912 0.33793)
(19.2152 4.69645 0.541622)
(17.6084 3.22342 -0.371019)
(236.33 -38.2636 -176.712)
(16.3161 -20.5857 -27.1312)
(103.384 -5.66967 -18.5735)
(-0.837761 5.98052 -0.966207)
(57.0602 12.6903 6.69975)
(-2.5872 12.497 1.28703)
(33.1759 6.98094 1.36325)
(-1.79235 5.57656 -0.762528)
(19.9668 1.12326 -0.878118)
(0.346552 1.32693 -0.863636)
(13.259 -1.14498 -0.7326)
(3.41578 -0.763632 -0.51149)
(10.865 -2.09263 -0.26817)
(7.05697 -1.21768 -0.379183)
(10.7788 -0.970022 -0.326412)
(8.86909 0.749084 -0.424336)
(10.4666 1.88344 -0.19051)
(10.9522 2.89247 0.00775275)
(11.0649 3.25818 -0.0285526)
(11.0838 2.33955 -0.612212)
(69.7077 -29.7187 95.2355)
(-71.4441 -1.24379 -3.877)
(71.3565 38.9916 14.1108)
(-10.2396 20.223 0.962292)
(52.9298 33.4015 4.29955)
(6.69215 19.0864 0.237726)
(38.6949 9.42876 0.545565)
(10.4509 10.9407 -0.8587)
(26.1614 -0.169082 -0.713834)
(8.74937 4.46768 -0.514958)
(17.8997 -3.74749 -0.11651)
(7.15427 -0.589808 0.220163)
(12.6215 -5.67487 0.720976)
(7.48277 -2.92225 0.627972)
(11.2302 -3.19446 0.709498)
(9.58554 -0.291177 0.116693)
(11.2781 0.618826 0.0678831)
(11.5364 2.14836 0.0231168)
(11.4348 2.30775 -0.203918)
(11.0873 2.02389 -0.791192)
(45.382 -116.301 97.0764)
(-144.595 -45.5565 -16.9874)
(79.0753 -2.4819 9.35532)
(-63.8486 -1.13283 0.838673)
(50.1029 14.8124 1.12792)
(-21.331 19.1085 -1.18555)
(36.1146 7.04213 -1.25517)
(9.43669 12.4622 -1.96788)
(26.4464 3.59313 -1.5398)
(16.3058 6.18201 -1.32869)
(22.675 0.811899 -0.615199)
(15.5739 3.03091 0.419162)
(16.789 -0.626771 2.7073)
(13.2303 0.537549 3.28037)
(13.7416 -1.46438 2.22664)
(11.9062 0.607387 0.744357)
(12.0866 0.658361 0.0499832)
(12.4644 1.83607 -0.104931)
(12.0009 1.24574 -0.429766)
(11.9004 1.24778 -0.853019)
(127.496 -100.548 -105.224)
(-38.7348 -18.5435 5.23787)
(86.6124 -1.15795 13.2565)
(-22.3495 1.52531 5.29771)
(57.3656 10.4082 5.78927)
(3.04229 16.0567 0.322316)
(30.623 -15.2985 0.377287)
(10.7324 14.9199 0.197779)
(23.7656 -6.33101 0.24498)
(18.3669 5.70057 1.09094)
(25.6453 -3.16 0.875319)
(20.47 5.00769 1.01047)
(21.2001 1.1368 1.50987)
(15.7114 6.15639 2.5774)
(16.7151 2.63781 2.82721)
(15.7674 2.64716 1.55814)
(16.3209 0.886566 0.412908)
(16.4695 1.23463 0.000685788)
(16.1644 -0.0416108 -0.364931)
(15.6655 0.389567 -0.916518)
(95.3851 -74.8507 -2.73088)
(-101.842 -18.7432 16.3523)
(81.2559 17.5125 24.3331)
(-55.6179 10.5312 7.80466)
(55.8596 11.4623 8.08927)
(-15.7373 36.4069 1.94856)
(19.6357 13.7224 2.0168)
(3.24262 14.8181 -1.08593)
(15.6739 7.44797 -1.01704)
(15.6208 2.55932 -0.37685)
(23.7206 5.64118 -0.0750761)
(21.3757 7.08701 -0.00724695)
(21.4788 9.95515 0.40472)
(17.3057 10.5028 1.50695)
(15.2432 3.79327 1.18212)
(16.8663 4.0403 0.499812)
(17.3042 1.3719 -0.0223546)
(18.3681 0.976729 -0.119668)
(17.9501 -0.876937 -0.269482)
(16.5834 -0.222638 -0.96164)
(170.232 -126.904 -109.802)
(-76.103 -93.1374 9.48983)
(41.6881 -43.4222 7.13824)
(-37.3971 -11.6582 1.93226)
(31.7962 -2.12525 0.658952)
(9.61433 33.2379 0.578284)
(28.4402 24.5252 3.18736)
(17.4411 2.82074 -2.53989)
(24.5185 -0.975465 -2.97937)
(26.4134 -4.45448 -2.33422)
(30.1214 0.837944 -0.81587)
(28.1245 6.29302 -0.769263)
(24.7774 11.8622 0.707998)
(20.2811 12.3473 1.90259)
(19.7172 9.38257 1.02782)
(18.8034 2.3299 -0.152621)
(19.596 0.154011 -0.308568)
(20.0644 -0.522485 -0.386102)
(19.0168 -1.31465 -0.528955)
(16.242 -0.395418 -1.28825)
(42.4658 230.548 -165.589)
(-100.342 -0.555803 -3.01092)
(37.4559 20.9276 -21.1516)
(-74.0707 -4.39743 4.37233)
(32.6624 8.81706 -5.90161)
(-12.0362 5.73689 -6.4004)
(26.1572 16.9512 -3.88794)
(35.9284 1.75446 -1.91387)
(36.4883 -7.48231 -0.0537544)
(36.4736 -8.96524 0.189341)
(35.1913 -2.44982 -1.67263)
(32.6523 5.55863 -2.32805)
(29.1983 11.833 -1.17994)
(25.4068 13.068 0.992195)
(23.7142 8.48257 1.18898)
(23.5517 2.75915 -0.384344)
(23.0862 0.135113 -0.688529)
(22.2015 -0.424317 -0.578028)
(20.4371 -0.988022 -0.545823)
(16.8571 -0.151811 -1.36225)
(31.7828 25.1263 85.7682)
(-225.521 -33.2427 18.2927)
(39.9871 -52.6609 -3.54208)
(-81.0635 -27.5465 0.484852)
(27.5002 -28.6093 2.19641)
(-4.06184 -7.77333 1.24438)
(25.9955 -8.04441 5.63942)
(38.7656 -6.55784 4.38745)
(40.1782 -6.20276 5.03239)
(38.351 -4.23589 4.21635)
(36.7231 1.15682 -1.55598)
(33.3755 7.24886 -2.73698)
(30.4619 11.9839 -2.94825)
(29.207 14.4948 -0.680203)
(27.0816 10.2579 1.25646)
(25.7446 2.1006 0.017663)
(24.8121 0.641712 -0.188059)
(23.2879 -0.66207 -0.187913)
(21.3325 -0.381345 -0.278242)
(17.5464 0.219554 -1.20566)
(311.872 79.6094 -142.928)
(60.8113 -41.0763 -10.5646)
(79.8485 -33.8259 -13.9438)
(-22.9777 -15.383 -0.19134)
(40.482 -9.15426 0.603045)
(-14.0626 -30.438 1.25859)
(22.3284 -22.6218 6.40849)
(32.2078 -7.42998 6.01535)
(33.551 -0.103105 4.38772)
(30.1876 2.42088 0.352511)
(28.0068 5.03902 -2.27844)
(26.478 8.17473 -2.77189)
(26.6396 10.5219 -2.08932)
(26.685 12.4238 -0.914473)
(27.4187 9.13366 0.766922)
(24.2321 4.07592 0.427188)
(23.9759 2.16228 0.0993313)
(21.8534 0.878807 -0.0110982)
(19.8571 0.878329 -0.113404)
(16.1406 0.893261 -1.01266)
(167.514 198.161 245.516)
(-69.632 2.81284 -33.8071)
(88.635 -24.7695 -3.66268)
(-24.984 -19.2214 -2.72862)
(62.653 -19.7976 2.24401)
(-4.03494 -42.3435 -1.80986)
(27.2188 -8.77811 1.99187)
(-4.35897 -8.18391 1.57814)
(16.8343 1.67045 0.234712)
(7.02673 1.26614 -0.546316)
(19.6833 4.8594 -0.843117)
(15.8186 5.46673 -0.813976)
(21.8983 7.52245 -0.275309)
(20.588 7.3557 0.50303)
(20.834 6.61495 0.749341)
(22.1361 3.56067 0.446332)
(21.203 3.27673 0.245529)
(19.4837 1.83718 0.117815)
(17.2257 2.12146 0.239125)
(14.039 1.59456 -0.76534)
(87.5239 -65.7406 -25.6096)
(-11.6919 -39.417 -29.4163)
(75.1652 -37.4343 -8.6804)
(-16.5532 -11.9466 1.46492)
(61.2412 -4.97604 0.178551)
(-9.03881 -17.4729 0.462644)
(23.5836 28.9464 -0.611736)
(-12.1942 -20.563 0.164868)
(10.4012 12.384 0.202171)
(-3.28811 -11.2858 0.837826)