/*--------------------------------*- C++ -*----------------------------------*\
  =========                 |
  \\      /  F ield         | OpenFOAM: The Open Source CFD Toolbox
   \\    /   O peration     | Website:  https://openfoam.org
    \\  /    A nd           | Version:  10
     \\/     M anipulation  |
\*---------------------------------------------------------------------------*/
FoamFile
{
    format      ascii;
    class       volVectorField;
    location    "6.5";
    object      U_0;
}
// * * * * * * * * * * * * * * * * * * * * * * * * * * * * * * * * * * * * * //

dimensions      [0 1 -1 0 0 0 0];

internalField   nonuniform List<vector> 
12920
(
(273.46 -0.752419 -33.3589)
(48.5557 -16.4794 23.1074)
(153.217 -21.4809 -0.447844)
(81.6179 -13.6809 6.6936)
(117.999 -12.6602 7.1872)
(81.0714 -9.21203 4.54578)
(100.024 -10.079 4.3543)
(84.6849 -12.0842 3.79011)
(93.3236 -13.1289 3.32469)
(89.0158 -15.0294 2.75771)
(94.6829 -15.181 2.10069)
(95.7902 -17.8285 1.81934)
(102.649 -18.0543 1.4258)
(107.778 -20.9623 0.572957)
(120.56 -20.8041 -0.463693)
(131.628 -18.1893 -0.737782)
(138.083 -8.15536 0.365461)
(131.196 -0.148995 0.857525)
(121.867 6.33295 0.610965)
(111.939 6.2226 -0.352212)
(110.358 -206.051 -203.242)
(-6.59844 -87.8532 -29.8155)
(158.489 -56.4428 -12.592)
(91.1572 -23.6629 -0.991682)
(120.037 -23.2904 4.05037)
(72.311 -16.6278 2.06052)
(86.5338 -17.1627 1.82571)
(61.1296 -13.9939 0.519715)
(70.2798 -11.1758 -0.198953)
(58.334 -8.56432 -1.02804)
(65.0344 -5.64769 -1.73901)
(61.5344 -3.77509 -2.32298)
(66.9282 -2.00588 -2.61147)
(66.9194 -0.473858 -3.06862)
(70.5117 0.234824 -3.32612)
(71.6122 3.63 -3.78249)
(77.4935 6.60236 -3.26765)
(81.4782 8.41803 -2.25496)
(83.074 8.58773 -0.58992)
(82.1041 5.96735 0.246318)
(199.759 42.6739 -84.0396)
(175.255 -16.8727 -15.4027)
(224.39 -10.1263 1.32175)
(168.178 0.0295625 6.99512)
(168.965 5.12534 7.95168)
(114.192 3.21033 3.92077)
(103.271 -1.44489 2.14023)
(67.0534 -2.11419 0.00850051)
(69.4365 -3.18346 -0.506471)
(52.7456 -2.62759 -0.857303)
(56.8247 -3.21943 -0.854169)
(49.5831 -3.13318 -0.824944)
(53.3948 -3.65197 -0.69272)
(50.8518 -3.56164 -0.584056)
(53.826 -2.50038 -0.497379)
(52.8579 -0.553163 -0.373243)
(55.7804 3.18447 -0.202741)
(55.844 6.22417 0.146968)
(54.8812 8.33845 0.459916)
(55.0675 6.96956 0.483145)
(170.617 -25.3905 59.3436)
(92.8162 -37.7905 -32.7478)
(188.743 -49.3069 -2.25302)
(94.8919 -31.1552 2.15528)
(116.236 -6.40273 3.98927)
(58.9574 10.9526 0.884948)
(75.8807 14.4559 0.818497)
(39.774 12.8488 -0.219506)
(54.39 9.02942 -0.285995)
(35.5628 7.94056 -0.322499)
(45.1482 5.55829 -0.25783)
(36.4401 4.97322 -0.139142)
(42.1831 3.21667 -0.13314)
(39.3783 3.19228 -0.16135)
(42.2742 2.86888 -0.163437)
(40.7299 4.15223 -0.196381)
(41.4398 5.07353 -0.0534469)
(41.2089 5.971 0.0615038)
(40.4654 6.23752 0.130151)
(43.1301 4.57419 0.240483)
(204.07 34.0724 -12.3332)
(75.8286 42.4139 -3.70603)
(150.716 42.7773 -1.84931)
(86.2937 21.6222 -3.33592)
(110.647 33.5129 -0.60251)
(72.1829 25.818 -0.936593)
(88.4924 19.6454 -0.374694)
(64.7272 17.2704 -0.723975)
(72.5714 6.442 -0.59224)
(57.9513 6.88119 -0.475454)
(61.5743 -0.163301 -0.0992305)
(50.2892 0.655685 0.108791)
(50.1043 -4.56302 0.561716)
(42.3797 -2.79772 0.482412)
(43.6073 -2.03208 0.482071)
(41.5719 1.68317 0.06561)
(42.5362 3.64048 0.0208598)
(42.003 5.2982 0.0241416)
(41.0918 5.50593 -0.0401368)
(43.6163 4.36069 0.121011)
(248.581 -14.1753 -58.6166)
(42.4027 -20.2845 -0.844729)
(141.835 -11.8447 14.5133)
(21.5162 -6.21981 -1.46594)
(90.9272 14.1372 1.81097)
(37.48 28.1707 -1.99679)
(82.3658 25.5339 -1.49483)
(69.3434 27.0183 -1.7615)
(83.3405 20.8957 -1.19724)
(81.4883 18.2965 -0.988841)
(87.6792 13.7126 -0.389853)
(85.932 13.4393 0.13938)
(83.409 8.12279 2.16189)
(65.7553 5.93225 2.96032)
(53.195 0.747256 1.77579)
(44.9226 4.30518 0.486757)
(43.0769 4.58759 0.0153702)
(42.4638 5.3831 -0.0699999)
(41.2291 4.4864 -0.240991)
(45.2689 2.7359 0.0451702)
(203.623 193.112 133.083)
(124.054 110.487 -23.3502)
(166.897 78.7962 -10.5238)
(78.5339 44.6424 -0.7843)
(106.575 32.2668 3.95333)
(64.7768 32.5399 -0.0547193)
(81.9704 4.48616 -0.00213418)
(68.8601 22.6604 0.120019)
(76.3217 4.1608 0.336607)
(74.224 7.23476 1.1763)
(81.8985 -1.3335 1.22109)
(83.2287 2.16813 0.947382)
(85.4151 1.60587 0.661838)
(79.3313 8.25859 1.81153)
(65.2758 7.37591 2.39883)
(53.0343 8.60023 1.23152)
(49.5921 6.32459 0.305524)
(47.731 5.96725 0.0216445)
(46.6255 3.84325 -0.166471)
(52.0791 1.47868 0.0725134)
(83.6443 171.54 85.8996)
(-55.3258 116.812 -14.2058)
(118.956 59.8198 -13.9754)
(28.7307 23.0935 1.30537)
(97.2852 18.9713 4.94379)
(39.4632 45.413 1.5538)
(63.5292 35.225 -0.115447)
(42.5638 20.4044 -0.315403)
(56.3484 25.439 -0.664662)
(57.4535 4.08525 -0.0915795)
(68.706 1.70067 0.326665)
(72.1992 -0.955618 0.839923)
(74.5338 5.0704 1.16877)
(69.2273 8.80086 1.26071)
(53.8744 12.5535 1.04369)
(49.438 12.0211 0.599398)
(48.0793 8.24454 0.00134156)
(48.3764 6.3173 0.0186091)
(48.5487 0.668795 -0.0267048)
(53.2097 -1.66299 0.0393011)
(251.163 133.499 176.04)
(65.997 86.667 37.1986)
(144.275 38.9689 25.0099)
(83.6918 14.279 5.55793)
(115.475 7.23989 3.16558)
(81.2172 33.6642 -2.19931)
(87.322 39.1109 1.41107)
(66.3601 21.6999 -1.08521)
(64.9372 18.9785 -1.25771)
(74.2929 3.90071 -0.887014)
(80.3665 -5.00698 -0.0533335)
(82.8353 -6.66498 0.495299)
(84.1939 1.17972 0.842881)
(74.3473 11.595 1.13349)
(58.2775 17.3405 0.790982)
(49.1053 11.1608 0.323987)
(48.8313 7.58734 -0.112773)
(50.407 3.72168 -0.376358)
(50.6274 -0.920171 -0.370425)
(52.0897 -1.84871 -0.234041)
(144.269 224.403 202.937)
(-146.048 65.9648 -2.01108)
(105.749 66.6059 2.79655)
(-24.1129 27.8183 3.439)
(74.7754 42.8525 -0.7017)
(39.0785 30.0322 -1.7648)
(77.0464 46.7383 -0.687694)
(96.1693 44.7787 -1.10442)
(100.214 31.8193 -0.285149)
(85.4949 11.5376 0.330491)
(83.8532 -2.62805 -0.0770206)
(78.089 -0.869727 -0.306121)
(77.2601 4.19816 -0.65197)
(82.9162 16.0915 -0.212076)
(72.9002 22.005 0.859245)
(55.0752 14.7136 0.770735)
(54.8809 8.23449 -0.410264)
(55.9303 4.71334 -0.664302)
(55.1167 0.603064 -0.554944)
(54.9957 -0.397067 -0.272469)
(128.528 16.0242 -58.2428)
(-245.916 16.2506 -9.13259)
(82.2264 -26.5411 -19.2404)
(-28.6215 -3.60737 0.129204)
(68.2858 -6.69587 3.59093)
(36.2295 20.9552 -0.00573142)
(61.3067 25.3445 0.095919)
(82.0804 30.2893 0.448448)
(82.2659 25.9816 1.91505)
(74.6662 7.77854 0.15212)
(68.1368 4.65683 0.0627025)
(67.4675 9.15789 -0.25817)
(69.9643 11.4888 -0.630224)
(76.1688 16.3051 -0.804369)
(76.4363 26.0746 0.492364)
(60.5045 17.3845 0.682852)
(59.7726 10.2932 -0.218674)
(58.8403 5.36107 -0.279589)
(57.1544 2.19851 -0.240499)
(56.2683 1.16235 -0.174985)
(104.302 -46.6071 105.954)
(11.6233 19.6099 -0.476883)
(89.3521 6.64847 -4.99911)
(1.81508 9.00413 0.795193)
(65.7485 11.8258 3.81409)
(-10.5383 -9.79743 0.396977)
(32.3378 -5.7893 0.394251)
(58.4556 4.43671 1.18931)
(61.1725 13.8043 -0.161452)
(64.0557 10.6092 -0.00979286)
(59.0113 10.5505 -0.302761)
(60.8848 13.0064 -0.469075)
(63.0537 15.7762 -0.273377)
(65.2347 21.7506 -0.517841)
(64.0763 27.8345 0.0330426)
(57.6503 18.0613 0.423859)
(58.3354 11.8692 -0.0884524)
(56.8686 7.13442 -0.127715)
(54.8429 3.82919 -0.0951148)
(52.7998 2.67637 0.0225805)
(51.0423 73.5404 137.635)
(-104.618 53.7516 -12.0216)
(102.305 4.77282 -9.45605)
(-0.68048 -2.73269 -1.58766)
(92.9071 -8.41176 -1.53314)
(41.7035 -33.5948 -1.80217)
(66.8194 -9.43912 -1.78261)
(22.4846 -2.886 0.490815)
(38.4107 5.99711 0.0546162)
(31.9523 10.3535 0.0888797)
(45.7191 14.3342 -0.165421)
(44.8968 16.7584 -0.321723)
(49.983 20.1122 -0.323019)
(50.1288 23.6058 -0.170569)
(52.4077 21.0019 0.542907)
(55.0853 15.1362 0.229474)
(56.3163 11.9476 -0.136912)
(55.1698 7.58145 -0.00207434)
(51.216 5.85067 0.330525)
(46.9459 4.21308 0.360759)
(-84.5655 -62.2665 -15.7488)
(-172.678 6.39939 -30.2929)
(77.4359 -18.1468 -20.9583)
(-2.38073 -3.73078 -0.479573)
(83.3922 3.56584 -2.06826)
(32.6794 -9.43026 -0.728768)
(57.3342 32.3375 -0.0952218)
(30.3605 -4.80984 0.0141991)
(42.8764 17.7398 0.368352)
(29.4169 -1.95958 0.547395)
(38.1408 13.4175 0.512421)
(34.1046 6.8936 0.621996)
(42.1962 16.175 0.556801)
(43.0606 12.8601 0.549925)
(48.5403 15.1405 0.544154)
(49.4145 13.0093 0.166581)
(51.3136 11.9838 0.135106)
(49.9964 9.97077 0.261305)
(46.3063 9.28123 0.544993)
(43.7561 6.181 0.401362)
(-32.9451 -91.5824 29.0521)
(-133.951 -72.4781 -4.63886)
(76.8909 -40.6661 -5.70416)
(-57.4773 -25.9923 0.428718)
(64.5212 -15.4326 -0.952857)
(-11.4994 -19.033 -1.12472)
(49.972 7.03271 -0.705509)
(19.8048 -1.5162 -0.0164304)
(39.8068 10.5386 -0.135344)
(25.9793 4.00755 -0.0515224)
(34.5091 10.0017 0.130897)
(28.9345 7.53302 0.129462)
(34.8469 11.3574 0.259761)
(34.163 10.5703 0.257308)
(37.6826 11.9685 0.202366)
(38.1551 10.6329 0.175316)
(40.2183 10.4403 0.163898)
(40.0499 9.13793 0.191615)
(39.0707 8.4636 0.151731)
(40.3472 5.59709 0.181078)
(18.4479 -158.203 -32.0033)
(-131.138 -82.4376 -25.5912)
(100.612 -64.2786 -21.2206)
(2.05734 -17.9562 -3.62793)
(78.5474 -0.548838 -1.33854)
(18.7776 -1.92286 -0.995923)
(54.3894 18.6106 0.142532)
(21.3041 0.934797 -0.723851)
(44.2114 15.9969 -0.17826)
(26.1908 2.73771 -0.509818)
(38.9574 11.2445 -0.0523113)
(30.1266 5.45703 -0.21486)
(37.4164 10.1965 0.0390525)
(34.094 8.033 -0.0791935)
(38.4081 10.0721 0.0662796)
(37.6324 8.98453 0.0252988)
(39.9638 9.22833 0.0461672)
(39.7197 8.25699 0.0267026)
(39.1896 7.5005 -0.112951)
(40.8633 4.67617 -0.0400919)
(-72.7041 -7.63596 -108.614)
(-93.8778 -30.5828 -33.1116)
(74.0641 -8.872 -11.1125)
(-82.1952 -7.85039 -4.29332)
(65.9399 5.0685 -6.04899)
(-30.9027 -2.81836 1.65507)
(44.9231 9.60364 1.13542)
(-3.42392 4.77265 0.449848)
(37.4392 9.41234 -0.220852)
(16.2163 6.65435 -0.220381)
(36.0202 8.56602 -0.216029)
(27.4141 7.4969 -0.244067)
(36.8912 8.7108 -0.13527)
(33.9837 8.41547 -0.186947)
(38.8104 8.89134 -0.151946)
(38.5144 8.60839 -0.177628)
(41.2479 8.63632 -0.177589)
(41.6175 8.12232 -0.206219)
(41.6488 7.4339 -0.392783)
(44.6659 4.84961 -0.184073)
(-124.973 57.8003 101.541)
(-133.043 -21.3038 -41.7286)
(103.891 -1.3837 -7.18941)
(-48.7597 -2.43706 -0.968282)
(76.9345 -0.657908 -3.39645)
(7.63338 -0.25526 -0.652139)
(54.793 4.69803 0.412436)
(19.5158 1.7331 -0.567581)
(45.459 4.68001 -0.0850779)
(28.2531 2.32789 -0.605595)
(42.7862 4.33185 -0.342502)
(35.6525 4.17864 -0.575598)
(43.7218 6.00615 -0.481175)
(41.4119 6.34883 -0.59613)
(46.198 7.21768 -0.57706)
(46.5523 7.42308 -0.574442)
(49.821 7.60016 -0.577661)
(51.3191 7.38376 -0.691544)
(53.1862 6.43201 -0.913097)
(59.3664 3.4406 -0.4686)
(-87.0533 -52.8067 26.9792)
(-166.638 -38.3732 -12.0807)
(96.1085 17.568 -24.1705)
(-39.4129 7.72836 -3.08733)
(70.1471 -0.900933 -6.38956)
(-8.4498 10.1256 -1.01604)
(48.3678 3.29721 -2.13877)
(5.43434 8.82052 -1.62046)
(41.6602 4.91711 -2.35557)
(25.0894 7.76209 -1.63823)
(45.4065 5.90295 -1.06113)
(41.4282 7.60045 -0.742753)
(51.1727 7.81319 -0.725553)
(50.3816 8.4332 -0.822377)
(55.5543 8.32428 -0.790463)
(56.9949 8.2192 -0.97332)
(61.6162 7.77708 -0.959774)
(64.3104 6.92752 -1.09752)
(67.7212 4.35784 -1.12866)
(73.7118 2.4498 -0.304911)
(330.564 54.1024 -198.513)
(-142.806 -41.7695 7.66826)
(161.334 38.2328 -16.1382)
(52.7422 24.6299 0.0247928)
(119.113 23.0156 0.665649)
(93.2631 23.9547 3.54599)
(117.253 17.0044 3.17538)
(102.897 15.5744 2.44013)
(114.745 5.93298 2.11787)
(104.04 2.83913 2.50139)
(101.857 -3.63296 3.10445)
(86.2867 0.803173 2.93176)
(85.064 4.44695 2.43759)
(81.2427 7.26931 1.97484)
(84.1559 7.80138 1.57851)
(85.9064 8.18961 1.32105)
(90.9372 7.38943 0.943987)
(95.3257 6.33571 0.534449)
(99.1445 4.26732 -0.248833)
(106.417 1.44859 -0.369399)
(57.073 74.0795 -30.3086)
(29.273 1.59843 51.8883)
(119.132 -6.30905 20.2584)
(57.2831 -3.85645 14.8385)
(108.524 -4.35347 14.0268)
(78.3344 -2.04099 7.94319)
(101.385 -2.82564 8.16516)
(90.7209 -4.48062 6.80107)
(100.845 -5.01177 5.94914)
(98.603 -6.20102 5.059)
(104.439 -6.10959 4.05992)
(105.872 -7.49079 3.08103)
(112.934 -7.35781 2.12354)
(116.999 -8.63598 0.410011)
(125.337 -6.79077 -0.643149)
(128.098 -4.00154 -0.64761)
(127.834 1.83124 0.548632)
(118.907 6.80798 1.47389)
(110.058 8.16807 1.63231)
(101.815 3.97785 0.372478)
(254.436 -8.1209 109.762)
(-12.9642 -38.642 6.24036)
(132.218 -28.0596 -13.519)
(48.38 -15.041 -3.55518)
(100.655 -22.1411 5.53759)
(58.0435 -14.5548 2.78988)
(79.7915 -12.7643 3.18387)
(57.5774 -8.19299 0.648141)
(68.3312 -5.0733 -0.640083)
(58.0659 -3.41694 -2.35108)
(64.4092 -1.74477 -3.53618)
(60.4298 -1.547 -4.59421)
(64.8002 -0.606724 -4.96315)
(63.7174 -0.564695 -5.59919)
(66.5151 0.464605 -5.65265)
(66.123 2.58558 -6.16734)
(68.6272 5.31883 -5.21966)
(68.4609 6.70719 -3.16023)
(67.8301 6.47061 -0.0855758)
(66.8026 3.82171 0.754927)
(220.006 92.6966 22.5881)
(147.642 21.3642 -0.912116)
(187.267 14.9812 0.664833)
(133.493 9.76428 6.38498)
(145.077 9.14908 13.3397)
(89.3893 6.84753 7.76538)
(88.1044 3.43073 5.9554)
(54.5312 2.93551 0.917023)
(60.2903 1.15297 -0.22668)
(43.8598 1.13524 -1.35928)
(49.4818 -0.205198 -1.48669)
(41.8531 -0.680696 -1.56418)
(46.0179 -1.63878 -1.35313)
(42.7641 -1.91906 -1.24614)
(45.3512 -1.03453 -1.06737)
(43.9192 0.33116 -0.783989)
(45.7046 2.9668 -0.367073)
(45.3304 5.20361 0.343716)
(44.7546 6.75036 0.813875)
(45.8001 5.17853 0.714648)
(326.079 -44.0253 -45.6914)
(2.24358 -1.2517 -9.43447)
(165.661 -9.54306 -2.44573)
(65.5732 3.5346 2.24211)
(102.555 16.9108 7.18964)
(41.1514 20.9267 1.85446)
(66.06 16.1305 1.77773)
(29.9998 12.6897 -0.5623)
(47.6601 7.69675 -0.656079)
(28.1688 6.67503 -0.790545)
(38.794 3.85401 -0.662359)
(29.209 3.36171 -0.49214)
(35.3535 1.61173 -0.270111)
(31.7876 1.88361 -0.346878)
(34.7837 1.72418 -0.268104)
(32.976 3.10299 -0.424138)
(33.9828 3.97965 -0.20795)
(33.8983 4.87707 0.0318725)
(33.5543 5.08098 0.149932)
(36.4414 3.62204 0.372364)
(171.729 -98.7893 50.1201)
(62.9307 26.0332 -4.40525)
(138.643 51.1663 8.96038)
(59.146 34.074 1.28658)
(94.5086 45.271 3.26076)
(49.9001 31.2156 -0.0703219)
(72.848 20.8466 0.319998)
(45.8782 19.1295 -0.941997)
(57.4237 7.45958 -0.769866)
(41.1489 9.52665 -0.616174)
(47.4431 1.48653 0.0109595)
(36.417 3.01625 0.262387)
(39.1812 -2.68748 0.989505)
(32.8869 -0.941064 0.771114)
(35.199 -1.08148 0.907803)
(33.2864 1.77505 0.125799)
(34.4012 2.73394 0.083745)
(34.0879 4.07897 0.0425829)
(33.5273 4.01879 -0.0938994)
(36.1201 3.06703 0.209121)
(130.096 -122.86 -24.6734)
(-104.187 -29.4575 -15.4133)
(123.359 12.7683 8.38105)
(-23.7433 11.6853 -3.40194)
(82.2699 27.2604 0.379787)
(17.2101 32.4404 -2.53104)
(67.5154 21.7582 -1.52589)
(46.4701 23.4869 -2.16353)
(60.8569 14.7404 -1.44955)
(54.418 13.9417 -1.28456)
(60.1986 8.86522 -0.403893)
(55.5668 9.50418 0.664388)
(54.4361 4.99851 3.5354)
(45.723 4.60518 4.35964)
(40.7106 0.940297 2.86898)
(35.8633 3.43765 0.843235)
(34.9735 3.25802 0.082763)
(34.6695 3.89508 -0.0646103)
(33.7991 2.84237 -0.347487)
(37.0478 1.85455 0.160728)
(242.413 70.3616 -60.921)
(62.3862 24.7032 -6.6542)
(139.476 20.2498 6.95)
(32.4418 22.8736 2.20188)
(90.0435 26.7612 5.57353)
(41.7315 31.1721 -0.278939)
(63.0483 0.0186833 0.296496)
(46.0959 23.4089 0.156832)
(56.2397 3.17554 0.297548)
(53.5452 10.2327 1.42527)
(60.8376 1.96872 1.34767)
(58.5829 7.51999 1.28685)
(58.382 5.61386 1.45585)
(51.0611 10.8519 3.14429)
(46.5332 7.31605 3.63821)
(40.9011 6.88613 1.96916)
(39.8404 4.18348 0.514192)
(38.9912 3.69089 0.0976163)
(38.3943 1.51108 -0.225627)
(41.8852 0.674801 0.169127)
(220.754 -19.1757 -37.8936)
(37.4879 -27.9645 -2.2299)
(112.821 22.3585 8.62015)
(1.68817 23.6818 5.27582)
(83.6931 25.6466 9.00494)
(19.2505 50.5117 2.32638)
(47.7248 29.7404 2.37055)
(31.2712 21.2261 -1.26021)
(44.0317 18.6055 -0.732523)
(45.0977 5.20795 -0.385367)
(54.453 7.39806 0.181838)
(54.5258 6.71974 0.3829)
(55.1767 10.8348 0.589437)
(49.1979 11.9873 1.42912)
(40.1723 9.99456 1.46145)
(39.9265 8.98979 0.713909)
(39.6885 5.14723 -0.0036387)
(40.3907 3.50732 0.00271977)
(40.281 -0.214647 -0.109061)
(42.7754 -0.630139 0.106414)
(159.061 -124.61 26.1916)
(-102.675 -21.7125 -1.45862)
(78.325 5.89177 1.57492)
(8.30631 9.89868 -2.63316)
(68.1444 16.7509 0.498603)
(49.21 40.3257 1.42229)
(68.5114 41.6846 4.00057)
(50.2754 19.1318 -2.19809)
(52.8128 12.1452 -3.62666)
(56.7426 0.941462 -2.66485)
(60.7149 0.823687 -1.29185)
(61.5455 5.17499 -0.868603)
(58.3288 12.7557 0.256724)
(50.652 16.1658 2.08293)
(43.6672 14.2331 1.59498)
(40.7399 7.62728 -0.15933)
(41.6665 3.89363 -0.412306)
(42.2437 1.43327 -0.403194)
(41.3629 -0.888587 -0.458295)
(41.7909 -0.808627 -0.254017)
(243.83 401.486 -26.051)
(-159.278 57.2728 6.03727)
(70.1299 48.2471 -16.2521)
(-61.1084 22.926 5.24593)
(58.6903 32.6508 -4.22546)
(12.7566 23.3392 -9.54041)
(55.1426 35.9119 -4.9531)
(70.7126 27.4931 -2.35914)
(69.9652 13.2379 -0.649098)
(66.3511 1.09645 0.637534)
(63.9312 1.62196 -0.876811)
(61.2222 7.50028 -2.39312)
(59.741 14.7032 -2.18483)
(55.9577 21.2759 0.561514)
(48.984 17.2626 2.02943)
(45.9189 9.06093 -0.332789)
(46.4773 4.09674 -0.981504)
(45.6114 1.72074 -0.779171)
(43.6988 -0.25756 -0.57888)
(42.82 -0.213239 -0.292895)
(124.999 -1.68526 29.6374)
(-145.892 15.1 18.8468)
(54.3095 -21.3896 -5.51393)
(-54.4623 -3.48592 0.438312)
(49.6296 -8.49061 3.80404)
(23.777 13.7943 1.92553)
(54.0921 12.7878 4.96024)
(69.5702 16.5784 3.62236)
(71.4604 13.9099 5.30546)
(64.3674 4.99297 2.54524)
(58.8945 7.46437 -0.0232278)
(58.2954 11.8238 -2.38957)
(58.998 15.9254 -3.33617)
(58.7079 21.5284 -1.60681)
(52.4926 21.3306 1.94045)
(49.6762 9.34795 -0.13908)
(49.1032 5.27447 -0.535523)
(47.0537 1.9798 -0.280065)
(44.7329 0.810063 -0.223366)
(43.3777 0.707256 -0.131277)
(116.332 15.3364 -80.9007)
(-28.3116 1.16221 -25.0811)
(75.7676 0.561942 -17.967)
(-21.535 8.48924 -1.51516)
(54.9064 11.1224 1.85615)
(-6.76219 -11.1195 0.158927)
(33.3873 -5.51309 6.54035)
(54.7742 3.35656 6.57699)
(57.8725 12.1262 4.56286)
(52.1828 10.5147 0.873616)
(48.4013 11.1737 -1.9022)
(48.5523 14.197 -2.53482)
(50.9889 17.7362 -2.11926)
(52.1493 21.398 -1.89032)
(49.6487 20.8537 0.589255)
(47.2433 10.9463 0.173895)
(47.2636 6.90831 -0.157933)
(44.7238 3.84724 -0.00264322)
(42.2685 2.45059 0.0456249)
(40.6213 1.86273 0.151639)
(6.09587 190.836 306.635)
(-71.8665 29.436 -34.0431)
(84.9269 -2.95211 -5.4159)
(-8.98408 -2.40315 -1.20947)
(77.1631 -7.32258 0.425729)
(18.8906 -32.059 -1.80763)
(46.7077 -4.34328 1.23284)
(11.3549 -0.11283 1.69442)
(31.2574 8.13655 0.361449)
(23.837 9.72012 -0.320384)
(36.875 12.5697 -0.793929)
(35.0405 13.7685 -0.894957)
(40.8293 16.2276 -0.607255)
(40.6736 16.8338 0.220252)
(42.1282 13.8487 0.407138)
(44.1287 9.46177 0.217479)
(43.76 7.64404 0.0788765)
(41.583 4.70427 0.274078)
(38.4429 4.03928 0.549422)
(36.7071 2.92672 0.518897)
(23.7567 -122.383 -6.71548)
(-35.924 -13.2667 -12.4693)
(75.699 -13.6495 -14.0088)
(-4.55237 1.18084 1.40659)
(71.1621 6.60959 -1.54127)
(10.4541 -8.56839 -0.431123)
(39.4268 36.2386 0.0373925)
(7.42797 -9.82756 0.0724918)
(26.8004 18.6028 0.527923)
(14.5649 -3.98372 0.671569)
(27.3453 13.2035 0.420136)
(23.6224 4.18724 0.692229)
(32.4414 13.1773 0.662685)
(32.3665 8.46215 0.747503)
(37.3349 11.4346 0.850873)
(37.024 9.08571 0.43514)
(38.2041 8.70429 0.410697)
(36.6725 6.92254 0.444572)
(34.6528 6.485 0.678763)
(34.236 4.22511 0.544337)
(-15.8286 -52.7895 62.7999)
(-120.468 -59.4316 -13.5022)
(56.5835 -30.7734 -13.8055)
(-68.9954 -19.4365 1.03218)
(53.7746 -9.60063 -2.91864)
(-27.2999 -15.3095 -0.783155)
(39.0648 12.7098 -1.2097)
(4.48804 -1.85031 0.0745911)
(28.0483 11.2716 0.0542549)
(13.0824 2.37636 -0.0970666)
(24.4392 9.43571 0.216712)
(18.9926 5.80117 0.164801)
(26.0063 9.58203 0.351885)
(25.0626 8.05006 0.408498)
(28.718 9.33522 0.38611)
(28.9873 7.81777 0.326864)
(31.093 7.79577 0.26275)
(31.0591 6.51058 0.224082)
(30.5144 6.04837 0.0696889)
(31.9503 3.74411 0.242952)
(118.463 34.7057 -121.769)
(-33.373 -58.0199 -35.9184)
(87.9675 -61.5622 -29.8135)
(-20.3942 -16.6418 -5.06425)
(63.8896 -3.02932 -3.83601)
(-5.83551 -4.73117 -1.66781)
(43.0028 17.9624 -0.0398662)
(4.57742 -3.33085 -0.938489)
(33.0856 13.8723 0.0309452)
(12.8226 -1.0492 -0.658419)
(28.6749 8.93913 0.0786267)
(19.5169 2.42836 -0.358157)
(28.4067 7.76165 0.114708)
(25.012 5.23793 -0.116871)
(29.9511 7.46687 0.130931)
(29.0663 6.35378 -0.00304903)
(31.6816 6.7661 0.00579139)
(31.4283 5.85833 -0.0909522)
(31.156 5.22083 -0.352033)
(32.5597 3.00567 -0.105683)
(123.003 -60.4238 -20.0872)
(25.4146 -39.607 -68.9947)
(74.9213 -6.55298 -23.283)
(-59.2566 -9.34656 -7.71244)
(44.916 1.73182 -9.19852)
(-43.1985 -5.14253 3.0627)
(36.1265 6.49764 0.596849)
(-11.2404 0.855125 1.21871)
(30.4115 5.73193 -0.439073)
(8.33577 2.657 -0.391933)
(28.8696 4.93175 -0.260347)
(19.7568 3.9414 -0.471765)
(29.8129 5.38897 -0.24557)
(26.6746 5.28793 -0.398531)
(31.7852 5.99395 -0.271612)
(31.3273 5.91342 -0.345714)
(34.2039 6.03437 -0.34664)
(34.4143 5.64449 -0.434443)
(34.4403 4.80536 -0.716951)
(36.4056 2.80205 -0.32781)
(305.947 -255.103 9.30263)
(-101.601 -10.7646 -38.0248)
(99.0758 -3.4106 -27.2686)
(-47.5222 -2.21705 -2.11982)
(64.2615 -3.81403 -7.28999)
(-8.76939 -3.60014 -0.934747)
(46.0739 0.612011 0.214185)
(8.85241 -1.8297 -1.04108)
(38.2908 0.701157 -0.0839094)
(20.4092 -1.75239 -1.05389)
(36.2376 0.337365 -0.539094)
(28.9851 0.373059 -1.06855)
(37.6174 2.26442 -0.853635)
(35.1959 2.75167 -1.04739)
(40.1071 3.69665 -0.906399)
(40.1252 4.06524 -0.918475)
(43.2195 4.31388 -0.891643)
(43.9926 4.22781 -1.04395)
(44.6892 3.29767 -1.27261)
(47.4146 1.66961 -0.6145)
(-19.098 10.988 -19.1045)
(-54.6414 43.8377 -49.0642)
(84.3667 19.5127 -39.6437)
(-13.134 4.10681 -3.84109)
(64.1954 -5.66965 -10.339)
(-0.869278 2.98837 -2.88423)
(49.6694 -3.21796 -5.0487)
(14.3306 2.4616 -3.5515)
(45.643 -1.4999 -3.31708)
(29.4852 1.57105 -1.84234)
(46.2251 -0.348956 -0.93753)
(40.3286 1.51461 -1.30018)
(48.8045 1.77483 -1.51254)
(47.3551 2.69698 -1.86018)
(52.0683 2.64153 -1.78122)
(52.7924 3.24288 -2.00239)
(56.1372 3.0467 -1.85149)
(57.4309 2.70229 -1.86154)
(58.3604 1.43127 -1.70191)
(61.2061 0.703438 -0.576196)
(55.5312 81.5871 -186.4)
(-96.3111 -28.5375 25.9685)
(141.97 18.299 -20.4888)
(61.7506 2.98524 3.81386)
(115.996 4.17355 2.34149)
(94.5059 9.1798 5.56599)
(117.922 3.70052 5.15317)
(105.157 2.96048 4.33476)
(113.516 -5.32314 4.47062)
(99.7943 -6.26663 4.62041)
(97.9983 -6.97435 6.53305)
(85.8125 -1.65176 6.17951)
(86.5896 0.934029 5.17567)
(83.7393 2.93379 4.1061)
(86.4958 3.25211 3.38687)
(87.5992 3.4211 2.29731)
(91.5085 2.83974 1.40434)
(93.9628 1.81981 0.560618)
(94.9543 0.718353 -0.489087)
(97.6418 0.593079 -0.220831)
(-43.8835 128.772 -56.6614)
(-76.3673 -3.0887 7.70261)
(106.855 -1.48589 6.07279)
(31.7354 5.24476 13.7228)
(100.299 2.164 15.5563)
(73.9962 2.5251 8.94974)
(101.67 1.08419 8.82026)
(94.6412 0.042463 6.58802)
(106.634 0.716146 5.62578)
(105.582 1.05333 4.12481)
(111.719 2.05164 2.95582)
(112.105 2.35184 1.47726)
(116.229 2.9888 0.505054)
(116.268 2.93124 -0.949853)
(116.263 4.35753 -2.13482)
(112.625 6.04343 -1.36357)
(106.684 9.81539 1.30745)
(95.9701 9.76302 1.79889)
(89.7901 6.32636 2.04425)
(86.0546 2.10064 0.766296)
(73.2596 -152.993 66.9776)
(-115.973 -23.781 -8.61704)
(117.376 -15.072 -42.8571)
(23.9416 -8.20461 -6.23427)
(88.2718 -17.0461 2.82201)
(46.9212 -9.50581 2.8549)
(74.0954 -7.66895 3.16326)
(53.3301 -3.62122 0.624149)
(65.8641 -0.837851 -0.845344)
(55.6734 0.0266873 -2.83649)
(62.127 1.26162 -4.08338)
(57.0009 0.662893 -5.26278)
(60.5598 1.24641 -5.66959)
(57.7831 0.811477 -6.45567)
(59.3128 1.8483 -6.18727)
(57.0076 2.80299 -6.3195)
(56.7937 4.97135 -4.35858)
(54.0508 4.96607 -1.83346)
(52.3053 4.44088 0.933957)
(52.4186 2.65267 0.935773)
(235.976 -131.017 -56.5259)
(90.0868 -49.5256 -3.3023)
(150.555 -0.265548 3.08189)
(69.2031 12.3385 6.36329)
(104.556 13.4404 15.7553)
(56.4117 10.5583 8.13419)
(73.8513 6.82448 6.07941)
(43.8002 6.16788 0.615111)
(53.8807 3.83646 -0.298022)
(36.9249 3.60795 -1.46921)
(43.6936 1.78552 -1.49935)
(34.867 1.13332 -1.65017)
(39.2293 -0.141687 -1.46524)
(34.7237 -0.524436 -1.4352)
(37.0741 0.102077 -1.15507)
(34.7973 1.17623 -0.830762)
(36.0977 3.2316 -0.221452)
(35.4705 4.48286 0.432017)
(35.0624 5.48206 0.781756)
(36.7722 3.87134 0.574527)
(264.598 -14.4814 -139.753)
(64.9931 5.52223 -27.3354)
(146.682 9.9566 -16.5952)
(35.7622 20.0865 0.268004)
(86.8469 24.6166 6.96451)
(25.3822 22.3089 1.59966)
(58.5163 15.3366 1.64909)
(22.0206 12.6195 -0.677353)
(42.1004 7.18509 -0.678054)
(21.3768 6.51865 -0.806806)
(33.1572 3.2537 -0.710633)
(22.4917 2.95523 -0.563803)
(29.2074 1.13869 -0.305294)
(24.783 1.52314 -0.419216)
(27.9982 1.29847 -0.340394)
(25.7605 2.5269 -0.475434)
(27.0402 3.24167 -0.237998)
(26.8581 3.93049 0.0185347)
(26.7038 4.00137 0.0736779)
(29.5689 2.78225 0.267452)
(87.3297 19.8334 103.698)
(-28.8438 31.1436 -6.69835)
(106.09 61.4422 14.2655)
(25.5993 38.4611 2.34082)
(81.5066 48.218 4.28862)
(33.219 31.4668 0.323563)
(62.7026 19.7204 0.480239)
(32.8154 19.5135 -0.923645)
(47.1739 7.1107 -0.762069)
(28.7442 10.5963 -0.560007)
(36.9066 1.47772 -0.0636875)
(25.5465 3.9007 0.257407)
(30.415 -1.88142 0.865929)
(24.673 0.294806 0.670496)
(27.8936 -0.569823 0.778446)
(25.9418 1.76439 0.0953553)
(27.409 2.14258 0.072553)
(27.0639 3.22367 0.0356518)
(26.7046 2.97692 -0.143949)
(29.0755 2.27053 0.0916998)
(65.8045 -68.1851 106.726)
(-112.815 -14.2164 -19.1717)
(107.697 26.4379 8.94742)
(-34.3966 20.6153 1.52862)
(74.0173 32.3364 1.20272)
(2.32391 33.5001 -1.35446)
(57.6589 18.8614 -1.17689)
(30.2968 22.2552 -1.99457)
(46.1384 11.816 -1.45964)
(35.2957 13.1095 -1.31086)
(40.9329 6.76955 -0.566734)
(33.1929 8.13868 0.512717)
(33.82 3.62908 2.88893)
(29.7478 4.05907 3.38378)
(29.7793 1.47341 2.34954)
(27.6935 2.92738 0.766935)
(27.6827 2.37531 0.0869465)
(27.519 3.00091 -0.0679613)
(26.8173 1.90542 -0.365534)
(29.4711 1.3975 0.0619762)
(140.777 -43.8701 -112.885)
(-18.6488 16.6172 5.32294)
(111.536 27.5258 13.2057)
(1.90493 23.4056 5.52274)
(78.5684 29.4929 5.85297)
(23.8591 31.4699 0.317628)
(50.0552 -1.94621 0.280755)
(29.5351 25.712 0.00987108)
(41.9244 2.88682 0.124748)
(36.1183 13.5499 1.13197)
(42.834 3.57286 0.91474)
(37.1522 10.7287 1.08159)
(37.3842 5.9702 1.56648)
(31.5458 10.1057 2.67612)
(32.1509 5.86406 2.93277)
(30.9005 5.206 1.63902)
(31.3003 2.80924 0.448605)
(30.9471 2.53213 0.0649195)
(30.4261 0.676171 -0.249579)
(32.8423 0.548431 0.0543747)
(100.876 -62.3074 13.8761)
(-98.8847 11.6243 19.5314)
(96.8446 41.7802 23.4316)
(-35.899 32.0483 7.47355)
(73.3331 29.8583 8.16672)
(1.94596 52.5076 1.88999)
(34.2132 24.1646 1.98433)
(20.1616 23.4703 -1.58334)
(32.7032 14.8355 -1.13294)
(32.4167 8.30405 -0.22544)
(40.1265 10.4029 0.0231387)
(37.3279 10.6598 0.33943)
(36.958 12.6166 0.5505)
(32.3799 12.2422 1.77435)
(30.0549 7.35078 1.29646)
(31.3571 6.79613 0.503238)
(31.6466 3.42639 -0.0121571)
(32.2291 2.37555 0.00055161)
(31.6332 -0.0834433 -0.151699)
(33.2683 0.022058 0.0130518)
(202.798 -120.477 -116.788)
(-42.3672 -59.8538 6.44728)
(58.4131 -12.9328 7.97654)
(-17.818 12.5546 1.49458)
(48.375 19.0217 0.357137)
(22.541 47.2077 0.709842)
(42.1915 36.9459 2.72436)
(32.649 13.5573 -3.0576)
(39.8745 8.16643 -3.42452)
(41.4687 3.04058 -2.50242)
(44.9806 6.82163 -1.00356)
(42.8786 10.9778 -0.656991)
(39.0841 15.3999 0.702581)
(34.5156 14.8336 1.99231)
(33.7232 10.8252 1.09057)
(32.646 5.13028 -0.185938)
(33.2284 2.21708 -0.328127)
(33.2804 0.896366 -0.241751)
(32.1181 -0.482576 -0.407644)
(32.3669 -0.110794 -0.323471)
(54.4449 287.805 -155.444)
(-84.4216 37.9505 0.467691)
(42.096 51.7302 -21.6924)
(-63.8344 20.944 4.04271)
(43.1504 29.5036 -5.9258)
(-4.70414 24.5534 -7.40921)
(36.9687 32.4158 -4.22729)
(49.6812 14.7865 -2.06441)
(49.9817 4.0821 -0.28073)
(49.8552 1.04048 0.240396)
(48.5241 6.12395 -1.64653)
(45.8324 12.5615 -2.52704)
(42.4045 17.5305 -1.32926)
(38.7296 17.7299 0.962402)
(36.9293 12.1604 1.1896)
(36.5402 5.47543 -0.432587)
(36.0515 2.1747 -0.753327)
(34.8194 0.987108 -0.456205)
(32.976 -0.134271 -0.416519)
(32.4215 0.150868 -0.379734)
(26.31 63.9977 66.1618)
(-215.125 0.98457 16.9182)
(43.7051 -21.7326 0.410685)
(-71.912 -2.20255 -1.08939)
(36.7987 -7.69689 2.68773)
(3.68051 11.4938 0.864423)
(34.5098 8.31661 5.96017)
(50.5744 7.08347 4.77387)
(52.0104 5.07424 5.29916)
(50.0178 5.53961 3.50927)
(48.785 9.94125 -0.0545558)
(45.824 13.8319 -3.24665)
(42.7648 17.4375 -3.07849)
(41.6635 18.9894 -0.715867)
(39.502 13.8154 1.23614)
(38.0347 4.7573 -0.0424244)
(37.1243 2.64756 -0.230587)
(35.3015 0.747032 -0.054849)
(33.3164 0.49002 -0.163128)
(32.5146 0.566959 -0.233023)
(273.061 88.1721 -142.902)
(48.8212 -16.6412 -12.9312)
(75.6342 -6.78476 -14.8677)
(-23.2177 6.86044 -0.578563)
(43.5044 9.67067 -0.0168124)
(-11.1905 -13.1098 0.636145)
(26.806 -7.00099 6.03367)
(40.8715 5.17964 6.27516)
(43.2814 10.1532 4.71299)
(40.2881 10.721 0.298204)
(38.3668 12.0526 -2.55215)
(37.4005 14.2661 -3.03352)
(37.9643 15.758 -2.24951)
(38.3553 16.772 -0.96157)
(39.056 12.6898 0.679467)
(35.9863 6.57139 0.44189)
(35.6654 4.06083 0.0741546)
(33.3173 2.25235 0.133927)
(31.3221 1.74669 0.0492487)
(30.4836 1.28062 -0.0123342)
(177.17 212.42 227.464)
(-67.3183 16.0531 -34.6717)
(88.5615 -10.8238 -4.18808)
(-24.2664 -3.97847 -3.17335)
(64.8578 -6.32598 1.83275)
(1.28047 -30.4508 -1.99347)
(31.2077 1.60532 2.28886)
(2.77252 1.61778 1.35362)
(24.2105 10.1391 0.135985)
(16.22 8.94144 -0.692904)
(28.9191 11.323 -0.974758)
(26.148 11.1686 -0.859396)
(32.2475 12.3993 -0.349387)
(31.5913 11.3772 0.518156)
(31.7843 9.54929 0.701178)
(33.0654 5.84972 0.398841)
(32.3648 5.05747 0.211039)
(30.4498 3.14904 0.280002)
(28.2128 2.97317 0.429628)
(27.7484 1.98451 0.257704)
(84.4692 -54.0517 -9.72566)
(-19.7078 -22.7665 -27.7634)
(71.9537 -21.4225 -8.00955)
(-17.4087 2.54364 1.58073)
(61.4119 6.63511 -0.0994021)
(-6.18337 -7.55511 0.346895)
(28.1202 37.503 -0.661456)
(-6.35197 -12.9798 0.107635)
(17.2337 18.9915 0.0256399)
(4.67578 -5.52151 0.597201)
(19.282 12.6321 0.00653531)
(14.7695 1.61821 0.674941)
(23.8265 10.855 0.63191)
(22.7633 5.08613 0.852537)
(27.6021 8.67182 0.811149)
(26.7666 6.35041 0.431465)
(28.0807 6.55652 0.405578)