/*--------------------------------*- C++ -*----------------------------------*\
  =========                 |
  \\      /  F ield         | OpenFOAM: The Open Source CFD Toolbox
   \\    /   O peration     | Website:  https://openfoam.org
    \\  /    A nd           | Version:  10
     \\/     M anipulation  |
\*---------------------------------------------------------------------------*/
FoamFile
{
    format      ascii;
    class       volScalarField;
    location    "5.3";
    object      k;
}
// * * * * * * * * * * * * * * * * * * * * * * * * * * * * * * * * * * * * * //

dimensions      [0 2 -2 0 0 0 0];

internalField   nonuniform List<scalar> 
12920
(
36.6718
259.038
480.881
424.968
339.161
303.387
262.428
237.403
208.633
189.781
175.963
162.96
135.16
104.744
86.5635
75.233
68.3342
61.2605
58.1328
54.3832
460.344
776.619
894.502
596.641
512.852
352.582
293.795
261.441
236.315
222.52
191.795
166.929
136.013
121.141
112.778
108.675
105.196
103.668
103.003
103.264
792.003
3066.5
2218.36
1175.2
694.55
425.561
307.548
248.738
200.224
176.38
148.958
136.516
123.942
118.214
113.432
111.305
109.201
108.348
107.466
106.692
16148.4
9134.02
2263.11
1191.39
702.091
378.192
292.782
218.679
192.77
157.987
139.54
127.982
121.511
118.576
116.442
114.245
111.331
109.041
107.615
105.892
9019.98
3760.76
1684.16
1182.34
750.685
483.623
354.776
280.192
237.174
203.304
177.477
159.355
146.365
139.759
131.011
123.618
117.514
113.425
111.857
108.732
2484.91
2786.85
1594.02
955.405
818.024
449.51
408.157
307.842
257.162
216.077
192.993
175.051
158.871
145.966
132.075
122.32
116.563
113.669
112.722
110.335
2749.64
3621.51
2462.1
1837.8
1360.33
991.853
770.369
513.285
356.636
282.866
235.576
199.785
170.688
147.323
129.459
121.365
118.617
115.831
114.856
112.359
6275.82
5743.77
3264.11
2143.89
1471.75
1112.55
740.398
446.285
244.266
165.988
158.83
113.958
95.439
86.1958
153.584
137.702
125.638
116.782
112.293
110.149
4980.25
2718.09
1389.34
1253.07
949.973
554.125
343.969
99.0755
79.1327
114.605
150.439
89.5542
54.4721
52.7645
104.727
126.883
113.095
106.516
104.1
104.941
1143.45
933.891
1271.92
1333.87
965.693
340.593
122.033
81.3605
110.37
140.726
143.34
104.216
57.0519
57.9549
86.4749
116.105
108.435
105.782
105.119
105.439
872.191
1804.55
1706.79
1722.59
1550.1
935.286
383.439
98.3402
90.4762
96.8073
100.217
88.2218
57.618
56.2552
104.405
143.738
131.794
126.371
123.379
114.766
1359.53
1326.65
1610.95
1600.81
1288.14
783.491
291.366
101.817
100.635
101.02
89.3096
72.2117
68.9348
77.6069
122.305
165.727
154.224
145.078
139.836
125.578
367.316
1122.06
1252.98
1204.75
935.162
609.174
339.183
176.987
154.068
146.294
134.213
122.476
111.404
102.923
181.399
172.023
169.127
163.054
155.559
135.322
1477.98
1226.37
1409.32
1222
780.643
503.717
342.421
298.812
257.545
231.243
209.618
198.314
192.673
189.818
186.535
185.633
184.632
179.645
165.124
137.91
344.431
1088.56
1571.9
1200.92
722.438
616.28
478.143
443.979
360.969
305.419
258.923
238
224.617
217.302
209.813
205.557
201.235
191.067
168.337
134.189
49.5
1101.09
1886.37
1571.95
1027.64
845.628
693.053
637.898
526.987
430.89
334.818
279.478
243.706
225.42
213.302
206.114
200.748
188.91
164.959
127.079
404.149
1759.62
2006.78
1513.14
1066.22
966.87
867.349
804.785
657.818
513.114
385.712
314.651
273.013
246.841
225.482
210.151
202.614
190.135
172.987
131.066
1612.12
1260.17
1096.91
1126.27
1080.76
992.821
858.904
738.019
572.844
444.962
355.547
305.028
274.119
251.015
230.56
214.342
207.395
198.301
188.16
153.578
3332.55
2017.46
1776.53
1776.52
1650.59
1199.87
721.897
467.565
322.868
245.069
208.856
191.912
179.788
164.565
152.823
141.157
133.373
123.742
122.588
119.755
111.123
759.174
1085.72
1182.13
1144.77
1030.85
783.583
516.666
311.563
211.074
171.512
147.649
123.897
104.706
87.4101
72.6738
60.5852
52.3032
49.143
49.7977
36.1408
483.313
1123.49
1023.64
843.705
717.759
619.685
541.144
475.569
437.425
384.599
312.391
241.704
195.788
173.599
164.361
162.242
158.889
156.029
147.353
692.21
2367.76
1910.81
1317.17
1268.4
890.682
721.152
636.985
542.244
511.361
441.878
411.585
365.729
356.253
340.576
331.961
316.871
313.412
311
312.517
4507.09
6182.76
3793.52
2377.97
1418.48
996.627
757.663
615.386
514.311
461.419
401.928
383.991
351.146
344.374
331.243
328.185
321.865
321.137
319.455
318.539
10172.2
6212.54
3453.85
2630.07
1338.48
890.231
748.334
563.109
519.96
431.514
394.844
364.042
347.41
340.76
333.65
329.328
321.587
319.059
316.692
314.946
7850.35
6204.41
3852.11
2730.44
1682.93
1149.14
885.187
719.026
614.988
551.979
484.003
450.389
413.047
397.006
371.362
354.707
338.279
330.401
326.052
320.8
4783.41
6751.43
4072.53
2466.3
1922.04
1104.78
1069.09
802.165
671.177
582.015
524.921
479.853
433.036
403.498
368.486
347.629
333.508
329.484
327.888
323.764
8334.2
7890.4
4702
3801.96
2676.3
2139.18
1668.29
1184.67
857.113
743.105
618.09
544.908
459.98
403.422
354.499
337.159
330.267
332.527
336.148
334.917
15586.1
6470.81
4317.72
4044.03
2457.91
2201.29
1908.16
1464.99
897.816
785.729
614.492
461.816
384.845
338.811
348.98
338.186
331.238
329.436
330.17
332.262
10575.7
4055.46
3307.29
3037.28
1532.3
1253.38
1070
776.795
754.129
801.897
633.202
421.727
328.474
309.07
304.961
292.289
292.759
296.528
302.172
315.133
1530.8
3490.37
3480.93
3317.02
2008.4
1176.53
717.503
632.278
650.731
663.642
579.143
409.779
313.391
280.008
241.352
267.051
276.732
287.612
295.662
307.897
4648.12
5254.96
4415.91
4008.26
3039.05
2322.9
1418.24
694.369
578.088
521.817
453.602
338.012
263.35
256.117
288.17
319.458
320.275
323.614
324.838
321.252
4923.16
3318.71
3792.07
3414.3
2066.12
1637.38
976.877
727.217
597.498
516.161
449.628
389.883
371.008
361.933
348.305
382.609
380.537
376.471
371.52
351.652
2482.16
3173.56
3081.4
2751.86
1708.43
1217.19
884.225
770.824
649.993
538.952
496.406
440.084
412.886
393.957
449.391
447.346
443.75
433.436
420.552
384.314
5965.52
4970.33
4335.23
3075.44
1780.4
1247.35
894.929
789.074
695.994
623.314
576.044
545.823
535.367
528.848
521.597
509.825
500.043
478.06
448.564
396.065
2546.95
3468.84
4347.96
2943.87
1816.97
1512.72
1161.11
1076.25
904.218
828.391
729.925
688.566
650.958
627.987
603.497
579.759
554.474
515.154
464.18
391.85
361.102
3349.25
4463
3653.91
2465.64
1997.85
1574.75
1405.12
1163.78
1027.38
873.272
786.06
705.668
659.809
625.363
602.264
580.485
537.561
467.373
373.747
1231.65
4523.11
5079.15
3921.15
2654.83
2303.3
1882.56
1676.45
1358.14
1178.36
983.403
860.562
767.806
704.745
652.752
614.979
593.872
563.212
505.886
386.117
5837.28
6127.82
5022.43
3699.82
2717.7
2440.91
1897.05
1535.3
1163.77
1003.15
892.49
823.538
766.72
711.659
661.654
620.976
598.423
572.324
542.991
445.791
11156.5
6314.59
4926.65
4375.94
3344.46
2256.48
1283.27
761.118
534.163
494.885
498.515
519.838
521.518
504.445
472.731
442.199
426.037
398.199
385.239
354.68
242.392
1693.56
2106.32
2383.49
2250.33
1875.34
1207.69
690.456
457.491
398.104
347.767
290.351
243.595
210.281
186.451
165.048
150.682
140.578
139.019
136.418
84.853
1780.36
2415.2
1794.04
1165.67
910.025
763.557
641.664
549.189
467.845
384.827
301.487
239.723
204.908
196.127
195.753
196.537
195.914
194.558
187.552
2474.82
3926.75
3080.92
1970.72
1662.16
1132.64
903.465
775.474
648.528
605.426
524.632
504.727
481.316
487.061
482.257
477.518
466.444
465.59
464.384
465.512
6336.34
6250.92
4309.49
2805.6
1926.32
1264.35
993.882
783.537
682.166
607.722
553.366
531.859
506.252
500.029
485.298
480.106
471.371
469.901
466.624
465.86
7714.87
8089.16
4894.75
3002.85
1852.9
1195.2
1021.92
766.715
713.41
600.405
561.164
519.794
499.454
485.001
472.362
464.701
456.404
454.394
451.756
451.609
14816.6
9998.53
5257.39
3298.86
2144.27
1425.6
1228.23
966.025
849.909
733.034
650.732
596.756
552.193
525.62
497.811
480.436
465.66
458.929
453.501
448.729
17205.5
8998.94
5024.3
3108.15
2304.3
1454.07
1439.33
1108.31
950.959
796.19
702.801
628.483
570.31
531.316
498.253
478.538
465.789
459.781
455.804
447.447
23222.3
9599.49
5467.03
4148.45
3004.55
2321.36
1819.43
1451.19
1130.26
955.865
779.373
677.837
586.448
532.396
492.512
478.583
472.117
471.885
470.791
463.945
12376.7
6351
4245.16
3476.35
2346.93
2268.9
2121.38
1708.22
1250.74
1030.08
778.568
613.481
532.568
477.295
466.582
463.124
464.934
469.471
472.223
470.982
19521.3
6813.91
4142.5
2811.85
1711.12
1601.45
1627.94
1331.82
1171.27
1006.72
722.761
539.992
467.234
433.975
411.293
406.714
416.87
432.501
444.302
457.202
24489.9
10275.8
5367.71
3906.05
2148.79
1525.81
1223.22
1038.95
933.068
837.527
664.973
495.369
418.502
369.323
337.207
374.508
396.375
415.318
426.941
439.561
21530.9
9495.21
5860.89
4715.28
2912.84
2223.42
1490.05
1092.46
838.63
720.786
459.081
306.761
311.765
351.901
380.582
418.397
430.78
439.023
441.036
439.617
13624.2
6257.75
5243
3841.2
2164.88
1739.11
1355.91
1109.32
839.317
692.182
599.546
529.536
498.584
469.974
456.73
494.658
494.854
490.587
482.188
460.608
7974.99
6237.88
5236.23
3792.26
2318.47
1762.51
1402.7
1114.67
919.452
734.452
674.498
601.856
574.315
551.774
598.032
587.166
574.734
551.759
533.104
492.241
5428.68
9450.8
7112.51
4288.73
2594.34
1779.78
1345.04
1150.63
995.062
903.271
834.319
791.263
757.078
727.384
698.772
667.935
638.09
595.734
559.666
505.818
10806
5824.11
6321.51
3813.69
2525.24
1881.67
1530.93
1365.33
1179.58
1101.64
1012.34
960.133
900.062
847.955
794.362
742.984
691.1
627.15
572.363
502.98
2737.08
5436.36
5803.7
4802.64
3222.63
2448.79
1910.03
1651.28
1399.31
1266.09
1135.65
1054.69
969.804
903.502
838.954
784.312
726.887
648.84
574.386
487.612
1151.47
6391.74
7044.87
5141.91
3429.64
2783.95
2176.9
1873.11
1556.87
1402.7
1247.64
1143.77
1040.47
951.531
872.974
811.898
757.63
682.919
603.783
490.71
5241.25
8581.67
6844.21
5364.62
3731.64
3003.03
2152.06
1727.18
1416.86
1310.25
1207.89
1124.34
1028.37
937.615
857.317
793.385
744.18
682.348
627.593
517.567
17450.9
10099.9
6560.91
5728.75
3982.53
2525.56
1414.09
975.47
794.234
774.44
780.666
777.811
751.652
697.163
644.437
593.371
557.293
514.628
492.386
449.465
5417.4
3393.33
2821.32
2739.34
2449.7
1839.09
1137.67
731.906
567.818
465.274
377.496
310.347
267.016
234.311
211.437
188.012
176.021
163.33
159.2
148.795
2372.88
3818.57
3907.03
2849.04
1543.6
1036.35
817.859
639.908
517.388
397.055
316.625
254.242
221.966
208.283
209.456
211.245
212.546
210.699
208.76
199.613
9726.38
6245.24
4060.61
2591.68
1967.1
1275.56
1038.31
820.945
722.14
655.439
611.008
597.894
599.724
610.92
610.062
607.822
604.233
606.553
607.378
611.302
19895.2
7283.39
4899.54
3159.2
2335.62
1458.56
1204.92
904.277
834.631
722.947
694.244
657.163
645.645
632.379
622.675
616.057
611.189
610.663
608.284
609.358
9868.82
9451.69
5819
3435.25
2248.78
1449.05
1262.06
927.1
883.8
735.832
707.184
646.773
633.2
608.513
599.419
589.456
585.446
584.294
582.683
584.622
40661.8
15558.7
6254.99
3739.84
2504.35
1638.84
1517.28
1138.3
1050.6
864.561
795.587
713.744
675.93
638.027
616.598
598.628
588.71
582.425
576.9
574.003
18508.4
11872.7
5927.4
3553.26
2593.03
1727.55
1785.2
1293.97
1167.32
926.915
838.988
737.332
687.447
641.833
617.658
598.722
589.84
581.598
575.149
566.093
22442.8
9204.54
6154.11
4234.15
3313.27
2320.86
2004.06
1541.66
1292.41
1055.68
892.56
774.757
698.827
648.028
622.654
612.161
608.407
604.266
598.674
584.128
24312.4
7689.51
4810.32
3341.37
2658.19
2251.27
2095.31
1809.31
1383.09
1101.42
865.746
713.023
638.825
588.716
589.702
594.239
603.984
609.217
609.347
601.762
23306.5
9625.51
4942.31
2952.97
2138.22
1968.41
1954.34
1596.18
1297.84
1023.12
754.883
617.365
562.853
531.795
513.081
537.86
558.829
580.385
592.74
599.021
29077.1
8874.49
6361.84
3715.97
2262.13
1749.08
1612.45
1296.86
1094.93
894.476
683.629
543.692
483.176
453.059
446.877
501.879
530.85
553.863
565.698
576.318
12736.3
11275.8
7065.69
4584.81
2732.28
2074.24
1654.32
1301.43
998.631
821.749
574.136
424.114
420.323
443.121
470.665
528.797
547.651
558.409
561.783
563.359
31964.3
10059.4
6525.01
3925.47
2447.75
1958.02
1714.94
1311.99
988.66
803.79
690.241
614.194
577.945
550.458
548.858
606.496
607.262
601.216
590.387
572.154
23710.1
11946.5
7461.91
4473.72
2981.22
2198.53
1770.47
1339.89
1103.99
880.778
814.582
736.797
712.352
684.464
735.641
716.586
694.667
664.012
638.953
598.994
7190.3
11222.7
9841.28
5584.65
3398.05
2170.6
1727.43
1449.65
1251.6
1138.59
1058
1000.83
952.205
903.488
856.898
807.997
760.817
707.191
665.312
612.58
17883.5
9264.93
8532.66
4600.46
3225
2156.45
1891.66
1621.43
1456.64
1354.53
1269.41
1196.3
1118.26
1038.46
959.931
882.246
809.049
731.62
674.777
610.891
10207.5
7881.74
7721.65
5726.29
3944.29
2730.47
2221.51
1870.82
1660.32
1514.24
1403.29
1307.72
1210.25
1111.08
1016.82
927.256
839.437
742.037
668.587
594.911
3741.08
8435.14
8451.85
5773.4
4147.5
3078.73
2493.74
2096.16
1834.21
1669.3
1532.88
1410.08
1293.24
1170.5
1063.19
966.126
874.532
767.768
681.331
589.156
11029.5
10819
8590.39
6087.13
4442.88
3366.84
2526.09
2090.82
1810.19
1658.14
1534.23
1403.62
1278.9
1145.47
1035.57
938.663
857.842
766.768
694.898
602.2
40905.6
10573.2
8631.09
6596.1
4355.95
2728.96
1701.61
1362.43
1197.7
1144.6
1109.53
1049.34
975.48
873.348
790.613
714.446
664.835
614.335
588.521
545.858
25757.2
6304.8
4068.29
2986.3
2135.92
1434.99
986.509
751.624
599.471
462.687
371.477
308.905
270.882
235.751
209.885
185.906
171.877
154.544
148.833
144.555
1327.22
3488.39
3496.94
2387.41
1458.06
994.923
704.085
483.628
349.064
272.477
234.635
214.104
206.022
201.635
203.055
199.082
197.244
190.662
187.978
177.17
47398.1
12455
4993.92
3084.08
2623.13
1422.53
1381.67
902.905
933.269
765.713
825.207
755.729
828.32
801.369
834.701
819.784
836.473
837.01
841.989
851.778
20479.1
9486.18
6563.27
3820.69
3212.92
1753.05
1650.71
1095.72
1136.67
910.889
952.998
850.148
885.272
838.635
857.844
836.917
847.996
842.448
843.416
848.687
27892
10341.1
7316.06
4259.35
2970.33
1819.86
1696.84
1150.66
1203.98
923.618
965.909
835.779
863.283
805.375
820.341
797.546
807.736
803
805.225
811.912
56677.8
13678
7701.35
4487.29
3228.58
1970.96
2000.11
1352.63
1404.97
1070.58
1067.32
909.533
907.716
835.105
836.706
806.342
808.851
797.873
794.806
794.888
37945.6
13845.8
7013.64
4270.27
3206.01
2165.52
2331.41
1498.94
1511.28
1122.19
1094.8
924.063
909.872
837.299
832.039
804.569
804.44
791.54
783.883
776.571
32505.5
11475.5
7298.56
4633.53
4084.89
2442.66
2568.08
1756.6
1656.1
1242.54
1159.72
962.514
935.725
858.027
859.304
840.867
841.219
828.306
815.702
796.27
24934.8
9930.95
5524.97
4157.08
3526.38
2477.53
2327.09
1924.93
1546.92
1203.59
1022.05
866.312
815.227
764.209
835.183
836.114
842.118
842.677
837.192
820.898
21900.6
12999
6169.7
3903.69
2842.82
2261.66
2258.64
1792.41
1418.6
1071.94
864.352
760.847
732.884
710.88
716.074
791.945
806.468
827.329
834.283
834.511
21502.1
10456
7268.9
3920.95
2800.67
2059.93
1948.9
1580.04
1281.5
968.072
749.018
645.053
640.287
653.198
666.901
754.339
769.873
792.518
802.408
811.43
10711.4
12828.4
9714.04
4595.44
3201.95
2270.13
1990.67
1547.02
1214.53
940.329
724.637
584.641
587.062
640.298
675.769
764.75
772.998
781.124
783.625
789.171
38458.8
13719.8
8744.51
4290.23
3261.04
2456.63
2230.38
1547.3
1196.34
963.862
825.605
750.53
744.475
732.092
750.297
838.545
827.793
811.222
799.102
786.479
10680
12604.6
10275.6
4921.96
4176.44
2714.2
2149.72
1589.15
1349.72
1094.17
1047.01
961.588
949.474
907.979
991.708
955.515
919.153
877.102
846.162
808.612
4597.53
11942.9
12923.5
6576.92
4637.47
2524.72
2352.01
1836.39
1641.55
1459.26
1398.58
1305.26
1263.1
1183.78
1124.41
1050.93
989.864
919.824
874.343
822.108
33588.2
13542.7
11223.8
5507.39
4303.57
2474.67
2494.19
1955.69
1887.06
1685.48
1639.98
1524.54
1445.86
1330.47
1232.74
1122.26
1033.12
941.569
883.424
824.717
8006.45
10339.6
10369.6
6235.65
4992.59
2944.19
2778.11
2158.22
2090.87
1847.61
1801
1654.17
1568.63
1407.71
1296.85
1157.07
1050.12
937.242
869.386
811.544
2239.17
9348.4
10399.9
6187.75
5170.87
3268.3
3070.19
2372.14
2292.66
2015.1
1950.57
1771.39
1665.18
1481.49
1355.23
1202.34
1081.83
950.965
870.918
802.536
12445.9
13272.4
10763.7
6243.98
5583.94
3693.4
3293.1
2518.6
2403.5
2100.01
2011.91
1792.84
1667.24
1454.22
1328.43
1175.62
1070.43
952.732
880.001
807.814
19454.7
15207.7
11417.9
7023.55
5112.66
2799.01
2399.53
1892.73
1851.98
1669.09
1617.75
1451.89
1339.18
1139.09
1038.61
924.185
872.119
814.96
793.583
754.641
14205.4
6731.58
4812.96
2859.94
1694.05
1145.46
886.459
683.776
508.399
383.597
319.906
270.926
234.527
197.48
171.515
151.478
140.262
132.746
134.019
132.749
714.367
742.392
540.16
885.658
731.098
807.799
582.146
529.19
476.717
357.393
680.198
559.239
503.838
380.957
522.67
687.388
612.243
801.593
575.285
775.583
684.748
334.429
587.392
519.387
499.776
377.727
656.567
584.926
124.706
132.763
73.5355
774.843
636.997
496.478
483.984
80.6259
75.3355
101.559
604.28
579.425
493.644
557.296
89.5263
109.477
132.32
583.599
661.994
570.462
614.122
153.072
141.851
150.211
690.097
640.244
623.76
589.587
105.429
147.281
114.776
583.927
419.28
551.397
417.219
60.4398
100.338
61.8987
375.449
291.158
373.334
286.052
51.8504
56.7192
56.1832
277.692
265.542
275.08
260.994
48.7115
57.6181
46.8452
264.54
267.901
256.8
235.391
79.7138
319.076
125.098
532.325
497.707
993.99
632.823
102.548
95.7903
89.4037
502.282
545.452
546.99
511.58
133.733
93.1699
104.006
553.444
583.591
498.047
484.432
146.145
108.156
115.371
589.552
562.121
483.861
462.025
117.173
114.725
102.785
531.757
417.388
442.505
365.27
61.8389
95.4556
60.9319
374.208
283.324
332.627
253.219
57.1561
56.7379
55.5987
271.87
254.544
241.03
219.651
45.9
55.225
44.0139
247.915
221.957
214.592
212.481
131.32
366.613
117.131
1206.68
653.818
945.563
538.083
85.4598
97.4638
94.6886
549.175
498.993
528.453
517.118
95.6937
96.645
96.3331
485.607
457.824
497.568
452.284
100.307
95.5361
87.7608
453.087
427.564
439.99
398.917
94.3368
83.4474
72.362
410.445
342.025
382.873
333.539
61.541
69.557
63.66
314.084
248.573
320.012
299.628
56.0821
63.6906
70.9277
238.049
226.229
299.722
306.436
46.7628
73.9663
62.3598
226.503
231.562
306.487
297.779
116.721
316.868
141.335
714.447
557.09
725.09
651.407
99.4442
119.601
100.016
566.528
532.025
616.773
530.099
101.108
100.447
99.4403
511.081
465.532
515.954
473.042
94.3951
99.4698
97.5928
452.281
409.65
458.55
424.421
75.639
94.9778
87.6803
394.143
350.031
414.694
384.059
68.5172
85.3776
80.2238
338.621
323.235
374.558
353.794
76.5675
79.0359
74.3594
323.252
324.204
348.188
328.103
62.0189
71.6988
51.4888
321.816
302.269
321.3
313.859
809.974
691.264
621.748
1493.87
1261.91
1119.25
984.648
755.072
625.917
667.505
1228.92
1141.62
965.579
932.835
797.596
675.164
702.729
1105.43
1026.07
920.327
879.209
697.556
704.387
642.692
983.296
780.994
855.339
725.079
464.665
598.963
454.725
710.14
552.965
671.057
524.628
341.756
411.186
329.831
516.252
451.795
488.499
424.331
312.187
318.71
298.836
438.965
413.972
412.126
380.969
302.531
292.385
260.401
407.632
395.082
370.763
337.534
631.279
1242.86
770.466
1102.16
977.736
1428.5
1065.14
649.701
693.736
617.03
955.272
895.28
1013.84
847.044
663.616
591.489
557.408
876.673
829.844
801.639
716.476
614.497
552.477
509.978
809.054
700.712
701.858
567.444
452.939
483.541
390.658
653.614
516.14
516.07
389.258
325.437
356.03
279.783
479.61
412.352
354.943
303.387
288.983
267.149
244.74
398.704
362.197
299.383
300.443
245.035
240.33
236.719
350.173
318.227
301.924
310.964
791.372
1152.05
705.05
1485.45
1073.92
1323.6
1069.22
604.981
682.754
614.852
1018.57
837.606
1019.07
833.7
530.211
584.739
521.532
786.963
691.169
781.683
676.181
477.871
505.451
456.847
675.197
542.431
650.815
581.657
368.304
438.702
383.55
492.204
367.903
558.23
492.041
273.474
368.638
346.375
336.717
298.33
475.752
451.28
254.779
346.025
347.989
300.277
323.261
448.286
437.271
257.57
346.587
327.764
329.483
334.856
431.167
410.752
738.777
995.813
836.969
1269
1103.52
1316.37
1142.39
627.976
764.296
638.911
1040.86
840.785
1044.08
879.179
533.602
615.018
548.165
791.097
683.963
834.074
710.396
466.309
527.277
484.693
656.884
589.994
677.598
619.941
402.12
473.25
437.4
569.943
515.428
604.29
556.836
372.136
426.435
403.655
501.878
478.42
543.298
516.459
366.535
397.343
376.409
473.797
456.009
508.947
486.687
333.836
369.602
354.977
448.163
421.198
479.917
468.576
1367.8
1263.01
1084.73
1874.82
1605.69
1600.89
1329.35
1218.41
1056.74
1000.39
1545.49
1351.3
1278.29
1152.02
1059.28
980.309
913.783
1277.89
1094.71
1108.51
970.79
791.724
881.532
736.332
1024.15
805.975
918.288
746.575
573.563
681.233
539.896
746.382
623.845
693.783
575.096
480.069
506.77
447.013
597.977
550.724
549.568
500.758
440.631
434.602
402.023
538.838
511.966
489.333
460.826
417.954
391.703
357.745
505.784
491.815
452.976
429.651
1070.71
1449.85
1140.5
1522.79
1293.84
1562.15
1316.26
957.671
1084.82
902.098
1239.47
1103.48
1242.51
1032.09
865.438
853.381
755.89
1060.79
932.473
976.382
848.084
788.173
803.12
798.685
858.83
768.8
818.801
822.802
595.542
616.167
637.551
672.289
590.187
623.533
644.3
432.324
327.836
302.344
531.971
479.042
360
364.399
381.036
305.821
319.674
466.493
436.034
372.374
388.327
337.844
322.639
331.161
428.197
411.203
392.171
401.959
1151.22
1380.17
1157.43
1592.78
1336.28
1605.28
1363.97
892.918
1095.53
886.925
1255.93
1022.51
1267.76
1012.46
731.652
830.858
715.261
961.936
828.677
948.812
810.417
687.64
671.593
694.729
745.734
662.513
634.493
728.772
497.364
409.93
531.455
357.163
488.556
312.252
541.282
299.132
503.051
477.571
365.45
380.041
568.387
538.781
345.645
473.498
459.048
391.203
413.95
532.521
514.557
354.749
452.293
430.504
418.075
420.234
508.145
490.252
1184.03
1435.32
1213.47
1611.81
1371.88
1708.17
1380.45
892.955
1111.48
940.227
1267.06
1016.35
1272.57
1086.89
721.669
889.312
750.622
954.462
813.629
1023.18
850.863
620.587
715.622
655.098
777.98
693.406
811.551
745.248
543.369
638.256
587.918
669.746
609.398
726.085
669.764
504.294
574.011
546.809
594.865
565.602
655.415
628.81
478.17
539.177
516.919
558.253
536.013
621.498
599.649
442.029
510.409
496.781
528.528
504.931
593.31
580.095
1666.08
1705.9
1397.97
2158.91
1832.46
1948.43
1612.08
1378.13
1340.13
1191.07
1730.51
1457.74
1534.45
1318.1
1096.13
1140.07
980.91
1367.28
1119.89
1245.96
1024.23
810.541
922.993
747.3
1038.89
856.781
951.471
772.903
640.872
696.578
586.186
814.391
724.967
730.096
644.897
574.211
562.781
518.066
705.033
676.955
628.163
606.774
537.528
507.937
484.064
669.818
653.003
606.103
603.942
516.118
477.646
455.399
646.875
633.304
601.024
585.532
1357.01
1619.02
1366.65
1847.91
1561.88
1834.64
1540.86
1143.73
1287.57
1070.54
1487.04
1281.78
1450.1
1216.44
946.891
1012.55
872.951
1213.4
1001.69
1148.15
957.766
733.396
831.016
645.759
932.638
759.648
897.735
732.017
569.108
575.209
436.264
715.315
621.517
677.077
552.458
494.333
413.038
397.32
601.858
575.542
527.26
503.115
458.91
401.129
415.401
575.804
580.341
508.304
543.927
437.54
419.788
426.967
579.583
570.976
551.004
556.574
1388.49
1700.46
1421.74
1883.02
1563.64
2032.61
1608.32
1060.79
1315.13
1049.15
1461.29
1207.13
1475.93
1188.61
855.954
983.959
838.846
1137.04
950.243
1119.86
946.595
640.752
801.355
705.029
894.515
735.586
897.84
781.244
443.273
675.997
603.564
683.171
563.848
750.193
676.764
414.112
586.909
557.032
539.76
518.835
660.882
643.33
439.007
551.006
534.92
525.054
560.729
644.28
643.573
443.615
529.162
510.92
566.834
567.276
639.887
623.573
1425.68
1813.85
1428.38
2072.35
1604.22
2143.53
1583.67
1052.23
1318.72
1128.91
1466.16
1186.68
1467.47
1272.58
841.564
1061.98
881.89
1120.28
951.09
1201.09
1001.38
714.686
841.77
774.546
904.126
798.989
958.639
893.81
628.88
754.903
697.742
772.953
710.965
875.901
817.348
585.006
683.454
657.904
697.316
680.03
803.31
784.32
557.402
650.877
629.33
678.298
668.418
779.286
757.676
526.259
622.918
607.607
662.873
640.367
750.148
731.312
1905.77
2051.95
1711.07
2763.61
2331.27
2614.55
2281.2
1508.73
1626.54
1388.17
2184.94
1970.7
2174.33
1903.82
1155.83
1309.21
1064.05
1872.88
1539.99
1811.46
1485.59
902.061
985.517
806.913
1442.62
1346.87
1391.89
1221.83
781.113
767.072
689.85
1322.17
1221.34
1190.27
1128.23
737.857
675.603
667.691
1199.17
1211.92
1125.96
1190.51
718.308
671.813
675.393
1219.14
1187.06
1201.27
1195.59
693.38
672.712
652.582
1178.96
1175.81
1189.97
1174.68
1659.26
1934.61
1630.03
2434.23
2228.83
2422.96
2186.31
1356.97
1536.83
1297.55
2138.29
1893.22
2097.9
1866.13
1043.68
1223.98
1008.13
1794.6
1473.59
1765.31
1467.52
791.067
940.505
769.052
1379.24
1196.46
1375.38
1176.58
662.25
716.874
596.783
1159.59
1086.66
1126.07
999.438
633.286
572.504
558.023
1081.38
1150.61
981.501
1049.06
653.699
571.312
619.552
1180.3
1183.97
1107.31
1159.47
638.862
626.451
624.834
1179.73
1170.09
1159.86
1145.28
1652.17
2181.41
1698.49
2452.18
2207
2760.59
2242.75
1288.88
1559.66
1267.98
2107.36
1862.44
2098.37
1824.43
1004.03
1197.13
1009.08
1762.17
1472.32
1741.85
1487.16
774.775
954.537
828.825
1383.81
1187.42
1414.56
1266.78
608.192
797.172
723.444
1136.66
1009.78
1233.21
1149.75
572.833
708.397
701.195
991.384
1058.77
1141.33
1201.55
634.265
707.813
712.53
1117.08
1169.77
1231.12
1229.38
634.281
709.159
688.015
1170.02
1161.56
1224.28
1200.42
1692.02
2293.78
1657.15
2804.16
2213.46
2884.08
2072.92
1263.09
1539.05
1345.59
2058.9
1795.38
1951.73
1795.29
1015.32
1273.61
1067.35
1731.53
1492.5
1732.97
1510
851.953
1023.2
961.091
1424.76
1300.71
1447.83
1420.56
763.38
944.137
884.581
1273.8
1206.04
1407.94
1348.96
742.992
870.489
854.696
1200.37
1256.3
1331.36
1340.07
737.611
850.389
827.702
1262.42
1250.01
1337.68
1310.48
705.385
819.521
796.398
1244.02
1232.47
1299.99
1275.42
745.121
761.493
685.392
723.078
730.399
773.043
695.338
763.16
764.947
702.74
764.393
739.126
791.573
679.534
701.916
631.92
621.884
438.877
689.434
632.267
542.546
802.397
874.36
835.816
856.859
829.191
841.715
812.527
755.67
728.171
783.968
708.659
780.054
702.423
763.193
779.566
782.999
832.228
759.605
813.341
690.567
790.758
715.295
446.905
663.086
678.456
640.853
553.814
731.93
549.872
570.034
503.925
540.102
544.7
578.779
510.378
519.149
577.696
420.945
373.244
528.961
571.097
321.053
466.051
441.417
380.701
297.121
480.328
432.077
294.994
600.17
676.93
633.86
655.191
629.064
649.446
606.359
555.469
549.846
593.41
526.764
586.289
517.329
563.493
519.617
376.158
598.351
446.825
575.469
322.545
541.665
468.406
297.881
457.289
410.655
434.516
295.927
495.617
637.736
595.502
575.333
420.824
620.468
510.882
587.797
692.068
687.496
661.808
719.752
661.186
720.938
692.169
660.827
602.282
637.032
639.2
632.644
628.042
665.557
719.826
770.693
753.261
786.324
664.525
759.878
750.048
666.98
435.214
666.026
648.088
531.139
614.38
700.722
720.392
748.844
777.753
743.967
750.879
719.347
745.409
687.18
663.195
674.586
713.919
652.391
691.004
710.745
463.924
362.528
416.831
274.024
450.578
281.61
426.502
561.553
570.829
562.725
613.112
538.765
594.712
587.615
532.092
483.612
539.784
543.7
509.423
506.283
564.245
521.478
369.049
444.404
597.715
324.565
565.654
552.175
487.297
292.645
397.307
485.635
295.562
453.058
514.602
583.662
635.999
638.648
629.793
617.52
609.807
604.282
553.889
565.385
549.008
605.667
528.506
586.032
573.995
557.881
708.492
496.706
1094.33
1064.21
989.464
813.21
339.829
355.114
274.962
961.053
693.181
666.24
550.711
178.687
214.063
197.438
525.341
505.853
507.63
527.736
165.188
204.038
208.195
512.384
500.671
577.308
567.819
138.511
200.844
170.406
460.186
400.942
509.302
422.418
103.662
129.42
101.815
332.393
283.139
336.97
275.486
88.2879
89.2534
86.1305
260.259
248.544
247.794
240.931
72.5502
86.1124
77.2369
235.29
250.087
236.905
256.66
425.76
408.353
256.32
838.458
731.14
689.841
504.99
285.679
237.002
252.537
400.262
353.244
344.724
180.738
247.522
85.4306
89.3359
245.354
236.764
238.254
89.0382
271.412
78.9495
95.7668
226.925
231.029
270.027
96.3535
413.374
139.574
124.794
361.087
406.099
374.988
144.567
357.939
139.982
151.359
397.459
354.859
400.31
141.131
209.228
77.9709
93.7781
231.136
199.856
241.969
80.2784
143.266
51.7503
54.022
136.513
131.127
147.679
51.6631
152.926
55.375
53.728
136.71
142.555
148.972
56.4315
86.6992
98.2267
66.996
231.245
243.964
203.715
204.376
230.301
504.844
431.029
678.559
545.92
993.79
969.574
269.717
92.6116
155.648
212.652
212.038
259.135
131.456
244.615
87.0352
86.2689
233.124
252.572
237.659
87.1676
310.424
118.437
105.343
308.887
323.919
297.587
112.908
351.897
145.386
133.279
367.121
374.431
345.589
137.367
323.466
135.467
136.153
359.911
338.035
341.698
129.563
218.166
87.7301
103.781
257.307
218.899
255.349
88.2521
147.809
56.0537
56.7614
151.762
150.168
148.703
55.9347
142.824
57.839
57.3376
151.604
149.75
147.517
56.6331
61.9466
86.3661
68.7961
179.846
187.737
183.121
199.171
668.868
1022.38
672.499
1498.86
1312.13
1494.6
1209.13
475.246
265.624
387.342
570.26
494.924
554.638
266.117
226.661
84.8523
96.9811
257.061
233.968
240.961
84.2152
254.128
93.3914
89.3282
255.589
259.526
251.241
91.977
245.869
98.3655
92.373
262.563
264.096
249.5
91.4604
224.313
99.4246
86.5696
259.772
252.634
229.719
85.4916
181.727
78.857
78.9142
214.767
191.828
196.866
73.1907
148.914
56.2808
58.5889
145.797
143.489
149.763
57.8121
158.614
56.6099
60.5252
140.842
141.109
155.293
62.8168
79.0186
119.77
89.6513
220.583
229.939
249.51
261.472
501.483
643.142
490.262
1113.2
786.083
948.694
752.498
311.699
203.647
300.395
371.771
297.861
374.598
217.335
281.222
98.5188
109.821
245.19
261.474
270.365
103.012
283.556
100.865
102.363
279.321
277.284
285.354
102.471
275.323
100.502
103.978
270.598
266.278
277.705
104.581
240.762
84.1576
97.1413
236.26
223.841
251.714
91.8759
207.002
69.5744
79.7328
193.801
187.397
212.949
77.2367
204.354
70.3045
76.0086
186.688
190.585
203.044
76.6879
202.266
77.6207
78.7156
200.793
200.044
205.123
78.1065
89.5548
115.175
98.084
263.021
274.317
264.245
277.757
231.393
342.85
225.102
482.363
476.254
489.384
478.458
162.171
176.7
161.392
459.622
452.102
454.282
406.878
151.394
151.51
139.177
433.878
422.685
379.715
371.211
139.797
136.457
131.45
391.616
372.428
357.645
331.369
128.99
126.82
118.535
358.518
340.464
310.51
296.532
116.105
112.576
109.425
320.602
305.875
289.187
277.273