/*--------------------------------*- C++ -*----------------------------------*\
  =========                 |
  \\      /  F ield         | OpenFOAM: The Open Source CFD Toolbox
   \\    /   O peration     | Website:  https://openfoam.org
    \\  /    A nd           | Version:  10
     \\/     M anipulation  |
\*---------------------------------------------------------------------------*/
FoamFile
{
    format      ascii;
    class       volScalarField;
    location    "5.3";
    object      k_0;
}
// * * * * * * * * * * * * * * * * * * * * * * * * * * * * * * * * * * * * * //

dimensions      [0 2 -2 0 0 0 0];

internalField   nonuniform List<scalar> 
12920
(
34.5222
268.687
485.531
423.385
338.853
303.508
262.565
237.522
208.676
189.92
176.156
162.911
134.659
104.334
86.3647
75.1366
68.2651
61.213
58.1158
54.3802
450.661
787.563
904.246
595.326
511.91
351.494
293.613
261.456
236.287
222.391
191.337
166.383
135.584
120.969
112.724
108.663
105.203
103.687
103.032
103.289
1070.27
3263.74
2176.22
1157.79
687.964
422.601
306.491
248.181
199.803
176.062
148.676
136.343
123.849
118.194
113.438
111.326
109.224
108.374
107.488
106.71
16892.4
8808.73
2119.44
1177.55
697.514
375.622
292.141
218.298
192.525
157.735
139.406
127.937
121.522
118.617
116.48
114.264
111.338
109.049
107.622
105.899
8624.56
3555.79
1668.09
1179.89
747.747
481.937
353.968
279.923
236.944
203.118
177.305
159.266
146.335
139.749
130.961
123.568
117.486
113.426
111.865
108.733
2573.73
2779.94
1575.72
951.635
817.013
445.978
407.858
307.018
256.73
215.894
192.916
175.003
158.812
145.879
131.98
122.271
116.564
113.698
112.752
110.346
2904.38
3638.15
2467.5
1847.85
1363.96
993.342
768.177
510.23
354.944
282.167
235.128
199.434
170.398
147.08
129.345
121.378
118.664
115.867
114.887
112.364
6710.89
5868.44
3232.13
2136.13
1468.77
1110.59
736.906
443.16
240.77
165.898
158.368
113.064
94.9538
85.9593
153.641
137.656
125.594
116.753
112.3
110.166
5237.63
2578.24
1361.61
1253.3
948.527
546.289
333.948
97.4971
78.0352
116.191
149.756
88.0391
53.7388
52.5062
104.645
126.697
113.036
106.508
104.126
104.978
1043.06
924.206
1283.32
1342.63
961.773
335.236
120.512
81.605
110.825
141.2
142.991
103.115
56.7815
57.899
86.1549
116.059
108.454
105.82
105.16
105.474
948.382
1815.86
1712.89
1733.05
1556.92
935.852
377.959
96.8265
90.7089
96.7858
100.033
87.5462
57.4087
56.2076
104.36
143.66
131.814
126.414
123.39
114.717
1382.16
1335.81
1628.12
1609.62
1284.76
774.027
286.882
101.603
100.78
101.104
89.0298
72.0031
68.989
77.607
121.936
165.744
154.257
145.088
139.805
125.475
420.143
1145.33
1262.63
1209.16
931.279
605.984
337.51
176.636
154.211
146.304
134.157
122.342
111.274
102.865
181.559
172.156
169.24
163.072
155.474
135.166
1371.03
1214.53
1412.44
1223.57
776.538
501.279
341.424
298.916
257.553
231.353
209.734
198.527
192.902
190.024
186.724
185.828
184.784
179.643
164.827
137.74
347.117
1095.7
1582.74
1199.7
721.364
618.01
479.885
444.953
360.825
305.03
258.667
237.973
224.698
217.415
209.936
205.71
201.319
190.925
167.912
133.934
52.7558
1131.26
1909.1
1578.16
1028.54
846.919
694.708
639.033
526.927
429.971
333.822
278.843
243.373
225.322
213.312
206.194
200.779
188.677
164.449
126.74
421.615
1776.99
2013.3
1509.5
1067.06
969.876
870.836
806.98
657.39
511.47
384.382
313.929
272.641
246.606
225.299
210.099
202.579
189.944
172.523
130.563
1428.82
1213.15
1088.82
1131.05
1086.09
996.212
861.001
738.132
571.872
443.863
354.829
304.743
273.96
250.885
230.43
214.336
207.458
198.306
188.012
153.114
3275.65
2000.88
1794.7
1795.04
1663.78
1196.75
717.745
465.257
321.687
244.623
208.831
191.973
179.738
164.429
152.707
141.072
133.273
123.701
122.587
119.767
111.275
752.573
1090.81
1187.67
1150.32
1033.85
781.912
512.554
308.394
209.975
171.243
147.426
123.633
104.444
87.1611
72.4615
60.4357
52.2381
49.1735
49.8721
42.3976
511.359
1138.63
1018.71
841.898
717.539
619.607
541.01
475.607
437.43
383.862
311.129
240.676
195.301
173.488
164.466
162.381
158.978
156.069
147.344
698.489
2363.73
1922.37
1317.99
1269.76
885.475
720.347
636.238
541.827
510.927
441.231
411.036
365.487
356.32
340.668
331.978
316.948
313.606
311.231
312.773
4598.93
6296.31
3725.12
2356.33
1408.1
991.525
755.71
614.008
513.694
460.879
401.638
383.855
351.146
344.492
331.399
328.362
322.045
321.345
319.653
318.75
10706.4
6146.47
3432.9
2616.17
1329.39
886.275
747.288
562.311
519.766
431.068
394.783
364.037
347.596
340.974
333.871
329.501
321.747
319.235
316.86
315.134
8029.15
6168.38
3863.71
2723.75
1678.03
1145.6
883.824
718.68
614.881
551.964
483.914
450.438
413.126
397.103
371.367
354.714
338.339
330.537
326.204
320.964
5214.81
6815.5
4010.01
2456.87
1919.13
1099.84
1069.49
799.152
670.663
582.007
525.072
479.875
433.019
403.42
368.391
347.646
333.647
329.689
328.09
323.938
8635.1
7842.19
4698.46
3820.33
2678.54
2141.2
1663.18
1179.53
855.141
742.487
617.354
544.225
459.275
402.893
354.287
337.261
330.521
332.843
336.4
335.112
15197.8
6433.47
4316.71
4040.99
2443.86
2199.77
1904.05
1453.87
894.358
785.141
612.178
460.198
384.111
338.699
349.141
338.408
331.473
329.674
330.417
332.507
9706.67
4025.48
3324.24
3038.66
1518.14
1244.03
1058.58
775.528
754.807
803.377
629.636
419.487
328.087
309.275
304.944
292.445
292.971
296.775
302.448
315.436
1562.86
3511.15
3504.33
3332.28
1996.8
1168.34
714.259
634.056
651.976
664.665
577.459
407.642
313.176
279.682
241.183
267.349
277.04
287.892
295.949
308.149
4873.43
5230.97
4416.8
4017.48
3037.56
2318.17
1407.15
691.304
577.509
521.961
452.859
336.786
263.3
256.724
288.352
319.689
320.542
323.876
325.037
321.363
4922.75
3348.65
3810.11
3414.3
2047.13
1623.21
968.857
728.782
597.26
516.157
449.419
390.016
371.687
362.091
348.31
382.97
380.835
376.688
371.65
351.595
2422.36
3157.9
3084.81
2752.34
1698.81
1213.02
883.223
771.015
650.364
538.896
496.719
440.209
413.154
394.299
449.952
447.786
444.097
433.599
420.572
384.166
5760.56
4853.56
4308.96
3072.17
1771.95
1242.82
893.2
789.114
696.127
623.777
576.556
546.533
536.144
529.526
522.112
510.238
500.323
478.041
448.241
395.864
2534.76
3483.79
4380.1
2929.71
1813.51
1515.37
1162.94
1077.62
904.367
828.163
729.722
688.816
651.326
628.391
603.775
579.969
554.471
514.768
463.462
391.399
375.786
3434.88
4503.59
3665.45
2465.8
2000.27
1576.33
1406.43
1163.38
1026.52
872.084
785.22
705.185
659.774
625.501
602.509
580.468
536.892
466.168
373.001
1232.25
4555.64
5118.46
3918.94
2655.52
2308.21
1885.23
1677.62
1357.04
1176.67
981.397
859.284
767.148
704.398
652.526
615.019
593.943
562.82
504.512
384.938
5832.37
6179.75
5064.6
3705.04
2722.79
2443.24
1894.81
1531.67
1160.92
1001.93
892.088
823.537
766.629
711.55
661.511
621.079
598.655
572.422
542.641
444.586
10790.3
6333.93
4974.5
4406.11
3352.43
2245.95
1271.35
754.629
532.71
495.592
499.634
520.932
522.107
504.271
472.527
442.149
425.935
398.058
385.108
354.573
231.925
1665.64
2120.28
2391.53
2258.65
1872.73
1196.16
681.647
455.085
398.056
347.35
289.755
243.116
209.965
186.221
164.879
150.608
140.61
139.102
136.536
116.248
1899.12
2446.46
1767.38
1156.15
908.19
762.859
641.074
548.641
467.055
383.649
300.306
238.993
204.723
196.317
196.031
196.774
196.071
194.663
187.577
2651.93
3914.17
3085.99
1964.31
1659.29
1127.78
901.954
774.135
647.87
604.834
524.223
504.759
481.753
487.699
482.612
477.749
466.709
465.933
464.738
465.872
6459.71
6235.15
4273.69
2785.63
1915.79
1256.99
991.574
781.886
681.723
607.38
553.445
532.092
506.585
500.36
485.558
480.381
471.662
470.222
466.939
466.189
8124.96
8056.69
4860.18
2981.87
1843.24
1189.64
1020.59
765.549
713.327
599.972
561.303
519.916
499.756
485.263
472.643
464.964
456.688
454.699
452.059
451.921
13583.2
9938.45
5248.5
3288
2137.88
1421.92
1227.6
965.515
849.627
732.797
650.604
596.808
552.305
525.756
497.925
480.586
465.866
459.18
453.749
448.986
18314.3
8881.73
4999.35
3097.79
2299.81
1450.32
1440.79
1105.13
950.253
795.702
702.584
628.302
570.234
531.294
498.319
478.71
466.038
460.055
456.045
447.653
24547
9465.25
5463.61
4160.03
3004.23
2320.75
1815.94
1449.19
1128.4
954.635
778.145
677.096
585.895
532.16
492.545
478.838
472.464
472.224
471.074
464.123
11350
6283.89
4237.37
3470.81
2339.23
2268.95
2116.45
1702.13
1247.94
1027.59
776.014
612.382
531.892
477.323
466.88
463.526
465.359
469.866
472.554
471.249
19511
6763.84
4137.18
2801.33
1706.23
1594.21
1621.45
1331.2
1170.69
1004.65
719.248
538.718
467.093
434.18
411.44
407.087
417.306
432.924
444.727
457.571
24362.8
9826.06
5358.35
3905.38
2141.43
1521.24
1220.84
1039.6
933.232
836.886
662.824
494.181
418.253
368.985
337.364
374.992
396.851
415.727
427.324
439.889
21023
9087.84
5835.12
4712.3
2897.23
2212.75
1482.29
1091.07
836.988
718.818
456.641
306.146
312.832
352.642
380.83
418.786
431.195
439.329
441.27
439.811
12838.6
6212.21
5265.21
3833.42
2152.51
1731.89
1354.51
1107.51
838.225
691.819
599.435
529.846
499.085
470.075
456.94
495.074
495.181
490.762
482.277
460.618
7165.17
6084.87
5221.24
3778.13
2310.15
1757.33
1401.91
1114.74
919.444
734.486
674.921
602.199
574.798
552.208
598.521
587.49
574.909
551.81
533.044
492.135
5658.68
9354.73
7088.65
4272.79
2583.9
1773.93
1343.35
1150.12
995.357
903.833
834.876
791.869
757.563
727.747
698.997
668.045
638.025
595.505
559.343
505.64
10482.3
5900.37
6336.48
3793.28
2518.21
1880.8
1531.44
1365.91
1179.59
1101.76
1012.49
960.362
900.099
847.91
794.192
742.724
690.626
626.518
571.73
502.614
2972.33
5531.28
5859.12
4815.53
3220.66
2449.69
1909.51
1650.75
1398.28
1265.2
1134.85
1054.14
969.287
903.144
838.604
783.944
726.199
647.792
573.308
486.994
1305.06
6496.29
7125.51
5133.36
3426.93
2784.93
2175.61
1871.59
1555
1401.19
1246.27
1142.68
1039.44
950.732
872.326
811.472
757.026
681.862
602.323
489.751
5149.84
8708.56
6859.56
5351.65
3726.65
2997.06
2144.39
1722.71
1415.09
1309.72
1207.32
1123.64
1027.44
936.863
856.681
793.036
743.811
681.75
626.529
516.63
18205.6
10044
6592.85
5743.69
3978.16
2507.8
1401.73
970.759
793.809
775.442
781.658
778.397
751.262
696.636
643.882
592.942
556.871
514.274
492.063
449.266
5045.91
3263.21
2813.85
2739.68
2453.46
1832.19
1126.76
727.087
566.67
464.463
376.671
309.763
266.655
234.084
211.247
187.874
175.954
163.322
159.207
148.793
2524.5
3907.95
3960.01
2808.09
1520.42
1030.42
815.75
638.265
515.957
395.715
315.659
253.666
221.798
208.426
209.787
211.563
212.779
210.835
208.846
199.623
9678.74
6117.07
4062.33
2578.62
1960.27
1269.62
1035.86
819.007
721.547
655.005
611.16
598.341
600.527
611.578
610.405
608.009
604.47
606.816
607.628
611.547
19528.9
7090.42
4874.1
3145.85
2323.94
1450.67
1202.15
902.541
834.312
722.688
694.559
657.446
646.046
632.618
622.909
616.257
611.424
610.893
608.505
609.598
9709.99
9407.17
5761.22
3412.57
2236.77
1443.62
1260.16
925.977
883.893
735.188
707.362
646.832
633.471
608.672
599.648
589.646
585.684
584.52
582.907
584.861
44424.5
14857.6
6211.05
3722.49
2495.4
1635.68
1517.74
1136.71
1050.14
863.83
795.317
713.558
675.922
638.005
616.662
598.704
588.843
582.556
577.04
574.156
18622.7
11517
5843.12
3534.78
2584.69
1725.26
1787.5
1289.75
1166.28
925.761
838.408
736.834
687.241
641.706
617.696
598.815
589.971
581.689
575.211
566.148
21827.2
9070.77
6145.76
4237.79
3311.17
2317.44
2001
1540.28
1290.18
1053.91
891.075
773.847
698.289
647.837
622.71
612.311
608.565
604.338
598.673
584.043
24664.1
7579.06
4793.96
3330.03
2649.16
2248.31
2092
1807.41
1379.57
1098.95
863.276
712.32
638.314
588.871
589.946
594.592
604.258
609.373
609.44
601.705
22951.4
9606.76
4923.09
2941.41
2134.13
1964.85
1952.13
1594.74
1295.29
1020.02
752.255
616.835
562.869
532.112
513.327
538.23
559.168
580.667
592.943
599.118
28060.9
8829.66
6355.38
3708.41
2254.9
1746.86
1608.31
1295.74
1093.68
892.604
681.785
543.08
483.085
453.068
447.175
502.302
531.214
554.113
565.888
576.455
13514.7
11222.7
6998.24
4560.69
2714.06
2066.01
1650.96
1298.79
996.614
820.325
572.208
424.069
421.276
443.672
470.92
529.081
547.853
558.493
561.822
563.388
30540.8
10105.1
6505.08
3908.17
2437.74
1952.06
1715.24
1308.69
987.066
803.075
690.112
614.481
578.294
550.608
549.036
606.599
607.251
601.049
590.174
571.997
25650.3
11718.1
7451.9
4457.68
2974.57
2192.27
1768.46
1339.92
1103.42
880.761
814.846
737.094
712.666
684.633
735.565
716.356
694.308
663.602
638.497
598.643
6867.53
11303.2
9850.72
5569.22
3385.56
2163.8
1726.01
1448.53
1251.59
1138.64
1058.03
1000.74
951.916
903.027
856.307
807.323
760.051
706.433
664.607
612.106
18174.5
9301.49
8548.03
4581.82
3216.4
2153.43
1891.5
1620.92
1456.3
1354.1
1268.99
1195.63
1117.28
1037.32
958.691
880.98
807.738
730.448
673.806
610.26
10097.5
7894.48
7763.59
5741.27
3940.98
2729.41
2219.51
1868.8
1658.7
1512.6
1401.92
1306.26
1208.65
1109.45
1015.18
925.603
837.671
740.387
667.256
594.12
3520.4
8430.62
8502.03
5768.06
4144.55
3077.57
2490.68
2093.28
1831.52
1666.93
1530.67
1407.93
1290.95
1168.38
1061.21
964.321
872.631
765.855
679.606
588.086
12272.8
10850.1
8611.46
6074.47
4432.82
3357.36
2517.81
2086.05
1807.06
1655.72
1531.87
1401.27
1276.41
1143.24
1033.57
936.979
856.19
765.141
693.296
601.085
41658.7
10449.6
8660.1
6617.95
4343.36
2712.18
1691.61
1358.57
1196.41
1143.8
1108.54
1047.92
973.574
871.517
788.967
713.127
663.718
613.449
587.762
545.298
23501.6
6004.31
4058.58
2976.15
2130.36
1428.48
982.828
750.528
598.552
461.59
370.706
308.45
270.578
235.479
209.631
185.727
171.724
154.442
148.808
144.609
1395.85
3552.2
3524.09
2353.33
1446.05
989.778
700.511
481.16
347.772
272
234.557
214.24
206.257
201.923
203.4
199.311
197.484
190.816
188.11
177.256
48619
11748.1
4881.9
3073.84
2579.83
1401.71
1363.82
887.948
923.269
756.354
817.499
748.087
821.268
793.757
827.159
812.074
828.883
829.344
834.539
843.336
20496.9
9218.17
6413.8
3767.42
3151.47
1724.08
1627.82
1079.5
1124.43
899.712
943.678
841.196
877.075
830.448
850.011
829.107
840.38
834.814
836.022
840.437
27993.7
10139
7153.17
4224.49
2912.83
1803.16
1675.26
1137.54
1191.98
912.749
956.741
826.97
855.375
797.585
812.988
790.244
800.629
795.869
798.327
804.161
56070.7
13534.1
7541.99
4458.11
3173.03
1952.57
1980.3
1334.62
1391.75
1057.64
1057.02
899.803
899.263
826.954
829.184
798.955
801.73
790.758
787.973
787.314
37139.4
13047.9
6822.81
4223.48
3154.19
2152.26
2311.96
1479.97
1497.47
1108.57
1084.2
914.349
901.445
829.363
824.714
797.435
797.498
784.547
777.173
769.199
31964.6
11181
7185.1
4607.51
4039.29
2414.48
2552.63
1736.01
1641.42
1228.41
1148.23
952.839
927.18
850.214
851.953
833.584
834.056
821.02
808.657
788.645
25604.8
9839.27
5452.55
4172.93
3482.78
2453.5
2324.94
1922.03
1541.23
1199.66
1018.22
864.452
813.624
763.168
828.125
829.228
835.17
835.62
830.179
813.158
22066.1
13090.5
6089.59
3920.95
2813.1
2258.3
2256.27
1788.95
1412.52
1067.32
861.286
759.573
731.998
710.137
715.073
785.429
800.165
820.684
827.62
826.974
22042.1
10479.5
7226.86
3925.59
2777.03
2060.4
1942.29
1575.74
1276.95
964.234
746.951
644.037
639.685
652.371
665.977
748.338
764.019
786.338
796.254
804.386
11278.8
12768.8
9468.27
4535.69
3166.26
2270.63
1988.23
1541.81
1210.41
937.574
722.909
584.076
587.25
639.72
674.835
758.826
767.15
775.101
777.718
782.476
39127.3
13846.2
8645.75
4279.08
3236.97
2458.63
2229.2
1541.36
1192.76
961.577
824.515
749.922
743.679
730.956
749.199
832.182
821.519
804.954
793.064
779.871
11116.2
12692.1
10160.5
4905.04
4146.44
2712
2147.72
1589.59
1348.35
1093.67
1046.42
960.975
948.648
906.843
984.388
948.45
912.157
870.341
839.718
801.837
4208.67
12057
12900.8
6540.79
4599.16
2511.84
2338.45
1829.51
1632.75
1452.04
1390.6
1297.47
1254.81
1175.58
1116.27
1043.09
982.251
912.683
867.682
815.29
33365.9
13607.2
11192.1
5488.71
4273.55
2473.61
2484.59
1948.88
1878.91
1677.7
1631.6
1515.65
1436.56
1321.17
1223.59
1113.6
1024.95
934.156
876.656
817.926
7762.42
10368.7
10395.7
6227.27
4976.08
2939.07
2768.54
2150.85
2081.95
1838.9
1791.79
1644.41
1558.41
1397.61
1287
1147.81
1041.48
929.596
862.611
804.875
2112.8
9370.71
10433.8
6192.73
5169.85
3273.11
3065.92
2367.9
2285.35
2007.26
1941.29
1761.22
1654.39
1470.83
1344.85
1192.56
1072.66
942.887
863.871
795.786
12932.7
13322.4
10769.9
6244.38
5576.39
3691.14
3285.28
2512.27
2394.82
2090.61
2001.51
1781.81
1656.02
1443.44
1318.21
1166.13
1061.54
944.747
872.871
800.938
19037.3
15114.1
11475.4
7045.85
5105.15
2793.76
2394.05
1889.41
1846.25
1661.54
1609.22
1442.32
1329.5
1130.05
1030.34
916.784
865.28
808.721
787.705
748.476
14395.9
6726.18
4810.2
2848.72
1689.16
1144.83
886.766
683.33
507.381
382.892
319.554
270.628
234.156
197.143
171.268
151.357
140.219
132.786
134.106
132.849
712.353
740.61
538.087
884.059
729.019
806.766
579.887
527.586
475.041
355.719
678.234
558.16
502.172
379.87
520.285
687.006
611.947
799.375
571.838
774.905
684.368
332.604
587.109
519.457
496.81
377.438
656.297
585.131
121.309
130.011
73.5796
769.403
634.613
495.056
485.146
79.8932
75.5674
102.013
603.942
580.577
495.836
559.195
89.5674
109.773
132.981
585.009
666.683
572.158
616.173
152.752
142.479
150.17
693.22
637.835
625.162
588.066
103.596
146.903
113.826
580.728
416.339
549.386
414.755
59.4845
99.2454
61.2487
373.172
290.343
371.013
285.415
51.5381
56.4067
56.2083
277.35
265.821
274.894
261.058
48.7599
57.6058
46.775
264.893
267.997
256.777
234.91
79.7494
316.799
122.756
530.66
498.616
991.323
624.869
103.006
94.6098
89.7264
504.047
546.939
544.595
511.658
134.294
93.3528
104.197
554.94
585.213
498.078
485.019
146.09
108.323
115.225
590.718
561.093
484.358
461.553
116.424
114.5
102.355
530.312
415.187
441.745
363.792
61.2067
94.6947
60.4106
371.906
282.687
330.893
252.659
57.1615
56.5306
55.5278
271.68
254.464
240.782
219.6
45.6949
55.092
44.044
247.698
221.265
214.568
212.639
128.567
358.359
115.613
1196.21
643.829
926.799
537.107
85.7892
96.9147
94.9966
545.283
499.228
529.979
517.347
95.682
96.8238
96.3847
485.596
458.097
497.587
452.525
100.158
95.5508
87.535
453.34
427.214
440.15
398.647
93.9229
83.1611
72.0849
409.868
340.789
382.495
333.283
61.1211
69.2994
63.6099
312.777
248.209
319.924
300.269
56.0264
63.6791
71.184
237.948
226.614
300.43
307.082
46.8842
74.0832
62.3086
226.969
231.906
307.006
297.488
115.874
314.302
141.086
704.113
558.964
719.958
649.293
99.6345
119.677
100.882
569.232
532.044
614.279
530.537
101.206
101.309
100.135
511.171
465.732
516.3
473.013
94.1577
99.9828
97.898
452.4
409.485
458.388
424.401
75.4132
95.1448
87.8321
393.912
349.956
414.748
383.968
68.5372
85.4524
80.3289
338.695
323.887
374.541
353.839
76.6876
79.0949
74.3215
323.93
324.684
348.278
327.957
61.8713
71.5837
51.5687
322.057
301.932
321.208
313.894
805.996
687.973
623.093
1487.57
1259.58
1116.65
985.398
755.512
627.855
669.218
1228.77
1140.89
966.68
933.742
800.276
676.829
704.406
1105.65
1025.32
921.224
879.459
694.301
705.546
640.88
981.893
776.929
854.863
722.674
461.734
596.7
452.27
706.489
550.767
668.504
522.75
340.968
409.031
329.328
514.789
451.397
487.122
424.082
312.319
318.553
298.802
438.827
414.073
412.012
380.808
302.679
292.264
260.108
407.85
395.089
370.564
337.278
632.503
1238.67
764.006
1100.19
978.717
1421.89
1063.72
650.878
692.245
616.36
956.384
895.612
1013.2
845.333
664.94
591.043
557.808
877.151
830.09
800.432
716.456
613.226
552.797
509.236
808.798
698.834
701.759
565.627
450.683
482.566
389.055
651.518
514.338
514.271
387.466
324.903
354.353
279.247
478.213
411.991
353.557
303.214
288.776
266.867
244.723
398.449
361.849
299.495
300.764
244.497
240.367
237.012
349.788
317.771
302.235
311.235
782.787
1135.02
704.084
1475.95
1071.82
1315.74
1068.84
604.363
683.877
614.438
1017.41
835.577
1018.28
832.021
530.344
584.361
521.622
785.461
691.02
780.465
675.841
477.337
505.495
456.565
675.084
541.017
650.536
581.367
367.012
438.335
383.321
490.73
366.616
557.919
492.029
273.175
368.604
347.07
335.891
298.657
475.984
452.026
255.253
346.792
348.6
300.839
324.153
449.017
437.618
258.072
346.994
327.704
330.243
335.255
431.365
410.686
740.584
990.439
834.892
1266.67
1103.39
1314.23
1139.99
627.513
761.794
639.649
1039.59
839.449
1041.78
879.434
533.642
615.569
548.213
790.171
683.612
834.047
709.978
466.148
527.157
484.9
656.606
589.841
677.174
620.169
402.094
473.505
437.457
569.815
515.56
604.556
556.894
372.792
426.547
403.851
502.158
479.015
543.435
516.725
366.892
397.571
376.442
474.344
456.204
509.238
486.853
333.775
369.681
355.247
448.249
421.221
480.137
468.784
1365.47
1259.08
1085.02
1873.02
1603.51
1596.27
1328.38
1217.18
1057.43
1000.94
1544.29
1348.83
1277.79
1151.33
1057.71
980.817
913.518
1275.92
1091.6
1107.71
969.202
787.742
880.598
733.866
1021.15
802.467
916.309
744.219
571.624
678.726
538.277
743.553
622.577
691.673
574.144
479.717
505.637
446.825
597.319
550.565
548.985
500.699
440.715
434.507
401.883
538.852
512.13
489.323
460.838
418.09
391.536
357.693
506.096
491.891
452.994
429.73
1071.33
1444.34
1139.59
1519.88
1293.07
1559.16
1314.88
957.738
1083.9
900.279
1238.77
1102.62
1240.7
1030.03
865.27
852.052
755.516
1059.94
931.145
974.705
846.996
786.976
801.934
798.145
857.843
767.821
817.366
821.979
593.393
614.055
635.463
670.152
588.094
621.519
642.097
432.008
326.479
302.458
531.249
478.851
359.842
365.166
380.717
306.288
320.09
466.351
435.934
373.093
388.814
337.643
323.021
331.547
428.121
411.18
392.621
402.278
1149.77
1375.23
1156.71
1588.96
1334.46
1604.51
1361.61
890.733
1094.17
885.041
1253.63
1020.11
1264.9
1010.18
731.282
829.466
714.793
960.035
827.661
947.036
809.59
687.832
669.239
694.25
743.692
662.147
630.536
728.007
497.925
407.405
531.375
355.29
488.43
310.775
541.949
299.919
503.355
478.288
366.036
381.263
568.748
539.343
346.558
474.175
459.355
392.348
414.673
533.032
514.816
355.24
452.477
430.58
418.669
420.617
508.34
490.324
1183.16
1433.9
1211.4
1612.52
1369.18
1707.74
1378.48
891.47
1109.5
940.54
1264.11
1014.49
1270.79
1086.97
721.21
889.234
750.188
953.008
812.85
1022.67
850.181
620.436
715.213
655.409
777.364
693.209
811.028
745.532
543.54
638.578
588.05
669.642
609.603
726.332
669.886
504.852
574.212
547.16
595.184
566.04
655.605
629.171
478.351
539.538
517.168
558.64
536.2
621.854
599.92
442.222
510.712
497.135
528.685
505.132
593.613
580.292
1663.87
1699.29
1396.62
2157.9
1828.81
1940.53
1608.54
1375.19
1339.23
1189.93
1727.4
1452.68
1531.21
1314.78
1092.84
1138.82
978.96
1362.5
1115.19
1242.56
1020.79
807.255
920.762
745.052
1035.03
853.736
948.201
770.763
639.776
694.643
585.398
811.963
723.805
728.39
644.158
574.079
562.316
518.05
704.447
676.682
627.668
606.686
537.694
507.972
484.134
669.646
652.905
606.07
603.845
516.306
477.722
455.645
646.871
633.087
600.911
585.312
1355.78
1616.28
1364.95
1842.06
1558.44
1831.52
1537.19
1142.52
1285.48
1068.38
1483.81
1278.58
1446.25
1213.11
945.22
1010.73
871.283
1210.18
998.587
1145.08
955.377
731.383
829.882
643.377
929.719
757.653
895.702
730.144
568.185
573.116
435.345
713.669
620.712
675.377
551.698
494.19
412.583
397.879
601.261
575.396
526.8
503.303
458.898
401.747
415.887
575.728
580.256
508.707
544.19
437.709
420.236
427.408
579.476
570.692
551.165
556.457
1386.29
1699.93
1418.77
1880.11
1559.43
2031.46
1602.71
1058.34
1311.88
1046.79
1457.02
1203.67
1470.69
1185.24
854.556
982.097
837.897
1133.98
948.018
1117.03
944.758
638.481
800.567
704.607
892.59
733.912
896.29
780.435
443.168
675.701
603.741
681.734
563.467
749.577
676.616
415.059
587.226
557.534
539.566
519.247
660.862
643.533
439.667
551.468
535.163
525.67
561.058
644.446
643.41
444.085
529.35
511.084
567.018
567.164
639.661
623.158
1422.41
1812.52
1426.31
2071.14
1598.42
2141.21
1579.94
1050.25
1316.95
1128.94
1461
1183.62
1464.7
1271.55
840.674
1061.38
881.203
1117.64
949.318
1199.39
999.832
714.455
841.251
774.866
902.648
798.32
957.376
893.533
629.061
755.168
697.885
772.445
710.792
875.543
816.894
585.404
683.667
658.274
697.257
680.079
802.95
784.08
557.575
651.242
629.585
678.268
668.147
779.063
757.236
526.557
623.195
607.844
662.571
640.044
749.757
730.739
1902.05
2043.13
1706.6
2695.58
2265.72
2540.38
2218.83
1502.54
1622.21
1383.52
2129.26
1910.19
2114.41
1848.19
1150.23
1304.46
1059.53
1818.56
1490.17
1756.97
1441.48
898.472
981.361
804.293
1401.04
1302.89
1350.79
1185.95
779.28
764.912
688.637
1281.36
1181.63
1155.23
1094.51
736.959
674.618
667.054
1163.21
1172.73
1091.64
1149.54
717.47
671.156
674.599
1181.18
1148.18
1160.24
1155.14
692.732
671.863
651.968
1142.11
1135.89
1149.69
1133.72
1654.93
1931.96
1625.5
2375.58
2169.17
2364.79
2129.4
1352.49
1532.02
1293.13
2080.16
1838.12
2042.01
1813.87
1039.5
1219.82
1004.81
1741.89
1430.94
1716.66
1427.64
788.606
937.642
766.859
1339.49
1162.45
1338.12
1145.04
661.032
714.919
595.705
1126.59
1055.26
1095.89
972.624
632.657
571.713
557.871
1049.42
1111.7
954.785
1015.72
652.906
571.334
619.094
1139.08
1143.49
1069.63
1120.11
638.184
625.872
624.287
1139.45
1127.74
1120.72
1106.24
1647.12
2179.74
1692.02
2398.53
2150.67
2698.49
2187
1284.38
1553.54
1263.66
2052.11
1810.96
2045.47
1776.12
1000.88
1193.35
1006.35
1714.36
1433.06
1696.32
1449.75
772.778
952.154
827.418
1346.99
1156.2
1379.3
1235.35
607.422
795.996
722.792
1106.86
983.359
1202.56
1120.66
572.878
707.9
700.859
965.032
1025.87
1111.79
1165.36
633.849
707.297
711.576
1079.84
1130.62
1192.21
1190.85
633.695
708.113
687.096
1131.05
1120.9
1185.87
1161.85
1685.5
2291.31
1653.58
2749.94
2160.49
2820.32
2035.57
1259.17
1536.33
1344.36
2009.02
1749.9
1908.14
1760.6
1012.68
1271.45
1065.2
1686.58
1455.38
1691.15
1477.53
850.683
1021.37
960.277
1389.64
1268.71
1411.33
1388.66
762.657
943.225
883.498
1242.22
1175.34
1371.18
1316.19
742.379
869.495
853.771
1169.02
1218.01
1295.33
1306.08
736.506
849.45
826.477
1224.02
1211.77
1300.61
1275.6
704.515
818.338
795.263
1205.85
1192.32
1263.15
1240.83
743.422
759.821
683.495
720.992
728.919
771.214
693.236
760.621
764.409
698.946
762.517
737.733
790.852
676.833
698.484
629.216
619.112
435.504
687.201
628.393
538.926
801.029
873.054
833.976
855.551
827.536
840.651
810.992
753.808
726.069
781.957
706.468
778.113
700.216
761.259
776.548
781.161
831.067
756.389
812.445
688.137
788.92
711.768
443.443
660.129
675.633
636.857
550.19
729.475
547.923
568.104
502.147
538.693
542.689
577.012
508.722
515.769
575.013
419.527
370.475
526.265
567.481
318.507
463.178
439.432
379.423
296.173
477.777
429.749
293.402
598.07
674.855
632.131
653.042
627.181
647.225
604.383
553.62
548.61
591.993
525.427
584.696
515.798
561.793
516.103
373.328
595.388
445.357
571.699
320.141
538.941
465.579
296.878
455.505
409.108
432.199
294.692
493.303
638.359
593.67
575.17
418.312
620.205
507.649
588.484
691.622
687.091
661.468
719.278
660.812
720.401
691.761
660.477
601.924
636.717
638.892
632.286
627.73
665.202
719.574
768.933
750.152
785.273
659.982
758.8
748.944
667.437
432.638
662.549
647.825
527.44
615.067
700.007
719.824
748.275
777.024
743.392
750.235
718.856
744.711
686.71
662.859
674.053
713.443
652
690.596
710.107
463.953
359.276
417.22
273.509
450.51
281.272
427.871
561.302
570.432
562.498
612.852
538.394
594.393
587.439
532.011
483.615
539.669
543.847
509.206
506.475
564.203
522.254
367.326
441.683
597.807
323.382
566.439
552.577
487.707
292.6
394.836
486.728
295.564
454.859
515.39
583.447
635.744
638.242
629.654
617.196
609.66
604.028
553.864
565.583
549.259
605.7
528.765
586.041
573.989
554.324
702.009
490.07
1094.88
1062.53
982.385
805.631
335.48
350.97
272.173
955.074
682.092
661.389
547.368
177.146
212.555
197.669
522.326
507.05
507.755
530.82
165.074
205.05
208.899
514.441
501.77
579.505
568.602
137.398
200.717
168.951
459.046
399.253
506.651
419.694
102.934
128.219
101.096
331.108
282.356
334.575
274.146
87.9549
88.9773
86.1037
260.04
248.499
247.376
240.991
72.5548
86.1641
77.5339
235.547
250.37
237.114
256.71
417.348
402.779
252.867
835.179
723.558
685.146
501.04
282.212
229.072
246.597
392.516
347.905
339.834
176.496
248.743
84.627
89.1007
245.388
236.959
239.022
89.1045
271.506
78.1605
95.6056
227.118
231.81
269.857
96.2808
416.055
140.536
126.86
368.061
410.888
379.628
145.752
355.467
138.329
151.045
397.347
353.105
398.412
140.013
207.353
76.574
92.6615
229.728
198.398
239.78
79.2851
143.351
51.2998
53.6013
136.356
131.323
147.262
51.4647
153.32
55.2334
53.8375
137.643
143.366
149.518
56.5203
86.4623
97.917
66.7749
231.376
243.722
203.405
203.964
228.758
506.149
432.877
673.7
543.653
997.905
971.059
269.868
92.0119
155.6
212.09
211.963
260.885
131.112
246.259
87.4947
86.2002
234.439
254.401
238.015
87.3716
311.709
118.948
105.8
310.321
325.489
298.881
113.369
352.628
145.629
133.616
368.441
375.29
346.68
137.528
322.661
134.789
135.866
359.064
336.957
341.098
128.978
215.76
86.5031
102.78
255.267
216.513
253.456
87.0444
148.023
55.9536
56.5101
151.615
150.361
148.633
55.8503
142.422
57.7396
57.2599
151.761
149.697
147.517
56.4364
61.8661
86.2685
68.7821
179.67
187.572
183.213
199.19
664.182
1020.22
664.594
1502.42
1305.39
1494.63
1192.75
469.138
260.906
381.009
565.047
488.857
548.015
260.884
226.706
84.4042
95.6105
253.927
233.567
238.842
83.8455
254.642
93.4693
89.5927
256.454
259.983
252.207
92.0731
245.884
98.3197
92.2973
262.866
264.291
249.661
91.304
224.017
99.1728
86.3181
259.52
252.271
229.448
85.2437
180.915
78.0654
78.4222
213.586
190.452
196.077
72.6599
149.246
56.1948
58.4205
145.827
143.656
149.897
57.7565
159.106
56.6063
60.6726
141.099
141.439
155.934
62.9137
78.9247
119.498
89.4842
220.701
229.827
249.422
261.249
494.738
638.788
489.044
1102.56
773.034
941.9
748.228
310.357
200.863
297.013
366.519
294.736
371.845
214.972
282.174
98.6251
109.355
246.514
263.509
271.339
102.892
283.992
100.976
102.494
279.981
277.801
285.91
102.564
275.577
100.527
104.121
270.965
266.487
278.05
104.659
240.603
83.8864
96.8795
235.981
223.582
251.536
91.6199
207.186
69.45
79.586
193.745
187.584
212.991
77.1696
204.929
70.492
76.0511
187.261
191.428
203.53
76.8029
202.279
77.5819
78.6698
201.151
200.276
205.278
77.9921
89.5582
115.096
98.5456
262.969
274.211
264.125
277.471
230.162
340.821
224.205
481.036
476.506
487.825
478.161
162.279
176.797
161.86
460.267
452.8
454.25
405.975
151.463
151.928
139.628
434.275
423.011
379.194
370.973
139.763
136.849
131.824
391.468
372.422
357.405
330.86
128.881
127.124
118.775
358.6
340.33
310.101
296.406
115.988
112.765
109.676
320.534
305.819