/*--------------------------------*- C++ -*----------------------------------*\
  =========                 |
  \\      /  F ield         | OpenFOAM: The Open Source CFD Toolbox
   \\    /   O peration     | Website:  https://openfoam.org
    \\  /    A nd           | Version:  10
     \\/     M anipulation  |
\*---------------------------------------------------------------------------*/
FoamFile
{
    format      ascii;
    class       volScalarField;
    location    "5.3";
    object      nut;
}
// * * * * * * * * * * * * * * * * * * * * * * * * * * * * * * * * * * * * * //

dimensions      [0 2 -1 0 0 0 0];

internalField   nonuniform List<scalar> 
12920
(
0.081749
0.873022
1.11797
1.49533
1.01268
1.12686
0.868178
0.854551
0.695877
0.648601
0.579485
0.554745
0.474078
0.414573
0.355461
0.323153
0.293477
0.263814
0.24952
0.218464
1.42167
6.21455
3.2371
5.49136
1.92643
2.63321
1.33022
1.65566
1.1768
1.28713
0.978268
0.90717
0.692064
0.633841
0.57629
0.568011
0.546189
0.544386
0.54728
0.523942
0.973254
8.01882
5.21437
4.74728
2.4203
2.53915
1.41683
1.59022
1.05113
1.09233
0.821485
0.810229
0.688799
0.679218
0.635996
0.640046
0.623025
0.625448
0.624519
0.583729
12.6372
21.8549
5.29121
6.60767
2.71665
3.32026
1.47914
1.8137
1.08163
1.1374
0.826444
0.850481
0.736567
0.752861
0.708272
0.705996
0.674303
0.658732
0.647569
0.593795
12.7221
14.1629
5.39147
7.72979
3.02775
3.28887
1.73728
1.7826
1.25295
1.23016
0.98081
0.950654
0.835475
0.830426
0.763347
0.735457
0.692651
0.671486
0.663394
0.604823
10.5685
11.8697
5.2775
6.95499
3.3564
3.80202
1.93887
2.01576
1.35097
1.3004
1.07297
1.04687
0.922574
0.877191
0.788511
0.741808
0.701602
0.681126
0.673125
0.614995
6.33095
13.4832
8.48145
9.60082
5.01046
4.43443
3.11285
2.32691
1.61095
1.4426
1.19413
1.08854
0.937195
0.852479
0.750214
0.718177
0.695133
0.66985
0.65869
0.604095
17.2038
16.8376
9.78027
8.76848
4.82837
4.13649
1.15198
0.767255
0.442509
0.381486
0.389507
0.308547
0.264927
0.259114
0.945507
0.823492
0.727989
0.663876
0.636896
0.588604
15.4535
12.0212
5.06266
7.94861
4.21356
1.45533
0.361972
0.102507
0.079949
0.124902
0.181088
0.118009
0.0756056
0.0775438
0.306171
0.726344
0.644525
0.604068
0.595365
0.567963
3.21434
6.89853
5.0976
8.17483
4.61242
1.3039
0.226825
0.124414
0.159532
0.184306
0.182756
0.135778
0.0801385
0.0834953
0.238367
0.673072
0.639034
0.625844
0.628102
0.593432
1.94767
9.48688
4.94656
7.24318
5.66199
2.00254
0.43172
0.123355
0.125866
0.137097
0.136743
0.117636
0.0781353
0.0761379
0.288388
0.873916
0.808912
0.771619
0.753737
0.656197
3.80218
8.15131
5.6661
8.96032
5.30353
1.83822
0.360551
0.136336
0.153705
0.153901
0.128897
0.102374
0.0950738
0.10421
0.345793
1.01454
0.94594
0.88048
0.845045
0.713668
0.501419
6.5016
3.84665
6.89327
3.75666
3.77071
0.914469
0.620357
0.554216
0.555536
0.466306
0.395282
0.337266
0.30505
1.11443
1.04989
1.01839
0.96744
0.917584
0.75774
2.72728
5.27814
5.30838
7.84515
3.40196
3.42088
1.9052
2.17251
1.71093
1.61967
1.36575
1.28561
1.19457
1.1656
1.11692
1.10574
1.07694
1.03569
0.951259
0.764426
0.326809
6.87446
5.09965
7.78614
3.6013
5.56705
2.95779
3.1546
2.16771
1.83387
1.46764
1.33758
1.23342
1.19374
1.14634
1.13005
1.10227
1.05224
0.935825
0.73243
0.0749699
5.55447
8.42656
8.88604
5.32509
6.27617
4.09196
4.10048
2.98877
2.45874
1.79501
1.49301
1.26395
1.17647
1.10222
1.07146
1.04067
0.989648
0.879777
0.682681
0.526662
9.37391
8.49095
8.74597
5.83923
6.69809
4.71716
4.52335
3.28247
2.54429
1.83664
1.53281
1.3288
1.22635
1.10956
1.03873
0.995617
0.941758
0.870243
0.672553
2.70559
4.45985
2.59965
4.20676
4.29905
4.85353
3.8253
3.3821
2.48006
1.95769
1.55795
1.41783
1.29352
1.22201
1.12139
1.0553
1.01744
0.977221
0.931932
0.754781
6.68441
10.1283
7.72941
9.41625
7.66095
6.41094
3.50372
2.40706
1.55012
1.18799
0.994591
0.937407
0.875872
0.817574
0.761269
0.719358
0.683625
0.647938
0.65514
0.622014
0.350086
5.87306
4.86083
6.73044
3.95754
3.45697
2.37465
1.65369
1.0797
0.844716
0.700263
0.627356
0.526533
0.456186
0.38183
0.3255
0.276502
0.243862
0.232373
0.220929
0.112858
2.54639
6.17251
14.2681
8.04284
10.2914
6.38222
6.60358
4.94531
4.81721
3.86912
3.19615
2.52214
2.34679
2.14806
2.10176
2.05718
2.02708
1.97764
1.74861
1.69733
22.3828
22.2541
21.5495
25.0849
20.2233
19.2217
17.9909
16.5428
15.9762
14.6864
14.2444
13.2867
13.1929
12.6043
12.3153
11.8465
11.9411
12.0271
12.472
6.3228
31.0765
25.6836
24.7265
21.7077
22.1087
20.8009
18.8952
17.4412
16.4292
14.9481
14.4286
13.2174
13.0734
12.8988
13.1836
13.2962
13.5834
13.6939
13.7554
14.9318
30.591
28.6026
28.5044
20.153
20.6197
20.5363
17.565
17.5771
15.7167
15.073
14.393
14.0644
14.2336
14.2492
14.335
14.119
14.0982
13.9774
13.8112
25.2532
43.9443
39.2164
37.1914
28.9595
23.7934
19.9787
18.3096
17.2029
17.1632
16.2908
16.0805
15.348
15.2956
14.7311
14.5265
14.159
14.0885
13.949
13.758
12.0557
47.1333
46.9138
38.0275
33.8742
23.1516
21.9474
17.3456
16.2198
15.8625
15.7828
15.7749
15.1277
14.9511
14.2145
13.9752
13.7652
13.901
13.851
13.6729
38.6922
54.2593
41.8688
38.1118
31.5119
28.9035
22.6288
16.7263
14.8514
16.0005
15.9292
15.689
14.7661
14.3458
13.4061
13.4257
13.4597
13.7687
13.9165
13.781
40.8955
33.0294
33.2082
26.4792
22.074
22.294
18.1376
14.4391
9.95059
14.1991
14.9395
12.7258
12.2204
12.3704
14.8264
14.1519
13.7445
13.6283
13.6611
13.6817
28.8358
21.7535
31.9351
33.0027
18.8232
14.9484
12.1341
9.94533
11.0755
14.9725
15.4948
12.0409
10.7672
11.7772
12.9002
12.4221
12.4263
12.6839
12.9951
13.4746
3.58111
22.3126
29.6199
35.6176
25.0533
16.073
11.8512
11.8784
16.3382
17.6227
16.2265
12.1497
10.9383
10.9497
9.75313
11.3343
12.0106
12.6117
12.9629
13.4143
9.91557
31.6442
36.75
39.2323
33.3117
24.3975
15.2879
9.12278
14.0681
15.8982
13.6551
9.99245
8.34402
9.0183
11.0665
13.627
13.6945
13.7393
13.6636
13.5415
21.775
21.4255
32.3709
36.2615
23.0234
16.9426
10.3034
10.3485
15.3721
15.7009
14.438
13.0037
12.5887
12.4431
12.9748
15.3312
14.9969
14.7516
14.4894
13.8658
8.03245
24.5369
27.6015
28.5958
19.5187
17.8797
13.6256
14.8868
16.558
16.676
15.8082
14.5692
13.8864
13.6444
16.662
16.4634
16.23
15.8169
15.3436
14.3521
13.3014
31.946
38.8938
35.5685
26.23
21.8709
18.7182
18.3448
18.0594
16.8077
16.503
16.2875
16.9065
17.413
17.6365
17.4614
17.1563
16.4501
15.559
14.3861
6.05573
12.168
42.1829
39.1057
31.275
28.816
23.9264
23.3329
20.8062
19.9831
18.3517
18.1223
18.0494
18.3332
18.4069
18.1979
17.6496
16.7669
15.3741
13.9891
2.01074
21.4787
36.7758
42.805
38.7133
34.5796
30.1696
27.9677
24.857
23.2556
21.0712
20.1024
18.849
18.4025
18.0786
17.8987
17.5102
16.5074
14.6153
13.0175
2.25955
27.0888
38.0175
43.6022
37.6866
34.8327
30.35
27.7898
23.8171
22.3042
20.4797
19.856
19.4026
19.072
18.3896
17.6698
17.2143
16.4087
14.8177
12.4983
14.3706
26.7153
23.4261
24.7644
28.3372
32.5562
28.4153
24.0879
19.1729
17.9529
17.8449
18.6911
19.4261
19.3901
18.9392
18.2301
17.654
16.8452
15.8727
13.6337
36.0656
30.4101
28.4432
36.1569
37.4592
32.1548
21.7314
14.0766
10.9001
11.4683
13.1183
15.1392
16.0785
15.9959
15.3075
14.8086
14.7141
14.1447
13.9065
13.3598
0.733815
10.2382
15.9723
27.3628
20.1008
18.0094
10.355
6.12926
4.50554
4.64091
4.13278
3.54326
2.96295
2.60383
2.31528
2.09774
1.95222
1.86874
1.87035
1.74043
0.232975
11.2294
15.3346
23.958
11.1926
13.1492
7.89875
7.89241
5.75982
5.26931
4.07229
3.44641
2.87376
2.7344
2.64523
2.72629
2.70459
2.70549
2.66207
2.38385
7.29887
41.248
42.57
37.5827
37.0588
30.1973
26.0524
23.4865
20.7445
19.9662
18.5412
18.6978
18.9758
19.5965
19.8336
19.757
19.5157
19.5922
19.6982
19.8087
27.5294
42.6954
45.6945
44.7949
41.3934
35.8309
31.9028
28.1378
26.0619
24.3307
22.9922
22.3976
21.7888
21.7736
21.6706
21.7669
21.7172
21.795
21.7289
21.6423
23.8097
37.5476
56.9379
49.534
40.8875
35.5213
32.9975
28.7154
27.6583
25.2526
24.2644
23.3758
22.9669
22.8281
22.5865
22.4116
22.0848
21.9596
21.7516
21.5285
28.1655
70.117
63.6427
56.8265
46.5194
37.9367
34.0463
30.4832
28.9429
27.38
25.8314
24.8849
23.9112
23.4736
22.7904
22.3887
21.962
21.748
21.4932
21.2341
65.7144
68.9245
65.7601
56.0925
47.7086
37.316
34.7752
30.5251
28.77
27.3639
26.0292
25.1133
23.9613
23.2959
22.4565
22.023
21.6896
21.5268
21.338
20.9588
71.965
68.8246
60.077
55.2152
46.6683
40.8505
33.206
29.5509
27.977
27.5457
25.8591
24.8397
23.4521
22.7654
21.7716
21.5423
21.3566
21.3264
21.2234
20.9238
49.9234
57.8789
52.0973
44.8835
34.2054
33.5997
31.0849
24.6996
23.6304
26.3816
24.591
22.0414
21.3972
20.7983
20.4326
20.2911
20.3873
20.6738
20.8225
20.7958
40.4252
52.3973
51.3081
44.2507
29.9956
27.8777
25.4092
22.7413
22.8835
25.9925
23.6417
20.0818
19.2228
19.0254
17.9381
16.8964
17.9098
19.0378
19.7743
20.3451
39.7105
46.1687
49.6075
49.2833
34.8935
28.9224
24.5354
24.9739
27.1778
26.7735
22.7357
18.2664
16.7485
15.1353
13.3031
15.6556
17.5567
18.8903
19.557
20.0951
44.4088
49.4335
49.8311
52.4124
40.677
33.3298
24.6718
22.6081
25.6246
17.1329
6.84497
5.49414
8.32187
12.3757
15.6745
18.3342
19.4689
20.0715
20.2059
20.1704
41.629
39.7773
45.0158
49.1824
34.2956
28.4405
23.8258
24.7527
26.9047
24.8968
22.5089
20.2439
19.4776
19.0858
19.388
21.1282
21.4415
21.4846
21.2081
20.5458
44.7588
42.0365
46.3857
46.4905
36.3995
36.0029
30.1393
29.9634
29.3737
27.0243
25.5439
23.832
23.1851
22.7318
24.3464
24.1143
23.7175
22.986
22.3734
21.2346
9.62434
43.8319
60.215
54.5375
46.5032
40.0362
35.1602
33.421
31.5743
30.0168
29.0544
28.4991
28.1912
27.6561
26.9311
26.0278
25.0247
23.7405
22.6615
21.4771
19.3386
36.9305
60.1284
59.566
51.4052
44.8561
38.71
36.3605
33.3957
32.3786
31.0696
30.5175
29.8084
29.063
28.0384
26.8465
25.4271
23.9293
22.4523
21.2827
12.0345
32.0391
41.7436
59.1799
57.1291
51.0788
44.1153
40.4814
36.7407
35.0273
33.2023
32.0541
30.5743
29.2953
27.965
26.7047
25.2341
23.5223
21.7089
20.5789
3.54957
41.6102
50.2839
60.7866
55.7757
50.5465
43.1232
39.1258
35.3223
34.2237
33.1344
32.4618
31.2672
29.7639
28.0727
26.5039
25.0518
23.1978
21.4154
19.9722
11.8495
37.9115
33.5606
44.0818
48.987
48.4434
40.1333
34.5127
31.066
31.1022
31.3883
31.5259
30.772
29.3034
27.6651
26.0941
24.717
23.0616
21.7543
19.7722
32.0831
38.8672
44.0513
54.1641
50.3818
40.1604
27.4215
20.9731
18.8942
20.265
22.6852
24.4128
24.9466
23.987
22.8776
21.7379
20.944
19.9862
19.6187
18.7166
7.99162
29.6027
29.8597
29.3819
25.667
19.2773
10.8103
7.59161
6.39481
5.9742
4.89943
4.26199
3.69159
3.35811
3.02873
2.73781
2.55943
2.391
2.33791
2.05872
5.21721
24.3207
25.2058
30.184
13.6849
13.9311
8.33386
7.45614
5.39617
4.45515
3.66327
3.29009
3.01743
3.02969
3.02912
3.13116
3.11287
3.08091
3.01698
2.66697
30.4402
53.9962
53.6736
44.8538
39.2163
32.016
26.1951
22.6352
20.4912
20.3177
20.0242
20.892
21.4771
22.094
22.1783
22.0782
21.9342
21.9025
21.8468
21.6992
52.6827
61.2857
62.2151
56.9637
50.6521
40.6534
35.4567
30.5651
28.7257
26.7243
25.9103
25.2331
24.9443
24.7806
24.5513
24.4051
24.2101
24.1066
23.9247
23.6986
20.1888
47.0241
73.1073
62.7647
52.3735
41.9635
38.2237
32.9258
31.4129
28.7092
27.6486
26.4443
25.9331
25.3598
24.9589
24.5718
24.2937
24.0391
23.787
23.5675
93.78
80.1546
77.4005
67.2115
54.9771
44.8007
41.3474
36.1859
34.3154
31.2132
29.4078
27.8314
26.6986
25.8798
25.1432
24.5659
24.1241
23.7849
23.4565
23.1897
54.1508
82.5163
77.5953
64.8627
54.3467
44.517
42.6476
38.0485
35.7426
32.3995
30.3687
28.5536
27.0607
25.9787
25.1131
24.4508
24.02
23.5958
23.2407
22.8281
71.2758
76.4284
73.1106
65.3653
56.1955
47.9345
41.9019
38.3913
35.0028
33.0285
29.7603
28.2572
26.2016
25.2386
24.3227
23.9514
23.719
23.4612
23.2051
22.7114
84.9997
67.9909
65.1125
53.9704
45.7717
43.8161
40.1416
35.1957
34.5161
31.878
28.4487
25.3703
23.9126
22.4113
20.5793
21.5542
22.2977
22.724
22.7778
22.6303
96.0536
68.741
61.3799
51.0076
42.4969
39.9133
34.5777
33.8722
32.0868
29.7497
25.1402
21.695
20.2654
19.028
17.2513
17.9209
19.851
21.2404
21.8909
22.2419
49.5537
60.5745
62.5078
55.1881
43.7604
39.0994
36.2159
33.7636
31.1915
27.7047
22.5238
18.5284
16.3688
14.8279
13.9989
16.7791
19.2747
20.7885
21.4139
21.7988
53.4328
66.7999
64.2719
60.1795
47.3717
41.2654
36.1415
33.3231
30.1032
26.4984
11.7748
9.62334
12.0611
14.0752
15.5107
18.3995
20.4535
21.4471
21.7335
21.7879
83.2477
61.5384
63.0046
58.8481
45.8248
41.2559
38.3734
34.9881
30.6873
26.3593
23.4591
21.1756
20.0087
19.2631
18.828
21.3278
22.5702
22.9416
22.7205
22.1985
72.9557
66.2429
64.8982
59.9589
50.9231
47.9481
42.1409
38.3615
34.8138
30.2435
28.5277
26.4177
25.6425
24.7656
25.3978
25.6978
25.4499
24.7491
24.0376
22.9906
13.364
63.7762
70.0479
67.4817
57.3121
50.0001
44.2439
41.8952
38.5168
36.9516
34.9558
33.7254
32.2938
30.9029
29.6373
28.3503
26.9853
25.6571
24.5527
23.3565
49.9714
56.5379
70.0392
69.7353
60.1957
52.3822
46.6691
43.2136
40.5956
39.2356
37.577
36.1818
34.5629
32.7767
30.9355
29.1474
27.4092
25.805
24.5309
23.29
32.2659
50.1488
60.3775
74.2619
66.1368
57.7259
50.0973
46.6088
43.0062
41.3214
39.176
37.4321
35.3035
33.1048
30.9988
29.0977
27.2507
25.4654
23.9928
22.7063
14.6215
45.5653
67.2446
75.4608
65.3271
57.6906
49.1873
45.1206
41.9638
40.7909
39.313
37.6573
35.2452
32.7612
30.4938
28.078
26.1318
24.1631
23.0389
22.1657
29.6441
58.7135
57.9278
66.7368
61.1639
55.2136
46.0718
41.5159
38.9543
36.4706
36.2776
34.6385
33.3556
31.171
29.2172
27.1168
25.4713
23.6575
22.6143
21.2236
86.2192
58.1724
63.8934
65.8634
54.218
41.8512
30.7161
25.9499
25.5989
24.0093
25.9801
26.2018
26.1663
24.7701
23.4702
22.0328
21.1597
20.4568
20.3313
19.2057
36.4566
41.0665
35.5808
30.732
23.2641
15.1457
10.5915
8.67949
7.29112
6.14967
5.1018
4.59975
4.08901
3.68363
3.27247
2.92957
2.6926
2.42558
2.34973
2.15991
1.85251
12.1668
8.10289
7.92258
4.47249
4.1048
2.59913
2.24069
1.51299
1.48936
1.21936
1.32258
1.19479
1.25029
1.20791
1.21779
1.17616
1.13612
1.11518
0.959976
78.6456
60.4705
20.2077
40.9448
11.8301
12.4767
7.01928
7.03977
5.43992
6.03742
5.4975
6.09816
5.99077
6.28115
6.17493
6.32642
6.30342
6.3874
6.44992
6.05424
43.5502
69.0144
24.9115
29.8544
14.3439
13.9904
9.14783
9.30296
7.35248
7.77132
6.8299
7.16896
6.71147
6.89354
6.68691
6.80959
6.742
6.80792
6.85658
6.40995
54.1982
62.4328
25.8089
42.277
14.8009
19.4115
10.4839
11.8567
8.29146
8.79354
7.20187
7.50273
6.8083
6.96835
6.67752
6.76764
6.66603
6.70818
6.74355
6.29706
118.449
82.3732
28.2933
53.187
16.7707
20.6702
12.7525
12.5189
9.82028
9.38679
7.98925
7.83222
7.17301
7.12414
6.8318
6.82534
6.69316
6.677
6.68036
6.20123
65.6574
51.4338
28.4906
37.3338
17.8903
24.2477
15.4347
15.4648
11.1967
10.2545
8.53794
8.11052
7.44719
7.26121
7.03854
6.94295
6.80793
6.72213
6.68506
6.12761
63.2783
58.1037
34.9613
48.72
22.7872
23.5496
19.6893
16.1771
12.9547
10.7268
9.15609
8.24759
7.67624
7.37612
7.13696
7.11074
7.00188
6.90915
6.85395
6.21291
45.4266
74.9187
42.0512
56.5175
21.6649
21.4438
43.7993
40.925
35.5027
30.7758
25.9929
23.2697
21.1504
20.051
7.05508
7.07423
7.08646
7.05036
7.05664
6.42169
55.0417
77.8619
38.5353
50.0595
20.5827
45.3619
41.8309
36.6045
31.0388
24.958
20.3122
17.7624
16.7589
16.0575
15.5091
6.72952
6.86219
6.9746
7.09662
6.58244
59.5803
71.7614
46.3746
53.7282
22.2691
41.9294
39.5882
31.9925
26.6206
21.4118
16.9544
14.2158
13.4527
13.5833
13.9266
6.5777
6.69735
6.8478
7.02161
6.57746
19.7547
46.9841
35.5594
48.6356
22.3992
42.6002
38.3447
30.8314
24.8109
20.8074
16.1068
12.7925
12.1775
13.2637
14.2334
6.84492
6.90046
6.94757
7.04884
6.55211
89.2577
74.7434
42.4656
60.9475
25.2453
43.6269
39.071
31.84
25.2019
20.883
18.0689
16.2794
15.8502
15.5996
15.9622
7.58885
7.54166
7.37171
7.33286
6.6681
22.1611
75.6653
44.6771
65.7551
26.3001
45.216
42.7052
37.8186
31.626
27.1259
24.8855
22.9887
22.083
21.2964
9.08199
8.78381
8.43691
8.06058
7.82157
6.93475
14.4058
43.5163
53.3682
75.4667
30.2667
37.4644
19.2523
24.5398
16.6708
16.6825
13.9211
13.1654
11.8902
11.1771
10.3563
9.73688
9.08223
8.50343
8.11927
7.12769
81.2572
66.1206
62.3569
72.7316
31.0854
50.4939
22.6782
28.0522
19.5997
19.2945
16.5149
15.1817
13.5738
12.3025
11.1589
10.2066
9.35033
8.66676
8.17534
7.16337
15.5915
70.2351
69.9114
79.6401
40.2993
47.7449
27.2338
28.936
21.2661
20.7771
17.5921
16.2359
14.3248
12.7952
11.4641
10.3228
9.31688
8.53658
7.99357
7.02817
9.3971
39.8763
72.9386
80.47
51.5043
55.2911
33.785
35.5548
24.5409
23.0651
19.0952
17.0896
14.9223
13.134
11.6944
10.449
9.35449
8.46187
7.86001
6.85343
25.6699
58.5368
65.9014
75.048
45.1902
51.5737
31.062
29.0745
22.5059
21.0055
18.1504
16.3549
14.4601
12.6795
11.3431
10.1671
9.20311
8.38317
7.84969
6.83051
39.7478
40.8161
63.8358
69.9266
44.0135
37.125
22.8965
21.1705
16.1472
15.3423
13.6808
12.6455
11.2821
9.74678
8.75246
7.92092
7.43512
7.04741
6.91903
6.13961
28.3442
39.3487
23.8744
30.0826
10.6024
9.28993
5.51346
4.68318
3.1067
2.55061
2.10444
1.91951
1.63307
1.41072
1.20286
1.07193
0.980832
0.928614
0.944327
0.868815
24.0825
18.8476
7.67438
28.2507
24.459
26.466
7.83866
19.0782
6.82249
6.5123
23.02
19.5907
6.86124
6.63843
7.9525
24.6682
22.5444
20.4864
7.99921
26.593
23.9456
5.4475
21.6435
19.0805
6.87299
5.98931
22.9546
20.4426
0.129909
0.193395
0.112816
7.58127
7.13097
6.53031
8.17981
0.08136
0.114148
0.14457
7.23438
8.1242
8.92063
12.0544
0.0944939
0.151033
0.164993
8.2906
10.5715
12.5439
13.2321
0.178157
0.174753
0.186747
11.7795
12.9459
13.5057
13.5769
0.135022
0.18435
0.148289
12.431
10.1685
12.979
10.4893
0.0813943
0.131157
0.0850127
9.39297
7.94477
9.608
8.31198
0.074411
0.0795046
0.0815458
7.90887
8.60625
8.43306
9.05581
0.0701478
0.0840973
0.067253
8.88681
9.99647
9.11184
8.91762
0.125311
0.382614
0.159756
8.06158
8.24921
11.115
7.37846
0.149364
0.124147
0.121503
8.68139
11.9136
6.77231
9.83027
0.178914
0.129282
0.14781
12.7652
13.8649
10.8811
12.8159
0.186218
0.152338
0.155355
14.0098
13.6684
13.0164
12.4606
0.151453
0.152491
0.135131
13.0486
10.5819
11.7729
9.56506
0.0851246
0.125717
0.0826128
9.6412
8.24525
8.74388
7.09685
0.0827461
0.0777261
0.0769044
8.3573
8.81525
7.0458
7.14537
0.0633354
0.0756668
0.0601523
8.74932
8.34875
7.14494
7.58859
0.158872
0.385867
0.147507
11.2237
7.03456
8.1049
6.06068
0.116648
0.126743
0.135506
6.58993
9.70453
6.74461
10.5395
0.136039
0.141632
0.142651
10.7387
12.1924
11.3463
11.9079
0.138389
0.140165
0.12466
12.3151
11.7949
11.8262
11.1748
0.126005
0.118091
0.102323
11.2744
9.26908
10.8627
9.84181
0.0832348
0.0980112
0.0881204
8.53081
7.0374
9.53479
9.10453
0.0764245
0.0874895
0.0961532
6.95446
7.27076
9.18104
9.63705
0.0622666
0.0994764
0.0851403
7.4553
8.20568
9.65522
9.6531
0.152715
0.342246
0.19783
6.4183
6.46995
6.93149
7.66052
0.148312
0.181107
0.179235
7.31916
10.9977
8.46654
11.124
0.155072
0.179968
0.178011
11.7162
12.2562
11.5138
11.9887
0.137608
0.174672
0.1672
12.213
11.5567
12.2128
11.9647
0.10782
0.156859
0.137121
11.2477
10.3534
11.7195
11.0038
0.0953617
0.12924
0.117821
10.1144
9.81826
10.8346
10.2743
0.103632
0.113523
0.105668
9.8604
9.94119
10.1118
9.58387
0.0830655
0.100895
0.0734414
9.85153
9.64666
9.46804
9.97734
9.85518
10.3366
11.3534
21.3095
19.6654
20.4038
21.254
10.9199
12.1612
15.4655
19.6019
19.5983
21.9823
24.1282
13.695
15.9256
16.6243
19.8074
22.8232
24.2493
24.7578
16.0906
16.9924
16.9063
23.6748
23.108
24.913
23.4475
12.8566
16.1666
13.1387
22.1539
19.2336
22.3365
18.8649
10.7282
12.1925
11.0126
18.5137
17.6823
18.0521
17.0405
11.5252
11.1433
11.602
17.7044
17.9221
16.9522
16.4208
12.2826
11.5715
10.5904
17.9186
17.8067
16.086
14.6243
11.339
15.2302
9.76868
21.1647
21.2115
22.0571
18.7068
15.4125
9.41093
13.037
21.854
24.5172
19.2115
22.5276
17.4637
14.2568
16.4586
25.0039
25.3227
23.4392
24.417
17.0095
16.6626
15.2899
25.2478
23.1734
24.0563
13.5706
13.1661
14.2087
11.2726
21.9302
18.2672
11.8681
9.26784
10.8478
10.3177
8.64697
17.3915
16.191
8.79055
8.54601
11.126
8.54306
8.53094
16.0076
15.1096
8.83839
10.1524
9.85209
8.55566
8.87527
14.6583
13.3403
10.5847
12.0605
9.28129
11.7752
8.68542
21.8093
18.3822
19.3635
19.1183
12.915
9.54692
13.9806
19.0216
22.3964
20.1529
23.7071
15.7529
14.9145
15.4605
23.1709
23.723
24.1167
23.4645
14.6082
15.3086
14.4314
23.7127
13.0861
23.0344
21.2652
10.858
14.0182
12.6165
11.3154
8.36281
20.4781
18.07
8.44799
12.2085
11.6483
7.99716
8.15098
17.4953
16.8775
8.7583
11.7219
12.1238
8.65207
10.9652
16.9601
17.2545
9.59164
12.1379
11.6569
11.7189
13.3228
17.2336
17.206
9.36576
10.413
11.1445
19.4412
20.095
19.3552
22.9897
14.544
12.1773
15.2336
21.0551
24.2997
23.7419
25.7908
15.8345
15.637
15.8629
24.614
23.7951
25.729
24.6787
14.817
15.9595
15.4315
23.3136
21.7641
24.2639
23.0142
13.3061
15.112
14.1647
21.1892
19.4851
22.5707
21.3118
12.582
13.9316
13.2754
19.0528
18.4032
20.9767
20.2153
12.5754
13.0946
12.5653
18.337
18.1324
20.0243
19.5577
11.7536
12.4565
12.4912
17.993
17.6524
19.4466
19.5518
22.8936
24.0288
24.4542
31.8306
32.0614
33.3817
32.4975
22.5539
25.0455
26.494
31.5822
30.6214
32.3728
31.4049
25.4483
26.4903
26.6549
30.5051
30.3312
30.903
29.2681
24.6692
26.6022
24.5965
29.6947
26.6178
28.5142
25.2188
20.7439
23.4025
19.9947
25.4583
22.6353
23.9634
20.9013
19.277
19.2344
18.1465
22.0191
21.0106
20.2073
18.7226
19.1225
17.9536
17.1129
20.7069
19.8427
18.2889
17.0268
18.6627
16.7161
15.1836
19.5901
19.0111
16.6374
15.5155
24.4357
24.8482
22.194
33.7256
32.4584
33.1919
31.5494
26.9454
22.6949
25.2937
32.3336
31.5407
31.3985
30.6429
27.006
25.8892
26.0068
30.9873
29.0266
30.1286
27.9837
26.2878
26.2736
26.6873
27.7905
25.7151
27.0971
27.5882
18.3643
21.4023
20.2904
23.1276
18.8151
21.7742
19.8526
17.0225
6.47564
7.6116
18.8576
17.3463
6.86813
9.32917
15.6109
8.31307
10.479
16.8875
15.5634
10.2616
12.2236
13.845
11.0483
12.7073
15.1876
14.4341
12.6682
13.9582
22.0078
23.1258
23.0812
33.4065
31.7795
34.4323
33.2938
25.1652
23.9274
26.3771
31.5842
30.5431
32.9594
31.2169
25.3593
26.4481
25.2026
29.9238
27.5961
30.2829
27.4031
15.9828
15.093
24.6233
20.7596
20.8781
2.99968
25.4136
10.1638
6.17308
13.4721
1.21192
12.137
1.13286
10.9385
7.30101
18.5002
17.9393
6.62371
9.79
19.9153
19.2731
11.5163
18.0192
18.2501
10.9136
13.4195
19.199
18.9825
14.0289
18.2222
18.1547
13.9773
15.0087
18.8835
18.6823
24.0009
22.4098
26.7439
35.2825
33.9035
29.6023
35.7388
26.916
27.282
28.5439
33.4663
31.5893
35.3014
33.917
25.4945
28.2636
26.6106
30.6294
27.5928
32.9646
29.5138
23.1374
26.0509
24.6351
26.7223
24.5555
28.6329
26.9976
20.6939
24.182
22.8688
23.8585
21.989
26.5117
25.0101
19.5625
22.5206
21.7709
21.5348
20.7023
24.6189
23.9096
19.2226
21.5916
21.1244
20.52
20.0181
23.7133
23.1287
18.6799
21.0092
20.9372
19.8545
19.3428
22.9596
22.713
34.4788
36.287
34.2954
37.9277
37.941
40.5711
35.5659
32.4735
33.8549
32.0708
36.9883
33.9294
34.256
30.5029
30.6655
31.3519
29.0103
32.422
27.9964
29.1866
25.2089
26.3295
28.0531
24.5348
26.6496
22.9462
23.8916
20.213
22.3033
23.3122
20.3909
21.6898
19.1277
19.1723
16.767
20.6186
19.7044
18.1004
18.6518
17.7871
16.1604
14.9268
19.2911
17.6289
16.4219
17.3986
16.6482
14.7205
14.3684
18.5407
16.0892
15.2346
16.4944
16.1578
14.2732
13.8686
34.2071
35.7423
33.6048
39.9802
35.0163
39.2176
34.3191
31.9893
33.0992
31.1407
33.6278
29.7308
32.747
28.2094
28.643
30.2931
27.6907
28.4154
24.7422
26.997
23.9023
23.9003
26.4286
13.7408
23.5
19.9352
22.855
18.4384
19.2601
11.9131
9.57746
18.858
16.3259
16.8026
13.6447
16.8719
9.48182
10.7767
15.6452
14.0967
13.0753
12.0689
15.1289
11.352
12.6343
13.8738
13.6415
12.0119
12.6305
14.3034
12.9547
13.9651
13.6027
13.4239
12.8121
13.1294
33.9095
37.5461
35.3848
39.4017
34.5395
40.5564
35.6275
31.0434
34.5743
31.5477
32.8657
28.0173
33.6896
28.2376
27.3774
30.3413
27.1042
26.7548
23.7465
26.7246
23.5658
13.5854
26.2402
23.6348
22.7851
18.5313
22.695
20.2567
9.46884
22.6783
20.2891
16.9573
13.9361
19.4677
17.5233
11.3504
19.7845
18.9702
13.4029
12.5052
17.0132
15.8553
13.6948
18.8078
18.4321
12.477
13.1311
15.715
15.5491
14.8571
18.3118
18.1258
13.2965
13.4798
15.4721
15.1474
35.8916
33.0683
37.5236
40.7679
35.9975
37.4751
38.352
31.9011
36.7805
34.6496
34.0502
28.6697
36.9345
32.9129
27.2746
33.4702
29.5094
27.131
23.6164
31.1501
26.5168
24.1521
28.5821
26.9452
22.7731
20.5594
25.6688
24.0568
21.6289
26.425
24.8344
19.8897
18.2138
23.3938
21.6969
20.2346
24.4377
23.7351
17.7572
16.789
21.3599
20.7442
19.4343
23.5169
22.8681
16.6377
16.2967
20.4804
19.8299
18.782
22.6846
22.4463
16.1752
15.6501
19.6711
19.2975
37.5924
40.4595
34.2531
8.53899
6.769
6.84701
6.37696
32.9577
32.8234
28.8313
6.73517
5.07818
6.16841
5.46857
26.2527
27.439
23.2019
5.30231
4.39342
5.27818
4.20786
21.4647
21.8346
18.2313
4.40405
3.93508
3.93863
3.5332
18.1606
17.3029
15.3038
4.25734
3.96326
3.4915
3.53
17.079
14.8822
14.3003
4.10943
4.00698
3.65682
4.65471
16.2068
14.2703
14.1936
4.28878
4.11068
4.67037
4.65631
15.798
14.139
13.8044
4.24382
3.98123
4.65076
4.72863
33.492
38.3073
32.4827
7.76588
6.35461
7.48553
6.50036
27.9686
30.8091
26.3298
6.1597
5.53137
6.28627
5.55112
22.6754
25.0514
21.8959
5.18169
4.08903
5.06672
4.02475
17.925
20.8564
17.2772
3.82172
3.36432
3.7738
3.23113
14.7661
15.9648
13.1634
3.29312
3.26058
3.10805
2.86903
13.4447
12.5361
11.6576
3.37855
4.45023
2.92432
4.00899
13.5863
11.8127
12.7264
4.77694
4.72908
4.64676
4.92705
13.4446
12.9102
13.1494
4.71418
4.60353
4.90605
4.92219
32.5855
39.0899
33.4971
8.76559
6.70031
8.69581
7.03332
26.1167
31.4845
26.23
6.4296
5.6131
6.65645
5.97958
21.7586
24.8384
21.5704
5.11525
4.07084
5.59803
4.47468
17.3633
20.6946
18.2948
3.82161
3.29072
4.23958
3.84955
13.4057
17.5824
15.8668
3.1686
2.92036
3.77977
3.66617
11.9946
15.4326
14.9061
2.97375
4.0576
3.77825
4.86017
13.094
14.9612
15.0388
4.69795
4.98382
5.25192
5.17363
13.4143
14.9961
14.7278
4.96032
4.79879
5.15805
5.18132
33.8543
41.0257
36.6608
10.5859
7.1816
9.26251
7.86602
26.6103
35.1354
30.7833
6.72706
5.99822
6.73723
6.59287
21.7544
29.0749
24.8025
5.89151
4.7414
5.8844
5.75411
18.6821
24.0495
22.5231
4.51206
4.19573
5.20481
5.52215
16.6161
21.9238
20.4385
4.14496
4.08228
5.20228
5.39068
15.8745
20.1573
19.6651
4.20957
5.31302
5.07755
5.34639
15.6929
19.4487
18.8849
5.28914
5.22501
5.15134
5.26399
15.1679
18.7405
18.4442
5.2081
5.10584
5.07065
5.13702
24.0843
25.3468
21.9928
24.5426
24.0592
25.9557
21.6709
21.9737
26.0092
12.5618
18.4417
23.9183
26.7134
4.07111
15.8976
15.908
9.79297
1.47099
19.2916
12.6061
1.90558
26.53
28.286
27.2532
27.9416
27.4196
28.0012
26.4885
24.1602
24.6573
25.9399
21.981
26.1434
21.605
24.4136
22.2352
22.844
27.2435
15.3557
27.1121
3.8707
24.4428
15.6902
1.74192
15.4077
9.9261
12.2624
2.22825
19.1564
16.9866
20.1476
16.4376
19.5076
17.4635
20.5318
16.1087
10.1599
14.0412
6.15734
1.25499
12.8134
11.1459
1.14929
9.10434
11.0415
6.02931
3.66443
11.6555
9.26331
2.43266
18.184
23.2071
21.7065
20.0534
21.8581
19.7029
18.5154
16.8309
19.6589
20.5507
16.2741
20.6479
15.983
17.233
9.63332
1.4925
13.3269
6.2356
10.7206
1.41364
11.8765
8.65415
3.60099
10.3311
6.22335
8.84706
2.08367
10.8515
13.2226
10.0386
15.0729
1.44232
17.4004
1.97282
11.8666
24.2328
24.6469
24.0618
25.8131
23.6065
25.788
25.1033
22.616
20.8708
23.3606
23.3853
22.3138
21.065
24.2975
16.6483
22.4073
15.8467
26.5121
3.24047
26.052
22.386
13.6439
1.76414
10.2488
16.0601
2.39691
12.3167
18.4626
24.8219
26.4577
26.6068
25.7828
26.4459
25.6787
25.3301
23.1132
23.8513
22.1615
24.9056
21.5133
24.8119
23.7761
9.83276
5.40493
10.3562
2.61223
11.1023
1.22842
9.12001
18.2646
19.4586
20.7112
22.4198
18.0774
19.6137
21.4412
17.2071
15.9797
19.8301
19.8015
16.9046
16.328
20.5496
10.7645
1.50376
6.18624
14.4774
1.43914
11.4218
13.3562
10.5405
2.89972
5.58623
12.0814
1.60134
9.89045
12.5582
18.7235
22.8586
20.6559
21.991
20.0402
21.8701
19.3328
17.727
20.2645
17.5439
21.1478
16.9024
20.9964
18.3199
0.936781
1.06299
0.791729
7.88738
8.56825
6.95039
6.19124
0.593153
0.59965
0.475266
8.18726
6.18871
5.83121
5.30953
0.365619
0.382751
0.385545
5.11596
5.84647
5.47482
6.46906
0.389335
0.455474
0.494956
7.21377
8.22183
8.1126
9.18778
0.357209
0.487177
0.431508
8.47454
7.94141
9.29899
8.31097
0.278493
0.348508
0.279383
6.92579
6.30631
6.92789
6.08187
0.254967
0.249142
0.248288
6.10583
6.36972
5.99585
6.35033
0.212778
0.259402
0.234448
6.36599
8.10924
6.5837
9.34239
0.85563
1.20468
0.678633
6.98052
6.73301
6.10275
5.51882
1.87733
0.246642
0.265
2.32367
2.21027
2.06597
0.1883
2.7701
0.0883592
0.102667
2.12133
2.31428
2.37104
0.102238
3.49095
0.08017
0.101409
2.67987
2.88897
3.39481
0.100695
4.91857
0.154433
0.134891
4.70102
4.9842
4.69667
0.160274
4.43604
0.171587
0.181406
4.75567
4.40071
4.75991
0.174334
3.17374
0.1027
0.122747
3.37794
3.00992
3.55028
0.106635
2.5419
0.0720994
0.07448
2.2423
2.21525
2.49522
0.0727106
3.08458
0.0807127
0.0785874
2.56484
2.73154
2.9622
0.0829934
0.251742
0.279333
0.18948
7.63416
9.65124
6.75203
8.14906
0.68698
1.37841
1.05374
6.62938
7.23362
8.73408
10.2986
2.33774
0.154306
0.243411
1.81598
2.14864
2.09504
0.197451
2.89733
0.128412
0.123343
2.94012
3.38052
2.54426
0.122244
4.47289
0.16768
0.152568
4.44688
4.64597
4.25601
0.162481
4.8642
0.187527
0.180819
4.94823
4.98521
4.82088
0.182788
4.42709
0.173218
0.175654
4.76034
4.52258
4.6584
0.166983
3.2107
0.115726
0.135008
3.7086
3.22083
3.6987
0.115923
2.69258
0.0800118
0.0793345
2.6141
2.74993
2.52246
0.079507
2.92615
0.0827336
0.0816931
3.05898
3.04651
2.97217
0.0798137
0.169517
0.236143
0.193756
5.98247
7.4256
5.93934
7.50619
1.32107
2.00621
1.32521
9.92636
10.6848
9.6854
9.3247
2.63459
0.296515
0.403544
2.81645
2.81785
2.69513
0.28895
2.44167
0.109777
0.122303
2.28566
2.48719
2.1705
0.10965
3.80065
0.131661
0.125927
3.73141
3.92875
3.62112
0.131094
3.78232
0.138297
0.131159
4.05793
4.08969
3.82365
0.129132
3.60782
0.134432
0.12041
4.02049
3.9091
3.63241
0.118312
3.04237
0.105514
0.107248
3.38834
3.07232
3.27122
0.0993479
2.75914
0.0767855
0.0793405
2.5462
2.64586
2.67466
0.0784744
3.13786
0.0763952
0.0815082
2.8509
2.90012
3.0723
0.084938
0.222665
0.334979
0.261098
6.69189
8.1927
7.12767
8.69798
1.10953
1.43005
1.03468
7.73863
6.41006
6.62762
6.33647
1.96008
0.248329
0.34162
2.02985
1.8507
2.06889
0.255097
3.15739
0.134979
0.14973
2.43203
2.9783
2.60377
0.148503
4.01175
0.15545
0.167185
3.83054
3.90546
3.9305
0.167435
4.26137
0.150847
0.166918
4.10961
4.10929
4.23275
0.165757
3.90013
0.120846
0.145173
3.81367
3.66934
4.03408
0.135449
3.5382
0.0981404
0.114898
3.33538
3.25547
3.61359