/*--------------------------------*- C++ -*----------------------------------*\
  =========                 |
  \\      /  F ield         | OpenFOAM: The Open Source CFD Toolbox
   \\    /   O peration     | Website:  https://openfoam.org
    \\  /    A nd           | Version:  10
     \\/     M anipulation  |
\*---------------------------------------------------------------------------*/
FoamFile
{
    format      ascii;
    class       volScalarField;
    location    "5.3";
    object      omega_0;
}
// * * * * * * * * * * * * * * * * * * * * * * * * * * * * * * * * * * * * * //

dimensions      [0 0 -1 0 0 0 0];

internalField   nonuniform List<scalar> 
12920
(
26.107
74.4653
98.6072
91.4197
81.9251
77.5834
72.1705
68.6401
64.3332
61.3906
59.1366
56.8298
51.5813
45.4003
41.3391
38.5773
36.7757
34.8285
33.9439
32.8392
93.349
126.031
134.746
108.545
100.671
83.3574
76.2851
72.0063
68.4495
66.3899
61.5261
57.3495
51.775
48.9477
47.2717
46.4208
45.6799
45.3519
45.2102
45.2661
167.46
262.203
205.086
150.411
116.258
91.2275
77.8319
70.0746
62.8817
59.035
54.249
51.9665
49.5419
48.4112
47.4328
46.992
46.5469
46.366
46.1751
46.0071
595.664
407.692
198.453
152.08
117.249
86.0188
76.0342
65.7358
61.7511
55.8832
52.5548
50.361
49.0939
48.5094
48.0704
47.6069
46.9911
46.5058
46.2004
45.8296
403.598
257.729
181.177
152.822
121.541
97.5972
83.6915
74.4713
68.5165
63.4386
59.2701
56.1853
53.8656
52.6428
50.9531
49.4937
48.2644
47.4289
47.1025
46.4377
228.787
234.268
175.819
137.125
127.221
93.6711
89.9073
77.9153
71.2951
65.4051
61.8411
58.9034
56.1103
53.7707
51.1425
49.2334
48.0804
47.4911
47.2936
46.7829
245.434
269.122
221.564
192.007
164.696
140.463
123.252
100.293
83.7046
74.7146
68.2225
62.8354
58.0831
53.9642
50.6261
49.0656
48.5207
47.9436
47.7394
47.2073
377.763
344.355
252.206
205.486
170.521
148.279
241.241
186.859
137.251
114.717
111.939
94.3647
86.6046
82.4949
55.2094
52.2406
49.8995
48.1133
47.1942
46.7461
325.045
219.574
162.842
157.702
137.026
206.648
320.736
174.718
156.449
193.46
217.552
165.819
129.822
128.883
91.0898
50.0913
47.3354
45.9581
45.4484
45.6366
138.617
134.79
160.277
163.686
137.819
161.824
194.411
161.211
187.949
212.067
212.797
179.977
133.994
135.531
82.5322
47.9673
46.3819
45.8191
45.6762
45.7435
141.484
190.271
184.642
185.945
176.118
272.556
343.883
174.056
169.912
175.288
178.083
166.097
134.8
133.555
90.9744
53.3627
51.1321
50.0783
49.4695
47.6873
168.029
163.343
180.673
179.168
159.409
246.288
299.57
179.436
178.988
179.225
167.866
150.994
148.071
156.977
98.2119
57.3349
55.3152
53.6422
52.649
49.8636
98.6794
152.287
158.832
155.138
135.632
109.345
163.253
118.262
110.654
107.734
103.142
98.4674
93.9061
90.3162
60.0301
58.4521
57.9519
56.8703
55.5117
51.7449
165.478
154.857
167.591
155.863
123.76
99.4602
82.166
77.0023
71.4657
67.7475
64.5083
62.7774
61.8857
61.4185
60.8817
60.7366
60.559
59.6857
57.1218
52.2333
83.359
147.989
177.806
154.158
119.514
110.856
97.7204
94.0261
84.567
77.7251
71.5847
68.6921
66.7647
65.6792
64.542
63.8939
63.198
61.509
57.6337
51.4899
33.2015
151.811
195.708
177.221
142.856
129.69
117.506
112.664
102.21
92.2351
81.2404
74.2771
69.4246
66.8318
65.0419
63.9582
63.1051
61.131
57.0197
50.0689
94.2882
188.714
200.072
172.759
145.509
138.898
131.671
126.667
114.132
100.548
87.1582
78.8125
73.4811
69.8987
66.8159
64.5411
63.3777
61.3437
58.4137
50.7892
160.072
152.37
146.431
150.131
147.116
140.785
130.822
120.992
106.402
93.7045
83.8016
77.7039
73.6875
70.5182
67.581
65.1963
64.1518
62.7121
61.038
55.0217
253.483
198.512
189.646
189.678
182.351
153.823
118.953
95.8191
79.7278
69.5893
64.3511
61.7118
59.6951
57.0813
55.0111
52.8783
51.3921
49.5223
49.3068
48.7388
46.9871
121.641
147.382
153.799
151.384
143.376
124.374
100.404
77.8034
64.3645
58.2286
54.0286
49.462
45.4536
41.5163
37.8529
34.5776
32.1668
31.2376
31.4724
12.8668
41.4874
60.4945
56.6957
51.6287
47.7093
44.3366
41.4276
38.8491
37.2561
34.8663
31.3568
27.5767
24.8636
23.4551
22.8513
22.7082
22.4655
22.2557
21.6214
116.346
105.38
85.7928
61.0171
50.4491
43.9527
37.4806
35.388
32.7746
32.0033
30.0727
28.8812
27.5217
27.0123
27.0334
26.9647
26.7517
26.2463
25.8564
25.0575
179.838
200.842
145.605
95.0804
64.7397
44.7876
36.3467
32.5298
29.4763
28.0804
26.8974
26.6292
26.5823
26.3467
25.6745
24.8882
24.2045
23.6425
23.3322
23.1629
214.759
199.879
118.879
90.9513
65.9987
42.9621
36.3989
32.0356
29.5744
27.4479
26.1993
25.2977
24.7055
23.9402
23.4172
22.9772
22.7834
22.6394
22.6663
22.8124
181.121
139.38
97.5159
73.1098
57.9395
48.2632
44.3156
39.2601
35.7251
32.1365
29.6971
28.0067
26.9145
25.9583
25.2109
24.4193
23.8946
23.4579
23.3827
23.324
175.46
142.663
86.0811
64.6885
56.7087
47.7086
48.8276
46.2443
41.3427
36.6511
33.2332
30.4021
28.6172
26.9826
25.9221
24.8746
24.2314
23.7095
23.6821
23.6864
219.897
144.89
112.976
100.319
85.168
74.2797
73.9429
70.8892
57.4506
46.2832
38.7135
34.6859
31.1124
28.0938
26.429
25.1094
24.5404
24.1592
24.1647
24.3123
278.549
158.817
130.766
132.771
111.008
98.7469
99.9296
101.72
89.7336
54.8721
41.0202
36.2393
31.4431
27.3488
23.5432
23.9154
24.1143
24.1842
24.1789
24.2951
269.811
160.046
103.098
91.8332
81.4706
83.9794
88.1501
77.9013
68.0287
53.2656
40.7192
34.9797
30.4445
26.209
23.6478
23.5461
23.57
23.3843
23.2609
23.3968
145.345
157.511
117.406
93.2243
80.2953
73.0769
60.5469
53.1139
39.7545
37.6373
35.6778
33.7046
28.584
25.5688
24.7608
23.5587
23.0435
22.8123
22.8168
22.9629
231.998
164.69
120.083
102.365
91.4814
95.5028
93.0339
75.4569
40.7975
32.8101
33.2424
33.8251
31.5299
28.3776
26.0385
23.4403
23.3932
23.5674
23.7844
23.7303
225.739
156.249
117.41
94.2589
90.0104
96.8615
94.7991
69.6871
38.6885
32.8591
31.1473
29.991
29.4832
29.1039
26.8302
24.9677
25.3895
25.5347
25.6523
25.366
145.502
129.412
111.813
96.4978
87.5704
67.8496
64.7185
51.5273
39.2254
32.3101
31.4295
30.2238
29.7435
28.8768
26.9875
27.1895
27.3585
27.418
27.4214
26.7788
215.342
132.986
111.543
86.364
67.6306
56.9184
47.7302
42.9851
38.5528
37.102
34.9161
33.5149
31.663
30.3723
29.585
29.2119
29.1621
29.0745
28.8379
27.5257
363.308
197.907
102.458
75.1006
57.9791
52.5161
48.5776
46.1819
43.5003
41.4862
39.7909
37.9948
36.0547
34.2441
32.7843
31.8648
31.4236
30.7283
30.193
27.9948
138.058
156.67
121.534
85.3251
63.6396
57.8403
52.2498
50.2992
46.8471
44.1885
41.4412
39.0976
37.4295
35.8488
34.5896
33.6528
33.1609
32.5695
31.9717
28.6716
190.382
167.632
134.065
89.8018
70.507
66.2659
62.1648
60.4454
57.0945
52.8407
47.9829
43.2816
39.5222
36.9273
35.4912
34.8139
34.5142
34.3396
34.1485
30.8452
194.746
234.017
217.638
148.786
95.2658
74.8517
66.8056
63.8281
60.7648
55.8643
49.937
43.9783
39.4118
36.6749
34.9287
34.0738
33.9181
34.0015
34.233
32.6869
240.058
211.44
174.049
120.778
89.1065
70.0431
59.0413
54.1328
49.0222
43.1182
37.9517
34.3033
32.424
31.5342
30.8782
29.8516
28.9486
28.151
27.7011
26.5456
26.8445
72.2404
82.2763
87.2478
84.8139
77.0196
61.3013
46.207
37.9036
35.5374
33.1779
30.2899
27.7467
25.7915
24.2927
22.8609
21.8549
21.1246
21.0149
20.8229
22.8366
80.0533
88.6229
74.2581
60.3198
53.6298
49.1772
45.0814
41.7029
38.4639
34.8367
30.8085
27.4964
25.4758
24.97
24.9571
25.0016
24.9519
24.859
24.3976
156.946
94.3803
72.1295
52.1907
44.7062
37.4205
34.661
33.0033
31.258
30.3091
28.2759
26.9746
25.3555
24.8541
24.3177
24.1742
23.9059
23.7695
23.5806
23.5076
159.843
146.151
93.0092
62.0733
46.2558
35.1431
31.1168
27.8178
26.1706
24.9734
24.073
23.7521
23.2395
22.966
22.3936
22.0574
21.7077
21.5651
21.4813
21.5331
149.223
136.069
85.3747
60.2591
45.1086
33.5484
30.9496
26.6809
25.7952
23.7697
23.1321
22.2382
21.7502
21.2476
20.9174
20.7401
20.673
20.7003
20.7776
20.9859
244.574
142.155
82.3037
57.8866
46.0179
37.5588
36.0947
31.6715
29.3521
26.7631
25.1878
23.9809
23.0949
22.3937
21.8452
21.4623
21.2081
21.1089
21.1069
21.1393
275.068
128.864
76.0867
55.3298
48.3019
38.9579
41.4717
36.2611
33.0282
29.0714
26.9883
25.0168
23.7974
22.8058
22.1892
21.7328
21.4811
21.3659
21.3684
21.3546
338.212
137.823
91.1758
75.3733
64.4911
56.9752
54.8559
49.059
40.2961
34.6361
30.0945
27.2615
24.9854
23.3764
22.6211
22.2208
22.1143
22.1357
22.1905
22.179
168.283
109.297
81.5722
77.542
68.6033
67.6088
68.3509
69.247
52.5785
38.882
31.6005
27.799
24.8604
22.9399
22.8447
22.8359
22.8152
22.7165
22.6867
22.6552
282.053
129.587
80.581
63.5041
57.1044
57.4123
64.045
58.5206
51.0298
38.5584
30.4944
26.8586
24.2838
22.8102
22.9425
24.0744
23.2774
22.7219
22.476
22.481
473.001
215.091
107.854
79.2719
61.6131
52.745
49.8247
41.5072
34.2831
31.2433
29.2406
27.1104
24.9896
24.4244
25.3563
23.9092
22.5723
21.9889
21.8377
21.8824
404.869
185.797
117.191
89.9446
71.6205
66.7741
60.4038
48.0475
32.5948
27.8087
67.4129
55.5949
37.3579
28.3782
24.2597
22.8139
22.1276
21.8784
21.8337
21.8014
259.488
157.268
116.989
78.0288
63.121
61.1601
56.8633
44.5228
31.1201
27.798
26.6422
26.163
25.5978
24.6188
23.5525
23.4154
23.0842
22.8402
22.7415
22.4214
172.45
146.626
112.533
81.4022
63.5831
48.8072
46.473
37.1158
31.2861
27.1749
26.4169
25.2609
24.7772
24.2787
24.573
24.3575
24.2402
24.0102
23.8321
23.1801
166.329
166.12
117.867
78.4455
55.5782
44.3645
38.2118
34.4127
31.5215
30.1026
28.7222
27.768
26.8577
26.3064
25.9538
25.6702
25.5048
25.096
24.6965
23.5458
435.971
156.472
104.948
63.7944
49.0315
41.9435
39.5742
37.5781
35.341
34.0369
32.5883
31.4616
30.1904
29.1731
28.3304
27.6767
27.1778
26.2025
25.4837
23.6188
170.792
171.803
139.642
81.123
56.3573
47.9757
43.3209
40.8088
38.0898
36.1425
34.1977
32.8992
31.7148
30.8393
29.9997
29.3713
28.8027
27.5698
26.4363
23.6682
119.554
154.646
140.853
84.2492
61.4883
55.15
50.527
47.8984
44.0676
40.9597
37.6196
35.2035
33.2543
31.9599
31.0961
30.6387
30.246
29.432
28.1682
24.5266
172.717
232.446
206.06
120.389
75.7582
61.8958
53.5962
50.0387
45.5877
42.0906
38.4331
35.6239
33.3926
31.9859
30.9872
30.4115
30.1166
29.5916
28.842
26.1458
277.749
223.114
148.344
105.597
79.0029
62.7986
51.5104
46.4987
42.0146
38.1734
34.3668
31.8321
30.1135
29.0558
28.1613
27.2909
26.6029
25.7431
25.0895
24.0095
121.6
100.051
94.3607
93.2303
88.2988
76.0885
59.499
47.8753
42.3615
38.3552
34.5328
31.3208
29.0675
27.2397
25.8778
24.4063
23.6237
22.7636
22.476
21.7277
92.4379
112.668
112.86
93.6007
68.9292
57.0209
50.8123
44.9451
40.4058
35.3747
31.5996
28.3384
26.5185
25.7247
25.82
25.928
25.9971
25.8722
25.747
25.1677
274.614
113.126
75.3832
57.5197
49.9661
39.7541
39.6405
36.2248
35.2253
32.2219
30.4903
28.6055
27.9286
27.6578
27.5147
27.5379
27.5553
27.7027
27.8115
28.1835
291.312
116.202
78.1872
55.2096
45.9383
35.7928
33.9599
29.5607
29.0593
27.0455
26.8037
26.049
25.8912
25.5232
25.3675
25.2487
25.2521
25.34
25.4341
25.7235
172.526
133.689
79.0337
54.4758
42.7981
34.4829
33.0091
28.1385
28.1503
25.6204
25.5923
24.4591
24.4276
24.0006
24.0254
23.997
24.1088
24.3159
24.5063
24.8159
469.105
187.257
80.2383
55.495
45.4914
36.5737
36.7374
31.426
30.6189
27.69
27.0556
25.6479
25.3217
24.6578
24.5295
24.3747
24.4109
24.4947
24.6024
24.7599
215.536
139.95
75.5047
54.6639
47.6858
38.8149
41.9158
33.9439
32.6497
28.5841
27.6189
25.8183
25.4052
24.7089
24.6014
24.4937
24.5643
24.6555
24.7539
24.8035
259.642
115.132
84.238
64.8831
58.9979
48.4412
47.8434
40.1034
36.8796
31.9333
29.9704
27.4063
26.6683
25.6789
25.607
25.5657
25.6585
25.7615
25.8032
25.7219
291.525
109.714
73.7847
61.8938
58.0314
51.3726
52.2277
50.1441
39.9486
34.4964
30.3997
28.0943
26.713
26.2784
28.6612
27.5729
27.0903
26.8129
26.7553
26.5936
239.26
140.32
80.362
57.7928
50.2778
49.3011
52.3339
47.0724
40.3495
34.3288
29.9988
28.4591
27.7884
27.9715
29.7524
29.9971
28.1429
27.3238
27.0801
26.9363
343.406
144.923
101.74
67.2668
51.6288
44.7123
44.4573
38.36
35.0803
32.259
30.3565
29.3618
29.55
30.5867
31.9152
29.8855
27.5285
26.6409
26.4213
26.4444
197.603
168.111
109.122
75.9197
57.5131
50.1851
45.7133
38.9492
33.1348
31.0028
48.8275
43.9556
34.7992
31.4662
30.3258
28.7167
26.7646
26.034
25.8507
25.8606
371.777
164.339
103.339
66.5077
53.3285
47.3668
44.659
37.3895
32.1964
30.4944
29.4303
29.012
28.8892
28.5776
29.1408
28.4172
26.8947
26.2018
25.983
25.7746
347.987
177.648
114.814
74.4335
58.4127
45.7284
41.9595
34.9033
31.697
29.1171
28.5557
27.8904
27.7814
27.6372
28.9537
27.8754
27.2878
26.8235
26.5754
26.0489
213.769
174.989
140.722
82.6692
59.1338
43.3124
39.013
34.5744
32.4842
30.805
30.2599
29.6688
29.479
29.2296
28.904
28.4915
28.1834
27.5516
27.0852
26.2182
331.852
165.381
122.093
65.8046
53.4624
41.1347
40.5334
37.5185
35.8812
34.5162
33.7744
33.0509
32.3382
31.6655
31.0118
30.2496
29.4955
28.3305
27.4861
26.2145
254.957
156.968
128.35
77.1234
59.5856
47.2911
44.3293
40.1102
38.5826
36.6168
35.7983
34.9139
34.2599
33.5406
32.779
31.8412
30.7721
29.106
27.8345
26.1796
242.402
153.791
126.062
76.4352
63.4865
53.3846
50.6936
46.4311
43.6665
40.8752
38.9479
37.3677
36.2886
35.2892
34.4636
33.523
32.4865
30.5744
28.867
26.5309
240.941
185.901
147.905
90.8273
72.5006
60.8981
54.7576
50.2882
46.3933
43.0465
40.5191
38.4235
36.9834
35.7246
34.7752
33.7695
32.8759
31.3109
29.9968
27.809
485.515
171.953
135.168
100.407
80.323
65.1052
55.3102
50.5722
45.9836
42.0837
39.0749
36.6898
35.0903
33.662
32.5526
31.4374
30.5724
29.598
28.9263
28.2022
259.052
135.985
113.352
96.9914
82.103
67.1665
55.7387
48.7642
43.5456
38.2241
34.2603
31.2606
29.2839
27.3181
25.7747
24.2637
23.3318
22.1291
21.7272
21.4242
68.8143
107.217
106.104
85.7382
67.4508
55.8913
47.0225
38.97
33.1554
29.3493
27.2741
26.0776
25.5939
25.3267
25.423
25.1589
25.0443
24.6127
24.4363
23.7181
593.612
197.608
91.7993
70.0621
70.2649
48.5634
57.7601
41.2405
47.4548
36.9319
41.7667
36.5279
40.8889
39.0028
41.504
40.7816
42.0859
42.246
42.8294
43.6284
260.979
134.185
93.7137
61.8909
63.5766
44.6119
48.8582
36.7354
41.5207
34.0162
38.2489
34.2661
37.4733
35.6634
37.5386
36.8002
37.8487
37.808
38.2057
38.7252
330.616
131.673
91.8814
63.7976
54.7519
44.4434
45.5303
35.4415
40.1779
32.1935
36.716
32.1446
35.5239
33.5306
35.5122
34.9064
36.082
36.2075
36.7898
37.2854
477.376
163.818
91.6306
63.5092
57.0594
43.4001
48.1666
36.2726
42.1855
34.292
38.2464
33.9855
36.4913
34.5451
36.1226
35.5438
36.5384
36.56
37.0021
37.3175
346.719
145.523
83.2455
64.0746
57.0496
47.7123
53.7947
37.6297
42.3449
34.0366
37.5151
33.6939
35.8305
34.41
35.5777
35.4472
36.3704
36.5718
37.0245
37.279
329.833
135.811
89.4746
65.6962
68.1774
49.1423
58.8173
41.8748
46.7645
37.7635
40.5379
36.2682
38.2161
36.5558
37.8412
37.672
38.4267
38.4935
38.7216
38.7308
273.494
131.876
79.2201
73.9833
68.6006
50.8007
53.137
46.9608
43.5297
39.0607
39.2782
37.1903
38.5147
38.0729
42.2272
40.0983
39.7763
39.7915
39.9162
39.8632
209.554
168.585
96.1849
78.414
61.088
49.8224
53.7774
48.9258
45.6325
42.9002
42.525
42.8093
43.7178
44.2448
46.0914
43.1348
41.1238
40.6794
40.7017
40.6677
240.113
140.856
107.144
73.1759
62.0287
49.1482
49.1562
49.276
48.0277
45.1256
44.1221
45.3397
47.567
48.0468
47.7943
43.3733
40.7688
40.2213
40.1279
40.1627
222.131
186.317
133.071
74.1896
66.5079
53.2676
51.8859
50.0209
48.8098
45.1217
44.9682
45.6616
48.1632
48.2135
47.3816
42.683
40.0294
39.3837
39.3491
39.5418
387.893
185.031
124.145
70.3693
66.7907
56.3266
56.9529
48.4006
47.3256
46.0228
45.5923
46.0173
46.8909
46.8506
46.9035
42.4981
39.971
39.2133
39.1885
39.2148
226.516
165.693
133.774
74.751
78.3421
57.8625
50.2747
41.9856
42.6205
40.265
42.0056
41.753
42.9236
42.5553
43.6581
41.2522
40.2991
39.7516
39.7155
39.4735
206.521
201.498
163.994
87.0574
81.4904
51.5449
53.5945
44.0481
43.9324
40.8052
42.5649
41.9805
43.1394
42.6786
42.5436
41.7316
41.3995
40.4764
40.3185
39.7202
412.243
182.288
138.995
73.1793
74.3931
48.994
57.0435
45.452
47.8666
44.6465
46.1298
45.5386
46.0927
45.6397
45.2069
43.9195
43.069
41.5031
41.0877
40.2074
172.133
147.719
136.996
78.2447
79.5425
55.0535
60.0605
49.1438
51.9711
47.6706
49.6713
48.2645
49.1211
48.0572
47.6366
45.8771
44.7015
42.4495
41.6973
40.7594
180.581
169.106
135.319
76.9748
81.5826
59.2262
65.5145
54.4305
57.1317
52.3529
53.6483
51.9768
52.3762
51.1149
50.4317
48.3937
46.9546
44.1539
43.0191
41.824
224.166
175.721
136.732
83.3176
93.2932
71.7437
75.5626
64.6003
64.9317
58.744
58.2827
55.1248
54.6671
52.4726
51.5942
49.3074
48.093
45.6161
44.5813
43.2958
261.286
197.951
148.809
100.761
101.317
75.5759
78.3864
68.5119
69.4347
63.4483
62.2696
57.9668
56.8456
53.7302
52.6167
50.0574
49.1875
47.7077
47.5362
47.0806
212.288
146.086
123.465
94.8676
73.0893
60.2488
53.048
46.5441
40.077
34.8169
31.8183
29.2805
27.2305
24.9845
23.2906
21.902
21.0859
20.5255
20.6315
20.5357
29.6537
29.3141
69.6382
31.3199
29.8919
30.5299
73.5596
27.7316
69.129
54.7576
29.5546
28.5599
72.7353
57.2772
66.1924
27.8627
27.1558
29.4749
72.4182
29.1643
28.5951
61.3503
27.1386
27.2183
73.1026
62.9799
28.6029
28.6126
193.384
201.1
152.897
101.966
88.7942
75.5676
59.0343
158.37
155.141
180.346
83.0825
71.258
55.194
46.1996
168.583
186.92
205.983
70.3814
62.3024
45.5211
46.4483
219.877
213.144
218.308
58.3115
49.2384
46.1679
43.3651
179.668
215.665
189.32
46.7815
41.135
42.4305
39.7532
136.281
176.551
138.765
39.9011
36.5592
38.8298
34.3176
127.467
133.501
133.636
35.0198
30.776
32.5232
28.7857
124.455
135.236
121.787
29.7091
26.8032
28.1657
26.4104
159.152
315.807
195.608
65.9468
60.3414
89.8005
85.9026
181.222
172.319
169.083
57.7396
45.6332
80.3064
51.5671
206.905
172.318
182.048
43.2903
42.1175
45.4547
37.7618
215.324
185.596
191.181
42.0918
41.1096
37.1665
37.1154
191.644
190.512
179.908
40.7413
39.4424
37.6349
38.2074
138.742
172.706
137.953
38.7996
34.2578
38.0502
35.6108
134.735
133.768
132.711
32.4336
28.8472
34.1346
30.7129
120.212
132.109
118.323
28.3245
26.5946
30.0143
28.0071
199.965
333.431
190.425
107.648
92.6455
116.633
88.0867
165.369
174.97
173.935
82.674
50.9281
77.6894
48.6596
174.287
175.476
174.973
44.9054
37.5135
43.6189
37.9574
178.223
174.183
166.502
36.7831
36.2663
37.1979
35.6994
172.325
162.222
151.01
36.4264
36.9058
35.2448
33.8896
138.873
148.074
142.078
36.8207
35.2711
33.5658
32.916
133.328
142.197
150.607
34.1784
31.084
32.645
31.8161
122.199
153.487
140.599
30.3607
28.2339
31.7687
30.8736
191.144
314.617
211.481
111.04
85.6774
104.194
84.5474
178.013
195.031
179.706
76.8404
48.0201
72.1779
47.5628
179.327
180.111
178.893
43.4258
37.9487
44.7815
39.4399
172.685
178.627
176.555
37.0133
35.4503
37.5236
35.5194
154.516
173.972
167.124
35.0455
33.8106
35.4359
34.9329
147.547
164.805
159.798
33.4869
32.9349
34.602
34.4755
156.159
158.551
153.572
32.7976
32.6414
34.4751
34.256
140.003
150.669
128.095
32.6984
31.3475
33.9498
31.4512
81.963
66.6345
54.6532
69.937
64.0493
54.709
46.2377
69.0957
51.3427
43.1194
62.6259
58.0972
43.8287
38.6248
57.8809
42.4219
42.263
55.6308
44.6779
37.9354
35.4467
43.1506
41.3803
37.9499
41.3026
33.663
34.2588
30.8733
36.077
36.9989
34.585
31.9581
28.7
30.0055
27.7823
31.7884
33.6917
29.8781
27.8448
25.5102
27.032
24.8758
27.0361
28.5326
25.7327
24.7595
23.0805
24.2913
23.2028
24.62
25.256
24.594
22.7413
22.1918
23.0581
23.1001
55.6632
82.0022
78.952
52.0528
46.031
64.8347
56.8101
42.0104
73.2692
46.8885
43.6072
36.4263
52.4996
37.3581
37.9948
41.1921
33.8247
35.0052
32.7354
34.0361
29.3221
36.1041
33.1437
33.3952
32.0049
30.2231
29.1688
41.8506
34.396
34.076
34.6764
29.7931
28.2425
43.4852
41.9908
29.9268
34.5174
32.3111
27.5602
25.4519
40.3749
35.4821
25.9574
31.2271
28.6711
24.8974
23.9842
33.8477
29.5611
24.88
28.0763
26.6703
23.9074
23.8815
28.4956
25.7646
85.0063
97.9208
80.5472
68.1384
58.1899
68.2211
55.5875
46.3924
70.8588
43.6041
53.2008
37.1475
50.177
34.9632
33.6166
38.9896
33.71
33.7941
29.1074
32.2923
28.803
32.7353
33.0106
31.6581
28.4644
41.5891
28.25
27.3537
33.9209
31.2961
30.4037
43.5874
43.9436
27.2621
27.2308
32.3429
30.2006
29.7403
42.0229
36.5506
27.1936
26.7298
29.0638
29.5197
28.7107
34.6504
29.425
26.4211
25.3338
26.8522
28.5668
28.1143
28.0661
25.1072
25.0105
23.8636
78.4506
87.8297
72.8952
65.1705
54.6035
61.9087
49.4255
42.8533
62.1146
41.8306
49.0635
34.4308
43.6973
34.0428
33.6696
39.2706
34.5176
32.0423
28.7292
32.3846
28.7677
31.4759
33.0024
31.4296
28.1694
27.1136
27.9116
26.9524
30.2261
31.3429
30.8891
26.9043
26.4588
26.7914
26.1352
29.5893
30.6216
30.4222
26.3478
26.0008
25.9089
25.5578
29.1652
30.3623
29.9574
25.8405
25.1466
25.426
24.886
28.3906
29.6705
28.3937
24.9031
23.8521
24.6805
23.9638
59.6697
52.4426
44.2692
54.7719
50.0063
47.8175
40.8375
53.8333
42.1048
37.7237
48.8729
43.9861
39.4305
36.6504
41.3993
36.9792
34.2188
41.7646
35.9814
35.836
33.124
31.9859
33.0699
29.894
34.4019
30.2203
32.1597
29.5782
27.6087
29.0768
26.9789
29.2768
27.5453
28.9316
27.5113
24.8755
26.3254
24.6201
27.1509
26.2138
27.1973
26.7603
23.0345
24.1988
23.5024
26.0285
25.817
26.7727
27.0914
22.404
23.4479
23.585
25.8379
25.8838
27.2539
27.7097
43.7488
58.4006
51.2599
45.1003
39.8014
47.0216
41.6279
35.4674
47.5741
35.4785
38.2729
34.9491
39.4558
33.6029
32.0101
32.8349
29.0477
34.2037
32.0949
32.3542
30.3014
30.0126
30.5377
29.9149
30.8678
29.9068
30.1945
29.8178
32.5282
28.7855
31.4875
29.0688
31.4282
28.6396
32.5615
25.3939
50.5842
39.6685
28.2244
27.639
52.3503
38.9745
24.4288
36.7278
30.4631
27.6485
28.0501
36.2219
31.7472
24.433
29.1675
26.0402
28.2262
28.5083
30.9416
28.7807
52.1178
59.5875
49.8763
47.6088
41.9346
46.5474
40.8277
35.2862
45.4794
33.4683
39.6306
33.393
38.3182
32.3668
28.8232
31.3213
28.3698
32.0903
30.016
31.2934
29.5705
41.7087
44.9794
28.2028
33.3401
31.5652
210.837
28.6241
47.9116
66.6299
39.0774
171.302
39.9039
156.519
48.3136
40.8578
27.1882
26.6093
54.9243
38.7023
28.5372
27.9489
29.9438
26.2643
25.1431
35.7549
30.8075
27.7312
27.1035
25.2579
24.8113
23.7047
29.8814
27.9774
26.9061
26.2374
49.0747
54.6468
45.1576
45.6486
40.3243
45.9244
38.5309
33.0464
40.5266
32.903
37.7232
32.1208
35.9614
32.0322
28.296
31.435
28.1911
31.1312
29.484
31.0231
28.821
26.8267
27.4583
26.6032
29.1135
28.2431
28.3358
27.609
26.2632
26.4072
25.7128
28.0778
27.7196
27.3927
26.7813
25.7805
25.4941
25.1235
27.6289
27.3232
26.6254
26.3032
24.8715
24.9776
24.4714
27.2071
26.7764
26.213
25.9294
23.6565
24.2964
23.7263
26.6199
26.1019
25.8447
25.5402
48.2639
46.8875
40.7059
51.5678
48.2447
47.9196
45.2545
42.3183
39.5411
37.1104
46.7406
42.9038
44.7282
43.163
35.6602
36.3334
33.7751
42.1148
39.9672
42.6443
40.593
30.7428
32.864
30.4378
38.9639
37.3488
39.7928
38.2282
28.7293
29.8656
28.7495
37.5552
37.9196
38.0773
38.4591
27.8583
28.568
28.6441
37.8169
38.0923
38.8771
40.6761
27.8841
28.8382
29.5067
38.529
39.2464
41.1998
42.0501
27.8612
29.7167
29.9196
39.2376
39.2005
42.1239
42.2105
39.617
45.2533
40.5898
46.1471
44.5238
46.7313
44.798
35.7266
38.8094
34.3229
44.1429
43.0509
44.1812
43.0444
33.0319
33.3886
31.5082
42.6443
40.4492
42.4514
40.04
30.6845
31.4481
47.0362
39.6559
38.0968
39.261
39.7305
29.5647
48.2826
45.5348
37.929
38.0759
40.3228
40.4955
29.3276
43.5206
36.8236
38.478
40.8571
40.329
41.7046
30.368
35.3023
32.872
41.5308
42.5588
42.3333
43.0679
30.6169
32.3991
30.5715
42.6223
42.5218
43.0071
42.3674
40.8503
45.2402
40.0625
47.7209
45.1515
50.0239
44.9786
34.1118
37.9225
33.2095
44.3471
43.0042
43.6635
42.0042
31.249
32.4039
30.9467
42.4185
39.985
41.824
40.121
47.305
30.5387
29.8329
39.2391
39.7109
39.5303
38.5567
46.7341
29.8126
29.751
40.303
40.463
38.5293
38.613
36.4199
29.6655
29.3637
40.2693
41.4988
38.8333
40.5713
32.0355
29.2968
29.0213
42.0895
42.6995
40.9904
41.3759
29.8526
28.897
28.1947
42.6249
42.0544
41.3436
41.1389
39.6044
44.8419
37.9878
50.7147
44.3933
50.125
41.1724
32.9468
35.7857
32.5709
42.9113
41.3012
39.6278
38.5717
30.854
31.7173
29.8791
41.2131
40.21
38.4594
37.6709
29.5964
29.4447
28.7499
39.6494
38.8326
37.2537
37.0795
29.083
28.5735
28.0988
38.8357
39.014
37.3745
37.6035
28.9165
27.9709
27.7238
39.2542
40.4914
37.5417
37.7525
28.6833
27.6836
27.5249
40.7542
40.9973
37.9992
38.1565
28.0274
27.4652
27.0791
40.9628
40.8859
38.0799
37.8379
50.6478
50.6027
49.8596
69.5934
65.2111
69.8114
73.0902
45.7151
49.4561
48.0473
63.4542
67.732
72.9815
74.1922
43.9601
47.6135
45.7725
69.4394
66.4926
74.5716
76.7268
42.0043
45.0562
44.208
65.7121
69.5714
77.6146
80.7854
42.986
44.2869
45.0367
71.2475
69.4987
81.5814
81.6507
43.1994
45.3631
46.6679
69.351
71.7617
81.0801
78.7011
44.2976
47.0505
47.5472
73.1865
72.1793
78.3602
77.5177
43.8649
47.5406
47.2256
72.4368
73.0707
77.4587
78.0154
49.4387
50.4758
50.0519
65.8454
73.7452
68.8446
76.4819
48.4042
49.7442
49.1466
74.1839
75.8758
77.3892
80.3902
45.9308
48.7231
45.9476
76.5069
80.5093
82.0051
89.4102
44.0701
45.0278
44.4947
81.7405
84.9873
91.6136
95.6186
44.808
44.896
45.3027
85.6903
85.9718
96.3126
95.5161
47.0809
45.6345
47.8369
85.2577
81.2295
93.8384
86.1195
48.0745
48.3278
48.6287
79.9168
78.3579
83.3766
79.5352
47.467
48.4691
47.4568
78.1796
78.4176
79.1735
78.5666
50.5501
55.7057
50.4993
70.3624
77.6376
77.7061
77.3982
49.2113
49.3423
48.1869
78.2947
81.0405
77.1498
78.8332
46.0427
48.0534
46.6474
82.6875
90.141
79.8496
84.5286
44.5892
46.0066
45.2156
92.4631
96.1476
85.9357
88.4734
45.3331
45.258
45.52
96.8224
96.249
89.0495
88.9319
47.7176
45.8271
46.9758
94.3826
86.2608
87.8645
82.4985
48.3783
47.2392
47.3035
83.484
79.6887
81.0001
79.4209
47.2161
47.2152
46.6424
79.3371
78.9648
79.2916
79.1638
49.7658
55.751
45.0749
78.6427
75.4697
75.5692
65.1814
47.3115
43.6853
43.5771
74.8507
77.0076
63.5726
68.8834
46.5315
43.6567
42.8803
77.7059
81.1177
69.6122
69.9107
45.4958
42.3923
42.5437
82.056
84.4658
68.8647
72.2115
45.8501
42.9471
43.1626
85.0097
85.0711
72.7338
73.6222
46.7282
43.0661
43.3506
84.2566
80.522
73.3302
75.241
46.9216
43.6162
43.717
79.9642
79.1893
75.4198
75.5988
46.4245
43.6154
43.0764
79.1335
79.8978
75.42
74.938
31.0497
30.0277
31.2403
29.4586
30.4186
29.7747
32.2124
34.0496
29.4177
46.2114
33.4118
31.0511
29.6588
163.179
45.0635
40.1093
62.9022
190.616
36.1287
50.9899
209.98
30.2803
30.8786
30.6505
30.6597
30.2223
30.0559
30.6927
31.4013
29.5332
30.2152
32.34
29.8319
32.6519
31.3432
34.7704
34.3486
30.5622
49.3554
30.0321
167.549
32.5394
46.5844
193.111
43.5124
67.7658
53.2003
213.073
38.6942
32.4563
28.289
30.685
27.6887
31.2413
28.193
31.7394
51.68
41.4588
67.7244
175.823
41.5478
51.8908
161.305
51.6556
40.0753
62.7602
80.9144
41.4303
46.8735
107.364
33.1194
29.1749
29.2115
32.7649
28.7883
33.0849
32.8351
33.106
27.9786
28.8882
32.4309
28.4047
32.4387
32.7794
54.6262
177.198
45.2882
71.065
54.4316
162.449
45.9321
54.6648
82.4196
44.3728
65.6394
49.3595
109.6
45.9338
46.7136
59.8822
37.7953
185.814
35.3354
199.897
48.1705
28.4748
27.8892
27.5027
27.8818
27.985
27.9492
27.5683
29.0947
28.8072
27.2673
27.3279
28.3074
29.6975
27.3857
41.9627
34.4789
48.0674
29.6428
204.359
29.1126
33.3227
47.3497
188.365
65.5713
39.9354
203.171
48.5218
37.5874
28.939
28.3027
29.2284
28.8535
28.3865
28.0089
29.4037
29.6045
27.8002
30.3862
28.6629
30.2087
27.8435
29.8425
46.4256
67.2163
39.9225
104.445
40.2508
141.3
45.9755
30.6586
29.2878
27.1708
27.3424
29.7604
30.2202
27.4039
30.8495
30.2149
27.2196
27.4525
30.0931
30.9257
27.4545
47.4469
173.658
72.1122
40.8746
159.32
48.3366
40.9631
45.5634
100.517
71.2906
39.8816
137.24
45.0831
40.6328
31.0895
27.8192
30.8707
28.6403
30.7157
27.8816
31.2124
31.1771
27.8965
31.2509
28.641
31.1936
27.909
31.2904
209.019
234.894
195.879
138.516
124.089
142.126
130.774
162.068
165.927
146.235
117.461
112.049
113.748
103.409
118.06
129.437
125.325
102.338
85.8311
92.3073
81.102
114.362
127.872
128.952
70.477
60.5426
70.7085
61.5034
103.962
126.134
115.279
54.093
50.3809
54.5763
50.7359
90.0207
100.404
89.2564
47.8888
44.7738
48.5764
45.2062
83.3554
83.9014
82.6459
42.5185
38.9121
41.2224
37.861
75.8501
82.7096
78.5833
36.8512
30.7524
35.9081
27.5083
180.039
177.546
140.728
119.736
108.131
112.345
91.0994
151.305
264.908
276.517
170.641
158.577
165.752
234.033
88.8858
163.096
168.032
114.625
101.43
99.6131
168.312
77.7983
156.625
174.129
84.2919
79.4362
79.6195
174.825
84.3679
211.78
202.308
76.7208
81.5583
80.2728
215.941
80.3824
208.163
218.731
83.1658
80.0178
84.0067
209.987
65.8207
154.435
170.522
67.9791
66.0401
67.9941
157.705
56.1829
127.024
129.998
60.588
58.9478
59.0116
127.627
49.5636
132.186
130.897
53.0147
51.9598
50.2271
134.077
82.7067
88.0023
72.6749
30.2763
25.298
30.1879
25.1345
134.29
200.664
185.68
101.348
75.1938
113.545
94.3603
115.871
170.395
222.21
116.387
98.439
124.025
203.73
84.0255
167.084
165.381
79.1073
74.5467
93.0482
166.768
69.4585
194.736
183.654
69.5393
69.8409
69.8878
190.086
72.4418
215.186
206.213
74.3444
75.2113
71.8069
209.076
73.0831
206.365
207.474
75.6296
74.7126
73.4011
201.926
67.9653
164.576
179.774
69.3403
67.9312
69.0048
165.114
54.6866
133.192
133.696
57.8445
54.4238
58.7144
133.088
48.7809
135.293
134.758
49.5524
49.1542
49.6236
133.63
70.0239
82.691
73.8697
30.0779
25.3328
30.857
26.5817
228.715
284.14
228.254
151.112
122.895
154.299
129.699
179.679
285.234
344.874
201.842
175.304
205.027
284.974
91.9472
163.332
173.076
111.259
93.1162
109.691
162.857
66.8037
172.331
168.885
68.3356
66.0092
69.2062
171.055
65.04
176.657
171.121
64.7429
64.6199
65.2863
170.129
62.1408
177.251
165.336
64.6355
64.6437
63.2144
164.303
59.7403
156.667
157.319
63.3355
62.4407
60.1833
151.36
53.9025
133.497
136.031
57.0896
54.1172
55.9129
135.374
50.6017
134.087
138.979
49.3789
48.6722
50.5869
141.452
79.09
97.2584
84.187
32.9975
28.1172
35.0227
30.0811
196.833
224.366
196.75
143.564
122.42
142.885
118.389
158.367
250.858
305.379
181.982
160.067
180.299
259.85
88.472
177.034
185.95
100.059
87.2994
103.039
180.639
70.6381
179.133
180.481
72.8228
70.9392
72.5199
180.512
64.6176
178.659
181.922
65.8245
64.7954
65.6016
182.335
61.7434
162.942
175.14
61.9355
60.9822
62.4114
170.318
58.5515
148.381
158.822
58.1131
57.5897
58.9501
156.469
58.3876
149.83
155.44
56.3252
56.1709
58.3244
156.281
59.1327
156.914
158.004
57.3667
57.7999
59.1267
157.249
84.3021
95.5438
88.625
36.1292
30.063
37.8395
34.7322
134.775
163.97
133.111
96.4962
86.2139
90.637
80.8715
113.496
118.469
113.468
70.2776
57.7933
68.1488
61.0673
109.636
109.938
105.403
52.6969
47.6886
58.6817
53.3226
105.282
104.344
102.399
43.8035
42.8359
48.1848
48.0958
101.074
100.548