/*--------------------------------*- C++ -*----------------------------------*\
  =========                 |
  \\      /  F ield         | OpenFOAM: The Open Source CFD Toolbox
   \\    /   O peration     | Website:  https://openfoam.org
    \\  /    A nd           | Version:  10
     \\/     M anipulation  |
\*---------------------------------------------------------------------------*/
FoamFile
{
    format      ascii;
    class       volScalarField;
    location    "5.3";
    object      omega;
}
// * * * * * * * * * * * * * * * * * * * * * * * * * * * * * * * * * * * * * //

dimensions      [0 0 -1 0 0 0 0];

internalField   nonuniform List<scalar> 
12920
(
26.164
72.9926
98.1215
91.627
81.9712
77.5784
72.1562
68.6289
64.3268
61.3679
59.1024
56.8369
51.6741
45.4851
41.3832
38.5995
36.7921
34.8399
33.9471
32.8379
94.5324
124.968
133.906
108.651
100.752
83.4862
76.3033
72.0037
68.4503
66.4071
61.5963
57.4394
51.8512
48.977
47.2785
46.4191
45.6741
45.3439
45.2003
45.2567
145.681
254.398
207.733
151.52
116.799
91.542
77.9586
70.152
62.9443
59.0866
54.2969
51.9962
49.5565
48.412
47.428
46.9845
46.5388
46.3573
46.1675
46
578.763
417.938
205.006
152.808
117.607
86.3041
76.1117
65.7932
61.7873
55.9268
52.577
50.3678
49.0888
48.4987
48.0598
47.6004
46.9869
46.5013
46.1962
45.8249
413.546
265.536
181.872
152.959
121.768
97.7576
83.7795
74.5031
68.5454
63.4643
59.2948
56.1976
53.8678
52.6417
50.9597
49.5005
48.2668
47.4256
47.0979
46.4341
225.911
234.786
176.765
137.37
127.283
94.0399
89.9311
78.0257
71.35
65.4299
61.8499
58.9085
56.1174
53.7838
51.1575
49.24
48.0771
47.4823
47.2845
46.7773
239.984
268.594
221.2
191.421
164.459
140.348
123.42
100.586
83.8949
74.8012
68.2823
62.8862
58.1283
54.0048
50.6443
49.0597
48.5081
47.9331
47.73
47.2029
364.792
341.128
253.163
205.811
170.66
148.4
241.764
187.485
138.193
114.711
112.078
94.6993
86.7844
82.5718
55.1962
52.246
49.9046
48.1159
47.1896
46.7389
322.272
226.109
164.317
157.646
137.145
208.16
325.503
175.878
157.348
192
217.976
167.13
130.575
129.069
91.1056
50.1231
47.3438
45.9564
45.4397
45.6252
143.817
135.375
159.523
163.168
138.099
163.065
195.538
160.907
187.515
211.662
213.004
180.876
134.22
135.535
82.6657
47.9729
46.3744
45.8078
45.6647
45.7329
137.135
189.757
184.298
185.379
175.707
272.451
346.288
175.272
169.645
175.251
178.183
166.67
134.96
133.54
90.9815
53.3733
51.1253
50.0672
49.4647
47.6945
165.552
162.752
179.679
178.656
159.612
247.778
301.694
179.543
178.815
179.103
168.07
151.145
147.947
156.916
98.3447
57.329
55.3067
53.6379
52.6522
49.8809
91.2754
150.702
158.231
154.845
135.892
109.619
163.617
118.366
110.597
107.724
103.155
98.5084
93.9469
90.3273
60.0019
58.4275
57.9305
56.8651
55.5245
51.7713
164.884
155.189
167.356
155.765
124.09
99.7
82.2816
76.9893
71.4643
67.7319
64.4897
62.743
61.8478
61.3846
60.8493
60.7031
60.5323
59.6844
57.1702
52.2619
82.9648
147.401
177.158
154.238
119.6
110.701
97.5493
93.9318
84.5871
77.7726
71.6186
68.6941
66.7506
65.6599
64.5207
63.868
63.1827
61.53
57.7027
51.5349
32.3438
149.774
194.568
176.901
142.813
129.592
117.37
112.569
102.219
92.3368
81.3604
74.3594
69.4691
66.8432
65.0374
63.9431
63.0978
61.1667
57.1045
50.1317
91.4353
187.715
199.807
173.01
145.462
138.68
131.409
126.499
114.174
100.708
87.3046
78.899
73.5277
69.929
66.8398
64.5458
63.3801
61.3718
58.4897
50.8821
168.324
155.1
146.938
149.76
146.753
140.55
130.664
120.982
106.489
93.8167
83.8813
77.736
73.7053
70.5331
67.5966
65.1934
64.1388
62.7081
61.0589
55.1015
254.862
199.189
188.648
188.665
181.637
154.049
119.3
96.051
79.868
69.6472
64.3506
61.6986
59.7002
57.1012
55.0281
52.8904
51.4076
49.5269
49.3036
48.7332
46.9737
122.16
147.072
153.463
151.031
143.181
124.519
100.815
78.2002
64.5267
58.2722
54.0683
49.5134
45.5089
41.5735
37.9061
34.618
32.1847
31.2263
31.4474
11.5981
40.279
60.1044
56.8514
51.6827
47.7132
44.3378
41.4303
38.8454
37.2538
34.8982
31.4185
27.6332
24.8925
23.4612
22.843
22.6978
22.4586
22.2522
21.6213
117.443
105.018
85.8635
61.123
50.5642
44.0424
37.5175
35.4059
32.7783
32.0078
30.0876
28.8946
27.5259
27.0034
27.0207
26.9552
26.7482
26.2464
25.8584
25.0575
196.349
198.953
147.702
96.171
65.3448
45.0784
36.4246
32.5684
29.4883
28.0853
26.8882
26.6131
26.5669
26.3415
25.6802
24.8934
24.2073
23.6419
23.3284
23.1574
210.91
203.084
120.753
91.5737
66.4159
43.1737
36.4396
32.0587
29.5818
27.4557
26.1955
25.293
24.7014
23.9406
23.4153
22.9736
22.7768
22.6312
22.6574
22.8037
178.674
141.188
98.227
73.4161
58.1134
48.2967
44.3065
39.2703
35.7491
32.1607
29.7102
28.0084
26.9121
25.9556
25.2093
24.418
23.8915
23.4519
23.3745
23.3173
167.076
143.241
86.8089
64.8556
56.7404
47.7193
48.7117
46.2461
41.38
36.6912
33.259
30.4188
28.6253
26.9879
25.9233
24.8748
24.2283
23.7022
23.6725
23.6793
215.398
145.42
112.303
99.758
84.9298
74.011
73.7244
70.8268
57.7127
46.4426
38.8023
34.7319
31.1511
28.1212
26.4432
25.1129
24.5374
24.151
24.1546
24.3029
287.123
157.594
130.02
132.502
111.348
98.7393
99.8058
101.459
90.2274
55.3365
41.132
36.2899
31.4921
27.389
23.5377
23.8969
24.0997
24.1729
24.1685
24.2851
286.698
161.498
103.563
91.8134
81.4046
83.8477
88.1812
78.1065
68.0898
53.5581
40.8655
35.0245
30.507
26.243
23.64
23.5297
23.5597
23.3782
23.2527
23.3871
147.619
156.43
117.52
93.1287
80.1652
73.199
60.5428
53.2293
39.8288
37.6585
35.6912
33.7276
28.6507
25.5722
24.7461
23.5612
23.0406
22.8052
22.8083
22.9529
226.814
166.064
120.161
102.167
91.2308
95.2105
92.769
76.1137
41.092
32.8225
33.2185
33.8268
31.5615
28.3997
26.0399
23.4431
23.3871
23.5539
23.774
23.7235
226.092
154.895
117.144
94.1576
89.7402
96.6429
94.811
70.2728
38.869
32.8746
31.142
29.9825
29.4716
29.0871
26.8447
24.9563
25.3745
25.5207
25.6409
25.361
146.88
129.338
111.639
96.2331
87.5279
68.0768
64.8946
51.779
39.2556
32.319
31.4017
30.2065
29.7331
28.8731
26.9711
27.1722
27.3414
27.4033
27.4089
26.7776
221.533
133.481
111.463
86.4651
67.8764
57.0326
47.8106
43.0135
38.5392
37.0849
34.9053
33.5118
31.6664
30.3709
29.5749
29.1972
29.1463
29.0613
28.8299
27.531
347.378
208.499
103.074
75.2798
58.0964
52.4957
48.5282
46.1258
43.459
41.4545
39.7742
37.9955
36.0653
34.2542
32.7864
31.8586
31.4157
30.7245
30.1924
28.0112
134.766
155.934
121.357
85.3617
63.6897
57.7754
52.1966
50.2408
46.8188
44.1778
41.4439
39.1027
37.438
35.8543
34.5913
33.6485
33.1512
32.5649
31.9782
28.7111
198.521
166.973
133.6
89.9301
70.445
66.1248
62.0282
60.326
57.0237
52.8314
48.0184
43.3402
39.5723
36.9519
35.4958
34.8039
34.4988
34.324
34.1406
30.8935
197.941
229.375
214.394
149.401
95.9056
74.9752
66.7616
63.7375
60.6985
55.8765
50.0138
44.0604
39.4685
36.7022
34.9357
34.0633
33.8972
33.9754
34.209
32.6976
244.235
207.648
173.21
121.026
89.2827
70.1756
59.0515
54.0697
49.0055
43.1525
38.0014
34.3373
32.4358
31.5359
30.8823
29.861
28.9544
28.1518
27.7021
26.5483
27.1262
72.6953
82.0186
87.107
84.6526
77.082
61.6041
46.5045
37.9981
35.5376
33.197
30.3201
27.773
25.81
24.3069
22.8717
21.8595
21.1214
21.0079
20.8132
19.2047
77.6232
88.1018
74.8825
60.565
53.6789
49.1969
45.0993
41.7215
38.4946
34.8885
30.8672
27.5365
25.4859
24.9571
24.9389
24.9862
24.9415
24.8518
24.3953
152.334
95.1984
72.373
52.437
44.8518
37.5081
34.6788
33.0179
31.2626
30.3225
28.2954
26.9939
25.3647
24.8545
24.3152
24.1696
23.9009
23.764
23.5749
23.5003
157.194
146.407
94.3108
62.6321
46.5369
35.2866
31.1534
27.8464
26.1748
24.9776
24.0676
23.7462
23.2345
22.9649
22.3943
22.0567
21.705
21.5601
21.4748
21.5254
144.876
137.963
85.9666
60.6219
45.3169
33.6475
30.9697
26.7005
25.7937
23.7759
23.1271
22.2364
21.7467
21.2457
20.9134
20.7349
20.666
20.6923
20.7688
20.9772
264.898
142.598
82.6079
58.0514
46.094
37.5785
36.0753
31.6904
29.365
26.7726
25.1915
23.9806
23.0935
22.392
21.843
21.4589
21.203
21.1021
21.0998
21.1325
261.822
130.562
76.4034
55.4112
48.2995
38.9665
41.3895
36.308
33.0539
29.0964
27.0005
25.0259
23.8013
22.8073
22.1874
21.729
21.4752
21.3586
21.3611
21.3489
322.689
139.478
91.0005
75.1325
64.381
56.8257
54.7921
49.1083
40.3996
34.7011
30.1393
27.2884
25.0062
23.3862
22.6218
22.216
22.1064
22.1268
22.1826
22.1731
178.638
109.729
81.4852
77.4529
68.6128
67.5272
68.2447
69.1596
52.9292
39.0453
31.6607
27.8331
24.8896
22.9487
22.8351
22.824
22.8051
22.7085
22.6785
22.6479
277.598
130.043
80.7377
63.5435
57.0457
57.4454
64.0692
58.5637
51.184
38.731
30.5715
26.8897
24.3063
22.8103
22.9285
24.071
23.276
22.718
22.4687
22.4723
468.545
222.57
108.204
79.2571
61.5814
52.7553
49.8554
41.6013
34.332
31.2819
29.2479
27.1192
24.9874
24.4014
25.348
23.9216
22.5769
21.9858
21.8306
21.8741
410.642
192.081
117.615
89.9651
71.6091
66.7098
60.3947
48.3216
32.7275
27.872
67.0684
55.8341
37.4633
28.4349
24.2803
22.8205
22.1266
21.873
21.8271
21.7952
272.208
157.32
116.47
78.101
63.124
61.1489
56.9092
44.8159
31.1959
27.802
26.636
26.1578
25.5978
24.6243
23.5574
23.4122
23.0792
22.8343
22.736
22.4186
178.177
148.392
112.885
81.5706
63.6951
48.9545
46.5405
37.2012
31.3019
27.1775
26.4054
25.2541
24.7709
24.2732
24.5634
24.3493
24.2325
24.0041
23.8276
23.1811
166.789
166.662
118.119
78.6381
55.7884
44.4543
38.2547
34.4283
31.5149
30.0922
28.7157
27.7645
26.8551
26.3011
25.9467
25.6623
25.4983
25.0936
24.6967
23.5515
444.604
157.704
105.133
64.0246
49.1243
41.9491
39.5486
37.5497
35.3213
34.0236
32.5829
31.4617
30.195
29.1765
28.3312
27.6753
27.1796
26.2085
25.4925
23.6333
165.491
169.679
139.032
81.1533
56.4097
47.9414
43.2964
40.7911
38.0861
36.1458
34.2039
32.9035
31.7196
30.8412
30.0001
29.3698
28.8058
27.584
26.4585
23.6947
116.012
153.61
140.102
84.5895
61.4899
55.077
50.481
47.874
44.076
40.9862
37.654
35.2341
33.2768
31.9693
31.0969
30.6332
30.2425
29.439
28.1939
24.5697
174.295
226.361
203.936
121.697
76.1762
61.9904
53.6229
50.0449
45.608
42.1274
38.4822
35.664
33.419
31.9968
30.9891
30.4047
30.1081
29.588
28.8492
26.1765
268.661
222.148
148.938
105.767
79.0472
62.8868
51.5688
46.5105
42.0359
38.2157
34.413
31.8607
30.1305
29.0642
28.1689
27.2966
26.6087
25.7492
25.0978
24.0143
126.528
101.751
94.4857
93.2321
88.2277
76.2432
59.7905
48.0296
42.4014
38.3876
34.5698
31.3495
29.0864
27.2522
25.8887
24.4145
23.6274
22.7634
22.4748
21.7273
89.4959
111.35
112.089
94.389
69.454
57.1773
50.8738
45.0004
40.4597
35.4329
31.6464
28.3692
26.5274
25.7153
25.7991
25.9081
25.9824
25.8635
25.7412
25.1664
275.345
115.661
75.6538
57.7805
50.1602
39.8412
39.6378
36.2686
35.2414
32.2595
30.5135
28.6183
27.9239
27.651
27.5072
27.5305
27.5475
27.6933
27.8017
28.1717
293.386
118.843
78.7516
55.4598
46.1109
35.878
33.983
29.5852
29.0552
27.052
26.7942
26.0437
25.8835
25.5191
25.3622
25.2429
25.2452
25.3318
25.425
25.7129
174.642
136.314
79.5954
54.7321
42.9374
34.5312
33.0178
28.1572
28.1349
25.6306
25.5776
24.4579
24.4167
23.9952
24.0163
23.9891
24.0987
24.306
24.4959
24.8063
433.587
194.109
80.8133
55.6429
45.5527
36.5807
36.6957
31.4571
30.6159
27.6986
27.0536
25.6453
25.3171
24.6535
24.5235
24.3683
24.4034
24.4871
24.5944
24.7525
215.859
143.884
76.3886
54.7813
47.7128
38.8067
41.8592
34.0085
32.6591
28.6089
27.6267
25.8227
25.4039
24.7061
24.5951
24.4869
24.5562
24.6484
24.7475
24.7981
264.317
116.189
84.1754
64.7766
58.9596
48.4173
47.8275
40.1565
36.9232
31.9627
29.9916
27.418
26.6712
25.676
25.5997
25.5585
25.6506
25.7559
25.7992
25.7196
286.029
110.817
73.8771
61.9111
58.0749
51.38
52.1979
50.1634
40.0708
34.5511
30.4318
28.1046
26.7149
26.2687
28.6551
27.5696
27.0873
26.8094
26.7518
26.591
242.641
140.026
80.5201
57.8927
50.3148
49.3171
52.3239
47.1235
40.4479
34.3911
30.0269
28.4565
27.774
27.948
29.7416
30.0129
28.1511
27.3246
27.077
26.9321
354.326
146.505
101.777
67.3327
51.6935
44.7342
44.5231
38.41
35.1034
32.2861
30.3514
29.3437
29.518
30.5545
31.9222
29.9109
27.5412
26.6428
26.4173
26.438
189.558
168.8
109.934
76.1856
57.6773
50.2658
45.7734
39.0548
33.1736
31.0112
48.7595
44.0714
34.8495
31.4825
30.3447
28.7398
26.7754
26.0365
25.8486
25.8565
383.966
163.466
103.564
66.705
53.4155
47.4605
44.6909
37.4983
32.2172
30.4936
29.4232
29.0048
28.8847
28.5758
29.1511
28.4368
26.9055
26.2064
25.9847
25.7745
324.993
180.344
114.979
74.6131
58.5436
45.8523
42.0132
34.928
31.7114
29.1228
28.5541
27.8902
27.7802
27.6377
28.9647
27.8852
27.2955
26.8297
26.5813
26.0539
226.09
175.97
140.494
82.758
59.2903
43.4118
39.0434
34.6018
32.4948
30.8131
30.2668
29.6759
29.4857
29.2363
28.9128
28.5005
28.1938
27.5632
27.0974
26.2274
332.899
163.871
121.827
65.9703
53.5753
41.1676
40.5334
37.5213
35.8818
34.523
33.7815
33.0636
32.3542
31.683
31.0301
30.2684
29.5174
28.3519
27.5072
26.2297
256.796
157.167
127.889
77.1093
59.6383
47.3006
44.3439
40.1387
38.6066
36.6453
35.8202
34.9359
34.2812
33.5624
32.8019
31.8669
30.8042
29.1391
27.8662
26.2003
251.843
155.475
125.688
76.5085
63.4881
53.3662
50.6988
46.4568
43.7093
40.9233
38.9917
37.4054
36.3217
35.3169
34.4896
33.5493
32.5202
30.6158
28.9116
26.5616
230.342
184.268
148.295
91.211
72.639
60.9785
54.8294
50.3619
46.4696
43.1224
40.5851
38.476
37.0257
35.7571
34.8035
33.7944
32.9045
31.3444
30.0348
27.8393
474.437
173.323
135.086
100.148
80.3413
65.2062
55.398
50.6459
46.0644
42.1711
39.1567
36.7487
35.1391
33.6992
32.5857
31.4652
30.5993
29.6213
28.9465
28.2161
273.064
138.022
113.476
97.1724
82.2134
67.3213
55.8411
48.7977
43.5779
38.2687
34.295
31.2829
29.2996
27.3333
25.7895
24.2746
23.3416
22.1359
21.7285
21.4197
66.5479
106.161
105.74
86.4086
67.7342
56.0382
47.1436
39.0715
33.2172
29.3765
27.2797
26.0715
25.5811
25.3109
25.4034
25.1467
25.0312
24.605
24.4299
23.7146
572.36
205.968
94.7814
70.1408
72.0911
49.2896
59.0051
42.0817
48.4294
37.6767
42.5361
37.1585
41.5262
39.6087
42.1217
41.3804
42.6825
42.8348
43.4005
44.3159
258.458
137.452
97.0602
62.6433
65.5403
45.4547
50.0608
37.4121
42.364
34.6221
38.9186
34.8282
38.0616
36.2124
38.0946
37.3341
38.3802
38.3298
38.7084
39.3288
328.859
134.109
95.5198
64.1508
56.5087
44.7101
46.5201
35.8611
40.916
32.6831
37.3358
32.653
36.0724
34.0343
36.0264
35.4007
36.5775
36.697
37.2655
37.8624
478.498
166.049
94.7962
63.7121
58.6023
43.7335
49.0052
36.8177
42.8659
34.8558
38.8531
34.5231
37.0377
35.0553
36.6305
36.033
37.0268
37.0435
37.4706
37.8841
357.738
153.091
86.262
64.4612
58.3524
47.8804
54.4853
38.0991
42.9525
34.5631
38.0806
34.2097
36.3437
34.8972
36.0523
35.9098
36.8328
37.0341
37.4763
37.8282
332.387
138.636
91.1798
65.9102
69.145
49.6572
59.1572
42.4168
47.2348
38.3213
41.0594
36.7892
38.7014
37.0311
38.3094
38.1344
38.8908
38.9608
39.1778
39.2823
263.275
132.556
79.8468
73.5539
69.4658
51.3546
53.1309
47.0356
43.5719
39.1083
39.3204
37.2292
38.5442
38.1132
42.6871
40.5465
40.2246
40.2434
40.3589
40.4016
209.763
166.949
96.8776
77.981
61.7547
49.858
53.767
48.9669
45.7042
42.9497
42.5534
42.8346
43.731
44.2708
46.1711
43.5864
41.5543
41.1149
41.1259
41.1868
232.262
140.494
107.402
72.9774
62.4473
49.1285
49.2293
49.388
48.1393
45.2121
44.1784
45.3759
47.5955
48.0883
47.8868
43.8028
41.1781
40.6308
40.5234
40.6482
215.374
189.048
136.079
74.7224
67.0887
53.2891
51.9152
50.1766
48.9514
45.192
44.9897
45.702
48.2086
48.2745
47.4777
43.0894
40.4171
39.7681
39.7203
39.9993
383.001
183.559
125.116
70.3922
67.1497
56.3101
57.0853
48.5963
47.4702
46.1553
45.692
46.1032
46.9694
46.9303
47.0047
42.8885
40.3404
39.579
39.5414
39.6517
224.189
166.584
135.076
74.8529
78.7527
57.9035
50.3387
42.0202
42.6776
40.3366
42.0733
41.8288
42.9956
42.6354
44.0315
41.6084
40.6549
40.1041
40.0594
39.8985
204.43
201.634
165.079
87.1499
81.9508
51.7081
53.9563
44.1803
44.1834
41.0122
42.8269
42.2521
43.4471
42.999
42.8806
42.0724
41.7464
40.8225
40.6554
40.1341
413.357
181.798
139.128
73.308
74.7761
49.0093
57.2021
45.546
48.0212
44.8077
46.337
45.7802
46.3721
45.948
45.5397
44.264
43.4221
41.8478
41.4236
40.6146
178.723
147.213
136.464
78.2979
79.574
55.0582
60.1266
49.2275
52.1111
47.8336
49.8739
48.5062
49.3988
48.3677
47.9717
46.2292
45.0648
42.8004
42.0341
41.1625
186.654
169.405
134.887
76.8951
81.3675
59.1108
65.4245
54.4182
57.186
52.4639
53.8154
52.1964
52.6423
51.4206
50.767
48.7501
47.3282
44.518
43.3652
42.2328
224.013
176.319
136.767
83.1999
92.9985
71.6141
75.4517
64.6037
65.0133
58.9019
58.4884
55.3755
54.9525
52.7871
51.931
49.6584
48.4581
45.9764
44.9273
43.7061
267.273
200.611
147.872
100.442
100.963
75.3942
78.2485
68.4759
69.5077
63.633
62.5167
58.2621
57.1677
54.0735
52.9772
50.4243
49.5589
48.0697
47.8838
47.5135
213.715
146.083
123.537
95.0694
73.2067
60.2678
53.042
46.5619
40.122
34.8541
31.8411
29.3023
27.2564
25.0096
23.3106
21.9138
21.0921
20.5254
20.6272
20.5303
29.6633
29.3488
70.3848
31.3499
29.8908
30.5221
74.266
27.7379
69.8743
54.8797
29.5481
28.5462
73.4326
57.3866
65.7239
27.8653
27.1572
29.51
71.9177
29.1649
28.596
61.3912
27.1394
27.2208
72.716
63.0669
28.6028
28.6131
196.183
203.098
152.79
102.205
89.3282
76.0266
59.1681
159.21
154.84
179.905
83.5289
71.3208
55.3373
46.2319
168.574
186.622
205.405
70.3929
62.6208
45.4772
46.4115
220.145
212.615
218.28
58.5848
49.4555
46.185
43.4258
181.295
215.893
190.038
46.9735
41.2332
42.4837
39.7759
137.378
177.449
139.4
39.9713
36.6477
38.8565
34.4144
127.873
133.777
133.541
35.1115
30.8546
32.6192
28.8206
124.379
135.191
121.821
29.7678
26.7996
28.1831
26.3962
159.067
317.035
197.35
66.0323
60.3338
89.4274
85.7663
180.778
173.254
168.724
57.8574
45.7841
80.7686
52.0413
206.419
172.1
181.83
43.3557
42.0912
45.7717
37.7993
215.301
185.402
191.236
42.0815
41.1254
37.1731
37.0789
192.197
190.633
180.222
40.7521
39.4437
37.5867
38.188
139.353
173.341
138.444
38.8134
34.362
38.0412
35.6805
134.669
133.924
132.731
32.5309
28.8755
34.209
30.7404
120.406
132.209
118.211
28.3353
26.5857
30.0341
28.0001
201.967
337.19
191.522
107.512
92.9437
116.666
88.7826
164.98
175.352
173.608
83.3355
51.4186
78.3519
49.0646
174.242
175.27
174.874
45.2202
37.55
43.8527
37.9819
178.294
174.117
166.658
36.7912
36.2501
37.2047
35.6978
172.639
162.441
151.233
36.405
36.8996
35.2467
33.89
139.256
148.281
142.062
36.8176
35.3217
33.5626
32.9098
133.325
142.139
150.282
34.2297
31.115
32.6458
31.7977
121.963
153.312
140.601
30.3815
28.2198
31.7431
30.848
191.738
315.783
211.571
111.314
86.1042
104.608
85.0343
177.795
194.859
178.905
77.4034
48.3759
72.8483
47.6538
179.193
179.283
178.242
43.6218
37.9834
44.8119
39.4574
172.843
178.106
176.239
37.0326
35.4471
37.5467
35.4727
154.683
173.743
166.933
35.0422
33.8082
35.3849
34.9024
147.462
164.656
159.644
33.4791
32.9218
34.5705
34.4347
155.983
158.413
153.558
32.7828
32.6122
34.4339
34.2349
140.107
150.703
127.911
32.6666
31.3341
33.9352
31.4572
82.1877
66.8752
54.7629
70.1037
64.1691
54.8553
46.3276
69.1463
51.4683
43.161
62.6941
58.2509
43.9252
38.6616
58.2401
42.3949
42.2712
55.8088
44.9571
37.9527
35.5123
43.3518
41.4531
38.0149
41.5334
33.7975
34.3331
30.9236
36.142
37.0494
34.6096
32.0549
28.75
30.043
27.8098
31.8557
33.7246
29.9503
27.8848
25.5507
27.0606
24.9013
27.0874
28.6009
25.7573
24.7941
23.0984
24.3111
23.2004
24.631
25.2678
24.5884
22.749
22.1873
23.0488
23.0804
55.6731
81.6046
78.8711
52.0753
46.0946
64.7639
56.9387
42.1543
73.716
47.329
43.7116
36.5163
52.7727
37.6002
37.9998
41.4883
33.8674
35.0614
32.7708
34.2008
29.3434
36.1267
33.1567
33.354
32.0445
30.2378
29.1757
41.8142
34.4019
34.0313
34.6556
29.8042
28.2551
43.4839
42.0009
30.0004
34.5069
32.3562
27.5773
25.4679
40.3778
35.5005
25.9737
31.2709
28.6885
24.9072
23.9713
33.873
29.5934
24.8714
28.0902
26.6717
23.889
23.8545
28.5247
25.7837
85.2653
97.8375
81.1762
68.1107
58.4219
68.3556
55.9265
46.8433
71.5156
43.9791
53.5483
37.3991
50.5671
35.1668
33.658
39.206
33.7332
33.9634
29.135
32.4125
28.8172
32.7126
33.0174
31.6564
28.474
41.451
28.254
27.3525
33.9201
31.2952
30.4007
43.4988
43.9927
27.2598
27.2298
32.3715
30.1952
29.7362
42.1045
36.6005
27.1931
26.7386
29.0901
29.5195
28.7028
34.7058
29.4806
26.4318
25.3424
26.8537
28.5541
28.1175
28.1155
25.1341
25.019
23.8725
78.8807
88.3279
73.4896
65.2735
54.9154
62.1637
49.6916
43.1778
62.7638
41.9408
49.4348
34.6006
43.9765
34.0889
33.6987
39.3309
34.5565
32.1401
28.7439
32.4176
28.7858
31.4712
33.0385
31.4094
28.176
27.1087
27.9262
26.9373
30.2208
31.3162
30.8797
26.8979
26.4525
26.7732
26.1281
29.5769
30.6092
30.4063
26.3415
25.9966
25.9
25.5479
29.147
30.3439
29.9561
25.8383
25.1488
25.4165
24.8848
28.4029
29.6713
28.4182
24.9077
23.8607
24.6788
23.9659
59.7461
52.5623
44.3577
54.8063
50.0816
47.957
40.9062
54.022
42.1929
37.7592
48.9356
44.1292
39.4866
36.683
41.625
37.0064
34.282
41.8909
36.092
35.8707
33.1688
32.0936
33.1376
29.9364
34.4893
30.2795
32.2046
29.6039
27.6498
29.1094
27.0019
29.3178
27.5607
28.9517
27.5148
24.9037
26.3471
24.6336
27.1571
26.2117
27.1965
26.7462
23.0425
24.207
23.4924
26.0222
25.8013
26.7558
27.0648
22.3951
23.4328
23.5613
25.8184
25.8699
27.2264
27.6917
43.8176
58.3482
51.3876
45.1522
39.8615
47.0642
41.7204
35.5411
47.7999
35.6649
38.3336
34.9859
39.5723
33.6812
32.0461
32.9628
29.0651
34.233
32.1248
32.4071
30.3064
29.9824
30.5676
29.9276
30.9037
29.8968
30.2172
29.8245
32.4293
28.7897
31.4213
29.0686
31.3677
28.6363
32.4543
25.3972
50.6259
39.7214
28.21
27.6163
52.4161
39.0602
24.4084
36.788
30.5061
27.6235
28.0167
36.2882
31.7686
24.402
29.2025
26.0607
28.1938
28.4884
30.9571
28.7973
52.3097
59.6809
50.1459
47.6786
42.0485
46.6215
40.9676
35.4823
45.7858
33.6247
39.7645
33.4776
38.4642
32.433
28.8514
31.4146
28.3805
32.1461
30.0287
31.3316
29.5739
43.0238
44.4969
28.2143
33.2707
31.7324
211.52
28.6764
48.9347
66.4061
39.4485
171.76
40.2533
156.905
49.4842
40.9714
27.1917
26.6215
55.1729
38.8193
28.5402
27.9551
30.0135
26.2773
25.1531
35.8453
30.847
27.7369
27.1069
25.287
24.821
23.713
29.9109
27.9994
26.9094
26.2416
49.3329
54.8218
45.3737
45.6829
40.4642
45.998
38.626
33.1756
40.7404
32.9397
37.8608
32.1738
36.0487
32.0455
28.3069
31.4649
28.2077
31.1616
29.487
31.0386
28.8293
26.8218
27.4702
26.5921
29.1135
28.2383
28.3433
27.6043
26.2575
26.3939
25.7083
28.0715
27.7138
27.3874
26.7797
25.7786
25.4883
25.1165
27.6235
27.3207
26.6224
26.2995
24.8754
24.9716
24.4702
27.2053
26.7765
26.2088
25.9267
23.6634
24.2945
23.7272
26.6201
26.1043
25.8414
25.5402
48.3219
47.0113
40.7625
51.5561
48.2977
48.025
45.3267
42.4387
39.5845
37.1388
46.7854
42.9641
44.7934
43.2125
35.7447
36.3638
33.8125
42.1713
40.0014
42.6894
40.6297
30.7846
32.9016
30.4587
38.9833
37.3387
39.8245
38.2379
28.7344
29.8805
28.7474
37.5473
37.9013
38.0807
38.4623
27.8492
28.5611
28.6219
37.7998
38.0587
38.8705
40.65
27.8641
28.8127
29.4767
38.4985
39.2238
41.174
42.0326
27.8371
29.6873
29.8924
39.2179
39.195
42.1085
42.22
39.6703
45.2971
40.6683
46.2206
44.6045
46.781
44.8979
35.7537
38.9005
34.3773
44.2206
43.1128
44.2819
43.1218
33.0584
33.425
31.5251
42.7022
40.4852
42.5287
40.0701
30.6857
31.4439
46.9958
39.6867
38.1059
39.2796
39.7006
29.5486
48.2836
45.5511
37.9317
38.0694
40.2959
40.4887
29.2992
43.5611
36.8684
38.4691
40.8283
40.3249
41.6869
30.3332
35.3354
32.8787
41.5031
42.5424
42.3168
43.0644
30.59
32.4042
30.5739
42.6081
42.5344
43.0066
42.3913
40.9469
45.2898
40.1793
47.7905
45.2711
50.1181
45.1427
34.1712
38.0379
33.256
44.4626
43.0852
43.8097
42.0933
31.2649
32.4297
30.9489
42.4985
40.0161
41.9036
40.1682
47.1648
30.5392
29.8301
39.2587
39.6943
39.5612
38.5672
46.8139
29.8081
29.7482
40.2878
40.4594
38.5353
38.6207
36.4844
29.6651
29.3635
40.272
41.4896
38.8453
40.5752
32.0565
29.2967
29.0212
42.0816
42.7023
40.9978
41.3898
29.8589
28.8973
28.1875
42.6302
42.0834
41.3576
41.167
39.722
44.8975
38.0662
50.8327
44.5648
50.27
41.293
32.984
35.8537
32.5807
43.0587
41.3914
39.7316
38.6651
30.8552
31.7292
29.885
41.2915
40.2724
38.558
37.7639
29.5911
29.4509
28.7453
39.7015
38.8625
37.3465
37.1542
29.076
28.5678
28.0958
38.862
39.0344
37.4416
37.6713
28.9112
27.9671
27.7186
39.2695
40.5046
37.6083
37.8091
28.6814
27.677
27.52
40.7688
41.0156
38.0503
38.2088
28.0193
27.46
27.0694
40.9808
40.9178
38.1345
37.8967
50.6956
50.716
49.9538
72.7514
68.9858
74.3243
76.9527
45.7777
49.5542
48.1481
66.6991
72.3538
76.7821
78.07
44.0272
47.7136
45.8603
73.2404
70.5436
78.4429
80.5925
42.0253
45.1357
44.2598
69.1545
73.7578
81.4822
84.58
43.0115
44.332
45.0769
74.7451
73.1685
85.3268
85.1925
43.2027
45.3967
46.6906
72.56
75.4249
84.5509
81.918
44.3215
47.0776
47.5843
76.4342
75.6498
81.5449
80.6293
43.8904
47.5786
47.2734
75.5946
76.8374
80.5542
81.0291
49.5421
50.5024
50.1816
68.8314
77.4045
71.8366
79.7681
48.5175
49.8824
49.2807
77.836
79.6538
80.7167
83.9075
46.027
48.8588
46.042
80.3181
84.4198
85.6089
93.3282
44.132
45.0943
44.5125
85.6623
88.8191
95.6065
99.5357
44.8493
44.9034
45.3365
89.4761
89.5685
100.161
99.1038
47.103
45.6686
47.8678
88.7749
84.4441
97.3109
89.2252
48.1145
48.3642
48.6823
83.0462
81.405
86.3441
82.3266
47.518
48.5236
47.5181
81.2172
81.6968
81.9524
81.282
50.7026
55.805
50.7055
72.4225
80.7292
80.3359
80.2746
49.3507
49.5375
48.3408
81.4747
84.4567
80.0519
81.7909
46.1438
48.1968
46.7808
86.1921
93.9661
82.8335
87.6881
44.6214
46.1249
45.3038
96.3799
99.9726
89.1064
91.5757
45.3681
45.3391
45.5949
100.568
99.7429
92.1121
91.8981
47.7577
45.9027
47.0407
97.7727
89.2906
90.7716
85.177
48.4393
47.3099
47.3795
86.3805
82.4244
83.5953
81.9627
47.2837
47.2895
46.7153
82.0661
81.9339
81.8262
81.653
49.9796
55.9107
45.2024
80.203
78.1292
78.2541
67.0235
47.4661
43.8036
43.7118
77.5461
79.7794
66.0524
70.7883
46.6718
43.8044
43.034
80.4698
84.0161
72.142
71.9534
45.6027
42.5455
42.6713
84.9454
87.2952
71.3451
74.2406
45.9421
43.0645
43.2802
87.8208
87.8221
75.1834
75.7262
46.8043
43.1847
43.4626
86.9676
83.0452
75.767
77.4122
47.0029
43.7248
43.8289
82.463
81.674
77.8773
77.8487
46.5051
43.7299
43.1789
81.6188
82.5658
77.8914
77.1731
30.9381
30.0429
31.1644
29.4622
30.3584
29.7831
32.0863
33.6533
29.4107
46.3424
33.3439
30.9022
29.6321
163.496
44.1524
39.7233
63.5031
191.351
35.7375
50.1558
210.679
30.2448
30.9114
30.6686
30.6661
30.2407
30.0599
30.6747
31.2775
29.5317
30.2225
32.2395
29.8376
32.512
31.2609
34.3345
34.276
30.5478
49.4674
29.9992
167.826
32.3513
45.5887
193.851
43.036
68.3508
52.2617
213.758
38.2081
32.3708
28.293
30.6568
27.6868
31.1907
28.1894
31.6835
51.0979
41.1429
68.3648
176.483
41.282
51.2381
161.955
51.19
39.9779
63.1418
81.0825
41.2104
46.6439
107.638
33.0053
29.1691
29.2015
32.6723
28.7795
32.962
32.749
33.003
27.9693
28.8754
32.3682
28.3946
32.3674
32.6985
53.9396
177.867
44.8979
71.657
53.679
163.056
45.6081
54.1251
82.7219
44.2632
65.9862
49.1141
109.821
45.6726
48.2306
59.321
38.17
186.373
35.6583
200.529
49.5336
28.5591
27.8938
27.5046
27.8832
28.0087
27.9564
27.5729
29.2194
28.8577
27.2695
27.3334
28.3521
29.8145
27.3919
43.2371
34.394
47.5343
29.659
205.071
29.1678
33.5051
48.8848
188.903
64.986
40.3538
203.852
49.8818
37.9537
29.0225
28.3034
29.2314
28.8551
28.3931
28.0134
29.4278
29.7311
27.8054
30.4396
28.665
30.325
27.8497
29.8932
47.1814
67.0735
40.2495
104.9
40.5844
141.378
46.7655
30.7454
29.3356
27.17
27.3469
29.8033
30.3213
27.4059
30.9228
30.2642
27.2205
27.4575
30.1351
31.0071
27.4578
48.4441
174.061
71.8376
41.286
159.62
49.524
41.3423
46.2311
100.922
71.1225
40.1968
137.237
45.8076
40.9773
31.1727
27.8232
30.9185
28.6387
30.814
27.8831
31.2569
31.2455
27.9003
31.2935
28.6397
31.268
27.9111
31.3318
209.685
235.97
197.158
138.744
124.204
142.361
131.349
163.124
166.848
146.929
117.384
112.007
114.254
103.721
118.536
129.844
125.215
102.687
86.5229
92.7208
81.5785
114.426
127.531
128.722
71.0286
60.8954
71.1619
61.8015
104.394
126.176
115.762
54.3022
50.4876
54.7696
50.8266
90.3577
100.847
89.5474
47.9935
44.8978
48.6396
45.2962
83.5248
84.0088
82.6412
42.6248
39.0195
41.3276
37.9398
75.861
82.6701
78.4208
36.9605
30.8398
35.9836
27.4726
181.943
178.739
141.622
120.114
108.59
113.038
91.5032
152.173
269.588
279.711
172.254
159.819
166.858
236.637
89.3549
163.859
168.134
115.661
102.305
100.485
168.138
77.7472
157.474
174.164
84.6777
79.9693
79.5413
174.777
84.0435
211.159
200.622
76.8104
81.4772
79.8412
215.042
80.6888
209.495
218.912
83.5757
80.6369
84.1003
210.766
65.9248
155.868
171.461
68.4252
66.3992
68.1549
158.603
56.3616
127.577
130.408
60.8808
59.1926
59.1846
127.782
49.5775
132.378
130.695
53.3018
52.1883
50.2909
133.911
82.8131
88.1281
72.7767
30.2909
25.278
30.171
25.0798
134.702
200.366
185.297
102.356
75.4699
113.783
94.1459
115.375
170.859
222.188
117.1
98.6847
123.69
203.956
84.4278
166.612
165.375
79.2906
74.7139
93.4099
166.495
69.4013
194.265
183.214
69.4615
69.7204
69.9216
189.655
72.3444
214.957
205.903
74.1924
75.1083
71.6859
208.9
73.0652
206.804
207.639
75.6062
74.7439
73.351
202.306
67.9497
165.666
180.585
69.3811
67.9636
69.0373
166.185
54.8948
133.238
133.899
58.0552
54.6081
58.9514
133.115
48.8096
135.348
134.785
49.5601
49.1547
49.6325
133.812
70.0506
82.7202
73.8624
30.0622
25.2824
30.8318
26.5342
229.524
284.467
229.596
150.998
122.803
154.315
129.669
180.387
287.712
347.683
202.475
175.639
205.792
287.699
92.8302
163.643
174.168
112.467
94.0692
111.017
163.101
66.8645
172.209
168.598
68.4966
66.058
69.3822
170.917
65.0048
176.641
171.135
64.7036
64.576
65.2518
170.217
62.1741
177.412
165.512
64.6121
64.6271
63.2414
164.476
59.7321
157.382
157.744
63.3841
62.4376
60.1811
151.835
53.9714
133.525
136.144
57.2607
54.2316
55.9935
135.368
50.5485
134.013
138.743
49.4024
48.6563
50.5463
141.282
79.121
97.3568
84.2478
32.9627
28.0663
35.0058
30.0612
198.095
225.094
196.952
143.85
122.633
143.142
118.757
159.023
252.444
306.975
183.151
160.945
181.062
261.16
89.0679
176.892
186.267
100.817
87.7931
103.836
180.678
70.6814
178.988
180.329
72.9196
70.999
72.5999
180.39
64.609
178.592
181.755
65.8452
64.7991
65.6085
182.224
61.7318
163.143
175.321
61.9508
61.0031
62.3969
170.495
58.505
148.441
158.904
58.1047
57.5636
58.93
156.473
58.327
149.55
155.335
56.2933
56.114
58.2617
156.101
59.0778
156.89
157.986
57.2698
57.7267
59.0549
157.304
84.2827
95.5466
88.4106
36.1416
30.0437
37.7687
34.6023
135.115
164.418
133.355
96.8325
86.4677
90.7894
81.0573
113.453
118.419
113.307
70.6029
57.938
68.2992
60.9831
109.607
109.775
105.238
52.7286
47.7231
58.5837
53.2695
105.289
104.185
102.254
43.8039
42.7924
48.1122
47.9579
101.107
100.415
97.0617
42.3347
41.3923
47.5998
46.4242
95.9163
94.5743
93.2699