/*--------------------------------*- C++ -*----------------------------------*\
  =========                 |
  \\      /  F ield         | OpenFOAM: The Open Source CFD Toolbox
   \\    /   O peration     | Website:  https://openfoam.org
    \\  /    A nd           | Version:  10
     \\/     M anipulation  |
\*---------------------------------------------------------------------------*/
FoamFile
{
    format      ascii;
    class       volScalarField;
    location    "5.3";
    object      p;
}
// * * * * * * * * * * * * * * * * * * * * * * * * * * * * * * * * * * * * * //

dimensions      [0 2 -2 0 0 0 0];

internalField   nonuniform List<scalar> 
12920
(
-283899
-130759
-60758.6
24755.6
44741.4
79032.6
80188
91193.4
86051.8
87191.3
79188.9
75463.2
66599.3
60059.6
50218.3
42000.4
31570.8
22400.3
11084.5
9386.4
-57621.3
-33098.7
-25062.7
51460.3
48896.5
86357.2
81850.7
94359.7
87605.2
89107.5
80190.7
76130.6
66745.9
60376.8
50484.6
42205.3
31859.6
22478.7
11131
9166.88
-97578.3
15115.5
26894.2
85469.8
84018.7
105083
97852.4
102498
93527.6
92299.9
82590.2
77899.6
68021
61036.5
50952.2
42549.4
32014.1
22555.3
11139.1
9038.95
2236.15
158569
104844
141921
104828
121296
105190
109403
97566.7
95921.2
85024.7
79738.9
69417
61946.9
51553.3
42875.9
32244.1
22645.3
11179.1
8912.42
1483.49
204677
126969
174245
131246
138880
119444
118629
104163
100095
88106.2
81828.1
70933.1
62940.6
52349.5
43302.1
32617.6
22770.4
11235.5
8794.36
340968
306316
204701
204798
158145
155028
130168
126059
109938
103892
91778.9
83938.9
72835.7
64008.5
53298.6
43765.8
32923.3
22818.4
11233.6
8625.53
612474
390037
227225
226925
173115
165999
139827
133484
114767
107701
93754.8
86155.1
74241.2
65376.3
54104.3
44254.8
33303.3
22887
11225.2
8474.37
412904
384823
248270
235507
184761
175465
151705
138687
124797
114554
101482
90959.2
79699.1
69557.7
54771.7
44471.9
33536.6
22886.9
11167.4
8279.89
505396
382587
264258
247569
191662
185653
158234
142542
127881
115478
103099
91879.6
81072.1
70788.7
60995.9
44676.8
33846.4
22807.3
11101.6
8041.72
251328
342766
231499
237732
181231
180379
160617
142432
128136
115479
103763
92410.1
81391.7
71147.8
59542.3
45796.1
34030.4
22655.9
10874.3
7688.92
466002
390144
255912
247073
187775
178007
157055
141366
127459
115640
104087
92673.8
81605.7
71138.2
60002.5
45520.6
33637.8
22278.5
10506.6
7305.5
256247
299030
166278
209854
159827
164894
151156
136966
124304
113379
102696
91681.3
80824.7
70437.5
58509.2
43752.6
32625.7
21580.8
9987.62
6856.4
154403
247788
179756
208631
153574
153231
137793
127496
116988
107216
97135
87233.4
76649.4
66014.7
51927.8
41782.1
31265.9
20663.7
9352.18
6395.27
-290597
54895.5
86654.7
149362
119480
135320
119070
117182
105844
99355.2
88359.4
79472.9
68980.1
59147.3
49267.5
39943.5
29854.7
19647.6
8691.06
5932.38
-59871.9
67882.4
83650.6
139043
103102
127917
109529
109402
98511.5
91897
82605.7
74690.4
65629.9
56920.1
47641.1
38392.5
28646.7
18770.4
8118.84
5478.38
10669
61801.6
62968.6
115268
91138.5
113304
101065
102646
93371.3
89329.4
79999.1
72907.7
63806.5
55340.7
46105
37130.9
27657.6
18052.5
7669.45
5161.52
-218871
14010.4
54.7893
92079.2
73549.5
99763.2
91740.1
94534
87034.8
83579.8
76150
69962.6
61619.8
53565.5
44689.6
36005.7
26744.7
17417.6
7229.75
4857.06
-411873
-11488.6
7544.38
96354.6
83195.5
98819.2
91074.4
92650.7
85676.1
82469.9
74967.4
68792.9
60505
52613
43771.6
35240.1
26073.8
16893.5
6815.09
4715.67
-110176
54500.4
20292.7
110794
84042.3
96685.6
88399.1
89338.6
83451.8
80407.2
73187.2
67253.4
59331.1
51677.3
43121.3
34660.9
25638.3
16498.6
6463.05
4553.49
-20304.9
124372
55099.4
133965
94782.2
100473
89738
90488.7
83999.6
80306.3
73058.7
66900.6
58831.1
51275.5
42750.8
34334.3
25359.3
16259.9
6304.95
4666.79
-240977
-128603
-60137.1
24778.5
45243.9
79188.7
80218.9
91222.2
86089.3
87224.7
79174.5
75482.3
66570.2
60026.7
50190.8
42008.5
31575.1
22401
11086
9393.79
-70117.9
-51201.5
-30360.8
51512.9
49392.6
86783.6
81953.3
94407.9
87594.4
89023.6
80141.8
76124.2
66815
60390.4
50453.9
42189.3
31843.4
22484.4
11137.4
9173.17
-131065
2498.32
22828.4
84108.1
83858.1
104520
97691.3
102428
93503.4
92315.3
82613.1
77900.5
68010.3
61038.7
50938.9
42521.9
32042.4
22574.1
11161.7
9034.71
138569
117403
93497
139730
104311
121204
105256
109429
97566.3
95884.7
85057.3
79728.2
69427.2
61940.2
51530.5
42854
32251.2
22656.9
11195.7
8906.08
73734
206297
129280
174569
131279
139096
119570
118711
104224
100098
88064.9
81773.7
70888
62950.4
52363.6
43290.8
32610.5
22775.9
11250
8784.95
328878
312037
207692
206136
158733
154754
130227
126117
110079
103870
91769.2
83903.9
72871.5
64019.9
53305.9
43741
32923.9
22820.6
11248.8
8623.58
536945
376096
226129
226890
172715
166028
139959
133317
114759
107817
93814.5
86212.8
74256.9
65412.3
54095.7
44265.8
33316
22890.5
11237.2
8479.81
444365
386707
242358
234517
183871
175603
151389
138517
124531
114069
101300
90998.9
79703.8
69641.9
54771.9
44485
33544.1
22894.1
11181.5
8283.54
228696
355812
257145
245166
191175
185514
157355
142567
127846
115411
103088
91994.8
81053.5
70814
61421.2
44774
33868.9
22832
11108.9
8041.25
231485
343797
234951
234773
180652
180162
160310
142478
128208
115576
103962
92503
81422.1
71181.7
59891.6
45902.5
34046.6
22664.2
10885.8
7692.41
476270
388099
256792
247586
187358
177672
156892
141407
127612
115757
104195
92790.1
81541.1
71120.3
60313.9
45635.8
33641.7
22281.6
10523.7
7327.19
367449
301412
167154
212259
159642
164478
150598
136887
124406
113405
102725
91702
80790.7
70415.4
58579.8
43823.2
32628
21574.3
10005.2
6887.66
256667
261820
176406
207541
152951
153200
137560
127586
117068
107319
97027
87013
76416
66008.3
52073.3
41807.3
31266.7
20650.3
9365.09
6428.76
-108210
78999.3
87591.9
149651
119290
135024
119034
117327
105998
99238.4
88309.1
79661
69097.6
59240.3
49403.2
39961.3
29855.5
19629.6
8703.71
5920.22
-91481.6
111762
97301.5
140250
104012
128063
109605
109511
98599.6
92281.9
82998.3
74748.2
65678.5
56964.6
47650.1
38373.5
28633.4
18748.6
8134.35
5506.83
-45553.5
71605
61307.6
114879
91285.4
113495
101306
102848
93458.8
89124.1
79998.5
72956.1
63824.8
55360.1
46105.7
37138.6
27641.4
18039.3
7676.84
5179.51
-322314
18607.4
-3469.95
91091.1
73245.7
99722.4
91639.8
94441.5
86786.9
83729.5
76231
69968.6
61588.8
53560.9
44692.3
36015.5
26737.6
17409.5
7259.19
4907.23
-379558
-3965.66
10553.2
98316.3
83621.5
98875.3
90952
92762.7
85744.1
82527.7
75013.4
68830.2
60478.6
52613
43792.9
35238.6
26069.9
16892.6
6821
4724.78
-237148
67111.5
20983
112317
83949.9
96683.1
88027.7
89288.1
83390.7
80565.4
73272.6
67282.8
59308.6
51645
43102.5
34652.4
25628.5
16483.9
6466.74
4551.17
50314.2
143252
58000.4
135811
94580
100415
89804.2
90564.7
84170.5
80387.5
73126.4
66892.9
58834.9
51234.6
42714.1
34296.4
25330.4
16252.6
6325.04
4689.7
-326470
-127234
-60965.1
24866.1
45771.6
79514.8
80291
91321.8
86152.3
87268.3
79204.8
75409
66553.3
59997
50150.5
42016.3
31600.8
22425.1
11106.8
9400.93
-138742
-46655.2
-27378.1
53514.3
50693.8
87166.5
82488.5
94529.8
87728.7
89024.8
80228.5
76295.9
66872.5
60393.7
50427.5
42173.7
31842.1
22519.3
11155.2
9170.69
-77095.5
6600.56
26063.4
84413.2
82803.5
104196
97245.8
102319
93441.8
92301.6
82656.4
77901.2
68003.9
61031.8
50914.5
42487.6
32054.3
22614.4
11211
9039.51
218779
172325
104211
137714
104686
121057
105350
109377
97639.5
95841
85089.5
79721
69426.6
61934.8
51512.2
42825.8
32254.3
22679.9
11243.5
8913.51
63078.3
208003
131590
174602
131763
139187
119785
118755
104284
100078
88060.9
81715.9
70882.3
62946.2
52368.4
43276.1
32596.9
22791.1
11295.9
8793.88
263429
299279
197726
206157
159248
154520
130624
126059
110214
103821
91777.8
83882.6
72917.9
64033.9
53305.6
43742.9
32928.1
22834.4
11292
8638.98
473928
355569
233039
228856
174011
166255
140396
133111
114881
107857
93908.7
86217.2
74266.3
65443.5
54089.6
44240.6
33323
22906.6
11285.9
8497
486210
388955
246385
235152
184512
175591
151157
138140
124268
113659
101185
91099.3
79807.9
69760.8
54792.5
44562.6
33575.1
22915.2
11228.5
8302.18
278067
358640
256793
242473
191817
185825
156481
142234
127774
115495
103309
92175.1
81174.2
70949.1
61856.1
44832.4
33899.1
22850.7
11150.8
8058.56
283110
352784
228265
231665
180375
179866
160134
142860
128478
115992
104383
92592.6
81534.5
71249.6
60224.2
45969.3
34065
22682.7
10918
7720.3
374102
399676
257872
247624
187910
177518
156845
141412
127817
116376
104450
92363.5
81377.4
71082.2
60595
45683.4
33662.6
22303
10577
7364.77
316658
308148
171340
213953
160478
164256
150133
136859
124698
113520
102669
91552.4
80614.5
70403.7
58863.4
43858
32639.3
21589.7
10066.7
6935.56
284066
270310
185440
206694
153505
152944
137175
127635
117318
107458
97021.5
86803.6
76403
66062.5
52184.2
41822.9
31276.4
20666.1
9431.09
6500.76
164496
123903
92489.9
149754
119518
134530
119179
117467
106145
99237.2
88362.2
79748.9
69160.2
59369.7
49499.8
39982.1
29865.4
19638.4
8766.79
6041.88
32810.6
133287
89360.7
139143
105227
127811
110198
109813
99253.3
92905
83470.4
75040.3
65880.1
57021.1
47648.6
38368.6
28615.5
18748.3
8206.04
5598.86
110072
98288.5
64645.8
114144
91961.9
113782
101724
103212
93678.6
89267.5
80130.5
73111.4
63906.8
55376.2
46106.2
37138.8
27621.5
18034.9
7726.79
5253.45
-37175.1
62655.2
3527.73
93463.7
73554.2
100117
91975.5
94426.3
86964.9
84001.4
76295.9
69987.9
61543.8
53551.3
44703.2
36023.2
26722.4
17411
7298.56
4973.42
-281746
19026.1
23003.8
103339
83577.4
99171.1
91263.1
93062
86030.7
82771.2
75069
68848.7
60435.4
52607.5
43809.4
35238.7
26064.5
16886
6852.14
4779.06
25421.9
100862
32041.9
117708
84827.2
97471
88140.5
89966.4
83593.8
80682.9
73285.1
67289.5
59273.6
51629
43093.7
34642.6
25601.9
16474.7
6478.26
4627.27
200997
173154
66131.2
140775
94585.8
100924
90104
90713.4
84104.1
80421.3
73139.8
66876
58813.7
51184.8
42675.6
34290
25329.1
16258.3
6343.7
4702.58
-370773
-119504
-64646.3
24251.8
46002
79713
80452.6
91404.1
86213.1
87279.1
79230.3
75409.8
66473.4
59971.4
50142
42011.9
31642.7
22453.2
11126.6
9421.36
-168778
-81769.6
-28469.2
53171.2
51727.5
87296.9
82904.2
94604.6
87885
89079.9
80352.5
76349.6
66897.2
60371.3
50405
42157.4
31848.4
22549.6
11190.8
9190.79
-61976.3
14888.5
23122.6
83922.1
81865.8
103951
97018.4
102197
93482.9
92234.4
82683.9
77867.2
68010.8
61012.5
50885.4
42448.6
32064.8
22655.7
11271.2
9065.09
206330
167897
105422
135269
105006
120707
105726
109267
97749.3
95745.6
85136.5
79684.7
69434.3
61923.1
51537.3
42807.1
32263.8
22699.6
11313.6
8945.8
328928
237144
136762
176402
132649
139083
120005
118697
104316
100010
88083.7
81662.6
70912.9
62903.5
52355
43236.2
32568.4
22808.8
11366.2
8833.78
303305
308970
203485
207504
160543
154222
131000
125852
110355
103787
91804.6
83854.6
72949
64032.8
53320.3
43723.9
32922
22848.6
11345.8
8679.37
316456
332688
231757
228421
175289
166139
140764
132756
115034
107835
94047.8
86158.6
74269.7
65428
54084.5
44242.9
33336.2
22931.5
11346.2
8543.32
530761
383394
247562
233777
185002
175240
151569
138209
124241
113594
101180
91215.9
79934.4
69836.7
54916.3
44642.6
33604.8
22936.4
11286.4
8350.57
220200
351319
249567
236397
191811
185881
155932
142198
127825
115667
103525
92336.1
81287.2
71031.4
61864.6
44897.6
33925.2
22866.1
11205
8112.25
258019
342884
222263
224760
181442
179554
160263
143178
128924
116357
104622
92779.9
81567.9
71289.8
60403
46068.6
34104.1
22725.2
11011.9
7810.74
424960
383580
260314
247389
187933
177141
157067
141675
128117
117665
104348
92160.6
81313.9
71098.4
60720.7
45751.6
33692
22345.9
10641.1
7474.03
169996
280019
168988
214091
160812
164299
150009
137168
125081
113722
102639
91411.6
80500.9
70417.7
59068.7
43905.5
32658.7
21620.4
10138.9
7065.64
374043
272450
180559
203691
153494
152243
136870
127952
117680
107596
97087.7
86736.3
76424.8
66130.2
52309.9
41827
31283.8
20691.1
9527.91
6653.31
70022.2
143451
91381.6
147931
119673
133474
119470
117352
106360
99183.7
88440.2
79704.3
69253.8
59489
49549.5
39988.5
29877.3
19633.7
8904.03
6232.66
61866.5
157113
80814.2
139436
105001
127068
110611
109911
99935.4
93426.8
83840.3
75362.1
66087.2
57111.1
47632.5
38342.8
28594.4
18743.4
8280.91
5798.81
121848
124865
65593.3
113445
92539.7
113775
102209
103157
94222.6
89720.4
80542
73315.7
64103.3
55373.3
46102.1
37119.7
27601.3
18026
7784.15
5419.57
-111042
95763.2
-6952.13
93599.2
73307
100288
92315.6
94682.5
87189.5
84013.8
76317.5
69959.7
61484.3
53520
44715.7
36015.7
26697.1
17401.6
7350.81
5137.16
49537
70598.4
28622.8
106402
84051.5
99814.1
91585
93192.6
86208.4
82862.8
75133.4
68841.6
60407.3
52593.5
43816.4
35227.5
26050.9
16854.5
6880.23
4947.06
32924.4
142045
30021.8
122360
85310.5
98238.2
88742.4
90322
83707.2
80683.6
73234.4
67263.5
59236.9
51602.9
43056.3
34616
25585.4
16473.9
6562.38
4790.43
272973
225206
74087
145924
94857.2
101593
90372
90965.4
84091.5
80497.7
73125.5
66847.1
58784
51139.1
42644.5
34261
25305.9
16253.4
6362.55
4762.12
-309229
-128282
-64115.2
24975
46007.7
79921.1
80550.3
91490.4
86262.8
87263.7
79246
75419.7
66434.1
59966.7
50144.5
42025.3
31659.6
22476.1
11144.9
9429.48
-82269.3
-79348.8
-23645.3
53954.3
52282.5
87245.2
83078.3
94605.5
87957.9
89027.8
80351.6
76323.4
66898.1
60353.9
50397.2
42142.3
31867.2
22573.7
11222.2
9143.1
44476.2
28969.8
26896.5
83726.6
81497.7
103869
97000.9
102158
93535.4
92172.8
82692.1
77841
68040.3
61006.7
50881.2
42424.5
32067.8
22656.6
11318.1
9032.45
188965
157522
105074
134072
105216
120168
105991
109153
97872.2
95643.9
85239.3
79648.8
69465.3
61912.5
51585.5
42783.2
32278.9
22726.7
11368.5
8925.42
301275
227658
135033
175398
133154
138746
120297
118596
104381
99939.5
88134.6
81625.4
70968.5
62895.3
52374.6
43210.6
32566.4
22819.7
11421.3
8820.35
342834
327764
198372
206950
160859
153858
131411
125611
110550
103732
91815
83823.6
72983.1
64020.4
53318.7
43706.8
32926.5
22869.5
11391.3
8665.78
360957
329677
232096
228376
176830
165647
141450
132609
115428
107839
94264.2
86123.7
74347.2
65389.9
54091.4
44223.1
33347.9
22952.9
11407.1
8539.46
663364
391242
253295
234586
187352
175060
152279
138340
124542
113648
101227
91263.2
79953.6
69887.6
54956.9
44722.2
33642.4
22957.9
11337.7
8348.86
269264
354048
248700
233488
191863
185334
156207
142321
127984
115777
103650
92436.4
81338.5
71081.2
61704.4
44921.8
33944.6
22867.8
11236.3
8109.87
300118
351947
221730
223062
182364
180208
160868
143435
129172
116495
104618
92848.4
81550.7
71241.4
60459.8
46068.3
34120.2
22741.2
11075.1
7823.54
428326
386877
260434
247217
187965
177039
157750
141924
128269
116129
104465
92628.8
81361.2
71135.4
60741
45739.2
33746.8
22380.8
10704.8
7506.08
161551
268038
168617
213237
161664
164871
150345
137376
125333
113852
102646
91383.3
80484.4
70474.4
59299.7
43866.4
32681.1
21653.5
10219.8
7120.47
338504
282491
183804
202757
155391
151198
136874
128315
117917
107727
97167.8
86784.5
76391.2
66185.8
52264.3
41884.7
31299.9
20714.9
9601.76
6727.54
137630
165211
94947.6
147897
121404
132345
119707
116873
106595
99151.5
88510.1
79664.8
69240.1
59474.5
49624.3
40014.1
29897
19593.3
8953.29
6307.85
192220
176350
78522.1
139801
103531
126698
111167
109815
100591
93695
84170.6
75639.9
66274.7
57187.3
47659.8
38325.6
28565.2
18724.4
8330.65
5886.4
176949
131197
64882
113130
93650.6
113916
103166
103208
95251.3
89904.9
80863.3
73400.7
64182.4
55444.9
46125.8
37106.9
27587.3
18022
7831.34
5512.34
-15966.2
99191.9
1916.9
94171.5
73752.7
101096
92986.2
95028.8
88211.3
84368.6
76639.8
70103.7
61629.6
53579.1
44757.2
36009.9
26656.3
17418.7
7408.97
5235.61
-15859
84157.5
33213.7
107662
85069.3
99887.3
92003.4
93212.2
86483.6
82995.6
75291
68872.4
60421.9
52590
43822.1
35215.6
26026.7
16803.4
6876.44
5056.57
197227
149386
30960
123240
85543.4
99080.2
90121.4
90560.7
83807.1
80555.4
73123.6
67234.6
59244.1
51596.7
43049.6
34594.3
25572.2
16441.6
6563.54
4828.72
423574
227196
79062.7
147301
95655.7
102165
90669
91087.6
84068.1
80485.9
73034
66789.7
58749.2
51118.9
42632.2
34245.9
25286.5
16257
6369.24
4788.7
107307
116022
107504
116304
107560
116330
107670
95519.9
104770
96968.2
104603
95663.8
104908
96738.9
106980
114230
105998
116453
107051
114365
106022
95825.2
103181
94698.1
104532
95636.4
103165
94577.7
145369
160577
146744
157813
145332
160431
146798
129924
142572
131464
142622
129851
142617
131537
117118
128052
118258
127848
117086
128031
118299
104663
115140
106294
115401
104536
115212
106412
93144.8
103393
94885.4
103045
93214.2
103521
94977.1
82264
92068.2
83883.6
91945.9
82312.4
92145.2
83903.4
71894.8
81192.1
73486.5
81057.3
71878.9
81214.9
73530.1
62597.3
71021.9
63385.8
70810.4
62773.8
71061.1
63497.1
146293
157385
145648
160458
146302
157252
145683
131612
141933
131351
142445
131659
141979
131354
118546
128030
118780
128198
118571
128019
118840
106635
115872
107172
115525
106748
115925
107282
95236.1
104224
95557.4
103885
95310.7
104351
95715.7
84102.7
92741.3
84407.9
92460.1
84110.1
92861.6
84382.1
73645
81643.7
73791
81408.6
73681.7
81631.1
73783.1
63586
71287.5
63885.8
71173
63699.7
71280
64049.4
144923
153571
142253
157051
144941
153362
142309
130713
138593
128339
141405
130814
138674
128351
118482
125305
116756
127563
118549
125347
116808
107017
114117
105941
115689
107054
114112
105965
95471.1
103169
94765.6
104150
95604.1
103202
94817.1
84335.7
92010.3
83756.4
92775
84322.4
92051.8
83753.4
73684.7
81072.7
73209.2
81576.7
73660.9
81063.2
73186.6
63826.9
70711.6
63209.2
71125.2
63915.6
70706.1
63351.2
140058
143495
134231
150935
140090
143409
134324
127165
132687
122540
136964
127259
132752
122631
115886
121192
112100
124364
115978
121215
112188
105348
110991
102195
113393
105377
111081
102213
94366.7
101094
91826
102717
94400.9
101023
91793.4
83462.7
90593.2
81298
91702.9
83459.7
90576.4
81214.2
72937.5
80040.1
70781.5
80815.8
72912.1
79973.6
70716.9
62851
69739.4
61304.3
70428.2
62974.4
69638.3
61416.6
145184
160261
146833
156895
144896
160237
146930
129846
142668
131556
142291
129822
142892
131639
117082
128023
118347
127782
117105
128185
118606
104619
115266
106497
115452
104846
115545
106823
93294.9
103604
95033.3
103245
93510.1
103905
95206.7
82341.4
92194.1
83918.6
92133.6
82482
92325
84034.4
71879.8
81233.6
73548.8
81147.9
72066.6
81352.8
73598.5
62888
71079.4
63670.1
70921.6
63107.9
71131.7
63920.4
146321
157207
145695
160275
146612
157339
145792
131658
141987
131375
142780
131793
142097
131495
118616
128061
118909
128380
118891
128212
119434
106828
115996
107357
115860
107167
117525
107724
95358.7
104430
95762.2
104267
95490.9
104798
94606.1
84120.2
92890.4
84367.9
92583.2
84203.5
92577.5
84266.1
73697.5
81618.3
73774
81509.3
73724.3
81531.6
73735.1
63815.6
71274.5
64175.4
71223.5
63984.3
71264.8
64310.5
144943
153225
142273
157053
144958
153276
142126
130840
138664
128401
141400
130993
138443
128555
118610
125372
116831
127752
119031
125534
116946
107078
114129
105979
117414
106982
114206
106007
95645
103218
94834.2
104201
94088
103216
94779.2
84307
92061.4
83741.7
92383.2
84174.1
91990.3
83617
73646.8
81042.6
73170.3
81424.5
73593.6
80914.3
73123
64023.5
70702.8
63503.4
71089.7
64182.6
70703.2
63672.8
140067
143059
134292
150346
139871
142839
134175
127301
132785
122687
136818
127476
132836
122972
116002
121232
112221
124608
116117
121438
112399
105392
111126
102226
113481
105409
111278
102239
94403.5
100998
91769.9
102696
94321.2
100918
91651.9
83443.3
90564.8
81176.5
91612.4
83308.7
90403.2
80977.8
72885
79915.3
70691.9
80658.4
72830.9
79708
70673.5
63091.7
69643.8
61602.8
70404.7
63205.6
69625.3
61840.2
144766
160160
146962
156196
144524
160357
147072
129877
142967
131716
142151
130049
143160
132085
117142
128286
118728
127794
117284
128644
119078
104947
115673
106947
115616
105195
116007
107226
93578
104013
95254.2
103485
93758.5
104263
95415.9
82524.2
92368.2
84085.6
92312.2
82661.7
92519.2
84186.6
72100
81387.4
73607.4
81273
72183.3
81453.2
73636.6
63223.1
71160.8
64069.7
71019.5
63308.3
71248
64121.6
146676
157262
145854
160224
146896
157836
146087
131870
142167
131566
143116
132189
142370
131774
119021
128282
119614
128825
119338
128511
119882
113746
113074
116379
116115
113570
113214
116496
101708
101438
104662
104499
101616
101530
104804
84233.7
92579.5
84219.9
92715.8
84308.8
92457.3
84166.2
73726.9
81498.7
73724.4
81570.2
73757.7
81444.1
73715.7
64106.5
71262.5
64426.4
71293.6
64201.2
71267.9
64461.7
144961
153011
142012
157055
145102
153014
141896
131062
138455
128626
141593
131264
138595
128902
119074
125615
116992
128049
119352
125895
117151
113422
111861
116390
112604
113466
107676
116401
100497
102383
104068
104382
101030
103033
103743
84116.7
91919.5
83566.5
92184.4
84025.2
91782.5
83460.7
73576.4
80875.1
73114.3
81306.1
73561.9
80798.6
73101.3
64293.7
70705.4
63780.1
71089
64349
70721.7
63850
139850
142518
134143
150119
139971
142223
134160
127565
132846
123121
137104
127884
132977
123635
116168
121540
112451
124989
116345
121950
112634
105404
111331
102265
113669
105411
111471
102307
94256
100906
91621.9
102633
94131.1
100867
91530.9
83257
90358.9
80936.9
91425.6
83133.1
90223.9
80861.2
72817.8
79686.9
70701.4
80516.6
72789.1
79637.2
70764.1
63307.7
69654.4
61992.6
70407.6
63392
69725.8
62115.3
144479
160357
147103
156172
144449
160551
147180
130163
143219
132186
142260
130461
143359
132397
117333
128743
119162
127919
117383
128955
119321
105282
116082
107276
115743
105485
116242
107360
93790.7
104307
95464.8
103617
93867.9
104367
95521.3
82698.1
92572.4
84207.2
92395.3
82811
92647.1
84224.5
72200.9
81457.8
73640.5
81324.1
72240.6
81455.3
73611.5
63402.2
71253.8
64204.8
71047.9
63313.8
71203.3
64051.1
146925
157839
146145
160850
147082
158443
146313
132294
142445
131838
143385
132509
142639
131996
119398
128574
119817
129132
119520
128701
119471
107576
117826
107991
116469
107592
116489
107804
95717.6
105010
94538.2
104627
95761.4
104824
95802.9
84321.8
92462.1
84183.4
92854.8
84325.2
92808.4
84242.8
73760.4
81448.9
73718.1
81554.4
73718.7
81481.4
73716.2
64326.6
71273.2
64548.6
71252.9
64292.8
71284
64441.6
145176
152926
141908
157731
145376
153082
141998
131331
138664
128998
141876
131492
138801
129216
119394
125982
117201
128251
119109
126170
117303
107162
114420
106050
116161
107413
114517
106065
93950
103195
94587
104489
95580.8
103220
94592.8
84038.8
91779.5
83446.3
92608.6
84101.4
91776
83434.7
73568.8
80788.6
73101.3
81352.8
73588
80780.6
73114.9
64435.9
70728.6
63919.9
71128
64416.3
70747.6
63841
140050
141911
134149
150296
140153
141883
134237
127988
133031
123783
137334
128233
133199
124166
116403
122040
112674
125291
116526
122283
112808
105418
111510
102327
113834
105420
111583
102414
94124.6
100861
91514.4
102644
94107.5
100878
91511.9
83110.6
90198.7
80864.2
91388.1
83076.3
90175.8
80938.2
72788.6
79631.7
70785.2
80490.2
72816
79639.5
70857
63469.9
69739.2
62203
70461.7
63501
69768.7
62147
144501
160508
147181
157132
144514
160740
147190
130600
143379
132443
142394
130926
143397
132541
117392
129002
119331
128178
117384
129032
119327
105568
116263
107371
115805
105725
116271
107367
93883.2
104368
95519.7
103693
93907.4
104338
95494.2
82865.7
92647.5
84223.4
92478
83051.6
92617
84207.1
72271.8
81455.1
73605
81387.3
72286.9
81436.3
73607.7
63499.4
71192.4
64119.9
71135.8
63317.1
71181.7
63828.1
147129
158471
146375
161253
147208
159111
146482
132549
142690
132024
143497
132621
142764
132051
119541
128720
119442
129185
119547
128736
119414
107593
116455
107749
116511
107578
116423
107650
95748.7
104771
95795.4
104588
95698.4
104665
95747.5
84323.3
92815.1
84253.3
92802.9
84309.4
92800.2
84268.2
73708.5
81487
73712.5
81536.2
73694
81496.6
73712.9
64389
71282
64515.5
71231.5
64130.5
71290.6
64214.5
145436
152967
142007
158436
145536
153466
142030
131519
138835
129258
141993
131549
138872
129318
119084
126205
117323
128291
119066
126246
117358
107404
114532
106059
116108
107363
114552
106053
95587.3
103213
94585.7
104411
95564.7
103199
94581.7
84114.7
91772.5
83429.4
92638.7
84138.8
91779
83442.6
73591.4
80774.3
73121.4
81378.7
73601
80767.2
73121.1
64506.2
70753
63917.8
71154.4
64236.7
70753.8
63616.7
140174
141698
134237
151014
140219
142063
134185
128286
133173
124213
137426
128369
133009
124251
116552
122270
112810
125379
116599
122192
112762
105421
111554
102422
113877
105437
111439
102444
94100.9
100858
91501
102645
94104.5
100780
91487.4
83072
90166
80959.6
91384.3
83089.1
90122.4
80997.7
72822
79619.8
70855.9
80475.5
72836.4
79600.9
70869.1
63602.9
69776.5
62201.8
70490.5
63371.1
69790.8
61940.8
110841
110189
107701
107445
110638
110339
107885
115194
117310
112447
114245
114463
117464
112453
111707
107827
109838
107680
110980
108343
109403
113841
116220
113379
116667
113317
116590
113849
110920
107531
110475
107913
110436
107954
110881
115271
114075
117595
112556
117556
112526
114700
111777
107713
107996
109973
108416
109459
111179
98546.6
98462.9
95562.7
95547.4
98518.7
98521.9
95526.3
101718
104720
102288
105093
101527
105085
103079
97777.4
94998.8
99863.9
98145.9
97990.3
94711.5
100213
101771
104575
101634
104853
101598
104867
101798
98603.2
95595
98635.8
95682.5
98581
95554.4
98683.6
101787
105156
104891
102432
105151
103097
101695
97804.7
98281.6
94997.6
100039
94700.4
100257
98133
109895
109227
107021
106564
110061
107891
106761
112269
115011
111507
114252
112299
114996
111509
109435
106570
108794
105975
109470
106509
108785
113445
112398
111770
116558
107711
116462
113534
109892
106613
109276
107087
107867
106748
110130
112292
114294
115161
111611
115039
111534
112406
109450
105984
106589
108858
106517
108804
109522
96722.5
100011
94526.1
98538.2
97514.3
103554
94071.9
100477
103621
100307
103135
100651
103523
100229
97441.7
94899.6
97464.3
94607.4
97641.5
94739.1
97368.7
100473
104402
102472
104109
103092
103712
101028
96656
98853.6
100193
94340.3
103554
93994.8
97443.4
100479
103131
103619
100246
103526
100211
100604
97428.9
94572.8
94777.1
97376.7
94704.7
97345.8
97568.1
141831
153118
148459
152435
141886
153452
148496
128038
138896
132991
138620
127976
138799
132933
116106
124303
119933
124653
116132
124367
119870
104056
112396
107435
114368
104001
112468
107354
92916.5
100326
95752.5
101388
92942.2
100227
95697.3
81851.6
89150.4
84272.1
90941.2
81854.9
89176.9
84300.7
71439.2
78191.4
73838.5
79690.4
71491.3
78209.8
73894.2
60921.1
68176.2
63646.2
69571.6
60882.1
68161.1
63717.8
163620
181592
167490
185637
163488
181560
167437
155148
152530
159269
157898
152473
159149
155165
138660
137048
142275
142591
137042
142257
138640
124224
122824
127271
127870
122809
127243
124233
111593
110555
114387
115460
110515
114389
111569
99781.7
98568.7
102329
103050
98495.1
102349
99753.9
88630.3
87411.2
91128.6
91880
87412.2
91138.6
88614.9
78078.9
76825.5
80432.6
81067.9
76820.5
80415.3
78066.3
68126.6
66686
70284.4
70789.9
66682.6
70279.3
68096.3
51815.7
58942.5
54589.3
61182.5
51932.3
59008.5
54563.3
164409
176717
163800
180468
164271
176767
163723
154898
154614
159325
160577
154636
159245
154941
138727
138698
142368
142423
138694
142366
138733
125016
124770
128355
128154
124783
128351
125016
112842
112464
115798
115478
112459
115800
112837
101212
100911
104050
103781
100924
104067
101196
89829.2
89602.9
92637.9
92413
89609.9
92645.2
89817.1
78906.9
78747.9
81551.1
81393.8
78754.6
81553.9
78901.5
68851.6
68679.6
71307.4
71149.9
68680.7
71306.7
68847.1
54899.9
60371.9
54663.1
59698.4
54924.4
60480.5
54689.9
161118
173465
160454
177926
161083
173363
160391
152248
152273
156029
156948
152379
155889
152270
137152
137743
140752
141372
137773
140782
137123
123882
124434
126913
127470
124419
126934
123873
112493
112792
115291
115641
112796
115291
112487
101063
101179
103917
104100
101187
103933
101045
89740.1
89900.8
92530.4
92703.6
89916.7
92545.6
89723.4
78793.6
78904.8
81513
81602.9
78898.7
81503.3
78802.6
68578.3
68671.3
71066.4
71133.5
68675
71061.5
68570.8
54726.6
59793
54487.6
60160.9
54755.3
59945.6
54501.6
154735
162483
148451
164662
154365
162492
148227
145496
146516
148632
151179
146619
148671
145482
132190
133647
135826
136973
133597
135819
132181
120254
121282
123057
124316
121320
123061
120225
109891
110713
112406
113380
110707
112407
109887
99377.9
99898.7
101989
102699
99903.7
101988
99376
88558.5
88916.9
91205.2
91689.2
88921.8
91203.3
88556.8
77841.2
78138.2
80422
80827.3
78140.2
80425.1
77841.3
67672.7
67896.6
70121.7
70435
67897.2
70114
67669.7
54069.7
60084.8
50143.9
58537.2
54050.7
60349.5
50172.7
132601
133700
127175
137969
132640
133955
127217
122847
125665
117310
127596
122919
125608
117300
111968
115146
106952
117017
111944
115189
107008
102530
105855
97773.8
107265
102595
105824
97725.1
92373.3
95826.6
88221
97084.9
92315.4
95845.9
88200.3
82292.9
86483.3
78381.3
87145.1
82248.6
86406.2
78302
71740.7
76278.8
68176.9
76526.2
71757.7
76245.1
68150.7
61699
65961.9
57012.9
65991.3
61746.2
66074.3
56946.7
141420
152418
148351
152418
141852
152711
148345
128091
138541
132893
138269
128051
138431
132871
116128
124364
119735
124368
116025
124308
119605
103955
112484
107251
113708
103827
112426
107173
93067.4
100148
95704
101206
93084.6
100147
95725.3
81928.1
89248.9
84377.6
91009.6
81971.7
89313.9
84498
71596.2
78267.9
73979.2
79761.8
71665
78354.2
74119.7
60970.7
68141
63858.2
69699.7
60910.2
68154.9
63864.6
163123
181015
167121
185801
162750
181125
166994
154775
152092
158575
157309
154855
152040
158528
138860
136889
142200
142489
138868
136850
142153
124315
122876
127180
127827
124275
122890
127201
111806
110419
114432
115409
111739
110415
114471
100130
98568.8
102492
103122
100023
98632.2
102562
88809.5
87501.8
91246.2
92037.8
88754.4
87533.3
91284.5
78188
76800.2
80421.6
81079
78151.6
76826.4
80455.2
68346
66755.2
70298.1
70854.7
68289.1
66798.4
70315.2
52201.4
59204.5
54712.8
61705.1
52203
59382
54744.9
163969
176807
163699
180239
163647
177060
163751
154960
154585
159210
160287
154931
154557
159217
138855
138747
142473
142534
138799
138799
142550
125128
124894
128373
128243
125080
124956
128402
113075
112606
115903
115647
112985
112691
115977
101434
101099
104260
104052
101365
101180
104352
89861.9
89667.3
92703
92535.7
89865.5
89682.9
92707.7
78943.5
78791.3
81569.1
81441.8
78930.3
78822.1
81578.8
68899.7
68711
71324.4
71190.4
68869.4
68736.7
71327
55124.7
60647.7
54862.7
60088.6
55152.6
60820.9
54874.2
160787
173356
160373