/*--------------------------------*- C++ -*----------------------------------*\
  =========                 |
  \\      /  F ield         | OpenFOAM: The Open Source CFD Toolbox
   \\    /   O peration     | Website:  https://openfoam.org
    \\  /    A nd           | Version:  10
     \\/     M anipulation  |
\*---------------------------------------------------------------------------*/
FoamFile
{
    format      ascii;
    class       surfaceScalarField;
    location    "5.3";
    object      phi_0;
}
// * * * * * * * * * * * * * * * * * * * * * * * * * * * * * * * * * * * * * //

dimensions      [0 3 -1 0 0 0 0];

internalField   nonuniform List<scalar> 
38556
(
2122.73
-815.692
1269.38
1897.35
610.416
-385.036
1865.46
361.446
-329.556
1768.7
161.292
-64.5359
1715.68
57.9776
-4.95784
1699.75
-18.1477
34.0789
1691.74
-25.1441
33.1476
1726.34
-59.4627
24.8628
1756.37
-42.9244
12.8985
1798.77
-43.2662
0.867586
1797.38
-7.91514
9.30479
1755.44
17.2739
24.6669
1610.62
89.6212
55.1946
1481.48
100.694
28.4523
1415.19
77.6918
-11.4011
1386.77
49.5892
-21.1703
1381.71
24.0177
-18.9637
1392.25
4.35345
-14.8855
1408.42
-21.0579
4.88009
-28.162
15.3865
452.641
-827.25
-1065.9
893.028
213.471
-43.4421
860.161
53.8211
340.492
956.481
9.54607
55.4256
1177.85
-136.765
-26.6301
1112.89
2.13383
44.6853
1136.26
-24.649
-23.8652
1102.97
16.5065
-42.6807
1132.21
18.6567
-90.8232
1140.98
47.173
-99.2055
1171.51
65.0825
-103.529
1194.81
90.5762
-96.5977
1222.93
101.711
-40.2193
1237.82
93.2575
-7.45112
1238.7
58.4199
18.3966
1235.38
31.9048
21.0049
1227.92
0.582528
30.8951
1217.46
-16.2603
31.0765
1203.29
-37.5177
30.6199
-44.3335
22.5607
3983.51
2011.23
1918.85
2994.96
1022.54
179.481
2169.21
529.68
349.895
1797.27
188.526
192.96
1409.36
83.3609
167.779
1230.16
155.829
25.5097
1154.61
50.8735
0.0261882
1096.22
98.2753
-23.3749
1094.28
42.5004
-21.9022
1084.74
80.4655
-23.7593
1096.07
63.6194
-9.86085
1105.06
84.623
-3.03799
1116.56
73.3233
16.8876
1120.94
68.1489
20.722
1117.23
36.7074
25.4272
1112.59
16.6861
19.8617
1105.8
-9.75569
17.1231
1101.11
-23.7406
12.1691
1101.62
-48.5843
10.5605
-57.737
10.4246
4018.26
2255.66
-6789.02
2377.52
1600.36
1062.92
1804.16
521.978
581.069
1506.18
346.301
140.204
1087.43
280.634
221.478
983.029
246.72
13.5073
960.026
69.457
4.42055
932.806
114.08
11.4155
972.108
8.18945
-4.99055
963.187
78.5687
10.8178
990.208
30.4579
6.14003
990.176
76.3647
8.29074
1009.16
44.4015
9.94085
1016.24
53.4654
7.60186
1028.17
18.4372
6.33563
1035.73
5.48631
3.64699
1045.56
-22.54
2.95202
1057.28
-37.024
1.56215
1070.8
-65.9497
3.84903
-74.2601
7.87866
862.1
386.882
-1530.22
1198.16
1009.47
254.83
1218.21
228.914
273.015
1228.35
380.159
-43.9993
1197.09
275.777
36.1105
1141.68
303.02
-0.891032
1125.07
62.3969
23.676
1115.92
99.1142
24.1129
1117.68
-19.7279
26.1582
1114.54
63.8901
17.8167
1109.77
23.2417
11.9863
1103.77
79.5977
2.76547
1100.41
44.0771
3.69129
1095.16
59.5049
-0.789932
1090.08
21.8771
1.64135
1085.71
10.3049
-0.448977
1083.36
-22.1496
1.95245
1084.59
-39.746
1.49424
1090.2
-74.9509
3.39188
-85.3437
6.64267
-362.331
522.898
428.636
880.061
632.441
-865.358
864.987
379.117
-135.129
890.181
374.328
-19.3624
1063.57
255.117
-152.73
1016.67
330.753
19.1702
1134.47
15.1179
-70.5252
1111.17
67.6414
54.7724
1135.67
-83.3199
39.0948
1119.01
28.5024
52.0496
1112.06
2.0156
28.1743
1095.24
77.8742
18.5428
1087.96
38.8249
12.5291
1076.25
65.888
5.3254
1066.32
26.293
5.51763
1061.53
10.1242
4.97402
1063.18
-28.851
5.0508
1072.43
-50.3903
1.39199
1085.22
-91.9368
4.19764
-100.424
7.38881
44.1085
1808.89
342.055
1031.14
995.461
-1350.05
1343.45
284.998
-218.199
1572.81
215.397
-70.4218
1609.15
208.434
10.3367
1637.86
350.005
-47.9594
1603.07
33.5685
-32.6122
12.5286
29.9995
6.42568
1528.18
3.45622
81.1888
28.4344
-0.656881
30.1045
1392.64
-13.4584
111.859
-19.6591
-10.276
-16.2429
1319.16
-14.8203
79.2283
19.1343
-9.08011
27.5182
1255.24
-1.90041
45.4449
7.93759
4.15251
10.3021
1208.65
11.9433
19.1175
39.6644
14.4336
39.3067
1155.01
18.6985
15.4398
22.9798
16.4899
18.8598
1119.54
15.8233
13.0305
31.926
12.8796
27.698
1094.91
29.9731
20.951
1084.85
7.69109
12.4904
1095.1
-51.5054
12.4061
1114.9
-73.5053
3.31469
1131.03
-110.694
2.62033
-115.351
8.52614
1499.27
1791.96
-412.567
2347.85
1085.08
-938.19
2297.85
426.388
-91.3892
2254.34
219.22
39.6867
2046.8
152.317
263.654
502.864
55.516
94.8472
507.106
492.807
498.627
100.378
50.8229
93.8386
478.451
54.5524
3.42846
-466.517
452.147
3.42227
14.403
-444.599
408.479
5.25925
17.4021
-368.687
338.563
-1.99794
17.3014
-331.378
313.393
10.6325
5.45246
-302.123
288.163
20.2852
5.61755
-286.906
272.119
31.0304
2.45494
-263.548
254.628
23.7842
0.959324
1034.62
3.91882
-6.74572
-256.075
-254.594
-251.135
-248.784
7.55729
-2.40792
3.61466
1075.83
-24.1964
-9.3148
1108.23
-82.4747
-1.43462
1128.37
-96.5575
2.91106
1137.25
-122.591
3.01941
-127.105
8.84587
1824.55
1578.53
-91.5549
1706.89
447.262
755.468
1411.08
443.637
278.566
1359.51
333.932
-63.1416
305.159
218.488
112.69
271.485
308.987
295.014
327.549
37.1927
-4.06583
-13.487
-89.7465
89.0499
11.1248
3.05875
-89.8921
2.47535
88.9136
-3.76399
2.26711
-92.7256
-4.30398
91.5742
5.22067
0.23472
-89.1501
-5.07395
87.0748
8.15516
-1.00593
-82.4951
-4.7248
79.3207
7.69267
0.206538
-74.6814
-6.80925
72.4852
8.80926
0.196219
-70.2434
-8.19787
67.8951
9.91451
0.631664
-65.5124
-7.13519
63.8767
8.70874
0.0621175
-65.4133
260.293
6.78232
-2.12534
-65.227
-65.3022
-65.0886
1113
-57.5125
-1.15378
-268.359
-276.793
-263.494
-269.886
1120.15
-86.2242
-3.40016
1121.24
-97.6494
0.00686652
1119.79
-123.596
2.45536
-132.542
6.05715
439.269
930.843
334.792
775.349
151.409
-40.2275
1035.59
296.283
-112.89
1144.53
340.073
-115.077
214.413
290.887
43.4043
276.185
241.905
296.222
-53.5082
210.053
64.9264
-7.05816
-4.72256
-51.3378
52.3562
3.93155
-0.227389
6.91035
-59.2688
61.5138
-8.54691
-0.608496
-1.32421
-64.8978
65.9653
1.06709
-0.810462
-13.2503
-71.5769
73.0884
12.8927
-1.15394
-13.7953
-75.1603
75.0996
14.6662
-0.810125
-12.4484
-74.4327
73.8197
13.4574
-0.395973
-12.8179
-68.5562
66.9588
13.572
0.843428
-9.66231
-65.3677
65.9437
9.32329
-0.236949
-69.6022
-2.56053
281.059
-1.40022
0.266205
-69.6776
-69.0239
-69.0603
1087.13
-48.6839
2.24393
-280.337
-275.919
-273.872
-268.069
1074.16
-72.3154
-0.945209
1069.84
-89.0977
-4.23276
1071.41
-122.704
-2.45475
-134.668
0.479697
1444.97
-135.108
2320.74
1938.07
234.397
-576.083
1752.09
745.251
-262.991
1733.98
636.498
-278.314
361.589
614.109
-112.914
377.84
385.089
399.154
-74.788
358.687
99.5234
-21.8342
-4.79708
-83.9391
80.8662
7.27214
0.59789
9.70835
-72.1701
70.8321
-7.87638
-0.493955
-3.40432
-68.7437
67.7049
4.48497
-0.0418375
-11.2743
-66.5052
66.7764
10.7733
0.229737
-14.4953
-68.8807
69.728
13.5972
0.0508192
-14.7445
-71.3895
71.1709
15.0075
-0.0444716
-14.7638
-69.7533
69.487
14.6683
0.361863
-7.78738
-70.2682
70.8765
7.71858
-0.539533
-71.6479
0.0715296
279.151
2.30751
1.03415
-70.8681
-70.5724
-69.4756
1041.34
-30.5605
-0.319154
-271.572
-267.248
-263.195
-257.127
1036.93
-61.2285
-6.67429
1044.28
-85.2235
-11.231
1055.58
-127.46
-6.54461
-139.835
-0.0763797
1198.88
-1347.23
611.11
921.08
177.534
334.667
1130.85
600.687
-65.2109
1325.4
593.638
-151.689
308.341
601.767
48.1843
319.439
324.63
337.151
-126.742
311.228
115.125
8.72972
-11.4422
-76.0661
74.9637
9.42078
3.12378
3.78176
-69.4666
68.9865
-2.95009
-0.351605
-5.51755
-63.2272
62.2617
5.74192
0.741093
-7.55937
-62.2836
63.0592
6.84222
-0.0583774
-11.8399
-65.7184
66.1937
11.4311
-0.0664405
-13.6226
-66.7264
67.0927
13.0124
0.243865
-13.1774
-68.579
69.2921
12.2392
0.225044
-7.95832
-71.6353
72.3308
7.55852
-0.295662
-71.4297
-7.01359
273.541
9.37165
2.92877
-70.0696
-69.4242
-67.9048
1046.29
-21.4369
-7.20807
-269.949
-263.707
-259.447
-255.103
1052
-51.8779
-15.0634
1066.31
-83.0266
-16.5068
1078.04
-129.926
-9.26034
-141.702
0.143058
2549.28
1157.87
1245.12
1907.24
941.224
-121.647
1452.63
929.87
125.424
1402.25
628.025
15.9957
1267.51
579.062
157.44
283.927
260.841
110.718
-90.123
-22.1882
-104.224
-37.4814
296.428
278.66
290.955
-12.8389
273.078
47.746
9.89996
-13.1461
-10.6122
-10.2002
-10.5276
-241.983
211.49
53.0726
16.4085
-9.20012
-10.3417
-8.91821
-5.70662
-211.432
212.824
12.8534
4.49166
-3.38862
-5.8177
-3.82371
-8.37258
-205.05
201.34
35.4039
0.509559
-7.49145
-8.77306
-7.56586
-9.72406
-211.8
225.559
22.5908
-0.315828
-8.42958
-9.66844
-8.21187
-11.3431
-235.744
243.038
31.2109
1.74477
-9.39058
-10.8136
-8.70325
-10.0609
-252.644
259.209
24.3968
2.85001
-7.76062
-9.17779
-6.81244
-7.26772
-263.185
264.783
16.7716
3.83987
-4.8213
-6.26462
-3.85589
1047.82
-4.05262
-0.155619
-11.8569
2.76693
-7.08914
5.45479
-266.841
-258.011
-256.59
-251.442
1064.07
-26.2749
-11.4171
1083.26
-50.5127
-20.5585
1102.21
-83.2745
-18.6995
1110.02
-128.92
-8.80932
-137.594
-0.365502
-45.4284
1466.48
-484.881
460.278
661.395
-225.877
933.126
749.402
-292.38
1071.41
492.776
-3.03896
1105.17
490.066
55.238
1043.67
258.101
64.2469
979.574
304.238
73.2939
-68.3545
-86.9439
-69.622
-88.52
941.747
106.118
57.7072
-52.683
-13.1
-49.5819
-10.6337
939.769
89.4393
30.5823
-19.9727
-35.7796
-23.5747
-38.7163
955.086
11.0584
43.9541
-29.6941
-8.95461
-26.4016
-5.27998
981.683
2.82167
34.038
-15.4555
-16.931
-15.2036
-15.8659
1009.27
-18.3549
39.3882
-19.7054
-9.02531
-16.5555
-3.3356
1037.47
-11.2157
26.6116
-15.5574
-9.77635
-13.0731
-5.19116
1060.28
-21.6786
13.717
-12.9405
1.39126
-8.11214
4.81211
1080.51
-25.7581
1.47842
1100.9
-38.0194
-8.64508
1124.74
-55.1658
-19.1824
1139.82
-79.0545
-19.3008
1137.02
-118.504
-7.61408
-124.713
-1.53648
296.647
845.831
5011.99
426.36
708.852
-177.17
789.737
511.61
-125.585
739.363
550.957
-7.80683
826.446
361.301
41.6821
850.237
264.193
-29.8816
978.861
184.185
-8.57122
1039.99
83.7505
-38.7625
1110.18
29.6645
-10.4189
1148.36
-24.9318
-2.18763
1174.66
-48.0669
24.5871
1190.06
-62.915
29.1683
1197.44
-47.1637
28.5681
1198.65
-39.1818
16.2934
1196.8
-27.6146
3.70039
1196.48
-31.5461
-6.15268
1199.54
-41.0009
-17.2204
1198.36
-57.0863
-20.7899
1176.2
-93.7669
-2.58026
-99.7572
0.101808
920.909
532.209
2825.09
563.285
768.655
297.82
838.261
387.559
-150.924
916.089
558.209
-85.0809
982.725
366.266
-71.601
1012.38
323.696
-89.1617
1056.97
224.769
-85.1729
1116.51
133.736
-109.527
1168.93
57.5551
-80.3026
1214.18
-8.97082
-61.2153
1242.09
-61.6723
-14.309
1261.51
-85.5247
3.18978
1267.35
-74.3508
21.3468
1268.63
-58.8933
18.432
1269.71
-42.8709
14.1853
1269.33
-38.9899
7.82341
1270.26
-38.592
-3.34733
1262.61
-42.7276
-6.70058
1218.1
-63.1148
13.8568
-67.813
11.9722
-297.277
154.027
4357.01
206.211
520.084
-254.916
712.184
371.871
-490.286
863.191
503.48
-96.278
991.912
302.237
-64.6914
1111.42
291.066
-86.878
1212.53
213.837
-90.1763
1310.1
157.08
-120.917
1380.72
79.5564
-92.618
1420.44
19.0387
-67.7343
1408.84
-48.6754
-1.39878
1377.86
-77.5341
22.9883
1346.61
-74.5517
31.4602
1333.97
-66.886
20.6233
1335.45
-60.4974
16.148
1339.86
-55.9949
12.597
1344.5
-51.4128
8.17949
1341.14
-45.905
6.5363
1295.13
-35.4384
18.341
-32.1191
13.7845
1662.48
-47.6255
-1636.9
2522.3
261.319
-601.052
1998.8
613.344
282.023
1694.19
581.163
226.929
1465.98
357.763
172.691
1472.24
278.776
6.02246
1507.25
198.542
-19.7158
1565.43
146.537
-47.6293
1586.69
65.0213
-6.72497
1578.39
14.6956
12.6424
1505.42
-28.1339
52.4215
1432.46
-48.8207
44.2541
1386.3
-51.8812
23.4858
1360.89
-53.5441
12.0717
1349.25
-51.3164
2.45793
1344.55
-51.9791
0.682903
1348.62
-51.1928
-4.29066
1356.58
-48.9829
-4.88608
1341.89
-20.0913
-0.655659
-5.38795
-0.658081
515.569
-57.8287
-505.774
781.827
463.577
-468.516
897.261
675.066
-177.156
1116.69
604.277
-242.54
1193.14
450.415
-169.1
1269.71
372.916
-170.719
1283.08
253.839
-68.6584
1309.81
147.471
-27.6719
1339.42
-15.3483
50.7639
1357
-54.1072
51.2214
1349.85
-58.7797
37.792
1341.37
-59.5387
19.2009
1330.27
-55.1487
14.3668
1318.91
-57.3336
15.1544
1301.27
-51.0949
17.4114
1283.36
-53.3656
19.3003
1265.38
-41.8641
8.65216
1244.03
-33.6797
6.04115
1221.4
-0.422191
2.96544
13.5453
-0.44545
-165.991
1546.27
462.121
-164.536
822.265
314.922
1347.9
78.6403
1645.26
153.061
1861.79
156.377
1898.77
216.863
1788
258.236
1588.1
184.56
1478.82
55.1708
1445.78
-25.737
1434.85
-48.6153
1426.37
-46.6619
1416.25
-47.2181
1392.77
-27.6182
1352.45
-13.0434
1309.76
0.824987
1278.9
-2.81846
1278.44
0.0418573
7.16425
3109.01
499.285
1849.31
2695.95
-113.576
141.59
2131.6
288.598
-53.802
1862.41
209.289
-4.63128
1708.08
140.378
8.99456
1666.51
20.8241
54.825
1638.34
8.78277
52.5378
1653.76
-20.9298
30.3697
1658.62
-5.08563
13.1204
1670.21
-4.55444
-6.16602
1634.33
29.4879
15.7009
1568.73
55.0433
35.2174
1448.84
93.7621
81.3223
1357.26
73.1576
46.8757
1300.1
34.4314
11.3287
1273.66
6.80772
-1.53324
1268.67
-10.7254
-3.24907
1276.94
-22.4204
-0.738371
1299.08
-34.282
17.0251
-31.3943
27.7553
452.967
1614.32
-1863.71
612.328
464.533
-780.913
792.951
148.489
299.979
903.296
79.7563
74.6132
1108.08
-41.9588
-49.0801
1069.44
46.315
57.84
1105.51
4.57287
-55.7311
1079.89
32.9239
-70.9156
1095.58
24.491
-136.087
1090.1
49.3747
-147.656
1100
56.359
-140.3
1097.56
74.3756
-113.493
1104.62
74.544
-28.0524
1107.29
60.5019
2.5334
1105.79
29.927
24.3989
1102.57
10.8195
20.2171
1100.92
-8.11994
29.9325
1100.09
-17.6106
27.1011
1098.17
-30.3133
28.5676
-32.2658
21.9454
2218.8
1808.38
-194.613
2121.15
670.435
71.229
1672.87
510.922
435.741
1467.11
258.811
219.669
1244.65
155.672
192.609
1100.78
188.187
27.5086
1054.34
56.5187
-5.48169
998.17
97.437
-31.7198
1002.44
33.3694
-35.0488
987.756
72.2466
-31.9482
998.335
48.7304
-12.8111
1001.32
72.2739
-3.91846
1012.38
57.3066
23.0616
1015.17
55.1025
23.3356
1014.54
27.27
28.708
1011.85
12.7016
20.6755
1010.35
-7.74665
18.2498
1009.62
-16.5378
11.8285
1012.02
-33.8988
11.7402
-38.5875
12.3673
-35.4463
1207.47
-5678.11
557.964
740.666
399.275
1188.21
446.407
15.341
1061.58
430.416
95.2212
938.74
303.017
196.979
876.084
252.23
12.1203
890.906
52.4679
-6.35027
868.545
110.035
21.1782
905.293
-0.848408
-7.52128
894.357
79.4771
14.5235
919.926
23.0273
6.27396
916.271
74.9507
9.26904
933.189
37.7192
12.61
935.798
51.3133
8.7811
944.892
15.834
8.678
949.787
7.18063
4.27353
958.211
-18.1096
4.89103
966.707
-25.9841
2.51274
977.481
-46.0262
5.20182
-49.3111
10.6018
250.953
929.4
1713.82
811.441
786.212
-351.204
972.233
221.917
336.712
985.406
440.14
-66.898
1008.25
287.348
28.9376
961.406
296.804
1.37727
998.613
16.0683
22.8684
988.175
103.291
41.2944
998.437
-18.9164
33.9639
989.646
80.6161
25.4686
986.058
21.5629
17.0387
976.435
82.5496
4.78922
974.285
36.617
6.94372
968.982
55.9862
-0.159175
968.146
14.1866
4.12437
967.947
6.69495
0.235715
971.731
-23.1873
3.24589
976.639
-31.3817
1.98453
983.163
-54.1162
4.95714
-57.3034
9.66328
1891.72
2168.56
1728.95
1297.97
1016.42
-501.817
894.558
560.672
-70.4727
885.788
438.187
-8.63856
902.14
272.172
-153.906
886.086
307.312
24.7156
997.68
-68.848
-97.2022
964.501
104.65
86.5911
997.579
-62.5235
49.625
982.477
81.1491
66.6187
980.902
17.0933
34.2194
963.784
95.8347
22.3752
959.788
37.8001
15.3428
950.782
63.9719
6.34498
948.304
14.9154
7.26681
950.833
4.26134
4.87805
958.538
-31.9348
6.09369
968.644
-41.799
1.70304
978.629
-65.7951
5.8923
-67.0599
10.9952
487.572
1708.66
-343.128
698.128
585.918
-1130.1
944.945
277.064
-181.407
1151.82
263.357
-102.469
1253.17
193.031
-11.8704
1220.94
342.425
-50.8394
1177.14
9.44708
-41.7608
-10.5443
4.14391
-18.9532
1157.06
-0.0293564
109.873
42.5576
1.63777
51.8813
1115.24
-6.0929
122.466
-11.5572
-3.91017
-9.74541
1089.9
-0.0599022
93.8515
41.8787
4.11995
45.9295
1049.2
11.7944
48.7557
14.9131
13.1144
14.6583
1018.48
18.2858
24.6017
42.3099
18.4654
42.0067
989.302
15.3152
19.8128
17.219
13.831
16.2404
979.316
11.3303
15.1945
25.687
10.0662
24.7098
979.602
13.2575
22.3232
984.349
-0.178041
12.1827
996.095
-45.1683
13.8934
1008.4
-55.6043
4.81252
1016.74
-77.1567
5.64202
-75.3954
13.0057
-292.167
626.227
-1477
374.065
-128.216
-890.288
877.806
-51.0987
-266.967
1125.54
42.7789
12.526
1328.26
47.8365
206.135
357.194
41.1748
75.1503
369.226
329.83
341.462
97.7783
45.8522
107.862
-14.6896
347.036
36.5835
-2.28935
-28.8872
-343.237
343.474
-3.01137
31.6319
-36.1882
-348.776
319.499
13.1019
46.2695
-31.4015
-293.574
278.688
8.65639
37.5702
-5.69713
-279.162
263.094
26.3392
7.2207
-5.59526
-254.547
246.644
25.025
6.75922
-2.94852
-250.906
241.474
24.9469
2.749
-0.864398
-239.288
235.549
15.2272
0.706355
967.856
-6.02993
-6.60475
-239.568
-238.554
-233.558
-233.124
1.11445
-6.14684
1.12654
992.389
-26.125
-7.90032
1010.87
-64.8215
-0.259784
1023.09
-70.5567
5.64113
1029.29
-86.1979
5.8612
-82.1836
12.943
226.183
275.845
-1710.02
782.723
-83.5591
154.271
819.36
103.322
87.5086
831.159
88.8598
-121.021
234.738
28.0662
94.4146
222.178
212.999
199.291
6.79681
267.354
12.3169
-10.5554
-7.37537
-9.8604
-79.2456
80.3606
9.97558
6.14523
-7.72023
-86.0093
1.19897
85.1139
-0.990276
8.407
-2.87389
-84.9343
-5.14315
82.269
6.62584
4.05646
-1.47303
-74.6061
-6.18847
71.1853
8.78148
2.30084
-0.462932
-67.3398
-7.26987
65.0728
9.28896
0.710852
-0.275446
-62.3082
-7.05567
60.5577
8.6652
0.416347
-1.13341
-60.5983
-6.3458
59.2967
7.84304
0.93779
0.0588945
-59.9024
-4.06175
59.15
5.06093
-0.30572
-62.0598
2.09202
246.193
-3.74278
-3.2166
-62.2869
-61.3938
-61.6148
1017.87
-47.0696
3.54189
-251.345
-256.937
-244.66
-248.678
1019.31
-68.5352
-1.12649
1020.57
-73.7883
1.97887
1021.92
-88.9677
3.87787
-86.4769
9.11379
1979.97
727.601
4517.13
1185.62
213.012
457.551
970.281
226.345
-20.576
945.126
177.05
-178.112
206.122
93.4594
26.6273
260.55
190.219
239.619
11.3637
-22.3018
211.039
27.9352
-21.9148
0.287198
-5.73863
-53.8498
55.8529
4.16936
-0.721091
-3.00447
2.73673
-60.941
62.1075
-4.75798
3.85925
1.32991
-4.82367
-63.7808
64.0861
4.46181
-1.27329
2.17485
-12.2372
-64.7947
64.7644
12.1674
-2.07468
1.5928
-12.5364
-64.0615
63.6625
12.8735
-1.53102
-0.00353491
-11.1545
-62.1497
61.6031
11.6447
0.0599404
-0.769968
-9.07152
-61.0498
61.2319
9.20698
0.452437
0.663863
-4.87067
-62.6055
63.2912
4.37039
-0.849287
-65.5405
-0.716234
4.52608
261.747
-6.08877
0.770916
-65.4494
-64.7107
-64.5382
997.949
-40.4915
8.63674
-260.289
-253.938
-251.467
-245.226
986.249
-60.0183
2.23737
980.978
-70.6434
-2.10662
980.736
-89.7089
-1.47129
-90.4285
3.10305
1070.6
683.274
1957.75
1561.9
109.874
-964.243
1458.4
499.872
-433.016
1371.3
346.009
-360.171
305.044
311.015
-148.582
316.741
278.073
289.553
36.1445
-28.9726
309.016
39.7603
-50.9049
5.19055
-2.22672
-76.4441
77.6258
2.27332
-6.41888
-6.97613
7.30338
-75.5541
72.5435
-6.17028
8.85369
-2.82141
-5.4452
-64.7554
63.3637
6.17336
3.48493
-0.941192
-11.4677
-61.9034
61.7188
11.203
1.3905
-0.711052
-12.7142
-62.0616
62.2889
12.2013
0.996611
-0.0487586
-11.9937
-63.2289
63.6295
11.8388
-0.196953
0.0249684
-9.12062
-64.8343
65.2707
8.97014
-0.310886
1.35455
-3.50953
-65.8834
65.8807
3.54371
-1.38603
-65.3185
-2.23192
3.98161
253.301
-2.27013
3.197
-63.9165
-64.0091
-62.7333
954.456
-32.2208
2.48638
-248.444
-242.485
-240.02
-234.582
950.658
-55.5548
-7.33977
951.618
-72.81
-10.0244
956.327
-95.9609
-5.00136
-96.9122
3.41859
305.934
-0.88429
1192.55
544.727
10.7949
194.953
894.58
336.829
-252.021
972.531
315.209
-198.84
247.915
317.297
35.003
264.596
224.673
242.245
3.54642
-57.087
264.743
51.9739
-15.2613
-9.44219
-3.73924
-70.6004
72.9369
2.53559
8.3093
-9.12037
1.475
-68.0124
64.1334
0.0207392
11.5037
-2.71751
-7.84989
-56.7602
56.3506
7.84823
3.12876
0.162495
-10.501
-56.8382
57.2142
10.1079
-0.1455
0.127363
-11.5743
-58.2635
58.7307
11.0939
-0.114239
-0.428093
-10.8078
-60.0147
60.5672
10.2325
0.450845
-0.300732
-8.01876
-62.1004
62.623
7.45835
0.338588
0.0564929
-3.49606
-63.1343
63.1891
3.24797
0.136771
-62.6461
-4.6574
-0.443317
244.294
1.04604
5.20876
-61.3511
-61.3171
-60.1338
944.368
-29.1845
-7.23589
-243.907
-237.51
-236.014
-229.946
944.003
-54.3577
-15.895
947.207
-77.9442
-14.5762
951.74
-102.849
-6.90556
-102.02
4.06837
872.897
909.533
-743.713
1100.37
104.488
-442.813
1143.75
587.775
-168.898
1120.98
404.853
-50.8858
1034.11
418.545
143.067
226.591
148.81
109.1
-35.5381
10.2133
-18.4801
25.9023
239.289
212.693
226.246
-6.31098
-27.7113
212.413
34.4682
32.6568
-7.28797
-5.23385
-6.40255
-9.78203
-31.0187
-184.603
174.335
43.3256
34.1272
-8.15061
-10.0065
-8.22741
-6.82465
-8.42155
-185.843
189.409
20.3601
9.54695
-5.45161
-7.06569
-5.70995
-9.77824
-1.56679
-185.094
186.662
33.4252
2.10096
-7.88965
-9.95013
-7.90889
-8.94009
-0.996588
-198.873
208.903
20.1743
2.36596
-7.03858
-8.80096
-6.79427
-8.7866
-4.21606
-214.771
219.976
22.7385
5.86385
-6.38054
-8.44518
-5.97899
-6.35159
-5.40913
-228.702
233.202
13.7661
6.80443
-3.91772
-5.92625
-3.46589
-3.68859
-5.74016
-236.825
238.205
6.86277
5.85692
-0.800316
-3.47836
-0.392207
944.842
-16.2624
-0.447568
-4.48588
8.01212
-3.92965
8.05372
-241.017
-234.47
-233.301
-227.151
952.229
-34.959
-13.0295
956.705
-59.4184
-19.9735
960.769
-84.4283
-16.2793
962.673
-107.455
-6.10739
-102.874
3.07222
-793.046
1612.04
-1451.19
182.776
324.73
-1421.94
779.9
554.874
-856.603
866.603
392.949
-77.8373
902.033
431.201
7.1516
835.966
227.482
51.641
815.427
323.202
78.1793
-63.0468
-89.1284
-65.2015
-90.1719
795.797
110.366
59.1236
-42.2674
-6.28523
-38.6274
-4.97186
816.144
109.788
34.0489
-25.4974
-39.9366
-27.4428
-40.7243
844.529
23.0555
49.8521
-24.7528
-4.56124
-23.9066
-4.11847
881.964
18.3323
42.0159
-16.1978
-15.9182
-15.9836
-15.6464
913.477
-2.07463
42.9479
-15.3872
-1.66459
-15.3353
-0.610375
939.137
-2.45977
27.2107
-10.5787
-2.0804
-9.93767
-1.20274
955.086
-19.1481
15.2587
-6.28082
6.55453
-5.75727
7.14119
966.761
-27.7727
1.31351
974.803
-41.8755
-9.77083
980.049
-65.1019
-18.7453
979.562
-86.7335
-16.508
973.957
-105.683
-3.78094
-97.2072
1.31867
3135.1
690.055
1657.45
720.144
990.778
1571.74
730.024
430.257
-10.8483
538.293
492.674
84.198
676.539
313.563
21.0755
672.672
232.786
-31.3186
811.64
175.854
-0.191795
848.391
72.8472
-37.9947
914.603
30.571
2.58615
949.544
-12.3906
-1.68234
987.221
-24.3279
29.5699
1014.29
-33.6567
33.6771
1031.88
-23.2532
31.7786
1038.25
-28.108
18.877
1037.66
-27.7626
4.28542
1035.45
-37.6722
-8.14627
1026.96
-56.0026
-17.8319
1013.83
-76.638
-17.7543
995.55
-93.2175
3.23296
-82.3027
2.71281
768.548
734.832
2549.2
538.267
840.635
678.243
747.852
322.471
-252.722
747.233
480.979
-72.7661
818.931
271.348
-101.083
841.162
229.738
-108.346
888.182
125.27
-81.6088
926.942
31.5077
-106.947
965.105
-19.5183
-68.3761
1001.6
-59.9689
-50.1358
1035.63
-70.2649
-2.40268
1065.47
-71.197
10.8985
1085.33
-48.6973
26.9262
1093.77
-39.3027
21.1914
1096.49
-30.145
13.8384
1094.67
-34.4442
6.41649
1081.47
-41.7711
-4.37173
1059.21
-55.2898
-5.79658
1024.62
-64.7372
19.9735
-56.2895
15.0796
713.956
915.881
1486.63
1044.17
624.01
-368.499
766.134
504.256
-394.04
795.223
502.323
-146.71
835.493
230.65
-64.264
913.656
179.414
-114.717
976.868
72.6684
-100.786
1028.26
-4.76106
-136.04
1071.92
-76.4451
-79.3496
1103.26
-103.352
-55.6926
1124.61
-101.203
8.19416
1140.97
-90.8799
26.3095
1148.23
-60.4853
35.9876
1150.56
-45.8218
24.8115
1152.94
-33.8362
17.4523
1151.9
-34.5665
13.7611
1143.22
-30.4503
5.54441
1124.38
-34.2217
4.30682
1077.32
-26.4677
27.1355
-21.9436
21.1275
1437.19
365.061
-2027.44
2346.88
-269.425
-617.307
1866.69
573.797
692.679
1521.93
641.391
432.614
1248.24
352.572
324.459
1201.03
205.928
26.7191
1197.1
63.1441
-6.26107
1214.46
-21.1942
-48.5526
1221.21
-88.7845
-1.14075
1227.28
-103.776
7.00435
1215.77
-84.2011
46.9227
1200.16
-68.7521
37.7366
1182.05
-45.0109
26.1233
1168.84
-35.9141
15.3697
1160.6
-27.4172
4.28312
1154.46
-29.2824
1.53813
1148.06
-23.0748
-5.26803
1137.84
-22.9957
-5.89243
1107.13
-2.16979
5.76267
2.02398
6.30827
94.2483
-575.045
-1310.77
932.946
-533.975
-1042.66
932.949
198.139
198.499
1076.75
393.661
-138.614
1089.42
286.736
-115.931
1128.37
204.435
-208.179
1139.7
73.9848
-90.8231
1171.46
-32.2273
-48.4023
1201.57
-127.874
59.7433
1213.8
-111.799
47.0152
1200
-71.3887
38.7781
1183.56
-49.8674
16.7624
1166.48
-28.4306
14.8649
1150.5
-17.6348
12.8478
1135.33
-6.43666
11.601
1120.78
-5.52745
10.1026
1104.22
0.0690543
2.06134
1084.22
4.46634
-1.42136
1067.85
18.1655
-0.995449
15.2368
-1.04061
-330.398
2318.45
434.387
-1463.3
837.611
109.837
1332.57
-22.6579
1582.39
189.978
1755.5
187.704
1757.75
288.594
1667
316.759
1495.47
228.221
1373.62
65.214
1301.63
-25.1364
1249.61
-46.459
1211.22
-36.6991
1181.33
-34.9635
1166.36
-19.0866
1155.99
-8.20139
1154.1
2.78136
1152.59
3.15953
1167.1
3.7
10.7447
3422.4
661.766
3731.35
2756.65
351.485
455.861
2119.09
435.327
148.43
1859.29
248.877
6.29033
1695.84
184.968
-12.5225
1648.61
62.3748
39.6773
1608.39
55.9281
36.8325
1601.92
22.0751
14.7662
1561.98
50.9795
2.07391
1517.52
53.8843
-15.5918
1424.14
84.2036
24.877
1337.98
91.6656
29.717
1259.16
84.3087
75.8365
1213.02
52.1732
40.8351
1183.44
17.9203
22.9896
1170.23
-1.3269
13.006
1171.71
-14.7796
10.0513
1183.33
-21.1982
8.83807
1207.91
-28.5189
20.9672
-22.6867
29.3749
739.137
609.309
2011.6
675.284
85.5072
-451.082
820.909
182.433
407.247
896.17
174.342
73.8872
1050.71
45.1916
-63.845
1028.46
98.1912
44.2768
1067.17
34.641
-73.1594
1039.78
62.1596
-83.6077
1047.46
45.3443
-138.126
1024.62
62.1371
-133.071
1016.33
60.4706
-108.282
996.393
69.7994
-71.6855
997.007
57.8185
-2.17724
995.808
44.8867
11.0197
996.162
18.9702
22.9945
994.131
6.64315
14.2783
995.35
-7.50175
21.4358
997.621
-12.7721
16.4036
1002.01
-22.3699
18.0308
-21.779
15.4366
1642.38
1323.32
-199.645
1535.97
208.624
54.5249
1307.92
470.527
375.696
1215.24
320.845
165.842
1124.14
218.339
110.563
1012.49
212.827
24.5208
980.857
70.3327
-9.5362
926.393
108.781
-23.8761
930.727
35.4299
-29.4688
908.815
76.2057
-24.1044
916.459
45.9783
-5.96287
912.242
69.824
0.273629
921.658
49.2873
22.1773
922.242
49.7668
17.8725
923.995
23.5971
22.3282
922.386
14.9748
13.952
923.659
-3.54502
13.0204
924.688
-9.28017
7.30727
928.839
-23.3685
8.58835
-25.6143
10.8876
1062.14
1936.84
-4435.93
941.814
817.538
-89.3167
989.353
552.544
-114.214
855.606
471.662
78.1517
844.012
312.579
114.332
800.559
256.422
11.9777
826.66
51.7112
-13.8291
807.365
126.541
22.7126
841.885
3.62989
-10.2412
828.034
89.7701
14.8097
852.64
22.2184
5.42878
845.577
77.2402
8.91556
861.554
34.083
11.8368
861.321
51.7014
7.07909
869.778
15.7407
8.07738
873.472
12.2923
3.26223
881.202
-11.0188
4.63534
887.434
-15.3689
2.36889
896.348
-31.8976
4.81748
-32.7138
10.4827
72.7385
747.768
745.244
565.88
781.587
-808.395
843.04
292.918
319.178
850.234
453.19
-55.6189
885.803
286.619
19.3275
842.903
293.061
7.63819
897.759
2.92892
16.7947
884.444
138.648
42.5017
902.038
-6.33627
26.3355
891.271
103.328
22.6777
891.92
23.4588
15.1495
881.423
87.8948
4.63173
882.175
32.3577
7.91656
877.182
56.2546
0.280456
879.28
12.6372
5.13012
880.693
10.3739
0.741735
885.917
-16.1102
3.11283
890.313
-19.7313
1.9505
896.457
-37.9301
4.8458
-38.1252
10.0589
774.493
852.598
1923.26
827.207
779.195
-552.138
786.137
459.093
-195.578
818.539
409.882
2.26761
786.735
269.749
-105.232
765.264
305.896
33.3531
860.32
-102.254
-87.0759
829.196
180.678
75.6856
877.259
-36.4173
31.6431
867.166
126.811
53.2287
875.987
24.4486
24.409
862.598
105.979
17.6808
864.245
34.2779
11.7758
857.533
64.3096
5.00108
859.109
12.4177
5.91049
864.831
5.77666
3.75373
873.671
-23.8271
4.97031
881.98
-28.2144
1.877
890.199
-45.9286
5.67155
-44.306
11.4551
771.461
581.046
124.977
669.91
369.489
-618.844
828.954
230.901
-112.259
933.142
234.836
-31.6111
1021.38
176.309
-6.66766
929.472
373.992
-27.0277
891.857
-3.15387
-35.8443
-27.8564
-8.3685
-31.1765
897.822
20.1418
90.5816
68.5773
31.4887
73.7962
917.547
-0.341384
79.2386
-6.4075
-0.410021
-5.75513
920.022
15.7038
71.4609
54.3188
20.0815
56.6229
904.698
14.2084
32.4013
14.6522
13.5803
13.6858
890.4
19.518
19.842
43.013
19.5291
42.9768
878.678
11.9444
12.7084
15.7318
10.7005
14.7269
880.678
9.19114
11.583
23.8316
8.63014
24.2687
889.022
10.2105
16.1859
896.052
3.04156
7.8885
905.928
-30.734
10.9235
913.55
-35.8778
4.85426
918.78
-51.8511
6.33484
-47.9079
13.2952
318.937
625.814
-2264.3
474.631
-60.8701
-615.623
657.34
43.5596
-262.335
785.22
62.1007
57.3812
1002.35
45.6808
119.629
254.811
62.5255
56.6628
267.877
233.44
245.88
124.99
71.9207
133.392
-2.46335
237.171
22.3973
-5.44841
-32.8045
-218.551
229.049
7.1648
35.2834
-45.9781
-254.155
240.992
18.2517
40.5485
-33.4252
-231.954
231.089
19.1353
30.8585
-7.09072
-239.786
226.719
27.8815
6.4854
-6.27632
-221.281
217.589
23.3051
6.18063
-2.10608
-225.125
218.042
20.0938
1.04002
-0.46498
-218.628
216.738
10.9322
0.613362
892.517
-6.55799
-4.33083
-221.703
-221.843
-215.207
-215.348
0.813175
-6.49497
1.76179
906.044
-14.4577
-3.92843
916.841
-43.2777
1.48667
925.193
-44.9076
6.31937
929.818
-57.1757
6.56024
-50.7226
13.1705
267.108
1328.78
-1180.45
607.12
-20.3855
-226.226
655.688
102.919
-20.4184
577.226
74.3335
-54.7928
181.181
4.94624
40.8582
167.758
166.951
155.628
7.68644
204.894
34.9376
-3.81137
-7.16636
-10.7522
-62.8241
62.1486
12.8149
5.77905
-8.26858
-64.7538
-1.44201
64.0946
2.38687
7.98293
-5.8631
-65.6725
-6.25945
63.7594
8.07841
5.95723
-3.11696
-60.1732
-6.90853
58.2351
8.81677
3.1468
-0.98234
-57.7355
-7.33196
56.0681
9.00845
0.973184
-0.469469
-54.7307
-6.05299
53.5059
7.37904
0.368212
-0.287273
-55.0085
-4.72503
54.1553
5.85368
0.0117485
0.68454
-55.4974
-2.32356
54.9512
2.99384
-0.80858
-57.7489
3.08014
227.513
-4.75575
-2.58684
-57.9555
-56.9777
-57.1267
920.065
-30.1429
8.80044
-230.462
-233.457
-222.306
-223.413
920.554
-47.2695
2.37579
923.485
-49.2156
3.3558
926.269
-60.3335
4.25251
-53.7623
10.0445
1758.77
1125.91
-349.563
722.863
86.7338
1386.34
796.633
22.068
-13.4954
671.439
84.0826
-62.6667
150.151
13.6878
39.8595
192.652
135.514
171.147
18.2854
-29.3326
161.581
16.3032
-16.6851
-0.64078
-7.45842
-46.4293
49.4865
4.18408
0.857931
-4.60471
-2.71294
-55.313
56.5539
1.63611
4.44062
0.403661
-8.18282
-58.3595
58.4749
7.77877
-0.115009
1.15021
-11.4686
-58.1788
57.9005
11.5994
-1.00269
-57.0177
1.12067
-11.0686
56.7168
11.2623
-1.01349
-56.0357
0.385381
-9.00865