/*--------------------------------*- C++ -*----------------------------------*\
  =========                 |
  \\      /  F ield         | OpenFOAM: The Open Source CFD Toolbox
   \\    /   O peration     | Website:  https://openfoam.org
    \\  /    A nd           | Version:  10
     \\/     M anipulation  |
\*---------------------------------------------------------------------------*/
FoamFile
{
    format      ascii;
    class       volScalarField;
    location    "5.3";
    object      turbidity;
}
// * * * * * * * * * * * * * * * * * * * * * * * * * * * * * * * * * * * * * //

dimensions      [0 0 0 0 0 0 0];

internalField   nonuniform List<scalar> 
12920
(
-0.0190477
-0.0516828
-0.101088
-0.140417
-0.161933
-0.174445
-0.181227
-0.186973
-0.191981
-0.198824
-0.208126
-0.221703
-0.240391
-0.261855
-0.281028
-0.304214
-0.335948
-0.376473
-0.423773
-0.466891
-0.0317593
-0.0913365
-0.134701
-0.175943
-0.188879
-0.211167
-0.213713
-0.212425
-0.20723
-0.209752
-0.226317
-0.254504
-0.295785
-0.337308
-0.377882
-0.421371
-0.468241
-0.513365
-0.554807
-0.592186
-0.0148173
-0.0585291
-0.0871541
-0.1188
-0.161925
-0.209803
-0.248868
-0.270006
-0.298674
-0.318629
-0.345188
-0.369476
-0.400101
-0.437825
-0.482998
-0.527937
-0.568373
-0.602721
-0.631933
-0.65692
-0.0499819
-0.0626938
-0.0709994
-0.0982917
-0.14951
-0.230439
-0.272589
-0.319993
-0.349856
-0.387258
-0.419933
-0.452852
-0.487557
-0.523595
-0.555357
-0.581914
-0.601575
-0.617401
-0.629403
-0.641807
-0.0613289
-0.0614965
-0.0798345
-0.105819
-0.143189
-0.18712
-0.22289
-0.262842
-0.295263
-0.333501
-0.366212
-0.399692
-0.429643
-0.4586
-0.486321
-0.512172
-0.532098
-0.54656
-0.555653
-0.565558
-0.0465089
-0.0550158
-0.092448
-0.144524
-0.145527
-0.198179
-0.197361
-0.231578
-0.255586
-0.298281
-0.332738
-0.368985
-0.399235
-0.429041
-0.453819
-0.472454
-0.479628
-0.480888
-0.479413
-0.483805
-0.0425815
-0.0374799
-0.0573973
-0.0769969
-0.0943343
-0.116447
-0.130879
-0.151665
-0.172585
-0.212629
-0.256186
-0.307137
-0.351788
-0.392717
-0.4095
-0.410156
-0.396634
-0.387227
-0.384732
-0.392759
-0.0276274
-0.0334517
-0.0431595
-0.0582063
-0.0766565
-0.0949924
-0.0960168
-0.0945586
-0.0972918
-0.113476
-0.141431
-0.177063
-0.227933
-0.264362
-0.23212
-0.238644
-0.250644
-0.270337
-0.296205
-0.325919
-0.0287653
-0.0375535
-0.0553472
-0.0731126
-0.0944473
-0.0933383
-0.0915838
-0.0930096
-0.0903824
-0.0927499
-0.1043
-0.124088
-0.158606
-0.194379
-0.179933
-0.170625
-0.202993
-0.242863
-0.28742
-0.331312
-0.0215624
-0.0349373
-0.0565688
-0.0750521
-0.102297
-0.109517
-0.114681
-0.119514
-0.125659
-0.116106
-0.109511
-0.110469
-0.12572
-0.145851
-0.137765
-0.159253
-0.205745
-0.259136
-0.315795
-0.368414
-0.0139939
-0.0313299
-0.0456965
-0.0567424
-0.0731877
-0.0766905
-0.0838258
-0.109844
-0.12021
-0.121927
-0.122591
-0.119988
-0.122879
-0.127444
-0.120222
-0.161175
-0.220306
-0.282165
-0.345828
-0.405449
-0.0309341
-0.0450204
-0.0534543
-0.0656782
-0.0854043
-0.0875075
-0.101027
-0.130538
-0.141488
-0.131525
-0.11833
-0.116165
-0.118416
-0.1137
-0.104885
-0.180631
-0.242815
-0.305839
-0.370791
-0.432468
-0.0132967
-0.0500829
-0.0701696
-0.084048
-0.10163
-0.134026
-0.142065
-0.163379
-0.192613
-0.175825
-0.159375
-0.138695
-0.130487
-0.132687
-0.2219
-0.266018
-0.307832
-0.353194
-0.404601
-0.456283
-0.0333965
-0.0638346
-0.074559
-0.0971546
-0.123805
-0.155614
-0.193217
-0.2255
-0.257721
-0.285717
-0.312386
-0.335931
-0.356647
-0.372746
-0.382279
-0.3844
-0.387097
-0.401662
-0.432872
-0.472156
-0.0139789
-0.0527073
-0.0714979
-0.0987482
-0.123772
-0.13669
-0.157282
-0.171464
-0.194262
-0.221102
-0.253103
-0.286863
-0.318911
-0.344473
-0.360997
-0.368253
-0.374169
-0.390269
-0.424346
-0.467221
-0.0112642
-0.0468931
-0.0565735
-0.0780714
-0.0940429
-0.104893
-0.115598
-0.12775
-0.148772
-0.177989
-0.215561
-0.254241
-0.290883
-0.323516
-0.3508
-0.372331
-0.389791
-0.410305
-0.43973
-0.480531
-0.0206723
-0.044395
-0.0521227
-0.0763564
-0.0888489
-0.0943576
-0.100035
-0.108214
-0.125287
-0.151514
-0.18752
-0.226584
-0.265652
-0.301097
-0.331322
-0.357045
-0.380346
-0.404113
-0.432681
-0.472677
-0.0109164
-0.0203715
-0.033899
-0.0583635
-0.0804153
-0.0939396
-0.103495
-0.114487
-0.132126
-0.155659
-0.185057
-0.218585
-0.252623
-0.284455
-0.313038
-0.338329
-0.360335
-0.381281
-0.403899
-0.432087
-0.0173473
-0.03088
-0.0426818
-0.0527914
-0.0654723
-0.0835285
-0.10893
-0.137631
-0.168179
-0.199063
-0.228726
-0.256361
-0.282712
-0.309093
-0.33735
-0.367291
-0.398347
-0.428215
-0.453868
-0.470834
-0.0170824
-0.0408571
-0.0562833
-0.0693772
-0.0827632
-0.0979114
-0.116331
-0.139613
-0.166606
-0.190369
-0.203427
-0.212537
-0.226438
-0.246324
-0.276591
-0.314371
-0.355233
-0.392003
-0.423002
-0.444264
-0.0107431
-0.0209068
-0.0319037
-0.0375434
-0.0319023
-0.0304782
-0.0310379
-0.0331257
-0.0384798
-0.046117
-0.0591453
-0.0712697
-0.0741073
-0.0600276
-0.0459779
-0.0434498
-0.0507205
-0.0634805
-0.0821628
-0.101379
-0.0102536
-0.049262
-0.0556617
-0.0504443
-0.0264851
-0.0292798
-0.021174
-0.0199932
-0.0223794
-0.0254775
-0.0315145
-0.0383672
-0.0484005
-0.0625186
-0.0896039
-0.115138
-0.13833
-0.153447
-0.162084
-0.160955
-0.0108998
-0.0265652
-0.0408729
-0.0455292
-0.0498534
-0.0314505
-0.0278772
-0.0276627
-0.0334891
-0.0383769
-0.0504014
-0.0635262
-0.0860349
-0.103264
-0.117023
-0.12335
-0.126766
-0.126878
-0.12735
-0.12671
-0.00836815
-0.0334686
-0.0373493
-0.0407142
-0.06128
-0.0502739
-0.04614
-0.0565086
-0.0586161
-0.0704423
-0.0779035
-0.0848858
-0.0872241
-0.0837687
-0.0804786
-0.080421
-0.0862194
-0.0937843
-0.103537
-0.114098
-0.00748152
-0.0180472
-0.0189263
-0.0195915
-0.0319755
-0.0383856
-0.0527137
-0.0579171
-0.0634312
-0.0620959
-0.0640292
-0.0639235
-0.0639541
-0.0613174
-0.0613214
-0.0618116
-0.0650119
-0.0681873
-0.0738707
-0.0822058
-0.0197766
-0.015364
-0.0148618
-0.0237258
-0.0292873
-0.0525729
-0.0546867
-0.0759604
-0.078865
-0.076735
-0.0698706
-0.0617923
-0.0600284
-0.0590529
-0.0636837
-0.0646243
-0.0624996
-0.0572603
-0.0557023
-0.0584275
-0.0229431
-0.011296
-0.0138511
-0.0165062
-0.0230665
-0.0322296
-0.0473387
-0.0705645
-0.0822083
-0.085774
-0.0838806
-0.0821172
-0.0832397
-0.0838039
-0.083157
-0.0739805
-0.063735
-0.0533294
-0.0481151
-0.049142
-0.0101902
-0.0123259
-0.0227688
-0.0303709
-0.0454589
-0.0487647
-0.0513768
-0.0655127
-0.078421
-0.0792535
-0.0791449
-0.0931187
-0.0919082
-0.0746735
-0.0474036
-0.0456817
-0.0445714
-0.0437613
-0.0432903
-0.0451845
-0.00766229
-0.0184213
-0.0213177
-0.0319928
-0.0600586
-0.0670665
-0.073618
-0.0826948
-0.0814962
-0.071748
-0.0599486
-0.0890097
-0.10945
-0.087821
-0.0777774
-0.0599523
-0.0543384
-0.0494757
-0.0462264
-0.0450256
-0.00331954
-0.012708
-0.0188318
-0.0292473
-0.0534247
-0.0683416
-0.0840176
-0.0970381
-0.0801631
-0.0521942
-0.048016
-0.0816419
-0.108274
-0.102543
-0.0790834
-0.0487541
-0.0441075
-0.0413274
-0.0401641
-0.0401702
-0.0102251
-0.00991367
-0.00997517
-0.0134826
-0.0241462
-0.0321207
-0.0495648
-0.085147
-0.0883845
-0.0713908
-0.064311
-0.0824722
-0.100913
-0.0881623
-0.057784
-0.0387146
-0.0366728
-0.0375173
-0.0407393
-0.0448004
-0.0142138
-0.0188776
-0.0158111
-0.0212565
-0.0402972
-0.0512555
-0.0739088
-0.101919
-0.0789945
-0.0453111
-0.0566536
-0.0735579
-0.0683169
-0.0568589
-0.0479756
-0.0312943
-0.033173
-0.0384589
-0.0465554
-0.0553357
-0.00528724
-0.0166416
-0.0213552
-0.0286724
-0.0472777
-0.065149
-0.0785204
-0.0885055
-0.0597899
-0.0367584
-0.0367379
-0.0419032
-0.0449598
-0.0423358
-0.0254369
-0.0263177
-0.0315494
-0.0405861
-0.0527577
-0.0638652
-0.0101539
-0.0158247
-0.0172918
-0.0290061
-0.0517468
-0.0662861
-0.079039
-0.0797063
-0.076684
-0.0786657
-0.0742171
-0.0674668
-0.0531237
-0.0389085
-0.0294023
-0.0286622
-0.0350521
-0.0470425
-0.0636406
-0.0757408
-0.0258929
-0.0189891
-0.0149176
-0.0235218
-0.0326156
-0.03382
-0.0467847
-0.0525416
-0.0633935
-0.0723256
-0.0806047
-0.0797155
-0.0699796
-0.0548599
-0.0420934
-0.0384799
-0.0446637
-0.0593476
-0.0820232
-0.0965347
-0.0139145
-0.018034
-0.0107177
-0.0117112
-0.0134353
-0.0162478
-0.0221433
-0.0293577
-0.0396861
-0.0503874
-0.0616965
-0.0697219
-0.074915
-0.0729251
-0.0673415
-0.0632431
-0.0667738
-0.0816543
-0.110443
-0.128938
-0.0142673
-0.00717515
-0.00727999
-0.00827401
-0.00956286
-0.0121078
-0.0175153
-0.0246947
-0.0340025
-0.0424728
-0.0510886
-0.0573826
-0.0613385
-0.0641266
-0.0692638
-0.0766994
-0.0866466
-0.101579
-0.127723
-0.146731
-0.00408405
-0.00931169
-0.0170272
-0.0223515
-0.0218838
-0.0195645
-0.0252655
-0.0344212
-0.0441543
-0.0498433
-0.0517566
-0.0469795
-0.0387389
-0.033097
-0.0313806
-0.0351851
-0.0439802
-0.0584422
-0.082049
-0.109538
-0.00338963
-0.00893868
-0.0116634
-0.0128514
-0.0171408
-0.0278408
-0.0450849
-0.0612566
-0.0702195
-0.0664336
-0.0559236
-0.0454552
-0.0429388
-0.0478396
-0.055876
-0.0627048
-0.065297
-0.0677848
-0.0695474
-0.0713142
-0.00551751
-0.00849921
-0.0169551
-0.0221736
-0.0344678
-0.0510228
-0.0698304
-0.0834907
-0.079561
-0.0570998
-0.0357831
-0.0257135
-0.024353
-0.027852
-0.0335756
-0.0396149
-0.0448922
-0.0487068
-0.0508871
-0.0524039
-0.0157973
-0.039751
-0.0380755
-0.026427
-0.0190983
-0.0173548
-0.0186288
-0.0216478
-0.0263925
-0.0316991
-0.0371901
-0.0386095
-0.0350522
-0.0281124
-0.0247622
-0.0258462
-0.0291906
-0.0331536
-0.0378445
-0.0419301
-0.0115643
-0.0318769
-0.0261037
-0.0198942
-0.0132725
-0.0134185
-0.0137738
-0.0149321
-0.0170937
-0.0190522
-0.0216758
-0.023315
-0.0261568
-0.0303126
-0.037153
-0.0421445
-0.0461445
-0.0464671
-0.0447644
-0.0403377
-0.00533481
-0.0199623
-0.0234199
-0.021145
-0.0176681
-0.0130389
-0.0131058
-0.0133708
-0.0153286
-0.0170402
-0.0206285
-0.0241769
-0.0299967
-0.0334418
-0.0362308
-0.0368213
-0.0371157
-0.0361244
-0.03535
-0.0342611
-0.00325336
-0.0148651
-0.0169837
-0.018361
-0.022056
-0.0185037
-0.0187383
-0.0210491
-0.0217775
-0.0242058
-0.0255448
-0.0269798
-0.027938
-0.0286209
-0.030287
-0.0327001
-0.0357031
-0.0381873
-0.0402382
-0.0417897
-0.00765667
-0.0096674
-0.0103694
-0.0123379
-0.0158249
-0.0184366
-0.0234608
-0.0240117
-0.0247152
-0.0240537
-0.0241068
-0.0242035
-0.0246351
-0.0254341
-0.0268482
-0.0287162
-0.0307895
-0.0330022
-0.0351805
-0.0374071
-0.0262696
-0.00974443
-0.0100128
-0.0143183
-0.0185485
-0.0263095
-0.028266
-0.0332332
-0.0311386
-0.0271151
-0.0241555
-0.0218582
-0.0214933
-0.0215094
-0.0221187
-0.0223392
-0.0225924
-0.0232263
-0.0247038
-0.0269214
-0.0166462
-0.00847115
-0.0107842
-0.0137614
-0.0197343
-0.0237415
-0.0322098
-0.0397676
-0.0392935
-0.0359322
-0.0314239
-0.0280909
-0.0255183
-0.0235706
-0.0220682
-0.0197938
-0.0183966
-0.0179334
-0.0188935
-0.0211355
-0.00444151
-0.011044
-0.0194083
-0.0266932
-0.0387845
-0.0376673
-0.0397151
-0.0498827
-0.0473957
-0.0381243
-0.0335708
-0.0319323
-0.0248539
-0.0183814
-0.0135434
-0.0135612
-0.0139362
-0.0147783
-0.0160682
-0.018174
-0.00879378
-0.0113961
-0.0214169
-0.0344528
-0.0540959
-0.0541974
-0.0541236
-0.0595809
-0.0512331
-0.0322829
-0.0320255
-0.0354782
-0.0283412
-0.0224186
-0.0229118
-0.0178349
-0.0164957
-0.0159974
-0.0163416
-0.0176094
-0.010537
-0.00815685
-0.0126017
-0.0263029
-0.0462027
-0.0536765
-0.0588297
-0.0577271
-0.0320438
-0.0202325
-0.0252917
-0.0329571
-0.0327775
-0.0323442
-0.0260686
-0.016106
-0.0152984
-0.0152817
-0.0159056
-0.0170233
-0.00870349
-0.00560789
-0.00672838
-0.0127164
-0.0269561
-0.035281
-0.045959
-0.053011
-0.0414524
-0.0309529
-0.0316504
-0.0363276
-0.0353945
-0.028042
-0.0185914
-0.0137249
-0.0147393
-0.0162695
-0.0179134
-0.0193831
-0.00989029
-0.0113528
-0.0111391
-0.016358
-0.0326147
-0.0390494
-0.0490924
-0.0460739
-0.0196532
-0.0177467
-0.0238597
-0.0257913
-0.0230179
-0.0203582
-0.0147893
-0.0142475
-0.0164845
-0.0189545
-0.0213873
-0.0234245
-0.00378643
-0.00883873
-0.01158
-0.0157262
-0.027116
-0.0334791
-0.0389691
-0.0264612
-0.0149569
-0.0107324
-0.0115396
-0.0125844
-0.0125213
-0.0119487
-0.0125233
-0.0149962
-0.0179956
-0.021101
-0.0241143
-0.0264437
-0.00448123
-0.00971614
-0.0117851
-0.0161483
-0.0236053
-0.0291835
-0.0300179
-0.0277057
-0.0235248
-0.0222837
-0.018834
-0.0159102
-0.0130926
-0.0124145
-0.0138684
-0.0169217
-0.0207197
-0.0244265
-0.0276751
-0.0290432
-0.0175742
-0.0133955
-0.0107282
-0.0137848
-0.0166542
-0.0189682
-0.0247764
-0.0264283
-0.0292435
-0.0291546
-0.0278594
-0.0239019
-0.0195917
-0.01721
-0.0178207
-0.0211084
-0.0258528
-0.0306425
-0.0347743
-0.0345128
-0.00997691
-0.0124114
-0.00975367
-0.00887044
-0.0102722
-0.012818
-0.0165025
-0.0191545
-0.0221658
-0.0239785
-0.0254948
-0.0256301
-0.0252332
-0.0245548
-0.0254001
-0.0286464
-0.0340461
-0.0401989
-0.0465535
-0.0458169
-0.00268605
-0.00507883
-0.00728164
-0.00790212
-0.00952864
-0.0121254
-0.0154848
-0.0173517
-0.0186318
-0.0189212
-0.019955
-0.0211587
-0.0230927
-0.0258364
-0.0299665
-0.035352
-0.0416282
-0.0481734
-0.0551976
-0.0545289
-0.00133689
-0.00710423
-0.0130261
-0.0132596
-0.0132971
-0.0162196
-0.020995
-0.0229678
-0.022465
-0.0199377
-0.0179065
-0.0163803
-0.0166379
-0.0191135
-0.0234445
-0.0290352
-0.0353482
-0.0415099
-0.0480684
-0.0517816
-0.00218999
-0.00795607
-0.00853848
-0.00885553
-0.014133
-0.0227293
-0.032232
-0.0356775
-0.0333157
-0.0266289
-0.0213136
-0.019471
-0.0212342
-0.0245649
-0.0277523
-0.0296458
-0.0302759
-0.0304548
-0.0312721
-0.0333491
-0.00186865
-0.00172273
-0.00384863
-0.00893012
-0.019216
-0.0325937
-0.0454342
-0.0490772
-0.0394011
-0.0256103
-0.0180384
-0.0165974
-0.0184191
-0.0211486
-0.0236312
-0.025264
-0.0261234
-0.0263715
-0.0264811
-0.0272318
-0.0394335
-0.058055
-0.062663
-0.0440949
-0.0242621
-0.0158785
-0.0149477
-0.0164785
-0.0190914
-0.0207175
-0.0215954
-0.0196352
-0.0176525
-0.0162562
-0.0165387
-0.0176939
-0.0190711
-0.0202204
-0.0212258
-0.021798
-0.0275862
-0.026372
-0.0217669
-0.0146023
-0.0114457
-0.0114488
-0.0119698
-0.0128242
-0.013894
-0.0140668
-0.0140281
-0.0136019
-0.0140184
-0.0143
-0.0151371
-0.015216
-0.0155889
-0.0154735
-0.0157448
-0.016242
-0.0253684
-0.0191551
-0.0180811
-0.0147341
-0.01135
-0.00984301
-0.00963578
-0.00976995
-0.0103006
-0.0107778
-0.0116745
-0.0123752
-0.0136242
-0.0141627
-0.0150247
-0.0155926
-0.0165805
-0.0175507
-0.018919
-0.0203973
-0.00474167
-0.0124529
-0.0143685
-0.0129524
-0.0115119
-0.010841
-0.0108688
-0.0113882
-0.0116017
-0.0123197
-0.0129483
-0.0137088
-0.0147082
-0.0156573
-0.0169852
-0.018298
-0.0196994
-0.0208878
-0.0220733
-0.0233355
-0.0182945
-0.0116422
-0.0109333
-0.0114925
-0.0117546
-0.0118667
-0.0127503
-0.0125227
-0.0124281
-0.0126428
-0.0130678
-0.0138592
-0.0147972
-0.0159676
-0.0171084
-0.018273
-0.0192683
-0.0201596
-0.0209371
-0.0218276
-0.00939645
-0.00881248
-0.00960208
-0.012144
-0.0135669
-0.0151991
-0.0148355
-0.0152379
-0.013602
-0.0127586
-0.0122859
-0.0126077
-0.0129851
-0.0137803
-0.0144153
-0.0151749
-0.0159003
-0.0166716
-0.0174464
-0.0182855
-0.00880122
-0.0072273
-0.00886962
-0.0121343
-0.0159892
-0.0168335
-0.017412
-0.0187659
-0.0163383
-0.0147689
-0.0128429
-0.0122355
-0.0116659
-0.0117954
-0.0120342
-0.0126067
-0.0134741
-0.0145818
-0.0157729
-0.0169514
-0.0133149
-0.0133186
-0.0167986
-0.0203369
-0.0261294
-0.0225037
-0.0233588
-0.0239187
-0.0189188
-0.0152584
-0.0127456
-0.0111603
-0.00968122
-0.00867269
-0.00903197
-0.0100941
-0.0114696
-0.0130828
-0.0148045
-0.01652
-0.0135071
-0.0119963
-0.0185734
-0.0234529
-0.0310365
-0.0271904
-0.0275793
-0.0261775
-0.0171251
-0.0130288
-0.0123793
-0.0105333
-0.00853654
-0.00779278
-0.00774273
-0.00984585
-0.0112314
-0.0128514
-0.0146687
-0.0165736
-0.00766239
-0.00747468
-0.0142047
-0.0221715
-0.0302793
-0.0281812
-0.0264654
-0.0201635
-0.0110124
-0.00971046
-0.0113663
-0.0119168
-0.0108759
-0.00960418
-0.00834865
-0.0104398
-0.0119324
-0.0135353
-0.0152217
-0.0168836
-0.00323264
-0.00527759
-0.0086283
-0.0140132
-0.0228658
-0.0228897
-0.0239125
-0.0220569
-0.0159157
-0.0135161
-0.0146637
-0.0136894
-0.0103012
-0.00837148
-0.00808326
-0.0113389
-0.0130172
-0.0146327
-0.0161682
-0.0175731
-0.0122325
-0.0083143
-0.00851628
-0.0115464
-0.0199222
-0.0192433
-0.0192779
-0.0118812
-0.0082039
-0.00956473
-0.010464
-0.00952465
-0.00823813
-0.00781526
-0.0089089
-0.0120554
-0.0136476
-0.0152154
-0.0167415
-0.0181771
-0.0105967
-0.0108707
-0.00997561
-0.0108438
-0.0146479
-0.0141474
-0.0140216
-0.00780893
-0.00613716
-0.00597736
-0.00646952
-0.006981
-0.00760568
-0.00841497
-0.0107153
-0.0120258
-0.0133746
-0.0147953
-0.0163695
-0.0180608
-0.00224215
-0.00594953
-0.00967988
-0.0116186
-0.0115564
-0.0121559
-0.010248
-0.00938126
-0.00806503
-0.00798448
-0.00774741
-0.0081101
-0.00879934
-0.00988955
-0.0110836
-0.0122669
-0.0133497
-0.0143916
-0.0156914
-0.0172613
-0.0147765
-0.0124277
-0.0101969
-0.0100364
-0.0100908
-0.0107945
-0.011709
-0.0114077
-0.0113632
-0.0105787
-0.0101375
-0.00993478
-0.0103486
-0.0113924
-0.0126191
-0.013778
-0.0146352
-0.0152314
-0.016035
-0.0166902
-0.00469795
-0.00659783
-0.00577864
-0.00723954
-0.00871943
-0.00982868
-0.0107049
-0.0108455
-0.0110626
-0.0111144
-0.0115611
-0.0121255
-0.0130359
-0.0142047
-0.015474
-0.0166441
-0.0175502
-0.0181088
-0.0188254
-0.018263
-0.00119246
-0.00233781
-0.00474491
-0.00702961
-0.00891011
-0.0098717
-0.0104461
-0.01028
-0.0103348
-0.0107236
-0.0118844
-0.0133925
-0.0152442
-0.0171312
-0.0188224
-0.0201427
-0.0211037
-0.0215687
-0.0220152
-0.0206411
-0.00226403
-0.00862677
-0.0102566
-0.00920704
-0.0105563
-0.0118393
-0.012802
-0.012192
-0.0114396
-0.0112038
-0.0120556
-0.0136627
-0.015805
-0.0179575
-0.0197059
-0.0208009
-0.0214274
-0.0215612
-0.0220605
-0.021726
-0.00677667
-0.00723421
-0.00662982
-0.00756103
-0.0114783
-0.0153939
-0.0181991
-0.0173756
-0.0154923
-0.0137915
-0.0139141
-0.0150244
-0.01625
-0.0168935
-0.0170229
-0.0170388
-0.0173579
-0.0182285
-0.0197674
-0.0221026
-0.00521839
-0.00279786
-0.00342083
-0.00635688
-0.012788
-0.0197944
-0.024726
-0.0227846
-0.0171106
-0.0128586
-0.0119421
-0.01268
-0.0137225
-0.0144661
-0.0149853
-0.0155946
-0.0167851
-0.0189221
-0.0223998
-0.0274482
-0.00598966
-0.0301655
-0.0394818
-0.0297284
-0.0194975
-0.0139294
-0.0120608
-0.0112166
-0.0112736
-0.0111084
-0.0119887
-0.012133
-0.0123797
-0.0122879
-0.0122688
-0.0121259
-0.0121426
-0.0121764
-0.012645
-0.0134155
-0.0756523
-0.0310359
-0.0190042
-0.0124057
-0.0101185
-0.0092653
-0.00936582
-0.00911812
-0.00955238
-0.0100481
-0.0110152
-0.0121739
-0.0136693
-0.0153527
-0.0171069
-0.0189162
-0.0205558
-0.0221628
-0.0234731
-0.0245135
-0.0288996
-0.0214817
-0.0161218
-0.0113174
-0.00875798
-0.00802277
-0.00814272
-0.00859486
-0.00940303
-0.0102954
-0.0114156
-0.0125703
-0.0137444
-0.014844
-0.0157758
-0.016575
-0.01719
-0.0176895
-0.0180914
-0.0184583
-0.0167851
-0.0115967
-0.0122689
-0.00972473
-0.0082283
-0.00830701
-0.00871494
-0.00942461
-0.0101319
-0.0109655
-0.0118025
-0.0126729
-0.0134759
-0.0142529
-0.0149685
-0.015659
-0.0163394
-0.0169878
-0.0176555
-0.0182928
-0.019979
-0.00869369
-0.00926267
-0.00857561
-0.00800289
-0.00831575
-0.00872344
-0.00942689
-0.0100073
-0.0107997
-0.0115251
-0.0123213
-0.0130727
-0.0138379
-0.0146329
-0.0154297
-0.0162949
-0.0171699
-0.0181038
-0.018952
-0.0130234
-0.00904374
-0.00872267
-0.00870246
-0.00849067
-0.00897874
-0.00867565
-0.00952358
-0.00974739
-0.0105447
-0.011197
-0.0120301
-0.0128156
-0.0136866
-0.0145969
-0.0155905
-0.0166448
-0.0177495
-0.0188424
-0.0197858
-0.00820264
-0.00644559
-0.00790155
-0.00892095
-0.00932654
-0.00934865
-0.00876553
-0.00968317
-0.0095819
-0.010246
-0.0107765
-0.0116152
-0.0124247
-0.013344
-0.014247
-0.0153092
-0.0163922
-0.0175418
-0.0186054
-0.0195293
-0.0145972
-0.00968482
-0.00914779
-0.00961365
-0.00992153
-0.00980991
-0.00924961
-0.00995128
-0.00914135
-0.00928293
-0.00962184
-0.0101069
-0.0108644
-0.01149
-0.0135733
-0.0144746
-0.0153743
-0.0163318
-0.0172199
-0.0179942
-0.0128918
-0.0120328
-0.0107464
-0.00957634
-0.00952018
-0.0103554
-0.00933225
-0.00836572
-0.00787701
-0.00761114
-0.00774873
-0.00800261
-0.00885729
-0.00976743
-0.0113109
-0.0133681
-0.0141118
-0.0148858
-0.0156403
-0.0163172
-0.00969281
-0.00979982
-0.0121591
-0.01133
-0.0108828
-0.00996229
-0.00869329
-0.00739114
-0.00671747
-0.00655572
-0.00650296
-0.00701236
-0.00833689
-0.00979646
-0.0116679
-0.0131801
-0.0137627
-0.0143891
-0.0150746
-0.0157284
-0.00112241
-0.00455694
-0.0093046
-0.0104535
-0.0104766
-0.00933848
-0.00863352
-0.00775225
-0.006993
-0.0067975
-0.00665365
-0.00695476
-0.00828337
-0.00980881
-0.0119744
-0.0137666
-0.0144065
-0.0150505
-0.0157831
-0.0164668
-0.00888571
-0.00635042
-0.00710997
-0.00763269
-0.00787468
-0.00716058
-0.00609765
-0.00547458
-0.00571721
-0.00594045
-0.00620562
-0.00703294
-0.00855725
-0.0102463
-0.0126775
-0.0154014
-0.0161848
-0.0169487
-0.0177354
-0.0183512
-0.00119265
-0.00605215
-0.00693711
-0.00687826
-0.00675721
-0.0060469
-0.00569244
-0.00564756
-0.006147
-0.0068791
-0.00785027
-0.00901246
-0.0105169
-0.0121081
-0.0158212
-0.0171441
-0.0184155
-0.0196355
-0.0207475
-0.0215938
-0.00147118
-0.00285742
-0.00681398
-0.00734248
-0.00617737
-0.00596101
-0.00574971
-0.00627038
-0.00707416
-0.00804628
-0.00928966
-0.0107247
-0.0124083
-0.0142057
-0.0160714
-0.0179307
-0.0197488
-0.0214925
-0.023088
-0.0244731
-0.0256542
-0.0121056
-0.00905148
-0.00705723
-0.00612092
-0.00610163
-0.00629043
-0.00667656
-0.00732838
-0.00818637
-0.00930037
-0.0107295
-0.0124109
-0.0143094
-0.0163282
-0.0183791
-0.0203769
-0.0222536
-0.0238787
-0.0252889
-0.00145501
-0.00390201
-0.00544464
-0.00646709
-0.00666028
-0.00674668
-0.00699982
-0.00752169
-0.00817758
-0.00904537
-0.0100982
-0.0113865
-0.0129279
-0.0147182
-0.016703
-0.0187845
-0.020837
-0.0227514
-0.0243387
-0.0256268
-0.000118823
-0.00119568
-0.00445572
-0.00647004
-0.00690858
-0.00709392
-0.0076105
-0.00830649
-0.0091885
-0.0101011
-0.0111375
-0.0122697
-0.0136206
-0.0151833
-0.0170165
-0.0190706
-0.0212895
-0.0235567
-0.0257011
-0.0275993
-0.000954966
-0.00592982
-0.00687222
-0.00706632
-0.0074493
-0.0074798
-0.00800517
-0.00861676
-0.00957062
-0.0106185
-0.0117309
-0.012793
-0.0139005
-0.015105
-0.0165024
-0.0181451
-0.0200171
-0.0221133
-0.0243151
-0.0265053
-0.00261027
-0.00552029
-0.00533493
-0.00680233
-0.0085253
-0.00923428
-0.00967537
-0.00951655
-0.00983334
-0.0104598
-0.0115504
-0.0127971
-0.0142582
-0.0158635
-0.0176396
-0.0195596
-0.0215531
-0.0236469
-0.0257157
-0.0277662
-0.00370451
-0.00244669
-0.00251184
-0.00445857
-0.00792219
-0.0103128
-0.011424
-0.0103786
-0.00933601
-0.00890087
-0.00921632
-0.0101069
-0.0116347
-0.0138743
-0.0169258
-0.020793
-0.0253085
-0.0303548
-0.0356302
-0.041226
-0.0230123
-0.0269881
-0.0264547
-0.012994
-0.0139416
-0.0162728
-0.0170946
-0.0318242
-0.0278992
-0.0331071
-0.014389
-0.0151803
-0.0176616
-0.0186058
-0.0307301
-0.023741
-0.0286092
-0.0174342
-0.0181097
-0.0140102
-0.015474
-0.0353733
-0.0300772
-0.0319364
-0.0185433
-0.0189274
-0.0156628
-0.0150343
-0.0919959
-0.10729
-0.118481
-0.0886654
-0.0886394
-0.100395
-0.112326
-0.0916169
-0.120538
-0.121482
-0.0897166
-0.0901211
-0.115165
-0.113609
-0.0910295
-0.118993
-0.108914
-0.0895658
-0.0903788
-0.108447
-0.0914649
-0.100906
-0.106968
-0.105712
-0.0909382
-0.0927731
-0.0856893
-0.0726378
-0.118059
-0.106146
-0.109002
-0.0962303
-0.120791
-0.0732272
-0.0954951
-0.148452
-0.110715
-0.122299
-0.131369
-0.158909
-0.106944
-0.137373
-0.187862
-0.129068
-0.150199
-0.165761
-0.17328
-0.144171
-0.150565
-0.199053
-0.154462
-0.152691
-0.169569
-0.151138
-0.148884
-0.141193
-0.117497
-0.0983722
-0.103859
-0.108441
-0.111901
-0.088842
-0.0934584
-0.125386
-0.10923
-0.118519
-0.113875
-0.117261
-0.098338
-0.112218
-0.118944
-0.120025
-0.124441
-0.112945
-0.0893837
-0.114341
-0.107123
-0.110425
-0.125125
-0.122942
-0.0815132
-0.0673499
-0.100728
-0.0846175
-0.109466
-0.121492
-0.117864
-0.068132
-0.0898907
-0.0837099
-0.0952556
-0.119865
-0.117331
-0.119941
-0.10136
-0.132132
-0.102491
-0.124275
-0.142966
-0.122436
-0.129187
-0.138864
-0.144759
-0.129344
-0.132034
-0.142
-0.129726
-0.124784
-0.143412
-0.1364
-0.129549
-0.118623
-0.102597
-0.0886822
-0.116116
-0.0751876
-0.0898671
-0.0820449
-0.103609
-0.119924
-0.124353
-0.135549
-0.0969973
-0.113248
-0.112176
-0.127739
-0.121133
-0.135194
-0.128409
-0.115181
-0.113405
-0.127796
-0.120038
-0.122989
-0.125403
-0.118473
-0.110561
-0.100845
-0.117344
-0.114393
-0.120508
-0.117559
-0.118453
-0.0994954
-0.105454
-0.11499
-0.119251
-0.121288
-0.119363
-0.12202
-0.110313
-0.12583
-0.120865
-0.122018
-0.127312
-0.122613
-0.121584
-0.129185
-0.126871
-0.119861
-0.105761
-0.12181
-0.119757
-0.109846
-0.122988
-0.110852
-0.1012
-0.0962072
-0.123152
-0.113934
-0.140256
-0.0941791
-0.111972
-0.107527
-0.135364
-0.141349
-0.148875
-0.168803
-0.11995
-0.134169
-0.144963
-0.161872
-0.135189
-0.173384
-0.167684
-0.133527
-0.12104
-0.161811
-0.135446
-0.120764
-0.159364
-0.136458
-0.115808
-0.109138
-0.120391
-0.0991152
-0.115806
-0.130088
-0.115463
-0.109665
-0.112794
-0.0974403
-0.0946895
-0.118103
-0.111646
-0.104393
-0.113574
-0.111511
-0.0937181
-0.0936667
-0.11593
-0.102564
-0.0982698
-0.108712
-0.0972306
-0.0945126
-0.0999222
-0.103724
-0.0970616
-0.0984654
-0.0946368
-0.0945819
-0.102467
-0.112305
-0.081289
-0.0870215
-0.0982456
-0.0662583
-0.068114
-0.0758686
-0.0747767
-0.0820873
-0.0989611
-0.0866795
-0.0678364
-0.0638335
-0.0718005
-0.0566106
-0.0763389
-0.0802877
-0.0627518
-0.0610981
-0.047665
-0.0508659
-0.0359031
-0.0590049
-0.0572593
-0.0485484
-0.0436171
-0.043694
-0.0326524
-0.0327876
-0.079423
-0.0506938
-0.0741415
-0.0463685
-0.0535529
-0.0356301
-0.0447619
-0.108543
-0.0852165
-0.109238
-0.0543755
-0.0508543
-0.0464233
-0.0455719
-0.0943748
-0.111169
-0.105574
-0.047757
-0.0384784
-0.0442134
-0.0418764
-0.0802168
-0.10362
-0.101223
-0.0361841
-0.0340296
-0.0418409
-0.0426103
-0.0951251
-0.0619457
-0.0777447
-0.0735126
-0.0736125
-0.0572255
-0.0628861
-0.0879359
-0.0846874
-0.0915047
-0.0712613
-0.0557157
-0.0633391
-0.0575454
-0.057691
-0.088918
-0.0703002
-0.0489649
-0.0325598
-0.0542208
-0.0432176
-0.0456091
-0.0639797
-0.0539692
-0.029631
-0.0302832
-0.0403938
-0.0373609
-0.0707022
-0.0546285
-0.0697981
-0.0330419
-0.0423727
-0.0383469
-0.0435107
-0.106114
-0.0781791
-0.0997244
-0.0443813
-0.04503
-0.0451504
-0.0472471
-0.104146
-0.102504
-0.0986839
-0.0442701
-0.0429045
-0.0466659
-0.042737
-0.0986148
-0.0950215
-0.0816425
-0.0427945
-0.0422311
-0.0410717
-0.0366621
-0.0767808
-0.0626882
-0.0919485
-0.0500398
-0.0618457
-0.0574315
-0.065219
-0.0912424
-0.0984371
-0.0928807
-0.0620528
-0.0538299
-0.0615206
-0.0387431
-0.0756341
-0.0836626
-0.0619853
-0.0509735
-0.0447132
-0.0334295
-0.0296461
-0.0639045
-0.0599685
-0.0677351
-0.0433282
-0.041971
-0.0308249
-0.0363989
-0.0758434
-0.0726483
-0.0858703
-0.0424883
-0.0451611
-0.038228
-0.0415598
-0.0993455
-0.0885974
-0.0871946
-0.046396
-0.0474635
-0.0416759
-0.0389799
-0.0932017
-0.0831988
-0.0673879
-0.0464257
-0.0407491
-0.0374771
-0.0334401
-0.0734668
-0.0632944
-0.05858
-0.0387884
-0.0346001
-0.032495
-0.0304717
-0.0965826
-0.0764365
-0.0995659
-0.0636063
-0.0650994
-0.0649016
-0.0612532
-0.0908199
-0.10223
-0.0758085
-0.0597996
-0.0337906
-0.0532423
-0.0344772
-0.0490369
-0.0636824
-0.0353712
-0.0281156
-0.0237101
-0.0304499
-0.0213381
-0.0515381
-0.0313598
-0.0308275
-0.0247433
-0.0301441
-0.0198606
-0.0211719
-0.0709704
-0.0323186
-0.0378837
-0.0319259
-0.0352001
-0.0221092
-0.0242712
-0.0716321
-0.0399801
-0.0464739
-0.0354505
-0.0340607
-0.0247895
-0.0257397
-0.0584178
-0.0483094
-0.0516747
-0.0332469
-0.0310634
-0.0257564
-0.0250896
-0.0572954
-0.0517278
-0.0473156
-0.0305103
-0.0289572
-0.024657
-0.023108
-0.0595395
-0.0614713
-0.0612104
-0.0430989
-0.037788
-0.0432399
-0.0332698
-0.0547647
-0.0575051
-0.0401176
-0.0351841
-0.0266199
-0.0293846
-0.0194182
-0.0362153
-0.0348694
-0.0239189
-0.0236023
-0.0185305
-0.0172065
-0.0138108
-0.0305929
-0.0223328
-0.0246789
-0.0180772
-0.0183761
-0.0135976
-0.01435
-0.0354524
-0.027009
-0.0330394
-0.0182099
-0.0165705
-0.0146361
-0.0147332
-0.0308337
-0.0337666
-0.0324033
-0.0156755
-0.0130505
-0.014536
-0.0137064
-0.0229714
-0.0316573
-0.0309963
-0.0121841
-0.0105073
-0.0134378
-0.0127921
-0.0232161
-0.0312042
-0.0320155
-0.0101869
-0.00980114
-0.0126079
-0.0122129
-0.0608239
-0.0495413
-0.0548458
-0.0409122
-0.0322981
-0.0381633
-0.0329019
-0.0384162
-0.0548565
-0.0474232
-0.0286102
-0.0186893
-0.0310579
-0.0233402
-0.0212646
-0.0430407
-0.0299836
-0.0165073
-0.0131923
-0.0209052
-0.0165783
-0.0177859
-0.0202622
-0.0204842
-0.017687
-0.0202124
-0.0177886
-0.0179167
-0.0218994
-0.0277468
-0.0246923
-0.0207576
-0.0271439
-0.0220504
-0.02047
-0.0331039
-0.034377
-0.0357956
-0.015203
-0.0146953
-0.0185058
-0.0164297
-0.0323852
-0.0353673
-0.0318522
-0.0143988
-0.013388
-0.0154152
-0.0126375
-0.0317007
-0.0302859
-0.0259808
-0.0130417
-0.0121829
-0.0119219
-0.0105394
-0.0537475
-0.0486194
-0.053413
-0.0353288
-0.0306452
-0.0335144
-0.023491
-0.0445533
-0.0487741
-0.0289729
-0.0287329
-0.0224014
-0.0198179
-0.0131903
-0.0335081
-0.0250619
-0.0226627
-0.0205931
-0.0174435
-0.0126213
-0.013413
-0.0260766
-0.0305168
-0.0330276
-0.0246738
-0.0333302
-0.0247981
-0.0256268
-0.0292658
-0.0328302
-0.0356529
-0.0274753
-0.0365151
-0.0289357
-0.0284561
-0.0365226
-0.0315426
-0.0279138
-0.0184583
-0.0156013
-0.0144798
-0.0124215
-0.0298975
-0.0263587
-0.0225563
-0.0145299
-0.0118683
-0.0117711
-0.0103528
-0.0239297
-0.0217098
-0.0198279
-0.0112335
-0.0101166
-0.0100789
-0.00983412
-0.051914
-0.0449414
-0.0423215
-0.0328292
-0.0213426
-0.0317456
-0.0179776
-0.0238387
-0.0346745
-0.0172942
-0.0172124
-0.010601
-0.0138765
-0.0099682
-0.0167424
-0.0143608
-0.0103855
-0.0102002
-0.011304
-0.00929599
-0.00831409
-0.0224492
-0.0104683
-0.0121034
-0.01195
-0.013405
-0.00838611
-0.00891525
-0.0259108
-0.0127359
-0.0146474
-0.0135806
-0.0131543
-0.00901152
-0.00920423
-0.023847
-0.0151596
-0.0158737
-0.0127759
-0.0114101
-0.00924603
-0.00929373
-0.0209207
-0.0157774
-0.0148416
-0.0109904
-0.0100972
-0.00930562
-0.00945773
-0.0185711
-0.014435
-0.0131516
-0.00994419
-0.00995692
-0.00960462
-0.0103148
-0.0282869
-0.027867
-0.0236546
-0.0177128
-0.0119975
-0.0150186
-0.0104003
-0.0191558
-0.0207531