/*--------------------------------*- C++ -*----------------------------------*\
  =========                 |
  \\      /  F ield         | OpenFOAM: The Open Source CFD Toolbox
   \\    /   O peration     | Website:  https://openfoam.org
    \\  /    A nd           | Version:  10
     \\/     M anipulation  |
\*---------------------------------------------------------------------------*/
FoamFile
{
    format      ascii;
    class       volScalarField;
    location    "5.3";
    object      turbidity_0;
}
// * * * * * * * * * * * * * * * * * * * * * * * * * * * * * * * * * * * * * //

dimensions      [0 0 0 0 0 0 0];

internalField   nonuniform List<scalar> 
12920
(
-0.0188452
-0.052536
-0.102656
-0.141351
-0.162135
-0.174312
-0.180917
-0.186622
-0.191631
-0.198543
-0.207942
-0.22167
-0.240518
-0.262011
-0.281116
-0.304444
-0.336387
-0.377124
-0.424457
-0.467464
-0.031837
-0.0916677
-0.135061
-0.176155
-0.188785
-0.211136
-0.213327
-0.212064
-0.206963
-0.209673
-0.226572
-0.255045
-0.2965
-0.337944
-0.378467
-0.421991
-0.468881
-0.513878
-0.555189
-0.592468
-0.0171073
-0.0614294
-0.0882275
-0.11958
-0.162866
-0.210536
-0.249242
-0.270065
-0.29888
-0.318744
-0.345414
-0.36968
-0.40043
-0.438286
-0.483554
-0.52843
-0.568698
-0.602917
-0.632032
-0.656949
-0.0535747
-0.0630976
-0.0707234
-0.0986841
-0.150439
-0.231585
-0.272841
-0.320389
-0.349926
-0.387511
-0.420086
-0.453076
-0.487803
-0.523872
-0.555498
-0.581933
-0.601486
-0.617263
-0.629238
-0.641669
-0.0595231
-0.0609638
-0.0798232
-0.106016
-0.143504
-0.187408
-0.223094
-0.263066
-0.295458
-0.333721
-0.366364
-0.399808
-0.429712
-0.458635
-0.486364
-0.512194
-0.532026
-0.546406
-0.555454
-0.565402
-0.0469255
-0.0550241
-0.0928086
-0.145144
-0.145405
-0.198774
-0.197041
-0.231756
-0.255751
-0.298649
-0.332963
-0.36919
-0.399327
-0.429112
-0.453802
-0.472317
-0.479324
-0.480514
-0.479063
-0.48358
-0.0436886
-0.0374452
-0.0572742
-0.0766614
-0.0941437
-0.116227
-0.130893
-0.151732
-0.172809
-0.213211
-0.256784
-0.307754
-0.352267
-0.393056
-0.409329
-0.409665
-0.396026
-0.386717
-0.384383
-0.392587
-0.0274621
-0.0334521
-0.0430781
-0.0583211
-0.0769114
-0.0950839
-0.0958665
-0.0944007
-0.097393
-0.113997
-0.142044
-0.177624
-0.228494
-0.264559
-0.231727
-0.238334
-0.250476
-0.270301
-0.296273
-0.326037
-0.0298305
-0.0374495
-0.0555483
-0.0731946
-0.0945483
-0.0932176
-0.0914223
-0.093084
-0.0902549
-0.0928831
-0.104538
-0.124415
-0.159148
-0.194677
-0.17944
-0.170625
-0.203172
-0.243166
-0.287783
-0.331631
-0.0203855
-0.0345325
-0.0564858
-0.075032
-0.102421
-0.109792
-0.114811
-0.119753
-0.125709
-0.116038
-0.109522
-0.110587
-0.126181
-0.145999
-0.137483
-0.159458
-0.206171
-0.259682
-0.316364
-0.368864
-0.0143479
-0.031603
-0.0458807
-0.056743
-0.0731996
-0.0765735
-0.0840643
-0.11046
-0.120263
-0.121982
-0.12261
-0.120024
-0.123054
-0.127456
-0.11997
-0.161634
-0.220949
-0.282873
-0.346543
-0.406048
-0.0306835
-0.0448803
-0.0532785
-0.0656956
-0.0855523
-0.0877793
-0.101647
-0.131158
-0.141565
-0.131337
-0.118183
-0.116174
-0.118405
-0.11348
-0.104861
-0.181261
-0.243521
-0.306584
-0.371557
-0.433143
-0.0142305
-0.0515002
-0.0705866
-0.0841487
-0.101798
-0.134507
-0.142514
-0.163824
-0.192966
-0.175484
-0.159239
-0.138447
-0.130455
-0.132826
-0.222301
-0.266367
-0.308194
-0.35365
-0.405155
-0.456821
-0.0328927
-0.0639444
-0.074578
-0.0972186
-0.124095
-0.155884
-0.193706
-0.225695
-0.257887
-0.285808
-0.31248
-0.336003
-0.356668
-0.372626
-0.381981
-0.38402
-0.386806
-0.401629
-0.433123
-0.472524
-0.0142654
-0.0523429
-0.0712485
-0.0986758
-0.123612
-0.136354
-0.156916
-0.171215
-0.194138
-0.221208
-0.253338
-0.287157
-0.31916
-0.344569
-0.360877
-0.367953
-0.373903
-0.390252
-0.424611
-0.467648
-0.0116005
-0.0469592
-0.0561626
-0.0777985
-0.0937279
-0.104592
-0.11532
-0.127645
-0.148876
-0.1783
-0.21601
-0.254701
-0.291298
-0.323827
-0.350973
-0.372361
-0.389739
-0.41035
-0.439944
-0.480983
-0.0212223
-0.0441034
-0.0520482
-0.0762848
-0.0886158
-0.0940374
-0.0997394
-0.108059
-0.125359
-0.151862
-0.188007
-0.227148
-0.266198
-0.301528
-0.33161
-0.357219
-0.38046
-0.404243
-0.432932
-0.473189
-0.0104604
-0.0200615
-0.0339297
-0.0586382
-0.0805905
-0.0938176
-0.103311
-0.114404
-0.132183
-0.155881
-0.185424
-0.219015
-0.253022
-0.284769
-0.313252
-0.338447
-0.360384
-0.381305
-0.40397
-0.432311
-0.0169918
-0.0307788
-0.0425707
-0.052599
-0.0653071
-0.0835805
-0.109161
-0.137946
-0.168489
-0.199374
-0.229026
-0.256627
-0.28295
-0.309335
-0.337623
-0.367589
-0.39864
-0.428455
-0.453972
-0.47073
-0.0168577
-0.0406095
-0.0560974
-0.0692822
-0.0827698
-0.0980042
-0.116538
-0.139981
-0.167043
-0.190594
-0.203382
-0.212473
-0.226511
-0.246574
-0.277045
-0.314947
-0.355783
-0.392437
-0.423254
-0.444271
-0.0112329
-0.0212936
-0.0324344
-0.0377561
-0.0317044
-0.0303391
-0.0309564
-0.0331214
-0.0386113
-0.0463592
-0.0595295
-0.0715682
-0.0740016
-0.0595226
-0.045623
-0.0433921
-0.0508767
-0.063743
-0.0825229
-0.101699
-0.0106387
-0.0497747
-0.0552636
-0.0502891
-0.0260877
-0.0291806
-0.0210264
-0.0199781
-0.0224408
-0.0255583
-0.0316484
-0.0385053
-0.0485688
-0.0628107
-0.0900815
-0.115537
-0.138599
-0.15354
-0.162042
-0.160762
-0.0107443
-0.0269011
-0.0410698
-0.04537
-0.0495925
-0.0309396
-0.0278082
-0.0276708
-0.0336098
-0.0384892
-0.0506437
-0.0638023
-0.0863943
-0.103489
-0.117105
-0.123305
-0.126687
-0.126779
-0.127273
-0.126602
-0.00909924
-0.0329764
-0.0369675
-0.0405936
-0.0613035
-0.0500883
-0.046079
-0.0566585
-0.0586619
-0.070605
-0.0780052
-0.0849679
-0.0871832
-0.0836222
-0.0803453
-0.080375
-0.0862994
-0.0939165
-0.103701
-0.114242
-0.00782599
-0.0176444
-0.0184667
-0.0194633
-0.0319713
-0.0384528
-0.0528901
-0.0579151
-0.063399
-0.0619648
-0.0639892
-0.0638751
-0.0639136
-0.0612501
-0.0613029
-0.0618188
-0.0650522
-0.0682386
-0.073964
-0.0823254
-0.0215442
-0.0151681
-0.014846
-0.0239071
-0.0293976
-0.052973
-0.0547843
-0.0762118
-0.0787718
-0.0764819
-0.0695958
-0.0615295
-0.059913
-0.0589938
-0.0637213
-0.0645997
-0.06242
-0.0571609
-0.055653
-0.058432
-0.0228588
-0.01115
-0.0138876
-0.016503
-0.0231673
-0.0323436
-0.0476909
-0.0709346
-0.0822644
-0.0856565
-0.0836921
-0.0820314
-0.083191
-0.0837596
-0.0830122
-0.0737365
-0.0634865
-0.0531285
-0.048011
-0.0491137
-0.00950645
-0.0123441
-0.0229055
-0.0305368
-0.0456842
-0.0488577
-0.0514146
-0.0658241
-0.0786054
-0.0790285
-0.0791292
-0.0933606
-0.091786
-0.0742457
-0.0473202
-0.0456474
-0.0445378
-0.0437252
-0.0432627
-0.0451749
-0.00675203
-0.018157
-0.0211559
-0.0321529
-0.0604213
-0.0674245
-0.0739585
-0.082742
-0.0814373
-0.0713035
-0.059917
-0.0896891
-0.109559
-0.0874463
-0.0778596
-0.0598866
-0.0542482
-0.0493963
-0.0461661
-0.0449802
-0.00362078
-0.0130471
-0.0189696
-0.0294455
-0.0538104
-0.0688031
-0.0843966
-0.0971546
-0.0795846
-0.0517188
-0.048176
-0.0824046
-0.108362
-0.102452
-0.0789287
-0.0486458
-0.0440315
-0.0412837
-0.040143
-0.0401609
-0.0103427
-0.00998332
-0.0099711
-0.0135414
-0.0243802
-0.0323976
-0.0501172
-0.0857573
-0.0880616
-0.0711377
-0.0644668
-0.0830393
-0.101017
-0.0877803
-0.0576475
-0.038645
-0.0366444
-0.0375353
-0.0407871
-0.0448514
-0.0140795
-0.0187754
-0.0158625
-0.0214195
-0.0406986
-0.0518042
-0.0744136
-0.102132
-0.0779641
-0.0448897
-0.0567908
-0.0735213
-0.0679105
-0.0567198
-0.0478773
-0.0312674
-0.0332134
-0.0385537
-0.0466879
-0.0554724
-0.0053541
-0.0169264
-0.0214245
-0.0288712
-0.0475471
-0.0653492
-0.0786941
-0.0881213
-0.0593051
-0.0365527
-0.0367835
-0.0419628
-0.044919
-0.0421866
-0.0253683
-0.0263349
-0.0316431
-0.0407416
-0.0529543
-0.0640382
-0.0100631
-0.0160178
-0.0173479
-0.0291986
-0.0520711
-0.0664161
-0.0790787
-0.0795546
-0.0765788
-0.0785366
-0.0740056
-0.0671603
-0.0527279
-0.0385657
-0.0292211
-0.0286438
-0.035161
-0.0472468
-0.0639062
-0.0759179
-0.0267616
-0.018559
-0.014837
-0.0235977
-0.0324752
-0.0337045
-0.0467437
-0.0525947
-0.063539
-0.0724872
-0.0806924
-0.0795871
-0.0696514
-0.0544634
-0.0418073
-0.0383947
-0.0447657
-0.0596051
-0.082398
-0.0967482
-0.0138784
-0.0179184
-0.0106157
-0.0116158
-0.0133505
-0.016221
-0.022164
-0.0294698
-0.039881
-0.0506176
-0.0619265
-0.0698861
-0.0749412
-0.0727981
-0.0671448
-0.0631012
-0.0668335
-0.0819395
-0.110901
-0.12919
-0.012984
-0.0069427
-0.00726171
-0.0082573
-0.00956209
-0.0121293
-0.0176016
-0.0248409
-0.0341905
-0.0426544
-0.0512661
-0.0574577
-0.0613227
-0.0641192
-0.0693178
-0.0768201
-0.0868412
-0.101892
-0.128191
-0.147043
-0.00404385
-0.0095052
-0.0173837
-0.0225173
-0.0217166
-0.0195253
-0.0254081
-0.0346263
-0.0443308
-0.0499133
-0.0516542
-0.0467184
-0.038446
-0.0328999
-0.0313168
-0.0352483
-0.044163
-0.0587529
-0.0825556
-0.110108
-0.00330809
-0.00897257
-0.0116522
-0.0127665
-0.0172068
-0.0281199
-0.0455027
-0.0616164
-0.070293
-0.0662307
-0.0555809
-0.0451579
-0.0428258
-0.0478761
-0.0559553
-0.0627348
-0.065294
-0.0677949
-0.0695627
-0.071349
-0.00527257
-0.00871801
-0.016816
-0.022276
-0.034738
-0.0514808
-0.0703057
-0.0836606
-0.0791007
-0.0563005
-0.0352363
-0.0254764
-0.0243274
-0.0279378
-0.0337072
-0.0397498
-0.0450014
-0.0487876
-0.0509267
-0.052379
-0.0175804
-0.0412267
-0.0379536
-0.0259746
-0.0188503
-0.0172895
-0.0186563
-0.0217317
-0.0265318
-0.0318576
-0.0373389
-0.0386223
-0.0348981
-0.0279196
-0.0246831
-0.0258702
-0.0292583
-0.0332341
-0.037929
-0.0419903
-0.0124933
-0.0321183
-0.0257782
-0.0197434
-0.0131569
-0.0134009
-0.0137788
-0.0149559
-0.0171348
-0.0190901
-0.0217162
-0.0233319
-0.0261947
-0.0303893
-0.0372561
-0.042205
-0.0461634
-0.0464181
-0.0446717
-0.0402075
-0.00543084
-0.0203552
-0.0233465
-0.0209827
-0.0174681
-0.0129351
-0.0131081
-0.0133757
-0.0153628
-0.0170696
-0.0206872
-0.0242367
-0.0300712
-0.0334689
-0.0362303
-0.0367943
-0.0370881
-0.0360864
-0.0353143
-0.0342175
-0.00334137
-0.0150107
-0.0169649
-0.0183235
-0.021972
-0.0184611
-0.018749
-0.0210812
-0.0217918
-0.024238
-0.025562
-0.0269944
-0.0279357
-0.0286174
-0.0303021
-0.0327329
-0.0357471
-0.0382262
-0.0402688
-0.0418039
-0.0073138
-0.00956157
-0.0102599
-0.0123209
-0.0158367
-0.018477
-0.0235235
-0.0239985
-0.0246972
-0.0240233
-0.024094
-0.0241975
-0.0246348
-0.0254441
-0.0268672
-0.0287451
-0.0308235
-0.0330409
-0.0352207
-0.0374438
-0.027056
-0.00951436
-0.0100185
-0.0143958
-0.0186348
-0.0264456
-0.0283052
-0.0332575
-0.0310512
-0.0269904
-0.0240779
-0.0218004
-0.0214748
-0.021501
-0.0221213
-0.0223375
-0.0225939
-0.0232386
-0.0247298
-0.0269563
-0.0166552
-0.0083401
-0.0108245
-0.013804
-0.0198433
-0.0238064
-0.0323493
-0.0398421
-0.0391825
-0.0358019
-0.0313
-0.0280212
-0.025456
-0.0235232
-0.022017
-0.019744
-0.0183645
-0.0179251
-0.0189098
-0.0211695
-0.00389438
-0.0110806
-0.0195284
-0.0268292
-0.0389833
-0.0377219
-0.0397884
-0.050031
-0.0471646
-0.0378664
-0.033497
-0.0318636
-0.0247225
-0.0182742
-0.0135333
-0.0135599
-0.01394
-0.0147882
-0.016087
-0.0182042
-0.00894884
-0.0113814
-0.0215292
-0.0346256
-0.0543004
-0.0543554
-0.0543188
-0.0595069
-0.0509213
-0.0319427
-0.0321
-0.0354933
-0.0281989
-0.0224042
-0.0229376
-0.0178098
-0.0164743
-0.0159886
-0.0163461
-0.0176273
-0.0106062
-0.00804136
-0.012652
-0.026504
-0.0464491
-0.053845
-0.0589346
-0.0574401
-0.0315788
-0.0201398
-0.0254307
-0.0330281
-0.0327735
-0.0323566
-0.0260224
-0.016079
-0.0152844
-0.0152805
-0.0159133
-0.0170378
-0.00840842
-0.00549919
-0.00674627
-0.0128553
-0.0272674
-0.0355723
-0.0461752
-0.0528383
-0.0411723
-0.0309059
-0.0317648
-0.036432
-0.0353188
-0.027916
-0.0185371
-0.0137228
-0.014754
-0.0162909
-0.0179345
-0.0193999
-0.00954204
-0.0113881
-0.0111662
-0.0164618
-0.0328492
-0.0392307
-0.0492168
-0.0454742
-0.0193099
-0.017732
-0.023871
-0.0257189
-0.0229364
-0.0203111
-0.0147511
-0.0142712
-0.0165187
-0.018991
-0.0214213
-0.0234501
-0.00354746
-0.00912791
-0.0116816
-0.0158186
-0.0272553
-0.0335069
-0.0389094
-0.0261184
-0.0148274
-0.0107061
-0.0115411
-0.0125795
-0.0124976
-0.0119285
-0.0125473
-0.0150341
-0.0180407
-0.0211461
-0.0241559
-0.0264748
-0.00487999
-0.00990555
-0.011853
-0.0162248
-0.0236929
-0.0292146
-0.0299451
-0.0276208
-0.0234596
-0.0222192
-0.0187477
-0.0158254
-0.0130292
-0.012395
-0.0138891
-0.0169674
-0.0207756
-0.0244779
-0.0277146
-0.0290562
-0.0172389
-0.0132484
-0.0106996
-0.0137825
-0.0166193
-0.0189559
-0.0248009
-0.0264551
-0.0292916
-0.0291574
-0.0278176
-0.0238049
-0.0194907
-0.0171536
-0.0178253
-0.0211589
-0.0259256
-0.0307109
-0.0348207
-0.0344919
-0.0101965
-0.0123984
-0.0096911
-0.00881948
-0.0102592
-0.0128317
-0.0165284
-0.0191942
-0.0222147
-0.0240195
-0.0255245
-0.0256277
-0.0252015
-0.024522
-0.0254015
-0.0286952
-0.0341357
-0.0402972
-0.0466258
-0.045774
-0.00260222
-0.00513978
-0.00733819
-0.0079049
-0.00954658
-0.0121599
-0.0155341
-0.0173845
-0.0186495
-0.018929
-0.0199718
-0.0211676
-0.0231052
-0.0258721
-0.0300325
-0.0354441
-0.041742
-0.0482912
-0.0552851
-0.0544808
-0.00131923
-0.00733675
-0.0132629
-0.0132329
-0.0132569
-0.0162822
-0.0210772
-0.0229883
-0.0224267
-0.0198703
-0.0178309
-0.0163247
-0.0166286
-0.0191541
-0.0235247
-0.0291401
-0.035468
-0.0416268
-0.0481828
-0.05184
-0.00237284
-0.00798655
-0.00844027
-0.00880538
-0.0142248
-0.0229241
-0.0323991
-0.0357112
-0.0332072
-0.0264609
-0.0211857
-0.0194292
-0.0212634
-0.0246231
-0.0278056
-0.0296739
-0.0302864
-0.0304592
-0.0312856
-0.0333844
-0.00170813
-0.00165838
-0.00383283
-0.00902159
-0.0194171
-0.0328973
-0.0456641
-0.0489562
-0.0389514
-0.0252216
-0.0178646
-0.0165695
-0.0184596
-0.0212063
-0.0236814
-0.025296
-0.0261386
-0.0263744
-0.0264804
-0.0272411
-0.0403847
-0.059087
-0.0629516
-0.0432647
-0.0235128
-0.0156161
-0.0149202
-0.016522
-0.0191632
-0.0207617
-0.0216079
-0.0195812
-0.0175862
-0.0162194
-0.0165407
-0.0177143
-0.0190967
-0.020242
-0.021241
-0.0217993
-0.0282218
-0.0261376
-0.0214795
-0.0143914
-0.0113492
-0.0114397
-0.0119764
-0.0128384
-0.0139089
-0.0140617
-0.0140141
-0.0135858
-0.0140208
-0.0142997
-0.01514
-0.0152094
-0.0155817
-0.0154614
-0.0157382
-0.0162422
-0.0247327
-0.0190549
-0.0180091
-0.0146455
-0.0112694
-0.00981034
-0.00963016
-0.00976783
-0.010305
-0.010781
-0.0116853
-0.0123842
-0.013635
-0.0141636
-0.015028
-0.0155951
-0.0165899
-0.0175624
-0.018936
-0.020416
-0.00431878
-0.0127573
-0.0143712
-0.0129114
-0.0114699
-0.010834
-0.0108715
-0.0113941
-0.0116056
-0.0123282
-0.0129564
-0.0137185
-0.0147196
-0.01567
-0.0170024
-0.0183164
-0.0197178
-0.020904
-0.0220893
-0.0233509
-0.0194615
-0.0113971
-0.0108979
-0.0114892
-0.0117585
-0.011872
-0.0127605
-0.0125125
-0.0124203
-0.0126413
-0.0130706
-0.0138698
-0.014809
-0.0159845
-0.0171236
-0.0182892
-0.0192822
-0.0201724
-0.0209487
-0.0218393
-0.00904853
-0.00874883
-0.00961597
-0.0121871
-0.0136006
-0.0152295
-0.0148336
-0.0152245
-0.0135688
-0.012732
-0.0122735
-0.0126068
-0.0129874
-0.0137882
-0.0144224
-0.0151838
-0.0159104
-0.0166827
-0.0174576
-0.0182964
-0.0084974
-0.00719849
-0.00887544
-0.0121704
-0.0160564
-0.0168557
-0.0174188
-0.0187607
-0.0162716
-0.0147229
-0.0128042
-0.0122199
-0.0116537
-0.0117921
-0.0120338
-0.0126131
-0.0134862
-0.0145981
-0.0157906
-0.0169678
-0.0132625
-0.0133932
-0.016879
-0.0203911
-0.0261969
-0.0224774
-0.0233848
-0.0238864
-0.0187894
-0.0151756
-0.0127046
-0.0111274
-0.00965442
-0.00865678
-0.00903886
-0.0101087
-0.0114896
-0.0131062
-0.0148298
-0.016545
-0.0131581
-0.0120089
-0.0186378
-0.0235004
-0.0310802
-0.0271653
-0.0276174
-0.0259967
-0.0169543
-0.0129796
-0.0123618
-0.0105031
-0.00851508
-0.00778881
-0.00774758
-0.0098609
-0.0112509
-0.0128746
-0.0146949
-0.0166013
-0.00719971
-0.00746503
-0.0142576
-0.0222424
-0.0303311
-0.0281498
-0.0264163
-0.0199568
-0.0109106
-0.00971862
-0.0113929
-0.0119222
-0.0108634
-0.00958919
-0.00834928
-0.0104573
-0.0119528
-0.0135576
-0.0152451
-0.0169069
-0.00350406
-0.00535263
-0.00870582
-0.0141109
-0.0229964
-0.0228985
-0.0239296
-0.0219097
-0.0158173
-0.0135286
-0.0146889
-0.013637
-0.0102575
-0.00835252
-0.00809373
-0.0113613
-0.01304
-0.0146545
-0.0161889
-0.0175919
-0.0118576
-0.00830279
-0.0085198
-0.0115697
-0.0199742
-0.0192361
-0.0191949
-0.0116854
-0.00816461
-0.0095661
-0.0104448
-0.00949408
-0.00822012
-0.00781356
-0.00892668
-0.0120766
-0.0136692
-0.0152368
-0.0167625
-0.0181961
-0.0115141
-0.0108933
-0.00995987
-0.0108522
-0.0146414
-0.0141079
-0.0139306
-0.00774117
-0.00611952
-0.0059782
-0.00647241
-0.00698608
-0.00761332
-0.00842699
-0.0107317
-0.012043
-0.0133924
-0.0148145
-0.0163914
-0.0180835
-0.00216556
-0.00607933
-0.00979386
-0.0116586
-0.0115369
-0.0121511
-0.0102057
-0.00936023
-0.00804852
-0.00797391
-0.00773845
-0.0081097
-0.00880682
-0.00990342
-0.0110992
-0.0122818
-0.0133628
-0.0144045
-0.0157085
-0.0172821
-0.0148337
-0.0124687
-0.0101998
-0.0100159
-0.0100794
-0.0107957
-0.0117228
-0.0114098
-0.0113667
-0.0105719
-0.0101264
-0.00992627
-0.0103505
-0.0114046
-0.0126352
-0.0137925
-0.0146444
-0.0152365
-0.0160411
-0.0166966
-0.00444319
-0.00652584
-0.00574493
-0.00723309
-0.00872708
-0.00983825
-0.01071
-0.0108478
-0.0110649
-0.0111159
-0.0115658
-0.0121299
-0.0130434
-0.0142175
-0.0154897
-0.0166587
-0.0175612
-0.0181141
-0.0188234
-0.0182474
-0.000971074
-0.00232844
-0.00475257
-0.00704578
-0.00892536
-0.0098833
-0.0104518
-0.0102778
-0.0103338
-0.0107279
-0.0118969
-0.0134099
-0.0152665
-0.0171557
-0.0188451
-0.0201594
-0.0211162
-0.0215727
-0.0220051
-0.020609
-0.00248836
-0.00885149
-0.0102631
-0.00917882
-0.0105611
-0.0118591
-0.0128093
-0.0121764
-0.0114192
-0.0111954
-0.0120621
-0.0136847
-0.0158374
-0.0179907
-0.019733
-0.0208182
-0.0214373
-0.0215635
-0.0220631
-0.0217159
-0.00688245
-0.00720696
-0.0065445
-0.00754872
-0.0115206
-0.0154583
-0.0182211
-0.0173501
-0.0154391
-0.0137585
-0.0139135
-0.0150423
-0.0162684
-0.0169023
-0.0170236
-0.0170385
-0.0173626
-0.0182415
-0.0197902
-0.0221369
-0.00471431
-0.00270657
-0.00339625
-0.00639071
-0.0128778
-0.0198979
-0.0247284
-0.0226239
-0.0169146
-0.0127603
-0.0119247
-0.0126946
-0.0137413
-0.014479
-0.0149938
-0.0156049
-0.0168047
-0.0189586
-0.0224604
-0.0275365
-0.0064164
-0.0311424
-0.0397021
-0.0293783
-0.0191871
-0.0137825
-0.0120141
-0.0111981
-0.0112749
-0.0111054
-0.0119985
-0.0121332
-0.0123787
-0.0122848
-0.012267
-0.0121224
-0.0121411
-0.0121755
-0.0126492
-0.013425
-0.078699
-0.0299619
-0.0187685
-0.0122418
-0.0100428
-0.00924079
-0.00935935
-0.00911022
-0.00955457
-0.0100535
-0.0110265
-0.0121885
-0.0136882
-0.0153746
-0.0171295
-0.0189395
-0.0205766
-0.0221831
-0.0234903
-0.0245276
-0.029511
-0.0212249
-0.0159938
-0.0112228
-0.00870789
-0.00800741
-0.0081423
-0.00860028
-0.00941338
-0.010307
-0.0114294
-0.0125845
-0.0137581
-0.0148567
-0.0157863
-0.0165836
-0.0171967
-0.0176948
-0.018096
-0.0184623
-0.0166244
-0.0114948
-0.012248
-0.00968108
-0.00820582
-0.0083085
-0.00872126
-0.00943432
-0.010141
-0.0109759
-0.0118121
-0.0126827
-0.0134844
-0.014261
-0.0149758
-0.0156661
-0.0163466
-0.0169948
-0.0176627
-0.0182993
-0.0195808
-0.00864104
-0.00923292
-0.00855829
-0.00799491
-0.00831866
-0.00872786
-0.00943344
-0.0100134
-0.0108081
-0.0115329
-0.0123297
-0.0130807
-0.013846
-0.0146413
-0.0154384
-0.0163044
-0.0171796
-0.018114
-0.018961
-0.0127359
-0.00895896
-0.00871473
-0.0087001
-0.00849071
-0.00898347
-0.00867236
-0.0095289
-0.00974899
-0.0105516
-0.0112035
-0.0120386
-0.0128238
-0.0136959
-0.0146066
-0.0156013
-0.0166563
-0.0177617
-0.0188544
-0.0197964
-0.00814499
-0.00638656
-0.00790914
-0.00893083
-0.00933636
-0.00935112
-0.00875992
-0.00968536
-0.0095775
-0.0102488
-0.0107813
-0.0116232
-0.0124332
-0.0133537
-0.0142569
-0.0153208
-0.0164043
-0.0175546
-0.0186174
-0.0195401
-0.0156943
-0.00967562
-0.00915291
-0.00961131
-0.00992055
-0.00980337
-0.00923831
-0.00995238
-0.00912418
-0.00928097
-0.00961889
-0.0101112
-0.0108666
-0.0114959
-0.0135807
-0.0144837
-0.0153839
-0.0163422
-0.0172299
-0.018003
-0.0132326
-0.0120366
-0.0107437
-0.00956785
-0.00951803
-0.010356
-0.00931984
-0.00833479
-0.00786041
-0.00760074
-0.00773998
-0.00800063
-0.00886069
-0.00977533
-0.0113196
-0.0133752
-0.0141195
-0.0148939
-0.0156485
-0.0163245
-0.0101109
-0.00982723
-0.0121725
-0.0113352
-0.0108822
-0.00994858
-0.00867424
-0.00736865
-0.00671189
-0.00655328
-0.00650314
-0.00702106
-0.00835317
-0.00981407
-0.0116785
-0.0131863
-0.0137688
-0.0143956
-0.0150818
-0.0157352
-0.00119953
-0.00475788
-0.00944499
-0.0104666
-0.0104754
-0.00932198
-0.00862524
-0.00772675
-0.00698525
-0.00679519
-0.00665014
-0.00696269
-0.00829844
-0.00982661
-0.0119878
-0.0137742
-0.0144132
-0.0150572
-0.0157903
-0.0164735
-0.00914566
-0.00635916
-0.00708848
-0.00761638
-0.00786072
-0.00714872
-0.00607439
-0.00546393
-0.0057155
-0.00593927
-0.00621006
-0.00704675
-0.00857726
-0.0102672
-0.0126936
-0.0154103
-0.0161929
-0.0169564
-0.0177426
-0.0183568
-0.00127187
-0.00618141
-0.00694946
-0.00687043
-0.00673978
-0.00603374
-0.00567732
-0.00565225
-0.00615237
-0.00688953
-0.00786141
-0.00902793
-0.0105343
-0.0121277
-0.0158351
-0.0171575
-0.0184281
-0.0196472
-0.0207577
-0.021602
-0.00113847
-0.0029342
-0.00691741
-0.0073505
-0.00616478
-0.00595917
-0.00574632
-0.00627286
-0.00707872
-0.00805303
-0.0092992
-0.0107372
-0.0124234
-0.0142226
-0.016089
-0.0179484
-0.0197662
-0.0215091
-0.0231034
-0.024487
-0.0253617
-0.0122026
-0.00907728
-0.00704539
-0.00611783
-0.0061022
-0.00629435
-0.00668008
-0.00733216
-0.00819262
-0.00930828
-0.0107413
-0.0124257
-0.0143271
-0.0163474
-0.0183987
-0.020396
-0.0222714
-0.0238948
-0.0253032
-0.00136752
-0.00380489
-0.00542431
-0.00646609
-0.00666375
-0.00675037
-0.00700406
-0.00752728
-0.00818387
-0.00905301
-0.0101071
-0.0113976
-0.0129417
-0.0147349
-0.0167221
-0.0188047
-0.0208569
-0.0227699
-0.0243548
-0.0256401
-9.36972e-05
-0.00119367
-0.00446725
-0.00647244
-0.00691004
-0.0070961
-0.0076143
-0.00831165
-0.00919487
-0.0101082
-0.0111457
-0.0122793
-0.0136324
-0.0151976
-0.0170341
-0.0190907
-0.0213116
-0.0235794
-0.0257232
-0.0276196
-0.00102504
-0.00606214
-0.00686276
-0.00706247
-0.00744378
-0.00748104
-0.00800757
-0.00862105
-0.00957693
-0.0106267
-0.01174
-0.0128023
-0.0139104
-0.015116
-0.0165157
-0.0181612
-0.0200357
-0.0221343
-0.0243374
-0.0265279
-0.00260672
-0.00551083
-0.00530501
-0.00679964
-0.00853148
-0.00924215
-0.00967666
-0.00951497
-0.0098324
-0.0104651
-0.0115599
-0.0128086
-0.0142721
-0.0158795
-0.0176578
-0.0195794
-0.0215736
-0.0236682
-0.0257372
-0.0277875
-0.00372652
-0.00241569
-0.00249342
-0.00446212
-0.00794284
-0.0103292
-0.0114043
-0.0103448
-0.00931101
-0.00889435
-0.00922056
-0.0101184
-0.0116539
-0.0139028
-0.016965
-0.0208431
-0.0253675
-0.0304208
-0.0357003
-0.0413019
-0.0231166
-0.0268673
-0.0265893
-0.0129801
-0.0139685
-0.016269
-0.0171319
-0.031936
-0.028072
-0.0332451
-0.0144166
-0.015195
-0.0177032
-0.01862
-0.0308072
-0.0237289
-0.0286499
-0.0174366
-0.0181583
-0.01402
-0.0154745
-0.035496
-0.0301094
-0.031888
-0.0185876
-0.0189172
-0.0156528
-0.0149906
-0.0920981
-0.10766
-0.118712
-0.088464
-0.0887024
-0.100685
-0.112589
-0.0914893
-0.120727
-0.121417
-0.0897938
-0.0900554
-0.115387
-0.113417
-0.0911182
-0.118841
-0.108786
-0.0894944
-0.0904084
-0.108156
-0.091053
-0.101152
-0.106913
-0.105792
-0.0909173
-0.0927089
-0.0852192
-0.072389
-0.118401
-0.106239
-0.109127
-0.0963135
-0.121452
-0.0732319
-0.0962118
-0.14899
-0.11087
-0.12272
-0.132024
-0.159428
-0.10773
-0.137942
-0.188354
-0.129582
-0.150591
-0.166146
-0.173176
-0.144596
-0.150512
-0.198796
-0.154696
-0.152395
-0.169232
-0.150629
-0.148752
-0.140987
-0.117694
-0.0981409
-0.104313
-0.108656
-0.112047
-0.0888106
-0.0938229
-0.125537
-0.109696
-0.118704
-0.114089
-0.117203
-0.0988047
-0.112511
-0.118867
-0.120176
-0.124551
-0.112676
-0.0887853
-0.114501
-0.106861
-0.110417
-0.125201
-0.122924
-0.0809096
-0.0671371
-0.100411
-0.0845934
-0.109546
-0.121467
-0.117876
-0.0681682
-0.0906121
-0.0838565
-0.0958171
-0.120248
-0.117372
-0.120141
-0.102165
-0.132716
-0.103117
-0.124763
-0.143268
-0.122672
-0.129304
-0.139293
-0.144721
-0.129709
-0.131964
-0.141721
-0.129757
-0.124581
-0.143309
-0.136202
-0.129379
-0.118347
-0.103287
-0.0893207
-0.116958
-0.0754276
-0.0904751
-0.0825416
-0.104396
-0.120059
-0.125049
-0.135709
-0.0976594
-0.11354
-0.11292
-0.127952
-0.121178
-0.135229
-0.128276
-0.115329
-0.113342
-0.127823
-0.119832
-0.123021
-0.125249
-0.118371
-0.110474
-0.100888
-0.117153
-0.114367
-0.120528
-0.117501
-0.118507
-0.0996378
-0.105899
-0.115015
-0.119352
-0.121437
-0.119435
-0.122096
-0.110807
-0.126214
-0.120954
-0.121894
-0.127397
-0.12267
-0.121488
-0.12944
-0.126676
-0.11961
-0.105318
-0.121585
-0.11959
-0.109525
-0.122702
-0.110605
-0.100831
-0.0961868
-0.123863
-0.11477
-0.141065
-0.0946667
-0.11264
-0.108384
-0.13621
-0.141532
-0.149596
-0.169271
-0.120621
-0.134348
-0.145704
-0.162138
-0.135049
-0.173792
-0.167476
-0.133512
-0.12069
-0.161899
-0.134862
-0.12058
-0.158988
-0.136163
-0.115444
-0.109055
-0.119762
-0.0991061
-0.115788
-0.1298
-0.115232
-0.109639
-0.112775
-0.0974744
-0.0946664
-0.118118
-0.111419
-0.104253
-0.113526
-0.111251
-0.09367
-0.0937244
-0.115764
-0.102415
-0.0981811
-0.108373
-0.0969007
-0.0946118
-0.100123
-0.103411
-0.0969844
-0.0986605
-0.0944112
-0.0946656
-0.102699
-0.112558
-0.0814229
-0.0873249
-0.0983746
-0.0664958
-0.0681168
-0.0759541
-0.0746303
-0.0820227
-0.0989583
-0.0862333
-0.0677688
-0.063626
-0.0715522
-0.0561784
-0.0760475
-0.0798018
-0.0622323
-0.0608053
-0.0471639
-0.050423
-0.0355397
-0.0586933
-0.0567504
-0.0484505
-0.0432149
-0.0437345
-0.0323776
-0.0328754
-0.0800777
-0.0508296
-0.0748682
-0.0464879
-0.0536311
-0.0357962
-0.0449098
-0.108891
-0.0859978
-0.109549
-0.0543753
-0.050633
-0.0465102
-0.04549
-0.0939271
-0.111252
-0.105427
-0.0475099
-0.038262
-0.0441278
-0.0418744
-0.0802802
-0.10352
-0.101194
-0.0360337
-0.0340345
-0.0418616
-0.0426342
-0.0953166
-0.0620647
-0.0783496
-0.0736643
-0.0735132
-0.057335
-0.0629825
-0.0874743
-0.085191
-0.0913871
-0.0710633
-0.0552571
-0.0633083
-0.0572812
-0.0571357
-0.0886342
-0.0698468
-0.048477
-0.0322272
-0.0539477
-0.0430263
-0.0455715
-0.063599
-0.0539628
-0.0294005
-0.0303836
-0.0402591
-0.0374656
-0.0714015
-0.0547702
-0.0703654
-0.0332132
-0.0425429
-0.0385004
-0.0436788
-0.106426
-0.0788172
-0.10007
-0.0444985
-0.0449924
-0.0452984
-0.0472521
-0.104024
-0.102669
-0.0984986
-0.044228
-0.0429094
-0.0466341
-0.0426362
-0.0985175
-0.0947618
-0.0813018
-0.0428053
-0.0422167
-0.0409628
-0.0365686
-0.0775722
-0.0635685
-0.0925256
-0.0504492
-0.0619625
-0.0579215
-0.0650421
-0.0910383
-0.0988041
-0.0921872
-0.061965
-0.0535152
-0.0610547
-0.0381338
-0.0753174
-0.0828067
-0.0614499
-0.0507047
-0.0445975
-0.0329884
-0.0295784
-0.0639314
-0.059641
-0.0678752
-0.0432574
-0.0420314
-0.0308176
-0.0364558
-0.0763539
-0.0728568
-0.0860418
-0.0425783
-0.0452912
-0.038281
-0.0415426
-0.0996325
-0.0886917
-0.0868945
-0.0465277
-0.0474478
-0.0416236
-0.0388461
-0.0928857
-0.0827783
-0.0669551
-0.0463564
-0.0406066
-0.0373409
-0.0333517
-0.0731385
-0.0629585
-0.0585302
-0.0386553
-0.0345184
-0.032425
-0.0304241
-0.0969727
-0.0768675
-0.0996788
-0.0638141
-0.0648068
-0.0650974
-0.0609227
-0.0899556
-0.101933
-0.0747397
-0.0592424
-0.0331812
-0.0526969
-0.0342988
-0.0483519
-0.0626946
-0.035
-0.0276859
-0.0236439
-0.030283
-0.0212341
-0.0516063
-0.0311519
-0.0308793
-0.0247322
-0.0301869
-0.0198056
-0.0212249
-0.0710246
-0.0323859
-0.0379671
-0.0319606
-0.0351682
-0.022155
-0.0242927
-0.0712734
-0.0400568
-0.0465608
-0.0353957
-0.0339685
-0.0248034
-0.025739
-0.0581773
-0.0483876
-0.0516647
-0.03316
-0.0310103
-0.0257435
-0.0250611
-0.0573077
-0.0516608
-0.0470896
-0.030466
-0.0289134
-0.0246193
-0.023071
-0.0595372
-0.0615188
-0.0609999
-0.0430504
-0.0375862
-0.043052
-0.0329879
-0.054541
-0.0571688
-0.0396501
-0.0349408
-0.0262699
-0.0290935
-0.0192154
-0.0357671
-0.0344394
-0.0236791
-0.023307
-0.0183984
-0.0170464
-0.0137589
-0.030604
-0.0221872
-0.0247801
-0.0179986
-0.018336
-0.0135732
-0.0143633
-0.0355144
-0.0271472
-0.0331277
-0.0181705
-0.0164993
-0.0146479
-0.0147295
-0.0307024
-0.0338074
-0.0323614
-0.0156043
-0.0129773
-0.0145285
-0.0136989
-0.0229135
-0.0316248
-0.0310209
-0.0121256
-0.0104782
-0.0134315
-0.0127873
-0.0232816
-0.0312369
-0.0320326
-0.010168
-0.00979737
-0.0126022
-0.012206
-0.0606821
-0.0496153
-0.0548856
-0.0407624
-0.0320559
-0.0380605
-0.0327573
-0.037891
-0.0547681
-0.0471076
-0.0283448
-0.0185021
-0.0308769
-0.0231436
-0.0210847
-0.0427017
-0.0297606
-0.0163622
-0.0131516
-0.0207458
-0.0165423
-0.0177829
-0.0202471
-0.0203915
-0.0176404
-0.0201981
-0.0177859
-0.0178692
-0.0219949
-0.0278984
-0.024836
-0.02083
-0.0273077
-0.0221254
-0.0205547
-0.0330975
-0.0344825
-0.0358012
-0.0152123
-0.0146918
-0.0185013
-0.0163767
-0.0324009
-0.0353425
-0.0317564
-0.0143915
-0.0133727
-0.0153566
-0.0125882
-0.0316797
-0.0301819
-0.0258905
-0.0130248
-0.0121668
-0.0118795
-0.0105168
-0.0537406
-0.0488423
-0.0530959
-0.0353022
-0.030475
-0.0333813
-0.0231647
-0.0442443
-0.048239
-0.0284819
-0.0285348
-0.0222276
-0.019506
-0.0130649
-0.0333664
-0.0247118
-0.0226001
-0.0204548
-0.0174142
-0.0125469
-0.0134144
-0.0260958
-0.0305162
-0.0330139
-0.0246375
-0.0333571
-0.0247495
-0.0256097
-0.0293195
-0.0329693
-0.0357575
-0.0275133
-0.0366219
-0.0289978
-0.0285152
-0.0364942
-0.0314612
-0.0277761
-0.0184198
-0.0155349
-0.0144301
-0.0123727
-0.0297625
-0.0262265
-0.0224776
-0.014465
-0.0118225
-0.0117274
-0.0103287
-0.0238506
-0.021647
-0.0197749
-0.0111954
-0.0100992
-0.0100611
-0.00983299
-0.0515214
-0.044899
-0.0418131
-0.0326766
-0.0210023
-0.0315697
-0.0177302
-0.0233476
-0.0340322
-0.0170183
-0.016899
-0.010499
-0.0136788
-0.00995855
-0.0166794
-0.0141586
-0.0103522
-0.0101457
-0.0113098
-0.00927364
-0.00830471
-0.0224707
-0.0104623
-0.012117
-0.01196
-0.0134001
-0.00838228
-0.00891411
-0.0258572
-0.0127463
-0.0146542
-0.0135669
-0.013119
-0.00900645
-0.00919991
-0.023757
-0.0151589
-0.0158478
-0.0127378
-0.0113761
-0.0092413
-0.0092908
-0.0208691
-0.0157396
-0.0147982
-0.0109606
-0.0100817
-0.00930337
-0.00946148
-0.0185138
-0.0143884
-0.0131149
-0.00993361
-0.00996055
-0.00961263
-0.0103308
-0.028152
-0.0278132
-0.023441
-0.0175952
-0.0118808
-0.0148939
-0.0103229
-0.0189484
-0.0205242
-0.0130662
-0.0107507