/*--------------------------------*- C++ -*----------------------------------*\
  =========                 |
  \\      /  F ield         | OpenFOAM: The Open Source CFD Toolbox
   \\    /   O peration     | Website:  https://openfoam.org
    \\  /    A nd           | Version:  10
     \\/     M anipulation  |
\*---------------------------------------------------------------------------*/
FoamFile
{
    format      ascii;
    class       volScalarField;
    location    "8.7";
    object      k_0;
}
// * * * * * * * * * * * * * * * * * * * * * * * * * * * * * * * * * * * * * //

dimensions      [0 2 -2 0 0 0 0];

internalField   nonuniform List<scalar> 
12920
(
1861.68
1206.51
1146.96
1061.33
954.185
872.04
811.931
667.845
422.153
250.703
184.494
171.279
168.299
162.827
149.713
131.192
111.78
88.5382
75.8589
63.7977
895.384
2321.11
1845.79
1510.06
1149.99
795.689
594.779
497.201
388.369
298.318
236.069
204.937
185.225
170.652
155.088
139.09
130.555
128.436
129.34
132.459
192.152
1181.34
1648.65
1718.23
1506.15
902.688
514.302
388.611
309.698
254.25
210.88
186.359
170.735
162.631
159.479
159.675
162.148
163.124
162.771
157.917
133.106
1506.06
2087.39
1982.26
1290.89
707.464
458.041
368.514
301.916
256.535
219.613
197.455
182.825
176.126
173.116
172.095
171.127
168.711
166.467
158.734
1366.18
1603.69
1641.79
1567.03
1092.89
699.487
482.116
392.467
318.632
269.194
228.418
210.566
199.475
194.033
189.352
185.05
181.528
175.742
172.055
161.936
771.715
726.738
797.167
1124.73
1115.22
889.198
600.861
449.99
334.208
265.416
219.694
202.55
192.213
187.706
183.218
178.813
175.099
168.464
164.886
155.734
2366.75
2493.34
1580.28
1228.72
976.992
826.365
578.155
418.294
306.9
245.01
211.033
194.961
183.094
175.916
168.601
163.149
158.794
152.463
149.47
141.86
3765.79
3507.42
2992.69
1935.42
1167.48
876.551
527.474
304.09
213.937
163.456
133.18
106.016
105.313
102.477
158.532
143.698
135.059
129.002
126.367
118.925
585.3
3465.91
3444.23
1851.84
988.368
584.564
387.037
211.219
131.746
106.781
95.7035
67.1196
60.6117
58.8124
92.9325
122.879
109.733
102.304
99.0327
90.6498
545.279
2455.08
2100.43
1136.61
824.851
473.927
269.933
159.309
100.812
136.114
137.212
99.3015
61.9846
51.7041
74.5214
94.0943
83.4085
77.1648
73.1223
72.1226
1731.61
2941.49
1622.39
876.144
677.806
408.821
235.181
139.527
140.839
157.587
138.365
63.2418
47.6363
40.1006
63.4763
76.4371
69.0907
67.5549
67.6488
69.3899
4529.69
2221.88
1412.86
700.427
530.007
278.379
190.758
128.206
147.013
160.88
155.772
114.627
51.2427
95.652
133.245
96.2981
78.737
74.253
71.4784
70.0429
1652.1
3717.22
2493.03
1032.68
631.048
509.823
277.349
186.02
178.274
194.037
218.679
228.452
186.311
160.901
163.438
102.609
81.9207
75.0927
72.9606
71.4967
1924.82
3621.57
3121.38
1736.56
950.166
634.819
404.116
282.216
217.525
167.972
172.837
173.82
167.658
134.834
107.134
94.6965
89.2941
87.5398
87.7814
86.1042
952.55
4012.59
3864.27
2820.43
1682.22
1038
568.111
368.647
246.959
185.419
153.747
141.399
134.657
126.775
124.237
125.962
129.883
130.723
130.528
123.891
6655.3
3824.22
2995
2192.24
1425.26
853.772
502.706
318.35
225.14
181.649
159.722
152.295
148.641
149.455
154.087
159.046
160.874
160.187
158.42
148.731
3184.87
2493.49
1942.45
1220.29
823.852
556.19
372.014
256.69
191.191
164.554
152.877
149.166
147.343
147.478
148.641
149.118
148.622
144.519
140.071
128.341
5817.21
3185.94
2350.63
1397.79
816.016
504.201
323.124
239.188
189.873
168.508
149.691
140.12
131.952
127.2
123.298
118.806
114.401
107.207
103.757
96.6113
1309.43
1150.21
1226.12
961.721
594.213
428.832
320.297
272.005
237.54
223.559
196.632
178.316
157.174
145.357
134.671
128.856
123.06
117.12
109.829
91.4389
47.3103
496.124
767.374
721.495
534.82
415.131
311.202
250.494
203.56
173.773
148.215
128.376
112.001
99.0504
88.7738
80.439
71.9856
62.5358
59.0143
53.1874
1152.98
1674.67
2149.52
1977.29
1507.23
1141
845.504
599.692
426.204
365.092
358.977
350.224
325.161
289.845
253.016
218.575
192.863
167.251
154.189
138.531
3492.22
3674.91
3363.38
3095.59
1984.64
1536.67
1166.81
1051.85
835.377
718.635
620.78
583.917
534.787
505.483
467.477
433.746
420.093
415.396
415.563
421.979
2920.74
3378.43
3863.9
3856.82
2822.38
1556.67
1030.91
917.826
768.487
682.389
587.871
548.05
513.437
504.217
503.659
508.069
508.643
502.937
495.672
476.099
578.785
3466.66
4831.2
4509.9
2783.82
1603.92
1065.63
930.982
784.497
693.461
607.046
562.429
529.597
520.571
514.079
512.005
508.079
500.14
492.848
470.4
6625.29
5335.32
4497.97
3850.43
2408.12
1610.04
1107.82
990.185
834.573
747.127
641.875
605.006
573.535
560.678
546.889
536.436
525.043
510.506
499.903
472.259
5504.88
3989.99
2966.04
3409.36
2946.64
2086.9
1353.79
1100.72
847.932
727.191
617.027
581.78
554.536
539.641
523.606
510.916
499.397
483.484
473.745
449.243
4786.23
6469.01
4090.88
3373.56
2423.29
1982.94
1340.58
1024.75
785.757
655.066
578.152
537.627
507.939
487.717
469.617
456.069
446.28
433.659
426.147
405.898
5551.34
6280.58
5381.63
4105.86
2604.75
2025.91
1476.84
1040.18
781.256
634.099
506.318
427.069
403.975
375.3
378.87
366.298
358.743
352.666
348.744
334.426
4030.13
6810.89
5067.19
3109.05
2054.58
1677.82
1365.71
1066.6
782.182
676.944
520.212
387.312
335.739
299.303
282.25
275.455
268.817
266.052
263.742
255.044
1645.05
4645.96
3892.84
2461.5
1889.29
1465.32
1230.64
996.96
769.114
721.386
607.477
421.598
305.274
233.823
205.613
202.76
199.847
200.476
202.457
209.972
3116.85
6875.84
3866.48
1998.95
1584.33
1314.11
1144.31
904.054
790.411
725.718
572.914
322.163
224.488
179.125
169.644
171.453
173.121
183.099
190.517
206.898
8803.86
6508.23
4185.34
1828.12
1415.72
1084.57
1056.18
827.445
760.14
732.23
651.609
431.405
299.685
397.746
322.459
211.47
198.064
199.048
200.537
204.357
1240.03
8247.57
6252.35
2628.38
1659.77
1273.69
958.424
846.147
739.486
709.316
718.409
669.341
607.163
582.395
362.212
244.36
214.403
209.505
208.842
208.2
2518.46
7652.54
6375.5
3696.62
2073.76
1512.03
985.826
715.481
561.959
452.81
455.673
451.916
423.024
342.834
282.892
257.768
249.498
246.998
247.143
241.971
1614.82
7616.53
6878.84
4931.09
2629.23
1894.38
1011.36
833.161
589.042
490.832
417.498
386.42
364.701
345.774
340.867
343.563
348.831
348.331
347.099
332.231
13486.8
7415.38
4968.88
3912
2293.08
1579.42
934.987
707.814
542.777
484.211
441.873
426.054
417.497
418.771
424.926
428.071
432.21
430.425
427.345
408.486
9740.78
6391.51
4491.46
2620.39
1726.51
1234.57
786.387
609.442
488.376
455.76
428.309
422.965
414.23
415.741
417.429
420.376
420.539
413.911
404.705
379.873
12169
8475.55
5901.87
3087.31
1891.71
1145.82
692.728
575.796
484.899
458.498
410.941
395.127
369.367
362.609
351.439
345.824
336.294
323.893
316.955
304.453
7261.36
5083.5
3477.82
2002.46
1288.9
902.812
641.75
608.992
571.794
553.304
491.658
452.198
404.098
383.661
360.424
349.021
334.749
326.831
318.15
287.487
259.532
1407.42
1911.78
1645.4
1104.42
825.459
663.295
559.177
472.816
405.038
341.007
294.112
255.14
227.106
201.955
180.157
162.924
145.465
137.111
124.268
1615.24
1959.56
2631.87
2273.14
1484.31
1018.59
728.486
558.115
471.155
438.949
412.467
378.71
338.669
296.409
256.798
223.934
198.667
178.082
165.426
157.587
3818.21
4286.33
4295.12
3234.02
1954.58
1625.47
1285.44
1191.91
1003.38
938.195
847.951
805.934
743.386
704.387
658.346
625.055
597.5
573.919
564.857
562.099
3251.91
5029.23
5477.74
4923.21
3030.07
1927.7
1419.33
1231.28
1043.1
951.615
857.077
818.217
777.362
760.544
740.856
724.512
702.849
678.058
663.187
631.466
12915.4
7641.54
7019.33
5809.78
3477.02
2190
1539.49
1279.37
1075.7
956.942
862.582
814.371
776.894
758.231
738.641
722.109
703.711
682.777
667.302
631.815
14080.6
8886.27
6917.66
4923.22
3017.65
2122.86
1566.55
1348.35
1132.71
1004.83
897.272
844.526
800.849
774.756
749.653
728.533
707.346
683.157
665.764
628.634
10212.5
9704.68
7335.34
5264.94
3261.44
2333.39
1667.31
1405.44
1150.61
1007.24
885.901
825.223
773.185
742.141
714.392
691.946
671.576
648.107
633.093
600.784
13844.9
7791.81
5493.83
3992.15
2824.48
2209.86
1619.81
1320.92
1085.7
934.256
813.24
744.772
690.761
660.192
634.527
615.155
599.442
581.851
570.403
544.355
4309.49
7240.24
5827.38
4305.91
2911.31
2272.16
1826.41
1353.24
1103.15
876.781
731.514
621.085
574.202
528.994
506.109
494.765
487.875
479.383
472.499
454.634
6470.55
6718.49
5253.64
3434.2
2514.4
2082.46
1823.81
1405.25
1106.11
907.517
682.563
540.21
465.113
414.706
382.839
365.567
366.368
367.212
366.895
363.732
12448.2
6812.45
4806.29
3049.97
2352.76
1914.15
1719.58
1372.29
1112.03
927.626
701.419
501.996
379.295
305.232
275.296
273.153
279.482
289.95
297.415
315.432
19451.4
9082.19
4935.17
2707.68
2022.2
1730.66
1622.4
1272.08
1075.08
925.991
560.596
328.34
256.778
234.561
225.694
242.729
253.405
274.519
286.227
311.284
22896.5
11052.7
6290.52
2812.09
1934.16
1545.25
1506.34
1186.56
1033.95
927.621
766.854
521.417
518.37
541.473
363.012
282.861
280.088
287.116
293.037
304.164
5756.22
11926.1
8406.27
3674.66
2248.9
1640.96
1367.01
1195.38
995.201
913.453
893.666
840.015
841.592
795.278
415.466
328.364
305.88
301.935
300.33
299.463
6525.22
10362.5
7494.28
4267.42
2571.08
1788.93
1247.35
926.884
736.24
601.123
585.891
565.299
519.386
442.99
383.483
358.439
348.94
341.448
336.866
323.737
5651.82
10139.5
7976.84
4741.48
2711.62
1874.52
1234.5
1017.38
769.546
663.499
576.907
535.152
501.573
478.407
469.889
463.026
457.857
445.096
435.381
404.728
30012.7
11293.7
6429.11
4226.74
2622.94
1771.47
1194.06
932.191
768.109
689.047
633.955
606.135
585.838
579.873
573.421
564.179
554.038
535.398
521.297
481.39
22025.8
10690.3
6149.98
3472.58
2353
1558.21
1099.24
870.961
742.523
684.944
640.601
622.74
601.924
594.551
582.149
570.291
555.38
533.784
518.594
480.737
24232.1
14622.1
7706.93
4160.54
2601.17
1580.71
1081.54
892.948
752.453
684.384
615.266
584.434
550.341
537.753
518.489
506.635
490.189
473.989
463.962
441.066
7209.93
6531.71
4623.59
2648.85
1819.4
1270.55
1007.4
926.93
805.552
743.278
641.879
594.306
537.181
514.351
485.889
472.124
456.201
446.55
437.124
412.293
1131.62
2170.04
2480.84
2146.18
1361.23
954.726
768.819
646.83
543.858
454.005
377.465
319.735
273.961
237.941
209.966
187.562
171.211
155.711
148.332
148.615
2313.5
3725.54
3759.54
2646.75
1435.3
902.626
655.264
545.688
492.347
454.856
414.405
365.377
317.604
271.554
235.42
208.074
190.094
178.47
173.746
172.955
7032.58
5924.46
5726.84
3211.38
2101.76
1692.17
1403.93
1328.19
1197.06
1155.61
1075.58
1010.99
939.22
881.074
828.877
788.688
756.908
730.467
719.397
702.501
11628.5
9395.91
8663.62
5860.29
3431.6
2318.37
1820.02
1533.78
1345.35
1226.84
1136.9
1079.37
1031.07
991.791
956.113
918.445
884.652
849.424
826.415
786.463
28620.6
11627.2
9924.84
6762.4
4150.38
2641.95
1982.49
1596.53
1377.52
1220.74
1128.24
1064.21
1021.81
984.684
953.388
919.563
890.759
857.721
833.067
790.466
19126.3
10013.3
8244.15
5334.43
3611.13
2548.63
2001.95
1650.75
1423.25
1250.3
1146.17
1073.65
1024.88
983.091
948.799
913.958
884.397
850.369
824.883
784.462
8447.39
8581.81
7759.39
5283.54
3650.57
2624.42
2041.76
1698.19
1432.42
1248.34
1122.06
1041.34
979.323
935.829
898.535
865.303
837.639
807.06
785.375
751.28
15004.4
8040.3
6528.42
4274.58
3322.2
2489.1
1931.62
1609.15
1339.19
1156.54
1011.96
928.905
864.475
826.569
794.582
769.675
749.59
727.056
710.172
683.127
12269.8
8193.73
6278.33
4349.38
3354.87
2635.7
2098.85
1587.33
1326.26
1039.53
894.765
767.475
712.844
660.085
635.517
624.707
617.239
606.157
595.487
579.038
12409.5
8052.53
5927.35
3845.38
3019.97
2470.06
2141.53
1588.09
1277.18
994.869
776.259
635.368
558.99
510.083
477.576
468.517
472.558
476.448
478.41
481.949
11793.4
8811.5
6000.92
3610.17
2831.66
2280.38
2045.78
1576.41
1254.34
972.35
702.313
527.27
417.548
371.507
356.24
369.341
377.612
395.517
409.034
436.143
16739.2
11296.6
6319.75
3353.09
2445.31
2028.74
1902.2
1486.06
1220.57
977.301
558.308
351.6
313.823
303.36
307.107
344.555
358.163
383.363
400.465
430.61
26090.2
16903.5
9589.31
3865.63
2442.02
1891.36
1813.93
1403.42
1184.17
1009.67
796.702
637.616
665.769
561.349
394.356
376.395
379.535
391.096
399.819
415.765
6615.89
16932.1
12390.6
4646.79
2808.6
1970.47
1637.58
1395.62
1127.56
1015.69
959.516
941.449
921.191
764.097
460.889
417.34
404.906
401.15
398.931
399.337
33460.9
16441.7
8590.19
4588.9
3020.34
1984.32
1485.93
1120.46
891.325
726.719
693.047
632.192
589.521
528.024
483.204
460.768
449.342
435.328
425.181
410.391
19729.2
13710.5
8521.45
4677.99
2974.01
1915.57
1478.35
1188.05
942.245
820.519
723.199
670.5
633.052
608.954
597.322
577.049
560.563
534.38
514.198
473.859
23774.7
10448.2
7330.71
4322.23
3007.51
1923.31
1467.8
1142.99
991.356
879.177
820.277
774.12
751.509
732.658
716.166
691.407
666.013
630.779
603.642
549.603
18374.4
12341.1
7430.69
4093.16
2873.28
1774.48
1388.63
1087.72
977.184
887.256
840.571
803.501
778.93
757.256
734.786
706.218
678.325
643.228
617.484
567.969
19432.3
15937.1
9784.01
4992.86
3223.54
1866.94
1421.87
1138.52
990.987
876.697
806.015
756.035
722.229
699.045
676.159
654.416
632.799
608.738
591.468
560.068
6703.17
6426.84
5305.75
2962.39
2224.75
1494.47
1312.33
1135.84
997.387
882.748
775.434
713.465
659.53
634.132
608.978
595.839
581.542
570.298
558.265
537.946
1292.45
2745.85
2679.39
1897.69
1291.34
946.374
767.726
626.757
518.096
418.042
344.351
286.001
245.862
215.015
194.048
177.454
165.522
159.322
160.573
167.733
2716.69
4565.92
4476.2
3034.32
1474.45
799.846
581.733
514.689
463.489
412.017
358.11
304.166
256.551
220.353
197.666
183.328
175.586
171.464
170.82
172.739
16808.2
8330.33
7214.35
3167.24
2804.55
1939.27
1983.18
1747.36
1763.28
1637.93
1582.46
1420.13
1355.85
1233.56
1193.16
1128.08
1104.65
1062.86
1047.8
1015.32
20194.6
12659.4
11095
5725.21
4329.56
2735.2
2577.36
2026.23
1956.25
1718.09
1681.34
1552.45
1514.92
1419.53
1382.45
1305.3
1270.73
1213.3
1183.91
1134.34
21147.2
14316.7
12680.1
6808.68
4997.15
2964.68
2702.39
2033.58
1942.54
1674.7
1640.18
1522.86
1493.63
1413.6
1380.02
1312.59
1280.9
1225.39
1192.63
1142.01
28160.7
11406.3
9939
5626.91
4604.5
2938.25
2724.82
2087.75
1985.87
1688.12
1643.39
1513.09
1481.29
1399.3
1364.31
1299.2
1266.23
1211.77
1179.01
1134.14
6314.06
9164.36
9011.9
5518.79
4754.13
3003.04
2778.3
2165.66
1970.2
1682.2
1588.54
1464.55
1404.82
1335.56
1288.65
1235.63
1202.2
1157.91
1128.72
1093.84
9605.1
9148.96
7754.28
4863.73
4323.47
2868.39
2520.55
2067.07
1812.85
1560.87
1427.56
1311.08
1250.07
1189.95
1152.4
1114.23
1091.05
1057.56
1033.08
1007.43
20296.3
9285.11
8191.24
4819.84
4545.69
3286.03
2586.12
1988.87
1708.09
1350.54
1207.23
1051.32
996.443
929.049
965.131
937.467
923.447
905.496
888.198
876.706
17351.6
8737.26
7405.92
4453.96
3883.18
3068.97
2701.07
1920.22
1579.31
1203.44
1001.84
853.016
792.901
745.492
735.889
753.669
744.468
746.491
749.618
762.296
10954.7
10738.2
7996.92
4386.66
3789
2813.87
2576.1
1951.08
1521.2
1082.91
770.856
609.703
597.647
608.061
614.33
642.836
639.756
655.763
678.359
715.819
17290.3
12816.3
8054.82
4075.83
3190.72
2401.86
2291.63
1859.41
1498.2
1057.01
675.381
463.022
478.508
543.495
571.142
625.036
624.519
645.884
671.267
709.159
23199.3
23901.2
13372.4
4880.74
3406.73
2343.8
2267.75
1763.17
1485.25
1198.9
945.339
831.07
834.235
689.385
617.904
651.929
640.524
646.665
659.963
682.557
33517.4
31884.8
17594
5563.09
4002.74
2576.52
2045.7
1624.96
1405.86
1243.58
1189.31
1138.25
999.338
778.409
715.479
674.595
659.558
649.592
645.83
647.908
24339.2
16455.5
10770.8
5030.88
4211.24
2362.37
2124.31
1542.19
1286.74
1024.33
995.589
867.484
853.943
786.582
760.325
716.994
703.077
672.327
656.119
641.472
23027.4
13199.3
10384.4
5148.93
4047.48
2248.3
2158.67
1577.17
1381.35
1152.12
1071.37
976.187
956.733
916.407
899.657
855.078
824.419
774.021
737.198
690.356
20660
11806.2
8995.35
4735.03
4164.57
2299.31
2191.3
1591.16
1523.45
1275.89
1250.54
1136.69
1133.21
1078.82
1059.6
995.034
955.639
885.651
840.528
773.406
19604.7
13399.8
9532.9
4901.25
4013.83
2127.24
2060.8
1472.39
1484.25
1275
1271.86
1172.24
1164.76
1105.19
1080.41
1013.35
975.732
908.881
868.909
808.198
17294.1
16684.6
12386.1
5800.27
4523.62
2231.78
2166.22
1584.29
1529.12
1261.91
1236.58
1111.73
1101.76
1037.75
1021.37
966.874
944.118
894.058
868.512
831.338
12241.2
8848.82
7099.47
3507.18
3123.57
1843.74
1973.38
1511.45
1475.05
1189.23
1132.45
984.763
970.463
914.499
906.789
874.388
864.607
838.982
829.146
818.256
5689
4679.38
2793.09
1733.92
1196.61
866.148
663.762
520.227
408.538
318.056
260.867
219.522
195.327
176.366
166.343
157.172
152.723
152.141
158.131
156.226
761.141
931.229
652.372
968.398
765.829
968.34
611.543
542.032
562.632
397.532
704.168
560.004
504.452
366.986
654.621
920.709
780.03
975.484
623.073
982.815
802.215
366.76
707.638
471.605
498.362
319.882
717.995
511.699
231.756
287.057
184.988
1041.49
946.446
1023.21
933.695
143.356
169.797
111.373
893.774
697.704
872.834
665.727
106.812
100.326
108.179
649.646
582.017
631.27
613.135
102.66
120.056
126.409
569.302
491.987
609.662
557.803
71.8269
124.823
108.074
449.108
349.204
530.712
424.901
60.4012
98.5527
65.6652
328.357
295.568
385.651
298.317
59.3126
62.5704
57.1882
288.56
266.54
280.563
234.902
45.3466
54.6963
40.224
259.607
252.943
223.354
202.655
172.291
256.005
153.235
993.724
911.027
956.302
831.682
105.051
138.358
129.16
843.55
653.579
774.731
683.908
124.262
131.987
153.647
630.797
630.114
676.141
661.214
139.803
155.818
147.495
627.714
576.993
648.862
577.474
112.114
140.904
84.4109
549.492
430.323
539.417
355.402
65.0158
70.2476
55.6668
383.827
291.159
310.201
239.149
54.6022
51.2201
41.1721
271.588
220.462
217.671
166.585
39.2785
39.592
28.4686
207.554
191.278
158.089
142.452
149.217
202.051
131.175
939.807
817.85
895.934
767.231
136.745
129.515
142.699
767.271
690.825
721.815
675.663
156.941
150.31
162.11
682.865
661.28
674.095
663.488
145.349
162.616
155.771
646.88
566.82
654.342
595.751
77.6549
149.521
107.912
525.598
329.381
564.786
388.851
50.9427
78.2409
47.52
284.378
220.008
312.749
225.427
40.944
49.2046
66.7181
201.707
165.01
225.226
270.342
29.2853
71.9095
64.8829
159.769
148.543
280.689
263.813
130.383
221.354
115.316
868.628
744.079
716.366
662.205
139.585
99.2993
102.533
699.162
660.728
635.956
627.961
159.597
106.726
117.062
661.138
658.197
619.108
599.506
159.35
124.745
148.857
652.698
614.512
603.665
624.722
137.38
152.936
157.377
592.658
476.385
625.413
599.946
50.341
156.753
123.633
391.42
245.706
585.748
442.155
89.9999
87.7054
65.5424
249.634
335.057
397.667
393.821
80.2083
82.7461
102.562
350.263
315.12
427.524
471.179
1148.49
1276.11
1106.26
1740.07
1462.58
1656.6
1429.41
835.05
1028.81
810.023
1347.22
1104.21
1327.86
1103.43
698.794
771.572
723.432
1046.95
918.608
1055.23
933.023
567.414
707.687
626.937
870.563
702.874
889.621
738.757
410.665
591.309
465.471
652.533
537.203
683.888
534.615
345.528
424.133
337.285
510.211
453.13
496.824
410.08
307.369
316.59
264.762
438.634
399.815
385.538
328.427
284.752
252.3
225.422
389.796
374.544
315.661
290.824
1077.39
1169.52
981.06
1618.44
1403.83
1535.94
1297.36
797.4
916.484
805.201
1303.64
1095.15
1219.26
1066.79
735.928
789.943
750.372
1052.6
938.62
1032.56
926.669
643.101
730.756
636.291
896.321
748.064
894.355
695.722
468.708
588.608
394.741
692.109
530.815
618.026
422.36
328.049
348.835
268.345
489.137
393.779
385.934
308.046
247.541
243.444
185.713
366.631
303.667
279.123
221.356
212.282
176.719
156.808
290.214
272.847
214.244
201.389
963.255
1098.14
909.864
1522.07
1277.17
1472.72
1221.13
805.618
852.965
780.938
1200.54
1054.9
1142.86
1014.99
746.855
772.937
746.083
1021.56
917.117
990.226
916.091
624.016
731.911
657.225
886.259
685.041
887.28
762.57
367.998
618.607
426.401
602.357
390.584
698.678
470.894
246.262
354.024
260.714
350.91
271.615
407.129
351.501
183.986
260.245
313.019
251.156
223.589
370.847
424.853
162.706
320.779
285.92
221.189
206.188
419.426
337.748
881.771
973.809
820.412
1406.11
1187.78
1314.14
1141.33
765.482
782.356
760.409
1115.03
1002.19
1092.32
1027.5
742.058
738.21
695.953
980.634
916.489
981.73
890.902
679.373
695.622
702.056
892.848
796.072
878.337
854.916
512.656
699.771
659.784
750.455
568.874
843.586
775.574
295.874
640.944
504.641
502.074
438.031
750.902
689.615
386.137
472.571
484.142
458.876
521.375
690.02
714.721
339.82
510.7
519.284
515.581
393.604
713.925
625.189
1523.92
1752.1
1498.46
2050.8
1665.99
1994.52
1658.5
1165.19
1392.6
1166.44
1541.97
1304.54
1540.25
1293.66
962.197
1114.08
972.183
1237.74
1044.59
1227.09
1033.54
732.151
921.866
754.181
975.704
798.525
966.572
769.325
567.817
696.311
548.832
753.36
641.517
711.222
577.583
480.376
512.353
425.568
612.722
550.494
543.598
460.168
424.88
400.874
344.923
534.936
494.71
437.911
392.666
397.77
332.658
307.283
484.741
469.482
383.213
363.645
1475.74
1630.94
1372.72
1959.45
1641.96
1846.17
1547.85
1159.65
1291.32
1127.35
1528.21
1290.14
1457.4
1258
976.84
1087.62
963.028
1226.08
1035.29
1202.11
1026.91
893.629
875.341
929.451
948.709
878.844
890.415
950.369
636.879
642.704
697.812
705.335
635.311
646.974
699.231
406.561
371.746
310.939
523.348
431.895
364.243
323.107
317.89
283.413
231.68
407.426
359.995
302.973
273.846
287.955
225.655
213.152
351.342
341.388
271.194
266.613
1352.65
1575.82
1296.82
1835.94
1526.91
1799.97
1473.31
1113.68
1214.02
1072.26
1437
1243.29
1379.6
1202.28
953.281
1042.61
954.058
1189.57
1022.12
1159.17
1029.36
877.168
853.862
914.826
943.962
862.269
792.375
941.285
390.715
479.41
570.035
414.606
482.607
347.653
480.882
271.209
411.937
390.951
312.789
305.184
492.157
520.814
236.735
421.082
454.302
297.317
284.856
531.763
502.487
216.906
441.267
345.466
281.807
267.794
469.06
369.594
1263.57
1421.36
1221.09
1734.24
1443.46
1647.83
1401.01
1060.58
1170.16
1092.78
1354
1191.54
1337.96
1218.88
955.673
1037.9
934.513
1151.51
1034.88
1151.33
1022.7
817.58
918.746
888.114
994.229
850.216
999.9
951.96
580.177
873.311
801.343
790.933
629.269
930.726
865.624
490.053
778.794
744.949
607.641
631.75
857.092
873.713
556.089
750.045
766.988
643.787
606.038
878.924
842.654
399.447
759.627
624.665
562.252
411.912
795.658
579.98
1713.47
2086.18
1710.6
2520.17
1936.63
2467.38
1959.04
1347.69
1586.66
1327.35
1802.2
1547.18
1811.97
1498.49
1066.59
1255.42
1044.58
1463.49
1190.76
1407.24
1124.79
820.132
972.782
770.803
1110.59
944.647
1033.94
813.494
664.41
714.088
584.841
903.278
784.863
758.958
636.151
574.232
551.508
471.505
755.653
701.42
606.72
556.616
519.778
451.284
412.129
688.308
650.839
548.885
533.195
493.632
404.004
384.107
641.274
620.464
528.268
508.967
1694.92
1916.49
1600.73
2393.61
1945.52
2194.53
1842.35
1324.36
1507.02
1294.2
1806.84
1498.16
1738.35
1476.38
1044.61
1232.18
1036.63
1404.51
1112.79
1386.39
1095.08
762.711
970.633
670.326
1018.34
783.368
996.9
722.888
563.091
573.224
412.655
724.31
591.877
642.346
474.394
439.486
391.309
331.244
559.707
506.06
438.866
387.17
378.283
314.187
294.687
501.807
497.886
390.435
422.685
362.029
293.872
289.565
495.845
487.22
427.524
425.904
1578.5
1872.26
1525.3
2151.58
1812.5
2132.86
1756.86
1279.93
1428.36
1239.77
1713.14
1464.48
1651.13
1427.99
1033.3
1192.16
1047.28
1378.42
1097.43
1364
1148.45
671.505
995.529
804.952
1004.07
724.408
1072.53
849.027
369.74
722.996
539.312
635.713
457.199
776.822
637.543
321.531
525.745
547.506
425.07
390.376
624.798
632.889
305.646
552.673
509.102
396.49
429.56
633.341
577.68
289.608
475.383
379.174
431.632
424.267
548.588
476.69
1497.18
1735.76
1454.52
2103.25
1731.99
2032.32
1651.18
1228.28
1385.49
1251.49
1623.95
1410.38
1557.38
1383.23
1054.89
1179.95
1046.74
1354.95
1171.67
1317.85
1183.45
855.995
1021.76
968.861
1105.49
919.959
1149.57
1075.05
651.065
945.531
886.273
863.677
754.235
1053.74
1007.35
660.455
882.012
899.756
745.992
752.685
1002.32
974.484
607.178
899.153
837.105
747.384
649.785
949.346
815.681
417.248
779.28
561.457
606.5
500.016
745.613
572.038
2056.4
2653.87
2104.71
3370.01
2643.82
3432.44
2870.92
1665.76
1950.84
1620.55
2471.76
2297.67
2703.26
2354.7
1285.93
1523.2
1207.51
2205.14
1896.88
2248.85
1829.73
1041.71
1107.46
875.265
1789.44
1709.89
1708.94
1483.3
880.901
820.167
697.604
1677.06
1580.87
1440.5
1358.1
803.718
671.906
650.119
1550.77
1546.73
1363.38
1459.78
754.429
651.301
644.06
1537.94
1499.9
1471.1
1453.48
714.131
639.508
610.284
1487.94
1451.39
1449.84
1450.77
2095.17
2346.01
1990.81
3384.33
2909.3
3093.9
2874.78
1624.07
1885.62
1608.09
2756.42
2401.16
2775.39
2461.38
1188.57
1504
1161.55
2266.36
1803.67
2297.2
1777.39
831.309
1048.02
757.277
1669.69
1407.85
1619.33
1292.43
637.823
677.433
504.907
1355.5
1261.63
1219.45
1063.96
587.126
470.448
448.434
1267.82
1395.2
1069.57
1237.12
609.158
471.495
536.207
1433.04
1431.44
1316.63
1371.04
587.577
541.906
527.998
1427.2
1408.44
1370.74
1374.76
1958.21
2281.25
1901.2
3037.65
2849.23
3110.25
2808.14
1597.65
1794.23
1563.9
2759.48
2470.14
2699.48
2478.58
1166.5
1493.39
1241.59
2311.48
1802.26
2379.97
1983.28
761.459
1153.16
913.147
1647.63
1315.77
1860.96
1619.05
494.719
842.948
708.689
1235.91
1062.64
1566.1
1436.44
452.241
695.679
712.337
1067.36
1233.7
1425.93
1479.45
540.388
718.009
666.943
1313.85
1364.9
1490.46
1416.39
525.395
640.09
567.341
1363.83
1350
1401.92
1402.12
1874.56
2195.9
1757.89
3245.82
2756.89
3019.72
2324.97
1542.02
1655.49
1481.36
2633.45
2437.43
2218.73
2202.23
1274.83
1425.02
1294.92
2387.01
2055.84
2212.02
2042.57
1000.06
1256.14
1177.73
1952.51
1765.89
1994.82
2001.73
839.722
1160.91
1116.02
1730.64
1625.6
2021.81
1926.65
840.463
1105.74
1049.98
1612.89
1616.84
1891.78
1777.81
730.113
1016.79
864.634
1589.15
1452.14
1729.65
1497.16
587.843
796.323
634.706
1429.37
1405.34
1452.62
1417.15
830.595
819.544
760.515
767.074
821.31
829.514
764.742
894.723
926.572
862.178
947.293
880.25
948.564
816.276
820.138
744.745
759.582
533.904
814.597
742.629
650.304
899.587
961.515
899.851
968.84
897.773
962.753
899.778
832.518
767.906
831.974
758.644
832.885
763.308
829.475
897.833
957.564
968.966
874.807
962.455
810.724
897.9
819.107
513.289
731.981
751.625
736.12
636.217
816.647
580.905
588.919
527.465
550.145
577.32
595.083
533.101
603.732
674.59
484.201
453.883
607.63
669.415
393.244
539.266
493.643
428.412
350.727
542.573
493.138
359.98
635.734
705.727
649.143
692.302
648.815
696.72
633.254
582.596
555.929
601.592
538.108
599.129
536.432
582.684
596.575
431.05
656.131
428.128
661.102
371.24
591.773
538.148
333.198
496.725
386.246
493.574
341.654
539.648
757.981
756.897
672.561
512.549
778.13
640.277
609.146
894.658
914.291
884.168
947.11
872.54
940.356
906.658
827.618
730.478
838.828
791.424
813.424
731.137
856.63
893.592
959.262
893.272
969.597
809.398
959.718
906.064
762.678
488.634
768.321
656.852
640.86
596.288
797.448
910.481
967.396
973.076
933.934
959.782
922.921
919.608
838.218
798.248
739.989
875.595
733.236
868.55
845.218
318.28
406.324
352.637
287.677
405.876
288.046
282.506
506.899
630.963
627.404
711.729
534.588
614.689
626.412
417.783
384.46
546.93
473.512
450.313
348.462
545.491
349.991
370.991
405.018
525.373
291.221
452.907
422.137
280.929
249.679
341.066
321.396
241.127
262.704
351.429
496.513
714.427
621.035
634.046
609.639
627.691
513.4
408.907
486.996
383.392
562.152
346.845
549.367
432.03
383.992
524.66
386.095
819.43
781.611
806.493
779.341
247.446
302.085
245.897
670.611
554.087
722.013
631.131
183.504
206.4
183.842
461.975
418.749
538.752
498.156
146.748
170.592
153.507
380.548
333.421
474.664
421.472
114.992
131.583
112.244
302.633
278.693
347.189
300.546
105.173
100.15
97.5483
272.242
268.853
271.17
264.024
104.005
97.1418
95.8907
268.061
266.562
261.269
255.843
89.9811
93.7346
77.2982
258.252
276.361
244.944
259.511
503.138
491.017
422.053
959.641
928.328
902.259
925.594
458.246
317.338
346.832
494.351
468.033
485.725
282.619
395.911
184.789
180.567
392.571
370.447
409.607
165.266
265.621
116.887
108.693
279.343
255.532
278.309
99.6393
283.368
106.587
99.0998
246.004
246.026
277.142
102.703
240.601
86.5846
99.4054
203.565
184.704
257.183
92.5808
184.082
62.8642
74.9463
149.338
147.185
197.316
69.6463
158.783
60.6461
61.0976
146.452
147.495
159.864
61.0683
145.535
57.6085
58.5063
142.193
140.603
148.91
56.7042
81.0392
86.4892
66.4068
208.017
219.495
186.005
195.056
400.646
467.18
396.989
849.117
891.49
854.232
899.846
415.263
223.641
263.2
417.127
429.812
412.425
211.957
338.717
141.365
143.072
409.533
370.23
378.723
125.022
315.26
101.585
104.999
282.326
288.925
298.366
108.935
386.813
140.374
146.84
365.087
369.773
385.118
149.437
338.173
130.773
142.456
353.655
333.286
361.341
134
197.937
84.3814
93.4459
250.494
213.106
233.876
78.7491
144.771
60.1123
60.6484
159.077
152.609
153.689
57.746
111.534
49.0599
47.7709
128.277
122.862
117.432
45.1533
61.4447
62.5344
47.2195
157.749
171.864
130.723
138.073
364.056
350.879
311.16
785.639
876.23
717.075
829.517
397.89
189.149
224.391
404.04
411.544
383.492
177.678
383.263
135.951
134.084
394.737
386.223
385.989
133.914
404.783
148.446
146.359
388.963
398.225
397.191
152.6
401.316
156.842
158.707
404.929
399.498
407.749
157.764
307.521
124.336
139.846
344.113
305.584
348.221
125.281
124.922
56.826
60.6828
153.979
140.194
142.43
52.116
114.552
44.9248
46.8542
118.081
112.212
117.628
45.3457
109.636
39.0897
44.2157
98.7149
96.6879
109.623
44.4463
44.2854
86.6157
58.3019
126.776
129.467
169.125
148.097
271.69
293.085
272.694
605.339
750.181
604.787
599.614
320.952
161.094
186.794
360.038
379.927
322.549
155.351
320.221
129.047
115.677
359.706
362.143
306.877
117.351
374.838
152.867
136.121
391.217
400.087
364.806
141.606
399.845
161.032
153.158
410.481
409.736
396.041
155.805
389.873
151.286
157.237
389.506
375.836
397.234
155.758
264.982
79.6506
141.293
256.825
166.238
338.488
120.171
145.831
60.6848
55.3265
125.942
156.68
126.35
59.0168
283.313
97.0046
114.238
229.66
233.252
270.951
120.76
76.5244
171.743
96.9065
260.154
192.069
350.882
250.073
206.227
293.023
207.765
512.752
541.936
534.692
587.374
181.185
195.276
181.655
554.897
547.809
562.424
456.941
181.468
161.448
154.43
518.221
515.346
407.065
419.85
206.075
158.756
163.467
523.844
545.52
455.249
459.881
227.637
168.307
174.522
552.837
549.652
471.755
485.021
220.849
181.112
181.353
535.019