/*--------------------------------*- C++ -*----------------------------------*\
  =========                 |
  \\      /  F ield         | OpenFOAM: The Open Source CFD Toolbox
   \\    /   O peration     | Website:  https://openfoam.org
    \\  /    A nd           | Version:  10
     \\/     M anipulation  |
\*---------------------------------------------------------------------------*/
FoamFile
{
    format      ascii;
    class       volScalarField;
    location    "8.7";
    object      nut;
}
// * * * * * * * * * * * * * * * * * * * * * * * * * * * * * * * * * * * * * //

dimensions      [0 2 -1 0 0 0 0];

internalField   nonuniform List<scalar> 
12920
(
2.60924
4.35336
4.81794
7.27282
4.15504
3.55801
2.7087
2.30069
1.58216
1.13407
0.861967
0.822685
0.796278
0.774464
0.707982
0.62568
0.533229
0.425375
0.362791
0.313128
1.29641
10.4442
9.18882
8.69438
6.12624
5.00524
3.0993
2.7759
2.0916
1.73031
1.36342
1.20206
1.06294
0.976936
0.880103
0.805488
0.772254
0.784375
0.784135
0.809518
0.324083
5.21899
6.14199
8.88685
6.54197
5.37731
3.43514
3.46845
2.46715
2.03087
1.54265
1.32397
1.14387
1.06913
1.02175
1.02556
1.04647
1.07207
1.0573
1.03441
0.340057
8.64823
9.77143
9.92294
7.70646
6.0106
3.5258
3.53111
2.66276
2.37696
1.85535
1.63462
1.42583
1.34611
1.27218
1.24625
1.21835
1.18908
1.14545
1.09305
4.33713
8.88074
8.9672
8.79842
6.88932
5.95714
3.60173
3.44471
2.50663
2.23075
1.77037
1.65319
1.5126
1.47485
1.40025
1.36084
1.31428
1.26031
1.20689
1.13866
1.64678
2.07982
2.25036
5.50568
5.41943
6.27634
3.83335
3.21923
2.30358
1.92884
1.60037
1.56272
1.49276
1.47467
1.42325
1.37767
1.32744
1.25755
1.19955
1.12551
3.86093
11.2053
9.03461
7.9005
6.22426
6.45094
4.35947
3.56459
2.37132
2.0159
1.69388
1.64808
1.51267
1.4685
1.37597
1.32036
1.25462
1.17534
1.11999
1.0481
7.22914
13.1412
10.3585
9.90996
5.48923
5.85758
1.41661
1.01246
0.729527
0.581318
0.495211
0.442716
0.444922
0.437235
1.39573
1.23685
1.13896
1.05228
0.994478
0.914874
1.24475
12.7222
12.9089
9.80306
6.75842
2.23163
0.585095
0.329949
0.208596
0.164857
0.156526
0.123554
0.122075
0.124002
0.397934
1.07965
0.95198
0.861666
0.80729
0.722496
1.44269
11.0253
10.2322
7.57456
5.65225
1.92815
0.442592
0.229863
0.147425
0.208029
0.20957
0.154866
0.115982
0.106106
0.311358
0.79463
0.706803
0.643747
0.598094
0.579239
6.3623
10.1228
8.34555
6.63058
4.8829
1.92229
0.413831
0.231566
0.229547
0.254639
0.217288
0.110861
0.0962606
0.0855372
0.251434
0.60548
0.557324
0.541401
0.535364
0.540886
10.0827
5.53766
5.44813
5.95014
3.46203
1.60056
0.309397
0.205714
0.240688
0.249715
0.228467
0.162956
0.0885751
0.175334
0.467893
0.712304
0.613772
0.582385
0.557404
0.546162
3.86738
13.6008
8.70237
7.34078
2.84426
3.00912
0.795602
0.758156
0.591087
0.651647
0.649819
0.639651
0.468337
0.386203
1.02013
0.732089
0.623263
0.58676
0.571032
0.566628
5.89511
13.4115
11.6729
9.45793
4.41349
4.10232
2.56033
2.02356
1.62505
1.37013
1.32672
1.35982
1.20211
1.00841
0.806151
0.750052
0.697905
0.688354
0.675149
0.664334
1.21217
11.3155
10.6772
10.4088
5.63429
4.7038
2.56959
2.06448
1.45584
1.29788
1.13178
1.1599
1.07783
1.02302
0.95779
0.957396
0.93642
0.926181
0.891628
0.85235
11.283
13.9142
10.0137
10.465
5.32135
4.19735
2.32344
1.8108
1.26913
1.19381
1.05003
1.09671
1.03903
1.06365
1.04164
1.06204
1.02068
1.0014
0.961594
0.908922
9.29231
11.2051
6.84618
6.3231
3.24615
3.08968
1.7524
1.53438
1.05102
1.02899
0.91867
0.944805
0.90677
0.9179
0.898994
0.900286
0.877395
0.850453
0.812929
0.756568
11.711
12.8672
6.89258
6.86625
3.02211
2.57447
1.44031
1.30705
0.978317
0.979915
0.844791
0.840565
0.773584
0.764036
0.726789
0.705454
0.673038
0.631188
0.604142
0.573199
5.09363
3.83807
3.7318
4.78177
2.24166
2.14726
1.35876
1.38484
1.13589
1.19708
1.03438
1.00219
0.878802
0.840909
0.775456
0.751852
0.715671
0.675903
0.617391
0.517026
0.0382219
0.831749
1.68918
2.47904
1.65145
1.60889
1.12006
1.0284
0.805581
0.734635
0.616588
0.551289
0.476468
0.427082
0.379424
0.345363
0.306384
0.266372
0.252591
0.235982
1.61633
13.2566
19.2192
24.8748
16.8319
11.3448
7.01594
5.04194
4.26261
4.69355
4.86996
4.9439
4.51885
4.02429
3.48805
3.02867
2.65799
2.28007
2.08347
1.90798
9.91795
16.8958
30.7987
31.5457
22.3031
18.3445
15.0446
15.1818
14.3559
14.8607
14.9763
15.2151
14.5002
14.0016
13.2158
12.8008
13.3273
14.2823
14.9511
15.1648
18.8951
26.9085
32.756
35.3121
30.055
20.4995
17.118
18.3728
17.9814
17.9179
16.7069
16.0768
15.2379
15.0225
15.1558
15.7129
16.3777
16.8747
16.9833
16.5058
1.17735
20.9436
35.9617
41.188
34.3718
24.0377
19.0098
20.2861
20.4703
20.2852
18.8893
18.0819
17.3424
17.2623
17.1348
17.2104
17.2293
17.2472
17.1323
16.6295
16.7192
26.9317
30.1777
36.8766
30.3741
23.5765
18.8456
19.9059
19.2989
19.4444
17.9631
18.0946
18.0203
18.2398
18.1353
18.0581
17.8348
17.5994
17.3697
16.752
28.1528
34.1391
25.33
29.4607
32.7311
29.351
22.8544
20.7213
17.7905
16.8563
16.0722
17.0392
17.8603
18.2749
18.1079
17.8664
17.5615
17.1994
16.9644
16.372
6.35471
32.5745
38.4797
35.9473
31.437
29.349
24.0368
20.2281
17.2306
15.642
15.7738
16.5004
17.2159
17.3353
17.0851
16.817
16.5424
16.2391
16.0405
15.4764
32.5867
42.3754
39.7592
35.8791
31.9432
30.9901
22.3525
17.5818
15.0166
13.023
12.3512
12.8644
13.8668
13.9958
15.7495
15.1524
14.8531
14.6549
14.5125
14.0076
10.5779
35.0169
34.9712
33.2114
30.1213
25.0388
19.586
16.4533
13.7937
13.3557
11.6864
10.6414
11.6714
12.0251
12.584
13.1364
12.6677
12.5345
12.4423
12.1622
4.06198
31.5385
37.8544
32.6887
31.4371
24.0479
19.5393
16.7757
14.2756
16.4604
14.5452
10.0516
10.4035
9.90935
9.81269
10.4501
10.4242
10.6155
10.8239
11.1862
14.7855
49.5807
47.7304
30.7487
29.1746
23.1718
20.0289
17.819
18.0707
18.8056
14.4967
8.55475
7.74301
6.71067
7.04012
8.6699
9.27087
9.9384
10.3383
10.997
23.487
49.5965
50.6315
31.5311
28.2308
21.2014
18.7161
16.5786
18.1231
18.8872
17.3262
10.9249
8.09032
11.9293
9.58619
9.65529
10.1674
10.4252
10.4658
10.5983
3.65683
52.1488
55.8287
38.9742
30.6159
26.0512
18.2604
17.2227
16.4667
17.6155
17.9875
17.1878
15.0028
13.8846
9.45606
9.5888
10.2162
10.6723
10.8886
11.0098
8.78994
50.6517
53.2018
44.3726
32.0338
26.0352
21.3165
17.9195
16.4654
14.694
14.665
13.6925
12.3592
10.6834
11.1526
11.9078
12.0816
12.1103
12.0969
11.8575
7.56741
48.4257
53.8425
45.9271
28.4154
22.9421
16.622
17.3207
15.1597
15.1791
14.5807
14.452
14.0482
13.994
14.354
14.548
14.5034
14.1261
13.7877
13.2207
22.2392
45.4588
38.3272
35.1048
24.7915
21.3352
16.1234
15.6319
14.725
15.2183
15.2023
15.3586
15.5075
15.7218
15.8893
15.792
15.5163
15.156
14.7854
14.1124
15.6858
44.8089
41.6547
29.7676
24.7291
21.2685
15.9876
14.9942
14.003
14.5352
14.4086
14.6403
14.4039
14.5791
14.6166
14.7596
14.7154
14.4135
13.9759
13.1494
25.8305
50.6017
51.0973
36.5808
29.2115
20.1511
14.0784
13.8165
13.6225
14.5892
14.1244
14.266
13.5419
13.4758
13.0957
12.9891
12.7009
12.2986
12.0376
11.6663
31.5031
28.8277
34.3976
25.8311
20.3339
15.4991
12.2626
13.2743
14.5482
15.7635
15.6752
15.3557
14.6391
14.3931
13.9754
13.7934
13.4173
13.134
12.6919
11.2542
0.327426
5.29207
13.0754
17.3527
10.0784
9.99763
6.97374
6.83915
5.42808
5.08309
4.20204
3.79819
3.25581
2.94934
2.59016
2.3101
2.05448
1.83791
1.75729
1.64166
3.69935
24.9447
22.4219
26.711
21.6682
17.9653
11.1104
8.67629
7.04665
6.87845
6.46102
6.07603
5.36035
4.7226
4.06681
3.55041
3.11038
2.77942
2.60078
2.61273
18.1411
28.4023
47.4199
42.4905
30.1293
27.5164
24.6498
25.1643
24.273
24.7322
24.3041
23.9605
22.9643
22.3742
21.7107
21.4818
21.4939
21.5206
21.6498
21.6832
9.6923
40.1967
46.7192
49.8805
42.4743
34.5323
31.4523
31.4552
30.2313
29.486
27.9306
27.0157
25.9405
25.5854
25.4401
25.6081
25.6313
25.4401
25.2166
24.4221
27.5343
29.5455
48.7042
55.3333
47.8743
39.7893
35.0709
34.7122
33.3863
32.1208
30.3932
29.3115
28.408
27.933
27.4777
27.1555
26.7674
26.3595
25.9807
25.0647
25.8061
47.3463
51.808
55.3635
46.6747
39.7788
34.8475
34.699
32.6558
31.6106
30.1615
29.7134
29.1685
28.7657
28.244
27.7704
27.239
26.6798
26.2243
25.2452
30.7968
43.0564
53.6988
50.4166
49.2042
43.1288
36.1141
33.537
30.6473
29.6671
28.9904
29.1808
29.0057
28.6611
28.0539
27.4574
26.8551
26.205
25.7581
24.7898
22.8946
34.7858
59.9205
55.7741
48.7942
43.0717
36.5061
32.692
29.8761
28.5703
27.913
27.8712
27.4308
26.9746
26.3364
25.7955
25.2736
24.717
24.3304
23.4404
8.40532
53.0243
54.4419
54.9768
49.5693
45.2418
37.7352
31.0871
27.9352
24.9164
24.2104
23.8338
23.91
23.1688
22.5812
22.4835
22.379
22.1397
21.8842
21.2026
24.9512
49.4038
55.3353
53.862
49.569
42.8572
37.4384
30.8386
26.536
24.3312
21.6812
20.2908
20.2612
19.4683
18.5104
17.8011
18.3014
18.5995
18.6778
18.6274
21.3668
50.5665
58.6862
52.9905
49.2624
42.1134
36.6971
30.7686
27.2817
26.1138
21.4253
17.8145
16.7109
14.7653
13.6982
13.719
14.7241
15.6463
16.1322
17.0155
26.691
53.782
65.2544
52.4773
46.3518
40.3111
36.7947
31.8982
29.8837
28.635
8.01061
6.28303
7.79476
8.84177
9.8895
11.7878
13.2457
14.8089
15.5125
16.709
40.8844
53.7171
70.427
54.7744
45.6051
37.7147
34.6583
30.2322
29.3821
28.2614
22.9403
13.779
13.4795
16.0342
12.7058
13.5153
14.6047
15.4827
15.9302
16.5135
17.069
62.9329
71.9384
59.1615
47.866
40.3364
33.7024
29.8009
27.117
26.3068
25.5247
23.9196
22.2001
19.3084
14.4859
15.4384
16.0761
16.5138
16.6803
16.7236
24.7812
65.9091
69.1843
61.5077
48.6969
39.851
33.4328
29.1703
25.4283
22.7674
21.4288
20.0341
18.4215
17.5073
18.1049
18.3585
18.3187
18.1049
17.8799
17.2857
25.6291
61.9131
69.8589
61.8156
43.9033
36.2384
29.9503
29.1496
25.8684
25.4485
23.7099
23.0287
22.0089
21.7587
21.7932
21.4724
20.9408
20.1249
19.5785
18.4514
64.8994
61.0967
59.3736
54.5021
42.5823
35.8694
29.4344
27.8186
26.4388
26.0789
25.4009
24.9731
24.4696
24.1992
23.7028
22.9868
22.2997
21.4396
20.8547
19.5188
47.0933
69.8854
65.1935
52.4455
44.1661
36.0558
29.5008
27.2355
25.8378
25.5221
24.8422
24.5167
23.832
23.5203
22.9785
22.4489
21.8457
21.0232
20.4697
19.2473
50.6271
71.6515
64.2005
54.7717
46.906
35.1752
28.0802
26.4894
25.3285
25.0751
23.997
23.4584
22.4799
22.0329
21.3236
20.8359
20.1846
19.5567
19.1821
18.5118
35.9588
41.8129
47.6188
41.2443
34.6156
27.3786
24.1981
24.3491
24.1002
23.8664
22.6904
21.8999
20.8637
20.3637
19.7177
19.3313
18.8643
18.5055
18.0976
17.0556
1.85417
13.3245
16.9119
20.7049
12.0331
11.8515
8.30225
8.25158
6.455
5.92525
4.83068
4.30648
3.64983
3.23505
2.83284
2.55848
2.34761
2.18991
2.14198
2.23324
7.96107
33.2954
34.2485
28.8088
21.3214
16.9122
12.4809
10.5839
8.51929
7.65367
6.79643
6.00575
5.2421
4.54559
3.94896
3.53722
3.25328
3.15185
3.13549
3.32329
27.0133
52.7601
57.0873
47.2285
34.9847
32.497
29.6189
29.8953
28.6694
27.5445
27.4148
25.7442
25.2772
24.0388
23.5658
22.9848
22.6199
22.2276
22.5867
22.8742
52.2797
56.8519
60.4793
61.5888
50.7452
44.3793
40.0145
38.2397
35.777
34.3575
32.5471
31.4872
30.4545
29.8114
29.2874
28.7844
28.2784
27.7182
27.2921
26.4556
60.4873
61.8036
63.1302
64.7961
57.3445
50.2568
44.5413
42.0267
38.9704
36.9731
34.9331
33.6522
32.5436
31.7297
31.0028
30.2966
29.6367
28.9367
28.3753
27.3434
49.7117
65.9435
69.8987
67.3481
56.9094
50.3624
44.6894
42.6884
39.4311
37.4736
35.5725
34.4035
33.3219
32.4105
31.5759
30.7787
30.0437
29.2623
28.6528
27.566
29.8901
65.6858
71.2653
70.1938
59.1053
51.797
44.625
41.8898
38.5646
36.7816
35.1633
34.1439
33.0577
32.1368
31.2131
30.3741
29.6023
28.7617
28.1462
27.0588
25.2914
66.1055
72.8792
67.48
58.0354
50.9618
44.2409
41.2262
37.4612
35.664
33.3509
32.2279
30.716
29.8314
29.0324
28.3942
27.7548
27.0332
26.4892
25.5005
29.6238
63.1628
67.2712
66.9406
59.005
53.0706
46.1056
39.8682
36.0838
32.0653
30.0147
27.7236
26.4934
25.0002
23.0162
23.8643
24.1068
23.8779
23.5636
22.8807
49.7576
61.7462
67.3251
64.7738
58.7371
51.8933
45.9439
38.6374
34.1499
29.6078
25.9858
23.08
21.2807
19.7109
17.5785
17.5119
19.0187
19.6979
19.8994
19.9305
39.3365
65.9343
68.6368
63.1039
57.8516
51.007
45.4962
38.0733
32.8222
28.2329
22.8888
19.2829
15.8412
13.8512
12.6042
13.6545
15.3333
16.568
17.1658
18.1612
40.8904
66.5206
71.436
62.0392
54.3785
48.2735
44.7946
38.0983
33.0816
28.5597
10.8534
8.36462
9.95686
10.1267
10.2703
12.42
14.3367
15.9686
16.7661
17.9206
43.4136
69.4337
71.1299
63.6236
53.1056
45.7952
42.4663
36.4827
32.3824
28.6939
22.4422
16.5122
17.1958
15.9118
13.0007
13.8299
15.4819
16.6825
17.2091
17.8032
21.0218
80.7505
80.7335
69.0901
55.4573
46.5716
40.3141
35.3018
30.8688
27.9204
25.9865
24.5396
22.944
19.4257
16.3073
16.9849
17.4759
17.7167
17.7518
17.7106
79.1723
76.0701
79.8997
70.8222
56.923
46.4507
38.9127
34.7112
29.3763
26.8084
24.6335
22.9844
21.5911
20.6833
20.0998
19.8641
19.5596
19.1717
18.7881
18.1698
63.6443
73.1685
79.9353
70.5659
54.1619
44.3404
37.7539
35.6174
31.49
30.4711
27.7621
26.6272
25.1114
24.326
23.8182
23.0064
22.2555
21.2567
20.5539
19.3476
94.4945
71.3975
77.3299
67.5524
54.0054
44.6426
37.5868
34.8916
32.5224
31.3286
29.8805
28.8097
27.8482
26.905
25.9195
24.8497
23.9222
22.8069
22.0387
20.6129
41.3499
83.0402
77.0219
65.3063
54.532
43.8185
36.916
33.7566
31.5873
30.5816
29.3008
28.4173
27.452
26.5896
25.6975
24.7076
23.8156
22.841
22.1448
20.8836
44.8698
80.8157
71.2371
63.7646
54.8894
43.1835
36.0087
33.2366
30.6684
29.3421
27.6021
26.6312
25.4919
24.7699
23.9441
23.212
22.5091
21.8156
21.3568
20.5931
17.2928
47.018
54.9037
47.0879
40.9259
33.6058
30.8003
29.4185
27.6573
26.1282
24.208
22.9757
21.7951
21.2207
20.6139
20.3097
19.9319
19.6458
19.3754
18.6124
5.28473
22.4254
19.3956
19.0997
11.8123
11.9006
8.49922
8.08259
6.34027
5.54806
4.54166
3.92669
3.37839
3.01856
2.75524
2.58442
2.47143
2.46686
2.54733
2.76525
5.76798
14.6158
29.7439
30.7241
13.8648
13.9939
6.16851
6.61018
4.41735
3.89429
3.07774
2.74767
2.273
2.06227
1.85118
1.79976
1.73223
1.74766
1.68709
1.7381
42.4483
32.7866
61.6204
29.947
33.8635
31.2269
28.0976
27.8651
26.1495
25.6963
20.8823
19.2328
17.0859
15.8921
14.8773
14.1836
13.6443
13.1059
12.3949
12.2045
65.6556
71.8918
73.1002
65.4838
51.1219
43.119
38.5272
35.5557
32.6126
30.9435
26.4438
24.5933
21.4448
20.0993
18.563
17.5911
16.772
15.9678
14.8925
14.3698
38.2763
76.3413
77.2655
72.428
57.8347
49.5913
43.1019
39.0626
35.4278
33.167
28.0296
26.2018
22.8021
21.4401
19.7576
18.5871
17.6133
16.6317
15.3995
14.7594
83.6963
48.2815
81.2599
62.2133
57.7043
49.9119
43.7107
40.3114
36.1457
34.2329
27.106
25.7095
22.3408
21.2675
19.5828
18.56
17.6063
16.6585
15.4427
14.8053
16.9173
57.6978
79.2489
75.3923
58.8513
50.3013
41.9387
40.7798
32.7161
31.1332
25.2818
23.5565
21.0884
19.9637
18.7059
17.7955
16.9471
16.0166
14.8937
14.2777
41.4546
45.1138
75.5946
47.2773
56.3613
49.7522
37.9903
41.25
31.9314
32.1819
22.8542
21.678
18.5884
17.9953
16.6741
16.0969
15.4051
14.6038
13.6417
13.0999
62.1628
70.0181
51.1723
47.4
40.7723
50.718
44.4956
39.883
33.9071
29.6338
25.9979
23.3761
21.8862
20.7431
13.9285
13.315
13.0101
12.4368
11.7204
11.3899
62.9712
64.7034
71.6634
53.7813
51.9028
50.3747
42.6517
35.5203
29.5709
24.1033
20.2252
17.3704
15.9586
15.0542
14.473
10.6391
10.366
10.0878
9.80349
9.83025
17.6264
54.8289
54.1359
42.4623
36.7965
49.9837
41.6875
32.3299
26.3376
20.4093
15.6459
12.4191
11.3329
11.3964
11.7127
8.8961
8.68636
8.6362
8.68646
9.05971
36.2466
74.2457
70.1579
46.6546
31.4569
47.5254
40.9823
31.1427
25.3926
20.1634
13.8321
9.75479
9.04658
10.0327
10.8182
8.30543
8.14248
8.20866
8.32933
8.73026
29.4047
94.905
61.337
40.1096
26.0657
45.1159
37.9911
30.1495
25.3708
20.7981
16.7102
14.7922
14.9227
12.8852
11.6907
8.00495
7.9869
7.97391
8.00931
8.31382
68.2355
91.7836
65.7339
48.7897
22.544
19.689
37.0955
33.2248
26.9095
24.5198
22.1681
21.5654
18.9013
16.3192
8.37636
7.8264
7.77416
7.74783
7.66344
7.84214
84.8358
85.8047
59.4894
61.7999
26.3767
23.358
19.6384
14.9785
13.7132
11.6712
11.2676
10.8009
9.94843
9.53017
8.6466
8.48156
8.21784
7.9653
7.65317
7.68747
48.9387
78.8225
43.43
37.5715
21.5193
19.714
14.7776
14.5021
12.0707
12.0507
11.0876
11.1038
10.562
10.388
9.93155
9.55629
9.13867
8.67158
8.13883
7.93369
33.7258
87.1195
47.0249
50.4691
23.8481
21.0452
14.933
14.0935
12.0964
12.1481
11.3008
11.5348
10.9556
11.0697
10.4969
10.2216
9.8174
9.27153
8.69181
8.35214
38.453
73.2884
40.991
34.9108
20.963
18.5457
12.9812
13.2903
11.0336
11.7453
10.7268
11.1233
10.5947
10.6627
10.2418
9.93982
9.62591
9.16757
8.69068
8.44214
25.0537
70.9641
48.7732
38.9975
22.1638
17.8004
12.8169
12.7792
10.5618
10.6378
9.70815
9.90919
9.46229
9.61025
9.30019
9.21219
9.03085
8.77005
8.4468
8.3976
21.8058
37.0241
27.1485
23.2474
14.5946
14.1232
10.8502
11.5513
9.48839
9.40098
8.30529
8.19867
7.8412
7.97597
7.83188
7.90195
7.84626
7.78057
7.62644
7.71074
8.16917
16.0322
7.63454
6.58579
3.9663
4.07001
2.76743
2.77233
1.99994
1.81469
1.43078
1.3295
1.16901
1.12975
1.06898
1.05606
1.03612
1.05089
1.08641
1.06051
22.8746
27.2967
8.00141
28.5117
24.4971
28.4055
6.81608
18.1618
6.90837
6.57702
23.152
20.3317
5.51059
5.51409
9.20217
28.4304
22.8528
29.5206
8.16579
29.3619
22.4586
6.34102
19.1722
11.3123
6.53776
5.12889
18.5821
11.8124
0.362458
0.522497
0.273261
11.5762
11.7281
12.9865
13.0866
0.226862
0.246374
0.16211
11.8102
10.5889
12.7182
10.2821
0.164629
0.147467
0.163441
10.1837
9.96667
10.2241
11.8429
0.162699
0.183318
0.196291
10.0223
9.1604
12.2362
11.8414
0.128307
0.194086
0.167833
8.71728
7.91773
11.3081
8.82955
0.118933
0.154466
0.115632
7.80962
8.34161
8.02058
7.58438
0.123727
0.115829
0.116346
8.66838
9.11304
8.00925
8.41747
0.0966192
0.112863
0.0824786
9.14037
9.70398
8.31037
8.45237
0.252808
0.472785
0.246677
13.1221
13.1765
13.4274
13.3158
0.151677
0.220389
0.201085
12.5969
10.3213
12.8781
12.7469
0.188081
0.205408
0.244058
10.5406
12.5809
13.1806
14.5074
0.214369
0.248492
0.231356
12.9884
12.4135
14.5995
13.1867
0.171818
0.220929
0.142297
11.8036
8.84611
12.1894
8.02343
0.116338
0.123336
0.106855
7.92643
7.56023
7.32515
7.14471
0.110713
0.10135
0.0863012
7.86718
7.94249
6.89231
6.03764
0.0830287
0.0831529
0.0567444
7.77175
8.01802
5.85709
5.74337
0.250124
0.388657
0.214847
13.8421
13.7462
13.1201
13.0798
0.223185
0.212286
0.237425
13.4523
13.6672
13.1339
14.269
0.25545
0.250263
0.261624
14.0388
14.9481
14.659
15.2718
0.228765
0.258124
0.236258
14.9454
13.1764
15.2712
14.1557
0.131298
0.2244
0.160143
12.0378
7.51175
13.4001
8.84701
0.099635
0.117956
0.0855096
6.75963
6.60436
6.99095
5.91642
0.0879902
0.0916773
0.132774
6.41084
5.82377
6.40196
8.28504
0.0606046
0.144221
0.122166
5.69268
5.75207
8.6814
8.10793
0.204664
0.327789
0.207884
13.095
12.5124
10.0429
10.8014
0.229222
0.183834
0.174416
12.4965
13.7337
11.0906
11.8964
0.251882
0.176216
0.185211
14.1475
14.8782
12.0922
12.9402
0.236507
0.195004
0.218663
14.9468
14.4597
13.3713
14.2697
0.196992
0.221395
0.218913
13.9635
11.0683
14.3886
14.1657
0.0833066
0.215595
0.164942
8.83164
5.54928
13.8716
9.98284
0.164095
0.116313
0.0849066
6.39068
9.68011
8.90667
9.64703
0.149371
0.106003
0.131658
10.1879
9.32726
10.7013
11.1285
16.941
19.6586
17.6956
33.5796
29.2501
33.2506
29.4368
14.3023
16.9267
14.0006
27.869
24.3586
27.8907
24.4147
13.4119
13.9192
15.355
23.6645
22.4815
24.1246
24.0253
12.1057
15.6352
14.789
21.9557
19.9787
23.7056
21.2374
10.7346
14.0468
11.0252
19.5105
18.3943
20.0195
16.8987
11.3234
10.1622
10.3155
18.3138
18.6754
16.5811
16.7344
12.0298
10.6888
10.8252
18.7606
18.4472
16.6195
15.6995
11.9974
10.6569
10.2474
18.2746
18.0829
15.389
14.859
17.7065
19.8107
17.8514
32.925
29.3288
33.0568
29.5159
14.0747
17.1686
16.6778
27.7562
24.6467
28.4019
26.883
16.1632
17.0888
18.3507
24.5392
24.6664
26.8618
26.5267
15.4029
18.3618
16.1292
24.3365
21.5861
25.9382
14.2332
11.0069
14.6854
9.92954
20.1931
16.6041
12.4494
9.59615
10.1671
9.25425
8.99327
16.2421
16.0867
9.89137
10.9915
10.1536
8.61794
7.29372
15.8028
14.4756
10.4395
8.84945
9.68335
7.06726
6.71639
14.1063
13.9523
8.80642
9.11208
18.332
18.8398
17.4413
33.1512
29.947
31.3247
28.7197
17.7188
17.3435
18.3375
28.9962
27.7264
28.1721
27.8946
18.8843
18.7338
19.2999
27.656
26.9223
27.9166
27.4615
16.1476
19.2531
17.6071
26.6624
14.8364
27.0685
22.7881
9.33168
16.5047
10.8719
12.7652
8.81991
19.8128
12.2853
8.12544
8.94083
7.30742
8.48041
8.26817
10.5285
8.98348
6.81289
7.58252
9.7877
7.99456
8.10246
9.74267
13.1278
6.60611
10.2249
9.04915
8.35746
8.95644
13.4089
11.6152
16.7415
17.2167
15.2783
31.0455
27.9588
25.1436
26.6632
17.6978
15.3144
15.9549
27.3508
27.2283
26.1564
25.4373
18.8402
16.0111
16.6849
27.2868
27.0243
25.0987
24.891
18.0578
17.1006
17.8446
26.8134
24.279
25.0225
24.9554
13.3103
17.9284
17.3076
22.5572
15.9357
24.7843
23.0243
7.47885
16.8218
12.5658
13.7414
11.4505
22.1881
19
11.4117
11.6165
12.4312
12.0504
15.1287
18.55
18.7669
10.3609
13.2967
12.6627
15.3502
12.6922
18.6699
15.683
32.3264
36.9399
32.5159
44.5784
39.0018
44.3018
39.0098
27.2548
30.8671
27.3239
37.4103
33.9129
37.1732
33.2054
24.9761
26.9099
26.1594
33.0283
30.0905
32.3162
29.5776
22.1803
25.6186
22.6917
29.0719
26.4119
28.4696
24.7604
20.4294
21.4235
18.5815
25.7253
23.74
23.57
21.0564
20.3028
18.2938
17.9896
23.2558
22.1577
20.4848
18.6243
19.6867
17.6913
16.4872
21.7966
20.6242
17.9436
16.347
19.1439
16.1538
15.5291
20.3163
19.8874
16.0141
15.3192
32.4148
36.7181
32.5915
44.157
38.9363
43.7793
38.8518
27.5612
31.393
29.4751
37.1235
33.258
37.3365
33.9379
26.6675
29.2394
28.1579
32.3757
29.625
33.0053
30.0392
26.5265
25.3046
26.6124
27.4285
25.6479
26.4404
27.8159
19.9114
20.0142
20.8401
22.3586
19.2828
21.0396
21.3562
17.1735
7.75687
10.6517
19.6992
17.5195
7.25098
10.6972
15.1392
10.2851
9.11951
16.7047
14.9082
10.4951
9.97083
14.5507
9.16555
9.55939
14.5878
14.302
10.0374
10.2754
32.9522
35.0106
31.7078
43.5556
38.9297
41.9045
37.7267
30.1638
31.0121
30.1419
37.4867
34.1452
36.497
33.6947
28.4097
29.9649
29.004
33.1931
30.0515
32.8784
30.3336
18.6502
16.6408
27.7502
24.7532
22.9165
3.34434
28.2679
3.93919
7.1249
9.34812
1.74267
7.93474
1.55271
4.87615
7.6023
9.71477
9.57472
5.96073
9.07744
11.3842
13.735
8.5264
11.004
14.0085
9.42743
9.92786
14.5508
15.093
9.3845
14.0957
12.1685
10.0646
10.1602
14.5757
13.0157
30.9829
27.9537
29.7597
41.3624
37.0763
30.7001
35.6602
29.5243
29.1239
27.9987
35.845
33.2551
34.6239
32.3079
28.6061
27.386
26.7207
32.4944
30.1137
31.2531
29.1152
25.0649
26.6655
26.2286
29.3505
25.1088
28.6114
27.2372
15.7773
25.9402
23.9119
22.7226
16.4707
26.6557
24.5709
12.5264
23.0652
20.4091
15.5825
16.3173
23.9482
22.5085
16.0218
20.037
19.9024
16.8707
16.9881
22.261
21.0785
13.1074
19.6177
15.7414
16.2803
13.8186
20.0264
16.0958
40.2191
45.5937
40.0197
44.4025
39.0956
43.4709
36.8474
35.1476
38.135
33.9485
37.4076
33.1885
34.9183
30.3428
30.7332
32.8866
29.5581
31.6454
27.4256
28.9256
24.8283
26.7803
28.3148
24.5128
26.122
22.9172
23.4672
19.7462
23.6888
23.358
20.768
21.9331
19.4181
18.6842
15.9795
21.716
20.0601
17.8035
18.7757
17.5273
15.1777
13.4277
20.0246
17.0713
15.5224
17.139
16.236
13.1044
12.574
19.4055
15.2105
14.6312
16.0213
15.745
12.4615
12.0576
39.9468
45.1071
39.7182
43.6779
36.597
43.5354
35.717
33.8999
38.0646
34.1535
34.6223
29.9788
33.7556
29.2288
29.4797
33.023
29.596
28.576
24.6565
27.9574
24.6637
24.1707
28.2028
12.6794
23.3706
19.5581
23.3553
17.8797
20.0432
10.5052
8.67661
18.412
15.4765
15.9958
12.4556
16.6968
9.63073
10.9795
14.583
12.3888
11.648
9.64087
14.1404
10.6075
10.0027
12.0482
11.673
9.36886
9.66677
13.6736
10.0378
10.2215
11.6249
11.5027
9.78045
9.86684
39.7011
43.1588
38.5182
43.2998
35.489
41.3779
34.4617
34.2199
37.0935
33.6929
33.5238
29.0314
32.6385
28.5538
29.6056
32.6935
29.7181
27.7712
24.5723
27.3907
24.2195
13.4377
28.7006
22.4586
23.3568
17.4398
23.2129
19.1178
7.85112
19.1307
13.3103
15.355
11.6694
17.4833
14.3015
9.90816
13.0048
14.5549
10.9547
9.51289
13.9457
13.7647
10.0666
14.9781
14.815
9.35774
9.77501
13.7451
12.8585
10.1167
14.2804
12.7809
9.83391
9.80036
12.3667
11.0324
37.88
33.6025
36.4639
40.0734
34.0117
36.1379
34.3956
33.319
35.3715
32.7843
32.3172
28.47
33.147
29.911
29.57
31.5637
28.9384
27.3466
24.2245
28.1706
24.9904
24.5436
28.3105
26.7789
23.2636
19.9816
24.3238
22.8526
17.1506
26.1446
24.219
18.7813
16.2537
22.1838
21.0438
16.9559
23.7097
22.5535
15.9648
15.8549
20.9393
20.6153
16.6454
22.2834
20.7569
15.7782
14.2952
20.1813
18.0362
13.6309
19.5967
16.2027
13.5789
11.5627
16.9051
14.1139
37.2508
41.4702
34.5364
26.0246
15.7737
22.227
16.4589
31.1343
32.6535
28.1384
16.8798
16.2656
16.0001
15.6758
25.3258
26.7085
22.2148
17.555
14.7222
15.7525
12.3748
21.1628
20.78
17.1582
16.2693
15.7056
11.7157
10.7462
17.9499
16.1908
13.9579
17.0169
15.6307
10.7015
11.1496
16.316
13.4085
12.4607
16.6854
16.2243
11.9357
14.7342
15.2387
12.3474
12.1439
16.4981
16.1632
15.0015
15.044
14.8151
12.067
11.6854
16.0287
15.8098
15.0047
14.8247
34.2468
41.1902
33.2339
17.955
15.9794
14.9292
14.6217
27.7816
31.3976
27.0263
15.7628
15.5805
14.7531
14.074
21.8008
25.5417
21.4522
14.7776
11.1105
12.6143
9.17391
16.6856
20.1892
15.8275
10.3536
9.12736
8.38746
6.8438
13.0882
14.3105
11.0171
9.02086
9.31221
6.54884
6.40274
11.3705
10.1497
8.86293
10.0729
13.6575
7.08995
11.4294
11.4054
8.96918
9.87507
14.3777
14.743
12.7363
14.1157
11.2297
10.0006
9.99594
14.7257
14.5089
14.1598
14.0972
32.9689
39.1559
32.0758
12.4952
13.8833
12.4885
12.982
26.8426
30.3684
26.5121
14.1687
13.6999
13.1453
13.3445
21.3555
25.35
21.5104
12.2986
9.02454
12.6431
9.96824
15.473
20.3493
16.6574
8.2567
6.85045
9.40887
8.75776
10.5338
15.3969
13.0112
6.55196
6.29874
8.66367
8.59003
8.84474
12.7703
12.9813
6.96627
11.4534
9.06571
12.6721
9.95287
13.0612
12.368
12.7742
14.1162
13.9032
13.9242
9.93969
11.9482
10.8059
14.1439
13.9845
14.0412
13.7143
31.7738
37.2036
32.7154
11.4335
12.5473
11.1081
9.91194
26.4658
31.3572
27.9606
12.641
12.7777
10.2327
9.52412
21.9452
26.186
23.4705
13.14
10.7017
10.9567
11.2532
17.6715
22.8289
21.3406
10.2566
9.92514
11.4334
11.4468
14.9269
20.6742
19.842
9.9831
10.0196
12.6043
12.5648
14.9809
19.7515
19.3161
10.4284
13.5571
12.4826
11.5298
13.5153
18.7934
16.6716
13.4272
13.4173
11.8616
11.281
11.2136
15.6217
13.1238
13.5839
14.1185
11.4471
10.9848
24.7579
24.1943
22.5033
23.8045
24.1517
25.1996
23.0093
23.244
27.0318
17.1229
24.9216
24.8221
27.9018
4.55615
18.5379
18.7989
10.6548
2.45534
21.21
16.6445
2.81236
27.0333
28.2395
27.274
28.6365
27.1077
28.4946
27.2016
25.1562
24.359
25.9083
23.5877
25.7818
23.3618
25.38
23.2172
24.8191
28.7516
16.8838
28.4568
4.46433
25.637
18.3829
2.46198
18.4858
9.67168
16.4228
2.77205
21.2682
18.7606
18.8752
17.2877
19.3521
18.0134
20.0163
18.1245
14.3491
17.1099
6.08751
2.09576
15.7022
15.3566
1.93943
13.2425
14.2842
5.91161
4.07631
14.4937
13.6507
3.01733
20.3835
22.9571
21.9957
21.9933
21.731
21.7437
20.6784
19.3112
20.0948
21.0687
18.9237
20.7765
18.6646
19.6507
14.1142
2.25389
16.6712
4.69229
15.1375
2.11084
15.3237
13.2339
3.7667
14.5809
4.57372
13.6605
2.82729
14.472
10.0955
11.2376
11.602
2.16107
15.902
2.84355
6.54091
26.3559
28.1853
27.331
29.2393
26.3401
28.9013
27.9326
21.4971
17.933
25.6232
22.4835
22.8599
15.7489
25.8534
18.9735
24.5795
16.9303
28.6802
3.56569
28.5726
23.375
10.0369
2.44384
10.9694
10.7842
2.8555
6.41769
15.6326
26.5169
29.5401
29.0793
27.9008
29.1943
28.1109
26.83
21.4273
22.3213
17.1896
25.7694
15.5193
25.8814
22.7211
3.30391
6.15024
6.14931
2.92765
6.75191
1.59812
3.20081
8.63161
13.8347
15.9587
18.3343
11.0732
11.4024
14.9063
6.92286
7.84928
13.3853
10.3724
9.22397
5.73835
12.318
3.61265
2.13288
5.41859
8.02305
1.89168
4.66388
6.36707
2.9855
2.65639
4.68855
5.1243
1.95115
3.04503
5.30824
8.34946
18.1157
12.8438
15.4431
11.1224
14.7269
10.0128
6.71279
10.5921
7.32863
13.1594
5.67668
12.2381
8.25595
1.18447
1.50035
1.19394
7.1087
8.22585
6.98508
8.03953
0.829665
1.0125
0.831681
8.37653
7.42703
8.7171
8.41563
0.63411
0.684798
0.602555
6.75613
6.32945
7.77617
7.56567
0.530905
0.562937
0.523083
5.98454
5.537
7.33206
6.70205
0.456115
0.466348
0.421819
5.33092
5.30366
6.03279
5.8118
0.441481
0.410096
0.412615
5.88277
6.23783
5.84482
6.41318
0.442667
0.412355
0.410212
6.54734
6.9272
6.90973
7.24293
0.381828
0.404982
0.330125
6.87078
8.50906
7.14467
9.58897
1.6302
2.48453
1.49877
8.39548
9.20568
8.2435
10.1383
2.87706
0.492738
0.57792
2.72634
2.7768
2.71447
0.441387
3.62227
0.289363
0.281494
3.03556
3.06214
3.45752
0.255597
2.94107
0.183304
0.17116
2.68607
2.51427
2.95167
0.154671
3.56202
0.164401
0.153023
2.68315
2.74783
3.40608
0.159035
3.1583
0.145136
0.161837
2.36112
2.20315
3.29893
0.153556
2.64414
0.118945
0.13061
2.09948
2.14476
2.83764
0.122502
2.73101
0.12343
0.118578
2.34221
2.47703
2.54872
0.121395
2.9801
0.121913
0.12235
2.60165
2.65246
2.97243
0.11862
0.348578
0.367607
0.281269
6.81868
7.97274
6.65267
8.57848
1.41267
2.15636
1.40042
8.02789
10.2798
8.16585
10.6261
3.02302
0.355648
0.470376
2.6115
3.08567
2.60136
0.355534
3.45111
0.202416
0.21541
3.86279
3.64639
3.66282
0.185861
3.98083
0.150653
0.156324
3.25945
3.58867
3.61818
0.1632
4.94308
0.215724
0.226107
4.70098
4.76192
4.91563
0.230662
4.2354
0.199546
0.216417
4.52444
4.21538
4.58777
0.202947
2.56145
0.135858
0.149281
3.1015
2.65899
2.92435
0.132644
2.55945
0.116616
0.115301
2.44253
2.60009
2.51469
0.112802
2.48663
0.101877
0.0977434
2.66453
2.66547
2.49343
0.0926546
0.260359
0.253513
0.187181
5.87025
7.58654
4.94908
6.5258
1.39026
2.09491
1.16585
8.34822
11.0863
7.91519
10.5023
3.20862
0.331967
0.449788
2.69502
3.24529
2.58175
0.326593
4.62666
0.222991
0.229468
4.33463
4.48649
4.41562
0.227414
5.14465
0.242332
0.247278
4.87494
5.02362
5.03397
0.256614
5.18829
0.250667
0.258246
5.19966
5.15412
5.24088
0.253136
4.02389
0.196691
0.217925
4.44047
3.97109
4.56318
0.195566
1.89835
0.103417
0.104211
2.20452
2.17774
1.99477
0.0932628
2.42654
0.0941376
0.0944837
2.19977
2.26986
2.29622
0.0947061
2.4622
0.0828512
0.0943426
2.26549
2.22838
2.4822
0.0930925
0.1751
0.329885
0.216474
4.35595
5.75032
5.05736
5.3445
0.886926
1.36437
0.722308
7.61418
10.2713
7.05048
7.51453
2.58922
0.24911
0.310318
2.6868
3.17681
2.39941
0.237512
3.59007
0.209946
0.182524
4.01443
4.30199
3.1974
0.188072
4.70017
0.248194
0.21852
4.90389
5.02336
4.5144
0.225118
5.06315
0.245645
0.234072
5.18416
5.18576
5.01113
0.234157
4.99994
0.220137
0.227894
4.99118
4.84909
5.07506
0.223799
3.38389
0.115041
0.197167
3.31472
2.07526
4.40396
0.165949
2.37862
0.106567
0.085486