/*--------------------------------*- C++ -*----------------------------------*\
  =========                 |
  \\      /  F ield         | OpenFOAM: The Open Source CFD Toolbox
   \\    /   O peration     | Website:  https://openfoam.org
    \\  /    A nd           | Version:  10
     \\/     M anipulation  |
\*---------------------------------------------------------------------------*/
FoamFile
{
    format      ascii;
    class       volScalarField;
    location    "8.7";
    object      omega;
}
// * * * * * * * * * * * * * * * * * * * * * * * * * * * * * * * * * * * * * //

dimensions      [0 0 -1 0 0 0 0];

internalField   nonuniform List<scalar> 
12920
(
192.136
154.675
150.81
145.071
137.554
131.499
126.886
115.078
91.4936
70.5075
60.4849
58.2784
57.7692
56.8222
54.486
51.0045
47.0802
41.9007
38.7846
35.5679
133.248
214.537
191.314
173.042
151.009
125.611
108.601
99.2937
87.7562
76.9123
68.4187
63.7478
60.6046
58.1717
55.4555
52.5175
50.8807
50.4659
50.6432
51.2502
61.7274
153.053
180.809
184.585
172.818
133.79
100.987
87.7836
78.3654
71.0045
64.6656
60.7898
58.1857
56.7881
56.2351
56.2697
56.7037
56.874
56.8126
55.959
51.3753
172.813
203.45
198.26
159.993
118.443
95.3033
85.4836
77.3747
71.3228
65.991
62.5733
60.2107
59.0973
58.5901
58.4171
58.2526
57.8398
57.4538
56.1035
164.593
178.327
180.432
176.276
147.212
117.773
97.7758
88.218
79.4877
73.0614
67.3009
64.6175
62.8926
62.0289
61.276
60.5759
59.9966
59.0327
58.4103
56.6666
123.704
120.045
125.727
149.341
148.709
132.787
109.155
94.462
81.4074
72.5469
66.0031
63.3756
61.7372
61.0091
60.2753
59.5463
58.9246
57.7976
57.1804
55.5708
216.637
222.355
177.02
156.093
139.188
128.009
107.072
91.0744
78.0106
69.7024
64.689
62.177
60.2549
59.0621
57.821
56.8784
56.1142
54.9841
54.4419
53.0377
273.265
263.724
243.605
195.904
152.153
131.839
204.544
155.305
130.265
113.864
102.779
91.7006
91.3958
90.1568
56.0679
53.3803
51.7507
50.577
50.058
48.5615
107.732
262.159
261.338
191.627
139.996
215.328
350.422
258.87
204.449
184.061
174.253
145.929
138.674
136.6
85.8558
49.3622
46.647
45.0403
44.3144
42.3974
103.984
220.642
204.084
150.128
127.892
193.884
292.647
224.82
178.843
207.815
208.656
177.5
140.235
128.079
76.8822
43.1954
40.6687
39.117
38.0785
37.8174
185.302
241.512
179.363
131.808
115.933
180.075
273.16
210.4
211.387
223.622
209.56
141.658
122.938
112.795
70.9564
38.9321
37.0139
36.6003
36.6257
37.094
299.702
209.902
167.381
117.852
102.517
148.595
246.012
201.683
215.97
225.928
222.315
190.705
127.506
174.206
102.804
43.6983
39.5135
38.3718
37.6481
37.2681
180.998
271.497
222.341
143.1
111.863
100.546
148.32
121.469
118.913
124.059
131.701
134.612
121.564
112.971
56.9288
45.1075
40.3044
38.5882
38.0364
37.6529
195.367
267.981
248.788
185.567
137.264
112.197
89.5176
74.8077
65.6765
57.713
58.5428
58.709
57.6591
51.7076
46.0913
43.3334
42.0792
41.6637
41.7212
41.3207
137.436
282.077
276.815
236.49
182.64
143.468
106.138
85.499
69.9791
60.6363
55.2152
52.9515
51.6737
50.1387
49.6341
49.9777
50.7494
50.9134
50.8754
49.5649
363.278
275.377
243.699
208.497
168.113
130.115
99.8418
79.4525
66.8162
60.0167
56.278
54.9538
54.2906
54.4391
55.2762
56.1587
56.4804
56.3597
56.0481
54.307
251.305
222.362
196.259
155.556
127.815
105.019
85.8885
71.3444
61.5728
57.1228
55.0588
54.3864
54.0531
54.0778
54.2906
54.3777
54.2871
53.5326
52.7024
50.4474
339.635
251.347
215.897
166.485
127.205
99.9902
80.0461
68.8692
61.3602
57.805
54.482
52.7116
51.1521
50.2227
49.4462
48.5373
47.629
46.107
45.3591
43.7693
161.137
151.023
155.927
138.096
108.549
92.2145
79.6952
73.4419
68.6315
66.5812
62.4428
59.4635
55.8273
53.6875
51.6765
50.5484
49.3985
48.1915
46.6675
42.5815
30.6291
99.186
123.356
119.611
102.982
90.7294
78.5556
70.4782
63.5334
58.7012
54.2128
50.4542
47.1267
44.3183
41.9564
39.9382
37.7814
35.2144
34.2085
32.4758
60.482
72.892
82.5823
79.2047
69.152
60.167
51.7933
43.6194
36.7726
34.0343
33.748
33.3341
32.1192
30.3248
28.3328
26.3339
24.7366
23.0356
22.1178
20.9647
171.336
151.473
108.557
98.1315
89.5792
83.9981
77.6027
69.3376
58.2647
48.4216
41.4959
38.4078
36.9225
36.1466
35.4271
33.9207
31.5271
29.0773
27.7854
27.8066
143.532
123.982
117.33
108.985
94.4432
76.6831
60.3416
49.8984
42.7319
38.1014
35.2145
34.1032
33.6959
33.5482
33.2109
32.3077
31.036
29.7925
29.1771
28.8393
110.213
137.979
132.394
108.761
81.4838
67.1436
56.145
45.8702
38.3226
34.1973
32.1498
31.1073
30.5302
30.1379
29.978
29.7257
29.4688
28.9825
28.7554
28.2826
220.991
195.136
146.62
103.757
79.4823
68.522
58.8491
49.7309
43.248
38.4433
35.7429
33.4231
31.8091
30.7182
30.1355
29.6852
29.4226
28.9932
28.7695
28.1859
138.036
122.228
117.412
114.687
89.9188
71.3297
59.4018
53.195
47.7405
43.1844
38.4044
34.1216
31.0283
29.5089
28.8969
28.5774
28.4215
28.0979
27.9154
27.4324
183.746
146.049
106.367
93.7096
76.8765
67.5611
55.8857
50.7548
45.6759
41.8971
36.635
32.551
29.4805
28.1122
27.4667
27.0992
26.9607
26.691
26.5556
26.2194
142.243
146.831
134.551
114.205
81.6258
65.5304
66.2781
59.3558
52.0792
48.7429
41.0131
33.1668
29.0979
26.791
24.0352
24.1554
24.1351
24.0494
24.0189
23.8701
162.319
184.601
144.516
93.7252
68.1188
66.9151
69.7205
64.9277
56.7536
50.6745
44.6541
36.4397
28.7577
24.8834
22.4099
20.9529
21.2051
21.2116
21.1885
20.9693
146.274
147.599
102.744
75.1603
60.0055
60.902
62.8737
59.556
53.8442
43.7955
41.8312
42.123
29.405
23.618
20.9285
19.3846
19.1596
18.8749
18.6943
18.7589
188.917
139.319
81.0813
64.9639
54.1761
56.5369
57.0745
50.7615
43.6663
38.5767
39.6558
37.836
29.089
26.6885
24.1574
19.7802
18.6635
18.4018
18.4083
18.7954
311.895
120.147
83.7788
58.2691
50.3024
51.1491
56.2642
49.8955
41.8356
38.7106
37.6443
39.8993
36.9166
33.2965
34.0067
21.9777
19.4827
19.0824
19.1496
19.2706
132.743
155.23
112.903
68.5778
54.5718
49.0711
52.6505
49.0207
44.8168
40.1423
39.8407
38.9114
40.4296
41.8965
38.6562
25.5899
21.0028
19.6253
19.1722
18.9028
149.697
150.955
119.771
83.8344
65.2558
58.4621
46.4393
40.0787
34.1974
30.8326
31.0149
32.9451
34.2359
32.1728
25.4015
21.6535
20.6441
20.3852
20.4198
20.4035
98.137
149.264
127.795
107.979
93.434
83.0877
61.295
48.2482
38.9868
32.3967
28.6567
26.7354
25.9535
24.6976
23.7257
23.5856
24.0259
24.6366
25.1568
25.129
213.74
168.588
130.051
111.214
92.8554
74.3895
58.3482
45.4246
36.9326
31.8366
29.064
27.7203
26.8942
26.6013
26.7024
27.0707
27.8238
28.3712
28.8794
28.9399
258.834
143.774
108.545
88.7198
70.1729
58.3147
49.4323
40.7681
34.9316
31.3634
29.7112
28.8667
28.7251
28.4781
28.5193
28.4491
28.552
28.7055
28.9525
28.8948
199.712
166.484
115.885
85.1876
65.2998
57.3846
49.5262
41.7692
35.6334
31.4495
29.1125
27.7034
27.2755
26.8999
26.8253
26.6183
26.4805
26.3399
26.3365
26.1003
216.405
174.61
101.12
78.1629
63.7381
58.5506
52.4485
45.8316
39.2455
35.0726
31.3964
29.4707
27.6237
26.6656
25.7966
25.3076
24.9521
24.8844
25.0774
25.5814
28.6953
66.8231
77.8815
72.2522
59.1946
51.1756
45.8742
42.1202
38.7312
35.8479
32.8925
30.5472
28.4514
26.8429
25.3129
23.9079
22.7357
21.483
20.857
19.8562
71.587
78.8487
91.3793
84.9237
68.6242
56.8481
48.0758
42.0801
38.6632
37.3184
36.1751
34.6632
32.7796
30.6663
28.5438
26.6548
25.106
23.7698
22.9096
22.3602
163.065
103.939
90.7145
76.3593
65.1679
59.1602
52.1749
47.3896
41.3669
37.9539
34.9136
33.6554
32.3978
31.5055
30.349
29.1133
27.8117
26.6729
26.0855
25.9135
135.065
124.681
117.135
98.8587
71.8769
56.1024
45.1799
39.1553
34.5209
32.2866
30.6982
30.288
29.964
29.7161
29.1136
28.2863
27.4198
26.651
26.2973
25.8546
422.001
192.8
143.001
104.516
72.8243
55.2416
43.956
36.8825
32.2397
29.8061
28.3887
27.7814
27.3406
27.1328
26.8702
26.581
26.2821
25.8961
25.6801
25.2057
269.587
185.15
132.339
88.7935
64.7673
53.462
44.9888
38.8775
34.7091
31.8027
29.7523
28.4173
27.4471
26.9219
26.5307
26.2231
25.9594
25.5988
25.3823
24.8974
185.368
171.117
131.654
95.386
66.5427
54.2858
46.2556
41.948
37.576
33.9677
30.5624
28.2736
26.6483
25.8823
25.4531
25.1888
24.9979
24.7242
24.5719
24.2294
292.836
132.402
91.5541
71.5186
57.9123
51.3575
44.4309
40.439
36.3598
32.702
29.1303
26.7111
25.1704
24.46
24.0788
23.8333
23.7062
23.5308
23.436
23.2166
128.808
135.216
106.808
78.4367
58.8562
50.3734
48.5117
43.6149
39.4868
35.2186
30.2137
26.0491
23.9972
22.8131
22.3946
21.9899
21.7864
21.6416
21.5829
21.4382
164.806
135.028
94.7388
63.716
50.7051
48.6026
48.7079
45.6261
41.6864
37.3357
31.5382
26.6392
22.954
21.2933
20.6624
20.5194
20.0036
19.7318
19.6352
19.5221
327.204
135.869
81.9414
57.4601
47.7344
45.4553
46.792
44.6422
40.7501
35.5533
32.8267
28.2389
22.7404
20.6771
20.0737
19.8932
18.9667
18.5193
18.4236
18.5248
452.178
157.987
75.917
51.6726
43.609
42.8327
44.0553
39.8889
35.9502
32.3378
70.2592
52.3438
33.0216
26.5398
22.8556
20.5902
19.1085
18.5192
18.433
18.6122
525.144
177.329
90.4429
51.7199
42.5619
40.9808
43.3615
39.2494
35.1478
32.8118
33.5107
37.9989
38.2697
33.8326
28.8104
20.9583
19.1759
18.5304
18.382
18.4074
183.563
187.084
118.389
63.1076
47.3074
40.8317
40.6694
40.0056
36.6681
34.6377
34.9569
35.0479
37.8327
41.2197
28.8659
21.3173
19.0341
18.2796
17.9998
17.9005
184.292
157.784
108.557
69.6742
53.0554
45.0938
37.42
31.868
29.0063
26.4223
27.316
28.1906
28.207
25.3397
21.2039
19.5287
19.0456
18.8554
18.8377
18.7295
136.204
155.289
114.77
77.5054
62.3115
52.0349
41.388
34.9949
29.8241
26.1135
24.3492
23.241
22.789
21.9816
21.5499
21.5508
21.854
22.1107
22.2348
21.9422
362.971
188.268
108.508
77.6782
61.8881
49.6322
40.7373
33.5945
29.0953
26.4378
24.9594
24.2617
23.9254
23.9401
24.1715
24.526
24.8322
24.9627
24.9925
24.6706
301.442
155.697
95.2357
66.8617
53.5998
43.4817
37.4061
32.0633
28.764
26.8446
25.7782
25.3853
25.2381
25.2581
25.3176
25.3914
25.4166
25.3877
25.3365
24.9857
308.594
202.937
121.083
76.58
55.879
45.3079
38.692
33.793
29.7505
27.3221
25.655
24.9188
24.4802
24.4006
24.3105
24.3125
24.2859
24.237
24.1896
23.8309
169.278
153.863
97.3437
64.8453
52.8038
46.6081
41.6658
38.0675
33.4327
31.1605
28.3144
27.1538
25.7596
25.262
24.6453
24.423
24.1831
24.1291
24.1583
24.1863
59.9191
82.9754
88.7186
82.518
65.7175
55.037
49.3887
45.3013
41.5392
37.953
34.6062
31.8501
29.4822
27.4758
25.8101
24.3943
23.3068
22.2267
21.6936
21.7144
85.6742
108.72
109.215
91.6372
67.4819
53.5142
45.5957
41.609
39.5231
37.9885
36.26
34.0476
31.7438
29.3524
27.3298
25.6935
24.5584
23.7957
23.4786
23.4251
173.941
112.352
100.456
68.2541
60.3371
52.1789
47.5058
44.5009
41.8183
40.2042
38.6434
37.3802
36.1571
34.9988
33.895
32.8769
32.1809
31.4462
31.0727
30.5281
210.898
164.599
142.626
95.3571
68.0149
52.4028
45.578
40.1795
37.6771
35.7746
34.9966
34.3381
33.908
33.3164
32.6928
31.9531
31.3282
30.6859
30.32
29.7662
365.728
186.462
155.948
103.866
72.5295
52.6975
44.5993
38.0591
35.4186
33.0771
32.3526
31.6723
31.4401
31.0722
30.7891
30.388
30.0924
29.677
29.3954
28.9446
283.962
150.299
117.234
79.0145
63.5073
50.6352
44.8672
38.7332
36.1666
33.425
32.2699
31.251
30.7942
30.3671
30.0813
29.7267
29.4696
29.0928
28.822
28.4889
164.537
129.746
108.43
75.2347
61.9466
50.7757
45.8518
40.6182
37.216
33.9987
31.9551
30.5365
29.6579
29.1495
28.8148
28.5144
28.3236
28.0873
27.9312
27.7915
333.809
120.616
89.3087
63.1949
57.3114
48.8603
43.7199
39.0836
35.799
32.4723
30.3768
28.8503
28.167
27.7269
27.3875
27.125
27.0273
26.916
26.8322
26.8114
212.565
129.602
93.2228
65.0553
56.9633
49.8011
45.6278
39.8835
36.7776
32.4581
29.8257
27.6892
26.9052
26.3959
27.6187
26.187
25.6157
25.4003
25.289
25.3256
201.37
129.522
87.8242
59.2339
51.3934
47.6538
46.6292
41.1632
37.4199
33.6585
29.9
27.5402
26.2614
25.8649
27.1489
26.7563
24.8506
24.1951
24.0512
24.1934
175.048
132.717
87.5389
57.1019
48.9407
44.751
44.9474
41.4614
38.2524
34.5099
30.7536
27.3802
26.3794
26.8061
28.2387
27.0496
24.628
23.8721
23.8276
24.0168
249.02
165.744
88.9507
54.0992
44.9939
41.9618
42.4672
39.0407
36.9174
34.2776
51.6941
42.0014
31.5411
29.9746
29.9147
27.748
24.9741
24.0013
23.8792
24.0267
353.621
216
135.76
61.1704
46.1696
41.3346
42.6682
38.4945
36.5672
35.2187
35.6051
38.5938
38.6816
35.4414
30.4703
27.2391
24.5225
23.4428
23.2328
23.3552
157.504
205.832
155.726
68.559
51.0642
42.457
40.7343
39.4548
36.5374
36.3306
36.9007
38.306
40.1263
39.5331
28.3685
24.6086
23.1866
22.6528
22.4816
22.5553
415.109
218.333
108.456
65.0762
53.2835
42.8684
38.3042
32.3573
30.4108
27.1468
28.1514
27.5289
27.3362
25.5694
24.072
23.2152
22.9892
22.7227
22.6477
22.6018
243.427
187.205
107.255
66.9757
55.3503
43.4585
39.2812
33.4593
30.0082
26.9821
26.0872
25.2043
25.2306
25.0474
25.0919
25.0984
25.2081
25.162
25.0457
24.5197
242.039
147.171
95.0146
64.2317
55.9641
43.3184
39.1843
32.853
30.537
28.1022
27.4753
26.886
26.9943
27.2399
27.6424
27.8422
27.8649
27.6843
27.4247
26.6978
200.138
150.795
97.5392
63.3421
53.0691
40.771
37.749
32.3192
30.9725
29.0442
28.7016
28.2889
28.3834
28.4928
28.6112
28.6067
28.5109
28.1916
27.9198
27.2319
225.922
194.867
137.895
78.9467
59.1875
43.5863
39.6408
34.3705
32.3799
29.9391
29.2372
28.4196
28.3524
28.2427
28.2605
28.2178
28.1396
27.9308
27.7244
27.2255
154.154
134.785
96.7725
63.4301
54.5573
44.6589
42.631
38.67
36.1071
33.8483
32.0802
31.0918
30.288
29.9042
29.5601
29.3546
29.1938
29.0477
28.8392
28.9263
64.0358
93.337
92.2005
77.5941
64.0081
54.7957
49.3536
44.5928
40.5434
36.4188
33.0534
30.1231
27.9294
26.1186
24.8125
23.7278
22.9163
22.4829
22.571
23.0688
92.84
120.359
119.171
98.1175
68.3961
50.3754
42.9613
40.4099
38.3473
36.1554
33.7073
31.0649
28.5301
26.4409
25.0427
24.1174
23.6027
23.324
23.2801
23.4105
257.615
137.553
116.892
70.3892
82.5526
61.874
70.2509
62.3849
67.1965
63.6203
64.9223
61.7174
61.3847
58.8063
58.1306
56.4179
56.0569
54.879
54.5981
53.6903
214.845
175.927
151.353
87.7493
84.4961
63.1812
66.5264
56.6907
59.7553
55.3737
57.2294
54.9218
55.5501
53.9092
53.8288
52.5415
52.243
51.1993
50.9945
50.3268
227.897
186.611
162.41
93.6592
86.0098
59.5465
62.3984
51.8484
54.674
50.377
52.4651
50.8101
51.7715
50.7194
50.8803
50.0964
50.1007
49.4748
49.3603
48.9324
346.973
144.777
121.478
77.7287
79.4481
58.6979
62.1024
51.5979
54.014
49.2327
51.0719
49.2457
50.2471
49.2131
49.4841
48.7646
48.7972
48.233
48.153
47.9771
161.019
131.789
112.715
73.0999
80.5025
59.4919
63.2171
52.9872
53.1182
48.931
49.5353
48.2139
48.4064
47.7219
47.5859
47.041
47.1103
46.8633
46.9012
47.0601
243.64
132.886
102.004
68.789
76.4498
57.5282
57.9419
49.9253
50.1984
46.1263
47.313
45.9125
46.5799
45.7861
45.7196
45.2918
45.5418
45.5096
45.609
45.9882
335.485
133.589
112.496
69.2064
80.2522
64.5824
58.1669
49.8632
50.4119
45.6415
46.5296
45.0646
45.6397
44.8953
47.6485
44.6033
44.0671
44.0136
44.0517
44.4498
268.032
135.416
102.86
65.4933
67.7977
60.7506
63.2795
54.1349
53.5106
50.0993
49.6851
49.2835
49.8657
49.7079
51.0497
46.0964
43.1825
42.8142
42.7971
43.2821
190.285
155.959
111.907
67.3414
67.5374
56.2538
61.7746
60.525
57.9751
53.298
49.4474
49.247
52.9311
53.5933
52.7109
45.9589
42.7614
42.4176
42.419
43.0267
268.639
173.912
107.494
65.6237
59.9131
50.4721
55.946
59.8751
59.24
52.6885
49.0807
47.6346
53.0719
54.4387
53.0764
46.2726
42.9126
42.4358
42.4244
43.0297
262.81
252.074
168.332
76.0354
67.8475
52.0638
59.7533
58.635
58.7323
57.9199
56.8878
56.4193
56.2401
53.8988
53.1854
46.6351
42.7534
41.8764
41.771
42.1723
344.417
301.682
196.608
81.0597
78.2533
59.8119
55.2842
48.876
52.3427
50.7904
53.7917
52.4904
50.8059
47.3077
47.6117
43.5538
42.0212
41.3429
40.9996
41.11
251.663
190.852
128.24
69.7336
78.5891
54.7771
57.9753
46.6532
45.4855
39.6092
42.5662
39.6719
42.6742
41.3422
42.3971
41.2604
41.4475
40.9374
40.8959
40.8055
306.085
168.495
127.439
73.1133
78.2845
53.7698
60.6361
45.993
46.392
40.2849
41.441
39.7377
41.7525
41.8602
43.0315
42.8952
43.3098
42.9345
42.7965
42.1633
205.313
135.997
108.47
67.0553
79.4315
54.2656
62.1056
47.5685
51.1191
43.816
46.4148
43.3707
45.9761
45.1516
46.8166
46.15
46.4599
45.7057
45.5133
44.5873
199.446
151.27
120.259
71.3016
76.872
51.7411
60.5195
45.5212
51.7311
44.6632
48.3624
45.5268
47.9618
47.0252
48.2416
47.5262
47.6679
46.798
46.5245
45.5933
210.241
193.035
158.938
84.8721
86.5168
56.0314
65.0918
50.2417
55.9322
47.9348
51.2788
47.2959
49.5797
47.8152
49.0851
48.0646
48.3986
47.5582
47.4361
46.9224
193.984
154.983
124.997
77.6081
84.8556
57.9032
70.2487
54.2161
61.4278
52.4976
56.0601
51.4114
53.4071
51.2741
52.3655
51.3214
51.7502
51.2019
51.315
51.6239
134.349
121.846
94.1365
74.1703
61.6158
52.4218
45.8904
40.6268
36.0024
31.7663
28.769
26.3909
24.8941
23.655
22.973
22.3308
22.0124
21.9705
22.3988
22.2634
33.3493
34.131
81.7982
34.0229
31.3414
34.1394
90.238
29.9203
81.7891
60.5753
30.4892
27.5866
91.9953
66.3912
71.3394
32.3893
34.2353
33.0709
76.7194
33.5022
35.8589
57.9975
37.078
41.9933
76.6522
62.3036
38.8417
43.4575
271.163
301.786
242.263
90.2015
80.8765
78.6985
71.4326
213.267
232.103
187.977
75.8601
66.0666
68.7779
64.9189
184.088
178.411
185.263
63.9302
58.3688
61.7776
51.6875
180.474
195.17
200.268
56.798
53.8783
49.7646
47.1448
150.959
199.008
185.174
51.7243
44.2315
46.9951
48.305
138.433
176.828
144.339
42.1264
35.4212
48.293
39.4004
137.179
140.896
134.7
33.2796
29.2466
35.0814
27.9377
119.947
131.733
112.969
28.4018
26.0438
26.8969
23.9645
233.801
284.997
220.493
75.6048
69.2547
71.1891
62.5633
182.564
209.516
202.432
67.1467
63.4179
60.2539
53.581
198.559
204.636
220.8
59.812
49.9872
51.1989
45.5023
210.617
222.363
216.364
48.2559
46.5036
44.3965
43.8249
188.606
211.474
163.664
46.6068
48.8745
44.3553
44.622
143.623
149.298
132.897
48.6788
38.5886
42.5579
33.5621
131.62
127.478
114.292
34.5873
27.8016
31.6879
27.6412
111.633
112.078
95.0382
26.7341
23.8441
27.0157
24.8134
217.583
253.19
204.005
67.8347
59.5687
68.1757
58.7472
208.292
202.71
212.778
57.0793
50.4612
54.967
47.2327
223.154
218.378
226.791
48.5417
44.1737
45.8613
43.3658
214.784
227.147
222.32
43.2492
43.0775
42.7908
42.1199
156.978
217.814
185.037
43.798
44.2173
42.2194
44.4669
127.133
157.557
122.787
42.2985
33.3969
45.2643
38.0631
113.975
124.945
145.491
31.5539
28.3505
35.1086
32.4944
96.3919
151.046
143.476
28.0616
25.8568
32.2868
32.7589
203.388
265.008
191.276
66.0876
59.5046
70.9589
61.2232
210.443
177.496
180.363
55.9149
47.9662
57.2803
52.6663
225.024
184.014
192.719
46.5854
44.1376
51.0966
46.1896
224.853
198.942
217.321
43.5859
42.4878
44.9866
43.6466
208.776
220.278
223.453
42.4653
43.3468
43.353
42.3161
126.379
223.009
198.053
44.8909
44.2016
42.2161
44.5824
168.98
166.812
144.204
38.9135
34.4281
44.7872
40.5527
159.524
162.028
180.388
34.3082
33.9979
39.6632
42.3312
67.8533
64.8319
62.5809
51.802
50.0385
49.7927
48.5984
58.4536
60.8976
57.9423
48.4114
45.3391
47.6669
45.2028
52.0573
55.4401
47.0722
44.2501
40.8588
43.7359
38.8479
46.9936
45.2417
42.4436
39.6851
35.2556
37.5551
34.8621
38.3285
42.1706
42.3758
33.5175
29.2347
34.2513
31.716
30.5026
41.8895
32.7515
27.8809
24.2622
30.0236
24.5422
25.5442
29.6674
24.4838
23.3807
21.6676
23.2332
20.9329
23.7122
23.6906
21.9844
21.324
20.6937
20.5176
19.558
60.9252
58.9964
55.0253
49.0799
47.9034
46.4299
43.9833
56.6927
53.4364
48.2188
47.0199
44.4269
42.9407
39.6474
45.4776
46.1488
40.8441
42.8767
38.0596
38.4039
34.9291
41.7902
39.7726
39.4932
36.8515
34.7244
34.4989
48.9782
42.775
40.1862
39.9957
34.3634
32.0638
49.7981
44.144
32.3329
37.8517
29.9264
30.1891
24.5275
39.0947
28.1143
24.4163
28.3515
25.5116
23.2475
20.9982
26.8425
25.0566
21.9096
25.0294
23.3529
20.5821
19.542
24.3475
22.0997
52.599
58.1904
52.2383
45.8661
42.6791
46.9506
42.5626
45.4014
49.194
42.4985
41.4136
38.011
40.5803
36.3411
39.5088
41.1678
38.6025
36.904
34.0653
35.4255
33.3425
38.7139
37.9782
37.372
33.2579
46.2999
32.776
33.5479
39.7074
37.5656
39.6104
47.3837
44.4781
35.4032
38.6191
30.401
39.9714
35.666
41.5108
32.9658
38.9184
39.056
27.0212
34.2604
31.8781
31.5177
27.6068
37.8778
32.3504
24.6615
31.3451
31.8128
26.4707
23.0487
31.3105
29.2621
52.7036
56.4465
53.674
45.1952
42.5065
44.6381
42.747
43.1479
51.0579
47.5919
40.7678
36.7564
41.7125
40.35
39.314
46.05
41.6141
35.8858
33.8831
39.0847
35.7317
37.6275
40.5727
39.2518
33.2788
32.8282
35.0347
34.2059
38.7762
38.9536
38.1076
33.3401
35.8944
34.0005
33.6831
39.4982
38.109
40.3131
36.7426
38.1543
33.8461
36.2362
33.6969
40.7173
38.7387
37.8747
34.4325
37.1135
38.0029
33.0633
38.2264
41.0543
33.6047
31.2261
38.1767
40.1278
47.1762
47.4044
46.1207
46.0074
42.7594
45.0342
42.5651
42.7513
45.1642
42.6928
41.2709
38.4691
41.4839
38.9789
38.5294
41.3986
37.1857
37.4858
34.742
37.9935
34.9894
33.0693
36.0198
33.3145
33.6108
30.2673
34.0078
31.1426
27.8153
32.5888
29.5989
29.3141
27.0333
30.2408
27.4651
23.6576
28.0547
23.6896
26.3568
24.837
26.5665
24.7299
21.574
22.6905
20.9301
24.536
23.9734
24.4224
24.0162
20.7572
20.5954
19.7716
23.8462
23.5827
23.9198
23.7143
45.5602
44.3889
42.1429
44.3417
42.2158
42.1631
39.8715
42.0687
41.1427
38.2193
41.2087
38.8072
39.0536
37.0684
36.6481
37.171
34.2177
37.8893
34.9921
36.4265
34.2157
33.7383
34.6366
34.9507
34.6284
34.303
33.7301
34.2034
32.0774
32.2083
33.577
31.6324
33.0513
30.8351
32.8307
23.7189
47.9434
29.2768
26.6059
24.6861
50.1196
30.2708
21.0134
27.6582
25.4425
24.4177
24.1455
28.936
27.4786
19.7739
24.6369
22.2943
24.0747
23.8472
27.0229
25.9337
41.0778
44.9583
40.9384
42.1363
39.259
42.9347
39.0962
36.8931
39.1594
35.5356
38.3556
36.4117
37.8229
35.6677
33.5741
34.7574
32.8861
35.8413
34.0356
35.2451
33.9526
47.1688
51.3489
32.9899
38.1533
37.6882
237.116
33.3289
100.117
67.6311
61.3301
185.545
61.1973
165.954
99.6607
35.7705
42.6415
40.6894
52.3639
33.6451
43.2343
37.8296
27.7789
38.0899
32.4355
31.5663
28.7122
36.501
33.4011
23.1402
31.381
28.5653
28.0216
26.3685
32.3112
28.5323
40.804
42.2986
40.9719
41.8732
38.9634
41.1114
39.2409
35.8813
40.1295
38.9944
37.7877
35.8135
38.6068
37.7264
33.3863
37.8778
34.9211
35.4215
34.3706
36.8348
35.0946
32.6681
34.3953
33.8177
33.89
33.9367
34.9099
34.9286
36.9554
33.6378
33.5068
34.9103
38.2818
34.903
35.2019
38.9925
33.7562
36.4234
38.99
38.608
35.7396
38.7147
34.6963
37.3284
38.4718
38.0962
35.7862
39.3951
40.0101
30.6807
38.6899
39.994
34.6883
29.978
39.8262
36.3347
42.6583
45.7802
42.809
56.7604
49.6188
56.7837
53.3137
38.3546
41.6687
39.1338
48.2689
46.6822
52.0414
49.5318
34.7443
38.2121
35.3989
46.3368
43.5443
48.8047
45.4695
30.6561
34.423
31.515
42.6534
41.3137
44.2207
41.3198
28.0593
30.6326
28.1924
41.2828
40.5137
40.7283
39.8945
26.4354
27.5206
26.5019
40.3435
40.0957
40.0562
41.5297
25.9434
26.4478
26.5416
40.2438
40.1644
41.9683
42.4882
25.4124
26.5473
26.2254
40.1063
39.4639
42.4747
42.2783
42.4895
42.4949
40.3463
54.8045
53.3111
50.4443
51.714
39.0994
39.6241
37.9127
52.3417
50.1313
51.6344
50.6686
35.4949
37.3362
35.0836
49.3146
45.3021
49.7557
44.5745
31.6339
34.4879
53.0777
43.7401
40.1822
42.8603
40.6053
28.1335
54.739
47.5237
39.4513
38.3247
40.3084
38.1719
26.3503
40.5948
30.226
38.4593
40.9153
37.7609
40.2251
26.7435
29.6715
29.4645
41.7209
42.7324
41.7322
43.8066
26.4501
29.2739
28.3107
42.7328
42.4264
43.7984
43.239
39.8075
43.3826
39.655
49.725
51.2067
51.6152
51.1295
37.4201
38.5416
36.7973
51.2392
50.6011
50.7243
50.1401
34.9537
36.4696
35.2745
49.8011
44.8381
49.9414
47.5943
50.2114
34.7317
35.9821
43.1652
41.7381
46.3864
44.6336
47.1132
37.9769
40.6
41.5878
39.2848
44.6606
44.7085
32.4721
40.4139
37.562
38.8855
41.0962
44.8995
46.1073
30.3791
36.8794
34.4818
42.4292
44.0464
46.2367
45.1723
28.6296
33.4221
29.7891
43.9985
43.3776
44.5958
43.3831
39.5684
42.1103
39.8518
52.5231
51.0618
52.0352
48.0065
36.8612
39.1437
38.1876
50.3745
49.6542
47.0065
46.3436
35.695
37.392
36.1523
49.6756
48.5353
46.8822
47.4538
34.9617
36.0657
36.1701
47.6955
46.2417
47.3522
47.152
38.0082
36.1612
36.5659
46.1893
46.5296
47.6188
47.9661
38.88
37.1473
39.8122
46.8268
47.6132
47.9524
47.3863
36.6092
40.2813
40.407
47.5446
45.7407
47.1899
45.5128
30.7632
39.894
34.9151
44.9435
43.4436
44.4
40.7806
55.2679
63.9639
61.0983
85.4806
80.8954
91.2123
95.1586
53.5681
59.9096
57.7764
78.6477
84.8055
94.4872
94.8482
50.9347
57.2292
54.5862
85.7163
86.2312
95.4137
99.0909
49.3598
53.5215
51.1963
84.9956
89.1458
100.323
103.972
49.2427
50.8297
50.1351
89.9521
90.9892
105.03
105.46
49.4266
50.2697
52.3621
90.7358
92.4359
104.612
98.8096
49.6915
52.9591
53.2686
92.8201
92.4299
97.7908
96.3005
48.3621
53.2302
52.4426
92.3894
91.3392
96.2919
97.5528
61.3442
56.9795
60.0552
91.5384
97.9873
87.6005
101.081
58.662
60.2234
59.7197
97.7074
97.7216
101.996
104.092
54.7629
59.12
54.4077
98.5575
104.041
106.241
114.852
50.0163
52.1691
48.0861
105.618
109.698
117.259
122.978
48.8871
47.559
45.9956
110.752
111.499
124.596
125.482
51.8079
46.5171
50.7606
110.309
101.963
122.93
108.238
53.6464
52.7377
54.5465
99.42
96.8045
103.275
96.9789
52.5445
54.4408
53.0559
96.6063
96.6301
96.645
97.4289
59.5523
58.3461
59.4505
88.5089
101.46
94.3525
102.479
59.7393
59.2529
59.1766
102.556
105.043
102.696
104.652
54.8936
59.1247
57.9978
107.327
116.456
106.013
112.688
49.4809
56.9563
55.1482
119.269
124.773
114.704
118.818
47.15
55.0807
54.7197
125.86
125.327
119.813
118.096
51.2953
54.7054
55.1572
122.503
107.771
115.309
102.477
54.5563
55.294
54.2993
102.828
96.6046
99.0531
95.5732
53.101
53.9322
52.8124
96.3244
96.3258
95.6208
98
59.1619
59.0443
53.7317
102.852
101.184
93.373
81.9976
58.431
52.8189
53.0967
100.806
103.433
81.6162
93.5662
58.3517
54.5543
55.32
104.413
109.269
96.9038
95.091
56.9031
55.1682
55.3646
110.973
114.67
94.7368
100.819
56.5052
56.3506
56.4438
115.752
114.182
102.891
100.473
56.4024
56.1744
54.6094
111.882
100.97
99.543
99.4203
54.4325
54.3921
52.2709
98.8906
95.5961
98.6769
94.1527
52.7456
51.381
48.6911
95.6701
97.4506
93.7396
97.2871
33.6151
33.9327
33.8715
32.3026
34.0621
32.9851
33.316
38.5256
34.2955
50.3801
38.0434
35.4822
34.0287
179.549
44.3078
39.6821
71.4224
211.868
38.4452
44.7011
231.428
33.3433
34.0971
33.0632
33.8926
33.1815
33.8354
33.1538
33.1757
31.605
32.1906
32.2495
32.3797
32.7588
32.7699
38.7351
38.6302
33.7605
51.9827
33.8665
182.162
35.1044
44.6593
208.559
39.6756
78.1204
44.9177
229.863
38.493
31.047
31.2911
30.5952
28.4888
32.1495
29.8047
29.4794
42.1862
39.5147
79.874
195.342
38.8048
43.6932
179.956
40.8099
34.644
72.7224
85.9257
37.5461
36.1788
119.227
31.2692
30.8216
29.5766
31.5594
29.9304
32.1293
30.6936
30.2359
27.7153
28.6066
28.4818
28.8989
28.7928
29.7081
42.3486
191.123
39.4154
91.5406
43.7685
175.587
38.6521
40.7094
88.0701
34.0739
84.4597
36.1489
118.248
37.305
75.5844
67.4522
58.2568
206.3
49.0934
225.206
94.0632
33.991
32.4524
32.3702
32.4037
33.1615
32.5598
32.4861
38.6248
40.9414
32.788
35.3219
35.6786
46.7166
33.1955
47.2325
39.0557
52.8361
33.8499
227.101
33.6182
38.839
76.5555
200.756
70.2919
61.365
224.704
94.0148
51.2532
34.3901
32.7683
33.505
33.519
32.9075
32.8669
34.3374
39.2593
35.8967
43.3281
34.0588
47.5721
33.6303
37.3334
97.074
66.3336
57.5694
98.276
60.4487
143.07
88.5444
59.3362
45.9395
39.5491
39.0196
48.6773
54.4077
42.2918
60.9666
49.3031
41.1458
45.9501
49.2169
61.2296
44.5878
98.1036
174.928
75.0702
66.0324
151.475
98.4129
66.7948
94.9218
93.869
72.7911
62.738
123.957
86.4094
66.4878
60.1229
39.6506
48.7781
41.2986
55.3549
42.8968
51.753
61.5432
46.2
52.5245
42.9467
61.5284
45.1775
52.7479
174.521
203.997
174.998
115.628
95.3935
115.913
97.2804
140.096
154.793
139.657
80.6006
75.0957
83.0503
75.2247
120.645
127.95
120.756
68.7798
66.4084
69.4744
65.9072
107.888
116.323
110.344
63.801
60.4161
64.7995
63.089
95.5034
102.161
94.3554
56.8956
52.5589
57.7755
51.829
91.3351
89.1271
87.9621
46.2311
43.0653
46.3976
41.1137
90.8266
87.7786
87.2115
40.9114
38.4582
37.7653
35.2953
84.4814
86.2255
78.3015
37.5878
32.4904
34.2605
27.0364
199.769
197.349
182.965
114.416
100.97
109.242
91.1609
159.429
317.305
331.723
180.878
168.735
178.583
299.444
109.615
242.133
239.351
129.681
121.587
118.572
228.985
90.4447
192.574
185.702
104.764
102.158
94.7822
177.8
79.5287
183.894
177.318
91.8579
89.7387
81.209
180.512
76.4614
165.743
177.591
87.0836
84.5325
78.2869
171.386
69.9492
141.227
154.202
71.4355
68.7492
69.8171
148.65
58.0548
138.713
139.228
62.5313
59.5569
62.6362
139.195
48.8438
135.194
136.244
54.7255
53.0625
50.102
134.129
80.1739
82.8259
72.5758
30.5075
27.5413
27.9385
22.7198
178.265
192.499
177.45
105.65
86.5039
104.387
84.5175
137.488
266.374
288.974
159.461
139.274
158.445
259.322
98.8953
211.781
213.056
106.399
102.385
103.989
199.163
78.684
179.527
182.52
86.6059
80.3048
82.3549
185.91
78.0976
211.044
215.852
77.3892
77.5087
78.1021
217.757
80.0517
203.7
212.615
78.2067
79.2332
78.8381
206.206
77.8573
163.622
172.189
81.3478
80.875
80.7118
158.068
56.6362
138.101
138.716
65.1161
58.7043
61.1714
135.356
44.8804
124.761
123.111
48.1906
46.1208
47.1548
119.691
69.8116
70.4279
61.1993
26.8418
22.6337
26.3938
21.1373
169.93
166.826
157.1
93.6969
78.8388
90.2012
78.6884
124.17
244.973
266.82
149.896
126.923
148.44
237.428
82.7545
207.686
206.255
91.1713
86.0762
87.4181
206.124
78.4291
217.022
215.49
79.5354
78.9987
78.6352
220.038
77.296
223.102
224.41
77.7181
77.4318
77.6615
223.75
77.1055
198.648
210.67
77.7065
77.607
76.549
199.395
66.0257
134.276
138.76
70.3904
64.5301
72.2179
128.591
47.2234
119.387
121.924
53.7244
49.4788
51.1511
119.945
44.4903
111.364
118.441
43.5704
43.3906
44.1205
118.75
59.2674
82.8865
68.0028
29.177
22.5526
33.7273
27.8701
146.799
152.469
147.07
79.3811
72.6099
85.5581
79.4703
123.404
226.077
243.443
133.24
119.279
133.817
222.01
88.3619
202.343
191.575
89.3266
83.8422
95.2392
192.956
79.3292
220.228
207.815
79.3786
79.2869
80.3218
211.961
78.7103
226.036
220.438
78.9581
78.8206
78.7129
222.335
77.9211
219.09
223.355
78.0162
77.5208
78.1388
222.301
80.1227
158.968
211.727
79.2467
82.1917
77.2758
195.261
60.198
138.757
132.49
58.2393
52.4576
74.8305
136.837
58.917
175.433
190.379
53.6991
54.8592
57.2735
195.739
77.9086
116.715
87.6722
39.1686
32.2081
46.7284
42.0772
127.896
152.453
128.372
86.3698
70.8718
87.2931
69.4851
119.88
124.454
120.035
62.4806
61.1811
63.6391
61.1135
119.974
113.162
110.676
58.1642
53.6021
56.7818
51.0974
127.849
112.215
113.868
52.126
52.1758
50.8457
51.5676
134.372
115.541
117.655
52.0537
51.6234
51.1629
50.4866
132.353
119.856
119.936