/*--------------------------------*- C++ -*----------------------------------*\
  =========                 |
  \\      /  F ield         | OpenFOAM: The Open Source CFD Toolbox
   \\    /   O peration     | Website:  https://openfoam.org
    \\  /    A nd           | Version:  10
     \\/     M anipulation  |
\*---------------------------------------------------------------------------*/
FoamFile
{
    format      ascii;
    class       volScalarField;
    location    "8.7";
    object      omega_0;
}
// * * * * * * * * * * * * * * * * * * * * * * * * * * * * * * * * * * * * * //

dimensions      [0 0 -1 0 0 0 0];

internalField   nonuniform List<scalar> 
12920
(
191.04
155.331
151.027
145.528
138.054
132.074
127.326
114.912
91.0176
70.1906
60.4427
58.3459
57.8372
56.87
54.4875
50.9807
47.0258
41.838
38.7405
35.5528
144.103
218.242
191.955
173.414
150.973
125.508
108.682
99.3391
87.6842
76.823
68.3563
63.7209
60.5923
58.1529
55.4231
52.4894
50.8758
50.4767
50.6627
51.2735
65.9398
155.02
181.635
185.059
173.115
133.407
100.804
87.7843
78.3571
70.9685
64.6322
60.7695
58.1796
56.7945
56.252
56.2919
56.7338
56.8965
56.8311
55.9656
49.919
173.549
204.714
199.032
159.775
118.152
95.2386
85.4947
77.3733
71.3092
65.9787
62.5685
60.2162
59.1132
58.6139
58.4434
58.2769
57.8585
57.469
56.1097
166.452
179.523
181.825
177.235
147.206
117.633
97.725
88.2226
79.4753
73.0362
67.2919
64.6301
62.915
62.0542
61.3001
60.5989
60.016
59.0481
58.4217
56.6727
112.653
117.976
125.981
150.218
149.184
132.616
109.065
94.3939
81.3349
72.4935
65.9869
63.3914
61.7608
61.0358
60.2986
59.5685
58.9417
57.811
57.1907
55.579
222.946
222.18
176.104
155.797
139.275
128.066
107.013
91.0017
77.9473
69.6804
64.6999
62.2029
60.2764
59.084
57.8425
56.9002
56.1303
54.9968
54.4522
53.0471
276.305
265.159
244.289
195.66
151.912
131.735
204.49
155.321
130.394
113.97
102.867
91.8468
91.5773
90.2818
56.0798
53.393
51.7644
50.5905
50.0677
48.566
109.958
267.248
263.913
190.373
139.784
216.086
352.02
259.964
204.961
184.925
174.393
146.052
139.061
136.857
85.9162
49.3675
46.6544
45.0511
44.3186
42.3933
104.24
221.676
204.839
150.162
128.016
194.212
293.227
224.662
178.82
208.297
208.65
176.824
140.23
127.996
76.92
43.2044
40.6709
39.118
38.0797
37.8229
186.447
241.866
179.6
132.011
116.134
180.536
273.369
210.237
211.813
223.879
209.365
141.059
122.831
112.773
70.8482
38.9021
37.0151
36.6096
36.6356
37.1074
289.168
209.808
166.829
117.786
102.493
148.735
246.312
201.927
216.631
226.264
222.336
188.986
127.875
174.376
102.104
43.5546
39.4907
38.373
37.6517
37.2745
184.655
272.281
220.317
141.818
111.432
100.362
147.882
121.448
119.086
124.45
132.077
134.862
121.263
113.115
56.6867
44.9773
40.2692
38.5831
38.0394
37.6581
191.831
268.794
248.542
184.392
136.355
111.588
89.2125
74.6014
65.5916
57.681
58.6114
58.7784
57.6627
51.6058
46.0433
43.3205
42.0833
41.6745
41.7324
41.3235
144.361
286.911
277.929
235.798
182.06
142.922
105.608
85.2366
69.8113
60.5526
55.1895
52.9603
51.685
50.1503
49.659
50.0189
50.7865
50.9417
50.8963
49.5603
360.707
275.438
244.869
209.039
167.986
129.687
99.4374
79.2128
66.6949
59.9695
56.2696
54.9726
54.3189
54.4813
55.3315
56.2017
56.5129
56.3873
56.0667
54.3032
250.956
222.4
196.206
155.096
127.543
104.763
85.6725
71.1768
61.4771
57.0963
55.0681
54.4113
54.0845
54.1121
54.3271
54.4084
54.3101
53.5342
52.6983
50.4347
355.302
248.265
215.385
165.728
126.555
99.569
79.7779
68.7312
61.2845
57.7621
54.4531
52.698
51.1499
50.2264
49.4485
48.5344
47.6168
46.0911
45.342
43.7555
159.324
151.748
157.082
137.776
108.172
92.0503
79.6129
73.4407
68.6461
66.5966
62.4223
59.437
55.798
53.6685
51.6623
50.5393
49.3856
48.1669
46.6239
42.5297
34.7887
102.766
124.441
119.679
102.687
90.6036
78.4451
70.4226
63.4952
58.683
54.1928
50.4367
47.1092
44.3036
41.9437
39.9222
37.7497
35.1914
34.1953
32.4713
54.3822
73.1731
82.7537
79.3666
69.1973
60.1228
51.6996
43.4914
36.7005
34.0656
33.7927
33.3651
32.1234
30.3195
28.32
26.3194
24.722
23.023
22.1102
20.9628
177.693
148.902
107.911
98.0674
89.6008
84.1717
77.6838
69.2724
58.0937
48.2768
41.4172
38.3882
36.9269
36.154
35.4227
33.89
31.4801
29.0418
27.7795
27.8138
151.03
123.646
117.816
109.363
94.6246
76.5944
60.2119
49.8433
42.6797
38.0612
35.2002
34.1118
33.7123
33.5643
33.2198
32.2979
31.0215
29.7844
29.1795
28.8474
104.657
138.113
132.884
108.771
81.4388
67.1762
56.1124
45.8
38.2662
34.1756
32.146
31.1141
30.5417
30.1532
29.9898
29.7351
29.4755
28.9879
28.7624
28.2898
218.276
197.981
147.1
103.635
79.3726
68.5547
58.8266
49.6847
43.2069
38.4216
35.7282
33.4132
31.8071
30.7228
30.1441
29.6954
29.4323
29.0014
28.7776
28.1928
141.559
121.209
118.016
115.128
89.4902
71.2051
59.3672
53.1868
47.7316
43.1599
38.3621
34.0841
31.0099
29.5103
28.9064
28.5889
28.4323
28.107
27.9241
27.4403
179.535
144.56
106.334
93.7922
76.8318
67.5839
55.8682
50.7639
45.6737
41.8785
36.5987
32.5226
29.4709
28.1173
27.4771
27.1114
26.9723
26.7008
26.565
26.2284
143.947
147.669
135.047
114.485
81.3703
65.4175
66.1568
59.2996
52.0886
48.7124
40.94
33.0931
29.0753
26.7889
24.0492
24.1683
24.1469
24.0594
24.0287
23.8785
165.567
186.001
143.706
93.2339
67.8361
66.7914
69.8098
64.9114
56.7712
50.6865
44.5584
36.3581
28.6836
24.8681
22.4179
20.9635
21.2153
21.2206
21.1962
20.9741
151.076
148.89
102.973
75.2838
59.9814
60.907
63.0013
59.6476
53.7716
43.7756
41.8954
42.0951
29.2635
23.5903
20.9235
19.3833
19.1621
18.8776
18.6985
18.7648
181.994
140.21
81.0681
65.0463
54.2147
56.5979
57.1332
50.8091
43.6608
38.5848
39.7346
37.6786
29.0431
26.6971
24.1054
19.7531
18.6584
18.405
18.4137
18.8061
307.242
119.469
83.3967
58.2514
50.3016
51.1522
56.3561
49.7958
41.8075
38.7143
37.6808
40.0105
36.8291
33.3218
34.0015
21.8715
19.4636
19.0856
19.1591
19.2784
135.615
156.398
111.972
68.0772
54.4698
49.0292
52.648
49.0746
44.8052
40.1807
39.8765
38.9578
40.4988
42.0231
38.4399
25.4434
20.9626
19.6188
19.1745
18.9074
143.479
151.455
119.972
83.5481
64.9998
58.1831
46.312
39.9798
34.1605
30.8454
31.073
33.0404
34.2784
32.1216
25.3028
21.6239
20.6434
20.3922
20.4288
20.4104
99.6336
150.533
127.007
107.931
93.5534
82.9108
60.9649
48.0714
38.8755
32.3344
28.6319
26.7355
25.9609
24.6972
23.7305
23.5991
24.0524
24.6609
25.1763
25.1415
215.22
166.854
130.42
111.47
92.8269
74.2151
58.1416
45.272
36.8366
31.7894
29.044
27.7179
26.9011
26.6174
26.7247
27.1021
27.8556
28.4011
28.9052
28.9586
235.403
143.45
108.476
88.5625
70.0044
58.1605
49.3241
40.6636
34.8778
31.3409
29.7153
28.8826
28.7442
28.4969
28.5379
28.47
28.5748
28.7272
28.9734
28.9112
209.679
165.11
115.373
84.6012
65.0813
57.2816
49.4298
41.6626
35.5597
31.4049
29.0976
27.7032
27.2873
26.9137
26.8386
26.6307
26.4926
26.3514
26.3483
26.1069
229.702
174.794
100.014
77.7816
63.663
58.5662
52.4377
45.7715
39.1848
35.0298
31.3665
29.4528
27.613
26.6612
25.7956
25.3093
24.9578
24.8939
25.0944
25.5974
32.4551
68.2329
78.4984
72.0622
58.957
51.0725
45.8281
42.0952
38.7086
35.8228
32.8661
30.5268
28.4359
26.8305
25.2994
23.894
22.7212
21.4726
20.85
19.8545
65.9405
78.6264
91.4732
85.0411
68.5925
56.793
48.0158
42.0477
38.6829
37.3526
36.1989
34.6735
32.7768
30.6545
28.5288
26.6407
25.0953
23.7622
22.9071
22.3636
154.435
103.04
90.6521
76.2895
65.1556
59.1984
52.1633
47.3432
41.2984
37.9074
34.8857
33.6465
32.3911
31.4972
30.3334
29.0941
27.7904
26.6589
26.0808
25.9154
140.433
124.168
117.259
98.8921
71.761
56.0107
45.1203
39.1218
34.4913
32.2718
30.6956
30.2961
29.9739
29.7228
29.111
28.279
27.4118
26.6476
26.298
25.8575
427.704
185.635
143.926
104.768
72.7799
55.1833
43.903
36.84
32.213
29.796
28.387
27.7864
27.3474
27.1409
26.8761
26.5856
26.2851
25.8988
25.683
25.2085
249.889
186.952
132.93
88.7762
64.7375
53.4521
44.9601
38.8442
34.6841
31.7882
29.7436
28.4144
27.4484
26.9272
26.5367
26.2292
25.9645
25.6029
25.3862
24.9009
183.803
172.105
132.085
95.0796
66.3044
54.2053
46.2386
41.9411
37.5614
33.9464
30.5388
28.2587
26.6432
25.8857
25.4595
25.196
25.0041
24.7295
24.577
24.2344
281.959
130.318
91.5747
71.5401
57.8915
51.3682
44.4358
40.4442
36.3502
32.6815
29.1095
26.6991
25.1685
24.4645
24.0859
23.8413
23.7136
23.5371
23.442
23.2221
126.844
136.163
106.865
78.3063
58.7273
50.3164
48.4898
43.6006
39.4987
35.1787
30.1793
26.0243
23.9938
22.8187
22.3993
21.9951
21.7926
21.6472
21.5881
21.4421
163.093
135.553
94.6624
63.6446
50.678
48.609
48.7747
45.6342
41.6934
37.3139
31.4843
26.5922
22.9319
21.2914
20.6679
20.5171
20.0045
19.7341
19.6374
19.5232
311.784
134.359
81.8897
57.5224
47.7529
45.4938
46.8806
44.6827
40.7332
35.5389
32.8263
28.1563
22.7018
20.6688
20.069
19.8822
18.9609
18.5178
18.4245
18.5271
422.376
153.075
75.7847
51.6453
43.6368
42.8914
44.0909
39.9059
35.9542
32.3451
69.9827
52.133
32.9595
26.5109
22.8236
20.5678
19.0982
18.5171
18.4346
18.6165
506.026
171.1
89.6269
51.5294
42.5081
40.9965
43.4484
39.2217
35.1444
32.8114
33.6201
38.1153
38.2624
33.8214
28.6461
20.9098
19.1613
18.5277
18.3836
18.4097
187.15
189.153
116.769
62.5147
47.1605
40.7779
40.6504
40.0872
36.6794
34.6875
35.0039
35.1175
37.9296
41.3289
28.6616
21.2427
19.0131
18.2741
17.9987
17.9011
182.82
157.346
108.71
69.5283
52.8878
44.9493
37.3504
31.8152
28.9956
26.4353
27.377
28.245
28.2377
25.2801
21.164
19.5169
19.0444
18.8575
18.8405
18.7307
131.375
155.626
113.605
77.0208
62.1782
51.8749
41.2562
34.9145
29.7719
26.0843
24.3434
23.2433
22.793
21.9823
21.5551
21.5598
21.8693
22.1227
22.2439
21.9447
364.296
187.325
108.449
77.5684
61.7795
49.5071
40.6319
33.5166
29.0504
26.4161
24.9529
24.2648
23.9348
23.9536
24.1912
24.5456
24.8496
24.9774
25.0045
24.6753
291.605
153.586
94.4791
66.4741
53.4339
43.3526
37.3324
32.0015
28.7372
26.8337
25.782
25.3964
25.2527
25.274
25.3335
25.4065
25.43
25.399
25.3465
24.9901
302.704
203.58
120.409
76.1311
55.6493
45.17
38.6097
33.7202
29.7035
27.2937
25.6434
24.9182
24.4854
24.4092
24.3189
24.3213
24.2939
24.2444
24.196
23.8316
175.605
154.487
96.3737
64.3151
52.6738
46.5405
41.6293
38.017
33.387
31.127
28.2885
27.1396
25.7498
25.2588
24.6431
24.4239
24.1852
24.1333
24.1645
24.19
61.5732
83.9313
89.2025
82.3088
65.3731
54.894
49.3454
45.2772
41.5099
37.9183
34.5727
31.8224
29.4581
27.4552
25.793
24.3811
23.296
22.22
21.6987
21.725
82.4505
109.105
109.52
91.8022
67.4358
53.4638
45.5811
41.6222
39.5511
38.0118
36.2699
34.0468
31.7323
29.3363
27.3152
25.683
24.5536
23.7956
23.4831
23.4324
172.471
112.6
100.518
68.2019
60.2806
52.1563
47.4485
44.4435
41.7501
40.1376
38.5691
37.3184
36.093
34.9437
33.8365
32.8241
32.1241
31.3932
31.0203
30.4799
213.382
165.505
143.266
95.2532
67.8557
52.3117
45.5021
40.1165
37.6134
35.7201
34.944
34.2924
33.8639
33.2739
32.6493
31.9112
31.288
30.6495
30.2852
29.7316
345.692
188.092
157.412
104.227
72.4396
52.6096
44.5203
37.9948
35.3596
33.0275
32.3063
31.6308
31.4009
31.0363
30.754
30.3548
30.0595
29.6453
29.3641
28.9126
273.798
151.585
117.801
79.186
63.5124
50.6159
44.8054
38.6715
36.1057
33.3729
32.226
31.2116
30.7598
30.3353
30.0509
29.6974
29.4406
29.0642
28.7939
28.4608
163.39
130.747
108.673
75.2174
61.8398
50.7167
45.7965
40.5608
37.1592
33.9439
31.9097
30.4975
29.6246
29.1201
28.7876
28.4892
28.2986
28.0631
27.9076
27.7669
310.748
121.561
89.5268
63.2907
57.2761
48.8642
43.6891
39.0463
35.7511
32.4226
30.3344
28.8144
28.1381
27.7021
27.3648
27.105
27.0073
26.896
26.8125
26.7888
222.937
129.475
93.268
64.9771
56.8909
49.728
45.5797
39.8401
36.7501
32.4126
29.791
27.6566
26.8789
26.3719
27.58
26.1601
25.5928
25.3783
25.2672
25.2986
205.335
130.211
87.9636
59.3061
51.4099
47.6427
46.6319
41.1293
37.3895
33.6141
29.8679
27.5178
26.2515
25.8603
27.1337
26.709
24.8145
24.163
24.0196
24.1588
174.346
131.888
87.4476
57.1749
48.9399
44.752
44.9744
41.4385
38.2241
34.4813
30.723
27.3558
26.3841
26.8065
28.2235
26.9975
24.5853
23.8363
23.7925
23.9806
254.177
164.201
88.5013
54.0695
44.9844
41.9983
42.4644
39.0222
36.9102
34.2712
51.7027
41.8237
31.5212
29.9657
29.9021
27.695
24.9289
23.9646
23.8444
23.9918
346.177
214.92
135.463
60.8505
46.0463
41.3355
42.6948
38.466
36.5689
35.2117
35.6773
38.6572
38.691
35.3886
30.403
27.1812
24.4761
23.4055
23.199
23.3214
161.596
208.484
153.886
67.6039
50.836
42.4042
40.698
39.5252
36.5567
36.3786
36.9459
38.3893
40.1934
39.5282
28.2831
24.5565
23.1431
22.6162
22.4479
22.5227
428.088
215.993
107.62
64.8928
53.1439
42.7883
38.2456
32.3224
30.3966
27.1441
28.177
27.5369
27.3338
25.5346
24.0386
23.1859
22.9592
22.6966
22.623
22.5764
256.117
187.856
106.408
66.5487
55.1443
43.3291
39.2009
33.3888
29.9589
26.9516
26.0742
25.1965
25.2258
25.0387
25.0791
25.0878
25.1979
25.1514
25.0326
24.5029
246.752
147.322
94.7077
64.0647
55.8379
43.1978
39.1003
32.7813
30.4882
28.0709
27.4534
26.8751
26.9846
27.238
27.6386
27.8353
27.8557
27.6713
27.409
26.6787
199.982
149.384
96.5073
62.8783
52.8531
40.6417
37.6771
32.2614
30.9409
29.0217
28.687
28.2816
28.3774
28.4884
28.6039
28.5981
28.4989
28.1765
27.9035
27.2127
214.049
197.278
137.41
78.487
58.8957
43.4004
39.5496
34.2888
32.3188
29.8981
29.1986
28.3998
28.3272
28.2286
28.2412
28.2028
28.1221
27.9144
27.707
27.205
153.586
135.277
96.026
62.952
54.3752
44.5403
42.5809
38.6064
36.0576
33.803
32.044
31.0672
30.2575
29.8825
29.5272
29.3263
29.1612
29.0177
28.8081
28.8946
64.132
94.3217
92.3859
77.0585
63.7646
54.6836
49.3043
44.5508
40.4998
36.3724
33.0141
30.0912
27.9058
26.1018
24.8009
23.7199
22.9133
22.4879
22.585
23.0846
88.1914
120.754
119.669
98.4913
68.3754
50.3196
42.9613
40.4315
38.3611
36.1591
33.7022
31.048
28.5084
26.4214
25.0284
24.109
23.6
23.3268
23.2866
23.4159
256.085
135.271
117.51
69.895
83.0365
62.1263
70.644
62.6799
67.5237
63.8321
65.1055
61.8154
61.4628
58.8399
58.1545
56.4232
56.0572
54.8592
54.5582
53.6707
226.625
176.926
152.107
87.6577
84.8893
63.4598
66.917
56.9667
60.0445
55.5677
57.4104
55.0366
55.6451
53.961
53.8649
52.5522
52.246
51.1832
50.9591
50.3074
235.184
188.128
164.078
93.9309
86.4768
59.7641
62.7187
52.0451
54.8939
50.5299
52.6148
50.9126
51.8583
50.7719
50.9179
50.1108
50.1066
49.4597
49.3248
48.9114
337.799
143.717
122.321
77.5984
79.8343
58.8884
62.3742
51.7852
54.1958
49.3566
51.1879
49.3228
50.3098
49.2485
49.5071
48.7678
48.7932
48.2107
48.1123
47.9515
159.276
131.488
113.569
73.1883
80.9212
59.6966
63.4693
53.1273
53.2488
49.0199
49.6142
48.2659
48.4414
47.7373
47.5894
47.0317
47.0944
46.832
46.8522
47.0258
235.749
132.847
102.653
68.4574
76.7877
57.6944
58.0234
50.0735
50.275
46.1912
47.3424
45.9266
46.571
45.7688
45.6981
45.2652
45.5118
45.4649
45.5481
45.9418
329.318
132.344
112.334
68.8831
80.4195
64.7814
58.1862
49.8836
50.3727
45.547
46.4098
44.9242
45.4825
44.7294
47.5743
44.5469
44.0169
43.9529
43.9754
44.3896
276.908
134.956
103.099
65.342
67.9505
60.9509
63.3638
54.0437
53.3474
49.8872
49.4534
49.0294
49.5998
49.438
50.7954
46.0021
43.1055
42.7332
42.7053
43.2078
189.652
154.701
111.564
66.993
67.4688
56.3151
61.8044
60.3329
57.7498
53.0367
49.2077
49.0356
52.6748
53.3205
52.4465
45.8288
42.6595
42.3145
42.3079
42.9358
264.845
173.203
107.064
65.3647
59.6388
50.5111
55.9128
59.6822
58.9992
52.449
48.8792
47.4155
52.8438
54.1932
52.8227
46.1106
42.7834
42.3087
42.2917
42.9188
261.616
253.181
167.192
75.3847
67.2264
51.9671
59.6269
58.4678
58.5374
57.6662
56.6052
56.145
55.9719
53.662
52.9259
46.4317
42.5931
41.7243
41.6177
42.043
349.985
302.203
193.916
79.7589
77.1065
59.0717
55.227
48.9447
52.3002
50.7235
53.6542
52.3168
50.6175
47.1221
47.392
43.3537
41.8352
41.1649
40.8224
40.9616
252.079
191.779
127.087
69.3952
77.879
54.2742
57.7013
46.1789
45.1992
39.2999
42.3593
39.4539
42.503
41.1499
42.2009
41.0633
41.2589
40.7459
40.7018
40.6404
291.303
168.025
125.176
72.084
76.9943
52.989
59.9482
45.3492
45.8946
39.8669
41.1185
39.4605
41.5145
41.6303
42.8063
42.6679
43.087
42.7083
42.565
41.9651
214.252
135.481
106.914
66.5858
78.5349
53.5481
61.4624
46.9048
50.5912
43.3167
46.0168
43.0029
45.6624
44.8493
46.5313
45.8688
46.1955
45.44
45.2466
44.3558
203.374
149.12
117.196
70.0267
75.3958
50.8564
59.6524
44.8182
51.1226
44.1252
47.9075
45.1105
47.5982
46.6796
47.9202
47.212
47.3724
46.5044
46.2323
45.3403
205.228
192.276
156.451
83.4218
84.9486
54.9085
64.1291
49.397
55.2339
47.2925
50.7549
46.8093
49.1663
47.4231
48.7313
47.722
48.0822
47.2449
47.127
46.6522
199.269
152.484
121.855
76.3483
83.2047
56.7587
69.2078
53.2812
60.654
51.7794
55.4718
50.8648
52.9452
50.8385
51.9785
50.9509
51.4092
50.8662
50.9844
51.3363
137.659
121.763
93.6226
73.8048
61.4212
52.3138
45.8236
40.5769
35.9534
31.7269
28.7432
26.3765
24.888
23.6542
22.9763
22.3362
22.0221
21.9829
22.4172
22.2723
33.3508
34.1565
82.4923
34.0013
31.3145
34.1567
91.065
29.851
82.3282
60.3073
30.4596
27.5457
92.5894
66.0535
71.0785
32.399
34.4118
33.0784
76.6261
33.5106
36.0523
57.8646
37.3088
42.1186
76.5276
62.0409
39.0759
43.5631
272.423
302.761
242.333
90.5617
80.9851
78.8603
71.4969
213.744
232.102
187.29
75.8737
66.1366
68.8438
64.95
184.96
178.162
185.923
63.9852
58.4196
61.6868
51.6364
180.866
195.628
200.315
56.8536
53.8975
49.7446
47.1891
151.061
198.998
184.904
51.6659
44.1751
47.0556
48.3896
138.822
176.315
144.123
42.0686
35.3285
48.3464
39.1193
137.456
140.9
134.651
33.1998
29.2275
34.8599
27.8784
120.17
131.671
112.947
28.39
26.047
26.8604
23.9554
233.846
285.284
220.132
75.7426
69.3316
71.2859
62.6358
182.17
209.098
202.445
67.2356
63.4296
60.3244
53.5856
199.446
204.866
221.199
59.6989
49.9389
51.1815
45.4842
210.71
222.652
216.334
48.24
46.5653
44.4014
43.8848
188.19
211.303
162.691
46.6814
48.9474
44.4476
44.6125
143.447
148.718
132.748
48.7076
38.3331
42.3769
33.4569
131.534
127.295
114.219
34.3877
27.742
31.6031
27.6143
111.639
112.033
95.0061
26.695
23.8358
27.0011
24.7941
217.393
253.529
203.926
67.9043
59.6183
68.2441
58.622
208.439
202.811
213.356
57.1264
50.4723
54.8493
47.2008
223.481
218.957
227.121
48.5389
44.1695
45.845
43.3742
214.761
227.421
222.237
43.2612
43.1467
42.8023
42.1603
155.894
217.762
183.356
43.8987
44.2095
42.2694
44.5884
127.041
155.911
122.896
42.122
33.2951
45.3252
37.8406
113.942
125.325
145.845
31.4787
28.3533
35.0223
32.5158
96.3407
151.179
142.717
28.0779
25.8371
32.3249
32.819
203.442
264.077
188.908
66.1451
59.3662
70.8808
61.143
211.086
175.516
179.257
55.7707
47.9187
57.2241
52.6361
225.437
183.115
192.409
46.5595
44.1483
51.0356
46.1507
225.017
198.744
217.321
43.5994
42.5204
44.9686
43.6565
208.243
220.221
223.372
42.5051
43.4555
43.3583
42.3268
126.32
222.891
196.167
45.0587
43.9797
42.247
44.6819
169.507
164.778
144.885
38.6924
34.4533
44.843
40.4857
158.629
163.701
180.256
34.3504
34.0686
39.6833
42.4882
67.8765
64.9427
62.6563
51.9009
50.0736
49.8633
48.6469
58.4928
60.9723
57.9642
48.4276
45.3769
47.7127
45.2094
52.0765
55.3852
47.0243
44.2703
40.8692
43.7157
38.8185
46.938
45.2178
42.4756
39.6809
35.202
37.5344
34.8633
38.2534
42.2205
42.4274
33.4599
29.1858
34.2571
31.6615
30.4131
41.8844
32.5554
27.8273
24.2238
29.9393
24.4683
25.5215
29.5153
24.4416
23.3504
21.6606
23.1776
20.9165
23.7126
23.6641
21.9776
21.3205
20.6981
20.5064
19.5555
61.0067
59.0811
55.1001
49.1789
47.9528
46.4957
44.027
56.7058
53.5094
48.226
47.0736
44.4296
42.9836
39.6568
45.4308
46.1325
40.8249
42.8528
38.0327
38.4013
34.9203
41.8437
39.7764
39.5454
36.8366
34.7399
34.509
48.992
42.8223
40.2539
39.9622
34.3817
31.9983
49.732
43.913
32.1481
37.6814
29.8368
30.0919
24.4542
38.8331
28.0271
24.3742
28.2859
25.4973
23.1937
20.982
26.8064
25.0482
21.902
25.0199
23.33
20.5707
19.5384
24.3327
22.0747
52.6469
58.2623
52.1428
45.9067
42.6952
47.0066
42.5118
45.41
49.101
42.4659
41.4364
38.0193
40.5323
36.328
39.5002
41.1476
38.6027
36.9047
34.0596
35.4181
33.3375
38.78
37.9822
37.409
33.2607
46.2809
32.7808
33.6491
39.6851
37.6169
39.6923
47.3272
44.3668
35.5565
38.6855
30.3219
40.0142
35.5758
41.3608
32.9137
38.9885
39.0869
27.0258
34.236
31.8813
31.4939
27.5822
37.8383
32.3167
24.6342
31.3647
31.8669
26.4456
23.0193
31.2973
29.2118
52.614
56.5136
53.7096
45.2956
42.4788
44.6677
42.7901
43.1037
51.0697
47.5944
40.7292
36.7399
41.7322
40.3457
39.3153
46.024
41.6082
35.8755
33.881
39.0688
35.7321
37.6572
40.5797
39.2759
33.2768
32.8705
35.0463
34.2241
38.8762
38.9741
38.1444
33.4192
35.9834
34.0173
33.7215
39.4063
38.1554
40.4221
36.8358
38.2115
33.9008
36.3489
33.7077
40.7841
38.7266
37.8994
34.4163
37.209
38.0592
33.123
38.2643
41.2146
33.6014
31.1976
38.2401
40.2033
47.1979
47.4654
46.1574
46.0418
42.7542
45.0511
42.5605
42.7739
45.1981
42.6967
41.2567
38.4658
41.4811
38.9679
38.527
41.3823
37.1601
37.4739
34.7243
37.9743
34.9651
33.0165
35.9995
33.3066
33.5778
30.2356
33.983
31.1174
27.7719
32.5816
29.541
29.2834
27.0119
30.2146
27.4316
23.6287
27.9824
23.6365
26.3348
24.828
26.535
24.7193
21.5698
22.6512
20.9189
24.5297
23.9743
24.4171
24.0192
20.763
20.5877
19.7694
23.8471
23.5882
23.9227
23.7199
45.5972
44.4421
42.1768
44.3904
42.2162
42.186
39.8782
42.0711
41.1766
38.2297
41.2117
38.8005
39.063
37.0757
36.6253
37.1724
34.2065
37.8748
34.9709
36.431
34.2106
33.7169
34.6306
34.9438
34.613
34.2982
33.7173
34.1929
32.007
32.1948
33.5545
31.6164
33.0143
30.806
32.7744
23.6656
47.5381
29.1688
26.5683
24.676
49.6683
30.1892
21.0021
27.6181
25.4306
24.4145
24.1487
28.9102
27.472
19.771
24.6196
22.2705
24.077
23.8508
27.015
25.9233
41.0866
45.0084
40.8947
42.1507
39.2512
42.9544
39.0607
36.9026
39.1217
35.53
38.3568
36.4195
37.8012
35.675
33.5654
34.7559
32.8819
35.8482
34.0373
35.2544
33.9497
48.8893
51.3937
33.0149
38.1674
38.0429
237.166
33.4067
101.194
67.4963
61.5054
185.426
61.2844
165.773
101.04
35.6624
42.7568
40.6414
52.0316
33.5447
43.299
37.7856
27.7482
38.0155
32.3995
31.5164
28.695
36.4639
33.3601
23.1127
31.3599
28.491
28.0052
26.36
32.2662
28.4626
40.7835
42.3429
41.0224
41.9202
38.9412
41.1521
39.2813
35.8736
40.1597
39.0039
37.7723
35.8218
38.6317
37.7421
33.3861
37.8733
34.9339
35.4321
34.3754
36.8412
35.1231
32.7246
34.4143
33.8378
33.8912
33.9959
34.9416
34.96
37.0701
33.6565
33.5521
35.0196
38.3891
34.9328
35.2639
39.0408
33.8201
36.5409
39.0735
38.6217
35.8203
38.8234
34.6777
37.4282
38.5358
38.1014
35.7528
39.4846
40.0629
30.6336
38.7524
40.045
34.6451
29.892
39.8564
36.1885
42.6314
45.7733
42.7755
56.7521
49.5126
56.7689
53.1104
38.3312
41.6408
39.1055
48.1466
46.5128
51.8261
49.3082
34.7118
38.1789
35.3667
46.147
43.3346
48.5789
45.276
30.6204
34.391
31.4862
42.4424
41.1159
44.0426
41.1769
28.0366
30.605
28.1686
41.0872
40.3335
40.5919
39.7631
26.4228
27.5008
26.4999
40.1662
39.9254
39.9292
41.409
25.9387
26.4486
26.543
40.0736
39.998
41.8356
42.3415
25.4148
26.5468
26.2285
39.9384
39.3061
42.3276
42.1325
42.4625
42.4971
40.3306
54.7761
53.1017
50.3923
51.5141
39.0751
39.6112
37.9029
52.1181
49.8957
51.4125
50.4258
35.4665
37.3269
35.0636
49.0795
45.1105
49.5113
44.4117
31.6037
34.4746
53.1435
43.5625
40.0423
42.7174
40.5022
28.1036
54.7321
47.2608
39.3199
38.2256
40.2085
38.0827
26.3522
40.3434
30.1864
38.3592
40.8152
37.6653
40.1647
26.7471
29.6669
29.465
41.6075
42.5909
41.6613
43.6838
26.4526
29.272
28.3086
42.5906
42.2831
43.6736
43.1041
39.7815
43.38
39.6055
49.6649
51.006
51.4952
50.9084
37.4115
38.5075
36.7933
51.0194
50.3595
50.5054
49.9258
34.9379
36.4679
35.264
49.5556
44.67
49.7226
47.3836
50.2572
34.7259
36.1031
43.0194
41.6614
46.1767
44.4725
46.9488
38.1174
40.6534
41.5089
39.2003
44.5084
44.57
32.4237
40.4415
37.5416
38.7913
41.0258
44.7565
45.948
30.3705
36.8587
34.4377
42.3456
43.9239
46.0696
45.0068
28.6307
33.3733
29.7411
43.8754
43.2483
44.4403
43.2513
39.5286
42.1432
39.883
52.4016
50.8537
52.0866
48.0422
36.8605
39.1604
38.1979
50.1745
49.463
47.0141
46.2908
35.692
37.3957
36.1776
49.4772
48.3197
46.7921
47.3384
34.9987
36.0936
36.197
47.4861
46.0598
47.2397
47.0209
38.0831
36.1861
36.6226
46.0103
46.3571
47.4734
47.81
38.902
37.2223
39.905
46.6584
47.4361
47.8057
47.2609
36.5669
40.3568
40.4417
47.3646
45.5612
47.06
45.3673
30.6948
39.9
34.7686
44.7738
43.3018
44.2501
40.641
55.1915
64.0364
60.9313
85.6854
80.4102
91.3395
94.9304
53.4242
59.7236
57.5719
78.4813
84.9522
94.2753
94.883
50.7255
57.0177
54.3439
86.0636
86.3805
95.5253
99.3003
49.1368
53.2727
50.96
85.3888
89.598
100.583
104.328
48.9924
50.5971
49.928
90.5356
91.4462
105.411
105.863
49.165
50.0557
52.1124
91.3238
93.0268
105.034
99.2598
49.4224
52.695
52.9945
93.4986
93.0617
98.2672
96.823
48.0945
52.9566
52.1634
93.0775
92.0793
96.8263
98.1096
61.1726
56.9738
59.8916
91.3091
97.6992
86.7951
100.535
58.4427
60.0293
59.4823
97.4556
97.7078
101.531
103.876
54.4972
58.879
54.1535
98.6169
104.205
106.076
114.84
49.7729
51.9386
47.8795
105.833
109.995
117.291
123.137
48.6627
47.3476
45.8129
111.082
111.855
124.793
125.738
51.5701
46.3105
50.562
110.682
102.373
123.181
108.549
53.3722
52.514
54.2917
99.8452
97.2925
103.592
97.3555
52.2671
54.187
52.7872
97.1114
97.2313
97.0374
97.8264
59.3856
58.2257
59.2634
87.0523
100.72
92.5495
101.484
59.5011
59.0614
58.9684
101.946
104.731
101.837
104.037
54.6321
58.9049
57.7169
107.076
116.405
105.488
112.409
49.2842
56.6583
54.8503
119.278
124.929
114.512
118.814
46.9543
54.7823
54.4205
126.029
125.503
119.84
118.087
51.0909
54.4199
54.8875
122.689
108.033
115.286
102.509
54.3086
55.0296
54.0575
103.112
96.9504
99.1195
95.7396
52.8409
53.6964
52.5621
96.6873
96.777
95.8147
98.2049
58.9911
59.123
53.8218
100.582
100.099
91.6471
80.7461
58.2538
52.8898
53.0856
99.8735
102.7
80.6516
92.3603
58.1259
54.5038
55.2187
103.811
108.911
96.1134
94.5237
56.621
55.0683
55.2258
110.71
114.585
94.2972
100.366
56.2299
56.1872
56.2398
115.722
114.146
102.65
100.259
56.1299
55.978
54.3861
111.83
100.92
99.3743
99.1249
54.1882
54.1656
52.0538
98.8682
95.6828
98.4616
94.0371
52.4987
51.1715
48.4988
95.7989
97.7032
93.7218
97.2354
33.5732
33.9318
33.8539
32.2909
34.0508
32.9737
33.262
38.4136
34.2901
50.8383
38.0334
35.4431
34.0016
179.364
43.9497
39.4448
72.1983
211.874
38.2803
44.2812
231.333
33.3078
34.0797
33.0397
33.8738
33.1628
33.8207
33.1225
33.1144
31.5832
32.1649
32.1865
32.3593
32.6852
32.7172
38.6076
38.6119
33.7347
52.515
33.8286
181.898
35.0065
44.2024
208.569
39.3071
79.1744
44.4259
229.713
38.2172
30.9538
31.2505
30.4983
28.4258
32.0818
29.7564
29.3797
41.8133
39.2727
80.211
195.374
38.5631
43.2751
180.068
40.3208
34.3942
72.6524
85.4036
37.2756
35.8092
119.292
31.1842
30.7957
29.5415
31.4905
29.8948
32.0545
30.6179
30.1397
27.6626
28.5666
28.4087
28.8521
28.7012
29.6281
41.9049
191.23
39.0317
92.0047
43.316
175.783
38.258
40.1878
87.6194
33.7729
84.4697
35.7512
118.396
36.9054
78.032
67.2525
58.6719
206.212
49.6908
225.24
96.0489
34.1682
32.4711
32.3973
32.4164
33.2454
32.5822
32.5222
39.1399
41.3326
32.8586
35.5733
35.9227
47.4645
33.2993
48.8464
39.0718
52.8926
33.8759
227.185
33.701
39.1998
79.0071
200.369
70.1999
61.9125
224.612
95.8706
51.9208
34.5678
32.7811
33.5191
33.5449
32.9281
32.9034
34.4241
39.7881
36.155
43.758
34.1357
48.3206
33.7371
37.6141
97.7849
66.1263
57.4994
97.8624
60.5016
143.005
88.6789
59.9577
46.307
39.7578
39.3477
48.9195
55.1726
42.6083
61.4211
49.4364
41.3046
46.1567
49.3729
61.6169
44.8551
99.0354
174.452
74.9688
66.3736
151.045
99.6388
66.989
95.4447
93.4062
72.6311
62.5458
123.772
86.4003
66.5803
60.7038
39.9786
49.1804
41.5109
56.1008
43.209
52.0392
61.9529
46.3795
52.6535
43.1096
61.8672
45.4354
52.9383
174.491
203.961
174.862
115.466
95.2423
115.872
97.199
140.194
154.65
139.517
80.5373
75.1772
82.9587
75.2066
120.763
127.891
120.763
68.8469
66.5124
69.4981
65.9717
108.018
116.304
110.243
63.8423
60.4377
64.8815
63.1023
95.5926
102.035
94.2569
56.8896
52.493
57.6399
51.697
91.5345
89.1261
88.025
46.1628
43.0786
46.2861
41.0219
90.973
87.84
87.2441
40.9274
38.4871
37.7195
35.2749
84.6534
86.2483
78.3197
37.6263
32.5644
34.2533
27.0523
200.426
197.632
183.339
114.619
101.397
109.449
91.31
160.117
318.991
333.081
181.513
169.78
178.887
300.451
109.69
242.84
239.791
130.005
121.929
118.537
229.068
90.4645
193.195
185.495
105.221
102.567
94.8258
177.796
79.6371
184.693
177.692
92.1911
90.1024
81.3068
180.793
76.4007
165.798
177.474
87.3249
84.5916
78.3278
171.157
70.0511
141.414
153.926
71.4874
68.8266
69.9304
148.333
57.841
139.077
139.354
62.5752
59.6171
62.3678
139.324
48.8291
135.399
136.236
54.8475
53.184
50.0603
134.121
80.299
82.8445
72.585
30.5652
27.6412
27.9439
22.7437
178.433
192.845
177.593
105.707
86.5902
104.457
84.6023
137.731
266.819
289.367
159.651
139.555
158.625
259.583
98.9691
211.166
212.679
106.449
102.487
104.039
198.557
78.6675
179.648
182.562
86.2944
80.1189
82.1624
186.344
78.1752
211.263
216.288
77.4677
77.5827
78.1769
217.997
80.255
203.515
212.513
78.3083
79.4389
78.9562
205.995
77.5869
162.872
171.419
81.421
80.8889
80.7225
157.435
56.4132
138.098
138.665
64.6975
58.3859
60.9186
135.279
44.811
124.712
123.016
48.0878
46.0569
47.0448
119.64
69.8397
70.4406
61.2316
26.8459
22.6568
26.3825
21.1552
170.163
167.264
157.453
93.7631
78.8704
90.291
78.8305
124.241
245.054
267.01
150.061
126.995
148.58
237.353
82.7267
207.694
206.274
91.1213
86.0588
87.3368
206.197
78.5079
217.497
215.928
79.6047
79.0718
78.7187
220.454
77.3535
223.281
224.645
77.7791
77.5033
77.7322
223.899
77.2672
197.854
210.408
77.8256
77.7041
76.6545
198.564
65.7479
134.074
137.941
70.0377
64.2846
71.8548
128.278
47.1095
119.292
121.926
53.5375
49.3164
50.9328
119.903
44.5716
111.325
118.461
43.5941
43.4214
44.1717
118.736
59.1931
82.5075
67.7209
29.1458
22.5
33.7412
27.7594
146.992
151.867
146.724
79.354
72.6322
85.3382
79.0747
123.685
226.118
243.548
133.394
119.188
134.111
221.89
88.1972
202.666
192.244
88.9677
83.6266
94.9517
193.695
79.39
220.82
208.603
79.4573
79.382
80.3219
212.672
78.8171
226.324
220.954
79.048
78.9054
78.8239
222.76
77.9913
219.112
223.574
78.076
77.5604
78.2112
222.421
80.4747
157.094
211.266
79.5602
82.2944
77.428
193.544
59.7577
140.091
132.6
57.6754
52.3948
73.9289
137.631
59.032
175.418
190.979
53.8188
54.9357
57.4316
195.891
77.4193
115.953
86.9853
39.1843
32.0658
46.8395
41.8613
127.761
152.02
127.961
86.0655
70.7546
87.0944
69.2445
119.937
124.141
119.907
62.4887
61.1811
63.5913
61.0044
120.238
112.955
110.583
58.1262
53.5969
56.6735
51.0076
128.245
112.353
113.999
52.1757
52.2319
50.8786
51.6255
134.682
115.676
117.807
52.1049
51.6655
51.1923
50.5273
132.406
119.965