/*--------------------------------*- C++ -*----------------------------------*\
  =========                 |
  \\      /  F ield         | OpenFOAM: The Open Source CFD Toolbox
   \\    /   O peration     | Website:  https://openfoam.org
    \\  /    A nd           | Version:  10
     \\/     M anipulation  |
\*---------------------------------------------------------------------------*/
FoamFile
{
    format      ascii;
    class       volVectorField;
    location    "8.7";
    object      U_0;
}
// * * * * * * * * * * * * * * * * * * * * * * * * * * * * * * * * * * * * * //

dimensions      [0 1 -1 0 0 0 0];

internalField   nonuniform List<vector> 
12920
(
(113.12 -192.896 233.84)
(-142.1 -13.4347 2.75572)
(94.8094 -22.5726 -3.61039)
(69.8727 -24.106 0.385511)
(132.543 -28.1382 3.64846)
(159.09 -25.0114 -2.50489)
(199.952 -3.02254 -0.0473002)
(198.069 6.2128 3.99856)
(172.276 7.33407 9.04718)
(133.018 1.4132 5.72477)
(125.317 0.321258 0.901998)
(120.483 2.13197 -1.26866)
(122.836 4.16038 -2.50185)
(123.199 5.78735 -3.06599)
(124.953 6.37318 -3.28627)
(125.156 6.63414 -3.20011)
(126.21 6.14969 -2.4029)
(126.078 4.81776 -1.45929)
(126.029 3.77037 -0.876761)
(119.671 3.57518 -0.938827)
(342.173 -92.4968 166.203)
(35.4301 -53.9234 41.3539)
(97.1508 -65.0131 15.3628)
(62.5447 -54.9723 -1.80937)
(113.882 -53.3025 -0.448405)
(107.332 -45.8268 -1.64923)
(128.753 -32.382 1.68462)
(123.578 -9.69139 2.78419)
(124.997 7.20613 4.24434)
(113.873 7.57652 2.8654)
(112.415 6.8065 1.51503)
(110.124 6.89249 0.773874)
(112.858 7.49407 0.5978)
(113.972 8.34007 0.640133)
(115.585 7.72578 0.936747)
(113.323 6.43738 1.48396)
(110.314 3.56013 1.73721)
(106.305 2.82048 1.01851)
(105.934 3.83057 -0.189399)
(100.948 4.09863 -0.406246)
(174.6 -18.9328 12.0172)
(86.0815 -47.9353 5.74133)
(137.043 -62.8455 -8.61074)
(102.866 -72.3701 -13.0639)
(137.811 -68.6864 -6.2131)
(107.501 -53.5287 -0.526785)
(91.9129 -30.628 3.72287)
(67.8712 -12.2081 1.62979)
(76.6619 -6.38747 0.973765)
(77.2644 -4.14285 0.704923)
(84.6518 -4.29544 0.719125)
(88.217 -3.43634 0.67835)
(94.364 -2.16591 0.870182)
(97.0796 -0.0414859 0.943899)
(100.281 2.57536 0.893619)
(100.592 4.42744 0.851928)
(100.298 5.93869 0.567119)
(98.4328 6.13898 0.240808)
(98.6189 6.18901 -0.076024)
(93.6495 5.51897 -0.137564)
(94.1173 -16.981 -88.4727)
(-27.5161 -44.9311 -38.2338)
(87.0842 -37.9276 -20.4444)
(40.5543 -32.2478 -9.3489)
(93.9929 -17.3226 -3.73851)
(70.8119 -13.0175 -1.213)
(78.4299 -7.72267 1.70476)
(63.6889 -4.95287 1.3062)
(68.6712 -5.0403 0.530699)
(65.5342 -6.49901 -0.0416676)
(72.0247 -8.75851 0.0475158)
(74.2712 -8.67388 0.230137)
(79.6343 -6.86545 0.393596)
(82.0233 -3.54986 0.188056)
(85.9597 -0.55418 0.336157)
(87.6912 1.77275 0.260428)
(89.6217 3.40867 0.189435)
(91.0314 4.26662 0.0950334)
(92.5784 4.93848 -0.0223625)
(88.6142 4.87098 -0.0709743)
(101.493 68.0593 0.0462291)
(-16.9454 37.2964 -2.04933)
(82.0421 -55.5636 1.7327)
(25.8164 -70.426 -0.982234)
(77.6974 -66.9085 0.787007)
(60.6491 -47.9155 1.32007)
(81.1709 -31.0287 2.75777)
(73.2063 -13.4698 1.56497)
(81.1108 -11.0548 1.05314)
(77.8007 -9.18942 0.159245)
(82.0658 -14.2055 0.539494)
(80.9941 -13.4922 0.446769)
(83.7884 -12.1703 0.34808)
(84.0635 -8.52151 0.18289)
(86.8149 -4.73298 0.0479325)
(87.4463 -0.89083 0.00247378)
(89.081 1.94767 -0.0847747)
(90.1875 3.58341 -0.115856)
(91.4148 4.9681 -0.138956)
(87.2262 5.18884 -0.178965)
(156.563 -212.709 56.4502)
(128.009 -154.003 38.1291)
(200.087 -81.0661 10.6631)
(112.594 -47.3606 -3.02009)
(122.973 -37.2144 -4.5082)
(91.8741 -32.0678 -3.16303)
(100.091 -25.8547 -0.305943)
(92.5062 -16.4495 0.385261)
(95.3938 -12.2761 0.768253)
(91.244 -9.21683 0.950128)
(89.2174 -14.2646 1.62825)
(82.7334 -13.9895 1.07456)
(81.9043 -11.874 0.357746)
(81.0456 -7.70641 -0.05792)
(82.2793 -4.439 -0.143306)
(83.2971 -0.922228 -0.131119)
(84.9793 1.46789 -0.144617)
(86.4914 3.38241 -0.113047)
(87.9273 5.00773 -0.115354)
(84.7184 5.49289 -0.130918)
(153.903 -26.6827 18.2867)
(7.96297 -70.0404 10.4258)
(88.2294 -48.0055 5.4367)
(41.3893 -47.3265 1.94745)
(98.6792 -42.6534 2.58992)
(71.6446 -32.5224 -0.944507)
(85.2288 -34.5516 -0.56894)
(79.6543 -15.09 -0.444035)
(85.2232 -15.1644 0.528097)
(80.1007 -10.2281 1.30466)
(80.3606 -15.1921 1.23898)
(75.394 -12.7669 0.876764)
(76.8188 -12.5851 0.0965963)
(76.1661 -8.89587 -0.0471699)
(78.2213 -6.05125 -0.137511)
(79.2547 -2.47036 -0.186961)
(81.6479 0.0338119 -0.213374)
(83.9402 1.99131 -0.119749)
(85.5014 3.93249 -0.120101)
(83.1108 4.6279 -0.101191)
(204.169 -249.639 -32.4341)
(81.2725 -148.097 1.29817)
(153.346 -116.186 -4.03783)
(107.337 -82.294 -6.79355)
(132.544 -58.459 -2.23232)
(102.913 -24.7862 -2.13084)
(112.71 -18.0021 -1.64921)
(90.277 -19.8824 -0.628868)
(89.7251 -10.8312 -0.0398552)
(86.733 -12.4981 0.412558)
(82.7775 -11.4973 0.613213)
(71.4934 -15.6294 0.821245)
(70.7168 -11.1611 0.287005)
(70.1695 -9.18798 0.0975341)
(71.4866 -6.90641 -0.21515)
(73.5037 -3.75487 -0.278883)
(75.6698 -1.71397 -0.280694)
(78.6612 0.900058 -0.304639)
(80.8486 3.12363 -0.284637)
(79.5914 3.9846 -0.147241)
(315.421 -92.3077 -153.437)
(199.053 -39.2656 -39.6835)
(182.939 -12.93 1.22026)
(89.0274 -30.6269 2.88154)
(97.7366 -27.9228 5.92644)
(75.6958 -16.6065 -0.955988)
(97.1343 -4.08405 -0.0500485)
(93.4374 -11.4284 -0.140975)
(93.5651 -17.5085 0.361101)
(96.2434 -16.8416 0.350978)
(93.0351 -8.34906 0.226625)
(82.4074 -10.5529 0.214466)
(74.3986 -12.5571 0.231439)
(70.988 -10.1322 0.028957)
(71.2163 -7.63094 0.163002)
(72.1384 -5.50547 -0.0310272)
(73.3324 -2.92723 -0.134365)
(75.8671 -0.797939 -0.118486)
(77.7943 1.27768 -0.218169)
(76.6069 2.18037 -0.0891569)
(27.277 -112.022 -134.543)
(-46.0391 -49.4068 -44.5428)
(99.4928 -12.5706 -9.27623)
(30.7238 -39.4469 -0.778107)
(90.6849 -35.0381 1.44999)
(72.0643 -34.1434 -1.70535)
(91.0718 -24.1329 -0.876556)
(105.204 -20.5152 -0.130997)
(102.894 -25.4802 0.267051)
(99.3319 -22.474 -0.366292)
(102.336 -9.95941 -0.119946)
(102.308 -12.1387 0.104717)
(82.9523 -6.04422 0.53633)
(74.537 -9.62885 0.114183)
(73.3514 -10.2475 0.0324225)
(75.2455 -7.26227 0.0375351)
(75.3091 -4.43014 -0.0308807)
(76.6684 -1.82632 -0.0993771)
(77.3981 0.305183 -0.210529)
(75.99 1.35475 -0.126736)
(-141.258 9.988 23.6158)
(-144.375 -43.5706 -40.8092)
(105.015 -6.55145 -5.89197)
(9.70753 -49.316 3.0615)
(84.8194 -35.1924 1.63852)
(60.2037 -41.764 -2.38613)
(84.2052 -35.8619 -0.550596)
(90.9955 -29.4697 -0.466498)
(93.1092 -24.2693 -0.162351)
(95.0251 -17.3431 -0.407283)
(99.4161 -11.9604 0.00701296)
(89.2225 -2.06965 0.733767)
(75.7228 -2.32727 0.453493)
(70.8636 -10.159 0.0366627)
(77.5723 -13.515 0.0152225)
(81.0568 -7.62291 0.0713472)
(79.728 -3.87247 -0.0985715)
(80.3038 -1.50175 -0.213394)
(80.5347 0.0601145 -0.235865)
(79.3874 0.204397 -0.0892211)
(35.0154 -205.954 -145.104)
(-293.95 -119.296 -19.7395)
(111.518 -94.4512 -12.2216)
(-42.9295 -65.3166 2.05724)
(83.771 -47.7262 0.366981)
(34.7964 -48.8528 -1.18732)
(82.6542 -55.9284 0.00109442)
(93.74 -31.1438 0.0782445)
(93.2014 -23.2651 -0.179631)
(100.36 -18.6167 -0.455648)
(107.52 -13.2502 -0.359277)
(112.964 -1.74747 0.458889)
(86.4827 8.78196 0.122952)
(83.037 -0.302183 -1.62386)
(88.691 -17.1265 -1.28222)
(88.2092 -7.67871 0.289703)
(83.263 -2.53186 -0.0546972)
(82.7391 -0.924504 -0.133749)
(82.5267 -0.548749 0.00301102)
(80.3188 -1.19374 0.133584)
(-23.6432 -184.042 -70.5605)
(-24.1384 -67.2135 -43.5643)
(161.867 -93.5427 -24.3449)
(60.8868 -54.6734 -0.274335)
(133.552 -57.2089 0.550357)
(79.8897 -81.6749 0.473451)
(97.6171 -59.7159 -0.652909)
(72.9176 -37.1939 -0.0645687)
(92.3689 -34.308 0.500414)
(94.8847 -22.6638 -0.044743)
(108.232 -11.3389 -0.481837)
(115.198 -1.2314 -0.470111)
(126.456 12.8605 0.364326)
(130.631 12.2912 1.1744)
(108.059 1.87629 1.49362)
(92.4042 0.181592 1.19097)
(86.0486 1.60253 0.376802)
(83.6053 -0.0862792 0.153639)
(82.6069 -0.610842 0.0197572)
(79.4543 -1.95274 -0.0248424)
(23.9177 -182.717 -64.7962)
(-110.742 -114.6 -41.2181)
(136.445 -83.1192 -27.542)
(59.615 -57.7567 -10.4729)
(133.375 -56.7508 -4.02931)
(95.1843 -52.333 -2.25361)
(104.458 -25.3881 -0.464312)
(83.0029 -47.8731 0.571586)
(86.3797 -29.1968 -0.198861)
(75.7697 -35.0819 0.21571)
(85.7491 -18.0247 -0.608466)
(85.0152 -11.9017 -0.446946)
(92.8513 1.15829 0.539368)
(88.7479 3.27298 0.957133)
(87.4774 6.31081 0.596489)
(82.5357 5.47068 0.0956136)
(83.4804 4.35653 -0.116457)
(83.151 1.7991 -0.289602)
(84.5343 0.445147 -0.518793)
(82.8226 -1.47924 -0.453241)
(336.925 -318.932 79.3502)
(154.783 -70.227 -34.7464)
(218.314 -34.6239 -35.4192)
(192.769 -27.7777 -16.0297)
(208.625 -32.8106 -3.06834)
(161.242 -42.1386 1.01165)
(153.183 -32.218 4.11803)
(122.119 -36.294 1.50526)
(113.807 -28.4828 1.42835)
(94.4807 -26.2965 0.496801)
(89.4097 -17.832 0.476561)
(79.9994 -10.4757 0.159134)
(81.9603 -1.89569 -0.338509)
(81.011 2.3584 -0.456973)
(84.359 4.7721 -0.815178)
(85.6245 3.29943 -0.978066)
(91.0331 2.37838 -1.04482)
(93.2956 1.26955 -0.964703)
(96.8927 0.0442452 -1.04548)
(95.3265 -1.0222 -0.868947)
(183.356 204.954 -165)
(52.0935 63.3902 -21.2068)
(190.932 18.689 -15.3069)
(152.404 -7.01164 -2.87831)
(188.958 -12.2065 2.32277)
(150.29 -20.0222 2.70817)
(151.624 -9.61054 3.14131)
(122.407 -19.9403 1.54774)
(120.231 -11.1662 1.40444)
(101.559 -15.4864 0.596462)
(100.357 -6.24253 0.605196)
(90.905 -4.70819 0.362023)
(93.0279 2.1535 0.139803)
(91.3177 3.38643 -0.162365)
(96.1206 6.45937 -0.500236)
(98.0749 4.07193 -1.08502)
(104.891 3.31272 -1.14955)
(107.294 2.07942 -0.800888)
(110.701 1.82465 -0.819437)
(109.397 1.66947 -0.585288)
(119.805 -224.513 -19.9275)
(39.9232 -66.4733 5.24973)
(186.606 -45.4101 4.78793)
(137.047 -49.1911 5.9337)
(173.848 -27.2796 4.46547)
(127.398 -26.6551 2.72494)
(144.622 -14.1988 2.50027)
(114.743 -17.4544 1.52071)
(121.771 -12.3239 1.28568)
(106.696 -12.4157 0.851861)
(109.857 -7.98034 0.640571)
(104.342 -5.88072 0.460156)
(107.099 -2.36403 0.712292)
(106.347 -0.968667 0.429434)
(109.74 0.96734 0.418283)
(110.464 0.157665 -0.0282054)
(113.892 0.0200315 -0.156139)
(114.768 0.0911353 -0.0110939)
(116.09 -0.186375 0.0090965)
(113.484 0.157005 0.094352)
(322.391 6.74138 -11.9266)
(89.0938 -35.8263 16.6338)
(243.528 -51.7839 -5.75719)
(144.124 -37.911 4.89887)
(186.778 -19.6197 3.59828)
(137.261 -15.955 3.27353)
(152.045 -6.94724 3.18538)
(123.87 -9.81628 2.14215)
(129.004 -7.47246 1.60536)
(114.018 -9.76614 0.950526)
(116.744 -7.0061 0.771532)
(110.097 -6.377 0.606548)
(112.466 -3.10814 0.601339)
(110.099 -2.01861 0.555262)
(112.211 0.00753638 0.735623)
(111.749 -0.199981 0.53551)
(113.16 0.325223 0.514701)
(113.296 0.197378 0.633734)
(114.17 0.291289 0.637313)
(111.075 0.670334 0.545423)
(253.094 21.3524 -12.5858)
(172.378 -75.1536 16.2427)
(219.551 -65.6515 6.94707)
(145.304 -31.4221 4.30326)
(181.725 -20.9171 3.66471)
(139.976 -16.5975 2.55093)
(158.906 -11.6828 2.82628)
(132.921 -10.0672 1.60412)
(139.03 -7.71945 1.06179)
(124.125 -6.74224 0.109198)
(125.452 -6.2056 -0.26146)
(117.417 -5.62697 -0.613541)
(117.569 -5.29273 -0.651776)
(113.626 -4.615 -0.705769)
(113.932 -4.1259 -0.732023)
(112.492 -3.94551 -0.815723)
(112.952 -3.61692 -0.967306)
(114.17 -3.97984 -1.41923)
(117.668 -4.0469 -0.852024)
(116.61 -2.7466 0.117475)
(457.285 -126.167 -190.309)
(347.926 -73.6586 -22.6588)
(285.718 -19.499 13.2304)
(189.522 -25.8784 4.73221)
(204.829 -24.7699 1.59584)
(161.846 -15.3369 -0.27638)
(170.661 -9.77471 -0.128037)
(148.4 -3.74783 -0.0315505)
(152.544 -0.726653 0.176186)
(142.769 1.91904 0.155951)
(144.794 3.9364 0.252143)
(140.543 5.28064 0.274018)
(141.741 6.30396 0.395132)
(140.044 6.52072 0.31097)
(141.434 6.91826 0.448653)
(141.157 6.42077 0.0202991)
(143.426 5.53138 -0.0240022)
(144.276 2.91545 -0.0639171)
(143.684 -1.06156 -0.336528)
(138.072 -2.75916 -0.728215)
(265.06 -298.236 -311.092)
(-154.293 -18.9626 -7.47006)
(73.548 -7.42319 -12.9749)
(18.8533 -8.55808 1.65139)
(88.0028 -6.66419 4.95144)
(88.3131 -9.14102 0.077618)
(112.536 -4.81402 2.11336)
(112.012 -2.42766 6.48641)
(115.099 0.927518 12.3238)
(109.438 -0.398239 8.61304)
(109.586 -1.30463 1.82279)
(106.235 -1.71815 -1.55135)
(107.588 -1.87646 -3.03093)
(106.251 -1.86433 -3.5178)
(106.801 -2.02196 -3.09093)
(105.257 -2.17108 -2.57901)
(105.672 -1.68117 -1.56396)
(105.558 -0.306175 -1.11882)
(105.268 2.61798 -1.42583)
(95.6476 2.6592 -1.68439)
(96.9936 -130.297 113.612)
(-112.763 -19.8178 50.5416)
(56.0137 -57.8447 19.345)
(0.089048 -37.53 2.47072)
(67.6255 -31.9222 5.76036)
(54.1925 -22.5673 0.302775)
(80.1645 -14.0664 4.25153)
(75.7744 -4.49942 3.39053)
(85.9759 3.91257 5.47711)
(84.5838 4.35791 3.34034)
(88.8756 3.64498 1.93222)
(88.7092 2.67124 0.735976)
(91.2995 2.00975 0.444533)
(91.31 1.87771 0.487719)
(92.2458 1.33296 0.959807)
(90.553 0.95015 1.4663)
(90.1596 0.969726 1.34412)
(88.7625 1.77903 0.537866)
(88.9279 2.91832 -0.409024)
(83.0793 2.72356 -0.465136)
(138.666 -63.9894 54.4291)
(70.3259 -28.2811 11.2469)
(115.329 -50.0195 -12.184)
(52.6113 -59.2351 -12.2143)
(81.8271 -56.1472 -0.777696)
(51.7254 -38.2033 1.25975)
(61.8648 -23.6789 4.13203)
(51.1558 -10.5846 1.73244)
(61.8356 -5.51721 1.48894)
(62.8879 -3.39224 0.97851)
(71.2988 -3.81632 1.09384)
(74.0894 -3.23291 0.848908)
(79.3577 -2.47641 1.08413)
(80.9765 -0.949944 1.08163)
(83.1562 0.830056 1.00661)
(82.9156 2.30936 0.858314)
(82.9185 3.53506 0.595186)
(81.9896 3.89767 0.213052)
(82.5296 4.12893 -0.134728)
(77.4788 3.46438 -0.227237)
(386.4 -111.299 55.1913)
(87.8851 -64.3906 -21.6709)
(111.655 -65.5663 10.0762)
(43.8211 -49.9144 -4.44181)
(81.0091 -25.7663 -2.38985)
(48.0905 -14.7629 -3.11456)
(60.2359 -7.70433 1.81394)
(47.3865 -5.33994 0.949563)
(56.1972 -5.85321 0.747126)
(54.2746 -6.64386 0.0764221)
(61.8078 -7.94774 0.294963)
(63.9605 -6.87015 0.328982)
(69.1056 -5.05265 0.463923)
(70.9377 -2.33087 0.167942)
(73.8611 -0.30015 0.311643)
(74.869 1.41718 0.276574)
(76.2314 2.63604 0.238364)
(77.1279 3.2675 0.0784402)
(78.3745 3.77468 -0.073086)
(74.0832 3.52154 -0.167112)
(175.476 -52.8018 71.8753)
(34.7439 -14.0012 21.4845)
(97.0618 -69.0909 15.5521)
(20.3093 -70.2366 3.86224)
(62.9096 -53.9476 3.84629)
(36.8727 -30.7787 1.09362)
(59.4721 -20.3541 3.51669)
(51.0933 -10.1679 1.27702)
(61.9464 -12.6275 1.1598)
(59.0282 -11.7279 0.0982345)
(65.2739 -14.4354 0.899009)
(65.7591 -11.832 0.633639)
(69.6925 -9.80112 0.574884)
(70.3462 -5.85894 0.218641)
(72.923 -2.85576 0.0856191)
(73.5386 -0.242724 -0.0189944)
(74.7225 1.715 -0.0884662)
(75.5393 2.87003 -0.168542)
(76.6586 3.86152 -0.219617)
(72.5931 3.76655 -0.305571)
(192.785 -269.26 -208.152)
(161.631 -184.497 -52.1651)
(208.286 -75.4262 14.563)
(104.696 -49.5047 10.5957)
(103.637 -32.4508 6.77647)
(59.4213 -19.9227 0.58967)
(74.1364 -14.8677 1.73222)
(65.3603 -9.30394 1.11818)
(71.0888 -10.8887 1.64818)
(67.3311 -11.2927 1.62496)
(69.2943 -14.2427 2.19349)
(67.8021 -12.1621 1.42711)
(68.8425 -9.63348 0.526637)
(68.8374 -5.92991 0.0110751)
(69.9782 -3.30076 -0.106606)
(70.7827 -0.833082 -0.117829)
(72.0444 0.920979 -0.154419)
(73.2056 2.27621 -0.147722)
(74.5242 3.52014 -0.198774)
(71.3536 3.69297 -0.239873)
(172.336 -129.273 189.727)
(-46.3741 -75.9153 -4.87243)
(65.9006 -46.0284 1.55759)
(-1.73726 -46.0222 -1.68653)
(68.8473 -34.5266 3.90095)
(34.6473 -20.9323 -1.50303)
(57.7023 -29.3901 0.11565)
(53.3587 -11.2055 0.646253)
(63.0916 -16.1791 1.71574)
(60.2277 -11.686 2.55972)
(63.831 -15.2568 2.05962)
(62.4566 -11.6993 1.4255)
(65.1157 -10.9838 0.292966)
(65.0287 -7.25361 0.089405)
(67.137 -4.8829 -0.0896205)
(68.0195 -2.11485 -0.098222)
(69.7425 -0.208098 -0.189669)
(71.5273 1.21245 -0.160993)
(72.9435 2.70655 -0.206892)
(70.5256 3.0394 -0.165301)
(157.273 -201.729 -114.803)
(46.4711 -119.706 -36.514)
(128.989 -88.6899 -5.24289)
(65.7223 -66.1672 -1.67292)
(99.6164 -48.6367 5.41171)
(65.6204 -18.2341 0.21237)
(82.0627 -16.8548 0.310599)
(63.1477 -20.5961 0.454182)
(66.799 -10.0928 0.742084)
(64.3051 -13.9113 2.56891)
(64.472 -11.3419 2.42932)
(61.7301 -13.4614 1.81843)
(63.5594 -9.70461 0.502949)
(63.8345 -7.78307 -0.120578)
(64.2086 -6.62704 -0.374636)
(65.8122 -3.9957 -0.369453)
(67.1054 -2.2348 -0.278786)
(69.2202 -0.0943377 -0.325477)
(70.7948 1.51089 -0.341182)
(68.8781 2.2099 -0.160914)
(194.175 51.3835 24.7225)
(8.29048 -34.7793 8.08445)
(78.6374 -32.9708 19.0855)
(15.8496 -47.867 6.88182)
(63.8498 -34.1855 5.97322)
(57.8129 -17.1959 -1.36519)
(77.2858 -5.58033 -1.54172)
(69.6416 -16.6211 -0.272701)
(72.9579 -17.4172 1.79592)
(75.2416 -14.4237 1.53639)
(70.8607 -9.84095 2.08396)
(66.5516 -12.0069 1.88764)
(64.649 -11.3632 0.979868)
(64.1523 -9.4676 0.0456814)
(65.0044 -7.21829 0.0252342)
(65.9018 -5.86149 -0.0765386)
(66.7489 -3.67337 -0.223961)
(68.5558 -1.64464 -0.098432)
(69.7879 0.0936755 -0.260419)
(67.9983 0.982643 -0.0819031)
(179.698 -114.3 246.142)
(-35.1424 -93.4612 -13.0284)
(77.8362 -57.1815 -6.08663)
(0.450056 -62.9834 -0.471454)
(70.133 -46.2649 0.5389)
(58.6164 -35.8238 -2.31036)
(77.885 -20.8881 -0.475347)
(85.6678 -22.3377 1.13515)
(85.5505 -23.3402 2.15428)
(82.9899 -15.5918 -0.0633517)
(81.0874 -10.8433 0.573855)
(74.9146 -10.8535 2.52374)
(69.2287 -10.0467 1.57913)
(67.1143 -11.0553 0.207842)
(67.7434 -10.5696 0.261131)
(69.1098 -7.68055 0.0610542)
(69.0723 -5.00988 -0.105325)
(70.1916 -2.66909 -0.160579)
(70.8031 -0.865156 -0.276688)
(69.0282 0.140612 -0.146489)
(-47.8146 91.9139 129.786)
(-129.049 -52.9034 -59.2939)
(75.61 -23.7196 -14.9778)
(-17.327 -58.2148 2.47628)
(68.6728 -43.8439 0.0968187)
(42.7327 -48.7984 -2.32737)
(70.9588 -40.0905 -1.07648)
(79.3378 -31.4292 0.24254)
(83.4947 -23.5196 -0.157236)
(85.4312 -15.7311 -1.10078)
(85.8776 -9.31693 0.406067)
(78.1858 -3.6616 2.57437)
(72.2156 -4.44504 -0.210037)
(69.5952 -9.90355 -0.919205)
(73.1172 -12.7017 0.299818)
(74.2475 -8.04521 0.171488)
(72.8774 -5.00413 -0.113298)
(73.2925 -2.96272 -0.253926)
(73.4753 -1.67551 -0.299049)
(71.7421 -1.09379 -0.0650769)
(-37.9697 -148.515 26.186)
(-215.687 -127.952 -52.6409)
(88.8516 -99.9143 -19.7021)
(-51.3516 -69.6997 -0.192857)
(73.5591 -59.2541 -3.08156)
(38.5262 -60.3269 -0.994649)
(78.2195 -64.2917 1.45676)
(83.682 -37.492 2.28204)
(85.2671 -27.1774 0.475014)
(90.0631 -18.4459 -1.34925)
(93.2849 -9.39491 -1.22884)
(94.5396 3.68956 2.33298)
(90.0599 7.74879 -1.24993)
(84.4738 -2.93988 -6.8377)
(81.8514 -16.3067 -1.16598)
(79.297 -7.96966 0.672856)
(75.572 -4.31629 0.0470119)
(75.0021 -3.1132 -0.0570327)
(74.6782 -2.47065 0.0630668)
(72.204 -1.82265 0.181114)
(222.38 -13.3363 197.403)
(54.6614 -57.2931 -18.7738)
(144.117 -80.256 -31.2276)
(49.4203 -52.9158 -2.54103)
(121.131 -65.0793 -2.87137)
(62.5503 -86.87 0.0610672)
(81.6319 -59.028 0.684415)
(56.491 -39.9152 1.12126)
(80.8261 -35.8322 1.41533)
(82.1804 -21.0556 -0.801283)
(96.6264 -11.3309 -1.57881)
(101.708 0.991645 -0.854079)
(113.651 9.05273 1.16677)
(116.484 2.14986 2.21515)
(91.3815 -2.29703 3.49423)
(82.373 -2.41021 2.35095)
(77.8617 -0.779525 0.704052)
(75.8532 -2.06168 0.29959)
(75.048 -1.94365 -0.00718387)
(71.7679 -2.0379 -0.0573231)
(113.811 -77.0044 -101.902)
(-57.3762 -85.913 -26.4118)
(129.465 -71.3912 -32.5378)
(46.005 -53.5269 -12.3373)
(118.394 -58.3344 -4.76208)
(70.0105 -59.4442 -3.15388)
(87.7589 -28.2446 -0.174801)
(65.9417 -54.1312 0.73023)
(73.8335 -29.2669 -0.624717)
(65.74 -34.9551 0.371545)
(76.1615 -16.649 -1.33438)
(74.4438 -12.5238 -0.220487)
(81.315 -1.10292 1.5663)
(77.9579 0.138016 1.97798)
(78.5792 3.18481 1.10236)
(75.2851 2.46384 0.19063)
(76.4615 1.59263 -0.151319)
(75.9166 -0.0889281 -0.402164)
(76.6624 -1.07917 -0.744355)
(73.8699 -1.77777 -0.635712)
(396.561 -242.249 0.679402)
(244.93 -86.4146 5.024)
(214.274 -61.0368 -17.1856)
(129.445 -56.1202 -7.19347)
(157.573 -50.763 1.24528)
(100.266 -56.1699 2.64486)
(120.478 -37.2872 6.29983)
(92.8361 -41.9123 1.45459)
(94.262 -30.386 1.94042)
(79.1066 -27.7778 0.511456)
(79.0547 -18.7713 0.551922)
(73.1492 -12.6889 0.336353)
(76.0219 -5.21112 -0.105542)
(75.514 -1.80545 -0.302229)
(78.7887 0.308644 -0.963798)
(79.2844 -0.766346 -1.15533)
(82.5379 -0.836038 -1.29338)
(83.339 -1.58995 -1.28423)
(84.9958 -2.15953 -1.3692)
(81.8092 -2.1665 -1.1441)
(218.901 80.7802 13.1738)
(123.252 -21.5269 -0.14172)
(172.474 -37.585 -5.67095)
(100.356 -46.0198 2.07441)
(152.078 -34.2396 5.59134)
(108.058 -36.6858 4.13459)
(126.786 -19.9418 5.17904)
(99.9271 -29.85 2.30885)
(105.649 -16.891 2.30085)
(89.6431 -20.6374 0.978733)
(91.8619 -10.5548 1.04258)
(84.4172 -9.85258 0.651186)
(87.7171 -3.66821 0.326174)
(85.9624 -3.01115 -0.145685)
(90.0025 -0.863249 -0.465717)
(90.132 -1.77075 -1.36503)
(92.7314 -1.65909 -1.44112)
(93.2279 -1.90716 -1.00259)
(94.615 -1.72058 -1.00675)
(91.3991 -1.27426 -0.755438)
(101.307 -174.552 -21.9038)
(36.745 -93.5108 -18.1955)
(170.01 -68.5537 -2.52322)
(100.706 -63.5557 6.47845)
(155.967 -36.8539 4.72252)
(102.123 -36.5682 3.54267)
(130.013 -22.1352 3.73683)
(99.1014 -24.5923 2.11757)
(111.207 -17.5647 1.92789)
(96.5986 -16.8121 1.15936)
(101.484 -11.9819 0.978693)
(95.5331 -9.77969 0.611633)
(98.4677 -6.56817 0.915101)
(96.6818 -5.16676 0.502391)
(98.8732 -3.66218 0.515461)
(98.2405 -3.85362 -0.156619)
(99.2051 -3.49502 -0.21169)
(98.9736 -3.05003 -0.0735816)
(99.3814 -2.6593 -0.0235284)
(95.6197 -1.69355 -0.0089643)
(241.092 -45.8463 53.0618)
(90.7909 -46.0846 18.006)
(207.434 -58.2596 -16.6339)
(110.8 -41.8651 6.36468)
(170.043 -23.2231 0.991469)
(118.285 -21.79 3.39846)
(140.888 -12.9639 4.31113)
(113.094 -15.9203 2.73257)
(121.159 -11.8668 2.37594)
(106.101 -12.6307 1.26953)
(109.418 -8.69292 1.15477)
(101.886 -7.77024 0.793351)
(104.077 -4.66534 0.798481)
(100.802 -3.88074 0.621068)
(102.39 -2.31563 0.889239)
(100.997 -2.18385 0.605712)
(101.309 -1.62981 0.618682)
(100.843 -1.38811 0.757612)
(101.152 -0.763189 0.82641)
(97.2971 0.0110376 0.586012)
(254.784 -8.18031 -8.66112)
(183.419 -49.0937 11.7407)
(204.372 -53.9369 8.33859)
(117.034 -27.3322 8.50609)
(170.387 -16.0609 4.42858)
(121.545 -13.3059 3.78436)
(148.072 -9.33289 4.06273)
(121.195 -8.77885 2.05855)
(130.153 -7.21345 1.48468)
(115.08 -6.5394 0.022122)
(117.245 -5.77572 -0.306253)
(108.886 -4.89554 -0.926773)
(109.401 -4.29275 -0.980097)
(105.214 -3.52374 -1.22221)
(105.642 -3.14212 -1.24868)
(103.835 -2.76468 -1.41171)
(104.078 -2.48321 -1.37103)
(104.136 -2.34051 -1.41677)
(104.722 -1.77403 -0.623673)
(102.15 -0.411751 0.362594)
(386.49 -65.4448 195.412)
(206.445 -15.2017 49.9036)
(237.7 4.82105 10.5275)
(164.142 -12.2035 -1.09739)
(193.91 -13.5231 -4.58255)
(153.935 -7.43181 -1.76439)
(166.628 -5.19782 -0.116641)
(146.39 -1.85687 0.239699)
(151.236 -1.11481 0.637743)
(140.93 -0.233207 0.33764)
(142.242 0.69213 0.571323)
(136.901 1.44735 0.485331)
(137.576 2.11742 0.710518)
(135.043 2.16392 0.476599)
(135.654 1.84143 0.537511)
(134.235 1.26601 0.0948962)
(133.901 -0.553974 -0.137913)
(131.72 -2.72677 -0.304085)
(128.828 -3.22889 -0.340896)
(121.702 -1.10631 -0.581903)
(-3.90451 -173.113 -226.386)
(-144.915 -40.4352 21.1736)
(50.8139 -17.4784 -14.5125)
(5.18256 -10.637 -3.17864)
(68.3692 -5.25395 1.89417)
(57.2177 -9.2209 -3.15165)
(76.3966 -5.98554 0.970408)
(72.2176 -4.36775 4.51638)
(84.7955 -0.399709 9.32218)
(89.1008 0.073429 5.94846)
(95.1774 -0.912579 1.49899)
(93.7441 -1.39548 -1.09215)
(94.5852 -1.87063 -2.45129)
(91.9825 -2.10705 -2.89114)
(92.1316 -1.85797 -2.63284)
(90.114 -1.81745 -2.41732)
(90.1385 -0.431525 -1.98259)
(88.064 1.1446 -1.48526)
(86.5699 2.03228 -0.798156)
(76.7092 0.876634 -1.20303)
(34.9627 -190.057 90.0868)
(-166.492 -51.8598 35.2392)
(37.024 -58.983 5.33972)
(-35.0185 -34.5127 4.24968)
(44.5055 -24.7233 4.91518)
(22.0623 -14.4742 -1.00882)
(52.0858 -7.81265 2.61116)
(46.7251 -2.1082 1.40976)
(62.2726 2.79202 3.67638)
(64.0006 2.34581 1.73684)
(71.1621 1.35599 1.03504)
(71.3925 0.194021 0.0508598)
(74.2296 -0.443747 -0.0565964)
(73.7389 -0.738089 -0.123942)
(74.7635 -0.63833 0.290739)
(73.9669 -0.332632 0.579016)
(74.5107 0.461424 0.640141)
(74.324 1.31249 0.224763)
(74.9004 2.00739 -0.185508)
(69.0222 1.51183 -0.418)
(113.292 15.1875 92.4449)
(53.1659 -43.424 35.2721)
(97.3319 -45.1724 -2.37403)
(24.9187 -53.6695 -8.26811)
(57.5076 -47.4237 -0.121974)
(26.477 -27.6646 -0.133251)
(44.1401 -18.3663 3.14654)
(36.0507 -8.36269 1.14288)
(49.4584 -5.12683 1.39953)
(50.2859 -3.23549 0.738644)
(59.1743 -3.8347 0.927742)
(60.9197 -3.09529 0.629677)
(65.7017 -2.59371 0.837838)
(66.5713 -1.2616 0.843894)
(68.6597 -0.0291293 0.80337)
(68.5153 1.20514 0.632019)
(69.0566 2.14858 0.487734)
(68.8787 2.55974 0.172956)
(69.7581 2.73987 -0.133832)
(64.9253 2.06636 -0.317384)
(339.76 71.4495 194.644)
(-104.113 -40.5201 48.9059)
(101.979 -60.7522 15.9066)
(26.8066 -47.1687 -1.33821)
(67.8643 -22.4808 -1.41425)
(28.6184 -12.7205 -2.40475)
(45.6463 -7.63472 2.2458)
(33.3478 -6.2297 0.667048)
(45.4846 -6.96142 0.729478)
(43.7875 -7.0017 -0.0237076)
(52.1334 -7.59188 0.241878)
(53.7811 -6.1255 0.162984)
(58.7771 -4.51105 0.291253)
(60.0974 -2.31168 0.189053)
(62.695 -0.790818 0.219302)
(63.4554 0.591254 0.207497)
(64.7273 1.59958 0.231433)
(65.498 2.13254 0.0687331)
(66.7951 2.65682 -0.0995603)
(62.5902 2.38318 -0.300311)
(49.2564 -120.685 -9.29053)
(-63.9389 -27.0173 45.7701)
(57.2842 -83.842 27.1175)
(-9.85605 -64.6428 6.88042)
(46.989 -43.5433 5.24988)
(15.5676 -23.7834 0.76918)
(42.7456 -19.4371 3.13917)
(33.5325 -11.5373 1.01036)
(47.4557 -15.253 0.858532)
(45.0448 -12.7603 0.106708)
(52.9758 -14.2095 0.840472)
(53.8259 -10.6225 0.519111)
(58.5184 -8.68089 0.497095)
(59.2069 -4.99227 0.146007)
(61.8045 -2.72114 0.165739)
(62.3588 -0.650742 -0.0515981)
(63.5019 0.892473 -0.0593799)
(64.1644 1.81105 -0.149854)
(65.3649 2.71846 -0.244765)
(61.5375 2.54673 -0.401482)
(48.7126 -151.713 19.5431)
(-30.4048 -96.6832 24.6296)
(91.6309 -55.6826 32.3411)
(23.4599 -45.1593 14.4386)
(68.6289 -28.3552 10.0855)
(31.8401 -15.8781 1.30769)
(55.5701 -15.4773 1.71535)
(45.5497 -11.44 0.811351)
(53.5235 -14.4873 1.63014)
(50.639 -13.9255 1.57951)
(55.0152 -14.1699 1.82603)
(55.3079 -11.4113 1.09875)
(57.8675 -8.96588 0.502912)
(58.5407 -5.64406 0.0619685)
(59.8997 -3.48829 -0.0419987)
(60.5912 -1.41465 0.00154629)
(61.7668 -0.00548777 -0.133277)
(62.7786 1.13353 -0.138194)
(64.0827 2.26656 -0.236093)
(61.022 2.36171 -0.329869)
(161.451 -318.538 345.937)
(-141.117 -112.139 6.38186)
(49.0623 -66.2803 2.6622)
(-33.5271 -52.3889 -0.320282)
(52.109 -32.559 3.41843)
(11.232 -19.2828 -1.31066)
(40.9442 -32.3336 -0.121598)
(34.8115 -12.4147 0.976562)
(46.9574 -19.4092 1.5892)
(45.2691 -13.0998 2.40687)
(51.6697 -15.9553 1.85299)
(51.9305 -11.4417 1.27596)
(55.8101 -10.7578 0.337899)
(56.0388 -6.99195 0.103819)
(58.2557 -4.92241 -0.0403566)
(58.9478 -2.57702 0.00149836)
(60.4298 -0.983847 -0.00432388)
(61.9248 0.237102 -0.169768)
(63.2596 1.56237 -0.240061)
(60.8017 1.8197 -0.231356)
(262.538 -201.213 -91.5081)
(15.3895 -123.921 -27.9647)
(92.9179 -103.912 1.19266)
(19.5553 -74.6501 -1.239)
(76.6039 -49.7406 5.54396)
(41.6433 -17.6241 -0.964609)
(61.5613 -20.5764 0.942556)
(42.8977 -21.2628 0.785104)
(48.4113 -12.5276 1.18123)
(47.8262 -15.2729 2.58121)
(51.7198 -12.0479 2.27983)
(52.7644 -12.5738 1.54458)
(55.9526 -9.2725 0.46689)
(56.7614 -7.32859 -0.0264427)
(57.1753 -6.83332 -0.0366981)
(58.4377 -4.38999 -0.208996)
(59.3406 -2.86259 -0.179543)
(61.0329 -0.969847 -0.171422)
(62.3739 0.407346 -0.32875)
(60.2129 1.11663 -0.197841)
(103.157 -137.892 -68.2134)
(-15.2056 -101.094 -30.2316)
(66.1793 -61.697 3.18703)
(0.0398048 -58.2744 1.27183)
(51.031 -38.162 2.69927)
(40.6079 -16.5318 -2.38981)
(55.4551 -8.31672 -1.29534)
(48.1271 -22.4945 -0.0237483)
(54.6673 -17.8704 1.89943)
(56.4791 -15.4783 1.95936)
(56.1496 -12.1337 2.46782)
(56.2499 -12.9776 1.93435)
(57.5047 -11.1052 0.824336)
(58.1641 -9.30719 0.137736)
(59.072 -7.31915 0.280524)
(59.42 -6.20835 0.316147)
(59.9327 -4.26685 -0.100802)
(61.4176 -2.34826 -0.0889567)
(62.3917 -0.68672 -0.221923)
(60.37 0.256563 -0.123549)
(170.693 -113.199 48.2582)
(-35.9816 -100.449 -29.9122)
(73.2891 -66.4518 -10.2048)
(-9.86359 -69.6168 -0.547682)
(59.1268 -50.1642 -1.16695)
(44.83 -37.5703 -2.31512)
(63.0827 -22.069 -0.512032)
(67.079 -27.1294 1.63298)
(67.9681 -23.2881 1.83283)
(67.5485 -16.0627 0.286802)
(64.9081 -13.1352 1.55955)
(61.9897 -12.7737 2.52462)
(61.4981 -12.1138 0.953562)
(61.3516 -11.6906 0.0758348)
(61.8854 -10.7614 0.553084)
(62.3189 -8.00708 0.531796)
(62.193 -5.47699 0.0958313)
(63.3389 -3.31929 -0.108147)
(63.9084 -1.58808 -0.266945)
(61.9586 -0.442011 -0.158278)
(233.173 208.098 69.109)
(-100.764 -62.2112 -53.9048)
(77.0643 -29.0473 -22.4047)
(-21.366 -62.5704 0.830511)
(58.9609 -49.0671 -1.83299)
(32.1932 -53.0689 -1.09685)
(60.447 -42.7767 0.285533)
(69.1702 -32.9947 0.963443)
(73.3369 -23.8501 0.0590466)
(74.5568 -16.0015 -1.68115)
(74.567 -12.0625 -1.96348)
(69.4209 -7.94279 0.479917)
(65.8031 -8.27254 -1.41379)
(64.3545 -12.0004 -1.4473)
(66.3973 -12.4943 0.583245)
(66.2827 -8.60222 0.733992)
(65.2916 -5.78886 0.128116)
(65.9353 -3.92448 -0.0926958)
(66.2259 -2.48378 -0.24696)
(64.3066 -1.46271 -0.039271)
(331.934 -241.798 -118.23)
(-181.116 -127.088 -49.3689)
(96.8879 -105.398 -26.8436)
(-47.9612 -73.6785 -2.01185)
(66.0758 -66.2921 -5.7354)
(33.6303 -67.0502 -0.0439813)
(69.7539 -66.5991 1.97181)
(72.6627 -38.0918 2.77392)
(76.4366 -27.6577 0.823863)
(80.0215 -17.434 -1.4883)
(81.6897 -7.9061 -1.28296)
(82.4582 1.60564 1.34105)
(82.5327 -0.951419 -3.73835)
(76.8047 -11.8297 -6.49272)
(72.8697 -15.1307 0.641725)
(70.6229 -8.68395 1.27156)
(67.6404 -5.64225 0.389255)
(67.4609 -4.24112 0.14113)
(67.2831 -3.10382 0.0773215)
(64.8042 -1.85406 0.105785)
(190.499 -140.852 118.027)
(93.9904 -63.3886 -20.5607)
(143.242 -80.9235 -37.9028)
(52.6264 -55.479 -6.69229)
(112.35 -69.6467 -4.75611)
(50.5306 -88.2898 0.0431452)
(69.513 -56.0133 0.787327)
(46.6823 -41.4332 1.51106)
(72.0378 -33.9784 0.984003)
(71.9113 -20.6475 -1.26089)
(86.1468 -11.8015 -1.75489)
(89.4748 -2.02325 -0.645107)
(99.2956 -1.22838 1.24784)
(96.1103 -8.42783 3.47994)
(75.8662 -4.82945 4.49878)
(72.6056 -4.50925 2.5693)
(69.9763 -2.46817 0.880306)
(68.6435 -3.18401 0.352541)
(68.0176 -2.43052 -0.00623927)