/*--------------------------------*- C++ -*----------------------------------*\
  =========                 |
  \\      /  F ield         | OpenFOAM: The Open Source CFD Toolbox
   \\    /   O peration     | Website:  https://openfoam.org
    \\  /    A nd           | Version:  10
     \\/     M anipulation  |
\*---------------------------------------------------------------------------*/
FoamFile
{
    format      ascii;
    class       volScalarField;
    location    "8.1";
    object      k;
}
// * * * * * * * * * * * * * * * * * * * * * * * * * * * * * * * * * * * * * //

dimensions      [0 2 -2 0 0 0 0];

internalField   nonuniform List<scalar> 
12920
(
602.596
1253.16
1172.55
754.277
339.513
252.627
240.2
232.63
206.109
183.636
167.304
157.522
144.979
130.297
112.409
91.0674
72.6093
59.9406
53.5916
49.6117
441.319
1049.14
745.429
430.647
334.595
396.379
433.267
411.804
330.486
276.851
235.453
212.011
191.091
171.827
151.561
137.29
134.867
136.584
141.014
140.319
299.363
1213.13
983.39
730.178
643.548
633.098
566.649
492.588
413.333
364.638
310.529
267.686
229.918
201.253
183.788
176.74
176.845
177.508
177.508
173.2
512.183
1650.06
1340.2
951.455
848.76
742.306
626.584
554.548
465.653
415.303
362.331
323.885
283.316
251.134
229.885
215.883
211.359
205.909
202.746
190.902
254.921
1075.89
1285.15
1092.44
934.684
811.397
637.261
538.955
444.308
397.235
355.504
329.915
304.499
285.089
269.853
256.156
249.28
236.239
228.242
207.727
1552.04
1443.24
1362.12
841.793
741.858
631.815
544.293
477.297
413.416
381.289
346.027
322.839
299.942
282.766
269.669
258.511
250.079
231.907
220.777
200.76
2321.53
2177.32
1776.16
1065.79
879.766
759.42
617.113
519.416
430.052
372.894
330.563
305.95
284.53
267.567
254.372
245.801
229.095
198.577
171.944
156.679
5446.04
2430.39
1857.04
1118.45
923.703
803.11
440.42
285.432
264.874
212.612
195.057
177.306
167.43
157.422
237.066
204.404
168.476
140.329
127.943
126.444
4809.45
2453.23
1772.59
1160.85
825.313
474.645
372.433
220.253
158.612
125.079
108.216
97.0631
90.6955
85.1629
135.17
151.878
119.937
104.61
99.6855
101.006
2854.86
3187.22
3076.28
2447.14
995.809
337.908
283.63
213.487
158.527
125.331
107.695
86.6893
72.3546
60.7607
86.808
109.131
101.928
99.6851
96.1205
93.8464
10303.1
9463
7515.97
4148.09
1691.81
391.193
99.3742
99.5342
94.3853
89.108
79.4399
64.6548
53.3862
45.0867
76.0086
122.443
116.516
114.092
111.924
104.613
10125.2
5787.9
3210.23
1912.4
946.012
270.255
123.086
91.5871
61.337
41.4804
45.8361
63.1548
68.5084
65.0187
105.256
131.071
116.942
108.042
104.917
99.3901
6966
2516.21
1599.42
1043.24
568.971
455.301
253.66
223.38
158.558
112.854
98.0647
87.6768
82.6735
77.7311
124.718
112.453
104.053
96.9575
91.9623
87.7075
1974.52
2687.34
2174.95
1430.36
734.435
571.413
475.646
453.778
364.473
299.41
232.196
200.018
175.358
157.706
137.128
118.526
104.861
93.7057
86.448
79.3721
4548.1
5069
2171.07
1326.93
912.569
818.824
693.16
725.294
690.017
621.395
451.79
329.295
257.45
222.301
185.863
148.663
119.108
97.2868
85.6974
75.2018
1437.65
1258.53
1015.5
977.267
854.939
770.326
698.396
682.991
631.72
565.345
466.641
389.932
317.834
265.935
223.613
182.075
144.584
113.633
96.211
80.6985
2189.84
915.309
841.572
723.812
627.04
584.223
549.647
501.085
443.902
397.354
345.233
292.864
250.861
214.037
178.707
147.503
126.454
108.892
98.9564
86.3725
942.123
1827.94
1808.54
968.014
662.991
482.704
379.123
337.115
292.25
250.76
204.972
167.43
142.819
130.959
127.316
121.665
114.987
107.269
104.622
99.5097
312.681
1424.81
1006.35
880.234
856.419
740.104
448.668
334.079
279.741
262.634
232.119
200.041
162.825
129.918
110.5
102.699
99.8706
99.7627
100.236
101.932
257.818
494.447
467.701
538.264
549.191
524.176
405.368
281.968
221.76
206.17
190.673
174.365
157.222
141.298
121.593
105.286
96.4973
91.2018
86.3595
69.9312
2296.03
3784.4
3020.82
1621.99
843.259
681.994
614.79
542.841
466.449
399.427
338.973
288.261
248.045
214.874
182.266
158.339
148.179
149.033
155.592
157.945
4868
4521.19
1555.49
876.428
768.251
1002.43
1043.34
953.859
763.697
683.503
614.489
603.458
588.548
565.4
512.622
471.269
456.254
456.033
453.885
439.302
3165.28
4826.38
3053.82
1903.52
1586.82
1630.58
1458.99
1274.3
1070.65
973.863
850.632
778.367
699.277
645.469
600.644
575.472
571.359
562.416
553.673
527.292
3495.41
4804.99
3368.75
2288.03
2191.18
1849.09
1572.33
1405.9
1207.71
1108.42
982.866
905.769
816.249
754.932
705.783
673.041
658.787
634.34
615.098
564.937
640.583
3316.98
3461.98
2645.83
2354.17
2014.15
1609.8
1431.74
1212.97
1117.77
1006.75
944.172
878.62
834.988
796.015
763.971
740.785
698.161
670.185
609.803
509.841
3275.43
3506.66
2206.53
2034.73
1649.25
1425.32
1273.18
1116.09
1049.6
964.136
913.351
858.429
820.374
788.421
758.867
728.917
676.73
644.943
601.772
2860.45
5160.06
4420.36
2746.04
2298.39
1961.32
1559.28
1331.75
1123.36
1004.91
910.962
854.484
800.779
759.8
721.227
689.146
638.996
559.502
508.242
480.483
12825.6
6564.97
4615.16
2789.13
2344.63
1960.77
1515.33
1161.35
968.339
804.749
734.604
669.066
630.816
586.753
574.8
517.102
444.239
394.058
381.216
380.859
5313.38
5877.45
3854.69
2402.27
1976.13
1699.59
1475.62
1153.03
843.376
679.737
588.899
524.665
483.915
446.722
407.536
344.377
301.993
291.181
294.663
309.803
7007.19
6706.79
4441.24
2669.45
1350.17
1175.63
1217.73
1042.86
752.646
596.264
497.828
410.354
347.909
299.004
257.619
258.388
262.206
273.666
281.725
294.735
11340.3
11558.9
9331.7
5097.26
1713.58
863.315
662.127
593.873
507.332
452.224
361.912
274.731
224.291
205.695
230.826
294.273
303.231
311.891
315.635
314.758
15321.5
7567.32
5786.54
3791.69
1264.75
837.392
730.819
566.7
393.473
334.68
333.816
329.638
321.709
306.465
308.655
314.433
301.875
296.872
294.327
293.444
12894.1
6838.07
3588.55
2217.91
1149.11
1286.71
1026.57
802.441
560.938
430.756
389.832
356.359
336.573
312.387
322.873
303.031
289.557
278.136
269.523
264.836
6826.12
7535.35
4699.4
2924.07
1521.3
1590.67
1300.21
1181.64
877.741
754.708
608.091
536.489
475.184
427.059
378.684
332.62
297.497
271.485
254.44
240.087
13596.9
11306.8
5080.02
2910.15
2266.21
2159.14
1847.73
1815.54
1575.2
1402.76
1081.78
851.323
701.194
609.807
515.215
413.964
331.755
277.109
248.715
224.421
9828.64
7524.86
3250.92
2641.29
1962.21
1963.49
1793.65
1741.23
1520.99
1409.8
1183.99
1036.49
853.636
732.441
621.403
504.763
395.872
317.578
275.736
241.089
9674.84
2575.11
2657.44
1860.31
1647.21
1533.64
1369.4
1277.68
1079.35
989.713
831.177
737.947
644.176
583.288
500.938
421.833
365.308
320.819
293.395
261.056
2115.67
6300.03
4857.24
2232.86
1601.43
1197.65
954.344
862.028
717.464
640.207
510.437
437.71
390.577
387.432
383.11
363.447
338.722
319.175
310.29
297.138
582.413
5216.75
3631.04
2205.06
1860.12
1605.04
1044.09
839.438
710.759
681.562
602.118
526.068
413.667
342.227
305.159
302.269
305.55
312.462
313.95
310.768
174.207
996.227
752.584
879.143
950.458
917.756
687.69
509.415
468.856
437.973
386.018
337.169
291.602
255.487
229.574
210.283
201.167
191.455
166.15
114.202
12341.4
7659.65
5548.86
3055.66
1695.71
1115.65
833.16
657.251
528.316
428.182
351.91
296.559
263.285
242.109
228.87
215.886
211.84
211.993
215.673
215.867
15134.9
7244.68
3908.37
2094.91
1817.22
1746.89
1451.62
1207.49
981.649
910.128
840.018
828.872
804.112
775.614
734.127
704.58
686.242
671.164
662.107
642.251
13602.3
7823.36
4714.14
3154.83
2710.61
2414.49
1945.86
1673.02
1417.76
1290.66
1153.08
1072.37
991.297
933.352
884.24
844.877
819.28
786.976
766.914
723.685
14775.3
7705.56
4428.14
3143.37
2990.24
2459.32
2093.06
1835.77
1589.62
1448.41
1296.88
1199.15
1104.06
1035.93
980.716
934.101
899.614
849.285
815.964
747.012
6673.1
5319.99
4633.14
3473.09
3153.95
2606.13
2155.79
1896.39
1634.9
1489.32
1346.23
1254.86
1171.9
1109.68
1056
1005.17
962.528
901.71
863.533
788.242
2960.73
4537.67
4642.18
3145.97
2864.81
2244.05
1956.28
1723.01
1510.68
1400.57
1285.21
1210.65
1139.41
1084.43
1037.01
988.842
943.648
885.303
852.69
791.708
10683
6605.77
5489.28
3693.39
3124.07
2525.09
2010.3
1699.88
1449.66
1307.04
1193.07
1118.78
1047.93
991.524
935.741
881.716
822.281
756.647
722.327
681.611
8602.18
7723.71
5938.56
3878.58
3165.86
2556.92
2091.42
1589.03
1312.96
1107.6
1013.27
924.098
868.511
806.01
730.424
666.499
612.999
578.409
567.779
556.82
4988.57
7183.82
5583.29
3425.14
2724.69
2366.1
2075.63
1493.76
1119.07
914.982
800.941
715.345
659.099
606.843
536.935
463.478
445.592
446.085
454.894
471.349
6628.56
8304.19
5735.15
3225.15
2004.82
1720.44
1641.11
1295.6
946.84
757.27
624.797
521.721
451.239
400.724
358.759
376.569
393.314
412.22
428.855
450.778
10569.6
11209.7
8252.29
4151.93
1691.28
1188.09
1028.15
852.784
705.39
614.811
350.532
256.084
273.354
292.294
343.763
421.34
435.62
446.196
452.605
460.512
8846.89
9920.38
7062.73
3500.59
1600.49
1239.89
1114.89
805.829
605.83
529.95
489.931
457.065
436.003
419.495
422.068
436.152
430.175
428.263
428.695
432.844
10821.8
8262.45
4510.9
2564.21
1809.66
1753.5
1387.88
1006.27
725.948
601.276
549.172
509.413
480.193
449.441
445.429
423.765
408.218
396.429
389.95
390.037
15307.4
8544.07
5293.43
3218.82
2398.92
2210.73
1621.33
1412.5
1038.12
906.691
757.449
681.045
604.718
544.41
488.863
441.829
406.854
380.484
362.681
352.006
18436.9
9033.77
5688.88
3541.13
3066.08
2653.7
2196.34
1992.92
1611.66
1393.74
1119.28
960.075
816.673
703.989
598.4
505.69
436.022
385.286
355.479
332.535
15595.6
9629.67
5401.28
3677.79
2919.4
2597.8
2173.87
1974.66
1639.5
1473.57
1230.87
1076.17
918.181
804.143
688.514
580.325
492.631
426.475
386.741
352.486
16363.8
5700.68
4181.72
2697.89
2396.74
1984.75
1745.24
1524.58
1297.74
1164.02
996.859
900.634
798.725
723.458
636.134
553.995
491.675
442.674
413.091
381.973
12234.9
11880.9
7594.6
3258.95
2198.81
1631.72
1342.28
1180.55
988.097
892.776
757.943
701.17
642.348
613.177
568.122
519.701
484.851
459.703
448.804
437.753
3153.24
9640.48
6057.47
3197.98
2360.58
1921.63
1297.78
1131.07
955.476
900.8
777.035
697.91
601.853
552.152
512.946
491.342
475.94
462.13
450.732
448.959
137.905
1822.89
1367.57
1198.9
1081.33
911.841
713.98
618.597
549.781
475.623
407.577
357.321
312.931
282.35
264.805
254.482
237.404
204.997
165.699
132.761
2328.18
6822.97
6508.73
3875.88
2188.8
1396.43
966.876
694.763
520.954
400.712
335.879
296.377
282.707
270.358
265.317
253.561
249.116
245.226
247.966
246.314
7914.08
8649.56
6030.46
3535.23
3068.61
2343.42
1788.19
1406.87
1192.04
1116.59
1059.33
1029.5
991.491
946.824
911.625
882.415
864.168
845.862
835.725
816.93
15650.3
11224.3
6497.32
4118.92
3701.51
2886.32
2363.56
1938.82
1702.22
1527.31
1399.19
1293.14
1213.67
1140.73
1089.28
1039.5
1004.8
961.884
934.197
885.104
16650.1
10132.8
5504.77
3869.88
3685.88
2830.71
2510.61
2096.76
1872.88
1669.44
1527.25
1404.39
1316.48
1236.4
1178.57
1118.82
1072.09
1008.92
965.483
889.307
4784.89
8022.7
6634.08
4278.93
3863.94
2977.24
2580.71
2183.1
1938.79
1732.27
1591.22
1471.3
1386.3
1305.95
1243.9
1177.47
1123.52
1053.91
1008.24
922.845
6477.85
7341.8
5911.32
3899.82
3550.31
2634.64
2374.06
2015.43
1794.92
1631.36
1511.67
1414.94
1338.8
1269.62
1213.04
1152.56
1103.39
1044.4
1007.64
933.664
10599.3
7847.78
6479.86
4357.5
3850.58
2873.26
2341.02
1948.77
1680.31
1517.08
1394.82
1304.47
1223.21
1152.82
1084.24
1021.37
968.704
916.281
887.533
838.113
13797.3
10516.9
7171.95
4639.54
3905.21
2971.69
2417.46
1842.06
1525.12
1310.43
1200.46
1099.02
1028.9
955.303
845.913
791.114
759.312
736.996
727.903
710.271
6839.47
8545.82
6837.86
4183.24
3259.12
2779.92
2413.07
1671.23
1282.31
1059.61
935.822
839.307
775.648
716.815
638.744
587.2
588.848
598.668
613.095
623.313
15922.2
11754.2
6885.04
3796.56
2519.16
2091.62
1899.96
1423.75
1053.24
839.99
687.089
579.757
519.253
486.781
467.674
513.296
535.204
560.54
583.465
603.674
19372
15104.9
9316.46
3950.95
2011.79
1493.95
1299.56
1034.33
841.172
708.54
467.148
371.081
375.359
411.072
475.961
555.316
569.402
582.509
594.082
607.873
16647.2
14060.7
8520.05
3663.27
2046.34
1565.41
1377.31
965.205
755.66
657.042
590.19
546.034
529.059
523.269
534.041
556.226
556.342
559.127
564.529
575.259
19168.1
8821.98
5437.95
3128.06
2404.4
2082.21
1556.6
1132.71
838.007
729.174
670.581
626.98
594.605
561.494
556.688
537.033
523.915
516.882
515.877
520.027
12776.9
9052.65
6124.59
3806.97
3224.54
2566.91
1816.19
1510.82
1136.19
1000.5
859.849
779.061
700.391
637.326
583.443
540.914
510.579
488.286
475.215
471.617
27515.1
9725.12
6168.21
4223.47
3681.73
2879.59
2390.96
1971.55
1588.84
1351.33
1134.53
994.09
864.542
754.429
658.43
580.755
526.128
486.305
461.75
447.541
19939.9
9852.5
6608.72
4238.23
3610.38
2815.69
2395.77
1992.97
1682.83
1446.58
1239.13
1079.22
944.065
830.535
727.651
638.437
573.188
523.283
491.659
467.943
23700.2
8668.96
5227.29
3484.69
2886.33
2220.57
1994.16
1633.14
1431.41
1244.4
1104.12
989.573
890.804
801.705
719.952
647.528
595.338
553.798
528.541
506.082
22978.5
14519.9
9180.51
4144.47
2676.8
1904.08
1656.98
1386.68
1199.93
1061.85
949.773
875.783
810.472
752.815
699.065
651.92
622.91
602.543
595.817
590.497
19966.4
16591.6
9376.57
3979.92
2644.28
2013.67
1538.32
1345.22
1155.93
1038.69
911.012
826.833
750.89
705.37
670.042
646.024
630.685
615.637
608.661
619.818
278.639
2662.16
1898.47
1372.67
1062.07
857.914
732.048
640.18
545.666
447.305
383.438
338.048
306.828
281.567
266.281
243.587
212.128
181.242
164.302
152.73
10475.8
6450.18
5518.81
3433.19
2205.07
1385.99
908.583
603.932
427.056
343.189
309.372
289.316
283.146
268.904
263.12
248.372
243.2
238.171
241.487
236.288
17640.1
9251.24
7110.03
4394.12
4237.73
2601.7
2275.24
1527.89
1485.81
1310.86
1310.25
1216.59
1191.51
1118.06
1098.57
1061.13
1051.7
1030.49
1018.5
1001.77
8355.14
12234.2
8976.11
4841.13
4808.35
3191.29
2902.34
2137.81
2049.78
1744.18
1672.96
1499.26
1445.31
1341.87
1300.6
1236.49
1203.15
1151.23
1116.17
1065.2
11854.5
10502.3
6888.81
4793.31
4486.29
3086.02
3027.84
2314.52
2215.73
1877.54
1792.96
1609.87
1549.94
1440.83
1389.01
1311.52
1260.81
1185.67
1131.48
1050.27
15247.3
14027
9371.29
5037.9
4831.51
3309.24
3128.33
2433.85
2292.99
1965.34
1870.1
1696.7
1628.02
1517.41
1454.76
1369.63
1310.65
1229.93
1172.57
1075.53
9303.92
10131.6
7579.23
4697.43
4402.93
2992.01
2918.79
2297.88
2134.6
1871.65
1777.25
1640.7
1569.45
1479.06
1417.85
1344.69
1295.07
1229.45
1181.8
1092.83
20721.7
11455.5
8163.5
5005.82
4857.49
3251.62
2833.5
2263.34
1984.64
1776.33
1651.88
1531.27
1443.03
1349.83
1271.02
1203
1157.6
1107.17
1074.55
1015.25
23463.7
14679.5
9411.48
5394
5007.89
3430.29
2728.57
2090.33
1744.97
1529.74
1403.46
1291.63
1205.66
1121.1
1020.92
969.372
948.91
930.679
917.873
892.577
12317.3
11456.7
8429.64
5011.11
4033.71
3192.27
2730.91
1849
1462.28
1224.77
1096.22
992.237
927.608
867.168
795.026
776.251
781.328
793.877
805.483
807.814
8995.77
11148
8977.08
4423.12
3283.3
2445.13
2166.96
1582.66
1197.48
939.263
764.68
665.941
662.837
662.529
656.008
710.975
724.08
750.284
773.864
787.399
18189.5
19422.8
11789.3
4470.73
2663.85
1850.7
1585.2
1253.93
1015.99
797.265
611.701
513.267
566.333
633.005
681.39
745.886
750.736
761.554
776.133
789.368
35888.7
19708.8
11701.5
4656.27
2901.66
1929.87
1659.29
1175.54
955.409
806.668
719.404
680.943
703.833
713.617
719.002
741.292
737.306
739.244
746.625
756.925
25264
12188
6924.86
4389.1
3287.15
2688.61
1855.01
1321.12
1041.08
919.586
855.662
800.902
767.86
729.737
740.572
711.075
697.097
692.859
692.713
696.544
14244.9
10883.5
7981.29
4994.46
4529.02
3046.16
2377.09
1735.76
1394.33
1193.62
1058.09
949.772
869.639
796.529
741.161
698.997
672.072
652.253
644.277
642.296
25946.2
13046.6
7302.8
5606.03
4419.42
3332.56
2782.79
2070.58
1730.18
1436.84
1259.93
1100.45
980.969
867.245
783.543
716.643
673.492
641.299
623.714
615.964
37493.7
12325.5
8049.17
5222.83
4600.03
3157.61
2879.7
2113.84
1896.4
1517.9
1369.77
1161.69
1053.04
921.238
837.485
758.372
711.28
671.701
649.206
635.349
19447.2
12407.3
6561.68
4901.74
3456.23
2695.19
2369.71
1823.39
1676.31
1376.34
1286.55
1112.55
1034.24
920.126
855.781
789.198
749.612
713.001
692.523
677.133
29052.7
16430.9
11209.4
5182.66
3355.46
2309.63
2124.24
1619.84
1514.5
1243.96
1191.3
1048.67
1002.06
908.523
871.497
825.541
807.951
790.245
786.33
780.916
35427.2
25044.3
14120.6
5178.49
3051.14
2182.88
1907.41
1516.7
1416.96
1146.76
1091.93
959.015
929.283
868.715
857.029
824.887
814.249
803.071
811.321
839.942
1150.11
3930.28
2508.99
1548.43
1032.87
806.384
686.627
568.75
453.81
362.195
314.919
274.294
249.598
219.586
199.872
180.506
171.695
163.991
161.012
156.405
655.995
646.052
423.28
822.734
708.45
707.643
461.267
543.723
371.711
304.74
674.696
589.652
407.679
354.907
402.521
535.344
492.692
690.564
453.606
632.035
570.284
269.594
477.27
438.841
400.038
336.49
550.192
503.647
225.003
292.561
225.551
1192.26
1085.95
1161.08
1067.33
176.618
221.918
179.368
1016.1
798.421
1008.66
773.038
131.041
162.913
133.103
738.548
620.842
704.805
576.447
113.477
126.885
114.224
590.953
527.603
549.374
484.859
100.307
109.981
96.1889
509.877
467.421
464.964
408.004
93.0686
91.5153
82.3711
454.438
427.914
391.454
351.914
87.2031
79.8121
72.1997
419.436
396.606
340.546
308.018
67.8477
69.6518
52.8722
387.761
379.745
298.029
270.254
219.983
160.691
132.444
1044.28
993.814
684.433
640.623
172.367
131.048
119.002
933.907
730.454
612.658
531.055
131.223
114.184
103.51
672.997
557.405
506.949
450.418
112.127
100.137
90.6146
531.593
466.915
435.105
378.414
91.943
85.8808
71.4741
445.729
383.915
354.084
288.369
75.3459
67.487
57.3177
365.869
321.251
270.594
227.127
63.5707
54.0505
46.1961
308.663
273.646
215.505
189.224
48.6269
43.8596
33.4724
263.278
243.085
182.98
173.372
98.7334
99.3207
73.491
531.208
524.933
496.529
456.163
96.1641
71.0872
55.1492
506.6
453.819
422.428
328.342
90.3993
48.156
43.8638
439.069
405.203
304.293
280.259
83.0122
45.3922
54.6658
396.005
350.05
280.672
289.402
68.1759
59.3738
65.6159
328.716
269.954
290.78
283.373
56.0055
65.5904
65.9375
253.629
214.381
279.131
268.418
47.0095
65.6377
61.8662
204.742
185.765
265.38
254.474
34.177
60.5501
50.8009
181.959
175.558
251.078
248.185
95.8944
174.937
128.333
582.986
523.217
775.577
742.675
72.4684
125.865
94.5275
482.382
361.847
659.859
467.41
42.572
82.2379
57.9974
326.222
275.177
421.022
334.601
43.3775
58.245
58.9444
270.704
274.736
327.29
309.132
60.325
58.3543
54.4425
278.899
285.961
305.976
295.834
68.1377
54.3537
56.1093
286.283
285.056
296.924
291.312
66.6022
56.4766
56.0729
283.55
273.634
289.922
275.38
52.9348
54.9086
39.1394
269.717
262.361
270.67
256.962
1247.61
1369.35
1201.53
1951.93
1567.97
1744.08
1452.4
907.178
1126
861.929
1429.93
1135.5
1342.11
1034.61
713.054
789.442
649.29
1065.32
907.736
957.624
798.657
609.08
618.754
544.51
868.201
782.584
760.915
666.287
539.516
521.922
458.939
758.446
694.538
638.39
564.503
494.152
440.994
396.955
676.707
636.78
544.09
492.541
456.741
384.246
348.334
623.559
586.424
477.65
437.059
426.176
337.5
302.791
574.118
545.174
425.258
390.775
1114.01
815.511
737.909
1550.08
1347.87
1085.51
953.072
814.967
702.653
604.467
1250.29
980.062
900.615
764.516
625.379
576.432
510.01
910.852
763.509
727.502
637.323
521.885
492.533
419.225
727.357
631.356
616.635
459.673
429.783
389.744
314.924
601.427
522.505
413.959
327.031
361.712
295.272
249.59
500.867
446.328
310.307
284.506
309.986
238.032
212.968
430.898
390.263
279.413
270.079
273.337
207.474
196.228
379.093
354.465
269.172
272.243
619.391
637.857
550.192
940.887
841.458
922.975
773.407
525.879
508.796
402.495
798.252
692.472
714.774
584.887
463.618
377.384
345.723
664.225
594.368
556.24
505.029
388.817
343.552
341.922
578.604
427.56
495.304
461.804
293.157
339.478
322.894
382.738
294.086
448.724
414.024
233.488
317.182
303.469
275.214
259.197
405.597
387.048
208.217
299.972
288.811
259.54
265.855
382.886
372.627
199.214
285.676
279.335
269.084
279.494
370.544
368.481
616.781
1012.97
847.484
1031.21
827.309
1363.58
1036.66
429.397
748.083
538.806
756.937
595.736
914.335
692.574
340.532
488.251
395.329
560.369
499.515
636.253
537.813
332.89
386.481
364.339
489.256
466.01
526.305
496.33
331.169
359.5
346.096
458.113
435.764
487.017
464.762
324.082
346.702
338.342
430.392
415.642
463.067
446.439
310.356
335.915
318.924
411.342
397.825
441.15
419.395
293.867
313.974
293.45
394.243
384.331
414.201
394.335
1639.76
1831.19
1506.14
2336.72
1792.99
2032.76
1622.57
1191.41
1387.8
1073.13
1633.77
1322.22
1486.59
1160.36
955.595
995.816
833.218
1246.22
1069.33
1082.92
911.146
826.455
793.738
694.344
1026.79
932.84
866.97
756.19
733.896
665.347
589.278
904.836
830.126
724.908
644.936
673.32
568.422
515.799
810.422
763.83
623.582
571.788
619.781
500.711
460.122
748.101
703.925
557.89
522.176
574.324
448.471
413.235
690.292
654.35
512.193
483.195
1399.88
1163.22
1008.04
1836.16
1515.99
1351.99
1145.11
1016.96
950.919
804.911
1395.79
1101.29
1076.31
905.452
795.198
765.461
668.143
1029.18
865.868
859.306
745.993
708.797
722.307
720.253
782.459
686.705
745.819
744.319
563.041
595.462
579.171
644.442
547.068
614.32
596.145
466.646
298.984
293.99
567.418
515.135
351.975
350.373
411.446
292.361
289.828
501.908
470.662
351.774
362.864
375.822
290.468
295.995
462.816
445.737
368.289
385.91
900.716
1012.5
832.725
1233.75
1051.5
1224.3
982.652
736.456
770.216
634.367
991.771
848.157
911.18
759.72
626.717
604.385
547.408
809.26
712.747
725.498
650.884
558.289
562.282
578.019
635.53
540.496
516.745
607.913
362.133
310.895
398.118
257.87
365.218
226.316
392.754
268.291
429.904
410.686
329.435
339.527
493.603
475.992
287.435
406.537
397.359
345.526
368.007
473.653
472.065
304.057
395.762
393.195
376.156
397.947
472.701
475.644
880.4
1457.31
1075.23
1319.86
1010.91
1633.68
1156.82
641.378
951.485
730.972
927.866
757.695
1034.18
824.182
541.786
672.745
575.13
720.521
645.764
765.459
671.325
499.943
563.43
531.579
628.713
581.993
658.337
621.278
463.35
520.71
496.626
567.577
532.472
607.577
579.66
440.603
494.188
475.84
524.775
507.885
575.017
553.998
422.796
469.706
447.723
504.308
496.247
546.939
526.075
408.78
442.444
421.344
494.557
488.762
520.627
501.293
1832.25
2092.48
1653.56
2632.2
1952.67
2277.46
1761.13
1359.47
1513.34
1185.35
1789.2
1482.06
1610.57
1279.43
1102.48
1107.93
932.803
1403.27
1213.23
1201.35
1011.08
964.707
886.974
772.66
1169.64
1073.19
958.987
833.486
859.266
740.813
660.262
1042.89
960.787
800.255
720.068
791.821
639.097
589.59
940.793
892.753
701.99
671.99
730.653
576.869
544.544
876.434
830.351
666.168
648.026
679.479
535.451
507.574
816.473
777.913
642.01
620.859
1547.87
1411.6
1186.37
2078.63
1659.5
1598.17
1328.77
1125.87
1114.38
936.488
1524.99
1220.02
1248.85
1052.31
885.268
888.014
765.27
1144.79
955.467
993.92
832.687
721.43
729.591
534.475
902.179
769.773
782.789
630.216
601.751
482.353
401.23
734.029
649.558
584.89
491.092
530.718
386.877
375.718
631.058
608.07
474.548
477.501
493.251
377.566
394.633
607.542
602.677
493.888
536.906
471.081
401.568
419.393
600.204
590.27
546.643
564.208
1097.1
1291.11
1027.73
1496.67
1251.7
1488.78
1183.19
882.769
953.811
798.054
1181.6
1009.23
1103.34
937.323
734.07
762.272
680.612
956.48
808.428
895.179
781.005
518.735
659.065
592.445
764.046
618.697
748.826
668.315
384.951
571.425
523.42
574.796
485.892
646.101
598.501
369.303
513.546
499.032
471.623
481.131
592.226
602.013
401.864
498.292
501.146
499.69
548.202
611.369
630.066
431.867
502.767
505.372
559.328
578.675
633.702
636.94
1049.92
1691.09
1179.87
1570.76
1190.86
1881.79
1276.71
793.361
1058.39
852.277
1101.88
926.846
1154.6
964.954
676.295
793.931
701.496
886.83
783.517
911.744
819.605
605.604
687.928
649.579
755.035
690.31
801.072
760.316
553.751
635.36
607.087
673.429
637.279
746.078
715.859
531.509
601.759
581.06
632.431
637.794
708.583
691.781
524.322
573.923
554.139
642.013
648.569
685.851
668.517
517.307
548.522
528.526
649.009
644.666
662.339
642.063
2012.75
2367.1
1820.54
3378.02
2473.1
2970.31
2349.69
1542.23
1666.37
1333.47
2306.45
1990.29
2169.63
1810.85
1268.47
1254.54
1055.95
1915.66
1683.66
1722.86
1479.2
1127.18
1000.95
870.675
1642.99
1541.18
1412.12
1261.76
1012.17
836.98
757.696
1514.96
1415.18
1224.18
1142.37
944.114
741.744
722.808
1400.16
1351.73
1135.48
1177.01
881.174
719.97
705.974
1340.59
1287.95
1181.58
1174.32
825.164
700.725
676.931
1278.37
1207.66
1171.71
1135.59
1720.51
1686.8
1399.83
2774.94
2268.37
2269.43
1985.29
1274.42
1317.27
1113.65
2104.02
1764.83
1883.55
1641.54
996.354
1050.59
869.65
1671.09
1416.75
1547.72
1289.93
800.892
814.602
662.896
1345.1
1179.11
1212.5
1035.06
681.614
619.271
526.725
1138.17
1051.47
988.703
891.083
657.998
513.399
534.145
1046.9
1114.7
890.037
1004.24
664.222
559.119
610.567
1142.18
1150.18
1071.27
1137.49
648.471
620.018
629.438
1149.45
1102.87
1142.97
1109.47
1326.31
1578.01
1260.76
2182.96
1931.29
2203.78
1891.68
1073.72
1178.87
1007.99
1838.22
1615.56
1785.31
1584.96
847.534
962.044
832.397
1523.93
1275.99
1511.44
1296.74
653.698
795.138
709.262
1202.53
1033.82
1239.45
1127.12
524.398
686.776
640.814
988.359
895.69
1099.01
1048.65
539.663
637.005
659.842
895.655
1013.21
1051.83
1146.01
622.379
673.905
696.72
1080.82
1150.28
1180.87
1202.94
644.194
700.391
697.869
1156.27
1120.61
1205.39
1172.67
1266.65
1979.99
1342.44
2307.86
1896.75
2692.03
1900.79
997.439
1218
1029.81
1778.87
1572.64
1765.01
1554.74
839.177
978.636
883.15
1520.71
1320.29
1521.75
1388.01
736.846
861.373
818.85
1268.31
1174.75
1343.74
1296.15
684.085
804.111
772.865
1152.5
1111.6
1281.41
1236.29
697
764.532
749.177
1115.33
1193.85
1220.82
1209.49
713.128
743.177
726.37
1204.88
1211.5
1204.52
1184.8
704.296
719.676
695.414
1211.76
1177.43
1178.48
1120.98
670.894
688.71
614.014
676.668
650.609
710.746
632.326
670.724
683.359
591.708
664.261
648.546
706.897
564.706
615.381
552.939
498.167
343.424
599.936
563.503
422.397
727.033
803.938
782.6
782.467
765.624
764.768
742.219
687.719
693.946
744.778
660.301
729.214
647.653
701.316
688.587
681.371
745.488
640.442
727.035
573.19
703.559
632.741
350.943
596.479
543.388
577.937
430.337
650.581
533
568.452
492.538
561.487
518.012
586.691
507.226
483.358
511.41
329.524
298.938
475.609
520.086
263.371
450.939
422.856
311.196
278.202
444.173
430.621
262.666
576.75
660.878
643.563
622.537
630.156
610.529
588.368
546.255
576.525
615.323
532.076
602.087
520.16
558.25
495.36
306.643
550.637
373.716
533.006
274.996
512.548
463.891
292.512
459.513
364.134
442.169
274.707
482.399
487.44
472.171
437.638
305.426
485.653
382.39
432.652
562.096
551.287
522.768
571.083
531.092
585.355
556.042
531.412
477.666
508.116
520.805
504.798
500.825
538.636
588.507
660.343
632.859
661.746
541.837
636.518
622.312
515.425
320.698
531.224
506.202
399.129
458.592
561.316
591.641
603.111
643.692
612.727
616.398
585.908
617.561
558.464
546.651
550.509
591.567
525.76
566.392
583.896
343.498
282.259
323.395
228.897
342.15
209.587
327.585
451.084
452.605
462.678
503.499
430.745
473.986
487.484
433.271
397.602
449.914
461.935
413.273
417.546
473.74
388.137
275.492
363.184
463.783
247.232
418.417
430.937
369.869
258.512
342.796
392.889
236.153
355.431
409.171
473.333
527.802
521.218
532.071
497.515
510.615
495.957
454.584
483.486
460.18
516.654
438.906
495.981
476.029
298.97
435.517
340.633
870
880.436
865.655
887.382
287.137
300.164
267.3
812.475
721.277
811.495
721.917
223.717
242.266
219.626
663.051
609.155
652.831
596.055
206.953
199.063
186.03
546.837
511.889
538.747
504.846
181.641
176.283
166.855
489.396
472.598
478.077
453.315
173.342
159.687
154.512
446.946
432.502
432.347
418.779
161.116
151.382
145.733
419.335
410.09
407.671
394.971
141.611
142.564
121.248
392.858
414.034
381.231
399.585
470.091
430.08
432.602
1007.74
1027.6
965.97
1109.75
553.513
271.079
311.587
534.975
554.532
505.48
243.515
609.563
209.738
231.224
591.305
564.12
637.235
223.261
406.11
147.253
161.958
422.518
387.206
441.671
149.26
328.269
121.904
124.986
323.82
305.039
341.351
121.357
285.112
105.847
108.693
272.348
262.665
293.362
106.264
253.283
96.2932
96.0434
247.166
239.106
258.662
94.5496
233.121
90.4746
88.5006
229.362
223.854
236.731
87.521
213.562
84.5911
81.6758
213.951
208.508
216.865
80.4406
119.253
114.5
84.7084
299.397
307.196
251.233
251.577
343.522
286.184
255.58
746.895
862.212
633.24
660.012
538.034
241.158
255.128
503.094
584.735
450.409
223.52
483.446
202.616
191.749
581.289
544.818
516.989
180.185
368.329
147.506
148.128
421.824
391.27
391.548
139.605
305.256
120.826
120.813
331.476
318.494
317.291
116.606
252.321
103.011
102.487
281.502
268.561
266.607
96.8345
197.929
82.2395
79.7255
228.175
216.948
209.218
75.3968
161.037
69.3659
64.9507
190.084
181.937
169.559
61.708
133.459
58.3388
53.2003
158.977
153.738
138.604
50.9357
67.8181
71.2052
57.31
191.237
197.887
159.99
171.167
188.767
401.685
191.08
644.164
484.779
630.574
466.837
204.306
93.4511
89.2484
203.779
252.588
186.658
73.4074
197.544
99.1795
71.1298
274.379
269.202
206.733
69.2993
192.784
93.1705
67.8049
250.013
246.638
186.277
71.447
204.836
88.0359
76.8493
235.955
232.255
204.121
77.3502
188.757
75.7831
75.0361
206.846
196.244
195.952
72.7328
157.575
61.7006
64.7749
165.265
156.55
165.152
62.1714
133.551
51.2455
55.267
133.505
127.756
138.318
53.5023
120.345
43.3764
49.1216
113.122
109.776
122.761
47.7193
58.409
94.6217
76.7277
169.886
181.662
209.429
223.504
200.348
283.972
230.019
514.018
515.018
562.857
574.473
305.928
108.321
134.895
225.699
271.35
244.172
122.397
286.607
87.6833
108.3
255.556
238.576
306.72
103.832
164.253
50.9049
70.6158
162.522
138.181
193.774
59.396
126.608
41.5018
44.2691
117.331
118.117
126.721
43.7865
142.835
50.8508
45.7742
133.903
145.216
135.572
48.188
169.106
65.0078
58.3652
167.941
171.255
163.426
61.8202
178.745
68.5063
68.3208
175.707
175.263
178.443
68.7081
169.622
63.5623
66.3662
166.498
164.234
172.023
64.8402
81.0486
94.1796
71.7626
231.193
240.384
214.515
218.011
247.853
264.903
218.672
582.168
694.702
590.253
710.032
191.053
212.618
206.018
610.768
512.168
654.611
558.6
133.137
179.151
130.038
418.256
358.053
488.929
391.009
106.729
117.305
113.59
307.313
294.647
338.49
317.718
93.5148
103.585
90.0998
273.178
258.734
287.151
260.941
85.9159
86.7541
84.8427
243.81
239.795
243.735