/*--------------------------------*- C++ -*----------------------------------*\
  =========                 |
  \\      /  F ield         | OpenFOAM: The Open Source CFD Toolbox
   \\    /   O peration     | Website:  https://openfoam.org
    \\  /    A nd           | Version:  10
     \\/     M anipulation  |
\*---------------------------------------------------------------------------*/
FoamFile
{
    format      ascii;
    class       volScalarField;
    location    "8.1";
    object      nut;
}
// * * * * * * * * * * * * * * * * * * * * * * * * * * * * * * * * * * * * * //

dimensions      [0 2 -1 0 0 0 0];

internalField   nonuniform List<scalar> 
12920
(
1.04177
7.75561
3.97235
3.78202
1.44041
1.87554
1.46757
1.61281
1.24208
1.15815
0.988693
0.964086
0.865781
0.801874
0.684401
0.57114
0.484403
0.432742
0.386781
0.378849
0.807963
4.15325
3.77732
3.91995
2.06985
4.45189
3.69154
4.52755
2.80597
2.52867
1.88308
1.72485
1.45986
1.33186
1.17108
1.11483
1.14501
1.21794
1.2332
1.30201
0.8235
5.30935
5.54995
6.06269
3.90631
5.6384
4.08518
4.40058
3.15179
3.02942
2.38122
2.14126
1.78666
1.62474
1.50414
1.54548
1.56709
1.62827
1.58127
1.65233
1.29777
5.80206
8.20391
6.91452
6.42375
6.10953
5.00308
5.28487
3.68791
3.63287
2.92339
2.75898
2.352
2.16295
1.97508
1.91216
1.86208
1.86825
1.79989
1.83688
0.764317
4.03136
6.5338
7.39955
5.72501
6.38815
4.40675
4.54552
3.29134
3.29228
2.82568
2.79154
2.536
2.45273
2.30473
2.22873
2.15088
2.076
1.94707
1.89279
2.41612
6.85721
6.22594
6.52797
4.49032
5.64104
4.18776
4.90411
3.58209
3.63866
3.114
3.00986
2.7339
2.59832
2.43286
2.33596
2.21733
2.04979
1.86067
1.78785
9.34803
10.4904
6.58292
7.34139
4.30372
6.18716
4.31812
5.11737
3.82537
3.72589
3.12385
3.01125
2.73364
2.62197
2.47035
2.36905
2.13749
1.84923
1.55498
1.56184
15.7459
11.0901
6.59425
7.51748
4.78792
6.36121
1.70442
1.79264
1.37746
1.21838
1.03754
0.957371
0.859084
0.797305
2.61469
2.21563
1.79897
1.5493
1.39903
1.52565
5.99761
6.72068
5.64963
7.02685
4.58456
2.29396
0.67128
0.5312
0.405481
0.34979
0.308374
0.283181
0.256971
0.234148
0.75548
1.90973
1.48912
1.32176
1.18988
1.27152
3.23825
6.85087
7.69484
9.46442
4.27437
1.69225
0.62382
0.443267
0.38568
0.344799
0.311621
0.263059
0.23075
0.196856
0.579982
1.44084
1.25376
1.16988
1.03547
1.06583
10.3963
14.5143
12.59
10.4069
5.46702
1.45937
0.280878
0.283575
0.273333
0.268531
0.250493
0.214634
0.1797
0.145397
0.463417
1.47487
1.31512
1.25599
1.15631
1.14294
15.5438
17.2791
10.1096
8.518
3.93898
1.29486
0.316606
0.235179
0.177676
0.121974
0.134725
0.198425
0.213851
0.192678
0.612019
1.6593
1.43495
1.33715
1.23046
1.22547
10.6118
11.3318
8.99431
7.26071
3.21345
4.7893
1.14663
1.65517
1.09371
1.11107
0.78284
0.683119
0.558773
0.534462
1.84863
1.60859
1.4335
1.31625
1.17416
1.17961
2.6491
11.5586
10.4415
8.48051
3.7435
5.36313
3.25507
4.77835
4.2531
3.8853
3.10737
2.94548
2.42574
2.22841
1.86386
1.61017
1.38996
1.27799
1.12904
1.1238
14.9982
15.9424
10.4497
8.15829
6.41282
6.41203
5.06076
6.03268
5.32328
5.09075
3.43687
2.71493
2.29175
2.16503
1.85328
1.56523
1.3359
1.22694
1.10152
1.09174
1.89054
4.20625
4.15101
7.00739
5.00237
6.22407
4.22167
5.1828
3.99053
3.99487
3.07823
2.75078
2.25576
2.06858
1.79731
1.57704
1.3366
1.22223
1.08389
1.06527
2.89892
2.72013
6.5085
6.0307
5.61604
5.42042
4.60186
5.02373
3.39107
3.39751
2.58019
2.33293
1.93056
1.71969
1.45642
1.32234
1.23921
1.22372
1.14675
1.15669
2.5844
9.53079
9.54526
7.00484
5.2736
4.93264
3.33984
4.12068
2.52528
2.56151
1.73309
1.52583
1.22249
1.17904
1.15122
1.22854
1.23287
1.25494
1.19404
1.22319
0.889332
5.9238
5.27575
6.65318
6.55553
6.10443
4.26744
4.10616
2.5297
2.71707
1.93272
1.74868
1.31118
1.09322
0.942723
0.964077
0.972534
1.04638
1.02666
1.11599
0.679159
2.33258
2.50209
4.44431
2.70496
3.14134
1.94541
1.73142
1.29807
1.45716
1.23978
1.19201
1.01329
0.920164
0.751575
0.61938
0.524845
0.476935
0.431214
0.381886
4.48423
20.1241
22.8427
14.8122
10.0009
14.6499
11.7574
12.1129
8.47959
7.50301
5.79664
4.88397
4.00478
3.3751
2.83404
2.53033
2.63811
2.98747
3.19618
3.47186
10.706
24.7353
12.098
8.81719
11.2619
17.361
21.6567
22.3962
20.1171
19.1219
18.0396
17.7899
17.2479
16.2507
14.6981
13.867
14.3961
15.2262
15.4777
15.0532
10.4655
34.7293
31.3601
21.9412
20.9816
25.7545
27.3505
26.7309
24.5869
23.584
21.5072
20.3104
18.6768
17.8084
17.0781
17.0323
17.6111
17.839
17.747
17.1754
11.9568
29.6086
40.2099
31.8082
32.9099
30.7775
29.0811
28.0403
26.2269
25.3776
23.7656
22.8858
21.426
20.5707
19.7492
19.3204
19.2453
19.1574
18.9303
17.9555
2.6893
31.1829
40.9917
36.7045
35.6934
32.9091
28.9816
28.022
25.9127
25.4804
24.3196
23.7369
22.8228
22.2521
21.5861
21.0865
20.6633
19.9275
19.4201
18.2455
1.16613
30.9991
43.9918
32.467
33.094
28.8535
27.494
26.632
25.3582
25.0011
24.0992
23.5025
22.6936
22.1305
21.5422
21.0382
20.4336
19.1423
18.357
17.5922
7.93653
41.8786
47.2499
36.3105
35.2785
32.6885
29.6311
27.6446
25.7241
24.4491
23.3584
22.6513
21.8534
21.1769
20.4428
19.8971
18.6322
16.4976
15.4007
15.7679
24.1927
48.828
46.505
35.2074
35.8919
33.9395
25.0844
23.8364
21.6465
20.0664
19.0926
18.2613
17.5382
16.7246
18.3313
16.6455
14.5997
13.7005
14.339
15.0213
8.82843
36.5347
33.2887
27.4868
30.912
27.1748
23.4415
22.8731
19.8251
17.9511
16.8394
15.9309
15.1956
14.3733
14.1999
13.5065
12.1894
12.3706
12.9481
13.5839
20.3873
43.4668
27.9188
18.0023
15.0128
19.9353
24.3438
22.0929
18.9341
17.0731
15.3903
13.7506
12.6654
11.5612
11.0993
11.6308
11.5905
11.849
11.9988
12.4908
24.4858
34.9781
32.1409
22.0438
13.7122
7.88557
14.9147
15.5386
14.4552
14.3722
11.576
9.18568
8.29012
8.20908
9.78449
12.3352
12.3512
12.5171
12.6094
12.6845
51.8565
41.0132
41.3223
31.4241
14.0557
8.83591
15.7206
13.6193
10.2424
10.0582
11.0726
11.8434
12.0595
11.581
11.8029
12.4939
12.0999
12.2739
12.5255
12.8069
39.7214
50.4499
38.7729
29.0511
17.9137
23.2205
19.1973
17.0111
14.8396
13.7078
13.1448
12.1789
11.7703
11.4382
13.0799
12.6504
12.4999
12.4071
12.3123
12.3766
30.3802
44.5576
44.4512
35.7524
22.8186
25.9075
25.3125
25.2154
22.0909
19.7008
17.3948
16.3706
15.791
15.0213
13.986
12.9245
12.2049
11.9313
11.7848
11.777
44.6333
46.6997
50.002
35.6375
32.3542
31.8351
30.8868
30.1284
27.1463
24.5077
19.774
17.2157
16.8468
16.5791
15.1366
13.0359
11.6726
11.2638
11.2866
11.2685
27.1293
34.8245
27.277
27.4259
24.4032
27.0574
27.1058
27.1194
24.8987
23.804
20.9537
19.3756
17.2675
16.6034
15.2433
13.2998
11.5891
10.9939
10.9599
11.2176
19.9287
16.9314
28.0173
23.8994
24.2043
24.2677
22.7976
22.2159
19.3481
18.53
16.3878
15.5411
14.3989
13.9951
12.7806
11.9893
11.8608
12.052
12.1216
12.1463
8.86339
39.3227
45.9417
31.246
25.9305
21.9931
19.2504
18.6992
16.425
15.4688
12.9352
11.5276
10.6875
11.1484
11.7862
12.4632
12.8675
13.1568
13.2041
13.2037
0.978943
37.1427
33.6195
25.7544
24.205
25.1817
21.5129
19.3376
17.6125
17.4748
15.7492
13.8855
11.0749
9.57269
9.34714
10.1908
11.1602
12.1594
12.6958
12.9666
0.554254
7.1217
6.85216
16.6392
13.2729
16.4967
9.48798
9.18462
8.59367
9.80069
7.72656
6.98247
5.67073
5.10521
4.43426
3.93962
3.54257
3.25472
2.69208
2.07034
18.6654
27.079
41.7401
31.1477
23.1709
18.768
16.2113
14.3964
10.5847
9.07368
7.02258
6.20651
5.69872
5.73273
5.48425
5.37756
5.21607
5.31492
5.28781
5.54512
46.0362
47.5179
38.8271
27.9712
29.1823
33.2348
32.81
30.4732
27.6233
26.8648
26.1168
26.1973
25.8922
25.2694
24.4242
24.086
24.1929
24.172
24.0384
23.3087
42.551
48.9627
49.3514
41.8536
42.2746
44.2827
42.3885
40.2757
37.3745
35.4722
33.1153
31.5699
30.1091
29.2439
28.5687
28.1513
27.9919
27.4429
26.9727
25.832
41.2956
43.0675
55.4075
50.6711
51.4129
48.1553
45.3918
42.9306
40.3272
38.4946
36.3492
34.8254
33.2207
32.1151
31.1362
30.312
29.7194
28.8418
28.1276
26.461
10.927
30.214
54.7059
54.8049
54.9002
50.4606
46.1918
43.7316
41.1306
39.5815
37.8089
36.4873
35.1078
33.9782
32.863
31.8087
30.8389
29.5267
28.6192
26.7773
12.8892
43.578
60.0918
54.3023
53.8486
47.9212
45.3159
42.7363
40.4716
39.101
37.5419
36.2496
34.913
33.7749
32.6737
31.5672
30.3989
28.8097
27.9352
26.4532
27.206
43.3335
60.9597
55.7278
54.7633
50.6983
46.4973
43.1639
40.106
38.1688
36.3362
34.9938
33.4817
32.1831
30.8022
29.4804
27.8271
26.0578
25.4036
24.9547
19.3255
57.331
64.2765
56.698
55.6153
52.0451
45.205
40.627
36.8295
34.0388
32.4006
30.694
29.3495
27.818
26.2757
24.5942
23.2958
22.8982
23.2769
23.2465
18.184
54.6994
57.4387
50.5032
52.3709
48.3072
44.2727
38.3038
33.2137
30.0119
28.0838
26.2282
24.7669
23.2499
21.3587
19.3174
19.2305
19.7442
20.3686
21.0858
12.262
52.7627
49.4106
38.2913
37.0778
40.3777
41.1653
35.4799
30.0436
26.6505
23.1657
20.541
18.8766
17.3648
15.7732
15.9807
16.842
17.7162
18.463
19.5799
49.5788
64.801
60.5912
43.9386
24.0709
22.6144
29.1091
27.2164
24.562
22.1791
5.80409
5.26322
8.77495
11.3804
14.239
17.1332
17.7769
18.3241
18.7056
19.3869
25.2692
62.1901
59.9815
45.9224
29.5622
22.0651
29.0217
24.012
20.0211
19.2567
18.6575
18.0306
17.8166
17.5256
17.6667
18.38
18.4854
18.7456
19.0132
19.3748
33.664
61.8047
54.7423
43.887
36.8077
39.761
33.4774
27.7396
24.5776
22.5937
21.5626
20.5838
19.9945
19.2694
19.6093
19.2192
18.9988
18.8161
18.7038
18.751
54.5907
64.6032
62.5557
52.0297
45.5071
44.7575
39.4247
37.3923
32.0109
29.003
26.4506
25.0705
23.6939
22.2758
20.8693
19.7058
18.9417
18.4343
18.0849
17.876
43.1875
67.8185
69.9843
55.2493
52.4925
48.7603
45.7104
42.3139
36.9208
32.9797
28.5274
26.483
25.269
23.733
21.7387
19.871
18.7511
18.1088
17.7627
17.3375
58.9511
56.1604
57.3312
51.1688
47.3296
45.9771
42.2679
39.8157
35.4258
33.0656
29.4503
27.4418
25.3818
24.0367
22.064
20.203
18.8962
18.2643
17.8987
17.5332
64.8877
50.758
54.5742
44.8183
43.1941
39.6944
36.7789
34.0412
30.5859
28.649
26.0124
24.6918
23.1893
22.275
20.963
20.0963
19.6214
19.2626
18.9541
18.5434
29.6193
44.5501
55.1005
46.9135
39.7965
35.4254
32.3143
30.4454
27.3309
25.3975
22.5543
21.3016
20.4619
20.6522
20.5772
20.3675
20.0863
19.7335
19.4724
19.3402
12.9892
47.0657
48.825
38.2767
33.8783
33.7949
29.0453
27.6904
25.736
25.1576
22.8758
21.0862
19.03
18.3514
18.105
18.2175
18.124
17.9056
17.6791
17.7458
0.36108
18.6469
15.8011
18.5135
15.6037
15.6036
12.1788
13.8948
11.6315
11.8943
9.30788
8.76615
7.35014
6.92583
6.15956
5.50388
4.56631
3.70072
2.85344
2.56071
6.20138
45.891
44.0707
35.029
26.2912
20.9927
17.467
14.5827
10.2057
7.92321
7.04417
6.79338
7.08282
7.40987
7.42382
7.18193
6.83657
6.59726
6.42409
6.55758
24.763
59.675
54.4972
45.7933
45.5496
42.5399
36.6404
32.4478
29.8562
29.7674
29.5396
29.5788
29.2139
28.521
27.9542
27.3919
27.01
26.4591
26.1269
25.3591
30.1741
64.4649
63.905
56.3409
56.1076
53.4783
49.1031
45.1032
41.9576
39.5588
37.4657
35.8072
34.5969
33.4903
32.6759
31.7857
31.0679
30.0629
29.3474
28.0072
55.943
54.933
65.0774
63.0056
62.2926
57.331
53.3845
49.5114
46.2148
43.4894
41.1177
39.1367
37.5868
36.1729
35.0239
33.8222
32.7695
31.3655
30.288
28.3603
14.4314
50.6441
57.6521
64.6374
64.8591
59.429
54.5911
50.8376
47.7354
45.178
43.0094
41.0918
39.5003
37.9498
36.5707
35.1159
33.7885
32.1171
30.9319
28.7441
20.2072
50.1591
65.3341
66.3924
64.9261
58.3445
54.2606
50.3615
47.2877
44.9974
42.9048
41.0489
39.3524
37.7571
36.3022
34.776
33.3915
31.7639
30.7301
28.7902
40.5971
53.3806
66.8308
67.1615
65.6873
60.3269
54.6068
50.519
46.2853
43.8974
41.3194
39.4401
37.367
35.6292
33.8926
32.2727
30.8215
29.4506
28.737
27.4846
58.1377
64.0859
73.2119
69.4437
66.2126
61.1938
54.6776
48.3815
43.4559
40.1472
37.6328
35.3404
33.349
31.3627
27.513
26.77
26.2883
25.9726
25.8744
25.3043
17.9435
66.4788
72.5859
65.531
63.2752
58.7247
53.6195
44.5451
38.1755
33.7969
31.0307
28.4719
26.5571
24.7114
21.8061
20.5149
21.4587
22.1389
22.7516
23.0891
61.6581
65.3097
66.1589
57.7519
52.6119
50.9835
47.816
39.5208
32.3549
27.7655
23.5373
20.5593
18.4493
17.1177
15.8313
17.3761
18.8769
20.1002
21.0851
21.9132
77.6878
81.3135
71.9826
56.1709
35.9011
38.7254
36.9892
31.8395
27.2985
23.3637
10.274
9.68703
11.7044
13.3624
15.4233
18.3077
19.5249
20.3295
20.9537
21.5993
61.0752
76.3147
69.8846
55.0797
41.6972
34.3849
35.8353
28.8633
24.336
22.3062
20.4405
19.1025
18.4085
18.1554
18.1585
19.4984
20.2003
20.5633
20.8485
21.1884
44.0553
70.4016
65.655
54.6312
49.4775
48.0916
38.9889
30.4014
27.703
25.4675
24.1804
23.0805
22.1505
21.0936
20.8683
20.8527
20.6276
20.3793
20.2844
20.2507
28.9198
78.8603
74.3007
64.2771
59.0268
54.8005
45.1033
41.9477
35.3917
32.9483
29.8575
28.0773
25.9603
24.2344
22.7315
21.5507
20.6715
19.925
19.4352
19.1697
95.5187
85.2137
79.9282
67.9567
63.4023
57.71
52.049
46.1078
40.4449
36.1959
32.5821
30.128
27.925
25.7421
23.6816
21.9835
20.7824
19.8209
19.1038
18.5391
51.1233
76.1568
75.8301
66.1483
60.9812
55.9014
49.8704
45.2501
40.244
36.7652
33.2558
30.7161
28.3578
26.3281
24.2859
22.5713
21.3082
20.3134
19.5752
18.8433
40.5937
69.7871
66.8727
57.7045
53.3819
47.6779
43.8616
39.5881
35.9675
33.1721
30.602
28.697
26.9542
25.461
24.0297
22.8403
21.8861
21.0217
20.4104
19.7481
50.497
72.8076
68.1395
55.1993
47.2565
42.4807
38.5909
35.7256
32.144
29.7713
27.4215
26.0966
25.0827
24.2871
23.4766
22.5442
21.7609
21.0756
20.7323
20.5142
43.905
61.1457
57.4816
45.4686
39.2885
37.4003
32.3918
31.1468
28.8899
27.4635
25.3227
23.7533
22.3526
21.4343
20.649
19.8406
19.1228
18.5521
18.3158
18.4761
0.683028
28.9537
24.5736
20.8128
18.2866
15.6693
14.4142
13.3201
11.7194
10.1451
9.02203
8.44092
7.65592
7.06024
6.20131
5.08835
3.90532
3.19948
2.86391
2.93015
19.0609
41.9188
26.8881
32.837
18.4359
20.9016
7.83157
7.92992
4.55553
5.67618
4.56703
5.93902
5.24699
5.78968
5.23051
5.16587
4.55542
4.30424
3.97759
4.07834
32.2088
51.9416
61.2163
43.8743
51.2322
44.3047
35.7757
30.5183
26.746
28.6349
27.5924
27.6653
26.8325
26.0484
25.4287
24.7042
24.1733
23.5804
23.2085
22.7038
14.8538
46.7092
66.7957
64.1189
61.2705
55.9373
47.8348
43.614
39.5023
37.8558
35.641
33.9497
32.7388
31.5113
30.6026
29.5286
28.6626
27.5954
26.8064
25.7664
21.8463
65.5426
67.3057
50.8648
66.1767
60.305
51.8999
49.9373
44.4649
42.3888
39.5329
37.4659
35.8469
34.2308
32.9397
31.4754
30.1965
28.6349
27.4151
25.8052
53.2749
68.7839
62.7533
70.0804
53.6921
62.1621
46.0895
51.0713
43.683
43.9812
41.3565
39.3033
37.5548
35.8186
34.2947
32.6283
31.1566
29.3975
28.0387
26.0726
30.9261
59.1709
67.5764
60.9965
47.8834
61.2882
41.6113
51.6456
44.5423
44.5445
41.8544
39.7666
37.7426
35.869
34.1696
32.4389
31.0022
29.3768
28.1408
26.3326
64.2925
62.1082
47.2005
73.9373
40.1227
63.1893
37.6068
51.3446
43.3395
43.3313
39.8404
37.7328
35.2532
33.375
31.5519
29.9595
28.6985
27.438
26.5271
25.294
68.059
72.5419
50.3644
76.5104
42.1117
62.5786
55.3404
48.5161
42.5234
39.0581
35.7103
33.2377
30.7624
28.7531
25.2792
25.0489
24.6975
24.2585
23.8985
23.3979
25.3954
46.1345
45.4382
71.4811
38.28
59.9864
52.8696
41.5792
34.2986
29.2976
26.0948
23.5463
21.7326
20.1643
18.8823
19.9363
20.7015
21.1213
21.3818
21.5275
16.0815
64.5313
53.6957
66.0074
30.7456
51.0796
45.0044
34.0596
26.2659
21.4847
17.7223
15.0872
14.401
14.2436
14.9687
17.9333
18.9082
19.669
20.2368
20.6685
29.4564
78.4062
67.1498
57.8981
26.2293
39.0421
34.5531
26.666
21.7002
18.3883
13.9295
11.505
11.8418
13.1608
15.1767
18.4114
19.2364
19.6413
20.0208
20.4556
87.6328
87.772
64.2592
38.4756
23.0586
38.6428
33.302
24.2859
20.1855
17.5528
15.7926
14.8119
15.033
15.1607
16.2654
18.8388
19.3517
19.5169
19.6618
19.9746
96.8772
76.7182
69.6935
43.7815
38.7118
47.4457
34.4995
29.0784
24.2845
22.4383
21.072
19.9825
18.9894
18.1003
19.4718
19.4695
19.1731
18.9493
18.8566
18.9265
53.528
70.5071
63.6227
52.0126
40.8316
56.3387
26.8967
40.7189
31.8285
31.9415
28.2734
26.2009
23.8875
22.2196
20.8383
19.7269
18.8482
18.218
17.8954
17.8316
65.0923
57.8298
83.6696
55.5693
65.9115
59.2052
47.3278
44.7084
38.3147
34.6742
30.7559
27.968
25.2206
23.0794
21.2251
19.7638
18.6582
17.8633
17.3831
17.2044
108.279
87.3478
82.5465
71.8888
56.2453
57.7789
39.5032
43.8847
35.7042
34.4672
30.9723
28.1719
25.6882
23.5012
21.7303
20.289
19.1479
18.2661
17.6615
17.3771
47.0153
77.3713
70.651
44.4527
54.4665
41.8968
42.6836
38.6846
34.3576
31.468
28.9487
26.6827
24.848
23.096
21.7833
20.6138
19.696
18.9869
18.4882
18.1986
86.9727
83.5955
76.2848
58.3304
47.7112
42.9198
37.3097
34.6569
30.3357
28.366
26.3507
24.8838
23.551
22.2395
21.3724
20.604
20.0971
19.7002
19.4258
19.321
88.0901
74.7468
66.6051
50.6064
39.9149
35.9768
31.1051
29.4339
26.4165
24.2158
22.3974
20.946
19.8361
18.835
18.1945
17.5786
17.0003
17.0297
15.7297
17.473
2.10241
35.1338
19.745
22.1134
9.95031
15.9313
6.95
12.3066
5.34938
7.06904
4.30836
4.60184
3.33388
2.94056
2.27974
1.93597
1.66761
1.56716
1.4375
1.43551
24.0419
22.3735
6.00349
28.2446
25.0121
23.2448
6.30395
21.0417
5.32461
6.00746
24.0138
21.6392
5.71268
7.21898
6.62605
19.7179
18.2313
23.3056
6.95186
22.5002
19.9752
4.94844
17.6843
16.5562
6.26281
6.55549
19.2641
17.867
0.520313
0.596749
0.426213
15.2687
17.6894
17.6476
18.2217
0.446075
0.42609
0.404593
17.6933
15.8559
17.7514
15.7156
0.36131
0.394387
0.364361
15.2235
13.9991
15.1684
13.9815
0.323316
0.356176
0.330341
13.6764
12.9589
13.6522
12.7926
0.294399
0.321617
0.287059
12.7454
12.2848
12.4662
11.5798
0.267132
0.277694
0.253508
12.1074
11.7186
11.3226
10.7893
0.242828
0.246158
0.221742
11.579
11.1403
10.5856
9.99733
0.183397
0.213166
0.158752
10.9803
11.2091
9.77164
9.69335
0.450968
0.467521
0.362239
17.7304
17.9073
13.1375
13.6232
0.398401
0.364416
0.330437
17.2598
15.3014
13.3721
12.5402
0.352644
0.319597
0.299719
14.7783
13.6336
12.3232
11.9481
0.3199
0.294046
0.275165
13.3235
12.4189
11.7995
10.7447
0.274249
0.263967
0.23113
12.058
11.0376
10.1538
8.69469
0.238129
0.221087
0.193454
10.7632
10.145
8.36573
7.64981
0.205549
0.182776
0.15342
9.93309
9.28436
7.44237
6.94232
0.159756
0.144004
0.105197
9.05469
9.00868
6.79253
6.87084
0.27375
0.238908
0.182019
10.2765
12.0059
9.48283
10.2601
0.276333
0.183153
0.149045
11.7891
11.1046
9.60429
7.50113
0.268969
0.130308
0.12605
11.0317
11.0992
7.05201
7.49562
0.25837
0.133596
0.165836
11.1191
10.2112
7.78919
8.66735
0.224329
0.18262
0.209718
9.66614
8.30821
8.89969
9.20071
0.189318
0.211438
0.211768
7.98302
7.29291
9.21501
9.26645
0.154532
0.209668
0.190964
7.12618
6.83976
9.2505
9.01587
0.105838
0.184987
0.149694
6.77227
6.9508
8.91337
9.07661
0.234773
0.310764
0.337167
11.1724
11.1368
9.45263
13.6242
0.207034
0.377374
0.324854
10.4427
8.16164
12.7006
10.1651
0.123596
0.292276
0.228118
7.58452
7.19313
9.57029
8.84425
0.127197
0.237123
0.229036
7.3064
7.99572
8.97625
9.23839
0.186044
0.222808
0.175985
8.31176
9.16688
9.17473
8.89307
0.213508
0.175127
0.166885
9.33509
9.65365
8.81354
8.6403
0.19946
0.167565
0.161717
9.6443
9.34084
8.60037
8.35664
0.148341
0.15898
0.113193
9.19475
9.33412
8.24284
8.44203
23.2522
24.6317
23.5569
39.794
36.6981
39.2477
35.6402
20.5586
22.7641
20.1343
35.3084
31.6223
34.1151
29.986
18.3221
19.4466
17.9295
30.637
28.3304
28.9147
26.4701
17.1145
17.5142
16.3834
27.7538
26.4616
25.8101
23.9443
16.1754
15.9719
14.8548
26.0454
24.8028
23.3217
21.6481
15.4049
14.5384
13.8126
24.4124
23.4575
21.1845
19.9669
14.5977
13.5495
12.7767
23.1133
22.0896
19.5676
18.4119
13.9724
12.5006
11.8229
21.7351
20.9234
18.052
17.1191
22.9811
18.4221
17.8972
37.6734
34.4806
29.7098
28.0833
19.5936
17.4923
16.3028
33.0082
29.1095
27.234
24.9833
17.4709
16.0057
15.4171
28.0825
25.7183
24.4015
22.8599
15.8624
15.2068
13.157
25.0675
22.8256
21.8439
10.87
14.0909
12.2563
10.2584
22.0319
20.0628
9.69288
8.40935
12.9398
9.83893
9.05837
19.5861
18.3946
8.5461
9.63961
11.8358
8.86821
8.44899
18.0068
16.8708
9.99115
10.7925
11.0823
8.34447
8.22547
16.534
15.9113
11.0173
11.6484
15.885
13.8291
13.6166
25.6677
25.5802
23.6404
22.4076
14.5809
12.7916
10.308
24.8461
23.022
21.2591
18.375
14.387
9.85474
10.3034
22.635
21.652
17.9333
17.8267
12.453
10.6061
11.3889
20.9575
10.601
17.9294
17.1678
9.61797
11.5232
11.5407
9.31406
7.18195
16.764
15.8078
8.42501
11.5053
11.4758
7.03652
8.22228
15.66
15.609
8.1932
11.4608
11.266
8.75213
10.2784
15.6462
15.6979
8.3075
11.1791
11.0219
10.731
11.846
15.7155
15.844
14.5441
12.8173
15.7962
25.9987
23.1703
18.9271
24.1354
10.8453
15.9824
13.3191
21.7868
18.4443
24.4611
21.3469
9.9176
12.6392
11.7033
17.8644
17.3523
20.4498
19.0348
10.7894
11.8152
11.9655
17.3905
17.3991
18.9378
18.61
11.7198
11.8485
11.488
17.315
17.0349
18.4021
17.8864
12.0791
11.4074
11.2456
16.9884
16.9085
17.8199
17.5526
11.7323
11.1977
10.9472
16.8678
16.6291
17.4686
17.1128
11.243
10.8222
10.6434
16.5351
16.3266
16.9924
16.7527
39.9117
42.7537
38.3863
50.5145
45.8756
48.986
42.9728
34.2974
36.6878
32.1578
43.8408
39.0799
40.8524
35.3164
30.6507
30.9728
28.229
37.75
34.4124
33.8371
30.3012
28.5662
27.4898
25.3966
33.6275
31.7107
29.3584
26.7366
26.6655
24.7135
22.8839
31.0558
29.1503
25.9262
23.7654
25.1571
22.3824
21.0411
28.6316
27.273
23.1712
21.533
23.6364
20.6111
19.3841
26.7977
25.4156
21.0519
19.7748
22.2704
19.0149
17.9859
24.994
23.8819
19.4308
18.4348
37.0979
32.8504
30.5613
46.9233
41.4247
38.7633
34.9851
31.1821
29.576
26.9621
39.4082
34.0689
33.578
29.8434
27.3839
26.2668
24.1954
32.6239
29.1943
28.8074
25.8478
25.2648
25.8734
25.7555
27.702
24.5677
26.823
26.696
19.5705
22.3673
20.4304
23.8463
19.4341
22.9959
20.6106
19.2841
6.94834
9.42029
21.0779
19.5643
8.43764
11.0164
17.702
10.029
11.2862
19.1014
17.9402
11.5291
12.6657
16.6716
11.601
12.383
17.6508
17.055
12.9953
13.8367
28.0732
26.9206
24.827
35.7284
32.8071
33.4647
29.8065
25.067
23.6146
20.6677
31.5481
28.3194
28.3925
25.0621
23.0109
20.1807
19.7639
27.4464
24.8979
24.3424
22.9318
11.5829
12.0142
20.9095
19.075
15.5662
2.70186
21.3894
6.46582
5.24722
9.11293
1.7628
8.38618
1.69026
6.7043
7.94222
16.4152
16.4087
7.42891
10.2709
17.6841
17.4286
10.8258
16.4584
16.5685
10.954
12.6247
17.4084
17.4838
12.6091
16.61
16.7469
13.101
14.2084
17.5419
17.7115
25.474
21.8843
24.4284
35.041
30.0536
25.3463
30.1908
20.6214
26.625
23.3926
28.4218
24.8321
30.6638
27.0456
19.3004
22.4072
20.8102
24.0687
22.5888
25.9073
23.8024
18.8622
20.6551
20.2147
22.2754
20.9885
23.5343
22.8488
18.1222
19.9749
19.4221
20.5564
19.5258
22.5479
21.8157
17.8665
19.3435
19.0566
19.33
18.8694
21.6878
21.2599
17.5993
18.947
18.5535
18.7743
18.553
21.0869
20.5075
17.281
18.4194
18.0717
18.5139
18.3208
20.3461
19.8615
46.6608
49.9248
43.2858
54.1828
45.4741
49.1811
40.6214
39.5988
41.0356
35.2185
43.1761
37.8107
38.0143
31.5611
34.6089
33.6605
29.9346
36.0781
31.9824
29.8389
25.8869
31.746
28.9484
26.2282
31.1136
28.7762
24.8609
22.0465
28.9982
25.3992
23.1847
27.8864
25.7004
21.2233
19.0528
27.0529
22.5646
20.8558
25.1896
23.7621
18.4134
16.9847
25.1304
20.3802
19.1653
23.2277
21.8668
16.7205
16.0657
23.6494
18.8494
17.9758
21.4837
20.7109
15.8907
15.5049
41.6676
39.7386
35.3013
46.7267
38.7409
38.7585
32.1665
33.8792
33.7427
29.6602
36.2229
29.9572
30.2615
25.6136
28.7601
28.5454
25.5869
28.2845
24.629
24.4843
21.8691
24.5327
23.8391
11.2821
23.5954
20.6083
20.8353
16.209
21.1483
10.2536
9.96964
19.7145
17.4717
15.0076
12.8197
18.9189
10.4119
11.7664
16.8517
15.3454
12.3984
11.7289
17.3721
12.0427
12.8854
15.1516
14.7941
11.9108
12.735
16.6448
13.1715
13.9653
14.7119
14.6512
12.9634
13.6108
33.243
34.6754
30.4134
36.4187
30.2622
34.2991
27.8036
28.2584
28.9101
25.4038
28.5472
24.452
26.1116
22.4789
24.7186
24.5986
22.9761
23.4514
21.245
21.5812
19.9477
11.3415
22.4966
20.0711
20.3271
15.8197
19.4983
17.5995
9.33503
19.346
17.887
14.6649
12.5887
16.9979
15.6576
11.2731
17.6593
17.2002
12.2156
11.7124
15.3023
14.7352
12.9655
17.1382
17.1829
11.9605
12.9399
14.8266
15.1344
14.3344
17.2416
17.4524
13.2061
13.9068
15.2119
15.4679
30.5411
27.9012
30.0806
34.9888
27.6987
32.4464
29.1614
25.1621
30.9528
27.2669
25.9409
22.2696
27.5499
24.229
22.674
26.0813
23.8711
21.4013
19.6167
22.9606
20.9055
20.904
23.6088
22.8695
19.2395
17.8557
20.7038
19.9122
19.3342
22.5511
21.7574
17.4195
16.3558
19.5528
18.7798
18.5175
21.6238
21.1439
16.0826
15.6582
18.67
18.1558
18.1889
20.949
20.3191
15.6796
15.7211
17.966
17.4245
18.0246
20.1499
19.6843
15.7256
15.7708
17.2849
17.0266
43.9449
47.7056
38.5798
23.4828
27.3342
22.4742
20.598
36.0989
35.925
29.4935
30.0946
24.8303
20.957
20.8878
30.199
27.8052
23.8236
24.9362
24.8209
21.4614
18.968
26.9793
22.7686
19.965
24.0552
22.2489
17.9447
15.7326
24.0285
19.1676
17.1928
21.5645
20.3122
15.225
14.2661
22.2299
16.7136
15.9111
19.9431
19.0727
14.2656
15.1334
20.5107
15.7787
15.3526
18.6856
17.991
15.217
15.1226
19.6168
15.2191
15.0331
17.7145
17.3781
15.0563
14.7728
36.5946
36.8242
30.0154
21.1668
18.7336
18.0141
16.4509
27.8936
28.1947
23.8027
19.1083
19.8303
17.2293
17.6627
22.5285
22.5932
19.8112
19.7436
17.3679
16.845
14.3562
18.5711
18.8375
15.2502
16.2838
14.0194
13.2417
11.0584
15.6128
14.2131
12.1016
13.5044
12.5695
10.5462
9.67207
14.4019
11.5992
11.3664
12.623
13.9535
9.84803
11.8556
14.294
11.7534
12.7241
14.42
14.6138
12.9186
14.0818
14.3207
12.9325
13.5766
14.6042
14.4729
14.1851
14.268
28.2829
32.6887
26.0749
17.7822
16.0489
15.729
16.9138
22.8006
24.5007
21.1982
16.8679
17.6209
18.0179
18.8381
19.2489
20.3086
18.1275
16.7678
14.0609
17.954
14.923
14.9175
17.6016
15.8449
13.0007
10.9666
14.153
12.7918
11.9584
15.3202
14.1669
10.4885
9.67638
12.4936
12.0807
11.4106
13.9294
14.0687
9.87276
11.9318
12.2698
14.0015
12.9239
14.2853
14.6875
13.0071
14.2206
14.6046
15.0168
13.8477
14.762
15.0809
14.3367
14.4698
15.0464
14.9996
25.9289
36.4099
27.0725
18.7931
17.5629
16.8544
19.1299
20.9971
25.5718
22.6935
18.563
18.8317
21.9009
19.8469
18.0553
21.6021
19.7243
18.2697
15.611
19.1048
18.0175
16.1765
19.5054
18.7671
14.9318
13.7911
17.6773
17.0325
14.9376
18.4541
17.7472
13.5448
13.2284
16.8029
16.3627
14.9345
17.6415
17.2218
13.3973
14.8439
16.2617
15.9873
15.1543
17.0603
16.5928
15.0478
15.2114
15.8843
15.6202
15.3106
16.4606
16.3428
15.2066
15.0697
15.5133
15.3325
23.4392
24.9779
21.617
24.784
23.0675
25.8144
21.8393
20.3597
24.4378
12.6286
19.9513
21.7573
25.0725
3.78542
16.0137
15.8435
7.69354
2.02271
18.0133
14.0208
2.26769
25.602
28.2294
27.2362
27.1428
27.2707
27.1477
25.6455
23.6635
25.0975
26.1273
22.149
26.1885
21.9867
23.8244
20.367
19.814
25.6606
12.3237
25.4453
3.74613
22.2781
15.9697
2.03639
15.8674
7.71593
13.9217
2.27926
18.1691
18.7164
21.6525
18.0772
21.5979
18.6214
22.2366
18.2462
12.1761
14.5577
4.83586
1.8869
13.6236
12.9588
1.7889
11.5674
12.9147
5.04947
4.12454
12.9084
12.1796
2.57859
19.6719
24.1187
23.1138
20.8792
23.2342
20.7326
19.8112
18.8083
21.7867
22.3198
18.4582
22.4479
18.3559
18.9767
12.0827
1.90305
14.5792
5.4528
12.8643
1.81964
13.6629
11.5471
4.31265
13.2759
6.00698
12.2499
2.58971
13.1059
8.29631
8.04478
10.1155
1.91924
11.8434
2.20051
7.22545
19.1595
20.3933
19.367
21.087
18.9284
21.5039
20.4984
16.7889
15.6711
18.8169
18.9737
17.0541
15.3292
19.7248
11.9717
19.258
12.2932
22.6601
2.91983
21.963
16.504
8.66026
1.97274
8.22492
11.0683
2.25381
7.64279
12.6376
19.7515
22.0237
22.7234
21.76
22.2958
21.3058
20.7156
17.282
19.5601
16.9849
20.8549
15.805
20.4019
18.4841
6.45157
4.71659
7.63135
2.77993
7.89774
1.71623
6.56072
13.8252
14.6975
17.2092
18.3508
13.9665
14.4611
17.8199
13.4293
13.0769
16.8486
17.1312
13.45
13.1734
17.4339
6.99688
1.82746
5.89921
10.2463
1.77073
7.18801
9.74671
7.07012
3.29729
5.73164
9.61144
1.92304
7.38404
9.4843
14.3334
18.8873
16.0412
18.6606
14.9547
18.3175
15.3354
13.9585
17.5852
14.6255
18.2083
13.7611
17.9019
14.8744
1.55205
1.76163
1.76661
8.42916
11.6634
8.60591
11.431
1.52051
1.87652
1.59293
12.404
11.096
12.4287
11.8918
1.26461
1.25062
1.21244
10.5645
10.5917
11.3436
10.8824
1.10453
1.18323
1.07733
9.79251
9.1479
10.309
10.0825
0.994458
0.999401
0.976243
8.97989
9.07199
9.8519
9.69555
0.902166
0.944885
0.890908
8.67443
8.38939
9.44188
9.2993
0.830478
0.843878
0.803736
8.26972
8.2369
9.14434
8.99318
0.708879
0.772943
0.640636
7.97766
9.17188
8.76651
10.7354
1.59947
2.32682
1.82187
10.1081
11.1722
10.4343
14.0818
4.10467
0.552271
0.564914
3.14773
3.98367
3.00291
0.441469
6.10494
0.520246
0.471469
5.82033
5.72594
6.18859
0.474445
4.956
0.387483
0.398893
4.7521
4.45368
5.07522
0.391043
4.48118
0.34652
0.355838
4.02496
3.76463
4.5759
0.34973
4.14674
0.309222
0.316125
3.54503
3.41909
4.20798
0.313787
3.92228
0.283562
0.285236
3.46209
3.32211
3.9636
0.282776
3.7564
0.258247
0.256397
3.32341
3.21813
3.79973
0.254482
3.56748
0.233546
0.230218
3.21203
3.09965
3.61188
0.226801
0.663649
0.697315
0.521253
7.52427
7.88355
7.41724
8.66876
1.3815
1.54339
1.17167
9.00757
13.0957
7.51489
10.8155
4.90191
0.503834
0.589373
3.64257
5.19027
3.28919
0.495319
5.39531
0.429606
0.435946
5.99808
5.77775
5.58366
0.415974
4.68121
0.373653
0.369083
5.04891
4.89591
4.80034
0.356655
4.29701
0.337127
0.331577
4.51983
4.43469
4.37073
0.324681
3.84671
0.300905
0.296019
4.12974
4.02242
3.96983
0.283178
3.35381
0.253699
0.245378
3.67063
3.59059
3.42858
0.236682
3.05543
0.222864
0.212283
3.37713
3.30505
3.12904
0.203388
2.78689
0.190183
0.175241
3.06049
3.02303
2.81751
0.16786
0.450579
0.456645
0.354243
6.45834
7.82505
5.68087
7.23418
0.74813
1.39498
0.728909
5.79048
7.1335
5.70941
6.9275
2.66847
0.248024
0.24622
2.0174
3.12219
1.9341
0.200346
2.84248
0.281992
0.20962
3.68281
3.6195
2.98414
0.202816
2.9218
0.271482
0.198558
3.51136
3.57047
2.7348
0.210291
3.37918
0.267652
0.23491
3.68739
3.69535
3.31045
0.237997
3.31948
0.242493
0.237067
3.44356
3.34728
3.3794
0.232626
3.05401
0.207082
0.214964
3.0631
2.9931
3.11837
0.207817
2.83544
0.171979
0.183924
2.77592
2.72314
2.87878
0.176662
2.68041
0.138764
0.156115
2.53771
2.50216
2.70778
0.149669
0.342342
0.565769
0.439561
5.91221
7.62696
6.75471
7.97313
0.919616
1.15764
0.78663
5.45136
8.29349
6.66074
8.95018
3.44858
0.260026
0.326237
2.11104
3.13834
2.26155
0.292054
3.76724
0.232618
0.289395
3.43224
3.20979
4.00851
0.29441
2.56407
0.145872
0.234517
2.36871
2.12525
2.90618
0.198617
2.18472
0.12279
0.142725
1.98251
2.04139
2.12871
0.141215
2.62295
0.151488
0.137415
2.39734
2.64794
2.45713
0.144302
3.20309
0.205303
0.176367
3.18849
3.27685
3.08982
0.189722
3.36522
0.210551
0.207204
3.39493
3.38975
3.365
0.206537
3.16823
0.1862
0.190019
3.2307
3.19416
3.2131
0.183881
0.459564
0.554273
0.429306
6.75001
7.658
5.89435
6.61968
1.50162
1.26069