/*--------------------------------*- C++ -*----------------------------------*\
  =========                 |
  \\      /  F ield         | OpenFOAM: The Open Source CFD Toolbox
   \\    /   O peration     | Website:  https://openfoam.org
    \\  /    A nd           | Version:  10
     \\/     M anipulation  |
\*---------------------------------------------------------------------------*/
FoamFile
{
    format      ascii;
    class       volScalarField;
    location    "8.1";
    object      omega;
}
// * * * * * * * * * * * * * * * * * * * * * * * * * * * * * * * * * * * * * //

dimensions      [0 0 -1 0 0 0 0];

internalField   nonuniform List<scalar> 
12920
(
113.652
156.72
151.799
120.819
81.2836
70.7251
69.1195
68.0167
63.9566
60.376
57.6404
55.9263
53.6385
50.8324
47.1881
42.4501
37.9053
34.4579
32.5982
31.3778
92.5302
143.359
120.983
91.7879
81.5252
89.0362
92.9223
90.4551
80.9102
74.0678
68.309
64.8184
61.5279
58.3337
54.7845
52.1735
51.7376
52.0762
52.9059
52.7651
72.4961
154.482
139.401
120.438
113.269
112.283
106.051
98.8536
90.5439
85.0315
78.45
72.82
67.4778
63.1354
60.3576
59.2155
59.2408
59.3521
59.3495
58.6167
89.1256
180.451
163.361
137.602
129.93
121.5
111.587
104.931
96.1215
90.7657
84.7699
80.1331
74.9366
70.5526
67.5139
65.4398
64.7588
63.9184
63.4223
61.5313
69.4513
145.505
159.728
147.636
136.445
127.016
112.474
103.382
93.8564
88.7536
83.9719
80.8969
77.72
75.2043
73.1707
71.294
70.3311
68.4614
67.2879
64.1835
172.748
169.229
164.1
128.952
121.325
112.003
103.935
97.3258
90.5803
86.9857
82.8604
80.0324
77.1421
74.9028
73.1516
71.6235
70.4409
67.8247
66.1749
63.1091
209.557
207.553
187.164
145.176
132.088
122.741
110.66
101.501
92.3479
86.0002
80.9825
77.9141
75.1381
72.866
71.0554
69.8418
67.4017
62.7293
58.3752
55.7467
336.52
219.149
191.711
148.78
135.557
126.251
186.555
150.62
145.009
130
124.483
118.699
115.332
111.823
68.5816
63.6587
57.7749
52.7361
50.3764
50.0924
303.126
215.417
187.131
151.214
127.851
194.509
344.074
264.55
224.354
199.41
185.475
175.674
169.826
164.527
103.606
54.8549
48.7531
45.5467
44.4724
44.7695
233.315
253.14
248.768
219.061
138.785
162.721
300.043
260.113
224.117
199.485
184.93
165.829
151.524
138.836
82.9594
46.5317
44.9783
44.4765
43.6659
43.1433
461.054
441.586
385.369
283.095
179.844
172.39
176.74
177.69
173.085
168.24
158.824
143.284
130.192
119.638
77.6919
49.2999
48.0966
47.5916
47.1296
45.546
445.348
334.964
249.234
193.212
135.605
144.705
197.782
170.615
139.214
114.774
120.786
141.753
147.584
143.705
91.389
50.9956
48.1737
46.3064
45.6305
44.4028
379.235
222.049
177.826
143.683
105.978
95.0663
141.95
133.091
112.136
94.6184
88.1981
83.4145
81.0108
78.5453
49.7396
47.2336
45.4339
43.8568
42.712
41.71
185.358
232.496
208.299
168.664
120.74
106.545
97.2368
94.9655
85.0578
77.0622
67.8632
62.9885
58.9808
55.9208
52.1353
48.4703
45.5943
43.1028
41.4012
39.6731
303.243
317.957
207.765
162.648
134.82
127.701
117.545
120.227
117.208
111.066
94.5369
80.7234
71.4147
66.3702
60.6644
54.2471
48.5597
43.8974
41.2095
38.6121
156.799
152.514
141.437
139.462
130.406
123.766
117.908
116.586
112.041
105.909
96.1928
87.9031
79.351
72.5834
66.5473
60.0344
53.4924
47.4301
43.654
39.9923
193.072
132.068
129.304
120.021
111.652
107.782
104.493
99.7437
93.8661
88.8024
82.7388
76.1875
70.5048
65.1077
59.4804
54.0435
50.05
46.4521
44.2856
41.3779
132.117
191.793
189.47
138.192
114.703
97.8591
86.746
81.8104
76.1583
70.5124
63.7248
57.5901
53.2028
50.9663
50.2586
49.1227
47.7517
46.1254
45.5555
44.4225
75.7456
165.846
139.994
132.303
130.641
121.24
94.1915
81.3603
74.5382
72.2245
67.869
62.9722
56.7883
50.7213
46.801
45.1362
44.5152
44.4903
44.5956
44.9684
70.0722
98.4314
96.4391
103.741
104.706
102.16
89.5324
74.6906
66.3387
64.0129
61.5463
58.8399
55.8697
52.9505
49.107
45.7037
43.7687
42.5549
41.3926
37.2026
82.7944
108.011
97.0535
71.1448
51.5361
46.5528
44.2053
41.5184
38.4752
35.5977
32.7883
30.2339
28.0441
26.0963
24.0311
22.4074
21.694
21.7626
22.2378
22.3965
269.461
138.537
101.397
82.4482
68.2166
57.7403
48.1765
42.5902
37.9626
35.7445
34.0634
33.9214
34.1228
34.7923
34.8767
33.9849
31.6929
29.9506
29.325
29.1834
177.356
122.704
97.3792
86.7556
75.6291
63.3126
53.3441
47.6714
43.5455
41.2934
39.5511
38.3235
37.441
36.2452
35.1705
33.7872
32.4432
31.5274
31.1981
30.7005
208.23
122.758
83.7792
71.9321
66.5814
60.0793
54.0669
50.1386
46.0486
43.677
41.3568
39.5778
38.0963
36.6994
35.7373
34.8358
34.2312
33.1121
32.4928
31.4632
113.184
101.562
84.4556
72.0844
65.9552
61.2034
55.5454
51.0935
46.8098
43.8679
41.3966
39.7765
38.4975
37.524
36.8764
36.2303
35.8502
35.035
34.5099
33.4221
119.49
105.662
79.7117
67.9621
61.4834
57.1596
51.8409
47.8064
44.013
41.9824
40.0069
38.8619
37.8269
37.0698
36.5988
36.0709
35.6724
35.3527
35.1333
34.2068
202.673
123.215
93.5528
75.6264
65.1499
60.0003
52.6232
48.1738
43.6696
41.1019
38.9994
37.7235
36.6433
35.8787
35.2802
34.6354
34.2952
33.9142
33.0011
30.4723
326.412
134.451
99.2401
79.22
65.3246
57.7726
60.4091
48.7218
44.7342
40.1042
38.4758
36.6385
35.9681
35.0832
31.3563
31.0655
30.4279
28.7624
26.586
25.3547
139.733
139.866
115.796
87.3974
63.9278
62.5426
62.9489
50.4097
42.5408
37.8661
34.9716
32.9338
31.8456
31.0799
28.7
25.4972
24.775
23.5382
22.7573
22.8066
183.044
154.297
159.077
148.284
89.9348
56.9361
50.0223
47.2034
39.7509
34.9241
32.3468
29.8426
27.4693
25.8628
23.2102
22.2158
22.6226
23.0961
23.4794
23.5962
229.332
272.124
255.198
196.829
124.967
75.1761
44.3944
38.2191
35.0969
31.4652
31.264
29.9086
27.0552
25.057
23.591
23.8564
24.5508
24.9172
25.0318
24.8144
273.105
184.509
140.034
115.978
89.9808
69.03
46.4881
41.6102
38.4162
33.2742
30.1478
27.8331
26.6769
26.4627
26.1507
25.167
24.9486
24.1873
23.4982
22.9129
220.935
135.542
92.553
76.3452
64.1467
55.4126
53.4746
47.1716
37.8
31.4242
29.6567
29.2604
28.5952
27.311
24.6846
23.9542
23.1648
22.4175
21.8905
21.3981
163.882
169.115
105.721
81.7866
66.6691
61.3981
51.3662
46.8618
39.7331
38.3084
34.9583
32.7714
30.0922
28.4302
27.0759
25.7356
24.3753
22.754
21.5905
20.3861
281.724
242.118
101.597
81.6599
70.0437
67.8225
59.8225
60.2601
58.0263
57.2375
54.7074
49.4503
41.6217
36.7818
34.0377
31.7556
28.4218
24.6016
22.0364
19.9157
242.002
216.079
119.182
96.3063
80.4079
72.5676
66.1723
64.2062
61.0872
59.2256
56.5051
53.4945
49.436
44.114
40.7657
37.9526
34.1591
28.8866
25.1586
21.4921
288.436
126.69
94.4651
77.8391
68.0544
63.1969
60.0678
57.5122
55.786
53.4115
50.7191
47.4837
44.7379
41.6782
39.1953
35.1842
30.7995
26.6195
24.2042
21.4927
177.053
160.214
105.726
71.4608
61.7586
54.4559
49.5753
46.0998
43.6812
41.387
39.4611
37.9707
36.5453
34.7522
32.505
29.1617
26.3238
24.2594
23.4995
22.5042
131.373
140.452
107.405
85.6188
76.8486
63.7383
48.533
43.4097
40.3553
39.0025
38.2316
37.8862
37.3516
35.7503
32.6473
29.661
27.3786
25.6972
24.7286
23.9669
23.6103
54.9185
48.3885
52.8357
55.0188
54.0265
46.6092
40.1982
38.6155
37.3068
35.0093
32.7112
30.4151
28.4715
26.9911
25.838
25.2746
24.644
22.9122
18.9949
196.921
155.352
132.635
98.1024
73.1828
59.4445
51.3939
45.6539
40.9315
36.8461
33.4026
30.6669
28.9007
27.7165
26.9459
26.1753
25.9363
25.9477
26.1716
26.1805
328.76
152.462
100.661
74.8952
62.2714
52.5621
44.2434
39.6245
35.537
33.8781
32.1639
31.6396
31.0561
30.6938
30.0574
29.2527
28.3655
27.7662
27.5437
27.5541
281.481
159.782
95.5218
75.3778
64.119
54.5244
45.9054
41.5393
37.9338
36.3851
34.8201
33.9681
32.9235
31.9161
30.9514
30.012
29.2685
28.6768
28.433
28.0151
357.793
173.062
79.9194
62.0348
58.1612
51.0707
46.1109
42.7614
39.4181
37.6262
35.6784
34.4333
33.2341
32.2567
31.4976
30.8162
30.2703
29.4463
29.0094
28.2307
360.621
130.647
84.6919
63.3718
57.4488
51.6468
46.6704
43.3643
39.749
37.6266
35.6062
34.3918
33.38
32.6587
32.1335
31.6006
31.2115
30.5388
30.1732
29.4369
201.538
104.127
77.2514
57.9344
53.2012
46.8279
43.1699
40.3173
37.327
35.8193
34.2341
33.3976
32.6358
32.1075
31.7384
31.325
31.0422
30.7293
30.5239
29.9286
392.669
152.44
90.0477
66.2755
57.0467
49.8062
43.2347
39.3819
36.1458
34.2438
32.8342
31.9707
31.2987
30.8089
30.379
29.9085
29.5497
29.0372
28.434
27.314
195.541
134.721
92.3908
68.4078
56.9243
49.1288
46.2651
39.1126
35.6497
32.5392
31.2732
30.1068
29.5921
28.9744
27.7985
27.0998
26.3137
25.2601
24.3923
23.9528
106.724
121.657
97.2044
67.8202
52.0268
48.9802
46.8827
38.9977
33.6931
30.4873
28.5197
27.2739
26.6121
26.1009
25.1389
23.9928
23.1711
22.5932
22.3331
22.3538
135.821
141.961
116.071
84.2267
54.0707
42.6087
39.8662
36.5163
31.5155
28.4149
26.9708
25.399
23.9047
23.0769
22.7449
23.564
23.3532
23.268
23.2278
23.0225
171.119
172.987
136.196
94.4939
63.917
45.1032
35.3205
31.3334
28.7187
27.7203
60.394
48.6554
31.1516
25.684
24.1423
24.592
24.5048
24.3502
24.1962
23.7538
168.955
159.517
117.749
76.2284
54.1397
44.2905
38.4157
33.5594
30.2596
27.5203
26.2592
25.3495
24.4718
23.9361
23.8906
23.7297
23.2711
22.846
22.5473
22.3405
178.881
133.686
82.4024
58.4274
49.1652
44.1009
41.4573
35.3597
29.537
26.6126
25.4688
24.7483
24.0163
23.3241
22.7152
22.0491
21.4865
21.0686
20.8487
20.8009
250.171
132.255
84.6195
61.865
52.7154
49.3935
41.1248
37.7751
32.4302
31.262
28.6364
27.1652
25.5221
24.4396
23.425
22.4213
21.4793
20.64
20.0543
19.6915
257.944
133.205
81.2879
64.0936
58.4098
54.4233
48.049
47.0984
43.6517
42.2605
39.2354
36.2525
32.3191
29.6629
27.5269
25.4486
23.2531
21.2762
20.0127
19.1801
234.246
171.467
94.212
71.8757
61.6823
56.5021
51.4308
49.5951
46.2799
44.5651
41.7949
39.2164
36.1748
33.4548
31.2054
28.7247
26.0704
23.3502
21.6072
20.1039
252.187
108.949
76.6244
60.1961
55.4876
50.0006
47.4522
44.7861
42.4295
40.6303
38.3224
36.475
34.4437
32.4784
30.3456
27.5671
25.0581
22.981
21.7944
20.5989
300.058
266.686
137.832
69.4672
55.2514
46.0608
41.5381
38.7761
36.1531
35.1522
33.6053
32.9163
31.3924
29.6907
27.6093
25.5161
24.1384
23.2956
23.0483
22.6344
242.758
204.831
124.065
83.549
69.6781
56.8616
44.6813
40.8469
37.126
35.8062
33.9676
33.0979
31.6266
30.0877
28.3318
26.9709
26.2602
25.8092
25.4953
25.2995
21.487
74.9663
65.3953
61.6108
58.6261
53.788
47.5989
44.3385
41.7962
38.8628
35.9691
33.6723
31.5085
29.9316
28.9905
28.4148
27.4277
25.4664
22.8889
20.5083
89.4744
148.678
144.665
110.648
83.2523
66.5195
55.3545
46.9227
40.6329
35.641
32.6404
30.6686
29.9585
29.2952
29.0185
28.3679
28.122
27.9038
28.0601
27.965
143.883
144.945
110.656
77.1996
67.3687
55.0875
48.8038
43.3581
39.9262
37.5106
35.8614
34.8052
33.939
33.1974
32.6113
32.2144
31.9944
31.9686
31.9872
32.2144
257.985
174.115
101.672
73.1072
65.9715
53.9718
48.1346
42.9863
40.57
38.6086
37.3458
36.114
35.0803
34.0614
33.3359
32.7033
32.3422
31.9957
31.8323
31.6027
290.032
171.758
84.5879
61.4213
59.1704
49.3748
47.0288
42.3491
40.5255
38.3874
37.1433
35.8841
35.0251
34.1803
33.6505
33.0795
32.716
32.1665
31.8768
31.3575
134.375
158.413
115.071
66.1989
59.5744
50.0975
47.2735
42.9426
40.6154
38.3433
36.9969
35.8051
35.0958
34.4127
34.0136
33.5308
33.2516
32.8146
32.5954
32.1055
208.611
144.69
90.4784
58.7389
54.6823
45.1567
43.7529
40.0193
37.9575
36.2545
35.2332
34.4696
34.0208
33.626
33.415
33.1424
33.0439
32.8799
32.7899
32.4299
261.085
147.016
96.9592
64.8809
58.6198
47.6281
42.8704
38.5751
36.3033
34.5597
33.757
33.0746
32.735
32.356
31.9906
31.6482
31.4295
31.1125
30.8847
30.4939
222.912
164.107
97.9615
66.8101
58.9799
48.5618
44.2131
38.0736
35.0958
32.6407
31.8993
31.0981
30.8526
30.4598
30.7459
29.5522
28.884
28.3759
28.1322
28.0692
119.171
120.924
94.2036
63.836
51.507
47.3381
45.0036
37.5178
33.5898
31.3522
30.1579
29.4785
29.2068
29.0074
29.292
28.6232
27.4409
27.0414
26.9473
26.996
258.235
176.184
104.068
65.739
47.882
41.0254
39.7348
36.0252
32.5526
30.253
29.1915
28.1993
28.1449
28.4373
29.5411
29.5403
28.3523
27.8873
27.6719
27.5484
224.658
185.761
129.427
70.338
48.4075
38.5782
35.1336
32.4856
30.8139
30.3266
45.4688
38.307
32.0699
30.7633
30.8599
30.3323
29.1629
28.6533
28.3521
28.1432
228.72
184.246
121.916
66.5085
47.1444
40.4878
38.4345
33.4406
31.0511
29.4555
28.8735
28.5844
28.7399
28.8216
29.4099
28.5267
27.5413
27.1905
27.0777
27.1498
221.726
125.309
82.8262
57.2577
48.5957
43.2967
39.9241
34.4647
30.2497
28.6316
27.7324
27.1649
26.8439
26.6191
26.6763
25.7536
25.3987
25.3631
25.4322
25.6795
159.069
114.793
82.4297
59.2275
54.6284
46.8411
40.2672
36.0168
32.1032
30.3658
28.7984
27.747
26.9793
26.2985
25.6667
25.0997
24.6997
24.5062
24.4512
24.6022
288.06
114.126
77.1718
62.1494
58.0693
49.8976
45.9368
42.7596
39.284
37.3338
34.8206
32.9955
30.9594
29.3072
27.8034
26.4177
25.316
24.535
24.1705
24.1403
217.245
129.371
87.1516
64.0716
59.2047
50.369
48.0399
44.0435
41.8156
39.3464
37.2606
35.1351
33.2912
31.5455
29.9619
28.2854
26.8998
25.7605
25.1164
24.8334
280.242
123.14
78.1678
60.3885
54.0695
46.5745
45.4648
41.2532
39.7974
37.5134
36.0802
34.4834
33.0488
31.4875
29.9609
28.3502
27.2017
26.3442
25.8956
25.6269
301.631
199.428
134.731
75.0819
56.644
44.8222
42.9371
38.8147
37.3299
35.667
34.6361
33.5592
32.312
30.9966
29.7771
28.9174
28.6252
28.5896
28.7386
28.7848
454.764
271.345
163.123
87.5312
67.3043
53.8409
47.4909
43.1896
40.0117
37.8207
35.9761
34.8092
33.5929
32.9085
32.4491
32.5607
32.9809
33.1842
33.2314
33.5471
30.9309
91.9454
77.2564
65.9528
58.0791
52.1988
48.2361
45.1063
41.6275
37.6811
34.8823
32.7502
31.1999
29.8875
29.0606
27.7795
25.9128
23.9626
22.8246
22.0155
176.964
143.873
132.876
104.552
83.711
66.3101
53.6699
43.7464
36.7953
32.9976
31.3417
30.3069
29.9827
29.2146
28.8973
28.0752
27.7853
27.4991
27.6916
27.388
278.931
142.117
116.146
80.8337
82.7161
58.7228
63.5974
50.0647
52.3082
45.7785
47.1065
43.9752
44.4056
42.9225
43.202
42.9534
43.5065
43.7014
43.8847
44.1234
202.445
184.114
125.451
75.5024
78.4775
57.0511
59.7029
49.0166
51.1471
46.0743
46.9393
44.1613
44.1468
42.5836
42.4997
41.8742
41.9765
41.718
41.6382
41.3406
228.106
160.236
96.7396
68.6326
67.7927
51.1736
56.3027
46.3485
49.1234
44.2932
45.3536
42.969
43.2378
42.0916
42.1681
41.6681
41.7536
41.4065
41.2719
40.7
203.48
203.928
139.339
71.8873
71.2258
53.2357
56.7767
47.6559
49.023
44.686
45.219
43.1693
43.3506
42.3637
42.4194
41.9767
42.0666
41.838
41.8197
41.2514
181.07
171.227
109.179
65.1655
65.0506
48.8187
53.654
44.4932
45.4294
42.0175
42.4627
41.2581
41.5831
41.2351
41.4943
41.4529
41.7736
41.8509
41.9959
41.501
322.303
184.444
109.951
67.7035
71.4757
51.4583
51.6965
44.0814
43.5991
40.9942
41.4625
40.5819
40.9332
40.4442
40.2834
40.1541
40.3367
40.3516
40.5077
40.1381
288.787
202.359
119.887
70.5002
73.2348
54.8157
49.3051
43.0853
41.0356
39.1659
39.3012
38.8606
39.1926
38.9906
40.3858
38.6991
38.4214
38.3651
38.4072
38.1478
181.418
148.659
108.16
68.8133
62.7399
53.2165
51.6537
44.4694
42.6337
41.8045
42.009
42.1399
42.6827
43.0052
42.1044
38.9365
37.7426
37.5866
37.6714
37.5247
185.59
154.676
119.656
67.0095
61.7038
47.8691
48.15
46.4674
45.5907
43.7177
43.148
44.1394
46.0272
46.5142
43.8254
39.6455
38.2945
38.1454
38.2404
38.0966
214.735
214.29
151.521
77.2173
60.9257
47.4028
45.8771
47.0236
46.8191
43.3572
43.9142
44.6125
47.8247
48.0978
44.897
40.5123
39.0268
38.7732
38.7664
38.5894
359.108
224.546
156.108
85.5175
67.3228
49.9412
49.8254
48.4042
47.3314
45.9566
45.5532
45.9728
46.8192
47.0701
44.2045
39.3493
38.1004
37.8771
37.9735
37.8944
260.784
158.867
99.3617
81.9268
64.8268
56.6671
53.7692
45.4329
42.8703
40.9828
40.6066
40.0802
40.4363
40.3163
38.0331
36.5224
36.358
36.5638
36.7358
36.8027
171.913
125.714
101.489
73.0216
75.0581
54.0687
55.4172
42.628
41.2013
37.369
37.4235
36.2496
36.4057
35.848
35.5673
35.4336
35.6571
35.8027
36.0023
36.0202
251.915
141.853
87.2814
79.0066
67.0508
56.2883
55.6121
46.3131
45.1572
41.4383
40.9655
39.3468
38.8955
37.5766
36.9159
36.2604
36.0963
35.9004
35.8804
35.8026
346.27
141.108
97.5107
72.6515
72.7591
54.6499
59.0943
48.168
49.7153
44.0389
44.2256
41.2358
40.9929
39.1996
38.5399
37.3786
37.1466
36.7732
36.7583
36.5625
193.37
152.275
92.8744
83.4453
63.4561
56.6272
55.5181
47.1347
48.79
43.738
44.4425
41.6956
41.6228
39.8392
39.2862
38.285
38.0591
37.5522
37.4576
37.2079
288.442
196.553
146.941
88.8501
70.3286
53.8126
56.9353
46.7392
49.6634
43.854
45.2092
42.1427
42.5484
40.8517
40.7767
40.0671
40.2025
40.1134
40.4786
40.418
397.418
335.054
212.005
102.329
76.4411
60.6747
61.3214
51.5291
53.6392
47.3559
48.7527
45.7851
46.8481
46.1223
47.1038
46.9256
47.3045
47.1571
47.552
48.0709
59.5259
111.866
88.8788
70.0224
57.2779
50.6165
46.7136
42.4998
37.9525
33.8977
31.6076
29.4958
28.1329
26.3852
25.1735
23.9301
23.3439
22.8163
22.6099
22.2836
27.2855
28.8757
70.5056
29.1289
28.3244
30.4431
73.1711
25.8403
69.8101
50.727
28.0962
27.2493
71.3638
49.1631
60.7482
27.1502
27.0246
29.6308
65.2496
28.0902
28.5496
54.4807
26.9883
26.5062
63.8751
51.3295
28.5605
28.1886
267.495
305.006
267.471
78.0857
61.3896
65.7926
58.5745
236.619
265.266
238.245
57.4284
50.3548
56.8214
49.1893
203.944
227.13
205.519
48.5136
44.3486
46.4655
41.2292
189.779
200.705
190.467
43.2097
40.7135
40.2407
37.9015
178.423
186.89
174.704
40.0048
38.0488
37.2979
35.2343
171.901
170.427
161.709
37.534
36.5159
34.5729
32.6169
166.362
159.178
151.364
36.2237
35.6009
32.1708
30.8101
146.714
148.675
129.59
35.3142
33.8783
30.4994
27.8804
264.11
225.694
205.019
58.8973
55.4976
52.0975
47.0244
233.624
203.93
194.304
54.1087
47.7377
45.8162
42.3481
204.076
190.338
181.275
45.5395
40.8847
41.1378
37.698
188.706
178.315
169.592
39.8991
37.5973
36.875
35.2186
170.772
165.082
150.61
36.9655
34.7825
34.8721
33.1661
154.628
146.356
134.864
33.9928
31.6659
32.3456
29.6906
142.009
130.96
121.069
31.0742
29.4739
28.9565
27.2565
124.262
117.967
103.183
29.0764
26.9834
26.9384
25.233
177.013
176.659
152.789
51.6915
43.7228
52.3609
44.4597
174.689
150.298
132.1
42.9718
40.8677
43.9833
43.7723
169.44
123.458
118.065
39.8007
36.5074
43.1499
37.3897
162.359
120.138
131.93
35.6147
34.2809
36.0336
33.3899
147.13
137.497
144.44
34.0069
32.4924
32.673
30.7991
133.346
144.415
144.797
31.771
29.3958
30.2909
28.9667
122.16
144.452
140.185
28.7309
27.1596
28.6882
28.2251
104.269
138.684
127.094
26.8683
25.2573
28.1687
27.3434
174.528
236.169
201.892
52.1809
46.9808
62.2741
54.5115
151.439
199.998
173.054
46.1934
44.3351
51.9551
45.9818
116.217
161.566
135.778
43.0116
38.2555
43.9926
37.8326
117.447
136.254
136.868
37.0502
34.3604
36.4617
33.4617
138.572
136.223
131.477
33.5547
31.195
33.3499
33.2657
147.214
131.415
133.518
30.6674
29.5283
33.6896
33.7155
145.443
133.964
133.465
29.4008
29.2944
33.7104
32.9535
129.73
132.044
111.579
29.3338
28.1077
32.837
30.4384
53.6556
55.593
51.0055
49.0509
42.7263
44.4377
40.7519
44.1265
49.464
42.809
40.4984
35.9083
39.3407
34.5029
38.9177
40.5955
36.2134
34.7722
32.041
33.119
30.172
35.5886
35.3287
33.2356
31.2822
29.5743
29.4813
27.8266
33.3541
32.6775
30.8949
29.1201
28.0024
27.3732
26.0763
32.0776
30.3331
28.7387
27.7198
27.1461
25.6835
24.6679
31.2886
28.3587
27.2633
26.9784
26.5475
24.4103
23.7378
30.5014
26.9987
25.6106
26.4144
26.0557
23.5574
22.8268
48.4751
44.268
41.2305
41.1452
39.0906
36.5372
33.9374
41.5935
40.1692
37.0774
37.8784
33.6682
33.0695
30.6011
35.7954
36.0141
33.0808
32.4349
29.6874
29.8138
27.8795
32.9008
32.389
31.8633
29.0159
27.66
28.2291
42.2883
30.5008
31.7993
30.6992
27.298
26.0435
42.7075
38.8891
27.9534
30.0106
27.5535
25.5726
24.2641
36.3098
29.5143
26.1906
26.841
25.2064
23.9298
23.1325
27.966
25.0248
24.6643
24.8636
23.8562
22.9281
22.2776
24.4317
23.3717
38.9921
46.1242
40.4059
36.6564
32.8948
39.0423
34.5153
36.0664
39.7759
39.047
32.1279
30.0787
33.6221
31.8306
32.2248
38.2946
33.5542
29.345
27.451
31.0171
28.33
31.2229
32.392
30.0223
27.6085
40.3321
27.6252
26.8995
30.4801
29.4604
27.9788
41.0925
40.948
26.767
26.1912
27.7137
27.5683
26.4443
39.1122
31.5237
25.9001
24.7965
25.4134
26.1737
25.6357
29.6544
25.8655
24.4714
23.7373
23.9801
25.5545
25.3435
25.0753
23.594
23.5783
23.2568
42.4077
56.0307
49.549
39.6639
35.7055
47.0341
39.7877
39.5928
46.8067
40.4537
34.743
32.2992
37.3791
32.4437
34.3361
38.6299
33.7794
31.3678
28.7866
31.113
28.2543
30.8535
32.7105
30.4491
28.1335
26.7836
27.7913
26.6701
28.2573
30.3413
30.1266
26.4576
25.5806
26.4653
25.9842
26.83
30.3929
30.0866
25.3344
24.5818
25.986
25.4344
26.453
29.9985
29.133
24.3862
23.9235
25.2539
24.5078
26.1378
29.012
27.5712
23.8428
23.5402
24.3757
23.5387
41.0846
42.8312
39.2365
44.8622
39.0838
41.4968
37.758
34.7375
37.8274
33.3708
37.266
33.8336
36.3891
32.8561
31.177
32.1514
29.5164
33.0124
31.0738
32.004
30.0696
28.9312
28.8739
27.34
30.5342
29.4172
29.5306
28.2829
27.5223
26.9224
25.7508
29.1358
28.4775
27.9605
27.1376
26.7647
25.396
24.5138
28.3052
28.0069
26.9119
26.5541
26.2215
24.2932
23.737
27.9166
27.6965
26.5007
26.4061
25.7887
23.5852
22.9755
27.6183
27.3993
26.3598
26.2111
37.7348
35.4095
32.9842
39.1311
36.5963
34.8781
32.7313
32.6136
32.1518
29.8534
35.4187
32.3252
32.0539
30.3401
29.0389
29.1418
27.6145
31.5468
29.6588
29.8293
28.861
28.0547
27.9169
27.965
28.2456
27.9515
27.8052
27.8813
28.77
26.622
28.3485
27.0249
28.1499
26.7143
28.9243
24.1985
43.0295
31.2082
26.92
26.3304
41.7149
31.8046
23.2429
29.1515
25.6799
26.2759
26.235
30.5118
28.6493
22.5427
25.0381
23.9033
26.2207
26.1353
28.3402
27.8904
32.0846
37.6104
33.5411
34.5314
32.0509
36.5848
32.9677
29.3795
32.6161
30.6936
31.4368
29.9497
32.0923
30.3135
27.2356
29.9486
27.6974
29.4852
28.6268
29.8039
28.3835
48.1995
46.8016
27.6439
33.3174
34.7225
191.255
28.4212
56.0073
59.2495
43.6872
146.285
43.55
133.894
58.5824
33.7804
26.1894
25.0285
44.345
33.0573
27.9123
27.311
26.551
24.7008
23.9828
31.5433
29.1498
27.2083
27.0001
24.1142
23.8267
23.4787
28.7121
28.0078
26.947
26.855
34.5608
44.5326
38.0731
37.6661
33.6368
42.3859
35.7272
31.1026
35.7365
31.2479
32.6463
30.5127
33.7266
30.4738
28.0712
30.0236
27.6369
29.936
28.5878
29.5461
28.2041
26.505
27.278
26.2967
28.2245
27.7291
27.9736
27.1909
25.5681
26.0682
25.5701
27.6107
27.2702
26.946
26.5707
24.6608
25.548
24.9698
27.1482
26.9158
26.5133
26.0584
24.0235
24.7905
24.1315
26.8616
26.7475
25.9374
25.6528
23.6549
24.0205
23.3152
26.7127
26.678
25.5885
25.2394
39.2673
41.9127
38.201
48.58
42.9403
46.3077
43.3547
34.331
36.8786
33.6571
41.4397
39.197
42.3676
40.5382
31.8553
32.9148
31.1614
38.8953
37.9344
40.2613
39.0576
30.3883
30.6398
29.4592
37.5927
37.2942
38.5741
37.8058
29.6317
29.1668
28.4784
37.3978
37.3842
37.7064
37.7932
29.2694
28.3229
28.2699
37.3485
37.5705
38.1239
39.5644
29.0745
28.3054
28.413
37.7322
37.9731
39.8415
40.3359
28.7313
28.4068
28.2366
38.0043
37.5605
40.4016
40.0428
37.1482
35.5221
33.607
44.4849
42.8357
41.2341
41.309
33.2318
33.0256
31.5739
42.1003
40.7254
41.2687
41.0842
30.7811
31.1088
29.9087
40.4743
38.7944
40.5941
38.076
29.4068
30.6048
47.3736
38.2354
37.3526
37.5704
38.8807
28.4539
47.0425
40.2452
37.2329
37.1776
38.973
38.3075
28.0522
37.1571
31.9314
37.4478
39.6256
38.275
40.7114
28.3932
31.3524
30.6263
40.0976
40.7376
41.4655
42.1598
28.302
30.4875
30.0311
40.797
40.2882
42.1682
41.453
33.0025
37.2341
33.7919
41.0963
41.3618
43.4057
42.5552
31.2391
32.9923
31.4148
41.3913
41.2739
42.2546
41.6978
29.6971
30.9884
29.6226
40.7856
38.0526
41.4795
39.1526
45.7379
29.2962
29.5173
37.5876
39.1092
38.4046
37.9734
41.2373
29.5372
29.2626
39.1953
38.5973
38.0107
38.2244
32.7596
29.0808
29.0131
38.6083
41.0788
38.7018
40.8555
30.9949
29.075
29.1654
41.7784
42.3653
41.2345
41.6314
30.128
29.1601
28.9572
42.3539
41.611
41.6583
41.1781
34.3774
42.7143
36.1405
44.8931
42.9934
48.9404
43.7808
31.53
34.1936
31.2568
42.4767
41.6194
41.9093
39.8265
29.8269
30.4406
29.3869
41.4381
39.9412
39.7091
39.2053
28.9708
29.1386
28.4038
39.244
38.6605
38.692
38.1834
28.641
28.1743
27.9025
38.6595
38.9634
38.1571
38.1185
28.703
27.8286
27.4813
39.324
40.7323
37.9531
38.1024
28.8265
27.3963
27.2719
40.9458
41.2546
38.1749
38.3665
28.7001
27.2221
26.8501
41.271
40.8773
38.319
37.7094
45.8016
49.619
47.189
79.5366
68.9743
76.8853
77.6283
42.7224
46.3847
45.2122
68.6872
68.5745
76.4379
75.7379
42.0038
45.1188
44.3237
69.7633
67.8323
75.6738
77.9835
41.7796
43.962
43.61
68.3009
69.2697
78.6926
80.2003
42.1236
43.6663
44.0705
70.2527
69.6712
80.4064
80.0758
42.4705
44.3797
45.4279
70.208
70.8728
79.5957
77.7758
42.9618
45.6292
45.984
71.7448
71.5886
77.6487
77.6532
42.0642
46.0424
45.0292
72.1655
69.4934
77.8216
76.8705
47.0154
45.807
46.637
78.022
79.7678
76.4975
83.5579
45.6887
46.7205
46.7867
78.6004
77.6803
82.8819
82.9215
44.2263
46.5004
43.8968
77.9383
81.573
83.9434
89.8511
43.1257
43.2435
43.4679
82.6037
84.1056
91.5669
93.5989
43.6573
43.5704
43.5254
84.2814
83.6527
93.7494
92.1295
45.6883
44.2617
46.9931
82.9355
79.8865
90.3771
84.7061
46.4686
47.5707
47.9851
79.208
78.705
82.9249
80.7773
45.2819
47.9428
46.362
78.7071
76.2024
80.5757
77.7595
46.8944
48.2739
48.3516
78.7762
85.2883
81.7399
87.1352
47.0917
48.1157
47.5506
84.3274
83.9961
85.6514
84.1359
44.0304
47.3712
45.919
84.9371
90.7468
84.1842
86.8955
43.821
45.1743
44.7629
92.4971
94.2697
87.5751
88.1123
43.8518
44.8282
45.2332
94.2324
92.5645
87.9652
86.8041
47.2948
45.7309
46.9014
90.7198
84.9168
85.7251
81.8493
48.1572
47.1748
47.4364
83.0948
80.8883
80.8557
80.1062
46.5198
47.4456
46.275
80.651
77.4448
80.1117
78.1797
48.8509
54.1907
49.5869
83.7875
87.0828
91.5326
82.3708
47.5036
47.6306
45.3791
85.3563
83.5101
80.5911
78.3365
46.4783
45.3029
44.7748
83.2364
84.5743
79.6532
77.0364
45.5504
44.1607
43.6322
84.9404
85.1817
76.015
76.0985
45.7963
43.5737
43.5486
85.0883
84.031
76.2612
75.5554
46.6704
43.3372
43.5018
83.2507
80.427
75.0732
75.6535
47.0577
43.5618
43.7762
80.0701
79.6443
75.8308
75.8505
46.0007
43.7211
42.5517
79.6866
78.1322
75.9661
73.1117
28.6227
27.5727
28.4042
27.3026
28.2046
27.5329
28.9536
32.9437
27.9632
46.8547
33.2941
29.8081
28.1941
149.179
38.4285
34.9
64.7514
169.784
33.3052
40.1905
186.267
28.3975
28.4787
28.7338
28.8278
28.0749
28.1706
28.9415
29.0624
27.65
28.5057
29.8117
27.8448
29.4566
29.4369
33.809
34.3884
29.0519
51.9684
28.5725
153.009
31.5807
39.6213
172.336
37.5915
70.4242
41.5135
188.805
35.807
28.4777
26.2534
27.2464
25.9973
27.818
26.3841
27.799
39.6971
35.1299
68.1417
158.428
34.9106
40.1338
147.225
38.9835
32.7422
61.6294
67.4504
34.4096
35.3559
101.864
29.3184
27.4011
27.8432
29.8161
27.1219
29.4478
29.6987
29.0433
26.4623
27.5684
28.826
26.8215
28.3375
29.4177
40.9973
161.133
37.7687
68.5366
41.433
151.126
37.5139
40.1738
67.8266
34.6126
60.6184
36.0957
106.076
36.8078
58.7538
58.6929
43.2641
159.138
41.0062
173.773
59.8789
29.3376
27.0328
26.9927
27.0822
28.058
27.2209
27.1261
31.6527
30.4807
27.0031
27.4489
29.5998
32.6714
27.3076
49.1581
34.2894
51.4804
29.2031
185.572
28.9813
37.7066
59.5161
162.565
64.5871
45.7343
177.091
60.0032
44.4163
29.9542
27.3846
28.3272
28.1584
27.6463
27.5
29.8114
32.3147
27.9472
32.4117
28.3658
33.2654
27.7617
31.5891
53.2425
59.8439
42.3773
82.3392
43.3226
122.12
49.9312
32.6278
30.7946
26.8854
27.4374
30.8413
32.7766
27.3561
32.2632
30.4049
26.7034
26.9645
30.7267
31.6961
27.1735
55.4729
150.751
61.5648
45.2637
139.622
58.2104
44.2136
52.3143
78.4015
59.8076
40.8773
122.802
48.135
43.1419
33.0231
27.9449
32.4924
28.5131
33.2681
27.8759
32.3406
32.5668
27.4939
31.4643
28.3746
31.8946
27.7055
32.0032
153.903
185.64
164.25
103.213
75.4872
100.588
77.6296
151.062
154.256
145.605
65.5013
65.0034
65.292
60.7072
133.239
138.637
131.989
62.7624
57.5127
57.5507
54.7724
128.155
125.682
121.502
55.8424
55.957
52.26
50.0717
120.079
118.292
115.083
54.4991
52.0942
48.5263
46.755
117.299
112.602
110.762
51.5245
51.5534
45.7904
45.0334
113.092
109.642
107.564
50.7072
49.7869
44.5818
43.919
106.057
106.395
98.1383
49.2448
45.1416
43.4872
37.2214
193.451
184.836
185.486
99.6958
91.9787
92.5768
78.8073
134.849
293.066
314.594
169.956
139.201
168.33
277.851
99.8475
257.936
270.841
101.593
98.5201
102.969
265.821
81.943
216.235
226.401
88.9119
86.9405
87.0249
217.458
73.2549
196.795
199.138
80.4528
81.0275
74.5975
196.281
68.7556
183.401
185.789
76.8255
76.8232
69.7156
183.724
64.5756
174.947
174.644
71.3922
71.9742
65.2593
173.313
62.0598
169.6
167.665
69.014
69.5603
62.302
166.753
59.8636
163.979
161.053
66.6092
67.2685
60.0422
159.853
97.2814
95.2864
81.9726
39.7908
38.9667
33.8714
29.0211
165.293
149.187
142.302
82.9186
65.8393
84.2646
61.0245
109.76
276.456
285.379
138.115
112.66
136.936
266.221
89.6048
253.275
246.431
96.9125
94.2959
92.5896
238.894
78.6825
216.245
216.723
83.5476
79.9177
81.5667
210.435
71.039
195.884
195.883
73.3381
71.8189
72.5946
192.451
65.594
180.825
180.363
68.1648
66.7659
67.1582
175.264
59.0163
161.529
159.023
62.1625
60.4213
61.0217
154.656
52.7053
148.347
143.542
56.2858
55.0481
54.1889
139.901
47.8881
136.046
129.898
51.9448
50.8556
49.1939
127.119
73.3587
75.1787
67.4835
29.6108
25.2889
28.163
23.6609
121.445
174.635
122.17
111.245
67.5518
110.445
67.389
76.563
172.074
167.122
101.01
80.9009
96.5094
152.315
69.4971
177.37
150.124
74.5027
74.3755
69.2774
148.119
65.9812
171.982
146.771
71.2013
69.0773
68.1135
150.757
60.6168
167.222
156.276
63.9896
62.8505
61.6596
156.782
56.8633
155.122
154.396
60.0676
58.6278
57.9841
152.005
51.5963
139.964
143.438
53.9536
52.3036
52.9611
140.523
47.1006
127.55
132.503
48.0939
46.915
48.0473
130.369
44.898
117.363
124.919
44.5763
43.8723
45.3363
123.123
68.1274
86.6788
78.0489
28.7347
23.8185
31.0049
28.0322
125.914
148.841
134.914
94.2918
62.099
84.5038
64.1856
88.7114
185.654
207.21
106.913
86.4629
107.967
197.27
76.0788
166.916
185.486
74.4574
74.3275
76.5173
181.563
64.0596
126.868
149.393
68.6122
65.0186
66.6766
137.028
57.9517
114.817
118.61
59.1828
57.8608
59.5293
117.989
54.4558
127.278
120.665
55.855
54.8412
55.175
123.813
52.7944
143.812
136.287
52.6712
52.2619
52.8917
140.265
53.1154
147.569
147.394
51.7557
51.7038
53.0292
147.781
53.5384
142.086
145.185
51.5363
51.417
53.5381
143.501
80.2096
86.4443
75.4552
34.2508
31.39
36.3932
32.9337
140.243
145.213
131.963
75.0668
69.3339
80.2568
67.2881
123.087
130.033
127.932
63.3826
56.3515
62.8996
59.0318
102.742
119.229
101.61
51.3683
46.4079
54.6334
45.1293
92.0178
96.5354
94.945
41.7514
39.2968
43.1382
42.8001
86.135
90.7023
84.5898
38.3532
38.0434
42.3514