/*--------------------------------*- C++ -*----------------------------------*\
  =========                 |
  \\      /  F ield         | OpenFOAM: The Open Source CFD Toolbox
   \\    /   O peration     | Website:  https://openfoam.org
    \\  /    A nd           | Version:  10
     \\/     M anipulation  |
\*---------------------------------------------------------------------------*/
FoamFile
{
    format      ascii;
    class       volScalarField;
    location    "8.1";
    object      p;
}
// * * * * * * * * * * * * * * * * * * * * * * * * * * * * * * * * * * * * * //

dimensions      [0 2 -2 0 0 0 0];

internalField   nonuniform List<scalar> 
12920
(
-274639
-18816.8
-56770.4
10149.3
4298.36
31593.3
25455.8
31342.6
25527.3
25821
20542.7
19068.7
15309.6
13923.4
11537.2
10244.1
8933.28
8332.22
9626.66
6133.14
-450382
-61798.8
-62491.5
18111.8
7777.25
35563.7
26760.9
32632.5
26049.4
25880.9
20288.7
18675.5
14678.6
13283.3
11011.7
9931.03
8716.23
8138.65
9487.21
6264.53
-182400
59623.8
13104.2
51095.5
30812.7
46149
33254.5
35655.7
27977.1
26594.3
20582.8
18129.5
13852
12234.6
10115.3
9052.06
7870.84
7482.54
8945.04
6034.49
3187.66
183240
82173.7
93783.9
36744
54191.3
31677.1
35373.9
26567.7
24758.5
18638.8
16097.3
12061.6
10424.1
8514.54
7612.38
6682.25
6493.57
8419.06
5977.3
239993
246774
124609
121113
59120.2
61132
37617.1
35564.4
25063.7
22076.5
15967
13415.2
9557.55
7931.3
6188.57
5490.84
4975.3
5232.2
7632.92
5677.53
229672
301242
134133
134571
66667.3
67095.9
38215.4
31905.1
20221
16602.2
11662.9
9018.43
5952.72
4258.28
2886.66
2664.48
2850.71
3618.42
6666.35
5190.95
284679
266919
159112
138228
71717.8
66237
36023.2
27908.3
15699.7
11204.1
6398.88
4026.69
1326.49
-198.585
-1200.41
-921.189
157.173
1636.89
5355.02
4690.27
290485
215376
128947
117995
59562.5
54444.5
34730
22279.4
11786
5531.31
-162.553
-3524.9
-5145.6
-6356.43
-7033.56
-5740.27
-3735.15
-1281.28
3239.62
4013.7
266767
208053
86244
77493.8
38735.4
42106.9
28398
15052.5
2711.11
-4498.84
-10282.9
-12923.6
-13691.4
-14099
-16236.1
-13064.4
-9192.28
-5760.45
88.2232
2901.32
-387011
-79539.8
2844.92
25842.7
3013.57
16078
5789.1
-7603.52
-16877.4
-22474.1
-25782.6
-26405.1
-25489.9
-24311.5
-23696
-20433.6
-15398.9
-10289
-2482.52
1783.25
-158637
-48779.4
-49909.3
-26280.4
-37740.4
-23034.9
-25290.3
-33499.7
-38604
-40717.2
-40912.6
-39216.8
-36586.6
-33888.7
-31983.9
-27229.3
-19964.1
-13430.4
-4573.6
901.333
-275712
-76255.8
-92367.8
-81508.7
-88013.3
-63799.9
-61142
-62377.8
-61632.8
-58230.8
-54538.6
-50601.9
-46995.2
-43267.5
-38446.1
-31444.1
-23317.4
-16090.3
-6526.35
264.465
-70721.2
-105213
-148444
-127626
-126759
-98722.6
-97172.7
-91894.6
-85571.3
-77595
-69579.6
-61813.7
-56322.4
-50750.5
-43773.5
-34918.6
-26439
-18548.5
-8335.35
-413.784
-503397
-211873
-210940
-168413
-153137
-123411
-119707
-106582
-101272
-89653.5
-83287.7
-73312.6
-64890.9
-56051.7
-47390.2
-38126.1
-29126
-20628.1
-10023.2
-1136.57
-283831
-229523
-229400
-192128
-180104
-144845
-140336
-122708
-115004
-101950
-93273.2
-81872
-71932.1
-61268
-51205.4
-41257.6
-31583.3
-22590.5
-11420.1
-1986.35
-338011
-245894
-244059
-196166
-182852
-152166
-148824
-129823
-123316
-108467
-100175
-87044.3
-77026.7
-65448.3
-55128.5
-44194.2
-34014.1
-24342.8
-12632.9
-2762.34
-327955
-202062
-268968
-222124
-208951
-170548
-167981
-143337
-135970
-117854
-108164
-93381
-82647.1
-69992.1
-58878.2
-47501.9
-36841.7
-26783.4
-14377
-3541.89
-364673
-210904
-271529
-213569
-202078
-176820
-172018
-149231
-141499
-122662
-112703
-97066.3
-86197.9
-72723.6
-61422.6
-49625.6
-38888
-28526.4
-15883.4
-4547.69
-107196
-138544
-251356
-203083
-219639
-189949
-186758
-160866
-150755
-129455
-117959
-101158
-89420.2
-75450.9
-63436.6
-51345
-40370.3
-29723.1
-16245.5
-5015
-523378
-224953
-248518
-209338
-214872
-188478
-185084
-159955
-150956
-130210
-119122
-102356
-90550.6
-76291.3
-64366.4
-52119.2
-41010.9
-30006.4
-16251.7
-5950.76
-367459
-18240.7
-64978.8
9385.98
4468
31569.2
25397.7
31387.3
25534
25800
20539.1
19105.7
15341
13900.4
11574.5
10253.3
8906.98
8354.5
9735.36
6302.51
-395636
-56673.7
-65165.5
17884.2
6915.19
35843.3
26528.3
32478.5
25928.9
25858.8
20289.3
18722.7
14696.4
13249.6
11043.9
9970.02
8702.52
8172.22
9618.97
6372.88
-101526
64882.2
12109.1
51983.7
30689.7
46129.8
33194
35668.9
27954.4
26513.9
20421.6
18131.3
13913.2
12290.3
10165.6
9100.33
7887.57
7562.64
9218
6364.52
49632
187564
90070.4
95066.3
36716
54934.2
31876.8
35413.7
26571.4
24762.7
18648.9
16110.8
12104.2
10459.9
8544.22
7638.3
6718.61
6625.38
8694.45
6240.64
200179
256075
125555
121565
58976.6
60744.9
37459.2
35511.3
25071.1
22009.5
15914.7
13428.2
9615.07
7973.59
6253.49
5560.18
5041.1
5341.64
7908.05
5961.41
159755
285250
136018
133796
66773.9
66872.8
38137.1
31913
20833.2
16699.1
11649
8995.35
5989.66
4287.57
2997.43
2757.43
2906.24
3679.02
6890.02
5588.94
353604
263232
165396
138804
71930.7
66368.7
36081.7
27748.6
15448.1
11436.6
6361.68
3950.39
1264.22
-234.699
-1196.54
-874.694
205.58
1679.04
5538.02
5061.66
137686
205968
127682
117824
59427.5
54198.1
34444.6
22628
11655.6
5145.72
-66.5203
-3553.84
-5274.26
-6480.49
-7266.17
-5827.25
-3784.59
-1229.13
3491.25
4480.07
268652
187057
92332.6
79167.8
38886
42603.7
28697.5
14792.9
2512.07
-4606.05
-10165.2
-12920.5
-13742.1
-14276.3
-16623.4
-13443.4
-9283.04
-5721.75
512.879
3376.52
-224371
-54560.6
11163.9
26165.7
3293.39
16823.4
6272.27
-7592.85
-16775.8
-22415.1
-25503.2
-26073.7
-25484.4
-24520
-24183.4
-20926.6
-15575.3
-10203.6
-2134.07
2214.96
-192670
-103242
-60727.1
-33425.9
-40854.8
-23159.1
-25123.4
-33685.5
-38697.7
-40870
-40988.5
-39012.1
-36497.1
-34000.5
-32461.5
-27282.2
-19906.3
-13366.2
-4308.38
1234.1
-320906
-95410.3
-105702
-84981.4
-89533.3
-64503.5
-61244.3
-62494.1
-61607.1
-58542.4
-54729.9
-50671.4
-47054.7
-43467.2
-38731
-31472.8
-23305.3
-16047.4
-6202.28
574.044
-114582
-114136
-152076
-129919
-126837
-98013.9
-97453
-91561
-85805.3
-77698.8
-69846.7
-62014.2
-56509
-51051.3
-43789.9
-34904.4
-26449.2
-18472
-8015.19
-55.5501
-458012
-226676
-213538
-169271
-152802
-123231
-119882
-107103
-101430
-89727.2
-83123.1
-73359.4
-65025.1
-56091.9
-47412.9
-38136.9
-29129.8
-20580.2
-9681.56
-716.476
-399486
-243658
-230466
-191830
-179331
-143550
-140795
-122841
-115098
-101960
-93233.9
-81639.8
-71886.4
-61334.7
-51343.8
-41296.5
-31605.5
-22563.4
-11222.7
-1476.84
-400947
-273280
-249033
-196738
-182319
-152089
-149213
-129957
-123680
-108498
-100138
-86832.4
-76940.2
-65218.3
-54934.4
-44216.9
-34028.8
-24354.4
-12482.7
-2274.45
-441996
-252077
-273249
-219762
-208393
-170216
-168798
-143762
-136349
-117939
-108239
-93388.6
-82699
-70024.9
-58927.9
-47468.5
-36840.3
-26665.2
-14112
-3061.84
-441381
-230240
-272764
-214569
-203200
-177040
-172579
-149514
-141915
-122878
-112942
-97285.2
-86313.2
-72832.2
-61451.1
-49599.9
-38906.6
-28464.7
-15595.6
-4212.98
-236129
-144570
-252536
-205135
-219833
-190019
-187256
-160830
-150892
-129472
-118003
-101122
-89448.5
-75474.4
-63488.8
-51384.6
-40425
-29748.4
-16129.9
-4919.85
-355079
-212379
-248374
-211127
-215428
-188869
-185185
-159990
-151040
-130289
-119207
-102400
-90547.7
-76305.4
-64420.2
-52158.4
-41050.3
-30038.6
-16234.4
-5798.4
-216812
1838.5
-50458
12795.8
5504.15
31565.3
25199.1
31308.6
25503.5
25788
20570
19160.5
15396.1
13955
11594.3
10349
8907.85
8441.51
10145.3
6840.57
-344209
-47725.3
-60022.4
20003.4
6334.35
35580.6
26210.7
32456.8
25901.9
25918.9
20369.3
18826.5
14790.3
13305.5
11116.3
10028.6
8692.55
8253.03
9975.23
6826.86
-84626.4
77683.5
18776.5
52749.7
30353.8
45748.9
32825.5
35607.9
27893.4
26504.3
20346
18176.7
14037.5
12400.4
10235.1
9168.22
7925.07
7681.02
9782.98
6896.1
268061
202952
100406
97524.5
36482.8
54723.1
31822.1
35363
26604.4
24736.5
18618.6
16155.4
12210.9
10545.1
8603.15
7705.82
6784.47
6828.67
9277.93
6752.23
232814
287761
125939
122501
58643.6
60306.1
37368.6
35336.2
24979.8
21979.8
15913
13462.8
9706.37
8084.75
6373.2
5706.59
5162.14
5571.29
8489.31
6481.79
296254
278633
133967
133713
66123.1
66436.4
38105.4
31972.9
20865.2
16718.2
11631.1
8953.98
5979.89
4361.66
3101.53
2884.28
3043.63
3772.79
7366.68
6168.52
365671
264554
165636
140914
71923.5
66674.3
36212
27551.2
15577
11502.2
6104.62
3707.1
1003.22
-422.051
-1225.56
-824.595
257.767
1774.29
5900.6
5694.15
144877
193712
129653
118861
59481.2
53466.7
34224.6
23418.6
11505
4889.76
157.995
-3673.34
-5413.42
-6870.33
-7791.53
-6076.41
-3881.35
-1102.57
4021.34
5162.55
299243
176748
98669.9
81102.2
39604.3
43350
28996
14281.2
2106.09
-4881.5
-9873.4
-12810.8
-13816.5
-14665.8
-17297.6
-13943.8
-9382.04
-5587.73
1144.98
4087.81
-37041
-17329.6
22257.8
28157.8
3233.71
17515.1
7137.7
-7534.17
-16887.8
-22523
-25339.6
-25804.3
-25498.3
-24794.8
-24950.3
-21440.6
-15597.1
-9969.57
-1626.45
2877.6
-194299
-43892.3
-43923.5
-31285.3
-41129.4
-23606.5
-24670.4
-33865.1
-38903.6
-41559.5
-41155.1
-38467.7
-36389.1
-34142.7
-33220.4
-27323.3
-19843.3
-13225.7
-3815.72
1802.77
-296746
-81944.5
-107694
-85417.6
-89197.9
-64200.8
-61210.5
-62902.8
-61867.5
-59031.7
-55020.1
-50830.1
-47219.9
-43808.2
-39170.1
-31603.6
-23288.2
-15955.9
-5710.26
1151.99
-374222
-140250
-155168
-132275
-126943
-97224
-97816.7
-91522.2
-85771.9
-77530.1
-70246.1
-62171.7
-56702
-51246.7
-43928.6
-34878
-26410.3
-18301.8
-7456.12
611.604
-499186
-237673
-219081
-169760
-152103
-122324
-120160
-107639
-101777
-89730.7
-83032.7
-73288.4
-65042
-56179.2
-47443.2
-38106.7
-29067.3
-20423.5
-9037.78
78.4354
-446669
-271449
-242756
-188988
-179126
-142303
-141944
-122867
-115126
-101754
-93065.1
-81540.8
-71880
-61413
-51460.7
-41309.4
-31617.1
-22504
-10644.7
-565.663
-413931
-276782
-248396
-195587
-181731
-152246
-150082
-130065
-124147
-108510
-100103
-86285.6
-76798.3
-65161.3
-54914.7
-44201
-34049.4
-24315.9
-12086.1
-1393.03
-446129
-271375
-273340
-218458
-204242
-169897
-170510
-144532
-136923
-118075
-108402
-93385
-82726.8
-69919.4
-58885.8
-47448.9
-36836.8
-26540.5
-13462.7
-2333.89
-410148
-246213
-266591
-214669
-202942
-177002
-173402
-149719
-142469
-123019
-113281
-97478.7
-86485.6
-72972.7
-61531.4
-49624.6
-38938.4
-28316.3
-15171.7
-3731.89
-197950
-140276
-252960
-204406
-220129
-189416
-188048
-160822
-151162
-129496
-118070
-101086
-89475.9
-75487.9
-63555.6
-51434.5
-40510.5
-29796.5
-16024.1
-4690.75
-356526
-205442
-247425
-212690
-216017
-188968
-185578
-160115
-151305
-130415
-119341
-102416
-90555.2
-76273.6
-64416.1
-52175.1
-41089.2
-30113.9
-16163.7
-5612.7
-287581
-17356.6
-48720
11884.4
5633.81
31159.8
24942.7
31265.7
25496.8
25751.3
20552.2
19176.6
15373.4
13957.5
11621.3
10424.1
8997.06
8642.8
10853.5
7707.23
-314654
-37251.5
-56803
20722.2
4794.29
35417.2
25854.5
32437.5
25856
25965.1
20414.6
18924.1
14935.8
13501.6
11158.7
10095.4
8719.08
8393.41
10759.5
7840.18
21920.2
84929.5
25808.5
54893.4
29891.8
45589.8
32309.3
35427
27690.9
26506.7
20377.8
18313.3
14158.2
12526.8
10343.5
9263.77
8020.65
7838.95
10558.2
7828.09
293240
206688
108952
102827
35198.4
53996.1
31242.9
35140
26108.5
24612.6
18475.6
16186.8
12297.3
10641.3
8675.03
7804.24
6887.24
7044.07
10036.1
7648.99
553990
307188
135298
123633
58620.8
60248.7
37345.3
35223.8
24701.4
21983.5
15871.7
13480.9
9776.03
8178.02
6493.27
5850.66
5264.3
5635.46
9192.63
7395.8
190855
286226
133623
133206
66017.3
66120.5
38043.8
31822.2
20433.3
16636.6
11534.8
8857.41
5909.99
4369.11
3155.79
2967.59
3101.2
3908.91
8167.51
7156.7
459472
262378
166145
141603
71705.3
66359.4
36235
27696.6
15854.4
11302.5
5701.41
3319.07
559.341
-841.879
-1469.89
-905.777
190.76
1887.25
6680.85
6751.89
194046
186614
131178
119666
59268.9
52974.9
34096.3
23631.7
11327.4
4909.5
-68.2327
-3629.14
-5524.06
-7141.78
-8594.16
-6435.59
-3993.5
-1012.92
4975.91
6130.89
378648
176065
103259
82204.3
39723.8
44179
29175.7
13709.8
1726.87
-4981.17
-9774.98
-12531.8
-13785.4
-14908.7
-17892.9
-14314.7
-9425.51
-5430.67
1992.66
5046.28
-137421
-17575.7
20710.7
26623.4
2933.92
17880
7757.2
-7741.93
-17277.3
-22582.1
-25262.2
-25701
-25448.3
-25022.8
-25460.7
-21531
-15420.1
-9810.66
-916.264
3837.38
-158175
-51300.7
-49616.5
-35748.7
-42679.8
-24018.4
-24323.1
-33932.4
-39015.2
-42344
-40829.5
-38314
-36356.8
-34287.4
-33691.9
-27331.2
-19815.8
-13189.1
-3230.89
2668.64
-201273
-71130.1
-115457
-88633.5
-90357.7
-63783.1
-61210.1
-63132.7
-62151.2
-59322.7
-55213.6
-50929
-47204.3
-43966.7
-39562.6
-31804
-23308.9
-15897.1
-5174.7
2001.83
-299518
-149498
-159358
-134618
-128552
-95978.5
-98048.1
-92652.5
-85792.2
-77513.7
-70579.8
-62374.4
-56911
-51211.3
-43971.2
-34937.5
-26421.2
-18289.7
-6853.68
1574.63
-429347
-245297
-220764
-170953
-151578
-120815
-120258
-108356
-102204
-89637.4
-83117.3
-73015.1
-64725.5
-56234.7
-47491.5
-38142.8
-29040.7
-20336.9
-8346.76
1143.27
-559219
-299832
-246346
-188122
-176987
-141880
-143397
-122620
-115390
-101675
-93084.5
-81554.3
-72043.1
-61487.2
-51547.8
-41328.7
-31620.5
-22431.2
-9838.12
563.89
-415220
-309077
-251969
-195006
-181144
-152272
-151191
-130186
-124782
-108554
-100275
-86424.4
-76852.9
-65135.7
-54917.6
-44156.2
-34049.7
-24232.8
-11376.5
-196.449
-474784
-298828
-275781
-220336
-197678
-169895
-173040
-144693
-137865
-118229
-108676
-93235.1
-82842.1
-69899.2
-58931.6
-47453.9
-36838.3
-26443.9
-12730.4
-1272.22
-498230
-246156
-268102
-215050
-202886
-177093
-174647
-150051
-143118
-123186
-113629
-97649.5
-86655.6
-73057.6
-61599.1
-49631.1
-38945.5
-28273
-14701.1
-2931.81
-125631
-107741
-250578
-202094
-221422
-188682
-189823
-160941
-151752
-129429
-118266
-101094
-89573.8
-75491.9
-63601.5
-51439.8
-40522.4
-29845.7
-15864.8
-4304.39
-367517
-195518
-246119
-212715
-216710
-188856
-186224
-160242
-151709
-130546
-119491
-102419
-90599
-76275.1
-64443.6
-52201.2
-41134.9
-30173.3
-16126.2
-5456.65
-214811
10522.4
-48296.6
13491.1
5789.94
31284.8
24783.3
31258.2
25508.6
25714
20466.8
19177.6
15264.9
13976.1
11625.9
10592.7
9202.4
8897.33
11527.5
8437.52
-527673
-47642.1
-54218.7
22572.4
3260.38
35671.5
25452.9
32537
25741.4
26080.8
20400.7
19072.3
14969.2
13640.9
11195.9
10171
8774.27
8491.75
11637.3
8805.43
-14685.6
91579.9
31095.6
56193.7
28748.6
45408
31910.9
35294
27072.7
26579.3
20355.4
18570.9
14412.3
12902.1
10506.4
9496.79
8145.68
7929.66
11351.3
8753
403109
220413
111719
104784
33768.1
53835.1
30448.1
34924.7
25450.3
24585.2
18108.2
16246.6
12375.3
10739
8774.34
7945.7
7015.04
7065.22
10775.8
8532.55
507202
313402
135895
124941
57901.8
60618
37294.6
35171.1
24444.3
22059.6
15755.7
13505.9
9804.35
8285.68
6577.19
5988.99
5272.54
5625.45
9919.09
8297.66
392433
294769
138019
133529
65044.3
66471.9
37946.9
32029.5
20590.2
16585.7
11196.9
8721.51
5730.26
4431.04
3125.24
2948.12
2952.42
3968.33
8982.32
8111.62
419985
257779
167668
142871
71348.8
66182.5
36123.6
27764.4
15961.5
11239.7
5726.65
3049.31
154.038
-1232.29
-1849.97
-1205.47
179.847
1982.7
7697.18
7794
240319
182116
132858
120284
59081.1
52867.5
34127.1
23379.1
11181.4
5019.32
-809.133
-3719.91
-6180.25
-7476
-9077.29
-6647.32
-4063.34
-1001.68
5781.98
7101.91
413488
177119
107312
83030.5
40252.8
43922.3
29377.7
13261.6
1491.83
-5075.87
-9888.34
-12452.6
-13961.5
-15136.5
-18555.6
-14591.7
-9434.61
-5410.22
2791.17
6009.6
-107038
-1214.37
24004.2
26424
3368.86
17886.9
7944.02
-7291.99
-17133.7
-22712.3
-25294.1
-25654.6
-25294.4
-25052.9
-25849.5
-21422.5
-15193.3
-9740.88
-118.083
4866.33
27235
-11223
-40900
-33888.8
-42339.9
-24018
-24078.3
-33796.6
-38945
-40959.3
-40603.2
-38459.3
-36277.1
-34366
-34000.5
-27390.1
-19842.5
-13350.4
-2635.36
3655.47
-176848
-44361.2
-118032
-88419.1
-90391
-63149.4
-61187
-63062.4
-62186.5
-59295.3
-55228.6
-50892.5
-47161.8
-44018.1
-40169.8
-32066.7
-23374.1
-16068.2
-4666.59
2933.69
-395712
-162857
-157832
-134339
-129004
-95286.1
-98268.9
-93964.7
-86074.6
-77510.4
-70636.3
-62436.4
-57098.2
-51146.3
-43851.5
-35094.2
-26586
-18511.4
-6318.72
2485.26
-629687
-275054
-226406
-171569
-151447
-119861
-120738
-108378
-102668
-89500.5
-83223.6
-72400.4
-64470.9
-55983.9
-47528.5
-38376.7
-29144.4
-20501.1
-7796.15
2022.53
-552799
-329249
-247480
-189123
-173278
-141811
-145672
-122296
-115784
-101493
-93232.1
-81581.8
-72227.1
-61570.4
-51579.7
-41322.3
-31595
-22433.7
-9139.64
1532.64
-577454
-335276
-251967
-193839
-180655
-151969
-152163
-130443
-125422
-108632
-100611
-86519
-76958.4
-65038
-54935.5
-44044.8
-34009.3
-24140
-10495.8
905.585
-523010
-308171
-276057
-219014
-195063
-169460
-174890
-144990
-139004
-118176
-108905
-93187.5
-82946.2
-69988.8
-59042.5
-47486.7
-36836
-26416.2
-12102.8
-169.343
-300430
-236320
-269267
-214468
-203130
-177078
-175820
-150133
-143672
-123213
-113869
-97648.7
-86784.6
-73068.7
-61658.9
-49631.7
-38947.6
-28312.5
-14219.2
-1929.11
-18188
-122642
-242809
-200391
-220255
-188276
-192468
-160914
-152501
-129260
-118557
-100996
-89671.1
-75374.9
-63592.2
-51373.8
-40519.1
-29940.7
-15724.8
-3954.98
-319123
-177818
-246993
-211236
-217135
-188387
-186835
-159976
-152116
-130594
-119668
-102221
-90632.4
-76280.4
-64432
-52181.5
-41135.2
-30210.9
-16101.1
-5318.23
-24820.5
-36982.1
-36801.4
-22593
-24775.1
-37126.6
-36729.7
-25760.6
-36922.8
-36342.8
-25269.7
-25649.8
-36803.2
-35950.6
-41246.5
-54695.9
-52392.5
-41668.3
-41200.5
-54885.5
-52427.7
-38474.6
-51551.4
-48669.6
-41080.2
-38264.1
-51573.5
-48666.8
19900.8
13202.6
1660.61
28653.9
19797
13548
1602.85
6212.62
-1710.84
-9473.79
14864.9
5869.6
-1744.32
-9359.74
-2555.97
-11626.6
-16408.4
2576.9
-2612.82
-11575.6
-16418.5
-8126.34
-17852.7
-20866.8
-4562.25
-8090.94
-17869
-20800.2
-11680.9
-21711.9
-22665.1
-10199.9
-11690.3
-21616.7
-22498.3
-12531.4
-22868
-22569.7
-12926
-12561.1
-22722.9
-22589
-13118.2
-22570.4
-22040.5
-13723.5
-13246
-22601.6
-22144.6
-13895.6
-21894.3
-20633.7
-14200.9
-14188.2
-22030
-20940.5
-4550.63
-15582.3
-24699.3
6151.75
-4593.32
-15531.8
-24770.7
-15013.1
-26759.7
-31739.3
-7600.97
-14852.5
-26885.3
-31854.2
-21256.7
-32994.1
-35675.5
-16770.8
-21232.1
-33052.1
-35661.3
-25183
-36280.5
-37233.8
-22425.2
-24964
-36247.6
-37259.8
-26415.2
-37280.5
-36606.1
-25553.1
-26153.5
-37298.8
-36566
-25700.5
-36202.9
-34527.9
-26157.7
-25652.6
-36112.9
-34421.1
-24626.9
-33873.9
-32109.1
-25478.5
-24737
-33832.8
-32175.9
-23299
-31524.5
-29729.2
-24448.1
-23569.2
-31628.9
-29939.1
-31785.9
-50566.4
-54504.5
-25121.4
-31883.3
-50447.7
-54539.9
-37647
-55152.6
-56079.3
-33628.3
-37741.2
-55177.7
-55940.2
-40381
-56006.5
-54404.3
-38666.1
-40466.4
-55877.1
-54595.2
-41047.1
-53816.7
-51906.1
-40776.3
-41123
-54057.7
-52064.2
-39754.8
-51255.2
-48705.4
-40975.4
-39743.6
-51367.4
-48739.6
-37291.9
-47873.7
-45239
-39135.3
-37203
-47882.6
-45220.1
-34570
-44456.7
-41836.9
-36525.4
-34609.2
-44439.9
-41888.3
-32031.7
-40981.4
-37881.4
-33963.8
-32233.2
-41050.3
-38171.7
-62067.9
-85438.3
-84027.3
-61119.4
-62148.9
-85397.5
-84010.1
-61984.4
-83767.7
-80521.9
-62439.7
-61900.7
-83639
-80584.4
-59016.7
-79213.8
-73431.3
-61599.9
-59162.1
-79329.3
-73376.2
-55340.4
-72468.7
-67112.4
-58426.2
-55509.5
-72350.4
-66783.1
-51457.1
-65256.9
-59430.9
-54657.3
-51503.4
-65430.5
-59760.2
-47730.2
-58778.9
-54783.8
-50649.9
-47759.6
-59039.2
-55444.6
-44139.9
-54339.8
-50795.1
-47028.2
-44234.8
-54473.9
-50737.6
-39599.9
-49623.5
-45223.3
-43412.3
-40008.8
-49553.1
-45268.6
19737
13692.3
1600.51
29020.5
19410.1
14304.3
1683.31
5803.89
-1741.3
-9356.86
14421.4
5542.96
-1754.66
-9454.09
-2651.38
-11591.5
-16426.3
2226.3
-2835.13
-11754
-16506.1
-8077.98
-17875.9
-20773.4
-4781.92
-8045.38
-17927.1
-20696.4
-11700.1
-21582.4
-22441.3
-9971.58
-11722.9
-21483.7
-22288.1
-12587.5
-22676.8
-22596.5
-12854.3
-12709.9
-22552.5
-22603.4
-13337
-22618.7
-22196.4
-13799.7
-13684.2
-22676.1
-22361.9
-14247.7
-22104.3
-21050.7
-14563.3
-14941.3
-22360.5
-21652
-4592.64
-15508.5
-24792.9
7000.56
-4539.32
-15107.9
-24825.1
-14852.9
-26920.9
-31886.9
-7573.93
-14894
-26990.9
-31992.2
-21228.6
-33078.5
-35697.6
-16841.6
-21301.3
-33199.9
-36093
-24920.1
-36297.3
-37259.4
-22472.1
-24833.8
-37623.1
-37000.1
-26069.3
-37262.6
-36322.8
-25375.8
-25837.2
-37006.8
-35432
-25644.6
-35956.9
-34383
-25870.7
-25618.6
-35629
-34248.1
-24785.3
-33811.3
-32204.8
-25500
-24917.2
-33736.8
-32290.8
-23693
-31675.2
-30014.7
-24729.8
-24270.1
-31818.7
-30474
-31924.1
-50501
-54585.5
-24702.4
-32030.4
-50306
-54818.7
-37783.2
-55230.6
-55956.4
-33830.4
-37924.1
-55505.8
-56145.4
-40540.2
-55895.9
-54706
-38848
-40965.4
-56113.7
-55102.9
-41162.6
-54179.6
-52139.3
-42356.1
-41268.6
-54575.4
-52348.3
-39517.8
-51421.1
-48747.1
-41023.8
-38117.4
-51546
-48709.7
-37155.3
-47877.7
-45220.7
-38584.3
-37012.4
-47842.7
-45248.3
-34629.1
-44444.3
-41910.5
-36411.8
-34694.9
-44485.4
-42005.1
-32305.7
-41107.4
-38313
-34116.1
-32769.8
-41311.9
-38911
-62213.3
-85528.3
-83842.5
-61172.7
-62514
-85137.5
-83454.3
-61893.6
-83453.8
-80594.9
-62786.7
-62024.1
-82987.5
-80096.9
-59266.7
-79388.8
-73397.2
-61779.1
-59641.6
-79291.4
-73461.1
-55598.3
-72343.9
-66812.2
-58919.9
-55858.8
-72348.8
-67151.4
-51526.7
-65553.6
-59946.6
-54955.2
-51631.2
-65980.7
-60494.3
-47791.3
-59171
-55570.3
-50794
-47896.7
-59576.6
-55737.8
-44265.5
-54490
-50735.6
-47165.3
-44434.6
-54655.5
-50753.6
-40110.7
-49558.1
-45252.9
-43740.2
-40502.4
-49620.5
-45494.6
19248.7
14413.3
1578.49
29234.1
18747.6
14790.6
1691.77
5476.25
-1844.51
-9506.19
13848.7
5248.79
-1700.79
-9792.25
-2905.87
-11847.9
-16555.8
1821.92
-3019.24
-12118.3
-16707.7
-8048.71
-17960.7
-20677.7
-4981.55
-8113.62
-18084.4
-20629.2
-11737
-21454.9
-22240.7
-9707.4
-11702.6
-21384.3
-22130.1
-12769.1
-22513.8
-22595.6
-12560.1
-12927.7
-22419.3
-22536.4
-13831.6
-22688.1
-22406.6
-13744.3
-14178.8
-22685.3
-22501
-15077.5
-22437.5
-21753.4
-14815.3
-15830.8
-22650.4
-22274.9
-4498.1
-15055.3
-24821.2
7722.72
-4713.69
-14706.8
-24768.3
-14923.9
-26997.6
-32022.1
-7831.02
-15237.7
-26980.3
-32078
-21356.5
-33243.5
-36181.5
-17158.8
-21436.4
-33315.2
-36334.3
-28028.1
-23438.8
-27218.5
-22572
-27981.8
-23468.3
-27284
-29311.6
-25572.9
-29313
-25307.7
-29338.6
-25520.3
-29318.8
-25598.2
-35491.8
-34197
-25698.4
-25519.5
-35243.9
-34101.8
-24956.7
-33710.4
-32315.6
-25469.6
-25042.9
-33654.2
-32380.8
-24374.2
-31860.4
-30567.4
-24978.4
-24897.9
-31979.4
-31050.7
-32055.6
-50344
-54922.8
-24335.1
-32081.6
-50188.2
-55260.1
-37969.3
-55629.9
-56254.6
-33927.5
-38064.5
-55999.8
-56584.9
-41004.4
-56231.1
-55226
-39009.1
-41202.6
-56535.7
-55452.6
-46439
-40728.1
-46396.6
-39523.8
-46214.8
-39311.3
-46613
-43582.8
-41222.5
-44519.6
-41968.4
-43774.5
-42620.4
-44408.7
-36971.7
-47820.2
-45261.2
-38269.8
-36896.5
-47818.1
-45282.8
-34714.8
-44505
-42053.3
-36359.5
-34751.9
-44442.8
-42170
-32840.5
-41398
-38982.1
-34252.6
-33336.8
-41579.7
-39300
-62635.8
-85174.2
-83367.2
-61154.7
-62869.7
-84790.6
-83279.6
-62108
-82869.9
-79944.8
-63104.6
-62344.4
-82864.1
-79695.2
-59757.8
-79253.7
-73512.9
-62099.1
-60013
-79180.7
-73678.2
-55932.2
-72358.7
-67303.1
-59276.5
-56103.7
-72415.4
-67831.8
-51664.2
-66133.6
-60660.9
-55174.4
-51746
-66515.7
-61143.9
-47931.5
-59665.2
-55765.4
-50911.8
-47833.6
-59854
-55881.6
-44503.6
-54695.8
-50780.4
-47202.4
-44623.5
-54796.8
-50945.6
-40534.4
-49650.3
-45529.3
-43936.8
-40822.4
-49788.6
-45865.8
18600.8
14800.4
1760.04
29464.9
18295.1
15029.7
1918.29
5148.3
-1654.54
-9788.37
13365.7
4951.64
-1545.22
-9703.12
-3040.72
-12115.6
-16821.4
1543.42
-2981.33
-11996.7
-16781.7
-8189.06
-18153.9
-20617.2
-5002.69
-8345.92
-18199.9
-20623
-11695.6
-21368.5
-22105.4
-9822.96
-11611.8
-21352.5
-22022.7
-13014.3
-22394.5
-22503.4
-12479.3
-13194
-22285.1
-22355.7
-14314.8
-22669.9
-22519.5
-13919.1
-14517.8
-22561.2
-22496.2
-15927.9
-22701.1
-22291.4
-15093.6
-16482.3
-22756.5
-22573.1
-4638.98
-14686.8
-24741.3
7979.73
-4267.34
-14428.7
-24660.6
-15311.9
-26963.4
-32084.9
-7394.52
-15162.2
-26905.7
-32115.1
-21448.6
-33316.5
-36250.5
-17213.5
-21626.3
-33336.3
-35903.9
-24759.4
-37713.5
-36889.7
-22744.1
-24783.3
-36435.6
-36939.2
-25657.1
-36834.4
-35007
-25298.2
-25646.3
-36845.1
-35753.8
-25486.5
-35280.1
-34089.8
-25682.7
-25347
-35325.3
-33976.8
-25054.2
-33640.3
-32408.7
-25340
-25019.6
-33542
-32357
-24930.6
-32003.5
-31084.1
-25066
-25228.2
-32050.2
-31436.9
-32075.2
-50237.5
-55343.4
-24100.7
-31982.2
-50186.1
-55365.4
-38076.8
-56071.8
-56651.3
-33863.6
-38048.6
-56068.3
-56644.9
-41181.6
-56594.2
-55470.5
-38977.8
-40817.5
-56601.3
-55371.2
-41149.7
-54882.7
-52420.7
-41047.4
-40929.7
-54771.2
-52336.1
-37920.6
-51591.3
-48710
-40612.9
-39003.9
-51560.6
-48699.9
-36887.4
-47847.1
-45204
-38428.5
-36812.7
-47835
-45069.9
-34731.2
-44417.8
-42190.5
-36338.9
-34752.8
-44364.6
-42182.9
-33357.4
-41609.3
-39324.3
-34362.5
-33680.8
-41624.1
-39605
-62903.4
-84786.5
-83282.9
-61182.1
-62881.7
-84492.2
-83356.1
-62397.6
-82937.8
-79732.8
-63111
-62418.7
-83157.6
-80074.9
-60058.7
-79212.8
-73731.9
-62209.6
-60062
-79360.4
-73835
-56137.9
-72428.6
-67987.4
-59337.4
-56118.2
-72465.2
-68389.3
-51758.8
-66619.8
-61269.2
-55242.7
-51735.9
-66809.1
-61534.5
-47808.7
-59888.9
-55934.6
-50919.9
-47675.2
-59963.8
-56008
-44640.3
-54809
-51033.3
-47193.2
-44586.3
-54772.4
-51244.9
-40857.4
-49844.5
-45942.4
-44014.1
-41232.6
-49966.6
-46425.5
18203.7
14974.7
1939.72
29541.3
18172.4
15237.5
2027.38
4903.56
-1533.67
-9669.48
13215.4
4902.15
-1501.05
-9575.94
-2979.21
-11955.3
-16729.7
1532.28
-2902.63
-11905.8
-16615.7
-8399.04
-18166.1
-20575.8
-5072.45
-8291.87
-18086.3
-20457.3
-11584.4
-21328.6
-21990.1
-9950.13
-11458.1
-21254.9
-21887
-13265.3
-22282.1
-22293.6
-12475.7
-13202.1
-22213
-22131.5
-14556
-22542.5
-22463.7
-14122.3
-14479.9
-22455.2
-22386.8
-16551
-22760.3
-22574.9
-15329.9
-16784
-22749.6
-22923.6
-4143.65
-14364.4
-24614.4
8306.99
-3959.44
-14079.2
-24754.4
-15075
-26873.5
-32136.5
-7134.98
-14967
-27076.4
-32436.3
-21594.4
-33369.9
-35893.2
-17033.5
-21509.3
-33673.5
-36131.3
-24787.1
-36389.6
-36934.2
-22640.2
-24697.8
-36593.4
-37017.7
-25645.1
-36861.5
-35874.7
-25200.4
-25531.1
-36938.7
-35797.4
-25284.7
-35353.3
-33910
-25544.5
-25121.5
-35297.1
-33741.4
-24996.2
-33489.7
-32334.8
-25181
-24941.3
-33333.8
-32289.7
-25251.4
-32056.1
-31483.9
-25021.1
-25585.4
-32062.1
-31890.3
-31915.1
-50194.1
-55281.9
-23693.2
-31584
-49854
-54897.4
-38009.8
-55981
-56559.3
-33421.5
-37764.6
-55591
-56243.6
-40743.8
-56531.4
-55296.5
-38770.4
-40721.2
-56284.3
-55108
-40873.5
-54713.9
-52302.4
-41015.1
-40913.5
-54574
-52185.5
-39128.8
-51537.9
-48672.7
-40641
-39018.9
-51412.8
-48654.3
-36764
-47801.9
-45040.7
-38421.1
-36590.8
-47760.5
-44932.3
-34754.4
-44353.6
-42161.9
-36061.4
-34721.7
-44317.1
-42118.6
-33713.2
-41611.6
-39592
-34365.6
-34114.7
-41614.2
-39974.8
-62825.7
-84396.3
-83332.2
-60801.3
-62505
-84097.4
-83383.6
-62372.5
-83200.3
-80310.8
-62770.6
-62118.6
-83376.5
-81266.2
-60010.3
-79431.4
-73843.8
-62023.9
-59817.7
-79713.6
-73968.9
-56082.3
-72479
-68462.1
-59158.2
-55899.4
-72620.7
-68453.5
-51705.6
-66822.5
-61571.4
-55158.7
-51520.4
-66785
-61411.9
-47616.3
-59970.3
-56013.7
-50742
-47537.1
-59948.2
-55921.7
-44548.9
-54772.8
-51289.1
-47112.6
-44494.6
-54782.2
-51121.8
-41267
-50005.1
-46519.3
-44072.8
-41557.1
-50020.7
-46871
-28739
-24255.7
-29043.9
-24806.8
-28658.2
-24267.2
-29075.8
-33447.4
-32663.7
-35960
-35975
-33136.4
-32862.5
-34391.6
-33309.9
-33132.6
-36668.9
-35834
-33139.9
-33181.7
-35408.4
-28002.2
-22595.4
-23470
-27234.4
-23476.8
-27286.8
-27946.4
-28705.6
-24791.2
-24249.5
-28956.7
-24263.5
-29045.2
-28605.4
-33410.2
-35917.5
-32736.1
-35844.6
-32910.5
-34302.8
-33088.2
-33274.1
-35844.8
-33042.1
-36547.9
-33147.8
-35401.3
-33081
-29287.3
-25750.5
-29163.2
-25699.4
-29314.1
-25690.4
-29100.4
-32726
-33139.4
-37019.7
-36173.1
-32857.8
-33149.4
-36614.2
-31977.1
-32043.4
-37435.4
-37335.9
-32270.7
-31826.3
-37458.3
-29267.7
-25284.2
-25476.4
-29196.6
-25486.9
-29281.8
-29210.1
-29250.5
-25660.3
-25647
-29022.3
-25654.3
-29045.8
-29188.9
-32673
-36129.9
-33005.8
-36892.4
-33099.7
-36575.5
-32702.8
-31931.6
-37380.2
-31875.3
-37307
-31769.7
-37450.7
-32166
-45575
-41008.3
-45035.7
-41915.8
-45561.7
-41175.4
-44947.6
-49937.6
-50245
-54015.1
-54794.1
-49906.9
-50303.8
-54097.3
-49349.1
-48697.4
-53283.4
-52418.8
-49358.9
-48646.9
-53346.7
-46434.7
-39335
-40671.8
-46520.1
-38976.6
-46638.2
-46260.3
-45592.5
-41884
-40938.7
-44984.3
-41137.8
-44928.3
-45573.3
-49949.4
-54856.9
-50384.5
-54148.5
-50344.6
-54140.1
-50005.8
-49350.5
-52427.3
-48680.5
-53373.4
-48632.4
-53374
-49407
-42055.5
-40997
-41658.3
-41019.8
-42575.5
-44344.3
-41372.2
-47069.9
-47987.6
-50564.5
-51549.8
-47177.6
-47883.9
-50527.7
-46223.1
-45471.2
-49633.3
-48640.9
-46283.2
-45431.8
-49592.8
-43532
-41944.8
-41154.5
-44434.8
-42618.8
-44367
-43642.4
-41965.8
-41142.5
-41025.3
-41473.1
-44537.1
-41308.5
-42440.1
-47042.9
-51556.8
-47932.2
-50559.9
-47869.1
-50530.6
-47095
-46202.9
-48636.6
-45414.2
-49639.1
-45405.7
-49597.3
-46219.6
31814.9
31523
26830.5
34581.6
31782.2
31476.3
26753.2
18278.1
18868.4
13379.2
22330.5
18281.8
18924.8
13413.3
10540
7593.37
3563.08
11680.7
10416.7
7557.2
3539.11
4285.64
523.977
-1589.58
5419.75
4265.86
478.229
-1562.34
-381.212
-4374.19
-6344.02
-119.714
-405.149
-4325.6
-6339.35
-2132.72
-7309.18
-7664.76
-3538.63
-2169.93
-7305.91
-7676.15
-3740.91
-8538.11
-8764.68
-5187.41
-3812.26
-8536.16
-8826.41
-4516.83
-9068.21
-9187.11
-6397.01
-4627.1
-9105.62
-9324.24
33274
29359.2
21180.3
42398.6
33670.5
29576.6
21580.7
21075.5
27013.4
25845.1
28365.1
27066.8
25845.2
21041
7113.23
13022.8
10253.8
15003.4
12941.7
10248.8
7155.49
-3447.15
1526.94
-1180.85
2675.57
1501.98
-1217.06
-3422.2
-10399.2
-5491.65
-8903.5
-4505.35
-5500.32
-8897
-10392.9
-14614.8
-10131.4
-13658.4
-10261.3
-10112.9
-13653.5
-14592.9
-16219.2
-12137.8
-15952.9
-12925.5
-12145.2
-15952.8
-16200.7
-16663.3
-12850.6
-16373.6
-13700.4
-12869
-16375
-16639.1
-16716.3
-13194.3
-16535
-14117
-13223.1
-16546.2
-16687.4
-12844.3
-19055.5
-17787.9
-16368.3
-12995.6
-19197.8
-17993.8
5884.96
183.531
-9105.5
16633.1
6490.83
731.982
-8331.9
-4685.12
2062.92
-517.731
5741.32
2063.79
-619.863
-4700.24
-16441
-10448.2