/*--------------------------------*- C++ -*----------------------------------*\
  =========                 |
  \\      /  F ield         | OpenFOAM: The Open Source CFD Toolbox
   \\    /   O peration     | Website:  https://openfoam.org
    \\  /    A nd           | Version:  10
     \\/     M anipulation  |
\*---------------------------------------------------------------------------*/
FoamFile
{
    format      ascii;
    class       surfaceScalarField;
    location    "8.1";
    object      phi;
}
// * * * * * * * * * * * * * * * * * * * * * * * * * * * * * * * * * * * * * //

dimensions      [0 3 -1 0 0 0 0];

internalField   nonuniform List<scalar> 
38556
(
875.697
-635.59
2714.57
1476.21
654.387
-1254.9
1613.9
738.771
-876.466
1678
636.475
-700.571
1268.24
376.043
33.7124
1062
88.1476
118.092
1027.05
-8.25726
43.207
1050.32
-29.1501
5.87947
1077.88
-18.6733
-8.8796
1113.89
1.24715
-37.2631
1136.57
25.4935
-48.1714
1161.98
51.8842
-77.2938
1182.43
67.969
-88.4153
1196.57
74.2916
-88.4306
1188.43
68.2379
-60.1033
1125.32
73.9789
-10.8688
1024.22
63.3626
37.7425
957.735
43.7403
22.7411
930.453
16.9548
10.3271
0.754179
-0.16149
-887.262
-2186.07
1337.02
559.24
-406.4
-385.716
1026.92
-19.0821
290.176
1128.78
90.1669
444.446
880.096
95.0024
529.723
788.842
-2.41062
181.813
754.484
-22.6017
48.7024
779.495
-14.8253
-39.3365
826.279
-6.8123
-58.6442
874.398
18.2459
-65.1179
922.388
28.1832
-50.6797
965.589
47.9199
-39.2371
994.525
53.8908
-14.8579
1000.67
61.1501
6.99376
975.954
57.5866
35.3706
927.265
69.6814
52.9861
877.005
61.9464
51.6762
851.145
42.6138
26.9867
845.174
4.62673
18.2994
-20.1871
13.5107
72.3628
-920.321
-1268.99
551.06
-708.882
-176.214
888.301
-440.168
83.8443
1064.43
-272.446
186.482
1003.01
-35.1496
191.578
966.35
-27.8095
62.0549
928.043
-10.3884
26.0937
927.583
-1.21072
-13.154
938.624
-12.473
-5.38093
952.878
14.005
-10.0127
962.805
19.0571
-0.801361
967.56
40.7604
2.40501
960.289
47.4864
13.6756
940.478
61.5186
19.4421
900.751
64.9244
32.3884
866.906
74.0219
29.5043
848.045
63.6549
17.1528
840.102
42.554
8.00324
839.492
0.148071
5.08806
-25.0592
-1.05884
-836.73
-433.87
-2722.67
-183.314
-515.401
-846.896
192.82
-576.754
-239.549
330.537
-392.229
-17.9347
599.361
-283.842
-20.1304
698.655
-129.566
2.46232
811.243
-117.585
-5.39209
864.213
-37.7513
-16.4292
901.877
-37.4282
-12.709
912.554
19.9302
-16.6015
916.95
23.1331
-8.47291
912.786
53.4407
-8.51585
903.374
55.6369
1.26086
891.347
69.2946
4.25139
877.408
67.6533
11.2096
868.975
70.3241
12.1313
861.288
61.8376
9.50404
852.401
48.5711
2.86968
842.223
13.8919
-3.56584
-15.5319
-9.96797
-632.815
-869.351
2021.11
54.2481
-854.989
-347.475
476.933
-740.987
-258.451
656.281
-538.624
-32.953
836.509
-427.996
-36.075
907.665
-192.377
-8.34408
956.144
-175.898
9.83408
969.121
-46.7253
-4.00295
960.528
-34.666
5.83009
943.706
40.2541
-3.50139
927.185
38.9027
0.7509
913.99
70.6045
-3.9678
903.572
66.2951
-0.241075
895.974
78.3645
-1.47182
890.556
72.343
0.728377
888.543
72.4467
-0.109588
886.209
64.4381
-0.266435
884.947
53.8739
-4.0413
883.19
20.0956
-4.44624
-11.1799
-10.3542
543.162
-1776.57
-3210.29
124.468
-884.513
448.218
537.848
-920.536
-233.832
570.602
-657.52
86.1432
686.941
-559.988
15.6534
698.275
-245.254
41.5435
806.284
-305.574
21.6664
808.256
-59.149
10.4519
829.409
-55.2646
-0.554776
829.564
48.09
-7.99021
835.833
37.0692
-4.43604
836.364
75.6993
-5.6263
840.8
63.979
-2.1195
846.95
74.3818
-2.16743
853.312
66.5098
-0.5289
861.311
66.4908
-2.0427
870.408
56.491
-1.15072
884.075
37.1623
3.04455
896.015
-1.23227
9.38822
-22.4758
0.397103
-21.9809
-1947.64
857.034
461.685
-800.932
-567.248
904.509
-996.006
-367.355
919.267
-684.582
12.3042
955.915
-578.447
-18.1891
885.915
-149.553
-25.7014
853.35
-56.758
-13.5438
-72.3423
-59.5627
-70.8028
824.658
-29.3456
-18.2398
22.2923
-25.2959
20.132
815.155
-6.69957
-11.6373
-7.14393
-11.8193
-8.46145
801.921
5.87032
-7.57288
28.8346
5.91221
28.2794
800.667
7.22308
-1.57999
13.3127
6.81615
12.5517
797.444
11.6941
-1.79244
29.0459
11.6997
28.2753
797.467
11.7764
-1.58086
22.0729
10.9559
20.7317
794.566
13.2382
-1.04188
26.9918
12.3364
25.7577
799.171
60.9661
0.938861
814.266
57.0639
-5.66832
828.936
41.2687
0.552384
832.627
18.5684
14.9036
816.415
-9.05199
24.0313
-22.0474
8.168
55.9475
-1905.49
914.252
621.403
-1007.61
-358.777
986.541
-994.655
-366.49
903.819
-667.287
65.4271
918.978
-573.844
-19.7616
211.981
-41.0753
-44.8855
206.527
205.84
198.784
41.9394
-50.5102
40.8242
182.42
-25.2038
-1.99359
-152.459
153.976
-24.7718
-6.09083
-173.545
164.51
3.75212
-1.41595
-162.857
161.215
9.18163
-1.67021
-170.298
164.634
14.5694
-1.68238
-167.955
166.537
14.9749
-1.86283
-175.749
172.403
16.4467
-1.32482
-178.065
175.439
16.6375
-0.77268
707.382
8.06448
-7.04747
-180.245
-174.034
-172.646
-162.201
17.6338
7.25584
16.8041
718.612
48.244
-2.40943
713.234
33.4871
13.1589
696.564
15.3278
19.9109
678.032
-3.79148
13.271
-16.9273
-2.56922
2234.05
416.647
-5953.38
1790.51
221.197
-785.269
1299.93
-389.844
-114.226
1035.11
-509.388
106.924
195.882
-390.311
83.1538
174.053
206.983
191.501
204.781
-43.8051
-6.16903
1.44154
-59.7426
54.7795
5.2459
-1.72441
-48.0783
4.863
45.0443
0.172128
-2.00112
-45.0178
2.50723
42.8753
-0.514361
0.149628
-41.1565
-1.63989
39.7535
3.39397
-0.351097
-40.273
-2.68838
38.5054
4.66703
-0.211048
-39.1458
-2.19458
37.8766
3.70003
-0.236205
-40.085
-2.1838
38.9868
3.4877
-0.205693
-41.1074
-2.14736
40.1052
3.3902
-0.240624
-41.9592
160.769
10.8414
0.500727
-41.2664
-41.0557
-39.7652
616.627
36.0824
6.49804
-162.904
-150.396
-154.851
-142.813
615.302
23.1247
11.6882
619.73
0.0520768
10.8471
632.5
-19.613
3.05205
-27.2566
-4.71371
2879.13
1896.59
-3414
2881.32
1672.69
-1453.69
2441.24
237.552
-187.318
1847.14
-367
451.711
216.547
-103.101
602.175
205.703
268.558
266.952
30.0882
178.971
-10.7551
18.2427
-5.5612
-48.7587
50.4098
7.42501
-3.51484
-8.86289
-52.885
52.2562
10.3243
-0.832617
-7.85038
-46.8547
44.985
9.70211
0.0179922
-6.5152
-41.6148
40.8653
7.58908
-0.324394
-6.52805
-39.5743
39.128
7.24242
-0.268095
-5.09323
-38.1099
37.4883
5.73589
-0.0211488
-4.06651
-36.2282
35.916
4.40244
-0.0237677
-3.51094
-35.4611
35.2786
3.62734
0.06612
-34.8218
-11.1978
137.69
10.385
0.632453
-34.3091
-34.4112
-33.9672
592.681
11.9699
-4.502
-139.664
-145.508
-137.167
-141.727
630.587
-6.17604
-8.60541
669.879
-31.5258
-7.71327
695.981
-44.23
-1.48563
-41.3471
-1.45532
4912.22
512.878
-4261.99
5133.23
1644.63
-192.944
4081.22
739.352
550.203
2767.45
236.211
710.558
278.009
464.726
891.006
291.4
370.354
368.859
-10.6028
180.197
53.388
55.0269
-8.92834
-39.5396
38.8231
9.32314
0.321776
-10.3227
-38.8256
38.4976
9.43152
1.21916
-9.8614
-38.1247
37.8884
9.11621
0.981402
-9.09681
-36.9522
36.6279
9.11268
0.308451
-8.56626
-35.5842
35.1657
8.74324
0.241532
-6.89621
-34.0817
33.8275
7.25884
-0.1085
-4.6244
-33.6934
33.8974
4.80905
-0.388661
-2.78504
-34.9943
35.4484
2.5861
-0.255169
-36.995
-7.91195
151.184
4.61864
-1.0531
-36.8559
-36.4813
-36.5059
646.189
-16.503
-2.97916
-156.072
-157.54
-150.619
-150.505
680.389
-35.4215
-4.95479
707.19
-52.0488
-6.2777
724.102
-55.8167
-5.32551
-46.517
-8.83102
1302.36
-2353.86
-604.458
1683.81
433.019
830.171
1688.44
654.815
79.9039
1442.65
604.15
-122.15
174.011
812.667
251.299
194.83
224.021
250.549
-98.9067
140.953
101.449
30.5153
-12.6156
-40.4915
42.7308
10.5662
-0.189894
-5.73024
-43.9144
42.4571
6.29543
0.892126
-2.9821
-39.1387
38.8153
1.72517
1.58031
-7.83482
-38.1234
37.6507
6.52784
1.77959
-8.97461
-37.8259
37.2804
8.45767
1.06246
-8.74324
-35.5033
35.0775
9.20384
-0.0347693
-5.93376
-35.9818
36.3228
6.31865
-0.725847
-2.90867
-38.0562
38.334
3.05252
-0.421571
-40.028
-0.358887
160.445
-2.84451
1.16967
-40.6394
-38.7859
-38.9577
614.906
-37.6257
15.7618
-158.473
-155.34
-148.978
-146.753
622.847
-55.2772
11.9146
629.066
-63.1176
4.84937
639.828
-64.5979
-1.98062
-50.7082
-11.5679
-448.496
1476.95
-1178.17
62.8459
664.409
-742.732
462.167
552.972
-297.478
566.964
525.058
-25.7058
642.094
700.171
37.365
138.84
329.848
31.7756
-96.6774
-28.2315
-121.15
-34.6054
151.15
128.518
142.628
-21.192
140.539
89.6685
-1.11416
-24.35
-20.8701
-23.8418
-15.1872
-124.805
124.778
50.6405
0.827005
-10.4107
-15.165
-10.6771
-4.57466
-134.54
130.502
20.6574
1.13269
-3.69149
-5.51231
-3.97415
-5.64064
-111.672
106.41
21.5999
2.01577
-3.18344
-6.25761
-3.27252
-6.18747
-113.507
119.674
15.2552
0.157863
-4.12636
-6.73015
-4.53602
-8.46744
-122.076
128.933
14.1237
4.38178
-5.1089
-7.59557
-4.1901
-5.66828
-136.071
140.834
4.66303
4.95236
-2.18669
-4.49767
-2.02588
-2.58942
-138.049
139.584
-1.63738
4.60034
-0.471446
-1.5206
0.0842458
540.503
-37.7946
7.75985
1.68611
9.85495
2.96841
11.2436
-138.277
-136.023
-130.853
-131.068
555.753
-56.8001
3.92361
570.201
-70.8611
1.13603
584.859
-77.1436
-0.631159
595.963
-74.529
-1.17345
-55.7461
-9.38822
623.924
1045.69
-2579.14
610.702
620.879
56.7528
840.385
444.573
-121.285
906.677
501.259
-42.4927
899.176
639.757
67.915
787.225
431.707
10.0917
671.4
550.14
15.5595
-102.97
-119.86
-107.917
-119.126
569.595
224.153
-35.4018
-47.3783
-0.520938
-39.4942
0.447137
547.542
253.222
-52.3154
-36.6279
-49.7727
-41.6859
-50.7669
546.353
101.407
-52.4074
-24.7104
-1.09092
-23.4776
1.46809
553.442
89.3763
-25.9617
-19.341
-16.69
-19.1833
-15.2894
557.749
1.2537
-9.30413
-7.62782
7.20942
-5.52257
9.68479
567.927
-6.69073
-2.91234
-3.00333
0.0645146
-1.25723
3.62062
575.847
-34.4569
-7.69582
1.91932
13.6419
3.13034
15.5414
583.493
-38.3268
-7.11338
588.112
-59.5655
-1.85413
587.023
-73.2707
3.49833
584.173
-77.8879
3.59476
580.956
-74.4539
3.14149
-52.6655
-9.10211
-1203.99
1743.41
658.915
-505.96
827.996
-905.147
171.293
227.144
-459.823
374.547
251.099
46.9061
618.454
409.071
-13.2215
708.656
336.87
4.6352
858.349
413.225
-12.7782
916.595
243.494
-77.5873
990.776
249.612
-70.5711
1028.69
145.457
-81.965
1011.48
127.892
-21.3011
928.712
69.8501
14.168
841.674
61.9916
18.3554
796.038
20.9256
-9.74601
767.461
-0.338129
-9.41219
722.877
-22.8566
7.87511
661.825
-32.5608
20.3427
611.001
-42.6517
15.5872
578.226
-51.4156
9.7367
-42.5681
-3.00646
2617.05
3296.63
-1671.37
1950.06
1461.83
33.1609
1231.15
311.458
634.595
1034.64
121.258
326.353
983.302
272.743
187.665
1025.49
223.891
70.7868
1070.36
324.295
44.0599
1116.12
203.065
-5.32658
1140.05
224.769
0.910632
1155.73
143.478
-13.6988
1150.22
136.613
-3.21393
1125.36
97.4542
-2.7388
1062.78
102.013
22.5575
1000.98
68.4944
14.2332
947.791
38.2627
14.5853
886.162
15.1784
23.5943
797.433
16.9051
39.2629
712.621
6.94202
35.2191
649.061
-11.4676
23.6122
-22.026
3.94697
1685.5
2105.48
-3335.31
711.441
1012.67
1423.22
217.379
256.334
549.185
239.571
-82.6525
181.718
451.136
-4.87871
66.0565
604.224
29.7036
41.0995
771.661
121.544
35.314
876.361
89.1438
9.22142
950.638
113.8
36.692
990.98
76.9255
26.2107
1002.74
84.3618
40.4952
1000.35
63.9277
35.9137
987.344
69.5835
45.4336
965.122
54.4447
36.2725
913.438
47.296
42.65
834.503
51.6827
42.4304
748.881
64.1889
38.3382
682.147
51.6934
21.9832
632.473
26.0259
12.1801
0.0755129
-3.41938
-236.678
-736.29
1140.29
191.105
423.89
160.996
545.732
401.458
-499.751
523.612
20.6611
-81.1928
591.394
-59.0051
-13.6559
595.919
-23.5323
48.7105
677.871
-10.4083
50.0004
724.291
5.84323
36.8807
781.375
10.694
46.0215
816.498
3.67198
38.1314
839.459
10.7448
50.6555
850.21
2.50013
50.6769
850.601
13.8842
55.3078
840.414
14.9201
49.7116
794.478
52.7455
40.4866
729.473
88.9327
27.7546
679.778
97.634
16.2505
655.553
71.9692
3.9485
646.718
36.7485
-1.88761
15.9743
-18.3571
-483.977
-452.399
-856.72
-153.629
871.77
-778.228
392.77
293.279
-438.22
429.769
178.558
-194.895
518.327
78.1691
-225.733
534.535
119.012
-158.752
588.344
51.0484
-115.266
656.979
12.5301
-75.3221
747.283
-68.4862
-11.1241
816.627
-57.5858
-8.08566
866.957
-50.0152
10.4294
897.942
-41.9894
13.5047
903.776
-33.927
41.9773
875.702
-16.3247
59.3184
812.194
30.7386
85.5149
748.584
82.3206
70.2224
703.762
95.9681
46.4884
673.384
81.4664
20.8801
662.209
53.1094
-5.18611
39.1044
-23.9203
-968.78
-1578.77
241.741
-338.752
781.109
-246.088
987.582
-27.9156
1125.97
-60.2182
1249.25
-4.2652
1211.84
88.4592
1133.95
90.4162
1020.47
44.9963
989.124
-26.2422
986.557
-47.4478
1008.44
-63.8772
1029.43
-54.9116
1063.27
-50.1661
1113.29
-19.281
1172.38
23.2282
1219.33
49.0175
1248.44
52.364
1228.04
73.5062
66.3068
35.8557
-1555.05
574.092
138.734
-40.2307
-1317.54
636.269
-7.66587
-1366.34
677.331
20.7694
-762.402
811.427
57.9245
-158.309
901.602
2.64334
25.2746
929.567
0.63273
14.6087
952.038
0.139537
-16.7313
955.896
18.5385
-31.276
951.949
31.3449
-64.6611
923.801
44.164
-64.1873
887.913
47.4241
-88.8302
837.764
34.7225
-72.9882
801.922
20.6894
-73.2781
786.416
4.93409
-49.5319
780.232
6.05868
-10.7432
782.55
7.43049
27.9937
783.901
3.00501
18.3851
793.772
-11.9279
12.3841
-18.6218
3.73907
-1456.42
-2721.19
1515.03
-362.442
-865.126
-654.8
317.557
-380.1
-17.3894
515.612
-157.795
424.956
627.937
-8.75331
484.077
672.765
-26.8025
166.43
690.541
-7.16772
38.7279
708.835
5.46337
-62.9545
732.856
11.6265
-75.753
749.439
29.7272
-80.0832
761.262
32.7378
-51.0766
764.216
40.5229
-35.2905
759.471
33.5926
-8.98266
748.984
32.1001
6.06965
734.744
22.6827
31.8618
721.018
27.2432
45.5276
710.793
21.8258
47.5061
705.522
9.23801
26.0242
708.288
-13.4474
17.0531
-21.9105
9.06641
-1195.7
-1179.64
-1490.18
-99.3518
-890.851
-1246.84
560.457
-482.388
-473.677
728.075
-230.835
91.9049
774.579
1.03352
135.286
771.27
-5.79281
44.3545
763.32
3.03535
23.8405
761.052
15.4157
-20.8377
769.082
5.51787
-7.30279
772.477
31.515
-15.1954
773.669
30.9125
-0.168617
768.236
47.1355
1.22551
756.725
43.9626
14.8172
740.275
49.8339
18.1577
719.299
44.6644
31.3831
701.796
46.52
27.7301
689.766
32.7618
18.2476
684.041
14.4931
8.47291
683.195
-12.3668
4.85346
-21.3385
-5.03554
-1057.25
-1560.9
-4546.5
-327.149
-713.367
-1754.49
84.6891
-599.938
-533.837
235.266
-351.509
-47.8375
504.309
-246.022
-42.1172
586.715
-104.485
18.7483
679.92
-97.9946
2.43234
710.555
-17.5377
-14.1099
736.245
-23.7083
-9.17296
734.64
35.1473
-18.629
733.73
30.7135
-7.3637
724.782
56.5208
-8.95417
716.161
51.2887
2.55646
706.195
59.7675
4.28361
697.938
52.9478
11.183
692.832
51.8496
11.9072
686.941
38.3726
9.78414
680.904
20.8764
2.52315
676.287
-7.51534
-3.79934
-18.1199
-14.026
-812.96
-1344.99
2151.15
-152.153
-827.237
-894.411
365.635
-717.289
-658.889
524.896
-484.888
-58.8353
687.753
-377.221
-67.7327
731.2
-154.799
-1.47618
775.378
-147.682
15.3439
775.768
-18.1459
-3.78461
769.068
-20.0068
8.8283
750.168
55.7745
-5.22811
736.63
43.2995
1.70251
722.682
71.4083
-4.90749
713.23
59.9298
0.569906
705.172
68.0068
-1.65281
700.201
57.1516
1.49499
697.631
54.0295
0.280889
695.373
40.3788
-0.0148455
695.452
20.971
-4.21526
697.161
-9.12261
-4.54795
-18.8575
-14.0799
568.004
-1242.35
-717.487
240.85
-727.763
675.899
362.554
-812.669
-260.155
449.12
-570.215
84.9031
579.896
-473.912
-18.4325
586.107
-170.529
51.0621
689.44
-250.266
20.9167
672.181
2.81193
6.75295
683.588
-34.7219
2.75302
669.606
70.6037
-8.83708
669.339
43.0952
-3.96501
663.843
76.9449
-5.66683
665.598
57.7224
-1.66668
667.607
65.5216
-1.69115
671.382
53.1933
-0.345837
677.419
47.8984
-1.94879
685.921
30.6924
0.0329857
697.711
6.54582
5.67964
706.451
-17.0571
8.58321
-21.3111
-3.81971
922.062
110.041
1784.86
773.588
-546.775
-599.763
765.234
-806.025
-365.644
775.302
-580.551
12.5714
794.119
-479.525
-31.3925
702.075
-82.5052
-21.6818
678.364
-54.2445
-6.58596
-62.6014
-55.8248
-60.8417
645.557
-14.7537
-13.2366
28.0118
-10.605
27.9635
641.269
-9.30538
-9.5961
-5.84405
-11.1212
-6.20466
631.623
7.04428
-2.64785
30.6399
7.49036
30.1494
633.633
6.77352
1.77797
12.8424
6.46298
11.649
631.402
11.8648
-0.143295
27.5909
11.3923
26.6782
632.892
9.4723
0.43941
18.7612
8.48531
17.494
630.813
10.7116
0.565126
23.1549
9.85726
22.2692
635.063
47.5753
2.30734
644.613
37.4228
-4.74253
653.515
17.7174
4.62483
659.691
-2.63963
17.9128
657.985
-12.4594
21.1396
-15.681
2.75676
140.858
-862.53
-1590.93
581.193
-611.747
-734.139
811.317
-791.199
-611.44
811.789
-553.751
38.157
812.668
-456.224
-43.9422
182.562
-34.4237
-34.3358
175.121
173.819
166.095
42.8565
-28.9332
42.5155
2.99093
157.44
-26.0459
-6.0671
14.7765
-135.315
135.693
-12.9418
-16.9659
5.07037
-149.874
140.591
0.999011
-6.09214
4.82697
-140.964
139.333
9.77128
-5.92225
2.99084
-148.137
142.459
13.2449
-3.78422
3.33738
-145.282
142.551
14.7876
-3.52972
1.78902
-150.153
145.632
14.4973
-2.29287
1.17472
-150.053
146.672
14.312
-1.39348
577.813
6.2063
-6.46909
-150.649
-143.537
-141.123
-134.734
13.8236
6.20343
12.9932
583.256
29.5466
0.0239852
581.745
15.5305
16.8574
579.062
0.431773
19.5226
573.534
-5.15467
11.4942
-10.9135
-8.17036
1996.71
1327.25
-3347.55
1205.97
319.129
-925.407
997.839
-278.695
-418.597
831.773
-327.736
46.9742
185.598
-278.211
34.4739
170.639
180.038
166.165
3.4265
191.169
-38.9902
-4.43084
3.44347
1.92659
-51.8178
46.4082
3.84872
-3.80916
3.41006
-38.8565
3.51575
35.8659
-0.679803
-3.25544
0.555996
-36.5768
0.606445
35.1245
0.998943
-0.709089
0.922412
-33.9018
-1.83153
32.7702
2.97505
-0.934292
0.717697
-33.8964
-2.44264
32.5687
3.888
-0.835336
0.653014
-33.3352
-2.2801
32.2348
3.44534
-0.717846
0.631002
-34.2194
-2.29349
33.22
3.3623
-0.700443
0.501399
-34.882
-2.13032
33.947
3.08874
-0.524779
-35.5682
-0.0420916
134.993
8.77634
0.421172
-34.392
-34.5715
-33.4102
528.27
17.5122
11.7411
-138.148
-129.861
-130.289
-123.181
534.793
6.08166
14.6144
540.778
-5.31586
10.6097
548.599
-13.0619
3.13852
-15.3634
-8.55951
1723.36
1699.79
-3571.3
1550.07
737.24
-1698.5
1332.96
110.376
-359.282
1081.5
13.862
361.57
207.262
45.9462
550.124
206.007
197.759
198.369
-44.8477
28.5453
193.945
-12.0843
41.7034
4.62975
-3.7611
-46.4408
46.2569
3.59979
-4.28456
1.42966
-4.87316
-43.5743
42.2243
6.14987
-1.35635
-0.183826
-4.50069
-37.991
36.8142
5.63214
0.229256
0.689596
-4.62806
-34.3632
33.7573
5.25999
-0.715609
0.621128
-4.58158
-32.615
32.2332
5.01873
-0.676544
0.209106
-3.70386
-31.5025
31.3165
3.99431
-0.313518
0.299527
-3.15462
-31.264
31.2505
3.24139
-0.372778
0.0294569
-2.58869
-31.5064
31.5402
2.5951
-0.0697394
-31.8006
-0.771607
-8.13538
127.207
6.10562
0.997606
-31.5565
-31.137
-30.9086
533.739
-5.72056
-2.08615
-129.117
-133.198
-123.703
-126.904
554.74
-17.1995
-6.32543
572.191
-27.8276
-2.65196
584.238
-27.913
1.31811
-21.3411
-4.39178
1129.38
-245.067
-2184.75
1412.1
441.939
-180.359
1497.35
557.203
18.1267
1313.64
491.213
416.911
235.881
573.983
782.424
238.645
211.001
208.659
-122.556
-13.9633
201.376
53.7097
117.314
-7.16837
-6.06575
-43.0301
41.2266
6.93247
8.10512
-4.219
-7.31625
-37.5053
36.8001
7.35396
4.88651
-3.11631
-6.91155
-35.4617
35.0467
6.90921
3.53367
-1.34144
-6.52422
-33.6026
33.1381
6.62651
1.70359
-0.811406
-6.22002
-31.9176
31.6456
6.36921
0.934265
0.822811
-4.96823
-31.4539
31.46
5.26365
-1.12432
1.24653
-3.4075
-31.6256
31.7757
3.41662
-1.40579
0.742353
-2.1444
-32.4705
32.7759
1.88414
-0.787411
-33.8203
0.824631
-3.88422
136.565
0.772911
-0.500043
-33.7722
-33.1415
-33.0444
560.668
-26.2701
-1.40041
-139.416
-138.293
-132.654
-131.334
579.642
-37.2638
-3.86419
591.403
-41.5428
-4.32319
598.733
-36.4649
-4.10396
-25.3408
-13.0046
474.204
-2182.35
-598.675
953.944
260.771
531.599
938.15
768.18
-115.279
744.726
699.705
-137.218
134.123
798.903
218.678
157.764
120.133
140.405
-40.3878
-94.8833
136.526
105.5
27.3687
-2.57579
-10.7106
-39.1363
40.4887
9.20894
2.7251
-3.69839
-8.18315
-37.4375
35.7592
9.1988
4.36103
-4.299
-7.15048
-33.518
33.02
7.15834
4.7891
-3.85685
-7.30747
-32.1969
31.9107
7.48515
3.96539
-1.73143
-7.11084
-31.8253
31.5994
7.37585
1.69234
0.100974
-5.61451
-31.4743
31.4163
5.6972
-0.125704
1.00011
-2.92562
-32.0677
32.1497
2.71175
-0.86831
0.373662
-0.747113
-33.0411
33.1779
0.444866
-0.20825
-33.9558
-2.36528
3.39826
134.855
-6.37451
3.59004
-33.5742
-33.0196
-32.5543
521.054
-36.6736
19.0266
-133.803
-130.616
-125.921
-123.576
531.082
-47.0989
11.7218
538.558
-48.0899
3.92014
547.823
-43.3786
-4.33119
-30.4255
-17.0203
509.618
-123.299
-50.1191
58.03
367.745
-398.119
244.788
690.197
-406.254
286.843
642.126
-10.1815
414.055
693.792
15.2637
85.4032
225.675
46.6274
-92.0924
-5.54842
-78.17
4.28976
100.016
72.6466
86.9834
-19.3701
-9.11971
86.6224
85.08
6.92278
-22.7739
-19.1901
-22.7681
-14.4801
-4.59107
-67.1358
80.4653
36.1051
5.55106
-10.5257
-14.6106
-10.7782
-8.44248
-1.98819
-97.1601
94.9534
32.7555
2.69972
-6.69548
-8.88651
-7.23592
-8.03127
-2.03812
-83.6104
86.9663
23.0142
2.29504
-5.06788
-8.19509
-5.33272
-6.8321
-1.61735
-96.8053
101.791
16.5529
2.76359
-4.61663
-6.70285
-4.53363
-5.13977
-6.40892
-101.077
107.322
7.38266
7.49506
-2.45917
-4.71799
-2.39623
-1.70564
-7.47342
-113.073
117.178
-0.558219
8.00086
-0.531075
-1.44158
-0.395337
-0.0750592
-6.17978
-114.864
117.395
-6.15977
6.42149
1.61409
0.120976
1.7263
456.907
-38.3564
10.8528
3.5475
11.5792
3.63338
11.8412
-117.012
-115.862
-110.065
-109.306
471.343
-52.4471
5.2613
482.121
-59.3889
2.64721
494.05
-60.3462
-0.303126
505.144
-52.8626
-2.7836
-36.4776
-14.9482
446.264
804.008
-2709.12
285.322
538.549
46.8913
479.206
475.962
-100.932
543.93
525.885
9.02336
636.092
596.44
73.1049
538.659
325.354
7.84578
499.262
469.538
9.14841
-100.548
-111.79
-102.571
-108.821
429.055
122.969
-51.6669
-26.5014
7.00663
-22.4468
5.44413
428.911
190.44
-53.2637
-44.3815
-48.4874
-47.997
-48.4815
427.949
35.2747
-56.4533
-20.2888
4.45772
-19.0162
4.58038
440.749
52.4311
-23.6275
-19.4503
-14.1115
-20.2904
-13.7129
446.372
-19.7927
-10.1795
-3.98524
10.9666
-3.33416
11.3974
455.604
-14.4569
-4.85155
-1.1913
4.57489
-1.22363
5.00444
459.225
-44.312
-6.86493
3.75913
15.9018
3.91772
16.2818
464.45
-44.8503
-5.84466
470.385
-60.7885
0.552632
474.985
-65.2402
4.74954
479.613
-65.1707
3.79162
484.947
-56.7531
1.69714
-38.7312
-14.4337
988.728
1060.54
-382.671
161.371
605.864
-145.105
9.02967
214.04
-45.5599
179.198
255.682
146.941
386.76
363.394
12.2627
452.338
238.439
25.9721
602.339
321.608
-14.8494
613.911
124.504
-90.6943
655.599
147.797
-69.6158
657.903
38.1159
-87.1102
657.781
50.4987
-19.247
640.259
2.83147
9.0662
614.927
10.2398
18.9909
588.709
-21.0844
-6.75541
566.574
-27.1533
-4.975
543.372
-41.8435
12.1322
517.376
-41.4389
22.5372
495.912
-45.2855
17.167
483.73
-44.4578
9.62283
-34.8249
-7.47615
830.846
1010.84
-518.68
619.317
525.275
325.278
679.956
190.235
597.76
717.536
221.766
322.689
739.71
320.435
208.451
761.925
207.698
79.3121
791.966
280.692
54.9351
800.632
119.525
-9.01339
804.276
141.247
3.81637
795.939
49.5837
-16.8297
778.433
62.2758
2.51509
754.753
25.0294
-1.25625
728.741
34.8984
23.9102
700.73
4.80493
16.3553
667.711
-2.39631
22.8472
629.962
-7.87416
27.3734
587.145
-1.8918
42.533
549.107
-8.54948
36.5211
523.672
-17.9191
22.5084
-22.4255
-1.10738
-1069.84
499.015
-3927.53
-418.671
432.374
864.957
-167.554
244.761
243.543
-3.46495
61.9415
177.454
271.771
94.2657
16.9899
384.054
78.8882
57.6269
537.965
116.883
45.2125
605.198
46.7734
14.7402
673.706
66.9903
42.4407
700.348
24.809
24.3431
716.49
43.1755
43.4531
717.285
25.2913
34.8572
713.71
36.1356
47.7711
699.026
21.4043
34.3572
666.788
28.0401
44.4515
621.758
34.3
45.2862
576.207
41.6193
40.3779
541.428
26.6972
21.516
519.181
6.4672
10.0411
-8.17869
-11.864
-306.816
-415.067
1163.9
218.223
187.247
-118.917
326.627
317.779
-681.173
377.906
61.9854
-132.516
473.946
47.8296
-63.2589
483.895
49.8217
67.8274
563.272
19.155
68.3522
595.377
3.99401
47.5545
646.741
3.74141
57.9059
670.074
-0.745226
40.3526
689.171
16.6531
58.0812
692.163
19.7504
53.2262
686.667
35.275
61.6643
668.708
37.8753
51.2001
632.771
59.8508
44.6122
592.557
74.125
28.144
565.965
70.6268
13.8355
553.578
42.8316
0.200137
552.778
12.6265
-7.24637
-3.23547
-27.6885
-316.494
-271.732
2716.24
-219.704
696.689
-1384.46
495.403
295.354
-1130.9
557.89
212.693
-408.09
552.446
83.5989
-256.057
526.899
73.66
-157.043
528.264
-13.6708
-83.8052
571.696
-48.3325
-66.4279
632.278
-65.9132
-2.05192
671.694
-37.4799
-10.7666
699.139
-14.9752
14.6122
713.845
7.90902
10.6409
718.203
28.2969
44.5976
707.753
55.0171
52.6266
687.816
88.4456
76.8563
665.114
113.204
53.8457
649.351
106.858
26.02
640.685
81.3061
-8.92777
640.786
35.1504
-27.8113
15.631
-45.2262
-343.04
742.172
462.043
-447.146
973.574
-462.265
1175.42
-17.0725
1126.23
72.575
1122.49
73.1335
1025.32
171.954
969.513
97.895
901.042
47.5548
879.121
-41.8012
864.329
-47.6312
866.036
-57.6745
869.278
-29.8567
884.81
-10.6812
929.183
24.7917
1012.15
53.467
1105.41
62.6105
1171.41
67.6689
1172.73
107.339
100.344
1741.26
-2294.36
-1912.3
1052.03
-645.862
17.5459
861.974
-309.331
-866.945
775.511
-150.996
-524.943
815.718
-44.2465
-154.269
880.525
-30.6968
-8.835
882.418
12.7693
-0.0534237
880.631
22.6533
-37.5978
855.81
39.2721
-45.7278
821.665
42.1449
-72.6603
764.289
40.8467
-47.6585
707.022
30.4059
-61.9689
657.728
11.7086
-35.4025
626.855
-2.44549
-39.9602
620.281
-12.8226
-30.1354
627.737
-10.6819
-7.51731
647.185
-10.0897
18.6353
664.579
-10.2429
11.2344
685.67
-18.9057
10.1991
-20.4045
5.40957
-933.113
-2558.21
1213.51
-370.628
-1077.98
-785.171
110.996
-559.815
-248.53
339.253
-229.221
274.923
507.501
-57.3554
328.937
573.444
-39.9417
109.733
602.467
-5.37273
27.8473
611.524
10.448
-59.8065
621.561
15.6215
-62.1397
618.013
29.483
-63.8728
614.056
25.9075
-32.1799
601.914
28.2237
-20.9671
589.909
17.1307
-2.39972
576.404
14.5835
2.54504
569.031
6.13553
20.2766
567.159
9.51934
27.1992
570.143
4.99314
29.4387
573.016
-2.44608
15.3542
579.238
-17.0397
8.96532
-19
1.33317
54.9407
-1417.52
-3875.87
353.871
-952.808
-1670.94
474.163
-536.864
-616.919
581.266
-246.363
1.9443
611.536
-26.8754
74.5356
612.636
-23.7411
27.054
617.194
-8.40774
22.3175
611.719
12.6391
-17.5533
619.197
4.67048
-3.83
614.644
32.2413
-13.4007
611.705
27.0576
1.62035
600.765
40.6262
-0.237021
588.863
32.3906
11.4585
574.557
35.7631
11.2847
563.382
28.1864
20.5073
555.705
27.6078
17.3182
551.471
15.3659
12.1087
549.237
2.4288
5.83197
550.525
-14.2573
0.783699
-16.5758
-9.05266
678.518
-612.456
-3837.24
173.684
-603.702
-1598.76
133.151
-530.15
-500.018
197.597
-322.754
-35.8929
397.106
-231.519
-36.9829
461.902
-102.166
32.3776
547.034
-96.7157
5.60839
563.002
-10.8612
-6.57733
586.656
-25.629
-2.52743
579.047
34.8185
-13.5973
578.748
23.6801
-3.68747
568.018
49.2225
-6.8206
561.631
38.9705
2.36351
553.296
45.8496
2.53263
549.046
36.4616
7.15788
547.006
34.4567
7.09772
545.329
20.5408
6.28619
543.137
5.79427
1.34947
542.633
-12.3903
-5.1625
-15.0256
-15.2948
-41.7302
-1199.51
-1937.27
-35.2571
-641.304
-863.282
315.806
-613.427
-926.675
441.489
-427.143
-80.13
551.782
-332.828
-76.7177
575.72
-131.034
3.45381
617.908
-137.896
14.3358
608.888
-2.47644
-3.14917
607.067
-24.4473
9.46799
588.611
52.6749
-4.62887
580.345
31.3313
2.31714
567.744
61.0167
-4.1005
561.457
45.0977
0.729898
554.625
53.041
-2.01238
551.752
40.0204
0.809383
550.457
36.4967
-0.464482
550.312
20.6769
-0.00536004
551.779
2.00079
-1.88898
555.267
-14.8139
-5.61284
-16.1095
-15.1239
-586.324
-888.249
960.865
-1.65085
-700.724
150.646
270.325
-725.003
-420.555
365.985
-498.273
60.3742
467.236
-407.774
-44.7374
471.684
-128.23
43.8098
570.574
-227.916
12.0473
539.885
31.2301
3.73531
549.337
-36.0577
4.91148
530.431
68.8064
-6.06231
530.58
29.6784
-2.46156
523.372
66.4073
-3.84919
525.343
42.4256
-0.965575
526.249
51.8418
-1.39791
529.586
36.952
-0.614397
535.05
30.905
-1.82137
543.165
11.6373
0.957572
551.554
-4.97662
4.26875
558.859
-16.913
3.37729
-15.1205
-8.73246
1183.38
-831.961
-181.688
766.107
-489.264
-393.947
692.812
-726.652
-290.7
669.299
-487.604
25.416
657.515
-399.896
-27.4872
557.754
-49.7654
-0.385385
544.802
-53.5836
0.24418
-56.8737
-55.3126
-56.0242
509.07
-1.51039
-5.82143
30.4237
0.7071
29.9262
510.278
-12.6605
-5.77012
-6.47946
-14.7201
-7.23082
501.036
7.94922
1.6085
29.4805
7.77716
28.5843
504.534
5.5208
2.83242
8.47288
3.86478
7.26751
501.976
9.80497
2.14811
24.5627
8.84626
23.4603
503.846
6.48681
1.36488
14.3423
6.13135
12.6696
501.478
7.83112
2.43747
19.2371
6.87019
18.3996
505.065
32.775
2.89698
511.29
22.2328
-2.29536
517.156
4.17171
6.22496
522.406
-5.49341
13.1789
525.203
-9.79595
11.2259
-9.39743
-4.91822
629.575
-1587.48
-2910
887.472
-573.457
-907.843
759.25
-698.416
-511.454
751.199
-460.887
19.4905
708.824
-363.221
-38.2427
153.023
-19.188
-10.8836
145.218
144.348
136.346
44.9358
-13.8815
44.8064
5.50189
130.656
-28.7648
-7.95455
18.4355
-111.441
112.397
-6.38692
-14.5149
6.84419
-124.587
114.51
-2.11146
-7.31659
6.32728
-115.5
113.459
9.2942
-5.63167
3.58193
-122.212
116.652
10.2176
-2.71891
3.18268
-119.112
115.971
12.8437
-3.08033
2.34084
-123.25
118.502
11.5234
-2.62981
1.47355
-122.297
118.699
11.6641
-1.70845
465.89
4.98507
-3.36685
-122.719
-117.666
-113.529
-108.71
9.02434
4.14276
8.25567
468.657
16.7135
2.77586
468.949
7.26355
13.4744
471.536
-1.93832
13.3804
471.999
-3.82594
5.06074
-6.16911
-12.7915
2302.31
-430.657
-2701.79
1549.07
-64.5173
-681.106
965.436
-245.435
-287.944
753.063
-245.479
43.9398
163.871
-194.221
4.88235
150.503
155.86
143.42
1.69539
164.388
-20.1517
-1.2479
3.08021
2.87418
-43.5909
38.2324
2.74694
-3.34287
2.48263
-31.4217
3.46795
28.9665
-1.34376
-2.15159
0.886321
-30.4846
0.824909
29.0686
0.605759
-0.90104
0.692787
-28.0881
-1.46672
27.09
2.51586
-0.743842
0.997329
-28.5037
-2.07544
27.4718
3.1026
-0.992579
0.783329
-28.0575
-1.949
27.1109
2.93715
-0.824926
0.768564
-28.8765
-1.93015
27.9714
2.885
-0.818389
0.498202
-29.2419
-1.78513
28.4279
2.6163
-0.515286
-29.7854
-1.40925
111.9
7.16407
2.3612
-28.7437
-28.759
-27.7428
438.712
8.59976
13.3379
-114.977
-109.267
-106.715
-101.236
446.095
2.49815
11.9969
451.113
-4.50674
8.1603
457.202
-7.09579
0.318678
-7.82842
-11.5853
3172.21
-203.194
165.854
1879.55
260.83
-731.192
1123.66
239.259
-88.0844
787.839
164.396
287.512
167.179
135.024
357.14
167.489
158.086
158.823
-43.5986
14.7165
163.754
-3.30225
35.6096
2.03616
-3.52404
-40.9481
40.6165
3.50999
-1.69046
1.03108
-2.56395
-36.8604
35.4373
3.56553
-0.609559
-0.185035
-2.43307
-32.1513
31.288
3.43722