/*--------------------------------*- C++ -*----------------------------------*\
  =========                 |
  \\      /  F ield         | OpenFOAM: The Open Source CFD Toolbox
   \\    /   O peration     | Website:  https://openfoam.org
    \\  /    A nd           | Version:  10
     \\/     M anipulation  |
\*---------------------------------------------------------------------------*/
FoamFile
{
    format      ascii;
    class       volScalarField;
    location    "8.1";
    object      turbidity_0;
}
// * * * * * * * * * * * * * * * * * * * * * * * * * * * * * * * * * * * * * //

dimensions      [0 0 0 0 0 0 0];

internalField   nonuniform List<scalar> 
12920
(
-0.0200697
-0.0253394
-0.0308433
-0.0459579
-0.0790871
-0.119177
-0.151374
-0.173122
-0.185491
-0.186671
-0.183223
-0.176309
-0.173769
-0.180328
-0.20256
-0.240535
-0.286319
-0.335533
-0.381174
-0.419727
-0.0250013
-0.0409854
-0.0491674
-0.0670138
-0.0972225
-0.131268
-0.154702
-0.167254
-0.182301
-0.197306
-0.214235
-0.230279
-0.248972
-0.268826
-0.292608
-0.323028
-0.361353
-0.402334
-0.440391
-0.472076
-0.0189136
-0.0584238
-0.0747691
-0.0905415
-0.111117
-0.135447
-0.158829
-0.17815
-0.199762
-0.219712
-0.241246
-0.262449
-0.284728
-0.309068
-0.336231
-0.36568
-0.396462
-0.42526
-0.449486
-0.46856
-0.0260979
-0.0696834
-0.0886268
-0.113995
-0.12703
-0.141505
-0.157112
-0.171731
-0.191259
-0.210456
-0.233315
-0.256852
-0.283092
-0.30993
-0.33726
-0.364399
-0.389728
-0.411648
-0.428855
-0.443498
-0.030594
-0.0691554
-0.0821825
-0.102451
-0.120629
-0.138643
-0.161431
-0.18272
-0.20571
-0.2262
-0.246644
-0.265043
-0.285115
-0.30542
-0.326639
-0.347255
-0.366049
-0.381931
-0.396642
-0.411197
-0.129693
-0.079536
-0.0875086
-0.120584
-0.140744
-0.16086
-0.179318
-0.198967
-0.219527
-0.237769
-0.258454
-0.277888
-0.298131
-0.316495
-0.334318
-0.350437
-0.365925
-0.380669
-0.394695
-0.408316
-0.080681
-0.0685375
-0.0789632
-0.106852
-0.12295
-0.139622
-0.157289
-0.1828
-0.209572
-0.237149
-0.261915
-0.282669
-0.300854
-0.316504
-0.331143
-0.344178
-0.35997
-0.375292
-0.389169
-0.402952
-0.130731
-0.0641812
-0.0769303
-0.108231
-0.122244
-0.134225
-0.131974
-0.135161
-0.154134
-0.16687
-0.183528
-0.193825
-0.204766
-0.211683
-0.19828
-0.228066
-0.253011
-0.274933
-0.296294
-0.315699
-0.0351606
-0.0536332
-0.0773537
-0.107528
-0.134537
-0.122156
-0.118355
-0.112091
-0.11538
-0.122337
-0.124183
-0.119067
-0.115674
-0.11393
-0.113488
-0.154448
-0.197487
-0.234035
-0.265583
-0.293262
-0.0208977
-0.048578
-0.0682402
-0.0886419
-0.139081
-0.150765
-0.119983
-0.105949
-0.103209
-0.095341
-0.0875118
-0.0829182
-0.0832441
-0.0860728
-0.105069
-0.151178
-0.187469
-0.220477
-0.252755
-0.284426
-0.0328671
-0.0492706
-0.0593473
-0.0703166
-0.0969394
-0.127202
-0.142309
-0.118444
-0.101458
-0.0905796
-0.0856399
-0.0858378
-0.0881561
-0.0882413
-0.0975815
-0.140619
-0.181217
-0.219149
-0.254465
-0.286018
-0.0623607
-0.0569178
-0.0567974
-0.0699897
-0.104456
-0.129857
-0.143052
-0.135525
-0.128368
-0.119937
-0.106114
-0.0943108
-0.0900509
-0.0866627
-0.0977711
-0.192959
-0.252423
-0.304187
-0.345005
-0.37309
-0.0394242
-0.0590917
-0.0688871
-0.0935018
-0.123973
-0.15165
-0.145996
-0.14433
-0.152569
-0.159492
-0.162753
-0.155127
-0.161137
-0.174586
-0.295189
-0.360032
-0.416546
-0.465644
-0.506027
-0.53259
-0.0148915
-0.045169
-0.0657688
-0.0857244
-0.11402
-0.139672
-0.160823
-0.179228
-0.201478
-0.234881
-0.273013
-0.30934
-0.341314
-0.372037
-0.408621
-0.451156
-0.499385
-0.553
-0.607707
-0.653697
-0.0652322
-0.0537701
-0.0635861
-0.0950131
-0.115131
-0.129431
-0.143174
-0.142571
-0.152132
-0.163571
-0.190074
-0.22137
-0.259802
-0.298261
-0.341277
-0.390953
-0.451354
-0.524505
-0.604468
-0.680747
-0.0160138
-0.0263457
-0.0517533
-0.0889564
-0.113793
-0.128701
-0.138633
-0.145055
-0.154913
-0.16692
-0.183991
-0.203646
-0.227901
-0.256524
-0.289816
-0.328549
-0.37784
-0.44497
-0.529369
-0.619796
-0.0265995
-0.0375278
-0.0722793
-0.109175
-0.131923
-0.145383
-0.153658
-0.163491
-0.174674
-0.189946
-0.208233
-0.230206
-0.254873
-0.283617
-0.316995
-0.358322
-0.41122
-0.476256
-0.549161
-0.62298
-0.0443843
-0.0451859
-0.0513872
-0.095947
-0.128665
-0.162545
-0.186203
-0.205248
-0.221651
-0.239906
-0.258739
-0.280166
-0.304242
-0.333326
-0.367516
-0.408323
-0.455033
-0.502762
-0.545637
-0.583907
-0.0376673
-0.0406446
-0.0559326
-0.0642119
-0.0805028
-0.112542
-0.153944
-0.188426
-0.212865
-0.227318
-0.240436
-0.255244
-0.277709
-0.31373
-0.361295
-0.414855
-0.467208
-0.508919
-0.530399
-0.538494
-0.0549857
-0.0508101
-0.0523395
-0.0667561
-0.0821542
-0.103687
-0.124812
-0.148797
-0.169608
-0.177064
-0.178845
-0.180009
-0.186895
-0.201633
-0.232972
-0.271476
-0.305845
-0.333087
-0.353895
-0.379275
-0.0181552
-0.0113986
-0.0149146
-0.0186106
-0.0297258
-0.0321941
-0.031831
-0.0293619
-0.0261803
-0.0220358
-0.0187222
-0.0171221
-0.0185991
-0.0234482
-0.0325982
-0.0455223
-0.0577264
-0.0555149
-0.0539698
-0.0571499
-0.0365885
-0.019106
-0.0394833
-0.0483967
-0.0525801
-0.035727
-0.0207774
-0.0163972
-0.0183191
-0.0223701
-0.0287917
-0.038001
-0.0524023
-0.0718713
-0.0939069
-0.107545
-0.110529
-0.108943
-0.113971
-0.126661
-0.0191917
-0.0170244
-0.0307951
-0.0400062
-0.0406779
-0.0278208
-0.0210457
-0.0188366
-0.0224097
-0.0298641
-0.0427574
-0.0586417
-0.0782852
-0.0949202
-0.106979
-0.109203
-0.102554
-0.0951284
-0.0901439
-0.0902221
-0.0116015
-0.0151058
-0.0161261
-0.0214109
-0.0197252
-0.0183124
-0.0176526
-0.0177687
-0.0191466
-0.0222274
-0.0284705
-0.0379093
-0.051044
-0.0637504
-0.0737679
-0.0764089
-0.0711265
-0.0610789
-0.0533531
-0.0530388
-0.00847363
-0.0157687
-0.012736
-0.0160373
-0.0164051
-0.0177881
-0.0224433
-0.0233505
-0.0248853
-0.0229493
-0.0227784
-0.0245678
-0.0286041
-0.0331507
-0.0367645
-0.0378395
-0.0368136
-0.035583
-0.0365883
-0.04149
-0.0108803
-0.0138476
-0.0122144
-0.0241556
-0.0188039
-0.0227644
-0.0207503
-0.0188663
-0.0180839
-0.0178124
-0.0184395
-0.0197956
-0.0215777
-0.0233324
-0.0248702
-0.0267358
-0.0310979
-0.0413961
-0.0538728
-0.0609665
-0.0697241
-0.0134039
-0.0119619
-0.0156237
-0.0145648
-0.0146744
-0.0128861
-0.0128529
-0.0129146
-0.0138077
-0.0146796
-0.0158092
-0.0173673
-0.0200143
-0.0250907
-0.0341014
-0.0520947
-0.0773596
-0.0941142
-0.0929394
-0.0388143
-0.0142152
-0.014753
-0.0168935
-0.0119924
-0.00989163
-0.00974675
-0.0103257
-0.0113889
-0.0121808
-0.0128164
-0.0135817
-0.0150544
-0.0179632
-0.0316208
-0.044507
-0.0590704
-0.065225
-0.059414
-0.0490371
-0.0185921
-0.0230207
-0.0276947
-0.0317385
-0.0233819
-0.0135368
-0.00970414
-0.0091236
-0.00992122
-0.0105677
-0.0109511
-0.0119331
-0.0144979
-0.0195217
-0.0360193
-0.0564726
-0.0593944
-0.0556183
-0.0477302
-0.0418077
-0.00617771
-0.0185172
-0.0389068
-0.056518
-0.0720234
-0.0491048
-0.0170131
-0.00986756
-0.00980038
-0.00946991
-0.0113339
-0.0171271
-0.0281141
-0.0451881
-0.0599291
-0.048157
-0.0501665
-0.0538188
-0.0589356
-0.0636646
-0.00358489
-0.0256636
-0.0355109
-0.046987
-0.0804681
-0.0954967
-0.0879171
-0.0735163
-0.0590293
-0.0368914
-0.026179
-0.028978
-0.0388943
-0.0478683
-0.051154
-0.0530274
-0.0547725
-0.0569439
-0.0609915
-0.0679052
-0.00774504
-0.0124125
-0.0141917
-0.0327475
-0.0805267
-0.0907978
-0.0706772
-0.0878801
-0.113764
-0.115746
-0.0940096
-0.0693567
-0.0625805
-0.0651055
-0.0690829
-0.0657676
-0.0650783
-0.0619604
-0.059169
-0.0602003
-0.00935008
-0.0133981
-0.0163723
-0.0395084
-0.0758115
-0.0567485
-0.0491339
-0.0483174
-0.0567064
-0.0678352
-0.0746477
-0.0842071
-0.0862273
-0.087085
-0.0727715
-0.0729585
-0.0713126
-0.0690985
-0.0669445
-0.0659459
-0.00542636
-0.0167371
-0.0176348
-0.0307604
-0.0563658
-0.0446532
-0.0349932
-0.0265584
-0.0300744
-0.0367727
-0.0445109
-0.0507097
-0.0556228
-0.0632856
-0.0741102
-0.0864209
-0.0955752
-0.0964111
-0.0923174
-0.0880023
-0.0307755
-0.0300967
-0.0165348
-0.0247725
-0.0341452
-0.0265343
-0.0234329
-0.0218955
-0.0274381
-0.0374976
-0.0540178
-0.0668258
-0.0673184
-0.0686934
-0.0810754
-0.103678
-0.121355
-0.12196
-0.111078
-0.0984892
-0.0181476
-0.0213025
-0.0314018
-0.0370719
-0.0414546
-0.0332798
-0.0295104
-0.0268094
-0.030566
-0.0354759
-0.0439143
-0.0534945
-0.066963
-0.0772943
-0.0923892
-0.115662
-0.140734
-0.151903
-0.147697
-0.129862
-0.0181538
-0.0284539
-0.0318226
-0.0378839
-0.0374215
-0.0348391
-0.0372223
-0.0411466
-0.0510507
-0.0603056
-0.0720152
-0.083325
-0.0964219
-0.108276
-0.123559
-0.134583
-0.135721
-0.126865
-0.114652
-0.0997841
-0.0231378
-0.011712
-0.00908087
-0.0199882
-0.0292587
-0.040879
-0.0495283
-0.0565265
-0.0701969
-0.0845924
-0.10425
-0.121931
-0.134982
-0.137364
-0.130762
-0.11436
-0.0912919
-0.0697102
-0.0568987
-0.0509003
-0.00436616
-0.00547313
-0.00442054
-0.00581819
-0.00937599
-0.017181
-0.0262819
-0.030109
-0.0335463
-0.0407098
-0.0592876
-0.0839005
-0.115948
-0.143631
-0.159481
-0.153887
-0.13072
-0.0997366
-0.0776557
-0.0662646
-0.00806947
-0.00607677
-0.00570046
-0.00795437
-0.0142457
-0.0259977
-0.0425818
-0.0452693
-0.0330171
-0.020951
-0.0183707
-0.0236281
-0.0363905
-0.054931
-0.0744962
-0.0948431
-0.112411
-0.129837
-0.158354
-0.19179
-0.0237744
-0.0143148
-0.0116957
-0.0100784
-0.00981697
-0.0106524
-0.0110575
-0.0105726
-0.00974103
-0.00889493
-0.00867795
-0.0092701
-0.0108359
-0.0131535
-0.0161491
-0.0193387
-0.022677
-0.0246275
-0.027278
-0.0304652
-0.0260596
-0.0121556
-0.0224327
-0.0288005
-0.0237978
-0.0136978
-0.00960396
-0.00907143
-0.010178
-0.0121749
-0.0153552
-0.0194765
-0.0249879
-0.0308805
-0.0372618
-0.0411932
-0.0431649
-0.0450024
-0.049194
-0.0552639
-0.0139015
-0.0104989
-0.0120145
-0.0157087
-0.0151416
-0.0119456
-0.0111098
-0.0119869
-0.0147241
-0.0186155
-0.0241113
-0.0295785
-0.0353468
-0.0387566
-0.040594
-0.0399197
-0.0383686
-0.0381018
-0.0392532
-0.0415604
-0.0209331
-0.0126763
-0.0110185
-0.012476
-0.0117393
-0.011333
-0.0112575
-0.0114865
-0.0125095
-0.0143956
-0.0172951
-0.0204707
-0.0236055
-0.0256149
-0.0266
-0.0261813
-0.0250064
-0.0245034
-0.0255921
-0.0281895
-0.0138924
-0.00794814
-0.00917513
-0.0117012
-0.0126212
-0.0132665
-0.0136152
-0.0129033
-0.0121226
-0.011557
-0.011882
-0.0129767
-0.0141653
-0.015072
-0.0155186
-0.0156832
-0.0159367
-0.0168906
-0.0188574
-0.0217408
-0.0214572
-0.00902091
-0.00784491
-0.0100652
-0.00983019
-0.0114022
-0.0106344
-0.0101528
-0.00920026
-0.00870662
-0.00867343
-0.00925087
-0.0100382
-0.0110275
-0.0122023
-0.0137913
-0.0161741
-0.019352
-0.0224145
-0.0247882
-0.0789106
-0.0121068
-0.0073586
-0.00788135
-0.00792735
-0.00857862
-0.00796378
-0.00786641
-0.00726955
-0.00722988
-0.00769853
-0.00886924
-0.0109213
-0.0138254
-0.0178619
-0.0227546
-0.0286431
-0.0339179
-0.0357834
-0.0338128
-0.00522464
-0.00792727
-0.0080809
-0.00743222
-0.0063732
-0.00657348
-0.00665419
-0.00682409
-0.00671677
-0.00675538
-0.00743719
-0.00905546
-0.0116003
-0.0155084
-0.0228197
-0.0256584
-0.0267411
-0.0252025
-0.0225058
-0.021351
-0.00521503
-0.0102167
-0.0106158
-0.0109345
-0.00851621
-0.0066394
-0.00633998
-0.00644534
-0.00643484
-0.00683523
-0.00832218
-0.0111434
-0.0152545
-0.0208157
-0.0286297
-0.0243339
-0.0229449
-0.0207791
-0.0188944
-0.0182238
-0.00213479
-0.00789398
-0.0183435
-0.0261948
-0.027444
-0.0173107
-0.0085054
-0.00686122
-0.00711979
-0.00826231
-0.0115498
-0.0167821
-0.0226316
-0.0272238
-0.0254985
-0.0258256
-0.0283707
-0.0305151
-0.0315418
-0.030682
-0.00142428
-0.00902761
-0.0158443
-0.0295841
-0.0599792
-0.0589974
-0.0430004
-0.0304032
-0.0237233
-0.0196
-0.0198594
-0.0225529
-0.0248855
-0.0263104
-0.0281139
-0.0283357
-0.0301168
-0.0330531
-0.036731
-0.0399234
-0.00166259
-0.00650321
-0.0113126
-0.0246772
-0.0561305
-0.0468856
-0.0294375
-0.040664
-0.0513586
-0.0483692
-0.0408802
-0.0374828
-0.0362679
-0.0362717
-0.0336207
-0.0275347
-0.0273097
-0.0276887
-0.0291948
-0.0316358
-0.00243211
-0.00589571
-0.0101054
-0.0217908
-0.0356121
-0.0197544
-0.0178742
-0.0230926
-0.0272653
-0.0320977
-0.0339559
-0.0357223
-0.0344155
-0.0328121
-0.0272454
-0.0267097
-0.026106
-0.0258782
-0.0262017
-0.0270799
-0.00395579
-0.00973328
-0.00950136
-0.0154131
-0.0229103
-0.0151231
-0.0142931
-0.0155846
-0.0190729
-0.0220215
-0.0242006
-0.0259258
-0.0270709
-0.0288337
-0.0305149
-0.0318906
-0.0318395
-0.0304703
-0.0293181
-0.0290381
-0.00511153
-0.00939648
-0.00940485
-0.0126619
-0.0129474
-0.010706
-0.0121927
-0.0147272
-0.0193745
-0.0242011
-0.0294418
-0.0322408
-0.0328842
-0.0343765
-0.0375717
-0.0412918
-0.0411066
-0.0367437
-0.0319027
-0.0291318
-0.00809425
-0.0112487
-0.0145222
-0.0153569
-0.0155298
-0.012736
-0.0138526
-0.0166278
-0.0207087
-0.0251591
-0.0299695
-0.0341423
-0.0385632
-0.0420064
-0.0470743
-0.0523192
-0.0548967
-0.0502709
-0.0422521
-0.0342625
-0.0109035
-0.0141799
-0.0106895
-0.0141504
-0.0141357
-0.0160973
-0.0196986
-0.0248301
-0.0311168
-0.037022
-0.0427578
-0.0467693
-0.0502906
-0.0516086
-0.0535626
-0.0515213
-0.0451642
-0.0371832
-0.0309662
-0.0265866
-0.0228765
-0.0177728
-0.00822439
-0.00966836
-0.012722
-0.0187032
-0.0244409
-0.0311909
-0.0413843
-0.0513236
-0.061755
-0.0671029
-0.0665494
-0.0583638
-0.0486506
-0.0386661
-0.0314763
-0.0280028
-0.0269647
-0.0258194
-0.0104147
-0.00459688
-0.00309773
-0.00374548
-0.00549861
-0.00861824
-0.0119267
-0.0142861
-0.0188635
-0.0262291
-0.0374397
-0.0480387
-0.0594861
-0.0643109
-0.0634693
-0.0557483
-0.049299
-0.0487141
-0.0520704
-0.0541044
-0.00204086
-0.00296984
-0.00405477
-0.00670286
-0.0118845
-0.0172401
-0.0207059
-0.0161574
-0.0111398
-0.0100236
-0.0132623
-0.0198193
-0.0279692
-0.036451
-0.0454536
-0.0553889
-0.0678995
-0.0859399
-0.111814
-0.137539
-0.00366741
-0.00942717
-0.0107545
-0.00844403
-0.00632995
-0.00553216
-0.00535307
-0.00540146
-0.00562609
-0.0061448
-0.00700992
-0.00826943
-0.00970043
-0.0110844
-0.0124246
-0.0136904
-0.0151064
-0.0163938
-0.0180797
-0.0200513
-0.00297422
-0.00572131
-0.00761782
-0.0119598
-0.0092179
-0.00660546
-0.00611879
-0.00661187
-0.00757673
-0.00901241
-0.0109325
-0.012983
-0.0152172
-0.0171655
-0.0192648
-0.0207618
-0.0220008
-0.0231976
-0.0249255
-0.0268968
-0.00703084
-0.00712925
-0.00852936
-0.00896199
-0.00838102
-0.00782215
-0.00810153
-0.00893148
-0.0104048
-0.0119887
-0.0139976
-0.0155606
-0.0173447
-0.0184383
-0.0195195
-0.0201512
-0.0205927
-0.0210799
-0.0215653
-0.0219512
-0.00726793
-0.00712086
-0.00886528
-0.00979832
-0.00887185
-0.00849967
-0.00820237
-0.0082418
-0.00872077
-0.00959937
-0.0107024
-0.0118082
-0.0128953
-0.0137079
-0.0144045
-0.0149321
-0.0153845
-0.0160317
-0.0169228
-0.0178702
-0.00284502
-0.00486417
-0.00743851
-0.0105053
-0.0108279
-0.0100531
-0.00865852
-0.00752058
-0.00696625
-0.00718309
-0.00778409
-0.00862673
-0.00935189
-0.0100155
-0.0106
-0.0112692
-0.0120959
-0.0132174
-0.0146168
-0.0160712
-0.0121884
-0.00778475
-0.00692684
-0.00746948
-0.00719886
-0.00738492
-0.00610297
-0.00563458
-0.00538429
-0.00575151
-0.00631443
-0.00705766
-0.00774637
-0.00848322
-0.00930548
-0.0103416
-0.0116818
-0.0132787
-0.0150462
-0.0169092
-0.0169522
-0.00527424
-0.00513327
-0.00592463
-0.00627258
-0.00626442
-0.00532916
-0.00497865
-0.00504403
-0.0055723
-0.00646553
-0.0074867
-0.00873691
-0.0100617
-0.0116196
-0.01324
-0.0150571
-0.0166427
-0.0177831
-0.0188576
-0.00369688
-0.00482323
-0.00482533
-0.00482351
-0.00505313
-0.00535116
-0.00514297
-0.00480169
-0.00498891
-0.00578785
-0.00672274
-0.0079613
-0.00919366
-0.0106172
-0.0112793
-0.0121671
-0.0130374
-0.0138774
-0.0151742
-0.0170259
-0.00209106
-0.00481504
-0.00470439
-0.00517517
-0.00519683
-0.00500291
-0.00502158
-0.00484968
-0.00539562
-0.00668258
-0.0081029
-0.00950676
-0.0106463
-0.011527
-0.0113938
-0.0114488
-0.011935
-0.0124802
-0.0133775
-0.0146796
-0.00334299
-0.00528515
-0.00818254
-0.0108802
-0.0111575
-0.00875197
-0.00610416
-0.00576853
-0.00687679
-0.00851999
-0.0102511
-0.0116854
-0.0127846
-0.0137365
-0.0153695
-0.0175159
-0.0178917
-0.0177762
-0.0172398
-0.016564
-0.00165617
-0.00362369
-0.00806102
-0.0180431
-0.030679
-0.0267297
-0.0199104
-0.0177631
-0.0172709
-0.0163658
-0.0158367
-0.0164387
-0.0174781
-0.0188733
-0.0201301
-0.0209214
-0.0225964
-0.023882
-0.0245721
-0.0244695
-0.00306571
-0.00498034
-0.00837998
-0.0164007
-0.025121
-0.0200675
-0.0148692
-0.0213361
-0.025183
-0.0253011
-0.0229931
-0.0203637
-0.0189335
-0.0185562
-0.0175913
-0.0173382
-0.0185173
-0.0197824
-0.0210049
-0.021913
-0.00525008
-0.00596548
-0.00873699
-0.0135425
-0.0143445
-0.0103802
-0.0121948
-0.0160333
-0.0169913
-0.0174278
-0.0168426
-0.01661
-0.0159008
-0.0155826
-0.0148711
-0.0151198
-0.0154294
-0.0158525
-0.0163379
-0.0168137
-0.00232835
-0.00722568
-0.00744958
-0.00938867
-0.00940917
-0.00865013
-0.0108677
-0.0121821
-0.0131607
-0.0139329
-0.0141692
-0.0144793
-0.014577
-0.0148678
-0.0151056
-0.0153217
-0.0154037
-0.015446
-0.0157248
-0.0161698
-0.0108692
-0.00875496
-0.00679596
-0.00736112
-0.00707426
-0.00831664
-0.0105925
-0.0127431
-0.0146021
-0.0160374
-0.0169428
-0.0170669
-0.0167412
-0.0166078
-0.0168153
-0.0169566
-0.0162569
-0.0153902
-0.0150361
-0.0152913
-0.00579666
-0.00872044
-0.00771134
-0.00806549
-0.00834049
-0.00998675
-0.0123738
-0.0152184
-0.0172428
-0.0186786
-0.0197121
-0.0199776
-0.0204971
-0.0202861
-0.0207205
-0.0205331
-0.0195209
-0.0173395
-0.0154874
-0.0144179
-0.00843008
-0.0069087
-0.00651348
-0.00830533
-0.0101261
-0.0134429
-0.0167822
-0.020323
-0.0229035
-0.02426
-0.024928
-0.024359
-0.0238631
-0.0224629
-0.0216439
-0.0196644
-0.0173648
-0.0155278
-0.0144572
-0.0137495
-0.00932144
-0.00473601
-0.00471758
-0.00713034
-0.00958582
-0.0140292
-0.0186261
-0.0234954
-0.0288032
-0.0316788
-0.0335512
-0.0321076
-0.0294065
-0.0257133
-0.0235867
-0.0223974
-0.0221668
-0.0224221
-0.022405
-0.0210974
-0.00879449
-0.00347326
-0.0031428
-0.00428193
-0.00595172
-0.00720198
-0.0087207
-0.0115762
-0.0159975
-0.0207717
-0.0258737
-0.0292222
-0.0329093
-0.0345202
-0.0362877
-0.0382988
-0.0419963
-0.0465504
-0.0502442
-0.0503611
-0.000528977
-0.0019406
-0.00395166
-0.00701878
-0.0097038
-0.0096166
-0.00881304
-0.00651378
-0.00666064
-0.00961786
-0.0144995
-0.0205012
-0.0269986
-0.033887
-0.0416255
-0.0509136
-0.0626389
-0.0769409
-0.0929075
-0.105654
-0.00791774
-0.0106785
-0.00915587
-0.00656614
-0.004951
-0.00429619
-0.00433368
-0.00491352
-0.00593656
-0.00721281
-0.00852472
-0.00971475
-0.0108748
-0.0120463
-0.0133072
-0.0147004
-0.0162374
-0.0179852
-0.0198487
-0.0219654
-0.00358798
-0.00724822
-0.00803321
-0.00668454
-0.0054404
-0.00541393
-0.00596095
-0.00697853
-0.0081239
-0.00920064
-0.0100831
-0.0107113
-0.0113009
-0.0117576
-0.012309
-0.0127686
-0.0132508
-0.0137803
-0.0144777
-0.0152729
-0.000600874
-0.00395145
-0.00668514
-0.00733061
-0.00684256
-0.00676559
-0.00724417
-0.00804023
-0.0090431
-0.00991034
-0.0107531
-0.011313
-0.0118137
-0.0120444
-0.01224
-0.0122864
-0.0122928
-0.0123617
-0.0125348
-0.0127824
-0.00183971
-0.00597633
-0.00771773
-0.00801252
-0.00715536
-0.00678269
-0.00685503
-0.00749486
-0.00831085
-0.00915373
-0.00984536
-0.0103983
-0.010808
-0.0110979
-0.0113193
-0.0114796
-0.01162
-0.011812
-0.0120904
-0.0124019
-0.00450995
-0.0085556
-0.00772544
-0.00779288
-0.00675664
-0.00585316
-0.00571959
-0.00636403
-0.00714499
-0.00803959
-0.00875969
-0.00943004
-0.00997524
-0.0104594
-0.010868
-0.01122
-0.0115402
-0.011851
-0.0121926
-0.0125079
-0.00338012
-0.00905585
-0.00774436
-0.00531972
-0.00435408
-0.00452027
-0.00477799
-0.00557161
-0.00638498
-0.007275
-0.00806689
-0.00885501
-0.0095875
-0.010293
-0.0109689
-0.0116015
-0.0122003
-0.0127527
-0.0132788
-0.013719
-0.0109841
-0.0058384
-0.00511212
-0.00466927
-0.00403052
-0.00400456
-0.00456514
-0.00534397
-0.00621599
-0.00706832
-0.00792242
-0.0087698
-0.00961263
-0.0104487
-0.0112822
-0.0120916
-0.0128737
-0.0135873
-0.0142099
-0.0147351
-0.00756943
-0.00654156
-0.0052418
-0.00429787
-0.00398648
-0.0040375
-0.0043345
-0.00527828
-0.00593724
-0.0067496
-0.0074197
-0.00813966
-0.00882543
-0.00956159
-0.01084
-0.0115373
-0.0121759
-0.0127428
-0.0132572
-0.0137061
-0.00195863
-0.00360701
-0.00376676
-0.0043274
-0.00472203
-0.00439772
-0.00432276
-0.00523314
-0.00593396
-0.00656699
-0.00709298
-0.00761891
-0.00816802
-0.00874209
-0.00977989
-0.0108575
-0.0113204
-0.0117039
-0.0120451
-0.0123455
-0.000520129
-0.00246254
-0.00433087
-0.00641098
-0.00728839
-0.00685674
-0.00592467
-0.00653284
-0.00745867
-0.00829139
-0.00913889
-0.00986603
-0.010319
-0.0104871
-0.0109786
-0.0115268
-0.011495
-0.0114249
-0.0113891
-0.0114195
-0.00114206
-0.0032511
-0.00614535
-0.0102914
-0.0123771
-0.012552
-0.0119966
-0.0127102
-0.0124245
-0.0121537
-0.0127184
-0.0134729
-0.0140377
-0.0146779
-0.0146893
-0.0132125
-0.0129127
-0.0124512
-0.012089
-0.0119377
-0.00768265
-0.00655226
-0.00748444
-0.0101156
-0.0109845
-0.0111648
-0.0110262
-0.0140652
-0.0144825
-0.0136567
-0.0130702
-0.0129043
-0.0128951
-0.0131455
-0.0126556
-0.0114806
-0.0113734
-0.011143
-0.011023
-0.0111554
-0.00718477
-0.00543543
-0.00687234
-0.00849051
-0.00872139
-0.00882823
-0.00999656
-0.0108712
-0.0108001
-0.0107529
-0.0105271
-0.0104253
-0.0102201
-0.0101493
-0.00961125
-0.00970768
-0.00980319
-0.00999995
-0.0103133
-0.0107257
-0.00211379
-0.0050742
-0.00569585
-0.00667838
-0.00726783
-0.00817357
-0.00918958
-0.00940294
-0.00945147
-0.00938311
-0.00928886
-0.00921689
-0.00918435
-0.00921425
-0.00931724
-0.00948113
-0.00973491
-0.0100937
-0.0105982
-0.0111561
-0.00683253
-0.00640922
-0.00516352
-0.00594761
-0.00702997
-0.008357
-0.00926477
-0.0097607
-0.00985382
-0.00979314
-0.00965248
-0.00941615
-0.00924348
-0.00918481
-0.0092732
-0.0094562
-0.00968492
-0.0100739
-0.0106462
-0.0112684
-0.011817
-0.00658048
-0.00542876
-0.00646707
-0.00787954
-0.00940466
-0.0102825
-0.0107851
-0.0108498
-0.0106824
-0.0105078
-0.0101705
-0.0100477
-0.0098093
-0.00984054
-0.0098532
-0.00995932
-0.0101648
-0.0105966
-0.0111099
-0.00647208
-0.0063461
-0.00622499
-0.0075412
-0.00939384
-0.0112128
-0.0122311
-0.0127605
-0.012754
-0.0123943
-0.0120425
-0.0115041
-0.0111326
-0.0106707
-0.0104751
-0.0102677
-0.0102461
-0.0104745
-0.010901
-0.0113548
-0.00633148
-0.00504568
-0.00572883
-0.00682126
-0.00886442
-0.0119937
-0.0140618
-0.0154189
-0.016144
-0.0158663
-0.0156382
-0.0150038
-0.0144794
-0.0139367
-0.0136249
-0.0134235
-0.0133353
-0.0132885
-0.0132037
-0.0130065
-0.00528459
-0.00470211
-0.00351912
-0.0038119
-0.00524234
-0.00793583
-0.0107955
-0.0145909
-0.0177466
-0.0201411
-0.0221361
-0.0238
-0.0254663
-0.0269089
-0.0282161
-0.0294753
-0.0303224
-0.0303264
-0.0288295
-0.026045
-0.000245513
-0.00103949
-0.00192644
-0.00304082
-0.00379366
-0.00379414
-0.00472448
-0.00724631
-0.0117927
-0.0173404
-0.0228625
-0.0280637
-0.0331196
-0.0384307
-0.0440109
-0.0498058
-0.0555413
-0.0604867
-0.0636319
-0.0620897
-0.0105109
-0.0146398
-0.0160824
-0.00945153
-0.0116241
-0.0150767
-0.0162269
-0.0153682
-0.0168413
-0.0194468
-0.0123373
-0.0141206
-0.0165829
-0.0171622
-0.0194842
-0.0448431
-0.0378435
-0.0181027
-0.0181605
-0.0276792
-0.0261464
-0.0218373
-0.0364454
-0.0343473
-0.0182399
-0.0185073
-0.0256267
-0.0239355
-0.113558
-0.10861
-0.10484
-0.0995669
-0.0735605
-0.0747216
-0.0617566
-0.112995
-0.104634
-0.104993
-0.0698085
-0.0806816
-0.0633611
-0.0705176
-0.120961
-0.104869
-0.101496
-0.0868397
-0.0955928
-0.0702773
-0.0635206
-0.124375
-0.0997987
-0.0942967
-0.0967686
-0.0950191
-0.0607738
-0.0536886
-0.120411
-0.0925043
-0.0872565
-0.0933777
-0.0859643
-0.0527344
-0.053131
-0.116429
-0.0859017
-0.0839044
-0.083894
-0.0789741
-0.0538105
-0.0554768
-0.114443
-0.0837976
-0.0842802
-0.0776599
-0.0751959
-0.0566496
-0.0631701
-0.114271
-0.0846254
-0.0861073
-0.0751119
-0.0772454
-0.0664638
-0.0781691
-0.107026
-0.130787
-0.114248
-0.0855544
-0.0625882
-0.115293
-0.0961538
-0.104205
-0.110244
-0.10052
-0.0648067
-0.0683266
-0.0909008
-0.0778049
-0.0975731
-0.097662
-0.0901441
-0.0665654
-0.0569833
-0.0741917
-0.0646054
-0.0891977
-0.0881739
-0.0842358
-0.0539445
-0.048787
-0.0620936
-0.0581614
-0.0836367
-0.0835767
-0.0835644
-0.0490104
-0.0534394
-0.0583547
-0.0608654
-0.0827914
-0.084129
-0.0866434
-0.0553109
-0.0608671
-0.0619718
-0.067925
-0.0852724
-0.0874189
-0.0888186
-0.0633466
-0.0738137
-0.0711327
-0.0822036
-0.0886918
-0.0890004
-0.0892186
-0.0779912
-0.0906617
-0.0856757
-0.091502
-0.123857
-0.148192
-0.140918
-0.132827
-0.117452
-0.137801
-0.137468
-0.105115
-0.137504
-0.129411
-0.111319
-0.0958586
-0.135938
-0.132113
-0.0927212
-0.126899
-0.116611
-0.0914355
-0.07908
-0.130777
-0.123736
-0.086351
-0.112803
-0.101697
-0.0753913
-0.0672467
-0.120211
-0.105868
-0.0853998
-0.098576
-0.0923431
-0.0655686
-0.0622675
-0.10042
-0.0840214
-0.0876866
-0.0912719
-0.0894909
-0.0617844
-0.0641888
-0.0794496
-0.0722618
-0.0884814
-0.0889874
-0.0869855
-0.0661538
-0.0736456
-0.0722278
-0.0763547
-0.0872723
-0.0861537
-0.0833974
-0.0762545
-0.0816521
-0.0785488
-0.0850426
-0.138024
-0.13866
-0.137702
-0.128045
-0.130569
-0.121515
-0.117048
-0.129768
-0.13677
-0.13858
-0.130994
-0.131557
-0.121006
-0.133846
-0.122391
-0.140178
-0.141114
-0.131584
-0.129137
-0.136238
-0.138247
-0.109962
-0.141831
-0.138269
-0.127165
-0.11626
-0.13797
-0.133381
-0.0963869
-0.13509
-0.118053
-0.111488
-0.0964293
-0.131568
-0.123769
-0.0908302
-0.113658
-0.105617
-0.0919098
-0.0827812
-0.122617
-0.122078
-0.0875801
-0.105576
-0.107916
-0.0819874
-0.084013
-0.124134
-0.129266
-0.0838287
-0.110965
-0.122867
-0.0857298
-0.0907026
-0.13287
-0.144429
-0.00908591
-0.00998727
-0.00903901
-0.00901547
-0.00794165
-0.00864246
-0.0077659
-0.00965306
-0.0090159
-0.00970383
-0.00795167
-0.00848231
-0.00786517
-0.00810314
-0.0104163
-0.00957085
-0.00926305
-0.00869964
-0.00911256
-0.0081097
-0.00830199
-0.0108155
-0.00933016
-0.0100543
-0.00930735
-0.00996899
-0.00854771
-0.010179
-0.0114961
-0.0105562
-0.0132597
-0.0103012
-0.0116213
-0.0110695
-0.0148166
-0.0136229
-0.014605
-0.0202477
-0.0123209
-0.014915
-0.0163744
-0.0218724
-0.0178977
-0.0226987
-0.0323518
-0.0161368
-0.0205421
-0.0239157
-0.0302532
-0.0255467
-0.036326
-0.0503603
-0.0224771
-0.0289345
-0.0322544
-0.0371334
-0.0102781
-0.0420829
-0.0444849
-0.0143868
-0.00877276
-0.0302021
-0.0227595
-0.010084
-0.0432028
-0.0358013
-0.00861326
-0.00843626
-0.0208413
-0.0171269
-0.00937303
-0.0327439
-0.0229574
-0.00839085
-0.0086576
-0.0163908
-0.0153926
-0.0105761
-0.0207645
-0.0181786
-0.00899514
-0.0111466
-0.0154725
-0.0173501
-0.0152488
-0.0189391
-0.0237546
-0.0122848
-0.0168785
-0.0184672
-0.0224598
-0.0248171
-0.0260671
-0.0348798
-0.0187183
-0.0248198
-0.0238507
-0.0278768
-0.0404697
-0.038232
-0.0481078
-0.0269156
-0.0326292
-0.0290894
-0.0316906
-0.0595458
-0.0509227
-0.0560196
-0.0341281
-0.0368204
-0.0321266
-0.032229
-0.0760496
-0.0925758
-0.0970415
-0.0613166
-0.0403407
-0.0685477
-0.0567994
-0.0636666
-0.102563
-0.115818
-0.036709
-0.029307
-0.0577654
-0.0653388
-0.0421003
-0.117379
-0.111586
-0.0272568
-0.022536
-0.0662467
-0.0599086
-0.0275121
-0.106808
-0.0852246
-0.0216804
-0.02166
-0.0560324
-0.0450174
-0.0271417
-0.0769037
-0.0573376
-0.0223592
-0.0250066
-0.0426827
-0.0395783
-0.0362999
-0.0543169
-0.0525567
-0.026013
-0.0290188
-0.0393885
-0.0397308
-0.0459422
-0.0534397
-0.0573853
-0.029908
-0.0318836
-0.040073
-0.0413191
-0.0518308
-0.0588855
-0.0631897
-0.032325
-0.0331446
-0.0417847
-0.0430548
-0.0801476
-0.0618429
-0.0465092
-0.0558885
-0.0489942
-0.0510703
-0.0357547
-0.108874
-0.049454
-0.0693075
-0.0505734
-0.0608905
-0.0362545
-0.0402475
-0.117705
-0.076881
-0.0915844
-0.0636793
-0.0636062
-0.0421653
-0.0469351
-0.100866
-0.0907796
-0.0901583
-0.0612173
-0.0515692
-0.0476506
-0.049988
-0.0739188
-0.0911105
-0.0940554
-0.0489803
-0.0443268
-0.0509337
-0.0530229
-0.0628327
-0.0940683
-0.0923528
-0.0436728
-0.0427973
-0.0536059
-0.0542152
-0.0640941
-0.0918238
-0.0906596
-0.0428331
-0.0432252
-0.0544217
-0.0543249
-0.0682487
-0.0910755
-0.0916336
-0.0434534
-0.0440766
-0.0544778
-0.0543775
-0.00641758
-0.00617342
-0.00631172
-0.00614515
-0.00584131
-0.00586616
-0.00596236
-0.00643973
-0.00642394
-0.00665406
-0.00588046
-0.00613136
-0.00610305
-0.00654104
-0.00662567
-0.00671494
-0.00724397
-0.00625237
-0.00690468
-0.00677161
-0.00802073
-0.0078034
-0.00761378
-0.00954493
-0.0072873
-0.00860278
-0.00862655
-0.0107759
-0.0102685
-0.0104592
-0.0139504
-0.00919401
-0.0110706
-0.0115157
-0.0134629
-0.0140273
-0.0152907
-0.0196991
-0.0117837
-0.0137327
-0.0139803
-0.0150287
-0.0192418
-0.0212308
-0.0256641
-0.014459
-0.0163618
-0.0152538
-0.015587
-0.0255859
-0.0269657
-0.0297807
-0.0170035
-0.0184018
-0.0156363
-0.015718
-0.00687604
-0.0196914
-0.0185874
-0.00775605
-0.0065715
-0.0151188
-0.0140967
-0.00703638
-0.0176405
-0.0153914
-0.00664575
-0.00712451
-0.0138547
-0.0137922
-0.00781211
-0.0149276
-0.0143357
-0.00740989
-0.0088155
-0.0139446
-0.0147076
-0.0107221
-0.00886126
-0.00931891
-0.00881662
-0.00996771
-0.00954328
-0.0099614
-0.0146484
-0.0127252
-0.0128206
-0.0124066
-0.0140407
-0.0135079
-0.0135897
-0.0211972
-0.0203168
-0.0227032
-0.0145532
-0.0153804
-0.0172994
-0.0176901
-0.0263237
-0.0233915
-0.0249074
-0.0155516
-0.0159266
-0.0178945
-0.0188312
-0.0286019
-0.0252149
-0.0257638
-0.0160446
-0.0165749
-0.0192274
-0.0205838
-0.0326437
-0.0448826
-0.0447359
-0.0270203
-0.0205146
-0.0283486
-0.0258498
-0.0251675
-0.0469123
-0.052849
-0.0197652
-0.0186253
-0.0267917
-0.0290105
-0.0204999
-0.0530809
-0.0476017
-0.0184412
-0.0182306
-0.0291388
-0.0281737
-0.0244945
-0.0193715
-0.0276031
-0.0191723
-0.0263731
-0.0195827
-0.0251202
-0.0245769
-0.0203747
-0.0248953
-0.0210805
-0.0249798
-0.0216465
-0.0243555
-0.024397
-0.0341196
-0.0339666
-0.0185845
-0.0188551
-0.0234488
-0.0223721
-0.0260064
-0.0340783
-0.0346998
-0.0190258
-0.0197888
-0.022176
-0.0219002
-0.0272197
-0.035015
-0.0360704
-0.0201005
-0.0211458
-0.0218874
-0.0220464
-0.0371928
-0.0212792
-0.0232677
-0.0217922
-0.0229737
-0.0179077
-0.0191882
-0.0496869
-0.0264489
-0.0315862
-0.0244888
-0.0281996
-0.0208052
-0.0235962
-0.0501662
-0.0334413
-0.0379327
-0.0288375
-0.0290827
-0.0244882
-0.0263653
-0.0423263
-0.0385261
-0.0400314
-0.0288469
-0.0275546
-0.0265792
-0.0263346
-0.038015
-0.0405376
-0.0416877
-0.0270224
-0.0251169
-0.0261322
-0.0252291
-0.0364085
-0.041463
-0.0399587