/*--------------------------------*- C++ -*----------------------------------*\
  =========                 |
  \\      /  F ield         | OpenFOAM: The Open Source CFD Toolbox
   \\    /   O peration     | Website:  https://openfoam.org
    \\  /    A nd           | Version:  10
     \\/     M anipulation  |
\*---------------------------------------------------------------------------*/
FoamFile
{
    format      ascii;
    class       volScalarField;
    location    "8.1";
    object      turbidity;
}
// * * * * * * * * * * * * * * * * * * * * * * * * * * * * * * * * * * * * * //

dimensions      [0 0 0 0 0 0 0];

internalField   nonuniform List<scalar> 
12920
(
-0.0194986
-0.0253898
-0.0308905
-0.0455866
-0.0784666
-0.118657
-0.151187
-0.173168
-0.185697
-0.187017
-0.183636
-0.176715
-0.174052
-0.180396
-0.202329
-0.240097
-0.285792
-0.335027
-0.3808
-0.419507
-0.0257005
-0.0412339
-0.049289
-0.0668606
-0.0968947
-0.131141
-0.15483
-0.167442
-0.182374
-0.197329
-0.214235
-0.230277
-0.248952
-0.2688
-0.29251
-0.322813
-0.361049
-0.402058
-0.440223
-0.472037
-0.019418
-0.0588126
-0.0751623
-0.0908118
-0.111155
-0.13546
-0.158876
-0.178247
-0.19984
-0.219789
-0.241317
-0.26251
-0.284759
-0.309052
-0.336171
-0.365591
-0.396385
-0.425251
-0.449576
-0.468717
-0.0281681
-0.0693542
-0.0887667
-0.114296
-0.127369
-0.141824
-0.157389
-0.17195
-0.191388
-0.21055
-0.233367
-0.256887
-0.283115
-0.309944
-0.337271
-0.364423
-0.389795
-0.41178
-0.429036
-0.443663
-0.0323548
-0.0694796
-0.0823933
-0.102898
-0.120985
-0.138903
-0.161583
-0.182814
-0.205775
-0.226283
-0.246752
-0.265173
-0.285244
-0.30555
-0.326772
-0.34741
-0.366239
-0.382149
-0.396859
-0.411364
-0.130828
-0.0802007
-0.0874806
-0.12057
-0.140825
-0.160987
-0.179429
-0.199134
-0.219682
-0.237922
-0.258582
-0.278016
-0.298264
-0.316656
-0.334501
-0.350644
-0.366149
-0.380912
-0.394945
-0.408566
-0.08284
-0.0683395
-0.0788699
-0.106883
-0.123116
-0.139731
-0.157285
-0.182737
-0.209537
-0.237173
-0.262007
-0.28282
-0.301051
-0.316747
-0.331413
-0.344442
-0.360218
-0.375539
-0.389416
-0.403186
-0.125149
-0.0641477
-0.0768283
-0.108128
-0.122587
-0.134358
-0.132094
-0.135035
-0.153956
-0.166683
-0.183447
-0.193796
-0.204822
-0.21178
-0.198476
-0.228259
-0.253233
-0.275152
-0.296491
-0.315913
-0.0348691
-0.0529049
-0.0768677
-0.107063
-0.134523
-0.122569
-0.118435
-0.112139
-0.115204
-0.122246
-0.124213
-0.119153
-0.115742
-0.11399
-0.113443
-0.15439
-0.197488
-0.234094
-0.265684
-0.293382
-0.0198167
-0.0466507
-0.0674848
-0.0879955
-0.137648
-0.150409
-0.120467
-0.105974
-0.10325
-0.0954606
-0.0876039
-0.0829394
-0.0831939
-0.0859979
-0.104984
-0.151154
-0.187514
-0.220532
-0.252816
-0.284477
-0.0310354
-0.0480203
-0.0588044
-0.0699246
-0.0960018
-0.125981
-0.142278
-0.118576
-0.101557
-0.0906213
-0.0856184
-0.0857733
-0.0881044
-0.0882264
-0.0975702
-0.140574
-0.18123
-0.2192
-0.254546
-0.286102
-0.063552
-0.0572946
-0.0573096
-0.0699506
-0.103903
-0.129141
-0.143032
-0.135643
-0.128402
-0.119957
-0.106185
-0.0943406
-0.0900557
-0.0866796
-0.0977089
-0.192822
-0.252374
-0.304245
-0.345188
-0.373319
-0.0379382
-0.0588668
-0.0689086
-0.0934717
-0.123812
-0.151643
-0.14607
-0.144319
-0.152499
-0.159434
-0.162714
-0.155069
-0.160966
-0.174392
-0.295028
-0.359932
-0.416532
-0.465712
-0.506195
-0.532821
-0.0160886
-0.0453814
-0.0658957
-0.0858944
-0.114122
-0.139773
-0.160836
-0.179304
-0.201394
-0.23474
-0.272877
-0.309344
-0.341398
-0.372078
-0.408592
-0.451067
-0.49924
-0.55282
-0.607556
-0.65359
-0.0645758
-0.0538141
-0.0636448
-0.0952954
-0.115432
-0.12983
-0.143622
-0.143042
-0.152514
-0.163769
-0.190107
-0.221235
-0.259584
-0.298062
-0.341033
-0.390654
-0.450926
-0.523961
-0.603905
-0.680274
-0.0173655
-0.026739
-0.0513054
-0.0885441
-0.113774
-0.128904
-0.13896
-0.145387
-0.155176
-0.167098
-0.184098
-0.203705
-0.227888
-0.256427
-0.289645
-0.32831
-0.377462
-0.444394
-0.528665
-0.619116
-0.0274916
-0.037371
-0.0721417
-0.10942
-0.132205
-0.145683
-0.153958
-0.163763
-0.174887
-0.190088
-0.208302
-0.23021
-0.254821
-0.283509
-0.316826
-0.358054
-0.410822
-0.475772
-0.548659
-0.622505
-0.0455581
-0.0455166
-0.0515278
-0.09581
-0.128715
-0.162598
-0.186328
-0.205413
-0.221806
-0.240042
-0.258844
-0.280239
-0.304261
-0.333274
-0.36739
-0.408118
-0.454791
-0.502579
-0.54555
-0.58372
-0.0387326
-0.0406824
-0.0559446
-0.06443
-0.0805356
-0.112397
-0.153689
-0.188273
-0.212935
-0.227507
-0.240657
-0.255419
-0.277745
-0.313542
-0.360962
-0.414466
-0.466893
-0.508816
-0.530566
-0.538674
-0.056078
-0.0508504
-0.0526273
-0.0669823
-0.0822564
-0.103706
-0.124804
-0.148716
-0.169628
-0.17732
-0.179152
-0.180283
-0.187088
-0.201679
-0.23282
-0.271346
-0.305839
-0.3332
-0.354057
-0.37927
-0.0199818
-0.0114961
-0.0148186
-0.0184358
-0.0295609
-0.0323577
-0.0319375
-0.0294175
-0.0262304
-0.0220974
-0.0187722
-0.0171378
-0.0185622
-0.023353
-0.0324368
-0.0453154
-0.0577098
-0.0556746
-0.0540762
-0.0571271
-0.0365461
-0.0191019
-0.0394674
-0.048461
-0.0529713
-0.0362779
-0.0211045
-0.0164504
-0.0182833
-0.0222949
-0.028674
-0.0378297
-0.0521565
-0.0715867
-0.0937147
-0.107567
-0.110736
-0.10912
-0.114016
-0.126562
-0.0187636
-0.0168686
-0.0305802
-0.0400212
-0.040937
-0.0281472
-0.0212199
-0.0188678
-0.0223541
-0.0297428
-0.0425513
-0.0583914
-0.0780263
-0.0947396
-0.106945
-0.109321
-0.10275
-0.0952864
-0.0902405
-0.0902014
-0.0128381
-0.0150353
-0.0160386
-0.0213634
-0.0197193
-0.0183358
-0.0176698
-0.0177675
-0.0191291
-0.0221845
-0.0283869
-0.0377882
-0.0508854
-0.0636213
-0.0737155
-0.0764716
-0.0712792
-0.0612461
-0.0534538
-0.0530328
-0.00953967
-0.0156046
-0.0126824
-0.0160864
-0.0164142
-0.0177839
-0.0223988
-0.0233339
-0.0248805
-0.0229768
-0.0227875
-0.0245553
-0.0285689
-0.0331212
-0.0367562
-0.0378635
-0.0368533
-0.0356088
-0.0365768
-0.0414245
-0.0116633
-0.0142987
-0.0121966
-0.0241441
-0.0188449
-0.0228064
-0.0208014
-0.0189295
-0.0180937
-0.0178201
-0.0184343
-0.0197831
-0.021562
-0.0233217
-0.0248631
-0.0267221
-0.0310439
-0.0412761
-0.053779
-0.0608823
-0.0658736
-0.0142228
-0.012003
-0.0156184
-0.0145527
-0.0146623
-0.0128934
-0.012851
-0.0129115
-0.0138017
-0.014672
-0.0158009
-0.0173526
-0.0199855
-0.0250331
-0.0339803
-0.0518579
-0.0771152
-0.0940289
-0.0929914
-0.040874
-0.0142852
-0.0148731
-0.0171535
-0.0121723
-0.00992833
-0.0097496
-0.0103096
-0.0113788
-0.0121708
-0.0128107
-0.0135726
-0.015036
-0.0179231
-0.0315077
-0.0443518
-0.0589486
-0.0652368
-0.059544
-0.0491501
-0.0154964
-0.0225705
-0.0275376
-0.0320128
-0.0239872
-0.0138415
-0.00975014
-0.00912128
-0.00990907
-0.0105625
-0.0109473
-0.0119163
-0.014461
-0.0194497
-0.0358546
-0.0563867
-0.059394
-0.0556972
-0.0478331
-0.0418762
-0.0058998
-0.017787
-0.0381587
-0.0563375
-0.072487
-0.0505154
-0.0174287
-0.00988602
-0.0098252
-0.00946517
-0.0112989
-0.0170414
-0.027963
-0.0449712
-0.0598412
-0.0481529
-0.050145
-0.0537792
-0.0588786
-0.0636088
-0.00352171
-0.0250635
-0.035512
-0.0469705
-0.07989
-0.0953066
-0.0882322
-0.0735891
-0.0591553
-0.0370581
-0.0262197
-0.0288868
-0.0387826
-0.0477896
-0.0511165
-0.0530087
-0.0547592
-0.0569211
-0.0609407
-0.0678117
-0.00792741
-0.0131984
-0.0144049
-0.0325071
-0.0799357
-0.0908466
-0.0713084
-0.0878511
-0.113683
-0.115805
-0.0941821
-0.0694389
-0.062551
-0.0650575
-0.0690636
-0.0658032
-0.065136
-0.0620243
-0.0592042
-0.0601835
-0.0086498
-0.0132899
-0.0162878
-0.0392975
-0.075701
-0.0570584
-0.0494693
-0.0483286
-0.0566858
-0.0678527
-0.0746241
-0.0842064
-0.086291
-0.0871451
-0.0727878
-0.0729941
-0.0713652
-0.0691538
-0.0669925
-0.0659615
-0.0051903
-0.0166287
-0.0175943
-0.0307268
-0.0564138
-0.0448696
-0.0352128
-0.0266401
-0.0300631
-0.036705
-0.0444463
-0.0506601
-0.0555813
-0.0632158
-0.0740119
-0.0863276
-0.0955507
-0.0964698
-0.0924125
-0.0880373
-0.0301056
-0.0299046
-0.0165964
-0.0248945
-0.0343636
-0.0267188
-0.0235627
-0.0219124
-0.027368
-0.0373415
-0.0537813
-0.0667015
-0.0673818
-0.0686763
-0.0809317
-0.103477
-0.121312
-0.122107
-0.111317
-0.0986253
-0.0176585
-0.0213512
-0.0314606
-0.0372648
-0.041612
-0.0335044
-0.029624
-0.02684
-0.0304991
-0.0353941
-0.0437886
-0.0533442
-0.0668345
-0.0771973
-0.0922401
-0.115454
-0.140602
-0.15197
-0.147913
-0.130075
-0.0185224
-0.0286422
-0.0322729
-0.0381502
-0.0375722
-0.034941
-0.0372362
-0.0410933
-0.0509628
-0.0602232
-0.0719268
-0.0832536
-0.0963567
-0.10823
-0.123509
-0.134625
-0.135917
-0.127123
-0.114895
-0.0999151
-0.0238844
-0.0119662
-0.00919605
-0.0199044
-0.0291795
-0.0408729
-0.0495448
-0.0565377
-0.0701401
-0.0845053
-0.104111
-0.121824
-0.134958
-0.13751
-0.131037
-0.114745
-0.0917198
-0.0700191
-0.0570453
-0.0509555
-0.0040842
-0.00547554
-0.00442335
-0.00580893
-0.00933388
-0.0170895
-0.0261713
-0.0300635
-0.0335067
-0.0405998
-0.0590735
-0.0836138
-0.115636
-0.143428
-0.159564
-0.154269
-0.131284
-0.100275
-0.077923
-0.0664015
-0.00776826
-0.00604248
-0.00568128
-0.00790052
-0.0140888
-0.0257183
-0.0423521
-0.0453971
-0.0333757
-0.0211624
-0.0184129
-0.0235421
-0.0362073
-0.0546999
-0.0742975
-0.0946793
-0.112282
-0.129616
-0.157919
-0.191221
-0.0244661
-0.0146239
-0.0117953
-0.0101421
-0.00982205
-0.0106508
-0.0110558
-0.0105771
-0.00975177
-0.0089053
-0.00867997
-0.00925997
-0.0108132
-0.0131227
-0.0161152
-0.0193034
-0.0226593
-0.024618
-0.0272581
-0.030434
-0.0265159
-0.0120912
-0.02226
-0.0288995
-0.0241025
-0.013874
-0.00966034
-0.00907587
-0.0101611
-0.0121435
-0.0153081
-0.0194176
-0.0249186
-0.0308167
-0.0372255
-0.0412096
-0.0432066
-0.0450147
-0.0491658
-0.0552023
-0.0138859
-0.0104316
-0.0119536
-0.0157076
-0.015216
-0.011998
-0.0111245
-0.0119744
-0.0146891
-0.0185622
-0.0240401
-0.0295074
-0.0352877
-0.0387351
-0.0406144
-0.039966
-0.0384095
-0.0381147
-0.0392422
-0.0415274
-0.0193071
-0.0125394
-0.010984
-0.0124669
-0.0117444
-0.0113422
-0.0112628
-0.0114841
-0.0124981
-0.0143751
-0.0172651
-0.0204404
-0.0235791
-0.0256048
-0.0266074
-0.0262053
-0.0250321
-0.0245113
-0.025578
-0.0281566
-0.0146889
-0.00791325
-0.0091278
-0.0116716
-0.0125927
-0.0132549
-0.0136059
-0.0129113
-0.0121329
-0.0115654
-0.0118812
-0.012971
-0.0141592
-0.015071
-0.015522
-0.0156885
-0.0159374
-0.0168808
-0.0188366
-0.0217084
-0.0217056
-0.00913563
-0.00783088
-0.0100577
-0.00981423
-0.0113927
-0.0106333
-0.0101595
-0.00920944
-0.00871456
-0.00867569
-0.00924903
-0.0100335
-0.0110213
-0.0121926
-0.0137758
-0.0161488
-0.019322
-0.0223914
-0.0247633
-0.0785338
-0.0134288
-0.00743104
-0.0078742
-0.00791362
-0.00856839
-0.007964
-0.0078684
-0.00727464
-0.00723227
-0.00769466
-0.0088581
-0.0109003
-0.0137938
-0.0178183
-0.0227
-0.0285828
-0.033878
-0.0357866
-0.0338331
-0.00524764
-0.00785953
-0.00808119
-0.00748329
-0.00640387
-0.0065707
-0.0066519
-0.00682048
-0.00672048
-0.00675331
-0.0074287
-0.00903723
-0.0115701
-0.0154646
-0.022779
-0.0256309
-0.0267415
-0.0252322
-0.0225398
-0.0213605
-0.00463547
-0.00991857
-0.0106153
-0.0110394
-0.00864403
-0.00669043
-0.00634097
-0.00644398
-0.00643504
-0.00682794
-0.00830339
-0.0111115
-0.0152078
-0.0207542
-0.028584
-0.0243435
-0.022968
-0.0208071
-0.0189157
-0.0182313
-0.00185829
-0.00751123
-0.0179469
-0.0262433
-0.0279111
-0.0177528
-0.00860189
-0.00686106
-0.00711572
-0.00824374
-0.0115096
-0.0167285
-0.0225765
-0.0271905
-0.0254994
-0.0258061
-0.028348
-0.0304963
-0.0315348
-0.0306898
-0.00139334
-0.00877707
-0.0156444
-0.0294213
-0.0597541
-0.0593836
-0.0433335
-0.0304681
-0.023747
-0.0195952
-0.0198263
-0.022516
-0.0248612
-0.0262963
-0.0281023
-0.0283284
-0.0300984
-0.0330219
-0.0366917
-0.039886
-0.00162704
-0.00654631
-0.0113055
-0.0245584
-0.0560038
-0.0473101
-0.0297536
-0.0406628
-0.0513942
-0.0484582
-0.0409128
-0.0374861
-0.0362681
-0.0362705
-0.0336356
-0.02755
-0.0273196
-0.0276868
-0.0291789
-0.0316086
-0.00256156
-0.00586254
-0.0101034
-0.0217926
-0.0358379
-0.0199221
-0.0179514
-0.0231056
-0.0272613
-0.0321012
-0.0339621
-0.0357466
-0.034454
-0.0328463
-0.0272594
-0.0267233
-0.0261185
-0.0258844
-0.0262008
-0.0270702
-0.00390039
-0.00969539
-0.00950657
-0.015459
-0.0230493
-0.0152165
-0.0143252
-0.0155733
-0.0190572
-0.0219973
-0.0241853
-0.0259164
-0.0270637
-0.0288247
-0.0305072
-0.0318911
-0.0318558
-0.0304923
-0.0293319
-0.0290365
-0.00542125
-0.00939891
-0.00942148
-0.0127288
-0.0130486
-0.0107455
-0.012201
-0.0147034
-0.0193304
-0.0241468
-0.0293886
-0.0322231
-0.0328927
-0.0343671
-0.0375494
-0.0412843
-0.0411545
-0.0368193
-0.031965
-0.0291541
-0.00804457
-0.0112663
-0.014682
-0.0154775
-0.015622
-0.0127913
-0.0138484
-0.0165935
-0.0206596
-0.0251069
-0.0299158
-0.0340978
-0.0385297
-0.0419845
-0.0470453
-0.0523028
-0.0549441
-0.0503832
-0.0423667
-0.0343257
-0.0108089
-0.014341
-0.0108285
-0.0142427
-0.0141567
-0.0161025
-0.0196696
-0.0247885
-0.0310615
-0.0369774
-0.0427186
-0.0467539
-0.0502968
-0.0516342
-0.0536053
-0.0516167
-0.0452973
-0.0372946
-0.031038
-0.0266199
-0.0222005
-0.0178498
-0.0084176
-0.00966322
-0.0127
-0.0186852
-0.0244215
-0.0311506
-0.0413123
-0.0512472
-0.0616862
-0.0671003
-0.066632
-0.058528
-0.0488245
-0.0388139
-0.0315691
-0.0280375
-0.0269753
-0.0258359
-0.0104251
-0.00468515
-0.00314105
-0.00375982
-0.00549834
-0.00860072
-0.0119107
-0.0142659
-0.0188156
-0.0261484
-0.0373389
-0.0479407
-0.0594155
-0.0643352
-0.0636116
-0.0559238
-0.0493978
-0.0487111
-0.05203
-0.0540939
-0.0020304
-0.00297922
-0.00403732
-0.00665311
-0.0117891
-0.0171554
-0.0207192
-0.0162883
-0.0112427
-0.0100415
-0.0132171
-0.0197379
-0.0278755
-0.0363569
-0.0453536
-0.0552647
-0.0676966
-0.0856066
-0.111372
-0.137116
-0.0034082
-0.0092075
-0.0106854
-0.00850512
-0.00636969
-0.00554558
-0.00535601
-0.00540037
-0.00562291
-0.00613861
-0.00699957
-0.00825606
-0.00968648
-0.0110725
-0.0124147
-0.0136807
-0.0150974
-0.0163841
-0.0180661
-0.0200328
-0.00330225
-0.00573709
-0.00763063
-0.012041
-0.00931929
-0.00664013
-0.00612512
-0.00660695
-0.00756638
-0.00899697
-0.0109128
-0.0129634
-0.015198
-0.0171497
-0.0192549
-0.0207607
-0.0220028
-0.023194
-0.0249144
-0.0268784
-0.00650007
-0.00704205
-0.00850355
-0.00896314
-0.00839594
-0.00782962
-0.00810037
-0.00892376
-0.010391
-0.0119731
-0.0139795
-0.015546
-0.0173337
-0.0184338
-0.0195195
-0.0201531
-0.0205935
-0.0210777
-0.0215604
-0.0219455
-0.00666859
-0.00706317
-0.00883666
-0.00980059
-0.0088803
-0.00850618
-0.0082055
-0.00824129
-0.0087157
-0.00959293
-0.0106941
-0.0118008
-0.0128884
-0.0137038
-0.0144021
-0.0149309
-0.0153826
-0.0160267
-0.0169148
-0.017861
-0.00278816
-0.0048615
-0.00739387
-0.0104625
-0.0108022
-0.0100533
-0.0086643
-0.00753044
-0.00697076
-0.00718237
-0.00777947
-0.00862174
-0.0093474
-0.0100121
-0.0105967
-0.0112652
-0.0120897
-0.0132084
-0.0146054
-0.0160587
-0.0127724
-0.00777551
-0.00691688
-0.00745791
-0.00719203
-0.00738493
-0.00610929
-0.00563899
-0.00538632
-0.0057497
-0.00631031
-0.00705323
-0.00774185
-0.00847863
-0.00929969
-0.0103339
-0.0116716
-0.0132671
-0.0150332
-0.0168938
-0.0166316
-0.00539796
-0.00513199
-0.00590915
-0.00626031
-0.00626404
-0.00533533
-0.00498197
-0.00504378
-0.00556852
-0.00645907
-0.0074787
-0.0087273
-0.0100509
-0.0116077
-0.0132272
-0.0150449
-0.0166348
-0.0177783
-0.0188484
-0.0037207
-0.0048148
-0.00482632
-0.00482746
-0.00505061
-0.00534774
-0.00514671
-0.00480328
-0.00498701
-0.00578195
-0.00671381
-0.00795182
-0.00918271
-0.0106059
-0.0112742
-0.0121618
-0.0130348
-0.0138744
-0.0151658
-0.0170117
-0.00188308
-0.00467328
-0.00471141
-0.00519359
-0.00521405
-0.0050081
-0.00502424
-0.00484911
-0.00538915
-0.00667181
-0.00809128
-0.00949637
-0.0106373
-0.0115207
-0.0113957
-0.0114487
-0.0119346
-0.0124782
-0.0133717
-0.0146702
-0.00322297
-0.00519348
-0.00810768
-0.0109246
-0.011271
-0.00883848
-0.00613229
-0.00576291
-0.00686513
-0.00850558
-0.0102377
-0.0116743
-0.0127752
-0.0137283
-0.015362
-0.0175109
-0.0178898
-0.0177787
-0.0172451
-0.0165683
-0.00167348
-0.00358113
-0.00794728
-0.0179342
-0.0308137
-0.0270032
-0.020004
-0.0177619
-0.0172599
-0.0163596
-0.0158298
-0.0164302
-0.0174669
-0.0188624
-0.0201206
-0.0209099
-0.0225832
-0.0238716
-0.0245659
-0.024467
-0.00298704
-0.00496847
-0.00833919
-0.0163567
-0.0252121
-0.0202512
-0.014932
-0.0213236
-0.0251835
-0.02531
-0.0230104
-0.0203777
-0.0189397
-0.0185582
-0.017593
-0.0173337
-0.0185097
-0.0197728
-0.0209944
-0.0219028
-0.00495301
-0.00595581
-0.00872593
-0.0135835
-0.0144654
-0.0104119
-0.0121872
-0.0160512
-0.0170024
-0.017444
-0.0168538
-0.016622
-0.0159122
-0.0155893
-0.0148719
-0.0151194
-0.015428
-0.0158496
-0.0163342
-0.0168088
-0.0021603
-0.00719639
-0.00746666
-0.00943358
-0.00946547
-0.00866094
-0.0108656
-0.0121738
-0.013158
-0.0139281
-0.0141676
-0.0144784
-0.0145766
-0.014867
-0.0151048
-0.0153221
-0.015405
-0.0154464
-0.0157226
-0.0161654
-0.0111176
-0.0087055
-0.00680304
-0.00739146
-0.00709408
-0.00831764
-0.0105877
-0.0127286
-0.0145863
-0.0160261
-0.0169342
-0.0170679
-0.0167477
-0.0166106
-0.0168158
-0.0169626
-0.0162703
-0.0154014
-0.0150403
-0.0152885
-0.00553748
-0.00873606
-0.0077825
-0.00810093
-0.00835426
-0.00997461
-0.0123494
-0.0151942
-0.0172226
-0.0186678
-0.0197041
-0.0199762
-0.0205001
-0.0202921
-0.0207264
-0.0205463
-0.0195477
-0.0173694
-0.0155067
-0.014424
-0.0080432
-0.00693814
-0.00653392
-0.00832478
-0.0101203
-0.0134361
-0.0167615
-0.020306
-0.022886
-0.0242562
-0.0249316
-0.0243717
-0.0238831
-0.0224855
-0.0216698
-0.0196973
-0.0173951
-0.0155457
-0.0144661
-0.013755
-0.0102387
-0.00479352
-0.00472716
-0.00711965
-0.00957502
-0.0140146
-0.0186071
-0.0234698
-0.0287759
-0.0316683
-0.0335582
-0.0321432
-0.029457
-0.0257612
-0.0236165
-0.0224102
-0.0221674
-0.0224186
-0.0224103
-0.0211149
-0.00917798
-0.0036104
-0.00316328
-0.00428314
-0.0059544
-0.00720766
-0.00872041
-0.0115598
-0.015968
-0.020739
-0.025844
-0.0291994
-0.0328954
-0.0345185
-0.0362872
-0.0382747
-0.0419478
-0.0464981
-0.0502222
-0.0503833
-0.000586208
-0.00192169
-0.0039137
-0.00698701
-0.00968322
-0.00963167
-0.00886121
-0.00655365
-0.00666157
-0.00958409
-0.0144451
-0.0204353
-0.0269252
-0.0338017
-0.041519
-0.05077
-0.0624448
-0.0767094
-0.0926704
-0.105489
-0.00820803
-0.010647
-0.0091637
-0.00658579
-0.00496481
-0.00430338
-0.00433334
-0.00490771
-0.00592732
-0.00720282
-0.00851591
-0.00970731
-0.010868
-0.0120393
-0.0132995
-0.0146917
-0.0162272
-0.0179732
-0.019835
-0.0219496
-0.00382126
-0.00720969
-0.00801523
-0.00669713
-0.0054528
-0.00541691
-0.0059598
-0.00697377
-0.00811753
-0.00919483
-0.0100787
-0.0107082
-0.0112982
-0.0117554
-0.0123074
-0.0127678
-0.0132503
-0.0137785
-0.0144742
-0.0152688
-0.000541149
-0.00382397
-0.00664785
-0.00733043
-0.00684536
-0.00676619
-0.00724192
-0.00803614
-0.00903802
-0.00990587
-0.0107489
-0.0113102
-0.0118116
-0.0120435
-0.01224
-0.012287
-0.0122934
-0.0123618
-0.012534
-0.0127812
-0.00169014
-0.00591049
-0.00770894
-0.00801213
-0.00715417
-0.00678248
-0.00685233
-0.00749129
-0.00830612
-0.00914944
-0.00984163
-0.0103956
-0.010806
-0.0110965
-0.0113184
-0.011479
-0.0116195
-0.0118111
-0.012089
-0.0124004
-0.00436097
-0.00848991
-0.00773425
-0.00777874
-0.00674982
-0.00585441
-0.00571827
-0.00636022
-0.00714027
-0.00803493
-0.00875577
-0.00942672
-0.00997251
-0.0104571
-0.010866
-0.0112183
-0.0115388
-0.0118496
-0.0121911
-0.0125065
-0.00316821
-0.00891899
-0.00773275
-0.00532359
-0.00435632
-0.00451995
-0.00477616
-0.00556735
-0.00638087
-0.00727056
-0.00806304
-0.00885131
-0.00958408
-0.0102897
-0.0109657
-0.0115985
-0.0121975
-0.0127501
-0.0132764
-0.0137169
-0.0108381
-0.0059478
-0.00512213
-0.0046715
-0.0040349
-0.00400508
-0.0045626
-0.00533973
-0.00621195
-0.00706403
-0.00791833
-0.00876569
-0.00960855
-0.0104447
-0.0112783
-0.0120878
-0.0128702
-0.0135842
-0.014207
-0.0147326
-0.00723756
-0.00654339
-0.00525061
-0.0043069
-0.00399225
-0.00403758
-0.00433073
-0.00527346
-0.00593266
-0.00674489
-0.00741572
-0.00813529
-0.0088215
-0.00955717
-0.0108368
-0.0115342
-0.0121732
-0.0127403
-0.0132549
-0.0137041
-0.00179782
-0.00355068
-0.00376361
-0.00432457
-0.00472274
-0.00440437
-0.00431953
-0.00522724
-0.00592998
-0.00656357
-0.00708998
-0.00761589
-0.00816493
-0.00873877
-0.00977598
-0.0108554
-0.0113185
-0.0117022
-0.0120436
-0.0123442
-0.000496799
-0.00240018
-0.00429459
-0.0063987
-0.00729137
-0.00686855
-0.00593524
-0.00652495
-0.00745356
-0.00828607
-0.00913367
-0.00986173
-0.0103163
-0.0104861
-0.0109783
-0.0115268
-0.0114952
-0.0114257
-0.0113894
-0.0114193
-0.00102761
-0.00315428
-0.0060673
-0.0102469
-0.0124299
-0.0125863
-0.0119959
-0.012704
-0.0124254
-0.0121504
-0.0127125
-0.0134676
-0.0140334
-0.0146743
-0.0146886
-0.0132124
-0.0129139
-0.0124535
-0.0120907
-0.0119383
-0.00776977
-0.0065213
-0.00746156
-0.0101052
-0.0110031
-0.0111862
-0.0110242
-0.0140609
-0.0144912
-0.0136642
-0.0130735
-0.0129054
-0.0128953
-0.0131443
-0.0126556
-0.0114803
-0.0113743
-0.0111445
-0.0110235
-0.0111548
-0.00706302
-0.00545173
-0.00687584
-0.00850686
-0.00873961
-0.00883016
-0.00999399
-0.0108822
-0.0108053
-0.0107576
-0.01053
-0.0104284
-0.0102227
-0.0101509
-0.00961117
-0.00970747
-0.00980302
-0.00999931
-0.010312
-0.010724
-0.00217767
-0.00508649
-0.00570782
-0.00669344
-0.00727525
-0.00817078
-0.00918873
-0.00940215
-0.00945216
-0.00938352
-0.00928942
-0.00921724
-0.00918451
-0.00921414
-0.00931688
-0.00948064
-0.0097341
-0.0100924
-0.0105961
-0.0111539
-0.00661587
-0.00638776
-0.00517266
-0.00595627
-0.00703264
-0.00835619
-0.00926347
-0.00975904
-0.00985249
-0.00979347
-0.0096525
-0.00941715
-0.00924471
-0.00918518
-0.00927292
-0.00945606
-0.00968473
-0.0100728
-0.0106439
-0.0112659
-0.0120716
-0.00658682
-0.00543926
-0.00646821
-0.0078727
-0.00939724
-0.0102764
-0.0107827
-0.0108486
-0.0106834
-0.0105086
-0.0101721
-0.0100496
-0.00981066
-0.00984186
-0.00985447
-0.00996089
-0.0101653
-0.0105952
-0.0111078
-0.00607407
-0.00634666
-0.00623112
-0.0075432
-0.0093924
-0.0112114
-0.012225
-0.0127604
-0.0127537
-0.0123964
-0.0120457
-0.0115077
-0.0111367
-0.0106744
-0.0104787
-0.0102707
-0.0102476
-0.0104741
-0.0108992
-0.0113531
-0.00630377
-0.00505196
-0.00572672
-0.00681915
-0.00885872
-0.0119867
-0.0140565
-0.015417
-0.0161452
-0.0158712
-0.0156446
-0.0150109
-0.014486
-0.0139412
-0.0136277
-0.0134242
-0.0133349
-0.0132884
-0.0132055
-0.0130094
-0.00509627
-0.00471561
-0.00355083
-0.00381603
-0.00524918
-0.00793995
-0.0107906
-0.0145794
-0.0177349
-0.0201302
-0.0221248
-0.023789
-0.0254554
-0.0268983
-0.0282062
-0.0294649
-0.0303215
-0.0303463
-0.0288662
-0.0260863
-0.000271195
-0.00103248
-0.00191771
-0.00303572
-0.00379424
-0.00379797
-0.00472422
-0.0072285
-0.0117597
-0.017302
-0.0228237
-0.0280242
-0.0330754
-0.0383806
-0.0439552
-0.0497481
-0.0554857
-0.0604483
-0.0636354
-0.0621516
-0.0104756
-0.014619
-0.0160465
-0.0094282
-0.0115972
-0.015054
-0.0162081
-0.0153164
-0.0168024
-0.0194027
-0.0123114
-0.0141009
-0.0165667
-0.0171543
-0.0194561
-0.0449266
-0.0378791
-0.0180868
-0.0181463
-0.0276871
-0.0261518
-0.021798
-0.0364642
-0.0343395
-0.018227
-0.0185021
-0.0256334
-0.0239443
-0.113637
-0.108799
-0.104863
-0.0995608
-0.0736556
-0.0750068
-0.0616274
-0.11291
-0.104629
-0.104961
-0.0697272
-0.080429
-0.0631224
-0.0704674
-0.120924
-0.104856
-0.101577
-0.0864779
-0.0954757
-0.0703006
-0.06365
-0.124508
-0.0998904
-0.0944126
-0.0966243
-0.0951908
-0.0608987
-0.0537862
-0.120654
-0.0926124
-0.0873479
-0.0934322
-0.0862091
-0.0527828
-0.0531019
-0.116689
-0.0859669
-0.0839129
-0.0839827
-0.0792328
-0.0537727
-0.0554239
-0.114691
-0.0837891
-0.0842477
-0.0777348
-0.0754042
-0.0565746
-0.0630205
-0.114527
-0.0845845
-0.0860501
-0.0751395
-0.0774034
-0.0662934
-0.0779479
-0.107103
-0.131093
-0.114409
-0.0865531
-0.062465
-0.115806
-0.0963271
-0.104219
-0.110385
-0.100645
-0.0645753
-0.0683707
-0.0910642
-0.0779316
-0.0976887
-0.0977845
-0.0902337
-0.0666767
-0.0571472
-0.0743065
-0.0646805
-0.0893037
-0.088245
-0.0842481
-0.0540843
-0.048822
-0.0621524
-0.0581417
-0.0836821
-0.0835703
-0.0835073
-0.0489955
-0.0533487
-0.0583159
-0.0608006
-0.0827533
-0.08406
-0.0865653
-0.0552174
-0.0607453
-0.0619176
-0.0678028
-0.0852011
-0.0873472
-0.0887728
-0.0632055
-0.0736085
-0.0709905
-0.0820476
-0.0886085
-0.0889612
-0.0891899
-0.0777793
-0.0904528
-0.0855369
-0.0914557
-0.123998
-0.148002
-0.141062
-0.132643
-0.117579
-0.137481
-0.137549
-0.105221
-0.137646
-0.129485
-0.111445
-0.0959385
-0.136024
-0.13215
-0.0927794
-0.126964
-0.116676
-0.0915104
-0.0791464
-0.130806
-0.123782
-0.0863442
-0.112865
-0.101757
-0.075456
-0.0672779
-0.120272
-0.105988
-0.0853426
-0.0986266
-0.0923522
-0.0655936
-0.0622686
-0.100547
-0.0841443
-0.0876265
-0.0912706
-0.0894828
-0.0617735
-0.0641023
-0.0795424
-0.0722367
-0.08846
-0.0889832
-0.0869965
-0.0660522
-0.0735249
-0.0721682
-0.0762422
-0.0872631
-0.0861679
-0.0834138
-0.0761416
-0.0815964
-0.0784335
-0.0849496
-0.138145
-0.138483
-0.137724
-0.128098
-0.130599
-0.121525
-0.117131
-0.129813
-0.136769
-0.138492
-0.131022
-0.131559
-0.120921
-0.13374
-0.122417
-0.14006
-0.141053
-0.131582
-0.129154
-0.136136
-0.138224
-0.110027
-0.141722
-0.138277
-0.127195
-0.116362
-0.13795
-0.133404
-0.0964348
-0.13509
-0.118161
-0.111599
-0.0965401
-0.131573
-0.123796
-0.0908347
-0.113723
-0.105608
-0.0920028
-0.0827886
-0.122588
-0.12202
-0.0875945
-0.105469
-0.1078
-0.0819569
-0.0839339
-0.123997
-0.129227
-0.0838441
-0.110723
-0.122802
-0.0856387
-0.0906435
-0.132713
-0.144431
-0.00908932
-0.0100473
-0.00904602
-0.00905356
-0.00794349
-0.00869215
-0.0077624
-0.00964509
-0.009017
-0.00970018
-0.00794598
-0.00847377
-0.00785691
-0.00810114
-0.0104136
-0.00957833
-0.00926421
-0.0086878
-0.00910685
-0.00810889
-0.00829602
-0.01082
-0.00932822
-0.0100396
-0.00929822
-0.00996269
-0.00853731
-0.0101499
-0.0114897
-0.0105347
-0.0132094
-0.0102876
-0.0116025
-0.0110332
-0.0147581
-0.0135957
-0.0145449
-0.0201467
-0.0122941
-0.0148741
-0.0163106
-0.0217894
-0.0178368
-0.0225854
-0.0321789
-0.0160881
-0.0204688
-0.0238302
-0.0301642
-0.0254311
-0.0361389
-0.0501199
-0.0223979
-0.0288235
-0.0321714
-0.0370747
-0.0103219
-0.0422603
-0.0445182
-0.0147281
-0.0087937
-0.0303892
-0.0228227
-0.0101036
-0.0432817
-0.0359316
-0.00861706
-0.00843813
-0.0208907
-0.0171395
-0.00937281
-0.0328753
-0.0230568
-0.00839204
-0.00864828
-0.0163959
-0.0153761
-0.0105511
-0.0208501
-0.0181511
-0.00897979
-0.0111073
-0.0154478
-0.017299
-0.0151755
-0.0188937
-0.0236609
-0.012237
-0.016808
-0.0184088
-0.0223904
-0.0246825
-0.0259604
-0.0347436
-0.0186424
-0.0247317
-0.023788
-0.0278219
-0.0402621
-0.038092
-0.047983
-0.0268283
-0.0325569
-0.0290398
-0.0316641
-0.0593347
-0.050814
-0.0559813
-0.0340672
-0.0367992
-0.0321101
-0.0322333
-0.0761456
-0.0929999
-0.0970823
-0.0617397
-0.0404872
-0.0690239
-0.0569356
-0.0637649
-0.102543
-0.115772
-0.0368072
-0.02935
-0.0578165
-0.0653316
-0.0422651
-0.117359
-0.111659
-0.0272957
-0.0225463
-0.0662756
-0.0600249
-0.0275801
-0.10691
-0.0854263
-0.0216788
-0.0216179
-0.0561509
-0.0450882
-0.0270718
-0.0771098
-0.057427
-0.0223088
-0.0249418
-0.0427251
-0.0395663
-0.0361863
-0.0543515
-0.0525011
-0.0259567
-0.0289692
-0.0393677
-0.0397045
-0.045852
-0.0533703
-0.0573114
-0.0298636
-0.0318557
-0.0400465
-0.0412982
-0.0517909
-0.0588138
-0.0631316
-0.032303
-0.0331336
-0.0417655
-0.0430427
-0.0801823
-0.0623262
-0.0467034
-0.05632
-0.0491142
-0.0515762
-0.0358582
-0.108784
-0.0495176
-0.0692657
-0.0506283
-0.0608806
-0.0362954
-0.0402676
-0.11773
-0.0768235
-0.0916752
-0.0636926
-0.0637145
-0.0421837
-0.0469665
-0.101032
-0.0909721
-0.0902434
-0.0613392
-0.0516642
-0.0476813
-0.0499798
-0.0740484
-0.0911666
-0.0940715
-0.0490478
-0.0443389
-0.0509145
-0.0530102
-0.0628263
-0.0940968
-0.0924234
-0.0436747
-0.0427912
-0.0535895
-0.0542257
-0.0640519
-0.0918887
-0.0907132
-0.0428242
-0.0432191
-0.0544249
-0.0543482
-0.0682157
-0.0911142
-0.0916771
-0.0434469
-0.0440752
-0.0544829
-0.0544142
-0.00641581
-0.00618047
-0.00630677
-0.00614785
-0.00584074
-0.00587325
-0.00595593
-0.00644037
-0.00641872
-0.00665162
-0.00587735
-0.00612822
-0.0060965
-0.00653476
-0.00662189
-0.00671229
-0.00723366
-0.00624769
-0.00689566
-0.00676328
-0.00800261
-0.00778858
-0.00759957
-0.00951511
-0.00727521
-0.00858474
-0.0086055
-0.0107492
-0.0102396
-0.0104249
-0.0139022
-0.00917446
-0.0110465
-0.0114895
-0.0134414
-0.0139821
-0.0152401
-0.0196396
-0.0117598
-0.0137058
-0.0139611
-0.0150168
-0.019179
-0.0211713
-0.0256084
-0.0144331
-0.0163388
-0.0152442
-0.015584
-0.0255072
-0.0269155
-0.029755
-0.0169817
-0.0183903
-0.0156345
-0.015717
-0.00688218
-0.0197299
-0.018607
-0.00783292
-0.00657153
-0.0151417
-0.0140973
-0.00703344
-0.0176621
-0.0153957
-0.00664219
-0.00711608
-0.0138512
-0.0137756
-0.00779806
-0.0149269
-0.0143214
-0.0073989
-0.00879477
-0.0139258
-0.0146872
-0.0106912
-0.0088373
-0.00929622
-0.00879406
-0.00993924
-0.00951569
-0.00993436
-0.0146088
-0.0126803
-0.0127767
-0.0123679
-0.0139932
-0.0134673
-0.0135505
-0.0211403
-0.0202786
-0.0226731
-0.0145365
-0.0153706
-0.0172896
-0.0176812
-0.0262824
-0.0233647
-0.024892
-0.0155435
-0.0159215
-0.0178847
-0.0188184
-0.0285965
-0.0252037
-0.0257583
-0.0160399
-0.0165669
-0.0192139
-0.0205686
-0.0327338
-0.0453247
-0.0447906
-0.0272432
-0.0205452
-0.0286122
-0.025871
-0.0251964
-0.0469251
-0.052865
-0.0197794
-0.0186165
-0.0267964
-0.0290188
-0.0205028
-0.0531252
-0.0476925
-0.0184294
-0.0182148
-0.0291514
-0.0281843
-0.0244837
-0.0193554
-0.0276283
-0.0191606
-0.0263775
-0.0195596
-0.0251268
-0.0245577
-0.0203356
-0.0248759
-0.0210549
-0.0249527
-0.0216191
-0.0243356
-0.0243692
-0.0341077
-0.0339538
-0.0185767
-0.0188466
-0.0234568
-0.0223758
-0.0259901
-0.0340655
-0.0346883
-0.0190167
-0.0197783
-0.0221787
-0.0219013
-0.027207
-0.0350034
-0.0360627
-0.02009
-0.0211342
-0.0218883
-0.0220465
-0.0372073
-0.0214987
-0.0232762
-0.0219564
-0.0229806
-0.0180659
-0.0191678
-0.0497006
-0.0264436
-0.0316238
-0.0244873
-0.0282056
-0.0207843
-0.0236005
-0.050255
-0.0334695
-0.0379617
-0.0288475
-0.0290945
-0.0244885
-0.026373
-0.0423768
-0.0385587
-0.0400451
-0.0288569
-0.0275653
-0.0265897
-0.0263492
-0.0380222
-0.0405506
-0.0417068
-0.0270345
-0.0251323
-0.0261482
-0.0252457
-0.036411
-0.0414962
-0.0400029
-0.0245469
-0.0230958
-0.0248768