/*--------------------------------*- C++ -*----------------------------------*\
  =========                 |
  \\      /  F ield         | OpenFOAM: The Open Source CFD Toolbox
   \\    /   O peration     | Website:  https://openfoam.org
    \\  /    A nd           | Version:  10
     \\/     M anipulation  |
\*---------------------------------------------------------------------------*/
FoamFile
{
    format      ascii;
    class       volVectorField;
    location    "8.1";
    object      U_0;
}
// * * * * * * * * * * * * * * * * * * * * * * * * * * * * * * * * * * * * * //

dimensions      [0 1 -1 0 0 0 0];

internalField   nonuniform List<vector> 
12920
(
(177.841 23.7703 16.2642)
(81.2788 63.9692 -63.2979)
(190.015 84.1164 -48.1603)
(160.653 82.0179 -35.7425)
(165.182 56.7294 4.06006)
(94.4977 20.3203 6.44561)
(108.143 6.37001 2.37873)
(95.3814 -1.33685 0.679146)
(107.219 -2.59714 -0.0524544)
(104.192 -2.01412 -1.06378)
(111.605 0.787384 -1.51613)
(110.742 4.15431 -2.61593)
(115.495 6.96983 -3.47316)
(116.078 8.28993 -3.67617)
(117.681 8.51669 -2.70221)
(114.723 8.9387 -0.743545)
(104.531 7.32412 1.56001)
(94.555 4.70787 0.890769)
(92.3578 2.56075 0.337814)
(86.1176 1.74293 -0.0744109)
(-29.5745 -217.334 26.1147)
(-38.4361 50.826 -14.441)
(137.832 58.8855 5.69409)
(93.6771 45.8245 13.2781)
(117.818 16.4631 19.5588)
(64.1378 -3.06368 7.7495)
(82.8972 -7.56695 2.12234)
(65.5664 -4.37096 -1.05873)
(82.0544 -1.02019 -1.90644)
(78.2298 2.32056 -2.124)
(89.1406 4.28181 -1.86734)
(89.9075 6.12983 -1.48871)
(96.5558 6.41353 -0.694455)
(96.9887 6.30644 0.166265)
(97.1876 4.89797 1.33383)
(92.3581 5.75723 2.12433)
(87.0526 5.22364 1.94408)
(82.4978 3.91966 0.977938)
(82.9986 0.719546 0.710287)
(78.4437 -1.58895 0.623852)
(95.8033 -123.2 3.64645)
(-28.6745 -82.7482 25.666)
(110.86 -37.6316 18.4353)
(78.1053 -19.2463 11.2912)
(120.928 8.96262 9.30466)
(82.7897 4.89504 3.24351)
(99.6087 5.36457 1.27072)
(83.2518 2.7131 -0.202099)
(94.3147 0.352432 -0.136731)
(88.4454 1.34559 -0.330196)
(94.6946 1.34558 -0.121607)
(92.091 3.21263 0.0686652)
(94.5798 4.01747 0.483799)
(91.8343 5.51487 0.750491)
(90.1776 6.25944 1.22485)
(84.2278 7.85995 1.13069)
(83.134 6.79373 0.604642)
(80.7369 4.29376 0.328276)
(82.6156 -0.124294 0.229844)
(77.8232 -2.62528 0.0967485)
(23.9179 -3.31556 -79.346)
(-153.609 -17.1585 -7.11041)
(73.8046 -26.7265 4.19147)
(-46.2561 -22.4571 0.680285)
(83.9132 -11.7643 0.168617)
(37.7327 -7.41409 0.134191)
(86.878 -7.13928 -0.189459)
(73.7648 -3.02433 -0.572915)
(90.8445 -2.89309 -0.546673)
(84.536 0.396216 -0.571639)
(90.5554 1.22742 -0.331008)
(86.9829 3.77793 -0.322147)
(88.7653 4.56494 0.00440575)
(86.1566 6.04302 0.146081)
(86.086 6.07025 0.40878)
(83.7466 6.39068 0.441044)
(84.2306 5.43936 0.35758)
(82.4427 3.75177 0.167059)
(83.58 -0.203352 -0.0954055)
(77.5871 -2.46469 -0.182973)
(-14.4664 -18.0838 -22.8234)
(-117.291 -62.1307 -8.66577)
(79.8462 -76.5094 -1.87535)
(2.42123 -49.2749 -0.67675)
(98.2623 -39.3591 -0.716542)
(67.8659 -18.2472 -0.590309)
(100.101 -16.2865 0.122142)
(87.9569 -3.71424 -0.126258)
(97.5643 -4.66914 0.16133)
(89.3833 1.9982 -0.135283)
(92.1891 1.66198 -0.0351572)
(87.5525 5.31011 -0.121623)
(88.6493 5.22007 -0.0291755)
(86.3973 6.74058 -0.0512281)
(86.9269 6.46845 0.00962866)
(85.7054 6.81878 -0.0173351)
(86.4526 6.20555 -0.0125643)
(85.4695 5.40497 -0.112079)
(87.3628 2.51869 -0.139225)
(82.3882 -0.852223 -0.198773)
(196.185 -111.667 -196.442)
(-144.251 -98.0593 -1.38895)
(111.243 -76.1654 -7.53712)
(-15.5759 -57.0379 2.59876)
(96.9499 -45.9924 1.56453)
(37.0524 -19.5032 1.34351)
(86.0715 -20.3308 0.696575)
(69.7007 -5.57457 0.425171)
(82.8857 -3.41501 0.164817)
(77.535 3.27903 -0.2005)
(81.6711 3.63311 -0.179082)
(79.619 6.52202 -0.214741)
(81.2963 6.14366 -0.0812503)
(81.0211 7.26194 -0.0843434)
(82.5709 6.48383 -0.0164514)
(82.7549 6.46132 -0.0522802)
(84.2206 5.77408 -0.0712626)
(84.7282 4.67477 0.0632149)
(88.2359 0.968253 0.381364)
(84.357 -1.69435 0.183155)
(47.7735 -219.096 -46.9965)
(-91.2936 -101.755 -14.3555)
(133.995 -100.782 -6.5046)
(36.5435 -75.3387 0.83948)
(118.058 -65.037 -0.181866)
(70.4433 -30.3344 -0.930199)
(90.4628 -42.8162 -0.596195)
(73.9453 -6.41098 -0.768915)
(81.9689 -10.316 -0.686778)
(75.0443 3.48702 -0.228436)
(78.5743 0.931299 -0.173355)
(75.8027 5.97094 -0.143231)
(77.4109 4.1037 -0.127972)
(76.1801 5.43792 -0.0994356)
(76.9032 4.77553 -0.00797498)
(77.6639 5.16081 -0.225969)
(80.1971 4.25389 -0.089524)
(80.6294 1.7886 0.421764)
(82.0845 -1.94345 0.990379)
(74.5959 -3.08977 0.536118)
(54.3641 -172.11 79.6334)
(-64.5386 -75.5 -0.352877)
(155.293 -111.863 -6.41323)
(37.6906 -68.4615 3.18272)
(116.522 -55.7981 -0.167309)
(64.293 -3.45841 -1.80278)
(83.798 -10.177 -0.607228)
(52.3978 -11.6327 -0.0212884)
(65.5343 3.06545 0.0442929)
(59.7471 2.27593 0.121746)
(63.7213 5.30338 -0.106616)
(63.3491 5.54911 -0.158185)
(66.6677 6.68582 -0.231986)
(67.6251 7.19266 -0.12976)
(67.4257 4.32628 -0.216646)
(68.8255 3.73078 -0.16472)
(69.9047 1.90354 0.348808)
(67.7323 0.367368 0.708324)
(67.5029 -0.971645 0.610102)
(61.6441 -1.71158 0.10287)
(282.601 -227.7 -277.673)
(120.804 -123.446 -25.1621)
(176.58 -105.016 10.0884)
(79.7321 -79.5964 6.93558)
(107.057 -66.1639 3.98067)
(60.7238 -22.4486 -1.22706)
(89.1751 3.3204 -0.802073)
(69.0253 -5.67043 -0.933512)
(66.2243 -2.95452 0.173238)
(60.9379 2.40171 -0.0894387)
(59.5843 5.15137 -0.0276087)
(58.7493 3.96596 -0.0743069)
(60.411 3.98916 -0.066078)
(62.2003 3.68106 -0.128627)
(62.8276 3.6078 0.101861)
(59.2277 2.19538 0.111603)
(59.438 2.01987 0.337283)
(58.6047 0.761437 0.367368)
(61.6077 -1.1782 0.202083)
(59.2843 -2.25171 0.00353389)
(409.586 139.988 -56.7904)
(323.966 93.3166 -39.2272)
(298.198 -9.4412 2.60058)
(197.311 -42.2938 17.9319)
(156.497 -25.6479 23.0676)
(51.0939 -13.7842 -0.676809)
(72.965 4.80391 -1.27162)
(79.4491 10.2693 -0.40358)
(69.1045 10.1169 0.0568193)
(62.1359 7.27214 -0.118894)
(59.6514 7.33501 -0.0314172)
(57.6173 5.55471 0.0771344)
(54.7583 4.11366 0.0109804)
(53.6555 3.4265 0.0186331)
(52.3888 1.98783 0.00683432)
(55.1935 1.53321 -0.220797)
(59.1609 -0.115676 -0.434249)
(62.9555 -2.41597 -0.34046)
(68.5848 -4.08995 -0.0615103)
(66.0676 -3.76243 0.0808274)
(532.217 350.578 -244.375)
(537.009 245.134 -105.603)
(493.727 28.5234 -1.00661)
(322.165 -52.762 20.0728)
(212.771 -11.1809 30.145)
(58.1848 0.803669 1.34261)
(53.8806 7.05487 0.560633)
(57.1869 9.97571 0.340817)
(57.1605 10.5083 0.243439)
(55.5299 10.6764 0.0556872)
(53.6553 10.5231 0.0514757)
(51.6505 8.41838 -0.013391)
(51.4767 4.81376 -0.116319)
(53.8029 1.89876 -0.119664)
(57.3226 0.38552 -0.351004)
(61.1722 -1.36922 -0.0239553)
(65.3641 -3.09143 -0.101654)
(67.6298 -5.41494 -0.229467)
(71.9474 -5.77654 -0.155779)
(69.0351 -4.9361 -0.131672)
(189.653 -260.036 -2.41357)
(112.501 75.4058 17.8766)
(196.153 94.1293 -5.43776)
(137.278 74.9608 -9.87997)
(139.902 86.6683 6.28513)
(35.5235 34 2.18631)
(62.4561 10.4856 0.118645)
(66.0297 3.70428 0.256805)
(59.6325 -0.486377 0.543858)
(58.3981 7.84382 0.64329)
(57.9819 11.5523 0.450732)
(53.8433 12.0026 -0.0373559)
(55.2143 7.1855 -0.348426)
(58.7799 2.51189 -0.253757)
(61.5682 -1.80714 0.0254239)
(59.4269 -3.76747 0.635969)
(60.8797 -5.53731 0.475273)
(60.4941 -6.17862 0.226704)
(63.2812 -6.2856 0.0314316)
(61.0268 -4.65916 -0.190848)
(-15.3524 -125.853 -34.4442)
(-97.562 -3.42274 -25.5009)
(88.3125 18.5377 -8.14965)
(2.19441 30.9186 -1.68946)
(103.958 65.6078 1.96724)
(28.9985 12.8597 1.25917)
(62.0826 42.7274 -1.42617)
(46.9662 20.1739 -0.329816)
(54.2569 6.0981 -0.115072)
(39.1183 4.35322 0.18559)
(45.9113 4.53678 -0.0840823)
(47.0406 5.09569 0.351363)
(53.697 1.95273 0.501419)
(52.8181 -0.702248 0.41449)
(51.9284 -3.88438 0.333474)
(53.3327 -5.3399 0.115733)
(54.8948 -6.85619 -0.0200037)
(55.9125 -7.50886 -0.0480127)
(58.9899 -7.44361 0.0238654)
(56.7336 -5.79567 -0.10357)
(214.481 266.49 -98.6022)
(-8.02143 98.123 -8.16257)
(115.311 68.5146 -6.54675)
(63.8662 61.2572 -3.62317)
(117.616 68.8979 1.68487)
(68.7978 44.311 0.550591)
(82.4095 62.3308 0.769894)
(50.6831 16.0882 -0.866382)
(58.179 24.4902 -1.76293)
(49.394 3.71891 -1.74623)
(55.6698 5.46739 -0.887256)
(52.4864 -3.52872 -0.396107)
(55.6578 -2.36897 -0.168426)
(55.1123 -5.14112 -0.313157)
(57.1908 -5.14939 -0.321999)
(57.0431 -7.37386 -0.160233)
(57.9743 -8.41628 0.0591272)
(56.4361 -8.78921 0.111692)
(58.4012 -8.20672 0.179933)
(54.6117 -5.67835 -0.0840473)
(-79.2746 0.216655 9.59651)
(-172.595 15.1871 -61.2192)
(56.6162 13.9199 -26.9656)
(-15.7436 32.0908 -2.39328)
(87.6088 51.6844 -0.932698)
(42.8035 35.9315 -0.115624)
(92.3142 42.6107 -0.468392)
(80.6948 22.7727 -2.54837)
(99.3227 22.1065 -2.74642)
(99.0509 11.0915 -3.13174)
(104.843 8.22385 -0.767899)
(96.7966 1.15862 0.792537)
(87.2736 -1.17177 0.668622)
(79.8082 -3.89258 -0.546399)
(77.8688 -4.00434 -0.571324)
(73.9633 -5.8329 0.0782543)
(68.626 -7.25806 0.589327)
(61.093 -7.64271 0.491621)
(59.34 -7.32087 0.372051)
(53.254 -5.24464 0.0681324)
(370.904 322.889 -198.447)
(202.78 129.411 -25.4102)
(171.617 20.7744 19.6256)
(86.01 14.4491 11.3174)
(119.473 30.4388 6.39887)
(84.2525 29.873 2.58368)
(114.33 39.1812 1.26231)
(101.556 24.0052 -0.231234)
(117.39 25.9334 -0.221344)
(111.198 15.6189 -0.550255)
(117.352 14.9773 -0.316669)
(112.987 10.3227 -0.197524)
(110.737 11.2147 0.758239)
(101.378 6.09588 0.626254)
(97.6286 2.75186 0.40344)
(91.1666 -0.149071 0.614414)
(84.694 -0.424268 1.24728)
(72.8272 -1.74389 1.15249)
(68.5462 -3.55413 0.892069)
(58.8183 -3.63676 0.32335)
(308.194 374.776 -188.112)
(20.1182 174.878 29.7664)
(76.7476 30.4889 22.0433)
(-23.5609 2.09168 7.76138)
(69.0093 14.0563 2.98856)
(27.3447 7.94314 1.51997)
(85.3803 18.6949 0.79328)
(71.8245 11.3226 0.0545778)
(98.4981 14.5448 0.874514)
(92.808 9.3848 0.828882)
(102.639 9.46537 1.25082)
(98.2684 6.53207 1.20167)
(100.256 6.92752 1.44748)
(96.9498 5.43236 1.16987)
(95.1059 2.97389 1.33623)
(86.7177 1.59202 1.42252)
(78.7364 2.37269 1.27764)
(69.0879 2.13183 0.840413)
(66.4545 0.348424 0.544576)
(57.9814 -1.20477 0.114249)
(76.152 -3.50463 -43.2946)
(-92.9062 14.6706 17.9644)
(114.316 20.9631 -13.003)
(11.1093 -15.6772 -1.16266)
(88.5055 -15.2701 -0.235417)
(31.6617 -5.23139 1.18989)
(80.7302 3.08966 1.07225)
(56.5711 3.27354 0.91218)
(83.3944 5.9317 1.10021)
(73.9244 3.79901 1.09738)
(86.3244 5.68563 1.46142)
(81.9081 4.74509 1.54589)
(86.257 5.70699 1.71876)
(83.6052 4.34237 1.62397)
(83.2341 5.46391 1.3075)
(74.619 7.91023 0.984938)
(69.5054 9.57122 0.582706)
(64.3695 7.33522 0.213331)
(65.8276 3.96818 0.0367285)
(61.902 0.847252 -0.313426)
(26.028 -91.6773 -258.571)
(-155.47 96.6845 -1.14454)
(85.1137 70.4986 0.80022)
(-9.25688 25.2693 -3.82979)
(78.8744 1.47776 -8.31442)
(27.2251 -1.45204 -6.17964)
(71.5779 -8.71731 -5.02802)
(48.5127 -5.12784 -2.8846)
(78.623 -6.4312 -0.631666)
(72.7868 -5.10952 -0.236742)
(88.217 -5.3205 0.263179)
(86.1533 -5.42055 0.552844)
(92.133 -4.19512 1.41271)
(88.7025 -2.41307 2.2565)
(85.4795 4.46215 3.17821)
(76.0265 9.30953 2.74977)
(72.0683 9.36428 2.01021)
(66.7137 6.48412 1.25537)
(67.4051 3.12372 0.163058)
(63.4293 2.03588 -0.493996)
(-38.972 -93.4497 -4.26322)
(-70.6562 44.1585 -3.45268)
(97.7998 -13.1578 -10.0174)
(63.4841 6.33028 -3.99911)
(122.153 15.6272 -5.39472)
(107.218 26.0215 -2.13071)
(135.953 19.353 1.37004)
(110.508 7.15621 2.98466)
(111.703 -7.14537 1.35827)
(94.3285 -6.42988 -0.729768)
(100.911 -4.96583 -1.66434)
(97.4562 -3.32136 -2.45944)
(103.097 -2.92151 -2.7251)
(103.375 -1.01574 -3.09375)
(108.966 1.56853 -2.38285)
(113.964 7.01442 -0.28843)
(120.354 9.629 1.26926)
(123.316 9.68555 1.92478)
(127.823 7.48172 2.36672)
(117.292 5.35973 1.98874)
(180.346 -26.6728 163.472)
(-105.529 24.3165 -36.5112)
(118.705 15.4328 -29.3874)
(28.7241 11.595 -20.5907)
(95.0197 17.4449 0.0233214)
(73.3017 9.22934 3.17122)
(98.0967 5.74586 0.839558)
(85.9032 2.39972 -0.256038)
(96.8255 3.22901 -0.732975)
(89.8218 3.77898 -2.00273)
(93.191 5.35419 -2.36784)
(85.9751 5.79611 -3.5441)
(84.6522 4.01343 -3.57623)
(76.9293 1.92624 -3.40391)
(76.8883 0.166544 -2.03706)
(74.2125 0.121575 -0.0151176)
(75.4629 0.316039 1.50192)
(74.9413 0.0442253 0.962118)
(76.8347 -1.04583 0.642997)
(74.0105 -1.56905 0.161332)
(-25.7876 -271.312 143.523)
(-158.712 -30.3779 -10.0476)
(78.0427 -12.2794 15.9273)
(5.03081 -4.90955 23.1944)
(83.8243 -5.96381 22.3263)
(47.2681 -7.54861 6.89212)
(76.5355 -5.21286 1.42426)
(58.9742 -2.02285 -2.38401)
(74.3323 0.510338 -2.99235)
(66.9223 2.4722 -3.10457)
(75.009 3.37801 -2.16799)
(71.1852 3.51981 -1.56264)
(74.3282 2.61156 -0.414113)
(71.3992 1.85293 0.423007)
(71.7324 0.477368 1.58255)
(68.9497 0.907875 2.21541)
(68.7005 1.06098 2.20193)
(67.1276 0.452554 1.21758)
(68.7257 -1.41396 0.952081)
(64.8191 -2.13687 0.648412)
(-75.6201 -129.783 -31.7526)
(-125.804 -97.5988 -32.3385)
(87.041 -37.7625 -12.7124)
(33.1056 -16.1362 4.82747)
(97.5265 10.7746 5.78403)
(59.569 5.42267 1.42393)
(83.7183 5.53251 0.679467)
(65.7588 3.69176 -0.857389)
(78.1069 2.1199 -0.29794)
(70.1511 3.49639 -0.596685)
(76.3869 3.07754 -0.07027)
(72.0565 4.27427 0.114921)
(74.2206 3.67428 0.706872)
(70.869 4.0982 0.90637)
(70.5363 3.60402 1.44885)
(67.0321 4.16503 1.29531)
(66.7525 2.92708 0.796035)
(64.9238 1.09508 0.416952)
(66.6886 -1.48899 0.40834)
(61.8997 -2.27881 0.0123177)
(-22.5939 -68.8936 -119.904)
(-175.533 -40.9704 -59.7882)
(56.5174 -31.1991 -13.8703)
(-55.6174 -17.3176 -1.00187)
(75.414 -7.74669 -1.8931)
(26.4116 -3.92938 0.402358)
(75.4186 -4.87729 -0.028681)
(58.1728 -1.20214 -0.64527)
(75.1774 -1.68557 -0.44352)
(66.4493 1.4991 -0.73676)
(72.5261 1.8541 -0.306956)
(67.734 4.02726 -0.335384)
(69.847 4.15012 0.157632)
(67.0096 5.04231 0.249333)
(67.6041 4.60553 0.530989)
(65.7445 4.53554 0.568603)
(66.4279 3.09962 0.462563)
(64.8118 1.33442 0.185058)
(66.3302 -1.25638 0.0124952)
(61.0186 -2.05216 -0.299882)
(6.74312 -200.678 152.189)
(-160.626 -82.0346 -12.9771)
(69.825 -80.2378 -17.3145)
(-11.7856 -46.503 -1.10162)
(86.3173 -36.2325 -2.37543)
(48.8159 -15.7479 -0.457717)
(83.5938 -14.7625 0.529863)
(67.6071 -1.60488 -0.278538)
(78.7552 -3.21358 0.30447)
(69.2504 3.57666 -0.270523)
(73.1234 2.38876 0.0417222)
(67.9478 5.69538 -0.172911)
(69.4531 4.73936 0.0461958)
(66.8979 5.7939 -0.0253074)
(67.6652 4.96613 0.092514)
(66.2761 4.97183 0.044708)
(67.0759 3.82939 0.0302821)
(66.0646 2.22494 -0.095521)
(68.2613 -0.683741 -0.000828021)
(63.6022 -1.72224 -0.296092)
(200.44 -107.622 -82.3873)
(-86.8769 -84.673 24.5982)
(85.6331 -67.756 -9.33732)
(-28.4525 -49.8129 3.74179)
(86.6549 -39.0141 -0.324164)
(24.8088 -14.3806 1.85497)
(75.7187 -16.2776 0.978065)
(56.1348 -1.93896 0.403486)
(69.0406 -1.63324 0.18723)
(61.3154 4.64407 -0.356243)
(65.2506 3.7512 -0.213762)
(62.0851 6.28027 -0.26509)
(63.7318 5.30739 -0.035022)
(62.8875 6.07782 -0.0478989)
(64.2182 4.9179 0.0465222)
(64.037 4.59044 -0.0185345)
(65.4787 3.25671 0.0417592)
(65.9039 1.12595 0.259103)
(69.148 -1.69802 0.62104)
(64.9133 -2.24353 0.0877827)
(149.256 -104.594 89.237)
(-4.98215 -79.2726 -40.5683)
(118.6 -85.9992 -15.7143)
(20.5161 -64.5761 0.913559)
(105.106 -55.0079 -1.23183)
(49.8547 -20.4974 -1.02428)
(73.7083 -35.8785 -0.4234)
(54.7156 1.65055 -0.806478)
(64.5222 -6.35042 -0.486122)
(57.228 6.57864 -0.0636194)
(61.5534 1.89556 -0.0473987)
(58.686 6.43079 -0.1053)
(60.6769 3.60184 -0.0761759)
(59.3629 4.74366 -0.0492444)
(60.3234 3.52072 0.0774364)
(60.7568 3.17866 -0.176507)
(62.4704 1.44074 0.180787)
(62.5555 -0.766393 0.843604)
(64.9363 -2.38791 1.21335)
(59.5701 -2.27909 0.444733)
(60.7596 28.4086 -99.0506)
(-40.9804 -50.0393 -38.7147)
(126.478 -92.2808 -24.2685)
(30.3163 -59.1373 2.49866)
(105.9 -46.2834 -1.82084)
(52.8162 0.695135 -2.21375)
(71.735 -12.4334 -0.961475)
(46.8477 -6.16898 -2.46646)
(55 -0.0933734 -1.02461)
(51.1546 2.79648 -1.16573)
(54.6507 4.38621 -0.509058)
(53.9349 5.3607 -0.672586)
(55.9764 5.48101 -0.483812)
(55.9355 5.90334 -0.391216)
(54.6291 2.75165 -0.719035)
(55.1444 1.66218 -0.182168)
(55.8757 0.164091 0.648656)
(54.8985 -0.970545 0.968437)
(56.3709 -1.15701 0.775461)
(51.4722 -1.16557 -0.00968421)
(259.902 -165.389 -241.376)
(61.7629 -77.2393 -45.5423)
(139.79 -80.6327 -12.0792)
(53.6473 -65.7854 3.41305)
(92.8646 -52.2676 2.67704)
(61.154 -19.767 -0.578382)
(75.5659 1.52517 -2.12225)
(54.3353 -4.48998 -2.49754)
(53.6045 -0.540374 -0.649594)
(49.7054 2.47003 -0.804932)
(49.9622 4.36195 -0.458643)
(49.7169 4.00549 -0.47428)
(51.1912 4.17855 -0.510818)
(52.3289 3.8221 -0.539621)
(52.3297 2.76542 -0.198855)
(49.7622 0.822648 -0.0165865)
(50.8803 0.687007 0.458805)
(50.6742 -0.54289 0.498343)
(53.5189 -1.24757 0.334598)
(50.1365 -1.58343 -0.0457203)
(251.772 294.653 -92.4338)
(156.873 74.6202 -46.6878)
(181.582 -8.09915 -6.2147)
(88.213 -20.355 19.7956)
(113.934 -17.2165 25.9723)
(66.5768 -14.0779 6.86004)
(68.7058 1.2467 -2.50353)
(63.9639 4.64153 -0.866371)
(55.7356 4.39934 0.0616407)
(50.9077 4.50593 -0.471278)
(48.8282 4.55048 -0.303384)
(47.3753 3.39858 -0.0190298)
(47.1116 2.83613 -0.250366)
(47.5463 2.16833 -0.160296)
(47.6095 0.764354 -0.167417)
(49.6588 -0.141489 -0.498484)
(52.7018 -1.53167 -0.458544)
(53.9667 -2.41293 -0.154378)
(57.6207 -2.71693 0.140996)
(54.1567 -2.07799 0.0712764)
(137.453 90.3235 -150.275)
(112.571 54.4898 83.1723)
(178.997 5.38968 39.5665)
(121.235 0.591797 29.7329)
(129.117 12.0115 37.5687)
(75.889 3.85632 19.1433)
(61.6789 3.92892 5.41345)
(55.0735 6.47785 2.79398)
(52.9339 6.66573 2.02714)
(50.6194 6.81807 0.584496)
(48.7159 7.20275 0.572408)
(47.8822 5.6508 -0.243553)
(48.0839 3.18829 -0.79495)
(49.5405 1.37833 -0.604832)
(51.3606 -0.646237 -0.409255)
(53.1567 -3.30656 -0.274489)
(55.8544 -4.03341 -0.209206)
(56.4718 -4.67926 -0.200283)
(59.4733 -3.92916 -0.0539285)
(55.8603 -2.6659 -0.220059)
(98.1885 -148.793 -61.7562)
(34.4754 38.1079 36.8417)
(139.833 89.8361 1.22955)
(48.7866 78.7138 -3.85343)
(89.8293 86.9297 12.2973)
(37.0623 32.8826 5.06468)
(61.4038 8.38968 1.76339)
(55.3036 8.02071 2.45143)
(50.6102 7.25753 2.88617)
(48.9324 8.59286 2.21763)
(48.5605 9.1494 0.915866)
(47.9366 6.694 -0.112439)
(48.8947 2.46657 -0.681586)
(50.5394 -0.480322 -0.263094)
(51.0435 -3.36436 0.238545)
(49.6795 -3.85254 0.601698)
(51.3547 -4.96766 0.499189)
(51.2112 -4.81998 0.204236)
(54.0933 -4.22027 0.00290768)
(51.2535 -2.70143 -0.349973)
(170.455 -216.935 -96.0936)
(-89.7448 -2.92181 -42.9104)
(79.4402 50.9748 -20.5069)
(-34.0512 48.0266 -2.13156)
(84.0509 62.9483 0.848319)
(1.48958 -1.85217 2.21605)
(42.9819 37.4243 1.17162)
(24.8672 17.0964 0.801157)
(39.2356 10.2463 0.29328)
(29.8972 7.31637 0.388795)
(39.1114 5.21761 0.185788)
(38.262 2.61051 0.977507)
(44.1201 -0.660896 1.14273)
(43.5319 -2.82291 0.894296)
(43.2067 -4.15156 0.261524)
(44.7163 -5.04 0.194983)
(46.0221 -5.8047 0.0864181)
(46.614 -5.8373 0.0376797)
(49.6253 -5.25353 0.0871153)
(47.3128 -3.67554 -0.253997)
(210.375 59.1194 -85.3)
(-43.1833 33.4961 6.9545)
(93.6914 65.256 -6.07732)
(13.2068 69.2497 -0.273577)
(95.7516 70.0504 4.37638)
(36.835 36.8668 0.311887)
(64.0895 56.2883 0.370166)
(33.7891 8.2584 -2.20737)
(46.2789 21.9593 -2.50106)
(36.6446 1.58659 -2.42602)
(43.8214 5.06885 -0.97664)
(40.7436 -3.90419 -0.425579)
(44.253 -2.18411 -0.211502)
(43.2548 -5.34885 -0.348702)
(44.8759 -4.98655 -0.278815)
(44.7157 -6.81009 -0.0157232)
(45.9735 -7.18017 0.216845)
(45.3314 -7.12711 0.243614)
(48.018 -6.06031 0.325242)
(45.1013 -3.92411 -0.212223)
(261.402 100.517 -34.0857)
(-17.2392 65.2672 -31.4979)
(47.5006 23.8583 -12.3669)
(-37.4722 29.6794 7.00333)
(70.0635 41.9245 0.328027)
(11.9147 21.8515 1.21333)
(70.6445 32.2452 -0.964582)
(50.042 9.87654 -3.66561)
(68.4157 11.7632 -2.91694)
(61.4974 0.798101 -3.31104)
(66.9744 1.45451 -0.630486)
(63.0497 -3.41263 0.643432)
(62.4963 -3.23672 0.877763)
(58.3688 -5.67466 -0.398463)
(56.9464 -5.52377 -0.380318)
(53.9128 -6.63197 0.506361)
(51.9949 -6.89681 1.02437)
(48.1603 -6.77403 0.806821)
(48.6633 -5.99101 0.681511)
(44.5027 -4.17263 0.037064)
(187.091 99.3131 18.5775)
(12.883 37.2714 15.7342)
(106.683 8.57225 26.8611)
(43.9415 17.4844 13.8059)
(99.0345 30.0839 8.97677)
(55.0901 22.5966 2.78726)
(90.4396 30.6294 1.74752)
(69.0881 11.789 -0.568208)
(86.0902 15.0142 -0.0152716)
(74.6209 3.71467 -0.57016)
(81.2256 5.88361 0.151582)
(73.8842 2.03471 0.246818)
(74.8249 3.13477 1.26143)
(69.7472 -0.288078 0.885681)
(68.4489 -1.49423 1.03435)
(63.3458 -3.04893 1.24594)
(60.4655 -2.51718 1.8902)
(54.2478 -3.13622 1.65534)
(53.761 -3.50682 1.26332)
(47.9241 -3.18309 0.345591)
(-46.7131 92.4401 -191.825)
(-125.974 76.1437 40.8295)
(29.6092 22.1278 15.6175)
(-53.2979 18.7723 9.41362)
(54.8999 24.2242 3.20484)
(1.93907 12.2055 2.12827)
(66.3391 18.3379 1.05288)
(42.9606 6.48013 0.0425817)
(72.6152 8.54773 1.60582)
(62.5062 2.42081 1.15394)
(74.167 3.32985 1.91379)
(68.7286 0.454823 1.68686)
(72.466 1.36204 2.13716)
(69.2998 -0.230911 1.69757)
(68.7992 -0.252079 2.03652)
(63.0197 -0.133947 2.05535)
(59.1919 0.920633 1.82724)
(53.5063 0.264212 1.11843)
(53.2605 -0.920012 0.805045)
(47.8829 -1.72446 -0.074097)
(48.9994 4.52323 82.3671)
(-55.6407 16.3672 -19.5119)
(86.1685 29.2266 -30.101)
(-6.9124 -6.01036 -6.39106)
(77.859 -4.83925 -1.91814)
(18.6858 -0.265779 2.61347)
(71.1281 2.55358 2.31134)
(42.7632 0.0570063 1.70177)
(71.1348 2.26605 2.03046)
(58.7902 0.464837 1.681)
(71.8046 3.23796 2.26372)
(65.8375 2.89941 2.18602)
(70.313 4.30103 2.49608)
(66.217 3.18013 2.17221)
(65.7842 4.72456 1.8727)
(59.2299 6.08161 1.25309)
(57.0166 6.47433 0.707646)
(53.6453 4.14294 0.182268)
(55.7348 1.49746 -0.00822336)
(52.6579 -0.546605 -0.68772)
(110.81 -4.43574 81.6318)
(-177.065 55.3505 -67.512)
(91.8706 45.4903 -37.6657)
(12.6845 24.2994 -14.1496)
(83.4799 10.9818 -10.0268)
(30.1498 6.64424 -6.43085)
(67.0392 -2.35563 -4.72044)
(40.7315 -2.26737 -3.05292)
(69.0613 -4.1226 -0.323151)
(58.8475 -2.56267 -0.376351)
(72.7299 -1.80376 0.562365)
(67.5185 -0.523939 0.614949)
(73.3739 1.56951 1.96321)
(69.8029 3.42949 2.52261)
(70.3688 6.55343 3.62713)
(65.9663 8.09174 2.81008)
(65.2234 7.02719 1.64149)
(62.5671 3.78705 0.390446)
(64.9846 0.571384 -0.429986)
(61.4633 -0.564106 -1.24912)
(-17.9461 -32.2436 10.1622)
(-40.7444 60.6108 -9.57312)
(107.667 12.4944 -9.92491)
(94.563 14.3043 1.14842)
(129.709 6.82006 -0.16514)
(99.3285 8.18985 1.53619)
(117.946 -0.127066 5.82027)
(90.505 -7.02899 4.33429)
(98.8239 -8.8449 2.09404)
(83.2284 -5.01499 -1.56272)
(89.9133 -1.5408 -2.28207)
(83.7424 1.71203 -2.70083)
(88.0304 3.80993 -1.63976)
(85.9748 7.48812 -0.893159)
(90.2188 10.9694 0.852256)
(95.4948 14.3631 2.1577)
(106.547 14.1216 2.64035)
(114.254 12.2984 2.2607)
(121.405 6.32416 3.56944)
(112.63 3.19474 3.48539)
(378.453 -303.23 -74.7665)
(24.0682 -86.5627 -51.2098)
(145.326 -26.8909 -64.8718)
(46.0937 -10.4776 -36.3157)
(96.807 2.46332 -10.9427)
(72.2179 2.99278 -0.894087)
(94.9248 6.06887 0.0368674)
(79.5492 5.34166 -1.27611)
(88.7304 6.6257 -1.91019)
(77.5993 6.24216 -3.24745)
(79.0107 5.90641 -2.73528)
(67.7154 4.2921 -3.49314)
(66.0813 1.57195 -2.17818)
(58.7727 -0.497741 -2.36427)
(59.3117 -1.65734 -1.88704)
(57.9275 -1.64257 -0.687816)
(60.6324 -1.64855 0.817221)
(62.249 -1.41383 0.645275)
(65.3832 -2.00026 0.774468)
(63.4987 -2.13082 0.487574)
(35.7229 -213.259 27.6742)
(-141.899 -52.4593 -34.6545)
(54.096 -37.7897 -12.8659)
(-17.4669 -17.9462 13.936)
(71.4912 -10.6001 16.306)
(35.096 -7.17547 6.02125)
(68.7765 -3.33668 1.31233)
(48.819 -0.590553 -2.73268)
(64.6411 1.26054 -3.16368)
(53.875 2.19138 -3.2159)
(61.2261 2.14237 -1.78774)
(54.8462 1.59187 -1.08009)
(57.484 0.411749 -0.12256)
(53.5093 -0.277506 0.198705)
(54.3248 -1.17444 1.09489)
(52.463 -0.648632 1.54923)
(53.7182 -0.469418 1.64321)
(53.3588 -0.714493 0.973091)
(55.4713 -1.86162 0.848221)
(51.6951 -1.95766 0.488278)
(65.1372 -211.737 -39.4587)
(-40.8396 -119.395 -57.3314)
(82.4493 -47.3522 -18.5726)
(18.6037 -18.8352 3.93082)
(82.4252 6.96864 4.61546)
(41.2249 2.50482 1.66134)
(70.1078 3.9797 0.848287)
(49.6201 3.1921 -0.865855)
(63.8359 2.17409 -0.36075)
(53.7837 3.67722 -0.635348)
(60.5143 2.80271 0.0114335)
(54.8574 3.60732 -0.00081871)
(57.2502 2.45473 0.662061)
(53.4948 2.61685 0.723242)
(54.0065 1.87267 1.19515)
(51.6697 2.07138 1.03711)
(52.2328 1.06097 0.750545)
(51.1178 -0.0572607 0.413358)
(52.9891 -1.63958 0.348765)
(48.3734 -1.7902 -0.0576881)
(178.36 39.5752 -95.2678)
(-70.4762 -31.1707 -71.4954)
(63.8024 -30.031 -17.5901)
(-53.8471 -16.9076 0.103595)
(66.2781 -8.2139 -2.10764)
(12.8185 -4.11273 0.838434)
(63.8253 -5.18051 0.0919081)
(42.3394 -1.14326 -0.595952)
(60.8825 -1.83637 -0.305396)
(50.0528 1.47295 -0.788595)
(57.1017 1.40078 -0.342517)
(51.4283 3.35743 -0.324543)
(54.0884 2.96886 0.162085)
(51.0727 3.61425 0.189024)
(52.1861 2.94153 0.44501)
(50.6335 2.77813 0.480077)
(51.6382 1.41836 0.43209)
(50.5837 0.145654 0.17224)
(52.4168 -1.44161 0.0245187)
(47.4679 -1.58163 -0.296646)
(81.2157 -86.1861 35.6279)
(-126.604 -57.7592 -34.3431)
(63.585 -70.9161 -34.8849)
(-17.3583 -41.5651 -1.51775)
(74.9179 -32.9244 -3.55196)
(31.7133 -13.6758 0.0189155)
(69.2418 -14.148 0.634538)
(49.5565 -0.760972 -0.254578)
(62.8041 -3.49537 0.275917)
(52.0731 3.55422 -0.182405)
(57.3209 1.57605 0.0990488)
(51.7532 4.86341 -0.170091)
(53.9594 3.37307 0.0620481)
(51.2891 4.37255 -0.0293586)
(52.4138 3.27506 0.112537)
(51.0967 3.22117 0.0676767)
(52.0518 1.88247 0.0402351)
(51.3329 0.402876 -0.0941256)
(53.6441 -1.43347 -0.0150501)
(49.0971 -1.5509 -0.294171)
(-16.2039 -90.3787 94.0739)
(-126.413 -83.4741 26.8249)
(67.8528 -56.762 -13.4169)
(-33.7509 -43.9961 3.58998)
(75.6798 -33.7062 -1.81137)
(12.0386 -11.2582 1.97756)
(65.3067 -14.9127 0.723535)
(41.9677 -0.721874 0.133925)
(56.0433 -2.18732 0.0128984)
(46.6664 4.08133 -0.377786)
(51.2845 2.31996 -0.21452)
(47.5098 4.94327 -0.247072)
(49.4629 3.59979 -0.0941431)
(48.3437 4.40784 -0.0290446)
(49.7213 3.08985 -0.00800679)
(49.4245 2.73489 -0.0500205)
(50.8554 1.15197 0.0310776)
(51.1312 -0.624356 0.223039)
(54.0786 -2.09869 0.478201)
(49.7802 -1.81683 -0.02136)
(205.835 -97.028 56.2719)
(-0.869212 -74.1098 -14.9786)
(114.586 -78.6854 -11.9595)
(9.64474 -55.1924 1.87511)
(93.5138 -46.9903 -1.57482)
(33.1027 -14.6909 -0.41276)
(60.8215 -32.7926 -0.0312499)
(39.7777 5.16205 -0.41555)
(51.363 -6.13493 -0.236367)
(43.3208 6.79729 -0.132023)
(48.3838 0.820561 -0.0688801)
(45.1932 5.49834 -0.134775)
(47.479 2.14162 -0.139767)
(45.9992 3.45099 -0.102323)
(47.0927 1.98465 0.00946807)
(47.2145 1.5099 -0.233727)
(48.5347 -0.198073 0.154017)
(48.4089 -1.41271 0.698105)
(50.9605 -1.99543 0.959)
(46.3978 -1.43954 0.215651)
(100.834 -154.171 -56.2695)
(41.0395 -48.9587 -36.5505)
(117.069 -83.6016 -21.9363)
(27.6854 -50.5265 2.11861)
(96.0434 -38.4048 -2.01944)
(40.7262 3.99922 -1.43628)
(60.086 -13.8644 -1.21123)
(37.9266 -2.28845 -2.44512)
(44.2075 -1.91265 -1.24527)
(40.6955 3.11352 -1.08632)
(43.9966 2.96811 -0.542416)
(43.1216 4.62973 -0.648396)
(44.8031 4.06033 -0.492075)
(44.5539 4.64658 -0.464199)
(43.323 1.3082 -0.453502)
(43.3684 0.414136 -0.0678779)
(43.9972 -0.498458 0.576612)
(43.5442 -1.08505 0.763248)
(45.6362 -0.929098 0.664188)
(41.2641 -0.712603 -0.131039)
(249.718 -135.642 -42.1009)
(144.423 -68.5857 -33.2275)
(135.935 -69.2097 -13.929)
(47.6062 -55.4976 2.61044)
(83.0601 -41.2761 0.689625)
(52.5332 -10.9378 0.0895574)
(61.9763 -0.0375688 -1.98477)
(43.2255 -5.16285 -1.853)
(44.1054 -0.704807 -0.82537)
(40.7062 1.74782 -0.655122)
(41.7658 3.39202 -0.510523)
(41.466 3.41275 -0.456556)
(42.7939 3.53355 -0.560029)
(43.3697 3.19803 -0.506722)
(43.0635 1.79476 -0.00992715)
(40.5178 -0.00886733 0.410107)
(41.6626 0.0214783 0.56686)
(41.5451 -0.948609 0.506229)
(44.2109 -1.04074 0.338046)
(40.5127 -1.09209 -0.106515)
(400.615 -38.1713 -20.0593)
(222.461 6.06154 -48.6293)
(173.747 -11.0522 -9.6877)
(49.8523 -14.3625 12.7942)
(94.1688 -11.7632 18.5388)
(52.3725 -10.0324 6.23761)
(60.0348 1.12751 -0.890606)
(53.2939 1.33393 -0.71311)
(46.8316 1.65461 -0.0281313)
(42.8928 2.60858 -0.602135)
(41.3449 2.69202 -0.441049)
(40.1465 2.14891 -0.287193)
(40.2793 1.86654 -0.371337)
(40.7638 1.30617 -0.236515)
(40.6518 0.0321375 -0.0124931)
(41.3762 -0.803535 -0.00935105)
(43.4683 -1.58772 -0.0650848)
(43.7729 -1.78157 0.104387)
(46.6749 -1.69816 0.278834)
(42.9633 -1.09719 -0.00117689)
(188.51 -8.38688 -37.3283)
(104.353 39.2496 -66.112)
(164.549 35.132 -29.7096)
(55.0147 25.6599 5.13079)
(91.8261 20.7875 25.3147)
(47.4431 4.49594 16.5538)
(53.6647 2.95485 6.50441)
(50.4018 4.88799 3.7317)
(47.247 5.03984 2.39833)
(45.2245 5.06546 3.29116)
(43.5994 5.03587 0.291096)
(42.0714 3.14493 -0.398269)
(41.5414 1.61217 -0.799044)
(42.6557 0.366964 -0.412081)
(43.4076 -1.61874 -0.161615)
(43.638 -3.60354 0.116049)
(45.3155 -3.4632 -0.0194602)
(45.3575 -3.43584 -0.0415323)
(47.8943 -2.32517 0.0211397)
(44.0974 -1.34356 -0.261437)
(149.652 -173.803 57.6251)
(-8.90288 97.9674 19.7803)
(118.166 116.638 -14.201)
(4.84742 84.7592 -7.52447)
(71.3799 77.5693 5.71414)
(21.8733 20.2057 3.85912)
(52.0751 5.10948 2.55758)
(45.3906 11.3534 3.16729)
(42.1099 10.0956 3.00942)
(40.7257 9.18015 1.90869)
(40.4615 7.12941 0.719246)
(40.2267 3.6167 -0.0318055)
(41.0175 0.334937 -0.209534)
(42.207 -1.68297 0.0994798)
(42.1549 -3.53595 0.537232)
(40.4354 -3.27416 0.811457)
(41.9918 -3.96104 0.48352)
(41.7789 -3.44436 0.16912)
(44.5624 -2.69182 -0.046125)
(41.3907 -1.5205 -0.380379)
(232.264 -150.503 -101.802)
(-49.0371 30.1695 -12.7067)
(68.2331 64.3794 -17.8626)
(-40.6415 52.2267 -0.55615)
(69.5739 51.1478 -0.0755155)
(-13.0977 -7.67759 2.56583)
(27.6341 36.4942 1.03432)
(14.0669 16.5082 0.667298)
(30.6436 13.5134 0.421088)
(23.0663 7.99541 0.510685)
(32.4304 5.17893 0.427902)
(30.9221 1.44211 1.21404)
(35.9443 -1.21283 1.15957)
(35.3357 -3.1044 0.957188)
(34.8269 -3.44728 0.454587)
(36.3991 -4.20882 0.250901)
(37.6102 -4.50668 0.137981)
(38.1919 -4.2781 0.0119064)
(41.027 -3.61409 0.0125116)
(38.4742 -2.36138 -0.290345)
(82.3027 104.651 -165.143)
(-71.4901 67.8156 -7.60668)
(75.353 83.8382 -7.51551)
(-10.4427 70.3364 0.860238)
(82.6014 62.3436 2.49311)
(16.7419 29.4652 0.954129)
(51.5847 52.2369 0.17679)