/*--------------------------------*- C++ -*----------------------------------*\
  =========                 |
  \\      /  F ield         | OpenFOAM: The Open Source CFD Toolbox
   \\    /   O peration     | Website:  https://openfoam.org
    \\  /    A nd           | Version:  10
     \\/     M anipulation  |
\*---------------------------------------------------------------------------*/
FoamFile
{
    format      ascii;
    class       volScalarField;
    location    "9.5";
    object      p;
}
// * * * * * * * * * * * * * * * * * * * * * * * * * * * * * * * * * * * * * //

dimensions      [0 2 -2 0 0 0 0];

internalField   nonuniform List<scalar> 
12920
(
853295
812383
577486
515818
437160
393829
342357
309915
273006
245479
215649
190541
164866
141717
118422
96854.1
75205.9
54152.1
32685.7
8581.27
690435
666607
546220
491524
421588
383347
333692
304254
268530
242212
213405
189067
163563
140606
117638
96296.1
74844.4
53923.2
32651.3
9014.72
478861
482904
454232
441144
384445
357012
316155
291802
259774
236105
208646
185690
161396
138809
115872
94570.8
73530.1
53216
32392.6
9219.7
246905
397412
390347
392942
345683
328883
293980
274746
246009
225159
200635
179231
156322
134827
113098
92437.9
72034.1
52135.1
31726.8
9026.28
382667
401155
352323
334931
308071
298710
270329
254916
230600
213162
190551
171534
149843
130582
109609
89620.4
69790.3
50531.2
30671.9
8512.51
-30202.5
195790
195190
249422
249588
257529
239603
227308
212724
196342
178873
161437
142262
123958
104835
85758.9
66844.7
48288.5
29271.3
7810.33
-64396.3
105133
177406
233016
229775
234331
222190
214841
200524
185926
167681
151990
132981
116267
97622.7
81069
63176.9
45493.2
27427
7027.96
-490787
-572.499
45029.8
146354
170659
201481
205274
205515
194445
181528
165362
148241
129692
112216
90105.2
74059.7
58130.7
41967.4
25329.4
6073.48
-123320
140151
133784
191033
186040
200782
194589
194071
184851
172143
156704
140007
121743
104913
85122.4
66212.8
52740.9
38264.3
23063.9
4994.8
196598
222490
170328
219952
185070
199640
192659
179814
166294
152050
137882
124208
110445
95608.5
78576
60457.6
47620.6
34915.8
20932
3903.13
273311
263346
249867
241238
197603
197220
181601
163513
148045
134307
122233
109548
98107.1
86990.3
71898.8
55325.2
43983.8
32094.7
19045.4
3003.12
372517
333734
277946
249348
191470
189367
169444
154009
138327
124216
110472
99178.8
87626.5
77735.9
63736.7
50390.7
40915.5
29655.9
17395.6
2224.73
574295
417612
294975
252823
199060
178943
156253
140750
123655
111816
98504.7
87002.5
76791.3
68044.6
56590.7
47416.1
37789.1
27507.7
15935.1
1442.62
579818
427623
271413
248313
177749
166380
134020
123188
104758
98071.5
85057.1
79416.4
69422.7
62073.8
52341.8
43699
34352.9
25128.6
14489
756.974
469612
364725
208410
197309
154158
144681
120708
111343
96131.6
88770.9
78738.4
71699.3
63717.4
56510.7
48021.2
39961.4
31113.3
22884.2
12967.6
-71.5766
414203
234201
157467
150537
102882
110897
89481.2
91305.9
78903.6
76935.2
68579.9
64452.3
57145.1
51352.7
43510.8
36245.9
28019.5
20440.2
11354.1
-782.164
80544.7
78327.3
74531.1
106161
69214.5
81120.4
71289
77251.8
69121
68541.1
62390.5
59072.8
52450.8
47185.9
40003.1
33377.4
25818.9
18676.4
10214.7
-1418.02
-223821
-102110
-31284.7
38555.4
24436.4
52661.9
46494.4
59642.2
54359.6
58027
54731.8
53478.3
47645.4
43521.3
36852.4
31039.2
23879.9
17259
9224.72
-1996.24
-640184
-226056
-114748
-6642.22
-7409.81
36024.6
33439.1
48607.5
47022.7
52337.1
48820.3
49090.7
44522.9
40952.3
34840
29435.2
22710
16345.5
8485.32
-2497.52
-545636
-262252
-164175
-45567
-29511.2
20033.6
24114.5
42624.8
42281
49197.4
46519.3
46888.6
42359.3
39445.9
33698.1
28704.6
22132.3
15867.3
8042.4
-2875.34
888535
806824
579417
516343
437726
394271
342677
310090
273156
245575
215712
190494
164883
141788
118435
96851.1
75193.9
54159.9
32723.4
8658.41
689659
682895
550523
491911
422001
384087
334105
304837
268787
242364
213613
189180
163514
140503
117582
96173.5
74764.3
53900.7
32694.2
9153.34
465394
494110
450433
439123
383726
357233
316317
292397
260219
236651
208889
185433
161075
138664
115864
94665.8
73618.6
53241.7
32435.2
9375.64
436641
418857
396774
391759
345784
330046
294075
275220
246166
225025
200859
178960
156335
134788
113091
92463.3
72067.9
52165.6
31794.3
9262.53
325311
404845
354220
338820
309497
299435
269951
253751
230231
212379
190549
171542
150336
130365
109523
89631.6
69818.6
50564
30744.8
8775.11
-6777.55
199610
198194
251841
249485
256287
239043
227077
212484
196098
178659
161483
142512
123862
104709
85713.4
66854
48311.5
29343.8
8089.18
-51246.7
98106.5
179521
230198
229409
231730
222284
214975
200355
186436
167595
151896
132926
116233
98042.9
80868.5
63076.3
45497.4
27491.7
7282.27
-410365
-25021.8
43139.3
146740
169847
202483
204718
205863
195183
181678
165180
148357
129871
112371
89828.2
74173.5
57948.7
41952.2
25385
6319.04
-101271
145297
134147
189688
185755
201247
194453
194421
184652
172023
156641
139908
121821
104876
85252.6
66334.2
52764.4
38261
23128.3
5232.48
208828
234667
167554
217850
183743
200882
192694
179839
166254
152088
137890
124233
110144
95448.5
78619
60210.6
47754.4
34931
21000.9
4133.1
316657
301299
248831
241269
197964
196263
182087
164511
148824
134888
122254
109675
98616
86837.1
71886.4
55136.6
43991.1
32099.3
19121.9
3201.79
409562
326847
274051
247399
190286
188358
169611
153777
138059
124069
110638
98776.5
87239.7
77846.7
63373.6
50520.8
40851
29660.8
17437.8
2401.47
459321
409445
292969
251207
198080
179871
156102
139462
123346
111259
97998
87126.5
76717.7
67981.6
56680.8
47650.4
37774.1
27570.5
15987.9
1593.88
453187
393625
274240
246639
179038
167092
133078
123211
104262
98342.8
85600.2
79542
69467.4
62157.5
52422.7
43880
34623
25184.6
14588.9
867.508
456585
352686
210885
199194
151974
144624
121528
111778
96212.7
88406
78724.3
71680.9
63717.7
56499.4
48045.9
39987.4
31238.8
22852
13029.5
116.308
287756
219805
157551
148067
102557
109764
89375.3
91076.8
78897.4
76803.8
68648.9
64458.4
57139.6
51315
43488.8
36175.3
27993.3
20571.9
11404
-642.105
16068.3
57902
68090.1
100884
68242.9
80665.6
71165.6
76609.6
69303.2
68407.6
62407.9
59072.1
52466.2
47150.1
39988.9
33314.1
25783.6
18657.2
10286.6
-1266.33
-294786
-105846
-30363.4
36622.1
24159.2
53252
46947.6
59601.6
55082.3
58143.7
54781.7
53450.8
47635.1
43461.6
36793.6
30960.7
23824.7
17234
9285.37
-1859.42
-642204
-221847
-113767
-8450.74
-7132.85
35671.5
33832.5
48526.6
46893.5
52227.1
48797.7
48913.3
44500.1
40869.7
34779.3
29370
22667.1
16325.5
8539.64
-2407.29
-577023
-252094
-163199
-45737.1
-29871.1
20855.6
24148.6
42659.6
42131.3
49157.2
46463.9
46872.1
42222.4
39362
33632.6
28651
22114.7
15840.5
8063.27
-2823.3
956099
801700
580604
517047
438436
394909
343264
310414
273540
245823
215743
190560
164857
141721
118455
96833
75197.9
54177.1
32791.6
8856.26
900879
711468
559883
494443
423341
385651
334981
305773
269201
242416
213449
188940
163507
140601
117607
96154.6
74780
53944.2
32772.2
9376.43
522611
532547
456100
439245
383257
358001
317082
293423
260984
236893
209158
185522
160984
138626
115895
94748.8
73692.6
53303
32519.5
9614.86
462297
461207
403343
392241
346782
331420
294037
274588
246364
224729
201274
178923
156352
134789
113129
92521
72135.8
52229.3
31905.1
9536.57
358560
430880
359957
343419
311172
298647
269138
252152
229751
211928
190621
171463
150395
130276
109500
89677.3
69882.3
50630.2
30877
9112.82
124877
208695
200524
255185
249041
254203
237919
227193
212182
196402
179070
161445
142878
123752
104640
85711.4
66897.9
48362.5
29471.3
8438.63
1938.68
102563
181425
226988
225704
230852
221867
214972
199920
186705
167601
151960
132991
116212
98201.5
80655.8
62990.8
45502.4
27598.4
7612.05
-506086
-40126.1
41673.4
147392
170243
203097
205004
206132
195452
182084
165099
148480
130176
112540
89462.2
74118.5
57766.9
41944.1
25462.1
6621.18
-113656
127329
136938
190180
186159
201598
194661
194705
184429
171682
156499
139787
122137
105278
85577.6
66310.4
52766.4
38258.2
23211.7
5540.86
246152
243818
163896
216524
183400
201294
192740
179981
166407
152080
137726
124136
109756
95267.2
78702.7
60223.5
47834.9
34942.4
21095.1
4429.67
391735
328176
250973
244115
199542
196785
184129
166032
149976
135024
121578
109555
98818.4
86682.5
71457.5
55085.3
43992.6
32102.2
19202.9
3429.2
443725
366949
275297
248195
190224
187734
170331
153650
137741
123753
110546
98352.4
87067
77216.5
63181.1
50569.9
40836.9
29676.4
17514.3
2585.86
422161
402302
287201
249149
196901
180162
154359
137893
121889
110602
97649
87141.8
76619.5
67902.6
56757.5
47838.5
37765.5
27588.5
16071
1767.6
289130
371815
270801
244716
179059
167885
132711
123137
104631
98510.1
85942.1
79818.1
69570.8
62348.3
52554.1
44115.4
34768.6
25338.3
14672.3
1051.88
418069
333295
214383
201233
150499
144072
121311
111707
96290.7
88225
78723.7
71639.8
63736.6
56507.7
48113.1
39953.5
31336.9
22822
13214.1
332.536
234839
225401
155641
145513
102498
108987
89721.5
91026.6
79014.9
76721.8
68721.2
64459
57144.8
51271
43509.8
36221.1
28101.3
20672.5
11519.2
-456.302
175886
111385
88709.4
103401
68260.8
80793.6
71493.6
76317.2
69429.5
68435.6
62449.5
59062.1
52502.3
47105.4
39997.5
33317
25765.2
18729.9
10375
-1101.28
-307069
-91927.5
-26065.9
35736.4
24006.6
53572.4
47341.7
59625.7
55542.1
58323.5
54836.9
53359.9
47643.5
43397.3
36706.1
30883.4
23730.1
17200.1
9359.18
-1715.65
-507618
-194928
-110060
-8839.52
-6779.78
35732.5
34176
48730.4
47027.7
52153.1
48819.6
48803.9
44363
40715.5
34679.7
29257
22587.3
16298.1
8590.04
-2212.59
-692126
-241187
-160459
-46111.1
-29556.1
21331.5
24161
42633.2
41976.9
49066.9
46448.9
46860.7
42108.9
39230.6
33512
28569.9
22052.4
15825.2
8110.73
-2722.36
957834
794216
584710
519789
438719
395574
343209
310556
273396
245695
215646
190576
164877
141689
118456
96818.8
75203.9
54216.7
32850
9110.73
773626
700410
560415
495512
424592
386902
335598
306076
269393
242641
213453
188967
163571
140674
117671
96156.4
74791.8
53971.6
32835.8
9677.45
390147
532600
447109
435950
383503
359306
318718
294608
261882
237064
209280
185618
161024
138663
115964
94816.2
73760.9
53361.2
32579.1
9918.41
428892
500453
403481
392442
347106
331549
294069
274243
246474
224792
201450
178962
156470
134834
113221
92596.4
72224
52309.4
32009.2
9888.81
298077
449735
357271
345660
310896
298012
268446
251303
229702
211800
190674
171397
150385
130236
109538
89736.5
69978.2
50750
31041.9
9526.09
37260.5
205130
197505
258452
248471
253099
236505
227265
212264
196618
179374
161410
142915
123656
104590
85730.3
66977
48449.8
29586.4
8848.43
37122.4
105762
180947
223413
222478
230187
221394
214894
199331
186681
167740
151966
133086
116098
98093.9
80493.5
62935.1
45521.8
27671.8
8005.78
-581142
-50220.1
38861
147105
169519
203302
205305
206273
195112
182225
165129
148569
130419
112756
89194.5
73970.3
57616.6
41931.8
25485.4
6982.09
-82309.8
120964
141483
192252
188121
202130
195109
194705
184333
171316
156498
139816
122927
105999
86021.6
66366.5
52742.9
38240.1
23229.3
5888.52
113451
262355
164351
213450
183486
201177
192832
179692
166402
152009
137579
123893
109711
95364.3
78678
60246.2
47850.4
34937.2
21124.1
4772.75
408610
373963
258178
246443
201043
197578
185271
166925
150177
134612
121253
109832
98465
86351.1
70846.8
55056.8
43975.1
32095.1
19231.7
3682.05
504396
366085
279127
248431
191111
187674
170665
153833
137640
123622
110356
97955.2
86857
76465.6
63144.4
50619.9
40832.7
29707.7
17590.7
2812.4
540066
409920
285753
247223
195440
180151
152280
137204
121009
110448
97492.4
87087.1
76581.4
67877.5
56808.6
47940.6
37771.8
27639.6
16164.4
2040.29
205996
340628
267215
241475
178824
167705
132459
123047
104871
98528.7
86136.9
80118.1
69660.2
62572.7
52665.1
44180.8
34777.1
25507.5
14795.2
1354.78
347081
315732
217863
200632
149257
143370
120946
111468
96293.5
88148.9
78732.1
71516.5
63741.3
56460.2
48163.6
39946.3
31436
22828.1
13288
625.496
365570
231884
157496
143322
102268
108585
89928.6
90901
79099.6
76678.4
68728
64441.5
57135.4
51192.4
43541.5
36231.8
28143.6
20665
11631.5
-189.246
263622
119686
83189.7
99954.2
67561.3
80739.2
71692
76131.4
69488.6
68340
62472.2
58936.3
52531
47032.5
40018
33309.3
25759.2
18758.8
10431.1
-913.712
-319308
-82650.1
-23011.5
34388.8
24051.3
53403.4
47660.3
59653.2
55818.2
58457.7
54823.9
53119.6
47642.6
43273.4
36602.5
30837.3
23718.3
17223.3
9404.94
-1500.64
-582028
-189384
-105984
-11640.5
-6261.19
35904.4
34762.7
49177.4
47109.5
52186.2
48882.4
48772.9
44189.6
40604.8
34559
29201.4
22507.3
16226.6
8633.33
-2044.6
-733839
-233539
-164086
-47696.1
-30425.9
21341.3
23731.7
42421.9
42112
49069.5
46326.2
46786.5
42059.9
39164
33417.2
28491.2
21974.7
15816.5
8161.53
-2600.15
1.05445e+06
783657
587985
521816
438935
395955
343203
310659
273320
245655
215656
190538
164879
141672
118407
96789.4
75201.7
54236.8
32904.8
9575.55
740435
699522
566124
498091
425372
387977
335974
306390
269561
242859
213484
188974
163544
140637
117640
96126.4
74779.7
53982.2
32867.4
9986.15
396521
547349
444016
435724
383578
360156
319463
295132
262205
237331
209490
185758
161136
138718
116035
94863.6
73809
53400.4
32611
10204.9
423819
512003
405374
394567
347051
331650
294385
274474
246587
224879
201270
179029
156657
134901
113360
92637.3
72288.9
52376.3
32080.9
10173.7
330293
473688
356094
346901
310613
297733
268327
251128
229665
211680
190631
171329
150294
130244
109650
89801.6
70100.8
50868.2
31185.4
9851.5
173547
208625
203952
259971
248359
253354
235390
227084
212327
196674
179484
161380
142773
123600
104502
85778.5
67121.3
48588.8
29750.6
9194.44
92749.6
112521
183957
222825
221668
229188
221081
214785
199002
186604
167806
151878
133007
115943
97910.8
80408.2
62889
45586.1
27796.7
8334.38
-522849
-51950.9
38462.8
146629
169395
203179
205244
206453
194719
182027
165232
148802
130530
112907
89026.1
73885.8
57537.9
41926.3
25459
7288.8
-8510.56
121606
141637
193212
188754
202241
195711
194313
184505
170839
156569
139998
123583
106520
86239.6
66421.4
52706.2
38197.3
23164.6
6128.15
222730
263345
164238
212552
183648
201428
192967
179733
166292
151916
137542
123806
109878
95659.6
78586.6
60212.3
47841.1
34909.1
21068.6
4974.78
335992
398979
252506
246475
201999
197847
185375
167083
150179
134968
121396
109820
98202.1
85959.3
70610.9
55000.1
43963.8
32074
19194.4
3856.02
604478
386582
285289
250545
193186
188002
171570
153789
137533
123512
110175
97756.5
86716.3
76218.1
63020
50581.2
40833.6
29706.8
17624.5
2993.61
631350
396663
280976
245892
194334
180098
151538
137051
120765
110376
97348.3
87062.6
76573
67872.6
56763.6
48016.4
37752.2
27688.5
16249.8
2300.93
169645
301098
259349
239562
177615
167077
132544
123064
104975
98461.6
86245.6
80079.3
69721.7
62639.9
52726.5
44113.2
34751.8
25570.5
14884.9
1640.13
323937
315072
216059
199266
148706
142969
120791
111101
96286.3
88080.8
78738.6
71587.9
63746.7
56397.5
48160.2
39949.7
31478.9
22881.5
13350.9
892.526
424929
239841
160933
142383
101899
108551
89976
90753.5
79094.6
76612.2
68704.9
64376
57120.2
51160.2
43534.8
36227.9
28173.5
20621.9
11659
28.122
318035
138613
87145.7
100557
67699.8
81363.2
71918.9
76044.6
69541.9
68413.7
62498.5
58801.1
52538
46996.5
40001.6
33293.8
25744.1
18710.5
10409.9
-726.235
-316135
-65024
-23948.5
34114.6
23902.4
53550.3
47967.9
59827.9
55953.1
58635.2
54789.6
53033.4
47619.4
43209.7
36562.8
30802
23696.8
17167.8
9376.92
-1344.66
-534288
-166445
-102313
-11347.6
-5073.18
36259.5
35062.8
49394.3
47286.1
52237.1
48998.9
48791.8
44087
40546.8
34510.6
29150.7
22466.3
16199.3
8644.01
-1892.57
-639114
-223409
-157711
-47460.6
-30647.1
21137.5
23655.9
42357.5
42083.4
48959.3
46161.4
46697.3
42026
39140.5
33375.8
28472.4
21938.5
15809
8206.86
-2435.11
141260
138428
128971
152032
141165
138178
128788
127529
125656
116568
137604
127383
125311
116383
124811
126375
116334
135009
124524
126280
116257
112626
112952
103723
121324
112572
112855
103511
194521
194567
185879
194558
194592
193964
186069
188762
183255
174537
194315
188700
183237
174569
175566
170852
160348
184721
175489
170801
160332
161029
156665
146063
172077
160956
156672
146087
144685
142461
132201
156666
144573
142440
132122
126514
128495
117267
139939
126496
128448
117156
109551
113470
101717
121782
109210
113126
101552
92207
97716.4
86886.2
104855
92164
97619.7
86828.5
182981
182604
170597
192837
183139
183880
171809
169886
166799
155435
179750
169811
167934
156414
155657
151708
141085
166231
155723
152717
142025
141431
137815
128998
152085
141444
138610
129046
127677
125933
116299
137904
127707
125909
116371
113882
113042
104020
124241
113849
113091
104276
99387.8
101304
92539.7
110266
99209.5
101522
92336.5
84742.3
89228.5
79452.7
95495.5
84681
89080.8
79386.8
167672
173162
160044
181930
168288
173135
159879
151657
156045
144380
164015
152047
155887
144227
137704
140640
130054
148380
137982
140489
129948
125033
126573
116414
134613
125238
126469
116529
112749
113036
104535
122273
112876
113258
104196
100787
101406
92828.8
109634
101103
101154
92665.2
90025.2
90064.3
82514.6
98486.4
89961.2
89916.8
82749.7
77462.1
80096.2
72160.1
86865.7
77418.9
80181.8
72115.3
158163
162676
152584
169501
158020
162674
152068
142166
148093
134831
153844
141987
147606
134497
127799
130173
121069
138150
127690
130051
120899
114009
117237
107492
124125
114017
117246
107222
102182
103637
95324.5
110668
101973
103504
95249.9
90622.2
91638.6
84516.9
98883.9
90392.2
91691.7
84377.5
80161
80772.2
74134.5
87351.2
80341.9
80649.2
74003.4
70411.8
70839.7
64345.8
77883.4
70124.5
70842.8
64440.9
194660
193779
186042
194731
194681
193759
185816
188673
183256
174666
194659
188631
183139
174836
175416
170826
160323
184492
175120
170909
160256
160925
156657
146077
171774
160822
156532
145996
144509
142414
132094
156523
144257
142296
131979
126524
128471
117043
139794
126696
128412
116717
109110
112999
101489
121998
109344
112705
101341
92439.2
97577.1
86858.6
105108
92913.7
97469.8
86841.9
183317
184565
172299
192798
183342
186722
173422
169850
168367
156751
180020
170019
169309
157412
155738
153051
142346
166377
155750
153678
142773
141432
138854
129053
152086
141317
138859
129032
127694
125865
116370
137777
127583
125710
116474
113793
113097
104361
124170
113531
112945
104591
99140.9
101630
92278.8
109830
98945.2
101619
92109.9
84721.7
89036.5
79416.1
95304.1
84643.3
88899.4
79297.8
168765
172904
159822
183819
170047
173433
159998
152522
155841
144176
165750
153592
155986
144177
138320
140436
129898
149807
138853
140450
129875
125298
126430
116530
135031
125121
126409
116363
112904
113226
104077
121938
113103
112984
103796
101213
101054
92607.8
109750
101447
100810
92602.5
89932.7
89919.3
82781.7
98857.2
89826.5
89981
82758.5
77455.3
80178.4
72117.8
86733.3
77296
80066.4
71649.3
157966
162539
151726
170318
157837
162790
150573
141882
147264
134267
153614
141547
146063
133410
127621
129958
120690
137791
127407
129198
120015
114043
117037
107008
123842
114061
116480
106857
101868
103289
95263.8
110578
101598
102982
95228.6
90273
91662
84274.6
98454.8
89998.3
91555.9
83917.5
80386.3
80588.9
73967.5
87089.2
80162
80378
73884.1
69974
70853.2
64499.3
77431.7
69382.6
70832.3
64383.9
194664
193680
185724
195099
194658
193801
185470
188616
183063
174836
194737
188582
182837
174697
174987
170918
160224
184349
174557
170868
160143
160816
156474
145959
171422
160947
156350
145857
144178
142252
131921
156476
143943
142122
131688
126847
128325
116651
139784
127442
127966
116702
109510
112652
101319
122685
109990
112687
101435
93284.7
97462.7
86937.5
105799
93842.5
97628.5
87290.7
183282
187286
173759
192861
183049
188753
174667
170048
169585
157558
179759
170022
170320
157804
155740
153797
142805
166422
155709
153902
142614
143834
148525
147523
152071
143884
148513
147477
130292
134356
133475
137672
130316
134304
133377
113461
112745
104585
123940
113395
112764
104321
98894.2
101551
92045.5
109673
98851.8
101260
91821.6
84680.4
88845.6
79306.9
95271.1
84728.7
88643.1
79018.6
170355
173547
160305
185156
171115
174596
161019
153793
156237
144335
166732
154175
156801
144649
138941
140543
129860
150179
138688
140697
129769
129158
131630
131957
135068
128840
131279
131942
115071
118340
118406
121129
115185
117431
118320
101469
100741
92595.9
109578
101347
100515
92508.5
89776
89981
82697.7
98565.2
89546.9
89840
82128.3
77252
79964.3
71460
86454.9
76797.3
79298
70866.8
157909
162672
150106
170671
158217
163174
149280
141565
145710
133021
153814
141648
145062
132115
127342
128833
119756
137655
127201
127886
119459
114045
116299
106841
123645
113963
116057
106922
101518
102882
95163.1
110404
101259
102718
94976.6
89971
91514.5
83802.6
98044.9
89871.9
91387.6
83553.7
79988.3
80316.3
73875.6
86923.8
79500.3
80180.7
73857.1
69276.2
70826.7
64409.4
76635.2
68918.8
70797.5
64335.6
194647
193759
185408
195627
194645
193929
185397
188556
182790
174626
194449
188482
182864
174368
174406
170830
160128
184418
174008
170688
160080
161017
156334
145828
170941
160917
156298
145778
143888
142082
131609
156573
143775
141988
131456
127756
127841
116754
139961
128176
127657
116884
110193
112746
101596
123485
110664
112919
101983
94067.2
97753
87496.5
106440
94266.1
98063.2
87740.6
182979
188922
174804
192998
182886
188898
174760
169975
170411
157805
179670
169850
170388
157802
155702
153857
142502
166315
155647
153807
142477
141151
138370
128593
151942
141138
138833
128458
127356
125278
116433
137537
127296
125280
116240
113412
112975
104246
123814
113473
113113
104158
98947.9
101170
91745.3
109842
99203.4
101080
91620.2
84874.1
88572.1
78955
95607.8
84986.8
88415
78622.7
171318
174773
161126
185506
171569
175612
161325
154211
156895
144730
167078
154230
157027
144746
138567
140708
129748
150163
138608
140653
129701
124416
126254
116220
134914
124470
126195
116147
113046
112812
103451
121318
112768
112720
103352
101287
100457
92476.2
109811
101162
100372
92444.4
89449.9
89761.1
81925.4
98240.3
89141.6
89618.9
81551.3
76706.9
79092.7
70810.5
86026
76301.3
78652.9
70551.8
158264
163094
149031
171482
158293
162829
148669
141710
144900
131964
153802
141821
144554
131918
127169
127665
119393
137571
127093
127425
119230
113931
115996
106902
123544
113836
115831
106635
101176
102663
94908.6
110214
100988
102489
94673.2
89834
91352.2
83527.6
97769.4
89806.7
91205.6
83482
79378.9
80163.3
73843.8
86700.4
79131.4
80146.8
73705.3
68920.7
70797.8
64443.9
76229.2
68767.8
70777
64432.7
194632
193906
185489
196716
194686
194192
185690
188399
182893
174274
194307
188220
182931
174195
173911
170641
160063
184731
173785
170600
160061
160829
156280
145774
170886
160675
156263
145855
143780
141976
131433
156475
143800
142057
131436
128233
127633
116919
139992
128248
127616
116997
110769
112965
102113
123610
110907
113038
102211
94363.2
98139.2
87822.5
106639
94214.8
98246.4
87761.7
182909
188577
174687
193113
183056
188284
174624
169827
170368
157835
179828
169821
170428
158018
155616
153844
142549
166262
155554
154072
142817
141143
138907
128508
151869
141234
139149
128662
127286
125317
116220
137670
127302
125408
116246
113494
113132
104155
123806
113552
113176
104164
99269.9
101075
91588.6
109952
99363.1
101068
91539.5
85057.5
88376.2
78631.1
95755.3
84908.1
88326
78459.9
171549
175717
161369
185348
171602
176206
161551
154244
157048
144718
167198
154392
157159
144678
138660
140622
129694
150356
138936
140614
129730
124544
126186
116144
135269
124895
126229
116203
112770
112712
103354
121709
112816
112795
103506
101146
100405
92466.5
109852
101139
100592
92484.4
89076.1
89645.9
81489.5
98161.7
88985.8
89665.3
81498.5
76298.7
78588.7
70583
85874.9
76081.2
78606.3
70387
158301
162651
148584
172021
158390
163172
148551
141793
144434
131893
153853
141674
144374
131765
127071
127389
119164
137485
127041
127369
118969
113813
115781
106512
123484
113779
115692
106221
100967
102441
94598.6
110190
101029
102345
94342.3
89840.2
91180.7
83489.9
97871.1
89898.6
91103.7
83527.1
79124.7
80161
73726.7
86885.9
79192.2
80211.9
73849.1
68799.7
70788.3
64547.1
76273.7
68542.2
70833.3
64465.8
140011
144793
136794
141211
140131
144749
136683
139364
143170
135993
138726
139514
143019
138247
135923
132800
132070
129560
136056
132681
132263
143801
152055
148454
147478
148488
147461
143804
139964
141181
144690
136672
144702
136633
140045
139375
138643
143080
135793
142984
138144
139430
135889
129342
132668
131791
132631
132091
135945
126901
130846
123802
127474
126962
130781
123829
126205
129488
122316
125987
126299
129311
122711
122897
119858
118978
116615
122983
119953
118019
130235
137631
134233
133303
134262
133306
130184
126878
127423
130703
123731
130731
123807
126845
126107
125933
129314
122198
129245
122590
126154
122777
116484
119783
118806
119910
117959
122875
125509
128075
121792
124426
125275
127733
121822
124777
128590
123089
126342
125013
128409
123077
121498
118582
119611
116318
121670
118502
119601
129158
135064
131312
131781
131253
131883
128668
125421
123916
127664
121485
127162
121727
125006
124795
126311
128479
123013
128363
123051
124983
121486
116295
118488
119557
118473
119585
121605
112069
115255
109143
112668
112131
114118
109141
112524
115427
109830
112933
112500
115388
109784
109875
106708
106657
103658
109630
106900
106598
114937
120603
118202
118052
117174
118222
114858
111958
112641
115276
109146
113839
109089
111919
112473
112902
115312
109680
115347
109734
112368
109810
103585
106626
106468
106872
106532
109545
210363
196585
201817
205334
210657
196639
201365
200334
197642
196316
205609
200425
197795
196374
190422
188931
184874
194873
190325
188740
184732
174974
176549
171044
181540
174949
176409
170970
158282
160130
153537
165265
158156
160073
153432
139774
142501
134004
148269
140016
142583
134145
122007
123689
116853
129755
121871
123832
116900
104039
106779
100194
112271
104297
106958
100244
195868
199491
195817
201010
196016
199614
195646
193952
195564
195837
194445
195535
195758
193945
188886
192810
190044
194123
192839
190113
188724
177151
182307
180362
184817
182219
180382
177200
163434
168576
167005
172129
168558
166976
163457
148752
153153
152439
156699
153182
152429
148761
132344
136327
136280
139995
136280
136228
132410
114957
118211
118630
121748
118198
118586
115007
98706.5
101529
102110
104893
101493
102080
98751.3
78494
81302.8
75728.6
85162.7
78647.8
81346.1
75593
194056
195974
186112
200049
194155
196445
186848
186482
189614
190683
192726
189754
190803
186350
172494
176579
176039
179787
176530
176048
172474
158247
162757
161753
166251
162750
161773
158227
144145
148555
147624
152063
148559
147636
144140
130404
134496
133745
137888
134507
133730
130421
117045
120802
120320
124218
120805
120321
117051
104151
106977
107407
110444
106869
107406
104159
89949.8
91975.7
93524.1
95576.3
91958.3
93483.9
89974.7
71646.4
75228
69203.8
78619.2
71563.5
75247.6
69147.9
186958
192093
178519
196756
186978
192230
178566
173065
176494
179035
181543
176640
178962
173039
156544
159420
160552
163538
159421
160506
156539
141867
144535
145367
148041
144547
145387
141888
128328
130907
131632
134375
131044
131639
128290
115930
119232
118919
122233
119232
118926
115938
103445
106458
106453
109550
106467
106422
103491
92731.3
95449.4
95210
98236
95580.6
95240.4
92657.8
81693.1
83785.5
84740.9
86933.4
83766.9
84700.6
81705.7
66131.4
68681
63085.4
71921.7
66094.5
68691.9
63019.6
174729
188251
170558
189062
175315
188354
171008
164438
165900
169841
169290
165872
169797
164455
147992
150016
152287
153962
149970
152245
148026
132456
134810
135913
138289
134772
135891
132479
118645
120836
122018
124193
120806
122012
118680
105266
107453
108365
110561
107615
108352
105286
94063.8
96366.3
96928.5
99092
96324.9
96806.1
94129.1
82579.8
85022.4
85345.7
87574.2
84967.4
85294.9
82656.9
72576.4
75744.7
74810.9
77822.5
75741.6
74848.1
72541.9
60366.7
60283.3
57961.7
63574.1
60138.9
60279.8
57852.5
150966
150316
143863
156561
150554
150134
143907
133714
134716
126646
140275
133520
134541
126535
119426
118593
114458
123548
119316
118623
114055
106672
107008
101318
111611
106413
106817
101184
94546.8
94087.3
90084.8
98300.9
94550.2
93470.6
90141.7
84436.6
83614.9
79981.3
87072.6
84440.8
83654
79980.6
74405.3
73821
71427.7
76764.5
74377
73808.1
71424.7
65641
65532.4
62959.9
68014.5
65561.9
65522
62859.2
210925
196469
200733
205062
211005
196633
200507
200545
198051
196364
205944
200637
198202
196359
190197
188570
184490
195398
189988
188451
184194
174994
176132
170878
181832
174979
175740
170783
157953
159995
153236
165115
157671
159902
152962
140563
142689
134425
148408
140841
142804
134813
121697
124093
116925
130004
121789
124398
116857
104861
107258
100671
112462
104962
107626
101004
196200
199580
195477
201444
196382
199837
195521
193705
195926
195340
194602
193724
196045
195366
189269
192942
190280
194520
189278
192943
190270
177008
181894
180312
184611
177036
181864
180266
163268
168389
166816
171954
163326
168299
166734
148566
153165
152322
156601
148629
153097
152262
131894
136000
135960
139860
131998
135904
135861
114694
118134
118432
121849
114753
118107
118413
98431.3
101319
101914
104895
98492.2
101263
101886
79019.9
81401.4
75741.9
85365
79042.9
81569.8
75944.9
194318
197097
188337
201585
194281
198230
190088
187574
189842
191613
192789
187334
189817
191901
172680
176561
176193
179954
172581
176648
176358
158388
162787
161850
166294
158339
162820
161902
144080
148569
147654
152088
144119
148558
147641
130330
134515
133645
137863
130333
134487
133618
117104
120807
120336
124217
117090
120801
120348
103777
106504
107299
110028
103876
106393
107212
89829.2
91890
93336.6
95399.3
89866.6
91856.2
93283.1
71590
75201.5
69209.8
78658.8
71532.8
75162.6
69073.6
186749
192649
178027
196766
187132
193358
178288
173810
177677
179149
182698
173337
178218
179589
157132
160366
160749
164980
156736
160817
161232
142137
145243
145435
149232
141895
145620
145679
128666
131609
131765
135046
128562
131725
131890
115733
119197
118929
122187
115833
119134
118867
103457
106718
106283
109695
103397
106790
106263
93244.7
95944.2
95639.5
98745
93124.3
95962
95749
81634.6
83714.4
84655.3
86807.7
81660.1
83685.8
84634.5
66129.5
68473.4
62787.3
71822.4
65776.2
68039.8
62392.8
175840
187048
171090
188250
176385
187291
171362
164514
165907
170045
169955
164471
166008
170268