/*--------------------------------*- C++ -*----------------------------------*\
  =========                 |
  \\      /  F ield         | OpenFOAM: The Open Source CFD Toolbox
   \\    /   O peration     | Website:  https://openfoam.org
    \\  /    A nd           | Version:  10
     \\/     M anipulation  |
\*---------------------------------------------------------------------------*/
FoamFile
{
    format      ascii;
    class       surfaceScalarField;
    location    "9.5";
    object      phi;
}
// * * * * * * * * * * * * * * * * * * * * * * * * * * * * * * * * * * * * * //

dimensions      [0 3 -1 0 0 0 0];

internalField   nonuniform List<scalar> 
38556
(
1127.64
-554.705
-2186.3
1443.27
150.562
-466.193
1622.14
30.9936
-209.867
1680.64
-99.04
40.5391
1633.71
-140.875
187.811
1636.18
-204.156
201.68
1606.31
-173.853
203.727
1610.69
-178.277
173.901
1617.91
-152.99
145.771
1648.45
-147.524
116.977
1680.12
-127.811
96.1385
1725.95
-109.323
63.4995
1772.41
-84.4295
37.964
1814.4
-58.5071
16.5173
1841.75
-41.5859
14.2404
1860.46
-33.2381
14.5277
1876.67
-29.4429
13.233
1887.43
-22.3755
11.6178
1884.03
-13.753
17.1487
-15.9075
18.2369
1549.1
984.111
1344.92
1392.5
330.782
-23.6173
1443.9
28.7617
-49.176
1493.89
-202.464
53.4338
1467.76
-264.683
149.945
1453.9
-261.486
71.1886
1401.75
-209.522
87.8203
1364.19
-163.93
23.2115
1337.28
-127.835
1.75611
1324.76
-101.803
-33.2069
1329.13
-75.6246
-56.5549
1341.02
-55.4737
-65.7415
1359.86
-36.6554
-66.6073
1380.19
-19.5001
-59.3453
1397.17
-7.87171
-50.6897
1409.19
-1.86727
-43.3934
1414.35
2.90381
-37.5067
1415.6
5.32644
-28.9462
1417.88
5.72844
-21.766
0.780092
-22.3114
1231.03
2121.62
2402.95
1046.51
313.736
201.573
1324.35
17.6531
-266.739
1445.3
-106.085
-217.329
1426.9
-176.223
-70.0515
1406.34
-172.163
-68.7715
1357.72
-150.176
-10.7219
1331.87
-100.388
-37.6914
1312.6
-82.0084
-26.5572
1300.91
-47.8361
-42.2786
1297.92
-33.8796
-38.7536
1297.23
-14.0615
-40.7192
1301.49
-2.28747
-38.6266
1303.01
18.4124
-39.4392
1303.45
26.3006
-34.6076
1300.15
32.6994
-31.2708
1291.51
35.1723
-23.6289
1278.12
36.3622
-17.6397
1263.22
32.5383
-11.912
20.5985
-15.877
1300.89
831.767
317.058
1385.91
484.457
-255.737
1700.21
130.95
-427.603
1716.71
-34.6673
-87.9201
1474.13
-107.754
174.12
1315.65
-83.5336
69.8412
1184.31
-110.453
91.6187
1117.85
-39.7805
5.85425
1112.03
-75.5914
-0.597661
1100.89
-24.6304
-12.0603
1115.25
-32.6046
-15.6413
1119.91
-6.37775
-12.3377
1132.97
-3.3347
-12.0126
1138.67
24.4299
-11.7164
1144.64
29.5432
-9.21299
1146.14
39.2386
-8.04246
1146.52
39.9036
-5.11506
1145.92
39.7489
-2.78685
1147.76
33.1279
-2.42652
19.3398
-3.51553
1224.28
904.413
1371.48
1423
851.438
-565.7
1466.19
74.8386
12.9175
1436.61
-183.05
177.965
1282.52
-228.509
274.843
1194.43
-83.2903
87.847
1143.11
-140.369
81.2363
1098.84
-22.1612
26.6507
1097.47
-81.1727
6.94644
1087.12
-18.5714
4.29853
1100.69
-43.6867
-2.48961
1108.51
-12.5169
-1.68311
1123.13
-14.3639
-3.59222
1133.42
12.0253
2.11641
1140.73
19.8648
2.37093
1140.89
41.9911
-2.91307
1139.98
42.1814
-1.37077
1138.9
42.1602
-1.33198
1139.81
31.8065
0.409484
17.4938
-1.55071
1239.95
1447.71
-1755.32
1796.4
854.317
-559.334
1583.21
94.0057
194.028
1445.55
-194.368
148.978
1171.07
-293.886
339.852
1073.44
-88.5025
102.84
1098.48
-239.089
73.6839
1015.04
54.8995
6.38112
1018.09
-93.4989
9.26834
986.781
26.6042
-13.8616
999.501
-53.5336
-2.87305
1013.21
-15.6717
-10.551
1039.61
-33.1387
-7.62869
1067.75
-7.59722
-8.51393
1097.09
-3.08871
-6.38969
1118.93
27.1613
-7.01122
1133.91
31.1157
-3.91194
1140.87
34.5528
0.641996
1142.71
26.2476
3.72113
15.7329
-0.67385
3223.21
2482.46
315.591
3360.94
598
118.591
2809.01
368.667
277.268
2252.6
-62.2191
424.258
1623.47
-170.964
506.212
1265.47
44.9458
224.554
1055.09
-22.55
111.125
-47.4435
-23.7671
-46.0748
918.903
0.296462
26.5447
75.4648
12.299
76.4788
894.47
2.3453
-14.3566
-25.7861
-6.96448
-24.3045
887.029
-15.4682
-11.9115
37.7822
-12.4812
36.1239
923.164
-13.4426
-26.3941
-16.6569
-17.2222
-15.9529
952.514
-27.358
-0.784209
1.26647
-23.0545
4.90905
992.108
-24.3597
-7.27786
-10.8941
-21.6266
-8.57434
1025.88
-23.9084
-1.05262
-0.0154942
-19.857
3.46727
1054.47
-22.7702
-8.91677
1080.55
2.92467
-1.83629
1098.05
16.0649
-2.4475
1102.37
29.0974
1.12954
1101.38
22.5594
4.67932
15.037
0.286893
719.904
789.502
-3048.95
1146.31
148.073
23.5188
1276.99
70.0675
167.917
1355.02
-258.87
118.623
1245.31
-232.905
171.651
288.056
-15.4276
22.6213
290.426
281.597
282.677
71.1929
-6.58926
75.7049
255.365
-1.08521
11.2261
-217.263
212.749
-1.20484
6.01542
-229.762
214.245
19.9324
-2.06936
-204.25
210.658
-17.3674
-4.50834
-234.722
236.547
-11.796
-3.47144
-239.785
241.2
-26.942
-1.83063
-253.457
252.603
-22.7823
-0.723175
-256.856
257.625
-26.0643
1.38673
1074.58
-26.6072
5.45794
-265.44
-264.287
-258.975
-257.006
-5.70689
-22.146
-2.63799
1088.28
-9.00901
-1.76977
1093.56
8.01904
2.76409
1089.62
30.4809
2.56257
1078.21
28.1544
5.81689
20.5318
0.682425
409.179
37.9838
-35.97
613.073
-81.3208
25.4997
1125.18
39.2122
-481.254
1131.31
-187.604
-77.3902
254.772
-158.625
55.69
231.283
269.028
246.252
268.052
-22.6311
-6.07652
-5.75401
-74.9236
69.7496
10.0895
0.838478
-61.4214
1.82968
60.8156
-1.58475
0.360908
-67.6158
-1.95812
67.3417
1.38323
0.848994
-69.1361
3.17142
68.8696
-2.51751
-0.387325
-71.402
3.74272
70.5007
-2.68769
-0.153791
-70.2418
5.76354
68.7948
-4.09465
-0.22185
-68.3655
5.9861
66.7389
-4.21363
-0.145891
-67.1281
7.58041
66.3567
-6.79629
-0.0127327
-69.4184
278.227
-30.6105
3.05068
-69.9175
-68.8976
-69.0407
1125.7
-16.7997
2.69141
-282.019
-285.157
-275.552
-277.87
1120.68
11.4444
1.59527
1112.71
34.6974
3.75033
1094.22
39.4537
7.19412
31.8353
0.339095
-844.898
1248.1
803.008
261.038
-166.253
-1021
960.27
-171.634
-488.386
995.004
-91.4453
-130.893
232.25
-73.8923
-42.4049
247.353
230.403
242.671
13.1035
256.44
-24.5041
-12.7894
-0.343596
-71.2768
74.1324
-1.93974
-0.57227
2.78571
-79.5215
79.8935
-2.8569
-0.300747
1.82073
-80.3682
80.0904
-1.59646
0.0535672
0.945878
-78.431
77.7694
-0.510026
0.225714
0.66262
-76.6028
76.0297
0.00568652
-0.0951984
0.331077
-74.2878
73.8143
0.581096
-0.438713
1.18219
-73.8204
74.2293
-0.522037
-1.06905
4.24655
-76.7707
77.4189
-3.48833
-1.40639
-77.5374
28.0206
303.742
-25.9728
3.01407
-78.6979
-75.6493
-76.9189
1183.87
-14.6681
4.25061
-300.544
-303.348
-291.65
-294.707
1175.75
23.7527
-4.19272
1165.99
44.9603
-0.505507
1137.24
59.9091
8.29892
50.5714
0.439034
1878.13
1098.35
-507.797
1389.89
-142.627
464.621
1821.35
-115.427
-487.67
1591.87
133.711
4.32335
339.699
155.269
-36.1006
346.635
352.931
359.544
31.1472
327.164
-9.19912
-9.41317
7.47155
-77.6041
76.7697
-6.82061
0.183456
5.41694
-78.3255
79.3815
-6.67078
0.197867
4.08884
-84.5889
86.8298
-7.5739
1.24418
3.32552
-89.8399
89.3152
-6.77591
3.97507
0.549669
-87.6937
87.2889
-0.8132
0.668372
-2.75904
-84.3934
83.6039
3.34339
0.205153
-1.44289
-83.1076
83.3248
2.85623
-1.63059
1.62566
-84.892
85.4101
-1.21099
-0.932751
-83.9357
22.3045
313.864
-14.5063
8.63436
-83.8368
-81.408
-81.1164
1150.06
0.298611
-7.76928
-299.693
-287.765
-290.883
-278.916
1154.58
27.987
-8.75513
1153.61
47.8043
-1.86995
1134.13
76.5711
2.8144
68.9467
-6.26861
4665.93
-46.673
-933.499
3555.32
270.706
697.279
2111.6
281.507
1046.78
1522.7
319.285
403.327
259.02
262.426
293.396
283.522
280.876
298.734
-18.3569
265.396
5.02416
6.95685
5.7714
-77.7703
80.4859
-8.17628
-0.310656
10.3901
-87.2165
88.644
-10.5647
-1.25291
11.7242
-90.888
90.5972
-10.9128
-0.5206
11.7901
-88.9788
88.2599
-10.7637
-0.307644
2.86854
-88.3856
87.3622
-3.75506
1.90985
-3.88357
-88.0724
88.9583
2.25819
0.739536
-5.19999
-89.8984
89.4793
5.34685
0.272214
0.78544
-88.3443
86.0876
0.220697
1.25059
-75.4876
3.88627
270.582
12.4172
7.08054
-72.9445
-74.2568
-71.2774
1048.57
10.801
-12.1142
-265.64
-262.591
-261.358
-257.373
1074.14
14.8794
-12.4626
1106.17
22.62
-6.8424
1118.26
66.4264
-1.94537
73.3281
-6.95857
998.564
1136.24
-570.813
1435.02
869.696
-1035.44
1624.65
494.368
-402.494
1605.44
237.335
101.161
1548.76
133.105
186
362.459
-204.392
84.3861
25.6207
95.9861
18.6023
91.0839
362.566
355.242
357.203
11.5826
335.401
-16.3422
2.26567
9.24556
11.2547
9.0517
4.60383
-296.421
274.721
-6.60439
3.55601
7.71155
4.61537
7.81682
6.94221
-293.233
294.271
-28.7352
-4.14397
9.62121
6.50013
8.77776
5.40957
-286.081
275.092
-12.8914
-2.67882
8.77073
4.61393
7.76468
3.86467
-287.743
290.646
-13.5541
-6.646
5.8381
3.06268
4.53145
-3.23803
-293.804
286.772
19.7623
-3.99618
-0.0626695
-4.43187
-1.0018
-6.53616
-295.65
287.12
26.0804
1.6536
-3.00855
-6.61256
-3.04665
-7.06469
-279.028
261.78
29.9838
6.62328
-2.85678
-6.87146
-2.56544
988.956
55.0371
-2.84692
-22.8005
3.68069
-22.4061
2.72205
-258.482
-250.095
-249.657
-244.108
990.862
22.4299
-13.5353
1009.57
5.43833
-9.26495
1044.72
-9.06028
-3.46982
1093.63
20.6458
-3.12833
45.4385
-6.25221
-821.547
1375.13
-558.117
282.345
795.314
-1029.51
764.003
381.644
-368.934
873.164
-6.33638
134.51
1097.15
-157.472
66.5951
1048.6
-212.907
57.0623
1121.51
1.33093
52.5229
-16.4765
-43.6441
-21.481
-45.1632
1094.75
-142.093
35.0263
1.91657
62.6984
6.26634
62.9408
1067.55
-15.4767
12.7487
12.6517
5.94523
10.844
0.494048
1032.3
-58.6304
9.29263
6.43247
39.2348
3.5202
35.3981
1000.3
54.8545
-1.27919
-0.39011
-2.68999
-10.4228
-8.07245
990.155
41.8319
7.69701
-25.6664
6.51076
-26.3805
6.15179
991.691
97.0804
0.955092
-32.3125
-18.0423
-32.2452
-16.9722
998.303
67.8167
-8.09196
-33.1357
-1.48701
-31.2026
-0.511674
1001.18
69.7487
-17.588
1006.32
36.7166
-19.4222
1013.41
11.9345
-13.5887
1020.94
-15.5168
-1.07207
1055.57
-11.792
-2.19457
14.3689
-2.40674
2145.58
584.618
-828.891
2281.46
1306.21
-646.765
1675.16
870.456
117.483
1344.85
318.577
5.4027
1173.01
-46.4131
60.7731
1112.1
-144.071
-7.91792
1177.73
-75.4003
11.0933
1136.27
-107.749
7.11656
1117.81
-18.7178
21.7001
1074.68
-35.9747
20.4762
1049.98
57.2375
22.3248
1034.86
50.7127
6.23061
1040.5
94.1222
-2.68
1052.66
72.6053
-16.9477
1073.72
73.4811
-24.7892
1092.8
42.1817
-24.5507
1088.04
26.4428
-9.73956
1061.35
5.74246
5.42357
1036.83
6.58305
6.14304
17.3254
-0.00431682
3453.39
1112.24
860.929
2727.37
1602.73
429.505
1875.58
1229.96
492.285
1534.39
575.507
84.2656
1227.8
196.99
63.1785
1142.05
-46.199
-12.1124
1116.03
-34.7333
-14.6542
1120.96
-82.9528
-29.7226
1144.23
-15.6179
-26.3755
1150.57
-27.2497
-15.0599
1148.92
57.9533
0.933413
1139.73
59.2227
0.678036
1136.24
95.2807
2.33257
1138.08
78.6969
-7.92947
1144.14
76.069
-8.64761
1145.87
53.6275
-13.1763
1138.52
38.4711
-4.67879
1113.96
25.5015
4.80178
1074.55
25.895
20.0929
27.0923
7.0807
943.442
708.534
2712.87
1335.51
1689.04
-478.386
1443.85
1242.14
-120.518
1395.46
567.003
56.8986
1191.67
326.887
73.8864
1089.25
58.4145
-2.19115
1049.85
23.0852
-18.4205
1029.97
-42.9281
-20.1412
1058.06
-13.3882
-30.3204
1074.46
-22.8626
-20.7883
1106.7
39.5008
-13.7898
1122.8
51.7148
-8.58996
1138.93
82.914
-3.76144
1147.26
75.8182
-5.44923
1152.36
74.1165
-3.15056
1150.39
56.7106
-1.11105
1140.34
42.0705
6.44926
1125.48
29.957
10.4077
1109.38
27.0051
14.9855
23.837
8.60772
21.1987
1202.78
365.436
467.84
993.215
249.188
655.528
697.128
357.32
777.617
331.807
113.107
905.025
188.406
11.0739
893.916
67.4918
2.03152
937.31
1.54997
-21.8591
944.86
-27.0746
-23.4036
997.858
-37.4487
-28.9377
1029.94
-38.212
-16.7333
1082.41
-8.575
-4.39127
1114.94
19.4298
-0.245249
1142.51
47.5529
7.78629
1159.31
52.2676
6.75641
1169.58
54.4137
9.43197
1171.86
45.9239
8.50735
1166.74
38.8899
8.29734
1159
30.9226
6.77882
1152.4
22.6746
10.9259
16.6884
6.82476
-378.827
298.536
1960.68
212.249
447.999
-45.8598
768.95
239.718
-99.2914
913.203
126.138
61.4157
1067.41
-34.9697
69.1714
1104.92
-13.3119
43.2956
1108.31
-37.3768
35.5279
1097.42
-21.9048
5.72058
1104.1
-44.6992
0.570279
1118.24
-39.023
-13.3293
1141.31
-30.2204
-1.41703
1161.77
-7.91762
6.88017
1183.14
14.8838
11.3013
1198.34
28.1909
8.87592
1209.72
34.864
8.1746
1216.41
34.5647
4.66403
1219.4
32.2212
3.67672
1221.58
24.191
4.55403
1222.28
14.0024
7.97209
8.85354
4.40339
1208.29
-1417.64
1827.96
-171.67
1737.44
330.243
1767.84
95.7364
1573.02
159.85
1542.65
17.06
1470.89
34.3852
1449.28
-0.294415
1419.24
-14.6683
1430.53
-50.3051
1435.4
-35.0983
1435.05
-7.56141
1416.55
33.3863
1405.87
38.8634
1403.49
37.2504
1412.85
25.2015
1428.93
16.1439
1452.29
0.832372
1468.8
-2.50875
-1.90604
1829.44
-1286
-3016.18
2306.15
-687.603
-255.301
2041.57
-186.322
241.033
1809.71
-94.7172
367.124
1652.46
-52.8832
397.945
1638.05
-102.801
318.891
1628.93
-75.0651
287.907
1660.01
-91.4956
234.315
1687.81
-70.3304
188.3
1731.26
-67.2816
140.811
1765.1
-46.763
109.064
1800.93
-35.5103
63.1784
1825.24
-11.7495
25.4081
1834.65
-1.03709
8.14363
1834.27
10.8354
3.78128
1833.46
12.926
2.40973
1827.93
13.2749
5.49289
1819.8
12.4181
7.33184
1802.49
14.1907
20.2622
8.72161
16.8738
1624.09
-222.208
-2375.2
1228.29
-25.772
-289.649
1153.49
-24.5344
-136.165
1183.09
-130.625
59.748
1223.85
-124.81
181.116
1238.84
-115.23
68.6254
1255.67
-78.5208
74.4401
1258.04
-58.8204
-11.83
1270.48
-38.3508
-42.6612
1278.12
-24.0939
-84.0389
1292.67
-10.5103
-107.351
1304.66
3.02038
-116.267
1318.29
19.6061
-111.594
1328.9
26.5272
-97.5167
1335.3
30.0927
-76.3448
1336.6
30.6295
-62.3944
1332.27
28.1458
-48.0481
1327.31
24.5003
-36.0758
1322.83
23.8077
-26.9037
16.5663
-29.9094
1230.43
417.01
1394.31
1190.45
57.1222
158.655
1136.76
-60.1446
-177.436
1116.52
-166.71
-161.001
1110.76
-159.101
-30.0016
1122.85
-118.083
-78.0113
1151.56
-87.8256
-30.1267
1159
-44.142
-59.8115
1172.36
-30.6005
-47.669
1172.95
-8.44488
-58.5161
1177.36
0.447874
-54.1249
1173.77
24.5739
-58.6806
1174.12
30.5607
-49.926
1169.91
38.2238
-46.9345
1165.24
38.2304
-38.0693
1158.38
39.1892
-32.9682
1150.31
36.5625
-23.9788
1142.79
33.1512
-18.7672
1139.26
29.1167
-13.6957
19.1505
-18.8722
1452.22
656.294
1567
1245.78
130.672
-122.851
1219.66
-45.8073
-415.816
1162.22
-127.213
-69.9815
1102.15
-136.697
211.79
1054.88
-67.0493
66.0783
1055.39
-85.4931
88.7737
1023.58
-13.3725
6.89911
1035.47
-36.8492
-6.23813
1022.29
12.1342
-19.4572
1035.73
-4.89307
-23.7449
1033.33
36.1658
-21.5344
1041.45
27.1081
-16.6797
1041.18
42.4212
-15.6428
1043.25
38.459
-11.5045
1042
42.0401
-9.65034
1041.88
37.7307
-6.15502
1042.09
33.818
-3.67284
1046.17
25.9056
-3.2929
16.3222
-5.57043
1662.68
416.059
1403.31
1347.12
491.72
-611.186
1206.23
103.076
4.92082
1165.53
-123.645
215.098
1103.46
-137.772
337.987
1037.74
-24.3824
110.906
1045.99
-107.322
94.8128
1003.29
22.1495
33.8221
1010.61
-47.005
9.78638
993.32
34.2677
-0.544832
1005.13
-16.3743
-2.82052
1004.87
37.1578
-2.41359
1015.9
11.9607
0.525576
1018.14
42.7333
-0.437886
1022.1
35.8792
0.997942
1020.62
44.775
-4.1727
1020.41
38.5155
-1.95001
1020.24
34.4062
-1.74664
1023.66
22.1844
0.710748
14.0195
-2.89271
562.797
-191.767
-3034.25
838
196.5
-539.317
916.145
-50.6518
269.611
983.601
-195.125
153.003
957.755
-182.884
410.809
914.534
6.15767
115.521
1002.72
-201.506
79.6821
924.042
110.842
-3.63328
938.69
-65.9602
13.5756
910.762
70.443
-22.1084
926.96
-30.2898
-5.15557
935.436
27.7587
-9.62763
957.567
-10.9926
-6.80684
970.887
27.8729
-6.97357
985.521
19.8923
-5.03624
997.013
32.4728
-6.2016
1005.43
29.3555
-3.17291
1011.79
28.0963
0.597661
1015.76
18.2442
3.69052
12.4239
-1.88076
2285.76
1201.26
-1697.16
1826.4
177.512
596.943
1540.83
77.1423
435.046
1374.07
-123.946
519.835
1215.98
-119.346
600.768
1018.82
222.896
204.97
931.032
-18.6473
111.391
-39.3077
-19.2372
-36.7897
830.282
28.2448
23.7686
77.4063
33.4322
75.2846
830.119
-10.5433
-16.5785
-20.618
-12.8198
-19.5944
830.144
-7.49556
-4.18876
37.6476
-5.32939
37.8734
861.464
-16.423
-29.2461
-13.0903
-16.9812
-12.2642
886.589
-16.869
2.43857
13.5512
-13.992
16.7213
919.908
-16.9854
-7.16804
-7.02728
-15.3904
-5.01828
944.614
-14.5513
2.89834
11.3801
-12.4945
14.8813
965.938
-5.68968
-4.6581
978.169
17.6342
0.770573
986.22
19.9865
-1.12964
988.858
25.0311
1.55761
990.147
17.0781
4.55607
12.5631
-1.26404
905.042
1857.64
441.256
788.658
274.22
43.1946
847.063
92.0937
94.5607
963.373
-194.964
73.3318
991.638
-131.492
155.531
234.088
40.2382
18.5219
234.102
223.865
223.547
103.511
50.6424
108.641
-26.8233
210.445
13.0474
18.7712
-7.24815
-185.715
190.988
21.3741
8.84618
2.62933
-207.978
200.206
-0.396899
-5.00396
7.85077
-196.639
201.948
-12.7958
-7.85924
5.37389
-220.601
219.067
-14.3672
-5.89507
3.77682
-221.506
222.956
-19.1561
-2.93947
1.84399
-235.396
233.866
-16.0022
-1.29708
-0.990486
-237.628
237.571
-15.6906
2.18724
984.383
-16.8264
9.51973
-245.688
-244.749
-239.668
-238.449
1.86636
-14.5389
3.91947
990.698
6.07445
3.47493
989.267
19.4794
4.70228
985.465
28.3288
3.06618
979.575
22.4076
6.37796
16.1291
-0.443941
1166.9
648.503
-1073.3
820.546
109.897
536.176
857.337
-37.6071
-388.343
847.163
-192.285
-69.8957
232.328
-131.713
21.7526
214.395
225.311
209.287
8.93327
244.118
25.7328
-6.21817
-0.928341
-8.91808
-65.5461
61.3909
13.5025
0.499156
-2.51145
-55.6245
-1.01673
55.5256
0.512336
3.11467
-1.7311
-63.0623
-0.0402045
62.5885
0.691015
1.5541
0.735336
-62.465
3.15204
61.9092
-2.57065
-0.76089
0.611844
-64.1332
3.69574
63.3028
-2.71502
-0.76217
1.00371
-63.0697
4.82582
62.0431
-3.65795
-1.14495
0.876306
-62.9495
4.78031
61.9927
-3.76042
-0.939346
0.15965
-62.7055
4.99069
62.1987
-4.63534
-0.00824666
-64.8784
-3.39363
257.426
-17.5719
4.60281
-64.8576
-64.0996
-64.0538
1029.24
4.47622
8.86141
-260.753
-263.873
-253.733
-255.455
1017.5
29.0547
3.76575
1006.13
38.2877
5.15368
992.729
33.8748
9.13239
24.5018
-0.652042
511.148
-1676.32
2333.54
596.386
34.7505
-1031.09
712.479
-105.568
-536.519
727.955
-132.035
-206.618
185.404
-86.9589
-100.492
197.202
174.107
184.576
16.6173
-19.517
215.178
-10.4763
-16.3981
-1.55542
-9.39788
-64.3818
68.3465
5.68986
1.29867
-1.4246
-0.821849
-72.2885
72.3018
0.324297
1.90883
-1.68183
-0.234961
-72.79
72.6931
-0.0859262
2.09957
-1.14774
1.01634
-71.9469
71.5042
-0.770396
1.34452
0.131918
1.12326
-70.6532
70.2894
-0.675445
-0.215933
1.71566
1.44313
-69.6085
69.4572
-0.901814
-2.10573
2.92234
2.28668
-69.7481
69.9076
-2.04208
-3.32648
2.39427
4.52791
-70.1826
70.0133
-4.56937
-2.18355
-69.8129
-5.51981
15.4325
277.757
-15.7031
6.67194
-70.7889
-68.603
-69.4337
1078.57
19.4715
3.94239
-276.616
-279.809
-267.045
-269.783
1060.29
44.0758
-0.939754
1042.72
53.2399
2.11552
1020.75
53.0209
11.1261
38.4729
-0.675135
2836.26
-936.201
567.568
2175.77
541.689
618.177
1627.2
245.954
-290.625
1348.21
103.908
47.3734
301.02
74.8938
-39.4217
307.647
287.15
293.858
10.4525
25.3041
291.845
-9.47091
-17.1101
-0.614004
5.32166
-72.4233
73.1905
-5.39781
-0.0770319
-0.432256
3.14358
-74.6859
75.4857
-4.32805
0.816913
-2.41486
2.15321
-78.4316
79.4098
-3.65134
2.93477
-7.26519
1.73363
-81.6693
81.7325
-2.63896
8.10728
-5.76813
0.544088
-80.4029
79.8879
-0.719829
6.45887
0.0912249
-0.460699
-79.1421
78.8947
1.15296
-0.536093
3.80432
1.16161
-77.9282
77.5425
-0.502219
-4.078
1.03824
3.92078
-75.8976
75.2396
-3.59469
-0.706292
-72.2832
-11.6842
12.4221
278.827
-6.39079
10.9487
-71.4888
-70.5463
-69.8043
1060.34
31.0547
-11.9155
-276.324
-266.129
-266.843
-258.486
1052.79
50.6821
-7.80691
1043.65
59.7099
0.802203
1025.83
67.9055
5.74339
51.8596
-8.90581
1304.92
635.688
870.26
1194.03
357.179
992.683
1065.85
261.727
1159.18
995.737
216.129
361.22
230.964
164.282
260.216
250.567
219.657
238.34
-11.4258
1.33932
248.415
-17.0188
9.65392
-0.258227
5.91524
-74.0315
76.6291
-8.38257
0.12796
1.15067
6.53225
-78.8883
78.9768
-6.78119
-0.990181
0.929281
6.04962
-79.7213
79.7709
-5.99292
-1.03554
0.74462
3.61369
-79.8608
79.5865
-3.4886
-0.59543
-2.59069
-0.435362
-79.7539
79.5125
0.915375
2.35205
-0.999387
-3.60498
-79.2045
78.7406
4.12237
0.945863
-0.940687
-1.52246
-77.5622
76.4877
2.47724
1.0605
-3.25562
1.56674
-72.6663
70.9162
-0.166604
3.60562
-67.3267
-8.20158
-0.0631277
250.801
13.5047
7.03191
-65.4981
-65.8448
-64.4031
989.235
26.3091
-13.1886
-251.437
-246.36
-245.151
-240.468
1003.19
36.6833
-12.4168
1018.53
42.1082
-4.58679
1022.73
63.719
-1.95404
53.7744
-9.10033
1525.64
311.269
-2114.47
1526.98
418.199
-1097.8
1423.02
375.35
-412.163
1384.92
244.482
110.909
1383.79
167.195
184.22
319.472
-160.043
98.4967
32.3726
99.7304
37.6317
100.607
321.547
308.05
310.314
10.002
-12.1525
291.07
-7.76496
13.8998
7.53217
9.73717
7.1485
4.08998
-6.63505
-255.972
245.498
-8.36873
5.81804
6.05923
3.81741
5.69314
3.86523
3.47214
-263.324
259.093
-12.7704
-2.97068
4.79218
3.64363
4.19839
1.22256
4.71683
-250.758
245.431
-0.175502
-6.86019
3.28267
0.480157
2.66127
-2.37995
9.25221
-259.244
257.507
10.7016
-11.3266
-0.220153
-3.28292
-1.00727
-6.35182
4.03891
-256.742
250.031
24.1917
-2.93227
-2.84359
-6.45666
-2.93529
-6.15858
-3.18665
-257.374
248.809
25.1346
4.30157
-2.77492
-6.04081
-2.7107
-5.73333
-9.15233
-244.469
235.146
23.4864
9.13532
-1.47359
-5.55724
-1.38191
921.321
46.7047
-5.02815
-22.0655
1.75707
-22.4972
0.777598
-236.957
-231.611
-229.636
-225.612
929.307
19.0097
-14.2221
948.591
18.0775
-9.94367
981.692
8.98427
-3.44717
1012.13
33.1895
-3.03785
36.3305
-5.84042
-248.995
963.812
-1040.84
353.116
507.903
-1721.32
575.949
211.879
-428.295
756.755
49.3581
148.828
991.724
-63.669
62.4905
910.726
-102.032
80.0486
965.173
146.978
41.034
-37.0041
-54.8188
-41.561
-56.5518
926.968
-91.1444
36.9714
7.39125
56.292
10.2982
53.4234
913.175
71.704
-0.0641495
-2.76525
-11.9011
-13.9818
-16.4506
897.451
-36.7404
10.2334
-1.10126
29.0214
-2.6735
26.2774
889.845
86.4545
-3.63647
-20.6383
-14.1112
-25.4691
-16.2728
891.012
41.8097
4.5137
-26.3752
6.1953
-26.0977
6.48454
899.466
86.2049
-1.91834
-31.3984
-15.0167
-31.1844
-14.1862
907.2
42.8123
-10.5537
-28.3822
2.95297
-26.7997
4.1439
910.569
44.8288
-19.0804
914.428
15.6141
-19.8855
926.219
3.89647
-11.1988
943.824
-8.27762
-1.41537
974.062
0.559508
0.197635
14.5055
-3.43862
2503.56
1287.93
1627.7
1569.53
771.345
23.8275
1047.09
408.831
442.968
1005.74
96.1123
0.00600581
1010.09
-59.1973
51.9432
966.998
-82.2612
15.4072
1045.13
47.9161
32.0235
987.677
-45.7024
19.127
972.586
81.7586
26.7365
934.499
4.25867
17.5641
928.777
93.4988
21.0027
922.451
50.0321
4.33454
931.88
79.4022
-5.30654
937.877
40.6482
-20.7806
944.668
38.4604
-25.2111
948.98
9.10289
-22.3516
947.289
3.58473
-7.73682
943.078
-3.99207
5.34839
943.659
1.4979
4.62391
9.32414
0.478629
3279.77
1.95019
1301.36
2470.51
723.033
1287.08
1498.29
723.238
1150.1
1217.2
289.097
172.365
1018.93
100.568
101.687
958.627
-15.1223
-18.9501
960.327
50.2248
-18.6625
951.332
-34.6815
-31.7488
965.984
66.8661
-26.1344
963.444
6.75811
-15.0192
973.984
81.5472
2.34482
976.035
49.3943
-0.735265
985.678
71.1132
0.978638
990.019
38.8915
-10.5137
994.461
35.5416
-10.1708
992.096
12.7267
-14.4352
985.818
10.75
-5.56666
977.398
4.2904
4.93961
968.801
11.5629
18.6252
12.696
5.93673
1790.25
-307.023
2186.93
1595.69
943.822
-504.61
1369.53
836.124
-7.24801
1286.8
431.369
-2.64101
1086.36
306.974
67.9168
984.839
98.632
-14.4205
944.711
93.8278
-21.8957
916.148
-2.43345
-23.8262
938.144
42.6492
-28.0997
941.755
1.89857
-19.54
970.491
50.6848
-11.6635
982.677
36.2129
-7.59472
1000.19
53.3372
-3.4958
1005.96
34.2006
-6.53205
1010.58
31.77
-3.99407
1008.54
15.8468
-2.19888
1006.03
13.7407
5.97097
1002.73
9.41431
8.58413
1001.66
12.5622
15.0571
11.8919
7.47499
637.365
176.386
1756.82
496.881
1001.36
332.132
650.729
680.352
359.244
738.221
365.312
91.6722
812.223
252.72
-8.67367
801.111
115.808
-4.03302
845.011
57.5117
-29.4421
847.167
-0.261852
-27.7315
901.045
-15.245
-24.9219
923.633
-23.1176
-14.3048
971.408
-1.86623
0.384507
997.433
6.77191
3.17065
1023.41
26.072
9.0706
1036.88
21.851
5.63976
1046.24
22.8272
9.01576
1047.91
16.2433
6.44361
1046.62
14.9404
8.3882
1044.32
12.2105
6.28039
1045.44
11.5276
10.8343
10.2001
5.30611
-257.194
-414.503
201.929
244.801
583.26
-129.753
611.085
302.423
-87.6463
776.241
218.325
43.2463
945.159
112.395
40.5783
983.992
114.818
5.45305
1019.54
57.1636
0.328276
1019.39
39.626
-34.0125
1032.49
-13.06
-14.7237
1039.85
-27.1158
-16.6863
1058.13
-29.968
8.4022
1072.64
-12.857
12.0026
1091.29
0.117409
18.6008
1102.27
8.4966
11.2558
1111.1
12.2411
9.92641
1115.04
12.331
4.63534
1117.46
11.8499
4.35031
1119
12.0752
3.15205
1120.25
11.717
6.52975
11.6539
0.265731
108.814
1636.17
549.561
-29.158
898.251
283.976
1135.72
76.5975
1294.97
112.99
1429.54
-2.69002
1492.74
28.3474
1536.64
-4.56745
1494.44
14.4727
1445.44
-28.4251
1382.36
-1.98834
1353.55
8.39602
1341.26
45.792
1343.12
45.5042
1348.49
44.1196
1357.06
28.962
1363.71
21.3439
1369.56
7.05905
1373.12
5.64887
3.67802
1416.21
-1247.25
-2597.54
1519.15
-602.908
244.669
1534.78
-186.394
411.8
1590.49
-60.1198
371.533
1594.08
12.3687
381.982
1659.66
-32.3739
285.691
1701.24
-14.683
261.004
1761.45
-28.8304
202.939
1795.78
-11.1412
165.115
1825.58
-4.97919
115.988
1830.8
26.1066
77.7313
1824.42
29.492
40.0712
1796.7
50.3338
2.79432
1765.18
50.8774
-11.2113
1725.73
49.0302
-5.798
1692.53
43.7961
-8.19023
1657.74
37.9911
2.28858
1624.78
31.2956
9.00163
1597.33
29.2889
18.4199
22.0511
7.287
1775.68
-428.798
-30.9298
1189.54
-430.674
124.264
1009.6
-81.7348
-60.8862
1008.56
-74.289
74.9581
1111.66
-25.2602
115.647
1144.61
-26.5499
29.8475
1195.55
-4.93427
13.7555
1215.36
-1.80708
-58.6688
1239.95
11.746
-90.1327
1250.24
26.6886
-126.004
1261.97
39.2838
-132.25
1262.77
44.2089
-131.791
1261.7
48.083
-108.275
1254.37
47.612
-86.9169
1243.81
44.8386
-61.5983
1232.02
40.9283
-47.7326
1217.78
36.0977
-31.9133
1206.05
30.4623
-23.51
1198.9
29.2977
-19.7703
20.7232
-26.0489
1606.47
-650.005
2047.28
1154.44
-494.069
674.078
924.25
-168.422
139.441
892.669
-166.412
-37.2955
962.519
-95.07
-30.0424
987.621
-64.8765
-64.7865
1043.69
-42.9335
-48.1974
1055.69
-14.6915
-58.9267
1078.15
-7.06011
-51.3213
1075.6
25.6007
-54.8802
1079.45
29.7133
-48.4067
1070.53
44.0044
-49.5492
1066.47
41.9191
-39.7006
1057.05
45.4296
-35.3367
1049.4
41.0145
-26.5974
1040.67
39.3098
-22.6165
1033.78
34.6879
-15.6798
1028.51
29.7021
-12.7394
1027.91
26.0257
-9.82092
16.9892
-15.4698
1873.52
-724.023
2710.25
1329.68
-244.455
171.372
1013.83
-100.996
-167.383
901.231
-125.704
1.90427
939.017
-75.6997
154.633
922.386
-41.8232
59.6559
968.489
-55.7156
55.4533
942.469
18.3851
-0.158146
962.698
-25.6784
-7.84824
943.619
47.2385
-22.016
956.595
11.8312
-18.8395
947.778
50.8328
-19.5455
952.67
34.9711
-14.6233
948.405
46.5094
-12.4581
948.932
37.6678
-8.68514
946.478
39.0838
-6.96995
946.857
32.469
-4.31539
947.523
27.7851
-2.42131
951.987
20.6981
-2.42972
13.6661
-5.66718
2480.97
-241.028
4013.44
1391.02
159.702
74.6013
995.671
83.8043
215.474
931.821
-84.4585
237.703
985.506
-61.0713
269.674
925.64
33.7424
95.2058
967.007
-77.4135
75.1444
922.119
69.3463
27.7485
934.337
-34.2324
6.12243
912.235
70.0993
-1.30361
922.671
0.0970977
-1.5224
916.181
57.1983
-2.28894
924.642
26.5542
0.481203
922.623
49.3412
-1.25051
925.243
36.1258
-0.0801911
922.799
40.8301
-3.47494
923.263
31.832
-1.77617
923.316
27.3055
-1.32022
927.152
16.9138
0.65937
12.0147
-3.75388
645.318
586.268
-206.63
558.221
11.5188
-304.037
672.622
-105.446
344.46
732.924
-130.761
139.004
859.337
-83.479
306.804
817.078
99.1353
92.3865
926.05
-169.391
62.6877
850.971
142.564
-1.77258
870.37
-52.0278
11.9726
843.162
91.62
-16.4218
860.169
-21.6942
-0.370451
861.317
53.884
-7.46169
880.343
2.2595
-1.53834
886.036
41.6888
-5.01394
895.169
25.4513
-3.49492
901.967
31.9384
-4.10719
907.63
25.2253
-2.22986
912.184
23.0982
0.251544
916.115
14.4078
2.2654
10.811
-2.8767
1897.82
2188.47
138.619
1220.26
458.308
827.709
1015.89
200.106
333.865
983.579
-21.8006
443.186
1041.58
9.28048
450.003
879.718
303.254
162.718
847.626
-18.5666
75.6155
-32.2941
-19.9041
-30.7572
766.551
39.7153
14.4894
76.3003
41.8057
75.0973
776.65
-13.8438
-13.8591
-17.9562
-15.6107
-17.436
778.638
-1.21002
3.11686
40.3956
1.45952
41.6818
805.68
-15.6317
-23.3371
-11.7251
-15.5875
-11.7015
825.245
-9.89108
7.13239
22.2331
-7.9576
25.2415
851.697
-12.7407
-4.71936
-1.8838
-11.7517
-0.264859
868.556
-10.3091
6.15175
18.8707
-8.38145
21.3956
884.838
5.00082
-0.489773
890.566
25.6475
1.33412
894.972
19.8737
-0.184622
896.018
22.3608
1.24946
898.138
13.9864
2.85708
11.0442
-2.74263
277.442
1347.04
-1016.03
617.15
313.435
-151.641
663.212
177.772
70.8339
781.784
-122.056
55.0154
868.294
-37.5082
115.809
200.066
69.8345
20.0922
199.298
192.609
191.254
120.739
74.2946
121.883
-17.2576
180.908
8.28344
9.56622
-7.65915
-162.959
173.432
29.4105
7.49066
7.073
-191.084
186.788
-7.71767
-8.90333
7.72419
-184.181
189.394
-9.3599
-4.78757
6.55909
-206.072
203.79
-13.4192
-6.4893
2.30354
-205.217
206.525
-12.6441
-0.859382
1.21595
-218.74
216.564
-11.0472
-0.734316
-2.59154
-220.237
218.783
-9.07992
2.81635
898.217
-11.8638
9.68461
-226.394
-225.648
-219.72
-218.376
8.18446
-10.5239
10.9595
900.532
21.5138
5.29412
896.641
24.0219
4.44432
893.669
25.9778
2.42211
891.097
18.1928
4.74358
13.0107
-1.85608
242.543
980.062
-1945.4
723.238
-45.3627
414.28
702.978
-9.92288
-180.389
711.054
-167.308
-32.7192
204.209
-64.4158
-20.0475
192.501
196.534
186.518
2.6947
212.534
57.8949
0.919884
-0.606641
-9.37476
-56.4398
52.3127
14.244
-0.135567
-3.79258
-48.69
-2.10083
49.5334
1.28347
3.76659
-0.982681
-57.7072
0.817396
57.127
0.06908
0.676461
0.76529
-56.3461
2.79851
55.8849
-2.37408
-0.728559
1.21061
-58.3114
3.23257
57.6039
-2.45118
-1.28448
1.51098
-57.2859
3.82772
56.5065
-3.11638
-1.44293
1.19234
-57.9687
3.47545
57.2328
-2.81826
-1.11363
-0.0566018
-57.9467
3.10215
57.4231
-2.71257
0.190604
-59.9026
-4.41
235.271
-9.66777
4.59532
-59.8188
-59.0258
-58.905
929.286
28.0559
9.73833
-237.859
-239.72
-229.537
-229.588
916.191
35.6641
5.21832
906.611
36.0029
4.70831
899.393
27.3741
7.16935
18.4351
-2.23211
294.144
-698.615
4633.98
380.924
-347.638
-815.599
639.941
-277.87
-527.589
598.878
-166.178
-166.685
153.771
-69.9998
-110.943
161.537
146.962
152.642
8.59469
-44.0422
184.496
10.6773
-5.95452
-2.31834
-13.4153
-57.783
61.7003
9.65011
2.16628
-3.05609
-2.08117
-64.5799
64.668
1.92836
3.1208
-2.55934
-0.51856
-65.5904
65.7057
0.486583
2.47609
-1.67032
0.878343
-65.5558
65.2747
-0.447781
1.52082