/*--------------------------------*- C++ -*----------------------------------*\
  =========                 |
  \\      /  F ield         | OpenFOAM: The Open Source CFD Toolbox
   \\    /   O peration     | Website:  https://openfoam.org
    \\  /    A nd           | Version:  10
     \\/     M anipulation  |
\*---------------------------------------------------------------------------*/
FoamFile
{
    format      ascii;
    class       volScalarField;
    location    "9.5";
    object      turbidity;
}
// * * * * * * * * * * * * * * * * * * * * * * * * * * * * * * * * * * * * * //

dimensions      [0 0 0 0 0 0 0];

internalField   nonuniform List<scalar> 
12920
(
-0.0141527
-0.0340648
-0.0628042
-0.0898988
-0.111909
-0.134507
-0.159016
-0.184914
-0.208268
-0.227414
-0.242597
-0.255558
-0.26754
-0.27943
-0.291718
-0.304578
-0.317808
-0.331188
-0.344849
-0.359279
-0.0201243
-0.0478199
-0.0669204
-0.0811789
-0.0997091
-0.125723
-0.158758
-0.194224
-0.224802
-0.240084
-0.248577
-0.256088
-0.266093
-0.278863
-0.294596
-0.312535
-0.333227
-0.355348
-0.374122
-0.385228
-0.0158415
-0.0407356
-0.0516302
-0.0659647
-0.0915925
-0.121128
-0.161135
-0.195108
-0.230027
-0.250445
-0.265287
-0.271649
-0.278687
-0.28765
-0.302366
-0.32276
-0.351517
-0.385424
-0.420987
-0.453572
-0.0120833
-0.028875
-0.0449721
-0.0663786
-0.0962175
-0.143711
-0.201715
-0.253496
-0.29563
-0.321408
-0.345102
-0.363085
-0.382285
-0.399388
-0.420734
-0.445884
-0.478125
-0.515128
-0.555119
-0.594009
-0.0203479
-0.0487852
-0.0757545
-0.104719
-0.135042
-0.171955
-0.21652
-0.258299
-0.295401
-0.326133
-0.354216
-0.379948
-0.40434
-0.426713
-0.450324
-0.47424
-0.503155
-0.534782
-0.568839
-0.602084
-0.0173748
-0.0352285
-0.0578558
-0.0938635
-0.133695
-0.183917
-0.223823
-0.257885
-0.283995
-0.308818
-0.328902
-0.352785
-0.37522
-0.399525
-0.425467
-0.452781
-0.482836
-0.514906
-0.547589
-0.580697
-0.0143766
-0.0328234
-0.0506448
-0.0763734
-0.113779
-0.169384
-0.207123
-0.252698
-0.247078
-0.27321
-0.258546
-0.282624
-0.293214
-0.330122
-0.373107
-0.424223
-0.472071
-0.516083
-0.55721
-0.595783
-0.0218017
-0.043454
-0.0652393
-0.0898051
-0.120714
-0.161421
-0.167174
-0.186938
-0.198619
-0.161114
-0.156992
-0.137495
-0.134877
-0.132722
-0.167912
-0.229688
-0.291723
-0.350714
-0.401555
-0.447111
-0.0123167
-0.0339639
-0.0450771
-0.075623
-0.120608
-0.132287
-0.149967
-0.139568
-0.141458
-0.119648
-0.106764
-0.100586
-0.0986985
-0.0941536
-0.103056
-0.149198
-0.198613
-0.248409
-0.295703
-0.341089
-0.0266683
-0.0335068
-0.0400024
-0.0674885
-0.107258
-0.113917
-0.119531
-0.115843
-0.109645
-0.100678
-0.0940422
-0.0923499
-0.0883288
-0.080914
-0.0868548
-0.143897
-0.184376
-0.221803
-0.259533
-0.299655
-0.0589474
-0.0532143
-0.0480907
-0.0724431
-0.104178
-0.11048
-0.114669
-0.109364
-0.10367
-0.101321
-0.100777
-0.0947548
-0.0849675
-0.0780872
-0.0904229
-0.158164
-0.194272
-0.224441
-0.254256
-0.285636
-0.0433276
-0.0543363
-0.0617353
-0.081602
-0.10974
-0.110871
-0.113904
-0.109282
-0.107738
-0.111045
-0.10899
-0.103945
-0.09781
-0.0930422
-0.121612
-0.200515
-0.231329
-0.252152
-0.270312
-0.288849
-0.0270805
-0.0420897
-0.072145
-0.0988615
-0.122475
-0.150459
-0.149525
-0.144271
-0.156341
-0.159728
-0.164205
-0.15359
-0.14816
-0.155439
-0.249446
-0.316042
-0.360192
-0.375793
-0.367387
-0.361159
-0.0719292
-0.0510146
-0.090082
-0.124051
-0.147361
-0.168355
-0.187014
-0.21458
-0.244023
-0.27958
-0.301173
-0.323926
-0.334761
-0.363255
-0.399374
-0.447235
-0.493534
-0.526423
-0.527015
-0.511068
-0.0227035
-0.030139
-0.0481466
-0.090922
-0.130646
-0.160572
-0.192575
-0.216212
-0.246479
-0.27699
-0.309658
-0.335697
-0.351202
-0.35948
-0.372999
-0.398842
-0.442111
-0.492593
-0.540504
-0.571394
-0.0155741
-0.0290681
-0.0483055
-0.0754222
-0.10207
-0.131113
-0.162481
-0.188048
-0.214036
-0.240364
-0.272561
-0.302392
-0.329858
-0.349017
-0.371247
-0.400513
-0.443699
-0.494256
-0.548331
-0.596728
-0.0227402
-0.0405611
-0.0631881
-0.0897207
-0.115997
-0.14757
-0.179183
-0.206905
-0.233955
-0.259617
-0.286119
-0.311962
-0.338626
-0.364076
-0.394772
-0.432144
-0.475416
-0.523155
-0.571958
-0.61754
-0.0301171
-0.057495
-0.0805388
-0.114153
-0.134684
-0.159919
-0.186062
-0.210249
-0.242799
-0.274069
-0.305949
-0.33293
-0.358273
-0.385569
-0.416765
-0.453122
-0.493933
-0.537823
-0.582286
-0.624681
-0.0278163
-0.0661149
-0.0894361
-0.114295
-0.133588
-0.151975
-0.169824
-0.188637
-0.214618
-0.249596
-0.295585
-0.33731
-0.371062
-0.401057
-0.430805
-0.461742
-0.493458
-0.524846
-0.554578
-0.581483
-0.0507632
-0.0708583
-0.0808086
-0.088981
-0.0995954
-0.11558
-0.132955
-0.146492
-0.15654
-0.170316
-0.201303
-0.245073
-0.29198
-0.336696
-0.375158
-0.406485
-0.431581
-0.451743
-0.469877
-0.489048
-0.00303622
-0.00646943
-0.0142536
-0.0294694
-0.0486129
-0.0628846
-0.0745749
-0.0814597
-0.0865298
-0.0893319
-0.09228
-0.0928524
-0.0927044
-0.0919144
-0.0915572
-0.0910151
-0.0913347
-0.094163
-0.100523
-0.107499
-0.00482098
-0.00843207
-0.0186492
-0.0277351
-0.0445819
-0.0470309
-0.0515327
-0.0408377
-0.030088
-0.0245585
-0.0229648
-0.0233607
-0.025141
-0.0279606
-0.0317322
-0.0358181
-0.040367
-0.04505
-0.0494688
-0.053075
-0.00789044
-0.00913982
-0.0118996
-0.0179845
-0.0291166
-0.0298224
-0.0328872
-0.0289359
-0.0245019
-0.0205058
-0.0183726
-0.0179522
-0.0192883
-0.0220723
-0.026345
-0.0320481
-0.0393213
-0.0477747
-0.0568807
-0.0662883
-0.00757311
-0.00965538
-0.0177329
-0.032878
-0.0580294
-0.0599012
-0.0646724
-0.0468302
-0.03597
-0.030727
-0.0291746
-0.0287869
-0.0300609
-0.0324973
-0.0364737
-0.0415582
-0.0477942
-0.0546533
-0.0623498
-0.0720967
-0.00462544
-0.0236145
-0.0481619
-0.0638086
-0.0828811
-0.0679022
-0.0667423
-0.0476934
-0.0378848
-0.0340324
-0.0370688
-0.040622
-0.0478884
-0.051908
-0.0570442
-0.061268
-0.0667677
-0.0725296
-0.0801347
-0.0863573
-0.010793
-0.0282635
-0.0509456
-0.0650685
-0.0896891
-0.0719234
-0.0635699
-0.0438512
-0.0319956
-0.0269031
-0.0268676
-0.0302967
-0.0351478
-0.0413696
-0.0488094
-0.0576639
-0.0685867
-0.0822521
-0.0968545
-0.10307
-0.0115062
-0.0256741
-0.0436694
-0.0573535
-0.0829379
-0.0844073
-0.068588
-0.0389207
-0.0218501
-0.0211476
-0.0237536
-0.0292384
-0.0350233
-0.0431077
-0.0523418
-0.063395
-0.0758994
-0.0887852
-0.0989841
-0.0978476
-0.00404097
-0.0100758
-0.0187646
-0.0264146
-0.0511986
-0.057432
-0.0694437
-0.0455909
-0.0250857
-0.0197743
-0.0220541
-0.0275441
-0.032893
-0.0382252
-0.0464491
-0.0577593
-0.0694709
-0.0783939
-0.0825486
-0.0763702
-0.00848438
-0.00492677
-0.00525531
-0.0105603
-0.0415521
-0.0462302
-0.053156
-0.0576494
-0.0461847
-0.0277331
-0.0211838
-0.0249005
-0.0380432
-0.0507805
-0.0462222
-0.0458682
-0.0551551
-0.0639357
-0.0691131
-0.0651589
-0.00744643
-0.00241568
-0.00291373
-0.00663831
-0.0201068
-0.0285073
-0.0423533
-0.0497275
-0.0514503
-0.0417608
-0.0231681
-0.0169898
-0.019643
-0.0348474
-0.06033
-0.0462028
-0.0449931
-0.0484426
-0.055661
-0.0567344
-0.00278198
-0.0107313
-0.00794911
-0.00871563
-0.016321
-0.022369
-0.0391909
-0.0621693
-0.0800534
-0.0952591
-0.0931482
-0.0584934
-0.03163
-0.041842
-0.07676
-0.0494085
-0.0434136
-0.0424328
-0.0458341
-0.0472551
-0.00458202
-0.025865
-0.0278775
-0.0283366
-0.0384625
-0.0313824
-0.0317111
-0.0250452
-0.0284647
-0.0480152
-0.0868063
-0.0975429
-0.0909614
-0.0973141
-0.0847243
-0.0502858
-0.0456193
-0.0435682
-0.0436358
-0.0447483
-0.0117204
-0.0123661
-0.02583
-0.0440387
-0.0578997
-0.0553874
-0.0535863
-0.038402
-0.0359047
-0.0480273
-0.0631912
-0.0769899
-0.0821101
-0.0796952
-0.0573374
-0.0576333
-0.0563869
-0.0539226
-0.051726
-0.0520912
-0.018555
-0.0144827
-0.0271264
-0.0501096
-0.0554218
-0.0495286
-0.0483828
-0.044859
-0.0448768
-0.0499637
-0.0527219
-0.0530983
-0.0507538
-0.0527678
-0.0589322
-0.0671989
-0.0740617
-0.0781644
-0.0757722
-0.0763711
-0.00426211
-0.0140444
-0.0248507
-0.0263396
-0.026134
-0.0249997
-0.0348258
-0.0368128
-0.0468615
-0.0499662
-0.0520232
-0.0440325
-0.0426353
-0.0473727
-0.0584894
-0.0757989
-0.0971978
-0.113293
-0.108875
-0.0972373
-0.00214566
-0.00836719
-0.019162
-0.0154679
-0.0141077
-0.0120987
-0.0155126
-0.0196061
-0.026611
-0.0320562
-0.0407921
-0.0418129
-0.0444527
-0.0516788
-0.0656196
-0.0855886
-0.112294
-0.138909
-0.152808
-0.138952
-0.00935915
-0.00972179
-0.015503
-0.0155177
-0.013466
-0.0132155
-0.0182092
-0.0249398
-0.0315773
-0.0379564
-0.0440278
-0.0508368
-0.0603443
-0.0753457
-0.0961854
-0.12167
-0.149376
-0.169693
-0.18274
-0.182711
-0.00908459
-0.0232791
-0.0292047
-0.0181548
-0.0119432
-0.0135269
-0.0187227
-0.0252477
-0.0342882
-0.0440666
-0.0567668
-0.0708263
-0.0896279
-0.108119
-0.128334
-0.146042
-0.163121
-0.175746
-0.186327
-0.19127
-0.0373073
-0.0324851
-0.0207281
-0.0231278
-0.0224156
-0.0183889
-0.0192449
-0.0196624
-0.0271778
-0.0391087
-0.0563521
-0.0729292
-0.0898415
-0.102536
-0.115526
-0.126323
-0.13672
-0.143159
-0.144784
-0.136427
-0.0143256
-0.0342726
-0.033971
-0.0218885
-0.0197315
-0.0135748
-0.0138751
-0.0130796
-0.014945
-0.0219602
-0.0389624
-0.0655461
-0.0963355
-0.114793
-0.120663
-0.114141
-0.102147
-0.088774
-0.0812068
-0.0794047
-0.00443789
-0.00948678
-0.0154139
-0.0212999
-0.0282708
-0.0331774
-0.0375638
-0.0401134
-0.0424114
-0.0441076
-0.0456194
-0.0458372
-0.0447468
-0.0426754
-0.0405702
-0.0388582
-0.0390346
-0.0413827
-0.0452382
-0.0481418
-0.00480593
-0.00771634
-0.0128198
-0.016245
-0.0246711
-0.0212169
-0.0187842
-0.0152578
-0.014882
-0.015669
-0.0175426
-0.019021
-0.0206918
-0.0221842
-0.0239577
-0.0260184
-0.0284116
-0.0306421
-0.0323538
-0.0333373
-0.00925501
-0.0081932
-0.00949921
-0.0125348
-0.0148068
-0.0129911
-0.0118354
-0.0107022
-0.0103255
-0.0106301
-0.0117414
-0.0133042
-0.015375
-0.0177645
-0.0205959
-0.0236637
-0.026957
-0.0300584
-0.03279
-0.0350541
-0.0122585
-0.0132472
-0.0164886
-0.0222692
-0.0350259
-0.0251705
-0.0201739
-0.0138816
-0.01195
-0.0118776
-0.012908
-0.0142653
-0.0160432
-0.0178786
-0.0198163
-0.0215861
-0.0232314
-0.0245658
-0.025798
-0.0272001
-0.0083343
-0.0255477
-0.0354483
-0.038991
-0.0476258
-0.0278828
-0.0208851
-0.0146365
-0.013581
-0.0141732
-0.0164876
-0.0183797
-0.0208936
-0.022547
-0.0240951
-0.024981
-0.0255828
-0.0256577
-0.0256779
-0.0253313
-0.0124555
-0.0300057
-0.0415521
-0.042026
-0.0536045
-0.0298101
-0.0191222
-0.0139043
-0.0138299
-0.0151978
-0.0182451
-0.0206679
-0.0237058
-0.0259929
-0.0284193
-0.0302886
-0.0317953
-0.0324771
-0.0322162
-0.0297384
-0.00532384
-0.023284
-0.0331757
-0.0395982
-0.0551975
-0.0379141
-0.0204273
-0.0131616
-0.0133465
-0.0166676
-0.0200109
-0.0239282
-0.0273828
-0.0302203
-0.0322692
-0.0333311
-0.0332811
-0.0317973
-0.0293116
-0.0252814
-0.00529916
-0.00796183
-0.0100796
-0.0131158
-0.024274
-0.0222407
-0.0203664
-0.0123247
-0.0114235
-0.0137737
-0.0163122
-0.0194113
-0.0240267
-0.0289429
-0.0310287
-0.032399
-0.0318114
-0.0291724
-0.0256201
-0.0211127
-0.0023365
-0.00300536
-0.00346166
-0.00610493
-0.0155111
-0.0168881
-0.0173486
-0.0124861
-0.00926008
-0.00827154
-0.0100145
-0.0131841
-0.0169946
-0.0203464
-0.0251857
-0.0268142
-0.0280982
-0.0269376
-0.0244591
-0.0206656
-0.0064292
-0.0015944
-0.00225133
-0.00500296
-0.0114799
-0.0132457
-0.0155821
-0.017012
-0.0155926
-0.0126435
-0.0101613
-0.0112314
-0.0151662
-0.0214843
-0.0228623
-0.0203393
-0.0218383
-0.0230198
-0.0236048
-0.0223124
-0.00220616
-0.00334372
-0.00350625
-0.00596047
-0.0116855
-0.0156419
-0.0236846
-0.0358618
-0.0476199
-0.0535907
-0.0409916
-0.0206486
-0.0165305
-0.0248947
-0.0274311
-0.0205073
-0.0213174
-0.0235121
-0.0260541
-0.0276105
-0.00627959
-0.0147594
-0.0127234
-0.010953
-0.0147329
-0.0137398
-0.0150974
-0.0176245
-0.0273968
-0.0471449
-0.059017
-0.044788
-0.0347031
-0.0373578
-0.0304796
-0.0276017
-0.0277178
-0.0293105
-0.0318066
-0.034442
-0.00463153
-0.00676414
-0.00912163
-0.0162969
-0.0228293
-0.0200111
-0.0191517
-0.0184087
-0.022793
-0.0287815
-0.0308084
-0.0312995
-0.0322357
-0.0341044
-0.0354096
-0.0367921
-0.0378898
-0.0392151
-0.0409098
-0.0431178
-0.0091616
-0.00861641
-0.0114087
-0.0214234
-0.0214043
-0.0187027
-0.0182336
-0.0186169
-0.0205036
-0.0226694
-0.0246296
-0.0272209
-0.0299565
-0.0330509
-0.0360533
-0.0387588
-0.0407927
-0.0422911
-0.0435674
-0.0450921
-0.00926465
-0.0121813
-0.0148602
-0.0131931
-0.0124538
-0.0130717
-0.0160252
-0.0172104
-0.0201528
-0.0215271
-0.023775
-0.0259151
-0.029484
-0.0337396
-0.0383758
-0.0428908
-0.0457206
-0.045125
-0.0412722
-0.037932
-0.00928623
-0.0101513
-0.0128708
-0.00802887
-0.0078004
-0.00953002
-0.012179
-0.014548
-0.017324
-0.0201087
-0.0238164
-0.0280638
-0.0332803
-0.0392582
-0.0451682
-0.0502652
-0.0546793
-0.056397
-0.0538547
-0.0461909
-0.0153497
-0.0151128
-0.0108927
-0.00751061
-0.00776237
-0.0112267
-0.0151794
-0.0191486
-0.021967
-0.0258683
-0.0299376
-0.0358126
-0.0424408
-0.049667
-0.0568372
-0.0628136
-0.0679439
-0.069598
-0.0693479
-0.0654114
-0.0180223
-0.0169964
-0.0119194
-0.00771863
-0.00868212
-0.0118218
-0.0156774
-0.019525
-0.0243469
-0.0295641
-0.0361139
-0.0430094
-0.051142
-0.0580622
-0.0644766
-0.0680737
-0.0708136
-0.071136
-0.0712973
-0.0703817
-0.0452705
-0.0149941
-0.00853015
-0.00835524
-0.00805593
-0.00846368
-0.0105254
-0.0138862
-0.0187335
-0.0253476
-0.0340255
-0.0412047
-0.0478824
-0.0520333
-0.055158
-0.0554783
-0.0543293
-0.0505102
-0.0455845
-0.0393681
-0.00703074
-0.0120737
-0.0101927
-0.00713912
-0.00640565
-0.00576566
-0.00575868
-0.00585408
-0.00677542
-0.0106909
-0.0198205
-0.0319822
-0.0431975
-0.0473274
-0.0465968
-0.0423229
-0.0379133
-0.0341772
-0.032044
-0.0309158
-0.00658703
-0.0112129
-0.0134945
-0.0146493
-0.0162156
-0.0173015
-0.0188485
-0.0204493
-0.0223962
-0.0242275
-0.0255122
-0.0253045
-0.0237857
-0.0219699
-0.0210177
-0.0214209
-0.0231192
-0.0251594
-0.0264441
-0.026139
-0.00222028
-0.00724617
-0.00930285
-0.0109447
-0.0134666
-0.0126066
-0.0130461
-0.0135901
-0.0146281
-0.0152248
-0.015824
-0.0159261
-0.0160834
-0.0164173
-0.0171207
-0.0177965
-0.0182592
-0.018247
-0.0178874
-0.0171421
-0.00309811
-0.00734195
-0.00903743
-0.0100624
-0.0101379
-0.00932564
-0.0091286
-0.00910636
-0.00964774
-0.0102674
-0.0111388
-0.0119805
-0.0129331
-0.0137865
-0.014564
-0.0151066
-0.0154732
-0.0156364
-0.0157251
-0.0159608
-0.0113179
-0.00997367
-0.0112689
-0.0129272
-0.0159639
-0.0107119
-0.00888783
-0.00821433
-0.00866595
-0.00928403
-0.0100498
-0.0107145
-0.011276
-0.0116704
-0.0119097
-0.0120437
-0.0121538
-0.0122917
-0.0126168
-0.013197
-0.0116444
-0.0180283
-0.0183372
-0.020068
-0.0196095
-0.0113377
-0.00964479
-0.00918169
-0.0102139
-0.0107819
-0.011723
-0.0120774
-0.0123974
-0.0122553
-0.0119729
-0.0115582
-0.0112051
-0.0109285
-0.0109255
-0.0111275
-0.0220783
-0.0211264
-0.0204765
-0.0211758
-0.0223125
-0.0121376
-0.00971587
-0.00997851
-0.0117632
-0.0126101
-0.0138138
-0.0140475
-0.0142332
-0.0138177
-0.0132806
-0.0125525
-0.0118618
-0.0111817
-0.010692
-0.0102872
-0.00668602
-0.0176299
-0.0171087
-0.0230324
-0.0264392
-0.0148593
-0.009601
-0.0103538
-0.0118289
-0.0134528
-0.0140536
-0.014744
-0.0143767
-0.0139217
-0.0129526
-0.0119706
-0.0109915
-0.010096
-0.00957394
-0.00932834
-0.00416674
-0.00565206
-0.00603349
-0.00779727
-0.0104918
-0.00909551
-0.00798594
-0.010224
-0.0110276
-0.0127506
-0.0136571
-0.0148422
-0.0155671
-0.0155547
-0.0116797
-0.0108096
-0.0100398
-0.00938258
-0.00914478
-0.00913575
-0.00156695
-0.00171701
-0.00267293
-0.00478272
-0.00671802
-0.00779222
-0.00729548
-0.00747773
-0.00837208
-0.0087444
-0.0102445
-0.0116232
-0.0130413
-0.0144237
-0.0131602
-0.0100939
-0.00994981
-0.00976724
-0.00985895
-0.00994732
-0.00528983
-0.00122947
-0.00196003
-0.00490568
-0.00787474
-0.00777411
-0.00773931
-0.00798002
-0.0078373
-0.0081554
-0.00966624
-0.0120557
-0.0135059
-0.0138068
-0.0119153
-0.0103516
-0.0110774
-0.0118715
-0.0127378
-0.0132534
-0.000845692
-0.00164703
-0.00275094
-0.00537548
-0.0089838
-0.0111192
-0.0155639
-0.0201471
-0.0214982
-0.0175578
-0.0120547
-0.0126626
-0.0161767
-0.0180366
-0.0144173
-0.0140713
-0.0156318
-0.0172619
-0.018461
-0.0189138
-0.00412814
-0.0053426
-0.00550946
-0.0061141
-0.00891491
-0.0100882
-0.0113425
-0.0152175
-0.0231119
-0.0271733
-0.0198072
-0.0154453
-0.0189683
-0.0222981
-0.0206254
-0.0229729
-0.0250333
-0.0267901
-0.0274487
-0.0268194
-0.00238765
-0.00386911
-0.00424697
-0.00714744
-0.00934763
-0.00984363
-0.0104184
-0.0128346
-0.0144699
-0.0156048
-0.0166371
-0.019344
-0.0222832
-0.0247315
-0.0270851
-0.0298882
-0.0323208
-0.0338748
-0.0341222
-0.0331342
-0.00201065
-0.00611554
-0.00704067
-0.0103026
-0.010147
-0.0107768
-0.0114092
-0.0128416
-0.0142212
-0.0161413
-0.017585
-0.0189763
-0.0200837
-0.0209613
-0.0221738
-0.02291
-0.0238606
-0.024415
-0.0248763
-0.0245511
-0.00395224
-0.00859806
-0.00874675
-0.00908612
-0.00932903
-0.0105141
-0.0116916
-0.013091
-0.0147354
-0.01643
-0.0179367
-0.0191877
-0.0200967
-0.0207247
-0.0210589
-0.0210953
-0.0207385
-0.0197609
-0.0187826
-0.0181424
-0.0109331
-0.00853662
-0.00745942
-0.00647358
-0.00782408
-0.00975125
-0.011369
-0.0131956
-0.0150526
-0.0173569
-0.0193964
-0.0212875
-0.0225384
-0.0234806
-0.0239039
-0.0240563
-0.0241954
-0.0237225
-0.022721
-0.021334
-0.00287253
-0.00686448
-0.00603904
-0.00593975
-0.007908
-0.0112077
-0.0134544
-0.0157263
-0.017394
-0.019747
-0.0218028
-0.0238999
-0.0255329
-0.0267535
-0.0277525
-0.0283732
-0.0291986
-0.0292158
-0.0292826
-0.0287793
-0.0208203
-0.013982
-0.0109468
-0.00810974
-0.00914393
-0.0118308
-0.0143099
-0.0165833
-0.0190003
-0.0212798
-0.0238445
-0.0256865
-0.0276119
-0.0282138
-0.0289592
-0.0288709
-0.0296045
-0.0301699
-0.0314491
-0.032705
-0.0227658
-0.0116854
-0.00700197
-0.00652122
-0.00774272
-0.00948269
-0.0119142
-0.0148014
-0.0183148
-0.0213234
-0.0241011
-0.0247868
-0.0248991
-0.023278
-0.0217228
-0.0196851
-0.0183128
-0.0173253
-0.0172794
-0.018053
-0.0121675
-0.00846629
-0.00592328
-0.00503407
-0.00487566
-0.00511123
-0.00552762
-0.00718668
-0.00989974
-0.0140516
-0.0185707
-0.0213766
-0.0229969
-0.0224597
-0.0213619
-0.0197671
-0.0185129
-0.0174442
-0.0167061
-0.0161053
-0.00612161
-0.0110119
-0.0111068
-0.0107149
-0.0109798
-0.0117056
-0.0130783
-0.0145209
-0.0155301
-0.0153407
-0.0142273
-0.0130656
-0.0128003
-0.0130451
-0.0132132
-0.012868
-0.0121948
-0.0113621
-0.0106305
-0.010277
-0.00285178
-0.00676778
-0.00849918
-0.00940185
-0.0103624
-0.0109343
-0.0117607
-0.0119297
-0.0119916
-0.0115371
-0.0111545
-0.0107794
-0.0104876
-0.0101115
-0.00982317
-0.00966995
-0.00974829
-0.0100441
-0.0105299
-0.0111978
-0.00445485
-0.00691585
-0.00796893
-0.00784644
-0.007982
-0.00777162
-0.00822694
-0.00837664
-0.00868318
-0.00876383
-0.00882624
-0.00883576
-0.00894399
-0.00917324
-0.00954459
-0.0100132
-0.0105281
-0.0110541
-0.0115511
-0.0120408
-0.00219658
-0.00560702
-0.00773862
-0.00794262
-0.00766904
-0.00704902
-0.00712478
-0.00732945
-0.00753737
-0.00769918
-0.00783781
-0.00805649
-0.00836633
-0.00877854
-0.009256
-0.00975189
-0.0102329
-0.0106687
-0.0110637
-0.011391
-0.0204336
-0.0136045
-0.00911013
-0.00882254
-0.00786961
-0.00713702
-0.00729834
-0.00745787
-0.00756754
-0.00757974
-0.00759458
-0.00768048
-0.00787648
-0.00819399
-0.0085977
-0.0090673
-0.00954829
-0.0100113
-0.0104359
-0.0107703
-0.0317263
-0.0117096
-0.00769396
-0.0084335
-0.00805839
-0.00734811
-0.00727588
-0.00748008
-0.00750165
-0.00743417
-0.00736188
-0.00738145
-0.00752265
-0.00781022
-0.00820898
-0.00870569
-0.00924891
-0.00980855
-0.0103459
-0.0107718
-0.0158833
-0.0094692
-0.00723649
-0.00945339
-0.00886853
-0.00736047
-0.00683337
-0.00713941
-0.00693232
-0.00710588
-0.00699295
-0.00722517
-0.00733226
-0.0076723
-0.00808924
-0.00862848
-0.00924619
-0.00990976
-0.0105663
-0.0110957
-0.00224501
-0.00403702
-0.00439605
-0.00501866
-0.00541475
-0.00615161
-0.00633581
-0.00721727
-0.00693349
-0.00707666
-0.00681146
-0.00698809
-0.00689231
-0.00714429
-0.00806803
-0.00861675
-0.00920491
-0.00981995
-0.0104074
-0.0108791
-0.000999303
-0.00132763
-0.00238014
-0.00411676
-0.00515688
-0.00594589
-0.0061157
-0.00684262
-0.00698152
-0.00721842
-0.00692328
-0.00644874
-0.0061853
-0.00635161
-0.00715973
-0.00881187
-0.00931837
-0.00979515
-0.0102275
-0.0105652
-0.00192736
-0.00121665
-0.00304786
-0.00502116
-0.00603749
-0.00614225
-0.0062314
-0.00660595
-0.0074133
-0.00878452
-0.00975131
-0.00902213
-0.00744087
-0.00687969
-0.00814859
-0.0102237
-0.0107689
-0.0111671
-0.0114507
-0.0116182
-0.00155136
-0.00108854
-0.00267071
-0.00559366
-0.00730274
-0.00815526
-0.00909603
-0.00916174
-0.00911045
-0.00995686
-0.0118711
-0.0131657
-0.0119946
-0.010107
-0.0106291
-0.0121515
-0.0125681
-0.01277
-0.0128855
-0.0129708
-0.009445
-0.00338462
-0.00397149
-0.00600605
-0.00796318
-0.00908392
-0.00968971
-0.0107144
-0.0108782
-0.011148
-0.0127206
-0.0147005
-0.0151683
-0.0144976
-0.0151113
-0.0147726
-0.0141699
-0.0134014
-0.0127781
-0.0124656
-0.00218114
-0.00311188
-0.00384378
-0.00545409
-0.00707763
-0.00850965
-0.00916276
-0.0103555
-0.0109509
-0.0119704
-0.0129602
-0.0143644
-0.0158018
-0.0176019
-0.015294
-0.0151052
-0.0145339
-0.0137699
-0.0130357
-0.0125978
-0.00353325
-0.0059028
-0.00644016
-0.00742503
-0.00807992
-0.00914597
-0.00978227
-0.0104982
-0.0108681
-0.0112051
-0.0113507
-0.0113655
-0.0114803
-0.0114187
-0.0115515
-0.0112978
-0.0111593
-0.0109637
-0.0109047
-0.0109389
-0.0015867
-0.00683565
-0.00750512
-0.00807551
-0.00876701
-0.0096701
-0.0101684
-0.0108506
-0.0111755
-0.0114455
-0.0114234
-0.0113873
-0.0112373
-0.0110485
-0.0107934
-0.0105219
-0.0102584
-0.0100293
-0.00996976
-0.0100807
-0.0128807
-0.00589079
-0.00550026
-0.0069161
-0.00858791
-0.00981127
-0.0106187
-0.0113977
-0.0118628
-0.0122911
-0.0123734
-0.0124656
-0.0123159
-0.0122489
-0.0120066
-0.011788
-0.0115329
-0.011237
-0.0110477
-0.0110071
-0.00934363
-0.00424399
-0.00440688
-0.00641471
-0.00881293
-0.010359
-0.0112055
-0.011914
-0.0125171
-0.0130564
-0.0134662
-0.0138274
-0.0140232
-0.0141911
-0.0141689
-0.0140417
-0.0138046
-0.0134163
-0.0131592
-0.0130461
-0.0144809
-0.00652075
-0.00553492
-0.00717897
-0.00908666
-0.0103821
-0.0111716
-0.0117731
-0.01246
-0.0129709
-0.0137463
-0.0142839
-0.0151014
-0.0157191
-0.0163953
-0.0168239
-0.0171341
-0.0171754
-0.0172126
-0.017296
-0.00478818
-0.00562461
-0.00491685
-0.00655923
-0.00852546
-0.0104565
-0.0116255
-0.0121287
-0.0123763
-0.01194
-0.0119143
-0.0116113
-0.012191
-0.0131457
-0.0147237
-0.0165813
-0.0186018
-0.0206354
-0.0225552
-0.0241731
-0.0109949
-0.00760235
-0.00711565
-0.0054523
-0.00543087
-0.00721688
-0.0093262
-0.0111609
-0.012408
-0.0128255
-0.0131212
-0.0123445
-0.0117819
-0.0108146
-0.0102244
-0.00980068
-0.00996951
-0.0106518
-0.0120096
-0.0140074
-0.0104547
-0.041047
-0.0321206
-0.0087495
-0.00923047
-0.0179591
-0.0135421
-0.0106689
-0.0281838
-0.0180873
-0.0095778
-0.0111895
-0.0124139
-0.0117815
-0.0462327
-0.0509328
-0.0606812
-0.0249581
-0.0170933
-0.036273
-0.0305421
-0.0246931
-0.060055
-0.046592
-0.015018
-0.0124734
-0.0270238
-0.0181873
-0.14345
-0.132789
-0.123161
-0.141887
-0.140374
-0.124523
-0.119589
-0.144329
-0.119903
-0.111714
-0.138383
-0.13864
-0.116871
-0.108897
-0.125665
-0.109316
-0.102436
-0.133489
-0.110975
-0.106278
-0.0980528
-0.110049
-0.100307
-0.0955064
-0.10351
-0.0907184
-0.095054
-0.0826232
-0.101482
-0.0946114
-0.0940331
-0.0866895
-0.0770477
-0.0766531
-0.0571403
-0.0995241
-0.0941871
-0.09315
-0.0758146
-0.0785018
-0.0516518
-0.0412872
-0.0953476
-0.0918687
-0.0864401
-0.0797443
-0.087062
-0.0402734
-0.0470846
-0.092869
-0.0848287
-0.0824142
-0.0899441
-0.0953376
-0.0529969
-0.0765908
-0.117073
-0.116426
-0.113218
-0.114593
-0.114985
-0.111798
-0.112173
-0.11148
-0.111842
-0.108077
-0.114067
-0.10967
-0.111749
-0.11025
-0.10299
-0.106959
-0.104221
-0.107591
-0.0997165
-0.109766
-0.108358
-0.0951661
-0.103451
-0.100519
-0.0965191
-0.0828306
-0.107778
-0.103247
-0.0925773
-0.0990748
-0.0935955
-0.0761127
-0.05371
-0.0997496
-0.0799179
-0.0900025
-0.0916331
-0.0853646
-0.0472568
-0.0346442
-0.0703161
-0.0442062
-0.0823888
-0.0830571
-0.0771692
-0.0330116
-0.0380166
-0.0390331
-0.0387933
-0.0792745
-0.0761399
-0.0757919
-0.0435534
-0.0685581
-0.0437972
-0.0680732
-0.111071
-0.112541
-0.108486
-0.108812
-0.108861
-0.103621
-0.0944907
-0.104819
-0.107153
-0.104315
-0.107912
-0.105276
-0.0901599
-0.08224
-0.10156
-0.103933
-0.104536
-0.10479
-0.104707
-0.0819804
-0.0881166
-0.1012
-0.104942
-0.10367
-0.105024
-0.10529
-0.0914296
-0.100642
-0.0968194
-0.102692
-0.100356
-0.104135
-0.0910157
-0.102754
-0.105746
-0.0875066
-0.0994477
-0.0955357
-0.0826099
-0.0548454
-0.105245
-0.0997786
-0.0790538
-0.0939154
-0.089338
-0.0488752
-0.0487194
-0.09824
-0.0985312
-0.0775408
-0.0884107
-0.0883078
-0.0539966
-0.0761681
-0.0999474
-0.109368
-0.110166
-0.130799
-0.129461
-0.106481
-0.0971037
-0.126651
-0.125368
-0.107597
-0.128748
-0.135039
-0.0930373
-0.0845645
-0.12281
-0.114409
-0.110188
-0.137766
-0.14285
-0.0835474
-0.0866442
-0.110819
-0.103857
-0.110216
-0.14374
-0.147537
-0.0900277
-0.101796
-0.104288
-0.113496
-0.105369
-0.146652
-0.138915
-0.104479
-0.108769
-0.115765
-0.119995
-0.0993984
-0.134443
-0.122101
-0.109145
-0.108103
-0.120946
-0.122138
-0.0937548
-0.118512
-0.111447
-0.107644
-0.107612
-0.121812
-0.123438
-0.0948058
-0.110762
-0.122573
-0.10853
-0.118663
-0.126199
-0.142884
-0.0561909
-0.0443374
-0.0537751
-0.0442505
-0.0262972
-0.0353505
-0.0244403
-0.0503704
-0.0541649
-0.0520756
-0.0216393
-0.0155703
-0.0219337
-0.0172401
-0.0309264
-0.0499608
-0.0386526
-0.0138297
-0.0112194
-0.0162683
-0.0143159
-0.021856
-0.0338272
-0.0215789
-0.0110834
-0.0120873
-0.0138092
-0.012317
-0.0228002
-0.0193369
-0.0171016
-0.012481
-0.014744
-0.0119675
-0.0120973
-0.0345707
-0.0174554
-0.0209558
-0.0158678
-0.0196772
-0.0126183
-0.0155912
-0.0481038
-0.0230338
-0.0342504
-0.0207991
-0.0239014
-0.0170444
-0.0227146
-0.0530458
-0.0402074
-0.0603324
-0.0247783
-0.0278146
-0.0247658
-0.0288667
-0.0489876
-0.0477729
-0.0644533
-0.0316003
-0.0274014
-0.0340849
-0.0391695
-0.051498
-0.069151
-0.0827106
-0.0263484
-0.0232025
-0.0409933
-0.0471143
-0.0458034
-0.0867755
-0.0940726
-0.0221121
-0.0189194
-0.049202
-0.0527328
-0.0269015
-0.0943094
-0.0851974
-0.0178182
-0.0144135
-0.0521988
-0.0425363
-0.0174901
-0.0785408
-0.0500846
-0.0134335
-0.0120459
-0.0378197
-0.0234253
-0.0182562
-0.0408643
-0.0250253
-0.0122025
-0.014417
-0.0200385
-0.0157859
-0.0290903
-0.023428
-0.0289812
-0.0157272
-0.0216425
-0.0161489
-0.0221263
-0.057805
-0.0346479
-0.0612893
-0.024159
-0.0301383
-0.0255848
-0.0363012
-0.057108
-0.0276509
-0.0267752
-0.0318588
-0.0402865
-0.0253192
-0.0258001
-0.0756205
-0.0267195
-0.028883
-0.0429041
-0.0511512
-0.0262844
-0.0311689
-0.0924035
-0.0307877
-0.045397
-0.0542022
-0.0627118
-0.0342343
-0.0474435
-0.0963399
-0.0546971
-0.0841239
-0.0642958
-0.0595813
-0.0528249
-0.06677
-0.0692875
-0.0903846
-0.0958591
-0.0543877
-0.0334304
-0.0684285
-0.0595541
-0.0349356
-0.0933816
-0.0800912
-0.0276929
-0.0191557
-0.0538099
-0.0405363
-0.0359045
-0.0770626
-0.0803072
-0.0190054
-0.0250556
-0.0388834
-0.0417249
-0.068151
-0.0845093
-0.0979459
-0.028665
-0.0392348
-0.0437995
-0.0453374
-0.025749
-0.0489127
-0.0404651
-0.0268079
-0.0232243
-0.0372594
-0.0284769
-0.0266377
-0.0360173
-0.0318362
-0.0232158
-0.0274617
-0.0270517
-0.0282076
-0.0404961
-0.0328861
-0.0411656
-0.0304063
-0.0438401
-0.0296978
-0.0381401
-0.0786847
-0.0458675
-0.0626755
-0.0493752
-0.0640528
-0.04204
-0.0509503
-0.097726
-0.068975
-0.0863523
-0.0665473
-0.0621711
-0.0526412
-0.0530218
-0.0921002
-0.0909535
-0.0999618
-0.0579223
-0.0470562
-0.052103
-0.0489083
-0.0945335
-0.101528
-0.103691
-0.0456379
-0.0474849
-0.0480618
-0.0458556
-0.104855
-0.103497
-0.0957187
-0.0483977
-0.0457723
-0.0453665
-0.0453359
-0.013794
-0.0141925
-0.0140543
-0.0139133
-0.00802359
-0.0112877
-0.0080048
-0.0100305
-0.0135765
-0.0119901
-0.00782018
-0.00849883
-0.00766765
-0.00742879
-0.00818138
-0.0114828
-0.0101124
-0.00830604
-0.00835669
-0.00748329
-0.00791312
-0.00954978
-0.00970053
-0.00915317
-0.00870218
-0.0101214
-0.0081265
-0.00906176
-0.0122281
-0.00932068
-0.0107606
-0.0103968
-0.0117041
-0.00949869
-0.011137
-0.0161453
-0.01152
-0.0145586
-0.0122981
-0.0144153
-0.0117303
-0.0133257
-0.0194697
-0.0158184
-0.0200679
-0.0150215
-0.0173447
-0.0137729
-0.0148911
-0.0238913
-0.02137
-0.0234561
-0.0181991
-0.0210272
-0.0151777
-0.0160096
-0.016885
-0.0219563
-0.0297746
-0.011374
-0.00979234
-0.016455
-0.0186465
-0.016164
-0.0321595
-0.0388163
-0.00958597
-0.00897976
-0.0192643
-0.0205104
-0.0134803
-0.0406562
-0.0429338
-0.00884712
-0.00872035
-0.0205874
-0.0187222
-0.0127948
-0.011776
-0.0180571
-0.0101643
-0.016586
-0.00983792
-0.013708
-0.0105508
-0.0101132
-0.0124075
-0.00962786
-0.0116026
-0.00985257
-0.0107554
-0.0139315
-0.015837
-0.0142022
-0.0118456
-0.0136872
-0.0123168
-0.0148238
-0.0198271
-0.015008
-0.0203454
-0.0141941
-0.0153273
-0.0157087
-0.0178815
-0.0245567
-0.0228496
-0.029075
-0.0155322
-0.0157146
-0.0182774
-0.0178726
-0.0328578
-0.017647
-0.0196269
-0.0207693
-0.0242436
-0.0177083
-0.0210801
-0.0447557
-0.0209096
-0.027458
-0.0251936
-0.0273895
-0.0226749
-0.0287644
-0.0541636
-0.0309542
-0.0456241
-0.0277881
-0.0261866
-0.0309649
-0.035944
-0.0503612
-0.0528069
-0.0580632
-0.0430254
-0.0595623
-0.042827
-0.0504633
-0.0347966
-0.0351305
-0.0530362
-0.0324429
-0.0470279
-0.0278372
-0.0404324
-0.0160276
-0.0408095
-0.030207
-0.0126128
-0.0148787
-0.0168074
-0.0172098
-0.0221776
-0.0295448
-0.0330771
-0.0159069
-0.018692
-0.018293
-0.0218651
-0.0310905
-0.034612
-0.0348201
-0.0192587
-0.0190175
-0.0226369
-0.0226726
-0.0163915
-0.0179563
-0.016781
-0.0144697
-0.0176465
-0.0149197
-0.015933
-0.0240804
-0.017301
-0.0214205
-0.0193033
-0.0259732
-0.0171826
-0.0201869
-0.0416384
-0.0234145
-0.0317612
-0.0285061
-0.0345511
-0.0212158
-0.024031
-0.0586203
-0.0348816
-0.0405063
-0.0352234
-0.0308237
-0.0242016
-0.0219412
-0.0495185
-0.0412993
-0.0398113
-0.0277197
-0.0194729
-0.0210173
-0.0193963
-0.0354345
-0.0387311
-0.0363923
-0.0181289
-0.0185831
-0.0196415
-0.0225292
-0.0367438
-0.036096
-0.0358952
-0.0196835
-0.0232589
-0.023797
-0.0277397
-0.0353256
-0.0359838
-0.035752
-0.0240462
-0.0243399
-0.0288114