/*--------------------------------*- C++ -*----------------------------------*\
  =========                 |
  \\      /  F ield         | OpenFOAM: The Open Source CFD Toolbox
   \\    /   O peration     | Website:  https://openfoam.org
    \\  /    A nd           | Version:  10
     \\/     M anipulation  |
\*---------------------------------------------------------------------------*/
FoamFile
{
    format      ascii;
    class       volVectorField;
    location    "9.5";
    object      U_0;
}
// * * * * * * * * * * * * * * * * * * * * * * * * * * * * * * * * * * * * * //

dimensions      [0 1 -1 0 0 0 0];

internalField   nonuniform List<vector> 
12920
(
(110.678 -103.433 -7.96625)
(27.9324 -24.033 -0.279707)
(158.071 0.400871 -12.2158)
(136.036 -5.86826 -5.71051)
(160.243 -6.55073 1.78744)
(143.436 -16.7565 4.7)
(157.565 -17.2793 5.51273)
(147.299 -19.6466 4.88883)
(156.813 -18.8243 4.17351)
(154.158 -18.1269 3.42391)
(162.279 -17.0545 2.80915)
(163.649 -13.7394 2.10777)
(171.477 -10.6744 1.32575)
(174.67 -6.63889 0.515319)
(179.924 -4.47423 0.448353)
(181.156 -3.52512 0.339376)
(183.723 -3.2573 0.327694)
(184.767 -1.89556 0.449242)
(185.374 -0.759027 0.504994)
(180.92 -1.34789 0.503871)
(205.614 -67.4608 120.905)
(77.3361 16.2161 9.13627)
(148.125 -2.54101 0.009632)
(113.933 -25.8809 1.22192)
(149.486 -29.3927 4.04156)
(123.018 -29.8571 2.43499)
(142.305 -21.9122 3.03931)
(122.516 -19.2217 1.35025)
(132.176 -14.2514 0.619413)
(122.358 -13.3227 -0.454672)
(128.838 -9.84494 -1.14577)
(126.147 -9.09178 -1.49781)
(131.05 -6.90098 -1.64452)
(131.694 -5.65803 -1.4688)
(135.324 -4.28965 -1.31372)
(136.162 -3.48846 -1.20348)
(137.78 -2.8803 -1.05522)
(137.453 -2.7043 -0.784657)
(137.677 -1.98972 -0.610808)
(135.103 -1.63224 -0.586387)
(191.184 174.518 109.798)
(51.9705 -5.56364 5.49988)
(141.93 -18.1466 -18.5885)
(110.649 -38.3588 -11.7201)
(148.412 -41.4506 -4.71264)
(120.998 -35.2816 -2.45607)
(138.788 -28.6141 -0.133019)
(119.577 -19.8824 -0.733858)
(130.613 -15.929 -0.414547)
(120.402 -10.3966 -0.870725)
(126.862 -7.91027 -0.977579)
(122.613 -3.9342 -1.27553)
(126.327 -1.74335 -1.32788)
(124.764 0.691472 -1.32121)
(126.645 1.81414 -1.18307)
(125.85 2.61149 -1.06605)
(126.211 2.95182 -0.793706)
(124.512 3.25657 -0.60838)
(123.088 2.93044 -0.384026)
(118.64 1.81823 -0.439189)
(236.885 151.341 112.427)
(79.0769 31.6319 2.89223)
(188.264 2.68796 -11.4269)
(148.865 -4.39347 -4.35832)
(168.679 -12.3964 4.45023)
(114.516 -12.9537 3.15347)
(129.136 -12.4292 3.35715)
(96.0928 -8.55352 0.62312)
(112.261 -7.36476 0.0847166)
(99.4061 -4.4496 -0.322628)
(108.796 -2.88108 -0.338341)
(104.418 -1.19499 -0.428768)
(109.334 -0.0427334 -0.336826)
(108.182 1.03948 -0.349732)
(110.545 1.88425 -0.285307)
(110.133 2.69677 -0.245481)
(111.077 3.16893 -0.148687)
(110.557 3.36072 -0.0683052)
(110.584 3.19219 -0.0492308)
(108.114 2.19673 -0.0137949)
(134.879 8.67773 54.0704)
(91.662 51.4892 -7.38156)
(160.65 3.76543 5.04745)
(119.751 -19.8517 8.37387)
(150.249 -27.6747 8.78523)
(98.033 -18.0924 3.53282)
(124.92 -22.1174 2.5789)
(94.6013 -8.01458 0.325753)
(112.533 -16.0539 0.0672189)
(98.2632 -5.64379 -0.11925)
(108.479 -8.88423 -0.0650719)
(103.169 -2.25589 -0.0221448)
(109.123 -2.51293 0.0687212)
(107.562 1.45396 0.0118858)
(110.612 2.00295 0.0443544)
(109.779 3.54808 -0.0758022)
(110.765 3.52764 -0.0285468)
(109.977 3.68153 -0.0276264)
(110.158 2.83884 0.0192513)
(107.39 1.39464 0.0334672)
(173.947 62.7056 -24.0362)
(142.093 34.8237 -18.8745)
(205.025 -35.3274 7.52485)
(130.287 -54.1511 7.13512)
(152.087 -45.1555 10.4507)
(81.2605 -14.7907 3.29911)
(122.159 -21.2202 2.42648)
(90.9177 -3.60083 0.148368)
(103.747 -9.5871 0.172879)
(91.862 -2.33776 -0.493992)
(97.125 -5.9925 -0.253667)
(94.8912 -2.87943 -0.374739)
(99.5466 -3.788 -0.1277)
(100.874 -1.17612 -0.33923)
(105.123 -0.414358 -0.315059)
(107.069 2.72834 -0.30752)
(109.8 3.24534 -0.171771)
(110.327 3.51533 0.0181746)
(110.81 2.73373 0.12948)
(107.851 1.73314 0.072115)
(353.95 120.217 51.2068)
(369.869 72.2078 -14.139)
(343.355 37.5334 -2.78193)
(239.627 -4.1753 9.57315)
(205.455 -28.6456 16.1206)
(119.607 -11.8881 7.27098)
(125.585 -38.2436 4.20776)
(81.5598 9.09543 1.06411)
(94.0033 -16.7604 -0.499811)
(77.8619 3.97278 -0.289445)
(90.8325 -10.8526 -0.875958)
(86.8794 -2.68879 -0.120821)
(95.5676 -7.60377 -0.283133)
(96.2189 -2.54052 -0.0672085)
(101.76 -2.4628 -0.104113)
(103.013 0.0843532 -0.18724)
(106.654 0.91755 -0.186055)
(106.787 1.88445 0.0232847)
(107.111 1.53153 0.170279)
(103.826 1.0274 0.108993)
(192.607 212.72 -157.674)
(61.5709 5.24411 -14.593)
(177.79 -7.00164 8.24491)
(122.674 -31.1578 5.79129)
(157.28 -29.0079 5.68196)
(105.741 13.189 1.40158)
(121.218 -1.45908 0.110017)
(79.2743 -4.93441 0.961952)
(90.7888 7.33465 0.074152)
(76.9188 -13.8192 -0.301348)
(92.4684 -5.63515 -0.363793)
(91.2611 -18.1396 0.0619462)
(98.254 -13.8994 0.175287)
(99.0411 -15.8806 0.456266)
(104.18 -5.99921 0.103923)
(105.279 -1.77188 -0.0122692)
(106.952 -0.0217915 -0.0426364)
(106.396 2.10228 0.0634767)
(105.706 1.87781 0.201348)
(101.201 1.52963 0.112741)
(199.842 83.7014 74.8618)
(-53.0472 69.5325 -3.99977)
(167.762 41.5006 -17.5892)
(83.27 -11.5716 -3.63997)
(139.793 -17.4203 2.63828)
(91.3083 -13.1234 -0.310326)
(120.113 11.5948 0.414553)
(96.6846 -7.17395 0.232873)
(106.679 0.548731 0.203876)
(108.105 -10.4431 -0.216051)
(111.218 -9.55387 -0.0675829)
(108.283 -13.4154 -0.0427216)
(105.165 -12.7861 0.0312296)
(103.945 -16.3055 0.129926)
(109.63 -16.3729 0.603402)
(110.926 -3.18147 0.152589)
(110.312 -0.113191 0.0306728)
(109.399 2.06569 0.0976188)
(108.28 2.58927 0.21226)
(102.629 2.0661 0.0868375)
(-44.754 21.7635 0.528643)
(-129.36 -58.5425 -30.6289)
(154.823 -21.5006 -20.232)
(54.4992 -18.8518 -4.73754)
(128.51 -15.6766 -1.39665)
(84.2275 -5.52784 -1.78997)
(114.457 -3.06959 -0.0988551)
(125.639 -6.78459 -0.369637)
(126.31 -4.96416 -0.176118)
(122.776 -3.28646 0.0475159)
(120.141 -2.41178 -0.0483115)
(116.429 -1.5931 -0.129553)
(116.556 -2.52759 -0.381272)
(121.526 -8.17781 -0.673625)
(120.329 -13.1548 0.281918)
(117.101 -2.69471 0.143039)
(116.487 0.610754 -0.0673117)
(115.42 3.12088 -0.0611028)
(113.776 4.20244 0.219121)
(106.536 3.78398 0.0847654)
(355.169 228.564 -50.4325)
(36.3711 30.5875 24.214)
(238.338 9.17409 -28.3008)
(128.658 7.59722 -2.16981)
(171.282 5.00913 -1.66462)
(122.907 -12.2179 -2.2375)
(118.68 -15.3994 0.263705)
(123.946 -13.222 0.059076)
(135.798 -12.6028 0.47966)
(141.822 -10.9004 1.79416)
(139.046 -2.8051 -0.225406)
(132.899 1.87383 0.0427219)
(131.994 1.04741 -0.494844)
(135.139 -3.95722 -0.566245)
(128.019 -10.0923 0.998676)
(113.605 -1.76918 -0.0634023)
(114.017 2.24708 -0.230463)
(114.242 4.37328 -0.0911258)
(113.072 6.80046 0.0513833)
(107.265 5.88572 -0.0950581)
(521.162 25.9939 -91.1458)
(404.873 -51.962 -50.6374)
(280.494 -19.9 21.4246)
(127.911 17.3146 11.4216)
(153.207 19.7216 9.62979)
(81.5673 5.9067 -0.0780566)
(125.724 -14.4524 -0.482442)
(139.395 -20.642 -0.76011)
(143.626 -21.8242 -0.296967)
(140.499 -21.3811 -0.159958)
(139.657 -6.75013 1.08038)
(141.193 3.14216 0.212028)
(142.518 6.14694 0.0381006)
(139.783 -2.79876 0.637762)
(110.731 -1.51387 0.799206)
(103.515 0.804763 -0.19891)
(104.554 1.70447 -0.399721)
(107.965 3.88865 -0.251212)
(110.43 7.6664 -0.0502621)
(107.479 7.52276 -0.119338)
(76.0931 8.27378 -72.7313)
(48.4026 116.576 -51.4467)
(187.498 74.9847 -10.9469)
(126.959 41.7586 4.61948)
(175.831 29.594 7.01719)
(132.746 -23.8753 3.38548)
(144.433 -14.1541 -0.327357)
(106.888 -14.2757 -0.159256)
(119.127 -16.0727 -0.9051)
(108.721 -13.2655 -0.434164)
(116.105 -9.96455 -0.935932)
(114.481 1.48827 -0.500838)
(116.795 6.27398 0.134093)
(106.098 6.79527 0.676133)
(98.3854 3.61981 0.0606387)
(97.7414 0.149563 -0.340582)
(98.6063 -0.203967 -0.295291)
(101.369 -0.495391 -0.0790167)
(105.046 4.93135 -0.094233)
(108.501 6.79023 -0.15028)
(-100.277 223.682 -146.044)
(-135.449 55.4428 -41.3093)
(144.875 7.63484 -9.70971)
(2.48208 -3.96304 3.06766)
(146.855 -13.0295 2.89544)
(74.801 -25.9716 1.85865)
(125.264 12.3353 1.32896)
(99.9337 -20.7718 1.19293)
(114.84 -0.263891 0.31545)
(99.9757 -11.5842 0.431602)
(104.177 4.09579 0.16654)
(96.6287 0.917601 0.331729)
(99.9852 8.49058 0.0730332)
(98.0288 4.20251 -0.206491)
(100.054 5.12122 -0.578933)
(99.0963 2.45372 -0.648323)
(100.746 0.339985 -0.403585)
(100.612 -2.45567 -0.0337895)
(101.385 -1.46333 -0.0844633)
(104.897 2.04882 -0.0340049)
(229.353 -21.7757 -187.658)
(159.945 75.5391 -41.5619)
(238.471 41.0919 -2.98892)
(102.288 -8.29489 1.72947)
(151.125 -30.3181 1.01945)
(86.5176 -27.7539 -0.595171)
(130.93 -13.0371 0.258619)
(106.529 -14.6267 0.230407)
(118.843 -3.48241 0.672692)
(106.04 -4.26475 0.552692)
(108.38 3.67188 0.753645)
(102.258 3.81318 0.235972)
(104.493 7.89364 -0.0730018)
(103.745 6.3176 -0.544918)
(106.208 6.46272 -0.911511)
(108.255 2.83297 -0.940072)
(109.612 0.594216 -0.392986)
(107.339 -1.84174 0.173821)
(103.249 -1.62285 0.237053)
(99.5682 0.50789 0.0197861)
(340.946 87.007 -51.622)
(279.408 129.61 -21.7682)
(247.389 106.903 -2.97382)
(133.312 50.6172 -1.31065)
(158.983 8.57198 0.685694)
(96.6045 -14.9659 -0.848144)
(127.975 -8.99931 -0.627468)
(101.878 -15.577 -1.18644)
(121.806 -2.92099 -1.06987)
(111.226 -5.99489 -0.670187)
(119.477 3.79073 -0.0388003)
(112.711 2.96528 0.0336256)
(115.719 7.65286 0.0856516)
(112.653 5.41379 -0.255364)
(114.932 5.84745 -0.326469)
(114.167 3.59194 -0.547474)
(114.721 3.13595 -0.206425)
(112.865 2.07007 0.192825)
(108.819 2.18081 0.748485)
(102.161 2.65857 0.328537)
(86.4175 25.0776 -54.7202)
(78.4657 128.842 -15.0086)
(197.195 100.831 -9.25516)
(112.29 41.9112 1.29444)
(156.714 16.0697 1.84556)
(93.9655 -1.63993 -0.1338)
(125.037 -1.76184 -0.680904)
(93.1913 -7.40571 -1.00539)
(114.169 -1.65018 -1.07862)
(102.161 -1.5866 -0.897435)
(114.331 4.98619 -0.585426)
(109.89 6.13505 -0.354814)
(115.666 8.98851 -0.158386)
(113.665 8.02579 -0.204523)
(116.198 7.48337 -0.131613)
(114.926 5.49638 -0.088671)
(115.265 3.35553 0.239391)
(113.05 2.07485 0.388344)
(111.454 2.40002 0.558944)
(107.019 2.46984 0.395788)
(45.6059 17.3367 -46.2891)
(-13.0704 139.429 -0.431167)
(136.237 102.831 9.15195)
(21.6578 42.5766 2.5992)
(133.464 31.0063 0.549514)
(65.1171 5.21563 0.31437)
(116.272 1.51149 -0.530547)
(82.0547 -6.45366 -0.856767)
(109.263 -3.99465 -0.813841)
(96.7369 -5.35578 -0.646605)
(111.987 -0.0193968 -0.249288)
(108.346 1.59613 -0.0687358)
(116.092 5.23543 0.207867)
(114.588 5.18144 0.214314)
(118.027 5.67239 0.307378)
(116.952 4.50172 0.300045)
(117.69 3.98834 0.279981)
(116.163 3.12932 0.241611)
(115.352 2.48168 0.411278)
(112.083 2.02236 0.333954)
(115.586 75.0353 76.8075)
(-68.8763 12.7978 -2.93635)
(151.834 3.49016 -9.59047)
(44.5827 5.71353 1.57925)
(143.149 -5.45255 3.02802)
(94.8035 2.18 2.06018)
(130.555 -4.20477 1.89343)
(103.28 -2.37186 0.501294)
(120.272 -6.63996 -0.206419)
(107.758 -4.819 -0.661166)
(118.774 -2.96682 -0.264686)
(114.034 0.553833 0.0489921)
(120.383 2.80451 0.246778)
(118.769 3.9528 0.212335)
(122.019 4.15215 0.207293)
(121.291 3.78668 0.121394)
(122.595 3.12845 0.0927293)
(122.085 2.51132 0.167952)
(122.255 1.64666 0.349803)
(119.519 1.05692 0.284935)
(174.286 20.3996 -105.328)
(186.564 68.7354 -8.89687)
(227.814 25.2205 8.86966)
(174.689 6.49254 4.72383)
(190.396 -9.68514 7.17694)
(151.432 -8.55186 2.21299)
(163.982 -6.94426 1.77555)
(144.276 -4.08361 0.374329)
(150.516 -4.5852 -0.626143)
(141.714 -4.49309 -1.45289)
(148.059 -4.20232 -0.718617)
(144.115 -2.8087 0.150331)
(145.293 -0.698037 1.19565)
(141.019 0.984404 1.2938)
(141.642 2.25249 1.16583)
(140.922 2.719 0.756513)
(142.777 2.97326 0.440677)
(144.469 2.00942 -0.164746)
(146.597 0.89102 -0.296816)
(145 0.507943 -0.177865)
(166.555 -215.21 -130.847)
(138.496 -133.373 -41.5447)
(220.272 -29.8798 -2.85297)
(157.177 -10.6425 9.92509)
(163.823 -4.05291 14.1979)
(143.093 -12.5433 11.9332)
(158.209 -12.2866 11.1326)
(151.317 -14.1141 9.13846)
(162.892 -12.9324 7.57311)
(162.272 -11.6557 5.95855)
(170.891 -9.68819 4.85899)
(172.091 -7.08081 2.83738)
(178.027 -3.82779 1.65008)
(178.534 -1.52386 0.82697)
(179.845 0.0235903 0.686925)
(179.445 0.51764 0.813041)
(179.728 0.763968 0.715148)
(178.671 0.960327 0.503639)
(177.763 1.09802 0.931652)
(172.226 0.562326 1.04929)
(248.038 -147.349 4.8821)
(56.3152 -56.3921 3.18288)
(125.873 -19.5116 -0.325653)
(72.9382 -18.7848 3.59703)
(127.259 -13.5245 8.57707)
(95.5461 -13.4609 3.9386)
(126.234 -6.88574 4.47576)
(109.055 -7.17261 1.01832)
(124.141 -3.46011 -0.287677)
(116.882 -3.63322 -2.12958)
(124.954 -0.828774 -3.24027)
(122.579 -0.868288 -3.7054)
(127.133 0.854752 -3.74516)
(127.024 1.05891 -3.35117)
(129.455 1.65549 -2.76349)
(129.246 1.66256 -2.35604)
(129.836 1.61671 -1.99001)
(128.726 1.3553 -1.51785)
(128.511 1.72236 -1.06619)
(124.987 1.40575 -1.01718)
(186.673 49.4567 71.5919)
(75.8375 2.00436 14.6377)
(140.579 -12.7749 -7.22849)
(72.4449 -30.3224 -7.58708)
(120.177 -28.3291 -1.36182)
(84.7232 -21.7263 -2.75258)
(117.65 -16.9788 -0.349336)
(98.9554 -10.4864 -1.67452)
(116.164 -8.3291 -1.21308)
(106.351 -3.88695 -1.99705)
(114.799 -2.34169 -1.8749)
(109.955 0.570372 -2.21098)
(113.859 1.6659 -2.04704)
(111.402 3.09327 -1.94592)
(112.996 3.34576 -1.60086)
(111.427 3.60698 -1.35866)
(111.792 3.36511 -1.02549)
(110.233 3.15713 -0.787087)
(109.947 2.89641 -0.519381)
(106.699 2.00275 -0.631643)
(209.256 17.0302 18.3708)
(71.8935 -12.148 -8.14937)
(158.298 -20.0837 -16.3323)
(73.7291 -25.3376 -3.24416)
(131.992 -21.1622 10.2608)
(75.8844 -14.7774 3.61458)
(114.832 -11.1995 4.20119)
(84.509 -5.7805 0.0425324)
(104.63 -3.94481 -0.0464472)
(91.2211 -0.897331 -0.823856)
(101.043 0.232937 -0.698511)
(95.6769 1.45628 -0.846339)
(100.451 1.92837 -0.642685)
(98.3584 2.4686 -0.624213)
(100.468 2.70646 -0.458314)
(99.5264 2.95917 -0.376008)
(100.449 3.01009 -0.227757)
(99.8615 2.81441 -0.121833)
(100.173 2.55922 -0.0805587)
(97.9558 1.76456 -0.0861522)
(258.004 36.9901 -2.86223)
(83.2176 21.4797 -35.3672)
(149.706 -10.2611 -0.920093)
(77.2772 -24.3049 9.93548)
(136.667 -24.2076 14.7489)
(74.7597 -11.6694 3.79194)
(115.911 -18.2587 3.54049)
(83.5302 -2.94408 0.377749)
(104.445 -11.1132 0.155746)
(88.4288 -0.285592 -0.217739)
(99.4053 -4.32308 -0.0444683)
(92.6723 1.85689 -0.104978)
(98.5917 0.371364 0.0816258)
(95.9081 3.49436 -0.044304)
(98.7843 2.90762 0.0462036)
(97.4288 3.82577 -0.151796)
(98.6084 3.23618 -0.0501268)
(97.7799 3.02705 -0.042615)
(98.2209 2.02279 0.0739534)
(95.7762 1.2449 0.00206748)
(154.174 -34.8076 -105.826)
(14.2555 6.40477 -24.6928)
(142.051 -13.4438 12.1715)
(56.8031 -35.2643 7.31181)
(132.313 -28.9108 16.9628)
(57.5497 -4.6909 3.25698)
(114.121 -18.2522 2.91694)
(79.6867 0.469496 -0.150079)
(96.2332 -6.74591 0.379041)
(83.1584 1.77809 -0.758898)
(90.1504 -2.45279 -0.0771476)
(87.0585 1.10581 -0.45651)
(91.4885 -0.369617 -0.0988191)
(91.8472 1.6674 -0.381171)
(94.2321 1.56587 -0.281441)
(95.1549 2.96258 -0.294193)
(96.7865 2.77889 -0.130611)
(97.1392 2.59977 0.0645067)
(97.7466 1.61787 0.250982)
(95.1599 1.215 0.0476873)
(345.49 -36.9832 -37.9601)
(185.809 -2.08568 18.4979)
(213.909 -7.64152 27.5057)
(112.958 -22.8355 21.7666)
(158.106 -22.1344 24.1702)
(85.0763 0.0188202 8.07428)
(111.371 -33.4674 4.77166)
(70.6775 14.7327 1.03081)
(86.6814 -13.4354 -0.831286)
(72.1457 6.55848 -0.134012)
(84.5645 -8.13443 -1.31486)
(80.3965 0.600971 0.0537146)
(88.487 -4.57476 -0.27094)
(88.4535 0.347893 0.0359616)
(92.9879 -0.530984 -0.104704)
(93.2894 0.845567 -0.0926367)
(95.3956 0.982842 -0.110587)
(95.1906 1.48095 0.0780468)
(95.5819 1.01916 0.286731)
(92.7773 0.881317 0.0742082)
(259.265 170.147 -56.6924)
(39.2122 13.4936 -0.0996115)
(145.91 -4.79359 3.76345)
(65.2972 -22.4594 4.16365)
(134.894 -15.859 7.26052)
(76.9712 31.0213 1.08313)
(102.218 0.45439 3.87568)
(69.8467 5.52639 1.47917)
(81.951 -2.13163 -0.226806)
(74.522 -9.45296 -1.17052)
(85.4941 -8.89738 -0.947319)
(84.2297 -13.0518 -0.428564)
(90.3841 -10.6816 -0.0546731)
(91.3282 -11.0134 0.469377)
(95.322 -3.20298 0.0393811)
(95.8124 -0.123635 0.019871)
(96.3752 0.440889 0.0725831)
(95.7131 1.67651 0.134656)
(95.1619 1.25415 0.33826)
(91.6947 1.18092 0.0927985)
(289.852 334.067 -39.4676)
(2.29544 97.3981 7.61057)
(148.783 44.8447 -21.775)
(45.0173 -7.70616 -2.89888)
(120.707 -7.61759 1.92887)
(86.2787 6.90562 -1.28053)
(103.724 14.9198 0.814336)
(87.2298 -2.08972 2.05464)
(98.4776 -1.93368 0.948148)
(96.5741 -9.6851 -0.623675)
(99.2069 -9.53036 -0.504995)
(96.6471 -11.7446 -0.763238)
(96.7641 -11.1698 -0.503747)
(96.8802 -12.0959 -0.0100338)
(101.449 -11.4196 0.818772)
(101.433 -1.09835 0.175671)
(100.107 0.886452 0.0808583)
(98.5576 2.04909 0.213768)
(97.4686 2.04439 0.444537)
(92.894 1.52831 0.0846836)
(118.663 -101.951 70.0989)
(-41.1032 -51.4752 -40.9771)
(134.206 -38.5276 -21.9044)
(21.7204 -24.4173 -6.71381)
(107.677 -15.4885 -3.00295)
(65.3747 2.07087 -2.39319)
(104.805 8.17366 0.884069)
(113.019 -0.539994 1.15898)
(113.753 -2.00707 1.21641)
(112.132 -3.56061 0.708299)
(110.475 -3.60254 -0.151107)
(108.823 -3.98516 -1.20276)
(109.259 -5.90396 -2.26246)
(109.69 -9.55706 -1.56128)
(108.776 -8.64919 1.01013)
(106.881 0.356764 -0.120962)
(105.456 2.36313 -0.139398)
(102.94 3.83499 0.0402594)
(101.249 3.60944 0.530745)
(95.5158 2.84525 0.0883796)
(369.06 -218.736 69.8596)
(204.248 73.0602 51.9309)
(218.677 38.8964 -15.7477)
(106.344 5.94955 4.67399)
(145.595 3.0413 -0.341911)
(110.407 -8.78536 -2.39594)
(113.528 -10.8483 0.751438)
(117.207 -7.51403 1.40353)
(124.047 -6.19085 2.58864)
(129.648 -5.23854 5.23861)
(127.993 -2.71522 3.81572)
(125.163 -0.466808 0.0250152)
(122.97 -2.91557 -2.28014)
(118.882 -8.26507 -0.57026)
(109.805 -5.82487 1.81941)
(105.041 1.34882 -0.739735)
(104.415 4.40476 -0.466549)
(103.148 5.26359 -0.0438033)
(101.874 5.98694 0.24709)
(96.5642 4.38019 -0.213432)
(135.843 90.9902 92.4148)
(57.0276 51.3669 108.993)
(151.629 11.7889 60.3584)
(49.7835 10.4464 18.1883)
(126.763 6.95144 12.693)
(76.4689 -2.19426 0.528428)
(119.172 -14.1069 0.509404)
(123.872 -13.1962 -0.79897)
(125.475 -12.1986 -0.793322)
(125.653 -7.35346 -0.584504)
(126.085 0.207953 1.56436)
(124.771 4.01186 0.41165)
(121.716 1.09353 0.435231)
(113.281 -3.47134 2.14141)
(100.371 -0.148143 1.07033)
(97.5545 2.64851 -0.645426)
(98.3664 3.97839 -0.640362)
(99.698 5.31624 -0.28112)
(100.831 6.69272 -0.0676844)
(97.6754 5.5769 -0.252649)
(206.685 28.6853 -66.6049)
(82.0019 25.3187 -41.766)
(176.297 36.4488 -22.3066)
(97.5667 27.3351 3.10226)
(161.555 21.2617 7.34213)
(114.32 -26.5799 4.05593)
(127.417 -11.8378 1.58587)
(94.1193 -10.8452 0.160837)
(105.666 -7.78498 -0.845691)
(95.5797 -4.41659 -1.36806)
(104.1 0.793123 -2.00331)
(99.2673 4.51672 -0.540803)
(100.887 5.70261 0.593066)
(93.6444 4.33441 1.46621)
(91.0597 3.51634 -0.231887)
(91.3022 0.991548 -0.56357)
(92.3607 1.69883 -0.471337)
(95.2184 1.93408 -0.143745)
(98.3899 5.2943 -0.109077)
(98.6316 4.77361 -0.18873)
(5.71483 34.7421 3.29444)
(-90.0107 46.033 -79.459)
(119.372 24.687 -16.8656)
(-11.9853 13.0593 5.88244)
(140.083 2.75083 3.36152)
(59.6064 -13.4887 3.37514)
(111.829 21.8357 1.87669)
(81.6665 -17.9425 1.59573)
(98.9319 5.46412 0.220687)
(84.6758 -8.84682 0.581307)
(92.2599 6.90428 0.145303)
(85.869 0.794416 0.39707)
(90.5433 7.56924 0.0307091)
(88.6839 2.18745 -0.360311)
(90.8204 3.63156 -0.778724)
(89.827 1.01453 -0.756284)
(91.2266 0.375377 -0.428526)
(92.2451 -1.18002 0.0155211)
(94.099 0.646775 -0.00250944)
(95.6462 2.16639 -0.0571431)
(339.589 129.182 42.0874)
(96.9241 31.4048 -20.1368)
(163.299 -5.68306 17.5611)
(48.7789 -12.4659 0.128903)
(137.392 -20.4207 1.80812)
(68.3727 -15.6352 -0.158354)
(120.135 0.967693 1.26841)
(90.2311 -6.15707 0.709304)
(104.899 4.35685 1.22085)
(90.2572 -0.18771 0.732915)
(95.8337 6.80316 0.998784)
(90.1932 3.80372 0.215258)
(93.7078 6.62088 -0.15943)
(92.4033 3.46485 -0.847986)
(94.1373 3.06589 -1.07259)
(93.9428 0.378017 -0.999834)
(94.6184 -0.470606 -0.268941)
(93.6504 -1.56321 0.25855)
(92.9339 -0.911889 0.330516)
(91.0221 0.423055 0.0810398)
(380.119 37.9199 47.7677)
(263.129 67.6205 51.9424)
(210.896 62.518 42.5967)
(91.3993 17.7688 5.15544)
(139.22 -2.29198 3.95476)
(73.8278 -10.0014 -1.22884)
(114.274 0.999667 -0.622789)
(83.7243 -7.29693 -1.40612)
(105.618 5.65192 -1.1027)
(91.0293 -1.15626 -0.652468)
(101.787 7.36051 0.198286)
(94.8527 2.7684 0.0251357)
(100.406 6.00859 0.0968921)
(97.409 2.04401 -0.429673)
(100.138 2.39787 -0.394012)
(98.4741 0.129776 -0.578259)
(99.0953 0.41643 -0.182957)
(97.5091 -0.144284 0.319718)
(96.5073 0.747473 0.934321)
(93.0787 1.11682 0.391281)
(243.471 -130.171 231.768)
(141.013 22.5128 -39.1735)
(191.56 44.7728 -2.20721)
(103.496 20.3095 0.116267)
(146.416 10.7533 3.12757)
(82.7102 0.417989 -0.507208)
(115.367 2.89783 -0.813785)
(81.0697 -2.7262 -1.18298)
(103.436 3.38288 -1.15764)
(88.2556 0.919128 -0.873249)
(101.285 5.92914 -0.49375)
(95.196 4.35577 -0.325155)
(101.918 5.81055 -0.12003)
(99.2203 3.56194 -0.262254)
(101.979 2.93231 -0.129408)
(100.283 1.08277 -0.0441946)
(101.002 0.681129 0.263586)
(99.9418 0.346335 0.445328)
(99.631 1.00794 0.739107)
(96.9924 1.13607 0.466031)
(199.983 -32.9905 34.6037)
(-1.96062 112.504 21.8879)
(133.049 84.3671 19.6555)
(23.3353 40.9348 4.26114)
(124.65 33.4453 0.310504)
(54.6179 9.99026 0.348142)
(107.71 7.5678 -0.819241)
(71.298 -1.38772 -1.03875)
(100.387 0.535348 -0.86024)
(85.5176 -2.7073 -0.573419)
(101.518 1.03264 -0.0329335)
(96.138 0.383551 0.032533)
(104.428 2.55337 0.419393)
(102.035 1.42957 0.273706)
(105.746 1.85017 0.398991)
(104.202 0.933571 0.30957)
(105.322 1.14283 0.332921)
(104.162 0.854687 0.276394)
(104.083 1.01428 0.543068)
(101.681 0.965691 0.363925)
(97.2365 -14.9752 101.331)
(-39.8912 48.0043 10.277)
(132.428 19.7835 1.59702)
(29.0783 14.1571 2.1866)
(132.291 4.59046 2.90623)
(79.8799 6.21299 1.04377)
(121.465 -1.38867 1.37388)
(94.1172 -1.07933 -0.0682386)
(113.675 -5.50459 0.186885)
(99.7642 -4.20643 -0.512997)
(110.854 -2.7388 0.162539)
(104.947 -0.200472 0.357345)
(111.422 1.22039 0.649367)
(109.049 1.68356 0.418452)
(112.263 1.70669 0.390734)
(111.044 1.4983 0.188675)
(112.307 1.24001 0.158225)
(111.652 1.10571 0.177236)
(111.796 0.911159 0.364215)
(109.246 0.810007 0.170238)
(87.6588 -38.9161 -39.828)
(5.59882 62.6118 9.25475)
(143.11 22.5243 18.8907)
(84.309 15.7557 2.14046)
(154.9 9.54583 5.27462)
(132.137 10.7562 -0.301748)
(161.206 8.83732 1.00818)
(152.182 6.50826 -0.40047)
(160.498 1.14478 -0.704576)
(147.012 -2.76315 -2.66035)
(145.647 -4.43913 -2.13657)
(135.722 -3.19981 -0.728575)
(137.142 -1.66304 1.4252)
(134.039 -0.616833 1.75588)
(136.003 0.193819 1.75298)
(135.432 0.582196 1.19492)
(136.963 0.827909 0.809756)
(137.014 1.04182 0.186719)
(137.233 1.17791 0.1049)
(134.941 1.3118 0.0831632)
(143.582 -161.938 -59.7802)
(56.3837 -73.822 19.5939)
(149.072 -23.983 24.2277)
(125.373 -11.163 20.5442)
(153.003 -3.21012 18.4551)
(142.782 -9.89802 14.0851)
(163.31 -8.7226 12.4227)
(161.024 -9.32774 9.81952)
(173.772 -6.85515 7.74758)
(173.159 -4.30259 5.40495)
(178.766 -0.567169 3.77869)
(177.11 1.1262 2.16499)
(177.356 4.53774 0.266611)
(173.083 5.3846 -0.274174)
(171.083 5.2293 -0.376994)
(166.224 4.79653 -0.634497)
(164.525 4.13202 -0.266613)
(159.595 3.38391 0.104565)
(157.547 2.89063 0.789563)
(151.155 2.33896 0.544699)
(201.778 -141.947 -75.9375)
(50.7581 -87.0149 -6.84614)
(117.816 -22.3404 -3.33739)
(47.0354 -10.6698 3.72932)
(117.152 1.47666 7.41589)
(82.8262 -1.26767 2.96403)
(119.671 3.75738 2.38017)
(103.436 1.14692 -1.16398)
(120.958 3.79614 -2.81186)
(113.73 2.61862 -4.63995)
(122.38 4.6646 -5.56175)
(118.866 3.86866 -5.84275)
(122.356 4.76639 -5.19823)
(120.236 4.11877 -4.34824)
(120.993 4.04937 -3.2989)
(119.084 3.52427 -2.62917)
(118.821 3.18622 -1.82371)
(116.593 2.70549 -1.29622)
(116.136 2.94809 -0.984024)
(112.335 2.32581 -1.10302)
(264.083 -55.1448 29.6756)
(64.5517 -69.3055 18.3547)
(124.95 -23.4672 -2.91208)
(39.0966 -26.3093 -4.98604)
(107.707 -17.9287 -1.27205)
(67.1036 -12.6197 -2.65725)
(107.741 -9.60732 -1.17645)
(86.8432 -4.78009 -2.04192)
(107.095 -3.64906 -1.76725)
(95.8627 0.00785061 -2.45167)
(105.419 0.824291 -2.20586)
(99.2683 2.99879 -2.39759)
(103.384 3.33604 -2.04175)
(99.9233 4.18384 -1.85502)
(101.474 3.8862 -1.42353)
(99.3507 3.82757 -1.20196)
(99.8756 3.39626 -0.830565)
(98.3729 3.00093 -0.654899)
(98.4992 2.77604 -0.468822)
(95.5369 1.92913 -0.583852)
(287.362 -120.978 166.161)
(77.2339 -61.4979 21.5753)
(150.376 -32.5638 -10.9859)
(35.4229 -28.4349 -1.37171)
(117.382 -16.4173 8.38283)
(57.025 -11.5176 3.00493)
(106.174 -8.12539 3.02168)
(75.0851 -3.27164 -0.288414)
(97.8329 -1.88165 -0.258098)
(82.8388 0.966355 -1.00656)
(93.4914 1.51398 -0.828266)
(86.7796 2.48571 -0.946752)
(91.7765 2.51039 -0.691087)
(88.811 2.81215 -0.635127)
(91.0047 2.71905 -0.429791)
(89.6726 2.75311 -0.344848)
(90.751 2.60754 -0.200693)
(90.1242 2.28569 -0.105354)
(90.6113 2.07275 -0.0702686)
(88.3531 1.4239 -0.0955504)
(400.699 -65.1464 147.274)
(87.459 -2.2564 8.15598)
(144.7 -10.0184 6.14434)
(37.9619 -18.7748 12.4837)
(127.13 -13.6538 14.176)
(59.1545 -5.91198 3.8964)
(108.697 -14.6207 3.22839)
(74.2615 0.598855 0.714479)
(97.5097 -8.35506 0.194265)
(79.7136 2.56641 -0.193764)
(91.6005 -2.41723 -0.0656993)
(83.4073 3.54227 -0.161539)
(89.6485 1.09554 0.00695779)
(86.0537 3.94037 -0.0906389)
(89.0659 2.70347 0.0135463)
(87.3098 3.43013 -0.144983)
(88.6917 2.57815 -0.0397072)
(87.8093 2.34374 -0.0231621)
(88.3883 1.47542 0.0947105)
(85.9525 1.09072 -0.00088039)
(174.454 -28.9455 -31.649)
(-33.6487 -25.194 -14.5993)
(135.647 -17.8256 12.2313)
(12.1457 -26.0946 8.22944)
(124.708 -15.5211 15.8458)
(44.3288 0.588224 3.4888)
(107.852 -15.1801 2.36363)
(70.7267 3.85573 -0.0970187)
(89.9281 -4.8264 0.477999)
(75.6342 4.25482 -0.694193)
(83.7052 -0.954325 0.0633373)
(79.4849 2.90117 -0.386355)
(83.9016 0.686643 -0.0832793)
(83.3299 2.52553 -0.312328)
(85.2804 1.79593 -0.204579)
(85.5199 2.56245 -0.204749)
(86.8792 2.08044 -0.078067)
(86.9819 1.85393 0.0431894)
(87.5346 1.10695 0.185669)
(85.0738 0.982459 0.0392708)
(309.077 79.7296 -28.5947)
(107.588 -8.9385 36.9143)
(170.647 -13.9177 8.46812)
(50.1592 -15.3138 17.1829)
(143.693 -7.75948 20.5487)
(66.3989 7.83094 7.0245)
(102.184 -29.7204 3.72836)
(62.8717 17.5399 0.78669)
(81.161 -11.5471 -0.951043)
(66.775 8.27629 0.106064)
(79.1277 -6.54723 -1.08622)
(74.2836 2.68573 0.302412)
(81.8974 -3.07648 -0.134687)
(80.9104 1.76266 0.207503)
(84.9183 0.0580573 -0.0836475)
(84.5532 1.08848 -0.0484978)
(86.2208 0.79958 -0.0650054)
(85.6954 1.19142 0.0592277)
(86.1194 0.73778 0.201848)
(83.5032 0.783583 0.0475465)
(147.4 192.909 21.664)
(24.2594 57.0064 -5.35816)
(135.065 21.0856 1.64315)
(38.5066 -7.28915 1.92007)
(124.877 -2.5978 5.26651)
(61.8465 38.8564 0.74439)
(88.7997 -2.08398 2.44006)
(62.2641 10.6111 1.27122)
(75.0647 -6.3346 -1.29983)
(69.4965 -5.88392 -0.913552)
(79.0665 -9.26971 -1.08857)
(77.7515 -9.30856 -0.188111)
(83.4279 -8.57445 0.00470741)
(83.9365 -7.91542 0.518026)
(86.7887 -1.88002 0.352477)
(86.7377 0.767609 0.164277)
(86.9055 0.587003 0.119267)
(86.2716 1.40282 0.106547)
(85.8807 0.875449 0.26805)
(82.9919 0.960589 0.0716574)
(88.6253 238.125 -110.985)
(20.5302 64.7833 17.8842)
(130.592 45.326 -7.14448)
(28.6807 -3.57 -1.56786)
(109.319 1.82305 0.322771)
(74.2601 20.3369 -0.125359)
(87.8441 16.046 0.417615)
(76.6955 -0.769608 2.52351)
(89.5326 -3.09085 0.390987)
(86.6147 -8.7207 -0.668572)
(89.7229 -8.77456 -0.87965)
(87.4568 -10.2823 -0.970831)
(88.7886 -9.22878 -0.456908)
(89.0568 -8.77674 0.392594)
(92.6817 -8.52512 0.946771)
(91.3984 0.271906 0.53329)
(89.7331 1.47407 0.226786)
(88.2341 1.83524 0.207372)
(87.4905 1.56443 0.389967)
(83.8723 1.12432 0.0613392)
(115.799 114.085 178.688)
(-86.6655 -34.9387 -36.3356)
(131.522 -36.2609 -24.3948)
(8.17063 -21.686 -10.1185)
(95.2925 -10.9791 -5.17689)
(51.3836 10.5803 -1.44849)
(93.6651 15.1749 1.52957)
(100.438 1.35159 1.8295)
(102.102 -1.22576 1.55972)
(101.216 -3.0766 0.714474)
(100.353 -4.04639 -0.506985)
(98.7764 -5.0989 -1.85902)
(97.9357 -6.02077 -2.41756)
(97.3252 -6.96916 -0.506593)
(97.5202 -4.22813 1.17452)
(95.0133 2.21718 0.384863)
(93.4007 3.07561 0.143585)
(91.0037 3.5756 0.150289)
(89.7849 2.77978 0.477792)
(85.5028 2.02669 0.0455013)
(141.279 -225.87 40.4706)
(91.6899 -15.0496 27.0285)
(172.638 -0.310442 -9.11543)
(77.6434 -4.90054 3.66462)
(128.424 3.01322 -1.14152)
(91.6724 -7.47942 -1.55293)
(99.3267 -6.55343 1.21069)
(105.449 -2.81606 1.5101)
(110.264 -1.57977 2.60139)
(112.681 0.544773 5.2476)
(116.601 -1.98686 1.87654)
(114.649 -1.87777 -1.39595)
(107.957 -4.71352 -1.97295)
(103.217 -7.05948 0.230683)
(98.4984 -2.07412 0.939384)
(94.2332 2.89108 -0.300463)
(92.8038 4.92946 -0.148347)
(91.5116 4.77045 0.118201)
(90.6096 4.67891 0.301332)
(86.222 2.88698 -0.255064)
(-56.1196 -101.809 33.2173)
(-72.2705 20.153 8.0816)
(134.332 -5.16789 36.0908)
(12.0335 3.46885 11.2648)
(110.909 1.76921 8.11091)
(59.5442 -8.24077 1.79626)
(105.019 -14.1769 0.968849)
(108.077 -6.92997 -0.423114)
(109.859 -4.1315 -0.926898)
(109.459 1.15598 -0.145972)
(109.158 4.03246 0.943771)
(107.856 3.48955 0.163146)
(104.158 -0.512687 0.78553)
(97.9716 -1.91374 1.96429)
(91.8659 1.36247 0.510704)
(89.4369 3.58746 -0.36946)
(89.5485 4.61178 -0.353526)
(90.0467 4.90615 -0.0590098)
(90.6572 5.24582 -0.0242112)
(87.5553 3.65419 -0.258942)
(249.465 -82.6673 -138.592)
(149.336 1.40513 -53.0672)
(181.163 23.935 -16.5341)
(81.7692 22.5939 5.15417)
(147.915 16.1953 6.58143)
(94.881 -27.5208 3.95923)
(110.29 -7.32538 1.84811)
(82.3546 -7.40469 0.202283)
(94.8899 -1.14697 -1.4261)
(85.1871 0.548033 -1.56755)
(93.2508 4.77341 -1.83935)
(87.5391 4.81544 -0.103099)
(89.8915 5.22944 0.733324)
(84.7464 3.65915 1.20274)
(83.6517 3.74184 -0.119219)
(84.1182 1.40399 -0.417589)
(85.1842 2.52718 -0.328748)
(87.6134 2.46891 -0.0966767)
(89.6958 4.24346 -0.0508675)
(88.6047 3.08581 -0.08518)
(302.647 -136.849 -237.103)
(-66.1775 3.65194 -84.1711)
(114.833 34.8553 -21.4659)
(-18.658 15.9453 4.28599)
(129.509 7.35182 1.43585)
(44.1594 -9.29495 3.85191)
(99.9263 25.5411 0.9162)