/*--------------------------------*- C++ -*----------------------------------*\
  =========                 |
  \\      /  F ield         | OpenFOAM: The Open Source CFD Toolbox
   \\    /   O peration     | Website:  https://openfoam.org
    \\  /    A nd           | Version:  10
     \\/     M anipulation  |
\*---------------------------------------------------------------------------*/
FoamFile
{
    format      ascii;
    class       volScalarField;
    location    "6.7";
    object      k_0;
}
// * * * * * * * * * * * * * * * * * * * * * * * * * * * * * * * * * * * * * //

dimensions      [0 2 -2 0 0 0 0];

internalField   nonuniform List<scalar> 
12920
(
1035.94
382.826
297.249
380.416
388.898
342.904
250.507
186.31
145.9
123.758
113.255
108.698
105.251
103.679
102.056
101.428
101.371
102.422
103.786
98.1594
901.592
763.226
940.565
981.111
946.001
775.961
524.277
361.445
259.975
204.217
173.722
165.969
166.746
171
173.135
174.953
175.948
177.927
179.055
159.752
202.595
1204.05
1285.7
1013.24
867.847
748.964
558.968
413.427
303.447
234.495
187.098
158.383
139.889
126.405
116.106
107.631
102.055
96.9784
95.4924
89.4513
224.402
1392.14
1628.46
1277.12
981.739
760.852
527.294
370.64
263.691
200.867
157.556
130.699
110.515
98.1982
88.2418
81.6629
76.8967
72.6758
69.5566
65.1862
3303.47
3594.95
3347.74
2008.89
1134.44
766.591
522.817
387.29
288.225
230.883
192.067
165.577
137.101
111.971
91.7732
80.2778
74.3934
70.2516
67.7527
64.903
4011.84
3137.03
2274
1525.63
994.556
699.791
500.853
403.677
337.936
297.71
267.43
248.593
233.348
200.456
156.295
114.331
88.4695
76.68
72.185
70.2274
4698.39
3291.9
2208.8
1690.95
1192.94
822.173
556.983
414.565
339.997
294.359
254.94
226.445
209.173
195.512
172.626
139.098
106.871
87.1405
79.3822
77.6272
3845.64
3207.83
3214.78
2467.53
1451.84
954.556
513.462
266.909
211.842
183.735
167.525
148.226
137.682
128.542
202.212
141.094
103.419
86.7235
79.9064
77.8344
464.38
1970.66
2222.74
2006.47
1322.56
692.164
358.575
164.181
120.101
119.475
127.067
129.641
123.77
113.879
188.359
163.894
106.819
87.3657
82.5152
79.0008
1633.79
1688.12
1400.43
1155.49
848.179
454.108
231.194
146.617
150.755
170.61
181.105
168.171
115.302
105.175
187.801
193.03
126.936
98.2266
90.7914
82.4202
4045.33
1857.16
1412.44
1139.16
765.192
376.193
173.724
112.941
126.526
144.325
150.435
124.455
58.6458
72.9246
139.985
187.231
140.194
108.063
93.9097
83.0055
305.115
2507.37
2165.44
1326.88
784.349
338.594
178.29
110.491
93.7895
54.3519
37.5465
33.9348
69.7861
83.8245
122.756
158.001
126.323
104.468
97.1862
86.0948
245.955
1787.41
1767.66
1215.03
862.453
705.505
422.644
269.283
185.563
134.037
121.067
123.205
123.203
118.817
156.174
131.777
115.83
106.062
100.833
86.4597
1516.43
1670.58
1395.91
1032.72
806.999
553.401
469.849
347.659
273.647
205.547
169.034
140.195
128.534
122.202
116.067
110.083
106.157
102.096
96.0361
81.7997
6875.89
2075.07
1548.06
967.726
700.991
463.56
379.165
294.247
234.212
189.303
155.439
129.946
113.759
103.38
96.5461
92.3946
89.4959
86.6181
82.3346
79.0057
14193.8
2034.28
1537.04
815.535
669.248
454.305
351.616
278.318
222.617
188.305
156.552
136.949
118.845
107.955
99.3706
94.3947
90.4466
87.7439
85.911
86.3936
4192.61
2470.75
1808.34
994.349
647.672
401.243
290.517
213.02
184.732
160.953
144.911
133.932
123.427
117.081
110.379
106.414
102.851
101.482
101.511
103.273
11906
7375.98
3468.94
1586.46
765.528
480.413
325.121
240.508
188.443
165.167
148.63
142.124
137.005
135.636
133.882
133.062
131.719
131.614
132.022
133.567
4659.85
5141.13
3746.73
1773.1
801.206
486.208
333.647
258.086
208.85
185.47
165.686
151.881
141.577
138.209
137.89
139.36
143.026
145.306
150.716
153.215
1607.04
2495.38
2036.13
1122
702.679
506.363
372.148
286.722
228.456
190.829
161.28
135.889
111.485
91.386
79.3702
74.7875
73.9183
74.0751
74.6532
73.662
1105.39
882.41
823.019
881.659
819.312
658.196
451.438
339.652
267.594
237.703
224.721
220.722
217.002
217.161
217.807
219.932
226.069
230.89
228.919
214.863
3354.67
2995.04
3153.4
2442.46
2140.34
1691.91
1123.44
810.662
588.501
503.436
453.039
443.415
442.651
446.409
448.286
449.258
448.071
443.915
433.968
391.899
902.606
3632.05
3333.29
2335.17
2036.57
1792.04
1275.01
997.552
732.595
601.446
489.668
425.434
376.953
344.779
320.041
301.887
290.508
279.418
275.942
263.396
598.211
3084.88
3746.32
3053.13
2330.97
1831.92
1246.18
929.474
669.702
531.835
420.002
351.104
297.262
265.96
241.256
226.961
216.692
208.265
202.083
193.573
6213.54
8699.43
7052.09
4328.38
2589.46
1807.72
1236.88
948.065
720.425
596.596
496.924
432.519
362.896
307.328
254.309
224.617
210.265
201.918
196.441
191.097
8276.47
7297.49
5861.54
3774.84
2408.61
1744.22
1255.82
1030.26
859.576
760.573
679.039
628.963
585.95
508.107
386.686
277.405
230.253
216.587
209.273
205.374
3132.78
5059.09
5182.5
4115.03
2643.87
1937.86
1354.56
1061.24
882.279
768.581
661.085
592.251
548.11
514.069
443.529
351.782
272.477
237.947
228.383
226.763
6594.09
7790.04
7400.03
5630.88
3239.26
2164.96
1453.45
1043.94
825.173
699.147
605.598
537.688
497.614
467.106
428.142
322.084
259.939
237.78
228.756
227.307
6801.13
5808.4
5502.79
4588.84
2754.19
1934.42
1351.85
1032.93
818.688
729.666
661.225
594.095
545.078
517.462
477.089
316.487
251.027
233.729
225.412
224.474
3237.06
4616.74
3948.06
2983.81
1756.26
1391.47
1101.93
1010.42
925.219
875.232
795.643
641.397
506.897
500.072
479
351.507
274.675
247.314
236.295
230.996
16940.1
6528.33
3900.78
2679.04
1657.55
1163.03
859.431
794.079
731.054
656.865
591.173
427.249
314.167
331.79
375.254
349.803
291.865
265.372
250.497
239.257
2652.01
7558.53
4323.42
2686.11
1637.75
1182.99
982.416
796.63
595.683
416.548
327.325
332.367
389.101
340.186
301.089
306.178
280.064
271.713
265.95
248.991
2159.19
4359.47
4233.91
2976.96
2191.08
1779.26
1373.66
1067.44
697.28
526.233
447.721
422.039
390.725
352.83
325.311
301.986
293.099
287.56
276.975
246.609
3968.44
4266.71
3571.47
2728.67
2079.5
1483.73
1222.6
894.358
678.473
511.998
422.696
362.746
330.498
314.565
297.196
287.039
282.252
276.809
264.356
239.639
20562.5
5841.82
4019.68
2603.22
1864.33
1208.43
1001.38
766.442
599.895
486.468
399.181
342.331
303.552
280.036
263.247
255.667
249.342
244.454
238.523
235.289
13021.5
5165.22
3951.62
1976.8
1755
1120.38
897.047
697.859
563.197
480.613
403.332
360.674
318.843
297.243
276.924
267.615
259.033
256.331
255.798
258.874
6193.89
5456.6
4284.47
2400.61
1573.32
1017.12
756.516
555.225
486.609
423.261
385.637
359.897
338.636
326.931
314.404
308.003
302.335
301.603
302.335
306.813
20422.8
11217.1
6172.59
3041.73
1568.42
1157.15
791.74
617.444
494.277
441.566
402.026
386.484
375.044
373.184
371.839
372.849
373.393
374.754
377.099
383.024
10082.6
10727.4
8614.75
4433.73
1932.08
1224.3
856.476
719.709
573.863
518.363
453.7
423.22
393.14
383.113
380.761
387.927
399.391
410.13
422.538
435.031
910.159
3571.28
3609.72
2470.58
1532.34
1094.37
797.809
618.442
497.391
424.149
361.793
301.372
236.508
180.793
148.112
140.325
141.762
148.677
158.688
162.036
4839.28
2236.16
1515.92
1183.29
1033.4
818.665
584.003
459.681
386.985
351.985
326.248
306.602
289.337
274.459
265.158
256.36
251.695
242.053
234.435
208.802
9933.25
5798.5
4438.14
3355.07
2806.03
2148.85
1455.77
1132.3
877.48
767.286
681.717
649.605
626.886
619.411
607.244
598.155
581.376
560.188
528.672
470.847
1626.33
2367.67
4314.23
3473.92
2766.24
2291.78
1664.53
1356.8
1023.95
838.489
677.688
586.56
517.054
473.063
438.531
413.773
397.892
382.005
375.431
360.317
5678.03
5002.82
4851.66
4060.02
3020.39
2309.21
1624.01
1253.51
927.725
733.544
577.19
481.203
410.617
368.192
336.796
318.142
304.805
294.841
288.457
283.358
26294.9
14191.3
8153.12
5140.37
3231.26
2254.71
1600.92
1245.44
969.628
791.457
651.73
551.466
463.107
398.36
346.866
317.399
299.745
288.786
281.697
278.494
2945.82
8002.26
7609.84
4933.85
3141.31
2242.69
1679.27
1374.52
1144.8
979.805
849.737
751.195
656.962
551.899
452.578
376.742
336.127
313.752
301.191
297.16
3369.01
6764.92
6825.87
5065.7
3354.91
2452.13
1801.51
1421.81
1171.83
995.661
855.837
764.568
686.876
612.208
522.816
438.759
377.269
345.499
331.117
327.606
6406.83
9517
8625.57
6629.69
3959.36
2738.98
2024.87
1505.21
1176.5
965.493
824.637
725.828
657.795
591.572
486.839
403.144
359.825
339.59
330.477
330.259
8311.55
6926.31
6773.56
5319.13
3273.34
2500.99
1976.92
1561.28
1205.97
1013.41
866.733
756.249
686.729
626.8
510.61
375.423
338.886
325.546
319.758
320.085
3800.56
6576.35
5394.07
3543.73
2429.64
1974.19
1717.63
1505.48
1295.3
1113.84
936.943
743.103
653.843
618.84
525.296
394.653
349.989
332.416
323.471
319.633
15572.7
9807.87
5564.88
3405.38
2330.27
1716.63
1392.3
1224.67
1051.08
906.833
596.309
410.882
375.638
431.411
449.648
396.701
363.856
347.057
335.307
326.783
23660.5
11325.8
5174.11
3533.48
2436.06
1826.3
1550.24
1200.75
911.83
719.439
617.754
575.886
503.855
401.295
371.489
379.791
373.413
367.746
354.987
333.796
4957.59
7708.3
6660.29
4286.48
3098.42
2387.49
1931.51
1406.57
945.213
733.691
617.989
558.53
498.92
446.263
419.8
402.724
395.463
382.141
360.846
333.3
8436.59
8405.88
5541.37
3808.05
2870.73
2019.07
1605.39
1140.2
862.906
662.393
560.679
490.288
451.617
428.42
406.191
393.029
381.901
369.063
351.453
334.474
18625.4
9161.8
5521.34
3475.06
2519.54
1618.12
1346.14
1012.22
794.18
634.689
531.39
460.737
418.117
390.523
372.248
361.697
353.222
347.218
342.956
342.587
9316.72
8498.26
4880.12
2760.58
2270.47
1424.27
1195.23
903.455
747.536
626.946
537.494
481.894
436.797
412.523
392.012
382.652
374.846
373.698
374.12
379.924
10390.7
7407.98
5235.81
3029.64
2092.95
1347.8
1027.55
766.666
672.762
583.183
534.553
501.281
477.225
464.662
452.314
446.862
442.04
442.216
443.455
448.307
12548.2
9735.91
5626.99
3240.51
2113.51
1531.51
1062.9
826.644
679.479
610.874
562.41
543.048
530.817
531.027
532.26
537.314
540.284
544.843
547.538
551.147
10457.9
11891.2
9290.64
4854.49
2482.57
1719.16
1165.61
946.091
738.742
665.572
578.276
545.383
513.683
511.457
516.818
540.649
561.578
583.223
600.318
611.322
1459.84
2970.17
3097.75
2600.74
1782.29
1285.06
966.553
767.919
636.094
537.427
448.434
362.022
286.747
232.379
203.404
191.435
187.883
185.306
185.085
183.514
10017.9
5165.59
2806.54
1677.57
1211.58
860.766
644.938
530.668
462.79
417.715
383.233
352.175
328.537
303.445
283.724
259.04
240.165
208.871
193.568
160.921
24192.7
12315.5
7622.73
4663.51
3554.61
2477.1
1794.92
1454.24
1200.67
1073.08
961.417
899.475
849.004
811.807
778.485
741.391
699.442
655.93
609.366
576.459
12128
8589.94
7311.88
4358.49
3485.11
2627.89
2043.27
1640.65
1295.95
1064.83
887.799
769.388
684.16
619.984
574.793
538.347
516.526
496.224
486.805
477.864
15116.4
7202.29
6723.58
4833.79
3652.59
2615.03
1992.61
1529.44
1183.98
926.976
749.61
624.371
543.102
486.988
450.732
426.48
411.307
400.568
394.911
394.458
17017.1
11695.4
8299.62
5188.68
3728.99
2518.9
1963.77
1514.9
1232.59
985.204
821.581
678.834
581.13
506.622
456.891
425.644
407.01
395.169
389.02
389.588
8771.25
11483.3
9538.64
5309.36
3753
2575.78
2090.87
1699.46
1443.42
1194.48
1023.68
861.915
735.046
618.255
535.91
478.675
447.121
425.546
413.836
412.727
10172.6
9851.63
8497.44
5329.83
3935.87
2804.58
2210.34
1730.29
1446.03
1207.02
1045.92
911.329
798.495
692.206
601.669
531.326
490.417
466.11
454.291
453.379
25419.2
12468.8
9448.55
6508.51
4323.6
3129.85
2450.13
1818.31
1433.56
1167.35
1000.51
870.721
769.504
665.209
559.603
502.101
475.031
461.739
456.411
458.066
11691.7
8417.65
7700.51
5146.69
3623.22
2935.05
2438.15
1887.75
1450.62
1195.36
1006.16
874.424
774.374
672.406
532.809
467.184
447.445
440.857
439.262
440.953
9007.34
8690.89
6529.14
3910.59
3002.6
2430.63
2162.8
1848.49
1526
1249.23
1015.17
824.414
735.543
663.602
540.633
475.316
449.999
439.932
434.626
433.331
21512.7
11011
6712.41
3876.52
2913.69
2143.81
1791.71
1546.83
1308.32
1099.89
803.176
558.929
476.674
512.303
506.651
481.083
463.733
451.946
442.954
438.513
23192.9
13233.2
6706.42
4185.19
3124.52
2313.59
1946.66
1495.12
1169.59
959.196
810.768
694.807
554.835
460.651
457.276
494.085
488.021
474.569
457.079
442.429
11550.4
11163.5
8725.51
5314.23
3980.13
2862.05
2297.91
1587.26
1125.45
898.556
758.811
674.943
601.181
548.423
542.43
522.194
507.083
485.533
462.625
444.197
31885.4
13204.4
7368.87
4537.16
3615.19
2373.89
1933.15
1332.69
1050.27
803.41
709.986
622.13
586.249
552.637
529.126
508.892
493.348
477.068
461.825
453.456
15133.7
11032.1
7000.59
4122.13
3124.08
1918.62
1679.26
1228.89
995.242
778.521
674.517
586.953
546.121
513.31
495.433
482.625
475.42
471.036
469.597
473.354
12580.1
10813.5
5853.29
3454.53
2714.14
1671.82
1486.52
1091.04
946.654
777.405
689.207
615.991
573.585
546.187
528.329
520.187
515.205
516.024
518.068
526.761
8244.12
9549.28
6557.69
3631.11
2563.21
1606.28
1284.94
959.242
867.022
748.039
700.314
657.147
636.174
622.984
613.862
609.956
607.358
608.713
610.558
615.908
15600
9724.4
5733.41
3440.38
2630.51
1755.57
1305.41
1003.75
871.339
785.162
743.408
720.144
714.152
716.646
722.965
732.615
738.9
745.667
747.691
747.531
15186.8
11602.8
7821.89
4457.06
2860.58
2002.26
1390.51
1087.45
866.472
788.298
706.987
688.759
669.521
678.544
699.785
735.386
763.057
788.721
805.257
811.88
752.526
1816.8
2615.72
2409.27
1741.44
1270.39
974.44
777.716
640.957
526.621
426.07
339.518
278.721
241.974
224.129
213.628
208.819
204.587
202.916
197.775
12888.9
6249.04
3331.43
1774.5
1231.23
819.134
639.173
531.986
469.997
420.582
381.102
337.858
294.189
247.304
208.518
175.822
153.937
136.257
127.307
115.52
33252.5
16731.2
9926.36
5218.7
4415.63
2497.41
2317.48
1722.1
1695.21
1467.18
1417.14
1259.61
1202.52
1086.07
1043.17
963.408
913.331
848.397
800.98
782.35
14437.4
12439.1
9812.96
4870.05
4405.08
2752.56
2576.22
1834.72
1697.17
1318.39
1233.55
1032.67
971.432
855.254
817.801
756.897
735.903
707.444
697.49
697.609
19512.5
9426.85
8635.1
4964.37
4473.12
2736.59
2515.85
1741.6
1558.1
1145.66
1041.4
843.541
789.74
699.805
675.409
638.357
626.745
611.156
603.94
609.466
37566.6
13300.6
8907.18
5340.8
4486.42
2668.06
2467.31
1742.88
1607.39
1208.11
1103.97
878.059
813.928
708.754
678.42
638.159
627.052
613.338
608.21
614.289
22512.7
15870.6
11436.7
5461.52
4759.37
2795.62
2692.1
2027.07
1856.29
1445.33
1291.95
1039.52
919.427
786.592
728.511
683.69
667.521
649.367
638.036
641.423
27782.8
12985.3
10339.6
5439.8
4819.43
3021.07
2747.95
2004.65
1808.91
1452.74
1332.53
1119.8
1006.57
865.011
789.502
734.076
716.704
702.258
694.009
697.407
15038.3
10812.7
10383.4
5941.5
5127.11
3401.45
2885.42
2118.78
1761.76
1438.85
1284.1
1106.2
986.527
844.452
767.686
722.48
706.763
702.35
696.802
700.251
14223.5
9777.4
8309.71
5117.49
4156.71
3291.33
2951.85
2220.2
1764.95
1468.66
1266.57
1114.86
988.058
855.296
753.721
699.767
680.491
675.175
673.799
674.484
14927.4
11324.6
7798.86
4596.11
3687.67
2833.79
2687.32
2304.69
1887.62
1487.36
1193.19
1002.44
956.136
877.497
771.891
707.038
675.287
662.299
657.37
655.808
12254.3
13053
8137.71
4471.98
3686
2528.14
2254.05
2019.94
1745.4
1375.15
1072.31
788.181
737.546
790.336
760.091
715.463
685.508
668.655
662.98
661.132
25342.7
12626.1
8443.49
4805.31
3963.38
2738.08
2419.04
1918.15
1584.24
1287.94
1058.93
884.087
798.194
748.677
746.507
744.242
713.196
685.811
671.306
664.495
10172.4
10646.7
10383.1
5987.34
5264.53
3386.21
2715.86
1786.39
1431.86
1143.48
1032.19
918.846
863.955
801.504
800.981
755.372
726.012
697.157
678.801
671.233
20932.7
12439
8897.7
5050.6
4626.85
2683.14
2430.78
1627.85
1392.83
1025.74
988.592
853.719
844.443
784.925
769.875
729.112
719.541
698.449
691.171
691.474
21054.7
11228.7
8392.82
4663.12
4057.95
2246.71
2253.74
1539.02
1371.92
1001.6
947.266
807.644
790.447
739.19
730.999
711.419
712.774
711.526
713.521
724.719
23344.1
13106.8
6988.43
4375.02
3464.14
2005.61
1992.93
1348.77
1322.87
1014.94
985.128
845.233
837.555
785.188
787.481
772.276
778.516
778.789
782.007
792.794
16471.9
12050.7
8404.63
4344.76
3485.47
1917.1
1807.98
1223.96
1244.94
1007.93
1014.63
914.293
925.015
889.012
898.827
887.679
894.897
895.188
896.227
900.873
28714.1
12464
7188.37
3910.52
3542.74
1969.03
1813.22
1234.3
1255.01
1056.25
1084.7
1006.06
1038.93
1016.71
1047.18
1046.59
1064.45
1067.1
1066.14
1059.13
11723.7
10519.3
7723.2
4201.67
3897.78
2319.1
1951.45
1251.89
1183.36
985.442
998.971
949.109
984.734
990.768
1044.34
1069.06
1116.09
1134.39
1141.1
1134.19
485.256
2115.56
2403.74
2058.52
1460.85
1079.5
835.122
637.186
488.414
370.009
298.928
255.98
231.791
215.397
206.511
200.194
198.033
194.005
190.594
179.941
984.354
981.417
738.842
1215.95
1049.75
1092.88
835.446
787.408
660.073
490.715
993.984
840.934
732.577
542.351
676.684
726.118
651.306
1050.34
784.356
921.318
817.293
444.466
627.626
575.874
682.091
510.025
782.491
691.919
180.862
293.122
163.98
978.624
859.127
896.354
852.922
125.635
151.719
134.426
826.034
709.273
837.519
773.154
116.097
132.011
139.83
674.539
632.674
758.306
750.818
125.542
152.227
171.926
622.394
593.381
751.013
726.367
129.04
173.588
170.49
580.512
545.375
708.376
630.272
126.487
166.146
132.754
531.66
498.205
594.603
494.442
115.257
123.174
110.447
488.814
472.25
476.393
461.585
89.8797
110.331
96.7432
465.713
444.22
461.262
453.6
148.231
189.967
135.45
824.937
839.311
709.704
742.384
149.341
139.527
161.28
834.121
796.769
752.124
748.876
164.434
164.786
174.065
787.066
776.776
734.512
692.968
181.119
175.644
174.931
773.686
743.937
681.998
644.524
174.791
171.405
158.49
724.863
637.86
623.341
530.488
126.717
148.293
83.1819
595.285
470.537
473.75
314.937
104.593
72.0422
71.3197
450.832
442.343
303.797
320.867
95.6955
79.321
78.2556
445.306
445.484
335.181
364.82
113.2
163.267
95.2079
654.526
654.309
664.012
604.975
122.022
89.7918
78.7914
653.059
636.514
585.081
489.604
139.458
69.0965
49.363
623.476
585.607
440.61
323.945
151.124
46.2506
47.1862
578.315
557.016
299.226
252.837
137.055
49.1076
47.0801
541.223
456.837
241.951
228.852
65.7179
41.6894
46.2751
401.144
274.03
232.061
301.161
65.9225
60.4038
79.3063
270.465
286.925
315.183
307.913
73.9461
79.5607
62.7695
295.195
335.141
295.179
267.686
111.461
340.711
186.008
755.974
678.463
906.726
849.242
105.601
175.675
131.732
659.125
555.425
812.525
633.588
59.9907
120.244
87.7165
495.075
356.28
564.292
439.29
39.6774
81.4081
74.2818
327.861
251.484
413.399
360.351
33.8314
70.766
68.3114
235.308
232.051
345.309
342.761
57.1659
72.8095
83.3766
243.227
329.063
350.504
359.33
83.887
85.2557
86.016
338.306
324.086
354.586
331.525
64.3136
85.1727
67.8302
310.3
272.7
321.243
292.285
1087.75
1233.51
1058.46
1837.43
1546.33
1704.63
1493.15
865.327
1026.62
929.582
1455.95
1197.34
1436.46
1269.55
748.159
905.791
868.209
1128.39
994.04
1220.59
1100.53
680.006
857.626
806.631
957.257
858.074
1064.1
951.486
611.273
781.612
685.122
826.605
746.403
910.32
782.002
555.123
645.881
549.162
723.809
673.581
742.085
664.03
525.31
533.288
519.034
660.065
624.61
651.546
626.265
480.747
516.792
493.331
609.785
549.127
615.493
563.488
1030.15
928.206
896.653
1581.66
1450.55
1349.9
1258.31
943.308
895.315
863.507
1404.37
1266.47
1231.64
1124.53
887.774
841.13
777.656
1223.43
1107.46
1081.54
961.245
821.668
761.042
703.746
1071.05
957.269
934.596
773.105
688.341
674.748
555.613
914.07
769.859
710.883
532.193
523.285
495.502
355.376
723.245
636.77
482.785
416.639
499.74
347.228
365.713
626.21
609.109
418.607
461.993
485.122
380.312
403.081
601.138
557.672
475.938
485.977
803.583
876.812
753.527
1270.28
1162.42
1306.08
1109.85
752.793
723.004
603.899
1132.64
1024.63
1053.71
882.474
670.301
550.835
423.225
982.69
867.021
822.893
683.232
615.067
395.868
343.711
845.529
696.281
652.741
585.481
482.691
330.965
315.848
635.836
478.583
565.532
524.604
319.509
318.256
364.388
439.046
377.506
518.957
488.386
322.754
367.412
339.155
371.113
391.513
466.52
390.077
370.95
323.504
290.972
410.294
452.598
372.114
353.032
829.434
1206.12
1044.72
1429.46
1180.64
1689.94
1426.69
660.443
982.738
750.252
1115.63
912.837
1308.47
987.707
447.638
669.492
523.18
842.274
685.98
892.742
713.92
342.299
492.473
427.132
651.795
575.172
676.159
589.818
322.347
409.366
402.012
557.464
533.281
566.786
539.706
388.423
406.653
406.212
531.664
506.607
534.337
502.407
357.078
397.359
366.31
486.274
413.552
486.154
437.205
295.988
354.502
317.098
391.355
353.469
422.335
383.186
1661.71
1834.88
1602.82
2322.28
1942.88
2163.33
1886.2
1280.82
1539.39
1351.78
1813.3
1480.06
1800.96
1549.68
1055.04
1295.14
1152.31
1394.1
1204.04
1472.75
1274.6
901.382
1109.34
981.382
1151.37
1010.81
1216.19
1053.38
779.861
936.533
803.727
970.208
869.902
1001.59
864.268
701.972
765.117
691.31
842.786
773.133
828.785
756.629
644.187
678.472
646.196
751.23
685.134
739.691
684.298
556.628
632.255
570.312
659.15
566.118
661.265
572.917
1558.54
1473.05
1355.92
2049.87
1838.41
1776.8
1611.1
1346.39
1321.72
1193.72
1765.41
1542.7
1558.2
1380.68
1156.61
1144.96
1009.63
1470.4
1274.66
1318.57
1151.21
1084.97
1072.29
1093.83
1150.63
1053.63
1103.89
1129.69
868.829
887.685
909.98
956.516
855.542
904.723
926.696
664.447
450.812
423.742
801.853
729.711
510.798
501.515
629.967
432.632
485.691
715.306
670.192
511.07
541.396
565.131
497.298
499.718
650.539
571.307
544.539
527.428
1260.76
1431.25
1206.67
1694.02
1519.59
1734.51
1461.38
1098.1
1144.09
960.258
1467.6
1298.9
1384.36
1173.82
921.282
899.461
757.616
1240.99
1086.82
1110.26
958.992
836.147
844.056
816.954
945.119
784.02
792.1
876.882
592.716
536.453
625.31
453.8
576.467
400.588
646.043
375.49
564.999
511.224
474.566
438.496
662.364
551.319
412.421
482.947
398.927
440.39
475.86
512.254
431.188
467.05
382.438
365.641
487.598
501.238
420.98
414.415
1273.77
1833.97
1516.02
1852.49
1514.9
2149.76
1719.9
983.009
1385.98
1047.67
1423.25
1175.72
1560.16
1195.62
754.497
950.151
765.667
1103.62
941.028
1096.48
905.522
637.893
726.869
635.166
900.492
796.045
863.446
756.924
583.39
610.201
574.825
766.627
694.177
726.661
666.392
529.347
566.419
525.497
669.223
573.961
649.667
587.68
423.656
507.233
454.575
539.239
455.037
565.761
508.8
365.527
439.371
398.977
436.798
413.018
493.94
457.387
2026.8
2276.7
1977.21
2813.74
2293.05
2660.69
2307.92
1539.43
1883.51
1610.21
2125.62
1750.25
2186.92
1851.82
1250.95
1527.43
1313.61
1661.79
1439.6
1754.56
1486.46
1047.72
1250.65
1078.18
1373.92
1212.46
1405.3
1198.7
902.8
1025.01
887.571
1171.4
1059.8
1142.18
1004.6
798.572
852.514
778.979
1025.13
930.677
970.979
906.497
700.955
760.7
698.765
901.629
809.627
889.64
816.124
573.798
673.131
578.135
774.659
670.486
784.952
681.914
1928.6
1875.81
1693.02
2535.35
2262.3
2201.53
2007.15
1604.54
1635.42
1445.93
2161.66
1858.47
1944.26
1732.76
1312.97
1380.06
1198.2
1761.57
1481.55
1650.21
1390.93
1072.29
1143.74
928.065
1397.09
1181.77
1308.7
1095.31
862.846
837.223
632.859
1120.53
967.581
1019.95
809.2
750.983
590.055
540.182
930.443
870.428
753.647
682.405
685.519
542.955
563.671
861.117
808.783
688.624
717.545
577.658
564.959
541.447
781.789
685.687
715.784
673.521
1602.64
1832.22
1543.05
2114.64
1921.83
2155.39
1857.37
1369.04
1462.78
1246.72
1863.78
1672.29
1772.99
1548.21
1141.55
1182.65
1024.69
1597.01
1354.08
1479.48
1269.21
890.146
982.81
865.646
1278.62
1071.09
1202.26
1029.66
606.82
827.45
723.259
997.631
786.742
979.284
833.795
478.932
687.69
564.503
724.711
630.422
785.563
672.142
502.8
525.686
453.778
633.847
672.01
652.274
624.431
517.692
445.735
438.032
675.924
657.092
619.778
605.836
1591.27
2251.15
1775.05
2271.69
1884.52
2568.99
1960.43
1241.41
1609.05
1241.38
1778.15
1514.85
1775.64
1421
1003.05
1143.23
953.339
1443.9
1243.12
1338.45
1153.44
843.67
910.01
797.852
1178.62
1015.31
1098.3
969.278
724.891
765.992
698.975
970.885
847.176
937.807
858.29
589.643
679.911
613.489
806.638
710.493
831.521
761.879
476.398
591.285
535.531
688.888
642.336
743.264
695.939
437.286
521.272
483.738
631.347
606.723
680.516
641.283
2395.53
2812.59
2450.57
3332.94
2704.17
3262.87
2893.52
1850.59
2322.74
1975.55
2517.59
2209.86
2752.16
2406.73
1538.76
1875.53
1587.4
2134.36
1900.76
2306.42
1984.38
1306.87
1498.71
1279.44
1811.5
1684.93
1883.12
1656.36
1152.35
1221.9
1083.37
1641.71
1526.93
1598.66
1457.94
1017.45
1050.74
998.413
1473.03
1393.06
1428.75
1409.18
891.5
984.489
909.053
1359.47
1261.67
1396.44
1311.52
749.804
877.191
771.861
1223.02
1136.73
1283.08
1194.52
2410.1
2338.53
2156.72
3103.36
2874.82
2751.86
2669.81
1989.73
2096.2
1882.86
2763.93
2449.16
2620.06
2418.23
1581.11
1792.81
1495.66
2338.39
1988.14
2307.42
1940.7
1256.02
1401.57
1169.81
1880.14
1631.92
1824.49
1557.28
1038.27
1093.52
873.77
1567.17
1406.5
1474.67
1228.75
959.128
818.028
769.887
1375.56
1379.14
1184.22
1226.7
905.383
789.124
829.397
1382.95
1317.69
1272.62
1288.47
776.606
825.753
770.164
1291.53
1197.43
1275.23
1202.55
2074.87
2300.47
2008.32
2679.05
2605.51
2750.24
2523.86
1828.56
1924.31
1700.23
2563.74
2382.86
2441.42
2234.24
1463.9
1627.69
1389.14
2276.75
1918.69
2149.31
1835.74
1147.65
1310.47
1115.12
1804.97
1536.88
1736.75
1512.19
850.152
1060.11
901.043
1453.56
1202.08
1449.9
1270.58
721.584
852.375
766.464
1153.72
1192.21
1234.82
1243.73
789.35
760.338
744.746
1238.61
1262.54
1256.22
1229.86
755.155
739.068
713.374
1253.72
1190.11
1220.06
1179.79
2026.98
2709.97
2046.15
2889.81
2508.73
3127.01
2324.19
1654.95
1857.02
1518.88
2395.34
2155.73
2138.43
1910.74
1361.65
1445.03
1256.98
2085.64
1797.49
1860.81
1620.32
1106.83
1195.37
1065.14
1705.62
1509.82
1551.18
1467.91
925.044
1037.19
955.671
1459.26
1311.55
1455.39
1348.34
811.027
926.389
860.545
1282.71
1284.01
1320.46
1289.31
759.851
844.933
799.914
1281.04
1236.27
1286.36
1229.41
714.408
783.302
736.996
1224.61
1180.87
1215.83
1172.06
1035.98
1029.36
961.317
1007.47
1009.12
1056.58
982.883
1040.62
1044.94
919.57
1010.43
1008.79
1081.88
900.304
973.03
891.109
828.966
606.15
953.302
897.543
729.445
1113.57
1183.87
1159.82
1195.43
1132.37
1162.74
1141.16
1061.56
1028.73
1105.25
1026.72
1081.35
1004.39
1086.39
1070.44
1042.44
1155.82
1030.55
1117.81
925.428
1103
1001.37
628.967
963.103
948.1
919.836
756.182
1039.38
809.074
836.978
742.614
804.099
797.992
852.998
754.538
759.686
827.693
585.929
522.679
765.571
826.324
450.072
679.174
637.724
524.92
414.656
695.581
630.617
412.428
884.499
974.999
939.739
964.757
921.581
944.543
904.02
824.363
821.57
888.061
792.156
869.582
770.559
845.377
772.662
537.638
886.004
658.614
843.586
468.982
814.182
692.962
419.391
690.36
594.751
646.235
426.445
744.902
777.251
759.232
680.373
540.948
736.63
648.414
708.833
796.42
755.661
700.091
794.465
730.889
823.647
766.468
764.359
669.959
676.092
711.199
702.802
726.137
739.536
898.397
990.965
989.213
996.327
844.014
937.929
957.735
836.699
573.067
892.303
834.496
689.641
764.84
901.591
859.461
859.135
951.374
887.148
888.859
828.598
918.385
824.742
766.307
836.131
852.912
782.679
798.297
880.999
553.999
473.974
501.219
360.586
535.663
360.94
517.808
650.118
635.62
606.407
683.594
603.034
686.541
658.68
620.237
554.248
589.227
619.814
575.898
594.785
637.699
639.028
479.91
608.824
767.886
423.585
697.661
705.874
594.402
375.216
537.05
607.043
378.142
553.06
653.412
698.612
735.002
789.338
750.087
738.829
706.343
745.681
664.597
658.038
669.542
720.337
633.284
681.091
706.74
351.024
507.986
355.37
812.725
755.792
786.092
732.353
236.589
264.935
218.773
656.564
567.887
640.454
573.15
192.816
199.453
192.438
524.749
505.691
545.812
534.514
178.322
187.136
184.679
472.892
438.375
513.383
492.187
156.262
179.273
177.229
414.965
398.264
470.666
455.283
142.522
174.068
172.007
381.697
366.851
438.816
428.884
132.484
168.763
164.873
357.57
351.174
418.766
411.714
101.49
160.063
140.5
333.262
344.328
395.709
416.012
528.718
649.843
468.035
1061.22
914.722
1025.13
861.543
417.669
273.711
331.755
479.967
423.873
459.581
255.401
358.813
148.76
151.255
348.451
338.03
358.027
141.843
326.217
115.611
116.209
290.352
289.476
328.262
114.007
369.137
122.483
126.624
306.385
313.839
358.679
133.048
380.794
127.848
143.318
320.803
324.526
380.796
145.744
357.257
129.452
147.293
329.575
327.985
369.56
144.732
312.827
120.442
129.279
315.327
311.259
321.848
124.187
298.987
112.327
116.595
300.42
297.849
300.879
115.452
141.503
194.621
156.878
395.657
343.117
407.899
384.074
342.803
398.253
298.242
762.929
692.654
657.486
620.253
328.501
187.037
215.374
342.295
341.135
326.141
169.234
433.891
147.408
147.03
392.523
407.756
409.138
154.593
467.877
153.852
170.821
422.73
429.87
462.689
174.753
484.651
175.946
183.983
467.142
476.081
482.933
185.294
467.577
180.277
183.958
477.548
468.641
476.764
181.31
374.313
156.867
167.967
417.126
384.491
415.081
153.669
247.808
108.038
102.766
288.34
275.437
257.427
96.7203
265.284
107.452
98.0157
275.622
280.486
258.306
101.865
152.827
168.906
147.274
393.008
387.618
354.81
374.477
273.755
365.143
266.411
656.486
591.262
658.61
603.285
250.882
136.551
169.061
265.237
265.202
256.07
131.27
237.288
114.249
90.4691
309.048
321.941
242.579
85.6615
234.38
131.049
85.545
345.196
348.836
232.802
88.2734
262.14
148.597
97.6713
359.419
364.443
247.544
105.679
277.956
147.389
117.754
364.538
356.159
280.341
117.37
153.464
103.433
98.4026
285.133
224.175
205.993
78.4205
137.222
57.79
52.6602
133.829
136.797
120.908
54.4124
180.272
76.8108
72.6144
181.098
191.47
177.066
74.2731
128.906
123.164
101.895
294.641
339.968
252.245
277.368
284.209
421.299
408.637
648.434
693.294
731.181
746.715
329.977
141.572
195.315
297.26
298.433
329.401
158.45
349.249
110.321
125.422
311.795
311.597
349.047
124.557
236.15
77.0974
103.043
245.975
197.888
277.229
88.4724
176.138
48.2787
69.6261
135.391
115.81
188.831
64.1503
82.7787
35.8834
38.2188
66.7498
62.134
92.3176
35.2972
129.988
35.493
35.692
70.0425
87.1399
94.4675
41.1074
215.843
77.9859
77.4753
191.865
204.723
209.018
83.1222
205.143
82.7023
85.7813
206.096
199.403
211.301
84.1853
97.8967
126.467
96.9971
243.421
262.331
250.111
258.838
328.848
423.075
321.292
732.682
773.438
744.334
805.864
224.775
269.792
242.348
730.124
610.786
741.754
574.576
157.962
203.105
156.066
498.115
440.942
513.241
440.38
126.134
134.076
128.877
373.62
347.099
376.02
334.283
122.175
117.62
106.439
323.131
317.607
316.222
298.395
123.616
102.944