/*--------------------------------*- C++ -*----------------------------------*\
  =========                 |
  \\      /  F ield         | OpenFOAM: The Open Source CFD Toolbox
   \\    /   O peration     | Website:  https://openfoam.org
    \\  /    A nd           | Version:  10
     \\/     M anipulation  |
\*---------------------------------------------------------------------------*/
FoamFile
{
    format      ascii;
    class       volScalarField;
    location    "6.7";
    object      nut;
}
// * * * * * * * * * * * * * * * * * * * * * * * * * * * * * * * * * * * * * //

dimensions      [0 2 -1 0 0 0 0];

internalField   nonuniform List<scalar> 
12920
(
1.24229
2.12091
0.976585
3.13445
1.77691
2.42047
1.29437
1.14511
0.811802
0.732384
0.640004
0.620547
0.582094
0.569417
0.540439
0.525493
0.50402
0.485827
0.453951
0.416857
1.33623
4.9848
3.27208
6.97609
4.63428
5.96726
2.93406
2.43962
1.64378
1.465
1.25032
1.29817
1.29581
1.36355
1.35184
1.35761
1.32911
1.3162
1.28176
1.10995
0.380851
7.71922
5.01973
7.14029
4.53116
5.5464
3.02635
2.59387
1.80537
1.63105
1.38048
1.393
1.25402
1.20292
1.09609
1.02768
0.963304
0.902738
0.874021
0.802602
0.500689
8.37429
7.00135
8.06046
5.07174
5.92172
3.23505
2.88906
1.97603
1.83122
1.45976
1.37718
1.16561
1.09995
0.979862
0.916563
0.853164
0.798973
0.769373
0.720189
10.7366
13.2892
12.7862
10.1107
6.20553
6.23251
3.68584
3.637
2.3777
2.16818
1.70827
1.58212
1.28886
1.11326
0.923802
0.862791
0.809061
0.767954
0.746064
0.707587
10.1214
12.5093
9.67043
8.80734
5.05017
5.6529
3.38835
3.31554
2.56332
2.38237
2.05676
1.93322
1.77314
1.51982
1.18741
0.921724
0.811378
0.775785
0.771588
0.7568
7.40659
12.9113
8.66485
9.23231
6.20863
6.45
3.95068
3.61646
2.76357
2.52622
2.05731
1.81699
1.60159
1.46964
1.27256
1.0433
0.859954
0.783315
0.767336
0.768098
9.27853
12.6495
11.8648
11.1865
6.84829
6.23972
1.50156
0.996494
0.812812
0.805786
0.709462
0.629081
0.542753
0.484097
1.63816
1.17574
0.930101
0.817743
0.782329
0.763028
0.643384
9.75959
9.21408
10.0676
6.58314
2.11033
0.518567
0.271038
0.217596
0.246388
0.264734
0.258537
0.228161
0.198518
0.672278
1.40687
0.979679
0.836668
0.79629
0.76129
4.32944
9.17942
7.94165
7.64366
5.82168
2.13036
0.446528
0.239261
0.230037
0.24912
0.269659
0.264043
0.18939
0.174646
0.676871
1.58911
1.09799
0.886033
0.825354
0.763954
6.5574
9.75879
6.62749
7.55189
5.51232
2.13544
0.409949
0.222123
0.211496
0.222907
0.219518
0.183499
0.0931649
0.125572
0.51486
1.50861
1.1482
0.904332
0.798046
0.739161
0.519853
11.0603
10.3685
8.17441
6.28992
2.06255
0.460905
0.219137
0.173576
0.0999905
0.0606921
0.0563315
0.125824
0.16119
0.481172
1.33554
1.06128
0.884076
0.82956
0.779309
0.815624
7.91433
7.41455
7.86721
5.03067
5.74121
1.42766
1.27422
0.864039
0.816764
0.63976
0.637505
0.569028
0.55294
1.51113
1.23307
1.03789
0.937645
0.884867
0.809338
3.60814
5.86379
7.6184
7.19687
5.98351
5.28032
4.61596
4.18788
3.21142
3.08292
2.07386
1.86768
1.47451
1.40139
1.21614
1.13153
1.02752
0.968266
0.897446
0.805092
13.2778
9.12337
8.7974
6.98089
5.45277
4.83951
3.55497
3.8537
2.57192
2.60832
1.89981
1.7576
1.4205
1.31412
1.15884
1.08803
1.00275
0.944229
0.880887
0.865194
16.6401
7.31529
8.82846
6.39846
5.2202
4.78274
3.65213
3.74498
2.51001
2.90866
1.87241
1.90719
1.45198
1.3962
1.18367
1.13084
1.03508
0.980527
0.941853
0.963059
9.19174
11.194
9.54385
7.0998
5.15357
4.50676
2.98132
3.27902
2.15634
2.62272
1.78757
1.91222
1.52449
1.51075
1.31039
1.25491
1.15629
1.10675
1.08395
1.11246
23.4576
19.1181
12.9952
9.0101
5.11508
4.93289
2.98168
3.48621
1.95737
2.19588
1.62314
1.74623
1.50596
1.55351
1.42623
1.41162
1.33417
1.29266
1.26672
1.27126
5.62811
15.5168
11.5291
8.77657
3.97689
3.89697
2.43953
2.68549
1.86548
2.00858
1.57263
1.56593
1.33557
1.32612
1.23974
1.23743
1.22198
1.20887
1.22919
1.23487
7.77532
11.1344
7.17388
5.88154
2.90804
2.44575
1.6939
1.46034
1.12662
0.996817
0.813085
0.7009
0.564812
0.475129
0.420146
0.415222
0.413883
0.413472
0.412978
0.400706
2.31885
4.44633
6.09955
15.0122
10.0537
12.7501
6.51084
5.89198
4.21853
4.0391
3.64596
3.66192
3.48758
3.49123
3.40091
3.38261
3.3879
3.27435
3.04674
2.88207
7.42452
19.223
24.7091
26.8872
29.2913
27.8686
20.8495
16.7534
13.7447
13.8359
14.3817
15.1739
15.388
15.4923
15.4599
15.3725
15.1681
14.9376
14.5838
13.4121
2.79936
16.491
32.5793
27.6403
27.7956
27.5102
21.3588
17.952
14.8078
14.6667
14.8259
15.3208
15.0282
14.4414
13.8625
13.359
12.9633
12.4807
12.1783
11.5403
1.3062
15.1404
32.3003
36.1932
33.2246
29.2611
22.7656
19.8344
17.2991
16.652
15.5676
14.5538
13.3545
12.5617
11.8592
11.497
11.2581
11.1041
10.8948
10.5984
10.7915
37.7415
42.841
43.0694
36.9065
30.9276
25.0186
22.3948
19.6284
18.3981
16.678
15.5357
13.6821
12.3905
10.8476
10.3445
10.4028
10.5808
10.68
10.6462
13.3812
32.7379
49.291
43.0373
34.3114
30.0054
25.8896
24.1595
22.2721
20.9503
19.2922
18.0116
16.7355
14.4831
11.042
8.25898
8.41491
9.9144
10.7984
11.0247
7.54299
29.2684
40.8516
42.1055
32.8982
30.1406
25.67
23.5162
21.9506
20.4414
18.2191
16.4637
15.2427
14.2146
12.2665
9.9067
8.52572
9.26365
10.5162
11.1694
23.0625
41.9612
44.3766
46.3441
37.671
32.5599
22.5364
18.7815
17.8521
17.4762
16.4855
15.515
14.4291
13.4418
12.8967
10.0912
9.45077
10.2176
10.9596
11.2182
16.7381
32.498
44.729
45.9572
32.2914
22.6608
17.1272
16.36
16.0391
17.5839
17.8218
17.0159
15.7893
14.681
13.7124
10.2924
9.69693
10.4612
10.8256
11.0706
7.75
36.7278
40.377
35.7268
23.1921
18.6799
15.7702
17.3916
18.2348
18.7279
18.1741
15.7745
13.6924
14.4404
14.7917
11.6071
9.9469
10.4812
10.6464
10.8455
37.236
46.4915
39.5298
32.8592
24.5738
18.1765
15.1839
16.1769
15.9411
15.2966
13.6928
9.86691
8.05317
9.5276
12.1328
11.8611
10.1475
10.2091
10.4321
10.7188
14.6762
47.6902
32.8453
26.7114
22.2141
19.2076
17.793
16.9923
13.4393
10.2054
7.94603
8.04806
12.2438
11.4751
10.4026
11.1693
10.3038
10.6038
10.8954
11.0622
6.91112
25.5495
31.145
32.9201
32.01
31.7786
23.8403
19.7944
16.3105
15.2701
14.6542
14.7241
14.5165
13.5685
13.3391
12.0443
11.6356
11.54
11.3642
10.9211
11.4292
33.8212
32.7153
33.5781
32.5854
29.2834
26.6291
21.8734
19.0244
16.0391
14.9613
13.7598
13.1913
12.8158
12.1087
11.6784
11.4797
11.4162
11.1575
10.9012
58.1288
42.4394
39.9001
35.4996
33.6521
27.0341
24.8982
21.0613
18.2774
16.3777
14.7636
13.7483
12.82
12.1927
11.5929
11.4649
11.32
11.3878
11.362
11.624
36.9747
27.4362
46.1648
29.9918
33.0176
25.7273
23.3464
20.1209
17.9544
16.5614
15.1438
14.4774
13.5748
13.2437
12.7021
12.5881
12.3856
12.4638
12.5901
12.7547
14.3259
37.811
44.6689
34.1859
29.8551
24.6558
21.4377
17.6535
16.7967
15.72
15.2198
14.8476
14.5285
14.4102
14.1965
14.1505
14.0722
14.1258
14.1826
14.2642
38.9214
48.1996
36.541
26.1237
21.1449
22.7235
20.0541
18.2981
16.4609
15.7909
15.2876
15.165
15.1133
15.2331
15.347
15.4937
15.5691
15.6245
15.6929
15.6789
34.3751
47.3651
40.0616
27.7071
22.0423
20.7847
19.2294
18.6312
16.8901
15.9936
15.0198
14.5796
14.2051
14.2484
14.4401
14.7723
15.2029
15.5566
15.9082
16.0186
3.20839
29.5962
26.0029
28.0608
16.8125
16.1465
11.3777
10.6946
7.92973
7.30587
5.80374
5.02747
3.83506
3.06159
2.54214
2.50328
2.49757
2.57497
2.69639
2.74316
13.3584
20.0976
12.1413
19.3914
13.8463
16.0859
9.35385
9.06656
6.61625
6.38766
5.49206
5.20116
4.68864
4.46255
4.17948
3.97211
3.77247
3.46327
3.17638
2.81052
29.4957
33.4033
38.2967
38.6737
41.3346
39.1625
31.9472
28.305
24.8801
24.0944
22.8273
22.259
21.5376
21.1897
20.6585
20.202
19.5626
18.856
17.1679
14.7971
5.40661
18.3991
37.1053
43.9355
43.9531
40.593
33.1104
29.6984
26.5978
25.8928
24.5951
23.56
22.0782
20.9787
19.9348
19.1247
18.4481
17.7194
17.2835
16.5967
23.6618
22.4308
38.3035
51.2593
49.1798
43.3239
35.8939
32.3347
29.117
27.2231
24.4967
22.3498
20.2748
18.9665
17.8752
17.2344
16.7327
16.3762
16.0903
15.8608
56.6709
55.5524
51.6771
56.4069
53.63
46.5281
39.2939
35.3803
31.5062
28.8191
25.6258
23.1458
20.4712
18.7245
17.2421
16.6652
16.3794
16.2077
16.063
15.9138
5.48351
40.5055
63.5045
63.9452
54.1481
47.5222
41.6579
38.2991
34.9483
31.8736
28.6789
25.8637
22.911
19.652
16.7964
15.5938
16.0289
16.5143
16.601
16.5039
10.4991
51.788
61.253
62.7082
53.2
48.406
42.5303
38.5032
35.041
31.7634
28.3252
25.5789
23.0935
20.7132
18.1047
16.4032
16.0819
16.5247
16.9325
17.0193
11.1416
57.0807
57.6742
57.4746
53.7686
49.8219
41.5589
35.726
32.7697
30.2361
27.6495
25.2319
23.0106
20.6798
17.9462
16.4394
16.3183
16.6266
16.8181
16.8835
34.9823
55.3323
59.0516
60.058
50.2447
42.4141
37.5215
34.1219
31.1782
29.992
28.0116
25.6697
23.7205
21.6423
18.2932
15.4235
15.4072
15.8269
15.9487
16.195
22.7396
54.8434
61.8376
55.5927
45.1425
38.8689
35.2475
34.1202
31.952
29.7853
26.7444
22.2897
20.8302
21.1004
18.9532
15.4845
14.9455
15.1689
15.1663
15.5532
43.3324
66.8535
62.4695
54.2333
46.0233
38.335
33.2759
30.9698
27.8891
25.8766
8.03444
6.72473
7.81641
12.1023
15.9217
14.8253
14.4123
14.8257
14.9752
15.462
66.388
68.7723
51.2386
49.5574
45.6657
40.3976
36.7205
31.8192
25.6366
21.0836
18.0278
17.9127
17.4786
14.0346
13.4752
14.7332
15.1548
15.8971
15.9626
16.0227
23.0406
49.9271
49.5738
50.5749
51.486
49.72
43.212
34.3446
28.2224
25.1097
23.1383
22.1707
20.8665
19.1186
18.0359
17.3762
17.2211
17.1319
16.6381
16.4356
27.0477
52.4192
51.7448
51.5671
51.2297
46.9174
41.1131
34.3206
29.461
25.7776
23.6422
21.8494
20.6089
19.7445
18.7368
18.1664
17.7672
17.5519
17.0897
17.0862
78.5009
59.8849
57.0003
53.5585
51.7719
43.6225
39.2167
33.4248
29.0832
26.0442
23.6432
21.9478
20.5959
19.6507
18.8616
18.4975
18.1965
18.1061
18.0737
18.1989
20.1687
36.5029
64.044
51.4216
50.0344
40.601
36.8946
31.7514
28.5171
26.0818
23.9779
22.7739
21.4677
20.8691
20.125
19.8563
19.5575
19.5669
19.6086
19.8162
24.527
54.8605
61.7365
50.7813
46.6594
39.3281
33.9896
29.0312
27.0113
25.2293
24.1685
23.5246
22.9394
22.6941
22.3105
22.1696
21.965
21.9462
21.9322
21.8788
37.3434
61.6805
49.1619
39.8007
38.5629
37.8249
32.3895
28.4791
25.6617
24.3296
23.4339
23.1002
22.9566
23.0737
23.2259
23.4899
23.623
23.7745
23.788
23.5824
23.6928
62.2455
50.7471
39.1796
36.1942
34.9755
29.4628
26.1699
22.3841
21.0595
19.5602
19.2523
18.9709
19.3459
19.7488
20.6471
21.394
22.065
22.5752
22.6754
4.28658
20.0078
30.7424
28.6299
22.1843
20.1612
14.0881
13.1852
10.0122
9.15449
7.1838
6.05453
4.70161
4.00561
3.55007
3.45306
3.36377
3.28152
3.24436
3.21867
30.758
41.1037
28.9786
23.053
16.913
16.4934
10.9205
10.6719
8.20671
7.66445
6.43375
5.82497
5.0477
4.51436
3.96633
3.39385
3.02291
2.551
2.39771
2.15952
67.0191
58.4985
56.5191
51.8993
49.9316
43.9602
36.8246
33.45
29.0376
27.0064
24.1926
22.8923
21.8073
20.9821
20.3201
18.5941
17.1533
15.7402
14.4575
14.3216
40.4855
50.4097
61.2881
57.5034
53.4803
47.3112
40.3278
36.6175
32.5991
30.1411
26.982
24.9643
22.8075
21.6461
20.4457
19.6943
19.059
18.5338
18.2064
17.8117
42.5286
46.5714
59.1135
64.7401
58.4575
50.5271
43.065
38.6109
33.9805
30.4493
26.4625
23.9906
21.3807
20.0067
18.6234
17.8737
17.2311
16.8054
16.5774
16.3831
80.3466
71.6664
70.4099
70.7191
62.8824
53.3953
45.6505
40.6727
35.8406
31.8733
28.1198
25.0794
22.4458
20.6904
19.0106
18.0491
17.2318
16.7153
16.4173
16.2145
32.8032
75.0636
80.7324
75.5526
64.3019
55.6817
48.5709
44.1015
39.6794
35.3125
31.4742
27.8616
24.7122
22.0485
20.2553
19.2828
18.496
17.6734
17.1889
16.9759
42.6162
69.0173
79.6118
75.0968
64.6243
57.3467
50.2416
44.8268
39.9071
35.7267
31.7882
28.5308
25.5553
23.1161
21.144
19.9879
19.301
18.5644
18.0572
17.8429
58.7039
63.1528
71.1197
74.3086
66.0002
59.3501
51.9447
44.5233
39.1498
34.5646
30.9779
27.8155
25.2002
22.4201
19.2065
18.8572
18.496
18.0331
17.804
17.7757
61.751
67.4644
71.963
72.4561
62.2901
55.7325
50.2618
43.1181
37.5351
32.8355
29.2859
26.3878
24.3462
21.9024
17.6022
16.2586
16.7414
16.8726
16.9013
17.0349
34.2471
72.7251
75.779
67.6528
58.613
51.9483
47.0351
41.4382
36.114
31.6458
27.5798
23.4644
21.612
20.3565
16.8558
15.6175
16.0279
16.308
16.4061
16.6386
88.3711
81.2015
77.4509
67.6178
57.9365
49.6784
43.6497
37.4673
32.0814
28.546
14.0779
10.4992
11.5515
14.6569
15.2131
15.2243
15.9084
16.4139
16.5659
16.7465
50.582
81.9106
71.7784
66.5347
59.5731
51.9157
45.7875
37.0875
30.1662
25.6569
23.0039
20.8868
16.8014
13.9545
13.8123
15.9297
17.0294
17.5103
17.4395
17.2331
38.8307
56.4239
69.2651
67.6427
63.9522
58.0921
50.6864
39.7368
32.1063
27.1248
24.1964
21.8608
20.028
18.4515
18.3698
18.842
18.87
18.6739
18.2501
17.7468
62.2206
58.8747
68.1725
65.3325
62.1197
54.5835
46.7634
39.1965
33.154
29.4611
26.4346
24.3979
22.8239
21.7795
20.8956
20.2447
19.724
19.3162
18.8268
18.4286
62.9491
67.9208
68.8445
65.4665
60.4146
50.2173
44.9829
38.0841
33.5372
29.7839
26.9359
24.8493
23.2623
22.0984
21.1864
20.5793
20.0594
19.7206
19.5105
19.3971
32.8377
59.4099
74.0638
62.0877
56.5001
46.2811
42.2232
36.1133
32.6842
29.6896
27.1666
25.6069
23.9811
23.1446
22.1302
21.6963
21.2007
21.0534
20.9962
21.1222
40.3693
57.2156
73.35
60.2514
53.679
44.4552
38.3349
33.4381
30.9534
28.7481
27.287
26.4314
25.5075
25.0888
24.4372
24.135
23.7196
23.556
23.439
23.4137
66.6071
71.3114
61.5087
52.9287
49.7726
43.6587
36.1944
31.6814
28.5107
27.111
25.8482
25.3598
25.0272
25.0952
25.1397
25.3942
25.4697
25.5548
25.5005
25.3369
35.4098
65.8833
56.2925
50.1378
45.1438
39.5508
31.6897
26.9086
22.3916
21.2951
19.946
19.8416
19.879
20.1651
20.6322
21.549
22.1984
22.8577
23.0607
23.2089
2.45077
16.401
28.5278
27.4846
22.7425
19.0239
13.8152
11.909
9.31552
7.79736
6.1684
5.03033
4.21174
3.84556
3.63197
3.53321
3.4401
3.32669
3.27699
3.20147
54.1517
44.3335
21.2693
23.6497
8.49766
16.0774
4.97785
5.67045
3.54988
3.281
2.60144
2.30808
1.92765
1.66647
1.4191
1.25898
1.12974
1.05874
1.03837
1.03664
84.0874
74.2473
60.8934
58.5567
36.9568
40.0603
25.1271
29.6776
20.5
20.9849
17.0651
16.2357
14.6294
13.9024
13.2188
12.7206
12.2377
11.8154
11.559
12.0293
29.5224
72.7337
70.7868
63.676
41.6834
46.2944
29.5506
34.4312
23.5382
24.5168
18.828
18.1742
16.0042
15.4564
14.358
13.9523
13.5583
13.2883
13.2437
13.2023
50.1129
68.615
59.9043
70.1428
41.3681
49.3964
30.4847
35.7755
23.2078
23.3724
17.7955
17.4112
15.1163
14.9258
13.9263
13.6494
13.2403
12.9608
13.0875
12.9654
103.952
81.7576
66.5147
75.8144
45.3619
51.4739
34.734
37.4757
27.0295
27.4829
19.91
18.7594
15.7655
15.3853
14.1517
13.8785
13.3968
13.0456
12.9774
12.711
80.0237
91.7207
72.4923
79.2336
42.7453
53.949
34.6509
41.7142
29.4713
28.0154
22.4662
20.0762
17.3184
16.0866
15.1594
14.4947
13.8387
13.403
13.4258
13.2008
79.2794
80.565
71.5677
79.6103
47.4066
56.0874
45.8392
42.0279
34.4064
31.9269
25.0985
22.3613
18.5482
16.9703
15.4297
14.8556
14.415
13.9177
13.7472
13.5968
37.274
75.1176
63.9598
81.7415
47.5787
57.4419
51.2974
43.3159
36.0898
30.9872
26.8782
23.6557
20.957
18.4692
16.1534
14.8175
14.5049
13.9327
13.858
13.7573
42.2454
73.8597
79.0886
76.6277
56.6347
56.3393
49.221
40.0308
32.255
26.8756
23.2589
20.635
18.5438
16.31
14.401
15.1512
13.8802
13.4247
13.1866
13.2825
35.3028
80.1024
80.3436
64.2925
59.3283
52.1229
45.2388
36.3911
29.8859
24.767
20.698
17.3058
16.2945
15.1952
13.9279
14.6051
13.4967
12.9272
12.8014
13.1268
40.8558
88.5427
83.5815
71.5333
54.863
48.8672
41.2379
32.1845
26.9692
23.1033
18.991
13.9596
12.1599
13.2636
13.5761
14.6393
13.5093
12.961
12.7511
13.1469
98.9286
87.6617
82.437
73.6424
60.9221
51.2493
41.9266
31.5007
25.6433
21.3224
18.1058
15.2516
13.4803
12.7633
13.4071
15.3578
14.0188
13.2555
12.937
13.41
35.2701
74.8283
79.831
76.9801
61.0381
56.1323
47.3131
36.5784
27.975
23.4169
20.4568
18.517
17.1624
16.2097
17.2491
15.4111
14.4894
13.7154
13.3418
13.9175
67.93
66.218
78.5323
66.8306
63.2107
53.2825
44.2183
37.9016
31.4891
27.0258
24.2507
22.301
20.0718
19.726
16.8962
16.3171
15.1425
14.5656
14.2002
14.8601
42.5107
68.2329
77.6261
70.1853
58.7361
47.4241
37.949
37.4511
30.541
27.1205
23.8775
22.2525
19.9333
19.8355
17.8139
17.3251
16.3267
15.8145
15.5658
16.1992
38.1506
79.9417
76.4089
59.3887
54.519
44.01
37.816
34.6153
28.6342
27.4796
23.3683
22.9963
20.28
20.8479
18.4616
19.0041
17.5647
17.2655
16.9986
17.7945
33.8918
77.1077
77.1191
61.6724
47.5174
40.7624
30.3823
31.237
24.3312
26.9724
22.2094
24.2638
21.3401
22.8338
20.4278
20.8195
19.4682
18.9875
18.7016
19.4543
59.9481
76.5545
69.6975
59.1052
45.2271
40.4047
27.814
28.881
21.9853
25.3046
20.8354
23.7466
20.8892
23.2252
20.8795
21.5977
20.5679
20.2409
19.9291
20.5732
19.0202
64.7929
55.4282
53.4391
31.523
36.5815
20.0227
20.9759
14.0085
15.9513
13.1182
15.0538
13.8125
15.1957
14.952
15.803
16.1562
16.4449
16.5964
17.5189
1.59723
16.3222
12.4724
24.5021
8.6646
8.80476
5.31433
4.77349
3.23054
2.74984
2.11175
1.98864
1.76398
1.73909
1.63678
1.61716
1.59495
1.57857
1.56782
1.58036
27.6729
26.8468
9.76646
32.2086
29.2465
29.1863
10.1729
23.3467
8.659
7.53063
28.0879
24.5928
8.86529
7.84457
9.23341
20.5807
18.1962
28.8648
9.23713
25.6163
23.0402
6.72696
17.3712
16.072
7.86726
6.76983
22.1031
20.0712
0.295449
0.433664
0.24398
9.94588
10.9755
9.43347
11.3269
0.219392
0.226855
0.204627
11.4371
11.4571
12.0287
12.9181
0.234454
0.200908
0.212735
11.605
12.904
13.0796
14.1218
0.262701
0.233015
0.272177
13.2725
13.7854
14.4556
14.8312
0.260601
0.278486
0.282471
13.8218
13.6617
14.8033
14.0146
0.237467
0.275939
0.223628
13.5267
12.8845
13.46
11.909
0.202931
0.20711
0.184821
12.646
12.0564
11.742
11.7973
0.153063
0.184727
0.166453
11.7962
11.2497
11.8294
12.1633
0.248581
0.427817
0.269508
9.76386
12.001
9.67936
12.6285
0.230922
0.266172
0.270759
12.7372
13.8001
13.3474
14.3452
0.241601
0.269784
0.267686
13.9883
14.6462
14.3664
14.2027
0.267176
0.264318
0.251723
14.7959
14.7444
14.0294
13.1858
0.272018
0.246177
0.229067
14.5946
13.5762
12.6967
10.8583
0.207474
0.21753
0.129914
12.8718
10.9844
9.76236
6.85645
0.173303
0.113308
0.118071
10.873
11.3438
6.97258
8.38919
0.164352
0.133562
0.138235
11.5214
12.0834
8.97849
10.6483
0.230895
0.396947
0.209108
9.64773
11.535
10.2854
11.2381
0.21036
0.188436
0.147371
11.9337
12.3164
11.2128
9.64938
0.219883
0.126173
0.0838497
12.3019
12.2089
8.77913
6.74243
0.222379
0.0757407
0.0696796
12.1675
11.7184
6.30137
5.47805
0.19926
0.0720986
0.0728855
11.3289
9.46421
5.26583
4.88298
0.1024
0.0660903
0.0778927
8.3313
5.918
4.94901
7.82166
0.111838
0.104697
0.147442
6.28791
7.72849
8.70212
9.21305
0.131021
0.148466
0.116779
8.1033
9.83993
8.89852
8.36722
0.230204
0.674775
0.405737
11.5231
12.3717
11.615
13.3466
0.195324
0.3798
0.286924
12.4993
10.9797
13.4409
11.5929
0.111427
0.265334
0.215377
9.95454
7.71345
10.8374
10.1565
0.0654495
0.207775
0.188815
7.28892
5.68265
10.261
10.1143
0.0558906
0.17442
0.154376
5.27925
5.12161
9.88102
9.94747
0.099649
0.162594
0.180086
5.45063
9.04214
10.3043
11.1547
0.160468
0.183784
0.184505
9.69894
9.93745
11.2717
11.0044
0.121871
0.183119
0.142707
9.59738
8.66612
10.7605
10.212
16.1531
15.6358
15.9989
32.3543
30.8642
30.2367
30.0725
15.9229
16.6132
17.235
30.2074
28.1928
30.0524
29.0682
17.2712
17.3561
18.1996
27.9636
27.8067
28.7531
28.0215
17.891
18.4462
18.586
27.6623
26.7188
27.7502
26.5684
17.2735
18.4622
17.2603
26.2714
24.7235
26.0042
23.6698
16.0834
16.5767
14.9136
24.2144
22.8046
22.821
21.2481
14.9989
14.7656
14.8434
22.3761
21.0406
21.1044
20.8652
13.2952
14.8495
14.3622
20.4961
18.463
20.6491
19.3158
16.7533
15.1828
17.1818
30.3656
30.5175
29.1662
29.6237
18.1366
17.7605
18.3608
30.5091
29.5478
29.5043
28.2996
18.6638
18.2657
17.7679
29.1728
28.1393
27.7222
25.8124
18.4264
17.4999
16.1277
27.7416
26.1366
25.1804
15.7377
16.6446
15.3248
12.6518
25.3858
22.3582
13.8662
10.5581
13.7669
11.3871
8.65253
21.2809
19.5726
9.99089
9.63545
14.2708
8.78019
10.1544
19.5945
20.0944
9.91357
12.8467
14.3066
10.8611
12.496
20.1083
19.2564
14.1955
16.7484
15.9325
16.2654
15.8048
28.9299
28.1875
30.5849
28.3078
16.1094
15.5477
13.3323
27.7895
26.0379
27.3041
23.5373
15.4376
12.2964
9.76459
25.3769
23.3251
22.1737
18.8089
14.3579
9.21469
8.09936
23.128
14.5184
17.9909
15.9442
11.1072
7.79508
7.28175
12.7364
9.74598
15.2477
14.1501
7.75458
7.36327
10.3008
9.25571
8.6731
14.3371
15.2476
9.1091
11.0211
10.9136
8.66307
10.1745
14.8378
12.4808
11.461
10.4381
9.39746
11.4224
15.1973
11.8793
11.6561
17.1415
19.9363
19.1493
32.6216
29.8295
35.9776
33.0225
14.6499
18.6494
15.6807
28.7919
24.5542
31.0762
25.8488
10.7384
14.6666
13.5773
23.0086
19.4898
24.4212
22.1391
8.41992
13.5728
13.0558
18.6574
16.355
21.6892
20.2027
7.66264
12.717
12.7438
15.7353
15.2725
19.7141
19.6059
11.6694
13.117
14.0313
15.8572
17.1936
19.79
19.8654
11.9853
14.0672
13.5307
16.8779
14.5992
19.5779
18.1215
9.85164
13.199
11.964
13.7886
12.1899
17.5578
15.9764
35.0529
35.2244
34.168
48.0747
43.5609
45.8344
42.3291
31.626
33.8612
32.2176
41.9932
38.1577
41.1301
37.5622
30.3548
31.6959
30.3332
37.08
34.0771
36.4346
33.3124
28.5837
29.8701
28.2124
33.1655
30.69
32.3933
29.7787
26.221
27.5088
24.9193
29.8853
27.6772
28.8587
26.0977
24.1805
24.0678
22.555
27.0772
25.5473
25.328
23.7943
22.2384
22.3876
21.9549
25.0269
23.2989
23.4691
22.3927
19.3534
21.6501
20.0036
22.618
20.3136
21.8864
19.8495
34.4109
33.6659
33.0269
45.1756
41.9969
42.8651
39.6028
32.513
32.6432
30.8245
40.851
37.3954
38.4571
34.9106
30.3401
30.0857
27.6829
36.2596
33.1164
33.7268
30.5885
29.6492
29.1886
29.4598
31.2535
28.5955
30.5124
30.8739
22.7453
25.6894
24.3644
27.6189
22.8545
26.4432
24.4225
20.7935
7.45964
8.74366
23.7191
22.3992
8.05987
10.9568
21.1786
9.46857
13.607
22.2475
21.7258
12.2265
15.9774
19.9378
15.0693
17.4713
21.3732
19.7192
16.8204
17.7551
31.5884
34.857
31.641
42.0728
38.2555
42.9827
37.7631
28.6922
30.4348
26.3449
37.0079
33.3186
36.0595
31.3558
25.353
24.9355
21.4524
32.1451
29.0255
29.9173
26.4362
19.3408
16.0214
22.6053
23.2974
20.4837
3.34581
24.4627
10.1992
7.33141
13.0538
1.8425
11.8513
1.70414
11.1472
7.45773
16.1888
15.8844
6.94726
9.03733
19.4424
16.4735
10.6014
15.135
12.5494
9.98226
13.4697
15.3529
13.2855
15.924
12.0757
12.15
14.5531
16.6655
13.1329
13.5495
33.0974
40.6693
36.331
44.6569
38.802
45.6745
41.9061
27.2095
34.1782
28.5344
36.9382
31.7494
39.3342
33.1884
21.9787
27.0062
24.3016
30.1788
26.4242
31.4381
27.5675
18.6573
23.7023
21.9819
25.5237
23.2659
26.6509
24.604
17.501
21.4598
21.1787
22.6444
21.4736
23.9995
22.8493
18.1005
21.242
20.8882
21.0674
18.5835
22.5124
21.0842
14.8359
20.4855
18.8142
17.5062
14.8971
20.4771
18.6546
12.6479
18.2253
16.606
14.3448
13.7269
18.1458
17.0025
44.8312
47.8884
43.3237
50.8373
43.7473
47.9972
40.8563
38.8484
41.8533
37.7177
41.7177
36.049
38.8882
33.6649
33.8811
36.4062
32.835
34.1356
29.5378
32.0314
28.0548
30.1457
31.8298
29.0849
28.371
25.401
26.9859
23.9774
26.9879
28.1521
25.4618
24.4892
22.2518
23.0053
20.4159
24.8827
24.7095
23.0346
21.6725
20.1155
19.678
18.1399
22.5804
22.6417
21.39
19.551
17.8237
17.7943
16.5417
19.7073
20.8508
18.8276
17.218
15.4215
16.0244
14.2597
42.8403
44.5482
40.2514
46.8197
40.0778
44.1299
36.7088
37.4243
38.8619
34.7846
38.2196
33.1221
34.875
30.3203
32.6192
33.4869
30.3044
31.5396
27.9364
29.0582
26.3551
28.6997
29.359
16.9459
26.8796
23.9272
25.5512
22.0488
24.2996
14.7903
11.672
22.9348
20.0913
20.4857
16.5424
21.8994
11.4715
12.7661
19.2093
17.3664
15.5246
13.4226
20.7721
13.5743
15.9963
17.0917
16.2059
13.371
13.9845
18.6876
16.5087
17.0009
15.784
14.2223
14.0787
13.6816
38.929
44.2801
38.2103
43.0013
35.388
42.8055
34.4557
33.3401
36.3518
31.4514
33.5943
29.2979
32.4518
27.8513
29.0186
30.005
26.6742
28.1116
25.6593
26.6292
23.8121
16.2119
25.9344
23.6348
24.9812
21.6668
23.1863
21.0867
10.8526
22.7667
20.5378
20.1466
16.1342
20.2858
17.5633
10.9426
19.7093
16.257
14.9675
12.3724
16.4326
13.4118
13.9284
15.121
13.2384
12.272
13.015
12.8648
12.2365
16.0955
13.0974
13.4101
13.213
13.3006
12.21
12.2052
39.116
49.8379
42.2515
43.9882
35.1916
46.9375
39.3286
31.7403
39.626
33.4124
32.9821
27.8435
36.6181
30.0128
26.4787
31.5453
27.3097
26.5117
23.3022
27.804
23.6195
23.6035
26.3497
24.274
22.557
20.3893
22.7021
20.5692
21.5209
23.6072
22.1045
19.6681
17.4079
19.8381
18.0743
17.8981
21.6705
20.0839
16.5337
14.2282
17.5868
16.2893
14.4198
19.4634
17.7095
13.7013
12.7351
15.8635
14.8585
13.5177
17.2587
16.3808
12.5729
12.2922
14.6012
14.0728
42.1235
46.2394
38.9959
39.1864
38.6033
29.9245
31.5201
34.1311
37.0379
31.8904
34.4828
26.5755
31.4131
28.7883
27.9795
30.3207
26.1935
26.7212
26.0505
28.2117
23.4792
24.0841
25.0185
21.8847
25.0821
22.7125
22.0972
19.1319
21.2076
20.9504
18.6449
21.997
20.3439
18.4252
16.9247
19.0836
18.0984
17.1994
19.7446
18.4187
16.7563
17.1814
16.8883
16.966
15.8401
17.9385
16.6186
17.1577
16.2856
14.7646
15.3521
13.7964
16.1495
15.3112
15.9329
14.9837
38.2334
42.3447
34.9697
40.3954
32.2498
38.5931
32.2884
31.426
33.2824
29.061
31.5591
28.7609
31.0879
27.3904
25.8999
27.7152
24.463
27.3658
22.4331
25.6149
19.8554
21.6774
23.5664
20.5676
20.9547
17.9097
18.2889
15.3141
18.0357
19.2903
15.5831
17.1802
15.5824
14.5025
12.3388
16.3773
14.4413
12.8748
15.4332
16.3773
12.1367
13.6639
15.5981
13.0732
13.8817
16.6852
16.2346
14.6014
15.5463
13.7959
13.9382
13.4741
15.9322
15.0174
15.4803
14.9502
33.8085
40.9328
32.9685
37.4729
31.4556
37.0475
30.663
28.2248
31.152
26.9655
30.2365
26.8374
29.2932
26.04
23.8936
25.8015
22.4688
25.1384
19.5425
24.8126
20.2765
20.2336
21.6281
19.1772
18.0058
15.0906
18.9564
16.2919
15.2237
18.3498
15.7018
14.2806
12.022
15.6023
13.7642
12.034
14.7533
12.9182
11.7734
13.1963
13.5104
14.3035
13.1283
12.6973
12.4939
14.1245
15.1805
14.7009
14.8524
13.186
12.4785
12.4099
15.1771
14.821
14.8025
14.6159
33.516
46.3711
37.4812
37.6088
30.9188
41.2426
33.8026
26.8566
34.8013
28.3994
29.3628
25.7864
31.2549
26.1226
22.2884
26.4793
22.8334
24.7827
20.7906
24.8008
22.1447
18.8434
21.9374
19.8121
19.5685
17.0691
21.2803
19.4559
15.9449
19.108
17.4821
16.4428
14.8558
18.9337
17.7003
13.7678
17.0153
15.8708
14.6304
15.1542
17.3418
16.6561
12.8884
15.4994
14.677
15.25
15.0334
16.4618
15.9152
12.4913
14.4422
13.9709
14.9378
14.6827
15.745
15.4038
27.9118
28.4908
25.8167
28.6868
27.2976
29.6627
26.0596
25.0773
28.4325
17.5844
24.7544
26.3826
29.4973
4.77906
18.6601
19.3806
12.0803
2.51004
22.3104
15.6119
2.97642
30.3073
32.0829
31.3113
31.79
31.2395
31.6695
30.5975
28.4085
29.2218
30.3341
27.0669
30.2923
26.4035
28.9439
25.2739
24.9829
30.7695
18.3754
30.2558
4.75754
27.9072
18.4522
2.72624
19.5718
12.5789
15.2287
3.01837
23.0085
21.0521
24.5264
19.8758
24.011
21.2847
25.1968
19.827
12.5718
17.4413
7.78047
2.14821
15.7708
14.0495
1.96996
11.0397
13.1329
7.25308
4.2307
14.083
11.3027
3.23681
22.9427
28.0755
26.8801
25.3342
26.8476
24.6802
23.6541
21.2985
24.4441
25.6848
20.9505
25.594
20.1791
22.1484
12.2223
2.52145
17.4406
8.00784
13.7072
2.37949
15.665
10.9946
4.18636
13.8098
7.63343
11.434
3.23338
14.3668
15.409
11.2836
14.8614
2.20379
17.4883
2.83658
12.6625
22.2415
21.0224
19.8207
22.8146
20.2475
23.2332
22.0039
20.8177
17.7413
19.0712
20.1794
19.2051
18.9188
21.1693
20.6066
23.7611
17.3338
27.0285
3.64551
26.0026
24.2891
16.2522
2.63808
11.4767
17.175
2.95952
13.4079
20.3338
23.9239
24.5399
26.1268
24.8595
24.9908
23.7324
25.1553
22.353
21.8365
21.873
24.018
20.3163
22.852
23.769
9.82237
6.39619
10.4473
3.09451
11.0429
1.90425
9.27364
16.2231
16.363
16.733
19.258
15.3242
17.3393
18.541
15.4812
14.0801
16.2862
17.7324
14.6117
14.86
18.0174
10.7746
2.41523
7.07776
15.0703
2.32075
11.791
13.5663
10.199
3.22323
6.27343
11.5713
2.43652
9.53175
12.4724
17.4389
20.8821
20.221
21.2932
18.6427
20.0943
18.9426
16.5904
19.0946
17.0168
20.6515
15.814
19.5049
17.9468
1.20647
1.42279
1.15336
7.49908
8.60322
6.85571
7.97301
0.8832
0.961776
0.840311
8.68771
8.20841
7.97593
8.19153
0.820814
0.779961
0.805863
8.19881
8.58344
8.91556
9.54401
0.75647
0.845824
0.830159
8.62506
8.22476
9.92567
10.0162
0.674614
0.78358
0.771955
8.15495
8.22531
9.92331
9.89824
0.582199
0.745583
0.701123
8.22409
7.9609
9.68105
9.46579
0.510888
0.655278
0.617839
7.81398
7.68231
9.21179
8.96135
0.371708
0.589148
0.506476
7.28306
8.22934
8.4512
9.30999
1.40328
2.06167
1.32674
7.57448
7.98649
7.57482
7.78404
2.62261
0.416058
0.47421
2.59792
2.52533
2.49241
0.368919
3.56203
0.248112
0.232476
2.99462
3.0949
3.25588
0.219686
3.70673
0.216677
0.194464
3.0001
3.12101
3.60158
0.199781
4.74081
0.254123
0.249511
3.63582
3.80774
4.5512
0.264162
5.05784
0.26358
0.285184
4.08453
4.2211
5.02397
0.285356
4.91879
0.252481
0.280592
4.57865
4.63429
5.05163
0.269899
4.46395
0.217424
0.230504
4.60759
4.57731
4.57633
0.216791
4.26294
0.19423
0.200081
4.41066
4.34901
4.29859
0.196343
0.511804
0.694406
0.576878
8.47161
7.3743
9.12637
8.68725
1.2576
2.16355
1.252
6.57342
7.07294
5.82741
6.88111
2.46544
0.337507
0.436372
2.22238
2.45714
2.15115
0.333673
4.70264
0.235172
0.264428
3.85618
4.27478
4.25318
0.266539
5.33362
0.231474
0.266702
4.84895
4.98295
5.25295
0.266062
5.46145
0.256927
0.266368
5.35305
5.41034
5.46653
0.265993
5.28047
0.272512
0.264706
5.4165
5.35844
5.35762
0.263161
4.45938
0.250253
0.252779
4.98691
4.69966
4.84607
0.236705
3.63387
0.177947
0.165768
4.01675
3.97689
3.59782
0.156759
4.04562
0.180691
0.162144
4.09797
4.1602
3.94284
0.171577
0.560193
0.615407
0.543017
9.19552
9.6014
8.81744
9.99514
1.20139
2.0765
1.24788
6.41963
7.3179
6.58674
7.73816
2.21357
0.299969
0.389001
1.99486
2.29519
1.93077
0.295205
2.93159
0.214296
0.185303
3.62916
3.91439
2.91117
0.167979
2.99846
0.214192
0.144799
4.34664
4.42801
2.93671
0.144486
3.5151
0.224829
0.149762
4.54831
4.56662
3.31918
0.158899
3.58108
0.213727
0.171031
4.43054
4.32259
3.64728
0.169402
1.89466
0.155441
0.145485
3.41234
2.70326
2.53156
0.118509
2.24053
0.0944118
0.0860755
1.88073
2.09899
1.85739
0.0915548
3.22254
0.134435
0.128561
3.15053
3.34765
3.1419
0.132171
0.476444
0.459258
0.382065
7.77587
9.92132
6.95232
8.92349
1.36046
2.30138
1.5941
6.59692
8.79146
7.23693
8.12343
2.73917
0.317719
0.446922
2.24742
2.63477
2.3979
0.33157
4.10084
0.210864
0.244074
3.6948
3.79724
3.93255
0.237825
2.96599
0.143357
0.197645
3.03251
2.50461
3.40032
0.172853
2.77074
0.0863615
0.142296
1.94068
1.70109
2.78594
0.131077
1.42931
0.0581976
0.0714842
1.00645
0.940512
1.55629
0.06472
2.46815
0.0594621
0.0641388
1.28627
1.64669
1.82094
0.0735001
3.72827
0.14451
0.148108
3.37599
3.55725
3.62239
0.161722
3.62878
0.158566
0.17068
3.61454
3.53334
3.70351