/*--------------------------------*- C++ -*----------------------------------*\
  =========                 |
  \\      /  F ield         | OpenFOAM: The Open Source CFD Toolbox
   \\    /   O peration     | Website:  https://openfoam.org
    \\  /    A nd           | Version:  10
     \\/     M anipulation  |
\*---------------------------------------------------------------------------*/
FoamFile
{
    format      ascii;
    class       volScalarField;
    location    "6.7";
    object      omega_0;
}
// * * * * * * * * * * * * * * * * * * * * * * * * * * * * * * * * * * * * * //

dimensions      [0 0 -1 0 0 0 0];

internalField   nonuniform List<scalar> 
12920
(
139.019
83.8097
76.7734
87.3231
88.0214
82.3786
70.3763
60.7107
53.7546
49.5426
47.4174
46.4603
45.7216
45.381
45.0248
44.8872
44.8757
45.1121
45.3972
44.1294
125.077
123.727
136.987
140.046
137.353
124.007
101.826
84.5172
71.7013
63.5869
58.6924
57.4092
57.5502
58.283
58.6378
58.9411
59.1094
59.4347
59.6043
56.2409
63.9357
155.27
159.343
141.849
131.416
121.959
105.248
90.4566
77.4848
68.127
60.8708
56.027
52.6606
50.0629
47.9818
46.2003
44.9889
43.8583
43.5213
42.103
63.861
166.27
179.024
158.829
139.522
122.793
102.156
85.6174
72.2265
63.0566
55.8594
50.8864
46.8005
44.1221
41.8302
40.2442
39.0524
37.9632
37.1362
35.9511
258.448
268.702
258.65
199.191
149.753
123.173
101.757
87.5709
75.5615
67.6476
61.7176
57.299
52.1189
47.09
42.6395
39.8944
38.4106
37.3276
36.6576
35.8783
279.293
250.087
212.184
173.605
140.204
117.657
99.5842
89.4538
81.8733
76.8621
72.8635
70.2613
68.0555
63.0235
55.6137
47.5554
41.8549
38.9879
37.8386
37.3256
312.052
254.918
209.229
183.168
153.831
127.6
104.997
90.6289
82.1158
76.415
71.1162
67.0331
64.4394
62.2886
58.4953
52.4734
45.9891
41.5495
39.6778
39.2461
281.541
252.979
253.627
220.932
169.367
137.314
201.511
145.342
129.633
120.778
115.315
108.474
104.579
101.03
63.2754
52.8205
45.2397
41.4566
39.8091
39.297
100.099
199.581
210.477
199.348
161.672
234.061
336.64
228.11
195.021
194.842
200.926
202.974
198.205
190.19
122.246
56.8781
45.9572
41.6118
40.4592
39.5875
182.585
183.171
166.42
151.321
129.758
189.851
271.009
216.141
219.1
233.222
239.993
230.881
190.952
182.906
122.153
61.7918
50.11
44.1209
42.432
40.4263
267.264
191.09
167.45
150.622
123.272
172.83
235.091
189.557
200.471
214.272
218.597
197.896
136.283
152.634
105.52
60.9348
52.6917
46.2608
43.1393
40.565
82.1155
224.465
208.037
162.35
124.765
164.134
238.142
187.296
171.726
130.974
109.009
103.811
149.559
163.25
98.6823
55.9706
50.0208
45.5022
43.8992
41.3163
68.8545
189.391
187.623
154.952
130.792
118.303
183.134
146.087
121.208
103.082
98.0589
98.9362
98.9081
97.106
55.646
51.1146
47.9267
45.8715
44.7207
41.3934
161.003
181.35
166.675
143.354
126.627
104.812
96.5536
83.0392
73.6675
63.8458
57.8989
52.731
50.4966
49.241
47.989
46.739
45.8989
45.0076
43.6338
40.2616
364.022
202.589
175.634
138.636
117.891
95.8521
86.7042
76.3831
68.1482
61.2688
55.5194
50.764
47.5018
45.2871
43.7674
42.8176
42.1395
41.45
40.4081
39.588
529.863
201.908
174.352
127.367
115.249
94.9731
83.5375
74.3172
66.4528
61.1167
55.7256
52.1188
48.5525
46.2766
44.4006
43.2758
42.3609
41.7224
41.2865
41.4062
278.89
221.443
189.294
140.193
113.273
89.1143
75.8692
64.9834
60.5421
56.5135
53.6242
51.5517
49.4879
48.1983
46.7978
45.9495
45.1751
44.876
44.8837
45.2742
500.442
382.175
261.285
176.611
122.814
97.4997
80.243
69.028
61.1239
57.2396
54.3077
53.1118
52.1498
51.8889
51.5518
51.3913
51.1311
51.111
51.1907
51.4912
314.865
321.211
271.496
186.114
125.195
97.9619
81.2532
71.5022
64.3423
60.6409
57.3158
54.8764
52.9921
52.3703
52.3158
52.5993
53.2863
53.7081
54.6998
55.1436
180.818
223.695
200.323
148.447
117.805
100.099
85.8291
75.3649
67.2983
61.521
56.5515
51.8904
46.9817
42.5391
39.6724
38.5328
38.3153
38.3555
38.5006
38.2368
58.9251
52.2957
50.8706
52.9323
51.0106
45.6311
37.778
32.7872
29.127
27.4729
26.7225
26.4845
26.2624
26.2724
26.3123
26.442
26.8118
27.0865
26.9666
26.1162
298.758
155.192
119.994
90.7573
72.8961
60.7462
54.0793
48.5723
42.8702
36.354
31.4487
29.1937
28.7487
28.7993
28.9865
29.2184
29.5366
29.7197
29.77
29.2525
183.555
178.729
101.717
84.3317
73.1022
65.1322
59.8626
55.7573
49.5649
41.0064
32.9761
27.7419
25.0839
23.8791
23.0918
22.602
22.4159
22.3952
22.6698
22.8419
121.21
146.889
115.765
84.4567
70.2321
62.7041
54.8742
46.9714
38.7577
31.947
26.9864
24.1384
22.273
21.1822
20.349
19.7417
19.2471
18.7566
18.5524
18.2689
246.31
230.463
164.041
100.204
70.1935
58.5526
49.5185
42.3898
36.7276
32.437
29.8073
27.8577
26.5542
24.8365
23.4696
21.7166
20.2023
19.0748
18.3884
17.9493
274.365
181.34
118.67
87.9065
70.3813
58.2281
48.5566
42.6617
38.6024
36.311
35.2066
34.9265
35.0331
35.1638
35.1695
33.6745
27.2941
21.803
19.3626
18.6244
150.336
161.26
124.805
97.5226
80.3859
64.3514
52.7959
45.1334
40.1863
37.61
36.3137
35.9941
35.9696
36.195
36.2379
35.61
31.9619
25.638
21.6834
20.2937
218.504
184.284
165.972
121.145
86.1617
66.6965
64.6364
55.6319
46.1975
39.9952
36.7382
34.6606
34.487
34.7646
33.2899
31.9903
27.4809
23.2403
20.8569
20.2585
309.403
174.503
122.164
99.9161
85.6997
85.7259
79.0758
63.1151
50.9869
41.4347
37.0854
34.9247
34.5277
35.2558
34.8771
30.8234
25.8716
22.3202
20.8141
20.2736
149.517
125.324
98.1677
83.7509
75.7988
74.6055
69.7743
57.9398
50.6779
46.6983
43.7889
40.7742
36.9849
34.5779
32.404
30.3774
27.608
23.584
22.1913
21.2992
315.744
142.006
99.1549
81.5778
67.4325
63.9546
56.5494
49.0721
45.9068
42.9898
43.2688
43.628
38.8319
34.7061
30.8802
29.5339
28.7945
25.9856
24.0082
22.3215
146.156
158.916
132.535
100.892
73.4225
61.4505
55.2055
46.9231
44.5298
40.9614
41.3859
41.0631
31.6615
29.6764
28.9573
27.4414
27.1933
25.6048
24.3945
22.5107
143.222
171.743
134.866
90.5121
68.3263
55.979
57.6697
54.0203
42.8006
34.4687
30.5446
28.6387
26.9097
26.0118
24.4006
25.0824
25.1858
24.9089
24.3716
22.5939
165.589
128.349
109.447
81.2497
63.7903
50.6612
45.9239
40.9053
35.6853
31.936
28.2582
26.3691
25.0567
24.5455
24.5467
24.577
24.5824
24.2389
23.7005
21.989
360.243
139.081
100.712
73.1565
55.3702
44.7132
40.2355
36.4087
32.843
29.715
27.0436
24.9047
23.6806
22.9698
22.7072
22.2969
22.0208
21.4608
20.9872
20.239
206.72
125.674
85.9183
65.7308
53.1147
43.5522
38.4254
34.6852
31.3757
29.0215
26.6355
24.9131
23.4876
22.4433
21.799
21.2554
20.9078
20.5596
20.3114
20.2901
230.588
144.572
95.8771
70.3993
52.6632
41.2873
35.3116
31.4759
28.9707
26.9211
25.3328
24.2333
23.3027
22.6821
22.1414
21.761
21.4782
21.3446
21.3107
21.5038
296.215
232.847
169.544
117.081
74.0996
50.8217
39.4643
33.7595
30.0325
27.9629
26.2921
25.4768
24.8045
24.4861
24.2166
24.0534
23.9736
23.977
24.0222
24.424
192.99
224.974
214.446
159.776
87.6488
58.8013
44.4692
38.6163
33.9869
32.4233
30.2166
29.0364
27.6766
26.8798
26.3542
26.241
26.2535
26.3491
26.5474
27.1501
53.8619
107.282
107.501
88.2419
69.5662
58.8431
50.2589
44.2744
39.7243
36.6905
33.8761
30.8966
27.3495
23.9111
21.6683
21.1157
21.2296
21.7478
22.4593
22.6871
119.762
83.5191
68.765
61.155
57.2285
50.9282
42.994
38.1679
35.0434
33.4325
32.1893
31.2043
30.3138
29.5247
29.0227
28.5381
28.276
27.7261
27.283
25.7352
274.741
162.768
116.583
86.7803
67.8227
54.9181
45.6593
40.0659
35.2889
31.8475
29.8641
29.184
29.1055
29.2308
29.3961
29.6131
29.7283
29.7276
29.5379
28.5408
154.276
128.281
115.798
78.8828
62.9255
56.5274
50.3816
45.7593
38.5196
32.3843
27.5516
24.9035
23.4292
22.5584
22.0063
21.6429
21.5767
21.568
21.7333
21.7209
243.225
224.489
124.734
79.029
61.4663
53.388
45.3263
38.8116
31.881
26.96
23.5804
21.5484
20.2662
19.4219
18.8463
18.4617
18.2168
18.0047
17.9282
17.8646
406.897
257.367
157.981
90.9869
60.2524
48.5193
40.7861
35.2296
30.7942
27.4792
25.4532
23.8482
22.6464
21.2934
20.1267
19.0454
18.2963
17.8139
17.5334
17.4967
92.4426
137.526
119.406
77.3672
58.1224
47.2534
40.3407
35.9049
32.7713
30.7577
29.6496
29.0674
28.7111
28.137
26.991
24.1582
20.952
18.9881
18.1375
18.0014
116.184
129.105
110.683
80.8531
63.103
50.69
42.3764
36.9397
33.452
31.3647
30.2378
29.9117
29.7678
29.5945
28.9207
26.7644
23.4506
20.8939
19.5461
19.2445
176.349
165.293
149.555
115.311
73.6462
55.0453
48.7874
42.1512
35.9001
31.9354
29.836
28.7782
28.6015
28.6368
27.1687
24.5355
22.0435
20.4166
19.6453
19.5581
192.469
124.676
114.628
88.6649
65.2484
59.0759
52.7417
45.7513
38.6591
33.7764
30.9463
29.4692
28.9566
28.9853
27.9768
24.3575
21.9897
20.5644
20.0472
19.7628
121.17
119.56
87.1673
63.7784
53.8175
50.78
48.6956
44.0833
40.5213
37.3973
35.0615
33.3791
31.3512
29.3153
27.7576
25.5141
23.4224
21.9163
21.3306
20.552
188.307
146.953
89.1984
62.7829
50.624
44.7712
41.8392
39.5572
37.7302
35.0899
74.466
61.0161
48.0656
35.4953
28.2161
26.7797
25.2545
23.4109
22.3928
21.1358
357.823
164.759
101.41
71.2925
53.252
45.1814
42.2306
37.7749
35.6435
34.1907
34.3128
32.0603
28.8434
28.647
27.5732
25.7797
24.6315
23.126
22.2401
20.8357
101.595
149.577
134.627
84.5395
60.1164
48.0232
44.7289
41.014
33.5152
29.2256
26.7013
25.1829
23.9117
23.3496
23.2781
23.1749
22.9617
22.3056
21.695
20.2817
266.947
161.751
107.423
73.8547
56.0263
43.0264
39.0631
33.2389
29.3032
25.7043
23.7196
22.444
21.9164
21.7006
21.6811
21.6349
21.4948
21.0272
20.568
19.5746
239.715
153.987
97.095
64.8048
48.655
37.1006
34.3414
30.3007
27.3221
24.3786
22.481
20.997
20.3038
19.8754
19.7358
19.5526
19.4088
19.1733
18.9708
18.8198
150.527
130.936
76.3182
53.6605
45.3623
35.0757
32.3993
28.4579
26.2194
24.0408
22.4185
21.1614
20.3471
19.7669
19.4771
19.2684
19.1616
19.0928
19.0732
19.1652
221.889
133.926
84.8639
59.6911
44.8269
34.2904
30.2448
26.423
24.9079
23.1157
22.1149
21.3054
20.7995
20.471
20.2693
20.1521
20.1195
20.1446
20.2139
20.4861
179.882
158.183
114.928
81.567
54.7041
40.4691
32.8266
29.0451
26.4836
25.1101
23.9957
23.5019
23.1131
23.0039
22.9052
22.8637
22.8623
22.9104
23.0122
23.3687
159.442
190.515
183.793
123.666
68.469
49.1418
39.6
36.194
33.0335
31.6234
29.5747
28.3325
27.0702
26.425
26.1512
26.1581
26.2283
26.4149
26.5789
26.9535
68.9299
97.7008
99.4993
90.8385
75.1259
63.796
55.3451
49.3519
44.9269
41.2909
37.7002
33.8548
30.1233
27.1284
25.4013
24.6557
24.4293
24.2609
24.2454
24.14
176.024
126.809
93.904
72.881
61.9383
52.2223
45.2117
41.0334
38.3316
36.4207
34.8859
33.4409
32.2976
31.0369
30.0092
28.6703
27.5994
25.7346
24.774
22.5874
362.652
210.568
135.132
89.7743
71.1805
56.3789
48.8061
43.5042
41.398
39.7755
39.7752
39.3115
38.9473
38.7012
38.3191
37.9754
37.4417
36.5971
35.3262
33.7356
213.418
163.838
119.24
75.806
65.2213
55.5886
50.7204
44.8327
39.7789
35.344
32.9325
30.8404
30.0167
28.654
28.1244
27.3437
27.1097
26.7818
26.7471
26.836
206.268
148.107
113.711
74.6199
62.5463
51.8051
46.3176
39.636
34.8699
30.4655
28.3563
26.0451
25.4198
24.3524
24.2095
23.864
23.8714
23.835
23.8211
24.0746
201.803
163.416
118.004
73.3372
59.3361
47.2085
43.0462
37.2617
34.4103
30.9267
29.2381
27.0857
25.9086
24.4988
24.0447
23.5874
23.6209
23.6389
23.6913
24.0208
142.233
152.6
117.892
70.3923
58.4607
46.3048
43.0752
38.5499
36.3944
33.8438
32.546
30.9587
29.7718
28.0663
26.472
24.8275
24.1803
24.0813
24.0734
24.3065
213.009
141.644
106.51
71.0017
60.9432
48.9237
44.0148
38.6068
36.2483
33.7985
32.9219
31.961
31.2689
29.9678
28.4732
26.5896
25.4146
25.1128
25.1581
25.4041
411.999
189.466
132.798
87.4483
65.5582
52.7754
47.2081
40.8574
36.6301
33.7812
32.3068
31.3097
30.5475
29.6909
29.1511
26.6343
25.6907
25.6087
25.6344
25.7644
189.232
124.705
106.946
71.0569
58.2026
52.6943
48.537
43.7909
38.6518
36.4058
34.3542
33.1266
31.8005
30.7143
30.2992
28.7424
26.7326
26.1313
25.9899
25.8822
161.122
119.572
86.1447
57.8052
51.2147
46.7856
45.9841
44.6109
42.2648
39.4842
36.8201
35.1279
34.0022
32.5982
32.0994
30.4469
28.0855
26.9838
26.4967
26.0452
241.801
135.613
86.6809
57.3267
50.3073
43.1675
41.0648
41.3039
40.8195
38.5499
57.0736
53.223
41.1965
34.8833
33.2865
31.6071
29.157
27.5413
26.7464
26.1887
239.61
161.889
93.5662
62.8809
52.4285
44.5836
42.546
40.3514
38.8111
37.4086
35.2384
33.2557
33.0593
33.0202
33.0843
31.0054
28.6549
27.1067
26.2187
25.6782
178.711
163.206
125.957
78.5457
62.2535
49.3049
45.3856
39.9857
35.074
33.1259
31.3501
30.8642
30.0078
29.7111
29.5197
27.7124
26.8754
26.0075
25.3594
25.0336
518.858
225.454
108.23
69.437
58.1995
43.4913
41.3552
34.0145
31.6898
27.2762
26.8615
25.5029
25.6878
25.376
25.3256
25.1402
25.0169
24.7028
24.5355
24.6052
188.515
162.592
101.833
62.8881
51.7129
38.2173
37.3471
32.2847
29.6911
26.1479
25.0482
23.6255
23.4799
23.2315
23.3866
23.4528
23.7005
23.884
24.0658
24.3956
155.649
142.655
79.0501
55.635
48.0389
36.1213
35.2101
30.2125
28.9693
26.1882
25.3733
24.058
23.9203
23.6003
23.8739
23.9748
24.2974
24.5044
24.6674
24.9289
136.494
132.899
89.398
60.2766
47.754
36.1505
33.5303
28.698
28.0114
26.0237
25.6629
24.8612
24.9384
24.8287
25.118
25.2706
25.6016
25.8361
26.044
26.2994
207.491
136.424
93.4387
64.9888
52.8198
40.232
36.0935
31.7002
30.5661
28.9629
28.7564
28.3916
28.5267
28.5469
28.7472
28.8402
29.0029
29.1735
29.3176
29.5011
208.259
176.357
139.206
88.966
63.371
49.5378
43.9799
40.4869
38.7427
37.0395
35.4524
34.2641
33.674
33.6373
33.8929
34.1022
34.352
34.4878
34.5758
34.5183
48.9491
76.402
91.5686
87.5599
74.2505
63.4523
55.5873
49.6706
45.0928
40.8604
36.7375
32.7882
29.716
27.7024
26.6713
26.0428
25.7487
25.4862
25.3813
25.0557
195.935
140.939
102.795
75.0575
62.4448
50.968
45.0288
41.0961
38.6325
36.5432
34.7822
32.741
30.5425
27.9967
25.7055
23.6054
22.09
20.786
20.0935
19.1411
397.688
224.701
149.913
88.958
86.7591
62.3872
67.6837
58.1177
63.1423
60.0169
62.4132
60.5417
60.8287
59.087
58.6402
56.9928
56.1491
53.9475
52.2167
51.1128
204.965
170.192
132.349
76.4622
79.5635
59.4847
64.5084
53.3718
55.8565
50.2946
51.4348
48.1506
48.0452
45.8189
45.5466
44.2751
44.0434
43.3009
43.0992
43.1874
219.482
137.323
117.543
70.7871
75.1492
55.4512
60.1021
48.7713
50.8373
44.6373
45.289
41.7717
41.8543
40.1455
40.2303
39.6577
39.7191
39.415
39.1048
39.4134
362.509
162.235
110.898
70.3964
71.0049
51.8396
56.6761
46.5579
49.5752
44.051
45.2378
41.7995
42.0286
40.0346
39.9683
39.3124
39.4829
39.3794
39.3406
39.7642
233.386
172.497
128.764
69.0428
74.0869
51.86
58.109
48.6645
50.7238
46.4354
46.8402
44.1764
43.5566
41.3421
40.5573
40.0478
40.281
40.1515
39.8394
40.1189
321.232
160.737
116.823
68.3758
73.7199
53.892
56.4161
47.7496
49.1892
45.5739
46.9847
45.2266
45.4429
43.5107
42.3757
41.3883
41.5538
41.5974
41.5953
41.9082
255.733
144.186
124.724
72.7234
76.444
59.301
56.3021
48.9478
48.8715
46.4763
47.8376
46.824
47.1477
45.7994
45.3011
42.5715
42.0407
42.101
42.0416
42.2474
225.959
132.577
105.195
66.8503
65.6657
58.4502
60.0333
55.5229
54.8208
54.7253
54.514
54.0829
53.3566
52.5372
52.4246
45.3732
43.1188
42.638
42.6083
42.4637
212.291
141.072
96.9427
64.8639
62.1873
54.3916
59.4587
63.4259
63.2836
60.1618
57.7511
57.9888
58.7513
57.8672
55.5176
47.148
44.4241
43.4744
43.106
42.5294
159.194
147.031
97.4643
61.6508
63.1119
51.7674
54.7518
62.8629
64.8498
59.6069
56.5366
56.5717
60.7233
59.6702
56.0666
47.5883
44.8829
43.7966
43.4838
42.8786
241.189
144.057
102.283
65.2985
65.0312
53.4887
57.8012
61.0085
61.8833
60.5147
58.571
58.0772
59.326
58.7486
55.738
47.1034
44.5716
43.4605
43.0708
42.3783
166.649
141.99
129.854
77.6632
79.622
60.354
57.4737
48.9009
51.2595
48.8792
50.5147
49.6729
50.3999
49.4969
46.484
43.7635
43.134
42.5084
42.1087
41.5235
280.182
169.351
113.209
68.7079
73.2336
50.3651
55.0193
42.951
44.259
37.9547
40.795
38.2977
40.7684
39.8302
40.8812
40.574
41.1466
40.9065
40.8981
40.7464
236.35
148.514
107.922
66.4708
69.1617
47.3962
54.843
41.0936
43.3397
36.9464
38.714
36.3194
37.8709
37.3006
38.2651
38.3793
39.1153
39.3563
39.7013
40.0623
233.142
164.655
91.6027
70.2491
63.5934
45.619
51.3547
38.9539
43.7569
36.9383
39.9752
36.7728
38.873
37.6908
39.1106
38.8818
39.7479
39.9069
40.2618
40.5551
205.227
156.115
108.796
70.4736
68.3083
47.0538
52.0995
39.1781
44.405
37.3696
40.8974
37.6942
39.9859
38.9592
40.442
40.3836
41.2742
41.5844
41.9807
42.2766
327.052
162.634
103.11
66.1788
70.4918
48.7719
55.1735
42.7342
48.2817
41.7436
45.4212
42.3783
44.7183
43.5973
45.0897
44.8434
45.679
45.8529
46.1955
46.3749
180.111
163.061
128.084
78.6975
89.3609
63.5835
70.2012
55.2563
59.9946
52.0048
55.212
51.6569
53.8115
52.6602
53.9895
53.7541
54.4506
54.5374
54.7523
54.7491
39.8865
82.4273
87.5995
80.8471
68.0606
58.5156
51.4683
44.9462
39.3383
34.2374
30.7831
28.4963
27.1224
26.1485
25.6051
25.2113
25.0746
24.8166
24.5955
23.8941
35.5909
36.5879
75.5014
37.7563
35.9046
37.4524
82.113
33.7765
76.2671
65.2782
35.4034
34.2057
82.7575
69.2772
73.5164
35.3597
35.8882
36.4203
85.2749
35.9991
35.5082
65.9586
36.2054
35.7945
87.0331
75.2588
35.4245
34.4548
239.346
304.954
228.208
98.5313
78.204
95.0211
75.0664
199.45
219.558
206.538
72.1564
61.8589
69.4245
59.8196
192.12
204.802
211.281
58.0411
48.8831
57.9058
53.0587
199.755
220.471
233.919
46.7937
42.9788
51.8655
48.9441
202.559
234.959
232.709
41.9592
39.8996
47.8351
45.0296
200.401
229.572
204.921
39.3014
38.6673
44.2676
41.5532
191.322
197.464
187.332
38.6584
39.1656
40.5684
39.0784
168.86
187.272
175.377
39.4829
39.5344
38.9516
37.2993
217.298
246.005
207.851
84.2751
69.6692
73.0148
58.603
218.034
210.918
226.485
65.2599
57.6555
56.2199
52.1826
229.015
228.897
235.317
56.1803
52.9539
51.118
48.7938
240.034
236.363
235.807
52.2319
50.4443
48.6227
48.9367
235.586
233.314
224.181
49.6673
47.0715
49.1538
49.0735
200.039
216.346
161.639
46.3837
42.8751
48.8871
45.9527
182.329
150.86
150.962
41.4367
38.9205
43.3985
38.0386
174.419
159.266
157.829
38.5829
36.8622
37.1667
34.1853
189.871
227.798
173.785
67.7684
56.6498
64.5764
53.9064
196.908
168.763
157.69
54.6933
51.7172
52.2774
51.0016
210.601
147.573
124.982
50.7278
47.9968
50.4631
48.2733
219.146
121.1
122.509
47.5585
47.6069
47.7232
46.4231
208.283
124.845
121.706
47.8671
48.5754
46.2342
46.9907
143.708
114.576
122.148
48.6118
46.1756
46.8786
38.1036
145.33
139.458
158.876
42.7426
36.9546
35.9809
33.409
153.387
159.068
141.082
36.2919
33.9782
33.1891
32.0065
188.144
329.338
242.96
65.628
54.8527
78.1312
63.6918
182.766
235.971
204.357
52.7692
50.8324
60.5422
54.8221
137.68
195.148
166.66
50.0205
46.3391
52.2279
43.255
112.031
160.51
153.442
45.1675
44.5967
40.3022
35.6677
103.573
149.746
147.579
44.8452
45.3048
34.9762
34.3717
135.801
152.457
162.889
44.3481
36.1312
33.9241
32.15
163.347
164.68
165.319
34.7237
32.6109
31.4278
30.1261
142.798
164.487
146.643
32.352
31.494
29.8663
28.6553
67.3552
78.9265
65.988
56.8457
50.0906
56.3621
49.5866
54.3278
61.6511
53.8984
48.1884
42.4431
47.7465
43.6512
43.2377
52.1275
47.6325
40.3234
35.7157
42.4265
39.2551
37.9831
46.4376
43.3824
34.5852
32.109
38.3344
35.8228
35.3915
42.3313
39.7523
31.466
30.1982
35.0265
33.0798
34.5255
39.0402
36.8371
29.9027
29.5415
32.5566
31.2419
35.0291
36.1031
34.9288
29.5045
29.6979
30.8532
30.0007
36.2137
34.7717
34.3625
29.7721
29.7938
29.8028
29.2033
61.295
60.9458
52.0596
52.0296
47.4599
46.214
42.4375
51.9523
50.3202
47.0221
45.9758
42.8383
41.7189
39.7489
47.5139
46.0533
43.7844
41.9127
39.3471
39.0347
37.2806
44.5912
43.5122
43.6986
38.6064
36.6451
37.1612
49.1946
41.4416
44.0979
44.1128
36.0361
34.4943
51.3805
50.5344
38.0217
43.7848
41.0545
34.0423
32.5114
48.4006
43.1985
34.9564
39.4202
35.8465
31.9188
30.2796
42.1682
35.8009
33.9128
34.8714
32.1891
29.8743
28.9839
33.3906
28.9801
50.3942
53.9137
47.7403
43.8942
41.2391
42.7053
39.2538
46.7689
46.5814
45.4794
40.7683
39.3908
38.645
37.5798
43.4669
44.9921
43.5174
38.7701
37.2306
37.207
36.4183
42.9168
43.1385
42.6476
36.6179
48.0084
36.3762
36.834
43.713
42.6655
43.4377
49.9861
49.1271
37.1873
37.049
41.0859
43.1856
35.1089
47.4743
43.5372
36.089
31.9882
35.3076
33.1774
31.0928
42.8457
38.3371
31.4494
31.3226
32.2863
31.0229
30.9819
35.7704
29.7193
31.3767
30.2786
48.4107
60.4695
54.5877
43.8368
39.6116
46.9997
43.2343
45.2616
52.7483
47.9609
38.7897
37.2653
42.1662
38.2769
41.8082
45.7518
38.5321
36.7024
35.2723
36.6174
32.266
40.8793
36.2901
32.7413
35.0184
35.2634
31.2001
29.2094
42.0555
32.2037
31.4711
35.4957
34.8476
28.7558
27.4875
33.0992
30.9238
28.9009
33.397
29.4215
26.9644
25.2777
29.8056
28.2206
27.0757
28.8053
28.3726
24.8295
24.1404
30.073
26.8679
26.5307
28.4351
29.0185
24.0729
24.0093
47.4066
52.0809
46.8627
48.3347
44.6111
47.2
44.5521
40.4852
45.4244
41.9394
43.1835
38.7864
43.7816
41.2532
34.7409
40.8434
37.9765
37.5932
35.3309
40.4201
38.2631
31.5363
37.1332
34.7978
34.7123
32.9355
37.546
35.3806
29.7503
34.0649
32.2864
32.4631
31.4258
34.7155
33.1214
29.0349
31.8176
30.6373
31.1181
30.2561
32.72
31.777
28.9831
30.2871
29.4247
30.0136
29.4176
31.4962
30.556
28.8126
29.2047
28.5448
29.1597
27.9047
30.2192
28.8917
45.2406
43.7111
41.0293
45.3679
43.7647
41.4414
40.6797
41.3925
40.4745
38.7402
43.2075
41.2525
40.5197
39.5679
38.1173
38.0784
36.5085
40.5519
38.4935
39.1203
37.6601
36.6189
36.7436
37.1433
36.8191
36.8638
36.1865
36.6058
38.2508
34.5927
37.384
34.6584
37.4848
34.2475
37.9836
31.9275
60.4459
48.3911
33.8067
32.5451
63.3592
45.6481
29.7207
45.58
35.5335
32.118
30.8346
41.6637
33.7919
28.3719
32.8751
28.5742
30.4342
28.9957
32.3063
29.6908
39.9178
41.0698
38.1788
40.2743
39.7366
40.3719
38.735
38.3079
37.638
36.52
39.6726
39.0138
38.4266
37.4763
36.3903
36.149
35.393
38.6405
37.4729
37.1536
36.3127
42.9102
52.8019
36.211
40.6065
38.2824
237.078
35.8938
58.3942
73.3806
48.0613
194.06
48.7669
178.115
58.1931
50.3667
34.8165
32.189
68.2566
48.4521
34.0587
33.524
38.737
31.9521
31.8546
44.0317
35.222
33.4298
32.4777
29.2773
31.7149
30.0798
33.4186
30.0473
32.0626
30.5623
38.5165
45.1038
41.7606
41.515
39.0757
44.2926
41.0677
36.1989
40.5981
36.7676
38.5647
37.0719
39.7048
36.0568
34.3919
35.2293
31.5224
36.6106
35.6444
34.9063
32.8579
34.2599
30.6865
28.9015
35.3093
34.2311
32.4072
30.7548
33.2621
28.4335
27.1078
33.8569
32.2955
30.2632
29.1412
29.2329
26.6351
25.1503
31.7437
30.9151
28.8386
27.8694
28.6064
24.7619
24.1757
30.8408
30.5774
27.6281
27.2759
28.9166
24.1251
24.047
30.4722
30.0791
27.2198
26.8968
45.2273
47.5488
45.6433
55.3787
52.4621
55.4729
56.5522
39.6342
45.0102
42.6984
50.9907
48.6211
56.2985
55.088
36.9262
41.9644
40.0158
48.7521
48.8024
54.8549
53.055
34.7554
39.2992
37.0773
48.4824
47.7732
52.1377
50.0453
33.4454
36.4168
34.8581
47.8647
47.6581
49.6946
49.2322
32.0839
34.4938
33.7946
47.3245
46.3012
49.3615
49.9988
31.0517
33.5753
32.6659
46.1516
45.4859
50.032
49.408
29.1482
32.2895
30.7353
45.0522
43.5465
49.0632
47.9047
45.0198
42.1053
42.0655
54.1831
56.5144
49.9192
54.7351
42.8823
42.0902
41.5936
56.6271
56.1876
55.805
57.2193
40.2618
41.2436
39.5625
55.9309
53.0992
56.8692
52.8468
37.3729
38.9687
54.8364
52.0371
49.4373
51.2795
49.7275
35.5117
56.7073
54.2627
48.9001
48.185
49.835
48.9522
34.2609
51.4119
42.2239
48.4553
50.1411
48.5749
50.8514
32.9914
39.8991
35.1653
50.41
49.973
51.5082
51.3399
30.9353
34.1662
31.8367
49.6054
48.2951
50.8772
49.2824
41.1865
41.4029
40.4228
49.2378
54.3649
50.415
53.981
41.0951
40.2769
39.6792
55.5344
57.1519
54.7034
55.6608
39.3634
39.456
38.4472
56.89
52.8403
55.6319
53.3697
54.9142
37.9209
36.6452
51.2423
49.482
51.9127
48.8677
55.8934
36.3533
35.2054
49.5634
48.8095
48.3059
47.5237
43.7167
34.8943
34.779
48.4674
50.9895
47.8711
50.2116
36.0154
34.8216
34.2865
51.675
51.6576
50.793
51.0883
32.1362
34.0283
32.6346
51.1874
49.4478
50.8084
49.6669
40.7203
45.2038
42.0477
51.7108
53.6337
53.0487
49.9123
39.1512
40.6511
37.186
53.9913
54.4799
48.5703
47.4148
37.9107
36.2707
34.9224
54.5346
53.4156
48.1992
48.8901
35.749
34.5464
32.859
52.3095
49.8318
48.4285
47.1506
33.6626
32.4331
31.6032
49.3926
48.7124
47.2972
47.5241
32.9774
31.3598
30.5441
48.8451
50.0178
47.3167
46.8096
33.0587
30.378
30.237
50.359
50.4987
46.8896
46.8716
32.3295
30.1972
29.519
50.2657
49.3875
46.6369
45.5868
56.9322
60.8971
62.9305
72.9795
70.3209
76.2759
80.4328
54.3271
62.806
62.0623
69.0638
71.5101
80.5064
81.5346
55.0872
61.9721
60.7176
72.5364
73.1598
82.0034
84.7884
54.3296
60.0114
58.5684
72.4188
74.3642
85.4892
86.8105
54.3976
58.4196
58.1744
74.8158
75.1669
86.9909
86.321
53.3882
58.1225
58.1196
74.7519
75.7589
85.4176
82.0326
52.8875
58.1095
57.5054
75.9271
76.0066
81.406
80.5392
50.879
57.2611
56.0682
75.8229
74.3153
80.5256
79.6723
63.129
55.2797
61.7767
74.3301
81.3498
71.5017
82.6471
63.4312
63.085
64.9086
82.1126
83.8752
84.5427
88.5676
61.1608
64.8233
61.2409
84.6427
88.9445
90.4086
98.1238
58.0469
59.5593
56.9489
90.0404
91.3959
100.14
102.041
57.6436
56.7581
56.1584
91.4891
90.4885
102.027
99.8706
58.6291
56.7366
59.8549
89.3252
84.2273
97.8017
89.7333
58.1552
60.4152
59.8286
82.8767
81.1577
87.0453
82.7881
56.4137
59.3303
57.2576
81.0476
79.707
82.2922
80.3534
61.4733
56.3003
61.029
71.6802
83.0921
74.4519
82.5254
64.9011
61.8791
63.1584
85.0344
89.0488
83.5308
85.9601
61.3705
63.1921
61.9515
90.8812
98.5547
86.8034
90.7994
56.7932
60.7127
58.2478
100.619
102.192
91.8802
93.0633
55.9456
57.8659
57.4943
102.125
100.278
93.1639
92.4949
60.0419
57.8927
59.4621
98.2135
90.2656
91.5216
86.828
60.2043
60.0069
59.7074
87.5426
83.0446
85.2839
82.6454
57.3592
59.3181
57.5558
82.4897
80.2271
82.2593
80.5734
60.5986
58.5307
54.6761
77.0591
81.3423
76.0696
68.8957
61.7293
53.468
53.5799
81.749
83.7415
68.5459
73.2869
61.2043
54.6642
55.135
84.2837
86.6494
75.1594
73.2482
58.8278
54.5739
53.8237
87.3532
88.6221
72.8968
75.4719
58.12
54.3432
54.7375
88.9084
88.3912
76.8577
76.1676
59.0231
54.5199
54.2942
87.7292
84.5904
76.0807
77.3672
59.0535
54.5857
54.5688
83.8573
82.0816
78.0673
77.1784
57.2598
54.3047
52.8006
81.8201
80.3046
77.1139
76.0257
37.1538
36.1429
37.2604
35.1378
36.9926
35.633
37.7485
41.7388
36.7824
52.1658
40.8589
38.3138
36.721
188.589
52.6487
46.0727
68.4662
225.818
42.8525
57.8925
245.247
36.7681
36.9032
37.0476
37.6153
36.2551
36.7286
37.3088
37.4064
35.219
36.4442
37.9477
35.7077
38.072
37.5522
42.6605
41.7557
37.5785
55.9187
36.987
194.669
39.623
54.8674
230.841
49.3248
75.2862
60.9022
250.666
45.3275
38.4896
34.1729
37.4304
33.526
37.5574
33.8925
38.1065
60.8018
47.5576
75.3507
209.604
48.6638
59.1458
192.436
61.6104
48.6445
72.5121
98.1708
49.5187
55.8665
127.529
38.5951
34.7487
34.9778
38.101
34.3525
38.308
38.2401
38.7408
33.6338
34.5923
37.822
34.0039
38.2162
38.1871
63.5232
213.366
50.912
82.4298
61.9313
197.243
52.0724
63.0528
100.283
49.9922
78.1263
56.5588
132.015
51.8943
50.4155
67.4582
45.938
211.95
42.2081
226.733
56.1758
35.8648
36.0201
35.4
34.8849
36.1728
35.5126
34.8957
36.8125
37.8976
35.5375
35.32
36.6918
38.5142
35.0035
43.2786
41.7417
57.3799
36.8962
231.9
36.1033
39.426
51.4843
217.402
78.1525
48.7263
233.199
57.2472
44.4128
35.9692
35.0564
36.4498
35.7185
35.6166
34.9616
36.5441
36.9784
35.1486
38.3052
35.5481
38.6367
34.9853
37.1244
56.593
74.1258
48.0434
116.409
48.6115
160.173
55.8779
40.1544
38.9679
36.2848
35.5516
39.4398
39.7145
35.5572
40.1091
39.3791
36.1924
34.9153
39.4652
40.0438
35.3945
59.6215
198.871
86.2493
51.1008
182.62
59.4314
52.177
58.5031
116.377
85.6601
52.5907
155.198
58.1253
52.5148
40.1267
35.2354
39.1025
35.2301
39.7317
35.1692
39.4075
40.0973
34.4346
39.373
34.8677
40.0707
34.9103
39.4067
166.614
200.365
167.672
108.469
87.9177
114.934
92.044
136.922
144.83
131.713
75.6356
69.1772
80.3764
69.8633
123.772
125.849
123.653
63.9739
58.8385
61.084
55.8527
118.979
121.94
121.143
54.8229
53.2526
51.6359
49.0925
111.412
119.349
118.675
50.882
48.3802
47.3923
45.9623
106.407
117.614
116.907
46.4074
46.0423
45.3115
45.2894
102.585
115.787
114.43
45.7562
45.676
45.4423
45.9454
89.7901
112.741
105.604
45.7709
41.9014
46.8308
44.753
204.455
226.934
192.524
140.457
114.692
135.819
110.922
159.559
294.056
324.35
185.245
168.281
184.57
284.597
100.61
217.095
219.178
116.164
108.991
109.722
212.271
87.8707
191.493
191.972
96.7198
92.4361
91.2736
190.335
77.6904
197.245
200.936
84.0603
82.051
78.5842
205.881
75.1717
201.573
213.624
78.4241
76.4706
75.6795
215.356
72.6732
202.84
216.363
71.94
70.5966
73.1664
214.349
70.0973
195.537
202.488
68.4579
67.9176
70.3887
198.506
70.1113
188.91
192.489
68.1423
68.4584
69.9534
191.535
105.881
124.33
111.495
46.7934
46.7916
44.7128
44.4254
164.969
177.9
154.007
116.386
97.8023
112.807
89.748
132.697
243.761
261.786
153.876
138.587
151.228
232.009
91.9328
216.685
216.624
101.231
95.0434
95.6762
222.11
87.5459
221.432
233.295
87.0003
86.0732
87.898
235.973
88.6562
236.764
242.023
87.105
87.8591
88.2324
242.823
88.5318
239.386
241.804
88.1191
87.447
88.9677
240.032
84.3987
222.754
230.728
83.8274
82.0657
85.9169
220.245
68.0641
185.045
180.219
71.8416
69.2197
71.5709
175.139
65.4513
184.97
176.73
67.1131
67.311
65.3099
180.149
110.103
115.879
108.162
42.7321
40.5136
40.2129
37.5366
147.401
170.275
145.381
102.129
80.7027
99.9034
77.8792
113.311
208.409
231.86
132.934
115.455
132.623
204.292
81.2701
190.601
169.456
85.0709
82.2639
83.6651
164.946
78.3119
204.005
164.925
79.4676
78.7942
79.4586
167.523
74.4074
217.396
176.337
78.966
79.787
74.4553
183.494
77.8428
216.228
193.296
82.3332
82.5603
77.0203
192.939
82.6356
179.943
175.607
84.6444
84.5154
83.0572
156.471
60.2483
135.562
129.382
70.6567
64.555
64.3823
131.836
55.802
156.516
152.153
57.1843
56.9995
56.1639
153.788
101.224
98.9105
90.0256
37.8338
34.2843
36.2598
31.0949
150.195
182.862
180.175
98.1618
78.8192
101.066
91.8788
120.826
212.003
249.145
132.453
113.572
137.646
224.117
85.2913
187.097
199.577
84.399
82.2468
88.7338
198.839
80.1308
155.694
180.339
82.0246
79.7491
82.156
167.082
63.8939
123.425
148.5
70.2208
68.8229
67.7363
142.152
57.9735
106.557
109.84
66.9943
66.2986
59.9166
105.727
51.5549
106.419
106.689
53.7894
51.8584
51.2454
115.096
57.7602
157.8
157.324
56.4757
57.3234
57.489
162.759
56.5521
162.057
165.107
56.9891
56.4715
57.0586
163.476
88.1849
100.155
87.6795
35.0832
30.5552
32.8537
26.7982
161.512
183.28
159.656
101.562
84.4611
101.267
82.8798
133.401
146.252
138.609
74.1475
64.7421
72.294
65.3688
111.85
126.827
111.171
57.301
51.3771
58.9881
50.9494
100.033
103.106
101.101
45.651
41.6918
45.4924
43.2917
98.5325
96.5864
91.8954
39.8043
38.61
40.1745
36.8385
99.0853