/*--------------------------------*- C++ -*----------------------------------*\
  =========                 |
  \\      /  F ield         | OpenFOAM: The Open Source CFD Toolbox
   \\    /   O peration     | Website:  https://openfoam.org
    \\  /    A nd           | Version:  10
     \\/     M anipulation  |
\*---------------------------------------------------------------------------*/
FoamFile
{
    format      ascii;
    class       volScalarField;
    location    "6.7";
    object      omega;
}
// * * * * * * * * * * * * * * * * * * * * * * * * * * * * * * * * * * * * * //

dimensions      [0 0 -1 0 0 0 0];

internalField   nonuniform List<scalar> 
12920
(
143.325
87.1278
76.7743
86.853
87.816
82.4597
70.48
60.7819
53.7878
49.5385
47.3897
46.4265
45.6844
45.3421
44.9858
44.8471
44.8344
45.0662
45.3655
44.1186
133.709
123.022
136.568
139.481
136.962
124.044
101.961
84.6596
71.7995
63.6358
58.6925
57.3679
57.5021
58.2309
58.5934
58.9001
59.0674
59.3987
59.5867
56.2831
63.3826
154.518
159.67
141.746
131.183
121.867
105.281
90.543
77.5706
68.1902
60.9102
56.0415
52.668
50.0655
47.9826
46.1981
44.9856
43.8524
43.5151
42.1162
66.7066
166.149
179.698
159.137
139.525
122.83
102.254
85.7297
72.3108
63.1117
55.8951
50.9087
46.813
44.1273
41.8305
40.2409
39.049
37.9621
37.1385
35.9529
255.941
266.994
257.651
199.588
149.984
123.293
101.819
87.6342
75.5999
67.663
61.7138
57.3002
52.1407
47.1203
42.6593
39.8982
38.4081
37.3236
36.6538
35.8747
282.051
249.411
212.349
173.932
140.433
117.799
99.6576
89.4689
81.8602
76.8337
72.8217
70.2102
68.0232
63.0471
55.6709
47.6143
41.8844
38.9939
37.8337
37.3172
305.232
255.493
209.283
183.114
153.803
127.684
105.094
90.6676
82.1094
76.4002
71.1008
67.0096
64.4033
62.2648
58.5071
52.5189
46.0348
41.5686
39.675
39.234
276.147
252.209
252.482
221.201
169.674
137.58
201.809
145.501
129.626
120.72
115.273
108.43
104.502
100.974
63.3226
52.8944
45.2852
41.469
39.8058
39.2863
95.9604
197.679
209.942
199.468
161.943
234.31
337.292
228.232
195.204
194.695
200.785
202.809
198.164
190.08
122.23
57.0081
46.0234
41.6223
40.4504
39.5796
179.992
182.961
166.643
151.369
129.688
189.786
270.834
215.679
218.702
232.663
239.717
230.991
191.264
182.672
122.049
61.8683
50.1705
44.1337
42.4305
40.4271
283.226
191.902
167.356
150.296
123.18
172.739
234.772
189.296
200.358
214.005
218.509
198.721
136.406
152.108
105.372
60.9318
52.7254
46.2908
43.153
40.5704
77.7835
222.979
207.219
162.207
124.713
163.88
237.837
187.232
172.501
131.319
109.146
103.762
148.799
163.08
98.675
55.974
50.0491
45.5143
43.8993
41.3184
69.8367
188.264
187.221
155.22
130.775
118.278
183.093
146.147
121.32
103.109
97.9938
98.8554
98.8544
97.0788
55.6493
51.1182
47.9255
45.8602
44.7154
41.4059
173.407
182.007
166.373
143.102
126.5
104.755
96.5239
83.0295
73.6633
63.8426
57.8952
52.7256
50.4852
49.2261
47.9744
46.7213
45.8807
44.9944
43.6388
40.2746
369.25
202.849
175.206
138.526
117.899
95.8757
86.7101
76.3855
68.1491
61.2681
55.5182
50.7619
47.495
45.2767
43.7545
42.8035
42.1267
41.4438
40.4061
39.5808
530.525
200.845
174.582
127.168
115.199
94.9138
83.5007
74.2892
66.4407
61.1063
55.7167
52.1117
48.5452
46.2676
44.3899
43.2643
42.3498
41.7123
41.2743
41.3901
288.335
221.345
189.363
140.419
113.327
89.1989
75.9
64.9929
60.5239
56.4944
53.6051
51.5344
49.4721
48.1836
46.7841
45.9361
45.1605
44.8591
44.8655
45.2531
485.89
382.442
262.273
177.366
123.207
97.6029
80.293
69.0589
61.1288
57.2291
54.2886
53.0871
52.1223
51.8613
51.5249
51.3668
51.1069
51.0866
51.1657
51.4642
303.978
319.29
272.572
187.509
126.046
98.1898
81.339
71.5381
64.3536
60.6446
57.319
54.8791
52.9848
52.3508
52.2904
52.5683
53.2553
53.6782
54.6683
55.1197
178.513
222.446
200.936
149.16
118.041
100.204
85.904
75.4025
67.3065
61.5145
56.5517
51.9096
47.0179
42.5692
39.672
38.5097
38.2853
38.3258
38.4751
38.2188
59.2206
52.9116
51.0999
52.889
50.9847
45.6976
37.8455
32.8271
29.1376
27.462
26.7016
26.463
26.239
26.2486
26.2877
26.4156
26.7815
27.0656
26.9498
26.1094
288.911
155.598
119.774
90.6814
72.8902
60.7751
54.0802
48.5888
42.9296
36.4221
31.4901
29.1915
28.731
28.779
28.9653
29.1978
29.5176
29.7063
29.7622
29.2559
172.713
178.492
102.254
84.3401
73.045
65.0812
59.8034
55.7181
49.5984
41.0962
33.0701
27.7869
25.0976
23.8811
23.09
22.5967
22.4079
22.3856
22.6572
22.835
120.113
148.076
116.526
84.5986
70.1901
62.6607
54.8733
47.0062
38.8151
32.003
27.0236
24.1548
22.2787
21.1823
20.3473
19.7398
19.2456
18.755
18.5499
18.2657
238.928
228.338
164.002
100.569
70.343
58.5839
49.5315
42.4155
36.7497
32.4524
29.8071
27.8521
26.5471
24.8352
23.4728
21.7237
20.2109
19.0799
18.3901
17.9468
293.729
182.563
119.007
88.0358
70.4486
58.2978
48.5946
42.6832
38.6039
36.2967
35.1795
34.8908
34.9926
35.1245
35.1338
33.6902
27.38
21.8446
19.376
18.6224
144.373
161.334
125.419
97.6847
80.438
64.4172
52.8604
45.1677
40.1992
37.6003
36.2871
35.96
35.9305
36.1541
36.2031
35.598
32.0254
25.6962
21.7112
20.2937
223.31
183.423
164.56
121.382
86.384
66.7898
64.7238
55.6747
46.2238
39.9987
36.7284
34.6351
34.4508
34.7266
33.264
32.0016
27.5387
23.2759
20.8689
20.2543
293.109
176.915
122.277
99.9959
85.6355
85.6337
79.1132
63.1616
51.0406
41.4511
37.0735
34.9001
34.4876
35.2088
34.8324
30.8589
25.917
22.3437
20.8186
20.2702
149.929
124.969
97.7637
83.5199
75.7586
74.604
69.8956
58.0208
50.6493
46.6547
43.7652
40.7576
37.002
34.5695
32.3813
30.364
27.648
23.6034
22.1951
21.2972
317.214
144.004
98.8353
81.3988
67.4439
63.9998
56.5829
49.0277
45.8719
42.9415
43.2087
43.5898
38.9328
34.7159
30.8702
29.5139
28.7898
26.0102
24.022
22.3249
147.817
158.693
131.969
100.696
73.5538
61.5482
55.2505
46.9068
44.5032
40.9423
41.3019
41.1435
31.7199
29.6648
28.9349
27.426
27.1873
25.6199
24.4074
22.5156
132.273
169.554
135.721
90.8367
68.4532
56.0192
57.6891
54.014
42.8263
34.4957
30.5371
28.6425
26.9119
26.0075
24.3873
25.0679
25.1763
24.9069
24.3744
22.6007
171.521
128.459
109.245
81.182
63.8001
50.6535
45.9154
40.8953
35.6825
31.9343
28.2589
26.3642
25.0491
24.5346
24.5332
24.5632
24.5719
24.2376
23.7034
21.9953
358.374
138.46
100.435
73.129
55.43
44.7353
40.2408
36.4079
32.842
29.7151
27.0454
24.9034
23.6756
22.9616
22.6984
22.2889
22.0173
21.4604
20.9892
20.2369
203.921
125.706
85.5556
65.6848
53.1254
43.55
38.421
34.6743
31.3694
29.0168
26.6326
24.9103
23.4843
22.439
21.7945
21.2509
20.9043
20.5559
20.3066
20.2833
239.956
143.968
95.7239
70.3996
52.7256
41.336
35.3226
31.4758
28.9643
26.9166
25.3266
24.2273
23.2966
22.6761
22.1358
21.7554
21.4724
21.3378
21.303
21.4935
314.508
229.796
168.335
117.251
74.4721
51.006
39.5308
33.7824
30.0372
27.9605
26.2858
25.4683
24.7952
24.4765
24.2076
24.0442
23.9637
23.9667
24.0106
24.4085
192.288
223.919
212.836
160.584
88.6647
59.1632
44.6125
38.6706
34.0041
32.4314
30.2229
29.0427
27.6809
26.8802
26.3484
26.2321
26.2439
26.3378
26.5344
27.1343
53.7371
106.446
107.017
88.535
69.7258
58.9247
50.3112
44.2961
39.7251
36.6839
33.8802
30.9219
27.3929
23.9501
21.6776
21.1
21.2078
21.7188
22.4382
22.6736
123.91
84.2299
69.3511
61.272
57.2597
50.9646
43.045
38.1895
35.0399
33.4178
32.1728
31.1891
30.2982
29.509
29.0047
28.5194
28.2587
27.7122
27.2726
25.7385
276.242
162.439
116.294
86.6032
67.7974
54.9655
45.7031
40.1118
35.332
31.8795
29.8758
29.1793
29.0961
29.2196
29.3857
29.6041
29.7224
29.7251
29.5424
28.5557
155.877
129.491
115.86
79.064
62.8987
56.4819
50.3525
45.7798
38.5815
32.4525
27.6004
24.928
23.4419
22.5648
22.0099
21.6428
21.5744
21.5651
21.7306
21.7218
231.316
222.299
127.563
79.3146
61.4756
53.3781
45.3437
38.865
31.9395
27.0079
23.6088
21.5646
20.2756
19.4272
18.8502
18.4642
18.2192
18.007
17.9299
17.8671
404.116
258.297
157.675
91.1781
60.3575
48.5538
40.8071
35.2607
30.8186
27.4987
25.4608
23.8531
22.6508
21.3005
20.1357
19.0538
18.3034
17.819
17.537
17.4993
97.0032
137.459
119.598
77.7265
58.2442
47.3204
40.3681
35.9249
32.7791
30.7572
29.641
29.0542
28.6971
28.1282
26.9978
24.1945
20.9844
19.0057
18.1446
18.0036
114.316
128.392
110.577
80.9024
63.1553
50.748
42.4171
36.9615
33.462
31.3636
30.2284
29.8958
29.7503
29.58
28.9191
26.7947
23.4871
20.9183
19.5571
19.2465
173.991
164.561
148.203
114.982
73.8677
55.1669
48.8496
42.1827
35.9173
31.9427
29.8307
28.7631
28.5803
28.6181
27.1826
24.5626
22.0673
20.4308
19.6504
19.5584
194.809
125.407
114.209
88.6353
65.3199
59.1035
52.7835
45.7708
38.6868
33.7856
30.9447
29.4581
28.9359
28.9644
27.9803
24.3849
22.0083
20.573
20.0497
19.7639
121.455
118.744
87.1096
63.7205
53.8302
50.8233
48.7444
44.1009
40.5204
37.3949
35.0657
33.3793
31.3582
29.317
27.7586
25.5282
23.4351
21.9216
21.333
20.5542
189.533
145.986
89.1253
62.7695
50.6533
44.7997
41.8411
39.5257
37.7166
35.0615
74.38
61.1254
48.0387
35.5699
28.2247
26.7811
25.2629
23.4202
22.3995
21.1408
349.736
166.596
101.241
71.2562
53.2894
45.225
42.2492
37.7685
35.6335
34.1708
34.2885
32.1215
28.8529
28.6283
27.5648
25.7811
24.6382
23.1346
22.2487
20.8431
105.709
148.813
134.17
84.973
60.2363
48.0666
44.7552
41.024
33.5348
29.2412
26.7051
25.1915
23.9154
23.3476
23.2741
23.1705
22.9596
22.3098
21.7024
20.2918
273.751
162.069
107.324
73.8097
56.0318
43.0208
39.0615
33.2381
29.3107
25.7088
23.7228
22.4429
21.9125
21.6947
21.6749
21.6297
21.4932
21.0314
20.5755
19.5828
232.067
153.531
96.7613
64.7288
48.6881
37.117
34.347
30.3052
27.3288
24.3853
22.485
20.9984
20.3021
19.8725
19.7331
19.5508
19.4094
19.1756
18.9742
18.8221
146.317
133.037
76.2512
53.6378
45.3641
35.0747
32.3988
28.4553
26.2201
24.0417
22.4196
21.162
20.3464
19.7659
19.476
19.2675
19.1616
19.0931
19.0737
19.1649
226.147
134.779
84.7486
59.6754
44.8671
34.3308
30.255
26.4304
24.9064
23.1164
22.1129
21.3036
20.7972
20.4689
20.2675
20.1505
20.1179
20.143
20.2119
20.4823
185.047
157.15
114.573
81.7951
54.8777
40.5694
32.8657
29.0636
26.4887
25.1119
23.994
23.4992
23.109
22.9999
22.9017
22.8603
22.8589
22.9064
23.0073
23.3611
174.022
187.793
181.802
124.874
69.1478
49.367
39.6693
36.2202
33.0429
31.6352
29.5876
28.3465
27.0806
26.4293
26.15
26.1553
26.2249
26.4106
26.574
26.9471
68.0562
97.0747
99.1377
90.8372
75.1978
63.8523
55.3769
49.3598
44.9238
41.2929
37.7194
33.8909
30.1623
27.1528
25.4036
24.6448
24.4151
24.2472
24.2326
24.1296
178.28
128.019
94.3629
72.955
61.9999
52.2586
45.235
41.0324
38.3184
36.4046
34.8696
33.4268
32.2855
31.0281
30.0029
28.6681
27.6039
25.7428
24.7817
22.5955
353.514
208.386
134.481
89.5057
71.1487
56.4097
48.8358
43.5394
41.4
39.777
39.7711
39.3141
38.9521
38.7102
38.3316
37.9926
37.4647
36.6299
35.3669
33.7732
211.049
163.04
118.965
75.7602
65.1672
55.5549
50.72
44.8694
39.8273
35.3945
32.9606
30.8681
30.0393
28.6776
28.1454
27.3627
27.1268
26.7983
26.7631
26.8517
212.558
150.14
113.931
74.63
62.5279
51.8033
46.3366
39.6858
34.9167
30.5116
28.3843
26.0728
25.4384
24.3703
24.2254
23.8795
23.8865
23.8503
23.8352
24.0896
195.959
163.58
118.034
73.4495
59.3445
47.2124
43.0517
37.2825
34.4327
30.955
29.2614
27.1125
25.9315
24.5211
24.0607
23.6026
23.6355
23.6541
23.7068
24.0378
141.967
151.046
118.65
70.7068
58.5417
46.3481
43.0831
38.5631
36.4056
33.8591
32.5606
30.9773
29.794
28.0944
26.5039
24.8552
24.197
24.097
24.0892
24.3236
214.067
141.624
106.457
71.0529
60.9576
48.938
44.0312
38.6159
36.2614
33.8119
32.9332
31.9735
31.2856
29.9935
28.505
26.6232
25.4374
25.1276
25.173
25.4212
408.805
194.08
132.531
87.607
65.6987
52.8316
47.2479
40.8815
36.6429
33.7949
32.3154
31.3215
30.5596
29.7122
29.1933
26.6625
25.7067
25.6226
25.6496
25.7818
190.099
124.385
106.691
71.1188
58.2384
52.7241
48.5728
43.8038
38.6699
36.4195
34.3712
33.1467
31.8215
30.7428
30.3456
28.774
26.7491
26.1461
26.0067
25.9021
153.553
119.298
85.9484
57.7541
51.2162
46.8105
46.0079
44.6131
42.2773
39.5089
36.8517
35.1512
34.0342
32.638
32.1481
30.4796
28.1039
27.0003
26.5148
26.0654
234.553
135.137
86.6023
57.2993
50.3154
43.1813
41.061
41.2901
40.8228
38.5734
57.1251
53.2757
41.2726
34.9501
33.3335
31.6378
29.1799
27.5618
26.766
26.2098
227.457
161.588
93.6733
62.8375
52.4249
44.612
42.5541
40.347
38.8168
37.4259
35.2653
33.2889
33.0854
33.0544
33.1263
31.0361
28.6777
27.1282
26.2398
25.7004
180.284
163.643
125.999
78.6984
62.3358
49.352
45.4157
40.0086
35.0902
33.1494
31.3706
30.8893
30.0333
29.7361
29.5441
27.7294
26.8931
26.0271
25.3804
25.0565
509.397
228.891
108.172
69.3552
58.2036
43.4769
41.3589
34.0215
31.7072
27.2863
26.8748
25.5134
25.6983
25.3872
25.3363
25.1524
25.031
24.7191
24.5534
24.6263
187.647
161.251
101.26
62.7811
51.7507
38.2257
37.3663
32.2966
29.7123
26.1645
25.0633
23.6377
23.4908
23.2413
23.3965
23.4639
23.7123
23.8974
24.0813
24.4152
155.623
143.647
79.5848
55.5908
48.0651
36.1121
35.2226
30.2149
28.9829
26.1981
25.3857
24.069
23.9303
23.6096
23.8833
23.9855
24.3093
24.518
24.6827
24.9475
136.459
133.341
89.723
60.2347
47.8162
36.179
33.5589
28.7103
28.0239
26.0335
25.673
24.8696
24.9467
24.8374
25.1267
25.2804
25.6124
25.8483
26.0572
26.3154
208.778
136.035
93.454
65.0585
52.9111
40.2928
36.1311
31.7232
30.5822
28.9763
28.7667
28.4011
28.5347
28.5563
28.7564
28.8506
29.0136
29.1847
29.3295
29.5149
202.85
174.924
139.202
89.6362
63.6886
49.6967
44.0305
40.5203
38.7616
37.0678
35.4805
34.2909
33.6911
33.6493
33.903
34.1134
34.3653
34.5015
34.5905
34.5363
48.8626
75.9223
91.0984
87.4295
74.3309
63.487
55.6023
49.6736
45.0952
40.8756
36.7668
32.8206
29.7372
27.7077
26.6664
26.0342
25.7395
25.4774
25.3731
25.0496
202.22
140.806
102.809
75.0332
62.5007
50.9792
45.0324
41.0833
38.6156
36.5293
34.7725
32.7403
30.5512
28.0111
25.721
23.6185
22.0997
20.7919
20.0975
19.1445
392.541
221.288
149.367
88.5381
86.7803
62.2193
67.6172
57.9876
63.0372
59.9131
62.3258
60.4714
60.767
59.0334
58.5898
56.9516
56.1124
53.9266
52.1915
51.0682
198.104
168.128
131.779
76.207
79.4874
59.3456
64.4396
53.2787
55.7761
50.2143
51.366
48.0977
47.9975
45.7755
45.5025
44.2314
43.9973
43.2575
43.0517
43.1377
218.865
136.977
117.53
70.6863
75.1509
55.3663
60.0522
48.7138
50.7802
44.586
45.2398
41.7264
41.8077
40.0976
40.1788
39.6068
39.6672
39.368
39.0539
39.3613
354.043
161.447
111.261
70.2272
71.0292
51.733
56.5882
46.4609
49.4813
43.9755
45.1692
41.7446
41.9756
39.9844
39.9165
39.2594
39.4272
39.3279
39.2869
39.7122
234.742
170.952
129.158
69.118
74.1474
51.8446
58.0331
48.6009
50.647
46.3724
46.7792
44.1274
43.5102
41.2996
40.5073
39.9908
40.2245
40.1011
39.7861
40.0664
302.981
161.273
117.184
68.334
73.7079
53.8075
56.2728
47.6569
49.0804
45.4913
46.8999
45.1593
45.3845
43.4666
42.3284
41.3344
41.4941
41.5428
41.54
41.8533
262.137
144.774
125.012
72.7525
76.471
59.2602
56.2396
48.8829
48.8011
46.4238
47.7768
46.7896
47.1213
45.7861
45.244
42.5132
41.9785
42.0446
41.9846
42.1899
228.197
131.796
105.006
66.8063
65.5937
58.3193
59.8743
55.4331
54.7136
54.6543
54.4707
54.0589
53.3476
52.5357
52.4021
45.3079
43.0587
42.5818
42.553
42.4075
225.652
139.658
96.341
64.8049
61.975
54.2649
59.3123
63.291
63.2022
60.1388
57.724
57.9866
58.7444
57.8606
55.4981
47.0859
44.3657
43.423
43.0542
42.4725
155.434
145.949
97.2859
61.6295
62.9424
51.7039
54.6276
62.7635
64.8016
59.638
56.5656
56.569
60.7307
59.6739
56.0522
47.5275
44.8267
43.7466
43.4333
42.821
246.672
143.053
101.782
65.2284
64.7433
53.4277
57.7116
60.9223
61.8386
60.4871
58.5676
58.0727
59.3259
58.7516
55.7271
47.0397
44.515
43.4113
43.0213
42.3205
168.961
141.06
128.971
77.4784
79.3517
60.2387
57.5032
48.8709
51.2143
48.8353
50.4903
49.648
50.3921
49.4855
46.4125
43.7007
43.0757
42.458
42.0598
41.4643
283.192
169.078
112.778
68.7435
72.9737
50.2488
54.8356
42.8393
44.1431
37.8601
40.7021
38.2121
40.6874
39.7551
40.8101
40.5073
41.0831
40.8516
40.8433
40.6826
238.684
147.957
107.072
66.3563
68.8965
47.2878
54.6787
41.0076
43.2425
36.8708
38.6326
36.2457
37.7955
37.2288
38.1939
38.3117
39.0491
39.2961
39.6397
39.9928
223.982
164.099
91.7477
70.0581
63.4243
45.5168
51.2181
38.8597
43.652
36.8515
39.8859
36.6918
38.7914
37.614
39.0351
38.8096
39.6766
39.8426
40.1957
40.4807
198.293
154.906
108.201
70.1797
68.1421
46.9353
51.9913
39.0997
44.3167
37.2997
40.8182
37.6214
39.9072
38.8832
40.3647
40.309
41.1999
41.5168
41.9111
42.1974
342.477
161.528
102.863
66.0906
70.3806
48.6984
55.0881
42.6656
48.2005
41.6733
45.341
42.3023
44.6368
43.5175
45.0093
44.7659
45.6014
45.7818
46.1218
46.2883
173.654
162.245
128.186
78.6977
89.2514
63.6185
70.1369
55.274
59.9496
51.99
55.1589
51.6068
53.7421
52.5885
53.911
53.6785
54.3735
54.4676
54.6799
54.6556
39.2375
81.9273
87.3291
80.8153
68.0799
58.523
51.4743
44.9623
39.365
34.2627
30.7963
28.4983
27.1184
26.1418
25.5969
25.2023
25.0659
24.8097
24.5906
23.8935
35.5942
36.585
75.723
37.778
35.9333
37.4767
82.2462
33.778
76.365
65.2979
35.4312
34.2264
82.7813
69.2389
73.3913
35.3288
35.8421
36.4366
85.072
36.0037
35.5123
66.1493
36.1711
35.8142
86.8777
75.3706
35.4334
34.4832
239.546
304.958
228.093
98.5966
78.3465
95.1485
75.23
199.651
219.399
206.518
72.2368
61.9094
69.5559
59.8031
191.923
204.654
210.629
58.1053
48.9358
57.8873
53.0204
199.577
219.768
233.558
46.8179
42.98
51.818
48.9111
202.338
234.684
232.578
41.9509
39.8842
47.8081
45.0081
200.326
229.595
205.229
39.2798
38.6308
44.244
41.5599
191.227
197.685
187.195
38.6153
39.113
40.5722
39.0555
168.868
187.096
175.197
39.4309
39.4735
38.9238
37.2661
216.863
245.502
207.303
84.4323
69.802
73.1175
58.6045
217.673
210.399
226.207
65.3589
57.6273
56.1876
52.1417
228.411
228.653
235.014
56.1423
52.9001
51.0873
48.7482
239.727
236.086
235.629
52.1707
50.3992
48.5646
48.8659
235.496
233.243
224.261
49.6334
47.0465
49.0966
49.028
200.508
216.919
162.454
46.3588
42.9087
48.8495
46.0503
182.165
151.185
150.425
41.4678
38.9118
43.5164
38.069
174.245
158.639
157.57
38.569
36.8369
37.1852
34.1811
189.513
227.596
173.801
67.8056
56.6337
64.6123
53.8913
196.759
168.785
158.108
54.6451
51.661
52.2261
50.9288
210.358
148.062
125.147
50.6865
47.9542
50.4248
48.241
219.009
121.139
122.361
47.5047
47.5308
47.6785
46.3718
208.545
124.827
122.22
47.7971
48.5078
46.1686
46.9238
144.397
115.009
121.168
48.5558
46.3268
46.8529
38.2608
144.621
138.436
158.624
42.916
36.9819
36.0716
33.4107
153.17
158.878
141.12
36.3011
33.9725
33.1777
31.9821
188.052
328.782
242.93
65.6542
54.8734
78.1452
63.6885
183.042
236.086
204.438
52.7515
50.7711
60.512
54.815
137.962
195.32
166.823
49.9944
46.356
52.2314
43.3304
112.201
160.712
153.517
45.1592
44.5284
40.3625
35.666
103.605
149.84
147.218
44.7677
45.2838
34.9541
34.3668
134.674
151.988
162.644
44.4301
36.2203
33.927
32.1738
163.141
164.466
165.198
34.7798
32.6145
31.4426
30.1277
142.846
164.386
146.699
32.3439
31.4686
29.8607
28.6397
67.4221
79.0166
66.1324
56.8974
50.1273
56.4373
49.6505
54.3677
61.7635
53.895
48.2139
42.4821
47.7939
43.6568
43.2696
52.1199
47.6058
40.3562
35.7358
42.4268
39.2486
37.9756
46.4052
43.3601
34.5948
32.1089
38.3264
35.8202
35.3699
42.3127
39.7355
31.4614
30.1852
35.0243
33.076
34.4853
39.0229
36.8365
29.8862
29.5162
32.5503
31.2358
34.9777
36.1005
34.91
29.4772
29.6659
30.8452
29.9896
36.1603
34.749
34.336
29.7437
29.7713
29.7895
29.1886
61.4074
61.027
52.0597
52.097
47.5048
46.2391
42.4241
51.9312
50.294
46.9901
46.0033
42.8306
41.696
39.7345
47.4757
46.0276
43.7469
41.9059
39.336
39.0235
37.2618
44.5605
43.4643
43.6377
38.5944
36.6394
37.1443
49.1645
41.423
44.0475
44.0864
36.0322
34.4912
51.3434
50.5645
38.0397
43.7694
41.1133
34.0385
32.5149
48.4645
43.1888
34.9515
39.4835
35.8728
31.9235
30.2807
42.156
35.8677
33.8926
34.8972
32.1912
29.8722
28.9732
33.454
28.9925
50.373
53.9388
47.7261
43.9033
41.2121
42.7188
39.2425
46.7226
46.5395
45.4244
40.7325
39.3651
38.6202
37.5515
43.4278
44.9544
43.4818
38.7498
37.2114
37.181
36.3861
42.8552
43.0933
42.5859
36.5875
48.0092
36.3373
36.7782
43.6697
42.6004
43.3837
49.9987
49.2188
37.1377
37.052
41.1921
43.1718
35.2464
47.5247
43.5135
36.1547
32.0268
35.3206
33.2596
31.0886
42.8062
38.3831
31.4602
31.2966
32.2897
31.0066
30.9551
35.8291
29.7432
31.3493
30.269
48.4245
60.5312
54.5832
43.855
39.6166
47.0285
43.2292
45.2181
52.7311
47.963
38.7805
37.2467
42.1603
38.2831
41.81
45.7609
38.5912
36.6864
35.2573
36.6266
32.2902
40.8084
36.3392
32.7374
34.9918
35.2139
31.2191
29.2065
42.0365
32.1848
31.4787
35.4553
34.8806
28.7469
27.5025
33.1929
30.9384
28.9274
33.4816
29.4615
26.9822
25.2944
29.8056
28.2393
27.0769
28.8245
28.3607
24.8391
24.1371
30.0437
26.865
26.5155
28.4152
28.9948
24.0663
23.9947
47.4299
52.1389
46.9096
48.376
44.625
47.2338
44.5665
40.5151
45.4587
41.9461
43.1987
38.8076
43.7918
41.2657
34.7542
40.8475
37.9769
37.6138
35.3417
40.4329
38.2792
31.5366
37.133
34.8026
34.7256
32.9478
37.565
35.4065
29.7412
34.0697
32.2876
32.4763
31.4361
34.741
33.1407
29.0149
31.8159
30.6341
31.1308
30.2639
32.7368
31.7949
28.9581
30.2823
29.4184
30.0236
29.4286
31.5148
30.5791
28.7991
29.1968
28.5373
29.1753
27.9292
30.2434
28.9234
45.2716
43.7211
41.0142
45.3955
43.7711
41.4381
40.665
41.3902
40.4535
38.7314
43.2105
41.261
40.5059
39.5712
38.1149
38.0729
36.4938
40.5629
38.5119
39.127
37.6778
36.616
36.7417
37.1363
36.826
36.8592
36.1935
36.6079
38.2594
34.5966
37.3925
34.6707
37.4923
34.2583
37.9946
31.9332
60.5276
48.399
33.8249
32.5681
63.3867
45.7318
29.7252
45.6008
35.6166
32.1433
30.8627
41.7531
33.8658
28.3671
32.944
28.5886
30.4624
29.0275
32.3674
29.7261
39.8919
41.0776
38.1689
40.2707
39.7171
40.3714
38.7249
38.2892
37.6176
36.4995
39.6536
39.0112
38.4136
37.4723
36.3724
36.1295
35.3673
38.6416
37.4854
37.1517
36.3153
43.2527
52.7148
36.1814
40.5957
38.3024
237.075
35.8843
58.2537
73.3488
48.0107
194.117
48.7441
178.141
58.1029
50.3365
34.8747
32.2036
68.3433
48.5347
34.0841
33.5321
38.8138
31.9472
31.8334
44.1187
35.3
33.439
32.501
29.302
31.6952
30.0783
33.4848
30.0851
32.0872
30.5891
38.5208
45.1366
41.7562
41.5216
39.074
44.3193
41.0682
36.1871
40.6042
36.7782
38.5607
37.0755
39.7198
36.0717
34.3796
35.2428
31.5451
36.6146
35.6522
34.9245
32.8812
34.2274
30.7049
28.9038
35.3192
34.2446
32.4332
30.7765
33.3076
28.4312
27.1247
33.8733
32.3322
30.2842
29.1689
29.258
26.6538
25.1656
31.7782
30.9331
28.8673
27.8938
28.5946
24.7714
24.1738
30.8572
30.5952
27.6518
27.2952
28.8988
24.1209
24.035
30.4896
30.0995
27.2401
26.9131
45.2366
47.5738
45.6508
55.3159
52.4243
55.4002
56.4879
39.654
45.0154
42.7109
50.9652
48.5834
56.2474
55.0571
36.9369
41.9771
40.0325
48.7131
48.7738
54.835
53.057
34.7713
39.32
37.1062
48.4646
47.7734
52.1492
50.0613
33.4617
36.4454
34.8812
47.8739
47.6719
49.7126
49.2573
32.1027
34.5159
33.8203
47.3491
46.3319
49.3922
50.0314
31.0754
33.6032
32.7008
46.1903
45.5168
50.0668
49.444
29.1811
32.3268
30.7774
45.0933
43.5808
49.1017
47.9455
45.0233
42.1014
42.0538
54.1252
56.4426
49.8656
54.6877
42.8925
42.0809
41.599
56.5673
56.1653
55.7754
57.2315
40.2821
41.2514
39.5813
55.922
53.1181
56.8845
52.8783
37.4057
38.9956
54.8602
52.0611
49.4662
51.3174
49.7603
35.5367
56.703
54.2644
48.9284
48.2097
49.8666
48.983
34.2897
51.4525
42.296
48.4832
50.1738
48.6058
50.881
33.0299
39.9754
35.2351
50.4458
50.0093
51.5426
51.3833
30.9776
34.2292
31.8823
49.6437
48.3358
50.921
49.3262
41.171
41.4005
40.4127
49.1816
54.3325
50.3745
53.9571
41.0965
40.2657
39.6785
55.5161
57.1635
54.6882
55.6673
39.3766
39.4572
38.4563
56.9049
52.8708
55.6433
53.39
54.9794
37.9355
36.6646
51.2808
49.5168
51.9396
48.9026
55.9533
36.3761
35.2352
49.5946
48.8402
48.3415
47.5507
43.7904
34.9204
34.7977
48.4973
51.0157
47.8951
50.2345
36.0885
34.8451
34.3261
51.7082
51.7008
50.8211
51.1235
32.1839
34.0698
32.6763
51.2307
49.4901
50.846
49.7045
40.7166
45.2293
42.047
51.6929
53.6065
53.0832
49.8998
39.1563
40.6654
37.1988
53.9732
54.4849
48.5678
47.4092
37.9229
36.2861
34.9416
54.5445
53.433
48.2072
48.8909
35.7738
34.5705
32.8825
52.3348
49.8664
48.4442
47.1706
33.6983
32.456
31.6318
49.4295
48.7407
47.324
47.5411
33.0011
31.3894
30.571
48.8735
50.0425
47.3459
46.8339
33.0914
30.4058
30.2638
50.3886
50.531
46.9242
46.8958
32.3655
30.2247
29.5425
50.3005
49.4201
46.6718
45.6136
56.8327
60.726
62.7817
72.493
69.7476
75.9221
79.8487
54.2168
62.6724
61.961
68.5873
70.9357
79.9063
80.8872
55.006
61.8817
60.6624
71.9777
72.5001
81.3477
84.081
54.2808
59.968
58.5273
71.8569
73.7101
84.7811
86.0843
54.3669
58.3855
58.1614
74.2082
74.5146
86.2647
85.6027
53.3746
58.1114
58.1073
74.155
75.107
84.7183
81.3967
52.8803
58.0969
57.4948
75.3118
75.3624
80.7803
79.9164
50.8809
57.2535
56.0623
75.2091
73.7247
79.9043
79.0372
62.9769
55.1589
61.6441
73.797
80.7196
70.8915
81.8721
63.3376
62.9706
64.8495
81.469
83.1936
83.7685
87.777
61.1265
64.7669
61.2544
83.9475
88.1932
89.6015
97.2696
58.0222
59.5891
56.9809
89.2836
90.6249
99.2633
101.166
57.6314
56.788
56.1669
90.7203
89.7311
101.161
99.0332
58.6241
56.7337
59.864
88.5874
83.5714
96.9752
89.018
58.1476
60.4226
59.8311
82.2461
80.5341
86.3735
82.1527
56.4103
59.3328
57.2623
80.4247
79.1016
81.6544
79.7091
61.36
56.1898
60.9341
70.9543
82.2755
73.6907
81.687
64.8488
61.7942
63.1071
84.2263
88.2443
82.7155
85.1841
61.3814
63.152
61.9181
90.0606
97.6969
86.03
90.0146
56.8247
60.6872
58.2381
99.7393
101.319
91.0893
92.2671
55.9522
57.861
57.4937
101.26
99.4337
92.3643
91.7067
60.0503
57.8975
59.4616
97.3782
89.5432
90.7439
86.1391
60.2085
60.0072
59.7109
86.8639
82.4036
84.6154
81.9909
57.3642
59.3228
57.5638
81.847
79.6108
81.5999
79.9083
60.5014
58.5173
54.6118
76.1019
80.5058
75.2647
68.3361
61.6757
53.4113
53.5259
80.9426
82.975
67.8953
72.5392
61.1728
54.6164
55.0782
83.5374
85.8972
74.4119
72.6679
58.8208
54.5337
53.7982
86.591
87.8529
72.2427
74.7917
58.1117
54.3227
54.7083
88.1386
87.6405
76.1527
75.5435
59.0196
54.5039
54.2822
86.9861
83.918
75.414
76.6985
59.0542
54.5849
54.5604
83.1883
81.4224
77.3782
76.5291
57.2632
54.3069
52.8046
81.1571
79.6616
76.4406
75.3594
37.1468
36.1429
37.2683
35.1501
36.9902
35.6422
37.7565
41.5415
36.7753
52.3481
40.8569
38.2606
36.71
188.565
52.2065
46.0312
68.6552
225.748
42.7583
57.579
245.105
36.7723
36.9187
37.0718
37.6371
36.2715
36.7409
37.3313
37.4029
35.2402
36.4707
37.9788
35.7263
38.0843
37.5732
42.4016
41.7522
37.5968
56.0963
36.9779
194.623
39.5684
54.3464
230.867
49.287
75.4137
60.509
250.599
45.2331
38.5
34.1755
37.4344
33.5329
37.5623
33.9011
38.1178
60.5659
47.5292
75.4701
209.624
48.6438
58.9177
192.52
61.6329
48.6732
72.537
98.1811
49.5144
55.894
127.617
38.6117
34.7692
35.0036
38.1332
34.3711
38.3241
38.2717
38.7644
33.6477
34.6154
37.8527
34.02
38.238
38.219
63.3458
213.449
50.8926
82.4293
61.66
197.353
52.0717
63.1127
100.31
50.0417
78.0741
56.6003
132.109
51.9255
50.5113
67.3414
45.8765
211.938
42.1763
226.632
56.1111
35.8487
35.9872
35.3658
34.8646
36.1416
35.49
34.8732
36.7679
37.8276
35.4979
35.2881
36.6501
38.4436
34.9763
43.6321
41.7508
57.1449
36.897
231.906
36.103
39.4741
51.5635
217.41
77.8408
48.6705
233.099
57.1698
44.4058
35.9643
35.0484
36.4546
35.7241
35.6066
34.952
36.5467
36.9415
35.1345
38.2763
35.5515
38.5808
34.9738
37.1069
56.4985
74.2135
48.0353
116.565
48.5944
160.153
55.8777
40.1245
38.9116
36.2629
35.5324
39.41
39.6592
35.5462
40.0866
39.3644
36.182
34.9456
39.4447
40.0279
35.3977
59.4456
198.956
86.144
51.0408
182.683
59.3105
52.1128
58.3647
116.471
85.6524
52.5102
155.229
58.0662
52.443
40.1027
35.2308
39.085
35.2469
39.6893
35.1714
39.4014
40.0801
34.463
39.3741
34.8933
40.0606
34.927
39.405
166.861
200.73
167.89
108.733
88.0909
115.181
92.1693
136.988
144.962
131.729
75.7228
69.2376
80.4445
69.9595
123.668
125.778
123.547
63.9986
58.8697
61.1587
55.9245
118.929
121.833
121.03
54.8106
53.2616
51.6597
49.0869
111.33
119.246
118.564
50.8664
48.3768
47.3773
45.9415
106.323
117.502
116.804
46.3774
46.0182
45.2691
45.2429
102.51
115.697
114.356
45.7039
45.6443
45.3893
45.8781
89.7215
112.676
105.566
45.7296
41.8241
46.767
44.667
204.785
227.033
192.675
140.541
114.876
135.851
111.002
159.656
294.688
324.432
185.401
168.443
184.745
284.66
100.676
217.25
219.064
116.329
109.175
109.9
212.138
87.8956
191.521
192.015
96.728
92.5376
91.2116
190.187
77.6044
197.131
200.435
84.0277
82.1137
78.5225
205.456
75.1063
201.401
213.239
78.3749
76.5791
75.6164
215.036
72.6258
202.661
216.175
71.8933
70.6288
73.1051
214.288
70.0444
195.481
202.526
68.3903
67.8963
70.3356
198.497
70.031
188.781
192.334
68.0344
68.3784
69.8822
191.389
105.942
124.245
111.549
46.7344
46.714
44.6724
44.3401
164.895
177.732
153.805
116.296
97.8788
112.718
89.873
132.775
243.601
261.404
153.982
138.651
151.211
231.718
91.8368
216.26
215.982
101.317
95.0546
95.6498
221.467
87.4131
220.937
232.802
86.9017
85.9395
87.778
235.467
88.5091
236.275
241.614
86.9206
87.6947
88.0761
242.478
88.4647
239.168
241.609
88.0106
87.3855
88.8571
239.861
84.4134
223.092
230.854
83.7884
82.0914
85.8702
220.807
68.163
185.141
180.568
71.9622
69.2731
71.7533
175.176
65.3765
184.639
176.345
67.0546
67.2396
65.2466
179.775
110.099
115.747
108.081
42.6927
40.4376
40.1759
37.4452
147.356
170.183
145.365
102.257
80.7833
100.039
77.9682
113.309
208.143
231.599
132.903
115.444
132.649
204.079
81.0766
190.389
169.42
84.9923
82.1466
83.5232
164.857
78.2022
203.909
164.746
79.3956
78.7454
79.3401
167.353
74.3362
217.158
176.047
78.8753
79.6586
74.412
183.128
77.7032
216.281
193.315
82.228
82.4541
76.8779
192.997
82.6342
181.157
176.7
84.5231
84.4489
82.9478
157.739
60.4124
135.407
129.258
71.0572
64.8508
64.7384
131.391
55.762
156.109
151.784
57.1453
56.9426
56.1253
153.508
101.116
98.8388
89.9004
37.7985
34.2166
36.232
31.0329
150.143
182.802
180.034
98.1928
78.8566
101.039
91.8607
120.778
211.936
248.934
132.433
113.559
137.552
224.213
85.22
187.087
199.481
84.3939
82.1287
88.7474
198.793
80.1532
156.4
180.811
81.9947
79.8888
82.0966
167.54
63.9549
123.765
148.629
70.2821
68.8117
67.9135
142.665
58.0813
106.701
110.118
66.9342
66.2874
59.9508
105.825
51.478
106.118
106.415
54.0466
51.8892
51.2366
114.203
57.7174
157.298
156.782
56.3711
57.276
57.4191
162.396
56.5387
161.985
164.973
56.9591
56.455
57.0366
163.431
88.119
100.155
87.7132
35.0615
30.5071
32.8399
26.7885
161.504
183.187
159.638
101.537
84.4871
101.276
82.8755
133.524
146.285
138.645
74.1413
64.767
72.2825
65.417
111.934
126.924
111.26
57.3303
51.4418
59.0315
50.9887
100.023
103.124
101.105
45.6867
41.7007
45.4944
43.3164
98.4413
96.5885
91.8834
39.7915
38.5944
40.182
36.8418
99.0199
90.362