/*--------------------------------*- C++ -*----------------------------------*\
  =========                 |
  \\      /  F ield         | OpenFOAM: The Open Source CFD Toolbox
   \\    /   O peration     | Website:  https://openfoam.org
    \\  /    A nd           | Version:  10
     \\/     M anipulation  |
\*---------------------------------------------------------------------------*/
FoamFile
{
    format      ascii;
    class       surfaceScalarField;
    location    "6.7";
    object      phi;
}
// * * * * * * * * * * * * * * * * * * * * * * * * * * * * * * * * * * * * * //

dimensions      [0 3 -1 0 0 0 0];

internalField   nonuniform List<scalar> 
38556
(
1892.64
-408.002
-6225.65
1621.87
722.246
-451.478
1331.93
306.753
-16.8194
1181.05
69.6113
81.2715
1061.2
-51.8315
171.681
1073.68
-79.5352
67.0562
1042.44
-104.62
135.861
1039.51
-104.304
107.237
1021.92
-111.055
128.639
1020.32
-114.627
116.227
1024.38
-116.932
112.872
1036.22
-109.654
97.8125
1048.88
-97.5403
84.8816
1072.33
-89.24
65.7982
1099.8
-83.0318
55.5603
1139.43
-83.8723
44.2402
1187.93
-77.9895
29.4846
1270.93
-89.4382
6.44081
1373.05
-82.33
-19.7896
-38.3838
-9.37817
-67.2723
-3143.57
-3994.56
48.5694
314.548
291.857
811.489
-361.308
-94.8581
865.047
-28.4656
44.5183
1024.23
-148.017
-63.0017
1094.83
-92.639
-57.4934
1094.08
-122.991
19.1258
1072.86
-104.143
21.0565
1002.28
-101.052
60.5714
937.104
-90.5694
41.1219
873.537
-83.898
30.5328
834.669
-68.2188
-2.56654
819.437
-56.732
-25.5761
818.795
-42.4575
-46.141
829.39
-37.6661
-55.9606
848.628
-33.9367
-69.1738
871.666
-29.3042
-71.7226
894.228
-24.4361
-87.5646
928.045
-2.122
-114.025
25.9223
-89.0896
-170.174
-1268.54
492.318
100.05
-230.762
275.085
850.091
-646.112
-465.238
931.825
-300.879
190.679
1031.34
-320.326
72.7965
1128.8
-205.697
15.597
1158.63
-194.527
41.7097
1164.6
-129.951
19.8352
1087.92
-71.3952
47.0265
984.945
-16.9844
29.3855
856.019
-0.232418
45.2601
769.945
5.63213
12.223
734.945
-2.54295
-19.189
717.561
-4.32202
-20.7515
714.568
-12.2448
-22.4283
719.516
-20.8349
-18.0494
728.995
-21.5749
-17.2082
741.809
-19.2353
-18.0151
755.621
-1.39814
-14.5359
24.0509
-10.6495
403.832
-93.2837
-1759.34
494.519
-519.525
198.076
882.112
-523.23
-510.474
954.032
-307.708
-65.0907
1004.74
-326.016
-45.019
1021.46
-196.221
-26.1997
976.486
-174.065
24.5154
913.37
-56.6187
-10.2163
820.49
13.4227
8.06174
746.506
51.3212
5.67884
690.093
48.2802
7.90017
653.952
43.0204
-1.24684
633.143
23.5254
-5.25995
621.406
16.7574
-9.34279
620.196
-6.08687
-4.94752
623.897
-21.7938
-2.74163
630.477
-25.4777
-2.67732
630.098
-12.991
-5.86545
623.683
10.8574
-5.84008
28.6878
-6.26452
-24.798
-916.816
763.77
588.095
-771.336
-361.082
990.838
-373.016
-552.957
973.799
-140.403
-150.266
941.459
-222.427
-71.2489
901.846
-95.1666
-61.4413
853.599
-116.074
-9.74414
817.43
20.2397
-40.6891
787.518
40.5298
2.80495
772.147
70.7425
-4.0508
757.727
60.4775
2.22282
744.295
64.3087
-7.85602
728.828
42.3852
-3.39249
709.395
37.5035
-1.31277
677.854
17.9975
7.45622
650.569
0.310073
5.1817
643.971
-27.7667
8.88711
638.435
-14.8816
7.42667
635.275
9.89226
4.12473
26.9892
-3.33733
710.372
-2440.01
-1291.08
1082.59
-1104.36
-39.1913
1184.19
-323.717
-150.901
1228.19
-94.8493
-89.5582
1074.6
-65.7508
-3.08052
980.314
31.0879
-31.9728
927.9
-51.308
-12.3525
897.411
72.1317
-21.4033
895.987
51.2408
-9.287
899.804
82.4277
-15.5015
912.045
63.6783
-15.4419
928
68.4
-20.0466
946.622
43.2712
-19.5082
956.234
38.6116
-10.7191
931.455
31.5928
11.1829
848.051
31.6469
52.0679
743.08
18.9722
58.2313
680.389
24.3798
23.4303
652.241
31.1653
6.87521
31.0437
-4.10056
2049.04
-2480.07
-4081.33
1677.44
-769.342
36.5896
1255.65
-183.77
281.836
1167.8
-102.275
95.2815
1075.69
-39.3582
65.7167
994.718
121.434
-9.37829
906.84
7.67706
28.3127
-2.27141
6.83443
-3.98215
867.264
11.7314
21.2736
33.363
11.7748
33.5644
855.372
11.3462
15.5653
13.2229
10.9358
12.0631
859.529
10.2136
7.09866
25.7675
9.39108
25.7992
878.259
8.48363
6.87712
12.3654
6.58783
10.6347
902.34
2.73891
14.1217
12.1437
2.49785
12.8168
934.545
-3.65996
15.0036
-1.58604
-1.38708
2.69584
964.854
-7.9322
12.2146
0.556558
-2.71905
6.18289
974.995
4.61908
16.8328
944.432
30.7475
31.4619
854.6
58.769
50.0357
765.314
69.6028
44.0626
721.231
56.0958
19.1527
35.3014
0.646558
1422.76
-1426.57
-983.174
1129.64
-115.388
-360.828
1247.16
39.7173
-341.006
1246.15
64.1405
-165.406
1189.26
77.9499
-60.4167
284.746
42.8391
-36.4416
279.103
279.475
274.436
79.1723
37.6606
69.6994
260.839
29.7643
1.81924
-239.181
222.399
22.6889
5.82478
-221.707
206.051
22.4558
4.5467
-199.245
192.19
16.167
1.10102
-198.348
192.092
14.9894
-0.249107
-197.204
197.385
3.93153
-1.37341
-208.915
211.344
-7.88557
1.79665
-221.27
222.729
-14.5475
5.15607
886.9
-6.47061
2.42331
-226.666
-234.471
-215.425
-218.225
5.11757
0.553408
10.8827
840.204
58.2762
19.1679
776.303
93.119
29.5502
733.445
94.7548
17.7063
717.147
67.1423
5.25215
28.9093
-0.335823
1535.89
-1154.37
2736.81
1166.1
176.289
78.1154
1216.15
258.548
-268.881
1305.57
215.394
-240.672
282.584
201.214
44.4675
258.526
304.604
292.12
266.453
51.3612
7.60879
-11.0418
-68.7594
64.5947
13.8436
1.36279
-61.5301
-6.13487
59.5226
8.17214
-0.0296792
-57.3838
-5.32745
54.0544
8.04605
0.61088
-50.9115
-4.25572
48.6438
6.51958
0.00379051
-49.6406
-2.91449
48.6574
4.59147
-0.693753
-51.8542
-0.424403
51.7447
2.19742
-1.6635
-56.1364
4.36967
56.2749
-3.25288
-1.25535
-59.5417
6.45026
59.2495
-5.97904
-0.179025
-60.4845
234.54
-4.37118
1.98342
-61.0177
-58.4264
-58.6945
818.862
102.277
19.5481
-228.343
-228.087
-213.5
-212.481
757.028
126.328
28.6257
729.944
112.997
8.84158
730.449
71.1391
-4.50159
26.4373
-8.72688
440.221
-460.073
2297.36
576.312
123.651
-83.4535
780.668
286.664
-232.472
864.916
229.366
-98.2199
193.087
182.622
131.824
165.382
206.95
186.266
-46.043
192.798
39.0047
7.32706
-12.9368
-51.8267
52.8846
10.0333
1.8456
-10.2487
-59.498
61.4482
8.89983
-0.601324
-10.4128
-65.4321
66.577
9.74228
-0.474384
-10.0735
-69.5874
70.033
10.2944
-0.666584
-8.85937
-69.4485
68.7322
10.6436
-1.06798
-5.29922
-66.5552
66.1702
7.27094
-1.58672
0.130822
-64.2367
63.8972
0.941118
-0.732463
5.03241
-62.8395
62.3815
-4.22771
-0.346721
-59.6222
-0.634714
233.972
6.47026
-5.0291
-59.7612
-57.5617
-57.8333
848.548
132.736
1.67288
-227.054
-227.104
-212.069
-214.453
799.673
155.322
19.8805
774.742
139.766
-1.8376
773.701
88.6699
-16.4898
37.3468
-17.5422
-60.0776
-526.058
-429.887
350.083
95.4662
-381.976
756.888
113.366
-233.507
753.727
223.623
8.90431
179.004
132.03
106.698
164.319
183.446
170.851
-20.7566
178.999
18.1603
2.6017
-2.7817
-46.799
47.0128
1.91921
0.648724
-3.88037
-52.3893
54.752
1.96271
-0.445015
-7.13995
-61.1599
62.2525
6.15821
-0.110925
-9.78838
-64.9673
66.145
8.77899
-0.168322
-13.0109
-68.9034
69.5861
12.6433
-0.314989
-11.3355
-70.0697
69.4481
10.9428
1.01429
-1.62591
-66.1957
64.394
1.61546
1.81214
-1.01735
-59.9655
59.2606
2.28535
-0.563191
-57.9035
-12.0836
228.672
19.3837
-6.93105
-57.7748
-56.6652
-56.6973
870.621
149.782
-13.4706
-224.595
-224.268
-212.671
-212.662
851.023
171.078
3.84317
838.314
158.302
-5.8276
824.851
107.693
-5.56088
50.9637
-9.43751
1273.79
990.503
1805.76
1259.65
445.76
-336.157
1023.85
327.769
21.4029
893.21
300.731
53.5275
113.685
225.185
231.063
150.506
141.015
163.786
-11.3908
125.152
-12.4399
12.3637
5.03984
-42.6292
45.3735
-7.782
-0.00207622
6.33394
-52.2802
54.2352
-8.71135
0.422427
6.3621
-57.0059
57.152
-8.8888
2.38061
0.50603
-56.7717
58.0217
-4.55213
2.79615
-8.38332
-62.1934
61.9697
5.9925
2.61457
-7.69105
-60.0289
60.2651
7.56651
-0.111603
-3.95879
-58.0741
56.9759
4.6413
0.415685
-3.92044
-54.6818
54.5866
4.65411
-0.638499
-54.324
-24.8426
215.769
28.9341
-6.41734
-53.5926
-53.2515
-52.2749
833.907
157.525
-19.7952
-214.023
-206.194
-203.915
-197.723
830.124
171.848
3.01236
829.28
153.594
5.55212
819.437
109.644
7.89143
61.6853
-4.56878
558.444
-138.856
-1096.38
996.241
513.254
-505.291
944.757
706.613
-327.359
1029.56
304.746
-88.8135
1010.75
236.284
7.70503
251.101
-170.357
-17.2887
33.2023
84.1851
24.8229
74.8306
246.735
242.509
241.012
13.4132
241.633
-29.9882
-10.3659
11.7567
13.0624
11.5898
7.47046
-209.494
189.307
-13.9695
-1.06704
10.356
7.30866
10.0882
7.4818
-191.124
187.138
-25.5854
-0.962701
8.35964
6.97853
7.71486
2.29044
-163.695
150.894
3.73204
-0.591992
3.5576
1.48226
2.3302
-2.87224
-159.544
166.321
7.80835
-1.5335
-3.15657
-3.54765
-3.47621
-6.93095
-166.968
171.757
21.5663
-2.06244
-5.11626
-7.06752
-5.17778
-7.35177
-180.048
185.379
23.8055
-3.1299
-5.67754
-7.35325
-5.624
-7.63045
-185.436
186.436
28.7882
-3.24811
-5.66561
-7.61061
-5.6335
737.089
124.414
-7.26396
-36.5078
-32.612
-36.5012
-31.683
-185.974
-179.759
-177.903
-173.299
765.457
128.72
0.436333
787.414
144.932
4.95919
804.55
127.344
9.11346
802.126
103.262
8.80541
72.6956
-4.22644
-1587.55
-1565.21
-2884.9
-246.434
281.869
-1109.73
315.662
361.357
-216.841
492.251
155.512
-27.3543
640.235
100.421
-12.1208
619.648
-149.105
-0.665428
625.528
119.713
-18.8683
-10.2491
-40.5658
-13.7512
-42.1583
613.947
-78.699
6.71715
-5.33493
45.3571
-2.1961
45.736
592.981
83.5023
-9.67304
2.3196
-25.7436
-1.45959
-27.9793
591.434
-9.78047
5.79524
-11.7483
17.0341
-13.7174
13.9643
597.053
63.8864
6.40377
-14.325
-21.7346
-17.3056
-22.5439
612.94
33.6721
6.32141
-18.9928
-8.83641
-19.0838
-8.96822
639.528
64.2284
8.07236
-24.4139
-26.013
-24.0946
-24.3665
666.034
57.8747
10.2905
-30.0595
-19.5985
-27.5965
-17.4168
691.43
86.1465
12.8715
720.614
89.2194
10.317
746.847
105.557
13.1413
764.82
96.6968
12.6749
764.882
93.5618
9.63861
75.7595
-0.505209
-795.053
584.407
-1359.83
79.0535
254.262
-846.499
474.368
89.4969
-123.454
526.264
87.9052
15.7108
626.444
17.6748
-17.435
599.518
-130.375
8.19712
664.166
65.6444
-10.5802
625.962
-45.0079
4.51407
629.101
81.8867
-1.52373
598.974
20.04
0.306514
595.795
61.7075
5.35805
589.158
37.4753
2.83353
594.411
52.4546
6.52058
601.677
42.8912
7.71773
616.377
62.9265
8.51976
635.951
63.1075
6.5374
654.237
77.8705
9.40129
668.449
75.005
7.48001
675.732
79.4899
6.78923
67.743
0.961925
78.4704
1922.66
-3105.75
-104.745
515.833
-78.3545
340.658
57.276
-413.182
262.138
51.4774
114.947
504.964
-167.743
-57.4083
471.652
-104.875
7.81139
563.024
-15.5936
-10.1329
558.236
-28.3379
-11.8818
584.439
62.2944
-6.61109
583.038
30.2353
-8.79469
589.988
56.1492
-1.39178
592.936
39.0217
-4.49364
598.592
45.6207
1.17722
606.035
36.4452
-0.996748
618.038
48.0506
2.87234
629.223
49.7064
2.21684
641.919
60.3418
4.83284
653.016
61.834
2.07345
661.977
69.8879
0.641154
62.0491
-3.62769
1091.34
1865
647.526
852.196
1081.24
-326.27
637.165
447.233
-174.925
577.782
265.355
-154.495
514.306
-76.4002
-27.8672
488.822
-61.0534
-18.3382
535.24
-53.5529
-8.45851
515.384
-12.8666
4.38507
546.428
33.123
-1.87254
542.147
33.2995
1.21732
560.772
42.1836
-4.65956
568.606
34.2631
-3.07597
585.795
34.371
-5.939
599.502
29.2265
-6.48809
617.444
32.3352
-2.2266
633.488
37.1762
-3.51388
649.658
46.3303
-2.15864
663.552
50.7143
-2.77443
676.461
62.1966
-5.21806
57.3973
-7.46398
1706.32
897.646
-1102.35
1747.76
1223.05
-183.243
1313.42
924.714
-43.1378
1035.26
508.918
34.5998
760.717
77.739
120.4
672.869
-8.77686
35.5714
631.576
-41.3453
29.085
614.676
4.8664
-0.833108
617.253
24.8358
5.71022
616.956
38.7643
-5.16709
624.543
40.264
-5.66763
630.463
39.9616
-11.6187
641.387
36.1189
-12.6715
653.955
32.8161
-16.1578
671.077
30.0769
-14.8639
688.168
34.9453
-14.8608
706.827
40.7578
-13.0863
723.982
47.2594
-13.7006
746.629
56.6863
-17.1365
51.1779
-14.1812
2539.12
1463.75
2396.98
2098.97
1156.15
507.046
1559.3
876.011
588.38
1298.93
396.958
372.33
1019.09
113.557
244.023
852.394
45.6202
112.294
734.458
12.7735
63.8173
675.906
48.5465
14.8722
655.539
55.1889
-9.98601
646.923
80.042
-32.6616
656.992
73.5345
-43.3393
668.217
74.6356
-45.8992
690.636
56.7279
-43.0288
717.545
45.0358
-39.1285
749.176
30.8769
-32.431
777.758
39.4694
-33.1057
801.974
49.3688
-32.8272
822.784
57.5635
-31.1137
853.051
64.3303
-37.911
56.5909
-31.723
-186.838
1223.12
541.706
427.606
1054.76
362.955
1258.6
193.124
1302.8
69.357
1319.39
29.0301
1261.3
70.8553
1226.65
83.2024
1185.36
96.4734
1179.13
86.2798
1177.44
75.2196
1188.29
63.7898
1186.99
58.0243
1173.03
58.9989
1133.76
70.1427
1103.14
70.092
1091.67
60.8407
1097.52
51.7051
1127.3
34.557
26.0213
124.617
-342.011
-1923.34
351.926
-561.304
-117.482
578.017
-251.18
8.26954
744.378
-141.467
56.3772
876.454
-89.7008
129.306
930.867
-50.0572
62.7001
950.054
-65.8657
182.54
975.683
-63.0471
144.655
994.449
-72.4636
182.337
1024.45
-73.335
159.559
1054
-70.2039
153.53
1087.34
-61.8528
126.32
1114.88
-49.7625
107.102
1147.95
-44.6444
77.3755
1181.45
-39.3535
61.4126
1222.24
-41.1155
44.5679
1277.67
-39.1034
13.1625
1347.22
-44.8757
-18.2365
1385.86
-17.4096
-41.0254
8.24551
-22.1363
269.759
-1896.51
-735.868
159.934
-616.453
456.83
795.918
-686.389
-295.634
836.702
-204.774
67.0414
915.456
-169.639
-61.8184
926.501
-43.9297
-74.6662
911.279
-71.5211
40.0038
895.921
-49.2518
22.6188
866.51
-56.2481
73.7674
841.21
-49.1748
42.2611
820.542
-47.4444
28.4418
806.795
-38.5805
-12.0924
800.36
-29.8882
-39.0156
801.08
-25.2407
-66.2646
807.631
-23.4987
-78.3654
818.938
-25.674
-95.9228
832.363
-23.7131
-100.538
846.489
-21.3222
-125.244
858.19
-2.93424
-140.2
16.9759
-104.473
787.437
-557.418
932.265
513.759
-366.851
299.161
670.119
-633.922
-674.065
762.834
-266.317
159.508
873.204
-256.022
48.8099
943.224
-108.629
10.2759
954.527
-102.656
61.5421
935.517
-20.0353
9.62882
868.713
-2.47929
60.0609
798.692
15.9828
34.2487
734.501
13.3496
48.6572
689.23
11.1515
7.76186
662.316
0.852294
-23.0149
647.89
-3.57667
-27.9893
644.134
-13.4729
-28.698
646.737
-21.1332
-25.1931
651.546
-21.0899
-24.6407
656.555
-18.4669
-25.879
661.001
-1.16427
-20.7521
16.7721
-16.544
801.949
632.757
942.361
767.034
-63.2526
-70.6073
850.251
-420.872
-806.742
875.489
-235.795
-120.851
866.514
-251.683
-40.3829
862.35
-89.0313
-41.633
826.571
-73.6924
31.3313
772.164
35.8877
-11.732
708.002
45.8886
23.8551
656.052
61.549
12.0629
617.049
47.5187
12.7345
589.057
39.5837
-1.68658
570.5
21.9867
-7.83759
558.561
12.283
-13.2631
555.849
-7.34389
-8.36445
557.149
-19.8886
-5.28678
561.494
-23.4111
-4.70044
559.76
-13.6032
-8.99565
555.115
5.5595
-7.91811
19.0407
-10.2789
1378.04
1050.14
2554.9
1433.03
71.093
-550.418
988.919
-152.559
-377.158
847.609
-85.5503
-159.201
748.416
-179.373
-44.3657
702.414
-16.6742
-87.7969
685.284
-53.283
-13.0233
664.591
55.8639
-39.972
655.307
51.5653
6.4115
646.822
69.5601
-3.57647
638.467
52.93
5.16648
626.685
50.6918
-7.18153
612.92
34.2398
-1.88104
597.224
28.1865
-1.52015
580.698
9.04185
7.59691
566.771
-8.02818
7.248
564.483
-24.3964
12.161
561.328
-10.6991
7.67739
561.118
4.00698
5.88725
16.2935
-5.48737
476.394
-983.789
-4832.15
575.655
-173.715
106.356
963.662
-44.3752
-647.093
993.836
-33.1718
-172.11
863.782
-39.4394
-12.9602
787.583
57.7148
-30.1623
770.912
-45.4012
-3.56343
745.593
73.9283
-14.1489
743.541
46.199
-1.86856
736.685
74.3899
-13.4754
738.083
51.7993
-15.7094
738.091
52.1148
-21.4779
737.689
36.5
-21.366
733.421
34.1541
-12.4188
709.622
26.2833
17.7404
666.523
25.1888
61.95
620.661
16.0008
63.6964
590.114
16.2474
27.0312
575.672
16.5186
8.80463
16.9397
-6.50482
1487.77
-1340.18
-1319.88
921.263
-310.646
740.024
924.311
74.0711
160.342
891.926
22.7207
71.7739
834.815
9.00529
74.3825
754.24
133.524
-4.61157
710.476
2.99354
44.8943
-9.27607
0.779602
-12.7153
688.626
11.6763
26.5345
33.5414
11.7793
33.5202
692.1
9.6706
21.5783
9.62693
9.16401
8.24986
698.64
8.48567
6.52104
26.3627
7.91501
25.6643
720.47
5.07766
10.121
8.79855
4.55504
8.29464
741.271
2.5878
13.0179
13.1712
2.57202
14.0862
761.707
1.08576
15.537
5.98009
0.711999
7.75321
769.689
0.144182
13.1402
10.2633
1.92604
12.9124
762.843
29.0339
20.9281
730.146
50.7439
38.6041
680.741
56.9041
58.5379
644.055
51.4844
45.5117
626.472
31.7528
21.501
17.9687
-1.165
1365.13
-1827.66
-2206.94
1444.34
-368.355
-382.325
1270.92
133.487
-227.004
1162.99
118.365
-153.115
1011.11
99.8194
0.650012
235.637
39.0105
-16.9192
230.195
224.039
218.252
69.5629
39.0594
69.3515
-10.7552
211.375
27.3987
10.6119
-12.9541
-190.12
179.079
19.8927
15.7782
-8.03345
-182.897
171.382
20.6707
8.54856
-0.506247
-169.449
164.74
14.4521
-0.751872
1.61961
-173.615
169.109
10.8529
-2.88921
1.33851
-175.45
175.22
2.56376
-1.085
-2.53256
-184.918
184.376
0.806799
3.35365
-4.55288
-190.653
189.037
3.54376
2.76954
706.753
8.11152
10.8562
-189.306
-192.324
-177.174
-179.096
15.4469
10.6269
17.5637
675.325
75.5946
25.7444
649.474
78.8981
33.4078
635.059
64.5338
19.0712
632.147
33.7248
6.19263
13.5903
-3.37352
1576
-1558.68
892.171
1122.35
-305.6
469.003
973.735
205.73
-192.504
899.057
160.89
-208.518
221.461
168.92
55.9079
208.051
202.148
186.856
-13.7405
227.049
42.1368
5.02608
-3.41144
-9.98152
-61.5262
58.6426
13.3289
2.94762
-2.38849
-54.1647
-5.88759
50.9994
8.29313
3.14827
-2.55415
-48.5192
-4.86099
46.1608
7.04524
2.72832
0.0340668
-45.3071
-3.19277
43.737
5.14502
-0.416195
2.97091
-45.285
-1.68693
44.4733
2.95377
-3.42609
3.56168
-46.3748
0.866093
45.8642
-0.209978
-3.70711
2.09164
-48.4371
2.07689
48.1
-2.04075
-1.7907
0.557422
-50.1322
0.962363
49.4879
-0.46726
-0.408214
-49.6757
0.754552
189.875
12.665
1.1179
-50.1514
-48.0167
-48.4574
664.717
110.873
28.722
-183.567
-185.397
-169.233
-170.971
647.889
97.8601
26.4911
643.764
69.3946
8.10574
646.933
29.4725
-3.41822
10.4171
-12.018
732.268
-28.223
3253.59
278.892
91.6356
-27.3121
426.907
212.233
-386.991
466.035
132.329
-108.787
151.823
101.86
115.94
136.085
137.197
123.875
-6.83264
-38.9258
168.901
27.6162
1.06341
-3.64414
-10.8266
-48.4947
50.4896
9.52341
2.95249
-0.790864
-10.4182
-55.0521
55.6412
9.34034
1.27965
-0.0751489
-9.59515
-56.4759
56.7163
9.21796
0.211899
1.69047
-6.70568
-56.997
56.9029
6.98069
-1.87143
2.86199
-4.69532
-56.1414
55.8189
5.03085
-2.875
2.90083
-0.417032
-54.4827
54.0485
1.06676
-3.1163
1.88938
3.11036
-53.1496
53.0307
-2.92127
-1.95957
1.57295
0.223727
-52.3433
52.0466
0.125804
-1.62583
-50.3249
4.98487
-15.8991
195.863
18.3005
-4.11579
-50.7539
-48.7935
-49.2612
696.563
133.057
13.5364
-187.401
-190.942
-174.178
-178.089
683.106
116.74
14.4573
679.378
77.2041
-5.91874
674.972
32.4911
-15.1029
13.3045
-20.0142
792.694
-735.491
-1942.41
377
161.426
-36.0727
590.754
88.5527
-323.581
526.577
178.997
26.4131
150.402
76.5987
94.3372
139.9
141.311
132.587
-10.7167
-13.8485
155.198
12.2129
7.55585
-3.43347
-2.93927
-42.5413
43.6869
1.66896
3.55823
-1.7924
-3.82373
-48.5631
50.3048
1.33986
2.53451
-1.03768
-5.86138
-55.65
56.9743
3.81753
1.75719
-0.423246
-6.01146
-59.2655
59.6227
5.66807
0.409404
-0.235967
-5.26176
-60.0838
60.1728
5.01338
0.395286
-2.57295
-2.55931
-59.6598
59.2222
2.66582
2.90408
-2.91671
0.307919
-57.1826
56.343
0.978923
2.46945
2.08511
-2.4618
-53.8467
53.1958
3.21481
-2.18726
-50.691
9.71115
-21.3464
197.439
24.9108
-10.3805
-50.9707
-49.209
-49.4637
728.094
133.604
-0.472874
-191.358
-191.906
-178.945
-179.429
720.193
123.103
5.3804
713.385
83.6076
-5.42304
702.769
42.292
-4.7452
21.7191
-13.2399
669.1
-85.6836
610.438
822.541
259.452
-587.624
580.615
209.423
142.458
509.469
254.321
49.3505
107.002
152.51
205.278
129.039
100.702
122.599
-16.6346
-6.40286
132.326
-14.9171
12.6299
-2.15227
5.69037
-42.2204
44.4025
-7.80591
2.08574
-2.3831
5.61052
-48.5308
49.2643
-6.76827
2.80737
-5.41066
2.78019
-51.3564
52.1557
-4.02267
5.85391
-5.07534
-1.72417
-53.8438
54.6592
1.11271
4.87138
-2.82974
-4.98476
-56.2011
56.2176
5.08685
2.71116
-3.1149
-4.7443
-53.9963
52.8311
5.62051
3.40396
-0.410855
-4.25778
-50.1169
49.5921
5.05953
0.133851
2.17741
-5.48123
-48.6336
48.5961
5.86881
-2.52748
-48.1627
9.65622
-28.1584
188.829
28.9407
-10.9634
-47.213
-46.8843
-46.0441
709.839
117.342
-3.83597
-185.306
-179.997
-173.624
-170.609
711.134
111.655
13.1653
709.656
81.5641
9.07354
697.172
53.4405
9.22676
32.4157
-8.39958
2356.28
84.8991
1018.85
1910.34
315.832
-115.726
1116.03
605.197
71.1771
965.531
301.939
14.0659
874.92
225.861
24.9643
207.555
-169.948
-10.2851
35.3911
78.4234
38.2771
77.9984
206.795
196.773
196.652
10.7921
8.63628
191.864
-22.6346
-10.7082
9.73462
10.4671
9.40342
5.18921
-0.756196
-156.444
144.186
-11.0437
0.0324551
7.3345
4.73593
6.76659
3.3206
0.0956018
-152.955
151.989
-10.3539
0.100317
3.15487
2.53053
2.11776
-2.30664
1.58641
-137.48
134.666
11.2439
-2.88525
-0.761497
-2.8213
-1.24132
-5.22554
3.46145
-145.642
151
14.2332
-4.72281
-3.79301
-5.45181
-3.8588
-6.81478
3.31736
-149.842
153.336
20.5524
-4.18346
-4.84867
-6.73977
-4.77763
-6.92233
5.17153
-159.624
163.62
21.068
-6.10605
-5.20964
-6.85537
-5.14168
-7.1026
4.94
-163.09
164.537
23.2716
-5.39536
-5.14422
-6.99185
-5.02398
646.944
90.3207
3.21293
-31.6329
-27.2313
-29.7018
-23.8008
-164.207
-160.628
-156.795
-153.746
669.172
85.058
10.4928
683.767
89.5089
12.5103
688.404
72.4999
13.5408
676.528
62.0213
12.1005
43.6824
-7.71453
-93.904
-1581.42
1118.16
59.5323
235.041
-1182.37
328.16
353.82
-234.091
442.313
209.086
-48.6546
539.507
126.009
-9.46225
489.135
-116.426
-3.81483
483.498
153.325
-29.0139
-20.0404
-46.049
-23.4066
-48.0472
462.372
-75.1475
9.88321
2.56673
43.9491
4.88544
41.7069
458.878
96.2077
-14.6494
-10.6316
-30.2697
-15.4114
-31.425
473.583
-18.5058
10.4111
-13.5555
13.6482
-13.6421
12.7345
495.549
64.7658
4.20548
-19.038
-22.7946
-20.0616
-22.6396
521.328
24.2221
7.05814
-18.4417
-7.36508
-18.538
-6.39342
551.885
53.8627
8.59131
-22.1238
-21.7227
-21.058
-20.0341
577.676
39.6441
14.0951
-23.2077
-14.0998
-20.85
-11.0818
601.285
61.6384
17.9447
621.811
58.9432
15.9057
637.885
69.0386
17.5381
644.959
62.2835
15.8166
640.325
62.9271
13.367
49.0435
-3.62197
72.9096
-1179.57
-3109.38
21.383
87.5629
-647.494
392.801
68.7184
-209.77
459.176
122.276
36.1451
522.512
53.548
-8.31054
497.773
-100.353
16.8639
552.196
102.205
-13.8829
509.102
-35.5317
7.99249
515.454
85.3463
2.9859
491.335
4.11756
1.8029
497.865
57.9249
5.66885
499.746
20.9479
4.22662
511.89
40.7116
7.52759
522.294
31.3512
5.60687
538.496
42.8444
11.1125
555.468
40.1301
8.37771
570.043
52.4429
11.4222
580.451
49.7025
9.65331
587.11
55.0573
7.99991
45.4047
-2.47845
-1132.77
338.374
-3872.69
-299.335
284.504
-1108.73
31.208
30.0824
-705.089
116.559
41.0963
110.776
373.214
-156.453
-104.062
348.906
-94.8566
26.6224
451.044
0.731138
-10.797
443.799
-36.2255
-3.94319
476.238
51.0989
-4.80169
477.171
-0.745542
-4.86509
492.016
41.2369
0.451358
500.133
13.5414
-5.20434
512.415
30.6073
-0.999758
524.666
20.2113
-2.10845
539.503
26.0953
4.78414
551.852
26.8701
3.12766
565.28
37.2052
6.64232
575.446
39.5698
2.04052
583.688
47.2229
0.233397
41.0122
-7.56877
515.965
1621.63
-1403.57
294.108
779.273
-599.183
367.821
234.793
-453.349
390.631
53.5305
-189.74
410.171
-154.302
-49.5588
400.601
-93.1937
-10.43
460.106
-62.3038
-4.92916
444.861
-27.328
10.7329
483.148
8.54116
2.39777
477.237
3.1493
3.23397
498.19
20.188
-4.5644
504.152
9.14831
-4.64476
522.659
12.8385
-6.67689
536.146
8.01441
-7.77875
553.849
11.9972
-5.83169
568.892
13.9046
-5.59105
583.906
21.7079
-1.67561
596.36
28.1444
-3.80278
607.298
37.8725
-6.80636
34.9654
-11.6599
67.0927
-316.991
-3286.42
800.477
204.622
-341.976
881.824
280.713
-170.405
781.672
107.462
80.8213
611.898
-73.5296
209.401
556.915
-59.0822
56.4434
540.58
-62.3747
45.4901
531.387
-20.3027
1.3344
547.049
-10.1859
8.7754
550.462
4.32446
-9.75563
565.012
6.89845
-6.9276
573.007
5.11507
-15.5809
587.518
-0.207945
-14.1356
601.032
-3.54858
-18.1088
618.732
-4.27483
-16.2925
634.084
3.95966
-20.2672
650.498
8.88784
-16.6806
665.202
16.6727
-16.9334
680.877
24.5827
-19.5211
24.8564
-17.919
1431.91
-258.758
2142.51
1719.8
124.814
298.962
1527.07
332.019
729.812
1293.7
172.729
540.426
986.675
80.7219
396.798
833.623
42.1521
164.112
741.647
0.986925
92.4321
699.515
22.5064
14.1947
684.911
13.7096
-19.2776
681.453
25.4798
-50.3589
688.91
16.3573
-60.2549
697.922
14.0741
-63.8703
712.627
-3.43241
-54.5101
727.549
-9.18709
-48.4117
744.255
-14.8256
-38.587
758.709
-0.297353
-43.3018
771.902
8.12545
-45.2586
786.592
18.1774
-47.308
803.046
21.7915
-51.5741
20.031
-41.4077
-111.043
81.2849
317.161
124.216
978.727
33.4069
1174.56
170.018
1222.65
101.995
1255.05
38.7804
1235.34
91.5524
1243.55
97.4932
1238.18
115.562
1252.54
97.3921
1254.58
89.5356
1256.35
76.093
1234.14
76.8058
1202.19
81.7605
1156.3
101.212
1127.95
98.1425
1118.09
78.8201
1121.83
66.1467
1141.71
36.4703
23.9606
-1049.91
-846.948
-1239.99
-78.9619
-430.319
-658.114
606.417
-351.66
-325.449
747.593
-130.048
45.25
830.457
-77.0583
123.5
855.632
-12.2882
49.8133
881.074
-35.0107
192.109
921.267
-28.2423
132.704
966.564
-35.4745
172.514
1019.99
-32.7355
138.868
1068.53
-28.5118
133.499
1119.67
-21.5039
96.6874
1160.08
-8.81172
75.5059
1196.1
-3.25632
44.6112
1233.77
2.674
21.0651
1269.47
2.01105
6.86415
1292.55
5.51467
-15.4403
1300.38
11.8946
-37.9589
1268.64
30.983
-40.2629
36.6485
-29.4302
-317.645
-1890.13
-236.828
237.034
-407.653
-120.515
655.656
-767.413
-298.502
771.634
-244.55
65.5655
796.791
-171.244
7.2097
777.952
-12.9889
-55.1262
763.792
-37.9342
57.087
754.486
-5.61163
9.2945
756.194
-22.0965
58.6817
756.611
-15.1073
24.2153
759.75
-16.3269
13.1183
758.462
-11.5252
-20.7832
757.454
-5.04923
-41.77
758.169
-6.16567
-64.0701
761.467
-7.93992
-71.0493
766.821
-14.6533
-84.6125
771.795
-12.6507
-87.3464
774.495
-10.2778
-105.772
765.422
6.34831
-106.493
14.0258
-73.298
2272.17
526.306
-1327.47
1813.8
106.775
243.104
826.832
-488.151
33.6395
719.251
-198.289
220.828
726.943
-199.6
69.4744
752.318
-26.7337
-1.35477
751.438
-36.9631
61.4514
728.316
22.7472
4.39209
693.656
19.3841
53.2399
659.791
26.2112
26.7956
635.529
21.1341
35.4585
612.519
16.8136
2.43272
594.849
5.70398
-16.098
582.197
0.39602
-21.8996
576.609
-8.16896
-22.8801
575.211
-17.3744
-21.0746
575.17
-17.178
-20.0718
574.187
-14.9864
-20.1883
572.246
1.60314
-14.0659
12.6967
-15.7232
2838.06
122.058
-158.107
2008.51
-43.9152
909.632
1021.83
-247.396
-60.8112
816.641
-136.457
22.501
730.232
-183.364
29.7906
702.321
-4.18482
-36.2714
679.573
-14.7108
31.8278
638.155
57.4448
-5.01237
603.087
47.3657
30.9423
568.853
59.527
12.9806
545.197
42.2149
15.31
523.401
36.053
0.87047
508.528
17.1588
-4.41981
497.103
8.44045
-9.88253
494.589
-8.32914
-5.68947
494.162
-17.5689
-4.66586
496.686
-20.4756
-3.92708
493.723
-12.936
-8.0825
489.53
3.14827
-5.27028
12.3494
-10.5527
1873.26
-471.318
-267.99
1308.14
-292.058
262.847
900.868
-231.828
14.5485
721.344
-86.5159
-29.6184
608.182
-152.851
38.2827
560.254
11.9347
-55.9884
565.194
-33.8543
1.1801
551.254
60.6302
-29.2178
554.986
42.3286
7.7169
549.56
62.3876
-1.01059
545.245
45.2214
6.47415
534.005
43.5521
-3.4399
522.529
26.6705
0.0833286
508.431
23.116
-2.09768
500.577
0.275053
6.84602
494.43
-9.91267
5.73952
495.116
-18.6871
9.6861
494.447
-9.65564
5.0666
495.669
2.0116
5.80178
9.88045
-6.9057
2338.48
-1419.35
-1723.43
1848.25
-262.174
566.705
1104.77
-4.38078
-131.063
894.63
-14.6946
-33.7919
717.99
-22.5309
33.3591
643.411
70.4325
-14.081
651.846
-58.1053
12.2531
626.351
76.1321
-4.15627
626.989
34.8373
4.98482
614.475
69.0054
-7.57955
610.157
44.6069
-10.7769
599.839
46.4746
-14.082
588.843
29.2615
-12.9608
572.345
31.4363
-4.24143
549.494
22.6314
18.2356
534.538
20.3754
46.6175
524.296
12.0115
43.2401
513.159
9.56286
18.95
507.082
7.79101
9.10151
9.68904
-8.2592
1400.29
-825.263
-121.793
996.931
112.009
769.198
806.944
202.109
143.84
718.246
86.527
59.25
659.15
33.1166
77.8304
582.127
140.902
1.94263
569.019
-1.72439
42.7333
-16.3572
-4.61906
-20.1365
556.42
12.4711
22.7484
33.7252
12.7477
33.5741
569.041
9.12997
18.1769
5.72264
6.951
3.81358
575.34
7.33762
6.4796
24.6032
6.83269
23.9747
594.286
4.38704
12.4897
7.43016
4.55332
6.92143
605.407
2.94401
11.0361
15.332
3.02327
16.0357
612.198
1.71367
14.4876
9.50154
2.18092
10.1242
605.46
4.48616
11.872
14.8508
5.23646
14.8693
590.374
35.4792
23.166
571.441
46.8951
31.0175
557.607
41.8995
42.484
548.537
33.806
30.339
544.908
17.2612
15.659
10.2613
-4.4477
1846.25
-867.009
1685.04
1470.6
70.0385
35.2953
1159.41
215.912
70.3799
993.514
145.232
-45.9231
835.396
107.424
84.4605
190.136
41.5971
7.59948
184.785
177.794
171.836
72.0352
41.5721
72.0236
-17.7423
166.731
24.8206
14.6026
-16.8318
-146.995
141.375
18.7417
16.181
-7.88991
-149.317
141.06
18.957
6.32026
1.48221
-141.81
138.663
10.6875
-1.68446
3.56303
-148.42
144.923
7.82978
-3.5087
1.10405
-150.811
149.575
4.04297
-0.967076
-2.37897
-158.197
154.664
6.14823
1.47767
-0.678083
-158.873
154.76
8.81002
0.466966
564.936
13.0618
14.7832
-153.76
-155.838
-142.06
-143.667
18.1932
12.9719
17.7145
553.604
62.7277
21.244
549.993
56.2834
22.6345
550.341
39.9854
12.5438
552.061
16.7787
4.95515
7.91596
-6.70579
365.722
-358.54
-545.113
705.367
-161.428
360.824
697.473
125.353
-94.0511
615.199
113.676
-94.6885
159.228
129.569
74.7035
144.505
142.433
128.092
-6.79984
164.821
41.3474
1.45685
-4.47327
-8.79437
-46.3795
43.7632
12.2589
3.62509
-4.56284
-41.8048
-5.18953
39.5886
7.39676
4.57182
-2.65521
-40.2243
-3.89879
38.6755
5.82878
2.27408
1.6635
-38.981
-2.28646
38.0006
3.31356
-1.71014
3.44279
-39.5957
-0.548565
38.9015
1.13303
-3.33307
3.34793
-40.2054
0.799564
39.6
-0.488107
-3.05398
1.53792
-41.3704
0.177816
40.8567
0.0858476
-1.2879
0.36958
-41.945
-0.937787
40.8353
2.14611
-0.46817
-40.4409
-2.39828
152.273
18.9937
3.7523
-40.9026
-38.8904
-39.3254
554.241
84.9448
26.7212
-147.757
-150.458
-136.988
-139.255
556.376
62.8389
17.8013
561.634
37.8602
4.97251
564.475
11.5356
-1.01658
5.12206
-12.9606
836.736
352.843
1548.46
489.904
106.765
51.3281
314.506
132.819
-219.059
300.821
66.97
-48.3966
110.843
66.5254
78.0123
100.876
98.6106
91.4631
-1.39152
-32.5234
127.506
19.618
-2.36606
-2.99089
-10.4438
-38.5812
40.6923
8.8796
2.44387
-1.9761
-9.40638
-45.6954
46.4603
8.64399
1.97363
-0.240144
-7.06215
-47.7427
47.9737
6.9767
0.0945388
1.93384
-4.13586
-48.253
48.1547
4.31956
-2.01918
-47.3048
3.587
-1.0721
46.9176
1.37415
-3.50184
-45.6852
2.97453
1.48584
-1.45983
-2.62966
45.3143
1.7327
0.634791
-44.7636
44.6588
-0.651895