/*--------------------------------*- C++ -*----------------------------------*\
  =========                 |
  \\      /  F ield         | OpenFOAM: The Open Source CFD Toolbox
   \\    /   O peration     | Website:  https://openfoam.org
    \\  /    A nd           | Version:  10
     \\/     M anipulation  |
\*---------------------------------------------------------------------------*/
FoamFile
{
    format      ascii;
    class       surfaceScalarField;
    location    "6.7";
    object      phi_0;
}
// * * * * * * * * * * * * * * * * * * * * * * * * * * * * * * * * * * * * * //

dimensions      [0 3 -1 0 0 0 0];

internalField   nonuniform List<scalar> 
38556
(
2088.5
-428.985
-5201.3
1752.13
692.243
-355.869
1327.61
341.12
83.394
1128.73
21.0754
177.812
985.766
-63.0166
205.976
997.25
-78.532
67.0487
963.253
-100.044
134.04
961.564
-100.669
102.358
944.813
-107.871
124.622
944.012
-112.098
112.898
948.442
-114.436
110.006
960.528
-107.58
95.4935
973.384
-95.9036
83.0476
997.123
-87.8432
64.1041
1024.64
-81.5767
54.0582
1063.9
-82.3702
43.1163
1112.1
-76.9374
28.7346
1195.62
-89.1417
5.62376
1298.69
-82.3305
-20.7436
-38.4817
-9.71524
-438.079
-2738.94
-2797.42
-83.156
155.469
181.85
739.761
-375.43
-106.367
804.122
-83.1318
39.8453
946.032
-152.541
-52.385
1018.76
-96.1605
-55.0981
1013.57
-112.93
18.0785
993.61
-95.7317
15.0196
923.526
-93.704
55.9171
859.245
-84.2029
36.3858
796.337
-77.7531
26.226
758.264
-62.7393
-6.76775
744.109
-52.4681
-29.2806
744.301
-39.2198
-48.8151
754.871
-34.5534
-57.5935
773.274
-30.7486
-70.0249
795.297
-26.4275
-72.5325
817.259
-22.5009
-88.6033
852.124
-1.91589
-115.279
26.3116
-90.2393
-109.645
-1042.13
214.707
-47.5665
-287.715
381.105
791.361
-608.047
-606.311
872.354
-300.307
136.182
960.021
-303.115
62.9068
1050.92
-195.556
8.49392
1077.74
-178.147
38.3998
1083.55
-117.365
15.8275
1007.5
-65.171
47.512
905.382
-20.3116
38.2279
777.315
-0.514127
50.8277
691.992
7.64837
14.9356
658.762
-3.26589
-15.9722
643.049
-5.06312
-18.4432
640.539
-11.1393
-20.9043
644.311
-17.0046
-17.5163
652.113
-16.9674
-17.2617
663.909
-15.7511
-18.5461
678.806
-0.860668
-15.9525
25.481
-11.7247
432.865
-177.256
-1810.83
404.954
-460.952
201.149
810.526
-470.634
-542.985
883.296
-296.185
-76.892
927.116
-301.382
-45.5518
942.26
-185.216
-25.4845
894.345
-158.841
28.6089
834.589
-63.4199
5.8106
748.526
-5.34278
26.2354
666.854
53.0381
8.32222
609.608
52.4996
4.2318
571.498
51.1383
-5.37971
553.972
21.6081
-7.34745
542.68
15.9334
-9.70535
543.411
-7.55284
-4.31707
547.164
-18.0295
-2.72771
552.243
-19.0694
-2.97715
552.657
-9.95019
-6.21502
544.776
15.434
-8.41391
31.3771
-7.85357
-59.0345
-993.806
1636.97
476.815
-657.424
-339.378
897.564
-333.158
-558.224
890.462
-149.836
-139.247
860.101
-211.406
-59.6159
822.071
-102.35
-44.8357
772.639
-111.109
1.69994
736.913
-2.0951
-25.599
707.081
23.4917
0.99833
688.083
83.3337
-11.2979
676.161
69.0382
-4.61644
663.228
76.6807
-12.6096
648.238
46.3415
-9.74396
626.382
46.0574
-8.26759
594.982
19.4532
4.39458
570.194
2.48379
4.27405
563.016
-19.7506
7.85934
557.672
-10.0206
5.41437
554.205
17.4732
1.42849
30.8063
-4.15897
800.167
-2172.9
-692.694
1050.21
-848.913
-58.5528
1111.49
-245.477
-148.961
1144.28
-111.047
-71.5783
1005.27
-87.8612
15.4658
894.568
16.7591
-8.40851
845.984
-72.8944
10.3687
803.791
54.6102
-14.5115
803.795
33.4742
-9.98739
809.105
96.6316
-18.6073
825.647
68.7353
-16.2388
843.773
79.7048
-21.1507
864.64
42.9393
-17.4645
874.966
43.8578
-8.12666
848.149
37.0762
9.19434
759.811
41.2212
49.6005
657.044
27.3536
55.6628
593.255
32.9833
20.7848
567.127
38.0509
5.55014
34.7628
-4.59818
2039.37
-1782.43
-2761.39
1490.8
-576.636
276.292
1102.42
-182.558
325.463
1041.42
-141.404
91.3527
978.22
-91.6351
66.9779
883.235
116.996
-5.25177
803.417
8.78502
30.0025
-18.8472
7.52482
-20.5421
761.892
14.7945
12.7954
26.5575
14.6585
27.3299
749.551
19.3983
12.324
-1.75406
18.6131
-2.76692
764.075
19.5595
6.90875
20.175
18.18
17.2843
786.184
17.8391
15.2034
0.0540077
15.0746
-1.54446
818.586
10.3837
24.0389
1.29565
9.56319
2.02134
850.018
-0.332868
24.3829
-10.892
2.63782
-4.28879
880.947
-3.74218
23.7133
-6.5986
1.596
-2.03978
890.22
-1.37709
29.1807
855.325
39.8585
36.258
762.613
68.2092
51.8562
674.385
77.1457
44.0656
633.156
61.8106
17.4692
38.427
0.00191953
984.729
-1575.28
-1231.2
882.949
-210.124
-264.732
1097.44
-65.5759
-331.475
1114.54
-2.29455
-156.21
1072.52
12.144
-61.7562
251.228
53.6388
-51.3055
251.245
245.991
246.71
79.7085
43.8558
68.4423
231.66
28.035
0.318795
-204.775
198.134
18.0667
3.36853
-190.597
182.496
24.3625
3.13705
-167.697
169.975
17.5975
-0.316343
-169.636
172.17
16.0155
-0.710706
-169.637
179.202
1.62969
-0.810247
-184.05
193.541
-10.4075
0.583128
-196.175
204.538
-14.0078
1.90318
794.53
-4.6106
7.11467
-203.53
-211.117
-192.489
-194.928
-2.52851
5.30639
0.874866
746.168
69.0428
19.1775
682.676
102.161
29.5409
641.345
101.71
16.7668
627.364
72.0755
3.71615
31.4308
-0.325316
1287.64
-1055.38
2008.36
1019.18
97.6085
-39.2702
1051.58
204.698
-302.676
1154.48
178.462
-283.659
240.075
179.08
13.5182
218.219
263.075
252.661
236.116
53.2109
4.38699
-14.0841
-60.0633
58.1537
14.6549
1.33878
-52.7357
-7.28872
53.2036
6.46843
0.35236
-49.2512
-8.18763
48.1183
8.96777
0.352783
-42.5905
-6.99396
42.6233
7.48009
-0.518934
-42.0236
-5.51409
43.3285
5.55481
-1.34562
-44.9511
-1.25868
46.6653
1.19977
-1.65527
-49.6044
3.20888
51.264
-3.72299
-1.14552
-53.2092
4.55925
54.2017
-5.31768
-0.23401
-54.1815
215.139
-7.13382
1.04072
-54.8279
-52.1239
-52.5233
721.839
111.204
18.8875
-203.58
-203.041
-188.675
-187.591
661.593
134.268
28.1388
636.356
119.355
7.59116
638.763
75.8541
-6.18513
29.1727
-9.98827
-62.2842
-486.404
1373.23
325.367
-18.12
-271.923
573.283
189.794
-233.012
692.792
154.753
-95.7993
152.428
108.563
166.097
127.588
167.513
149.683
-43.9822
154.616
25.7308
16.0632
-12.6836
-43.2053
44.789
8.36118
2.73872
-8.79295
-52.2413
54.2802
6.90851
-0.154488
-10.5953
-58.4323
59.7361
9.71648
-0.424958
-10.8098
-63.0008
63.5704
10.9339
-0.693633
-9.78947
-63.0546
62.3272
11.508
-0.991207
-5.89628
-60.0191
59.5547
8.05955
-1.69882
1.64969
-57.6513
57.4402
-0.610652
-0.827953
4.67079
-56.6919
56.2848
-3.99816
-0.265575
-53.8225
3.00738
209.876
3.436
-5.26185
-53.7057
-51.7321
-51.7969
750.575
140.811
1.38178
-202.466
-202.052
-187.606
-189.439
702.868
162.39
19.5852
679.666
145.547
-2.98968
680.41
93.1081
-17.9985
40.2199
-18.9173
-414.218
-775.218
-1442.75
142.402
-98.4608
-476.28
541.729
-18.6835
-190.849
577.673
118.188
0.620999
141.617
30.9002
108.638
125.707
146.469
132.905
-4.93514
142.935
-0.125486
3.74255
0.169123
-37.627
38.0117
-1.40924
0.855443
-1.37239
-43.7156
46.1165
-0.58743
-0.441077
-7.15357
-52.8558
54.3631
5.60131
0.0449927
-10.3529
-57.987
59.3902
9.23965
-0.289897
-13.8846
-62.4431
63.1716
13.542
-0.385931
-12.3247
-63.6216
62.9537
11.9341
1.05859
-0.283777
-59.7485
57.8717
0.269382
1.89128
-0.119876
-53.6116
52.9099
1.18817
-0.366605
-51.2723
-12.3773
203.142
20.3719
-8.54827
-51.119
-50.0881
-50.1089
772.382
156.946
-14.0446
-199.811
-199.151
-187.888
-187.623
753.792
177.268
3.71223
742.292
163.389
-6.34259
729.953
111.285
-5.83875
53.5609
-10.1125
970.539
370.776
1453.35
1051.63
228.245
-407.799
812.218
207.603
13.1279
707.428
201.453
21.5246
81.4774
95.6083
219.187
109.788
108.449
123.819
11.0421
90.1791
-30.0042
10.2606
8.27906
-33.4985
35.8817
-10.5777
-0.0845994
8.58223
-43.1515
45.3338
-10.8269
0.0624673
7.65306
-48.735
48.9425
-9.9441
2.08347
2.50997
-48.7904
50.0013
-5.79403
2.07316
-8.569
-55.5671
55.5088
5.53829
3.08902
-7.82182
-53.6307
53.9036
7.35537
0.193612
-2.34038
-51.4032
50.1332
3.52575
0.084646
-3.5732
-47.7268
47.7777
4.4141
-0.891854
-47.8539
-25.9072
190.848
29.811
-7.191
-47.0454
-46.8033
-45.8583
734.932
162.973
-20.5867
-188.997
-180.361
-178.912
-172.103
732.281
176.891
3.02726
732.323
157.577
5.77036
723.589
112.578
7.44224
63.762
-4.27228
633.386
-12.8817
-1047.09
844.762
487.121
-470.252
762.205
567.493
-277.332
872.34
146.221
-54.9038
858.475
105.186
4.28724
217.096
-241.238
-17.6416
58.5469
90.2862
51.6789
81.6765
207.53
208.379
202.161
18.5325
205.772
-43.3207
-9.18798
13.6102
18.2402
13.4504
11.5217
-178.36
159.74
-26.2507
-0.225741
11.2269
11.3561
10.9912
9.99223
-160.908
156.803
-32.5289
0.668706
8.45156
9.548
7.97394
5.5688
-135.416
122.687
-6.95703
0.553426
4.57406
5.15015
3.83988
0.572877
-130.726
138.601
-2.19776
-2.08974
-2.11511
0.444258
-2.49023
-4.96541
-139.375
144.616
18.3599
-1.89879
-5.78353
-5.13211
-5.82101
-5.67779
-154.418
159.439
22.6597
-3.20681
-6.60535
-5.67598
-6.51437
-6.37468
-159.313
160.591
28.9198
-3.55435
-6.99055
-6.34992
-6.92894
636.46
128.499
-8.28129
-32.9028
-39.0427
-32.8924
-38.036
-160.366
-153.63
-152.409
-147.399
666.224
133.25
-0.0407489
689.028
149.02
5.06642
706.872
130.665
9.06798
705.663
105.844
7.94232
74.3699
-3.77199
-1806.1
-1361.02
-1525.88
-381.124
183.848
-1121.7
207.117
201.435
-222.183
347.565
25.8438
-20.0703
497.534
-39.7817
-5.00178
493.241
-230.761
-6.18313
513.428
23.3472
-15.2324
18.2892
-29.3025
14.6062
-31.8945
502.219
-129.861
5.38033
18.5881
47.7964
21.0699
48.2342
487.664
21.2769
-5.25183
21.1524
-18.2717
18.0531
-22.4039
482.896
-54.6002
9.05112
6.0985
21.0628
4.03623
19.1201
489.78
35.7156
6.53907
0.764788
-24.1021
-0.763891
-25.0382
509.432
3.27188
10.6969
-9.73659
-6.77992
-10.1995
-6.90442
537.178
62.1321
7.98118
-18.9721
-31.0579
-18.5843
-29.2447
565.394
57.9641
8.84823
-25.4701
-24.4857
-22.9802
-22.0932
591.324
89.6699
12.8993
621.321
92.9955
10.2582
647.978
109.123
13.2402
666.692
99.7086
12.2422
668.084
95.9945
8.45773
77.2252
-0.609552
-1102.89
755.239
-1194.79
-119.342
114.418
-914.116
321.482
-106.204
-133.185
393.846
-74.33
27.8096
504.716
-127.714
-22.9379
491.428
-222.768
5.29439
557.99
-20.0166
-23.1991
528.802
-101.87
1.19835
528.028
24.2087
-2.15841
500.087
-26.1604
-0.498209
493.474
39.4308
2.897
485.587
7.78704
3.37137
492.663
48.6189
6.438
501.232
41.4194
7.97494
516.369
65.7091
8.82416
536.633
66.2631
6.46829
555.28
81.0415
9.43385
570.274
77.8693
6.8462
578.818
81.9102
5.5398
69.2924
0.719072
-457.673
1671.07
-3276.06
-401.729
191.149
-132.675
191.865
-238.391
-461.407
178.612
-163.978
102.9
418.204
-294.246
-73.0601
390.077
-202.109
7.46792
474.231
-93.6674
-10.5024
470.944
-86.4692
-12.1146
495.158
6.97585
-6.98126
489.123
-9.72868
-10.3969
494.854
34.7097
-1.00996
492.365
13.6672
-3.39092
498.783
40.731
1.46979
505.441
34.168
0.593111
518.255
49.719
3.17637
529.866
52.3706
2.28153
542.852
63.2639
4.79185
554.708
64.5141
1.49873
564.773
72.0752
-0.229615
63.3732
-3.43093
692.89
542.76
682.589
738.255
446.106
-300.323
583.639
155.879
-239.655
520.151
60.6849
-161.174
464.544
-207.153
-31.4861
434.244
-153.035
-18.774
469.016
-120.639
-7.79962
444.224
-65.3833
3.70621
465.74
-10.7569
-3.78326
455.832
-2.21511
2.39382
470.826
19.8698
-0.153982
472.259
16.6745
-4.44015
488.071
27.0809
-2.1617
499.343
25.3906
-2.49403
517.402
32.5585
-0.899444
533.447
38.7996
-2.47398
550.017
48.7511
-2.05753
564.726
53.2385
-3.43331
578.787
64.4334
-6.41917
58.9196
-8.35438
2013.97
673.514
-663.242
1759.38
783.722
-83.0292
1345.6
655.825
-86.1614
1036.17
330.138
39.9783
744.447
-30.1876
114.754
641.048
-82.443
32.8079
584.193
-92.2484
28.464
556.106
-35.1966
-2.09966
546.465
-7.02013
5.90459
536.904
14.7834
-7.43759
537.946
24.3043
-5.47618
538.002
28.7216
-12.1033
545.904
28.6246
-9.44515
555.921
28.1431
-12.7705
571.374
27.7282
-10.6224
588.217
34.8036
-12.8477
606.832
41.919
-11.7826
624.479
49.1917
-13.6001
648.179
58.7592
-18.0256
52.6499
-15.165
2582.56
399.586
1692.5
2244.67
730.41
391.202
1663.94
676.25
560.304
1350.89
281.678
361.513
1032.16
44.7178
243.82
837.399
3.23683
109.084
699.864
-16.123
61.4092
624.727
29.0834
10.8574
590.664
40.5817
-13.5394
571.029
69.0931
-34.675
573.519
65.3578
-43.5434
578.823
68.6229
-45.2048
597.073
51.9656
-41.5916
621.141
41.7115
-37.6365
650.542
29.0162
-30.6881
677.898
39.1131
-31.6657
701.865
49.6495
-31.698
722.981
58.3297
-30.2534
754.18
65.3997
-37.8395
57.5606
-32.2608
461.427
1067.93
879.007
312.83
1252.78
302.481
1363.93
170.522
1345.2
63.4454
1320.74
27.6972
1233.46
71.1652
1178.63
83.9124
1122.53
96.6736
1105.61
86.0187
1095.22
75.7456
1099.72
64.1278
1093.18
58.5025
1075.47
59.4207
1033.87
70.6173
1001.99
70.9936
990.627
61.011
997.196
51.7607
1028.32
34.28
25.656
-328.919
-464.958
-1743.52
134.192
-595.627
-223.352
484.415
-252.811
-14.0184
684.258
-152.687
130.657
801.351
-93.1683
182.051
854.709
-55.806
69.4963
871.696
-62.5769
179.63
898.651
-60.3504
135.754
918.167
-69.5224
174.629
948.731
-70.9966
153.331
978.387
-67.9884
148.338
1011.87
-60.1478
122.162
1039.46
-48.4946
103.946
1072.74
-43.4687
74.2934
1106.27
-37.9795
58.5132
1146.79
-39.6127
42.2026
1201.76
-38.0688
11.8417
1270.97
-44.3111
-19.2831
1310.05
-17.3498
-42.4656
8.11681
-23.149
259.435
-1841.12
-1222.83
35.2762
-634.049
444.432
742.779
-665.04
-401.64
775.862
-217.268
71.3435
836.997
-167.689
-38.9989
848.362
-59.7874
-62.482
831.092
-74.4094
47.1811
817.91
-53.2456
21.0962
789.423
-53.2707
68.1529
764.988
-44.8471
34.671
744.602
-42.2635
20.8874
731.282
-34.1439
-19.4523
725.761
-26.8023
-45.4519
726.981
-22.6494
-70.8535
733.465
-20.8664
-81.1905
743.87
-22.5749
-97.4684
756.309
-20.8442
-102.196
769.629
-19.4339
-126.8
781.977
-2.74366
-142.234
17.2042
-106.527
835.953
-407.405
2196.67
497.649
-384.722
470.082
627.918
-588.908
-812.712
705.879
-275.328
116.281
804.071
-245.255
42.2803
864.771
-122.325
10.3325
874.078
-106.386
61.0687
855.592
-39.2609
20.3282
791.223
-15.0423
73.6528
720.802
14.6057
49.1966
657.273
14.0828
58.0098
612.303
12.5286
13.2338
586.838
-0.927476
-16.3826
573.929
-4.94074
-23.2434
570.631
-12.2073
-26.2649
572.105
-17.2487
-24.3167
575.375
-16.6835
-24.6921
579.297
-15.0762
-26.826
584.261
-0.876895
-22.7828
17.9467
-18.4718
646.959
1076.82
53.6595
688.79
-115.915
-109.489
785.914
-381.096
-847.92
804.493
-241.573
-129.227
790.377
-238.42
-38.2698
783.346
-106.85
-33.9285
747.62
-83.6694
41.6187
694.745
16.5608
2.86376
635.192
35.0941
35.6521
576.658
71.8102
9.65196
537.866
49.6417
7.4653
508.012
44.2148
-7.21262
492.609
17.0713
-9.94277
480.854
10.5257
-13.4167
479.901
-9.06803
-6.50312
481.384
-16.7905
-4.66865
484.351
-17.7826
-4.84528
482.972
-10.4651
-9.4477
476.468
8.83483
-11.6208
21.6124
-13.7206
1223.33
871.282
2785.66
1321.6
-36.1034
-517.451
890.17
-155.548
-352.347
762.045
-114.999
-137.695
669.248
-176.444
-28.7955
622.995
-52.6349
-52.7983
605.77
-72.0192
7.27563
582.601
41.0271
-26.8973
575.186
35.5638
7.94427
563.991
81.7575
-10.0506
558.354
51.2818
-0.619104
546.409
56.9451
-13.3948
533.434
28.6846
-8.38199
516.106
27.8422
-8.25636
499.533
7.16727
4.73229
487.508
-7.10409
6.61294
484.518
-17.4974
10.5645
481.511
-7.77436
5.73036
480.32
9.32781
2.1267
20.0874
-7.57994
426.364
-655.534
-3977.77
569.127
-162.246
-75.1728
890.541
-27.6777
-598.246
910.556
-53.0959
-153.497
799.056
-63.8597
14.3813
701.896
47.2574
-11.1411
687.114
-70.8049
23.9363
651.883
69.3821
-7.63479
651.969
27.5253
-2.03456
647.29
81.8511
-14.0226
652.59
44.4694
-14.726
655.221
52.2865
-19.1232
656.688
26.9837
-17.2302
652.378
33.1849
-9.1593
627.542
25.291
15.9061
580.312
33.3301
56.3968
536.442
22.6696
59.3662
504.528
23.6462
21.2779
490.815
22.8324
5.75878
20.6174
-7.78217
1321.7
-782.238
-296.321
735.158
-215.206
915.797
771.738
32.8765
228.329
767.051
-39.4003
82.3442
739.231
-47.1276
78.0653
642.109
139.277
-0.148559
607.212
1.56807
44.1534
-23.949
-1.84702
-25.8311
585.25
14.5049
20.6392
27.1451
15.1398
26.7104
588.059
15.4665
18.8903
-4.89144
13.6253
-6.05083
605.437
16.5842
11.5963
14.511
15.5549
13.1357
629.821
11.8463
19.8091
-3.27749
10.5532
-3.64218
658.209
8.61758
25.1246
2.13343
8.92558
3.13595
678.527
5.3217
24.8522
-4.01409
7.22383
-2.33491
686.802
7.95366
24.3103
1.30344
10.4545
4.60163
677.621
32.587
31.0654
641.658
62.6029
42.9481
590.498
65.6531
60.0326
554.407
58.4206
45.3824
538.676
37.0071
19.0258
21.0366
-2.41255
931.349
-2121.76
-2259.43
1234.77
-394.36
-389
1123.75
55.0542
-242.628
1030.61
54.364
-156.835
892.093
32.3779
-2.74765
202.786
45.2643
-32.6807
202.397
191.133
190.365
68.2804
44.7062
67.8133
-7.76526
182.164
23.6132
6.34135
-8.87612
-157.289
155.511
14.6303
10.5293
-6.38256
-152.729
148.577
19.3874
6.61329
0.60525
-138.478
143.56
11.8593
-0.962852
0.338512
-145.494
149.685
8.2782
-0.961089
0.281139
-148.452
157.102
0.0559094
-0.369378
-1.32963
-159.848
166.527
-2.04363
2.01673
-1.41049
-165.747
171.861
1.68052
1.56925
614.263
15.6453
12.0509
-166.916
-169.506
-154.785
-156.326
11.974
18.37
14.932
582.901
86.6632
26.4789
557.403
87.3351
33.3575
543.93
71.0528
17.6073
542.644
38.4784
3.53135
16.3139
-3.65828
1499.03
-1391.22
444.755
926.892
-338.232
476.738
801.173
112.278
-234.181
742.777
71.1488
-242.049
181.166
90.2663
39.1666
168.785
161.962
147.328
-9.04284
199.077
34.1369
2.25937
-3.28018
-12.0926
-53.6222
52.7586
13.4443
2.79215
-1.83431
-45.7354
-7.08341
44.9755
7.41563
2.262
-1.71902
-40.8275
-6.81914
40.6527
7.09498
1.61804
1.46293
-37.8083
-4.6985
38.436
4.33166
-1.72387
3.05114
-38.3596
-2.66631
39.5398
1.91005
-3.4751
3.72516
-39.9363
0.457536
41.0193
-1.38609
-3.8796
2.41103
-42.2919
1.58387
43.4625
-2.78756
-2.37796
1.0214
-43.9701
0.457076
44.7809
-1.39748
-0.891737
-43.5695
0.524241
170.618
15.2922
1.21143
-44.0895
-41.9164
-42.4252
569.355
119.327
28.6024
-159.07
-160.889
-145.017
-146.758
553.834
105.229
25.7656
551.044
75.4058
6.02806
555.62
33.9723
-6.25498
13.1078
-13.8955
432.699
-307.394
1675.58
68.762
-37.1728
-209.044
234.833
96.8093
-383.614
295.076
35.6364
-120.53
113.339
24.8754
130.648
97.7052
99.6492
85.2213
-15.944
-22.7423
131.312
13.7938
6.91992
-4.65633
-9.61927
-40.2606
42.8756
7.41146
4.24913
-1.66198
-9.43208
-48.229
48.8686
8.28878
2.16569
-0.203258
-9.2246
-50.0067
50.3578
8.6751
0.401655
1.78816
-6.05504
-50.9093
50.8969
6.34221
-2.06289
3.56656
-2.7497
-50.1632
49.7897
3.60992
-4.05328
3.7679
1.1656
-48.4043
47.9421
-0.639126
-3.83219
1.64412
3.50828
-47.1776
47.1534
-3.40549
-1.72263
0.896933
1.21189
-46.6736
46.3847
-0.778682
-1.04121
-44.5038
6.29267
-18.1798
171.884
20.8538
-5.23488
-44.7563
-43.0266
-43.3296
599.828
140.446
13.696
-163.25
-166.247
-150.19
-153.572
587.416
123.156
14.0703
585.132
82.6372
-7.93778
582.035
36.9525
-17.8814
16.2486
-22.4478
537.958
-868.187
-2110.42
147.134
-13.3081
-109.32
389.078
-45.697
-290.287
347.129
62.2263
15.9799
114.453
-25.7959
89.5275
101.836
105.918
94.7042
-13.0693
2.22618
120.361
-5.72059
10.6559
-4.13921
-0.244048
-33.9861
35.303
-1.22987
4.2962
-1.77977
-1.54323
-40.5611
42.3896
-1.02469
2.51919
-2.3242
-3.75186
-48.1322
49.6802
1.63346
2.89458
-0.968972
-4.63895
-52.7082
53.352
3.22807
1.73603
-0.0493475
-4.42011
-54.1047
54.1932
4.10121
0.279679
-2.63079
-0.813997
-53.4908
53.0058
0.959462
2.97023
-2.98576
1.44218
-50.9859
50.19
-0.196395
2.53595
2.15798
-1.66773
-47.7429
46.8533
3.0633
-2.66392
-44.369
11.6191
-23.2971
172.448
26.3921
-12.1667
-44.5484
-42.9666
-43.1118
630.935
140.119
-1.51433
-166.822
-167.045
-154.538
-154.734
623.692
128.691
5.42032
617.992
88.3879
-6.39335
608.215
46.0513
-5.16087
24.3754
-14.175
549.991
-441.557
969.874
610.898
7.531
-489.545
391.077
26.9079
160.344
327.58
101.332
45.9161
76.7316
13.0487
187.005
89.7383
70.9574
83.4899
-18.1258
15.9669
98.2923
-31.8461
12.4443
-1.37491
8.41352
-33.6692
35.6978
-10.4264
1.35919
-1.49549
7.78396
-40.2961
41.2115
-9.05673
1.85294
-4.64174
5.03906
-43.6473
44.4432
-6.09039
4.89714
-4.60387
0.733838
-46.4619
47.4151
-1.67268
4.58951
-4.45823
-3.72875
-49.7632
50.0534
3.5935
4.30332
-3.96179
-3.73631
-47.7473
46.5921
4.77135
4.08193
0.293652
-3.39632
-43.7257
43.1581
4.311
-0.640648
2.6755
-5.41835
-42.165
42.1872
5.76839
-3.04774
-41.929
10.696
-29.314
164.359
29.7654
-12.0274
-40.9899
-40.6806
-39.8799
612.071
122.256
-5.11956
-160.579
-154.699
-148.993
-145.405
614.087
116.25
13.4515
613.189
85.37
9.68636
601.548
56.4939
8.64077
34.5597
-7.77129
2321.69
407.591
1752.35
1674.06
238.737
-53.826
913.164
444.421
66.0473
803.466
123.557
32.5696
724.027
77.1785
19.5959
175
-241.471
-12.4639
59.9455
85.2144
62.0442
84.8233
169.004
164.804
159.484
16.0713
7.0913
157.754
-36.0657
-9.06348
11.9155
15.7046
11.5932
9.27748
-3.08715
-126.848
115.749
-24.0945
3.35885
8.66628
8.82054
8.15775
6.61943
-2.05099
-123.707
123.204
-21.0726
1.76138
4.88344
6.12136
4.24113
1.41917
0.583714
-109.176
106.281
-0.363197
-1.06268
0.996277
0.880811
0.440552
-1.30817
3.80269
-117.455
124.163
4.05874
-4.19378
-3.64912
-1.66449
-3.75321
-4.77556
3.13105
-122.868
126.708
16.9106
-3.95623
-5.27909
-4.69173
-5.17886
-5.21838
5.43624
-134.71
138.388
19.614
-6.48276
-5.97046
-5.16099
-5.8956
-5.82954
5.44458
-137.59
139.115
23.0527
-5.963
-6.31984
-5.72429
-6.18508
547.523
93.5377
2.31533
-28.0928
-33.3721
-26.2035
-29.8382
-138.95
-135.098
-131.7
-128.403
571.041
88.8764
9.82178
586.203
93.2512
12.9028
591.352
75.6806
13.6086
580.393
64.6076
10.7873
45.4364
-6.85264
-215.75
-1804.72
1417.1
36.5376
126.804
-1262.06
219.151
211.42
-171.795
297.95
50.3709
-25.6838
397.904
-13.1161
-14.6608
365.307
-204.568
-10.4891
372.366
65.2542
-22.1013
6.97327
-36.5743
3.33503
-39.1786
352.708
-126.885
9.06762
24.4899
47.2638
25.6533
45.4489
355.01
41.1451
-10.4713
10.455
-25.645
4.26371
-27.3014
365.962
-62.0062
15.5714
3.94946
18.7591
3.71078
18.1143
390.666
34.9385
3.32657
-2.41104
-25.2253
-3.81064
-24.9824
418.291
-6.58462
14.546
-8.36769
-5.23346
-7.14348
-4.14483
450.605
48.5727
9.01179
-16.2042
-26.3144
-14.959
-24.4403
478.209
34.0558
14.0812
-18.2465
-18.3121
-15.6368
-14.6971
502.296
64.0422
18.3082
523.593
61.9295
15.9074
540.067
72.249
17.7691
547.672
65.1202
15.1974
544.016
65.2811
11.4396
50.549
-3.60559
-250.905
-1191.71
-4022
-132.557
-45.0001
-860.66
248.363
-118.817
-183.867
329.777
-42.9389
39.7051
404.064
-87.7564
-22.5846
389.728
-196.626
11.688
449.516
7.13177
-24.8643
413.35
-95.4427
5.92157
416.099
35.0109
1.22654
393.339
-41.481
1.73758
397.534
27.8633
5.77662
397.477
-7.98423
4.82863
411.626
31.4945
9.3669
423.106
19.2455
11.3051
439.716
43.9094
12.3468
457.328
42.2063
8.57907
472.217
55.2681
11.5265
483.19
52.3737
8.61989
490.688
57.3254
5.99742
46.9677
-2.95951
-1611.48
-169.396
-4837.62
-476.283
-26.0566
-1286.81
-62.2224
-262.501
-731.784
67.2171
-172.7
103.222
292.847
-280.627
-105.82
269.281
-192.485
26.8932
364.887
-80.2645
-18.712
357.295
-92.2403
-7.72467
388.661
-1.61473
-1.7209
384.605
-41.3547
-6.46773
398.527
7.40536
5.52599
400.789
-10.6096
-3.02804
414.318
13.1019
6.33286
425.011
5.15964
3.98604
440.924
24.5972
6.57573
453.626
27.985
3.80039
467.29
39.6869
6.70876
477.919
42.0544
1.18934
487.032
49.4628
-1.4799
42.5438
-7.2503
242.958
439.141
-1873.51
336.143
190.394
-609.958
323.371
-31.0022
-458.381
338.178
-156.705
-191.977
363.123
-282.834
-54.2227
347.794
-184.086
-11.8452
395.246
-128.837
-6.67871
375.242
-77.089
8.55956
403.431
-34.4291
0.841989
392.53
-30.9746
2.91402
408.534
-7.04039
-1.71149
409.706
-14.793
-1.42909
426.082
-5.40659
-0.029368
436.666
-6.13868
-1.78034
454.712
2.92129
2.73072
469.719
12.1749
-1.67108
485.216
23.6064
-1.47408
498.345
30.5198
-5.02773
510.222
40.0577
-8.89063
36.4964
-12.7688
331.408
-728.489
-3120.55
886.946
-98.4658
-349.708
932.586
71.0504
-233.854
788.657
-45.9369
73.1394
599.536
-181.409
202.45
526.548
-130.445
52.1543
494.495
-112.662
44.3423
473.679
-57.6933
-0.679434
476.825
-40.0563
8.38596
471.785
-21.0895
-12.2829
479.22
-14.4804
-5.47138
481.943
-12.4482
-17.1712
492.909
-13.2232
-12.5944
503.945
-12.4931
-17.4516
519.538
-10.4815
-12.8132
534.851
-1.343
-14.6425
551.165
7.96204
-12.4524
566.481
18.334
-16.7303
583.301
26.6668
-21.4549
26.3462
-19.5913
1692.66
-1140.78
1425.29
1895.37
-163.243
253.269
1643.24
140.97
742.516
1347.45
66.506
544.855
1000.15
14.1894
395.527
819.917
0.671439
158.2
707.189
-28.6298
90.1043
648.925
-0.0421078
11.471
620.637
-3.45276
-21.8548
606.037
13.1521
-54.3167
605.725
4.12129
-61.8335
608.758
5.46005
-66.146
619.189
-9.536
-55.7097
631.321
-12.9956
-49.2655
645.971
-16.9328
-38.8879
659.468
-3.23681
-43.2682
672.367
7.83857
-44.4732
687.326
18.6782
-45.5571
704.818
22.7108
-51.3757
21.0844
-42.4151
635.963
123.172
703.205
82.3461
1185.56
-38.9052
1282.63
139.963
1265.88
94.3844
1257.1
37.1465
1208.62
91.0149
1196.56
95.9348
1176
113.777
1179.46
95.7143
1172.13
87.1944
1167.31
74.4029
1139.71
76.5696
1104
82.1383
1056.15
101.536
1026.67
97.2315
1017.01
78.5151
1021.26
66.1861
1042.16
36.0884
23.3695
-1129.01
-1022.85
-1208.16
-305.2
-481.075
-566.088
534.771
-353.447
-500.542
685.198
-149.72
129.951
749.455
-86.5799
204.373
778.063
-27.6765
68.5648
802.697
-37.9956
192.992
845.11
-30.0294
123.371
891.235
-33.6904
162.194
945.057
-31.3702
130.879
993.507
-27.4537
127.342
1044.54
-21.1015
92.2325
1084.7
-10.1584
73.9433
1120.9
-6.05431
44.1446
1158.58
-0.683637
21.5149
1193.82
-0.346729
7.31329
1215.65
6.00325
-15.9957
1223.12
12.4217
-39.1737
1191.92
30.6854
-41.9493
36.131
-30.5623
-421.773
-1557.09
-273.153
251.243
-455.591
-254.069
620.864
-747.518
-377.19
714.647
-260.69
88.5307
718.738
-171.859
42.1887
699.047
-41.8206
-28.6462
683.249
-49.3732
74.3564
677.808
-23.8948
20.4023
680.276
-29.0937
61.0888
681.537
-21.0034
23.0426
684.792
-19.5366
9.71527
683.63
-15.1528
-24.2387
683.62
-10.0513
-45.5487
684.753
-9.43335
-68.6078
688.05
-9.35924
-75.8118
692.177
-12.9882
-88.9542
696.098
-10.6376
-89.4759
697.872
-8.67533
-107.477
689.042
6.6245
-109.343
14.1114
-76.0657
2221.53
396.978
-720.534
1868.64
-56.1014
423.483
813.282
-456.25
-48.621
665.507
-224.146
227.512
658.719
-203.687
80.8965
673.527
-63.5058
17.2094
673.982
-57.7304
68.9718
649.946
2.45449
18.0146
618.448
8.43709
67.6202
583.017
26.7572
36.8669
559.635
19.3216
42.5339
536.82
16.2782
4.61813
520.164
3.47814
-13.2569
508.714
-2.04799
-19.1783
503.737
-9.84513
-20.8026
501.364
-14.8568
-20.0746
499.988
-14.056
-19.898
497.819
-12.1265
-21.2056
495.724
2.24205
-16.3051
13.7914
-17.898
2983.41
440.345
-184.4
1937.74
-79.6152
959.69
957.771
-239.242
-84.9592
742.57
-158.583
20.4105
655.172
-187.774
33.2157
623.446
-50.5289
-15.18
603.552
-45.4148
49.1973
560.624
44.5994
3.6473
529.702
39.0672
35.944
490.28
67.6363
8.19469
467.456
40.2624
9.34893
444.149
36.2978
-3.92614
432.12
11.6243
-6.05984
420.927
5.43115
-9.70251
419.624
-10.5031
-4.54239
419.432
-15.3482
-3.9848
420.722
-16.2845
-3.90692
417.776
-10.1081
-8.52048
411.708
4.65984
-7.96978
14.8834
-15.1621
1647.37
-706.953
-1028.53
1188.88
-300.137
161.559
806.695
-230.175
20.7749
635.591
-118.01
-7.16549
533.219
-157.211
43.0134
481.493
-25.2965
-26.3048
483.691
-63.1624
22.8254
468.578
48.3825
-15.5681
475.231
25.522
14.8372
468.155
67.5782
-2.91701
466.291
36.6176
4.89015
454.958
42.0061
-7.77056
444.498
17.3645
-3.66231
429.457
17.8946
-5.67875
421.391
-3.10151
5.39711
416.344
-9.42431
5.73546
416.434
-14.2149
8.40485
415.827
-7.2427
3.47227
415.452
4.41581
2.74607
13.3767
-9.64367
2432.44
-898.39
-1973.84
1789.94
-180.51
447.703
1029.44
34.5702
-102.492
808.147
-32.7011
-17.5096
654.004
-48.2584
59.5723
558.587
60.2044
-1.22546
566.041
-77.3795
30.6992
532.855
73.0765
0.857552
536.15
13.2687
6.92349
526.378
68.0364
-4.70931
525.988
28.9276
-6.64592
518.29
42.1047
-11.524
508.804
19.8561
-10.2353
491.74
30.625
-4.82619
468.712
19.102
16.7306
450.895
23.6662
41.124
441.681
15.189
39.1761
429.373
13.2765
13.0669
422.732
12.661
4.15391
13.1644
-10.0975
1161
-420.498
1134.23
801.819
210.535
883.935
639.224
229.983
195.511
592.029
30.5714
66.2667
565.375
-25.1682
81.6291
469.419
156.303
-0.290508
467.019
-4.7269
40.5566
-28.029
-7.96477
-30.6623
454.875
16.5754
20.0176
26.6269
17.0537
25.5859
467.94
10.442
19.8147
-8.47766
7.70628
-10.3908
483.712
14.1223
13.9621
11.6208
13.0564
11.0993
505.251
8.59053
20.3899
-4.5181
7.66902
-4.93372
522.672
9.36681
21.7162
4.08962
9.77722
4.85852
530.284
8.79267
20.1769
-1.04411
9.65924
-0.489163
523.389
13.106
18.6206
7.30064
13.9773
8.82626
505.712
44.3954
23.4489
484.311
57.1962
30.8194
469.172
49.3774
40.9827
459.934
39.776
28.1211
457.322
21.5802
12.7187
13.1529
-6.15877
1356.3
-1115.64
2124.18
1223.25
-112.639
67.2263
1014.28
137.677
58.6563
862.313
80.5079
-54.809
713.642
38.3799
82.3754
157.469
48.572
-4.24631
156.709
144.741
143.448
71.3269
48.1051
71.1397
-11.9831
137.793
18.6312
8.30003
-11.3004
-115.763
118.736
13.5803
11.3224
-6.58653
-120.459
118.789
13.229
5.46897
0.896406
-111.824
118.356
7.26141
-0.567032
1.02513
-120.992
125.365
4.36255
-1.17
0.356957
-124.109
131.599
1.69693
-0.177095
-1.6727
-132.896
137.387
4.57028
1.40386
-1.39234
-134.363
138.278
8.9407
1.6424
473.888
20.9248
16.1944
-131.396
-133.338
-119.818
-121.333
15.6275
20.7864
14.9104
463.012
72.8872
21.6632
459.387
63.8595
22.5009
459.998
45.7874
10.9846
462.849
20.6814
1.57924
10.6582
-7.56232
178.234
-489.905
-345.956
514.615
-271.262
298.981
530.142
25.2474
-137.279
460.844
23.481
-115.724
120.465
54.3696
65.3284
105.521
104.003
88.7037
-4.76344
138.411
35.0914
0.298358
-4.23111
-10.3786
-39.063
38.3428
11.983
3.34693
-3.29122
-34.0416
-5.94938
34.1126
5.92946
3.24005
-1.51365
-32.8918
-4.75603
33.511
4.35686
1.29365
2.03154
-32.139
-2.49638
32.9797
1.76879
-2.14461
3.61264
-33.114
-0.907522
34.0878
-0.176871
-3.50201
3.48812
-34.0094
0.34857
34.9827
-1.62613
-3.18383
2.07507
-35.4506
-0.429811
36.3964
-0.843421
-1.74764
0.608771
-35.9061
-2.51274
36.5301
1.67111
-0.391142
-34.3895
-2.4079
132.894
22.1592
3.90551
-34.9425
-32.8815
-33.4123
460.582
92.5436
27.3581
-123.784
-126.489
-113.215
-115.505
463.557
69.4828
17.1675
469.589
43.275
2.50782
473.664
14.409
-4.05764
7.38571
-14.6475
765.53
480.232
1652.02
306.377
-9.54082
-11.6122
140.484
21.4627
-213.936
131.693
-33.674
-54.5843
74.7537
-13.5665
79.8912
61.4538
63.3137
50.8654
-5.60899
-17.9087
90.996
6.228
1.0473
-4.39509
-9.26008
-31.1151
33.7366
7.15649
3.87721
-2.84707
-8.07168
-39.3004
40.1028
7.24948
2.86686
-0.553068
-5.08074
-41.6033
41.9454
4.74032
0.551377
2.27471
-1.77699
-42.3421
42.297
1.83495
-2.28753