/*--------------------------------*- C++ -*----------------------------------*\
  =========                 |
  \\      /  F ield         | OpenFOAM: The Open Source CFD Toolbox
   \\    /   O peration     | Website:  https://openfoam.org
    \\  /    A nd           | Version:  10
     \\/     M anipulation  |
\*---------------------------------------------------------------------------*/
FoamFile
{
    format      ascii;
    class       volScalarField;
    location    "6.7";
    object      turbidity_0;
}
// * * * * * * * * * * * * * * * * * * * * * * * * * * * * * * * * * * * * * //

dimensions      [0 0 0 0 0 0 0];

internalField   nonuniform List<scalar> 
12920
(
-0.0150539
-0.0252623
-0.0496867
-0.0831155
-0.113159
-0.14046
-0.167924
-0.199584
-0.234032
-0.26864
-0.298768
-0.321295
-0.336447
-0.346219
-0.352717
-0.356934
-0.359809
-0.360631
-0.361717
-0.371857
-0.0640096
-0.043536
-0.0593488
-0.0729498
-0.0896972
-0.112835
-0.143286
-0.178301
-0.21937
-0.264614
-0.303805
-0.323918
-0.325114
-0.317001
-0.309287
-0.301706
-0.296823
-0.292229
-0.293482
-0.321034
-0.0222731
-0.0561968
-0.061615
-0.0842334
-0.104291
-0.12317
-0.143769
-0.16831
-0.200228
-0.244998
-0.299693
-0.351517
-0.389614
-0.423885
-0.45583
-0.486938
-0.514359
-0.539031
-0.560729
-0.585638
-0.0208177
-0.0560171
-0.0615776
-0.0814501
-0.102857
-0.127491
-0.159751
-0.201284
-0.255366
-0.317536
-0.3792
-0.431936
-0.478838
-0.519924
-0.560772
-0.598335
-0.633754
-0.668255
-0.705589
-0.746708
-0.0614401
-0.0434025
-0.0442368
-0.0647803
-0.0924362
-0.121628
-0.158581
-0.194556
-0.237977
-0.280294
-0.322328
-0.364844
-0.412759
-0.466548
-0.5235
-0.581097
-0.637828
-0.693621
-0.74348
-0.787471
-0.0401286
-0.053164
-0.0593169
-0.0759947
-0.0993628
-0.127265
-0.160267
-0.1884
-0.214379
-0.23721
-0.258411
-0.279709
-0.301764
-0.330313
-0.364321
-0.416693
-0.498849
-0.596321
-0.680747
-0.739177
-0.0222552
-0.0447962
-0.0619698
-0.0789765
-0.0989972
-0.123977
-0.154067
-0.187023
-0.216111
-0.240803
-0.259693
-0.274742
-0.286369
-0.30267
-0.328533
-0.368344
-0.428871
-0.511145
-0.59311
-0.651149
-0.0162064
-0.0342984
-0.0431916
-0.0626768
-0.0897842
-0.120507
-0.128311
-0.14376
-0.162749
-0.175373
-0.180845
-0.166775
-0.14735
-0.133983
-0.167437
-0.245152
-0.338062
-0.428229
-0.493692
-0.525002
-0.00957828
-0.0229514
-0.0339547
-0.05249
-0.0816305
-0.0929827
-0.109987
-0.122696
-0.133536
-0.136187
-0.126689
-0.106522
-0.0880106
-0.07706
-0.0831085
-0.165287
-0.251189
-0.324527
-0.366091
-0.382007
-0.0281418
-0.0380364
-0.0554499
-0.0851008
-0.1166
-0.117467
-0.114716
-0.106902
-0.102213
-0.0994817
-0.0952749
-0.0881482
-0.0794564
-0.0740349
-0.0764021
-0.12401
-0.185476
-0.239575
-0.274944
-0.300496
-0.037063
-0.0564815
-0.0829891
-0.114849
-0.146994
-0.148061
-0.146003
-0.131126
-0.111133
-0.0950342
-0.0859365
-0.0807988
-0.0794562
-0.0841156
-0.0806846
-0.106387
-0.15393
-0.200467
-0.241045
-0.276297
-0.0131608
-0.0364809
-0.065514
-0.102228
-0.142684
-0.152058
-0.158004
-0.15805
-0.156258
-0.146638
-0.119851
-0.10472
-0.108202
-0.106706
-0.0901754
-0.108648
-0.151335
-0.195493
-0.237764
-0.277299
-0.0207158
-0.0496413
-0.074848
-0.107682
-0.137407
-0.165179
-0.165983
-0.168815
-0.178299
-0.184745
-0.180489
-0.166681
-0.150543
-0.13089
-0.131936
-0.1577
-0.19039
-0.228375
-0.269659
-0.314007
-0.063831
-0.0663147
-0.0928746
-0.125502
-0.154219
-0.18655
-0.205241
-0.238468
-0.263497
-0.300796
-0.320343
-0.335033
-0.324214
-0.311085
-0.296913
-0.297352
-0.310463
-0.337797
-0.375576
-0.423612
-0.0483291
-0.0627236
-0.0920651
-0.138481
-0.1686
-0.205366
-0.231921
-0.265913
-0.29834
-0.337168
-0.372306
-0.406736
-0.424839
-0.436281
-0.43945
-0.447636
-0.461831
-0.488135
-0.522835
-0.566885
-0.113679
-0.102876
-0.0953024
-0.141833
-0.163114
-0.197929
-0.233678
-0.269342
-0.306636
-0.342979
-0.381867
-0.419973
-0.456317
-0.489331
-0.516545
-0.542634
-0.56786
-0.59621
-0.62489
-0.652771
-0.0624181
-0.0737527
-0.0840148
-0.125042
-0.16749
-0.219717
-0.270401
-0.319526
-0.355868
-0.390472
-0.420533
-0.451926
-0.484106
-0.515338
-0.54575
-0.573025
-0.599203
-0.623079
-0.6417
-0.657676
-0.0528904
-0.0601778
-0.0719417
-0.101346
-0.140313
-0.187566
-0.237125
-0.28549
-0.331722
-0.367117
-0.399454
-0.424666
-0.449959
-0.47209
-0.494773
-0.515352
-0.535846
-0.552277
-0.562585
-0.572481
-0.0411076
-0.0616808
-0.0796454
-0.108352
-0.14339
-0.182339
-0.222892
-0.260494
-0.28962
-0.316523
-0.34369
-0.370932
-0.397767
-0.419129
-0.436209
-0.448993
-0.460358
-0.471461
-0.47788
-0.489109
-0.0573714
-0.083136
-0.0942665
-0.10708
-0.122701
-0.143065
-0.166257
-0.194491
-0.222231
-0.24917
-0.271928
-0.292315
-0.310687
-0.331604
-0.358219
-0.390519
-0.423139
-0.451961
-0.475244
-0.493377
-0.00241795
-0.00799595
-0.0207084
-0.0291115
-0.0440509
-0.059584
-0.0807816
-0.0987191
-0.115829
-0.12819
-0.136457
-0.140037
-0.140559
-0.136949
-0.131008
-0.12169
-0.10843
-0.0935645
-0.0850425
-0.0823487
-0.0255442
-0.00705884
-0.00584568
-0.0093188
-0.0148755
-0.0240295
-0.0405591
-0.057372
-0.0714964
-0.0701418
-0.058706
-0.044006
-0.0358199
-0.0323574
-0.0320399
-0.0337165
-0.0369224
-0.0415637
-0.0488114
-0.0618518
-0.0195277
-0.0119631
-0.00824555
-0.016737
-0.0195132
-0.0230944
-0.0346875
-0.0469193
-0.0623631
-0.0674776
-0.0636948
-0.0532857
-0.0503593
-0.0536714
-0.0602026
-0.0687679
-0.0787466
-0.0900814
-0.102649
-0.115714
-0.0102612
-0.016009
-0.00982302
-0.00969226
-0.0138952
-0.021325
-0.0342337
-0.0440698
-0.0533056
-0.053913
-0.0548202
-0.0575858
-0.0638258
-0.0706094
-0.0784047
-0.0854672
-0.0922886
-0.0996384
-0.108559
-0.118688
-0.0284163
-0.0184617
-0.0112091
-0.00910744
-0.0121889
-0.0164084
-0.0220323
-0.0272566
-0.0332152
-0.0394644
-0.0504432
-0.0666525
-0.0884438
-0.108942
-0.127664
-0.133052
-0.12794
-0.117597
-0.110841
-0.110558
-0.0237924
-0.0134654
-0.00897423
-0.0103296
-0.0151549
-0.0169012
-0.0182829
-0.0187231
-0.0205255
-0.0249242
-0.0322966
-0.0448681
-0.0651748
-0.0969614
-0.141384
-0.181441
-0.185277
-0.153445
-0.120251
-0.104276
-0.00133534
-0.0141146
-0.011426
-0.0124794
-0.019581
-0.0216442
-0.0261608
-0.0253109
-0.0252388
-0.0289997
-0.0401164
-0.0549585
-0.0719429
-0.0935151
-0.123295
-0.155667
-0.177547
-0.168903
-0.136461
-0.109205
-0.0022894
-0.00461602
-0.00635483
-0.00863401
-0.0142937
-0.0209976
-0.0278506
-0.040561
-0.0374967
-0.0303085
-0.0301514
-0.0351894
-0.0450561
-0.0605932
-0.0951385
-0.121263
-0.131331
-0.118343
-0.096561
-0.0827064
-0.0061511
-0.00384451
-0.00492122
-0.00852607
-0.0206773
-0.0289147
-0.0378003
-0.0506434
-0.0511931
-0.0305248
-0.0249143
-0.0272219
-0.0314441
-0.0374148
-0.0656585
-0.100922
-0.103535
-0.087865
-0.0708268
-0.0606479
-0.00709598
-0.00839242
-0.014442
-0.0238071
-0.0460597
-0.0490336
-0.0506713
-0.0417875
-0.0343715
-0.0267671
-0.0246992
-0.0341459
-0.0449624
-0.0396251
-0.0460281
-0.0749023
-0.0791151
-0.0691293
-0.0580355
-0.0509833
-0.0167557
-0.023509
-0.026784
-0.0349706
-0.05572
-0.0614267
-0.0708102
-0.06729
-0.059146
-0.0520187
-0.0534249
-0.069907
-0.0759668
-0.0510338
-0.0359017
-0.05618
-0.062774
-0.0596043
-0.0534178
-0.0486242
-0.00812959
-0.0156679
-0.0343257
-0.0454609
-0.0599942
-0.0590697
-0.0579101
-0.0731812
-0.111417
-0.131425
-0.12464
-0.11097
-0.0819143
-0.0474078
-0.0348974
-0.051345
-0.0578772
-0.0577365
-0.0547055
-0.0522185
-0.00981001
-0.0137823
-0.0206824
-0.0260252
-0.0279598
-0.0261554
-0.0263478
-0.0419303
-0.0649232
-0.0766376
-0.077862
-0.0712783
-0.0608447
-0.0538731
-0.0568106
-0.0612308
-0.0633026
-0.0639029
-0.0661757
-0.0705575
-0.00772583
-0.0165972
-0.0234065
-0.0247388
-0.0244507
-0.0237402
-0.0266334
-0.0355822
-0.0484669
-0.064294
-0.0746607
-0.0822785
-0.0840372
-0.0843049
-0.0844283
-0.0844026
-0.0854084
-0.0888893
-0.097874
-0.109294
-0.0192601
-0.0173886
-0.0197053
-0.0211714
-0.0196313
-0.0208692
-0.0241376
-0.0298951
-0.0397925
-0.0469831
-0.0585348
-0.0675224
-0.0769069
-0.0843671
-0.0900918
-0.0938253
-0.0986306
-0.103487
-0.109151
-0.112365
-0.0195304
-0.0351888
-0.0172408
-0.0285367
-0.0170919
-0.0214153
-0.0236273
-0.0271071
-0.032227
-0.0359803
-0.0430999
-0.0488177
-0.0569806
-0.0627796
-0.070371
-0.0748043
-0.0793497
-0.0798693
-0.0784145
-0.074891
-0.0343184
-0.0227029
-0.0185604
-0.0238852
-0.0234081
-0.0329854
-0.0381428
-0.0460751
-0.0444974
-0.0432391
-0.0430678
-0.0441551
-0.0466695
-0.0489174
-0.051456
-0.0529556
-0.0539733
-0.0536131
-0.0520416
-0.049757
-0.0210832
-0.0216129
-0.0261068
-0.0382061
-0.0436913
-0.0322579
-0.0351482
-0.0369485
-0.0417185
-0.0412722
-0.0403318
-0.0388895
-0.0379327
-0.037186
-0.0370099
-0.0369995
-0.0372024
-0.0371732
-0.0368935
-0.0366768
-0.0273078
-0.0445662
-0.0539356
-0.0573141
-0.0523969
-0.0407482
-0.0332426
-0.0283348
-0.0297394
-0.0325439
-0.0353022
-0.0370424
-0.0384874
-0.0381752
-0.0369355
-0.0353671
-0.0357111
-0.0375751
-0.0405227
-0.0453603
-0.0220691
-0.0487475
-0.0386758
-0.0302833
-0.0256917
-0.0287283
-0.0424184
-0.0582432
-0.0735716
-0.0849095
-0.0947404
-0.104563
-0.117578
-0.135709
-0.157578
-0.175492
-0.185137
-0.187162
-0.179759
-0.167604
-0.00293332
-0.00457905
-0.00654756
-0.0110737
-0.0216514
-0.0341226
-0.0485925
-0.0583791
-0.066174
-0.0702618
-0.072269
-0.0717177
-0.0696292
-0.0653429
-0.0598739
-0.0531477
-0.0455001
-0.0399746
-0.0375258
-0.0372639
-0.00385594
-0.00354838
-0.00443977
-0.00645546
-0.0107291
-0.0163782
-0.023331
-0.0277339
-0.029896
-0.0266131
-0.0224842
-0.0195866
-0.018688
-0.0190374
-0.0203071
-0.0221944
-0.0247222
-0.0278242
-0.032132
-0.0379741
-0.00699224
-0.00460317
-0.00533088
-0.00904448
-0.0130041
-0.0177969
-0.0242058
-0.0285781
-0.0316386
-0.0297801
-0.0272313
-0.0257504
-0.0266925
-0.0288398
-0.0315103
-0.0342942
-0.0369644
-0.0393737
-0.0416131
-0.043089
-0.00816737
-0.00885341
-0.0072729
-0.00816351
-0.0113906
-0.0155352
-0.0202824
-0.0226975
-0.0246657
-0.0252961
-0.0269668
-0.0288948
-0.0310301
-0.032485
-0.0336406
-0.034118
-0.0343317
-0.0345111
-0.0351089
-0.0359621
-0.0178124
-0.00956538
-0.00648162
-0.00668168
-0.00887007
-0.011538
-0.0140052
-0.0165468
-0.0200797
-0.0246987
-0.0312476
-0.0377537
-0.0440467
-0.0469054
-0.0481813
-0.0455168
-0.0412083
-0.0371299
-0.0350856
-0.034754
-0.002267
-0.00330374
-0.00468308
-0.00654304
-0.00823824
-0.00922347
-0.0104334
-0.0123933
-0.0157452
-0.0211319
-0.0292732
-0.0402119
-0.0545025
-0.0695455
-0.0829515
-0.0859306
-0.0720499
-0.0537523
-0.043202
-0.0398839
-0.000798554
-0.00532063
-0.00583585
-0.00762309
-0.0101941
-0.0105923
-0.0114028
-0.0123256
-0.0149253
-0.020003
-0.0275079
-0.037475
-0.0490144
-0.0617133
-0.0738624
-0.0808859
-0.0785149
-0.0659785
-0.0538837
-0.04825
-0.000673318
-0.00282221
-0.00471163
-0.00681716
-0.00960695
-0.0115521
-0.0131419
-0.0146418
-0.0144355
-0.0165959
-0.0212501
-0.0282942
-0.0387574
-0.0520648
-0.0622819
-0.0641937
-0.0593724
-0.0519467
-0.0470536
-0.0450989
-0.00177025
-0.00304266
-0.00469943
-0.00763751
-0.0120444
-0.0136852
-0.0155453
-0.0172641
-0.0146276
-0.0133391
-0.0144368
-0.0166846
-0.023389
-0.0382012
-0.0596077
-0.0540976
-0.0478648
-0.0416794
-0.0377821
-0.0351603
-0.00229748
-0.00635848
-0.00851035
-0.0135441
-0.0210918
-0.0198184
-0.0185836
-0.0156756
-0.0131407
-0.0143252
-0.0199883
-0.0239881
-0.0204156
-0.0239478
-0.0445491
-0.0421974
-0.0377582
-0.0331967
-0.0306915
-0.029426
-0.00848188
-0.016558
-0.016435
-0.0197875
-0.0274858
-0.0298456
-0.0350994
-0.0373737
-0.0399518
-0.046322
-0.053621
-0.0559943
-0.0375713
-0.0221885
-0.0306753
-0.0322807
-0.0309675
-0.0295016
-0.0295846
-0.0302382
-0.0146737
-0.0182711
-0.0278216
-0.0257969
-0.028448
-0.0276022
-0.0288015
-0.0365218
-0.0539682
-0.0718368
-0.0788643
-0.0622706
-0.0316266
-0.0206147
-0.0247646
-0.0274499
-0.0287332
-0.0296909
-0.030983
-0.0315348
-0.00353525
-0.00887718
-0.016176
-0.019631
-0.0193188
-0.0171334
-0.0171019
-0.0227223
-0.0293606
-0.0338884
-0.0347933
-0.0320446
-0.0292108
-0.0286344
-0.0296199
-0.0314428
-0.0330898
-0.0349315
-0.0366347
-0.0366821
-0.0118827
-0.0149409
-0.0194327
-0.0185831
-0.0161085
-0.0138001
-0.0154838
-0.0184121
-0.0227452
-0.027706
-0.0306049
-0.0334531
-0.0348232
-0.0365496
-0.0382904
-0.0401723
-0.0422253
-0.044268
-0.0461789
-0.046523
-0.0126873
-0.0155737
-0.0161885
-0.0141983
-0.0118546
-0.0113909
-0.0137517
-0.0159753
-0.0198239
-0.0221767
-0.025714
-0.0284554
-0.0316887
-0.0347778
-0.0377159
-0.0397623
-0.0412406
-0.0415119
-0.0407666
-0.0388306
-0.00671819
-0.0158781
-0.0132993
-0.0123924
-0.0101656
-0.0114638
-0.0129399
-0.0144958
-0.0169749
-0.0185917
-0.0211146
-0.0227494
-0.0251119
-0.0266789
-0.0285316
-0.0293074
-0.0297421
-0.0289747
-0.0277801
-0.0262593
-0.0137467
-0.0113509
-0.0111264
-0.0121687
-0.0117475
-0.0147174
-0.0158943
-0.0178055
-0.0181732
-0.0183399
-0.0187607
-0.0189305
-0.019444
-0.0197297
-0.0201947
-0.0204035
-0.0205541
-0.0204093
-0.020151
-0.0199078
-0.00848613
-0.0171246
-0.0208443
-0.0226557
-0.0185876
-0.0137855
-0.0146807
-0.0156464
-0.0167267
-0.016842
-0.0168074
-0.0166267
-0.0164848
-0.0162503
-0.0160635
-0.0159324
-0.0160359
-0.0163195
-0.016773
-0.0173941
-0.0178859
-0.0316449
-0.0393209
-0.0355273
-0.0255008
-0.0169336
-0.0147383
-0.0154397
-0.017795
-0.0202017
-0.0231091
-0.0256767
-0.0281925
-0.0294693
-0.0297227
-0.0286243
-0.0272486
-0.0258249
-0.0249733
-0.024872
-0.0180753
-0.0168998
-0.0147585
-0.0142792
-0.0124195
-0.0119262
-0.015589
-0.021052
-0.0274046
-0.0327461
-0.0382502
-0.0452216
-0.0557756
-0.069796
-0.0849139
-0.096122
-0.101283
-0.101045
-0.0943591
-0.0844843
-0.00268804
-0.00332419
-0.00605538
-0.00982024
-0.0166947
-0.0222549
-0.0289474
-0.031876
-0.0341495
-0.0340801
-0.0330808
-0.0304331
-0.0270663
-0.0230817
-0.0193405
-0.0168269
-0.015963
-0.0165075
-0.0180223
-0.0196655
-0.00564903
-0.00473027
-0.00647012
-0.00801031
-0.010311
-0.0121716
-0.0142778
-0.0144358
-0.0142705
-0.0130721
-0.0125987
-0.012758
-0.0134148
-0.0142235
-0.0152582
-0.0164933
-0.0179552
-0.019524
-0.0212606
-0.0227406
-0.00201491
-0.00395274
-0.00711256
-0.0101753
-0.0131761
-0.0152358
-0.0173519
-0.0174387
-0.0176323
-0.0167755
-0.016526
-0.0166517
-0.0171632
-0.017681
-0.0180633
-0.0182499
-0.0183223
-0.0182902
-0.0183764
-0.0183245
-0.00242851
-0.00407353
-0.00499862
-0.00782733
-0.0103689
-0.012226
-0.0139645
-0.0147032
-0.0156919
-0.0161507
-0.0166713
-0.016788
-0.016709
-0.0163531
-0.0159734
-0.0156119
-0.0154128
-0.0154178
-0.0156972
-0.016259
-0.00136707
-0.00324019
-0.00494651
-0.00641037
-0.00794021
-0.00955035
-0.0112552
-0.0130461
-0.0152816
-0.0171685
-0.0191574
-0.0201566
-0.0207125
-0.0200043
-0.0193207
-0.0179724
-0.0168189
-0.0160729
-0.0159918
-0.0163987
-0.00178234
-0.00329421
-0.00463893
-0.00563202
-0.00662478
-0.00790013
-0.00944017
-0.0114978
-0.0143535
-0.0177153
-0.022028
-0.0261105
-0.0302001
-0.0326892
-0.0339058
-0.0310319
-0.0248783
-0.0199964
-0.0179181
-0.017557
-0.00164949
-0.00362815
-0.00460404
-0.00560863
-0.00675545
-0.00745812
-0.00857753
-0.0106052
-0.0133407
-0.0171291
-0.0213958
-0.0258213
-0.0295193
-0.0323045
-0.0340113
-0.0332865
-0.0301036
-0.0255937
-0.0223867
-0.0209861
-0.0022151
-0.00241119
-0.00395814
-0.00541315
-0.00700477
-0.00774174
-0.00837129
-0.00971744
-0.0118105
-0.0144606
-0.0180732
-0.0222769
-0.0266138
-0.0301218
-0.0284614
-0.0273699
-0.0250661
-0.0226611
-0.0207184
-0.0192782
-0.00174593
-0.00325036
-0.00510503
-0.00694507
-0.00847294
-0.00864284
-0.00895178
-0.0092995
-0.00972514
-0.0104235
-0.0118529
-0.0154781
-0.0213485
-0.0269995
-0.0302203
-0.0228582
-0.0198907
-0.0171485
-0.0149442
-0.0133861
-0.00256806
-0.00561544
-0.00686303
-0.0101769
-0.0121887
-0.0114547
-0.0106152
-0.00966354
-0.0100432
-0.0125812
-0.0137315
-0.0127645
-0.0152618
-0.0214072
-0.0251709
-0.0188751
-0.0163653
-0.0143244
-0.0128167
-0.0118016
-0.010887
-0.0138693
-0.0126825
-0.0144621
-0.0163265
-0.0182726
-0.0224662
-0.0265719
-0.0319981
-0.035972
-0.0322172
-0.0206376
-0.0153858
-0.0179315
-0.0203979
-0.0163677
-0.0153684
-0.0145428
-0.0137961
-0.0130415
-0.0160651
-0.018341
-0.0194119
-0.0165798
-0.0166323
-0.0170168
-0.0179031
-0.0226159
-0.0327043
-0.0399227
-0.0350847
-0.0211279
-0.0153348
-0.0158707
-0.0166451
-0.0153974
-0.0154335
-0.0149265
-0.014113
-0.0131636
-0.00395903
-0.00850166
-0.0132704
-0.0148751
-0.0138066
-0.0118079
-0.0118267
-0.0150546
-0.0171721
-0.0180841
-0.0177987
-0.0169991
-0.016625
-0.0167477
-0.0168994
-0.0173049
-0.0170627
-0.0162611
-0.0152821
-0.0141162
-0.0234234
-0.014888
-0.0130042
-0.0112854
-0.0100518
-0.00955794
-0.0109898
-0.0122888
-0.013698
-0.0151882
-0.0158168
-0.0169361
-0.0175745
-0.0185064
-0.0190987
-0.0190483
-0.0184712
-0.0174837
-0.0166468
-0.0158621
-0.006973
-0.0120748
-0.0114408
-0.00998862
-0.00885773
-0.00906793
-0.0103959
-0.0113873
-0.0127641
-0.0133604
-0.0143842
-0.0150071
-0.0158253
-0.0162505
-0.0164779
-0.0161048
-0.0155641
-0.0148019
-0.0141963
-0.0139801
-0.00714253
-0.0120944
-0.0106468
-0.00942869
-0.00857179
-0.00918528
-0.0100049
-0.0107046
-0.0116372
-0.0119702
-0.0126149
-0.0127305
-0.0130891
-0.0130299
-0.0130927
-0.0128732
-0.0127894
-0.0126852
-0.012866
-0.0134088
-0.00370989
-0.00932132
-0.00984439
-0.00902859
-0.00900815
-0.010336
-0.0108014
-0.0115059
-0.011589
-0.0115676
-0.0115201
-0.0114297
-0.0114361
-0.0114387
-0.0115337
-0.0116686
-0.0119207
-0.0123039
-0.0128788
-0.0136717
-0.00771589
-0.0127779
-0.0124794
-0.0117144
-0.0101036
-0.0102365
-0.0115273
-0.0125024
-0.0131709
-0.0135514
-0.0137892
-0.0138376
-0.0137417
-0.0134185
-0.0130244
-0.0127038
-0.0126268
-0.0128522
-0.0133563
-0.014078
-0.0143271
-0.0258986
-0.0250626
-0.0187248
-0.0125738
-0.010373
-0.0112617
-0.0132234
-0.0154842
-0.0179542
-0.0206832
-0.0232484
-0.025506
-0.0264646
-0.0262511
-0.0247128
-0.022524
-0.020194
-0.0182117
-0.01695
-0.00135525
-0.00309067
-0.00620535
-0.00724266
-0.00688667
-0.00663003
-0.00769735
-0.00933271
-0.0117126
-0.0143765
-0.0184842
-0.0246443
-0.0334339
-0.0432082
-0.051605
-0.0561199
-0.0560067
-0.0520309
-0.0444385
-0.0360418
-0.00604211
-0.00688734
-0.00743089
-0.0082383
-0.0104054
-0.0108796
-0.0127564
-0.0124906
-0.0125494
-0.0114752
-0.0104237
-0.00922678
-0.00876044
-0.00938064
-0.0109619
-0.0128089
-0.0143012
-0.0151462
-0.0154416
-0.0152768
-0.00624925
-0.00936031
-0.00910163
-0.00896925
-0.00907297
-0.00884038
-0.00909192
-0.00894128
-0.00913402
-0.00932658
-0.00980592
-0.0104772
-0.0112604
-0.0120651
-0.0127653
-0.0133008
-0.0137948
-0.0143544
-0.0151029
-0.0159011
-0.00215692
-0.00901629
-0.01068
-0.0103847
-0.0104927
-0.0106292
-0.0113771
-0.0113899
-0.0116119
-0.0113763
-0.0112482
-0.0111535
-0.0112328
-0.0114668
-0.0118881
-0.0124763
-0.0132014
-0.0139988
-0.0148176
-0.0155322
-0.00350775
-0.00684403
-0.00843006
-0.00862765
-0.00913238
-0.00987705
-0.0106832
-0.0109073
-0.0109959
-0.0107724
-0.0106871
-0.0107038
-0.0109461
-0.0113539
-0.0119115
-0.0125559
-0.0132563
-0.0139721
-0.0146744
-0.0152807
-0.00627233
-0.00430252
-0.00543856
-0.00660889
-0.00779196
-0.00904723
-0.00996452
-0.0105035
-0.0108584
-0.010891
-0.0110495
-0.0111063
-0.0113641
-0.0116185
-0.0120757
-0.0125479
-0.0131233
-0.0137654
-0.0144569
-0.0150968
-0.00340591
-0.00469399
-0.00523291
-0.00580863
-0.00689095
-0.00828542
-0.00929696
-0.0101469
-0.0109271
-0.0114589
-0.0120491
-0.0124488
-0.0129128
-0.0132226
-0.0136003
-0.0135558
-0.013449
-0.0137576
-0.0143969
-0.0150876
-0.00408176
-0.00488396
-0.00488511
-0.00534779
-0.0063193
-0.00758713
-0.00865018
-0.00978795
-0.0106305
-0.0115515
-0.0122072
-0.0128228
-0.013132
-0.0134834
-0.0138312
-0.0138896
-0.0137832
-0.0137777
-0.0141361
-0.0147342
-0.00128676
-0.00245629
-0.00372998
-0.00517786
-0.00631741
-0.00730419
-0.00781012
-0.0092917
-0.0102246
-0.0111891
-0.0117996
-0.0124304
-0.0126352
-0.012851
-0.0124877
-0.0124734
-0.0125271
-0.0127735
-0.0132093
-0.0137404
-0.00217706
-0.00312367
-0.0045432
-0.00641119
-0.00741695
-0.00764165
-0.00781229
-0.00853029
-0.00952706
-0.0104314
-0.011539
-0.0122216
-0.0124489
-0.0122725
-0.0115824
-0.0111275
-0.011224
-0.0116048
-0.0121323
-0.0126541
-0.00308655
-0.00636528
-0.0065528
-0.00830413
-0.00901173
-0.00903617
-0.00874729
-0.00888854
-0.00982537
-0.0105493
-0.0113981
-0.0124717
-0.0124576
-0.0115138
-0.00934288
-0.0102106
-0.0105593
-0.01114
-0.0117974
-0.0123759
-0.00302268
-0.0103926
-0.0103686
-0.0110075
-0.0107807
-0.0122713
-0.0140908
-0.0158264
-0.0161142
-0.0143913
-0.0128324
-0.0127863
-0.0120303
-0.0106834
-0.00862957
-0.0100252
-0.0105905
-0.0113278
-0.0121144
-0.0128112
-0.013952
-0.0159947
-0.0131986
-0.0117794
-0.0109025
-0.0114296
-0.0113631
-0.0132014
-0.0150711
-0.0141728
-0.0123509
-0.0115424
-0.0102977
-0.00877695
-0.00770905
-0.0102072
-0.0110693
-0.0120476
-0.0130627
-0.0139666
-0.00240869
-0.0086997
-0.0125875
-0.0114749
-0.0100033
-0.00899404
-0.0090957
-0.0100304
-0.0098965
-0.00980073
-0.00954006
-0.00908553
-0.00861503
-0.00829882
-0.0101596
-0.0109934
-0.0119609
-0.0130982
-0.0143017
-0.0154067
-0.00698287
-0.00918003
-0.0099177
-0.00874947
-0.0081924
-0.00806692
-0.0084515
-0.00832482
-0.00826545
-0.00846984
-0.0085115
-0.008976
-0.00930385
-0.00997889
-0.0107016
-0.0115242
-0.0125202
-0.0137096
-0.0150242
-0.0162568
-0.0102338
-0.00883743
-0.00872371
-0.00809864
-0.00766334
-0.00775879
-0.00803141
-0.00801145
-0.00801433
-0.0080053
-0.00823289
-0.00857993
-0.00909528
-0.00975575
-0.0105801
-0.0115641
-0.0127356
-0.0140736
-0.0154975
-0.0167727
-0.0176231
-0.0123885
-0.00885448
-0.00794151
-0.00771288
-0.00782843
-0.00783318
-0.00791001
-0.00789748
-0.00797781
-0.00818635
-0.00852359
-0.00904132
-0.00971483
-0.0105796
-0.0116172
-0.0128417
-0.0142257
-0.0157019
-0.0170194
-0.00613294
-0.00886417
-0.00972295
-0.00878012
-0.00848812
-0.00856157
-0.00836539
-0.00844206
-0.00828808
-0.00837536
-0.00853922
-0.00889387
-0.00941404
-0.0100894
-0.0109309
-0.0119179
-0.0130615
-0.0143483
-0.0157469
-0.0170411
-0.0114768
-0.00910695
-0.00769488
-0.00796108
-0.00884888
-0.00969172
-0.0101616
-0.0102271
-0.0101702
-0.0100324
-0.0099225
-0.00987424
-0.0099762
-0.0102385
-0.010735
-0.0114553
-0.0123888
-0.0134877
-0.0147269
-0.0159376
-0.00401354
-0.0151677
-0.0106718
-0.00876071
-0.00871208
-0.0102731
-0.0120734
-0.0140384
-0.0158024
-0.0168944
-0.0173874
-0.0167701
-0.0157308
-0.0142292
-0.0129329
-0.0120997
-0.0119205
-0.0123593
-0.0132532
-0.0144254
-0.000458047
-0.00246781
-0.00399044
-0.00479102
-0.0054256
-0.00633386
-0.00763984
-0.00966044
-0.0126238
-0.0165671
-0.0208948
-0.0246905
-0.0272174
-0.0274179
-0.0253509
-0.0215353
-0.0173716
-0.0142032
-0.0123124
-0.0119229
-0.0183283
-0.0323148
-0.0397425
-0.0142161
-0.0160588
-0.0326463
-0.0351411
-0.0237771
-0.0424356
-0.0477297
-0.0162523
-0.0153103
-0.034583
-0.0276398
-0.0516448
-0.0749346
-0.0797094
-0.0415893
-0.0419616
-0.0515656
-0.05162
-0.0568433
-0.0799771
-0.0726181
-0.0407617
-0.0316699
-0.0495051
-0.0364574
-0.119649
-0.101091
-0.104009
-0.106501
-0.118985
-0.0973627
-0.102321
-0.131075
-0.104222
-0.105393
-0.122445
-0.129876
-0.103208
-0.105635
-0.136417
-0.106011
-0.106554
-0.130418
-0.11874
-0.105488
-0.0943836
-0.130429
-0.106128
-0.102582
-0.10968
-0.0805334
-0.0868118
-0.0637693
-0.111814
-0.100688
-0.0935006
-0.0723306
-0.0551511
-0.0577887
-0.0497596
-0.0919108
-0.0909108
-0.0832822
-0.0523949
-0.0513943
-0.0505113
-0.0583372
-0.0790582
-0.0808764
-0.0752624
-0.0524821
-0.0570427
-0.0605096
-0.0604965
-0.0737205
-0.0741343
-0.0725022
-0.0588685
-0.0693098
-0.0585838
-0.054216
-0.108735
-0.126395
-0.121344
-0.11199
-0.105172
-0.121715
-0.114154
-0.103022
-0.118537
-0.108589
-0.102991
-0.0974299
-0.108992
-0.0899527
-0.1002
-0.105162
-0.0957806
-0.0949336
-0.0816283
-0.0839524
-0.0690136
-0.0965876
-0.0932353
-0.087701
-0.0759298
-0.0600382
-0.0656251
-0.0612136
-0.0901304
-0.0863632
-0.0828882
-0.0560886
-0.0523994
-0.0616442
-0.0676804
-0.0816072
-0.0816717
-0.0779102
-0.0542942
-0.0636445
-0.0708443
-0.0783222
-0.074807
-0.0772485
-0.0779483
-0.0655142
-0.0628313
-0.0788162
-0.0694803
-0.0729558
-0.0785209
-0.0784035
-0.0598491
-0.0522683
-0.0637182
-0.0485161
-0.135548
-0.155114
-0.154692
-0.141898
-0.132067
-0.151356
-0.152952
-0.116041
-0.154317
-0.15144
-0.127362
-0.109641
-0.153212
-0.152275
-0.0984106
-0.149005
-0.13675
-0.103499
-0.0875751
-0.150872
-0.142966
-0.0876445
-0.130771
-0.111212
-0.0833438
-0.0755258
-0.139025
-0.124645
-0.0819498
-0.105891
-0.0950528
-0.0747208
-0.0770588
-0.11983
-0.108739
-0.0788766
-0.0937436
-0.0969333
-0.0789572
-0.0838459
-0.106668
-0.100586
-0.0832191
-0.0990689
-0.102123
-0.0839062
-0.0730898
-0.0960926
-0.0736652
-0.0831853
-0.101419
-0.0955871
-0.0664834
-0.0487853
-0.0657171
-0.0478425
-0.158085
-0.161103
-0.161827
-0.153591
-0.155531
-0.157008
-0.154851
-0.157203
-0.162672
-0.16597
-0.156062
-0.156808
-0.156235
-0.161967
-0.150421
-0.167061
-0.168439
-0.156491
-0.152866
-0.163045
-0.163587
-0.126649
-0.168554
-0.161032
-0.150249
-0.137311
-0.161839
-0.153407
-0.106275
-0.15579
-0.142328
-0.132173
-0.119331
-0.150676
-0.139347
-0.106801
-0.13969
-0.133316
-0.116486
-0.106218
-0.133803
-0.109748
-0.108356
-0.131009
-0.121064
-0.0996198
-0.0731298
-0.100135
-0.0737468
-0.098888
-0.117057
-0.104732
-0.064919
-0.047963
-0.066989
-0.0544574
-0.048589
-0.0436809
-0.0484972
-0.0270005
-0.0281647
-0.0279461
-0.0262458
-0.0542126
-0.0475599
-0.0455496
-0.0281668
-0.0257322
-0.0253774
-0.0223226
-0.0346807
-0.0438295
-0.0334405
-0.0241216
-0.0194838
-0.0210493
-0.0174583
-0.0252433
-0.0302602
-0.0249942
-0.0184079
-0.0172989
-0.0168716
-0.0178689
-0.0262704
-0.0247787
-0.0285087
-0.0174392
-0.0187071
-0.0189736
-0.0229101
-0.0304391
-0.030912
-0.0380168
-0.0194442
-0.0232586
-0.0238245
-0.0239123
-0.0352163
-0.0391763
-0.0380494
-0.0254109
-0.0358282
-0.0234381
-0.0249371
-0.0503259
-0.0371227
-0.0394425
-0.0410535
-0.0602694
-0.0274409
-0.0426282
-0.0451943
-0.057971
-0.0457838
-0.0329461
-0.0261678
-0.0382486
-0.0316542
-0.0360212
-0.0406603
-0.032599
-0.0246696
-0.0210657
-0.0301614
-0.0279191
-0.0285266
-0.0314739
-0.0300937
-0.0199138
-0.0174229
-0.0279546
-0.0303706
-0.0242511
-0.0301278
-0.0329335
-0.0173465
-0.0200861
-0.0318033
-0.0384009
-0.0307465
-0.0353588
-0.0494451
-0.0218519
-0.0275008
-0.0412771
-0.0497844
-0.0437169
-0.0558607
-0.0687904
-0.0286451
-0.0275858
-0.0513292
-0.0467527
-0.0416821
-0.0684301
-0.054325
-0.0261704
-0.0242481
-0.0418589
-0.0275202
-0.0383998
-0.0482618
-0.0368766
-0.0256329
-0.0379683
-0.0252951
-0.028572
-0.0692159
-0.0703897
-0.0845988
-0.0512806
-0.0464848
-0.0538624
-0.0554459
-0.0612499
-0.0906049
-0.113781
-0.0454645
-0.0438189
-0.0568957
-0.0661621
-0.0534428
-0.120069
-0.127318
-0.0438162
-0.0457295
-0.0705241
-0.0819926
-0.051722
-0.126339
-0.118036
-0.0468331
-0.0518736
-0.0845009
-0.0884029
-0.0650134
-0.114692
-0.106368
-0.0542182
-0.0610882
-0.0886816
-0.0836365
-0.0776267
-0.103944
-0.0905121
-0.0620006
-0.0541742
-0.0785525
-0.0538268
-0.058217
-0.0825361
-0.0558956
-0.047882
-0.029465
-0.0450176
-0.0272867
-0.0369065
-0.048664
-0.0357652
-0.0261857
-0.0268631
-0.0245851
-0.0239533
-0.0689477
-0.0372382
-0.0369445
-0.0472701
-0.0487978
-0.0351162
-0.0346681
-0.100886
-0.040942
-0.0664571
-0.0498592
-0.058527
-0.0362301
-0.0433001
-0.129877
-0.0782655
-0.0975838
-0.0634369
-0.0782672
-0.0465706
-0.0545074
-0.127611
-0.0995659
-0.105191
-0.0819734
-0.0889304
-0.0566621
-0.0611012
-0.11472
-0.106447
-0.101062
-0.0895835
-0.0824554
-0.0614021
-0.055453
-0.0915834
-0.0954212
-0.0743173
-0.0760607
-0.0498396
-0.0512441
-0.0381619
-0.0541762
-0.0673223
-0.0511037
-0.0416812
-0.0263772
-0.0346797
-0.0284618
-0.03605
-0.0475205
-0.0423837
-0.0242077
-0.0240102
-0.0277562
-0.02886
-0.0172325
-0.0168078
-0.017005
-0.0126074
-0.0120963
-0.0124926
-0.0115103
-0.0155392
-0.0164843
-0.0143127
-0.0118678
-0.0115335
-0.0112739
-0.0109767
-0.0132583
-0.0135209
-0.0127945
-0.0115692
-0.0116618
-0.0110211
-0.0117036
-0.0140728
-0.0131754
-0.0156399
-0.0117227
-0.0123385
-0.0121115
-0.0132672
-0.0158973
-0.0166992
-0.0191626
-0.0128185
-0.015333
-0.0134473
-0.0133567
-0.0209639
-0.0193846
-0.0186341
-0.0167715
-0.0230897
-0.0133517
-0.0150837
-0.0336606
-0.0185972
-0.0227935
-0.0259346
-0.0349864
-0.0165319
-0.0233971
-0.0526134
-0.0261046
-0.0411122
-0.0380729
-0.0453545
-0.026184
-0.0340083
-0.0164944
-0.0248489
-0.0238688
-0.0144768
-0.0122084
-0.01989
-0.020401
-0.0136095
-0.0234464
-0.023797
-0.0118412
-0.011641
-0.0208545
-0.0238101
-0.0135513
-0.0246372
-0.0294062
-0.0118619
-0.0134658
-0.0253608
-0.0306344
-0.0194098
-0.0154098
-0.0167698
-0.0146368
-0.0184228
-0.0157453
-0.0177601
-0.026019
-0.0216017
-0.0249383
-0.0193753
-0.0271862
-0.0203137
-0.024673
-0.0214537
-0.0473728
-0.0381902
-0.0147626
-0.014681
-0.0244583
-0.0171458
-0.0215185
-0.0331304
-0.0225386
-0.0155588
-0.0209566
-0.0162492
-0.0175931
-0.037172
-0.0219232
-0.0279376
-0.0233767
-0.0306737
-0.0188466
-0.0234266
-0.036984
-0.0352065
-0.0420968
-0.0285985
-0.0294092
-0.0294583
-0.0318512
-0.0390112
-0.0448853
-0.0564531
-0.0301327
-0.0335652
-0.0331904
-0.0398417
-0.0444195
-0.0608849
-0.0722351
-0.0350923
-0.0398093
-0.0426117
-0.0499849
-0.0584334
-0.0478645
-0.0602121
-0.0463057
-0.0616102
-0.0480295
-0.0568408
-0.0616168
-0.0552952
-0.0656427
-0.053967
-0.0665701
-0.0551384
-0.0616559
-0.0438581
-0.0663948
-0.0415615
-0.0275847
-0.018074
-0.0309869
-0.0190287
-0.0236399
-0.0342776
-0.022061
-0.0167431
-0.0172525
-0.0172797
-0.0163386
-0.0260404
-0.0208075
-0.0225198
-0.0182215
-0.0219189
-0.0167358
-0.0185095
-0.034193
-0.0205495
-0.0216103
-0.0253849
-0.0273825
-0.0198342
-0.0204728
-0.0487235
-0.0235978
-0.0323909
-0.0284903
-0.0349927
-0.0213803
-0.0247816
-0.0682659
-0.0359497
-0.0441951
-0.0379518
-0.0460018
-0.0261574
-0.0292671
-0.0785562
-0.0461494
-0.0493261
-0.0477268
-0.0478087
-0.0296869
-0.0286822
-0.0693371
-0.048944
-0.042281
-0.045604
-0.0330502
-0.0276475
-0.0231724
-0.0379254
-0.0386395
-0.0292436
-0.0282242
-0.0183828
-0.0215909
-0.0182745
-0.0215688
-0.0270828
-0.0238137
-0.0169697
-0.0160698
-0.0177006
-0.0170655
-0.0222438
-0.0236717
-0.0254544
-0.0163416
-0.0176899
-0.0171477
-0.0177459
-0.00925159
-0.00936942
-0.00933228
-0.00815796
-0.00833508
-0.00836171