/*--------------------------------*- C++ -*----------------------------------*\
  =========                 |
  \\      /  F ield         | OpenFOAM: The Open Source CFD Toolbox
   \\    /   O peration     | Website:  https://openfoam.org
    \\  /    A nd           | Version:  10
     \\/     M anipulation  |
\*---------------------------------------------------------------------------*/
FoamFile
{
    format      ascii;
    class       volScalarField;
    location    "6.7";
    object      turbidity;
}
// * * * * * * * * * * * * * * * * * * * * * * * * * * * * * * * * * * * * * //

dimensions      [0 0 0 0 0 0 0];

internalField   nonuniform List<scalar> 
12920
(
-0.0156816
-0.0252205
-0.0493639
-0.0827187
-0.112925
-0.140343
-0.167791
-0.19939
-0.233794
-0.268433
-0.298672
-0.321343
-0.336612
-0.346461
-0.353005
-0.357247
-0.360143
-0.360986
-0.361964
-0.371987
-0.0672309
-0.0437696
-0.0596678
-0.0732492
-0.0898607
-0.112784
-0.14313
-0.178028
-0.218966
-0.264188
-0.303574
-0.32408
-0.325505
-0.317448
-0.309702
-0.302076
-0.297151
-0.292481
-0.29341
-0.320569
-0.0219768
-0.0566211
-0.0615708
-0.0843337
-0.104409
-0.1233
-0.143868
-0.16833
-0.20007
-0.244568
-0.299137
-0.351146
-0.389417
-0.423749
-0.455728
-0.486892
-0.514367
-0.53906
-0.560776
-0.585525
-0.0211968
-0.0561031
-0.0613287
-0.0814045
-0.102811
-0.127424
-0.159599
-0.200959
-0.254897
-0.317034
-0.378797
-0.431692
-0.478688
-0.519829
-0.560725
-0.598343
-0.633792
-0.668266
-0.705547
-0.746539
-0.0615262
-0.043849
-0.044462
-0.0647519
-0.0923265
-0.121478
-0.158411
-0.194335
-0.237784
-0.280147
-0.322239
-0.364718
-0.412556
-0.466273
-0.523212
-0.580834
-0.637539
-0.693395
-0.743348
-0.787347
-0.0407751
-0.053247
-0.0595379
-0.0759983
-0.0992908
-0.127119
-0.1601
-0.188323
-0.214402
-0.237302
-0.258546
-0.279847
-0.301869
-0.330346
-0.364241
-0.416244
-0.497993
-0.595411
-0.680144
-0.738902
-0.0216404
-0.0442344
-0.0618433
-0.0790232
-0.0990297
-0.123934
-0.153977
-0.18694
-0.216112
-0.240882
-0.259866
-0.274975
-0.286623
-0.302827
-0.328564
-0.368118
-0.428286
-0.510323
-0.592446
-0.650886
-0.0158964
-0.0341032
-0.0432427
-0.0625294
-0.0895343
-0.120217
-0.128036
-0.143554
-0.162595
-0.175308
-0.181002
-0.167133
-0.147714
-0.134121
-0.167006
-0.244394
-0.337156
-0.427486
-0.493369
-0.525145
-0.00959787
-0.0230459
-0.0340461
-0.0523406
-0.0813999
-0.0927292
-0.109744
-0.122546
-0.13343
-0.136249
-0.126941
-0.106832
-0.0882319
-0.0771668
-0.0829567
-0.164608
-0.250489
-0.324147
-0.36614
-0.382301
-0.0271811
-0.0383261
-0.0554774
-0.0849144
-0.116442
-0.117293
-0.114617
-0.10697
-0.102299
-0.099602
-0.0954199
-0.0882962
-0.0795992
-0.0740687
-0.0764096
-0.123696
-0.18513
-0.239419
-0.274966
-0.300563
-0.0378243
-0.0566554
-0.0829513
-0.114779
-0.146937
-0.148019
-0.146057
-0.131327
-0.111415
-0.0952528
-0.0860602
-0.0808803
-0.079375
-0.0840122
-0.0808076
-0.106252
-0.153723
-0.200288
-0.24092
-0.276203
-0.0125853
-0.0363003
-0.0653356
-0.102062
-0.142508
-0.151955
-0.157966
-0.158031
-0.156318
-0.146912
-0.120193
-0.104699
-0.108027
-0.106754
-0.0903483
-0.108542
-0.151151
-0.195295
-0.237588
-0.277145
-0.0214197
-0.0493313
-0.0744696
-0.107431
-0.13733
-0.165168
-0.166007
-0.168816
-0.178294
-0.184719
-0.180607
-0.16681
-0.15074
-0.131132
-0.132022
-0.157674
-0.190268
-0.228192
-0.269442
-0.313749
-0.0681109
-0.0656784
-0.092839
-0.125669
-0.154368
-0.186715
-0.205383
-0.238601
-0.263592
-0.300834
-0.320439
-0.335205
-0.324494
-0.311398
-0.297174
-0.297478
-0.310428
-0.33762
-0.375294
-0.423235
-0.0483741
-0.0624811
-0.0923459
-0.138548
-0.168715
-0.205404
-0.232007
-0.265981
-0.298393
-0.337197
-0.372341
-0.406805
-0.425001
-0.4365
-0.439659
-0.447763
-0.461831
-0.488008
-0.522608
-0.566591
-0.112082
-0.103041
-0.0951052
-0.142039
-0.163346
-0.198149
-0.233834
-0.26944
-0.306686
-0.343013
-0.381911
-0.42
-0.456368
-0.489398
-0.516627
-0.542699
-0.567884
-0.596192
-0.62486
-0.652755
-0.0634176
-0.0739596
-0.0840898
-0.124722
-0.167363
-0.219564
-0.27033
-0.319494
-0.355943
-0.390585
-0.420655
-0.452036
-0.484188
-0.515417
-0.54585
-0.573134
-0.599319
-0.623209
-0.641868
-0.657865
-0.0527934
-0.0605405
-0.0720605
-0.101159
-0.140003
-0.187342
-0.236945
-0.285375
-0.331672
-0.367158
-0.399539
-0.424783
-0.450076
-0.472207
-0.494895
-0.515491
-0.536004
-0.552483
-0.562854
-0.572779
-0.0380193
-0.0610519
-0.0792468
-0.107879
-0.142965
-0.182039
-0.222695
-0.260446
-0.289682
-0.316519
-0.34362
-0.370818
-0.397649
-0.41908
-0.436249
-0.449082
-0.46047
-0.471595
-0.47804
-0.489224
-0.0575629
-0.0831246
-0.0943803
-0.107298
-0.122833
-0.143053
-0.166153
-0.194338
-0.222123
-0.24914
-0.271998
-0.292454
-0.310851
-0.331692
-0.358154
-0.390349
-0.422971
-0.451866
-0.475244
-0.493468
-0.00241373
-0.00796562
-0.0205729
-0.0290791
-0.0440289
-0.0593897
-0.0805784
-0.0985462
-0.115738
-0.128187
-0.136544
-0.140195
-0.140773
-0.137208
-0.131309
-0.122041
-0.108839
-0.093905
-0.0852191
-0.0824038
-0.0242609
-0.00737386
-0.00587238
-0.00934026
-0.0147956
-0.0238545
-0.0402898
-0.0571074
-0.0714102
-0.0703119
-0.0590384
-0.0442422
-0.0359441
-0.0324046
-0.0320394
-0.0336854
-0.0368659
-0.0414742
-0.0486482
-0.0615869
-0.0183272
-0.0123567
-0.00826222
-0.016816
-0.019566
-0.0230577
-0.0345619
-0.0467332
-0.0622065
-0.0675012
-0.0639688
-0.0535082
-0.0503901
-0.0536174
-0.060109
-0.0686499
-0.0786059
-0.0899148
-0.102462
-0.115502
-0.00943627
-0.0160812
-0.00988344
-0.0096885
-0.0138139
-0.0211862
-0.0340596
-0.0439114
-0.053223
-0.0539426
-0.054855
-0.0575502
-0.0637492
-0.0705246
-0.0783213
-0.0854036
-0.0922248
-0.0995512
-0.108449
-0.118558
-0.0269248
-0.0185975
-0.0113651
-0.00914326
-0.0121465
-0.0163401
-0.0219518
-0.0271895
-0.0331664
-0.0394022
-0.0503181
-0.0664393
-0.0881656
-0.108684
-0.127498
-0.133041
-0.128105
-0.117792
-0.110954
-0.110554
-0.0238809
-0.0135568
-0.00897985
-0.0102934
-0.0150731
-0.016869
-0.0182811
-0.0187239
-0.0205115
-0.0248816
-0.0322098
-0.0447096
-0.0648951
-0.0965069
-0.140796
-0.181128
-0.185582
-0.154024
-0.120699
-0.104448
-0.0012489
-0.0137748
-0.0117557
-0.0125822
-0.0195622
-0.0216047
-0.0261726
-0.025372
-0.0252916
-0.0289732
-0.0400015
-0.0548158
-0.0717662
-0.0932606
-0.122945
-0.155342
-0.177492
-0.169307
-0.137024
-0.109536
-0.00239329
-0.00454188
-0.00630537
-0.00857367
-0.0141676
-0.0208638
-0.0277501
-0.0405595
-0.0376722
-0.0304159
-0.0301306
-0.0351203
-0.0449438
-0.0603784
-0.0947659
-0.120991
-0.131375
-0.118665
-0.0968906
-0.0828843
-0.0063458
-0.00396191
-0.00490269
-0.00845645
-0.0205029
-0.0287096
-0.0376379
-0.0506641
-0.0515407
-0.0307531
-0.0249276
-0.0271574
-0.0313801
-0.037279
-0.065181
-0.100677
-0.103628
-0.0881393
-0.0710537
-0.0607754
-0.00752262
-0.00838053
-0.0143368
-0.0236722
-0.0460018
-0.0489725
-0.050829
-0.0421824
-0.0346152
-0.0269115
-0.0246649
-0.0339116
-0.0448871
-0.0397465
-0.045771
-0.0746924
-0.0791478
-0.069282
-0.0581801
-0.0510688
-0.0167088
-0.023384
-0.0266593
-0.0348735
-0.0557049
-0.0614398
-0.0708949
-0.0674406
-0.0591914
-0.051992
-0.0531852
-0.0695355
-0.0761079
-0.0514738
-0.0358541
-0.0560064
-0.0627263
-0.0596592
-0.0535036
-0.0486852
-0.00823608
-0.0156201
-0.0340434
-0.0453652
-0.0602293
-0.0593022
-0.057924
-0.0730177
-0.110981
-0.131427
-0.124819
-0.111203
-0.0825145
-0.0477904
-0.0348513
-0.0511915
-0.0578052
-0.0577565
-0.0547732
-0.0522474
-0.00889919
-0.0135786
-0.0204718
-0.0259886
-0.0280054
-0.0261752
-0.0263404
-0.0416587
-0.0646509
-0.0765464
-0.0778864
-0.0714071
-0.0609409
-0.053886
-0.0567299
-0.0611529
-0.063276
-0.0639143
-0.0661672
-0.070484
-0.00786353
-0.0165383
-0.0233495
-0.0247329
-0.0244669
-0.0237396
-0.026603
-0.035518
-0.0483555
-0.0641765
-0.0745844
-0.0822307
-0.0840216
-0.0843136
-0.0844309
-0.0844065
-0.0854153
-0.0888721
-0.097774
-0.109116
-0.0194056
-0.0173668
-0.0197123
-0.0212191
-0.0196497
-0.0208874
-0.0241102
-0.0298485
-0.0397111
-0.0469132
-0.0584749
-0.0674629
-0.0768714
-0.0843495
-0.0900878
-0.0938214
-0.0986293
-0.103472
-0.109126
-0.112332
-0.0191825
-0.0345951
-0.0171941
-0.0287599
-0.0171273
-0.0214424
-0.0236177
-0.0270956
-0.0321937
-0.0359469
-0.043051
-0.0487671
-0.0569295
-0.0627357
-0.0703392
-0.0747948
-0.0793692
-0.0799065
-0.078469
-0.0749579
-0.0344843
-0.0227114
-0.0185212
-0.0238193
-0.0234772
-0.032904
-0.0380955
-0.0460209
-0.0445047
-0.0432604
-0.0430679
-0.0441434
-0.0466482
-0.0488959
-0.0514377
-0.0529491
-0.0539806
-0.0536356
-0.05208
-0.0497975
-0.0221623
-0.0216101
-0.0259873
-0.0380282
-0.0438522
-0.0325176
-0.0352318
-0.0369246
-0.0416989
-0.0412706
-0.040339
-0.0388985
-0.037939
-0.0371884
-0.0370084
-0.0369964
-0.0372012
-0.0371762
-0.0369007
-0.036682
-0.0270559
-0.0441483
-0.0537737
-0.0575443
-0.0529583
-0.0412902
-0.0336077
-0.0284684
-0.0297172
-0.0324944
-0.0352514
-0.0370047
-0.038465
-0.0381909
-0.036984
-0.0353871
-0.0356991
-0.0375366
-0.0404604
-0.0452642
-0.0230525
-0.0488858
-0.0392022
-0.0308119
-0.025967
-0.0287284
-0.042252
-0.0580728
-0.0734722
-0.0848909
-0.0947493
-0.104545
-0.117483
-0.135504
-0.157347
-0.175389
-0.185188
-0.187335
-0.180061
-0.167993
-0.00305462
-0.00455975
-0.00652888
-0.0110352
-0.0215438
-0.0339469
-0.0484486
-0.0583062
-0.0661854
-0.0703376
-0.0723947
-0.071877
-0.0698157
-0.065546
-0.0600883
-0.0533709
-0.0456982
-0.0400982
-0.0375736
-0.0372606
-0.00399228
-0.00359197
-0.00446129
-0.00644461
-0.0106717
-0.0162871
-0.0232399
-0.0276804
-0.029923
-0.0266961
-0.0225653
-0.0196284
-0.018698
-0.0190275
-0.0202844
-0.022161
-0.0246779
-0.0277652
-0.0320471
-0.0378638
-0.00689672
-0.00475446
-0.0053258
-0.00900211
-0.0129484
-0.017728
-0.0241214
-0.0285185
-0.0316338
-0.0298338
-0.0273008
-0.0257737
-0.0266786
-0.0288104
-0.0314745
-0.0342563
-0.0369263
-0.0393368
-0.04158
-0.0430624
-0.00786737
-0.00880296
-0.00732563
-0.00814251
-0.0113307
-0.0154728
-0.020224
-0.0226672
-0.0246593
-0.0252974
-0.0269548
-0.0288731
-0.0310067
-0.0324675
-0.0336301
-0.0341155
-0.0343307
-0.0345069
-0.035101
-0.0359506
-0.0186011
-0.00983173
-0.00655329
-0.00667849
-0.0088379
-0.0115043
-0.013976
-0.0165238
-0.0200482
-0.0246496
-0.0311759
-0.037677
-0.0439771
-0.0468722
-0.0481801
-0.0455621
-0.0412794
-0.0371828
-0.0351119
-0.0347543
-0.00203175
-0.00326536
-0.0046322
-0.00650217
-0.00821048
-0.0092096
-0.0104209
-0.0123732
-0.0157081
-0.021071
-0.0291771
-0.0400772
-0.0543259
-0.069361
-0.0828223
-0.0860124
-0.0723321
-0.0539871
-0.0433178
-0.0399112
-0.000749841
-0.0053368
-0.00584561
-0.00760314
-0.0101727
-0.0105853
-0.0114087
-0.0123221
-0.0149024
-0.0199509
-0.0274293
-0.0373688
-0.0488897
-0.0615783
-0.0737478
-0.0808671
-0.0786551
-0.0662029
-0.054043
-0.0483049
-0.000623614
-0.00275857
-0.00466337
-0.00676952
-0.0095539
-0.0115177
-0.0131233
-0.0146599
-0.0144427
-0.0165664
-0.0211936
-0.0282039
-0.0386264
-0.051897
-0.0622076
-0.0642191
-0.059488
-0.0520596
-0.0471131
-0.0451168
-0.00184768
-0.00305436
-0.00467919
-0.00759574
-0.0119984
-0.0136425
-0.0155279
-0.0173073
-0.014698
-0.0133373
-0.0144191
-0.0166457
-0.0232711
-0.0379776
-0.0594124
-0.0541484
-0.0479733
-0.0417609
-0.0378266
-0.0351845
-0.00253443
-0.00629754
-0.00847722
-0.0135043
-0.0210954
-0.0198232
-0.0186438
-0.015758
-0.0131755
-0.0142758
-0.019887
-0.0239772
-0.0204714
-0.0238244
-0.0443428
-0.0422172
-0.0378326
-0.0332528
-0.0307181
-0.0294342
-0.00831809
-0.016453
-0.0164123
-0.0197615
-0.0274782
-0.0298333
-0.0351006
-0.0373398
-0.0398452
-0.0461539
-0.0534639
-0.0560649
-0.0379568
-0.0222635
-0.0305455
-0.0322719
-0.0309954
-0.0295208
-0.0295832
-0.0302255
-0.0148205
-0.0182052
-0.0277507
-0.0258207
-0.028557
-0.0276434
-0.0287612
-0.0364235
-0.0537455
-0.0716914
-0.0788916
-0.0627219
-0.0319653
-0.0206586
-0.0246873
-0.0274276
-0.0287292
-0.0296849
-0.0309718
-0.031524
-0.00378166
-0.00877887
-0.0159849
-0.019584
-0.0193403
-0.017152
-0.017102
-0.0226453
-0.0292982
-0.0338661
-0.0348094
-0.0320777
-0.0292143
-0.0286091
-0.0295969
-0.0314237
-0.0330739
-0.0349147
-0.0366193
-0.036675
-0.0120661
-0.0148897
-0.0193514
-0.0185915
-0.0161345
-0.013813
-0.0154752
-0.0183904
-0.0227166
-0.0276753
-0.0305853
-0.0334374
-0.034814
-0.0365424
-0.0382802
-0.040159
-0.0422098
-0.0442529
-0.0461643
-0.0465096
-0.0123189
-0.0155525
-0.0161737
-0.0142286
-0.0118771
-0.011398
-0.0137374
-0.0159562
-0.0197993
-0.0221566
-0.0256956
-0.028437
-0.0316726
-0.0347601
-0.037703
-0.0397534
-0.0412409
-0.0415229
-0.0407883
-0.0388516
-0.00614143
-0.015642
-0.0132745
-0.0124302
-0.0101736
-0.0114698
-0.0129345
-0.0144888
-0.0169619
-0.0185791
-0.0211001
-0.0227358
-0.025098
-0.0266682
-0.0285252
-0.0293084
-0.0297527
-0.0289921
-0.0278019
-0.0262795
-0.0133239
-0.0113814
-0.0111235
-0.0121822
-0.0117761
-0.0146955
-0.0158843
-0.0177944
-0.0181708
-0.0183394
-0.018758
-0.018928
-0.0194402
-0.0197263
-0.0201927
-0.0204035
-0.0205567
-0.0204147
-0.0201578
-0.0199122
-0.00881546
-0.0171192
-0.0207958
-0.0226964
-0.0187507
-0.0138564
-0.0146917
-0.0156378
-0.016722
-0.0168418
-0.0168104
-0.016632
-0.0164919
-0.0162589
-0.0160716
-0.0159376
-0.0160371
-0.0163166
-0.0167684
-0.0173869
-0.0188138
-0.0313737
-0.0393385
-0.0358432
-0.0259158
-0.0171566
-0.0148065
-0.0154343
-0.0177669
-0.0201714
-0.0230772
-0.0256512
-0.0281789
-0.0294798
-0.0297577
-0.0286724
-0.027295
-0.0258591
-0.0249918
-0.0248726
-0.0178413
-0.0168645
-0.0147307
-0.0143618
-0.0124985
-0.0119542
-0.0155517
-0.0209947
-0.0273578
-0.0327184
-0.0382172
-0.0451447
-0.0556215
-0.0695832
-0.0847247
-0.0960334
-0.101303
-0.101163
-0.0945633
-0.0847366
-0.00276034
-0.0033353
-0.0060418
-0.00978645
-0.0166358
-0.0221975
-0.0289283
-0.031899
-0.0342189
-0.0341788
-0.0332023
-0.0305649
-0.0272012
-0.0232062
-0.0194376
-0.0168866
-0.015982
-0.0164956
-0.0179913
-0.0196339
-0.00552525
-0.00472424
-0.00648175
-0.00800119
-0.010299
-0.0121507
-0.0142685
-0.0144376
-0.0142907
-0.0130936
-0.0126099
-0.012759
-0.0134114
-0.0142159
-0.0152457
-0.0164753
-0.0179322
-0.0194977
-0.021232
-0.0227179
-0.00200943
-0.003961
-0.00706433
-0.0101442
-0.0131422
-0.0152137
-0.0173378
-0.0174388
-0.0176463
-0.0167917
-0.0165362
-0.0166507
-0.017157
-0.0176746
-0.0180582
-0.0182466
-0.0183201
-0.018289
-0.018376
-0.018325
-0.00248057
-0.00414216
-0.00498324
-0.0077929
-0.0103363
-0.0122063
-0.0139512
-0.0146973
-0.0156892
-0.0161488
-0.0166694
-0.016787
-0.0167097
-0.0163557
-0.015977
-0.0156154
-0.0154148
-0.0154178
-0.0156951
-0.0162547
-0.00130081
-0.00324368
-0.00492846
-0.00639584
-0.00792517
-0.00953747
-0.0112409
-0.0130325
-0.0152649
-0.0171515
-0.0191405
-0.0201459
-0.020707
-0.0200094
-0.0193311
-0.0179887
-0.0168348
-0.0160814
-0.0159943
-0.0163953
-0.00170019
-0.00325271
-0.00460531
-0.00561645
-0.00661337
-0.00788707
-0.00942479
-0.011479
-0.0143272
-0.0176828
-0.0219865
-0.0260676
-0.0301599
-0.0326633
-0.0339127
-0.0311042
-0.0249681
-0.0200482
-0.0179388
-0.0175595
-0.00164172
-0.00363025
-0.00459694
-0.00560086
-0.00675048
-0.00745243
-0.00857126
-0.0105911
-0.0133198
-0.0170989
-0.0213612
-0.0257855
-0.029492
-0.0322878
-0.0340144
-0.0333212
-0.0301705
-0.0256556
-0.0224231
-0.0209972
-0.00223242
-0.00241116
-0.00394161
-0.00539278
-0.00699039
-0.00773283
-0.00836739
-0.00970947
-0.0117914
-0.0144353
-0.0180393
-0.0222355
-0.0265757
-0.0300946
-0.0284705
-0.0273989
-0.0251039
-0.0226898
-0.0207375
-0.0192902
-0.00177752
-0.00324486
-0.00509109
-0.00693055
-0.00846775
-0.00863634
-0.00895193
-0.00930842
-0.00972399
-0.0104171
-0.0118333
-0.0154318
-0.0212854
-0.0269482
-0.0302139
-0.0228955
-0.0199293
-0.0171768
-0.0149646
-0.0134004
-0.00246397
-0.00561956
-0.00686059
-0.0101696
-0.0121945
-0.0114535
-0.0106271
-0.00967248
-0.0100251
-0.0125468
-0.013735
-0.0127727
-0.0152148
-0.0213429
-0.0251568
-0.0189035
-0.0163937
-0.0143437
-0.0128305
-0.011811
-0.010569
-0.0138427
-0.0126913
-0.0144577
-0.016332
-0.018257
-0.0224457
-0.0265167
-0.0319148
-0.0359426
-0.0323279
-0.0207878
-0.0153918
-0.0178982
-0.0203881
-0.0163806
-0.0153802
-0.0145503
-0.0138028
-0.0130483
-0.0147893
-0.0182708
-0.0194076
-0.0165965
-0.0166577
-0.017014
-0.0178758
-0.0225641
-0.0326101
-0.0399174
-0.0352429
-0.0212915
-0.015355
-0.0158604
-0.0166407
-0.0153972
-0.0154374
-0.0149332
-0.0141224
-0.0131724
-0.00410677
-0.00844685
-0.0132135
-0.0148686
-0.013827
-0.0118208
-0.0118261
-0.0150256
-0.0171592
-0.0180866
-0.0178026
-0.0170014
-0.0166218
-0.016742
-0.0168949
-0.0173048
-0.0170683
-0.016272
-0.0152946
-0.0141266
-0.0234373
-0.0150653
-0.0129966
-0.0113036
-0.0100649
-0.00955976
-0.0109853
-0.0122817
-0.013691
-0.015182
-0.0158127
-0.0169307
-0.0175709
-0.0185027
-0.0190991
-0.0190542
-0.0184822
-0.0174977
-0.0166594
-0.0158684
-0.00693343
-0.0120805
-0.0114334
-0.0100025
-0.00886518
-0.00906802
-0.0103892
-0.0113803
-0.0127576
-0.0133561
-0.0143808
-0.0150036
-0.015823
-0.0162502
-0.0164816
-0.0161117
-0.0155743
-0.0148127
-0.0142052
-0.0139831
-0.00715743
-0.0119594
-0.0106526
-0.00943587
-0.00857379
-0.00918721
-0.0100027
-0.0107022
-0.0116337
-0.0119678
-0.012613
-0.0127292
-0.0130888
-0.0130304
-0.0130947
-0.0128761
-0.0127932
-0.0126871
-0.0128654
-0.0134053
-0.00365158
-0.00919542
-0.00983959
-0.00904143
-0.00901259
-0.010329
-0.0108003
-0.0115041
-0.0115902
-0.0115696
-0.0115216
-0.0114316
-0.0114372
-0.0114396
-0.0115338
-0.0116679
-0.0119189
-0.0123009
-0.0128741
-0.0136656
-0.00791688
-0.0127955
-0.0124819
-0.0117599
-0.0101472
-0.0102389
-0.0115203
-0.0124958
-0.0131685
-0.013551
-0.013792
-0.0138433
-0.013751
-0.0134304
-0.0130367
-0.012713
-0.0126313
-0.0128518
-0.013352
-0.0140715
-0.0132832
-0.0257644
-0.025248
-0.0189695
-0.012753
-0.0104206
-0.0112546
-0.0131986
-0.0154545
-0.0179214
-0.0206467
-0.0232156
-0.0254851
-0.0264661
-0.0262762
-0.024755
-0.0225733
-0.0202407
-0.0182479
-0.0169701
-0.00140139
-0.00308479
-0.00615138
-0.00724169
-0.00690763
-0.00664121
-0.00768912
-0.009316
-0.0116902
-0.0143449
-0.018424
-0.0245406
-0.033288
-0.0430575
-0.0515052
-0.0561
-0.0560631
-0.0521517
-0.0446003
-0.0362069
-0.00622672
-0.00690249
-0.00743663
-0.00824088
-0.0104015
-0.0108793
-0.0127792
-0.0125186
-0.0125912
-0.0115199
-0.0104688
-0.00925996
-0.00877525
-0.00937263
-0.0109401
-0.0127853
-0.0142836
-0.0151369
-0.0154385
-0.0152785
-0.00623386
-0.00934153
-0.00911487
-0.00896902
-0.00907606
-0.00884204
-0.0090958
-0.00894346
-0.00913703
-0.0093266
-0.00980309
-0.0104715
-0.0112525
-0.012057
-0.0127589
-0.0132966
-0.0137915
-0.0143508
-0.0150983
-0.0158963
-0.00201855
-0.00893507
-0.0106579
-0.0103823
-0.01049
-0.0106287
-0.011377
-0.0113898
-0.0116144
-0.0113787
-0.0112507
-0.0111541
-0.0112324
-0.0114656
-0.0118859
-0.0124731
-0.0131976
-0.0139945
-0.0148133
-0.0155285
-0.00342971
-0.00679949
-0.00840617
-0.00862452
-0.00912806
-0.00987346
-0.0106805
-0.0109065
-0.0109974
-0.0107746
-0.0106888
-0.0107041
-0.0109449
-0.0113519
-0.0119089
-0.0125527
-0.0132529
-0.0139686
-0.014671
-0.0152778
-0.00622107
-0.00429713
-0.00543409
-0.00660344
-0.0077857
-0.00904195
-0.0099606
-0.0105014
-0.0108577
-0.0108909
-0.0110496
-0.0111058
-0.0113632
-0.0116173
-0.0120743
-0.012546
-0.013121
-0.0137624
-0.0144536
-0.0150937
-0.00342475
-0.0046789
-0.00522667
-0.00580421
-0.00688283
-0.00827754
-0.00929127
-0.0101426
-0.0109238
-0.0114558
-0.0120461
-0.0124461
-0.0129104
-0.0132208
-0.0136023
-0.0135629
-0.0134535
-0.0137567
-0.014394
-0.0150842
-0.00388607
-0.00486335
-0.00488515
-0.00534546
-0.0063151
-0.00758217
-0.00864587
-0.0097841
-0.0106278
-0.0115482
-0.012206
-0.0128223
-0.0131339
-0.0134846
-0.013835
-0.0138957
-0.0137904
-0.0137808
-0.0141354
-0.0147311
-0.00132669
-0.00247011
-0.00372978
-0.00517039
-0.00631192
-0.00729917
-0.00780414
-0.00928537
-0.0102203
-0.0111841
-0.0117967
-0.012427
-0.0126353
-0.0128527
-0.012491
-0.0124771
-0.0125297
-0.0127733
-0.0132073
-0.0137377
-0.00219154
-0.00312148
-0.0045381
-0.00640546
-0.00741358
-0.00763858
-0.00780936
-0.00852587
-0.00952125
-0.0104246
-0.0115317
-0.012218
-0.0124479
-0.0122751
-0.0115896
-0.0111322
-0.0112257
-0.0116033
-0.0121296
-0.0126514
-0.00321734
-0.00636306
-0.00655079
-0.00830208
-0.00900997
-0.00903247
-0.00874603
-0.00888315
-0.00981758
-0.0105454
-0.0113898
-0.0124633
-0.0124574
-0.0115227
-0.00934991
-0.0102122
-0.0105585
-0.011137
-0.0117939
-0.0123728
-0.00287011
-0.0102971
-0.0103664
-0.0110078
-0.0107811
-0.0122635
-0.0140862
-0.0158208
-0.0161282
-0.014418
-0.0128457
-0.0127833
-0.0120346
-0.0106915
-0.00863379
-0.0100244
-0.0105882
-0.0113239
-0.0121102
-0.0128074
-0.0143485
-0.0159629
-0.0132093
-0.0117828
-0.0109048
-0.0114307
-0.0113543
-0.0131893
-0.0150736
-0.014195
-0.012366
-0.0115488
-0.010308
-0.00878597
-0.00770993
-0.0102043
-0.0110658
-0.0120426
-0.0130572
-0.0139617
-0.00251959
-0.00867655
-0.0125824
-0.0114844
-0.0100151
-0.0089972
-0.00909424
-0.0100266
-0.00989721
-0.00980138
-0.00954141
-0.00908822
-0.00861785
-0.00829975
-0.0101574
-0.0109905
-0.0119565
-0.0130925
-0.0142952
-0.0154008
-0.00705687
-0.00921052
-0.00992756
-0.00875659
-0.00819528
-0.00806673
-0.00845235
-0.00832504
-0.00826594
-0.00847018
-0.00851141
-0.00897525
-0.00930253
-0.00997677
-0.0106994
-0.0115212
-0.012516
-0.0137038
-0.0150175
-0.0162503
-0.0101537
-0.00886372
-0.0087242
-0.00810232
-0.00766495
-0.00775907
-0.00803131
-0.00801193
-0.00801511
-0.00800591
-0.00823298
-0.00857916
-0.00909388
-0.00975336
-0.010577
-0.0115598
-0.0127302
-0.0140671
-0.0154902
-0.0167662
-0.0162125
-0.0124565
-0.00888824
-0.00794523
-0.00771503
-0.0078301
-0.00783374
-0.00791089
-0.00789778
-0.00797809
-0.00818614
-0.0085226
-0.00903956
-0.00971212
-0.0105759
-0.0116123
-0.0128358
-0.0142188
-0.0156944
-0.0170128
-0.00578769
-0.00884469
-0.00971468
-0.0087787
-0.00848992
-0.00856334
-0.00836869
-0.00844387
-0.00829009
-0.00837622
-0.00853917
-0.00889277
-0.00941202
-0.0100864
-0.0109269
-0.0119131
-0.0130558
-0.0143417
-0.0157398
-0.0170344
-0.0117995
-0.00912455
-0.00770663
-0.00796565
-0.00884784
-0.00969
-0.0101632
-0.0102299
-0.0101754
-0.0100373
-0.00992746
-0.00987817
-0.00997891
-0.0102393
-0.0107336
-0.0114518
-0.0123838
-0.0134816
-0.0147201
-0.015931
-0.00364191
-0.0150806
-0.0107687
-0.0088201
-0.00872523
-0.0102603
-0.0120551
-0.01402
-0.0157851
-0.016886
-0.0173884
-0.0167824
-0.0157502
-0.0142518
-0.0129534
-0.0121131
-0.0119252
-0.0123574
-0.013247
-0.0144173
-0.00047145
-0.00249183
-0.00398367
-0.0047897
-0.00542127
-0.00632214
-0.00762161
-0.00963134
-0.0125807
-0.016511
-0.0208349
-0.0246414
-0.0271914
-0.0274289
-0.0254009
-0.0216075
-0.0174397
-0.0142522
-0.0123369
-0.0119275
-0.0182322
-0.0321462
-0.0395426
-0.0141711
-0.0160322
-0.0325476
-0.0351275
-0.0237277
-0.0422433
-0.0476658
-0.0162402
-0.0153376
-0.0346165
-0.0277964
-0.0514735
-0.0748247
-0.0796707
-0.0415103
-0.0419813
-0.0515158
-0.0517034
-0.0568214
-0.0799852
-0.0729189
-0.0408325
-0.0318973
-0.0496544
-0.0367633
-0.11957
-0.100901
-0.103981
-0.106231
-0.118871
-0.0971421
-0.10228
-0.130992
-0.104221
-0.105407
-0.12229
-0.129849
-0.103198
-0.105692
-0.136487
-0.106037
-0.106644
-0.130438
-0.119204
-0.105608
-0.0948268
-0.130697
-0.106241
-0.102746
-0.110212
-0.081087
-0.0872918
-0.064121
-0.112172
-0.100863
-0.0936802
-0.07269
-0.0553553
-0.0580612
-0.0497147
-0.0921602
-0.0910867
-0.0834452
-0.0524537
-0.0512966
-0.0503636
-0.0580967
-0.0791934
-0.0810322
-0.0753487
-0.0523581
-0.0569111
-0.060323
-0.0605517
-0.0737316
-0.0741915
-0.0724985
-0.058728
-0.0690381
-0.0586835
-0.0542394
-0.108778
-0.126345
-0.121436
-0.111932
-0.105293
-0.121688
-0.11435
-0.103103
-0.118665
-0.108787
-0.103147
-0.0976756
-0.109261
-0.0902795
-0.100312
-0.10537
-0.0959818
-0.0952502
-0.0820728
-0.0842683
-0.0692345
-0.0967271
-0.0934207
-0.0878318
-0.0763504
-0.0602906
-0.0657921
-0.0611738
-0.0902786
-0.0864796
-0.0829855
-0.0562661
-0.0522813
-0.061545
-0.0674301
-0.0817603
-0.0817706
-0.0779764
-0.0540776
-0.0634045
-0.0705814
-0.0782012
-0.0748691
-0.0772724
-0.0778769
-0.0653557
-0.0629528
-0.0787883
-0.069782
-0.0729464
-0.0784496
-0.0783966
-0.0600166
-0.0523598
-0.0640683
-0.0487605
-0.135712
-0.155081
-0.154702
-0.141943
-0.132235
-0.151324
-0.152949
-0.116321
-0.154339
-0.15157
-0.127578
-0.109941
-0.153222
-0.152367
-0.0986526
-0.1492
-0.137069
-0.103789
-0.0877889
-0.151008
-0.143189
-0.0877882
-0.131122
-0.111533
-0.0835195
-0.0755381
-0.139278
-0.124933
-0.0820382
-0.106165
-0.0951401
-0.0746772
-0.0768972
-0.120108
-0.108889
-0.0788536
-0.0937361
-0.0967197
-0.078781
-0.0837653
-0.106769
-0.100762
-0.0830876
-0.0988541
-0.102053
-0.0839079
-0.07344
-0.0963844
-0.074162
-0.0832014
-0.101411
-0.0956892
-0.0668867
-0.049075
-0.0661866
-0.0481132
-0.158062
-0.161068
-0.161843
-0.153547
-0.155502
-0.157009
-0.154763
-0.157231
-0.16265
-0.166002
-0.156037
-0.156825
-0.156114
-0.161947
-0.150604
-0.167065
-0.168471
-0.156533
-0.153004
-0.163019
-0.16361
-0.127038
-0.168563
-0.161265
-0.150429
-0.137593
-0.161887
-0.153457
-0.106354
-0.156015
-0.142407
-0.132465
-0.119511
-0.150756
-0.139538
-0.106612
-0.139725
-0.13335
-0.116623
-0.106493
-0.134062
-0.110202
-0.108349
-0.131072
-0.121228
-0.100022
-0.073644
-0.100619
-0.0741136
-0.0990216
-0.117246
-0.104925
-0.06538
-0.0481998
-0.0672979
-0.0545595
-0.0484766
-0.0436559
-0.0487087
-0.0269327
-0.0281533
-0.0279459
-0.0263157
-0.0544023
-0.0478046
-0.0457846
-0.0281816
-0.0258235
-0.025453
-0.0224095
-0.0350716
-0.0441162
-0.0337104
-0.0242156
-0.0195652
-0.0211388
-0.0175119
-0.025295
-0.0304775
-0.0250506
-0.0184576
-0.0173053
-0.0168966
-0.0178108
-0.0262202
-0.0247835
-0.0283769
-0.0174232
-0.0186745
-0.0188949
-0.0228252
-0.0303729
-0.0307488
-0.0378935
-0.0193955
-0.0231774
-0.0237604
-0.0239285
-0.0351249
-0.0391061
-0.0381074
-0.0252925
-0.0356187
-0.023459
-0.0248616
-0.0500127
-0.0371758
-0.0393184
-0.0407801
-0.0599219
-0.0273056
-0.042309
-0.0456025
-0.0582562
-0.0461789
-0.033058
-0.0262796
-0.0383664
-0.0317341
-0.0362814
-0.0409705
-0.0326807
-0.0247709
-0.0211512
-0.0302182
-0.0279032
-0.0287042
-0.0315138
-0.0300659
-0.019996
-0.0174497
-0.0279117
-0.0302517
-0.0242677
-0.0300807
-0.0327731
-0.0173418
-0.0199881
-0.0316608
-0.0381947
-0.0305517
-0.0351322
-0.0489849
-0.0217312
-0.0273897
-0.0410554
-0.0496218
-0.0435583
-0.0553837
-0.0686559
-0.0285701
-0.0276468
-0.051234
-0.0469793
-0.0417988
-0.0684753
-0.0546986
-0.0262478
-0.0242358
-0.0421689
-0.0277322
-0.038346
-0.0486281
-0.0370104
-0.0255568
-0.0376902
-0.0254155
-0.0284422
-0.0694074
-0.0704037
-0.0844367
-0.0513452
-0.0465109
-0.0538497
-0.0553705
-0.0613226
-0.0903743
-0.113519
-0.0454699
-0.043767
-0.0567989
-0.0659896
-0.0534305
-0.119906
-0.127396
-0.043743
-0.0455965
-0.0703479
-0.0818755
-0.0515511
-0.126466
-0.118224
-0.046684
-0.0516806
-0.084407
-0.0883694
-0.0646112
-0.11488
-0.106506
-0.054017
-0.0609522
-0.0886784
-0.0838711
-0.0776014
-0.104092
-0.090931
-0.0619491
-0.0544998
-0.0789108
-0.0543902
-0.0586722
-0.0830628
-0.0564046
-0.0482925
-0.0297485
-0.0455348
-0.0275178
-0.0370883
-0.0490922
-0.0359267
-0.0263641
-0.0267742
-0.0247274
-0.0239082
-0.0688812
-0.0373225
-0.0368453
-0.0472444
-0.0487343
-0.0351402
-0.0345993
-0.100398
-0.0407428
-0.0658923
-0.0497762
-0.0583163
-0.0361457
-0.043162
-0.129797
-0.0777073
-0.0974215
-0.0632041
-0.0780869
-0.0464221
-0.0544161
-0.127758
-0.099443
-0.105117
-0.0818236
-0.0888731
-0.0565702
-0.061087
-0.114919
-0.106437
-0.101345
-0.0895835
-0.0827653
-0.0614352
-0.0556605
-0.0921118
-0.0958014
-0.0747362
-0.0764881
-0.0503687
-0.0514854
-0.038355
-0.0546513
-0.0677172
-0.0513197
-0.0421367
-0.0265598
-0.0348365
-0.0285016
-0.0361769
-0.0476824
-0.0423898
-0.0243146
-0.0239623
-0.027762
-0.0287926
-0.0172527
-0.0168303
-0.0170783
-0.0126081
-0.0121099
-0.0125101
-0.0115282
-0.0156155
-0.0165624
-0.0143851
-0.0118816
-0.0115422
-0.0112883
-0.0109785
-0.0132682
-0.013581
-0.0127892
-0.0115721
-0.0116647
-0.0110185
-0.0116832
-0.0140625
-0.0131527
-0.0155808
-0.0117195
-0.0123316
-0.0120866
-0.0132479
-0.0158728
-0.0166356
-0.0191282
-0.0127969
-0.0152915
-0.0134349
-0.0133607
-0.0208836
-0.0193713
-0.0186525
-0.0167071
-0.0229938
-0.0133515
-0.0150383
-0.0334767
-0.0185985
-0.022675
-0.0258114
-0.0348688
-0.0164661
-0.0232858
-0.0523811
-0.0259384
-0.0408373
-0.0379459
-0.0452855
-0.0260683
-0.0339278
-0.0165825
-0.0249014
-0.0238992
-0.0145066
-0.0122275
-0.0198854
-0.0203682
-0.0136623
-0.0234562
-0.0237348
-0.0118542
-0.011633
-0.0208085
-0.023715
-0.0135212
-0.0245483
-0.0292497
-0.0118462
-0.0134245
-0.0252523
-0.0305293
-0.0193052
-0.0153421
-0.0166825
-0.0145799
-0.0183139
-0.0156782
-0.0176648
-0.0259433
-0.021505
-0.0247914
-0.0193069
-0.0270488
-0.0202603
-0.0245734
-0.0215205
-0.0474018
-0.0384663
-0.0147897
-0.0146631
-0.0246188
-0.0172296
-0.0214493
-0.0334318
-0.0226534
-0.0155182
-0.0208623
-0.0162898
-0.0175516
-0.0369174
-0.0219548
-0.0277901
-0.0232752
-0.0305923
-0.0187931
-0.0233676
-0.0369678
-0.0351595
-0.0420015
-0.0285881
-0.0293636
-0.0294234
-0.0317991
-0.0389247
-0.0447714
-0.0562878
-0.0300727
-0.0334679
-0.0331286
-0.0397388
-0.0442613
-0.0607139
-0.0721073
-0.0349873
-0.0397175
-0.0425037
-0.0499102
-0.0583286
-0.0476977
-0.0601012
-0.0461519
-0.0614887
-0.0478895
-0.0567363
-0.0616285
-0.0551602
-0.0655412
-0.0538498
-0.0665003
-0.0550633
-0.0616126
-0.0442244
-0.0668098
-0.0420524
-0.0278097
-0.0181883
-0.0312884
-0.0191649
-0.0238072
-0.0346838
-0.0221921
-0.0168034
-0.0172228
-0.01736
-0.0163327
-0.0259254
-0.0208705
-0.0224557
-0.0181802
-0.0218697
-0.0167203
-0.0184872
-0.0341235
-0.0205555
-0.0215636
-0.025351
-0.0273411
-0.0198248
-0.0204495
-0.0485114
-0.0235133
-0.0322301
-0.0284362
-0.0348842
-0.0213467
-0.02473
-0.0680955
-0.0357965
-0.0441189
-0.037836
-0.0459274
-0.0261089
-0.0292591
-0.0785134
-0.046086
-0.0493512
-0.0476802
-0.0479018
-0.0296886
-0.0287297
-0.0696941
-0.049017
-0.042476
-0.04576
-0.0333241
-0.0277059
-0.0232442
-0.0383531
-0.0388455
-0.0293683
-0.0284799
-0.0184891
-0.0216544
-0.0183011
-0.021668
-0.0271764
-0.0238229
-0.017033
-0.0160673
-0.0177152
-0.0170612
-0.0221843
-0.0236582
-0.0253944
-0.016331
-0.0176725
-0.0171375
-0.0177323
-0.00925986
-0.00937801
-0.00934394
-0.00815707
-0.00833289
-0.00836184
-0.00842403