/*--------------------------------*- C++ -*----------------------------------*\
  =========                 |
  \\      /  F ield         | OpenFOAM: The Open Source CFD Toolbox
   \\    /   O peration     | Website:  https://openfoam.org
    \\  /    A nd           | Version:  10
     \\/     M anipulation  |
\*---------------------------------------------------------------------------*/
FoamFile
{
    format      ascii;
    class       volVectorField;
    location    "6.7";
    object      U_0;
}
// * * * * * * * * * * * * * * * * * * * * * * * * * * * * * * * * * * * * * //

dimensions      [0 1 -1 0 0 0 0];

internalField   nonuniform List<vector> 
12920
(
(306.748 181.33 -272.108)
(128.825 115.04 -75.786)
(205.827 63.567 -18.8826)
(91.2929 0.076673 0.762817)
(130.085 -12.8377 6.10148)
(84.6865 -15.8759 2.50165)
(110.611 -15.8544 4.07611)
(93.195 -13.9536 3.22409)
(101.876 -13.2213 3.61267)
(95.3141 -12.4826 3.23313)
(99.3255 -12.4426 3.02148)
(98.1063 -12.4898 2.61606)
(100.943 -12.131 2.29648)
(101.644 -12.987 1.67872)
(105.291 -12.9184 1.4775)
(107.691 -14.3506 1.31407)
(112.833 -14.079 1.27913)
(118.163 -17.2944 0.320821)
(129.898 -18.4019 -0.751392)
(137.859 -11.1847 -0.466981)
(131.747 -229.956 -163.567)
(-139.276 47.9972 -32.9984)
(153.275 10.0398 4.39313)
(31.8449 14.035 1.55416)
(124.34 5.81222 -0.464018)
(84.2547 2.75726 -1.40254)
(115.309 -3.07689 0.437143)
(98.8149 -5.37123 0.556739)
(102.902 -7.62561 1.68244)
(89.8875 -9.36288 1.35544)
(87.6627 -9.92033 0.980398)
(78.9343 -8.63759 -0.0228482)
(79.1971 -6.77053 -0.693781)
(76.9238 -4.40912 -1.32549)
(78.8525 -3.25046 -1.63332)
(79.5059 -2.05046 -2.01712)
(82.2414 -1.26495 -2.08803)
(84.6265 -0.577284 -2.46063)
(87.1246 1.87352 -3.78002)
(91.0757 3.39945 -2.98773)
(93.9443 -203.435 -50.066)
(-118.836 13.7536 21.6481)
(138.136 -59.9502 -3.75769)
(48.6057 -17.1435 7.34324)
(118.92 -27.3094 4.13039)
(89.1147 -15.7882 0.88772)
(119.344 -17.1536 1.04409)
(107.771 -11.7697 0.324328)
(112.679 -9.39733 1.02319)
(97.2889 -5.90232 0.966561)
(89.6165 -4.23637 1.44762)
(73.0463 -2.69212 0.405306)
(71.4767 -2.81274 -0.6004)
(67.2179 -2.72118 -0.583631)
(67.8732 -3.17945 -0.637077)
(67.2535 -3.73315 -0.484184)
(68.1591 -3.87263 -0.447361)
(69.5073 -3.95925 -0.462614)
(70.9494 -2.1499 -0.439879)
(72.5734 1.63877 -0.345224)
(107.836 36.998 -61.8614)
(-42.3505 -26.3974 42.743)
(136.449 -44.1847 -9.82708)
(47.6187 -27.5183 -1.6648)
(118.223 -27.918 -1.5193)
(83.5037 -17.5248 -1.11207)
(104.713 -14.5831 0.262336)
(84.3979 -7.55748 -0.0349421)
(86.696 2.01768 0.569099)
(70.5135 7.04267 0.226357)
(68.5485 8.55534 0.12198)
(60.0904 7.60034 -0.115515)
(60.2379 5.28754 -0.190595)
(57.017 4.19989 -0.240114)
(57.7525 2.75015 -0.0881042)
(57.437 1.62395 -0.0554565)
(58.2679 1.09676 -0.0677921)
(58.986 1.06465 -0.168058)
(58.4806 2.34399 -0.249949)
(58.1154 3.20978 -0.27129)
(24.2749 -42.2297 -80.5901)
(-44.827 -38.4004 -17.5148)
(142.732 -41.9844 -22.2882)
(56.4016 -19.1109 -5.05978)
(115.536 -25.8438 -1.98838)
(71.8513 -10.9068 -1.48146)
(93.4051 -8.81519 0.0938893)
(72.0018 3.75086 -0.781657)
(79.6728 4.90931 0.00512007)
(70.1108 9.17306 -0.375332)
(73.6403 6.32251 -0.224901)
(69.0058 6.17978 -0.403561)
(70.2368 2.85322 -0.318297)
(66.5855 2.30418 -0.234004)
(65.4281 -1.18059 0.148625)
(60.5493 -2.94341 0.091162)
(59.7989 -3.50152 0.183347)
(59.6174 -1.83882 0.145822)
(59.0165 1.17523 0.00583499)
(59.1746 2.96736 -0.194596)
(187.406 -161.627 72.425)
(17.6151 -77.3918 22.1809)
(154.243 -13.2867 7.07939)
(95.6347 4.49467 1.16464)
(130.938 -2.72273 1.29727)
(85.7541 3.60138 0.211898)
(97.9476 -1.00389 0.267303)
(81.0596 6.89369 -0.538454)
(86.5447 8.53346 -0.517869)
(82.6112 12.8493 -0.722765)
(86.5345 12.2648 -0.642216)
(86.7079 12.4425 -0.7967)
(89.7144 10.3328 -0.721567)
(91.2466 9.9477 -0.340205)
(91.3192 8.35452 0.168608)
(85.9374 6.3577 1.45655)
(73.2866 1.74183 1.78766)
(65.2357 1.46157 0.709471)
(60.7942 2.80542 0.131174)
(59.7279 3.1662 -0.214525)
(335.828 -224.395 -154.911)
(121.308 -78.4864 -22.2726)
(163.429 -2.90284 13.5019)
(80.5397 -1.9565 3.60781)
(128.843 6.16766 2.16616)
(86.5559 16.6903 -0.1525)
(95.5905 0.865602 0.669016)
(76.8872 15.0492 0.194449)
(81.9151 7.19387 0.228806)
(77.4388 12.565 0.104716)
(82.5405 7.41409 0.380688)
(83.5372 7.78945 0.771733)
(87.8245 3.3775 0.839557)
(90.566 2.96504 0.782034)
(93.2951 2.48832 0.892487)
(92.3804 4.26022 0.991728)
(85.7483 5.65241 1.50717)
(74.5746 6.07903 1.44592)
(67.9742 5.18788 0.524326)
(65.4954 3.80014 -0.046202)
(221.569 -177.61 -47.2768)
(25.9325 -38.8742 -16.4252)
(157.988 -9.41279 -15.8179)
(87.5604 -1.7908 -5.84584)
(136.916 -1.80184 -2.59457)
(99.6547 23.3066 -2.33057)
(104.31 15.521 -1.17457)
(83.5527 8.60577 -0.407301)
(80.6589 14.0719 0.00182557)
(70.3666 10.3929 -0.146942)
(72.8336 11.046 -0.300648)
(73.3023 5.97955 -0.172091)
(79.8048 2.49655 -0.00175097)
(83.9167 -0.0983029 0.30976)
(84.1601 1.71816 0.428922)
(82.1037 6.0734 0.533881)
(74.2689 9.20424 0.912804)
(69.6422 9.97361 0.543268)
(66.0942 7.55617 0.0691523)
(65.6857 3.90235 -0.0509214)
(257.868 -140.938 218.865)
(55.3517 27.3597 -8.03714)
(148.705 28.8434 -7.33928)
(94.3812 28.4948 -8.42325)
(136.819 27.2673 0.344812)
(88.996 29.2322 -0.229033)
(99.1397 30.0784 1.40191)
(89.5798 16.492 0.248503)
(82.4327 17.8237 -0.0574362)
(71.7812 15.6027 -0.309136)
(72.0117 12.9046 -0.682035)
(76.9657 5.98246 -0.766509)
(84.5368 -1.29394 -0.430918)
(89.5967 -5.49692 0.169196)
(89.9759 -0.316995 0.497362)
(79.3739 9.48119 0.697171)
(71.828 12.0998 1.11411)
(67.8474 11.0245 0.304751)
(66.6509 7.24008 -0.234331)
(66.9819 2.44779 -0.329768)
(17.0843 37.8109 -4.2395)
(-29.8089 24.8324 -27.0033)
(110.826 39.6557 -6.35853)
(39.1032 30.8966 -2.57352)
(96.4366 26.6921 5.91227)
(53.7665 25.4745 2.06765)
(72.3226 24.9084 1.3298)
(90.5971 19.7222 -0.125849)
(99.4216 20.81 -0.297113)
(106.05 20.8383 -0.280627)
(104.725 20.0394 -0.344068)
(99.9149 14.0214 -0.653645)
(96.0618 1.99156 -0.36691)
(94.3022 -4.62276 -0.114207)
(88.037 2.46196 -0.639919)
(81.0765 14.0473 0.0186656)
(75.9556 15.5758 0.907981)
(71.9406 13.3436 0.0770901)
(71.2041 8.25061 -0.626567)
(70.3404 3.41812 -0.66111)
(34.6886 -116.568 76.5956)
(-95.547 10.6163 -19.0979)
(121.743 30.7883 0.574646)
(19.7615 27.5199 1.42459)
(88.7704 18.3763 4.41835)
(50.7989 11.8993 -0.4454)
(61.765 8.32221 0.635361)
(76.2412 10.0103 -0.319983)
(90.202 17.2155 -0.0943199)
(98.1991 19.5187 -0.200749)
(104.617 24.6396 -0.233424)
(105.183 22.0245 0.427401)
(98.1104 4.09336 0.817234)
(89.0243 4.76071 0.00564433)
(84.5196 8.06988 -0.890336)
(81.5151 15.3752 -0.532194)
(79.6316 17.7061 0.185839)
(78.3781 16.3573 -0.138418)
(77.2093 10.7533 -0.212627)
(73.8031 4.67921 -0.326327)
(171.246 -0.405608 -13.2604)
(58.6664 11.0556 -25.1461)
(142.671 -7.45653 -9.18331)
(56.651 18.5675 -0.443256)
(80.3779 8.63698 7.84951)
(15.4663 4.31292 0.725138)
(56.0329 -8.09506 -0.316032)
(75.1866 -11.272 -0.147478)
(82.4977 -9.70731 0.843312)
(82.1299 -2.68831 0.793424)
(93.4298 15.2955 1.39378)
(89.6757 15.538 -0.276313)
(84.6775 8.1709 0.0301997)
(79.3029 8.49743 -0.347775)
(78.9028 11.9219 -0.770206)
(76.4658 17.2623 -0.803196)
(76.7601 18.5793 -0.0199439)
(76.6981 16.892 0.138955)
(76.6675 11.8581 0.18397)
(72.5515 6.04945 -0.1823)
(137.549 72.1031 2.16272)
(47.3541 63.7266 -28.3816)
(109.097 70.9686 -14.3612)
(67.0815 36.7178 -2.54806)
(107.367 28.9384 0.159207)
(80.8976 -19.2546 -0.566746)
(91.8858 -17.243 -1.71336)
(68.4883 -14.0699 -0.41651)
(68.8392 -9.01211 -0.0023551)
(51.7394 -1.48014 0.311142)
(57.8073 5.48159 -0.164795)
(58.9875 10.3221 -0.137948)
(66.8443 11.9925 -0.269434)
(66.1731 12.1829 -0.349088)
(65.3949 16.0471 -0.309216)
(67.8992 16.4108 -0.102051)
(71.3724 17.6385 0.0309771)
(73.1584 15.1898 0.199309)
(74.8279 10.9659 0.14786)
(70.3552 6.71445 -0.186971)
(-76.6291 -79.064 -46.6082)
(-175.299 53.8565 -40.9784)
(63.884 67.9925 -8.62693)
(-25.7025 16.1926 0.306377)
(83.8364 8.3428 0.332742)
(32.3394 -14.9631 0.124873)
(65.9484 16.0139 -0.0750999)
(46.0385 -11.8828 0.214583)
(57.798 9.09852 0.0213841)
(46.5158 -3.9834 0.255257)
(53.5513 7.59247 0.261947)
(49.8516 2.44543 0.35466)
(56.2843 9.09276 0.309571)
(56.6411 7.51324 0.268615)
(61.3201 11.2526 0.369567)
(62.7599 11.5055 0.259498)
(66.9859 12.9744 0.3548)
(69.0775 11.5076 0.316343)
(70.4738 10.5069 0.170964)
(66.7533 8.17464 -0.035842)
(-63.8156 -84.477 -12.2457)
(-131.835 0.468187 -29.2243)
(87.2928 2.30121 -7.77611)
(-16.4239 0.432465 0.290941)
(82.6276 -1.76698 -1.14423)
(27.9579 -18.7724 0.0630978)
(70.3493 0.882031 -0.680272)
(47.9764 -5.84568 -0.00406277)
(61.0368 3.90187 -0.147383)
(49.8519 0.653715 0.0187314)
(54.3778 5.34983 0.0517744)
(49.126 4.16126 0.0963174)
(52.0757 6.73963 0.167905)
(51.1491 6.65629 0.210913)
(53.6809 8.5174 0.235236)
(54.7149 8.35759 0.170694)
(57.5147 9.74315 0.267591)
(59.4246 9.02802 0.169222)
(60.2686 9.05006 0.141455)
(58.5236 7.33946 0.0245191)
(131.344 281.644 -227.462)
(-219.946 57.3699 14.2171)
(99.7387 -1.49811 -13.1679)
(-67.5158 -1.29403 2.99694)
(79.8164 -10.8444 -1.69237)
(11.0904 -14.3396 -0.0748094)
(64.1937 2.48343 -0.402977)
(35.7632 -5.41933 -0.590525)
(59.1791 7.31394 -0.38774)
(45.2486 0.39897 -0.316242)
(55.5743 6.85401 -0.17943)
(48.3324 2.69336 -0.153777)
(53.623 5.9304 -0.0482809)
(50.7692 4.25261 -0.0422064)
(54.4196 6.1588 0.0828129)
(54.1251 6.03194 0.0610691)
(56.4243 7.20808 0.124316)
(57.8198 7.08349 0.0433254)
(58.4508 7.65536 -0.0135615)
(57.111 6.54836 -0.121479)
(114.944 24.9403 28.5595)
(-19.3896 -10.3092 1.72078)
(97.5728 -41.876 -0.941463)
(14.6582 -28.6324 -3.54277)
(76.1013 -39.8092 -0.30071)
(20.847 -20.0624 -0.638193)
(64.3269 -14.0424 -0.238155)
(33.3175 -5.0585 0.0883575)
(56.5497 0.235871 0.0351371)
(40.9004 1.95292 0.0223397)
(52.7556 4.01948 -0.0217632)
(45.6464 3.89585 -0.137754)
(52.0496 4.82209 -0.0857844)
(49.8464 4.76684 -0.0537961)
(53.9088 5.30289 -0.0842124)
(54.2862 5.5134 -0.0959978)
(56.9038 6.21283 -0.0764736)
(58.6838 6.35772 -0.0904612)
(59.4451 7.0938 -0.183919)
(58.6129 6.20813 -0.220629)
(283.206 39.3073 -36.6299)
(145.941 89.9125 4.29822)
(181.457 75.9616 1.45003)
(90.1911 44.1117 -0.228256)
(103.025 2.64569 1.6866)
(51.6751 -5.63967 0.540927)
(73.9669 -6.366 0.580252)
(47.9203 -3.27908 -0.102365)
(63.9652 0.396923 0.100145)
(50.1105 0.838573 -0.262735)
(59.3775 2.58215 -0.130189)
(52.6241 1.75059 -0.300579)
(58.121 2.20968 -0.24232)
(55.618 1.72601 -0.354444)
(59.4903 2.2313 -0.330688)
(59.6946 3.03353 -0.410331)
(62.5459 4.09582 -0.373137)
(64.581 4.72831 -0.408276)
(65.5666 6.07969 -0.570311)
(66.1766 5.6302 -0.464423)
(291.918 41.2018 10.6501)
(235.454 54.384 23.1623)
(211.826 60.8086 16.6395)
(128.964 26.9467 7.69279)
(131.841 -7.79253 5.24987)
(79.1697 -7.55668 2.75947)
(86.7299 -8.70269 1.53635)
(57.6602 -0.860812 0.156887)
(68.4335 -0.0901818 -0.551404)
(53.8682 3.98212 -0.940654)
(62.6294 3.86901 -1.25002)
(56.4634 5.2711 -1.29707)
(62.5365 4.66307 -1.2872)
(61.529 4.84061 -1.22837)
(66.8549 4.15629 -1.0451)
(68.4532 4.59834 -0.950393)
(72.0195 4.78822 -0.932938)
(74.389 5.46967 -0.78777)
(75.6467 5.88596 -1.10414)
(77.1734 4.91677 -0.97722)
(45.9019 21.6104 -25.9253)
(31.3969 86.5113 -6.29874)
(155.39 72.7321 5.40826)
(112.578 33.0938 3.67949)
(147.155 17.7552 1.16581)
(128.424 9.09037 0.781918)
(133.831 6.70444 2.09276)
(118.058 8.12372 2.61935)
(119.112 9.03387 2.85238)
(110.593 10.5695 2.48122)
(113.644 9.73408 2.08048)
(110.814 8.88557 1.67994)
(113.281 6.09656 1.46946)
(111.079 3.85108 1.48407)
(109.106 1.93841 1.74026)
(103.691 3.47938 1.69997)
(102.293 5.37747 1.54083)
(102.474 6.37484 1.30346)
(102.844 7.30556 0.902629)
(104.923 6.56611 0.757881)
(58.1778 98.941 -78.5037)
(-39.6298 -40.6765 39.8689)
(110.457 18.7543 24.7072)
(29.2278 -8.66476 11.2332)
(110.047 -9.52379 9.22726)
(66.8563 -9.65963 2.9171)
(100.342 -10.722 6.42859)
(84.888 -9.1505 4.80648)
(97.5599 -8.93949 6.22767)
(94.2934 -8.03104 5.72311)
(101.298 -7.42833 5.71306)
(102.221 -6.76968 4.98071)
(107.211 -6.20724 4.35188)
(108.725 -6.09128 3.46373)
(113.471 -5.76083 2.86851)
(115.98 -6.32775 2.17448)
(121.24 -6.2861 1.05461)
(127.787 -7.85568 0.124384)
(135.364 -4.44799 -0.991384)
(134.733 -0.671172 -0.402929)
(213.13 -160.798 -28.0079)
(-111.998 -54.772 43.3898)
(150.791 -54.8291 -16.3801)
(34.1548 -13.5379 2.80117)
(117.315 -4.19289 -3.28271)
(68.3784 2.85653 -3.21998)
(98.0222 0.0896418 0.906258)
(78.932 -1.72222 0.441997)
(87.5385 -4.13304 2.5856)
(78.1576 -5.49948 1.45378)
(80.4182 -5.56627 1.00573)
(75.6921 -4.80824 -0.599821)
(76.9919 -3.13395 -1.66918)
(75.3717 -2.36044 -2.60573)
(76.9007 -1.61792 -2.96362)
(77.0816 -1.48558 -3.58646)
(78.6768 -1.26879 -3.72094)
(80.2194 -1.05864 -4.68595)
(81.8059 0.890595 -5.59287)
(82.296 2.10983 -4.41503)
(148.223 -97.9928 81.1195)
(-6.29474 -24.9254 15.1148)
(118.352 -69.8172 -41.4991)
(32.6279 -17.5591 3.06294)
(105.6 -22.7647 1.68162)
(70.2265 -8.18084 0.209131)
(101.462 -9.42782 1.99073)
(84.2735 -4.25804 0.660029)
(90.3462 -3.56853 2.51527)
(75.8256 -1.00366 1.85941)
(73.7774 -0.961107 2.31961)
(64.526 -0.360423 0.642313)
(63.8549 -0.800868 -0.79777)
(60.1641 -1.11835 -1.00113)
(60.8482 -1.78393 -1.12209)
(59.9992 -2.57549 -0.985471)
(60.6785 -2.70849 -0.968109)
(61.2519 -2.84857 -1.0708)
(61.8482 -1.33424 -0.971989)
(62.5477 1.07459 -0.885729)
(95.1196 65.999 -58.5417)
(9.09376 -8.34552 -25.8879)
(131.704 -32.7794 -37.6122)
(45.5786 -19.0132 -5.84059)
(106.668 -18.2238 -2.04615)
(66.6141 -5.84879 -1.31239)
(90.1689 -3.2294 1.3306)
(69.1687 3.38167 0.235147)
(73.9321 6.52132 1.35024)
(60.2883 8.43003 0.42005)
(60.5918 7.64295 0.184709)
(53.3477 6.12051 -0.336466)
(53.9371 3.7563 -0.446649)
(50.7181 2.64851 -0.552485)
(51.3535 1.18747 -0.23468)
(50.7617 0.38119 -0.17964)
(51.3938 0.0205478 -0.197355)
(51.8093 0.11625 -0.389503)
(51.2451 1.51959 -0.570776)
(51.4091 2.24006 -0.708006)
(138.934 115.463 139.21)
(116.902 7.79431 -16.3942)
(147.927 -29.2762 -22.815)
(49.0963 -12.8302 -7.65254)
(98.6433 -18.7799 -3.65731)
(49.4067 -3.45165 -2.51895)
(76.5428 -3.17153 0.336456)
(54.7155 8.12688 -1.06879)
(66.025 6.91833 0.220007)
(56.7904 10.3743 -0.535406)
(61.6969 6.79061 -0.169238)
(56.8881 6.63173 -0.603757)
(58.5105 3.48634 -0.443511)
(54.809 2.78236 -0.394496)
(54.5881 0.0270731 0.181713)
(51.7544 -1.46865 0.215916)
(51.6057 -2.08896 0.362789)
(51.6141 -1.02907 0.199609)
(51.2602 0.858048 -0.00121536)
(51.9019 2.0069 -0.466547)
(206.116 49.2619 -199.549)
(-63.8725 13.8436 -21.5129)
(136.25 9.83731 -23.7015)
(68.9657 5.24821 -7.73238)
(111.4 -2.52767 -0.131255)
(63.1157 6.56331 -0.125305)
(82.0122 1.40312 1.08354)
(64.8324 9.39723 -0.29847)
(71.8741 8.63313 -0.264301)
(66.4502 11.4242 -0.746252)
(69.8304 9.34477 -0.679831)
(68.2742 8.98491 -0.876)
(69.8379 6.7679 -0.70692)
(68.8925 6.68239 -0.324163)
(68.5229 4.84121 0.536646)
(63.9398 3.17937 2.46373)
(58.7317 0.78688 2.6383)
(55.1084 1.11354 0.916455)
(52.6353 1.85737 0.157135)
(52.3906 2.04846 -0.474968)
(299.559 -84.1005 -56.7153)
(2.3751 -8.42377 38.1159)
(129.332 17.6977 10.3893)
(47.081 8.6854 3.52109)
(107.53 10.5863 3.03408)
(58.9233 18.214 0.075019)
(74.746 -1.39665 1.77613)
(57.5772 15.0604 0.698598)
(65.4724 5.95403 0.660294)
(60.9398 11.8558 0.454845)
(66.8803 6.14788 0.872481)
(67.3326 7.13675 1.12231)
(71.5344 3.82875 1.07967)
(71.9549 4.6157 1.06052)
(72.5365 4.19813 1.38671)
(70.0272 6.18572 1.80381)
(64.8422 5.91343 2.61692)
(60.3745 4.83771 1.9911)
(57.6387 3.26019 0.696213)
(56.7183 2.15231 -0.193185)
(162.649 -125.705 -94.6585)
(84.1829 -19.416 -12.4169)
(164.448 10.0032 -13.9152)
(86.3711 8.42997 -6.99727)
(121.497 2.91128 -2.09202)
(77.9832 25.5058 -2.03832)
(85.3438 13.009 0.443628)
(65.2673 8.19477 1.21608)
(65.9025 12.4182 0.721222)
(59.1401 8.88829 -0.323023)
(63.2632 8.32003 -0.221168)
(64.4833 5.36449 -0.118751)
(69.3495 4.56363 0.113646)
(70.7563 4.61476 0.184625)
(66.4185 6.28169 0.193111)
(63.3304 8.08008 1.04867)
(59.7579 8.47506 1.45476)
(58.52 7.59651 0.719166)
(57.2877 4.65934 0.0674816)
(57.3777 2.14931 -0.24803)
(263.43 -238.187 11.4446)
(61.3229 -30.4185 9.19774)
(137.208 29.3773 -13.2893)
(53.527 27.7857 -13.377)
(96.0271 25.7316 0.545517)
(72.5789 24.3271 0.435878)
(88.8261 26.8789 1.811)
(76.6386 17.2636 1.06404)
(69.1598 16.3386 0.856544)
(64.3278 12.1631 -1.3098)
(65.711 8.12696 -2.23057)
(68.0868 2.81745 -2.45008)
(71.8887 0.068955 -1.56816)
(74.1324 1.26023 -0.601109)
(71.5061 7.60274 0.0993624)
(60.922 10.7592 0.883823)
(59.1902 9.94238 1.11732)
(58.43 7.37616 0.229506)
(58.6093 3.54167 -0.413721)
(58.2294 1.25247 -0.675922)
(131.218 1.18097 111.969)
(-64.3965 1.28262 2.24722)
(81.6485 19.9951 -13.3519)
(-12.0655 12.9275 -4.93534)
(69.1683 13.5103 7.08027)
(42.5282 18.8338 1.7527)
(68.3727 21.3896 2.95352)
(82.0718 20.2782 1.36251)
(84.2381 19.1034 0.298853)
(85.3231 14.3852 -1.25173)
(83.7067 9.72955 -2.51467)
(80.4322 2.62486 -2.44677)
(78.6911 -2.32678 -0.991533)
(77.6539 1.14818 -0.48905)
(72.6334 9.15365 -0.957832)
(63.9923 14.3658 0.164114)
(62.3423 12.0305 0.636919)
(61.9926 8.33299 -0.382766)
(61.8563 3.77293 -0.942219)
(59.8199 1.53623 -1.01107)
(187.122 -19.743 -133.715)
(-87.0567 31.4012 -14.533)
(111.834 32.4071 -13.8996)
(-9.37619 23.265 0.290216)
(72.4664 14.6432 4.92765)
(41.3694 9.18265 2.4052)
(56.323 8.01421 2.96041)
(69.8647 8.75954 1.4581)
(81.7481 11.6896 1.836)
(88.8595 11.7645 0.978789)
(91.2073 10.9564 0.206212)
(88.9281 5.47415 1.78298)
(84.3077 2.35441 1.84604)
(78.7762 6.46559 -1.49999)
(72.1022 10.9659 -1.98546)
(66.3061 14.9833 -0.538742)
(66.0834 13.4966 0.0996009)
(65.5013 8.90953 -0.41743)
(64.8463 4.18032 -0.375655)
(61.6086 1.86584 -0.662144)
(120.204 -141.513 103.743)
(19.871 5.90735 -12.3371)
(97.503 -15.6492 9.82822)
(1.08254 11.5351 3.45883)
(58.5517 0.792152 9.83509)
(23.0755 2.47976 2.54753)
(56.0225 -8.638 1.03391)
(68.3876 -8.66884 1.12939)
(73.7625 -3.65148 3.12174)
(78.1538 3.18368 2.91274)
(83.5178 10.1821 2.96977)
(78.6616 10.1067 2.74293)
(72.1666 8.7315 -0.397767)
(69.9421 10.5824 -1.89648)
(68.2257 12.8815 -1.96259)
(63.6239 14.3444 -0.81734)
(64.5808 13.152 0.254427)
(64.8562 9.43492 0.275299)
(64.2959 5.48605 0.274257)
(60.3313 3.08213 -0.391197)
(324.927 82.5502 -3.23912)
(202.362 25.2827 -6.31289)
(145.323 46.9774 -4.15114)
(63.7922 27.6087 -1.05879)
(96.2619 22.1094 -0.0071811)
(64.3604 -21.5581 -0.443508)
(74.2999 -15.3959 -0.928064)
(48.295 -9.04913 1.05823)
(54.6749 -3.13281 0.86662)
(43.5647 2.66545 0.173849)
(52.3352 7.71911 -0.493384)
(51.6842 9.40378 -0.462404)
(58.2119 10.5395 -0.924179)
(57.1122 10.4741 -0.95386)
(56.4818 12.1748 -0.308033)
(58.6067 11.3013 0.124834)
(61.2103 11.0294 0.3629)
(62.3218 8.28831 0.483136)
(62.1238 6.18659 0.352734)
(57.7946 3.86525 -0.370471)
(82.814 -19.0105 -30.7461)
(-96.4731 45.0515 -39.2)
(66.5345 68.5877 -4.69671)
(-26.6809 21.3464 -0.290748)
(74.4572 10.4729 -0.102837)
(19.5631 -12.5708 -0.131305)
(52.534 18.2841 -0.41588)
(29.5942 -13.3492 0.570132)
(43.5593 9.93321 -0.109294)
(33.0563 -5.06045 0.596243)
(42.8972 7.72805 0.217529)
(40.0019 1.48239 0.643476)
(47.3702 7.78818 0.402815)
(47.6619 5.05107 0.466539)
(52.4459 8.35961 0.687965)
(53.3256 7.90152 0.563807)
(56.3974 8.53034 0.683788)
(57.5214 7.48721 0.603988)
(57.7109 7.07516 0.373986)
(54.4336 5.24261 -0.20225)
(89.0103 -208.225 -113.707)
(-122.614 -2.97205 -39.459)
(71.8883 1.58696 -2.1543)
(-19.0062 5.91873 2.28795)
(71.9506 0.855409 -0.836423)
(17.0366 -14.8898 0.573652)
(60.2621 6.07466 -0.949359)
(35.4077 -3.91579 0.246876)
(49.9305 5.90658 0.0491407)
(37.899 0.398006 0.117165)
(44.254 5.13267 0.201321)
(39.4276 3.0841 0.223017)
(43.5583 5.63671 0.355333)
(42.8889 4.95036 0.474526)
(45.7903 6.49104 0.47309)
(46.7405 5.92486 0.338226)
(49.1421 6.9074 0.466439)
(50.6329 6.19199 0.320312)
(51.1687 6.3644 0.174463)
(49.7751 4.94732 -0.155506)
(-48.1056 -18.0509 -197.099)
(-204.324 22.342 -36.8053)
(54.9301 -4.57163 -26.781)
(-76.6145 -1.04417 4.37269)
(67.3654 -8.24614 -4.12372)
(-4.25202 -12.3936 0.889849)
(54.2391 4.95679 -0.864306)
(22.7939 -5.76401 -0.459896)
(48.8053 6.92744 -0.247416)
(33.5913 -1.6365 -0.256781)
(45.6448 5.13895 0.0968438)
(38.296 0.474589 -0.144368)
(44.7974 4.04799 0.207906)
(42.1579 2.21885 0.176474)
(46.3966 4.14204 0.201787)
(46.1604 3.8948 0.125593)
(48.6657 4.98895 0.245755)
(49.9567 4.8761 0.0218179)
(50.531 5.4455 -0.130656)
(49.2882 4.49283 -0.391082)
(94.0924 46.2414 -14.301)
(-75.057 -20.0194 -28.9224)
(69.3262 -43.5728 -18.6553)
(-10.2055 -30.3764 -9.05069)
(64.5563 -39.7604 -2.08452)
(10.9102 -20.0727 -0.746008)
(56.3569 -13.5924 -0.357739)
(25.8327 -6.18008 0.269487)
(49.9828 -1.52707 0.131771)
(34.2481 -0.727646 0.10748)
(46.3971 1.22831 0.0789658)
(39.0545 0.951996 -0.106388)
(45.7193 1.97251 0.0348195)
(43.322 2.02346 -0.0366392)
(47.4839 2.72022 0.108735)
(47.7382 3.07574 -0.04803)
(50.2935 3.82664 -0.0924095)
(51.895 4.12876 -0.23206)
(52.595 4.80928 -0.430131)
(51.5737 4.10652 -0.572988)
(66.7324 -26.7722 -93.9805)
(4.14526 42.3222 -12.2825)
(129.903 33.0414 -10.4057)
(56.8138 4.89569 2.10739)
(87.0222 -12.3942 8.00754)
(37.4662 -11.9011 2.15204)
(64.9762 -8.56013 1.75896)
(38.314 -4.86195 -0.0256028)
(56.6751 -1.46163 0.293972)
(42.9619 -1.4397 -0.559207)
(53.261 -0.0614069 -0.254126)
(46.6177 -0.98829 -0.657378)
(52.6154 -0.557994 -0.477612)
(50.2015 -0.962819 -0.656595)
(54.2091 -0.269167 -0.510929)
(54.2923 0.567018 -0.605285)
(56.9755 1.62181 -0.549726)
(58.6818 2.49134 -0.705927)
(59.5673 3.53544 -0.934729)
(59.0418 3.27245 -0.806248)
(166.561 -141.178 122.415)
(166.782 -89.7328 17.1987)
(204.583 -28.1778 26.8969)
(132.298 -17.7564 20.2154)
(127.663 -18.4477 13.6213)
(76.8907 -10.7241 5.91804)
(85.4179 -10.5836 3.4814)
(60.3216 -3.95869 0.51761)
(70.5198 -3.85009 -0.778081)
(57.9002 -0.392798 -1.83717)
(65.6789 -0.751122 -2.20103)
(59.8892 0.417974 -2.34118)
(65.1411 -0.332586 -2.06982)
(63.3477 -0.0883328 -1.82453)
(67.0053 -0.586579 -1.43548)
(67.2187 0.158542 -1.58081)
(69.3445 0.714598 -1.63086)
(70.9583 1.61418 -1.66659)
(71.7484 2.0528 -1.9793)
(71.0745 2.03932 -1.65352)
(108.923 -97.2041 82.6856)
(-4.74526 28.8651 24.7754)
(150.43 49.9059 16.3608)
(104.74 30.9145 9.61604)
(138.888 21.269 4.03975)
(120.493 11.6937 1.37257)
(128.941 6.63947 3.47919)
(117.97 5.13163 4.09316)
(122.75 3.85266 4.86738)
(117.652 3.9044 4.33864)
(121.388 2.38827 3.92558)
(118.539 1.3742 3.40556)
(119.154 -0.973428 3.1768)
(114.547 -2.0723 3.26629)
(111.386 -2.46349 3.92976)
(105.921 -0.270067 3.95641)
(105.04 1.1652 3.31546)
(105.039 2.34667 2.83862)
(105.132 2.63599 1.81187)
(105.46 2.17129 1.26839)
(-16.1751 36.3485 -53.3824)
(-128.562 -20.6835 -43.8832)
(118.771 9.95695 -26.4975)
(31.8265 -1.6952 1.71889)
(107.186 -3.72909 6.31523)
(58.7863 -3.77369 2.38792)
(93.3097 -5.44656 7.6166)
(77.911 -4.17619 5.64776)
(93.7631 -4.17493 7.43899)
(92.6721 -3.18954 6.38497)
(102.157 -2.70051 6.0635)
(104.436 -1.79717 4.76072)
(111.612 -0.781113 3.97855)
(113.472 -0.0330837 2.54177)
(118.443 0.505267 1.91031)
(121.557 0.709478 1.30822)
(125.122 1.43322 -0.00541656)
(126.675 2.28359 -1.59611)
(126.752 4.5308 -2.53118)
(119.59 5.46468 -1.73655)
(45.3664 -233.833 -47.5539)
(-55.9479 -47.8159 -2.31963)
(126.548 -71.651 -17.5884)
(33.6393 -20.6918 4.05139)
(107.568 -8.34417 1.0489)
(53.364 2.6269 -1.90418)
(83.9165 1.23582 2.42512)
(62.9706 0.452235 0.54049)
(75.4537 -1.17835 2.55667)
(68.1815 -2.10368 1.14502)
(73.5515 -1.92391 0.571046)
(70.408 -1.72076 -1.05655)
(72.6611 -0.456363 -2.01989)
(71.18 -0.334116 -3.04304)
(72.5426 0.139063 -3.47573)
(72.1846 -0.143441 -4.12975)
(73.0636 0.0431059 -4.33692)
(73.5503 0.209471 -5.38527)
(73.7752 1.50114 -5.98637)
(71.5539 1.57601 -4.48315)
(232.615 29.3285 72.2681)
(193.867 5.45496 24.2986)
(144.518 -71.2108 -17.912)
(37.6396 -19.7514 7.55399)
(94.7147 -20.2061 3.25423)
(50.9358 -4.30355 0.408759)
(83.2702 -5.51287 2.77669)
(61.6827 -0.301022 0.634898)
(71.6626 -0.509443 3.01603)
(59.4292 1.45114 1.81706)
(62.2738 0.992559 2.0021)
(56.1505 1.23777 0.419639)
(56.8841 0.563169 -0.648888)
(53.4732 0.105148 -0.998554)
(54.1794 -0.708559 -1.12302)
(52.9329 -1.58216 -1.06419)
(53.2258 -1.62911 -1.06373)
(53.1448 -1.77533 -1.15288)
(53.1007 -0.308159 -1.10029)
(53.2349 0.90804 -1.09736)
(354.139 81.1032 50.9633)
(211.342 24.6931 21.1434)
(161.441 4.19219 -20.5864)
(46.4447 -3.83203 -3.88668)
(96.1913 -8.57677 -0.0746619)
(49.1435 1.92575 -1.31791)
(76.2354 2.61272 1.82326)
(53.7756 7.44082 0.229148)
(62.5012 7.76435 1.58988)
(50.2341 8.30181 0.382952)
(53.0538 6.75573 0.328268)
(46.445 5.27372 -0.239492)
(47.7164 3.07198 -0.306889)
(44.4737 2.05724 -0.487673)
(45.1945 0.670475 -0.216915)
(44.4183 0.0106747 -0.2173)
(44.8938 -0.256166 -0.24532)
(45.059 -0.179507 -0.472668)
(44.3705 1.08546 -0.596487)
(44.907 1.56199 -0.823745)
(276.725 -12.6439 36.2373)
(79.1841 -18.896 -17.5407)
(145.458 -31.864 -9.16152)
(35.8201 -11.3684 -3.96986)
(87.5417 -14.9217 0.622728)
(33.0088 0.328642 -1.524)
(64.8473 -1.24726 0.863581)
(41.8048 9.2372 -0.801455)
(55.902 6.35108 0.497099)
(46.4156 9.81543 -0.269848)
(52.4661 5.9866 0.131784)
(47.2701 6.20176 -0.456138)
(49.318 3.07817 -0.272244)
(45.6142 2.40418 -0.363694)
(45.9199 0.200596 0.19772)
(44.1888 -0.826154 0.274085)
(44.4235 -1.35852 0.373387)
(44.6415 -0.671187 0.169785)
(44.4308 0.539738 0.038942)
(45.4234 1.37511 -0.563488)
(369.224 -107.56 -77.2401)
(178.349 -21.838 0.649215)
(166.02 0.811133 -16.475)
(62.2703 3.46496 -3.76557)
(98.9315 -1.91965 1.82538)
(46.0133 8.33698 0.17631)
(70.2968 1.50454 1.40253)
(51.8937 9.59344 0.0599786)
(60.5557 7.35514 0.301532)
(54.1129 10.0461 -0.319385)
(57.5096 7.30577 -0.423913)
(54.6883 7.27366 -0.62252)
(55.4445 5.00349 -0.626961)
(52.9989 5.14966 -0.37228)
(51.4426 2.93952 0.628809)
(48.41 2.02726 2.02126)
(47.5443 0.731392 2.03881)
(46.721 0.839712 0.69537)
(45.3293 1.2594 0.0591539)
(45.732 1.40656 -0.642241)
(217.75 1.0262 53.9236)
(27.3812 28.5523 36.8206)
(122.083 34.4956 8.40785)
(28.3566 14.0301 3.14203)
(91.6467 12.6495 3.50522)
(38.7949 18.2507 0.186482)
(60.0944 -3.23747 1.81774)
(43.2464 15.341 0.767453)
(53.3186 4.74988 0.740276)
(48.4261 11.338 0.631033)
(54.637 5.21847 0.878573)
(53.9755 7.08517 0.977881)
(57.2691 4.13124 0.93466)
(55.9184 5.60665 0.894926)
(55.2347 4.89595 1.13197)
(52.139 5.93001 1.59063)
(50.5463 4.65083 2.15807)
(49.6352 3.46253 1.48539)
(48.8411 2.08588 0.457382)
(48.9499 1.36072 -0.430212)
(218.889 -137.109 -49.8276)
(104.886 19.9904 -18.1061)
(157.898 28.2095 -2.10887)
(69.8259 14.8167 -4.81068)
(105.193 5.45055 2.68244)
(57.6204 27.456 -0.823699)
(67.7243 10.0409 1.21659)
(49.306 8.84133 1.50787)
(53.3147 10.1335 0.674603)
(48.5498 7.68175 -0.260045)
(53.3841 7.01243 -0.23661)
(54.2467 5.60853 -0.125442)
(57.9217 5.889 0.155537)
(57.5558 6.68451 0.248807)
(51.3247 7.34302 0.878689)
(49.6661 7.44727 1.15818)
(48.6997 6.71314 1.16367)
(49.3486 5.45216 0.542324)
(49.078 2.92028 -0.0543919)
(49.4008 1.44801 -0.556199)
(63.5837 -57.1179 6.23836)
(7.23492 -6.86412 28.7464)
(110.833 26.2266 -6.04274)
(22.1587 25.5737 -7.11114)
(72.0143 23.867 2.56507)
(46.5589 24.9748 0.248783)
(64.4001 24.356 2.18243)
(58.1674 15.4153 1.69267)
(56.7813 12.8619 0.576483)
(55.2736 8.16485 -1.48131)
(57.0235 5.13777 -2.29764)
(58.253 2.44677 -2.13962)
(60.4698 2.90594 -1.22676)
(60.8419 5.51567 -0.233315)
(56.53 9.88719 0.556669)
(48.6421 8.77389 1.38563)
(49.1109 7.21864 0.898354)
(49.8639 4.64637 0.119979)
(50.3279 1.95481 -0.443916)
(49.8847 0.896372 -0.968047)
(148.035 32.6836 20.2932)
(-1.74564 -6.95907 -6.36305)
(72.3855 8.08136 -13.361)
(-28.9856 6.44233 -4.10385)
(54.6003 8.73936 4.88723)
(24.6235 16.058 0.723589)
(52.8546 20.7256 2.77951)
(67.2009 18.3971 2.0119)
(70.2709 13.6788 0.518844)
(70.7579 7.99 -1.65049)
(69.0996 3.45697 -2.56633)
(66.3779 -0.646568 -1.80301)
(65.4999 0.294825 -0.881166)
(64.1435 5.84253 -0.627608)
(58.7453 11.5972 -0.139451)
(51.7606 11.223 0.974278)
(51.7726 7.84072 0.475013)
(52.4647 4.88693 -0.382154)
(52.147 1.85588 -0.796395)
(50.2734 0.913684 -1.2392)
(107.718 80.2939 -111.086)
(-16.601 39.1676 1.21323)
(91.9527 28.7737 -7.15295)
(-21.1845 16.5711 1.33127)
(60.8771 11.9053 3.40633)
(29.0808 6.61787 1.83094)
(45.6111 6.60267 3.56702)
(61.5514 8.0798 2.6611)
(72.1162 8.41008 2.61579)
(76.836 6.04036 2.42166)
(78.4382 5.12254 1.72357)
(75.9134 1.08579 1.60919)
(71.0297 4.24397 0.606386)
(64.0838 8.38051 -1.91702)
(58.6783 12.1619 -1.46598)
(53.6935 11.0582 0.517311)
(54.2036 7.95398 0.337016)
(54.174 4.1436 -0.221691)
(53.6186 1.63117 -0.367014)
(51.1204 0.792313 -0.988763)
(208.544 -34.8313 -17.1407)
(-41.9761 10.9151 -21.8488)
(80.1703 -19.4581 2.48222)
(-22.7773 5.12795 0.423963)
(47.6564 -3.8482 5.91344)
(13.702 -2.74005 1.51249)
(47.4916 -9.67027 1.33819)
(58.5157 -4.73397 1.59071)
(63.9369 1.81745 3.0299)
(67.1932 6.61053 2.36306)
(67.0427 8.87186 2.16626)
(63.3221 8.72726 1.57557)
(60.9473 9.56953 -1.17787)
(58.8903 10.5483 -2.11341)
(55.9257 10.9034 -1.48198)
(52.1309 9.4878 0.410328)
(53.4539 7.60143 0.779644)
(53.725 4.66599 0.391858)
(53.0781 2.69558 0.153991)
(49.9808 1.6915 -0.746633)
(262.194 115.731 38.6372)
(163.638 75.087 -4.45547)
(140.71 56.5178 8.52816)
(54.6311 26.111 3.76465)
(86.0805 18.116 1.22053)
(49.9708 -22.8436 0.251311)
(60.37 -12.2225 -0.38584)
(35.3575 -5.61006 1.37577)
(45.7537 1.58339 0.669095)
(36.6834 5.01417 -0.223392)
(46.1448 8.16722 -0.504115)
(44.3506 8.40692 -0.609114)
(50.4413 8.99709 -0.940113)
(48.7972 8.18115 -0.653646)
(47.668 8.51881 0.613108)
(49.5385 6.80476 0.659645)
(51.169 6.47739 0.631818)
(51.7634 4.48692 0.501312)
(51.2034 3.70857 0.217176)
(47.8005 2.36881 -0.711755)
(109.439 94.5111 135.224)
(-153.162 50.8093 -61.1942)
(70.0082 68.4168 -7.88402)
(-31.4285 20.6956 -0.578234)
(66.8592 9.67113 0.118366)
(7.94417 -11.8829 0.205974)
(42.1569 19.3389 -0.791103)
(17.9813 -14.7451 0.723984)
(34.5636 10.2726 -0.406593)
(24.4462 -6.0189 0.763584)
(35.5858 7.42852 0.14304)
(32.5322 0.191471 0.749807)
(39.9656 6.41836 0.456663)
(39.7496 2.86206 0.829642)
(44.3321 5.74383 0.82031)
(44.7094 5.112 0.684717)
(46.9857 5.7053 0.693973)
(47.6999 4.87501 0.498792)