/*--------------------------------*- C++ -*----------------------------------*\
  =========                 |
  \\      /  F ield         | OpenFOAM: The Open Source CFD Toolbox
   \\    /   O peration     | Website:  https://openfoam.org
    \\  /    A nd           | Version:  10
     \\/     M anipulation  |
\*---------------------------------------------------------------------------*/
FoamFile
{
    format      ascii;
    class       volScalarField;
    location    "8.9";
    object      k_0;
}
// * * * * * * * * * * * * * * * * * * * * * * * * * * * * * * * * * * * * * //

dimensions      [0 2 -2 0 0 0 0];

internalField   nonuniform List<scalar> 
12920
(
5885.34
3638.68
2523.6
1621.75
1022.18
614.207
413.935
341.418
306.296
283.329
257.87
240.273
228.103
203.343
152.333
118.463
109.597
103.18
98.8944
85.3726
5146.56
3972.59
2072.47
1429.28
919.236
648.853
538.76
508.468
444.79
384.35
319.663
271.702
231.406
199.321
176.214
162.585
155.262
144.825
132.131
122.651
1931.36
2614.55
1790.33
1348.6
877.776
710.931
618.451
584.442
488.019
366.94
271.35
222.151
190.445
173.793
163.202
155.261
150.128
146.015
144.459
144.178
2925.02
2340.49
1535.57
1061.93
753.134
656.976
554.538
472.933
356.596
285.165
234.024
206.312
184.673
170.76
161.138
154.914
151.81
149.627
148.783
146.645
1446.97
1770.88
1323.41
881.903
680.908
613.902
509.137
435.19
342.677
286.678
243.961
217.304
192.515
177.571
168.66
163.23
160.599
157.194
155.575
151.071
2230.47
1907.93
1286.64
925.19
730.346
672.672
552.015
495.171
404.951
339.273
278.354
231.502
193.356
170.71
161.51
157.402
156.022
152.981
151.026
145.616
774.271
1742.97
1138.95
896.312
723.841
635.787
515.944
442.894
371.653
306.299
244.239
199.155
166.599
151.656
145.435
141.276
139.841
137.155
135.901
131.785
707.261
1635.03
1366.91
1023.89
789.788
693.551
397.255
298.599
265.481
214.84
168.296
127.571
97.5409
77.7325
130.924
123.591
119.209
114.868
113.586
110.246
3119.42
2447.51
1694.92
1122.09
797.907
418.346
329.42
167.091
171.416
150.701
116.351
83.9763
72.7411
58.4341
81.4443
109.299
97.7711
90.8319
89.2334
86.1044
1164.02
1797.14
2111.82
1509.26
984.412
384.373
156.506
121.465
137.264
131.327
110.475
90.38
93.5872
79.2583
88.0314
86.0125
75.2166
70.3388
68.0232
67.2109
2105.16
2836.18
1578.25
1109.57
1114.68
686.419
252.981
119.929
112.86
112.007
100.543
95.9056
90.4526
74.3729
64.7101
96.8713
84.7455
69.4547
61.9976
61.3438
1197.75
1126.16
927.658
1071.9
1103.58
647.181
224.327
106.116
98.1572
82.9338
78.8966
90.5256
96.785
89.019
63.168
150.337
147.565
113.786
81.0771
67.8156
3137.94
1226.71
769.223
982.211
1000.74
895.207
458.262
258.671
176.301
124.462
109.695
111.853
127.864
139.534
207.113
190.593
161.589
115.57
85.0236
70.3728
7453.65
5098.72
1423.91
1015
975.193
874.372
645.203
504.51
353.941
258.861
186.01
145.863
135.902
138.082
139.18
133.926
113.461
90.8976
80.4254
77.18
1510.73
3372.35
1828.71
1336.66
1244.9
1139.06
862.974
701.335
516.867
366.312
251.187
173.605
134.88
117.457
112.065
108.062
103.505
99.9349
100.602
104.281
627.649
2514.64
2172.77
1801.94
1404.75
1146.05
826.71
612.203
440.774
313.641
222.879
165.791
136.96
123.885
118.231
117.017
117.932
122.956
128.058
128.471
1011.49
2002.33
1611.55
1406.4
1122.88
857.149
605.898
433.657
311.215
230.323
176.187
146.913
130.956
122.996
119.045
118.274
118.674
120.845
123.432
122.943
1024.36
2046.31
1500.41
970.564
826.093
742.296
567.176
418.436
296.94
218.188
169.058
144.742
130.664
121.974
115.661
110.678
108.92
106.757
105.534
101.741
559.929
1152.32
1120.58
1008.36
796.829
584.35
406.496
301.372
230.315
188.583
164.222
155.124
148.92
143.149
135.367
127.825
121.986
116.335
114.839
109.926
425.963
427.842
594.42
593.504
475.318
360.692
296.896
262.068
224.705
187.954
155.445
131.18
113.763
100.259
90.7994
81.173
75.1631
68.1129
65.1903
57.9705
10142.8
7131.96
4490.07
2525.12
1384.01
925.643
737.442
662.465
596.883
562.341
507.13
424.82
332.906
260.391
229.327
223.443
216.132
195.657
182.265
153.537
31775.8
12313.2
4530.32
2832.43
1575.02
1406
1262.25
1241.19
1078.03
970.238
838.243
749.891
650.798
579.81
540.118
523.565
511.121
486.871
447.826
419.347
9189.69
7326.57
4026.01
3094.56
2005.03
1907.6
1662.07
1519.24
1158.9
931.635
731.258
630.865
557.846
526.068
508.532
497.314
491.427
480.931
476.568
467.18
4195.26
5727.73
4116.38
2706.9
1836.33
1696.56
1394.29
1215.68
915.147
776.816
647.643
588.013
533.145
504.346
483.968
474.059
470.252
465.349
463.085
453.444
2548.75
5251.32
3668.42
2308.72
1788.65
1633.99
1282.06
1141.25
876.761
783.628
674.854
624.172
558.671
526.746
502.789
490.48
482.342
473.386
468.579
454.516
6375.16
4933.39
3422.46
2317.19
1867.33
1771.95
1433.32
1298.82
1031.36
898.833
749.101
651.366
558.074
505.336
482.349
471.061
463.332
451.921
445.888
430.032
3084.24
5534.58
2950.15
2158.39
1827.86
1626.44
1305.37
1148.06
944.944
802.55
649.798
545.675
466.824
433.635
418.673
409.786
403.944
396.974
393.976
383.794
1411.87
4708.74
3352.77
2445.91
1941.7
1695.4
1326.73
1217.62
974.773
775.298
606.266
483.278
385.956
324.566
329.057
319.482
316.183
314.889
315.379
313.179
13922.4
8374.43
4617.86
2912.55
1977.28
1601.35
1432.07
1142.35
937.922
744.758
581.229
477.506
404.179
312.423
260.682
243.777
233.276
233.401
236.412
239.552
2339.77
5556.7
5741.54
4304.71
2646.01
1571.28
1007.29
821.299
766.848
682.923
575.753
496.749
435.889
347.067
235.644
183.365
174.729
175.963
180.146
190.319
17825.6
8607.02
4573.93
3323.51
3031
2363.55
1371.15
791.817
648.271
595.18
497.758
415.471
361.544
286.974
193.162
213.536
185.695
170.45
169.386
176.556
1497.54
3895.92
3059.47
2895.14
2863.7
2217.12
1348.92
851.26
630.72
514.248
474.963
467.174
440.236
345.317
237.12
366.772
326.954
240.017
200.376
189.605
3485.58
1836.93
1802.71
2483.75
2520.16
2203.36
1517.28
1003.7
667.628
491.889
437.405
439.68
463.813
460.552
480.533
461.186
395.284
272.475
217.377
198.796
18630.6
3487.71
2109.83
2437.18
2434.78
2143.36
1533.6
1192.69
847.136
633.486
469.474
388.071
369.864
370.563
364.987
332.711
275.833
239.486
228.467
223.916
11795.8
7134.1
3636.61
3270.37
2820.07
2477.69
1830.59
1488.12
1090.4
811.854
577.781
431.415
366.745
328.852
313.182
300.059
289.542
285.687
288.938
295.163
12803.1
9010.17
5073.02
4001.42
2984.95
2470.94
1757.15
1339.27
925.464
696.87
523.943
430.642
379.565
353.088
340.466
338.953
342.109
351.059
359.048
362.54
1670.91
5841.19
4082.84
3216.19
2266.96
1863.18
1298.81
998.226
703.353
560.125
451.913
409.35
376.885
360.762
349.97
348.88
351.352
359.953
367.036
366.333
2473.49
4778.35
3696.71
2471.69
1919.52
1745.3
1303.36
987.615
686.783
538.986
438.868
402.5
372.775
355.794
338.585
326.839
323.887
320.729
319.612
313.297
2056.9
2618.87
2231.52
2105.9
1821.35
1403.97
945.88
718.889
533.756
466.326
423.393
417.235
405.783
391.849
369.868
351.43
338.107
326.69
322.296
310.593
823.486
712.437
526.383
599.622
711.362
731.4
701.333
608.083
494.706
413.855
352.748
309.353
275.08
243.801
219.262
195.156
180.353
162.167
153.562
133.912
6971.58
5640.67
3959.68
2108.78
1316.59
1027.01
855.478
726.534
617.246
519.325
429.343
358.895
310.15
281.589
265.937
248.583
228.578
204.504
187.758
162.733
13827.4
9234.16
4851.87
3124.57
2051.7
1904.68
1610
1477.32
1207.02
1122.89
985.319
917.642
836.003
794.758
761.389
737.292
711.463
677.559
636.95
599.114
19980
8229.06
5044.79
3509.67
2607.77
2389.88
1972.4
1709.58
1317.78
1128.16
955.415
879.172
814.658
788.676
770.371
755.479
742.747
722.559
707.891
676.904
7807.07
7488.63
5464.57
3410.66
2587.65
2269.45
1803.33
1524.5
1195.53
1042.77
906.344
840.373
784.393
755.708
735.993
722.728
713.954
698.668
688.014
662.664
6098.09
9169.86
5019.86
3061.76
2535.27
2182.06
1716.11
1472.3
1187.52
1060.94
936.703
867.622
800.479
765.202
738.756
719.399
705.872
688.445
677.378
651.336
8298.93
7324.94
4451.78
2971.1
2534.02
2211.31
1789.66
1563.72
1275.86
1121.52
970.439
872.277
787.898
740.851
708.914
685.815
669.121
650.397
639.16
613.943
3406.95
8713.59
4542.69
2772.59
2444.38
2018.92
1668.42
1420.98
1177.89
1012.85
856.878
759.198
679.196
640.634
612.609
594.93
584.062
572.611
566.124
549.509
18275.3
6849.65
4097.03
3034.01
2535.12
2043.6
1769.37
1562.89
1225.47
981.145
803.349
667.167
565.669
499.211
471.522
461.477
460.664
460.455
460.279
455.569
21781.1
9807.78
5793.29
3748.33
2571.35
2164.07
1915.1
1509.51
1203.5
959.875
776.17
652.829
534.45
430.198
368.152
339.154
337.52
342.736
351.436
358.71
12678.6
8855.34
7573.63
5559.12
3484.15
2201.35
1547.14
1215.48
1074.41
928.884
775.286
650.722
530.186
405.455
301.881
259.162
258.708
267.367
277.576
298.006
11540
9123.03
6816.98
5541.25
4297.18
3107.89
1851.65
1164.23
961.602
867.128
532.213
390.085
364.7
296.34
265.88
302.093
266.182
260.217
263.512
282.502
1244.27
6737.91
5450.48
4645.47
3925.52
3048.76
1931.13
1254.3
915.226
761.678
694.037
645
560.808
411.291
437.53
519.917
396.969
320.954
294.851
292.287
5749.68
3556.31
3833.41
3828.9
3524.53
2814.22
2034.77
1327.73
905.979
708.5
638.083
631.378
638.559
629.057
658.93
619.175
484.381
368.718
322.702
304.509
14164.6
3662.82
4117.99
3654.83
3361.88
2667.14
1869.48
1427.78
1030.64
800.479
639.944
552.892
524.868
512.26
492.779
442.888
391.75
358.576
344.831
333.243
11676.6
7451.91
4958.11
4102.7
3519.25
2861.78
2097.63
1648.89
1213.75
951.727
750.132
620.75
541.041
490.473
466.619
446.204
434.13
426.064
425.542
420.314
17722.5
9783.61
5880.88
4480.11
3462.93
2747.3
1996.14
1541.04
1133.96
916.201
747.82
655.731
590.954
552.489
530.157
521.097
520.765
520.72
519.117
507.173
15850.5
9641.54
5518.9
4024.23
3065.72
2466.85
1781.68
1390.67
1031.08
856.471
720.086
658.083
608.204
581.253
563.691
554.406
551.628
547.418
543.037
526.113
2531.32
6872.82
5381.12
3689.09
2922.3
2467.39
1803.97
1398.37
1038.85
865.997
731.591
667.329
610.119
575.762
547.467
529.563
521.462
510.09
503.705
487.246
14877.1
6128.83
3764.55
3007.93
2373.86
1930.8
1370.99
1105.56
868.507
786.204
703.017
663.121
610.343
573.401
536.331
510.22
491.435
474.859
465.628
450.767
1542.49
1804.43
1427.77
1129.07
1038.61
981.827
860.887
720.583
586.553
484.766
410.734
356.604
312.421
274.286
242.587
215.318
193.34
174.685
162.67
142.211
3852.47
3748.59
2527.21
1567.78
1234.6
1013.72
835.431
669.85
541.996
440.259
376.928
337.545
312.434
291.065
268.954
242.533
217.763
196.167
180.267
167.081
11071.3
8206.74
5237.62
3201.71
2619.52
2193.03
1786.3
1536.95
1306.99
1229.08
1125.62
1081.06
1027.29
998.791
969.229
938.792
904.877
863.072
824.224
788.9
15657.9
9310.32
6019.11
3798.36
3233.11
2601.34
2170.79
1746.8
1446.44
1268.19
1150.77
1087.41
1049.14
1029.17
1015.91
996.496
978.029
948.472
926.097
885.791
4388.14
8177.95
6735.26
3986.79
3272.95
2544.15
2090.5
1661.8
1394.4
1217.45
1112.81
1045.48
1008.62
984.018
971.46
955.498
942.761
919.807
903.534
869.237
19069.6
14947.3
6595.42
3716.94
3168.5
2418.77
2005.74
1618.08
1398.75
1233.96
1134.71
1057.15
1009.64
976.297
956.572
934.524
919.75
897.116
881.551
848.608
21292.8
9761.02
5388.01
3542.8
3086.02
2378.11
2041.85
1674.58
1436.32
1258.57
1136.1
1044.54
982.371
941.264
912.826
886.917
867.82
845.958
831.002
802.132
14457.4
13969.6
5610.1
3430.08
2953.9
2240.78
1912.97
1557.15
1326.75
1147.59
1015.41
927.277
863.105
827.527
798.53
779.549
768.349
755.71
746.884
727.746
12005.2
8438.41
4971.6
3703.94
3035.87
2269
1978.25
1706.56
1341.62
1101.75
936.293
808.684
720.977
665.817
634.36
625.746
626.917
627.898
626.898
620.903
15018.7
8339.24
6707.68
4358.67
3045.43
2457.59
2145.37
1672.68
1323.32
1078.44
893.366
756.909
636.324
555.372
508.93
480.918
481.577
491.253
501.376
513.396
11147.7
10666.7
9825.37
6417.32
3999.7
2528.21
1867.51
1478.35
1280.7
1084.67
886.459
712.761
570.455
477.392
423.878
399.014
398.194
408.76
422.159
450.381
16869.5
12161.1
8759.65
6527.54
4806.78
3314.04
2064.55
1435.61
1212.23
1054.72
753.662
539.782
392.885
372.271
425.717
430.688
399.995
400.828
409.807
438.908
21593.2
16953.8
8934.56
6153.6
4600.86
3367.07
2208.16
1483.52
1123.13
959.042
866.274
779.825
662.177
580.615
683.289
621.41
499.105
449.735
436.745
440.246
10497.6
6065.3
5972
4914.24
4290.34
3095.66
2253.29
1474.22
1073.77
884.517
815.816
809.21
816.876
821.905
819.954
708.11
574.295
497.813
463.831
448.654
19649
5805.08
5689.92
4448.89
4057.91
2888.97
2043.89
1540.51
1166.02
947.507
804.66
719.538
688.44
659.364
629.857
576.355
536.486
507.626
492.337
475.783
15315.6
7519.17
6024.69
4585.91
4053.66
2952.91
2238.81
1713.82
1335.93
1099.65
928.674
805.111
728.486
673.264
648.526
625.069
613.642
600.732
594.249
574.041
12889.8
8784.91
6430.64
4642.33
3882.43
2849.87
2190.12
1672.85
1335.98
1122.39
978.315
883.981
821.034
777.507
755.029
742.513
737.653
725.278
713.439
680.614
18234.5
9936.71
6369.16
4431.33
3777.02
2786.07
2131.42
1630.09
1306.52
1117.82
992.113
918.358
865.667
831.46
812.045
796.392
787.443
768.611
753.753
716.941
14167.8
11522
6675.84
4505.32
3773.82
2857.95
2161.47
1659.91
1343.75
1162.45
1030.74
944.154
875.782
829.062
797.193
774.051
760.859
740.173
726.961
698.048
16375.9
8778.5
5469.79
3851.71
3150.29
2376.42
1753.74
1424.41
1193.89
1103.83
997.838
922.904
841.711
786.507
739.693
707.736
685.48
666.194
655.441
641.174
3621.24
2402.55
2158.74
1631.33
1312.92
1086.67
892.814
724.104
587.048
485.487
411.564
352.769
304.176
263.088
230.052
203.392
183.903
168.078
155.221
145.898
3218.53
2348.7
1809.95
1393.72
1180.17
931.874
708.707
533.922
426.153
366.546
333.135
307.019
282.744
254.242
227.396
204.491
188.816
178.636
169.601
169.515
13626.9
8428.06
6413.12
3626.88
3662.92
2421.82
2216.48
1607.92
1562.4
1358.53
1340.07
1249.85
1241.88
1194.66
1178.11
1129.23
1101.33
1054.62
1030.75
994.706
8979.18
10137.5
7148
4313.78
4111.75
2822.91
2565.35
1824.82
1700.7
1428.56
1396.55
1300.35
1301.59
1266.88
1263.74
1230.69
1212.83
1171.38
1149.84
1104.17
17090.7
10249.3
7735.56
4541
4196.93
2865.92
2556.93
1829.39
1686.33
1413.6
1365.99
1267.74
1260.05
1225.94
1222.1
1195.97
1181.27
1148.91
1129.73
1089.63
12984.1
11294.3
7303.09
4465.25
4042.96
2760.05
2430.59
1814.66
1682.84
1430.62
1377.64
1267.4
1250.52
1207.04
1197.61
1167.47
1153.55
1123.56
1104.09
1066.17
30405.9
11824.8
6690.02
4439.7
3882.06
2752.14
2469.93
1867.34
1684.11
1439.25
1352.81
1244.91
1209.24
1163.71
1143.52
1113.34
1093.93
1068.9
1048.87
1018.32
32326.1
11334.3
6120.33
4363.44
3694.7
2679.81
2304.5
1831.04
1562.74
1339.91
1232.12
1128.27
1089.91
1047.99
1022.31
1001.67
992.733
977.691
964.711
943.906
11998.7
9179.9
6066.85
4589.87
3713.94
2775.41
2250.63
1863.96
1499.41
1258.72
1105.62
988.805
923.749
884.997
872.765
855.263
851.56
851.506
845.89
837.769
11727
9245.93
7966.42
5187.03
3544.12
2738
2392.39
1814.8
1458.8
1209.22
1026.79
898.308
823.617
783.615
760.051
716.942
712.222
718.851
727.679
738.781
33713.8
17909
13643.1
6642.24
4403.41
2742.52
2144.11
1746
1496.31
1211.24
953.149
765.751
724.37
718.986
694.52
643.882
635.696
644.688
659.315
687.616
23142.2
12880.2
10888
6607.19
5155.19
3331.63
2263.71
1731.51
1479.74
1198.45
915.542
662.896
610.435
681.084
701.884
650.686
631.815
638.555
653.661
684.675
31427.5
12587.6
11032.9
6598.15
5256.01
3490.25
2428.13
1700.88
1369.64
1173.92
1040.28
931.016
892.399
902.605
924.594
763.536
690.132
671.294
670.095
677.53
9289.63
8011.38
7951.8
5761.46
5237.45
3338.4
2462.09
1628.14
1292.8
1111.72
1059.45
1054.81
1072.56
1073.41
962.938
816.511
744.581
711.532
692.364
680.088
15073.7
8830.86
6835
5413.05
4960.35
3123.68
2349.88
1712.44
1359.97
1147.15
1023.16
935.321
904.34
855.416
822.515
776.891
757.22
735.005
718.703
695.255
19076.9
8456.95
7076.24
5198.41
4752.82
3087.81
2520.2
1807.22
1536.72
1278.18
1145.95
1022.07
965.682
912.558
894.242
870.79
861.544
841.709
824.451
782.65
21235.1
9501.32
7219.79
5164.32
4540.42
3038.35
2520.62
1806.07
1597.65
1327.82
1246.33
1129.95
1095.57
1045.81
1037.57
1020.34
1009.44
977.267
951.243
893.702
29738
13246.9
7542.99
5181.16
4618.62
3026.86
2561.44
1782.81
1621.71
1352.42
1298
1190.03
1165.47
1116.79
1106.59
1080.57
1065.5
1028.02
1000.19
942.082
16869.3
13597.7
9072.22
5154.9
4756.94
3083.65
2586.95
1810.87
1680.56
1410.14
1354.36
1218.51
1182.6
1115.08
1099.45
1066.77
1052.02
1017.14
994.317
952.047
9030.25
10118.6
7518.96
4490.8
4183
2598.92
2255.42
1618.76
1576.81
1387.24
1336.36
1184.36
1124.35
1038.44
1008.04
968.778
952.402
927.945
914.987
896.008
838.902
2392.05
2424.73
1815.5
1403.57
1027.18
798.889
619.395
500.943
409.943
343.152
283.203
239.686
205.568
183.302
167.666
157.249
148.793
144.817
144.966
813.768
882.511
615.676
1051.91
912.021
1022.39
735.647
678.603
545.492
435.87
865.538
740.579
648.851
519.303
603.395
782.769
718.491
1019.14
726.728
935.661
853.994
416.375
699.856
647.263
648.901
519.62
828.247
748.438
186.775
183.089
126.891
1180.97
1034.13
857.57
752.427
166.504
127.489
135.931
986.712
876.522
730.432
696.738
159.802
140.217
141.669
827.087
700.15
687.904
637.946
126.561
139.058
122.038
659.465
544.423
616.332
539.917
90.7553
115.513
93.4037
509.054
427.167
512.373
445.013
75.4778
90.4058
90.3893
410.24
369.554
433.285
403.558
62.536
90.0045
78.9269
351.891
290.902
387.57
328.783
37.7869
75.5168
54.4189
270.324
230.076
309.918
246.77
117.481
201.115
117.141
794.953
702.858
948.471
716.48
135.043
115.834
120.757
689.125
669.307
661.653
591.17
135.29
122.803
123.578
661.414
616.386
583.502
555.037
117.308
121.503
108.206
596.275
528.046
538.88
476.839
91.5847
102.748
94.95
502.223
442.83
451.65
395.583
93.7535
94.8066
94.1838
432.959
405.423
384.506
357.737
83.3885
92.8575
82.8605
390.672
335.168
347.472
307.984
56.0057
78.9626
43.3934
315.411
249.236
286.286
203.152
127.479
251.51
112.098
1115.78
738.738
1136.27
737.234
113.573
104.918
99.1577
665.93
563.389
668.728
551.168
112.58
96.9462
83.597
551.101
525.121
522.669
456.466
103.37
80.8395
82.2777
512.876
461.688
443.455
420.932
96.2503
85.3131
92.1209
441.347
391.544
416.981
410.655
93.153
94.9499
97.051
379.71
346.489
408.98
390.775
80.5287
95.8974
88.2111
334.533
292.037
377.962
316.482
41.1951
80.17
36.6119
267.123
187.455
281.819
173.115
114.206
331.706
159.656
1093.87
771.538
1195.56
934.398
100.4
145.269
114.631
704.709
570.778
840.86
608.855
86.9917
108.584
82.9772
534.492
451.751
546.107
429.697
78.2432
79.4385
70.5472
435.382
407.991
401.192
366.356
86.9018
71.0708
72.5138
404.293
404.807
363.925
369.83
96.7925
74.3442
84.7454
406.883
401.668
376.102
393.487
93.1582
87.8844
95.5074
393.481
345.918
396.88
394.361
40.3329
95.9643
87.7139
318.762
185.3
388.028
344.439
1199.21
1085.41
899.923
1830.01
1514.36
1535.24
1235.17
1000.89
868.541
814.323
1444.05
1240.83
1183.73
1078.58
788.773
798.06
729.239
1156.58
968.684
1043.71
930.902
619.24
702.741
614.863
918.412
778.617
893.332
780.064
495.496
584.674
513.02
737.151
643.27
744.351
655.682
425.942
498.557
454.867
618.649
537.601
631.116
550.394
334.132
434.521
365.871
508.343
425.494
520.14
428.846
263.145
343.209
266.357
403.423
356.051
399.59
322.356
845.675
1195.96
858.211
1436.69
1179.79
1608.79
1172.93
780.675
789.069
693.424
1133.32
1039.95
1085.84
946.586
707.04
680.903
639.368
1010.53
912.3
921.156
844.146
604.017
621.164
541.108
878.267
771.603
824.208
636.139
510.138
509.079
437.709
735.81
647.818
578.033
467.009
454.984
423.152
390.051
623.698
545.326
448.947
421.72
370.299
378.796
333.34
515.985
425.707
412.043
355.545
268.07
308.797
220.825
395.662
317.286
330.252
262.671
879.694
1399.07
894.148
1771.27
1189.75
1851.21
1242.41
664.669
808.687
655.482
1084.86
919.259
1127.64
904.375
610.096
619.792
542.199
891.803
818.118
853.922
749.691
525.419
526.453
494.054
799.274
621.527
726.504
669.12
431.313
486.728
470.742
565.239
451.679
653.002
609.218
374.719
465.722
436.511
426.285
385.866
593.628
529.22
313.523
419.673
342.394
374.741
321.888
498.185
377.195
204.439
304.41
196.916
299.052
246.469
335.062
278.105
934.384
1510.47
1119.5
1824.23
1291.81
2024.42
1482.63
676.221
1000.39
718.263
1175.15
917.336
1312.54
939.637
532.908
645.118
509.679
854.954
731.045
852.667
693.282
480.745
479.538
440.553
707.003
657.377
660.869
613.631
468.27
436.055
437.149
645.845
616.794
604.82
594.719
452.1
441.588
453.06
606.88
560.554
595.26
591.65
377.724
453.971
442.524
536.748
434.335
587.12
555.502
212.44
433.422
375.403
393.683
309.155
542.014
498.359
1583.6
1644.84
1320.5
2096.72
1727.73
1894.51
1525.25
1291.92
1264.33
1145.04
1641.52
1391.96
1458.32
1302.93
1010.49
1105.34
981.729
1300.01
1103.96
1252.11
1103.15
818.254
941.394
821.38
1053.17
910.557
1055.23
915.703
679.459
783.737
687.989
868.021
763.978
871.968
754.338
564.792
659.952
569.247
732.845
637.25
717.523
609.38
451.279
536.852
442.025
607.949
534.95
575.923
489.545
382.167
412.808
338.041
517.926
477.135
466.367
409.59
1267.17
1700.3
1254.57
1799.87
1481.81
1900.86
1463.07
1108.27
1165.83
1018.58
1419.59
1278.57
1374.82
1213.13
965.774
989.497
900.677
1234.22
1097.62
1174.58
1060.25
922.798
891.984
912.782
974.368
877.358
934.859
960.927
737.882
739.747
745.427
809.985
706.994
771.719
779.63
561.974
425.944
418.188
702.337
592.298
493.129
432.454
435.541
409.915
353.105
558.514
472.097
412.167
366.859
330.507
330.67
272.769
448.85
395.3
358.924
338.148
1269.97
1942.68
1328.57
2022.7
1474.31
2134.9
1530.6
992.47
1208.67
971.928
1371.97
1191.78
1404
1148.5
876.253
918.515
808.033
1152.28
1041.7
1091.06
966.706
839.929
800.777
831.666
911.413
792.649
742.685
886.206
634.236
482.881
647.628
419.511
608.631
377.541
676.615
373.685
628.157
551.406
480.434
396.137
718.969
608.934
314.428
515.465
384.508
370.342
332.311
564.224
453.352
258.073
345.073
310.469
331.835
336.014
441.55
477.71
1378.14
2138.71
1561.55
2155.32
1572.3
2371.4
1711.86
980.279
1380.98
994.129
1435.42
1140.07
1515.11
1123.74
787.14
905.948
745.241
1073.47
940.625
1039.46
884.876
707.478
712.954
663.492
911.549
844.377
853.699
799.697
657.855
653.044
639.544
825.58
768.653
787.257
768.868
588.457
639.253
631.236
747.603
665.557
766.714
752.381
450.192
625.45
590.098
631.664
535.849
745.585
714.941
346.061
577.088
540.971
520.094
530.68
709.274
708.988
1764.15
1958.23
1582.59
2312.18
1874.36
2138.63
1759.56
1414.95
1512.76
1346.83
1764.29
1491.13
1680.98
1484.86
1129.32
1293.17
1136.25
1406.69
1215.65
1423.11
1233.42
935.729
1085.4
938.567
1160.93
1018.51
1169.99
995.727
788.433
892.789
769.065
978.354
875.663
944.096
810.208
663.622
730.592
623.131
845.936
775.815
774.24
703.995
570.301
592.042
516.514
758.358
719.977
691.033
663.24
516.641
497.051
446.966
710.041
681.674
654.471
624.812
1543.19
1953.53
1525.36
2061.54
1732.8
2112.87
1722.36
1328.29
1438.72
1274.25
1662.01
1485.38
1642.39
1468.62
1134.22
1232.52
1102.66
1427.34
1237.39
1413.1
1227.12
935.519
1062.1
833.224
1172.34
988.911
1160.57
952.663
753.431
751.945
583.734
932.432
782.821
878.998
683.9
601.896
543.292
449.411
742.552
669.169
630.974
540.532
496.202
426.423
393.727
659.548
641.709
540.404
572.984
431.072
391.39
379.205
635.191
610.463
580.25
579.007
1535.38
2178.89
1585.25
2197.88
1729.45
2310.35
1750.13
1254.78
1458.95
1203.33
1639.86
1455.4
1629.9
1383.96
1086.49
1145.58
1016.51
1399.72
1218.33
1324.77
1170.01
828.649
982.933
894.325
1156.14
955.786
1124.76
1006.97
586.608
866.186
777.863
885.811
693.495
970.46
858.395
421.502
745.48
629.846
637.846
532.934
821.626
735.293
367.794
587.424
503.523
531.308
571.222
722.529
725.048
381.595
501.051
542.525
582.811
589.486
734.114
750.304
1621.85
2424.8
1743.24
2357.69
1765.87
2570.18
1819.85
1188.76
1544.93
1162.23
1629.78
1352.25
1628.9
1293.44
989.755
1080.67
930.672
1291.14
1148.06
1223.9
1086.58
886.974
899.75
845.165
1109.4
1015.79
1056.3
1002.44
803.092
832.662
814.311
988.857
908.714
991.606
975.651
694.276
812.132
798.065
883.001
822.512
973.594
968.489
587.071
792.176
767.735
811.55
804.338
967.595
964.229
599.22
765.333
768.488
809.507
816.425
964.805
956.391
1931.91
2215.97
1841.53
2920.72
2435.88
2753.01
2383.31
1540.32
1759.53
1552.92
2282.25
2019.83
2293.09
2069.42
1266.2
1487.84
1280.68
1932.15
1747.1
1996.55
1733.74
1066.28
1211.09
1024.71
1673.89
1553.36
1647.33
1431.41
926.211
971.149
837.657
1511.88
1435.6
1374.33
1261.97
837.594
806.177
761.929
1408.4
1382.46
1257.95
1339.26
792.325
757.171
742.661
1372.96
1360.72
1351.74
1355.68
753.697
736.401
706.331
1350.36
1285.25
1353.04
1296.2
1819.15
2185.15
1811.38
2663.8
2368.53
2691.57
2363.28
1559.48
1733.53
1553.81
2292.22
2086.57
2292.93
2096.45
1283.88
1491.13
1276.5
2006.48
1726
2009.16
1713.63
1012.46
1200.85
981.155
1632.31
1389.95
1609.31
1333.34
801.625
906.847
706.163
1323.73
1184.18
1249.38
1035.78
722.495
654.986
599.054
1177.46
1285.77
1015.54
1153.76
723.014
614.105
668.198
1326.31
1344.86
1240.92
1324.02
692.586
675.202
665.948
1343.27
1284.23
1326.03
1259.95
1818.04
2375.53
1827.75
2736.84
2370.53
2865.48
2356.99
1542.49
1710.01
1466.69
2293.04
2089.58
2249.12
2016.67
1270.28
1405.18
1234.46
2002.38
1713.57
1943.19
1717.17
986.841
1182.96
1051.33
1612.55
1345.91
1647.78
1477.17
716.838
1011.31
892.006
1263.58
1046.99
1427.7
1299.25
596.274
856.776
800.854
1023.71
1158.15
1285.22
1383.13
671.058
802.416
822.083
1245.84
1331.87
1428.38
1452.54
676.484
829.766
824.809
1333.96
1270.47
1451.25
1375.07
1835.29
2638.27
1865.23
2912.58
2346.59
3130.02
2310.72
1430.28
1677.27
1360.21
2218.89
1969.35
2131.01
1852.49
1217.28
1294.37
1159.82
1912.47
1715.49
1804.32
1684.97
1069.94
1128.57
1074.89
1659.09
1530.28
1652.85
1602.66
955.292
1064.45
1049.28
1495.41
1409.59
1602.71
1594.48
894.076
1047.21
1045.96
1404.04
1489.51
1596.33
1607.4
898.178
1046.44
1046.22
1504.62
1512.29
1611.07
1609.34
892.254
1045.8
1020.82
1509.31
1442.49
1602.5
1503.32
877.096
853.524
789.194
851.167
835.115
893.719
826.977
905.592
895.102
823.147
930.05
857.611
944.942
802.03
828.89
727.06
712.82
498.186
794.615
749.84
620.396
964.082
1015.26
1006.36
1044.57
972.972
1004.91
1000.18
915.967
884.021
959.815
893.886
929.236
862.476
949.686
949.427
971.018
1034.47
957.516
991.18
836.6
988.26
873.536
532.485
843.511
849.993
791.053
656.205
920.985
701.592
707.775
646.662
703.818
674.379
736.657
669.791
642.98
669.767
484.031
427.822
626.153
688.057
368.83
602.318
568.901
448.317
385.836
590.606
581.682
361.527
766.689
840.129
821.72
840.509
799.095
811.904
791.922
726.317
724.247
780.467
707.052
760.823
689.752
747.974
676.086
458.309
775.437
588.371
725.862
404.849
720.076
631.247
409.126
635.672
552.262
604.31
390.673
673.202
778.944
692.662
690.657
488.266
739.217
589.149
724.254
830.742
805.131
760.051
835.971
778.581
859.651
811.441
798.414
720.361
738.56
765.735
749.415
766.168
787.985
896.16
957.774
953.121
987.58
796.375
940.021
947.72
833.42
526.881
829.394
831.242
632.715
775.186
889.599
881.621
886.891
961.3
907.562
912.159
860.696
928.692
847.028
811.137
855.135
880.48
812.113
835.483
892.246
599.46
437.802
538.848
351.293
575.352
345.476
554.048
706.391
692.93
682.185
744.676
667.009
735.625
724.383
678.476
616.249
665.2
683.081
642.513
648.11
704.355
677.846
458.324
591.983
777.308
417.887
723.682
727.331
636.787
393.467
546.436
630.656
383.315
587.452
679.961
745.983
787.708
819.023
802.623
778.689
764.75
782.899
714.107
716.888
709.829
776.356
680.002
741.567
747.053
310.715
412.832
353.038
757.141
859.658
793.861
901.894
289.32
326.26
312.412
872.178
805.553
886.732
843.975
238.619
293.227
266.745
716.846
661.848
759.22
686.746
195.073
232.472
200.678
583.2
497.78
604.546
529.215
143.962
170.955
148.337
432.18
386.74
458.069
403.952
111.838
133.362
121.226
336.351
288.419
366.65
330.636
82.5863
107.109
90.5775
253.082
227.354
288.442
248.892
63.0366
82.3101
60.634
208.849
224.144
210.387
214.406
415.127
363.84
308.875
956.814
1020.7
823.651
854.675
468.333
249.554
269.05
525.965
546.335
465.21
216.937
416.181
157.095
146.91
526.972
508.863
422.86
138.907
441.4
170.03
153.706
497.501
479.504
441.785
157.792
374.212
143.854
148.322
395.276
367.172
397.284
139.524
285.277
108.124
114.671
287.786
268.098
305.97
106.964
224.558
80.2091
84.6626
218.752
209.914
231.35
81.6944
206.189
70.5817
78.2167
187.682
179.205
213.042
76.4761
162.596
54.7679
63.7143
143.049
135.433
168.623
60.7409
66.0753
89.9117
60.1532
187.194
196.429
188.216
179.35
289.081
473.782
352.82
890.559
785.317
1053.38
936.395
319.602
123.49
159.052
301.621
320.164
303.994
125.453
355.168
127.277
117.449
358.802
367.363
345.055
123.712
369.998
137.939
135.979
378.869
378.1
370.952
136.267
328.483
126.934
127.111
354.315
341.731
341.474
122.352
263.197
102.63
104.559
293.658
275.059
279.403
97.5765
247.469
90.4738
90.48
248.193
248.116
246.131
91.0864
238.336
92.2521
94.7675
246.624
238.47
245.707
93.5321
193.393
75.4598
80.8188
201.424
193.165
202.428
76.415
61.3921
78.1263
49.5053
179.386
169.673
159.433
142.44
485.102
724.321
495.716
1281.79
1180.03
1305.29
1203.71
406.444
179.565
251.925
448.412
411.021
446.653
173.319
314.39
116.212
110.641
341.583
328.215
324.526
108.502
273.954
112.707
101.104
309.419
307.35
284.237
97.9025
267.31
110.184
98.3774
298.647
291.32
267.667
99.0824
253.445
98.3612
96.8412
265.114
258.159
256.74
96.1585
243.027
95.3724
96.0718
244.22
240.544
246.203
95.8766
216.882
87.3387
91.2353
222.827
215.197
224.799
88.2463
146.549
63.9372
73.0249
177.839
158.372
171.974
60.1096
41.9375
56.4593
56.2713
138.149
134.03
138.605
163.713
436.202
633.873
523.298
1253.39
1142.93
1243.62
1174.29
432.987
160.801
238.043
420.736
398.33
440.763
179.84
342.7
102.787
119.474
330.428
318.138
364.934
110.987
269.399
93.966
98.3255
284.967
268.641
288.057
92.997
225.905
79.659
84.1983
234.547
226.046
235.391
80.0288
208.896
80.9558
74.5546
220.01
222.136
208.797
74.7372
234.133
93.6672
83.0219
239.952
245.126
225.911
86.8946
246.628
96.2848
95.9203
247.441
243.794
247.142
96.164
217.789
77.0998
94.0053
216.076
183.549
232.547
89.9923
53.2741
102.152
71.5344
154.674
182.673
226.088
237.628
333.292
466.173
320.994
878.374
825.006
894.214
846.37
212.168
265.817
234.477
695.252
570.717
720.172
593.688
145.578
188.587
149.407
471.629
399.616
481.172
409.593
113.604
132.058
118.537
335.832
310.904
327.324
293.286
109.697
109.295
100.083
299.63
301.323
254.393
247.031
117.61
100.361
100.154
309.382
325.193
240.854
244.667
136.516