/*--------------------------------*- C++ -*----------------------------------*\
  =========                 |
  \\      /  F ield         | OpenFOAM: The Open Source CFD Toolbox
   \\    /   O peration     | Website:  https://openfoam.org
    \\  /    A nd           | Version:  10
     \\/     M anipulation  |
\*---------------------------------------------------------------------------*/
FoamFile
{
    format      ascii;
    class       volScalarField;
    location    "8.9";
    object      omega_0;
}
// * * * * * * * * * * * * * * * * * * * * * * * * * * * * * * * * * * * * * //

dimensions      [0 0 -1 0 0 0 0];

internalField   nonuniform List<scalar> 
12920
(
343.873
268.473
224.314
179.332
142.243
110.219
90.5912
82.3696
78.0463
75.0428
71.5968
69.141
67.3619
63.5092
54.9006
48.4643
46.6536
45.2678
44.3127
41.1577
331.468
281.79
203.191
168.785
135.221
113.545
103.52
100.556
94.0028
87.3355
79.6169
73.3806
67.7325
62.8651
59.1179
56.7964
55.4997
53.5897
51.1849
49.3237
194.433
226.941
188.694
163.748
132.058
118.813
110.892
107.784
98.4527
85.2863
73.3407
66.3584
61.4541
58.7133
56.893
55.4902
54.5645
53.8165
53.5344
53.4832
246.861
216.559
174.478
145.359
122.445
114.345
105.03
96.9249
84.1343
75.2085
68.1444
63.9805
60.5326
58.2052
56.5408
55.4368
54.8791
54.4845
54.3306
53.9387
167.007
187.502
161.809
132.407
116.377
110.497
100.624
92.9851
82.4909
75.4371
69.5871
65.6652
61.8045
59.3573
57.8515
56.9119
56.4517
55.8495
55.5601
54.7482
209.988
195.288
160.221
135.828
120.607
115.708
104.798
99.1949
89.6964
82.0631
74.3216
67.7639
61.9299
58.1978
56.6142
55.8891
55.6432
55.0973
54.7424
53.7508
128.854
184.992
150.161
133.581
119.956
112.429
101.278
93.826
85.9131
77.9821
69.6222
62.8624
57.4998
54.8667
53.7312
52.9538
52.6835
52.1728
51.9314
51.1359
117.117
180.418
165.157
142.783
125.351
117.466
178.196
154.031
145.277
130.64
115.598
100.625
87.9848
78.5648
50.9972
49.5414
48.6496
47.7513
47.4811
46.7733
251.482
218.194
183.068
149.336
125.924
183.004
325.284
230.246
233.499
218.869
192.317
163.348
152.119
136.294
80.4412
46.5963
44.0654
42.4681
42.0887
41.3377
148.573
188.531
204.622
172.823
139.445
174.594
223.667
196.53
208.903
204.326
187.36
169.571
172.577
158.798
83.5591
41.3257
38.6455
37.3705
36.747
36.5207
210.411
237.276
174.897
148.274
148.991
233.856
283.731
195.072
189.561
188.889
178.875
174.754
169.676
153.712
71.6484
43.8737
41.0105
37.118
35.0734
34.8896
153.453
148.289
135.711
146.349
148.338
226.999
267.304
183.257
176.464
162.223
158.478
169.843
175.545
168.289
70.7853
54.6906
54.1577
47.4901
40.0909
36.677
252.994
150.514
123.616
140.195
141.261
133.404
190.961
143.293
118.266
99.4121
93.3791
94.324
100.886
105.346
64.1488
61.5317
56.6128
47.8538
41.0514
37.3605
400.864
319.229
166.031
142.224
139.416
131.88
113.223
100.049
83.7858
71.6126
60.7163
53.7845
51.9456
52.3614
52.5659
51.5551
47.4227
42.4518
39.9421
39.1349
198.219
264.249
188.588
163.187
157.658
150.606
130.999
118.024
101.268
85.2002
70.5419
58.6542
51.7185
48.2766
47.1603
46.3074
45.3191
44.5387
44.6916
45.5025
115.353
225.512
208.024
189.487
167.325
150.953
128.146
110.218
93.5067
78.8492
66.4575
57.3273
52.1215
49.5813
48.4425
48.1957
48.3879
49.4132
50.4217
50.5004
142.084
198.754
179.136
167.419
149.542
130.493
109.639
92.7357
78.5546
67.5732
59.1037
53.9777
50.97
49.4021
48.608
48.4528
48.5354
48.9799
49.4973
49.3956
149.332
203.156
171.795
138.598
128.231
121.521
106.12
91.1047
76.7268
65.7648
57.8994
53.5828
50.9151
49.1926
47.9043
46.8632
46.4909
46.0257
45.7598
44.9253
106.104
151.047
149.279
141.818
125.85
107.611
89.7545
77.302
67.5956
61.1745
57.1033
55.506
54.3806
53.3096
51.833
50.3641
49.1989
48.0469
47.7358
46.7007
90.9679
92.4216
109.027
108.763
97.0311
84.5714
76.7611
72.129
66.7826
61.0625
55.5266
51.012
47.5105
44.6045
42.4491
40.1345
38.6213
36.767
35.9697
33.9156
176.914
150.701
119.724
89.4304
66.1463
54.1961
48.4385
45.9146
43.5795
42.2891
40.1319
36.6976
32.4702
28.7265
26.9918
26.6496
26.2029
24.9206
24.052
22.0731
527.315
234.851
128.599
100.976
82.4935
70.2546
62.8246
58.013
53.5908
50.3421
47.9743
45.7666
42.9253
39.6704
36.8812
35.0042
33.9887
33.617
33.1802
31.0541
212.965
149.461
102.748
90.8235
77.6455
70.4758
62.5709
58.0513
51.3002
44.5053
38.3843
34.9021
33.427
32.4798
31.9036
31.5373
31.4353
31.3259
31.0393
29.7347
158.593
125.6
90.3392
78.8795
72.5561
64.4535
56.1411
49.6786
43.3931
38.4995
34.5381
31.6967
30.0394
28.9831
28.4989
28.102
28.1111
28.0927
28.0142
27.7375
157.959
126.282
82.6587
70.9281
64.4468
61.2151
56.5353
51.0216
45.8798
41.0656
37.3724
34.161
32.2305
30.6424
29.6035
28.6753
28.158
27.7474
27.6146
27.337
224.033
113.426
80.2078
70.3796
63.9542
62.6385
57.74
53.616
47.9248
43.6476
40.2812
37.479
35.092
32.3458
29.8713
28.0297
27.1993
26.7846
26.6662
26.4412
139.043
113.548
75.9947
65.2133
59.0264
56.9346
51.9855
48.6974
43.4686
40.3127
37.4155
35.14
32.3106
29.632
27.428
26.0114
25.4462
25.1872
25.1471
25.0771
134.861
140.204
88.1947
67.6971
58.415
57.7742
61.9526
56.5387
50.2102
44.6332
40.3106
37.6132
34.6562
30.0079
24.0284
23.0213
22.6951
22.5798
22.5961
22.6767
393.572
201.127
104.792
75.7676
59.2052
61.9972
65.6438
59.0758
47.8112
43.2196
40.3686
38.2399
37.0087
32.5522
25.4352
20.7319
20.2263
20.0526
20.0531
20.1332
163.054
158.064
133.564
97.7034
70.3355
60.9252
53.6969
45.3259
41.1681
39.9469
39.7664
37.2236
34.1191
33.2601
28.3306
20.1048
19.152
18.6318
18.256
18.2091
434.659
220.168
159.408
127.233
98.6423
84.6349
66.5926
46.4
38.928
37.4776
35.9379
35.593
34.3138
33.4871
26.878
23.0322
21.2279
19.3852
18.2187
17.9662
140.527
139.502
124.862
108.738
85.5712
78.1483
59.7234
45.3394
39.6783
36.574
34.519
31.9581
31.1853
31.8494
30.5383
28.7161
27.8393
24.216
20.4651
18.8937
174.064
140.879
110.289
89.8389
74.2531
62.1496
60.6241
49.4457
40.1541
34.478
31.9247
31.1179
31.1485
31.2114
31.5667
33.3556
33.405
30.5515
23.9317
19.9056
414.131
204.494
119.252
87.0974
70.9854
62.3524
52.4559
47.557
41.5575
36.9666
31.9473
27.8897
26.3502
26.75
28.6356
29.2509
28.1656
24.1728
20.961
19.6796
274.078
174.159
112.2
88.415
74.3686
68.283
59.9139
55.886
51.2959
46.3429
40.4381
33.0422
27.1659
24.26
23.4193
22.8895
22.3803
21.9431
21.8398
22.2485
323.394
189.57
114.157
94.7101
80.9769
72.8685
64.0296
57.5938
52.2782
45.2436
38.775
32.2807
28.1567
25.7451
24.6175
23.9552
23.7856
23.9293
24.3399
25.3032
193.945
146.562
117.706
98.9123
87.9611
73.4004
62.8215
53.4534
46.2786
39.4118
34.1568
30.1061
27.8234
26.5143
26.0115
25.6926
25.4579
25.449
25.5542
26.0215
131.941
123.686
105.967
89.9647
81.2347
69.4516
60.2978
51.5863
45.0768
39.0875
34.4286
30.712
28.1666
26.4715
25.5948
25.1059
24.8826
24.7945
24.702
24.7312
171.048
111.839
98.3974
90.8517
73.3361
59.478
52.2551
46.8539
42.5105
38.585
35.2411
32.3035
29.8091
27.9468
26.6092
25.6553
24.9937
24.5364
24.193
24.0026
51.014
47.0421
40.622
43.686
47.6129
48.2641
47.2469
43.9449
39.6351
36.252
33.4729
31.3478
29.5579
27.8244
26.3852
24.8918
23.9294
22.6899
22.078
20.6154
148.614
133.62
112.38
81.744
64.6288
57.154
52.1686
48.0616
44.2881
40.6016
36.907
33.7425
31.3728
29.9041
29.0651
28.0954
26.9358
25.4755
24.4085
22.7235
235.054
153.702
98.3149
77.9229
63.7027
57.9583
50.6393
47.8568
43.6146
42.2664
39.7932
38.2428
36.2672
34.9249
33.7235
32.7466
31.9972
31.1818
30.4092
28.8258
304.732
128.63
89.352
72.7181
62.6941
57.6178
50.5019
46.6356
40.6047
36.9004
33.3466
31.7692
30.7452
30.3482
30.1117
29.9252
29.7508
29.3509
28.9266
27.9028
211.412
125.801
88.0456
67.3478
59.3286
53.2176
46.1034
41.5073
36.2486
33.0341
30.2076
28.6951
27.7611
27.3434
27.1857
27.0955
27.0819
26.9665
26.8199
26.4503
183.817
154.996
79.3979
60.2456
55.2226
51.2484
45.7299
41.4668
37.045
34.0302
31.4971
29.7445
28.4891
27.6621
27.1121
26.7
26.4952
26.2695
26.1516
25.872
190.365
121.661
73.6104
57.6345
53.6628
51.159
46.2065
42.7567
38.3844
35.6564
33.185
31.2311
29.424
27.933
26.7447
25.9243
25.5293
25.2778
25.1756
24.976
135.522
146.156
75.2144
53.8136
50.4298
46.4344
42.5405
39.3641
35.9167
33.521
31.3403
29.4589
27.5263
26.0542
24.9644
24.2896
24.0115
23.89
23.8719
23.8265
430.23
124.338
74.1585
56.9831
50.311
46.1657
45.9153
43.7746
38.7759
35.0143
32.2426
30.0833
27.4772
24.9
23.5781
22.6529
22.23
22.0826
22.0648
22.1016
361.947
200.732
114.324
70.2445
50.9711
49.1358
49.1938
44.2156
38.6246
35.3747
33.0057
31.1982
28.6762
25.2703
22.6348
21.9142
20.9731
20.5586
20.4282
20.4773
370.107
234.704
156.938
101.126
65.4462
48.5464
42.1083
37.4608
35.6078
34.3659
33.9602
31.7838
28.7581
26.3764
22.9035
22.0132
20.7214
19.9833
19.598
19.5964
194.157
181.37
152.272
120.04
88.0488
66.2146
47.2541
36.5786
33.9456
32.5943
72.8139
64.4983
42.6799
32.4923
26.5342
25.1215
22.3621
20.7131
19.8231
19.6541
160.171
183.493
139.315
104.775
77.121
60.7065
45.384
37.3618
33.3972
31.4953
30.0686
28.9916
28.9654
30.2542
30.9342
30.8887
26.539
22.6856
20.5815
19.7731
297.958
141.112
101.489
80.6444
64.3572
52.8425
45.6581
38.2546
32.2152
29.0471
27.9191
28.2543
28.9529
29.4313
31.8748
31.8345
30.087
25.0318
21.6068
19.9131
278.055
127.567
94.0424
69.759
59.4066
51.4603
43.1548
39.2181
33.9914
29.9851
26.7142
24.7364
24.419
24.8653
25.6601
25.4292
23.8531
21.7098
20.5287
20.0056
179.664
136.51
94.2167
72.7711
61.7596
54.83
48.0088
44.1209
39.2334
34.8209
30.5778
26.7212
24.1475
22.8898
22.5366
22.2696
22.0695
21.9118
21.9376
22.1379
251.313
150.738
94.5543
74.0942
63.4733
55.9785
49.1648
44.2096
39.1708
34.5781
30.5821
27.5401
25.5755
24.45
23.9432
23.8043
23.849
24.0495
24.3438
24.5825
438.187
175.341
102.197
79.7398
66.4998
56.1591
47.9045
42.0965
36.7062
32.7808
29.5889
27.5842
26.3329
25.6605
25.3779
25.2947
25.2968
25.3393
25.3892
25.4087
103.745
128.651
110.611
83.2416
67.0696
56.5106
47.9911
42.3262
37.4004
33.9682
30.9522
28.7935
27.2071
26.2009
25.6469
25.3819
25.2953
25.2276
25.1878
25.0927
346.385
131.344
102.421
82.3988
64.6289
53.8635
45.683
41.3462
37.4859
35.2179
32.889
31.0736
29.3643
28.2234
27.3273
26.7289
26.323
26.0588
25.8001
25.5729
63.9083
75.1656
67.1053
59.8907
57.5098
55.9052
52.3262
47.8495
43.1609
39.2346
36.1157
33.6515
31.4955
29.5082
27.7489
26.1414
24.7702
23.5456
22.7187
21.2427
110.554
108.754
89.5776
70.6038
62.6854
56.7974
51.5468
46.1364
41.4835
37.3847
34.5939
32.7413
31.5025
30.4053
29.2233
27.7455
26.2877
24.9491
23.9167
23.0259
163.362
126.849
91.6238
67.1964
62.144
54.2979
49.5278
46.4479
43.801
42.9306
41.4566
40.8583
39.9915
39.6843
39.3021
38.8715
38.2947
37.442
36.7513
36.0435
210.044
127.665
89.0326
65.2662
61.2009
52.704
48.6695
43.8045
40.3086
37.8638
36.4607
35.8272
35.6901
35.8121
35.9417
35.9213
35.7831
35.3498
34.9968
34.4297
114.577
124.136
97.337
64.5028
58.7634
49.434
45.4726
40.0254
37.0807
34.5353
33.3801
32.7121
32.7092
32.8422
33.1119
33.2665
33.3387
33.25
33.1367
32.8887
271.108
221.433
95.448
59.4902
55.5555
47.2556
44.2663
39.1381
37.0809
34.6391
33.6259
32.659
32.3785
32.2174
32.2633
32.2963
32.3628
32.3209
32.2576
32.1034
297.085
138.956
76.7873
56.3828
53.7133
46.4351
44.4554
39.8686
37.6455
35.4667
34.2066
32.9931
32.2733
31.7824
31.5613
31.3917
31.3408
31.2803
31.2418
31.2138
227.078
193.017
82.0917
55.2135
51.5362
43.9172
42.1395
37.7175
36.1321
33.8315
32.9105
31.6501
31.1327
30.6916
30.3548
30.0978
30.0842
30.1358
30.2184
30.3359
193.167
127.623
78.3165
59.3632
52.0589
44.1889
43.217
41.109
37.2528
34.8131
33.161
31.9061
30.7866
30.2433
32.2047
30.2452
29.3891
29.2088
29.2057
29.3056
244.724
151.006
115.395
71.1985
52.3574
46.8229
45.8285
42.3739
38.8059
36.9733
35.0352
33.7633
32.3132
31.7225
33.5061
32.3976
29.802
28.9817
28.7986
28.8858
218.473
204.292
171.37
102.624
65.3648
47.0451
41.5538
39.5042
39.221
37.9641
36.7345
34.4408
33.105
33.2118
35.4645
33.5791
30.5478
29.5293
29.2976
29.3231
242.157
200.936
142.448
103.367
76.7346
58.2736
43.9464
39.1673
38.6962
37.9233
56.8811
49.6239
40.6312
37.6561
38.365
34.8501
31.2813
30.1626
29.8207
29.7792
427.079
307.263
158.413
99.2836
71.4362
56.0894
44.4613
39.6947
37.2642
36.3624
35.7853
35.8328
37.3573
39.5925
41.3975
37.3811
32.4215
30.262
29.5353
29.3971
275.588
137.863
103.018
74.9499
63.7029
51.0234
44.6652
38.0604
34.3148
32.9553
33.2217
35.0529
36.6731
37.7125
38.7948
35.8079
32.3255
30.089
29.3307
29.0784
339.762
110.985
86.6262
64.7582
59.9022
49.0188
43.2621
38.9109
35.128
31.9188
30.3655
29.5188
29.7761
29.9654
30.098
29.7546
29.2453
29.0397
28.9905
28.8406
220.581
119.371
89.2092
65.7995
60.5609
50.8225
46.8833
42.4849
38.8704
35.5228
32.8493
30.5348
29.6514
29.32
29.5007
29.7547
30.0868
30.2185
30.3337
30.2089
180.258
120.834
86.18
65.104
60.3876
51.0667
47.4594
42.5269
39.4326
36.42
34.314
32.8064
32.0235
31.6628
31.7035
32.0461
32.4397
32.5814
32.6312
32.3817
277.93
135.244
93.1157
69.084
62.9804
51.9559
47.4991
42.1833
39.0956
36.7579
35.268
34.3807
33.9135
33.6876
33.6814
33.8048
33.9596
33.9817
33.9091
33.4898
233.539
180.106
111.467
77.5006
66.0244
54.5138
48.8914
44.0162
41.1691
39.1714
37.6697
36.5034
35.8064
35.2738
35.0786
34.9965
34.9785
34.8774
34.6995
34.3046
268.535
149.695
104.653
77.8769
66.6013
55.8775
49.543
45.8938
43.2734
42.0852
40.7829
39.7071
38.7201
38.0509
37.5999
37.2669
37.0452
36.8376
36.566
36.3431
101.355
86.943
82.7431
72.0069
64.6066
58.7785
53.2731
47.9651
43.1787
39.2636
36.1494
33.4652
31.0717
28.8945
27.0179
25.4038
24.1562
23.0934
22.1923
21.5186
101.069
86.3656
75.8211
66.6539
61.2957
54.4537
47.4537
41.1793
36.782
34.1164
32.5252
31.2241
29.9607
28.4056
26.8589
25.4689
24.4721
23.8041
23.1927
23.1866
178.978
122.972
110.606
70.4105
82.5691
59.4981
67.6838
55.0278
59.1288
53.0669
54.9352
52.3826
53.6824
53.1219
54.0168
53.4825
53.4054
52.5193
52.3032
51.5266
139.072
131.471
98.9091
67.8375
73.8554
55.1237
60.1742
48.6586
51.2909
46.0009
47.91
46.0835
47.7836
47.6413
48.7425
48.6099
48.916
48.4768
48.4387
47.8337
294.333
149.433
105.224
67.2104
71.5053
53.1149
57.0687
45.7869
47.9095
43.0097
44.6629
43.1895
44.7176
44.6838
45.7914
45.8864
46.331
46.2326
46.3059
46.0274
201.329
164.391
100.748
66.6426
68.5496
51.1831
54.1111
44.2956
46.6102
42.2874
44.0649
42.4846
43.9027
43.6886
44.6474
44.7125
45.221
45.197
45.3028
45.0794
343.955
159.748
92.2644
66.2854
66.2498
51.6208
54.82
45.085
46.2105
42.7894
43.6409
42.5361
43.3324
43.293
43.8597
43.9186
44.158
44.2221
44.2824
44.2297
384.232
152.139
86.842
68.3895
64.814
51.1046
51.4855
44.2729
44.4252
41.3688
42.6848
41.6481
42.8622
42.7182
42.9114
42.835
43.1616
43.3591
43.5704
43.6812
183.138
131.216
89.4851
71.8721
64.5754
52.8483
50.0447
46.0429
44.3948
42.4947
43.1451
43.1145
44.2488
44.5295
45.8522
43.4428
42.8052
42.9204
42.9707
43.1346
185.598
145.689
118.618
77.006
60.9119
51.9539
53.8433
51.0109
49.6869
49.1811
48.9769
49.2589
50.1618
50.7232
50.5955
45.616
43.3754
42.9835
43
43.1023
409.359
248.895
185.448
92.992
71.0679
52.0208
50.932
53.8424
54.4967
52.6913
51.3023
51.6594
54.0204
54.532
52.6801
46.2882
43.8445
43.4576
43.3804
43.3911
273.872
181.275
146.648
88.871
77.4807
58.2477
53.1463
55.6025
55.8652
53.3252
53.0763
52.7217
56.6954
56.3741
53.2923
46.8651
44.4756
44.0684
43.956
43.9188
475.697
197.481
149.09
87.166
76.7126
58.4187
54.7458
54.662
54.4227
54.0357
54.4571
55.6628
57.4957
57.3514
55.1022
48.767
45.7226
44.6277
44.1333
43.8299
187.138
140.102
111.268
74.3264
74.5802
55.4315
52.9413
46.7701
46.9144
46.8665
49.0329
50.7871
52.7963
53.2325
51.2945
47.3611
45.8448
45.2483
44.6843
43.9968
235.881
134.477
90.9581
71.1257
72.2541
53.3189
54.1786
46.3582
45.2391
42.4087
42.8167
42.3566
43.4312
43.44
43.8713
43.9277
44.2917
44.3234
44.2657
43.8645
244.349
120.019
92.85
67.4941
70.2231
53.6033
57.1669
48.9685
49.0127
45.3483
44.8081
43.2095
43.5229
43.3181
43.8864
44.225
44.9652
45.3655
45.6016
45.2715
248.376
114.892
88.5698
68.0235
70.3307
55.002
58.2282
49.635
51.0447
47.0913
47.6557
46.0405
46.4934
46.0529
46.7599
47.1733
47.8448
47.957
47.9699
47.4912
322.557
168.333
99.5218
71.9789
73.9206
56.0106
60.2418
50.6154
52.9491
48.9382
50.0868
48.5779
49.1955
48.7463
49.2438
49.325
49.7084
49.6725
49.531
48.8841
200.548
184.063
130.118
77.3979
78.9853
59.239
62.4376
53.0719
55.7968
51.9174
53.2816
51.4346
51.9012
51.0376
51.3359
51.1355
51.3035
51.0821
50.8587
50.2481
174.763
159.292
121.515
79.4846
86.6505
64.445
69.6446
58.9608
62.2816
57.9818
59.4616
57.2324
57.4321
56.1016
55.9291
55.2018
55.0581
54.6032
54.2982
53.8023
52.1413
87.1052
87.7776
76.0263
66.7697
57.1416
50.3739
44.3552
39.881
36.072
32.998
29.9733
27.5721
25.5338
24.1115
23.0608
22.333
21.7244
21.4337
21.4451
34.046
33.858
71.5366
36.296
35.6656
36.9293
83.0112
32.5747
72.1599
62.661
35.4246
33.7528
81.9628
63.0278
71.9241
31.9318
30.7086
36.0098
83.4137
34.6156
33.9309
68.7303
30.3614
29.8536
82.0805
68.0208
33.8073
33.7026
243.844
242.645
200.946
77.6282
68.1041
66.0471
56.4209
230.442
201.285
207.874
66.2619
55.8885
54.2758
48.6853
225.499
211.144
212.212
53.0642
48.936
47.2144
45.3141
200.82
210.234
196.929
48.3705
46.2905
45.1702
44.9448
169.918
191.564
172.255
45.3467
42.9351
44.7928
42.8759
155.073
169.547
169.588
42.6045
42.0107
41.8489
39.3775
141.085
169.222
158.424
41.7645
39.0359
38.839
37.4147
109.434
155.012
131.312
37.4294
30.9699
37.0359
36.121
193.276
252.601
192.727
62.1201
52.7464
74.6188
57.4423
207.196
191.761
196.037
50.4433
46.4194
52.0725
44.0111
207.357
197.722
198.349
45.597
44.4758
43.4254
42.495
193.111
196.647
185.491
44.4599
44.5559
42.0836
40.4335
170.638
180.763
173.886
44.4956
42.5975
40.1347
39.0367
172.745
173.766
173.189
41.461
38.5483
38.5847
37.2129
162.844
171.935
162.399
38.0511
37.4065
36.8909
36.8829
133.237
158.486
117.174
37.4058
36.8328
36.968
33.6486
201.098
283.057
188.455
80.5878
58.3993
78.0842
54.3063
190.056
182.384
177.38
52.4775
43.6576
50.0414
44.1262
189.388
175.42
162.916
43.0962
42.3902
43.3159
42.1499
181.37
160.303
161.923
41.7727
39.5339
41.9564
39.3585
175.067
164.872
171.308
38.9915
37.8937
38.2319
35.9178
172.212
173.915
175.782
37.6227
36.8128
35.465
34.9801
160.054
174.72
167.504
36.5612
36.5732
34.9699
35.3286
114.218
159.557
107.622
36.5674
33.0594
36.0929
35.0064
190.092
324.683
224.786
71.2889
54.1535
79.4997
62.676
178.422
214.005
190.53
50.7878
45.327
58.4502
51.1539
166.156
185.167
162.28
44.0953
40.8262
48.4652
42.1708
157.764
158.584
149.786
40.5327
39.3501
40.7547
39.2161
166.407
150.148
151.92
38.5792
36.2264
38.9448
37.2391
175.555
153.649
164.289
35.6691
34.8957
36.7951
35.588
172.191
167.154
174.397
34.84
34.9669
35.3197
34.7297
112.948
174.746
166.888
35.3838
35.4514
34.6228
34.4195
60.7429
57.2783
50.0381
51.8035
47.4694
46.2191
40.8983
50.4618
48.3706
43.8537
46.2597
41.5837
39.9252
37.5597
43.8942
42.616
40.8144
39.8201
36.8148
36.8775
35.5174
41.1678
40.6294
40.2882
36.2316
34.429
35.2315
34.4582
38.5305
40.1057
38.4021
33.8143
32.3867
34.144
32.5811
37.4454
37.5423
35.2835
32.0275
30.4342
31.9038
29.8484
34.0295
34.7142
33.287
29.6783
26.8091
29.2098
27.4184
27.7466
32.9406
31.9398
25.8232
22.9895
26.8001
23.9995
47.1643
62.7019
50.3685
43.6249
39.2761
47.7318
39.683
41.905
46.1709
39.7571
38.2953
36.4342
37.6857
34.7702
40.0433
39.2322
38.2085
35.9775
34.9792
34.4676
33.5218
39.8607
37.7367
36.8874
34.7338
34.3959
33.5387
46.0776
38.1746
36.8832
36.5835
34.3018
32.9759
47.4503
47.598
34.6451
36.3041
34.8384
32.2124
29.9011
46.2432
38.7853
33.3295
34.3111
33.7051
29.2686
27.7174
36.4235
31.6622
32.5959
33.5423
30.3613
27.182
24.226
30.1874
25.0891
51.0141
64.0654
47.7555
50.1159
39.8428
49.0816
39.0754
39.4213
44.5777
39.8308
37.5987
34.4139
37.3942
34.4295
38.1358
39.0376
37.8102
34.1483
33.3853
33.772
32.6005
36.0973
37.5472
35.1803
32.8797
45.464
32.2263
30.7146
35.7034
34.2367
32.2702
47.1177
49.1654
30.2465
29.421
34.715
31.8876
31.5014
48.6225
41.5914
29.3409
29.4788
33.7124
31.5258
32.0784
39.1916
33.6797
29.7926
30.8407
29.876
32.5358
32.0657
31.9951
25.9449
30.868
29.9433
47.8248
64.3418
54.6352
47.2129
39.5887
50.576
43.4905
40.8718
51.3018
44.4736
38.1457
34.859
41.2773
35.6638
36.8464
42.116
37.0085
33.8841
32.0392
34.0215
31.0173
35.229
35.9032
34.645
31.7431
30.5581
30.4232
29.5992
32.4523
34.3544
33.0699
30.1086
28.9528
29.3773
28.8406
31.2247
32.7459
31.8262
28.7002
28.412
28.7655
28.4844
31.4397
31.6116
31.1753
28.4761
29.2893
28.4139
28.2985
32.2792
31.1207
31.6141
29.5664
29.6587
28.3173
28.8254
45.319
44.5958
39.6173
45.9074
42.7898
42.9517
39.2296
40.2176
38.7996
36.9178
41.9626
39.1787
38.8624
38.1111
35.9263
36.3554
35.1034
38.0414
36.2555
37.8079
36.8422
33.6166
34.7868
33.8818
35.8157
34.2217
36.4429
35.1569
31.6019
33.5275
31.9361
33.6945
32.5161
34.6987
33.0848
29.4431
31.2698
29.2195
32.1063
30.6076
32.4932
30.9475
26.0957
28.5777
26.7163
30.1067
28.9565
30.5592
29.6153
22.9569
26.0624
23.4485
28.659
28.1204
29.392
29.1149
38.2473
45.2032
38.2565
40.9829
38.4548
42.4111
38.2119
35.9924
36.6933
34.5007
38.1681
37.7017
37.5856
36.9243
34.6524
34.2537
33.435
37.519
36.6972
36.8225
36.2391
34.5092
34.137
33.8893
34.5069
34.0187
34.2573
34.1671
37.2922
33.6996
36.1494
34.0868
36.132
33.7848
37.3881
29.4172
57.101
41.8537
32.9701
31.0646
55.1439
41.0205
27.0112
38.3946
31.8492
30.6545
29.6889
38.5295
33.71
23.5812
29.9922
24.935
29.4495
29.1882
32.5625
31.3021
38.3527
46.6564
38.0818
43.8749
38.2758
44.2292
38.6891
34.164
36.6573
34.0389
37.5285
36.7224
37.8647
36.2059
33.2336
33.4359
32.3125
36.6256
36.0527
35.8185
34.9531
41.7322
54.0645
32.7739
39.1552
35.8161
230.578
33.3368
50.1074
72.0311
41.3363
186.847
42.0432
173.088
49.5639
46.5637
29.8532
30.1344
60.1852
44.1717
33.7394
34.4158
34.7296
30.5552
31.8076
41.4862
36.0651
35.0834
36.7438
26.1181
31.8138
30.52
34.763
32.6765
36.8524
36.8547
38.6466
48.5297
42.0129
43.9402
39.184
46.6234
40.9006
34.2919
39.8579
34.4907
38.2672
35.9431
38.8672
34.4142
31.7837
33.0018
30.5077
35.3676
34.4343
33.428
32.2594
30.4363
30.0372
29.3605
34.2224
33.5803
32.1327
32.0606
29.173
29.2099
28.8981
33.4339
33.1765
32.1282
32.7071
28.8469
28.8983
28.8255
33.1818
33.6287
32.9919
33.6666
29.9696
28.8076
28.7956
34.0655
35.6575
33.8794
34.3401
30.3197
28.8414
29.3562
36.1432
36.878
34.569
35.3164
43.1814
43.3142
40.2321
50.1523
48.4201
48.0361
48.0342
39.7928
40.0185
39.5678
47.4419
45.4835
48.2308
48.4643
37.3788
39.3395
38.4566
45.2717
44.9249
48.455
47.5714
35.4927
38.0255
36.6327
44.5742
43.834
47.023
45.726
34.1079
36.1674
34.6917
43.8494
43.9707
45.4653
45.2436
32.6352
34.2112
33.2512
43.8922
44.2675
45.4047
46.6765
31.8244
33.1024
32.9904
44.4977
45.1459
47.1054
47.8878
31.4974
33.065
33.2655
45.151
44.9395
47.9479
47.858
39.6333
42.6938
39.5334
46.9884
47.9828
48.0771
48.8446
39.3418
39.1695
38.9012
48.349
48.9446
49.221
49.8924
38.4145
38.8326
38.0182
48.9581
47.7138
49.6559
48.0115
37.0461
38.2312
56.6771
47.1144
45.7149
47.3118
48.1705
35.12
56.914
50.8222
45.4124
44.8471
48.2867
47.0782
33.2211
47.372
39.9166
44.9851
46.6927
46.535
48.309
33.0945
38.611
36.361
47.3506
48.3085
49.3245
50.2282
33.4367
35.9462
35.4416
48.3813
48.2146
50.1031
49.3787
39.6326
44.4873
40.085
49.0792
49.2083
49.9753
49.4704
38.7701
39.4527
38.1468
49.5156
50.0271
49.4473
49.2647
37.8955
37.8486
37.0531
49.7725
48.1006
49.2073
48.0075
56.4401
36.7249
36.0658
47.4302
48.3319
47.6168
47.1281
52.9085
35.978
35.9164
48.512
47.6114
47.1589
47.5254
41.9591
35.9622
37.0731
47.1717
49.1759
47.9766
50.4577
38.1651
37.8826
39.7156
50.2174
50.9193
51.2648
51.9445
36.5284
39.9331
39.8777
50.6922
49.6893
51.8025
50.8323
40.4807
46.882
41.5303
50.4258
49.3126
51.7301
47.3077
37.7106
39.5295
35.5083
49.013
48.3994
45.6432
43.7931
36.5555
34.748
34.067
48.3876
47.9126
43.9831
44.7748
35.8602
34.0246
34.196
47.6499
47.6128
44.8819
45.7916
35.7489
34.3616
35.3252
47.7834
48.5578
46.2876
47.8918
36.7627
35.7139
36.6421
49.028
50.8768
48.284
49.492
39.1453
36.9396
37.5575
51.4292
52.0109
49.8556
50.4202
40.0062
37.8197
38.2234
51.9667
51.3745
50.4532
50.0523
52.0552
51.8063
53.2071
76.0013
75.2167
75.2297
79.773
49.5184
53.44
53.7432
73.7758
76.0028
80.2025
82.032
49.4864
53.7699
52.941
76.9236
77.6484
82.6738
86.4457
48.7793
52.4736
51.5183
77.4933
80.3756
87.6973
90.6232
49.2742
51.3866
51.5321
81.0806
82.2547
91.2105
91.6394
49.8446
51.7869
53.1402
82.3316
84.0058
91.3195
89.7253
50.7187
53.5295
53.9993
84.3266
84.96
89.4812
89.1229
50.0819
54.042
53.422
84.9578
82.5664
89.1628
87.3566
53.4042
52.1071
54.6648
74.1889
80.6007
75.6173
82.7963
54.4841
55.189
55.9234
81.197
83.3067
83.6908
86.4053
53.2605
55.6687
53.8762
84.3209
89.7285
88.3574
97.4166
51.4952
53.1261
52.746
91.3606
94.4324
100.29
104.431
51.2802
52.7627
52.0615
94.9934
95.143
104.876
103.639
53.4295
52.1991
55.1436
94.5695
91.6721
102.168
96.5718
54.5125
56.0216
56.2649
90.8296
89.8165
94.5036
91.2138
53.7545
56.0167
54.5531
89.7345
87.485
90.8266
87.3365
55.1699
54.1681
55.2718
76.8157
83.8217
78.7244
83.7416
56.1317
55.3604
55.3126
84.4806
86.8069
84.066
85.2754
54.0423
55.2706
54.2434
88.7014
97.7841
86.2153
91.8181
53.0322
53.8588
53.6413
100.738
104.782
93.6296
96.8089
52.5418
53.7484
54.3342
105.201
104.227
97.4125
98.0302
55.8368
54.8593
56.8927
102.661
96.9102
97.4458
93.8401
56.7082
57.4407
57.3566
94.7548
91.2453
92.6024
90.5325
54.7358
57.1022
55.5106
90.7873
87.5495
90.1932
87.3247
54.8331
55.6388
51.3943
79.3549
82.7361
79.6948
75.7296
54.371
49.9721
49.2071
82.8621
84.006
75.2635
77.4927
54.2213
49.612
50.4591
84.6633
88.8549
78.8917
80.123
54.2511
50.5295
51.5796
90.3216
93.2021
80.6264
83.1051
55.2699
52.1187
53.6376
93.8946
94.8447
84.1855
85.6639
57.1438
53.9695
55.1115
94.5752
92.2731
86.1135
87.734
57.5215
55.4566
55.8611
91.8266
90.6019
88.4161
88.5691
56.1476
55.8455
54.7895
90.4068
88.6157
88.7888
85.8479
35.6067
34.055
35.6765
34.1908
34.6261
34.1913
36.9635
40.9286
33.7405
51.0224
39.2382
35.8279
34.4638
178.536
51.5089
44.437
66.2151
205.077
40.7027
56.0357
226.738
35.3091
35.1487
35.947
36.1313
34.8608
34.9175
36.3021
36.5116
34.7386
35.7713
38.213
34.7699
37.8828
37.1154
42.5996
40.952
36.3698
58.977
35.3797
185.595
39.2464
53.7965
212.897
49.7599
78.0046
58.5757
234.127
45.5509
36.9939
33.2212
35.1586
32.5816
35.9133
33.2763
35.8544
54.712
45.788
72.3136
189.963
45.7669
55.7838
174.506
53.6875
43.6636
69.8667
88.7753
45.4553
48.1065
119.571
38.0371
34.5801
35.0223
38.4236
34.2203
38.1958
38.2425
37.5981
32.9549
34.4691
36.5136
33.682
36.291
37.6991
56.5436
197.435
50.2402
80.1608
57.8087
183.611
49.6889
54.9887
89.3047
45.2728
73.8107
48.7136
126.508
48.5443
46.8259
68.0074
40.4438
201.685
38.8014
216.569
48.795
32.8801
32.206
31.5226
32.2279
32.1838
32.5508
31.8807
33.3284
32.3207
31.1068
31.2613
32.2776
33.5732
31.5594
43.5038
40.9749
61.4367
35.7244
226.278
34.3861
39.74
49.2829
208.857
79.8597
46.1024
223.889
51.3993
44.005
33.9188
33.1207
34.9767
34.3316
33.4907
32.8205
35.183
34.5047
32.3441
35.9647
34.1104
34.8527
32.5687
35.6261
50.5104
74.6419
44.8569
113.505
43.2962
156.825
52.3297
33.8587
32.3258
30.0965
31.0143
32.3931
33.7012
30.838
34.133
33.0852
29.9168
30.7391
32.6031
34.7441
30.7333
52.4593
194.707
79.3714
46.9618
181.678
52.1549
47.3787
52.5761
107.262
78.0421
47.7922
156.441
52.8971
47.996
35.2327
32.1694
36.1731
33.7308
35.0502
32.0536
36.3395
35.5029
32.0126
36.8489
33.691
35.9988
31.9931
36.561
157.37
181.644
167.483
98.355
77.6563
94.1926
79.8248
151.722
160.95
157.522
72.4402
71.2373
71.5247
67.7047
137.715
152.586
145.514
67.4406
62.6211
63.5304
61.6196
124.533
135.838
126.19
59.7001
57.6879
58.9157
55.7725
106.927
116.459
108.496
54.1605
50.8177
52.5533
50.653
94.2514
102.9
98.1016
49.3777
48.2095
49.5795
48.8311
80.9895
92.1992
84.769
46.2659
42.6657
47.8189
45.7558
70.7275
80.8481
69.2956
40.663
34.6832
43.2604
33.9121
182.189
170.546
156.841
93.9482
87.7816
91.4545
79.5605
135.534
282.815
294.087
159.28
131.573
160.528
263.716
96.2443
223.625
216.169
98.7987
92.3405
102.528
210.26
82.9864
232.667
221.081
85.0785
83.8774
84.226
223.978
78.8602
214.015
216.973
82.9685
82.7455
80.3469
210.46
71.5766
185.539
190.815
78.9766
76.4587
73.9371
184.263
67.5218
159.812
163.998
70.2583
69.6998
68.0691
161.151
66.815
149.936
157.751
68.9053
68.2219
67.1793
155.943
57.855
132.021
142.367
63.0997
59.8958
61.4851
138.939
72.44
84.4774
69.0369
34.4723
28.5605
38.9641
30.416
151.402
193.577
166.889
97.5756
74.895
109.036
87.8803
104.232
198.313
225.339
127.61
102.989
128.772
199.754
76.9959
201.163
193.216
80.3615
78.7152
79.0798
198.36
75.6153
209.386
207.935
76.7546
76.2744
75.8766
208.142
75.171
200.891
201.008
75.9703
76.076
75.2385
197.225
72.4875
180.548
182.262
75.912
75.0514
74.0741
176.061
66.014
169.669
169.689
69.322
67.5504
67.5801
170.285
64.1186
171.325
173.686
64.8901
64.5575
64.3383
172.532
63.7429
154.94
160.365
63.4182
63.3002
63.7673
155.913
69.7634
78.7119
62.6186
40.8029
31.5887
37.8704
27.9534
195.934
240.649
198.205
127.83
99.2341
129.146
100.315
135.07
238.748
283.15
165.788
132.142
169.642
234.56
75.4917
192.084
187.425
83.298
76.9565
81.4904
185.643
71.5083
189.491
179.298
71.3731
71.4819
70.9842
176.543
70.0599
187.284
177.13
71.2046
70.2578
71.3817
177.695
64.7184
176.937
175.584
66.7398
65.5552
65.8984
174.968
62.8091
174.27
174.902
63.4322
63.0627
63.0304
174.728
61.2229
166.745
170.417
61.7462
61.5265
61.5645
167.61
60.8164
142.414
152.263
60.9389
60.2215
61.3186
138.036
57.636
66.9773
66.9019
34.4909
25.7206
34.9085
25.5055
185.86
224.456
203.455
122.882
89.7724
119.981
96.7931
126.417
225.931
275.08
155.854
122.052
156.874
238.744
81.4592
180.426
194.289
81.8419
76.6067
86.9304
187.354
70.8097
172.705
176.59
70.5223
69.7821
73.0591
171.813
63.5809
159.061
163.51
65.7747
65.8844
63.7988
159.409
65.3956
160.595
154.035
65.2378
64.4783
65.5324
154.235
62.294
172.746
162.667
62.5456
62.5411
62.8311
166.402
62.5347
175.08
174.769
62.6528
62.6032
62.4372
174.981
62.4158
156.37
172.983
62.56
64.4132
62.1766
169.193
65.1496
89.9725
75.3496
39.076
28.04
39.3125
34.5694
162.741
192.693
159.721
105.308
81.9615
106.917
79.1604
129.751
145.099
136.334
68.272
60.0611
66.5754
64.3454
107.489
122.258
108.896
54.1635
49.8943
59.1582
52.471
94.9966
102.316
96.973
46.1219
43.7357
49.4332
48.2709
93.3924
93.1369
89.1818
42.2023
40.9619
45.289
42.5447