/*--------------------------------*- C++ -*----------------------------------*\
  =========                 |
  \\      /  F ield         | OpenFOAM: The Open Source CFD Toolbox
   \\    /   O peration     | Website:  https://openfoam.org
    \\  /    A nd           | Version:  10
     \\/     M anipulation  |
\*---------------------------------------------------------------------------*/
FoamFile
{
    format      ascii;
    class       volScalarField;
    location    "8.9";
    object      omega;
}
// * * * * * * * * * * * * * * * * * * * * * * * * * * * * * * * * * * * * * //

dimensions      [0 0 -1 0 0 0 0];

internalField   nonuniform List<scalar> 
12920
(
341.618
268.613
223.7
179.328
142.37
110.36
90.5986
82.2808
77.9339
74.9551
71.5082
69.0253
67.2545
63.4995
54.9607
48.467
46.6182
45.2328
44.2834
41.1448
319.458
280.668
202.722
168.35
135.011
113.43
103.36
100.412
93.9145
87.3009
79.6162
73.401
67.7396
62.8683
59.1121
56.78
55.4867
53.5893
51.1868
49.3164
195.698
227.695
188.418
163.53
131.931
118.732
110.741
107.653
98.3726
85.3007
73.3535
66.3713
61.4527
58.7045
56.8877
55.4864
54.5616
53.8089
53.5214
53.4694
240.835
215.432
174.498
145.112
122.206
114.138
104.863
96.8401
84.0898
75.1975
68.1218
63.9613
60.5143
58.19
56.5268
55.4244
54.8663
54.4703
54.3165
53.9249
169.389
187.392
161.995
132.241
116.198
110.333
100.478
92.8955
82.4324
75.3967
69.553
65.6431
61.7856
59.3392
57.8312
56.8925
56.4321
55.8308
55.5424
54.7326
210.307
194.508
159.729
135.447
120.343
115.493
104.624
99.0908
89.61
82.022
74.2941
67.7537
61.9205
58.1815
56.592
55.8677
55.6223
55.0775
54.7245
53.7353
123.909
185.909
150.282
133.317
119.806
112.282
101.148
93.7142
85.8468
77.9342
69.5926
62.8422
57.4767
54.8385
53.702
52.9285
52.6591
52.1508
51.912
51.1197
118.426
180.06
164.636
142.489
125.144
117.272
177.509
153.897
145.112
130.54
115.537
100.591
87.9587
78.5212
50.9525
49.5049
48.6194
47.726
47.4588
46.756
248.709
220.302
183.328
149.166
125.786
182.16
323.289
230.246
233.207
218.662
192.132
163.228
151.917
136.16
80.3741
46.5546
44.0312
42.4399
42.0648
41.3208
151.927
188.776
204.637
172.996
139.715
174.607
222.834
196.309
208.686
204.128
187.226
169.339
172.315
158.576
83.5611
41.2987
38.62
37.3468
36.7269
36.5069
204.314
237.15
176.906
148.331
148.672
233.335
283.309
195.064
189.229
188.528
178.637
174.445
169.405
153.611
71.6426
43.8281
40.9934
37.1113
35.0625
34.8771
154.113
149.436
135.628
145.792
147.93
226.568
266.782
183.488
176.472
162.213
158.217
169.474
175.235
168.057
70.7838
54.5996
54.0937
47.5007
40.0963
36.6708
249.447
155.965
123.504
139.559
140.869
133.235
190.652
143.238
118.253
99.3583
93.2781
94.1912
100.707
105.202
64.0854
61.4764
56.6059
47.8715
41.0606
37.3558
384.45
317.97
168.034
141.869
139.06
131.675
113.111
100.021
83.7762
71.6455
60.7328
53.781
51.912
52.3268
52.5344
51.5333
47.4329
42.4553
39.9349
39.1208
173.081
258.596
190.427
162.804
157.117
150.289
130.814
117.928
101.238
85.2277
70.5755
58.6728
51.7164
48.2609
47.1401
46.2905
45.3039
44.5158
44.6641
45.4735
111.561
223.302
207.569
189.028
166.899
150.75
128.036
110.18
93.4896
78.8627
66.4798
57.3372
52.1137
49.5637
48.4196
48.1703
48.3583
49.3776
50.3917
50.4729
141.624
199.261
178.763
166.997
149.218
130.372
109.611
92.7317
78.5572
67.5809
59.1075
53.9742
50.9587
49.3856
48.5861
48.4284
48.5101
48.9519
49.4731
49.375
142.522
201.438
172.488
138.729
127.988
121.323
106.051
91.0899
76.7344
65.7766
57.8993
53.5739
50.9018
49.1801
47.8906
46.8474
46.4739
46.0101
45.7458
44.9164
105.371
151.162
149.066
141.405
125.701
107.645
89.7808
77.3049
67.5798
61.1514
57.0651
55.4619
54.3416
53.2782
51.8099
50.3458
49.1824
48.0299
47.72
46.6881
91.9055
92.108
108.568
108.484
97.084
84.5715
76.7287
72.0879
66.7517
61.0493
55.5192
51.0022
47.4958
44.588
42.4324
40.12
38.6063
36.7511
35.954
33.9046
179.389
150.425
119.355
89.5069
66.2652
54.1923
48.3704
45.8455
43.5171
42.2392
40.1121
36.7129
32.4994
28.7428
26.9739
26.6256
26.1864
24.9151
24.0474
22.071
534.656
233.792
127.913
100.704
82.3943
70.1656
62.7567
57.9484
53.5432
50.2946
47.9171
45.723
42.9138
39.6734
36.8894
35.0096
33.9881
33.6162
33.1841
31.0736
207.989
147.325
101.993
90.4679
77.4482
70.3441
62.4745
57.9793
51.2593
44.4974
38.3809
34.8899
33.4065
32.4686
31.901
31.5333
31.4323
31.3272
31.0433
29.7484
161.354
124.616
89.9083
78.492
72.3078
64.303
56.0695
49.6283
43.356
38.4798
34.5247
31.6891
30.0312
28.9766
28.4936
28.0956
28.1069
28.0921
28.0146
27.7441
163.38
125.649
82.4287
70.7049
64.2463
61.0725
56.4275
50.9473
45.8319
41.0366
37.355
34.1494
32.2209
30.6356
29.599
28.6703
28.1535
27.7453
27.6133
27.3419
226.39
111.741
79.9127
70.1062
63.7801
62.4805
57.5924
53.5286
47.8601
43.6135
40.2542
37.458
35.0804
32.3419
29.8713
28.0281
27.1949
26.7805
26.6643
26.4455
136.057
113.376
75.8746
64.9915
58.8739
56.8144
51.8763
48.618
43.4077
40.2695
37.3792
35.1138
32.2931
29.623
27.4219
26.0059
25.4396
25.1817
25.1431
25.0805
139.7
140.447
87.8058
67.5294
58.3402
57.6836
61.9121
56.4319
50.1086
44.5826
40.268
37.5731
34.6309
29.9984
24.0305
23.0166
22.6895
22.5744
22.5917
22.6786
383.824
199.542
104.661
75.7501
59.154
61.9176
65.5637
58.9557
47.7529
43.1643
40.3229
38.1952
36.9727
32.5472
25.4357
20.7377
20.2239
20.0486
20.0495
20.1351
163.961
158.654
133.641
98.0608
70.5717
61.0471
53.643
45.232
41.0971
39.8797
39.7051
37.1992
34.094
33.2242
28.3472
20.1082
19.15
18.6292
18.2542
18.2118
448.05
224.706
158.783
126.769
98.5574
84.6642
66.6449
46.3982
38.8655
37.4404
35.916
35.566
34.2871
33.4577
26.8892
23.0248
21.2258
19.3863
18.2194
17.969
144.529
139.443
124.395
108.267
85.453
78.1838
59.8113
45.3444
39.6476
36.5009
34.4892
31.9342
31.1568
31.8077
30.5197
28.7007
27.8268
24.2285
20.4755
18.9003
179.431
143.156
110.063
89.6862
74.1831
62.1138
60.6225
49.3842
40.1257
34.4432
31.8862
31.0844
31.1199
31.1853
31.5339
33.3171
33.3777
30.5657
23.9598
19.9184
417.214
207.744
119.844
87.1686
70.9728
62.2966
52.4145
47.5382
41.5417
36.9771
31.9646
27.8985
26.3344
26.7246
28.6038
29.2349
28.1683
24.1989
20.9748
19.6847
282.011
178.298
112.885
88.3297
74.2302
68.1783
59.8259
55.825
51.241
46.3217
40.4648
33.0735
27.1826
24.2593
23.4114
22.8844
22.3781
21.9401
21.8348
22.2417
306.858
192.217
114.222
94.5001
80.7667
72.748
63.9386
57.5318
52.233
45.2431
38.8037
32.3073
28.1737
25.7484
24.6146
23.9499
23.7769
23.9205
24.3303
25.293
196.371
147.011
116.917
98.5036
87.741
73.3027
62.798
53.4402
46.2832
39.425
34.1732
30.1165
27.8274
26.5133
26.0069
25.6863
25.4494
25.4415
25.5464
26.0169
131.546
123.95
105.803
89.8215
81.1031
69.4119
60.2849
51.5787
45.0796
39.0925
34.4375
30.7203
28.1729
26.4746
25.5941
25.1028
24.8779
24.7918
24.6992
24.7314
167.999
111.187
97.7129
90.3898
73.2517
59.4457
52.2169
46.8176
42.4929
38.5755
35.2376
32.3037
29.813
27.9487
26.611
25.6569
24.9944
24.5369
24.1942
24.0022
51.1144
47.5432
40.8664
43.6168
47.5074
48.1718
47.1713
43.9235
39.6177
36.2359
33.454
31.3287
29.5423
27.8121
26.3753
24.8832
23.9209
22.6828
22.0728
20.6122
148.724
133.777
112.085
81.7957
64.6311
57.0825
52.0979
48.0113
44.2532
40.5915
36.9077
33.7442
31.369
29.8898
29.0472
28.0835
26.9298
25.4722
24.407
22.7224
233.263
152.656
97.8482
77.7046
63.589
57.8727
50.5832
47.8158
43.5809
42.2412
39.7744
38.2358
36.2629
34.9226
33.7238
32.7494
31.9989
31.1854
30.4152
28.836
299.453
127.828
88.843
72.3897
62.5126
57.4819
50.4115
46.577
40.5696
36.8829
33.3303
31.7568
30.7327
30.3394
30.1056
29.9211
29.748
29.351
28.9281
27.9084
221.248
125.177
87.5198
67.0104
59.1432
53.08
46.0213
41.4516
36.2121
33.0116
30.1911
28.6834
27.7503
27.3344
27.1777
27.0888
27.0765
26.9629
26.8167
26.4501
182.86
154.572
79.3098
60.0313
55.0606
51.1171
45.6389
41.4055
37.0025
34.0023
31.4773
29.7304
28.4775
27.653
27.1043
26.6935
26.4888
26.2645
26.1469
25.8703
199.577
120.949
73.16
57.4076
53.5274
51.0212
46.1086
42.6892
38.3333
35.6231
33.1582
31.2131
29.4115
27.9256
26.7391
25.9194
25.5241
25.2732
25.1712
24.9739
138.901
145.831
75.455
53.7058
50.3295
46.332
42.4717
39.3051
35.8737
33.4853
31.3136
29.4404
27.5141
26.0467
24.958
24.2842
24.0064
23.8857
23.868
23.8245
443.725
126.716
74.0858
56.8815
50.2513
46.0913
45.8739
43.7638
38.7154
34.988
32.2124
30.0637
27.4659
24.896
23.5737
22.6476
22.2252
22.0788
22.0614
22.0998
364.949
198.733
113.897
70.1687
50.9625
49.0743
49.1281
44.1741
38.5792
35.3515
32.9783
31.1801
28.6673
25.2727
22.638
21.9105
20.969
20.5557
20.426
20.4764
359.748
234.307
156.477
101.312
65.6443
48.6263
42.0748
37.4046
35.5615
34.3273
33.942
31.7768
28.7494
26.3729
22.9116
22.0102
20.7189
19.9827
19.599
19.5975
190.145
180.873
151.066
119.578
87.9734
66.2639
47.3149
36.5685
33.904
32.6012
73.0982
64.3297
42.5989
32.4644
26.5275
25.1172
22.3591
20.7134
19.8252
19.656
170.666
184.455
139.169
104.404
77.019
60.7546
45.4421
37.3613
33.3692
31.4575
30.0483
28.9774
28.948
30.2238
30.9115
30.8735
26.5413
22.6919
20.586
19.7764
307.474
143.743
101.248
80.4365
64.2485
52.7804
45.6346
38.2245
32.1926
29.023
27.8888
28.232
28.934
29.4143
31.8484
31.8104
30.0823
25.0498
21.6178
19.9201
290.02
127.978
93.9812
69.6694
59.3212
51.4007
43.1087
39.2026
33.9776
29.9914
26.7174
24.7332
24.4084
24.85
25.6481
25.4242
23.8612
21.7192
20.5335
20.0083
197.602
136.792
94.1661
72.634
61.6316
54.7408
47.9404
44.0838
39.2115
34.8214
30.5869
26.7346
24.1505
22.8877
22.533
22.2671
22.0682
21.91
21.9347
22.1353
258.276
151.654
94.4348
73.9517
63.3449
55.8969
49.1035
44.1802
39.1557
34.5834
30.5926
27.5494
25.5794
24.4503
23.9403
23.8
23.8438
24.0437
24.3377
24.5793
460.534
185.359
101.711
79.4989
66.3721
56.0988
47.8762
42.0913
36.7077
32.7902
29.5955
27.5895
26.3341
25.6601
25.3752
25.2914
25.2927
25.3356
25.3858
25.4084
102.641
128.015
110.489
83.1687
67.0052
56.4788
47.9696
42.3199
37.3962
33.9728
30.9567
28.8008
27.2118
26.2048
25.6484
25.3823
25.2945
25.2272
25.1873
25.0947
356.729
131.503
101.957
82.1518
64.5452
53.8299
45.6577
41.3342
37.4744
35.2146
32.8874
31.0773
29.3677
28.2283
27.3312
26.7325
26.3257
26.0609
25.8024
25.5746
69.9564
75.6633
67.3045
59.8515
57.4038
55.8127
52.2623
47.8143
43.1389
39.2177
36.099
33.6363
31.4837
29.4997
27.7427
26.137
24.7672
23.542
22.718
21.2414
110.557
109.056
89.5439
70.5274
62.5862
56.7119
51.4838
46.1003
41.468
37.374
34.5816
32.7251
31.4843
30.3886
29.2116
27.7397
26.285
24.9476
23.9152
23.0239
175.967
125.853
91.296
67.0311
62.0711
54.2318
49.5099
46.4254
43.7864
42.916
41.4452
40.846
39.9768
39.6676
39.285
38.8579
38.2818
37.4302
36.7383
36.0282
224.842
126.576
88.5859
65.044
61.0721
52.5869
48.6143
43.7534
40.2837
37.8367
36.4395
35.8042
35.6703
35.7919
35.9245
35.9059
35.7696
35.3369
34.9847
34.417
113.658
124.359
96.9695
64.2627
58.6258
49.3156
45.4191
39.9736
37.0542
34.5065
33.3601
32.6893
32.6903
32.8217
33.0937
33.2499
33.3234
33.2351
33.1227
32.8738
262.92
217.949
95.855
59.3268
55.4443
47.1477
44.2076
39.0817
37.0475
34.604
33.6033
32.6347
32.3596
32.1981
32.246
32.2792
32.3474
32.3058
32.2437
32.0887
291.972
138.3
76.3619
56.2155
53.6096
46.3308
44.406
39.8115
37.6064
35.4298
34.1797
32.9688
32.2544
31.7648
31.5446
31.3757
31.3261
31.2662
31.2289
31.1994
223.488
190.92
81.7969
55.1022
51.4671
43.8322
42.0884
37.6633
36.0945
33.7936
32.8856
31.6277
31.1168
30.6748
30.3395
30.0831
30.07
30.1226
30.2064
30.3227
207.718
126.312
78.0027
59.1872
51.9831
44.1311
43.1862
41.0928
37.204
34.7839
33.1304
31.8821
30.7652
30.2185
32.1692
30.2216
29.3723
29.1949
29.1926
29.293
253.878
150.962
115.233
71.1708
52.3121
46.7669
45.754
42.344
38.7627
36.9484
35.0072
33.7449
32.2952
31.7006
33.4557
32.354
29.7778
28.9656
28.7853
28.8723
212.179
202.569
170.183
102.524
65.4508
47.0729
41.5063
39.459
39.1731
37.9202
36.7155
34.4297
33.1005
33.1938
35.4182
33.5338
30.5248
29.5164
29.2878
29.3112
237.891
201.327
142.346
103.077
76.6402
58.2611
43.9559
39.1369
38.6473
37.9034
56.86
49.5294
40.5894
37.6348
38.3127
34.8084
31.2575
30.1482
29.8113
29.7676
409.803
305.368
158.472
99.1411
71.3837
56.0967
44.4743
39.6628
37.2164
36.3147
35.7494
35.8087
37.3293
39.5472
41.3407
37.345
32.4047
30.2475
29.5246
29.385
271.301
138.19
102.701
74.7023
63.6072
50.9283
44.6184
38.025
34.2854
32.9167
33.1814
35.0109
36.6333
37.6714
38.7586
35.7921
32.3258
30.0832
29.32
29.0677
343.182
110.881
86.4269
64.6024
59.8204
48.945
43.2264
38.8803
35.1059
31.9071
30.354
29.5077
29.7651
29.9565
30.0919
29.7489
29.2388
29.0293
28.98
28.8289
214.42
118.855
88.9501
65.6328
60.4559
50.731
46.8336
42.4444
38.8453
35.5101
32.8404
30.5286
29.6423
29.3081
29.4884
29.7407
30.0729
30.2049
30.3211
30.1965
187.592
120.118
85.9644
64.9612
60.298
50.9863
47.4143
42.49
39.4112
36.4052
34.3018
32.7943
32.0086
31.6464
31.6869
32.0283
32.4227
32.5663
32.6179
32.3694
304.063
136.393
92.9444
68.9056
62.8863
51.8788
47.4668
42.1591
39.082
36.7449
35.2541
34.3666
33.8977
33.6716
33.665
33.7887
33.9443
33.967
33.8954
33.4783
229.472
179.643
111.787
77.4693
65.9629
54.4541
48.8578
43.9853
41.1473
39.1535
37.6526
36.4903
35.791
35.2596
35.063
34.9813
34.9636
34.8624
34.6847
34.2909
269.65
149.842
104.321
77.623
66.5136
55.8129
49.5158
45.8703
43.2505
42.0668
40.7631
39.6955
38.7071
38.0406
37.5873
37.2542
37.0313
36.8217
36.5494
36.3241
107.187
87.3076
82.759
71.9426
64.5408
58.7172
53.2226
47.9309
43.1571
39.2468
36.1355
33.455
31.0655
28.8912
27.0165
25.4028
24.1551
23.0925
22.1917
21.5149
101.052
86.3235
75.779
66.4972
61.1911
54.3743
47.4186
41.158
36.7704
34.102
32.5107
31.2103
29.9511
28.4014
26.86
25.4714
24.4757
23.8068
23.1969
23.191
174.848
124.482
109.211
70.8164
81.7941
59.4697
67.1855
54.8583
58.7734
52.857
54.6468
52.1624
53.4196
52.8767
53.7428
53.2207
53.1393
52.2705
52.0464
51.2772
138.201
132.165
97.8484
68.3386
73.2548
55.291
59.7989
48.6643
51.0555
45.9354
47.7272
45.9711
47.6091
47.4851
48.5486
48.4194
48.7122
48.2815
48.2293
47.6267
293.14
148.575
104.098
67.7446
70.923
53.354
56.7252
45.8254
47.7117
42.979
44.5211
43.1117
44.5794
44.5602
45.6328
45.7294
46.1601
46.0668
46.1248
45.8412
206.088
163.218
99.855
66.9136
68.0034
51.5183
53.8284
44.4169
46.4436
42.2918
43.9358
42.4226
43.774
43.5777
44.5014
44.5689
45.0617
45.043
45.1326
44.9037
340.293
159.966
91.2672
67.4385
65.767
52.1582
54.526
45.1323
46.057
42.7493
43.5232
42.4542
43.2114
43.1742
43.7203
43.7774
44.0107
44.0781
44.1254
44.0634
422.742
152.355
86.3471
69.043
64.3771
51.602
51.4168
44.4256
44.36
41.3936
42.6096
41.6001
42.7619
42.6176
42.7872
42.7085
43.0257
43.2245
43.4213
43.5195
183.851
133.937
88.7421
73.1065
64.2034
53.1987
50.0037
45.986
44.3551
42.4555
43.1325
43.0891
44.2309
44.4937
45.7115
43.3061
42.6744
42.7889
42.8286
42.9783
190.214
147.549
118.915
78.0151
60.9449
51.8767
53.8074
50.9872
49.6969
49.1705
48.9714
49.2396
50.14
50.6906
50.4987
45.4666
43.2377
42.8509
42.8561
42.9453
407.241
246.569
184.11
92.9148
70.9822
51.9484
50.9325
53.8585
54.4966
52.6509
51.2667
51.6371
53.993
54.4932
52.568
46.13
43.7014
43.3167
43.2302
43.2295
275.823
181.219
145.942
88.6565
77.1117
58.1307
53.1564
55.6097
55.8488
53.2731
53.0433
52.6889
56.6602
56.3269
53.1811
46.7052
44.3283
43.9196
43.7967
43.7486
516.078
198.4
148.541
86.9062
76.2895
58.3333
54.7722
54.6393
54.3949
54.0008
54.4263
55.6301
57.4573
57.3126
55.0066
48.5751
45.5503
44.4682
43.9675
43.6585
194.97
139.267
110.307
74.2554
74.0665
55.4477
52.9257
46.7083
46.8742
46.7968
48.9843
50.728
52.7601
53.1903
51.0566
47.1577
45.657
45.0681
44.5028
43.8192
236.88
135.22
90.2884
71.0513
71.8145
53.2891
53.898
46.3302
45.0652
42.3584
42.6857
42.2543
43.2854
43.3003
43.7126
43.7651
44.1213
44.1557
44.0903
43.6882
241.046
119.631
92.3368
67.3239
69.8274
53.5567
56.8607
48.8426
48.7945
45.2147
44.6345
43.0674
43.3612
43.1662
43.724
44.0611
44.7918
45.1889
45.4126
45.0806
242.825
115.309
88.1362
67.9349
69.9346
54.8994
57.916
49.5068
50.7948
46.9339
47.4389
45.8629
46.2919
45.8665
46.5602
46.9719
47.6331
47.7462
47.7525
47.2756
304.479
167.835
99.3491
72.0378
73.5377
55.9237
59.912
50.4474
52.6741
48.7404
49.8422
48.365
48.9632
48.5252
49.0129
49.0963
49.4742
49.441
49.296
48.6538
199.108
181.886
130.03
77.1659
78.59
59.0112
62.0954
52.8584
55.4973
51.6839
53.0064
51.1912
51.6424
50.7941
51.0852
50.8893
51.0544
50.8368
50.6119
50.0061
177.911
159.346
120.785
79.2834
86.0927
64.1408
69.2243
58.6604
61.9155
57.6676
59.1192
56.9169
57.11
55.795
55.6226
54.9049
54.7616
54.3131
54.0114
53.5252
51.5907
87.1166
87.7096
75.8951
66.7318
57.0872
50.3453
44.3302
39.8666
36.0643
32.9958
29.9754
27.5764
25.5384
24.1157
23.0642
22.3362
21.7273
21.4351
21.4461
34.0242
33.8445
71.5005
36.2577
35.6504
36.9665
82.8749
32.5669
72.0448
62.521
35.4122
33.7453
81.7432
62.8344
72.3977
31.8989
30.6907
35.9894
83.7699
34.5758
33.9056
68.5894
30.3453
29.8354
82.2398
67.8047
33.7835
33.682
243.43
241.016
200.646
77.3197
67.8831
65.677
56.1458
229.841
201.118
207.67
66.0864
55.7958
54.0314
48.578
225.168
210.919
212.01
52.9848
48.8279
47.1315
45.2395
200.385
210.048
196.775
48.2926
46.203
45.0965
44.8736
169.688
191.443
172.148
45.2901
42.8583
44.7235
42.8341
154.748
169.362
169.346
42.5486
41.9439
41.814
39.3482
140.858
168.985
158.244
41.7161
39.0084
38.8077
37.3843
109.493
154.788
131.398
37.4227
30.9794
37.0002
36.1058
193.063
252.603
192.784
61.9938
52.6442
74.6596
57.4801
206.991
191.705
195.737
50.3297
46.3286
52.0847
43.9468
207.183
197.388
198.019
45.5186
44.4014
43.3532
42.4399
192.93
196.357
185.32
44.3839
44.4806
42.0288
40.3959
170.465
180.585
173.581
44.4249
42.5611
40.0999
39.0074
172.468
173.443
172.864
41.4342
38.5235
38.5562
37.1846
162.655
171.642
162.14
38.0215
37.3668
36.8574
36.839
133.3
158.28
117.335
37.3632
36.817
36.9292
33.677
201.11
282.484
188.588
80.5142
58.4112
77.9401
54.3196
189.825
182.448
177.369
52.4747
43.5963
50.0372
44.085
189.003
175.38
162.86
43.0263
42.3397
43.2651
42.0659
181.131
160.154
161.576
41.7294
39.5051
41.8771
39.3278
174.765
164.529
170.964
38.9632
37.864
38.208
35.8916
171.916
173.567
175.475
37.5919
36.7817
35.437
34.9465
159.842
174.429
167.293
36.5261
36.5326
34.9359
35.2848
114.324
159.486
107.777
36.5305
33.085
36.0391
35.0209
190.353
324.409
225.065
71.288
54.1731
79.4533
62.668
178.477
214.685
190.707
50.7897
45.3009
58.418
51.1125
166.133
185.609
162.254
44.0611
40.7516
48.4351
42.1444
157.56
158.756
149.608
40.443
39.3039
40.7261
39.1588
166.048
150.162
151.679
38.5441
36.1993
38.8992
37.1959
175.241
153.582
163.973
35.6407
34.8627
36.768
35.5525
171.92
166.983
174.074
34.8056
34.9292
35.2978
34.695
113.121
174.49
166.821
35.335
35.4451
34.6028
34.3976
60.6052
57.0365
49.8237
51.6766
47.3971
46.0435
40.79
50.3981
48.1782
43.7608
46.2019
41.5207
39.8306
37.5
43.8303
42.5412
40.7472
39.7676
36.7738
36.8255
35.4716
41.1135
40.5631
40.2244
36.1998
34.39
35.1874
34.4199
38.4815
40.0442
38.3638
33.7807
32.3572
34.1101
32.5599
37.406
37.5096
35.2573
32.002
30.4147
31.885
29.8349
34.0238
34.6873
33.2591
29.6638
26.8071
29.1963
27.4078
27.7427
32.909
31.9089
25.8231
22.9918
26.7902
24.009
47.0818
62.8201
50.3986
43.5831
39.2188
47.801
39.6893
41.8252
46.1772
39.6994
38.2326
36.3796
37.6753
34.726
39.9769
39.1689
38.1612
35.9271
34.9341
34.4218
33.4993
39.7953
37.6904
36.8621
34.6901
34.3633
33.5254
46.1142
38.1427
36.8587
36.5588
34.2737
32.963
47.4484
47.5404
34.6232
36.2825
34.8174
32.2016
29.889
46.2047
38.749
33.2955
34.2858
33.6695
29.2554
27.704
36.3875
31.6353
32.5641
33.5108
30.3663
27.1706
24.2371
30.1715
25.0951
51.0283
64.0779
47.7753
50.17
39.8506
49.1052
39.09
39.3673
44.5768
39.7964
37.5924
34.3725
37.3951
34.4049
38.092
38.9946
37.7409
34.1036
33.3515
33.741
32.5579
36.0766
37.4825
35.1533
32.8754
45.5065
32.189
30.6952
35.6752
34.2145
32.2482
47.1075
49.078
30.2296
29.4028
34.6906
31.8645
31.4726
48.5513
41.5406
29.3212
29.4544
33.6785
31.4968
32.0382
39.143
33.6464
29.7621
30.8048
29.8842
32.4966
32.0575
31.9724
25.9475
30.8347
29.9152
47.8471
64.3739
54.6315
47.2729
39.607
50.5881
43.5064
40.8488
51.2565
44.4304
38.1494
34.839
41.2594
35.638
36.7797
42.072
36.9761
33.8576
31.9958
33.9938
30.992
35.1895
35.8578
34.5902
31.7007
30.5312
30.3915
29.5607
32.4289
34.3035
33.03
30.087
28.9359
29.3398
28.8126
31.1976
32.7135
31.795
28.6844
28.3934
28.7449
28.4636
31.4069
31.5846
31.1457
28.4566
29.2602
28.3993
28.2783
32.2566
31.0947
31.5725
29.5353
29.6362
28.3009
28.7988
45.2671
44.4357
39.5276
45.8229
42.7528
42.8162
39.1701
40.1635
38.7224
36.8645
41.9323
39.1285
38.8106
38.0634
35.8979
36.3081
35.0627
37.9978
36.2331
37.7629
36.8021
33.5866
34.7484
33.8507
35.7946
34.1955
36.4052
35.1297
31.5825
33.5005
31.9197
33.669
32.503
34.6753
33.0705
29.4327
31.2554
29.2099
32.0923
30.5998
32.4815
30.9431
26.0984
28.5684
26.7119
30.096
28.9523
30.5549
29.6119
22.9616
26.0591
23.4609
28.6499
28.0956
29.3867
29.0886
38.1937
45.2731
38.256
40.9403
38.4078
42.4362
38.1929
35.9425
36.679
34.459
38.122
37.6557
37.5582
36.8815
34.6117
34.2112
33.4314
37.474
36.6551
36.7788
36.1978
34.5392
34.1042
33.8628
34.4712
34.0088
34.2312
34.1495
37.3164
33.6853
36.1614
34.0753
36.1392
33.7764
37.4237
29.4091
57.0164
41.7909
32.9637
31.0633
54.9966
40.9527
27.0054
38.3409
31.8215
30.6538
29.6899
38.4803
33.6976
23.5939
29.9775
24.9408
29.4494
29.1659
32.558
31.2777
38.3561
46.692
38.0924
43.8961
38.2609
44.2399
38.6781
34.1247
36.6552
34.0137
37.5046
36.6803
37.8432
36.1669
33.2299
33.4053
32.2741
36.5816
35.9999
35.7763
34.91
41.7291
54.9475
32.7719
39.2521
35.8782
229.561
33.3325
49.9087
72.1494
41.2536
186.639
41.9617
172.941
49.375
46.4677
29.8334
30.1093
59.9543
44.075
33.7198
34.3956
34.6874
30.5229
31.7686
41.4137
36.0414
35.0579
36.71
26.1201
31.7764
30.5
34.7479
32.6544
36.8191
36.8083
38.6603
48.5367
42.0237
43.9654
39.174
46.6016
40.8907
34.27
39.8329
34.4636
38.2446
35.905
38.8289
34.3829
31.7442
32.9698
30.4841
35.3268
34.3918
33.3898
32.2289
30.4115
30.0054
29.3233
34.1818
33.5486
32.0957
32.022
29.1576
29.1776
28.8725
33.4057
33.1562
32.0911
32.6756
28.8307
28.8791
28.8063
33.1631
33.6124
32.9627
33.6363
29.9417
28.7946
28.7779
34.0459
35.6271
33.8508
34.3112
30.3024
28.8283
29.3363
36.1088
36.8375
34.5393
35.2782
43.1451
43.1887
40.1772
50.1328
48.3862
47.9847
48.0067
39.746
39.9691
39.5188
47.4151
45.4641
48.2006
48.4291
37.3537
39.2923
38.4115
45.2454
44.9076
48.4171
47.5145
35.463
37.9826
36.6006
44.5444
43.8177
46.9654
45.6768
34.0907
36.1389
34.6726
43.8199
43.9502
45.4168
45.2017
32.6191
34.1954
33.2414
43.8568
44.246
45.3649
46.639
31.8064
33.0916
32.9732
44.4579
45.1155
47.0638
47.841
31.4815
33.042
33.2518
45.1042
44.8746
47.8994
47.7666
39.5875
42.7074
39.5084
46.9742
47.9599
48.0921
48.8232
39.2941
39.1373
38.855
48.322
48.9076
49.1929
49.8485
38.3671
38.7843
37.9758
48.9164
47.651
49.5962
47.9406
37.0236
38.2139
56.7001
47.0535
45.6671
47.2508
48.1448
35.1069
56.894
50.7175
45.3668
44.8066
48.2573
47.0371
33.2172
47.2956
39.8781
44.9493
46.6611
46.4977
48.2814
33.0825
38.5817
36.3452
47.3128
48.2607
49.2894
50.1727
33.4284
35.9315
35.4326
48.3307
48.1236
50.0437
49.2793
39.6106
44.4936
40.0639
49.0784
49.1842
49.9824
49.4313
38.7234
39.4218
38.1002
49.4843
49.9798
49.3991
49.2091
37.8565
37.7993
37.0026
49.709
48.0284
49.1495
47.9348
56.4674
36.6771
36.0331
47.3665
48.2997
47.5449
47.0692
52.7903
35.9475
35.8919
48.4761
47.5698
47.1024
47.4778
41.9064
35.9398
37.0517
47.1299
49.1448
47.9347
50.4129
38.1424
37.8558
39.6756
50.1788
50.8596
51.2119
51.8819
36.5182
39.8892
39.8398
50.6311
49.5921
51.7401
50.7404
40.4601
46.8534
41.5151
50.4325
49.2712
51.7162
47.2678
37.665
39.4852
35.4761
48.9602
48.3427
45.5709
43.7419
36.5065
34.7112
34.0365
48.3339
47.8461
43.9277
44.7271
35.8213
33.9843
34.154
47.583
47.5547
44.8153
45.741
35.721
34.3211
35.2885
47.7257
48.5064
46.2254
47.8365
36.7388
35.6802
36.6031
48.9792
50.826
48.2188
49.4393
39.103
36.904
37.5176
51.3732
51.9496
49.7915
50.3658
39.9737
37.7823
38.1948
51.905
51.2861
50.3877
49.9757
52.0236
51.7743
53.223
77.3904
77.8674
76.8594
80.5349
49.5379
53.4506
53.7512
75.4177
77.3142
80.9374
82.5026
49.4888
53.7729
52.9193
77.6498
79.2159
83.0983
86.8988
48.7884
52.4409
51.4874
78.4158
81.4401
88.1151
90.974
49.2666
51.3561
51.5109
81.7123
83.4469
91.5464
92.1062
49.8371
51.7611
53.1156
83.0842
84.9758
91.8089
90.3136
50.699
53.5013
53.9657
84.9504
85.9053
90.0754
89.7584
50.0509
54.0068
53.3669
85.5677
82.9737
89.7854
87.5334
53.4264
52.1283
54.6854
75.0892
81.1562
76.9566
83.0192
54.4894
55.2022
55.9209
81.7436
83.6269
83.8758
86.3936
53.2217
55.657
53.8272
84.6233
89.9978
88.3235
97.2879
51.4603
53.0756
52.7212
91.6067
94.613
100.145
104.168
51.2457
52.7363
52.0278
95.1806
95.457
104.627
103.609
53.4047
52.1668
55.1148
94.9311
92.1805
102.237
96.9265
54.476
55.99
56.2179
91.3753
90.4274
94.9313
91.7786
53.6957
55.9699
54.488
90.3434
87.7415
91.396
87.4463
55.1852
54.1961
55.2677
77.3676
83.8834
79.2125
83.5557
56.1237
55.3451
55.2886
84.5407
86.7145
83.9286
85.1069
53.9913
55.2443
54.205
88.5901
97.5795
86.0492
91.6066
53.0011
53.8086
53.5961
100.512
104.445
93.3978
96.4815
52.508
53.7035
54.294
104.881
104.099
97.0805
97.7756
55.8058
54.8302
56.8575
102.652
97.2185
97.2468
93.8713
56.6596
57.4011
57.3127
95.1435
91.7765
92.706
90.7598
54.671
57.0601
55.4569
91.3254
87.7322
90.4377
87.2185
54.8247
55.6403
51.3623
79.2115
82.5147
78.9855
75.5126
54.3425
49.9106
49.1767
82.749
83.8756
75.4895
77.2744
54.1868
49.5641
50.4183
84.5494
88.7186
78.9464
80.1183
54.2212
50.464
51.5431
90.178
92.9352
80.9455
82.9226
55.2385
52.0694
53.6009
93.6206
94.6003
84.1701
85.4975
57.1089
53.9219
55.0821
94.3717
92.2134
86.0746
87.4568
57.4814
55.4177
55.8311
91.8117
90.6587
88.1987
88.305
56.1002
55.8072
54.756
90.4714
88.4391
88.5609
85.2402
35.6733
34.0272
35.6913
34.1775
34.6416
34.1711
37.0142
41.744
33.7254
51.4984
39.3074
36.0404
34.4959
177.976
52.4994
44.6605
66.459
204.658
41.0162
56.7634
226.043
35.3457
35.1134
35.9178
36.1033
34.8359
34.8989
36.3032
36.5857
34.7278
35.7494
38.2405
34.7522
37.939
37.1494
43.4536
41.0698
36.3892
59.5343
35.434
185.047
39.5321
54.8021
212.423
49.9933
78.1956
59.3034
233.445
45.9034
37.0087
33.2112
35.1669
32.5768
35.9196
33.2711
35.8653
55.1762
45.944
72.1147
189.651
45.9155
56.2859
174.281
53.9716
43.6844
69.6367
88.4162
45.5842
48.137
119.483
38.0645
34.5703
35.0122
38.4444
34.2137
38.235
38.2552
37.6141
32.9503
34.461
36.5123
33.6775
36.2965
37.706
56.9966
197.073
50.3946
79.8802
58.2973
183.363
49.8044
55.2763
88.7618
45.2958
73.4715
48.7757
126.447
48.6238
46.699
68.7778
40.3783
201.354
38.7847
216.027
48.62
32.8749
32.1822
31.4946
32.1962
32.1687
32.5304
31.8538
33.3135
32.3051
31.0845
31.2434
32.2635
33.5524
31.5378
43.4447
41.0602
62.6962
35.7262
225.266
34.3828
39.8033
49.0981
208.465
80.6129
45.9947
223.271
51.1756
43.9454
33.9131
33.0868
34.9433
34.2964
33.4671
32.7911
35.1662
34.488
32.3236
35.9405
34.0812
34.8279
32.5446
35.6083
50.3192
74.7415
44.7288
112.675
43.2171
156.685
51.996
33.8274
32.3065
30.0803
30.9977
32.3692
33.6758
30.8211
34.0935
33.0465
29.8999
30.7206
32.5754
34.6878
30.7163
52.2219
194.43
79.391
46.8391
181.45
51.9189
47.2527
52.3624
106.375
78.0268
47.7121
156.288
52.602
47.8987
35.2002
32.1502
36.1459
33.7085
35.0211
32.0349
36.3123
35.4638
31.9937
36.8101
33.6706
35.9434
31.9752
36.533
156.988
180.956
167.339
97.7921
77.3394
93.5357
79.5675
151.487
160.867
157.416
72.2557
71.0162
71.3777
67.5819
137.574
152.506
145.457
67.2802
62.4873
63.4239
61.523
124.39
135.791
126.164
59.6253
57.5876
58.8391
55.7187
106.858
116.446
108.47
54.0976
50.7425
52.5081
50.6111
94.1849
102.85
98.0579
49.3281
48.1509
49.5262
48.7877
80.9356
92.1719
84.7609
46.2278
42.6407
47.7659
45.7413
70.7102
80.8001
69.3495
40.6467
34.6833
43.2548
33.9685
181.458
169.879
156.522
93.1669
87.4121
90.7723
79.2445
134.744
281.383
292.168
158.108
130.722
159.246
262.351
96.0603
223.253
215.895
98.4952
92.0857
102.203
209.932
82.9625
232.262
220.832
84.9388
83.6507
84.1812
223.748
78.8427
213.637
216.929
82.7986
82.4515
80.3311
210.397
71.5917
185.215
190.74
78.8951
76.2504
73.9412
184.219
67.4671
159.524
163.893
70.182
69.5312
68.0106
160.995
66.7925
149.645
157.531
68.8634
68.0952
67.1249
155.768
57.8756
131.819
142.178
63.1079
59.8663
61.5061
138.821
72.3944
84.4488
69.0741
34.4861
28.589
38.9548
30.5062
151.424
193.854
167.287
97.3471
74.8402
108.85
87.927
103.953
197.939
224.639
126.961
102.586
128.309
199.506
76.8988
200.951
193.037
80.1946
78.5779
78.9888
198.117
75.5632
209.199
207.707
76.7031
76.2282
75.816
207.928
75.0764
200.686
200.829
75.9078
76.0004
75.162
197.037
72.4214
180.455
182.152
75.8524
75.0087
73.9967
175.963
66.0064
169.426
169.435
69.313
67.5512
67.5596
169.999
64.0822
171.082
173.399
64.8651
64.5301
64.3057
172.265
63.6986
154.73
160.13
63.389
63.2514
63.7253
155.706
69.7818
78.7198
62.6631
40.8197
31.6862
37.9142
28.0347
196.156
239.691
198.29
127.389
99.1021
128.672
100.072
134.823
238.685
282.716
165.797
132.136
169.379
234.498
75.4622
192.018
187.358
83.2911
76.9417
81.4567
185.538
71.4242
189.102
179.103
71.3001
71.4102
70.9234
176.245
70.0368
186.995
176.682
71.1509
70.2304
71.3383
177.32
64.7057
176.684
175.31
66.725
65.5356
65.8938
174.689
62.7688
173.955
174.595
63.3978
63.0229
62.994
174.414
61.1727
166.463
170.136
61.6997
61.4737
61.5247
167.326
60.7685
142.427
152.213
60.8894
60.1761
61.2668
138.098
57.6749
66.9196
66.8081
34.5312
25.7813
34.9514
25.5633
186.007
224.226
203.732
122.531
89.7675
119.739
96.7995
126.31
225.871
274.817
155.468
121.886
156.618
238.869
81.4865
180.587
194.694
81.8706
76.6213
86.9602
187.651
70.8181
172.664
176.624
70.4979
69.755
73.0638
171.771
63.504
158.979
163.444
65.6379
65.7538
63.7477
159.346
65.3339
160.268
153.8
65.1818
64.4314
65.4563
153.988
62.2477
172.389
162.298
62.5051
62.4974
62.7865
166.04
62.4896
174.781
174.45
62.6071
62.56
62.3856
174.671
62.3542
156.402
172.7
62.4849
64.2948
62.1302
168.973
65.0045
90.0136
75.3257
39.0793
28.1046
39.2841
34.5549
162.592
192.291
159.564
104.953
81.8324
106.598
79.005
129.725
145.203
136.375
68.1546
60.0135
66.6225
64.3875
107.457
122.304
108.861
54.1268
49.8843
59.1908
52.4437
94.9254
102.345
96.9645
46.0898
43.6884
49.4772
48.296
93.2786
93.1078
89.0974
42.1613
40.9188
45.3115
42.5301
96.5845
89.2213
89.1291
40.5476