/*--------------------------------*- C++ -*----------------------------------*\
  =========                 |
  \\      /  F ield         | OpenFOAM: The Open Source CFD Toolbox
   \\    /   O peration     | Website:  https://openfoam.org
    \\  /    A nd           | Version:  10
     \\/     M anipulation  |
\*---------------------------------------------------------------------------*/
FoamFile
{
    format      ascii;
    class       volScalarField;
    location    "8.9";
    object      p;
}
// * * * * * * * * * * * * * * * * * * * * * * * * * * * * * * * * * * * * * //

dimensions      [0 2 -2 0 0 0 0];

internalField   nonuniform List<scalar> 
12920
(
1.30408e+06
1.17691e+06
883353
861144
771714
747126
685742
649848
597156
554823
502817
454836
401459
349450
295421
241489
185020
129246
83894.7
47542.2
839176
1.054e+06
830622
832831
756800
741494
683312
650758
599359
557476
505350
456625
402245
349523
294792
240564
183857
127504
81734.9
45636
819060
996940
823797
826067
753113
744030
685520
655619
603317
562803
509687
460989
404396
350635
294490
240019
182789
125376
78801.4
43180.8
701180
875543
777727
807376
738605
741174
686352
659376
609462
569039
515933
465929
408261
353714
296617
241008
182619
123548
75921.4
40676.7
504921
803057
774069
806799
752624
754764
693301
668755
614220
573878
519121
470130
413023
357968
299916
243723
184042
123089
74078.4
39004.6
425454
787508
763199
802813
748362
757828
700624
673105
623807
579746
526763
475129
419791
363725
305061
247165
186069
123477
72841.2
37448
516528
914925
822320
844709
778470
787215
716783
686297
631173
587355
530039
479922
423060
368084
308676
249521
187503
123770
71831.8
36077.1
772504
1.0169e+06
836864
883947
797867
796452
745036
700790
651589
603869
549865
496166
440624
385548
314524
252910
189447
124347
70934.4
34673.9
1.05187e+06
1.05952e+06
963977
954501
850830
825275
771274
721240
668695
616928
561619
507202
451593
395383
330282
257732
191579
124635
70582.3
33863.1
733549
1.03854e+06
961626
997609
885517
860466
794934
736301
677944
621826
566486
511454
453947
396805
332291
258081
193408
125937
70956.2
33932.5
1.26199e+06
1.2136e+06
1.05863e+06
1.02522e+06
928756
889138
821526
755656
690130
629742
572631
514567
456161
398936
334254
258155
193943
127063
72017.9
34649.7
1.18446e+06
1.23079e+06
1.05116e+06
1.02883e+06
929750
901592
836857
768833
702338
637921
575948
516341
458942
401459
336897
258437
194481
129483
74169.7
35444.7
1.57962e+06
1.36694e+06
1.12875e+06
1.06108e+06
938711
889691
828079
764548
703451
639445
573674
511143
451537
395316
316995
257137
194884
130497
75313.6
35941
1.12785e+06
1.22819e+06
1.09328e+06
1.04644e+06
948798
900390
808880
755240
686167
627084
562015
501305
437663
376833
316459
257146
194618
129417
74169.6
35306.3
1.07747e+06
1.21372e+06
1.09341e+06
1.03429e+06
941296
892941
809105
753550
683999
628124
566164
506417
443480
381348
317475
256810
193266
127761
73199.2
35484
1.29037e+06
1.22095e+06
1.08176e+06
1.03697e+06
935077
892241
807109
754144
684229
630319
565874
508325
443965
381400
317811
256860
192916
128025
74405.8
37059.4
1.10982e+06
1.17395e+06
1.02043e+06
1.01897e+06
914771
884107
798706
750970
682175
626744
562130
503393
439779
379030
316676
256054
192945
129210
76428.3
38762.7
1.06443e+06
1.11091e+06
1.00823e+06
991258
913294
875473
797084
749317
679830
624074
558512
500570
437182
377187
315186
255395
192796
129977
77771.7
39777.5
1.05649e+06
1.04962e+06
927365
961521
890862
864887
785197
740345
671381
617818
553981
497086
435059
375585
314507
254814
192953
131224
79894.4
41412.3
932534
1.02717e+06
910278
950262
885652
859012
782105
736511
670048
616583
553136
495895
433848
375097
314235
254743
193174
132462
82291.9
44255
1.26147e+06
1.16183e+06
885825
864485
771378
748229
685562
650069
597152
554852
502866
454873
401474
349388
295330
241416
185028
128915
83242.6
46387.3
817856
1.07878e+06
830106
836615
756305
742791
683108
651217
599171
557510
505215
456748
402296
349551
294728
240590
183907
127079
80830
44072.3
983784
1.01455e+06
830815
829946
752568
745434
685193
656791
603576
563141
509540
460977
404283
350623
294475
240102
182884
125056
78010.5
41466.7
752898
889372
779994
809377
737611
742121
685547
659753
609318
568459
515402
465485
408079
353915
296859
241045
182724
123325
75164.5
38925.1
362744
785962
781681
807207
753841
756272
693473
669168
613761
573576
518908
470103
412975
357904
299852
243960
184069
122886
73260.4
37140.9
456300
783427
764447
801812
751586
757591
699883
673148
623637
579628
526414
475197
419439
363465
304862
247145
186173
123408
72057
35564
605215
899328
824289
845551
781512
784947
718677
687358
632096
587972
529950
479797
423066
368052
308556
249372
187879
123833
71269.5
34253.4
974283
1.01039e+06
849578
882543
801958
794747
744657
702549
652537
604033
550037
496197
440597
385210
314436
252728
189550
124570
70657.2
32987.1
1.10117e+06
1.05801e+06
959924
952425
852043
826753
772128
721565
668997
617015
561531
507262
451545
395349
330236
257425
191628
124865
70351.5
32370.1
878423
1.04395e+06
968983
997742
886947
860732
795215
736713
678242
622643
566905
511574
453910
396727
332223
258374
193441
126047
70603.2
32523.7
1.20615e+06
1.23937e+06
1.06068e+06
1.02694e+06
928648
888608
820831
755129
690456
630195
572861
514576
456032
398757
334018
258479
193967
127161
71649.5
33252.5
1.16919e+06
1.22142e+06
1.04429e+06
1.02958e+06
930290
900966
836686
768834
702336
638188
576127
516581
459240
401440
336912
258755
195193
129623
73689.7
34024.4
1.50423e+06
1.35976e+06
1.12313e+06
1.06099e+06
939334
889763
827195
764075
702627
638968
573823
511647
452235
395460
317270
257352
195095
130355
74705.6
34535.4
1.11175e+06
1.23153e+06
1.09036e+06
1.04531e+06
949125
900740
809147
754699
685445
626779
561579
501108
437677
377107
316658
257201
194628
129164
73578
33940.3
1.02688e+06
1.21962e+06
1.08682e+06
1.03535e+06
942788
895071
810332
754244
684432
627747
565309
505845
442948
380867
317416
256830
193367
127706
72814.7
34249
1.37729e+06
1.24643e+06
1.08916e+06
1.03845e+06
936450
892721
806839
755304
684776
630234
565947
507796
443677
381576
317748
256910
193085
128080
74056.6
35819.2
1.18e+06
1.18103e+06
1.02144e+06
1.01671e+06
915972
884131
798444
751398
682227
627175
562307
503671
439815
378894
316354
255991
193109
129180
75883.7
37441.7
1.02187e+06
1.11544e+06
1.00898e+06
991395
912862
874927
797129
749715
679846
624660
558736
500892
437345
377354
315175
255191
192697
129717
77234
38563.3
949478
1.03883e+06
925411
961904
891758
864570
785105
740728
671840
618536
554500
497598
435353
375926
314669
254994
193113
131069
79317.9
40348.9
934181
1.00283e+06
908393
950922
886441
859199
781945
736519
669896
616522
552996
495929
433993
375178
314296
254809
193259
132350
81982.2
43616.1
1.27794e+06
1.15832e+06
886021
869277
769737
749467
684582
650622
597058
555031
502993
455162
401494
349357
294990
241215
185027
128385
82092.1
44278.5
1.12308e+06
1.07992e+06
841177
843669
755718
744557
683249
651833
599054
557725
505144
456826
402348
349614
294609
240596
183970
126475
79334.2
41381.2
1.19458e+06
1.03787e+06
832721
833168
756060
747635
685486
658119
603771
563134
509146
460716
404075
350633
294521
240220
183052
124669
76857.5
38862.8
788053
908685
780357
811850
739188
741896
685846
658889
608961
567010
514551
465059
408366
354397
297368
241151
182932
123107
74203.2
36461.8
276663
767538
785538
806491
755712
756755
695825
668413
614049
573001
518853
470020
413380
358177
300195
244215
184364
122734
72352.5
34672.8
471142
786368
766547
799537
752701
756416
701852
672514
623704
579464
526377
475183
419386
363301
304773
247112
186390
123656
71289.1
33148.9
576577
897827
825893
847431
783497
781996
720213
688992
632867
588317
531003
479913
423314
368123
308678
249403
188249
124333
71022.7
31978.7
760325
1.01505e+06
847329
882029
804082
793873
744551
704746
653268
604926
550271
496398
440656
384898
314315
252631
189783
125174
70881.2
30942.2
1.07223e+06
1.05907e+06
953457
951723
853666
828421
773717
722482
669707
617175
561926
507264
451385
395150
330131
256907
191804
125517
70591.4
30535.3
905613
1.05637e+06
975008
995538
889318
859662
796329
737348
679059
623309
567308
511637
453978
396956
332615
258444
193490
126435
70573.3
30750.3
1.20297e+06
1.20317e+06
1.06293e+06
1.0307e+06
928936
887511
819804
754726
691051
629218
573482
515008
455712
398232
333950
258808
194078
127339
71263.1
31491.1
1.03673e+06
1.2001e+06
1.04631e+06
1.03226e+06
932369
900020
835124
768190
702237
638665
576898
517168
459386
401367
337543
259410
195441
129440
73040.5
32168
1.48625e+06
1.37048e+06
1.1176e+06
1.06308e+06
940276
889834
825433
762988
701132
638705
574875
512858
453287
395744
317818
257755
195744
130410
74101.1
32644.2
1.17419e+06
1.23356e+06
1.09018e+06
1.04529e+06
950362
900400
809360
754350
684872
626268
561274
501137
438529
377770
316514
257160
194563
128839
72817.1
32127.3
1.02742e+06
1.23637e+06
1.08492e+06
1.03841e+06
945217
896479
811108
755047
684681
627651
564760
505311
442492
380531
317382
256785
193520
127565
72276.2
32510.3
1.35687e+06
1.26454e+06
1.09101e+06
1.03958e+06
938593
893745
807415
756326
685211
630277
565782
507314
443231
381415
317637
256634
193328
128152
73598.3
34101
1.15201e+06
1.24321e+06
1.02138e+06
1.01983e+06
916069
884766
798895
752041
682547
627496
562523
503882
440024
379113
316377
255909
193070
128910
75013
35588
1.12423e+06
1.11668e+06
1.00748e+06
992146
914245
875897
798268
750077
679970
625082
558982
501205
437545
377608
315319
255320
192914
129538
76325.4
36782.8
1.00068e+06
1.05436e+06
913382
965025
893154
864096
785638
741588
672652
619405
554966
498046
435602
376280
314872
255228
193350
130817
78530.5
38816.1
916608
999906
903658
956419
888494
859773
781904
737018
669902
616693
553140
496245
434294
375403
314441
254967
193465
132142
81191
42270.9
1.21534e+06
1.14503e+06
895379
874507
769073
750849
683681
650874
596709
555029
502806
455349
401405
349290
294755
241177
185089
127806
80538.8
41037.4
1.02711e+06
1.09136e+06
844277
847588
758578
745505
684093
652521
599099
557364
504788
456692
402459
349817
294707
240652
184030
125832
77464
38035
1.10359e+06
1.05014e+06
835532
835940
759942
749108
687033
658011
604286
562879
508818
460418
404477
351295
295111
240540
183359
124589
75837.3
36011.6
817902
930889
787474
812384
741225
742251
686682
658367
608837
566513
514222
464959
408800
354724
297768
241700
183451
123418
73837
34160.8
309794
755761
789256
805632
757232
756186
697952
667721
614290
572665
519192
470087
413941
358482
300353
244330
184759
123262
72349.7
32643.2
438369
778111
768666
798098
752988
754456
703819
672314
624339
579244
526509
475312
419538
363246
304701
247059
186691
124101
71583.5
31447.4
490169
915858
818401
848262
784795
779071
721126
688752
633313
588311
531846
480063
423602
368323
308888
249429
188417
124892
71316.6
30558
849369
971325
848877
879818
804925
792817
745392
706495
653313
605235
550059
496508
440566
384642
314554
252558
189926
125487
71291.8
29778
1.00617e+06
1.0416e+06
950726
950834
854697
830233
775130
723324
670379
617634
562290
507321
451284
395080
330122
256932
191995
126225
70985.9
29355.2
999379
1.06562e+06
982552
993797
888818
857586
797162
738290
680306
624085
567631
511284
453943
397118
332818
258709
193619
127003
71052.3
29443.8
1.19151e+06
1.20684e+06
1.06567e+06
1.03136e+06
926111
884269
818972
754574
691774
632391
574385
514681
455468
397870
334377
258979
194200
127874
71694.5
29908.9
1.01081e+06
1.24267e+06
1.0466e+06
1.03742e+06
934800
898638
833631
767003
702027
639322
578005
517722
459334
401075
338098
259303
195153
129329
73000.6
30397.9
1.63818e+06
1.34003e+06
1.11992e+06
1.0653e+06
942485
888292
824140
762097
700712
638704
575930
514743
454634
396051
318979
258232
196061
130535
73976.2
30804.6
1.18342e+06
1.23571e+06
1.0869e+06
1.04423e+06
952903
897796
810435
753287
684823
625975
561811
501892
439586
378589
316711
257161
194460
128787
72604.1
30297.6
1.30007e+06
1.24798e+06
1.08349e+06
1.03963e+06
946960
896995
812620
755219
684952
627243
564493
504899
442186
380404
317528
256652
193845
128133
72197.3
30549
1.40659e+06
1.27965e+06
1.0931e+06
1.03956e+06
940002
894412
808826
756822
685779
630108
565734
506923
442980
381320
317763
256704
193520
128277
73163.6
31833.7
1.2195e+06
1.21263e+06
1.01713e+06
1.01868e+06
917460
885164
799741
752369
683056
627727
562826
504033
440270
379348
316576
256037
193306
128754
74045.8
33391.1
1.14294e+06
1.12925e+06
1.00625e+06
994828
915373
876020
799083
750332
680341
625482
559253
501514
437723
377860
315481
255504
193198
129310
75343.9
34655.3
1.0718e+06
1.04812e+06
908480
969264
894664
863498
786634
742300
673116
619861
555173
498304
435762
376506
315000
255414
193624
130540
77397.8
36721.6
883454
991861
893247
963356
890732
860240
782254
737429
670027
617168
553409
496721
434651
375754
314695
255274
193768
131806
79900.5
40395.5
1.10449e+06
1.13198e+06
897101
876893
771086
751556
684385
651374
596704
555071
502688
455353
401338
349245
294653
241081
184946
127035
78699.1
37518.1
1.21871e+06
1.10384e+06
853558
848805
760169
746486
685205
653016
599239
556972
504504
456680
402580
349980
294836
240715
184143
125329
76476.5
36580.3
1.15193e+06
1.05947e+06
837317
835139
762100
749184
688038
658150
604620
562817
508522
460057
404626
351767
295515
240776
183599
124413
75163.3
34994.8
901389
943251
789363
810709
743098
741050
687385
658654
608765
566779
514418
464957
409122
354814
297975
242022
183806
123636
73519.9
33662.5
240304
766339
779232
804852
758670
755190
698871
668043
615078
572670
519298
469992
413905
358581
300505
244374
185118
123667
72279.1
32640.1
427583
772294
771865
798001
754089
753277
704025
672048
624411
579239
526531
475380
419427
363247
304722
246980
186823
124510
71708.2
31800.5
520717
930812
819050
850286
786334
778640
721694
687894
633708
587669
532100
480292
423843
368260
308907
249429
188331
125210
71665.1
31074
874189
980752
845928
880512
805446
792201
746170
706998
653802
605312
550004
496679
440598
384577
314730
252587
190103
125675
71641.2
30408.5
908380
1.03508e+06
949669
950203
855029
830359
775887
723963
670682
617708
562280
506922
450836
394730
330196
256887
192101
126659
71479.9
29910.3
878712
1.06948e+06
982695
991308
886640
856218
797294
738893
681116
624496
567760
510889
453665
396990
332946
258816
193798
127433
71681.6
29912.8
1.19258e+06
1.19644e+06
1.06613e+06
1.02897e+06
921954
881262
818116
754583
692264
632632
574047
514831
455583
398188
334728
259097
194338
128268
72152.5
30207.5
992969
1.2739e+06
1.04193e+06
1.04203e+06
935111
896891
832339
765743
701757
639662
578466
517996
459041
400679
338185
259367
195077
129410
73098.8
30600.9
1.28304e+06
1.31051e+06
1.11252e+06
1.0651e+06
945353
887558
824215
761961
700451
638299
576254
515686
455609
396544
319656
258402
196235
130609
73987.5
30781.6
1.11991e+06
1.2283e+06
1.08532e+06
1.04377e+06
953256
896241
812023
752816
685776
625982
562354
502507
440040
379082
316898
257339
194611
128937
72714.7
30484.4
1.41748e+06
1.26466e+06
1.08615e+06
1.03913e+06
947750
896564
814406
754970
685582
626973
564520
504792
442128
380414
317649
256644
193979
128516
72492.8
30584.1
1.53072e+06
1.2899e+06
1.09765e+06
1.03799e+06
940035
894822
810664
756752
686703
629965
565864
506753
442956
381334
317933
256823
193709
128529
73110.2
31016.7
1.33251e+06
1.2256e+06
1.01918e+06
1.01741e+06
917361
884853
800976
752298
683954
627718
563126
504075
440429
379451
316727
256109
193532
129017
73958.9
31882.2
1.25548e+06
1.13305e+06
1.00253e+06
997871
916113
875818
799752
750371
681219
625671
559663
501560
437885
377905
315618
255560
193363
129392
74961.2
33022.7
1.01964e+06
1.03668e+06
902902
968640
896003
863701
788316
742665
673716
620134
555528
498390
435864
376543
315013
255445
193722
130306
76163.4
34712.6
776248
963052
891611
967613
895717
861177
783104
737967
670197
617557
553597
497087
434901
376069
314899
255578
194078
131361
78337.9
38125.6
581232
627349
586154
623914
581571
628115
586724
525742
571691
529357
567536
525557
572139
529446
587734
636879
591146
630169
588336
637412
591898
531629
576180
531461
574089
532131
576863
531804
734657
786230
745903
771842
734716
786809
745978
681250
732468
689580
721416
681346
732589
689581
629856
675960
634403
668849
629928
676040
634535
574265
620518
578822
616989
574337
620797
578911
520004
565273
523919
561641
520223
565392
524009
464496
510262
467761
507244
464636
510364
467641
408955
453656
410445
451557
409109
453564
410427
351985
396559
353499
395389
351936
396590
353634
750621
813679
766199
795111
750805
813413
766105
692081
750769
702702
736619
692259
750620
702792
636019
686859
641861
678137
636283
687130
642163
580199
627680
585475
622460
580547
627977
585628
525248
571137
528371
566781
525366
571212
528258
468547
514007
469953
511553
468328
513869
469824
410938
455375
412426
453907
410850
455260
412332
353472
398211
355388
396727
353315
398088
355171
771645
835767
783196
821246
771321
835515
782993
706270
766284
715445
755260
706276
766157
715593
644168
699298
651344
690342
644485
699424
651623
587100
635834
590403
630043
587259
636152
590422
529152
575510
530689
572758
529049
575502
530750
470677
516057
472722
514561
470586
516139
472837
413164
458519
415272
456086
413083
458614
415207
356011
400941
357599
398836
355750
400866
357340
785454
838906
788923
836864
785459
838722
788477
718198
772384
723286
768894
718244
772050
722878
653744
707985
660907
702348
653833
707435
660436
590751
643841
593562
638106
590884
643467
593713
530987
577689
531468
576031
531145
577893
531708
472962
516345
472252
516492
473097
516629
472876
415726
458615
416273
459153
415693
458937
416417
357668
402173
356456
401445
357457
402356
356338
734717
786993
746041
773478
734824
788450
746439
681540
732673
689593
722197
682265
733162
689841
630017
676103
634609
669470
630148
676471
634924
574390
620968
579033
617092
574738
621476
579386
520282
565484
524054
561794
520466
565773
524132
464689
510429
467611
507281
464764
510540
467558
409122
453574
410474
451442
408993
453619
410650
351967
396636
353759
395171
351853
396806
353870
750883
813133
766029
796109
751273
812622
765835
692376
750544
702859
737148
692917
750378
703165
636399
687264
642355
678795
636872
687768
643172
580714
628141
585705
623123
581141
628560
585809
525413
571238
528343
567238
525636
571249
528539
468297
513852
469747
511635
468240
513761
469609
410835
455202
412252
453963
410990
454986
411910
353422
398001
355117
396910
353592
397632
354823
771177
834943
782822
820208
770769
833552
782156
706329
766054
715614
754801
706564
765612
715620
644705
699472
651739
690879
645706
699620
652121
587391
636279
590485
631042
588024
636701
590904
529110
575549
530810
573577
529180
575928
531213
470540
516220
472891
514598
470387
516568
473018
413017
458616
415181
455806
412684
458583
415063
355674
400830
357264
398388
355333
400672
356949
785367
838436
788176
835692
784771
837354
786936
718213
771832
722657
768397
718024
770880
721932
653868
707142
660182
702269
653997
706233
659228
590996
643310
593806
638510
591497
643053
594454
531241
577998
531825
576640
531607
578633
532425
473172
516786
473137
516996
473432
517551
473923
415686
459114
416458
459364
415664
459735
416534
357404
402415
356389
401397
357185
402506
356426
734928
788799
746622
774861
735293
790019
747288
682623
733389
690037
723114
683564
734165
690991
630108
676671
635070
670254
630112
677541
635543
574894
621652
579467
617509
575287
622152
579761
520458
565849
524109
562223
520435
566099
523887
464722
510528
467541
507276
464461
510281
467459
408864
453623
410675
451322
408578
453545
410634
351819
396826
353924
395102
351684
396775
353776
751457
812333
765800
797062
752109
812260
765841
693159
750362
703301
738076
694112
750477
703798
637098
687969
643326
680005
637754
688618
644126
612111
609181
625753
623520
611729
609309
626217
553837
553340
568533
567350
554061
553375
568426
468231
514031
469617
511409
468149
513960
469616
411030
454928
411793
453970
411134
454940
411723
353694
397507
354826
397085
353725
397467
354945
770657
832837
781905
819352
770403
831482
781122
706667
765438
715608
754601
707033
764843
715529
646000
699661
652272
691584
646866
699734
652670
618617
616818
633054
631664
618404
616940
633467
560902
558648
574784
573944
560028
559458
575652
470337
516722
473004
515068
470243
517017
472850
412538
458551
415001
455464
412111
458345
414697
355300
400596
356902
397837
355190
400254
356418
784498
836573
786411
834130
783524
835349
784821
717939
770463
721699
767401
717619
769089
721224
654060
705918
658955
702086
654286
705315
658446
591733
643008
594799
639177
592577
642998
595571
531745
578940
532679
577770
532174
579770
533698
473498
517858
474111
517607
473540
518960
474701
415621
459944
416530
459371
415389
460500
416437
357189
402512
356670
401173
356838
402336
356828
735471
790278
747485
775834
736047
790915
748033
683803
734391
691301
723780
683915
734899
692031
630147
677815
635678
670633
630553
678435
635980
575385
622294
579862
617729
575464
622589
580037
520402
566158
523804
562296
520329
566229
523598
464371
510177
467356
507044
464152
509888
466920
408494
453495
410559
450969
408318
453073
410305
351775
396720
353805
394848
351926
396541
353687
752286
812088
765871
797399
752769
811959
765988
694421
750542
704015
738800
695161
750750
704475
637929
688859
644559
680988
638298
689374
644918
581694
629800
586493
624445
581885
630495
587028
525384
571844
528596
567737
525020
572303
528547
468105
513767
469613
510966
467878
513944
469696
411171
454953
411779
453732
411026
455066
411984
353805
397539
355129
397024
353790
397785
355354
770318
830785
780829
818492
770194
829783
779878
707187
764575
715483
754579
707513
763876
715337
647050
699742
652783
692174
647135
699727
653063
588918
637598
592091
632542
588869
638047
592413
529478
577002
531780
574089
529571
577287
531888
470221
517049
472767
514823
470246
517129
472505
412120
458221
414519
455542
412302
457915
414086
355405
400096
356415
398103
355633
399801
356277
783083
834638
784414
832831
781795
833298
783987
717515
768722
721088
765964
717188
768148
720724
654361
705071
658306
701821
654554
704767
658322
592869
642894
595714
639652
593349
642600
595924
532291
579933
534053
578431
532535
580447
534901
473518
519312
474896
517970
473336
519980
475437
415267
460656
416425
459117
414810
460881
416348
356882
402323
357220
400753
356623
402095
357172
736327
790927
748204
775326
736610
790333
748494
683837
735001
692180
724237
683493
735142
692435
630732
678536
636073
670675
630594
678697
636278
575410
622603
580045
617736
575217
622653
580071
520327
566227
523560
562163
520131
566190
523504
464084
509790
466849
507027
463801
509558
466699
408290
452970
410254
450727
408009
452785
410165
352012
396482
353858
394717
351965
396372
354095
752894
811815
765988
796742
753072
811302
766030
695308
750770
704585
739000
695542
750835
704774
638372
689491
645004
681342
638543
689694
645191
581913
630584
587110
624576
581965
630728
587279
524975
572376
528550
567810
524961
572523
528703
467813
513971
469690
510719
467648
514041
469631
410986
455098
412054
453522
410887
455103
412174
353896
397862
355550
396912
354073
397984
355786
770171
829318
779628
817438
770106
828555
779350
707590
763681
715284
754535
707740
763436
715273
647209
699695
653123
692443
647376
699726
653249
588868
638108
592470
632749
588900
638148
592547
529567
577343
531939
574034
529726
577425
532011
470247
517148
472489
514929
470230
517112
472449
412393
457912
414101
455631
412553
457911
414177
355769
399807
356485
398343
355959
399851
356607
781545
832821
783907
831329
781425
832825
784227
717125
768051
720562
765553
717110
768231
720440
654609
704693
658293
701702
654742
704985
658269
593416
642613
595786
639646
593490
642754
595574
532581
580432
535040
578481
532680
580688
534943
473299
520053
475501
517950
473253
520340
475278
414771
460843
416341
458897
414787
460981
415993
356726
401997
357416
400571
357105
401915
357438
597565
595320
582956
581303
597379
595424
582972
612424
626735
615296
628775
612504
627293
614158
598092
584314
600864
585941
598577
583811
600605
612325
623728
609686
626436
609485
626438
612336
597744
581423
595773
583365
595580
583115
597902
612732
628990
627434
616288
627543
614690
613326
598345
586226
584771
601671
583997
600964
599293
539522
539710
525714
525789
539755
539799
525531
555472
570091
557134
571601
555858
569605
557353
542509
528348
542791
530203
542416
528508
545068
553868
567435
553417
568822
553401
568530
554165
539506
525724
539669
525625
539780
525512
539735
555493
571813
570415
557460
569733
557393
555978
542430
530579
528285
542802
528522
544946
542377
604838
602514
589356
588131
604025
602464
590238
621939
635829
621444
637083
621025
636486
621659
606667
590604
606371
591438
605946
591106
606635
618971
631915
617731
633747
617547
633686
619205
605122
588387
603090
590021
602671
590502
604771
622196
637259
636499
622056
636692
621861
621829
606903
591704
591301
607082
591345
606879
606714
547092
544029
531055
531087
545783
544772
531983
559960
575398
561164
576483
559885
575740
561420
544121
529793
546375
531703
544389
529592
546636
561070
574135
559140
575334
559669
575853
560475
547255
531338
544317
531397
544779
532205
546107
560083
576722
575969
561658
575927
561575
560304
544247
531816
530180
546785
529711
546770
544788
731091
758813
733437
745202
730476
759172
733266
673939
710766
679221
701661
674655
711240
679120
629343
659683
631326
651990
629608
659908
631302
576348
609659
576708
603783
576385
609751
576401
523761
555565
523718
549938
523794
555595
523685
468051
501614
468103
496162
467996
501701
467967
413978
446249
413635
440611
413918
446321
413429
357409
390964
356408
385410
357277
390860
356067
785806
842649
792781
825683
786379
843096
793581
761196
760677
777440
771333
760700
777609
761146
710806
708950
726064
721266
708954
726078
710887
657609
656598
672967
668705
656638
672974
657640
602948
602361
619386
616935
602343
619326
603066
547709
547937
564258
561677
547905
564190
547838
492529
492831
508709
507206
492857
508782
492548
437359
437669
453822
451569
437704
453918
437406
380352
381492
397124
395389
381449
397228
380258
302335
334515
300192
330259
302233
334706
299940
815551
872544
830788
860549
815676
872358
830612
784254
779193
801270
794906
779237
801246
784185
725580
721375
740723
736433
721500
740793
725480
666029
663879
680459
677985
663902
680476
666008
609780
607770
623742
621995
607886
623859
609630
554182
552761
567811
566496
552788
567948
554087
498287
497326
512577
511480
497350
512610
498285
439719
439382
454266
453933
439343
454239
439706
382761
382477
397081
396779
382454
397053
382788
301592
333075
303142
332187
301546
332966
302995
847992
899617
856470
888847
847999
899261
856377
809184
804051
827506
821335
804039
827268
809285
742921
739257
759795
755590
739171
759753
742958
677298
674300
693185
690171
674402
693250
677206
617333
615483
631800
629806
615518
631858
617293
559179
558121
573822
572649
558118
573830
559167
500556
499921
515170
514558
499911
515179
500552
442664
441794
457098
456152
441767
457087
442702
385397
384705
399682
398924
384693
399666
385417
303486
335230
303669
334152
303378
335141
303627
860503
905380
864344
901347
860766
905099
864502
820271
819729
838512
836851
819729
838536
820274
753982
751616
771247
768876
751689
771272
753956
688756
686077
705402
702345
686064
705384
688795
623285
621649
640639
637965
621705
640642
623230
560992
560820
576479
575952
560829
576572
560947
501798
501700
516653
516360
501722
516707
501761
444914
444575
459311
458980
444596
459372
444875
387097
386903
402189
401449
386887
402195
387119
302332
332847
305846
336853
302277
332828
305826
793616
827509
795232
827848
793608
827247
795095
729843
762773
733132
764422
729522
762488
732995
668971
702572
672598
703163
668535
702124
672360
601131
637536
606003
639250
601009
637257
606007
538238
572722
542919
573690
538320
572666
542992
476284
509749
480501
511309
476491
509884
480521
419815
448725
420536
451822
419670
448777
420830
360204
391270
363161
395346
360193
391411
363131
729977
759203
732661
744573
729842
759631
732196
676934
711930
679923
703614
678936
712893
680869
629968
660418
631292
653041
630208
661256
631077
576596
609925
576148
604565
577090
610162
576332
523926
555620
523665
550169
524095
555630
523601
467969
501814
467761
496307
468078
501879
467551
413848
446368
413125
440614
413727
446309
412762
357265
390683
355836
385019
357020
390481
355451
788012
844005
795117
827775
790763
844701
796867
761538
761128
778714
772699
761427
761347
779411
710581
708990
726420
721692
710565
709027
726609
657480
656927
673053
669117
657490
657010
673139
602636
602512
619226
617013
602574
602652
619402
547406
547766
563756
561555
547408
547829
563748
492577
492968
509086
507284
492579
493003
509201
437191
437734
454156
451529
437241
437700
454203
380487
381217
397697
395296
380557
381130
397766
302237
334812
299730
330208
302001
334919
299386
815835
872309
830121
860581
816258
872104
829305
784171
779310
801198
795499
784167
779409
801307
725957
721885
740999
736835
725860
722005
741091
666557
664146
680821
678376
666344
664295
681046
610695
608589
624389
622798
610434
608777
624633
554347
553019
568351
567026
554360
553100
568446
497862
497247
512462
511599
497959
497180
512329
439685
439355
454145
453924
439698
439400
454168
382595
382479
396888
396778
382614
382568
396848
301764
332816
302999
332438
301741
332743
303053
847596
898777
855794
888660
846554
898624
854285
807887
803472
826403
820731
808223
803263
826200
742497
738797
759275
755005
742603
738715
759108
677932
674878
693557
690583
677762
675068
693675
617726
615950
632216
630451
617586
616392
632393
559477
558121
573977
573006
559361
558110
574085
500629
499854
515308
514555
500608
499817
515374
442458
441625
456972
455967
442521
441552
456918
385103
384513
399510
398655
385209
384400
399420
303460
335037
303691
333919
303280
335027
303606
860629
905163
864617
900701
859765
905176
864351
819805
819424
838620
836458
820021
819152
838473
753685
751620
771253
768726
753830
751515
771140