/*--------------------------------*- C++ -*----------------------------------*\
  =========                 |
  \\      /  F ield         | OpenFOAM: The Open Source CFD Toolbox
   \\    /   O peration     | Website:  https://openfoam.org
    \\  /    A nd           | Version:  10
     \\/     M anipulation  |
\*---------------------------------------------------------------------------*/
FoamFile
{
    format      ascii;
    class       surfaceScalarField;
    location    "8.9";
    object      phi;
}
// * * * * * * * * * * * * * * * * * * * * * * * * * * * * * * * * * * * * * //

dimensions      [0 3 -1 0 0 0 0];

internalField   nonuniform List<scalar> 
38556
(
1036.72
-1969.6
107.845
1424.25
-787.182
399.65
1555.72
-367.987
236.52
1538.74
-167.742
184.721
1201.94
-37.0363
373.834
1047.43
-36.8492
191.363
943.037
-54.8481
159.24
960.913
-104.372
86.4958
1002.78
-129.293
87.4251
1132.99
-168.097
37.8867
1289.46
-166.057
9.58526
1405.33
-119.702
3.83825
1394.76
-30.1736
40.7422
1265.72
40.397
88.6434
1079.79
88.9816
96.9474
965.362
91.6947
22.7315
909.5
89.7122
-33.8508
876.141
84.6347
-51.2755
854.147
71.251
-49.2566
55.4085
-31.7432
273.921
-1549.76
1616.18
613.413
-936.878
-189.796
725.144
-566.112
86.3938
829.44
-265.446
-6.59147
767.811
-102.478
127.07
796.016
-93.9723
28.9179
771.987
-102.451
71.6327
795.682
-133.396
5.32929
789.482
-141.353
18.2604
799.356
-147.337
-30.634
793.805
-125.63
-34.8763
814.474
-91.6162
-48.754
823.856
-24.0724
-15.483
811.22
48.1095
4.92273
800.044
81.4029
18.7548
794.49
83.9354
13.3134
787.219
86.2129
10.7703
770.048
82.9552
18.8507
730.019
77.1537
34.1261
62.0175
36.8585
-168.991
-982.098
-1313.63
346.077
-687.666
-764.28
600.693
-489.123
-331.605
759.751
-269.317
-155.187
711.377
-95.379
41.2752
751.085
-82.9892
-50.6911
694.767
-65.636
19.5022
676.88
-70.8176
-44.6914
610.782
-66.2981
-8.95687
553.523
-56.3172
-33.7605
477.867
-40.0479
-9.92529
437.447
-21.7505
-29.4465
441.074
-14.1538
-13.5453
477.271
8.20224
3.71076
525.092
18.6483
14.9327
568.728
27.8923
12.4068
593.488
46.1242
15.3296
594.11
55.8126
26.5204
576.013
68.4528
26.7974
63.92
27.9763
-752.315
-961.09
430.058
-270.779
-588.823
-580.378
229.153
-470.741
-518.313
433.933
-340.27
-133.828
428.919
-139.997
49.6333
446.706
-100.144
-0.632385
419.898
-79.9244
41.097
412.785
-46.1878
-17.5174
388.436
-45.8115
3.86266
356.772
-18.3779
-6.27482
327.309
-19.6316
9.04655
312.037
-10.6103
4.13207
313.806
-21.2917
5.36827
334.932
-16.7881
3.86372
365.113
-18.2351
6.70246
400.262
-10.6606
3.40452
430.288
8.59959
7.49803
442.812
30.6088
12.68
445.717
53.3591
12.1893
54.0967
23.7076
-247.509
-1297.36
1054.05
-126.563
-674.671
-35.0982
173.073
-406.923
-363.454
197.756
-374.526
9.57229
265.323
-212.276
4.71197
309.53
-150.563
6.21265
357.656
-174.001
45.9499
382.651
-79.6033
8.42083
389.798
-89.2628
36.3046
388.932
-32.5377
15.0256
380.541
-32.384
21.1437
373.568
-8.95946
5.32191
370.759
-28.81
10.3274
375.154
-30.0105
8.82705
384.63
-39.8773
12.1663
396.575
-26.4648
3.85946
408.904
-8.36147
4.63244
415.585
17.5211
6.40639
417.611
44.0649
7.26796
50.425
18.5634
-1257.57
-1546.19
-614.721
-632.769
-1018.44
-281.032
-160.03
-690.307
-189.356
-14.8493
-538.185
18.4787
212.184
-426.124
-13.186
312.949
-249.167
-2.16014
454.747
-335
19.2005
486.611
-91.1897
-20.2777
497.915
-104.233
3.66576
494.542
-23.2444
-5.92017
484.114
-32.3159
10.3601
469.119
-0.0780711
6.11303
442.638
-27.8457
25.5172
408.761
-23.375
27.2414
382.639
-33.4016
19.6464
370.712
-20.5335
5.99605
370.987
-6.07029
-2.56615
372.624
16.4461
-0.562861
372.19
39.4202
5.07918
46.2102
18.1416
-20.0513
-665.871
2755.54
-31.4529
-516.329
-490.705
-100.3
-369.413
-252.046
-22.5711
-559.061
-56.853
139.674
-488.41
-99.9588
62.9278
-152.458
-19.9629
181.332
-75.5333
-39.8236
-132.344
-77.1489
-128.554
231.945
-50.3571
-1.19495
-30.9374
-37.5729
-21.7409
301.709
-26.3009
-32.121
-49.0719
-18.9842
-47.5182
332.325
-6.57811
-15.0167
-14.8922
-4.57386
-12.7996
344.023
-0.779567
6.45002
-24.0596
-0.794267
-24.8307
340.668
5.53545
17.1261
-11.5269
4.67887
-12.5369
323.774
3.30146
24.8538
-20.2241
2.20947
-21.0921
308.839
1.09015
22.973
-17.3102
1.52524
-16.7176
300.704
-37.1627
11.896
301.541
-24.8629
3.49221
312.317
-12.0693
-4.77702
325.259
5.72409
-2.21979
335.414
27.4238
1.84108
37.6928
17.5619
-231.893
152.202
-1036.22
-334.967
-151.75
-261.505
-212.414
-415.666
-76.2995
-117.035
-590.327
-64.1127
168.575
-642.848
-131.172
56.9714
-58.6762
-15.9591
54.7185
44.2121
38.9705
-22.5224
-57.5577
-24.0405
48.6116
-63.063
-4.11055
-22.8054
54.2263
-67.606
-14.172
-82.4897
91.0084
-30.2253
-4.59431
-93.8305
100.691
-12.4444
-0.994688
-103.042
100.63
3.13159
-1.49882
-97.2244
96.9589
4.07745
1.72346
-94.9051
88.5962
5.99083
3.61953
-80.195
72.5254
3.18678
5.5729
225.74
1.68295
12.3128
-64.5023
-67.0598
-55.2767
-55.201
-18.1165
1.03357
-17.7759
228.867
-27.9912
0.00111762
239.532
-15.1877
-7.54594
259.182
-5.93121
-7.99494
276.976
13.6688
-4.0395
25.4614
14.4531
-1569.18
1556.6
527.604
-540.291
-315.831
-864.814
34.6529
-608.142
-382.468
-120.935
-464.568
29.8291
21.4525
-650.15
-104.75
-17.957
8.55882
-20.9371
72.5622
-90.5705
-19.2154
10.6631
-30.0916
29.8928
-7.87799
-2.5862
-30.0126
16.4194
29.626
-14.3479
-1.68492
-27.4575
10.101
26.7391
-8.73769
-0.644996
-25.2881
2.06235
26.419
-2.28946
-0.903834
-26.3811
-1.80142
27.2294
1.54895
-0.595861
-26.924
-0.984469
28.282
-0.651761
0.278228
-28.2623
-1.57406
28.8316
0.244179
0.760659
-25.6408
-2.72466
24.6003
3.28681
0.47831
-19.5832
68.4794
6.55318
3.97444
-20.9002
-18.1438
-18.6968
215.207
-12.6446
6.57781
-61.0266
-66.65
-52.8144
-56.6404
217.238
-18.0676
0.849095
230.123
-14.8424
-3.97406
248.59
-2.89537
-1.90249
11.5833
14.6491
-632.005
151.625
-12.0951
-176.646
-278.611
-492.579
303.794
-456.291
-632.291
245.686
-205.725
-200.735
50.2292
-456.7
-225.122
78.5765
58.2552
90.2973
108.587
59.8183
-105.855
-12.321
21.7278
-13.2175
12.8369
-21.7795
0.432282
14.2425
-15.3428
17.082
-15.6335
-0.348206
8.90078
-22.6597
24.3659
-10.1519
-0.455003
4.03962
-28.784
30.1293
-4.98477
-0.400114
2.43691
-33.6899
34.3809
-3.73152
0.603523
3.81132
-34.1306
33.4733
-3.48624
0.332301
2.08592
-31.3483
30.829
-1.38533
-0.181265
-2.47222
-29.9172
29.7483
2.27083
0.37035
-27.5459
-6.24301
90.5795
12.0462
8.62208
-27.8468
-24.7029
-24.9092
242.081
7.39617
2.01576
-72.1714
-68.4293
-61.681
-61.8555
242.329
-20.0199
1.70428
249.099
-20.5383
-1.07431
255.382
-9.27553
0.0972526
4.93393
13.0354
1709.97
14.1265
695.141
1695.36
233.406
-497.405
1196.57
155.921
-113.424
1039.15
86.0061
-134.314
159.642
-23.446
-107.126
161.851
194.334
197.197
97.7509
152.541
-75.8214
-14.8276
23.2123
-32.5442
30.2633
-21.0983
0.166974
16.6039
-26.8134
25.528
-14.0686
-1.24992
12.413
-23.5508
24.1013
-12.6585
-0.305012
7.6892
-26.9864
27.5405
-8.17715
-0.0661397
4.98371
-27.6424
27.5758
-4.99785
0.0807672
2.82935
-27.603
27.8324
-2.65068
-0.408115
0.265511
-28.8025
29.2568
-0.196336
-0.523422
-2.35215
-29.5959
28.8219
2.91293
0.213221
-22.7555
-17.4055
77.1124
23.3678
5.41937
-22.355
-21.7083
-21.6753
263.398
53.8981
-36.8951
-68.3057
-70.1134
-64.6334
-69.9529
275.544
-16.13
-16.0353
287.929
-28.5096
-4.41408
291.463
-13.4373
0.62834
2.91821
12.2374
40.7266
-1599.01
2461.27
581.995
-235.655
-72.2083
653.348
17.472
67.0948
685.654
138.502
-84.801
109.37
213.317
-62.4248
121.366
134.046
146.535
45.4399
105.098
-39.9217
-1.24586
13.3224
-25.1147
24.9919
-14.5955
1.39597
11.2542
-23.2249
23.3812
-11.7896
0.379083
17.0698
-23.9912
23.7756
-17.0312
0.177141
12.1988
-22.8343
24.369
-13.8315
0.0980184
4.3081
-26.0038
26.15
-4.86022
0.405903
2.90655
-26.1561
26.6313
-3.3276
-0.0541467
0.811343
-29.0358
29.9874
-1.30535
-0.457564
-2.92055
-31.8275
32.6007
2.10595
0.0413946
-27.2582
-30.2347
100.748
32.6084
9.89966
-29.8039
-26.6896
-29.2696
419.877
108.712
-49.219
-92.6604
-119.321
-96.4778
-117.012
392.367
45.8251
-34.445
357.588
16.1337
-9.86366
324.98
12.5108
6.65905
9.84504
18.741
1678.19
-1544.55
3532.45
1236.12
-669.494
875.906
650.803
-36.6339
639.425
512.613
172.723
103.968
496.389
194.641
34.8991
114.593
-115.861
-30.0777
41.2134
63.8782
31.9645
56.0006
116.767
107.911
110.001
9.88398
114.673
-23.8041
-5.23616
4.60155
9.72875
4.74554
8.95148
-84.1686
84.4469
-31.3192
-0.658983
6.33989
9.3792
7.02937
14.294
-82.7241
80.1848
-49.5977
0.680533
11.1973
14.5566
11.4084
13.962
-57.0771
53.6142
-49.5867
2.91747
11.028
14.0082
11.1339
12.0615
-53.8313
63.2654
-51.4572
0.893494
8.70339
11.8745
8.49029
8.69183
-62.6312
79.3674
-42.4715
-1.21748
5.13468
8.33257
4.79378
5.10269
-88.72
110.156
-27.1498
-4.32155
0.250838
4.84131
-0.159119
1.3107
-117.283
135.581
-8.91139
-3.19632
-3.81097
0.674179
-4.36376
594.588
83.0934
-4.31025
-32.8031
-45.1218
-33.2244
-43.4115
-140.064
-128.916
-128.593
-121.238
610.956
90.852
1.4912
558.104
89.876
8.80126
460.484
80.9541
32.7997
372.383
64.6996
35.9129
33.9376
25.7463
1779.31
-2798.67
718.689
1436.11
-1761.22
1434.92
638.787
-296.079
1056.77
549.827
18.8667
242.816
555.095
111.926
77.4483
493.208
-22.4393
-31.5355
473.676
102.158
-20.301
10.3543
-40.6222
7.95619
-40.0128
429.667
-72.0642
-36.3268
31.5948
42.3524
34.2667
44.1855
402.642
-44.3248
-15.4794
34.4513
9.22703
33.76
9.39179
352.218
-109.805
-18.0921
46.2529
42.7934
47.1545
42.1199
305.456
-116.432
15.3907
48.0817
27.4805
46.3563
25.884
276.852
-147.842
14.142
47.6662
35.659
45.9523
33.0265
297.369
-106.249
-2.8695
35.6909
12.0679
32.6072
8.23568
360.902
-55.8267
-23.6755
16.7112
-6.3184
14.7026
-9.12579
421.037
23.1507
-0.192943
432.393
61.1622
18.3343
402.997
87.3385
31.9338
356.892
92.4296
34.6295
322.833
78.3229
20.4354
40.956
15.0155
2947.18
-2647.4
3889.9
1766.45
-1036.73
456.242
1004.34
140.818
325.214
821.085
205.842
-3.72374
735.17
262.961
-65.1197
717.189
139.809
-144.268
755.901
136.758
-73.3114
759.719
17.2922
-93.1751
740.366
17.9426
-42.9144
688.654
-41.8736
-16.2197
556.641
-37.0883
52.6701
412.271
-58.1704
54.6975
314.318
-34.9556
26.6596
270.676
-21.7396
9.55502
267.881
29.6008
-3.65486
276.775
59.682
-7.41364
295.142
79.6145
-10.6436
316.671
79.2142
-8.31348
343.211
64.2075
-12.4244
36.1484
-1.54936
1450.12
-1936.57
1712.57
879.678
-375.779
-90.5024
807.135
419.709
-206.348
813.815
364.451
-165.289
795.023
370.631
-88.8779
814.141
230.423
-109.731
791.385
180.921
-21.4069
778.577
66.8869
-36.7872
730.224
49.0111
17.2846
671.836
-7.87086
24.385
564.467
11.498
58.7834
465.636
-6.78174
47.4416
386.626
3.94688
40.1081
335.737
10.4941
18.6549
324.693
29.1563
11.4886
331.341
48.353
4.68113
359.213
56.1953
-4.45233
397.17
54.1311
-12.8743
440.263
38.5896
-17.4751
24.6646
-3.18357
-469.329
-2036.75
1821.07
92.6456
-125.8
-811.953
543.204
58.2461
-89.0957
647.52
261.024
-0.88921
701.752
221.922
94.4772
723.555
174.949
33.6715
697.374
114.421
92.6812
669.19
49.0856
45.985
619.198
30.4501
68.5532
570.887
0.743138
39.6972
527.559
7.96858
46.8573
496.802
-2.20729
26.1827
475.109
-0.416989
26.0572
463.786
0.169801
21.6469
462.959
7.02968
22.9546
473.409
22.4024
15.4997
495.492
26.4411
7.67189
518.896
26.2663
4.46029
537.981
16.9907
2.5147
12.4573
12.6376
1735.94
-405.528
-74.9316
1534.62
261.878
-186.357
1118.61
433.407
40.8465
997.445
313.067
69.1217
828.569
272.503
118.295
770.437
164.404
68.676
699.004
97.1211
88.733
669.335
32.5191
46.2361
627.522
3.47452
68.7887
593.918
-6.0995
40.4472
560.47
-5.44582
46.8616
537.636
-7.5339
28.1605
521.45
-9.65606
25.4251
514.286
-10.2939
17.6281
512.906
-9.11183
17.522
523.371
-5.00115
16.9381
539.043
-3.20121
13.9705
550.025
-2.0742
17.358
555.936
-3.96615
15.0459
-4.9558
23.4024
-850.757
142.265
3314.74
-15.7361
16.0827
-589.225
437.722
346.601
-366.652
567.637
336.783
-153.632
647.853
274.224
-81.9365
678.838
165.27
-31.8513
677.231
53.1853
45.5429
685.974
-12.0546
35.8303
671.332
-52.3038
70.42
663.692
-46.2546
47.7955
645.684
-31.7444
44.3066
630.237
-10.6166
18.5298
611.313
-3.08412
12.352
595.486
9.26972
-3.73652
582.469
12.3571
-8.45199
574.232
18.5221
-15.2868
569.425
18.0965
-16.4898
564.477
17.9733
-15.0996
563.825
16.5683
-19.8826
10.4525
-10.9114
-28.774
-1596.26
161.965
-174.657
522.554
-13.9878
679.343
179.994
840.695
112.872
977.523
28.4426
1009.51
21.1943
1009.89
-12.4332
939.231
18.3583
887.128
5.84856
837.207
18.1767
814.679
11.9113
802.851
8.74398
801.671
10.4496
803.947
10.0815
811.758
10.7109
819.788
10.0664
826.866
10.8947
841.09
2.34459
6.76136
559.711
-1091.47
-1809.54
899.984
-676.558
735.936
1018.8
-322.818
440.518
1078.46
-92.8093
217.877
900.22
50.4787
501.594
849.892
36.9072
204.784
788.177
7.20826
213.746
819.904
-34.2018
88.9705
857.308
-47.103
97.1244
921.236
-55.4226
29.3814
962.908
-43.8642
11.7767
994.147
-24.8504
-2.55013
975.755
12.3118
46.8222
915.95
49.6126
98.8357
827.128
71.0061
114.764
757.22
57.4174
35.2219
711.175
43.1931
-30.9993
674.901
27.2642
-42.2656
646.509
16.3115
-37.1764
12.3387
-15.4113
565.087
-2447.81
-1765.91
85.9226
-668.372
281.183
418.492
-431.566
-137.427
474.2
-137.408
-17.7015
479.671
-19.1054
191.183
515.409
-22.0558
52.1424
515.021
-30.1815
109.411
530.908
-53.9343
9.1744
530.659
-53.7069
25.1135
539.162
-53.2247
-41.3346
538.259
-39.2211
-38.6168
543.297
-18.7852
-59.8568
546.773
11.9487
-18.5958
551.38
47.4785
2.44993
555.895
63.8105
21.4346
554.877
61.0554
10.693
544.302
55.9125
8.6269
524.731
47.9173
17.768
497.618
46.2485
31.3021
38.5992
39.8376
109.177
-1463.65
-769.086
113.982
-572.254
-865.203
139.092
-404.468
-383.813
220.595
-207.26
-166.837
307.43
-67.7772
3.11186
354.731
-57.0292
-63.0182
359.589
-38.717
23.1793
351.086
-33.7652
-56.3581
322.206
-29.5353
-4.24781
293.739
-20.9905
-37.5279
277.753
-20.7364
-12.4237
274.849
-16.0664
-29.2614
291.537
-8.2634
-10.0211
325.331
12.5536
4.84158
364.647
21.9908
17.437
393.634
30.7482
13.7262
408.098
40.8894
15.8888
407.478
45.759
29.2989
395.11
54.5612
30.8532
48.0401
40.2253
-493.666
-730.431
55.906
-256.393
-492.948
-896.958
-93.6784
-429.858
-655.639
31.8334
-297.53
-169.071
137.367
-118.718
-4.95989
167.165
-88.1264
0.667169
210.954
-70.6534
29.244
199.757
-30.7845
-9.30065
194.401
-29.2488
8.93217
165.47
3.02137
-1.35551
162.185
-17.053
8.64839
161.116
-11.0909
0.225197
180.619
-21.8002
-0.597813
209.666
-13.5874
0.957716
243.522
-10.0215
4.85828
271.514
4.17212
1.98839
292.785
21.1075
6.00935
301.741
35.8866
13.5964
304.935
48.8672
14.6893
45.4562
35.6244
-289.13
-1101.08
14.7647
-22.9684
-450.557
-343.65
-31.7188
-281.065
-503.497
1.58071
-306.396
-14.8616
87.2014
-154.828
-44.7981
76.156
-91.187
20.3191
149.786
-122.096
23.7629
140.707
-30.2339
16.9497
167.692
-47.8923
27.9626
161.108
10.4161
14.2144
173.698
-27.4303
18.9318
175.13
-11.5605
4.35898
190.481
-33.8788
7.05587
206.216
-26.7616
6.26519
226.01
-26.7021
9.05275
243.769
-12.5596
2.83278
258.677
8.91299
1.9188
267.722
25.979
7.26945
272.983
41.5336
9.33978
42.3629
30.1036
-1857.75
-488.554
-1089.06
-868.256
-681.746
-1039.34
-390.635
-544.783
-403.258
-221.444
-453.807
-3.30011
-30.9165
-326.083
-32.4591
18.5884
-145.652
2.79926
203.608
-279.595
-8.31977
198.632
-25.9426
-19.5922
225.098
-74.9933
4.30012
220.04
14.4477
-4.89321
226.237
-33.7386
10.4709
221.734
-10.6244
9.6799
222.672
-33.4066
24.1079
221.078
-23.9127
25.9861
220.384
-25.0602
18.6987
221.275
-13.8648
6.40979
224.951
5.30403
-2.63288
232.105
20.9172
-2.6552
237.637
35.0421
6.03834
37.2673
29.1623
-448.563
-263.783
3289.03
-296.89
-556.272
-767.851
-266.867
-347.848
-479.004
-189.462
-528.082
-59.9834
-45.1151
-432.343
-138.046
-125.945
-87.1248
2.34057
-23.9934
-69.4624
-46.7956
-118.973
-71.1522
-114.987
1.98338
-16.5687
-11.791
-9.30529
-9.17669
-6.27283
60.0115
-15.5426
-41.2997
-45.3705
-16.5653
-46.3646
86.0941
0.706686
-8.39852
-9.87354
1.00317
-10.0894
122.287
-2.55029
-2.96769
-26.4899
-3.95485
-27.5183
134.512
3.05208
18.269
-14.1723
2.22258
-15.0948
146.254
0.151317
24.9785
-22.0921
-0.914734
-22.418
152.311
1.57052
22.7049
-16.6784
1.74563
-16.3397
160.806
-32.1923
10.5334
167.036
-18.5708
1.96789
180.144
-8.11719
-4.46457
195.977
9.07979
-6.21474
210.988
23.0125
-1.14006
28.8053
27.653
523.368
137.935
3241.89
-186.36
-272.76
164.712
-343.438
-468.423
201.353
-259.333
-652.031
-24.2694
-54.5319
-637.381
-130.935
-6.74498
-43.5597
5.8206
-9.72505
-18.5821
-21.9472
-14.3017
-36.8069
-11.7693
-2.02523
-9.49531
-61.566
-3.12086
18.2845
26.5409
-2.44675
-42.3017
-16.6457
7.23743
-17.803
21.7481
-18.7601
-7.96498
4.82003
-21.8546
33.8042
-9.4207
-6.64226
2.22218
-41.6826
42.7834
-3.59035
-2.28286
-2.43112
-40.925
44.3005
-0.136443
2.24411
-6.22202
-44.9664
42.7857
1.87767
6.67637
-8.1615
-39.3514
38.7821
1.74134
8.55996
122.4
1.44755
12.6733
-35.1165
-36.9793
-24.3625
-26.6483
-17.394
1.21037
-17.11
131.431
-26.024
-1.57667
138.928
-14.6449
-8.51585
158.274
-5.70007
-12.5609
178.122
8.79899
-9.67387
16.4579
23.8487
315.896
1144.69
-130.517
-204.181
-342.164
-275.332
-58.3691
-598.469
-398.234
-216.348
-507.014
42.7912
-22.323
-649.405
-168.147
-40.474
-31.7703
-46.3595
27.5577
8.42042
-81.4315
-20.4292
5.09786
13.1272
-14.0735
13.144
-11.4175
-5.87801
3.16439
-11.7854
15.0847
12.1939
-15.6168
-3.04076
1.6716
-13.6099
7.52135
13.8601
-7.71199
-1.73116
1.8897
-12.755
2.67664
13.7781
-3.71121
-1.87821
0.260124
-14.2775
1.17521
15.3715
-1.99574
-0.533579
-0.62993
-15.2139
-0.0712371
16.3479
-1.10587
0.67307
-1.54372
-15.5753
-1.35641
15.8394
0.99451
1.64147
-1.67601
-13.2412
-1.7925
13.2073
1.61674
1.88567
-11.2729
-4.68849
41.1353
3.87106
5.06477
-11.835
-10.1236
-10.7036
128.577
-18.463
10.7669
-36.805
-41.6998
-28.7439
-33.0783
134.144
-20.4473
1.08448
148.066
-15.8651
-7.73162
168.232
-5.78622
-7.48355
4.3784
23.0852
251.813
736.12
2175.24
258.98
-369.81
-472.1
384.223
-435.881
-920.122
259.626
-210.238
-372.915
37.8619
-437.762
-368.756
66.7063
30.7668
56.282
18.8824
104.351
40.2237
-103.012
-22.5827
-0.55657
22.9301
-11.3425
12.6034
-23.8794
0.244985
-0.155695
17.4908
-13.179
14.0169
-18.501
0.327893
0.770197
10.2277
-16.9406
17.9818
-11.3309
-0.708349
0.569333
5.96742
-20.2191
20.9003
-6.67731
-0.540639
-0.475167
4.48818
-21.9103
22.0881
-4.5529
0.36212
-0.277144
3.27161
-21.6009
21.4081
-2.99694
0.195317
-0.0440868
0.372984
-20.158
19.738
-0.0576966
0.14883
-0.928022
-0.359328
-18.2125
17.7075
0.788483
1.00387
-14.6879
-10.346
0.948164
52.5953
4.54822
9.16122
-15.3212
-13.1062
-13.7916
162.758
-9.79607
6.56131
-46.82
-49.2626
-38.4906
-41.3971
162.877
-22.9425
4.08001
170.844
-22.3541
-2.55193
181.167
-13.6959
-2.31579
-3.0772
21.2363
1824.84
232.883
-3552.89
1239.37
-21.5405
-260.206
1278.45
-86.9185
-501.46
1153.96
21.9146
-241.979
175.25
-71.7633
-13.881
187.913
159.277
172.274
26.9009
91.4186
153.296
-73.3509
-23.0152
-0.0600761
25.7816
-31.5337
29.9369
-24.2811
0.156337
-1.41872
19.5392
-22.1126
20.4516
-18.5836
2.12423
-0.810617
14.7152
-19.0209
19.4582
-15.4999
1.15803
-0.506122
8.86811
-21.194
21.47
-9.31755
0.679562
-0.366983
5.09878
-21.7942
21.9717
-5.17488
0.265566
1.17938
2.20795
-22.7154
22.9884
-2.23894
-1.42139
1.14922
-0.994363
-23.3784
23.2676
1.16227
-1.20638
-1.45758
-2.5313
-21.261
20.0093
3.41652
1.82407
-16.6413
-5.85232
-9.61209
61.0664
16.5969
3.79337
-17.3872
-15.5503
-16.4135
198.341
9.85077
-37.4193
-54.756
-61.5634
-46.9039
-54.2404
199.528
-30.4768
-9.68792
206.922
-32.9831
-1.17862
211.612
-21.1498
3.39233
-7.71277
22.2708
-768.648
-1237.21
3932.75
67.2765
-224.973
-704.701
724.022
-173.218
-503.351
771.583
65.942
-176.389
134.621
140.846
-43.5042
142.181
128.833
134.417
7.81696
48.0558
127.939
-38.6691
-10.5209
-0.956166
16.5591
-27.5091
26.9138
-15.7334
0.725795
-1.40262
15.6157
-21.4458
20.2922
-14.721
1.66158
-1.06425
16.5887
-16.8266
16.3667
-16.2546
1.19014
-0.605559
10.1509
-15.8509
16.542
-10.97
0.733513
-0.9156
5.41133
-18.1454
18.9263
-6.13225
0.85559
0.687964
2.91106
-20.502
21.1338
-3.28281
-0.948052
1.32856
-0.554873
-22.7774
23.5565
-0.129698
-1.42313
-0.53934
-5.35792
-24.3458
24.4141
5.07655
0.752385
-22.8309
-8.11595
-24.3062
94.6053
26.736
3.43257
-24.3936
-21.7819
-23.3454
335.146
47.199
-51.6244
-87.5763
-105.652
-80.4416
-96.4186
289.161
-2.71835
-16.2183
252.648
-10.365
4.03167
231.983
-7.15572
13.3296
-2.99739
29.1612
1305.06
-1105.77
6533.73
904.463
-53.4762
1105.01
559.357
25.1473
786.165
452.229
155.921
121.118
401.586
163.678
62.71
83.1031
-133.186
-6.33168
39.0728
58.5583
41.5514
60.316
83.3327
72.7866
72.3047
8.67832
2.49024
76.9379
-21.9175
-1.88034
5.07095
8.61918
5.10425
10.5778
-0.439937
-40.3806
40.0567
-38.9139
0.661897
8.70556
10.7403
8.99208
14.5449
-0.804298
-42.5187
38.7073
-48.9424
1.51964
11.5117
14.4898
11.492
13.5893
-2.42995
-20.8402
24.72
-51.3297
1.35043
10.8029
13.4282
10.709
10.973
-0.169378
-30.422
42.2393
-47.0682
-1.39884
7.58516
10.8044
7.45667
7.36239
2.59903
-44.2115
61.0609
-36.9532
-4.63797
3.84371
7.21145
3.72519
4.05181
7.02057
-70.1734
87.5466
-20.8155
-9.21763
-1.08212
3.86578
-1.19612
-0.963019
4.22948
-90.4776
107.327
-2.75987
-5.09502
-5.56014
-1.10905
-5.59162
463.545
54.4763
-4.25238
-24.4222
-35.304
-18.5585
-28.6711
-111.213
-104.125
-101.631
-94.1542
455.384
50.6115
6.23878
389.65
48.8886
22.9293
316.048
45.4526
50.5843
265.492
35.0496
44.263
16.498
36.6151
-549.381
-1785.85
-62.7426
67.5756
-728.993
1493.48
352.259
-85.8687
883.105
379.62
113.434
257.941
423.715
119.148
77.8836
327.801
-47.9665
-20.8415
309.936
63.6493
-13.9554
9.27421
-35.3298
7.57549
-33.65
242.905
-124.373
-38.7144
42.542
51.5363
46.1874
53.5264
215.249
-79.1696
-6.96064
36.7518
12.161
36.9314
12.4624
166.514
-160.06
-6.33167
51.9906
46.39
52.647
46.0067
154.704
-132.614
20.1852
45.9474
25.0797
44.9964
23.607
159.023
-146.354
10.8781
43.7268
30.3116
42.5543
28.7058
193.406
-93.8238
-8.18025
28.7183
4.60834
27.5611
3.86417
241.15
-54.2595
-25.6706
13.6155
-10.7438
14.0683
-8.43005
283.382
0.571947
11.4791
286.965
33.9975
31.366
269.765
55.2151
42.807
250.197
58.8706
40.7802
236.621
45.1927
23.868
18.9449
24.5126
821.343
-1116.17
2437.93
836.225
-664.579
376.946
590.752
153.364
331.455
535.449
143.05
21.963
488.295
159.802
-58.6194
442.551
-13.6446
-132.846
482.419
4.59682
-54.1266
446.817
-89.7554
-92.1914
416.721
-67.4076
-24.5803
368.414
-114.703
-13.2704
314.019
-78.2948
52.7461
252.437
-86.5971
56.5228
207.028
-52.4372
30.6814
187.014
-37.0884
12.3986
190.673
-8.83001
2.08814
201.123
21.25
-5.1168
219.416
35.9399
-9.66159
241.283
35.6886
-6.99798
261.843
23.0296
-10.8208
7.35803
7.9524
1663.2
-145.74
-42.3967
877.152
-218.521
249.486
593.677
254.742
-24.2504
509.994
141.02
-79.5767
505.306
130.639
-55.0268
496.258
-16.3563
-97.9722
495.73
-16.457
0.175586
475.69
-73.5836
-32.9191
447.096
-53.8162
32.2865
404.754
-72.7947
24.8201
363.221
-44.0047
66.0257
321.043
-42.9614
45.9844
289.346
-28.4426
47.8102
266.933
-23.8613
27.8409
264.11
-11.8062
17.2879
276.91
3.87526
9.25605
300.007
13.3613
-4.97105
323.255
11.6714
-12.1049
341.888
2.25654
-15.335
-2.80855
7.17703
632.88
-534.621
3102.63
213.207
64.2626
-675.064
381.152
56.0681
-58.3667
398.304
136.931
-13.9517
481.799
34.8082
106.813
480.766
-6.11777
24.4663
489.095
-28.4583
96.3529
466.475
-43.7521
38.7741
442.289
-35.2982
74.2206
411.685
-41.1424
38.6494
392.325
-29.1944
51.4064
378.074
-30.3054
27.7775
370.893
-23.5009
28.2972
368.212
-19.7854
20.2521
371.093
-13.773
22.0403
380.514
-5.81605
15.7698
393.595
-2.08936
10.0419
403.727
-2.78625
8.78618
408.41
-6.14855
6.23631
-5.95226
22.6491
1536.86
-522.894
2090.78
1090.28
166.022
158.467
846.328
280.645
60.2174
771.407
226.918
54.0562
648.811
173.42
102.279
592.546
83.4887
35.3348
540.082
28.5678
84.1707
514.383
-8.77564
36.9589
490.196
-18.3653
76.0434
469.309
-19.9154
40.1073
451.649
-17.4636
52.7903
437.899
-16.8746
28.4805
427.657
-15.4618
27.628
422.326
-13.7093
16.8828
421.612
-12.1596
16.623
427.239
-7.68944
13.1842
434.855
-6.54155
10.8069
439.404
-6.86595
16.8883
440.739
-9.15221
16.7146
-7.13698
32.1901
-341.933
154.128
2492.03
361.853
-495.333
-631.656
565.086
-314.195
24.9555
657.631
-54.8934
35.6346
613.664
51.1053
84.3452
592.386
52.8431
20.0718
561.493
22.4678
82.5354
555.784
4.03103
28.7334
548.846
-12.27
71.2629
547.36
-8.34544
37.7119
538.77
-7.35413
42.7864
528.187
-0.592225
12.831
515.325
1.90751
7.84436
503.84
4.99484
-10.956
493.143
5.47491
-15.389
485.947
7.18126
-22.9622
481.218
6.56402
-24.866
476.6
4.0431
-21.391
474.323
-1.90737
-24.8497
-7.83776
-4.01035
327.43
-1350.03
711.834
-1054.39
706.833
-323.182
816.575
15.3592
817.955
162.597
852.598
46.6422
819.577
76.6829
810.635
0.540466
784.296
32.4275
776.348
5.45123
765.419
21.7512
764.504
12.2335
760.786
14.3697
763.044
13.1868
764.573
14.0272
770.047
12.4175
775.718
10.9596
779.658
10.9983
776.49
3.60573
11.0463
388.793
-360.335
-2340.61
237.936
-256.221
1143.01
495.735
-93.96
276.678
536.785
57.678
119.15
515.013
114.943
408.424
546.855
57.7423
115.199
554.947
22.9822
182.672
595.948
-11.673
59.642
622.123
-11.6809
82.63
647.697
-11.8666
15.6739
644.821
-1.10135
15.7543
634.706
8.28481
-0.719659
613.136
28.1543
40.2383
603.306
43.4443
65.2208
598.733
49.3117
70.0252
578.383
38.9434
16.628
541.993
27.2659
-21.8751
508.326
15.6509
-24.2496
476.246
13.8727
-18.9691
13.5513
4.48788
-24.8899
-265.54
3.59139
-74.8392
-318.989
393.901
96.5453
-231.274
-171.498
114.37
-18.1927
40.3442
234.154
46.2414
140.101
263.531
24.337
56.1711
297.686
4.69886
93.5394
307.012
-13.4847
1.66043
318.042
-12.7049
15.1073
318.611
-12.7436
-41.0264
318.505
-7.59625
-32.0151
313.648
4.93277
-51.6487
319.604
22.2679
-18.6647
332.134
38.2331
-4.86919
345.619
47.0652
10.1957
348.965
43.2227
3.0677
341.333
38.7417
4.7834
329.621
32.8263
12.3048
316.366
33.7662
24.6638
27.9508
42.0409
21.6889
-461.17
746.998
-185.777
-333.915
-642.811
-101.79
-325.031
-374.044
-60.5518
-123.762
-102.506
29.3983
-29.7816
-10.8155
56.9756
-25.8521
-40.406
104.039
-19.7613
0.575951
80.829
-9.67662
-36.9563
88.9972
-15.1411
-9.97967
73.6118
-6.48939
-28.3968
80.5329
-16.4571
-10.484
86.9056
-10.2829
-20.4186
118.028
-6.46161
-12.4142
154.163
10.3071
-3.36739
194.259
18.3629
6.04326
217.328
27.4154
6.46455
228.814
34.199
8.9455
234.65
37.3327
18.9569
234.406
44.4613
20.4024
36.5353
39.2227
-358.073
-517.522
-229.11
-206.939
-303.218
-1078.79
-176.022
-348.798
-662.789
-136.891
-213.726
-118.238
-75.753
-61.2851
-34.5944
-39.7046
-52.8546
-8.37878
8.25845
-50.0365
11.5562
1.48984
-3.04572
-9.16277
15.4182
-24.2979
4.16062
3.25913
9.29229
-4.97793
15.7457
-23.7405
3.44525
23.3659
-14.9746
-2.70345
42.5389
-23.7137
-2.51874
64.7462
-11.5313
0.58893
90.114
-6.02887
3.88209
116.095
7.86995
-4.44706
135.28
21.357
-0.334236
151.02
31.6263
3.56366
164.977
40.9889
4.20385
35.6034
30.6511
2.79029
-733.382
597.747
48.7272
-403.833
-288.972
-160.906
-184.212
-458.449
-141.237
-219.615
-28.6409
-91.1332
-93.4184
-62.769
-96.6522
-54.2325
27.2157
-40.321
-94.1898
11.5848
-49.3806
14.6365
8.32703
-17.6448
-45.9047
17.8336
-15.5214
15.1109
6.27241
6.07569
-33.4773
7.0715
15.4889
-20.1603
0.131431
35.7148
-39.4296
2.54595
51.6374
-23.8354
2.64658
70.2435
-21.0253
5.44298
85.8417
-6.18472
1.28919
97.9671
11.2296
-0.0792202
116.489
22.8996
-2.52615
135.258
34.5527
-2.9926
33.0008
23.008
-583.812
-835.269
-435.575
-588.375
-743.938
-694.674
-450.755
-399.044
-326.045
-314.259
-366.443
7.0314
-170.826
-234.995
-34.3163
-157.144
-84.6056
19.4913
-6.84627
-249.353
-3.45444
-26.8821
27.9993
-12.9191
9.50881
-76.8
-1.19548
9.17215
14.2803
-3.72605
25.7169
-44.4323
4.88104
30.6934
-21.439
5.9822
44.803
-42.2813
12.8502
55.6466
-24.1326
15.4396
65.6738
-23.6556
11.3016
73.0024
-10.4044
3.30077
78.8704
5.59173
-2.86301
84.5566
17.3561
-2.79779
105.219
27.3121
-7.38381
28.049
18.2603
1150.94
-802.873
5643.37
269.745
-590.025
-40.569
-272.319
-245.72
-90.2635
-237.397
-450.724
-10.625
-148.545
-343.361
-118.532
-224.602
-31.4898
25.2822
-133.022
-68.52
-35.7748
-108.304
-70.2059
-104.925
-123.812
1.22749
0.737205
-0.846966
5.72024
0.160326
-78.6363
-18.3279
-28.1418
-47.3275
-21.4226
-48.0561
-53.7969
1.32576
-1.40348
-10.051
1.37577
-10.2048
-23.9837
-6.49851
-2.89861
-29.411
-8.06614
-30.3388
-7.30761
0.929925
12.4609
-16.5351
0.408701
-17.1102
12.9663
-2.46736
14.9942
-23.2152
-3.25995
-23.6285
27.4855
1.77808
12.9903
-16.4199
1.93155
-16.227
40.8198
-31.1938
4.73706
48.4183
-16.8739
0.838956
58.9888
-7.70854
-1.73468
67.6679
6.60898
-4.14675
86.1737
16.4549
-8.78886
20.5836
13.9171
333.327
167.995
-2496.98
-991.82
-57.221
957.054
-463.972
-455.618
-116.598
-362.679
-622.485
46.1986
-157.443
-570.56
-108.973
-37.8281
-24.0193
39.7067
-42.479
-45.0907
-49.4171
-4.22442
-20.0312
0.271033
5.9589
-37.7373
-64.4504
-10.1193
10.6689
52.1722
-31.7201
-24.963
-4.9306
6.90397
17.2864
-16.6413
-20.6763
-5.2007
5.79184
16.8015
-6.69804
-9.90227
-4.66728
1.88724
-0.308476
1.46509
-7.73605
-1.80633
-2.50967
-1.01845
5.36605
-3.4336
2.52555
-6.13573
-7.49381
8.51763
-2.23142
4.87596
-7.44342
-8.72496
10.9327
1.02908
5.98469
36.124
1.16672
6.58479
-9.98337
-11.9579
-2.44412
-4.47801
-17.3427
1.16939
-17.3593
43.5352
-25.3074
-0.554339
47.5154
-15.3644
-4.84019
55.7784
-7.76972
-6.44544
67.2638
3.9377
-8.64225
9.80337
8.53311
288.761
622.865
-2147.16
-155.736
-110.374
222.318
-134.845
-565.81
-308.932
-270.765
-489.156
45.3819
-54.5349
-600.013
-157.052
-63.4604
-64.2699
-70.1416
4.7439
-28.9926
-59.0936
4.78807
4.01403
14.1885
-0.907434
-0.58606
-12.6131
-4.09598
3.06281
2.20297
12.9474
-1.01896
-14.4509
-2.74338
2.29721
-2.37059
7.06368
2.91053
-7.67559
-2.22524
1.97071
-2.28667
3.5411
3.2197
-4.57418
-1.87066
0.783245
-4.03964
1.93802
5.01519
-2.88302
-0.813786
-0.760175
-4.48565
0.562609
5.46762
-1.46522
0.680814
-1.65771
-4.8483
-0.562232
5.4828
0.163322
1.42212
-1.8201
-4.45606
-0.91785
5.17059
0.377014
1.64641
-4.76501
-4.86425
17.6387
2.62068
4.15666
-5.27173
-3.941
-4.40734
49.558
-21.8554
10.3812
-15.0332
-18.4561
-8.1664
-10.9687
54.3587
-22.5543
3.47357
58.9908
-17.0909
-3.04272
70.3097
-7.92532
-6.93954
-0.753585
9.06162
1216.99
-60.4626
659.982
944.363
-384.649
74.8047
604.186
-437.978
-707.777
336.755
-249.382
-345.257
12.4755
-426.824
-271.667
33.7714
3.43639
16.7939
15.8355
88.8983
12.6558
-93.1595
-11.7546
-0.975618
20.7929