/*--------------------------------*- C++ -*----------------------------------*\
  =========                 |
  \\      /  F ield         | OpenFOAM: The Open Source CFD Toolbox
   \\    /   O peration     | Website:  https://openfoam.org
    \\  /    A nd           | Version:  10
     \\/     M anipulation  |
\*---------------------------------------------------------------------------*/
FoamFile
{
    format      ascii;
    class       surfaceScalarField;
    location    "8.9";
    object      phi_0;
}
// * * * * * * * * * * * * * * * * * * * * * * * * * * * * * * * * * * * * * //

dimensions      [0 3 -1 0 0 0 0];

internalField   nonuniform List<scalar> 
38556
(
1246.75
-1416.14
196.936
1435.88
-665.009
475.876
1531.82
-383.874
287.934
1493.19
-177.365
215.998
1166.59
-44.2994
370.899
1008.47
-40.3147
198.435
910.404
-58.8576
156.919
926.175
-104.38
88.6091
968.192
-128.623
86.6061
1096.61
-166.082
37.6593
1250.98
-163.523
9.15629
1363.01
-116.696
4.67287
1350.2
-28.0497
40.858
1219.8
41.5641
88.8341
1036.39
88.4883
94.9226
924.997
90.4863
20.9053
870.777
88.3498
-34.1306
841.944
82.5661
-53.7324
827.943
68.2381
-54.2378
52.6018
-40.2894
342.816
-1767.48
1926.62
723.726
-973.268
-72.6512
754.983
-547.211
132.08
813.23
-270.331
34.7194
755.357
-112.913
126.487
770.752
-98.6966
42.9866
748.812
-107.047
70.13
767.438
-132.736
9.72979
761.876
-139.786
16.7246
770.09
-143.273
-31.0225
764.742
-121.518
-36.6571
782.883
-86.723
-48.1147
790.605
-19.7981
-15.9733
777.506
49.7129
4.9504
766.869
81.0899
18.035
760.786
83.2132
13.3559
752.714
85.003
11.4183
738.462
80.5401
16.2786
705.924
73.618
27.1579
58.7419
24.7872
-48.9162
-1225.38
-420.971
414.869
-792.502
-644.552
608.942
-489.634
-251.649
742.904
-285.102
-119.191
700.307
-109.221
38.9048
727.461
-88.1082
-37.7423
675.858
-72.0176
16.5734
653.93
-73.0739
-37.7345
590.649
-65.9484
-10.557
534.84
-53.6066
-33.8578
462.876
-35.2982
-14.255
423.949
-16.0029
-31.7935
426.075
-7.00222
-14.9215
459.946
12.4953
3.34611
504.503
21.7562
14.7768
545.334
29.6111
12.7704
567.564
46.2306
16.5427
568.755
53.8095
25.54
555.896
64.727
21.7497
60.6156
15.7626
-515.541
-382.68
1160.15
-242.099
-611.994
-453.949
247.535
-499.165
-480.103
445.88
-364.839
-118.607
436.104
-144.153
44.7081
442.871
-97.8315
2.95597
421.914
-82.153
31.0928
409.738
-41.7371
-19.161
387.191
-44.3128
0.91121
355.976
-3.66075
-18.731
326.488
-6.79513
0.985048
310.62
1.96224
-2.09712
312.297
-13.1103
4.43099
328.989
-10.5495
6.352
355.351
-14.1942
9.58853
386.993
-5.18635
3.15647
413.319
11.0936
8.81026
424.3
30.3029
12.5256
430.291
51.1082
7.62755
51.6476
12.332
-200.92
-1419.11
-196.066
23.665
-670.51
-166.069
217.323
-389.011
-303.812
234.383
-381.779
-0.120512
285.39
-217.318
22.1579
319.172
-148.325
16.7108
363.035
-174.512
48.4969
383.59
-70.5801
8.28841
389.231
-81.1559
31.2019
386.032
-9.93074
9.46886
376.275
-16.0164
18.9783
367.482
7.01419
3.74064
362.623
-18.4594
10.2084
365.068
-21.6694
8.6754
373.145
-35.069
12.7972
383.46
-22.7383
7.23729
391.592
-2.04788
5.00964
397.525
17.9796
6.38999
402.96
42.4399
3.23348
48.1573
7.352
-1161.13
-1312.92
-810.823
-575.862
-917.705
-338.07
-62.8227
-713.654
-188.397
78.7635
-528.81
5.44522
240.14
-417.442
38.7469
330.997
-228.444
-10.7373
458.72
-322.543
20.3079
482.408
-71.8241
-22.444
490.025
-90.8015
2.02863
483.853
4.73622
-8.49492
471.162
-10.3958
7.07078
456.597
15.2222
6.35638
428.895
-12.5646
21.8072
394.529
-11.9548
24.6519
370.397
-29.2912
18.3543
358.887
-17.4733
6.24448
356.684
0.379636
-0.225091
356.056
16.8081
1.79999
358.395
38.0682
2.03261
44.145
7.19435
-13.117
-154.471
1844.49
152.303
-390.177
-692.948
4.12225
-315.398
-250.074
48.532
-514.618
-58.6021
163.099
-466.163
-65.8449
114.379
-124.055
-55.6688
205.999
-70.5947
-21.4336
-126.744
-72.0502
-123.341
253.529
-50.6876
-2.77084
-20.5011
-35.9362
-9.45894
306.565
-21.5538
-19.1599
-45.5166
-13.6907
-43.9162
331.573
-2.69468
-8.0131
-5.99096
0.493986
-4.06736
343.2
3.6652
6.7575
-17.3988
3.68486
-18.7312
337.049
8.1568
16.3193
-4.68788
7.32034
-5.73566
320.016
5.62017
26.4182
-15.6394
4.3298
-16.2608
303.529
2.30351
23.1241
-12.1696
2.75704
-11.4826
294.104
-30.8821
11.0163
295.528
-20.7704
1.87228
303.822
-7.95462
0.0409198
311.416
7.93307
1.28033
322.196
25.9248
1.36418
35.6331
7.40225
-379.31
-68.2902
-1097.63
-230.969
-177.764
-360.753
-182.823
-311.1
-52.4449
-65.7338
-547.753
-83.9537
181.957
-607.741
-106.113
61.7413
-51.4447
-47.7955
60.7043
51.1185
48.6319
-6.91964
-49.9954
-8.13862
51.5066
-56.7826
-3.57742
-34.4414
56.1748
-64.9811
-7.4398
-84.9634
91.261
-25.1667
-2.68461
-94.4994
97.0396
-3.91209
-1.32277
-101.803
97.867
8.4171
-0.816444
-95.9562
93.7118
8.40363
1.99764
-93.809
86.0653
9.57641
3.78748
-79.9149
71.0615
6.07525
5.08161
224.257
2.9673
11.1561
-66.4643
-64.7671
-58.1921
-53.9607
-14.2998
2.3927
-13.9709
228.179
-22.4438
-2.2486
238.128
-11.7079
-6.19608
250.646
-1.99216
-2.5928
265.461
12.5841
-1.47397
24.0386
5.74513
-1626.95
1424.66
372.766
-608.987
-251.234
-944.49
67.0824
-563.195
-423.974
-123.909
-379.366
22.6045
22.485
-616.938
-113.454
-16.573
11.0683
-18.2393
70.5134
-82.1594
-17.3137
8.38631
-29.7961
28.8751
-4.93
-2.53533
-29.3687
15.6764
28.567
-13.2278
-1.64684
-27.046
9.00012
25.972
-7.33057
-0.595568
-24.8752
0.648733
25.0216
0.142849
-0.937943
-26.1344
-2.27901
26.0207
2.81973
-0.427062
-26.6098
-1.32716
26.791
0.8098
0.336164
-27.7886
-1.85591
27.484
1.49636
0.664187
-24.9633
-2.70272
23.6261
3.53725
0.502646
-19.404
66.6055
7.51233
4.27119
-20.0286
-18.0624
-17.9267
213.334
-3.30236
2.32284
-62.4123
-63.2646
-55.056
-54.0653
214.592
-14.3123
1.34653
224.226
-12.5871
0.960741
237.522
-0.166227
-0.545794
11.1282
7.0742
-231.129
806.907
186.058
-43.9417
36.9489
-475.371
320.133
-334.378
-592.892
251.024
-106.988
-203.269
45.2852
-406.791
-217.284
74.8767
52.7802
85.2196
101.527
54.6572
-98.4994
-12.4
19.787
-12.4074
12.1448
-19.9543
0.429965
13.0842
-15.1341
16.6873
-14.3949
-0.242517
7.70524
-21.9552
23.5924
-9.01975
-0.322654
1.56447
-27.7201
29.125
-3.01415
0.0448529
0.315397
-32.6794
33.3361
-1.6018
0.629636
2.86343
-33.0358
32.2522
-2.46431
0.384523
0.900694
-30.0255
29.5169
-0.142949
-0.249113
-2.39545
-28.8801
28.7025
2.27657
0.296521
-26.6348
-6.35177
87.6541
11.6187
8.45165
-26.8038
-23.9603
-23.9737
236.795
12.8516
4.39325
-70.3104
-66.2252
-60.6738
-60.1333
235.507
-15.2489
2.22476
238.74
-18.397
2.57775
243.147
-6.52779
1.95447
5.30322
6.34948
1536.07
359.092
1246.91
1614.11
404.495
-445.583
1121.11
248.178
-89.5605
988.441
142.7
-117.016
144.843
42.1956
-109.56
145.204
179.016
179.952
90.1046
137.502
-67.0611
-15.7022
21.4545
-29.8468
27.6075
-19.248
0.0327718
15.3412
-25.1773
23.9532
-12.695
-1.42224
11.4231
-22.1627
22.7867
-11.7888
-0.258324
6.28929
-25.8541
26.479
-7.03451
0.120307
3.6516
-26.6083
26.5332
-3.69119
0.114749
1.25406
-26.5149
26.7141
-1.0184
-0.434895
-1.12318
-27.6558
28.1657
1.15789
-0.544673
-2.59675
-28.4814
27.7531
3.15066
0.174356
-22.053
-17.4285
74.2798
23.4033
5.07723
-21.4358
-21.0633
-20.7797
255.787
52.4918
-33.7545
-66.2395
-66.3281
-62.9074
-66.198
264.601
-7.99841
-16.0645
273.445
-26.0368
-1.20407
276.159
-10.2904
1.0488
3.49297
5.6407
-5.46242
-1172.31
1658.58
551.974
94.15
-247.091
594.215
162.172
43.7645
630.36
182.689
-76.1337
101.963
237.185
-52.3517
117.412
126.581
141.767
41.3571
92.8965
-30.453
-1.8373
12.0872
-22.3592
22.3116
-13.5002
1.46046
9.73465
-21.1412
21.3233
-10.3526
0.435811
16.714
-22.3692
22.1813
-16.7201
0.193943
11.6621
-21.4978
22.9664
-13.3019
0.171143
2.88694
-24.7449
24.8683
-3.48996
0.479578
1.34216
-25.0115
25.5902
-1.88593
-0.0349
-0.571815
-28.098
28.9086
0.105674
-0.34449
-3.21921
-30.6401
31.3009
2.54278
0.0156021
-26.262
-30.8605
95.7711
33.5958
9.83665
-28.4234
-25.7508
-27.9068
400.852
104.659
-47.8173
-87.4671
-114.447
-90.9936
-112.294
373.672
44.7572
-25.576
336.849
16.3567
-5.57033
306.103
13.5178
6.93764
9.97047
12.3136
1025.4
-1762.31
3393.18
983.293
-668.994
805.247
513.633
56.7556
575.076
427.564
174.812
93.9465
439.228
189.364
36.1572
101.971
-87.1542
-34.4531
23.8109
61.0652
15.8873
51.3487
109.042
95.2796
102.43
10.1573
103.977
-19.3383
-6.70017
1.92213
9.87652
2.07674
8.0472
-76.3317
78.0924
-28.6634
-1.50891
5.40087
8.78768
6.17587
14.1768
-75.4875
74.8154
-49.5571
-0.170011
10.8103
14.448
10.9641
13.4098
-49.3785
47.8606
-49.0961
2.51944
10.5682
13.4738
10.6428
11.3241
-47.1384
58.5972
-50.8819
1.237
8.01672
11.1329
7.71231
7.66857
-57.2338
75.6423
-41.0412
-0.577885
4.27728
7.36753
3.89718
3.83455
-84.5156
107.508
-25.9724
-3.29895
-0.336365
3.48647
-0.705466
0.04641
-112.165
130.019
-5.33712
-3.20204
-4.1204
-0.557904
-4.6824
569.119
81.8068
-2.23266
-34.873
-42.8866
-35.151
-41.3512
-133.246
-123.3
-122.104
-115.781
583.035
88.8774
1.86532
529.753
88.1552
9.88462
433.773
79.0064
33.3302
350.088
62.787
34.4159
33.1615
19.0452
1502.88
-3431.43
705.593
1280.93
-1874.39
1427.35
575.104
-312.853
1075.43
486.597
39.0846
224.234
501.716
96.4251
77.8194
445.664
1.72689
-32.83
443.526
95.5499
-14.6044
1.20521
-39.715
-0.921217
-39.3767
399.527
-51.4892
-45.5395
26.2949
41.3185
30.2508
43.1636
375.718
-19.5327
-24.2968
31.5752
2.64656
30.7448
2.67226
327.976
-104.768
-22.99
44.487
43.1722
45.5449
42.2954
283.068
-110.904
12.885
46.6418
26.685
44.908
24.6928
256.848
-143.833
14.367
45.3692
34.8809
43.6223
31.813
280.572
-100.609
-2.49637
33.0099
10.0424
30.1425
6.18724
344.209
-47.5656
-20.4563
12.2525
-7.66018
10.188
-10.396
399.887
24.4577
1.67099
410.611
59.6189
18.5346
380.844
85.4861
32.436
334.639
90.4406
34.7708
301.562
77.1686
18.6957
41.1396
8.76802
2925.18
-2833.08
4481.25
1616.05
-1153.37
588.104
922.786
102.52
277.894
770.109
182.304
9.45771
685.878
230.575
-49.9201
688.316
122.306
-123.017
722.122
115.8
-54.056
728.358
29.2656
-86.991
716.965
29.0158
-37.1549
663.496
-28.8957
-22.4037
530.24
-21.4904
43.8427
390.154
-52.8715
49.1248
293.718
-26.15
21.9766
251.119
-9.69344
4.72658
250.529
28.9169
-3.86882
260.033
57.111
-6.99634
277.43
77.1216
-9.0317
296.942
78.0592
-7.13022
321.854
64.7641
-12.5078
37.321
-6.85059
1553.82
-1580.07
2632.5
776.784
-449.24
72.9053
729.495
311.927
-162.119
772.655
291.436
-152.292
754.051
321.044
-71.8641
785.242
197.174
-106.058
762.052
158.094
-19.1039
752.977
61.6387
-23.298
707.616
47.7209
26.6557
646.334
8.0147
24.3717
541.023
20.7548
63.066
440.33
4.38464
43.4365
361.985
12.6572
39.5378
314.356
15.2207
22.7146
304.655
27.4102
11.2082
311.49
44.6421
5.63348
338.023
53.2373
-2.64875
373.918
53.0005
-10.8354
416.558
39.0754
-16.9517
25.7279
-8.5719
-558.908
-2468.17
1518.15
54.7082
-315.743
-747.113
508.403
-40.6983
-101.069
629.945
175.587
-5.69284
672.076
170.868
108.044
703.441
138.258
27.551
676.304
93.7333
91.4973
647.717
42.4326
47.7925
595.744
29.848
69.8467
547.473
10.9193
45.3664
503.267
15.1756
49.7852
472.142
5.66687
29.8421
450.999
6.55374
27.2469
440.169
5.77162
20.2789
439.117
9.31209
19.1503
449.472
19.8455
14.4419
469.218
23.9523
9.53828
491.103
25.1884
5.92724
512.171
17.4729
0.534453
13.4014
6.19839
1800.38
-421.121
-241.987
1601.26
159.889
-276.516
1144.19
372.372
44.0021
996.596
261.372
61.811
814.643
241.524
111.297
756.384
138.492
58.0264
681.703
77.9269
90.4875
648.739
24.9136
50.4831
603.452
4.43875
70.6965
570.046
-2.91254
47.238
536.5
-2.16475
50.8862
513.047
-3.47089
32.5905
496.822
-5.5151
28.2934
489.586
-7.04923
20.0574
489.015
-7.87525
17.758
498.034
-2.95783
13.7846
511.696
-1.79975
12.0897
521.883
-0.481423
15.4836
529.824
-2.55807
12.0896
-3.29177
17.1673
-889.637
-165.843
2356.28
-14.8813
-47.6014
-667.265
477.874
297.329
-417.712
579.677
312.386
-152.816
645.871
254.551
-79.2204
671.209
151.556
-38.4032
663.419
41.5485
44.1685
667.541
-17.7561
38.5474
651.986
-58.0424
78.0359
642.212
-50.1989
57.0609
622.892
-34.4358
51.5903
605.747
-10.9262
24.6007
585.479
-1.50838
16.2613
569.478
8.57045
0.381229
555.781
11.8659
-6.04414
547.241
18.2591
-12.6772
541.395
17.8554
-13.8083
536.634
18.6073
-14.3281
537.215
18.5207
-21.66
12.0439
-15.1957
179.566
-806.573
227.299
-95.3347
580.918
-56.2896
708.349
184.955
849.547
113.352
976.511
24.5924
998.578
19.4821
994.287
-13.4654
918.366
17.8789
862.765
5.40144
810.82
17.5093
786.96
12.9341
774.75
10.702
771.811
11.5091
773.071
10.6063
780.054
11.2759
786.66
11.2487
794.501
10.7662
812.578
0.444432
2.2872
756.528
-620.833
-674.489
878.245
-580.092
934.251
987.411
-343.559
522.327
1038.19
-101.993
267.214
871.189
47.5483
490.35
818.111
37.0096
214.503
759.896
12.0613
203.072
789.022
-33.8709
93.3541
825.817
-46.1454
95.9566
887.849
-52.8632
28.4905
928.189
-41.5248
10.3409
957.313
-22.5017
-1.95005
938.168
13.5981
46.4052
878.425
50.2587
98.3186
792.006
70.1136
111.228
724.244
56.1026
32.5644
679.478
41.733
-31.0979
646.404
25.0886
-45.747
623.875
13.2029
-44.9119
9.45788
-29.762
554.966
-2625.31
-1055.63
171.542
-721.67
452.35
441.048
-415.747
-65.238
481.391
-147.485
39.8685
476.752
-9.9737
188.648
504.793
-15.6966
67.6523
502.386
-29.0779
113.676
514.713
-51.2559
14.7874
513.73
-51.3101
22.873
521.373
-48.5592
-42.9697
519.986
-34.7304
-42.0645
523.255
-11.6244
-62.2612
525.707
14.9314
-19.7587
529.514
48.7177
2.6844
533.495
63.4573
20.7099
532.153
60.3419
10.4588
521.053
54.7662
9.48554
502.359
45.774
14.2875
479.135
43.185
20.3993
35.6057
19.6032
94.8017
-1717.64
85.4788
90.7779
-672.669
-689.53
157.055
-407.26
-326.412
259.103
-226.816
-141.908
313.211
-79.0788
53.9016
360.991
-59.2331
-41.9855
359.699
-38.8043
27.5919
352.274
-30.5078
-51.057
323.737
-25.0677
-8.26273
299.51
-12.556
-45.6341
282.573
-12.5673
-19.4812
279.066
-5.24911
-34.6618
291.082
0.670385
-12.6762
321.273
16.9859
4.88659
355.913
25.4975
18.0972
382.135
32.3336
14.5566
394.172
41.0062
18.2656
391.996
43.8868
29.6032
381.111
51.1431
24.6764
44.7801
22.3247
-350.979
-938.397
847.117
-248.627
-553.463
-675.508
-30.5378
-459.75
-645.702
107.641
-327.265
-156.337
170.175
-118.402
21.4977
211.788
-82.9918
-14.8988
237.86
-68.7117
34.9283
228.702
-10.7149
-29.7954
218.438
-16.4138
2.52053
195.828
14.4143
-23.0902
186.711
-3.42927
0.963734
183.34
2.00857
-5.98385
197.814
-13.8189
4.44584
219.53
-4.75171
6.37372
246.326
-2.5369
10.8271
271.044
8.18902
2.58253
288.991
23.1892
8.6803
294.783
35.5997
15.0204
295.959
46.4989
11.0963
42.8945
20.1007
-151.479
-919.171
-727.192
84.3325
-435.585
-519.758
58.3914
-271.658
-465.963
76.3451
-314.019
-31.3205
135.262
-149.121
-6.0399
137.837
-77.4496
8.59379
185.055
-117.529
50.0962
183.389
-1.08971
0.329141
197.594
-30.3848
30.9678
191.781
24.6244
5.07198
196.136
-7.16312
18.3572
194.987
4.72663
2.17116
203.769
-25.3474
12.9549
215.519
-18.187
10.3609
231.477
-20.3693
14.6716
245.552
-4.89058
6.24161
256.919
11.1754
5.65629
262.87
26.6971
9.34176
265.516
39.9529
7.13333
40.1106
15.3047
-1784.51
-417.838
-1069.88
-848.976
-588.498
-1120.69
-341.01
-557.371
-410.65
-193.367
-438.532
-17.684
39.0489
-314.858
-27.932
82.9086
-119.421
-12.6251
231.866
-263.383
17.2046
230.016
14.5386
-36.2222
244.215
-49.1762
6.62105
238.259
32.2908
-10.2056
238.653
-11.3055
10.8188
233.411
7.68388
8.64164
230.524
-25.2918
24.6378
226.053
-14.1654
25.1017
224.383
-19.6824
19.3367
224.9
-5.59982
6.4374
226.653
9.04762
0.14909
229.34
21.336
4.47432
231.295
34.0857
5.94544
35.3411
15.2677
-281.08
132.285
3458.39
-204.836
-416.832
-940.858
-200.157
-280.519
-531.605
-152.69
-484.825
-59.7763
6.77409
-409.711
-130.455
-105.285
-29.1205
-33.9103
4.24227
-64.1069
-38.0244
-115.024
-65.7681
-111.421
24.2799
-12.7915
-1.23191
3.65477
-4.27656
6.37536
99.732
-10.3948
-36.4858
-42.1962
-11.403
-43.3086
123.792
4.05791
-5.66463
-1.29438
4.53894
-1.42056
150.793
2.14865
8.75722
-20.6633
0.746429
-22.537
158.943
5.81559
19.5012
-7.0178
5.1097
-7.55637
164.052
2.09724
28.9237
-17.7873
1.09286
-18.3082
165.961
2.78097
24.1341
-11.5835
2.9785
-11.2613
170.179
-25.7058
12.8222
176.896
-13.3915
2.94672
187.498
-1.81159
0.298293
196.393
9.89778
3.82375
204.901
21.8887
5.05333
26.9513
15.3397
186.449
-173.07
2661.28
-182.49
-295.676
-112.97
-325.22
-380.552
190.317
-232.152
-612.924
-48.9224
-12.7636
-608.731
-126.483
-3.4674
-33.316
-0.860223
-4.48525
-15.0754
-16.7265
3.65327
-25.5971
6.19499
-1.65883
-7.95694
-54.1581
-3.80039
15.9326
23.5132
-1.95757
-38.4506
-11.8292
4.44872
-28.5209
31.1058
-11.6415
-5.78699
3.6446
-32.3188
37.8368
-1.67382
-3.43083
1.10515
-46.8962
45.2862
4.19181
-1.5384
-3.00994
-45.8863
46.0563
5.25672
3.39881
-6.55952
-49.0312
44.5285
6.11115
7.0483
-7.42779
-43.5246
40.9248
4.79824
8.0103
134.456
2.98619
10.2578
-40.5667
-37.4179
-31.6857
-28.4445
-13.4765
2.70319
-13.3617
142.56
-20.6585
-3.08502
151.475
-10.9155
-6.00781
162.542
-1.70473
-2.05709
172.811
8.0141
2.13212
15.3124
13.7704
283.844
858.754
-416.827
-270.884
-295.05
-390.388
-26.1415
-551.197
-498.072
-230.786
-426.583
40.908
-27.8688
-615.586
-169.491
-46.9937
-37.7984
-55.2324
24.9287
4.78275
-72.4301
-18.4662
4.4959
10.4749
-13.9816
12.9199
-8.75753
-5.15157
2.89965
-12.2904
14.159
12.2218
-14.3139
-2.6761
1.48357
-13.8129
6.11783
13.7751
-6.0522
-1.51133
2.20354
-13.0194
1.52661
13.1298
-1.55176
-2.28881
0.565758
-14.5438
-0.0477694
14.7197
-0.101544
-0.592367
-0.684771
-15.4567
-0.532435
15.5175
0.454967
0.701458
-1.53254
-15.6511
-1.70111
15.2012
2.06605
1.61749
-1.63933
-13.2636
-1.94013
12.7122
2.33529
1.79562
-11.7488
-4.94779
41.6601
5.48155
5.06674
-11.4483
-10.7047
-10.3726
137.17
-11.1168
3.6743
-40.8595
-40.386
-34.092
-32.7252
142.59
-17.1939
2.20449
152.504
-13.8969
3.23897
162.301
-4.85121
2.52239
4.1385
14.6408
479.566
1383.57
2320.27
335.472
-87.4328
-538.893
394.439
-311.509
-891.547
253.907
-85.9091
-403.41
32.7363
-388.204
-366.719
63.5585
25.5947
54.0711
19.5129
97.3945
37.2333
-95.3281
-26.0762
-0.92008
20.7986
-10.3029
11.5728
-21.8876
0.739177
-0.361153
16.2596
-12.731
13.445
-17.1848
0.572343
0.512966
9.07646
-16.2513
17.2273
-10.1418
-0.423685
0.0483666
4.69864
-19.4468
20.1083
-5.37942
-0.0290522
-0.893773
3.29771
-21.2325
21.4129
-3.3349
0.750587
-0.350468
1.98544
-20.8933
20.5726
-1.59701
0.282793
-0.0543114
-0.785019
-19.3025
18.8562
1.09204
0.19359
-0.945534
-1.03143
-17.6268
17.141
1.29424
1.16847
-14.5282
-11.4115
-1.70714
52.8093
5.26003
10.835
-14.8716
-13.0023
-13.3835
164.494
-0.417896
5.42519
-46.9741
-48.5664
-39.4506
-41.2336
164.802
-19.8595
4.58274
168.849
-20.9889
5.62216
172.99
-12.2777
5.24025
-1.95802
12.9156
1528.98
365.235
-4276.09
1185.98
244.52
-434.537
1208.67
79.6611
-503.42
1104.03
111.594
-209.886
160.017
-3.61149
-20.847
171.028
144.04
155.642
29.5005
82.761
137.872
-64.0805
-26.036
0.0959206
23.7628
-28.8686
27.3649
-22.3333
-0.0216161
-1.2406
18.23
-20.3813
18.7956
-17.3739
1.9701
-1.02588
13.7046
-17.6045
18.1094
-14.5935
1.4099
-0.931887
7.77674
-20.0256
20.4093
-8.33134
1.10275
-0.696605
3.88608
-20.7475
20.9189
-4.0602
0.69932
1.16154
0.64816
-21.6596
21.8936
-0.661698
-1.38198
1.35019
-1.71054
-22.3211
22.2643
1.86957
-1.45236
-1.21648
-2.80441
-20.4085
19.2507
3.66407
1.51457
-16.2658
-5.2769
-10.1117
59.2743
16.8472
3.16184
-16.6662
-15.2286
-15.734
194.935
16.22
-34.3067
-54.0301
-58.444
-46.9264
-51.6199
195.426
-28.224
-8.19145
199.081
-30.6943
4.84625
199.74
-18.9579
7.0701
-6.82184
14.5696
-819.511
-625.569
3094.77
6.04822
97.8741
-926.003
662.661
22.1846
-555.372
718.922
132.609
-153.409
126.437
172.643
-22.9266
136.882
120.622
129.302
9.43256
43.6277
115.41
-29.0783
-12.9549
-0.625976
15.2394
-24.6528
24.0544
-14.3539
0.338873
-1.2437
14.6145
-19.2132
18.1175
-13.7061
1.43096
-1.07351
15.8969
-15.1223
14.7141
-15.6036
1.18848
-0.777409
9.3109
-14.4453
15.1138
-10.1226
0.920644
-1.14465
4.41452
-16.8929
17.6679
-5.18387
1.139
0.500342
1.417
-19.305
20.0465
-1.94669
-0.712111
1.13317
-1.44602
-21.8493
22.4303
1.07407
-1.34223
-0.493729
-5.61224
-23.2812
23.3019
5.40477
0.680473
-22.0483
-8.47145
-25.124
89.8723
28.0641
4.10472
-23.2012
-21.0369
-22.1592
321.906
45.1237
-46.5606
-82.5464
-101.252
-75.8708
-92.397
276.378
5.44774
-13.7195
239.006
-4.87837
5.9853
216.231
-3.61435
14.3698
-2.22776
21.1137
776.918
-1096.29
6038.71
706.949
46.5603
926.53
428.984
104.731
770.495
371.098
162.508
121.933
344.289
164.279
71.3306
69.8175
-111.614
-8.61008
23.4725
54.136
26.2414
55.9261
75.9853
59.3687
65.1125
8.13374
4.23862
65.9001
-17.85
-3.52442
2.32503
8.05729
2.537
10.203
1.17999
-30.5997
32.2309
-38.276
-0.982567
7.81261
10.3813
8.05053
14.3475
0.580446
-33.8925
32.1343
-48.8963
-0.159225
10.8436
14.2897
10.7525
12.9994
-1.77821
-10.3803
16.3314
-50.664
0.513556
10.1263
12.8617
9.99022
10.2416
-0.70006
-22.9153
37.5489
-46.3736
-0.934093
6.61177
10.0625
6.45831
6.34299
1.35428
-38.8116
57.7066
-35.4415
-2.84278
2.82651
6.18152
2.68406
2.55189
5.32492
-66.051
85.0178
-18.7514
-7.06312
-1.65893
2.39685
-1.767
-2.38353
3.78677
-86.141
102.828
0.625316
-4.681
-5.73725
-2.5245
-5.7724
443.053
54.9314
0.506152
-26.8656
-33.9468
-21.581
-28.2945
-105.357
-99.1142
-96.099
-89.4656
433.623
49.6243
6.79459
369.929
47.8756
31.1518
297.597
44.0707
56.7126
246.736
33.5853
48.0771
16.0693
29.1875
-944.363
-2051.54
-1177.18
-87.9086
-800.251
1417.7
275.49
-47.5261
864.292
316.953
102.362
242.917
370.183
101.606
87.2624
278.07
-21.5575
-30.7737
274.151
66.9299
-5.4112
-0.034445
-36.0972
-1.22705
-34.8448
210
-122.92
-47.4563
39.7261
51.3902
44.4857
53.3858
185.83
-73.3459
-12.9427
35.0698
7.47694
35.2792
8.33563
139.188
-161.768
-10.5198
50.8509
47.0115
51.5809
46.4968
129.806
-129.979
17.2403
44.7074
24.0326
43.7093
22.556
138.875
-143.164
10.5539
41.5494
28.8265
40.4451
27.0882
177.67
-89.0106
-7.7958
26.2512
2.52705
24.9806
1.75552
228.317
-47.3277
-21.2522
9.43838
-11.9901
9.74387
-9.71489
267.333
10.2638
7.32276
271.573
33.9057
30.0132
254.945
54.0161
42.9234
234.343
57.3405
42.1034
217.912
44.3667
24.3451
19.1204
16.9745
782.004
-1059.47
2742.77
728.791
-755.098
596.164
526.167
124.56
308.431
478.963
126.543
32.4818
439.741
137.158
-46.2497
410.466
9.90761
-125.208
445.513
20.8068
-42.9792
417.418
-92.2666
-89.5503
393.819
-62.8659
-24.0355
346.085
-118.781
-17.6558
291.089
-79.0481
47.9078
231.764
-87.4822
52.7678
187.018
-49.8328
27.5445
168.988
-32.6937
8.1234
174.98
1.43267
-1.02985
186.687
21.1694
-5.96707
205.199
33.9692
-7.49713
225.448
34.7664
-4.80411
241.968
23.6804
-8.34214
8.33158
0.273057
1638.87
156.706
1523.11
712.675
-301.827
545.828
506.832
170.67
-2.3848
454.012
98.2614
-71.1907
458.147
98.7743
-37.6159
464.041
-2.65383
-99.3904
466.737
2.4486
-3.44164
450.12
-71.8097
-27.1383
424.049
-48.2305
38.0919
381.951
-76.0325
23.7208
340.384
-40.4386
66.0227
298.008
-43.4034
41.734
266.343
-23.627
44.9969
245.588
-16.5187
27.2947
245.333
-3.8493
16.7456
258.473
8.41804
5.24445
281.189
12.6276
-4.02294
302.884
11.1862
-8.95086
319.304
3.53174
-13.2224
-1.17216
-2.16094
587.124
-971.074
2476.05
148.964
-11.9766
-598.804
332.928
-30.3691
-83.9946
359.576
79.4225
-13.5015
446.086
22.2759
98.0318
455.185
-4.10305
19.9014
465.917
-19.2184
102.432
443.73
-45.4245
43.5945
419.109
-33.0807
79.3175
388.227
-41.8671
42.0831
369.016
-26.9833
55.5405
354.509
-29.9976
30.9433
348.089
-22.0677
32.1083
346.431
-18.2093
23.6272
349.835
-10.7544
22.6516
359.607
-1.37451
14.4626
371.323
1.18842
9.26163
379.864
0.257554
8.31435
384.468
-4.16499
3.62764
-4.59214
13.6946
1671.82
-591.829
2465.58
1131.18
114.661
137.495
859.98
238.512
46.3167
763.755
183.463
53.9959
631.785
147.508
118.034
576.398
63.7626
45.548
520.846
25.7324
101.089
492.048
-6.32118
40.1775
466.267
-16.3981
79.7946
445.457
-19.3048
45.4856
428.309
-16.9399
57.9915
414.267
-16.5853
33.2198
404.34
-15.3336
31.487
399.198
-13.7409
20.7305
399.147
-12.049
19.1039
404.566
-7.67798
14.6694
411.221
-6.86999
13.4926
414.94
-6.35104
18.3733
416.317
-7.75207
14.2991
-5.60519
23.8253
-168.118
85.9492
3215.36
429.072
-621.053
-528.74
633.509
-374.164
-9.47408
677.65
-79.5228
66.0288
609.371
38.1234
98.4429
582.013
43.6798
9.03764
546.009
16.4862
89.4185
537.051
4.19366
36.9913
529.489
-14.0685
83.2681
526.354
-7.71553
48.6066
516.87
-6.08133
50.2161
505.075
0.816172
18.9936
491.259
3.02222
11.7221
479.528
4.72338
-6.35242
468.55
5.24193
-12.3572
461.24
6.84225
-19.8868
455.773
6.18834
-21.4002
451.056
4.58368
-20.5458
448.515
0.14304
-27.0134
-5.5692
-12.1686
526.721
-1235.9
854.253
-1043.92
798.716
-374.915
849.597
54.5504
823.704
177.369
848.649
43.3268
807.008
77.6096
795.601
2.13592
764.95
34.4611
754.324
8.31202
740.962
24.7901
738.442
16.2695
733.874
18.2931
734.587
15.5193
735.098
15.3368
739.386
13.8306
743.366
13.4573
747.924
10.7911
748.195
0.317234
3.67291
520.065
-32.0303
-1839.02
195.634
-133.146
1391.83
459.837
-84.0514
342.176
526.656
55.217
145.178
499.804
108.35
408.852
531.554
57.4627
125.291
536.987
23.3343
174.304
574.6
-3.03045
58.7721
598.167
-4.2011
76.5902
623.805
-6.14982
9.00256
620.342
3.88551
9.91925
609.91
10.1934
-1.71192
588.686
29.0307
38.5988
579.176
43.8102
64.0182
574.451
48.7843
67.1685
554.381
37.9195
14.7153
518.969
25.9633
-21.6494
486.781
13.6881
-27.2469
458.585
10.8129
-27.5293
10.9129
-12.2228
-154.723
-434.768
1080.54
-81.1057
-384.096
629.684
135.695
-234.916
-131.174
185.23
-9.58187
55.132
251.264
53.6517
177.312
286.206
30.311
59.8622
302.784
13.7899
106.642
313.014
0.697562
0.82968
318.819
-0.681822
13.5488
320.707
-0.39071
-50.6171
318.276
2.99554
-38.7427
313.348
10.6103
-57.7508
317.043
24.593
-19.0156
327.645
39.3498
-3.45728
338.768
46.9139
11.4571
341.643
42.6965
2.80669
333.915
37.8854
5.29161
320.296
31.3715
10.2237
306.724
31.6407
13.1432
25.5262
21.769
-61.1095
-659.234
283.77
-226.928
-416.145
-491.663
-82.6608
-345.099
-360.497
-21.188
-141.931
-71.0313
89.8307
-17.2734
13.8078
121.735
-9.73223
-33.8463
149.418
-2.74697
16.4457
140.111
2.99259
-44.0456
138.38
-1.00999
-6.20321
123.203
3.46383
-34.3115
126.851
-4.43924
-15.6945
128.337
0.0951655
-25.6331
147.377
3.34915
-10.472
175.096
15.5519
0.96512
205.973
22.6786
11.4564
225.217
28.9684
9.03993
234.731
34.3644
12.2732
235.518
35.6668
24.5205
230.902
41.583
19.3505
33.653
27.5477
-344.987
-859.427
-649.222
-201.915
-378.927
-855.797
-160.815
-375.847
-656.055
-91.5367
-247.836
-119.711
-11.0913
-52.6444
-23.5767
7.05445
-39.8732
-2.90366
71.8718
-42.1985
9.56246
49.1552
14.1177
-18.2039
58.3795
-6.97961
-0.734041
29.6703
19.9915
-10.9085
37.8233
-8.92888
-2.69966
37.7934
-1.22754
-4.63128
65.1992
-16.3444
-3.26637
90.7166
-2.55257
-1.03907
119.999
1.24162
2.98174
140.298
11.8174
-0.56537
155.724
23.5564
4.06181
164.886
31.4762
10.0495
167.998
38.7652
10.8015
33.1565
25.3744
157.601
-509.316
272.811
135.082
-388.732
-487.434
-72.1192
-180.573
-454.035
-88.0922
-221.915
-41.2678
-26.5264
-70.0194
-50.2305
-68.4723
-15.0651
25.7317
0.604602
-80.3838
19.2047
-26.158
33.4925
7.717
6.21343
-20.4123
12.029
-0.521165
28.0631
3.735
19.7886
-19.4032
8.52179
22.1711
-3.49235
2.05341
48.2682
-32.4777
2.99096
68.5236
-15.2998
2.85267
94.0816
-14.7538
5.10893
109.813
1.40497
0.922646
124.029
13.2572
1.73938
135.692
24.4244
4.73084
141.023
33.2531
7.31439
30.9111
20.1901
-475.298
-821.227
19.1717
-557.29
-643.896
-783.537
-401.672
-398.002
-348.841
-285.743
-342.436
-13.0921
-129.446
-215.885
-38.3631
-131.633
-40.8304
15.3267
42.3536
-235.106
-2.05965
0.795802
53.3546
-14.5265
40.6971
-53.0365
-0.655896
28.0033
32.4314
-1.88025
44.3654
-30.3026
5.35594
44.7064
-2.76033
7.56857
58.9101
-35.8936
13.85
69.3393
-14.7692
14.1419
81.7442
-17.6339
9.81197
89.2515
-2.08005
2.41506
95.882
9.19175
-2.41598
106.916
18.2574
-0.39292
113.25
27.3183
5.54632
26.3961
18.2436
1369.34
-234.324
4744.75
365.861
-463.177
-118.097
-208.803
-162.32
-192.623
-212.665
-403.622
5.27091
-123.089
-316.556
-119.36
-224.871
24.9794
2.06222
-133.87
-62.7093
-29.5463
-105.353
-64.5724
-101.951
-125.407
6.21082
2.29054
11.7764
10.7815
12.6006
-69.5587
-13.2166
-25.8976
-44.3955
-16.4825
-45.3785
-49.0708
5.09119
-0.907985
-1.50606
5.38985
-1.78828
-20.3211
-2.12218
7.35148
-25.2156
-3.71948
-26.5892
-5.29497
3.83945
12.5276
-8.73227
3.43201
-9.35201
10.562
-0.484415
18.4934
-19.5227
-1.24541
-20.0678
21.3722
3.01534
15.4014
-11.5646
3.08045
-11.3779
35.7795
-25.5588
6.33977
47.7909
-11.0413
-0.103454
63.2506
-2.04981
-3.91978
81.2502
8.09938
-4.01779
94.2836
16.1786
3.15962
19.0935
16.4507
220.359
344.422
-3961.63
-1007.31
6.75663
644.77
-463.283
-372.829
-143.206
-361.854
-579.734
25.7614
-142.261
-542.028
-120.604
-40.918
-9.73726
37.7358
-39.8158
-47.2029
-47.8578
14.6603
-2.23053
17.2248
3.58615
-39.8077
-57.2781
-10.1276
7.70737
54.7517
-36.0787
-19.3417
-0.82784
6.46255
14.996
-15.0413
-14.2767
-5.35709
5.40045
14.0802
-8.21906
-2.79967
-3.37071
1.49385
-1.52567
0.252921
-0.413286
-1.93
-3.3796
-2.01148
3.23568
2.7587
3.23613
-6.80353
-9.75601
8.00635
2.8236
5.24519
-7.28382
-10.0096
10.9385
3.93596
5.43428
23.9812
2.70078
8.43875
-12.2242
-10.0294
-2.71609
-0.643625
-13.7061
2.57974
-13.6822
31.7282
-20.8058
-1.0674
40.6656
-12.0234
-4.97162
60.6745
-3.92449
-10.0421
75.1043
4.51363
-0.632768
8.96186
13.5748
301.633
462.759
-2945.2
-123.743
-23.4433
65.1878
-127.475
-498.768
-368.4
-296.377
-413.177
43.2528
-63.1265
-563.89
-158.78
-70.6094
-73.7861
-77.7038
4.31361
-34.3538
-47.7877
4.96403
3.67567
11.2743
-0.817602
-1.05393
-9.64531
-3.43317
2.76166
2.24349
11.7312
-1.46565
-12.9117
-2.359
1.92845
-3.19029
5.67726
3.55863
-6.03562
-1.93844
1.98031
-2.91265
2.53034
3.3254
-3.11509
-1.80831
0.60224
-5.29833
1.05116
5.58946
-1.24623
-0.698301
-0.663455
-5.82426
-0.144303
5.88345
0.181416
0.567146
-1.56021
-6.07551
-1.00891
5.9053
1.38287
1.35646
-1.77659
-5.31856
-1.16711
5.34931
1.30925
1.60371
-5.72067
-4.11167
19.0902
4.47791
3.42844
-5.48384
-4.60116
-4.37847
36.0286
-16.1647
11.3839
-17.79
-17.661
-7.09501
-5.83342
42.9707
-20.0329
3.27193
61.2905
-15.7687
-3.23667
75.9362
-8.01801
0.408312
0.333158
13.8197
1466.04
507.835
772.438
978.723
-82.4293
7.41445
605.604
-311.273
-705.924
324.755
-160.623
-375.115
7.77176
-377.235
-288.71
35.4111
-4.35882
21.2664
21.9021
80.4847
6.14167
-84.838
-15.9187
-1.50276
18.3736
-3.92211
5.55723
-19.8686
1.36261
-0.994532
15.7808
-6.64685
7.33897
-16.5222
1.0439
0.0394252
9.77495