/*--------------------------------*- C++ -*----------------------------------*\
  =========                 |
  \\      /  F ield         | OpenFOAM: The Open Source CFD Toolbox
   \\    /   O peration     | Website:  https://openfoam.org
    \\  /    A nd           | Version:  10
     \\/     M anipulation  |
\*---------------------------------------------------------------------------*/
FoamFile
{
    format      ascii;
    class       volScalarField;
    location    "8.9";
    object      turbidity;
}
// * * * * * * * * * * * * * * * * * * * * * * * * * * * * * * * * * * * * * //

dimensions      [0 0 0 0 0 0 0];

internalField   nonuniform List<scalar> 
12920
(
-0.0333993
-0.0367842
-0.0457072
-0.0601461
-0.0796336
-0.103846
-0.12568
-0.143327
-0.157866
-0.170684
-0.181622
-0.19044
-0.198577
-0.2105
-0.226221
-0.238771
-0.240675
-0.240156
-0.245107
-0.258144
-0.0212937
-0.043343
-0.0552166
-0.0700572
-0.0881317
-0.10732
-0.124976
-0.141767
-0.160619
-0.179298
-0.200717
-0.220437
-0.239394
-0.257997
-0.277205
-0.295955
-0.312601
-0.328852
-0.348043
-0.371809
-0.0187293
-0.0383807
-0.0514933
-0.0641667
-0.0793966
-0.0952244
-0.114317
-0.133123
-0.161109
-0.196189
-0.241
-0.284996
-0.323345
-0.349767
-0.370455
-0.388579
-0.404711
-0.421287
-0.440079
-0.462136
-0.030568
-0.0468102
-0.0570465
-0.0782108
-0.0971993
-0.11944
-0.144686
-0.170478
-0.204084
-0.24327
-0.288976
-0.33447
-0.376337
-0.411977
-0.441512
-0.46503
-0.482995
-0.498683
-0.513534
-0.529874
-0.0316391
-0.0578307
-0.0748105
-0.100542
-0.119407
-0.136167
-0.154019
-0.176267
-0.202768
-0.234792
-0.27023
-0.308307
-0.346685
-0.384954
-0.421707
-0.455658
-0.485188
-0.509863
-0.530119
-0.548214
-0.0356728
-0.0621013
-0.0725673
-0.0959654
-0.115024
-0.128352
-0.143602
-0.158993
-0.181952
-0.210293
-0.243472
-0.280703
-0.321149
-0.365563
-0.411242
-0.453603
-0.488278
-0.516854
-0.541502
-0.563357
-0.0124176
-0.046797
-0.0724026
-0.0964211
-0.117586
-0.135686
-0.147346
-0.170252
-0.192861
-0.224341
-0.258235
-0.294589
-0.329733
-0.365162
-0.401348
-0.438399
-0.473543
-0.505615
-0.535556
-0.563503
-0.0120854
-0.039412
-0.0608431
-0.0857107
-0.109725
-0.125669
-0.118604
-0.109484
-0.116054
-0.129127
-0.155639
-0.179123
-0.200282
-0.207013
-0.215962
-0.259899
-0.308191
-0.359452
-0.411135
-0.459926
-0.0397471
-0.0435561
-0.0618217
-0.0915283
-0.121945
-0.114919
-0.107814
-0.0979947
-0.0987004
-0.105466
-0.115832
-0.120835
-0.126933
-0.135983
-0.128246
-0.15245
-0.199837
-0.248798
-0.300689
-0.35238
-0.0238109
-0.0585014
-0.0578992
-0.0926
-0.120373
-0.130504
-0.131282
-0.11906
-0.111034
-0.105923
-0.102617
-0.096374
-0.0895644
-0.089128
-0.092129
-0.132091
-0.171847
-0.212247
-0.255871
-0.302571
-0.0257466
-0.0473808
-0.0567323
-0.0673658
-0.0854198
-0.0950546
-0.115381
-0.130246
-0.124598
-0.110232
-0.0950113
-0.0825059
-0.0730457
-0.0672558
-0.0809219
-0.122874
-0.163168
-0.202831
-0.243462
-0.286911
-0.031156
-0.0491526
-0.0674676
-0.0847761
-0.115538
-0.130165
-0.148837
-0.155878
-0.157641
-0.147607
-0.115474
-0.0884642
-0.0722841
-0.0624577
-0.0695689
-0.103436
-0.141649
-0.187697
-0.24006
-0.296225
-0.0274992
-0.0444003
-0.0679883
-0.100768
-0.132011
-0.155514
-0.155906
-0.163381
-0.17915
-0.196194
-0.209714
-0.197264
-0.163134
-0.122668
-0.115973
-0.134448
-0.165732
-0.215101
-0.28498
-0.369235
-0.035803
-0.052277
-0.07233
-0.101876
-0.127292
-0.139863
-0.161023
-0.187347
-0.228155
-0.271132
-0.31482
-0.345131
-0.347153
-0.323174
-0.296782
-0.293186
-0.312848
-0.356847
-0.418431
-0.485973
-0.0101705
-0.0356499
-0.0562092
-0.0699002
-0.0826289
-0.0925117
-0.115154
-0.135554
-0.167608
-0.207931
-0.258275
-0.316843
-0.367683
-0.394131
-0.393132
-0.389325
-0.39438
-0.41093
-0.431184
-0.454424
-0.0104924
-0.0326668
-0.0491139
-0.0612181
-0.0776233
-0.0971004
-0.125121
-0.155596
-0.189674
-0.230195
-0.278834
-0.334629
-0.386618
-0.423334
-0.4408
-0.445332
-0.442319
-0.438555
-0.439477
-0.449289
-0.0188729
-0.0440475
-0.0624653
-0.0779413
-0.098219
-0.126668
-0.158977
-0.1951
-0.232268
-0.274007
-0.318284
-0.363517
-0.404156
-0.436845
-0.460216
-0.47545
-0.485617
-0.494077
-0.502741
-0.514646
-0.0160123
-0.0385362
-0.0602145
-0.0852357
-0.113557
-0.146894
-0.180101
-0.214132
-0.249475
-0.288433
-0.329877
-0.371609
-0.410355
-0.444211
-0.472463
-0.495573
-0.514722
-0.531595
-0.547762
-0.563851
-0.0333135
-0.0474055
-0.0638062
-0.0918561
-0.125887
-0.160727
-0.191545
-0.220032
-0.249022
-0.279724
-0.308921
-0.334231
-0.354104
-0.367511
-0.377004
-0.386278
-0.397453
-0.409516
-0.420325
-0.439253
-0.0299303
-0.062156
-0.081988
-0.101202
-0.117484
-0.12916
-0.141698
-0.162077
-0.19295
-0.229979
-0.267355
-0.301422
-0.330634
-0.355247
-0.376074
-0.394198
-0.410545
-0.425583
-0.438374
-0.449518
-0.00829432
-0.0134292
-0.0223426
-0.0319752
-0.0421101
-0.0432696
-0.0439095
-0.0450822
-0.0493949
-0.0512248
-0.0558738
-0.0663448
-0.0811349
-0.0912016
-0.0852013
-0.0636533
-0.0443536
-0.0320058
-0.0251234
-0.021705
-0.0157068
-0.0111706
-0.0174348
-0.0238209
-0.033842
-0.0343924
-0.0365971
-0.0367657
-0.042461
-0.0504613
-0.0621663
-0.0746393
-0.0868481
-0.0951945
-0.0980368
-0.0979527
-0.0994603
-0.104943
-0.111052
-0.106102
-0.00756188
-0.00745265
-0.0101949
-0.011327
-0.0166939
-0.0164226
-0.0200617
-0.0258363
-0.0369412
-0.0482192
-0.0603503
-0.0728609
-0.0880346
-0.100676
-0.110726
-0.117206
-0.120624
-0.120598
-0.114385
-0.10179
-0.00832792
-0.00746724
-0.0102182
-0.0141767
-0.0234511
-0.022291
-0.0263091
-0.0296167
-0.0394806
-0.0456979
-0.0526309
-0.0560484
-0.0625538
-0.0688569
-0.0751755
-0.0779177
-0.0798287
-0.0784679
-0.0748699
-0.0717558
-0.0136783
-0.00963421
-0.00832141
-0.013066
-0.0193926
-0.02321
-0.033967
-0.0403605
-0.0536755
-0.0600904
-0.0679188
-0.0705198
-0.0762064
-0.0765647
-0.0736581
-0.0657459
-0.0576028
-0.0502572
-0.0457982
-0.0446508
-0.0117684
-0.0113394
-0.00849227
-0.0103051
-0.014528
-0.0154605
-0.0228758
-0.0272664
-0.0369314
-0.0484336
-0.0652994
-0.0815201
-0.0965211
-0.0984599
-0.0852746
-0.0646704
-0.0479985
-0.0380903
-0.0331502
-0.0326789
-0.00478912
-0.00839735
-0.0114435
-0.0102089
-0.0145274
-0.0166051
-0.0224625
-0.0297536
-0.040816
-0.0553078
-0.0743252
-0.0897146
-0.094366
-0.0842836
-0.0639848
-0.0445692
-0.0323831
-0.026066
-0.0235859
-0.0252568
-0.00281939
-0.00475787
-0.00707087
-0.0100653
-0.0145775
-0.0160214
-0.0199606
-0.0240708
-0.0322785
-0.0475571
-0.0691866
-0.0939498
-0.107911
-0.0995877
-0.0420278
-0.0266533
-0.0196477
-0.0173588
-0.0177156
-0.0210639
-0.011681
-0.0085361
-0.00828067
-0.0120631
-0.0175851
-0.0202017
-0.0220859
-0.0306539
-0.0299254
-0.0396266
-0.0635609
-0.090595
-0.104401
-0.101902
-0.0588954
-0.0204282
-0.0158872
-0.0158599
-0.0183564
-0.0237936
-0.0132148
-0.0148324
-0.0101924
-0.012299
-0.0172561
-0.0223776
-0.034269
-0.0315449
-0.0259063
-0.0385612
-0.0612703
-0.0682821
-0.0671302
-0.0732184
-0.0575694
-0.0293871
-0.0256639
-0.0246227
-0.0260009
-0.0299844
-0.0264052
-0.0192248
-0.0189483
-0.0186352
-0.019204
-0.0213861
-0.0333158
-0.051515
-0.051421
-0.0468109
-0.0373038
-0.030636
-0.0333663
-0.0501812
-0.056616
-0.0508187
-0.0500921
-0.046577
-0.0431944
-0.0427232
-0.011937
-0.0188804
-0.0211197
-0.0198147
-0.0201092
-0.0216377
-0.0304919
-0.0540462
-0.0638009
-0.0824101
-0.0737954
-0.0405477
-0.025891
-0.0355768
-0.0514676
-0.0543359
-0.0591323
-0.0620041
-0.0638849
-0.0673414
-0.0125887
-0.0239061
-0.0328306
-0.0253173
-0.0214
-0.0209574
-0.0225649
-0.0333202
-0.0508792
-0.0674499
-0.0691666
-0.0610256
-0.0504899
-0.0430274
-0.0508195
-0.0579047
-0.069464
-0.0826552
-0.0894297
-0.0894521
-0.028404
-0.0409719
-0.0431017
-0.0295329
-0.0219187
-0.0203902
-0.0262791
-0.0371909
-0.0525243
-0.0680529
-0.0808663
-0.0807807
-0.0727713
-0.0704259
-0.075129
-0.0834286
-0.0887311
-0.0862319
-0.0766624
-0.0703197
-0.00757796
-0.0158871
-0.0181148
-0.0146202
-0.0140257
-0.0169538
-0.024796
-0.0371649
-0.0552464
-0.0764161
-0.0981669
-0.105077
-0.0897912
-0.0723077
-0.0624413
-0.0578764
-0.0554363
-0.0534367
-0.0522547
-0.0540266
-0.0102133
-0.00970973
-0.010957
-0.0124861
-0.0159636
-0.0237405
-0.0361406
-0.0529458
-0.0748977
-0.094204
-0.111364
-0.114331
-0.105922
-0.0902685
-0.0743637
-0.0599334
-0.0501466
-0.0457456
-0.0453068
-0.0487697
-0.00580198
-0.0134299
-0.0263734
-0.0325227
-0.0451624
-0.0559427
-0.0720104
-0.0860312
-0.103428
-0.115803
-0.126518
-0.128543
-0.127787
-0.123457
-0.117669
-0.10845
-0.0975646
-0.0885917
-0.0865166
-0.092251
-0.00196991
-0.00863738
-0.018641
-0.029895
-0.0445678
-0.0541092
-0.0708321
-0.0871502
-0.108235
-0.122958
-0.133081
-0.133575
-0.130819
-0.127462
-0.127799
-0.130896
-0.135548
-0.143017
-0.15222
-0.165332
-0.0201261
-0.0121764
-0.0182263
-0.0270128
-0.0380191
-0.054302
-0.0777667
-0.0962875
-0.110662
-0.113742
-0.107863
-0.0905451
-0.0700678
-0.0511333
-0.0397453
-0.0346589
-0.0342197
-0.0374999
-0.0445053
-0.056754
-0.00175693
-0.00558088
-0.0104899
-0.0238261
-0.0281761
-0.0295764
-0.0341261
-0.0385093
-0.0440437
-0.0459295
-0.0474442
-0.0479931
-0.0489217
-0.0513102
-0.0541025
-0.0572048
-0.0593162
-0.059238
-0.0559653
-0.0529598
-0.0056984
-0.00813743
-0.0157024
-0.0188132
-0.0220552
-0.0202298
-0.0220726
-0.0252172
-0.0300766
-0.0347671
-0.0401895
-0.045397
-0.0493307
-0.0479018
-0.0393651
-0.0281922
-0.0203278
-0.0157632
-0.0132799
-0.0120292
-0.00137494
-0.00542319
-0.00931722
-0.0127343
-0.0178423
-0.0184576
-0.0211898
-0.0238893
-0.0285429
-0.0324841
-0.0372876
-0.040875
-0.0438021
-0.0442183
-0.0425553
-0.0397365
-0.0374318
-0.0358085
-0.0341208
-0.0307808
-0.00261334
-0.00316213
-0.00486881
-0.0064413
-0.00864428
-0.00985412
-0.0131103
-0.0166326
-0.0212827
-0.0250001
-0.029494
-0.033831
-0.0387509
-0.0416683
-0.0431687
-0.0427532
-0.0409005
-0.0383324
-0.0354836
-0.0332159
-0.00348234
-0.00298858
-0.00466673
-0.00689673
-0.00976523
-0.0108201
-0.0137544
-0.0158063
-0.0186928
-0.0197274
-0.0209227
-0.021513
-0.0226499
-0.0233524
-0.0239383
-0.0238593
-0.0238973
-0.0239607
-0.0244714
-0.025545
-0.0065633
-0.0052462
-0.0052277
-0.00734064
-0.0101921
-0.0127737
-0.0179405
-0.0204135
-0.0249986
-0.0258273
-0.0272871
-0.0263128
-0.0257228
-0.0234348
-0.0211195
-0.0188615
-0.0175848
-0.0171584
-0.0174899
-0.018213
-0.00337719
-0.00353846
-0.00462437
-0.0059829
-0.00845941
-0.0113412
-0.0168407
-0.0205215
-0.0264405
-0.0307067
-0.0353715
-0.0366892
-0.0355908
-0.0303013
-0.0233468
-0.0176236
-0.014507
-0.0133061
-0.0131755
-0.0136016
-0.00198188
-0.00383935
-0.00522809
-0.00666006
-0.00954593
-0.0137016
-0.0193179
-0.024894
-0.0311507
-0.0352357
-0.0378035
-0.0366119
-0.0313304
-0.0237173
-0.0169503
-0.0128753
-0.011182
-0.0109217
-0.0115583
-0.0129458
-0.0052765
-0.0040021
-0.00509746
-0.00641854
-0.00822642
-0.0123132
-0.0145802
-0.022461
-0.0288262
-0.0361076
-0.042163
-0.0450464
-0.0399703
-0.028202
-0.0117469
-0.00985291
-0.00990767
-0.0109607
-0.0126292
-0.0148401
-0.00317106
-0.00433469
-0.00576635
-0.00706483
-0.0083614
-0.00964532
-0.0117635
-0.0160376
-0.0232134
-0.0316915
-0.0410912
-0.0468651
-0.0445172
-0.0319336
-0.0132082
-0.00998027
-0.0114202
-0.0134307
-0.0156364
-0.0179176
-0.0209658
-0.0120382
-0.00873934
-0.00829727
-0.00907535
-0.00957753
-0.0117054
-0.0131161
-0.015873
-0.0222157
-0.0279512
-0.0305352
-0.0342001
-0.0323801
-0.0171109
-0.0159383
-0.0167942
-0.0178078
-0.0191713
-0.0208631
-0.00587849
-0.0113758
-0.0120383
-0.011043
-0.0108005
-0.0112567
-0.0147957
-0.0191177
-0.0206758
-0.0179831
-0.0161365
-0.0180529
-0.0248384
-0.0318739
-0.0313037
-0.0353561
-0.0327931
-0.0292463
-0.0270065
-0.0264882
-0.003098
-0.00880241
-0.0131859
-0.0129881
-0.0121664
-0.0122742
-0.0147399
-0.0207644
-0.0277329
-0.0310313
-0.0270396
-0.0233696
-0.0259007
-0.0336833
-0.042816
-0.0486391
-0.0462741
-0.0412953
-0.0368747
-0.0342668
-0.0151439
-0.0186514
-0.0173656
-0.0130649
-0.0124992
-0.0145235
-0.0162513
-0.0230465
-0.0312341
-0.0369819
-0.0392717
-0.0407438
-0.0417184
-0.0429161
-0.0512387
-0.0535807
-0.0536942
-0.0505206
-0.0442798
-0.0381096
-0.0188325
-0.0293609
-0.0191898
-0.0135677
-0.0129872
-0.0155678
-0.0204987
-0.027096
-0.0334723
-0.0376882
-0.0396628
-0.0393679
-0.0400016
-0.042418
-0.0448653
-0.0449208
-0.0423386
-0.037801
-0.0334709
-0.0314698
-0.00419756
-0.0115152
-0.0114153
-0.0110841
-0.0123824
-0.0161776
-0.0223311
-0.0294237
-0.0372587
-0.0425684
-0.0455127
-0.0424946
-0.0356956
-0.0311324
-0.0292271
-0.0284647
-0.0280946
-0.0281271
-0.028954
-0.0310699
-0.00385586
-0.00894983
-0.0116977
-0.0140089
-0.0174948
-0.0219872
-0.0290626
-0.0366594
-0.0455544
-0.0497267
-0.0512132
-0.0462092
-0.0397405
-0.0335012
-0.0293754
-0.0271559
-0.0269443
-0.0284109
-0.0313535
-0.035525
-0.00937133
-0.015926
-0.0207627
-0.0214492
-0.0261674
-0.0289684
-0.0374714
-0.0440922
-0.0526043
-0.0554781
-0.0563752
-0.0527994
-0.0492728
-0.0457504
-0.0435115
-0.0419723
-0.0418293
-0.0435112
-0.0470105
-0.0516508
-0.0011569
-0.00538794
-0.0122538
-0.0172055
-0.0224178
-0.0258235
-0.0355078
-0.044396
-0.0546046
-0.0578385
-0.057608
-0.0528147
-0.0487958
-0.0467198
-0.0480101
-0.0516136
-0.0566899
-0.0629311
-0.0695197
-0.0762146
-0.0183838
-0.0111027
-0.0143746
-0.0180559
-0.0248539
-0.0329241
-0.0438705
-0.0498603
-0.0528298
-0.0482718
-0.0406866
-0.0310054
-0.0236189
-0.0194393
-0.0183131
-0.0194459
-0.0223208
-0.0267601
-0.0329146
-0.0416958
-0.00238471
-0.00450501
-0.00762533
-0.0111169
-0.0153789
-0.0185512
-0.0218085
-0.0234621
-0.0244207
-0.0241269
-0.0234836
-0.0223609
-0.0212512
-0.0203476
-0.0198336
-0.0196727
-0.0196542
-0.0195456
-0.0196182
-0.0204089
-0.00245338
-0.00709099
-0.0102745
-0.00991702
-0.0125469
-0.0136499
-0.0166939
-0.0195388
-0.0226506
-0.0244781
-0.0259278
-0.025904
-0.024787
-0.0212353
-0.01637
-0.0121914
-0.0099115
-0.0088991
-0.00870834
-0.0092292
-0.00100432
-0.0042603
-0.00634601
-0.00852716
-0.0117222
-0.012684
-0.0148073
-0.0154876
-0.0166029
-0.0169386
-0.017545
-0.0173458
-0.0168554
-0.0155394
-0.0141941
-0.0129471
-0.0125725
-0.0129905
-0.0140581
-0.0154596
-0.00129037
-0.00278191
-0.00421752
-0.00542464
-0.00674727
-0.00793286
-0.00988187
-0.0111769
-0.01267
-0.0135223
-0.0145432
-0.0151791
-0.0159195
-0.0158492
-0.0157671
-0.0155291
-0.015502
-0.0159159
-0.0167488
-0.0179144
-0.000334428
-0.00124583
-0.00306746
-0.00513978
-0.00660782
-0.00747945
-0.00908976
-0.00984801
-0.0107065
-0.0108118
-0.0109458
-0.0109104
-0.0110402
-0.0111384
-0.0114315
-0.0118
-0.0124247
-0.0132126
-0.0141371
-0.0150426
-0.00734098
-0.00595788
-0.00452405
-0.0059283
-0.00782548
-0.00936361
-0.0119907
-0.0124005
-0.0135348
-0.0127212
-0.0123097
-0.0112077
-0.0105635
-0.00990243
-0.0096217
-0.00961171
-0.00991978
-0.0104063
-0.0110219
-0.0116456
-0.00484049
-0.00262988
-0.00409667
-0.00629953
-0.00891562
-0.0113009
-0.0146418
-0.0153891
-0.0167493
-0.0160339
-0.0153266
-0.0135398
-0.0117454
-0.00986479
-0.00856578
-0.00803782
-0.00812836
-0.00854422
-0.00915339
-0.0098906
-0.00401102
-0.00518661
-0.00490092
-0.00697882
-0.00992811
-0.0133103
-0.0151073
-0.0164797
-0.0162691
-0.0156346
-0.0140371
-0.0120699
-0.00983152
-0.00815618
-0.00737601
-0.00736582
-0.00784635
-0.00862129
-0.00962265
-0.010871
-0.00155178
-0.00297814
-0.00389174
-0.00527641
-0.00740884
-0.0116658
-0.0128226
-0.0160261
-0.016595
-0.0168175
-0.0159068
-0.013814
-0.0106343
-0.00808344
-0.00710026
-0.00764411
-0.00838361
-0.00923422
-0.010173
-0.0112551
-0.00127641
-0.00335056
-0.0043673
-0.00527538
-0.00673684
-0.00885638
-0.0104939
-0.0126043
-0.0147234
-0.0164477
-0.0164769
-0.0143021
-0.0107005
-0.00778658
-0.00714661
-0.00884689
-0.00959661
-0.0102433
-0.0108623
-0.0115636
-0.00691694
-0.0073614
-0.00706682
-0.0071583
-0.00768762
-0.00800788
-0.00915157
-0.0105169
-0.0119354
-0.013245
-0.0131109
-0.0121686
-0.0111789
-0.00943589
-0.00964835
-0.0126101
-0.0134041
-0.0141168
-0.0148942
-0.015717
-0.00417857
-0.00909657
-0.008458
-0.00880624
-0.00964051
-0.0100439
-0.0114276
-0.0144067
-0.0159989
-0.0143232
-0.0123161
-0.0128929
-0.0155098
-0.0173585
-0.0198775
-0.0206928
-0.019335
-0.0184833
-0.0185302
-0.0192244
-0.00794024
-0.0119874
-0.0129199
-0.0112414
-0.010502
-0.0110253
-0.0128184
-0.0163894
-0.0208811
-0.0236629
-0.0233366
-0.0219644
-0.0236073
-0.0298961
-0.0390518
-0.031988
-0.0261031
-0.0217692
-0.0194956
-0.0187546
-0.00638781
-0.0102873
-0.00974641
-0.00963302
-0.0101342
-0.0120619
-0.0134184
-0.0178827
-0.0207385
-0.0234589
-0.0270484
-0.0326475
-0.0389245
-0.0453915
-0.0409142
-0.0369269
-0.0314283
-0.0254893
-0.0206729
-0.0179106
-0.0231614
-0.0172169
-0.0102401
-0.00982905
-0.0106568
-0.0132492
-0.0158744
-0.0183852
-0.0197998
-0.0203808
-0.0210579
-0.0214473
-0.022583
-0.0235335
-0.023551
-0.0220144
-0.0198133
-0.017706
-0.0162913
-0.0158117
-0.00656715
-0.00838807
-0.00756509
-0.00887468
-0.0112716
-0.0145306
-0.0180225
-0.020348
-0.0219482
-0.0217269
-0.0212119
-0.0195748
-0.0178687
-0.0169228
-0.0164632
-0.0162552
-0.016205
-0.0163168
-0.0166243
-0.0170877
-0.0022835
-0.00680963
-0.00947089
-0.0114745
-0.0140041
-0.0165442
-0.0204665
-0.0227098
-0.0250051
-0.024087
-0.0230607
-0.020861
-0.0194995
-0.0187871
-0.0186951
-0.018865
-0.019273
-0.0198616
-0.0205645
-0.0212385
-0.00601953
-0.0126869
-0.0133368
-0.0133472
-0.0152977
-0.0166024
-0.0210517
-0.0231747
-0.0258404
-0.0252037
-0.0248331
-0.0236802
-0.0235549
-0.0238481
-0.0246086
-0.0253371
-0.0259634
-0.0263879
-0.0266589
-0.0267325
-0.00402931
-0.00834128
-0.0119957
-0.0132451
-0.0146369
-0.0157235
-0.0200854
-0.0223812
-0.0252746
-0.0245502
-0.0240172
-0.0231041
-0.0237904
-0.0255633
-0.0282739
-0.0310662
-0.0334697
-0.0352783
-0.0363411
-0.0364416
-0.00843561
-0.0127183
-0.0151171
-0.0170736
-0.0198617
-0.0206754
-0.0224482
-0.0206232
-0.019524
-0.0164342
-0.0143498
-0.012872
-0.0127983
-0.0138224
-0.015606
-0.0180127
-0.020934
-0.0243878
-0.028423
-0.0331146
-0.00309344
-0.00456392
-0.00736067
-0.0104898
-0.0138076
-0.0154066
-0.016487
-0.0162138
-0.0158036
-0.0149719
-0.0142565
-0.013448
-0.0127421
-0.0121494
-0.0117882
-0.0117065
-0.0120135
-0.0128693
-0.0145668
-0.0173313
-0.00185025
-0.00465163
-0.00596904
-0.00721957
-0.00958877
-0.0104726
-0.0122431
-0.0127838
-0.0134359
-0.0127538
-0.0118875
-0.0103982
-0.00927604
-0.00818236
-0.00778542
-0.00821376
-0.00929194
-0.0106581
-0.0121088
-0.0135228
-0.00217508
-0.00415686
-0.00510677
-0.00745499
-0.00927222
-0.00980585
-0.0102261
-0.00972395
-0.00922912
-0.00862759
-0.00832149
-0.00824825
-0.00855157
-0.00905124
-0.00974706
-0.0104925
-0.0112406
-0.0119654
-0.0126877
-0.0133873
-0.000439335
-0.00256154
-0.0039737
-0.00562056
-0.0067517
-0.00756198
-0.00794858
-0.00795971
-0.00804544
-0.00817206
-0.00856473
-0.00903967
-0.00967003
-0.0102382
-0.0108361
-0.0113533
-0.011797
-0.0121675
-0.0124901
-0.012761
-0.000543044
-0.00182692
-0.00355527
-0.00506027
-0.00612965
-0.00683168
-0.00721695
-0.00727599
-0.00740828
-0.00761527
-0.00801598
-0.00853217
-0.00911721
-0.00969606
-0.0102324
-0.0106867
-0.0110622
-0.0113621
-0.0116282
-0.0118636
-0.000686068
-0.00195469
-0.00410441
-0.00590551
-0.00698721
-0.00746607
-0.00767818
-0.00736245
-0.00726237
-0.00714517
-0.00736026
-0.00775527
-0.00827844
-0.00885994
-0.00942585
-0.00995449
-0.0104207
-0.010826
-0.0111912
-0.0115008
-0.00284485
-0.00212715
-0.00415546
-0.00640458
-0.00768289
-0.00804768
-0.00801889
-0.00748839
-0.00720289
-0.00693966
-0.00705287
-0.00732758
-0.00778518
-0.00835884
-0.00900139
-0.00966637
-0.0103065
-0.010912
-0.0114812
-0.0119729
-0.00353456
-0.00303046
-0.0046996
-0.00653168
-0.0073966
-0.00768915
-0.00695567
-0.00690428
-0.00656027
-0.00664234
-0.00678908
-0.0071339
-0.00761934
-0.00825158
-0.00897747
-0.00973536
-0.0104967
-0.011255
-0.0119972
-0.0126595
-0.00100025
-0.00196744
-0.00347208
-0.00504347
-0.00610086
-0.00705415
-0.00665345
-0.00698694
-0.00635881
-0.00638444
-0.00625965
-0.00650903
-0.00687671
-0.00748046
-0.00898746
-0.00966927
-0.0103358
-0.010982
-0.0116037
-0.0121355
-0.000894331
-0.0016154
-0.00244224
-0.00425179
-0.0055626
-0.0065648
-0.0064179
-0.00624004
-0.00600746
-0.00582708
-0.00575086
-0.00605819
-0.00658463
-0.00715054
-0.00813042
-0.00967182
-0.0101709
-0.0106156
-0.0110232
-0.011372
-0.00938563
-0.00467499
-0.00347004
-0.00474727
-0.00639039
-0.00698915
-0.00754323
-0.00750923
-0.00680242
-0.0061351
-0.00602039
-0.00682022
-0.00795977
-0.00886566
-0.0100883
-0.0113224
-0.0115382
-0.0116087
-0.0116417
-0.0117164
-0.00426821
-0.0061552
-0.00694119
-0.00745367
-0.00814425
-0.00889092
-0.0103521
-0.0120551
-0.0118845
-0.010212
-0.00913535
-0.00995729
-0.0112998
-0.0121237
-0.0127129
-0.0128367
-0.0129375
-0.0128605
-0.0128019
-0.0128462
-0.00451867
-0.00952824
-0.00996558
-0.0097209
-0.00965472
-0.0100141
-0.0105634
-0.0118012
-0.0139683
-0.0154009
-0.015595
-0.0166964
-0.0188243
-0.019258
-0.014968
-0.0127291
-0.0121962
-0.0117964
-0.0116316
-0.0116473
-0.00184537
-0.0053153
-0.00841701
-0.00941213
-0.00947232
-0.00983559
-0.0102325
-0.0116928
-0.0123797
-0.0139836
-0.0161254
-0.0192783
-0.0214449
-0.0216309
-0.0149695
-0.0136599
-0.0122355
-0.0110588
-0.01046
-0.0103515
-0.00566601
-0.00841075
-0.007674
-0.00841673
-0.00899794
-0.00984354
-0.0103869
-0.0107404
-0.0109211
-0.0109928
-0.0110824
-0.0110008
-0.0109557
-0.0108827
-0.0106676
-0.0102908
-0.00997319
-0.00981448
-0.00986273
-0.0101143
-0.0068976
-0.00567454
-0.00632467
-0.00814677
-0.00955162
-0.0106184
-0.0113044
-0.0114685
-0.0114723
-0.011228
-0.0110606
-0.0107081
-0.0102767
-0.0099485
-0.00971067
-0.00957849
-0.0095536
-0.00964327
-0.00985223
-0.0101762
-0.00652461
-0.00650914
-0.00805838
-0.00970724
-0.0107566
-0.0114589
-0.0123037
-0.0123769
-0.0125973
-0.0122346
-0.0120838
-0.0117377
-0.0114562
-0.0111532
-0.0108726
-0.0105541
-0.0103788
-0.0103574
-0.0104832
-0.0107614
-0.00937192
-0.00687929
-0.0077908
-0.00907526
-0.0101382
-0.011105
-0.0124104
-0.0127225
-0.0134577
-0.0134768
-0.0137749
-0.0137461
-0.0137127
-0.0134583
-0.0131267
-0.0126457
-0.0121731
-0.0118275
-0.0116915
-0.011752
-0.00935358
-0.0116819
-0.00908694
-0.00824879
-0.00905584
-0.00987594
-0.0113583
-0.0118492
-0.0130667
-0.0137144
-0.0148046
-0.0156293
-0.01641
-0.016847
-0.0170713
-0.0169315
-0.0165957
-0.0161512
-0.0157463
-0.0153816
-0.00317602
-0.00971453
-0.0116798
-0.0117841
-0.0116083
-0.0101904
-0.00979445
-0.00886757
-0.00911404
-0.00983357
-0.0113489
-0.0133609
-0.0156702
-0.0180989
-0.0204814
-0.0227033
-0.0246878
-0.0264383
-0.0279937
-0.0294332
-0.00138805
-0.00416658
-0.00782574
-0.0110167
-0.0123177
-0.0119561
-0.0115191
-0.01031
-0.00933266
-0.00826386
-0.00769619
-0.00763074
-0.00842183
-0.010157
-0.0128595
-0.0163723
-0.0203848
-0.0246522
-0.02875
-0.0327189
-0.0268773
-0.0166043
-0.0168685
-0.0167522
-0.0176245
-0.0138328
-0.0137828
-0.0299016
-0.0171187
-0.0185888
-0.0177439
-0.017603
-0.013953
-0.0150038
-0.0163735
-0.0278796
-0.0239401
-0.0151788
-0.0141921
-0.0233505
-0.0218638
-0.0171053
-0.0225471
-0.0202501
-0.0141429
-0.0149271
-0.0213192
-0.0200242
-0.0994594
-0.118218
-0.111392
-0.0888916
-0.0838338
-0.113345
-0.110398
-0.0977762
-0.109312
-0.105849
-0.0848623
-0.0820955
-0.108003
-0.0988628
-0.103085
-0.105354
-0.104413
-0.0800193
-0.0814217
-0.0957554
-0.0938553
-0.113255
-0.104303
-0.104243
-0.0863923
-0.10577
-0.0955569
-0.101444
-0.11978
-0.104019
-0.101227
-0.111869
-0.122745
-0.102583
-0.103724
-0.124437
-0.0995597
-0.0947989
-0.125532
-0.132381
-0.103881
-0.105759
-0.134148
-0.0941877
-0.0963805
-0.134478
-0.135744
-0.106734
-0.107221
-0.132523
-0.0972789
-0.0958936
-0.134347
-0.123957
-0.105992
-0.099405
-0.121899
-0.126636
-0.128922
-0.125422
-0.119019
-0.120087
-0.126951
-0.112661
-0.128415
-0.12259
-0.115497
-0.101909
-0.127322
-0.119695
-0.10696
-0.119767
-0.110385
-0.0982945
-0.096367
-0.115382
-0.102186
-0.1035
-0.107287
-0.0985698
-0.0975516
-0.100125
-0.0986382
-0.0909474
-0.0983823
-0.0957749
-0.0877172
-0.100385
-0.0993814
-0.0888503
-0.0808513
-0.0906758
-0.0852117
-0.0785518
-0.0987333
-0.0977593
-0.0771612
-0.0686334
-0.0890513
-0.076697
-0.0722492
-0.0980896
-0.0980351
-0.0678618
-0.070314
-0.0873933
-0.0712216
-0.071029
-0.0972263
-0.0934217
-0.0720795
-0.0787994
-0.128959
-0.124289
-0.143128
-0.107386
-0.127283
-0.116853
-0.143823
-0.127038
-0.145744
-0.149772
-0.130285
-0.129034
-0.148594
-0.15448
-0.114228
-0.150639
-0.144809
-0.126117
-0.111932
-0.154132
-0.143533
-0.0986076
-0.138864
-0.114816
-0.106542
-0.0922753
-0.136788
-0.111607
-0.0853286
-0.106965
-0.0879694
-0.0880268
-0.0738135
-0.102538
-0.0744409
-0.0751141
-0.0831876
-0.0721917
-0.0690234
-0.0599425
-0.0654718
-0.0471285
-0.0681979
-0.0693482
-0.0628527
-0.059264
-0.0632647
-0.0443521
-0.0466139
-0.0682127
-0.0615114
-0.0620538
-0.0659338
-0.0752853
-0.0504478
-0.0633964
-0.155263
-0.147127
-0.154472
-0.14035
-0.153346
-0.134141
-0.145414
-0.157142
-0.15678
-0.165026
-0.155677
-0.159216
-0.149615
-0.161281
-0.15287
-0.168868
-0.175047
-0.159029
-0.150069
-0.16486
-0.169999
-0.123873
-0.177132
-0.176587
-0.144077
-0.120977
-0.171756
-0.169242
-0.0940135
-0.175784
-0.161424
-0.112402
-0.0845023
-0.166194
-0.144744
-0.0756204
-0.154539
-0.129463
-0.0746847
-0.0511061
-0.133957
-0.0974406
-0.0643773
-0.119559
-0.0931499
-0.0463526
-0.0433062
-0.0854293
-0.0578804
-0.0608092
-0.0858791
-0.069483
-0.0460255
-0.0587168
-0.0526412
-0.0493788
-0.0288773
-0.0310379
-0.0334138
-0.0188523
-0.0216631
-0.0216213
-0.0211093
-0.0301041
-0.0327294
-0.030273
-0.0224098
-0.025668
-0.021213
-0.0234236
-0.0354529
-0.0302041
-0.034819
-0.0275421
-0.035514
-0.0247227
-0.0298441
-0.0565461
-0.0384762
-0.0551719
-0.0391309
-0.0493247
-0.0317426
-0.0370962
-0.0847173
-0.0611511
-0.0728905
-0.0523985
-0.0589594
-0.0386521
-0.0424636
-0.102231
-0.074589
-0.0771452
-0.0607818
-0.0624493
-0.0435465
-0.0462142
-0.10471
-0.0781998
-0.0809877
-0.061469
-0.0524997
-0.0466069
-0.0447328
-0.0860698
-0.0813192
-0.0789647
-0.0478111
-0.0322041
-0.0427618
-0.0327345
-0.0346456
-0.0401653
-0.0506924
-0.0219495
-0.0202417
-0.0256665
-0.0255209
-0.0255834
-0.0483883
-0.0387381
-0.020031
-0.0214076
-0.0248053
-0.0232909
-0.0335831
-0.0376173
-0.0359934
-0.0224927
-0.0268915
-0.0228422
-0.0213546
-0.056305
-0.0366173
-0.0397102
-0.0285356
-0.0332605
-0.0210627
-0.0212412
-0.0683589
-0.0409019
-0.0398709
-0.0345799
-0.037578
-0.0215983
-0.0230386
-0.0666445
-0.0389945
-0.0385655
-0.0384898
-0.0415348
-0.023873
-0.0285152
-0.0715333
-0.0397558
-0.0493644
-0.0424022
-0.0427075
-0.0307123
-0.036836
-0.0750187
-0.0541529
-0.0651935
-0.041568
-0.0333019
-0.0379026
-0.0359299
-0.0510038
-0.0340933
-0.0557696
-0.025772
-0.0271114
-0.0250145
-0.0281083
-0.0504143
-0.0588882
-0.0661448
-0.0267054
-0.0260811
-0.0290241
-0.0327165
-0.0491228
-0.0705258
-0.0831621
-0.0257755
-0.02326
-0.0339035
-0.0344394
-0.0398215
-0.0835624
-0.0695611
-0.0221697
-0.0198315
-0.0333067
-0.0272334
-0.0313864
-0.0613118
-0.0366643
-0.0194942
-0.0198776
-0.0250379
-0.0208516
-0.0316754
-0.0310711
-0.0240788
-0.0206875
-0.0255455
-0.0205789
-0.0230995
-0.0446837
-0.0244957
-0.0339065
-0.0279163
-0.0354105
-0.0249458
-0.0327032
-0.0630988
-0.0397589
-0.0553095
-0.0371978
-0.0375948
-0.0355669
-0.0414922
-0.0504093
-0.0235111
-0.0283668
-0.0240755
-0.0276516
-0.0231216
-0.0266258
-0.0605008
-0.0313811
-0.0450873
-0.0289558
-0.0339716
-0.029077
-0.0380995
-0.0782597
-0.050618
-0.0659767
-0.0356756
-0.0379668
-0.0421783
-0.0505236
-0.0797885
-0.0717298
-0.0803502
-0.0375337
-0.0328393
-0.0528752
-0.0542295
-0.0482583
-0.079885
-0.0689147
-0.0305549
-0.0246927
-0.0533153
-0.0468387
-0.0271622
-0.063737
-0.0491377
-0.023716
-0.0242703
-0.0443306
-0.0379118
-0.0308895
-0.0447749
-0.0359641
-0.0255438
-0.0319975
-0.0365379
-0.0353619
-0.0514053
-0.0351628
-0.0400707
-0.0346668
-0.0414512
-0.0360223
-0.0399282
-0.0146756
-0.0117519
-0.0133025
-0.0119615
-0.0151037
-0.0107008
-0.0121578
-0.0213063
-0.0138181
-0.0165499
-0.0166077
-0.0205965
-0.0130223
-0.0159696
-0.0292275
-0.0179034
-0.0229259
-0.0214757
-0.0235619
-0.0167965
-0.018498
-0.0388826
-0.0248269
-0.0301366
-0.0243708
-0.025382
-0.0188759
-0.0194744
-0.0460012
-0.0314825
-0.0341857
-0.025227
-0.0233849
-0.0194595
-0.0187798
-0.0461738
-0.034896
-0.0368659
-0.0225022
-0.0185776
-0.0183845
-0.0165999
-0.0359373
-0.0370673
-0.0344699
-0.0169773
-0.0122641
-0.0157306
-0.0126109
-0.0203561
-0.0322982
-0.0230099
-0.0110003
-0.00856448
-0.0115618
-0.00931584
-0.0129247
-0.0144052
-0.0172947
-0.0101686
-0.0113077
-0.0116776
-0.0132789
-0.0147854
-0.0174867
-0.0177667
-0.0119092
-0.0139966
-0.0138895
-0.0149464
-0.0204496
-0.0176792
-0.016961
-0.0146711
-0.0163247
-0.0148789
-0.0140745
-0.0177482
-0.0239403
-0.019522
-0.0193758
-0.0208767
-0.0204792
-0.016836
-0.0206434
-0.0287424
-0.0241727
-0.0230702
-0.0248076
-0.0236434
-0.0200737
-0.0333336
-0.0196039
-0.0243314
-0.0174556
-0.016586
-0.015652
-0.0175418
-0.0338953
-0.0263268
-0.0312603
-0.0160364
-0.0135187
-0.0179705
-0.0181758
-0.0241057
-0.0316943
-0.0287844
-0.0125271
-0.0102436
-0.0179094
-0.017194
-0.0185512
-0.0150679
-0.019611
-0.0125409
-0.014407
-0.013592
-0.0171418
-0.0205618
-0.0210324
-0.0256085
-0.015258
-0.0170361
-0.0185487
-0.0224094
-0.0191719
-0.0269855
-0.0284951
-0.0170598
-0.0158313
-0.0232082
-0.0236586
-0.0178822
-0.0174264
-0.0212646
-0.0160983
-0.0200256
-0.0156577
-0.0188395
-0.0158793
-0.0161832
-0.0170018
-0.0148818
-0.0165925
-0.0150382
-0.0159651
-0.0227791
-0.0203192
-0.0230963
-0.0155468
-0.017858
-0.019918
-0.0213262
-0.0307768
-0.0247913
-0.0313906
-0.018605
-0.0202166
-0.0224144
-0.026999
-0.0312372
-0.0336864
-0.0385237
-0.0204535
-0.0209471
-0.0286426
-0.0331817
-0.0191982
-0.0147601
-0.0184452
-0.0144163
-0.0178071
-0.0149825
-0.019098
-0.026028
-0.0206945
-0.0275507
-0.0192846
-0.0237865
-0.0214651
-0.0274202
-0.030933
-0.0300972
-0.0357361
-0.0248809
-0.0262959
-0.0293463
-0.0328702
-0.0284256
-0.0373158
-0.0389615
-0.026313
-0.0254898
-0.033822
-0.0350399
-0.0237649
-0.0389061
-0.037536
-0.0250202
-0.023482
-0.0352131
-0.0349218
-0.0246653
-0.0370628
-0.0355796
-0.0231742
-0.0237654
-0.0349082
-0.0351002
-0.0314923
-0.0353135
-0.0357873
-0.0245939
-0.0288785
-0.0354882
-0.0377563
-0.0393842
-0.0365644
-0.040223