/*--------------------------------*- C++ -*----------------------------------*\
  =========                 |
  \\      /  F ield         | OpenFOAM: The Open Source CFD Toolbox
   \\    /   O peration     | Website:  https://openfoam.org
    \\  /    A nd           | Version:  10
     \\/     M anipulation  |
\*---------------------------------------------------------------------------*/
FoamFile
{
    format      ascii;
    class       volScalarField;
    location    "2.2";
    object      k_0;
}
// * * * * * * * * * * * * * * * * * * * * * * * * * * * * * * * * * * * * * //

dimensions      [0 2 -2 0 0 0 0];

internalField   nonuniform List<scalar> 
12920
(
1633.57
1028
899.959
806.707
694.791
620.9
537.887
476.649
405.875
321.418
231.994
165.672
132.921
122.636
120.07
116.593
105.926
82.3675
66.8943
49.9175
722.08
1223.1
1285.25
1224.58
948.862
889.427
768.42
698.333
536.719
393.162
268.371
186.914
153.136
139.612
131.106
119.816
112.094
104.405
102.159
96.9923
3457.42
2265.87
1886.42
1388.64
915.111
728
533.244
492.854
422.654
374.203
295.266
235.583
190.281
158.2
138.944
124.044
117.478
109.853
106.568
96.7624
4505.19
3515.12
1978.23
934.331
611.185
497.638
420.437
382.644
337.938
308.228
265.825
220.655
176.516
142.369
118.287
99.8318
90.0371
84.0297
82.8447
75.9004
10926
3470.9
1603.07
893.546
757.957
645.393
549.632
483.891
408.463
355.134
305.926
252.469
197.528
150.995
114.396
83.6675
60.801
44.0056
38.5026
30.0982
11416.6
1997.77
1647.09
1178.61
978.955
817.221
661.901
576.668
503.808
422.439
330.056
266.275
218.325
167.29
117.266
74.682
41.4669
21.0088
13.4228
7.90236
4378.36
1694.54
1966.5
1537.75
1135.76
925.385
730.973
618.28
563.139
530.04
420.874
300.534
228.643
165.389
97.8271
43.455
19.6973
12.4998
11.1638
11.223
1497.9
2824.01
1967.25
1496.5
1147.39
941.194
510.706
345.323
279.246
310.108
324.667
231.585
165.279
122.416
70.183
35.5529
27.9297
28.9594
36.1372
38.4796
979.189
1020.36
1161.35
1260.32
1100.32
573.233
304.311
227.172
184.669
145.361
218.392
198.364
131.652
87.1138
56.5712
48.365
52.411
67.8612
81.7497
81.9002
1293.29
1440.16
1962.61
1463.97
1098.51
586.537
284.424
193.03
190.44
105.614
177.094
199.44
170.638
108.973
111.294
117.829
119.164
122.858
122.867
117.502
1252.55
1940.18
1608.28
1503.24
1303.88
796.711
347.491
170.343
171.467
93.7454
117.688
153.444
158.823
131.226
180.378
173.439
134.87
122.516
120.057
115.195
173.637
1236.6
1411.77
1614.94
1482.83
1049.12
518.441
144.001
129.455
107.371
110.432
121.43
122.747
116.522
184.481
169.001
132.087
130.309
135.589
134.394
609.889
1725.61
1654.13
1256.02
879.647
606.84
307.311
177.211
163.268
151.779
153.62
156.193
148.819
133.262
166.136
144.148
132.71
124.232
121.787
112.721
1487.63
1893.34
1819.65
1527.65
1109.51
711.093
440.591
299.08
245.055
203.223
185.29
164.555
155.222
142.659
135.79
123.653
110.861
85.2127
73.2429
57.0947
2067.25
2812.48
2058.83
1610.86
1073.37
650.215
375.234
260.105
207.756
181.465
158.961
142.005
129.393
117.166
107.923
95.4022
81.9844
67.2565
55.9865
49.7035
9888.52
5854.56
2017.84
1185.68
819.526
597.397
385.037
290.137
224.545
197.181
167.66
148.183
129.751
115.369
104.011
91.7386
81.8875
69.348
64.0957
53.8239
9737.2
4312.55
1719.21
914.495
627.951
431.724
353.997
292.23
250.342
220.993
182.523
153.825
126.17
107.523
94.6792
83.7104
73.2788
59.0938
49.3026
31.7897
1602.04
1998.12
1665.41
1045.01
659.627
512.096
399.273
371.341
311.568
286.913
247.975
226.198
191.825
158.318
126.522
101.033
85.6927
70.189
63.4308
48.2072
1015.64
2495.09
2272.79
1440.15
739.158
479.869
336.004
302.372
246.499
218.602
189.744
173.619
153.477
134.373
113.101
92.9771
81.5255
67.2553
60.7741
46.5096
891.951
1284.16
1319.36
1225.7
996.105
707.934
557.611
441.542
308.344
195.915
136.123
105.687
85.3958
71.3191
63.6878
57.8098
55.0541
50.003
47.3038
40.3353
1263.91
1908.96
1562.04
1469.39
1424.86
1316.93
1083.78
873.273
625.93
428.565
303.371
268.299
270.568
283.425
283.794
272.909
239.445
192.744
162.255
124.5
2154.74
3391.31
3048.89
2804.38
2086.07
1999.13
1694.54
1585.61
1195.9
806.189
507.389
423.738
412.23
402.779
379.51
351.24
336.773
318.02
309.3
284.045
4722.4
5447.22
4467.82
3078.33
1974.3
1726.39
1320.49
1284.95
1112.33
985.08
758.308
628.996
516.242
449.728
405.795
373.477
357.597
336.12
322.529
283.087
7971.91
9394.65
5336.55
2326.45
1520.25
1244.63
1040.63
995.737
866.603
813.429
689.348
587.847
474.264
395.369
338.338
295.427
275.947
262.587
253.185
214.407
14470.5
7424.14
3920.81
2010.88
1870.15
1583.39
1344.59
1249.8
1035.49
941.005
798.208
664.875
511.83
394.916
296.599
217.253
168.366
132.187
114.349
74.8222
14172.8
5430.45
3837.8
2719.88
2360.96
1979.55
1645.03
1504.44
1294.01
1094.92
866.197
706.56
572.681
420.338
258.616
145.435
77.7361
41.2837
25.229
12.296
4563.77
5349.44
4871.79
3618.7
2707.48
2221.4
1768.5
1606.8
1389.97
1238.64
988.908
747.546
561.015
359.333
176.914
76.0786
36.014
22.6943
20.6831
21.907
12096.4
7961.53
5304.16
3699.49
2761.19
2264.63
1753.5
1520.03
1257.5
1217.79
1046.35
777.299
571.353
366.459
141.658
77.4661
63.6461
66.374
86.3932
94.2166
8590.08
3838.51
3585.37
3430.19
2726.52
2133
1738.52
1529.07
1128.69
1051.41
1036.15
856.971
626.535
408.028
165.648
142.862
163.2
195.859
227.537
225.584
1173.57
4385.42
4834.51
3560.62
2616.99
2097.83
1558.79
1358.43
1113.64
870.468
934.004
858.088
688.211
485.289
322.206
334.079
351.298
370.842
380.339
377.317
1358.46
5349.01
3957.96
3459.81
2789.92
2477.31
1629.23
1168.18
934.392
687.479
669.203
644.375
631.98
565.539
482.094
402.489
374.889
378.84
384.454
381.357
2482.66
3934.84
3586.83
3751.82
2941.62
2626.25
1725.25
1029.79
799.8
657.509
640.614
610.849
519.754
481.943
489.344
389.889
370.832
390.929
411.279
404.499
3629.66
5795
4158.45
2816.48
1692.26
1267.15
891.173
816.992
668.661
609.87
580.551
562.323
530.221
478.446
421.982
373.669
361.617
355.297
352.128
329.571
3133.64
5904.39
4892.64
3841.2
2660.46
1701.37
1014.62
770.114
639.782
531.883
480.556
425.415
399.27
370.758
354.315
330.659
305.878
248.601
220.568
169.311
6908.18
7594.96
5209.27
3767.76
2365.18
1428.46
832.213
666.841
548.934
484.635
421.58
378.737
343.575
316.673
297.797
269.135
237.006
196.395
166.998
157.776
11731.3
5266.54
4021.16
2687.99
1825.72
1342.39
851.126
721.195
568.445
513.671
435.202
389.602
341.849
308.928
279.558
251.41
224.898
191.407
173.595
145.758
11664.1
4442.71
4024.42
2106.58
1525.09
1057.78
891.297
720.905
619.676
540.16
448.985
388.14
323.847
282.062
243.289
207.44
174.974
137.194
114.305
73.4029
6453.38
4902.59
3603.83
2290.91
1415.66
1256.05
962.095
868.516
709.596
654.358
564.002
522.472
446.355
384.39
313.252
256.594
218.702
177.581
159.712
121.127
1982.64
5099.36
4198.21
2606.55
1373.55
1091.58
785.159
690.008
530.534
482.361
422.126
394.834
349.472
313.593
269.527
228.546
198.403
159.072
138.805
95.5415
767.971
1680.19
1846.91
1802.98
1374.26
1028.35
816.633
608.932
407.949
291.047
236.376
199.581
164.985
140.404
126.722
115.837
109.023
100.786
95.8859
81.3427
813.322
1703.42
1503.94
1425.11
1371.68
1172.85
908.2
680.179
512.361
415.469
374.43
368.487
364.803
354.497
329.942
291.847
253.633
206.993
180.361
142.513
3105.72
5829.35
3975.01
3343
2407.64
2166.16
1684.5
1555.62
1194.34
1058.85
887.528
838.73
766.765
707.852
642.425
585.758
543.458
497.636
472.833
419.601
7098.48
7964.09
5793.08
3611.29
2449.21
2057.08
1682.44
1590.15
1357.63
1222.66
1015.97
898.394
776.198
696.887
630.179
581.073
546.495
505.221
477.642
406.914
18404.6
13688.6
6612.39
3062.98
2169.75
1746.86
1546.79
1439.84
1255.31
1151.5
969.031
837.86
699.656
604.321
526.706
474.021
443.26
410.497
382.626
296.318
22644.4
10668.3
4946.45
2846.56
2540.98
2016.67
1784.03
1613.74
1377.9
1253.6
1048.93
877.219
696.876
550.886
431.963
350.821
294.75
240.723
198.17
113.62
31373.3
7435.54
4779.6
3447.81
2987.23
2309.67
2036.36
1769.4
1510.01
1300.77
1081.31
900.974
700.825
510.374
340.873
225.186
140.545
83.7657
48.3522
24.0707
8820.74
7408.59
6404.92
4648.86
3437.59
2644.82
2155.27
1900.2
1616.94
1385.13
1121.44
903.601
668.68
426.083
227.084
115.681
63.8296
42.5966
37.6068
39.8607
16320.5
8543.33
7262.45
4841.11
3509
2739.37
2277.17
1998.97
1640.27
1490.22
1194.56
930.954
700.307
430.877
192.766
126.8
106.345
106.295
127.167
144.177
3465.14
5109.51
5782.96
4911.11
3461.49
2874.78
2390.62
1970.1
1544.54
1440.74
1246.37
993.567
734.1
469.283
226.741
259.029
281.059
298.629
323.752
310.612
2385.35
7153.15
6801.51
4672.25
3243.67
2688.22
2175.6
1831.96
1454.78
1297.81
1196.69
1006.65
789.832
579.947
446.088
536.247
564.484
579.648
587.276
559.037
5991.73
8869.75
5174.94
3980.3
3075.87
2665.47
2067.59
1641.79
1270.49
1092.43
680.828
602.845
738.761
703.922
631.141
635.995
646.91
677.309
683.293
661.396
14430.3
7382.8
4865.7
4125.53
2773.29
2372.52
1811.85
1477.05
1109.3
965.245
917.286
806.74
665.823
649.153
662.507
653.298
656.39
673.128
673.399
640.896
23401.7
11408.3
5666.43
3611.67
2394.33
1764.98
1419.18
1203.7
957.932
858.578
795.809
768.844
722.968
681.423
629.058
586.799
566.498
549.993
543.14
511.164
17711.1
12283.7
7294.36
5249.59
3369.48
2053.68
1359.54
1034.55
867.141
708.462
649.287
584.551
560
527.619
511.278
481.627
458.771
417.857
399.802
362.211
15906.5
11561
7095.61
4684.77
2818.6
1607.62
1144.68
908.288
772.78
651.29
577.443
515.092
480.842
448.557
429.124
402.068
377.173
345.877
329.048
317.135
14451.8
7326.24
5126.93
3263.69
2273.7
1504.52
1128.14
914.705
767.534
662.457
567.704
498.046
442.644
399.309
365.39
331.467
304.081
272.357
256.859
229.255
11083.2
6540.7
4691.29
2710.31
1969.3
1369.89
1170
921.237
795.121
675.165
562.488
481.505
403.586
348.674
297.127
251.272
212.507
171.318
153.649
119.584
5418.63
6762.4
4756.63
2809.83
1975.69
1590.67
1235.64
1059.83
867.331
780.79
663.921
593.498
497.154
429.166
358.905
308.087
262.619
214.166
190.941
142.091
6726.46
8487.72
5541.91
2765.89
1555.86
1243.27
895.951
771.185
609.091
572.684
502.898
471.045
414.642
374.232
323.654
279.865
240.564
193.662
166.2
116.185
2552.85
2492.51
1788.75
1627.33
1328.27
1024.42
794.78
576.673
421.258
333.723
274.612
227.97
191.845
167.264
152.38
137.912
129.513
114.422
105.839
82.6084
2273.39
2100.69
1575.95
1298.38
1117.2
818.928
652.313
552.202
491.967
465.766
444.452
423.965
398.915
363.17
321.551
275.599
235.588
197.195
173.946
142.135
10873.8
8048.55
4736.78
3397.36
2542.21
1995.37
1657.95
1485.78
1326.51
1258.68
1165.16
1100.9
1014.93
934.713
859.862
792.668
737.045
675.475
636.494
564.403
13604.7
9479.92
6295.81
3893.64
2828.64
2208.85
1951.19
1720.82
1534.68
1351.41
1192.25
1069.09
966.082
884.922
823.315
769.321
724.184
666.707
623.651
530.63
25050
10638.4
6070.54
3423.24
2649.06
2084.9
1923.49
1671.69
1499.57
1304.4
1129.91
977.663
854.13
762.974
696.109
645.06
605.823
554.311
504.788
392.778
19457.5
10450.4
5407.24
3477.23
3003.3
2293.64
2128.37
1803.01
1599.15
1376.35
1161.58
965.271
796.408
663.835
566.234
495.873
436.936
372.51
308.27
228.151
15300.8
9832.54
5485.22
3960.98
3381.46
2509.46
2324.39
1897.62
1658.02
1400.15
1167.5
947.048
734.171
559.289
427.584
336.894
253.567
188.59
139.221
121.418
9289.77
10140.4
8127.57
5200.7
3945.06
2823.22
2452.19
2011.94
1728.99
1436.82
1161.83
913.991
657.41
444.846
290.592
201.072
150.149
129.476
122.69
133.078
11142.8
10840.9
9316.81
5570.97
4032.72
2920.19
2515.37
2210.41
1808.78
1562.84
1232.95
946.373
689.278
431.365
275.687
219.085
194.535
191.699
204.579
226.264
9496.8
9435.82
8778.31
5770.55
3976.96
3204
2664.23
2151.42
1775.94
1590.77
1290.66
998.656
725.683
477.305
337.247
416.454
415.071
400.673
401.805
370.269
3356.31
10803
9367.43
5249.59
3659.74
2976.97
2441.55
2005.86
1666.21
1509.48
1283.5
1028.36
817.577
655.584
626.775
770.782
783.262
771.395
743.133
637.624
22848.5
13065.2
6342.62
4291.78
3348.36
2778.45
2295.26
1851.59
1494.08
1356.58
978.341
783.551
819.469
812.043
814.769
920.723
945.885
950.908
930.342
826.128
22843.6
9702.83
5847.8
4079.45
3004.19
2440.13
2071.23
1666.26
1311.29
1191.89
1108.09
951.908
844.274
839.633
870.204
914.142
919.462
914.416
888.241
786.353
16719.4
12230.3
6761.51
4096.98
2968.4
2096.47
1782.6
1425.4
1151.73
1028.93
954.042
917.293
869.818
846.268
792.868
758.171
744.544
726.282
714.059
666.842
28756.6
17718.2
9821.05
5953.86
3752.31
2188.88
1610.44
1219.69
1035.47
838.02
784.057
703.522
689.93
655.398
648.136
627.301
614.317
597.522
593.056
589.937
26512.1
12739.8
8149.98
5008.81
3012.8
1753.53
1425.48
1090.69
947.221
770.173
698.899
617.174
593.89
561.606
550.257
532.844
520.996
511.16
510.155
514.318
14022.6
9214.3
5786.41
3685.73
2558.64
1657.66
1382.66
1066.73
936.256
769.067
675.925
576.425
528.019
476.533
449.37
417.581
397.188
374.024
363.036
346.616
11157.6
7729.46
5348.11
3229.58
2322.88
1623.87
1395.6
1058.27
936.465
758.999
648.743
538.466
462.976
397
349.637
309.992
281.248
258.658
249.834
237.309
11569.3
9675.39
5919.04
3143.31
2415.11
1769.4
1477
1184.76
1012.09
866.073
745.465
635.812
542.447
471.074
411.968
369.176
329.778
295.724
277.689
248.896
7048.93
14322.4
9793.78
3145.58
1722.59
1272.7
985.219
836.759
696.525
652.098
583.081
535.522
475.537
429.768
381.044
341.758
302.479
265.691
232.183
194.436
545.881
1349.6
1667.24
1412.42
1125.72
850.116
661.108
505.238
401.717
323.129
263.454
217.77
187.135
165.603
151.225
135.895
127.035
109.21
99.2338
72.4994
3343.43
2384.7
1672.38
1188.48
854.116
669.345
585.366
542.097
508.273
472.473
435.51
385.804
333.636
278.886
235.981
201.631
176.849
155.679
138.845
129.376
25268.7
10491.5
6304.81
3760.87
2993.2
2058.21
1926.04
1581.43
1567.26
1373.56
1353.67
1206.35
1156.91
1039.02
989.637
911.347
860.365
787.2
737.409
668.651
13992.2
10570.5
7518.43
4511.45
3456.02
2534.74
2351.79
1905.86
1762.41
1452.77
1346.07
1170.25
1107.67
1008.9
970.69
903.635
853.473
776.217
713.2
634.281
22849.9
11359.9
6346.78
4385.47
3215.53
2629.14
2335.72
1945.66
1739.41
1416.32
1261.98
1066.13
979.091
883.463
840.76
779.513
729.954
655.693
587.749
529.644
11604.1
11881.9
6592.11
4501.95
3554.68
2798.79
2523.51
2053.18
1825.48
1469.08
1248.67
1014.05
874.044
756.289
693.609
623.144
566.217
500.947
459.764
448.125
47920.2
14286.5
6584.45
5131.19
3757.12
3058.14
2636.65
2126.85
1832.47
1491.92
1215.67
947.578
744.496
610.742
528.321
463.611
405.988
371.091
355.425
369.16
16506.4
13454.8
9209.49
5875.27
4401.8
3188.31
2857.15
2229.24
1880.31
1518.55
1178.23
883.544
632.164
491.98
407.901
356.687
329.571
320.635
320.852
344.828
17026.2
13865.4
10425.4
6393.26
4496
3315.55
2785.55
2370.94
1961.73
1622.7
1268.68
935.762
682.455
498.777
429.466
374.121
349.191
343.09
347.586
365.308
34765.5
13449.5
11047.4
6270.89
4478.67
3401.04
2853.53
2312.95
1958.25
1664.71
1312.53
994.309
754.482
590.843
556.674
592.437
549.064
497.823
471.548
434.955
25916.4
16860.9
11287.5
5530.84
4114.75
3207.41
2636.57
2162.74
1870.87
1625.59
1310.84
1040.79
903.691
832.26
874.134
973.442
948.495
874.37
783.121
633.923
40090.1
16542
7630.52
5154.63
3791.87
3072.35
2519.85
2015.83
1707.39
1522.21
1219.01
968.159
954.522
983.731
1050.91
1132.52
1132.17
1096.62
1011.5
817.901
34717.4
11086.3
7400.25
4675.5
3551.67
2849.9
2431.11
1823.3
1514.98
1383.55
1254.77
1090.69
1036.75
1050.2
1094.15
1088.5
1082.3
1036.97
961.808
797.022
16642
13299.2
8139.61
5097.53
3672.15
2738.53
2066.29
1638.18
1356.13
1204.49
1128.5
1061.08
1026.32
999.364
925.009
891.812
877.64
850.181
819.709
757.036
40272.2
25794.7
13946.4
6571.9
4369.85
2412.54
1988.64
1544.73
1250.08
1035.31
947.301
847.597
831.403
785.772
784.754
764.163
761.538
754.142
756.929
773.78
23669.8
14967.7
9779.08
5547.8
3416.47
2234.1
1763.35
1378.6
1145.24
936.85
843.763
744.677
723.078
685.91
680.922
667.527
666.607
668.01
674.205
686.734
20290.8
11601.8
6780.57
4790.98
3004.67
2113.98
1705.27
1310.73
1144.85
912.775
814.686
675.402
636.944
571.243
557.063
523.261
514.416
495.143
486.656
483.133
21133
10177.4
6197.44
4357.69
2762.9
2161.95
1649.35
1298.37
1109.82
874.207
765.195
606.537
547.446
464.713
440.467
409.203
402.12
394.518
393.837
397.704
33469.7
15893
8084.84
4073.85
3014.45
2100.53
1832.69
1340.05
1226
952.447
863.146
679.572
620.865
525.911
501.123
461.434
450.634
433.621
426.902
421.715
31772.8
29195.8
16902.7
4281.72
2273.91
1397.34
1269.93
922.528
886.753
725.21
707.258
594.412
567.496
494.789
479.372
443.877
434.819
415.891
403.484
405.654
2595.99
3587.39
2088.83
1264.96
925.192
694.752
543.982
421.94
334.019
259.675
213.789
179.636
158.929
140.17
126.652
111.942
101.114
83.4567
75.3149
56.1129
1232.31
1131.72
794.451
1470.93
1331.3
1331.26
943.204
1058.63
730.528
721.002
1272.59
1088.2
861.005
826.802
748.617
991.088
941.116
1300.66
929.052
1179.03
1108.23
587.564
916.711
801.273
839.917
716.146
1069.42
911.782
217.951
281.467
197.4
1439.18
1368.56
1259.3
1185.03
217.279
199.881
206.85
1335.36
1085.39
1170.43
1071.71
135.836
200.789
120.903
983.557
871.937
997.057
763.403
209.072
119.545
170.595
899.767
946.557
764.568
847.586
212.292
188.477
205.509
935.136
835.456
859.284
821.437
153.414
203.69
180.144
783.352
627.933
790.911
670.188
94.6182
167.296
117.421
561.167
421.085
622.448
468.222
52.2865
98.7659
54.416
354.567
194.679
416.403
283.688
192.456
322.498
185.278
1244.82
1162.88
1270.81
1092.49
197.314
185.575
189.44
1143.79
1042.25
1052.67
922.317
108.045
179.189
96.2434
970.881
715.324
846.119
594.918
157.778
90.1627
114.768
712.386
804.183
577.018
628.325
200.041
135.34
168.707
823.598
806.993
648.966
666.389
180.766
172.627
171.754
782.147
675.901
663.786
637.508
126.378
166.062
140.661
633.149
487.714
617.583
535.34
58.8109
130.177
95.4557
440.374
307.545
506.793
432.135
172.512
439.603
153.79
1274.23
1014.68
1326.96
811.386
176.835
134.885
134.609
971.364
873.092
792.853
752.452
103.77
133.961
107.872
810.356
588.422
712.58
577.56
102.595
102.853
103.232
561.604
575.96
555.779
545.857
148.36
104.641
121.055
590.866
603.008
548.885
549.812
160.057
125.435
128.852
599.087
586.795
539.649
488.213
139.866
128.605
125.041
581.961
532.43
473.391
454.524
99.0031
122.646
99.7553
510.638
452.937
453.256
452.394
175.417
423.084
179.495
1375.07
851.969
1004.46
909.261
130.31
144.38
107.505
821.045
730.659
832.506
592.244
109.751
105.811
99.7559
686.848
574.824
560.688
526.273
109.872
100.546
109.415
558.946
549.172
525.837
519.019
118.769
109.912
114.17
549.48
547.802
516.227
510.512
123.64
115.052
112.287
540.443
491.689
510.284
495.569
118.387
110.177
99.9759
473.646
439.103
486.453
448.86
98.0757
97.4694
73.4404
434.329
435.433
439.389
410.566
1580.29
1568.05
1412.2
2276.84
1997.29
2093.03
1846.62
1229.27
1381.11
1225.41
1897.49
1547.48
1775.83
1508.71
1027.98
1138.52
921.837
1463.69
1374.95
1415.23
1270.34
1060.15
922.877
970.142
1371.51
1270.2
1263.23
1214.76
912.416
970.026
903.556
1215.01
1040.09
1182.54
1044.48
692.349
866.414
728.704
975.278
790.284
991.558
819.466
478.17
676.68
513.894
722.865
546.625
760.144
584.636
230.136
459.761
311.655
465.761
275.26
526.775
369.105
1393.83
1627.93
1321.28
2068.62
1826.75
2054.98
1725.44
1199.14
1256.56
1063.47
1756.55
1487.62
1638.18
1348.99
873.098
975.409
729.331
1390.7
1224.39
1249.16
1060.62
927.458
713.866
726.661
1216.54
1178.66
1045.2
850.477
889.63
731.996
725.614
1152.34
1034.16
808.247
763.834
735.547
720.598
694.256
986.311
830.537
782.827
789.516
534.733
673.344
589.35
776.186
614.718
770.53
694.999
338.947
560.596
476.006
563.256
415.833
667.591
581.429
1234.02
1627.8
1025.83
1998.76
1641.18
1777.07
1450.1
1010.5
990.869
884.609
1559.4
1295.82
1395.09
1161.32
711.464
829.827
682.477
1203.13
1019.42
1085.38
937.666
669.459
660.202
643.739
1000.36
789.698
918.619
877.275
653.449
642.285
620.531
741.213
643.783
858.592
764.603
634.412
600.925
529.383
641.493
705.385
718.814
593.291
586.515
512.526
497.6
719.399
693.628
583.686
600.957
496.777
499.15
496.358
676.492
609.031
609.865
614.05
1090.26
1355.75
1130.22
1790.3
1480.28
1582.04
1428.6
857.06
1001.71
719.069
1403.29
1121.13
1280.5
980.663
675.03
675.587
625.786
1047.14
915.487
923.943
847.117
642.491
621.048
603.405
898.058
869.889
834.413
799.181
624.783
596.828
584.651
858.242
796.774
786.975
763.551
542.54
583.292
562.049
765.48
655.784
758.717
722.662
485.323
550.64
509.098
625.902
603.063
708.744
665.986
478.889
499.154
459.672
605.704
607.28
657.61
619.882
2079.48
2209.72
1933.06
2618
2235.65
2439.89
2096.86
1624.41
1852.24
1569.33
2115.24
1803.23
1997.48
1716.42
1452.16
1481.13
1353.63
1729.66
1606.5
1648.08
1534.27
1308.74
1341.31
1264.96
1567.41
1363.82
1501.56
1350.95
1060.44
1223.74
1067.49
1287.64
1077.38
1288.34
1091.82
802.675
1010.62
831.561
1003.92
801.673
1026.86
841.054
550.602
771.373
596.055
731.693
545.647
783.427
625.371
281.966
538.785
386.363
471.717
321.102
576.975
468.234
1911.43
2133.43
1805.01
2390.98
2070.32
2302.13
1966.16
1547.45
1714.34
1413.44
1973.29
1689.23
1865.56
1566.17
1310.01
1316.54
1149.35
1617.6
1500.89
1488.29
1369.07
1295.18
1282.62
1246.56
1366.29
1230.06
1343.51
1319.29
1138.53
1154.74
1145.05
1230.76
1109.81
1181.39
1181.91
844.696
781.561
806.676
1028.57
862.325
850.353
847.164
630.33
789.659
719.683
811.223
672.803
833.872
785.318
438.603
693.529
610.79
631.745
534.892
766.81
715.32
1727.01
1819.62
1545.97
2241.39
1908.59
2021.38
1753.43
1362
1481.46
1226.32
1811.2
1519.13
1661.72
1379.66
1104.98
1149.31
1009.05
1442.48
1324.69
1309.59
1195.89
1052.41
988.264
1047.64
1155.82
991.341
903.25
1122.16
683.044
629.302
774.119
503.721
709.132
455.215
766.894
720.299
749.051
619.145
717.618
782.903
855.423
747.869
719.516
613.696
639.217
796.756
791.092
744.264
767.025
639.062
648.138
649.444
782.3
745.306
774.498
779.644
1559.31
1668.03
1488.15
1990.06
1732.66
1905.09
1623.34
1183.58
1340.02
1048.98
1629.14
1331.92
1478.35
1207.6
982.125
988.206
906.504
1264.99
1157.1
1146.64
1055.4
932.731
892.069
852.519
1140.77
1092.74
1037.68
988.604
842.246
838.728
812.187
1066.84
959.274
971.914
938.39
693.71
806.332
766.629
918.1
817.501
928.554
882.281
645.737
752.188
711.804
799.473
787.289
868.93
841.22
647.196
704.261
664.907
789.891
790.469
836.079
807.673
2272.49
2493.58
2133.91
2795.67
2381.44
2631.08
2243.72
1850.09
2031.99
1760.62
2259.02
1979.28
2140.31
1898.49
1638.94
1697.03
1576.61
1903.38
1711.9
1839.22
1674.66
1369.85
1536.1
1363.83
1636.97
1380.73
1609.69
1382.18
1074.11
1295.9
1090.47
1295.48
1060.39
1302.99
1082.55
794.836
1024.18
841.351
981.987
789.287
1017.77
865.858
545.832
786.419
640.187
729.197
584.691
825.721
730.935
343.692
597.101
506.555
540.363
456.967
707.42
667.122
2105.89
2349.4
2004.72
2577.45
2210.57
2484.74
2112.74
1732.17
1901.57
1611.13
2109.31
1868.88
2005.78
1750.52
1546.95
1540.05
1423.97
1810.75
1654.22
1691.95
1559.12
1348.26
1390.33
1099.24
1593.72
1376.17
1509.05
1280.47
1089.09
1014.89
895.24
1299.08
1087.9
1195.56
1005.53
865.648
884.159
861.386
1028.62
896.771
968.085
922.034
691.577
849.366
809.803
864.762
789.057
918.887
911.903
576.435
794.957
755.883
771.141
742.045
909.092
908.033
1953.15
2103.32
1805.52
2454.25
2073.67
2355.84
1943.8
1564.89
1705.65
1423.63
1964.52
1704.94
1825.01
1558.61
1381.4
1357.59
1250.56
1646.52
1521.83
1503.62
1399.36
1070.97
1232.56
1154.19
1479.16
1261.38
1373.09
1268.23
801.316
1111.69
947.884
1173.71
965.651
1217.59
1049.32
809.206
893.448
795.612
926.786
901.747
1002.81
939.134
818.045
791.737
812.443
909.528
926.272
939.756
962.227
785.6
820.049
827.327
929.299
937.907
971.207
992.037
1776.58
1993.3
1660.6
2334.11
1897.53
2236.54
1759.71
1374.57
1515.2
1253.29
1773.05
1506.55
1622.07
1387.38
1209.2
1192.3
1100.1
1454.31
1355.78
1331.88
1232.38
1137.31
1080.94
1028.51
1332.06
1252.4
1206.68
1145.66
993.257
1011.13
975.887
1215.37
1088.62
1128.25
1085.22
859.004
964.69
917.341
1051.02
988.021
1067.71
1023.9
836.543
904.809
882.642
982.623
988.048
1015.18
1005.85
840.619
878.402
851.993
993.388
1005.86
1000.91
987.313
2437.17
2691.26
2299.39
3260.78
2855.13
3119.23
2682.11
2036.32
2196.06
1960.06
2679.38
2387.68
2568.76
2313.5
1748.16
1899.24
1713.72
2285.24
2044.54
2241.69
2002.18
1400.16
1640.38
1396.33
1920.89
1649.36
1908.48
1628.4
1072.5
1314.24
1092.33
1547.88
1321.38
1539.79
1322.99
809.158
1030.58
897.774
1245.36
1103.07
1273.11
1206.72
627.369
864.326
787.592
1058.87
995.237
1190.72
1154.41
520.202
769.697
736.585
972.28
880.026
1147.25
1096.51
2264.13
2545.19
2163.89
3043.19
2638.97
2973.56
2530.84
1930.3
2056.48
1811.26
2529.94
2281.06
2412.62
2155.19
1694.55
1753.08
1606.18
2212.63
1983.94
2092.96
1902.29
1391.19
1550.27
1320.75
1895.66
1621.4
1829.62
1580.62
1097.69
1235.45
1037.48
1534.51
1321.24
1493.37
1286.47
928.292
997.827
957.105
1273.34
1222.49
1246.52
1232.46
845.152
959.308
963.505
1219.44
1196.29
1253.26
1280.76
810.972
963.912
969.108
1192.29
1159.4
1285.08
1275.13
2126.84
2449.32
2000.99
2948.24
2496.04
2958.45
2379.73
1765.39
1877.72
1617.75
2372.01
2106.6
2233.92
1956.37
1570.96
1564.64
1453.51
2045.32
1869.23
1895.84
1758.14
1305.85
1422.93
1307.69
1804.17
1572.42
1714.43
1571.24
1008.76
1254.93
1087.36
1486.26
1274.84
1513.48
1348.96
944.053
1043.96
993.813
1234.86
1228.68
1310.84
1295.48
978.535
997.12
1020.77
1253.62
1292.67
1308.13
1331.71
998.158
1029.89
1050.99
1299.89
1302.37
1339.72
1342.78
1951.33
2329.46
1810.55
2925.93
2321.42
2694.43
2150.14
1565.18
1674.82
1446.02
2173.41
1903.56
2007.81
1774.6
1411.3
1391.48
1288.49
1846.04
1716.21
1707.45
1582.36
1294.25
1260.01
1194.19
1676.83
1561.31
1555.25
1469.34
1126.46
1176.91
1129.81
1516.01
1385.55
1454.05
1392.56
1039.65
1109.84
1067.6
1354.07
1334.95
1373.28
1329.1
1044.74
1059.79
1051.59
1337.08
1346.85
1328.55
1313.89
1062.99
1045.63
1032.58
1352.05
1351.29
1311.47
1271.14
1261.29
1260.91
1176.71
1274.91
1205.21
1312.84
1222.82
1221.24
1186.08
1046.35
1196.17
1155.26
1261.46
1009.77
1152.11
1059.81
900.427
647.152
1102.03
1097.77
761.175
1350.55
1423.56
1432.54
1433.36
1393.11
1381.23
1395.82
1308.64
1307.55
1385.41
1290.3
1353.96
1260.75
1346.37
1284.41
1256.75
1389.32
1228.74
1329.47
1052.15
1341.72
1210.66
693.775
1196.98
1069.62
1146.49
806.717
1268.15
1093.2
1107.77
1030.71
1074.71
1071.17
1128.51
1047.88
1026.05
1028.93
679.449
597.608
1002.33
1059.05
575.792
992.838
956.206
684.811
697.486
977.569
969.359
614.152
1160.33
1255.58
1211.07
1233.01
1199.67
1211.07
1175.92
1109.16
1084.02
1149.04
1066.81
1141.74
1059.32
1120.29
1054.97
640.836
1136.75
812.902
1097.15
617.916
1084.83
1014.36
727.809
1002.81
812.984
984.074
647.225
1040.91
950.572
846.391
842.341
575.453
913.551
690.125
856.834
1063.17
1018.21
977.037
1058.39
993.145
1090.51
1043.65
1023.91
921.965
960.882
1000.97
959.475
979.136
1024.9
1131.27
1222.36
1199.98
1258.81
974.957
1194.74
1208.72
1025.08
638.622
1042.97
1028.7
753.191
923.96
1121.05
1131.09
1121.12
1219.37
1162.35
1158.25
1105.69
1192.51
1088.93
1057.12
1097.65
1139.34
1039.44
1084.76
1149.61
591.419
585.99
592.103
512.573
636.598
419.74
555.934
869.843
879.622
886.151
971.212
831.612
927.841
934.572
803.303
705.469
848.176
837.658
774.128
726.253
890.347
734.829
565.221
770.32
936.36
513.843
826.929
846.824
646.015
573.968
724.275
717.589
482.847
612.074
766.565
916.553
1022.51
1036.53
1022.98
981.864
980.495
967.215
844.331
874.81
816.06
969.85
765.784
931.163
892.26
387.21
495.376
457.833
1064.51
1144.22
1091.57
1196.62
298.847
432.815
371.594
1109.97
999.062
1140.89
984.99
281.481
310.151
300.531
936.878
937.592
847.948
830.341
331.438
318.699
347.641
953.077
938.967
862.485
884.053
298.975
347.362
333.158
866.123
776.363
855.332
790.305
196.473
289.525
229.537
587.864
477.096
682.216
572.741
143.263
179.933
145.19
366.872
306.063
459.238
374.425
91.8494
120.447
81.0802
221.917
161.257
271.692
167.713
472.248
565.144
467.079
1222.32
1260.41
1191.08
1147.77
569.72
227.712
287.887
586.398
650.813
524.452
238.714
667.08
228.502
229.81
753.888
747.225
660.076
233.427
477.286
145.866
207.043
581.627
496.502
571.565
170.823
476.999
171.433
141.888
506.156
557.499
427.97
154.774
577.491
220.051
212.659
608.249
602.9
573.375
218.579
504.364
187.19
208.358
520.095
483.003
530.84
197.816
336.627
120.99
146.671
317.935
274.435
381.908
127.713
170.364
78.8654
82.5179
160.741
141.496
204.115
70.9297
36.8243
68.6359
42.1396
106.436
71.429
155.595
103.618
469.925
640.344
517.574
1187.22
1130.1
1246.55
1190.75
498.423
227.064
293.982
484.942
501.382
490.079
234.5
559.103
196.708
191.255
554.873
573.93
542.188
193.543
443.762
171.078
186.176
546.075
470.755
525.795
162.083
303.509
110.816
94.6318
319.121
344.67
283.44
98.1239
488.559
190.413
164.659
494.411
515.996
461.835
179.82
492.594
196.272
192.866
517.072
501.809
500.971
191.756
407.71
158.18
171.106
431.558
400.039
432.876
161.828
279.664
92.1621
118.119
287.34
250.308
306.1
104.098
60.9988
149.171
106.567
248.091
180.327
323.695
284.79
616.453
918.685
724.879
1446.88
1292.42
1592.37
1391.41
466.954
246.487
352.273
530.325
476.372
552.801
246.091
419.514
172.696
144.374
471.675
487.271
399.192
146.291
407.544
151.909
154.428
472.135
414.895
439.282
147.194
275.449
92.748
98.6309
269.43
270.032
280.1
95.8503
338.749
131.527
106.493
340.5
366.866
314.366
119.056
369.411
157.534
140.997
398.064
401.684
367.899
144.236
362.57
155.235
147.885
395.851
387.108
366.597
146.788
319.048
123.427
130.593
334.192
320.435
330.84
123.597
126.987
189.195
139.975
376.413
349.925
396.036
365.033
834.695
911.628
698.674
1626.77
1428.7
1368.87
1096.64
501.491
357.671
514.483
674.021
532.432
657.857
357.57
387.062
133.654
155.486
355.561
365.131
393.641
137.088
348.825
126.182
124.048
378.824
361.304
364.575
121.463
313.575
107.564
109.071
306.254
306.413
313.276
109.645
321.936
112.142
115.852
311.709
316.658
320.359
117.128
325.199
123.5
120.583
329.696
328.763
326.442
121.292
299.761
121.691
119.658
311.006
303.785
307.866
118.236
274.675
114.616
112.558
286.233
283.547
278.878
110.81
145.699
167.6
126.633
386.805
366.492
366.518
338.641
221.106
321.353
206.507
506.778
532.172
486.857
472.993
172.125
190.887
189.466
484.126
468.071
446.651
400.122
157.168
171.566
144.465
445.463
448.72
404.295
393.354
153.322
142.299
143.03
427.2
425.349
356.925
342.913
158.138
136.677
128.907
420.065
420.406
350.541
349.172
154.586
122.05
115.92
412.531
406.571