/*--------------------------------*- C++ -*----------------------------------*\
  =========                 |
  \\      /  F ield         | OpenFOAM: The Open Source CFD Toolbox
   \\    /   O peration     | Website:  https://openfoam.org
    \\  /    A nd           | Version:  10
     \\/     M anipulation  |
\*---------------------------------------------------------------------------*/
FoamFile
{
    format      ascii;
    class       volScalarField;
    location    "2.2";
    object      nut;
}
// * * * * * * * * * * * * * * * * * * * * * * * * * * * * * * * * * * * * * //

dimensions      [0 2 -1 0 0 0 0];

internalField   nonuniform List<scalar> 
12920
(
3.15082
5.63245
5.19573
6.3523
4.74132
4.89363
3.14084
2.86446
2.20033
1.90137
1.40486
1.23201
1.07187
1.17054
1.17927
1.28264
1.22776
1.05206
0.883306
0.701211
2.31983
7.77181
7.95853
7.79925
6.88584
6.66663
6.19402
5.91709
4.86202
4.08678
2.68819
2.53888
2.18195
2.39026
2.25991
2.29777
2.16961
2.23214
2.26805
2.21045
7.16832
10.5623
9.72035
8.33373
6.76736
6.03665
5.16773
4.9705
4.6057
4.33992
3.85415
3.4436
3.09513
2.82276
2.64548
2.49989
2.43282
2.35268
2.31722
2.20835
12.2538
13.0868
9.89373
6.81572
5.52553
4.99142
4.59089
4.38129
4.11763
3.93336
3.65428
3.33191
2.98129
2.67822
2.44177
2.24368
2.13102
2.05866
2.04413
1.9565
22.7213
13.0722
8.94334
6.67365
6.16018
5.68624
5.25191
4.92979
4.53083
4.22447
3.92068
3.56357
3.15287
2.75725
2.40069
2.05381
1.75155
1.49058
1.39418
1.23231
17.5687
5.70752
9.04568
6.82901
7.00756
6.39507
5.76099
5.38044
5.03054
4.61224
4.0758
3.65932
3.31418
2.90211
2.42979
1.93971
1.44582
1.0292
0.82242
0.460959
13.4402
6.10446
9.94434
8.74756
7.54376
6.80922
6.05659
5.57259
5.31433
5.16113
4.60649
3.88872
3.39169
2.8854
2.22122
1.48023
0.941029
0.512895
0.413971
0.450838
3.3823
12.1894
9.92216
8.62818
7.58115
6.86573
2.51559
2.08822
1.8737
1.97396
2.02036
1.70787
1.38864
1.07627
1.88208
1.32308
1.18449
1.20575
1.34763
1.39152
3.33084
7.24113
5.6274
7.96312
7.42835
2.67036
0.814372
0.602586
0.579794
0.573395
0.827656
0.789719
0.547943
0.33642
0.547809
1.55798
1.62243
1.8468
2.02831
2.03102
4.7721
8.53535
9.23909
8.59554
7.44001
2.71083
0.713307
0.442204
0.447526
0.37083
0.744532
0.790779
0.731816
0.447589
0.998199
2.4296
2.44641
2.48606
2.48647
2.4335
5.49077
9.91752
8.97154
8.67669
8.07101
3.1536
0.834367
0.445174
0.532129
0.441425
0.606534
0.692903
0.705386
0.493368
1.38148
2.9542
2.50986
2.12327
1.9175
1.94239
0.65428
7.85307
7.38035
8.9678
8.58789
3.26486
0.776342
0.351215
0.522989
0.580825
0.589237
0.617226
0.501969
0.384279
1.14104
2.71341
2.32862
2.51099
2.60572
2.60097
1.29336
9.2835
9.10984
7.92619
6.63063
5.51732
1.95521
1.48903
1.43111
1.38078
1.38976
1.40222
1.36998
1.18213
2.89443
2.69308
2.5832
2.50043
2.47619
2.38298
8.74921
9.8261
9.59504
8.75498
7.46851
5.98251
4.70458
3.87442
3.50726
3.19348
3.05073
2.87473
2.79344
2.67783
2.61338
2.4943
2.36332
2.07271
1.92164
1.69645
6.63201
11.8738
10.1638
8.95317
7.3278
5.70414
4.33587
3.61361
3.22947
3.0191
2.82567
2.67114
2.5501
2.42715
2.33034
2.19157
2.03214
1.84067
1.67952
1.58256
21.0998
17.1857
10.177
7.69766
6.40291
5.46564
4.39004
3.8158
3.35708
3.14752
2.90219
2.72906
2.55373
2.40859
2.28719
2.14877
2.03044
1.86895
1.7967
1.64746
20.7059
14.8962
9.29319
5.66673
5.60511
3.48205
4.21493
3.82774
3.54554
3.33201
3.02829
2.7811
2.51857
2.32537
2.18195
2.05205
1.92019
1.72474
1.57568
1.26602
3.77629
6.07667
9.08656
7.2
5.73192
5.0608
4.4703
4.314
3.95147
3.7942
3.52752
3.37069
3.10452
2.82214
2.52268
2.25456
2.07625
1.87914
1.78628
1.55724
2.50596
8.87141
10.6223
8.48179
6.0808
4.9066
4.10637
3.89787
3.5164
3.31259
3.08697
2.95455
2.77811
2.60044
2.38579
2.16322
2.02524
1.83955
1.74869
1.52979
2.04796
6.81206
6.85667
7.80496
4.80675
4.21464
2.98476
2.88764
2.12853
2.25246
1.6688
1.70781
1.29519
1.2386
1.07847
1.05012
0.963471
0.891529
0.812027
0.794322
4.49012
11.3812
22.1017
21.3881
21.0645
20.2874
17.3723
12.9033
8.76653
6.08481
4.60431
5.06073
6.19769
8.25134
8.81706
9.25605
8.6821
7.79264
7.15183
5.93412
4.47199
23.9634
26.4268
29.9631
27.8939
28.3154
25.7771
23.9186
18.2158
12.6162
9.01458
9.42614
10.7801
11.7175
11.9093
11.8992
12.3025
12.4992
12.693
12.2033
13.7495
35.9514
41.6609
36.8309
28.8419
27.0517
23.1854
23.5852
21.6778
19.9279
16.289
14.8788
13.7421
13.6286
13.6507
13.6489
13.8539
13.6865
13.4156
12.3242
30.7819
52.6383
51.0414
33.2646
24.9599
21.6059
18.781
18.7177
16.8248
16.647
15.3417
14.6272
13.5168
13.1896
12.9175
12.4097
12.3747
12.2796
11.9748
10.4744
38.6889
56.1096
45.5238
26.2314
28.3816
25.3678
22.9307
22.0037
18.7652
17.6733
15.9551
14.9765
13.579
12.8369
11.1459
9.29266
8.24161
7.47472
6.85669
4.88581
35.7293
48.633
44.5463
35.1772
35.6567
31.1257
28.2469
26.5977
23.9688
21.1737
17.509
15.9613
15.3523
12.8956
8.53655
5.72474
4.06932
3.01347
2.17306
1.37925
13.2223
37.9935
46.7757
43.5567
39.7608
34.5586
30.1694
28.1315
26.4022
24.6645
20.9335
16.8488
13.7789
9.48572
5.80975
3.95271
2.79342
2.12412
1.97921
2.04803
20.393
31.6971
46.916
43.3657
40.244
35.6197
25.4946
24.0724
23.1633
24.5535
22.2937
17.2803
13.0472
8.6897
5.40213
4.69953
4.61456
4.88135
5.74495
5.78972
20.4256
22.4636
34.1093
39.9186
38.4463
29.2539
24.8439
24.0163
19.0418
21.0549
22.9716
19.4864
14.2874
9.44305
5.22247
7.3227
8.48628
9.66359
10.3522
10.2327
3.5547
30.1961
40.4467
41.0197
36.8428
28.2337
21.1325
20.4262
17.9963
15.4496
21.6969
20.6924
16.9303
12.3349
9.85965
12.7286
13.5255
14.0613
13.7073
13.2366
5.64107
42.7248
40.6313
39.3988
33.5398
26.3093
17.0127
17.761
18.4227
14.3686
15.8442
14.4109
15.1539
14.8651
14.1258
12.8601
12.7131
12.9036
12.9257
12.7175
7.02571
29.9464
34.5245
37.8274
31.4609
20.258
12.6374
11.8719
16.9336
16.3055
17.5072
16.4036
12.6587
11.8561
12.8096
10.4935
11.2731
13.1147
14.108
14.02
8.93554
40.5308
41.3791
31.2134
21.3788
18.7799
13.0721
15.1639
16.5995
17.6337
17.7697
17.262
15.2215
12.4296
11.9197
11.3237
12.6585
13.6538
13.8411
13.0717
7.39724
35.6993
39.5973
39.6113
35.5653
27.5803
18.2336
16.3044
15.9738
15.4752
15.5691
14.5129
13.8657
13.2755
12.7688
12.5633
12.0963
10.4441
9.43977
7.54075
24.9603
48.4345
44.4927
40.8268
34.8389
26.0424
17.7057
16.7752
15.7857
15.5997
14.3059
13.6004
12.5788
12.1702
11.716
10.9736
10.0284
8.91855
7.96139
8.041
42.6839
27.4494
37.6974
33.1097
30.2492
25.6212
18.8877
18.4578
16.4917
16.365
14.9055
14.0756
12.9373
12.2383
11.5824
11.0348
10.4888
9.71447
9.33511
8.53566
42.4457
30.5954
46.7723
32.9462
30.0734
24.3015
22.7755
20.1086
18.8716
17.2647
15.4088
13.9367
12.4415
11.4569
10.5642
9.61959
8.62975
7.35069
6.4642
4.65723
31.6003
39.3028
38.4712
27.9932
21.1677
22.8276
21.09
20.9262
19.2881
18.611
17.0232
15.9863
14.0324
12.4884
10.7342
9.62095
9.02185
7.98876
7.40683
5.66513
6.88651
33.996
40.2478
31.8333
20.6324
19.4268
17.1185
16.8317
15.071
14.9939
14.4126
14.109
13.0331
12.0687
10.7486
9.53985
8.59489
7.26507
6.44824
4.60246
1.85951
10.2623
24.0466
23.723
17.121
14.4179
11.5296
9.64456
7.5052
9.57547
8.62005
7.92213
7.20445
6.64518
6.3115
6.0344
5.85393
5.6283
5.32296
4.7502
2.14254
10.7543
21.7499
21.0999
20.6885
19.1819
16.4146
9.37474
7.80025
6.1445
6.82276
8.39262
10.0653
10.5454
10.1803
9.57995
8.93537
8.07543
7.53874
6.54823
17.2214
38.5707
40.9778
43.7524
40.1961
38.6694
32.4771
29.8981
23.7076
22.025
20.6766
21.1011
21.8662
21.5611
20.7007
19.835
19.2934
18.4547
18.0074
16.373
16.3819
53.6776
56.6568
52.7186
44.5624
40.4987
36.0956
34.813
31.3985
29.3578
26.5226
25.3253
24.0758
23.2975
22.4301
21.5771
20.9211
19.8162
18.942
16.5112
74.2553
67.5806
65.0013
52.3334
43.5076
38.0432
34.8471
33.3394
30.3885
29.0816
26.7876
25.4256
23.7101
22.4054
20.9828
19.7611
19.0025
17.7137
16.5554
13.152
52.4234
75.5195
64.8089
48.6262
47.4243
41.3041
38.2063
35.4207
31.4654
29.6546
27.029
25.3473
23.0483
20.5335
17.5969
15.3297
13.5687
11.4967
9.77763
6.11231
70.8431
71.8972
56.7585
55.8647
53.8659
46.1868
43.2179
39.0169
34.9888
31.3817
27.9465
25.887
22.9768
18.689
13.7769
10.2401
7.29416
4.93058
3.29576
1.90753
30.7406
62.3294
64.0163
63.3002
58.5197
51.1207
45.7125
41.6783
38.1766
34.1824
29.4487
25.3597
20.4997
14.8441
10.008
6.65694
4.30012
3.08605
2.79573
2.86391
51.0853
58.505
64.1765
62.173
58.641
52.7374
45.0404
38.356
37.4308
36.2399
31.3851
25.6061
20.2148
13.7849
8.98661
7.19101
6.48699
6.53256
7.47842
8.02371
14.7131
34.5408
50.0733
59.5757
56.3184
50.9739
44.6673
39.5013
33.9879
35.0931
33.1296
27.4784
21.1782
14.9264
9.79388
11.5061
12.5044
13.199
13.9936
13.6501
12.2142
48.7779
54.1296
57.0078
53.2196
48.2347
40.7414
36.5338
30.6622
30.9652
31.9912
28.4496
23.5634
18.8959
15.974
18.6014
19.6079
20.0395
19.7933
18.7111
19.2835
61.1028
55.2478
54.1406
48.7854
43.769
35.4447
34.8015
30.5624
27.5357
7.75057
8.6657
18.2565
20.9955
19.4458
18.7396
19.5506
20.7501
20.915
20.0971
51.3283
55.3264
54.8861
54.9651
42.794
36.0946
26.4933
29.3666
29.7673
28.3805
27.311
21.2088
15.23
15.7249
17.6455
18.3337
19.7631
21.0181
21.175
20.2529
52.3043
51.8748
57.3458
50.1031
40.565
35.7801
29.2875
30.3037
29.2233
28.3385
26.9974
25.4641
22.835
20.2659
19.8918
19.7986
20.3396
20.3409
20.0524
18.8339
50.2665
51.1554
52.5899
55.4192
51.4243
41.6782
32.3835
29.5264
28.067
25.8685
24.7329
22.9589
21.936
20.909
20.2651
19.555
18.9342
17.5148
16.7557
15.096
43.5096
66.0794
61.583
58.0376
50.2112
38.9212
31.3717
29.0634
27.2817
25.1169
23.1369
21.4473
20.249
19.3164
18.61
17.7323
16.8327
15.7325
15.0664
14.417
35.5115
66.8703
63.9533
53.7892
47.1117
38.4031
32.0869
29.6034
27.2646
25.1583
22.8512
20.8532
19.2784
17.9091
16.9323
15.8227
14.9692
13.6397
12.902
11.3901
33.8483
62.1691
65.2049
52.2586
45.3838
37.6512
34.4586
30.3825
28.0589
25.1664
22.4562
20.0414
17.9188
16.1101
14.4523
12.6362
11.0517
9.04107
8.07688
6.1241
10.1975
55.7664
57.1595
45.2451
37.9507
35.6372
32.1486
30.0195
27.5109
25.8941
23.5696
21.4972
18.8717
16.8862
14.9983
13.4824
11.9437
9.96702
8.94626
6.74058
20.8124
43.2101
49.799
41.0603
29.2111
26.5918
22.1925
21.0113
18.9021
19.042
18.386
18.0171
16.7989
15.667
14.1589
12.6843
11.1972
9.32826
8.20118
6.07348
10.1929
23.085
21.068
22.5977
19.8518
14.2384
11.2944
8.76976
8.58011
9.32258
9.29214
8.46788
7.76791
7.25202
6.92079
6.58402
6.38071
5.99874
5.76991
4.84516
5.56869
23.4372
18.4504
20.1763
18.7142
13.4076
14.3303
8.53387
10.0831
8.52964
10.1468
9.57473
9.79737
8.72613
7.97328
6.80002
6.00863
5.21195
4.62816
3.85022
35.6802
41.924
50.7464
50.5072
44.1642
39.3935
34.0972
31.8724
28.931
28.4098
27.552
27.0493
25.9483
24.4673
23.1038
21.6922
20.5684
19.1686
18.3636
16.4202
46.9309
60.8945
65.8545
60.035
51.1984
46.3305
42.2499
39.7643
36.3805
33.6515
31.0556
29.1285
27.4702
25.8198
24.4754
23.0656
21.8715
20.2363
18.9963
16.1624
68.2384
75.1208
72.7249
60.5967
52.4735
47.2789
43.937
40.8482
37.3721
34.4552
31.4366
28.8776
26.4753
24.3288
22.5054
20.9066
19.5559
17.677
15.9952
12.3134
61.4745
84.2399
74.2204
60.9355
56.3399
50.1662
46.7148
42.4372
38.4492
35.147
31.6036
28.3668
24.93
21.6099
18.7393
16.4217
14.3338
12.1239
10.0924
7.40859
55.2201
83.2107
75.4414
66.4769
61.7797
54.0027
50.3945
44.734
40.2236
35.9358
31.7823
27.9679
23.3962
18.9119
15.0196
11.9091
8.95672
6.72311
5.1466
4.42567
60.4136
77.117
78.14
74.6327
67.2979
58.613
52.7832
47.2873
42.2704
37.1178
31.6733
26.8041
20.9524
15.6337
11.0267
7.74016
5.85312
5.06723
4.86444
5.11777
23.4741
75.3306
77.6562
73.7472
68.0668
60.1358
53.5763
48.3083
43.5401
39.5321
33.3607
27.3694
21.4554
15.2335
9.95095
8.19716
7.53608
7.51317
8.1714
8.87108
36.0761
58.332
70.1701
71.6587
66.5386
61.0029
53.9658
46.8999
41.9567
39.6096
34.4932
28.1946
22.1618
16.1911
11.294
13.5024
14.2216
14.2829
14.5222
13.7265
10.4667
66.5289
70.6321
67.4903
62.7738
58.0714
50.9826
44.1854
38.873
37.5491
33.3629
28.259
23.5668
19.6988
18.0667
20.8354
21.6172
21.8598
21.1015
18.8816
54.7996
70.9559
66.2726
62.6704
58.5324
53.8143
47.804
42.3636
36.8956
33.3091
15.3328
15.2634
20.1732
21.5599
20.899
22.4485
23.5114
24.0151
23.5615
21.2994
79.3216
67.9595
68.2342
64.3963
54.7663
47.9342
42.2587
39.4896
34.9433
32.7556
29.572
23.4545
19.9053
20.0269
21.2585
22.9228
23.5969
23.8567
23.274
21.0213
41.6083
73.1805
72.3739
63.0819
54.0388
46.7511
41.5808
38.321
34.1849
31.4832
29.0765
27.2893
25.3039
23.8789
22.7648
22.5739
22.4138
21.9215
21.3572
19.7897
82.2406
73.8011
71.4132
68.5131
60.2999
48.9914
40.7799
37.0575
33.5475
30.0351
27.8032
25.5408
24.2609
22.9977
22.29
21.5099
20.8945
20.0412
19.5084
18.3498
62.4106
78.4464
75.9941
69.9889
57.2705
45.113
39.0201
35.2447
32.3233
28.7165
26.2997
23.8709
22.6915
21.3944
20.6443
19.7623
18.9931
18.1061
17.5925
16.6151
37.071
73.1493
77.2185
65.0043
54.1979
44.3901
38.6898
34.6184
31.4639
27.9785
25.1193
22.3478
20.6617
18.8663
17.7658
16.4245
15.4539
14.1515
13.4161
12.1199
37.0833
74.2157
74.5047
61.3192
52.1962
43.6999
38.8159
34.1296
30.7513
27.192
23.931
20.9202
18.5115
16.1421
14.2509
12.5101
11.0466
9.6639
9.03959
8.13444
23.9701
58.5909
63.748
54.7871
46.9819
41.6546
36.4214
32.7837
29.46
27.1165
24.4846
21.726
19.2379
17.0316
15.0977
13.4566
11.8318
10.275
9.46949
8.18611
24.2791
56.2677
53.6673
43.7155
31.8077
27.8998
23.0148
21.6407
19.459
19.5412
18.6769
17.9239
16.5342
15.1611
13.634
12.1881
10.6777
9.22083
8.10359
6.70607
1.83335
10.1612
22.9582
18.3723
18.7955
11.0562
11.1741
7.98483
8.58762
6.78105
7.07995
5.79052
6.0561
5.48948
5.69502
5.23883
5.18012
4.5699
4.16826
3.5501
18.7457
26.2968
13.6535
19.3183
14.2221
11.2008
13.5562
11.5321
12.6261
12.1742
11.6918
11.0088
10.2429
9.36853
8.62026
7.96939
7.46415
7.00314
6.6139
6.38405
60.5913
51.8819
53.8405
44.3552
40.3675
29.0143
32.4411
27.1724
29.3029
27.9911
26.2035
24.3538
22.9384
21.2986
20.2993
19.0593
18.0974
16.8717
15.9868
14.7137
28.5487
67.2656
67.9037
56.2473
49.3469
37.4786
41.4783
32.5675
35.3543
27.5809
29.1196
25.8361
24.9835
23.3202
22.2759
20.9348
19.7236
18.1111
16.7735
15.0312
44.9511
38.2473
73.4783
30.2263
52.4487
25.4895
44.1639
26.737
36.766
24.5126
28.9267
21.9337
23.515
20.6351
20.3481
18.8834
17.5006
15.7344
14.1298
12.6855
26.8307
56.7692
76.2353
40.2685
56.2313
32.3505
46.6974
31.9373
37.9921
26.635
28.8426
19.9773
21.4335
16.8599
16.9669
15.2324
13.7446
12.2363
11.245
10.7787
102.586
45.1159
77.5201
29.0349
61.5256
25.6909
49.7916
28.8431
39.2142
25.683
28.6256
18.4131
17.4766
13.0743
12.6968
11.4075
10.3547
9.50965
8.62679
9.24227
45.2169
83.7812
84.7311
46.0567
67.4114
34.9042
46.5579
30.9155
40.4744
26.6568
27.9976
16.2148
13.9131
9.93008
9.30611
8.04677
7.64553
7.02522
6.63488
7.39746
50.9751
89.7612
85.1851
51.2043
69.3127
35.5404
53.1476
47.8139
41.2768
36.0639
29.1247
22.9036
17.0975
12.6945
8.10399
7.38391
6.76599
6.59369
6.37522
6.78493
87.9186
81.4711
84.6052
56.8311
68.9112
62.212
51.894
43.9186
38.7021
34.1708
27.8502
21.9557
16.7871
13.0325
12.4957
11.6237
11.5386
9.81918
8.85462
7.48536
56.2307
83.1372
74.6451
72.6654
65.2878
59.6507
49.633
40.5392
35.8359
32.1487
26.5286
21.3714
18.2462
16.5342
18.0802
21.6427
21.7632
20.7919
19.0902
13.5854
68.0431
86.1451
71.3714
45.9019
60.9841
54.7965
47.1168
38.1614
33.192
30.0542
22.9696
18.6803
18.382
18.8876
20.7041
23.6065
24.0968
23.7043
22.0996
18.9693
96.8483
59.7092
73.5497
45.692
58.9613
51.2456
44.5246
35.989
30.4235
28.0256
24.9404
21.2516
19.9018
19.9348
21.4834
23.3335
23.5866
23.134
21.6389
18.6974
71.249
81.3997
79.9973
58.4513
57.2329
26.8433
42.8472
37.2572
31.5198
28.7322
25.9512
24.5133
22.9565
22.2118
21.6581
21.4901
21.2785
20.6159
19.7792
18.1377
84.8474
91.1486
84.7073
77.5345
61.5474
31.6569
37.3685
18.8848
24.6074
14.7065
17.7781
13.6199
16.1226
15.2879
17.6836
17.7731
19.5631
19.1128
18.7189
18.1869
61.9573
85.353
86.4166
64.4884
57.1496
19.8398
39.3594
15.8101
25.1801
12.676
16.0577
11.5208
13.7378
12.4888
13.8763
14.1621
15.5119
16.3502
16.4127
16.7932
34.5077
79.7151
82.4106
35.6898
53.6636
18.2901
38.2046
15.0743
29.9498
13.0323
18.5249
10.9947
13.3423
10.3282
11.7793
10.4471
11.1944
10.6033
10.4265
10.2118
64.7824
70.4025
76.6762
29.5991
52.5492
16.7624
37.8177
12.9307
27.3272
11.2894
17.2399
9.4915
11.5949
8.26372
9.19413
7.88459
8.43311
8.1525
8.10703
8.00675
72.5401
63.1503
65.0293
25.6099
48.3199
19.1129
35.8305
16.6973
27.8816
15.2987
21.9989
12.8469
16.1768
11.077
12.7458
10.706
11.6999
10.7808
10.5388
9.42878
73.5085
74.6165
66.0239
41.6335
32.6203
14.6867
23.2109
12.4334
19.021
13.0137
16.9922
12.8302
14.1096
12.4825
11.6655
10.7465
10.2393
9.72707
9.39609
9.28055
9.52359
25.0911
26.1418
13.3247
17.0187
11.9914
9.30503
8.64771
7.42398
7.51183
8.04228
7.24845
7.0704
6.64069
6.31337
5.93623
5.64283
5.1279
4.83326
4.14619
32.3806
26.9094
8.02483
37.0699
34.8547
31.3805
9.29534
29.5309
7.01706
9.60752
33.7371
30.1305
8.61873
13.1004
8.62065
28.3593
26.5817
30.6593
9.9633
32.8979
29.1893
7.40188
25.2173
19.0893
9.26579
10.6761
27.2426
20.8369
0.496637
0.767807
0.484159
17.993
19.35
15.3106
15.9914
0.568944
0.484078
0.486752
19.2125
16.4353
16.24
15.6266
0.401708
0.480565
0.352899
15.0967
15.2971
14.5106
11.2637
0.808412
0.394321
0.730248
16.4643
18.7213
12.263
17.0404
0.815753
0.768084
0.802667
18.5714
16.8343
17.6148
17.3026
0.693115
0.799088
0.75208
15.7855
12.6704
16.7434
14.398
0.42007
0.724789
0.503187
11.3001
8.49328
13.3973
10.1568
0.299245
0.409398
0.232517
7.2069
4.20958
9.11499
6.85445
0.448034
0.753202
0.426927
14.4619
15.1505
12.5903
12.827
0.455179
0.438149
0.505295
15.4999
15.3724
13.9139
15.4635
0.33203
0.510478
0.394169
14.3098
10.5907
14.4537
10.3021
0.702373
0.41265
0.598756
11.3628
16.4882
10.4124
13.7638
0.791886
0.650418
0.726665
17.1963
17.1869
14.2486
14.198
0.753215
0.735281
0.733657
16.7337
14.7159
14.141
13.9757
0.549132
0.721578
0.578298
13.8366
10.8287
13.7094
12.3959
0.242136
0.509092
0.357091
9.88723
7.71353
11.8953
11.1275
0.431957
0.875843
0.402729
11.366
11.7791
10.1169
7.85852
0.517768
0.357069
0.434267
13.1402
15.3382
9.49625
13.3648
0.443891
0.490249
0.582652
14.5887
10.7952
13.4089
12.1614
0.566698
0.568601
0.569643
10.6493
12.9103
12.1279
13.0531
0.6812
0.573477
0.616048
13.2796
12.9587
13.3269
13.279
0.70814
0.626805
0.564615
12.7688
12.6818
12.7687
10.9138
0.55515
0.527086
0.43759
12.8045
12.3313
10.5485
10.3627
0.354282
0.416741
0.320374
11.9912
11.5967
10.4521
10.981
0.400579
0.703776
0.621789
9.43378
6.93978
7.26439
6.63439
0.444149
0.630621
0.579703
8.40175
12.8387
7.02446
11.3076
0.587397
0.576203
0.559346
12.9936
12.3706
11.4941
12.2481
0.587724
0.56291
0.586112
12.4574
13.3173
12.5337
13.4294
0.610854
0.588361
0.599489
13.5577
13.6997
13.5517
13.9385
0.544794
0.602263
0.562796
13.3686
11.3972
13.9017
12.9624
0.404546
0.588585
0.330793
10.8476
10.0428
12.4951
10.7339
0.299262
0.371342
0.214134
10.0252
10.5581
10.3157
9.44977
24.3992
22.1272
21.2466
40.6433
37.6506
37.6916
34.7004
20.3948
21.2491
19.6651
36.3782
31.7291
33.8511
29.8433
19.7266
18.2433
15.1314
30.6976
31.6806
28.1695
27.2417
23.2397
16.5195
21.7072
32.4199
32.4418
28.784
31.5762
20.7054
22.2586
21.4762
31.5293
27.8568
31.3945
28.8275
15.8063
20.7041
17.6058
26.2356
21.6443
27.5902
23.3605
10.9473
16.3573
12.5393
19.9632
15.7043
21.883
17.7773
5.55846
11.3827
8.37289
13.8217
9.52666
16.5167
12.9153
20.2732
18.6845
17.5116
36.5323
33.7595
33.0895
31.5431
19.382
18.6211
19.5343
33.1523
29.4315
31.7889
29.4592
14.3035
18.2269
13.8357
27.6767
26.0977
27.6685
24.5826
21.0055
14.1669
16.7786
27.6105
30.5114
24.6625
13.923
21.3205
16.8764
16.3311
30.4353
28.4482
12.6391
13.0096
18.0354
16.3247
16.8172
27.4353
23.8784
15.2565
20.7036
13.3771
16.6433
15.3141
22.5802
18.8598
21.245
20.9179
9.44607
14.7953
13.545
17.758
14.4615
20.5146
18.976
16.2821
14.1915
11.3338
30.8596
30.4972
24.387
24.9398
19.4906
13.4058
17.4874
31.1548
29.5353
26.7928
28.2357
14.3296
17.4046
15.9437
27.9233
24.6946
27.5561
25.7619
15.8863
15.9465
16.9752
24.7737
13.9139
25.8041
25.1046
14.7059
17.1436
16.1999
12.57
10.439
24.2117
19.1412
14.7106
15.2476
12.4574
10.913
15.9808
16.9897
12.5291
15.1565
12.0177
12.0762
17.901
20.1265
12.4708
14.2926
14.0091
12.3272
12.8389
20.1416
19.3782
15.0349
16.4433
9.81886
9.75088
7.67404
22.1869
22.6594
16.5929
20.053
16.844
9.16837
15.6429
25.0163
27.5585
24.3177
26.2284
16.2009
15.7583
16.3831
27.1125
25.9025
26.06
25.9352
17.281
16.6623
17.414
25.9514
26.0991
25.9834
25.8766
17.0814
17.4724
17.5137
25.7037
22.3916
25.6964
24.8368
13.4445
17.3981
15.9611
20.6663
15.7308
24.366
21.967
11.7944
15.3118
13.1645
14.5834
14.3811
21.123
18.7058
12.2727
12.6492
11.3112
14.8204
15.9229
18.1693
16.8189
40.9253
41.8705
38.2572
52.7277
47.5834
50.4077
45.3924
34.9205
37.1797
32.7896
46.0037
41.8672
43.8942
39.4888
34.6402
31.2474
30.8437
40.9896
39.9098
38.4374
37.7835
34.212
32.0658
33.5457
39.4518
36.3228
37.8019
35.851
29.1264
33.0599
29.9738
34.8911
30.259
34.6765
30.5444
22.8179
28.6526
24.3459
28.6334
24.0785
29.1032
24.9074
16.7772
22.8973
18.8957
22.5246
18.1041
23.6082
19.9905
10.6537
17.6271
14.0202
16.4373
12.3576
18.8219
15.8208
37.3953
37.487
35.5214
49.4673
44.7409
47.0933
43.3154
32.3126
35.3414
32.1301
43.3037
38.8555
42.1055
37.7276
29.737
30.3803
27.7321
37.722
37.0054
36.4248
34.4189
31.9309
31.9614
29.8548
33.7255
30.1212
34.1933
32.589
28.8202
31.3407
28.7512
33.0335
28.3567
32.1812
29.3196
24.832
13.8202
21.1859
28.9175
25.3153
16.7968
22.1478
19.9791
21.9192
21.8801
24.1686
21.0095
22.66
22.6187
15.6356
21.5094
19.9503
20.0296
17.4739
22.304
21.109
34.6403
28.8383
29.5923
45.8801
42.7284
40.9113
39.6101
32.1784
30.8926
31.0437
41.642
37.4636
39.1601
36.1705
27.6847
30.2007
28.3901
36.1709
34.0058
35.0927
33.2728
18.8588
14.2989
27.1846
24.4687
21.771
3.52066
28.9792
7.58071
7.06588
12.3511
2.44543
10.5937
2.38215
9.04417
16.0126
16.7737
12.6517
12.2507
18.2178
19.0287
16.3886
20.9109
12.7653
15.0082
19.767
21.6972
16.5922
18.1699
20.2775
15.7781
17.1988
21.7704
21.2714
18.6553
19.5059
27.499
19.1709
24.6243
39.1407
38.5565
24.6519
37.5124
30.3983
28.7425
29.1742
38.3233
35.5936
37.0259
34.6673
28.4007
28.7847
28.228
34.6039
32.8378
33.7826
31.9798
27.9681
28.1172
27.6845
32.5542
30.7871
31.5657
30.3181
23.1115
27.4072
26.2495
29.5851
24.6495
29.8062
28.1199
16.29
25.697
23.1873
22.9756
19.379
27.5198
25.3255
15.2331
22.3567
20.0612
18.7966
18.7951
24.7077
23.1133
16.8162
19.5613
18.219
19.0719
19.6876
22.7786
21.8271
48.4519
51.8585
46.347
53.2754
46.7748
51.496
44.4768
42.8857
44.7739
40.5402
45.4414
41.4898
42.8307
39.0472
40.2875
39.5803
38.4928
40.34
37.2469
38.1033
35.7032
35.9933
38.1678
35.4455
36.2113
31.6418
34.7094
30.6806
29.7877
34.1363
29.835
30.058
25.4148
29.1978
24.8401
23.7103
28.3891
24.2707
24.004
19.8252
23.4684
19.9681
17.8105
23.0244
19.5756
18.4209
14.8311
19.0527
16.719
12.2932
18.4871
15.8449
13.7298
11.675
16.1007
15.2115
45.7346
48.8284
44.2872
50.9309
43.9612
49.0391
42.3228
39.8897
42.8618
38.4536
42.2691
38.4153
40.5585
36.3933
37.8322
37.3095
35.4459
37.4935
35.3095
35.5767
33.5631
34.6371
33.475
16.6998
34.3591
30.3946
32.436
25.7654
29.501
15.5862
17.3081
28.9364
24.8555
24.0516
21.0409
24.6667
18.9754
22.1555
23.6248
20.4039
20.6537
19.9862
20.5998
22.436
22.2471
19.6419
17.764
19.8564
19.6603
17.5265
21.9607
21.0166
17.2722
16.6184
19.5433
19.5421
43.715
43.6645
41.108
48.2972
41.719
45.8567
39.9101
38.0539
40.1964
36.5643
39.9447
35.6983
38.1509
33.7081
34.9185
35.4716
33.6618
34.8679
32.9267
32.6643
30.9894
16.6555
33.2208
29.5941
31.8823
25.1358
30.4543
27.5711
14.5348
27.7205
21.815
23.2868
19.7445
26.1731
22.0914
19.1072
20.2327
17.8884
19.2546
19.0489
21.0302
19.3565
21.5246
17.9939
19.1256
19.2099
19.6206
19.3384
19.7378
21.1813
19.4852
20.1373
19.6451
19.8389
19.8783
20.3431
40.3027
28.0614
39.328
45.3095
39.5005
34.0733
39.5107
35.9985
38.3705
35.3239
37.7192
33.1616
37.8558
33.4857
33.1093
34.2518
32.1563
32.074
30.2791
32.0061
29.5296
30.7948
31.692
30.2651
29.8301
27.7322
29.0461
27.2701
24.9364
29.7066
27.9872
26.6979
23.3869
26.6251
25.1833
20.3648
27.4307
25.4595
22.4242
20.6264
24.8011
23.488
19.8389
24.9285
23.5847
20.4438
20.383
23.1403
22.446
20.4405
23.3132
22.4881
20.4359
20.6823
22.3127
21.9299
45.1795
50.0911
42.7108
17.1318
13.0743
16.5347
14.8288
39.919
41.0956
37.4099
13.1893
12.3739
14.0074
12.8347
35.3143
36.4219
33.6138
12.3307
10.1828
12.4611
10.8822
29.4378
32.4718
28.1925
9.79884
8.71178
10.3086
8.57375
23.3334
26.6971
22.4738
7.99387
6.53709
7.97865
6.48775
18.0029
21.2433
18.3676
6.01178
5.82403
6.21789
6.49942
13.8196
17.6417
15.8727
5.49834
5.47153
6.41653
6.30191
11.6848
15.45
15.0423
5.30896
5.00922
6.3181
5.93142
42.2221
47.8204
40.5664
16.0666
15.1207
16.0286
15.1062
36.8016
38.7895
34.7442
14.1704
12.8315
14.0678
12.396
33.2514
33.9245
31.6393
12.357
10.8634
11.8249
10.4464
27.9953
30.5757
25.2241
10.2981
8.56565
9.92001
8.36475
22.5287
23.5582
20.1869
7.9774
6.49549
7.78031
6.37771
18.8087
19.5816
18.7275
6.19798
6.36989
6.11548
6.28904
16.8709
18.7324
18.7381
6.59782
6.49898
6.72736
7.03407
16.3435
18.6892
19.0323
6.52724
6.34629
7.0805
6.93162
39.9657
44.9458
38.2655
14.6961
15.08
15.5336
14.0858
34.0245
36.4071
32.0123
13.9797
12.2089
12.9909
11.3663
31.0343
30.9961
29.1802
11.6322
10.2486
10.7705
9.50633
24.7126
28.5977
25.8659
9.78133
8.29711
9.17219
8.25462
19.3275
24.613
21.0235
7.69864
6.28123
7.874
6.78854
18.1825
20.1023
18.9209
6.02378
6.2882
6.59157
6.99087
18.8337
18.9576
19.3245
6.75849
7.15345
7.31103
7.41764
19.355
19.4419
20.0156
7.22514
7.25966
7.49575
7.47349
37.8927
39.6392
38.1638
15.6335
13.698
14.8414
10.1606
31.4731
36.4239
32.0046
12.4486
10.9235
9.57226
9.40251
28.5305
30.4703
28.0789
10.4882
9.14716
9.15784
7.50155
25.9037
27.5911
25.8135
8.8498
8.16051
7.53451
7.44235
22.0366
25.1923
23.8988
7.88315
7.02869
7.60236
6.71374
20.0072
23.5485
22.3936
6.90688
7.44082
6.8243
6.86005
19.8935
22.0886
21.5502
7.44309
7.49412
7.03588
6.7447
20.2979
21.4287
21.2368
7.55358
7.5783
6.9178
6.86807
30.7591
32.4093
29.1577
33.7053
29.6296
34.1307
29.9433
23.8868
28.3762
15.757
25.2395
25.5967
30.4259
5.00184
19.5384
20.5933
10.2673
2.75166
22.0132
18.5631
3.00832
33.4938
35.7843
36.6829
36.0709
35.7795
34.6748
34.803
31.8805
34.5335
35.8715
31.6964
35.2883
30.7971
33.0285
24.7993
25.8557
34.2681
16.0293
32.3656
5.01758
29.1556
20.36
2.83991
22.9457
10.8679
19.3361
3.08708
24.6091
28.3468
30.4979
27.6137
30.1405
27.9468
31.197
28.0532
18.8028
20.209
6.36756
2.6494
20.2099
18.5389
2.63172
19.4698
21.972
6.99431
7.77376
20.6236
21.6097
3.93827
29.2852
33.6152
32.5512
30.611
32.5826
29.9504
29.7368
28.6966
30.3395
31.3412
28.4042
31.4753
28.3203
28.9961
19.3182
2.73455
22.2586
8.40096
19.2021
2.71702
21.9962
19.9552
8.38288
23.5414
9.80818
22.126
3.97142
22.4157
13.7853
10.1895
14.5022
2.61054
17.3618
2.9219
10.9976
27.878
28.0428
28.1459
30.4288
26.7164
30.1135
29.942
24.8818
22.402
27.5564
27.6185
24.6124
22.1237
29.0076
19.3928
25.0693
15.2658
32.1521
3.86094
30.5787
24.2403
13.9831
2.76138
11.143
15.9585
3.06174
11.2772
18.9073
29.0919
31.9569
32.899
32.1629
31.757
31.2934
30.5416
25.714
28.4727
24.4865
30.8878
22.7594
30.1038
27.3481
6.23992
6.57444
8.14675
4.86543
8.72598
2.42186
6.26744
17.0897
20.1825
23.4437
25.8989
17.8871
19.5643
23.8297
14.7063
13.1612
21.3686
19.2432
15.4729
12.6388
21.5702
8.0385
2.60124
8.84677
13.9097
2.54007
9.43659
12.3243
7.0291
6.01077
8.87276
11.1172
2.74762
7.4143
11.1814
17.6243
26.5597
21.8959
25.092
20.1101
24.3752
19.4837
15.3852
19.8663
15.4776
22.9335
13.5162
22.1143
17.3409
1.76264
2.48199
2.39653
9.91353
13.6043
10.7337
13.812
1.94152
2.33555
2.16845
14.271
13.9558
14.0539
12.9922
1.66929
1.97738
1.94224
13.9745
15.0662
12.1186
12.7382
2.04003
1.99888
2.08861
15.1381
14.8457
13.5174
13.9915
1.93928
2.08807
2.04539
13.7496
12.6821
13.7034
12.8241
1.57064
1.90831
1.70146
9.69105
7.94695
11.375
9.89489
1.34137
1.50463
1.31447
6.26548
5.36938
8.05682
6.84838
1.07539
1.10327
0.859996
3.99219
3.12243
4.95134
3.29018
2.4292
2.65476
2.41567
10.8329
13.8778
10.439
12.0932
4.15449
0.511816
0.780613
3.60605
5.05437
3.18937
0.58537
6.1701
0.549099
0.577311
7.45239
7.57796
5.98264
0.581098
4.56978
0.411834
0.561428
6.13963
5.55688
5.41227
0.477677
5.44459
0.592963
0.486293
6.42231
6.89077
4.84437
0.570852
6.30081
0.830346
0.816136
6.8407
6.69736
6.27766
0.827652
5.66657
0.766126
0.808678
5.75091
5.31262
5.90304
0.788079
4.12558
0.520089
0.660658
3.54044
3.06108
4.58566
0.552706
2.24176
0.361104
0.341484
1.88103
1.66066
2.6342
0.301827
0.68121
0.668232
0.500777
2.36195
2.19228
3.47877
2.92235
2.29117
2.83083
2.25254
10.1474
11.3661
10.2661
11.0512
3.39967
0.556127
0.717155
2.86317
3.51995
2.86357
0.554321
5.31179
0.445294
0.426196
5.03875
5.42881
4.89147
0.432885
4.37239
0.418676
0.441939
5.30549
4.50577
5.25056
0.409793
3.95811
0.436686
0.362288
3.67504
4.32241
3.32267
0.422957
5.83812
0.77219
0.717769
5.86199
5.97564
5.69697
0.750316
5.72881
0.784604
0.777616
5.91608
5.76996
5.81411
0.775404
5.01792
0.704808
0.73263
5.17837
4.91553
5.21782
0.712599
3.87183
0.382748
0.481315
3.82558
3.48747
4.06648
0.41988
0.61056
1.2632
0.968639
5.8228
5.11655
7.60127
7.6678
2.55087
3.37987
2.71205
10.5558
10.1963
11.4374
10.3381
2.67228
0.587251
0.844511
2.65449
2.78349
2.74607
0.612066
4.402
0.467588
0.397071
4.40135
4.97301
3.79638
0.409842
4.79529
0.518788
0.50827
5.34288
4.72898
5.09224
0.538798
3.71142
0.484323
0.49002
3.40628
3.62393
3.64258
0.519705
4.66525
0.6412
0.577595
4.70335
4.8905
4.42892
0.610225
4.72262
0.702282
0.664094
4.9686
4.9998
4.73543
0.671769
4.66464
0.676236
0.637614
4.94612
4.88326
4.69543
0.605966
4.32221
0.453912
0.475988
4.43094
4.33864
4.40836
0.437449
1.01901
1.31896
1.02656
8.59011
9.2103
8.68028
8.90919
2.31468
2.91837
2.02448
10.3503
9.45098
8.46317
7.24946
2.23985
0.605251
0.756485
2.77117
2.35229
2.76198
0.604483
3.63917
0.35083
0.391118
2.901
3.56819
3.08433
0.384269
4.41593
0.601405
0.623205
4.48597
4.40087
4.44452
0.616859
4.39703
0.581426
0.585453
4.09069
4.23186
4.30405
0.587094
4.69316
0.593798
0.603581
4.41622
4.54097
4.62148
0.606984
4.688
0.622221
0.615717
4.68511
4.59754
4.75973
0.617131
4.17948
0.465528
0.498816
4.25469
4.16464
4.29062
0.455584
3.89848
0.367316
0.369073
4.00148
3.9877
3.94032
0.353008
0.904511
1.11362
0.747886
8.25999
8.12249
7.25383
6.68102
1.66095