/*--------------------------------*- C++ -*----------------------------------*\
  =========                 |
  \\      /  F ield         | OpenFOAM: The Open Source CFD Toolbox
   \\    /   O peration     | Website:  https://openfoam.org
    \\  /    A nd           | Version:  10
     \\/     M anipulation  |
\*---------------------------------------------------------------------------*/
FoamFile
{
    format      ascii;
    class       volScalarField;
    location    "2.2";
    object      omega_0;
}
// * * * * * * * * * * * * * * * * * * * * * * * * * * * * * * * * * * * * * //

dimensions      [0 0 -1 0 0 0 0];

internalField   nonuniform List<scalar> 
12920
(
177.86
142.149
133.577
126.741
117.583
111.114
103.413
97.3298
89.7765
79.8078
67.7439
57.2613
51.354
49.3708
48.8605
48.1363
45.8393
40.3981
36.4083
31.4601
120.052
156.764
160.582
156.388
137.464
133.111
123.741
117.84
103.219
88.2859
72.8973
60.8596
55.1278
52.6475
51.0141
48.7601
47.1591
45.5147
45.0239
43.8654
257.603
213.416
193.77
166.265
134.939
120.349
103.007
99.0118
91.6546
86.1686
76.5488
68.3658
61.4401
56.0187
52.4999
49.6042
48.2745
46.6809
45.9784
43.8071
290.886
266.069
198.888
136.513
110.32
99.4965
91.4274
87.2095
81.9551
78.2607
72.6611
66.173
59.173
53.1347
48.429
44.4884
42.25
40.8184
40.5301
38.7915
476.171
263.606
178.681
133.462
122.793
113.29
104.504
98.0358
90.0564
83.9764
77.9447
70.7847
62.6007
54.7242
47.6251
40.7216
34.7057
29.5236
27.6191
24.4234
470.88
199.693
181.415
153.278
139.483
127.496
114.702
107.037
100.029
91.534
80.9171
72.6983
65.8202
57.6011
48.2211
38.4711
28.6579
20.3969
16.3083
12.5133
295.7
183.138
197.609
175.149
150.281
135.644
120.516
110.816
105.802
102.591
91.3216
77.2128
67.3517
57.269
44.014
29.3269
19.7602
15.7481
14.8852
14.9247
167.984
234.113
197.883
172.816
151.058
136.812
202.014
165.414
148.965
157.028
160.572
135.497
114.555
98.5795
37.2657
26.5471
23.555
23.9924
26.7961
27.6383
122.886
140.455
151.243
158.166
147.874
213.78
312.1
268.755
240.946
215.375
263.664
250.974
204.406
166.33
66.9396
30.9998
32.2765
36.7244
40.2867
40.3115
159.114
168.873
196.94
170.235
147.547
215.85
301.321
247.927
245.794
183.416
237.568
251.897
232.855
185.912
94.1381
48.4036
48.6605
49.3903
49.3875
48.2753
158.092
195.972
178.93
172.934
161.115
251.769
332.754
233.524
233.43
172.482
193.781
221.107
224.81
204.243
119.785
58.648
51.7146
49.2993
48.8031
47.8027
59.8527
157.179
167.821
179.579
172.046
289.563
405.846
213.604
202.858
184.69
187.299
196.536
197.678
192.57
121.133
57.8494
51.1862
50.8653
51.8929
51.6461
110.614
185.472
181.304
158.036
132.282
109.764
156.454
118.738
113.927
109.822
110.467
111.354
108.636
102.768
57.3897
53.4887
51.3326
49.6572
49.1631
47.2884
173.079
193.442
189.76
174.154
148.352
118.712
93.4918
77.0669
69.7734
63.5471
60.6703
57.1783
55.5203
53.227
51.9216
49.5403
46.8887
41.0989
38.1045
33.6461
207.683
236.674
202.102
179.244
146.086
113.679
86.3398
71.8657
64.2426
60.0361
56.1916
53.1073
50.6918
48.2321
46.2809
43.5063
40.3244
36.5211
33.3214
31.3992
452.04
339.353
198.735
153.58
127.684
109.014
87.4898
75.9112
66.7865
62.5732
57.7027
54.2415
50.7575
47.856
45.4383
42.6662
40.3065
37.089
35.6578
32.6675
452.463
288.9
184.652
134.933
111.752
92.6743
83.8678
76.2139
70.5159
66.2437
60.1992
55.2519
50.044
46.1962
43.3538
40.7613
38.1328
34.2386
31.2686
25.1011
169.972
199.538
182.399
144.427
114.651
100.929
89.1274
85.9247
78.7087
75.5102
70.197
67.0278
61.7163
56.0489
50.105
44.7738
41.2372
37.3223
35.4812
30.9304
141.436
224.304
213.058
169.202
121.176
97.609
81.7058
77.4849
69.9901
65.9024
61.3929
58.7118
55.1972
51.6368
47.3707
42.95
40.222
36.5317
34.7265
30.378
131.318
160.471
162.248
156.429
140.812
118.614
105.319
93.64
78.1105
62.2498
51.9369
45.785
41.1599
37.6185
35.5553
33.8784
33.0615
31.5069
30.6441
28.2935
65.6945
78.3276
70.5164
68.489
67.436
64.7671
58.6998
52.6309
44.5048
36.8008
30.9976
29.2075
29.3494
30.0366
30.0477
29.4513
27.5643
24.7257
22.6825
19.8717
205.39
140.732
114.914
93.3582
74.6611
70.5088
65.6392
66.3001
65.8705
64.2612
56.375
44.9082
38.1925
34.3554
31.8587
29.5076
27.3611
25.4319
24.3621
23.2771
168.25
151.704
107.182
83.4308
68.4105
63.7736
56.8652
54.4471
51.2856
49.4517
46.559
42.278
37.5483
32.987
29.7122
27.3528
25.8032
24.5544
24.0381
22.9724
265.247
178.412
103.806
69.7368
60.8956
57.5336
55.3465
53.1643
51.4377
48.8245
44.9037
40.1758
35.0668
29.9668
26.1885
23.8077
22.2984
21.387
21.1463
20.478
196.465
131.952
85.5726
76.4692
65.8556
62.3436
58.6067
56.7962
55.1672
53.2375
50.0021
44.3882
37.6585
30.7511
26.6156
23.3892
20.4452
17.7075
16.697
15.3385
204.857
104.677
85.9577
77.1646
66.2317
63.4752
58.2035
56.524
53.9534
51.7328
49.4815
44.2422
37.2691
32.5953
30.3019
25.4074
19.1096
13.7148
11.6227
8.92992
155.657
141.881
104.509
82.8425
68.0655
64.1944
58.5686
57.0734
52.5826
50.2017
47.2422
44.3523
40.719
37.9062
30.4406
19.2281
12.8891
10.6856
10.4509
10.6968
444.051
251.294
112.807
85.049
68.5259
63.4916
68.6166
63.2302
54.2375
49.5756
46.9155
44.9756
43.7894
42.173
26.193
16.4796
13.7828
13.5914
15.0339
16.2797
432.143
172.242
105.528
85.9821
70.8335
72.8275
69.8917
63.6632
59.3301
49.8365
45.053
43.9628
43.8534
43.1961
31.6726
19.493
19.2235
20.2604
21.9776
22.0493
152.674
145.608
119.87
86.872
71.0258
74.2835
73.6435
66.4182
61.968
56.2124
42.9707
41.4261
40.6273
39.3
32.5954
26.235
25.9684
26.3712
27.7563
28.5207
151.043
125.689
97.3742
87.7554
83.0905
94.0935
95.4959
65.4776
50.7808
47.8561
42.086
44.6252
41.7038
38.0184
34.1201
31.3316
29.5168
29.3851
29.7662
30.0118
265.045
129.423
104.099
99.0932
93.4644
114.738
130.244
85.9459
47.197
40.3239
36.5676
37.1749
40.9895
40.6369
38.2128
37.1921
32.8834
29.803
29.155
28.8611
256.136
142.505
100.639
90.2595
79.3487
67.5944
68.0361
53.7887
40.2286
34.5556
32.6477
32.5672
34.8338
38.5027
35.3677
32.9358
28.527
26.0092
25.4357
25.2211
184.517
166.981
123.877
96.8141
74.7575
61.7389
55.592
47.224
39.9954
34.3357
30.8337
29.281
28.7634
27.8952
27.7122
26.2982
25.2809
23.8119
23.3742
22.4819
173.111
156.919
117.049
92.0261
67.8019
54.7859
47.025
39.7602
34.7478
31.043
29.444
27.825
27.2859
26.0026
25.4028
24.52
23.6315
22.0272
20.9801
19.6315
238.918
159.604
105.358
80.7509
60.2447
52.3001
45.0407
39.0632
34.4361
31.3679
29.1676
27.6597
26.4025
25.2304
24.1257
22.7777
21.4381
19.7031
18.5928
17.0814
253.202
144.084
85.2628
63.6096
50.6364
43.4507
39.0992
35.7977
32.8068
31.2549
29.1128
27.8326
26.0121
24.6081
23.0187
21.5588
20.2738
18.6675
17.6877
15.7836
208.706
125.493
93.9474
81.5015
66.8475
54.9822
45.5696
41.4529
36.7386
35.119
33.0951
32.6552
31.7882
30.7728
29.1773
26.6657
24.2322
22.228
21.5627
21.3891
163.376
150.043
104.568
81.8703
66.6433
56.2355
45.8607
40.9938
35.1592
32.1326
29.2548
27.9622
26.7967
25.9743
25.0684
23.9544
23.0812
21.8987
21.5284
20.7706
49.3913
72.8009
76.7562
75.8112
66.0266
57.1584
50.9293
43.9163
35.923
30.3775
27.395
25.171
22.8834
21.1133
20.062
19.1814
18.6093
17.8929
17.4523
16.0695
51.2377
73.792
69.1058
67.3904
66.1364
61.0664
53.6822
46.4253
40.2871
36.3095
34.5061
34.2408
34.068
33.5743
32.3783
30.4424
28.371
25.6246
23.9182
21.2625
173.266
150.885
96.7641
76.2399
59.8028
55.9611
51.8609
52.068
50.4443
48.1059
42.8774
38.6994
35.0393
32.8203
31.0283
29.529
28.1645
26.9637
26.2556
25.6328
133.062
148.269
101.994
68.3949
54.915
50.7587
46.5695
45.6527
43.2122
41.6208
38.2729
35.4499
32.2172
29.8996
28.0852
26.9235
26.1154
25.4919
25.2125
24.6505
247.27
201.346
101.252
58.4064
49.8049
45.8525
44.3515
43.1419
41.263
39.5591
36.1411
32.9318
29.4898
26.9638
25.098
23.9875
23.3259
23.1771
23.1156
22.5455
267.398
141.022
76.077
58.4647
53.5243
48.7617
46.6696
45.523
43.7585
42.24
38.7726
34.5839
30.2119
26.8214
24.5483
22.8913
21.7349
20.9599
20.2911
18.6255
402.599
102.97
74.1829
61.6695
55.4242
49.9351
47.0995
45.3084
43.1311
41.4266
38.6592
34.7719
30.4789
27.305
24.7407
21.9988
19.2847
17.0124
14.6891
12.6489
220.67
119.575
100.338
73.2958
58.7102
51.6649
47.1056
45.5468
42.3119
40.4951
38.0535
35.6044
32.6055
28.7027
22.6801
17.3752
14.8491
13.816
13.4676
13.9307
320.726
145.753
113.187
77.7272
59.79
51.8724
50.4927
49.2591
43.7744
41.096
38.0397
36.3363
34.6263
31.2427
21.2822
17.6352
16.3936
16.2711
17.0131
17.9801
182.307
148.687
115.898
82.3925
61.4341
56.3388
53.4484
49.8451
45.4027
41.0034
37.5907
36.1377
34.643
31.4046
23.1192
22.5014
22.4713
22.6237
23.1367
22.7612
150.281
147.917
126.121
82.0029
60.926
55.6963
53.3142
50.089
47.444
41.8335
37.3426
35.3504
33.4894
30.6482
27.8892
28.8274
28.786
28.9236
29.6711
29.8808
243.208
146.026
93.861
73.5191
62.9851
60.8136
58.1547
47.0775
41.5827
39.5526
87.4678
69.9523
40.5902
33.5283
32.4705
33.9667
33.1116
32.6521
32.6799
32.895
289.095
133.112
88.7299
74.9978
64.8479
65.8051
68.2732
50.092
37.2359
33.99
33.5347
37.9606
43.6747
41.3283
37.5769
35.6432
33.2168
32.0307
31.8071
31.6535
437.349
220.339
98.8806
72.0749
59.0641
49.3393
48.3967
39.6623
32.7431
30.2744
29.457
30.1784
31.6479
33.6168
31.605
29.618
27.8452
27.0401
27.0891
27.1485
343.018
241.701
139.138
94.6108
65.4935
49.2737
41.9453
35.0098
30.8577
27.3573
26.2289
25.4379
25.51
25.2167
25.2148
24.6232
24.2289
23.863
23.8671
24.0119
227.021
174.953
115.21
80.6393
56.1054
41.2692
36.4553
31.2292
28.2974
25.9035
24.9358
23.9958
23.7306
23.2092
23.05
22.6694
22.4054
21.9871
21.8421
22.0065
241.633
109.573
79.94
60.5308
48.1933
39.1184
35.1228
30.874
28.1228
26.3083
24.8214
23.8655
22.9458
22.2859
21.5714
20.9453
20.3117
19.9692
19.9076
20.1377
206.965
104.78
71.8065
51.748
43.3248
36.3295
33.915
30.2814
28.3111
26.8016
25.0285
24.0099
22.5094
21.6336
20.5526
19.8848
19.2306
18.9601
19.0309
19.56
154.666
121.375
83.2467
61.9831
52.0054
44.5727
38.3783
35.2564
31.4844
30.1214
28.143
27.5899
26.3315
25.4075
23.923
22.8481
21.9886
21.4963
21.3517
21.1087
225.543
174.201
111.322
67.3647
53.266
46.7438
40.3362
36.668
32.1725
30.0398
27.3223
26.1255
24.6672
23.8767
22.8514
22.062
21.4853
20.7688
20.2736
19.1479
87.186
87.5272
75.0107
71.9298
64.9728
57.0401
50.2063
42.7371
36.547
32.5472
29.5259
26.9001
24.6781
23.0463
21.9993
20.9295
20.2815
19.061
18.3307
16.1889
86.1283
81.1984
70.6811
64.2598
59.6071
50.9933
45.5014
41.8848
39.5428
38.4893
37.6005
36.7207
35.6135
33.9715
31.9572
29.5785
27.342
25.0133
23.4913
21.2362
302.571
191.777
93.1576
67.1008
57.4688
50.5978
48.5933
46.5865
45.8133
44.2513
42.2284
40.6593
39.0877
38.1864
37.2053
36.5336
35.8253
35.2332
34.6544
34.3801
199.068
155.375
95.5172
64.7748
55.1956
47.6245
46.1377
43.2277
42.1376
40.1109
38.3477
36.6683
35.1416
34.2521
33.6211
33.3389
33.0966
32.9349
32.8138
32.842
310.013
141.558
83.2841
56.3855
50.417
44.0257
43.7298
40.8694
40.0762
37.8125
35.9028
33.8244
32.2377
31.3449
30.9181
30.8453
30.9704
31.3535
31.548
31.9319
256.652
124.031
72.745
56.9711
53.2352
45.6545
45.5148
42.4336
41.5428
39.113
36.712
33.995
31.9199
30.7042
30.2069
30.1957
30.4891
30.7403
30.5598
30.8501
193.615
118.4
72.6174
59.497
54.665
46.3966
46.0865
42.3621
41.1744
38.9128
36.6872
33.8234
31.3515
29.5566
28.456
28.292
28.3262
28.0736
27.0805
27.4838
154.929
131.975
104.01
69.5187
58.5606
48.0893
46.4035
42.4903
40.8533
38.6623
36.6328
34.0582
31.3447
28.4367
26.3428
25.9834
25.6707
25.5814
25.2603
26.0358
188.9
143.45
119.827
75.3953
59.203
48.4649
46.888
45.4285
41.4801
39.4886
36.9095
34.5371
32.0867
28.2935
27.7042
26.7316
25.8249
25.5287
25.0601
25.5186
227.617
161.985
125.082
80.4288
59.7128
52.4457
49.28
45.8089
42.2541
40.1016
37.3664
35.3771
32.7045
29.4402
29.833
30.834
29.1749
28.0464
27.6631
26.9789
133.743
162.524
132.705
77.8166
58.2515
51.1918
47.7975
45.3238
42.7964
40.119
38.3955
36.3381
34.6443
33.2343
34.6656
36.9884
36.2255
35.2733
35.1963
33.7699
331.56
174.529
95.942
68.5061
57.1354
51.5165
47.8931
43.6324
40.445
40.5462
63.5542
51.4463
40.6667
37.6613
38.9948
41.0203
40.2289
39.5899
39.4732
38.7882
287.085
142.968
85.7882
63.3228
54.8193
50.8278
48.9048
42.1121
37.4739
36.3336
37.3903
40.5058
42.3739
41.9252
40.94
39.8778
38.9641
38.3245
38.1538
37.4101
200.214
167.355
93.5499
64.9521
54.9239
44.8082
42.8054
37.1521
33.6418
32.649
32.776
33.5864
34.3494
35.4201
34.8197
33.5827
33.2174
33.1293
33.4296
33.7001
354.645
241.112
137.828
86.8503
62.2153
44.6556
39.4564
32.8692
30.8258
27.8667
28.1678
27.5229
28.4163
28.4835
29.0669
29.1561
29.3959
29.8118
30.3972
32.1551
306.957
162.362
107.3
71.5049
52.5871
38.8333
36.4934
30.9101
29.2703
26.7858
26.544
25.8317
26.1526
26.2346
26.6421
26.9528
27.4234
28.2274
28.9944
30.9606
219.395
112.712
74.8698
56.6073
47.1516
37.2902
35.6984
30.7773
29.7255
27.4549
26.8823
25.7682
25.537
25.2416
25.2833
25.4165
25.6963
26.4288
27.055
28.615
183.346
104.208
71.678
52.5767
44.4353
37.0953
35.911
30.964
30.4212
27.8803
27.0834
25.7168
24.9922
24.579
24.527
24.7772
25.4634
26.7784
27.6473
29.2051
242.02
165.344
92.7865
57.2916
51.3281
42.3935
40.4905
36.081
34.309
31.9005
30.416
29.2404
28.1777
27.6434
27.2765
27.4298
27.8747
28.7927
29.3336
30.4421
180.76
256.45
183.531
71.9284
54.1387
45.5591
42.7421
38.6091
35.7444
33.3339
31.1878
29.8551
28.7414
28.3328
27.9395
28.0394
28.3366
28.8322
28.6748
29.0385
41.1659
65.206
72.7491
67.011
59.8013
51.9449
45.7917
40.0456
35.7114
32.0298
28.919
26.2933
24.3758
22.9325
21.9148
20.7738
20.0841
18.6186
17.746
15.1615
103.735
86.375
72.8581
61.4362
52.0801
46.1178
43.1359
41.5194
40.2044
38.7607
37.2075
35.0116
32.5505
29.7542
27.366
25.2944
23.6883
22.2254
20.9892
20.2637
418.456
202.563
116.847
73.9253
73.9908
56.6575
59.2718
50.0533
53.4005
49.0656
51.608
49.5162
50.4019
48.7648
48.7245
47.7943
47.5129
46.6368
46.0995
45.4507
208.022
157.189
110.54
74.2171
69.9079
55.1184
56.6115
48.1511
49.7932
45.2625
46.2027
43.9199
44.3292
43.2758
43.5718
43.1652
43.2639
42.8595
42.5129
42.2292
291.811
141.601
86.1807
72.0514
61.228
53.6861
52.8302
46.3915
47.2747
43.1687
43.6234
41.3739
41.6498
40.8454
41.3317
41.2976
41.7164
41.6833
41.6018
41.7839
181.692
140.646
86.2188
71.2065
63.1043
53.5776
53.9727
47.2057
48.0006
43.7995
43.2877
40.8871
40.797
40.2626
40.8932
40.9255
41.2
40.9478
40.9046
41.595
465.893
171.143
84.6978
77.5774
60.9946
55.5156
52.9301
47.0368
46.6981
43.6403
42.4729
39.9667
39.1457
38.4822
38.8944
39.194
39.2224
39.045
38.9324
39.9711
231.462
160.826
108.545
74.1586
65.2472
53.4721
54.1842
47.389
46.4425
43.5415
41.8276
39.397
37.9582
37.3285
37.4373
37.3521
37.0087
36.6923
36.3641
37.1458
188.924
153.963
122.209
79.886
64.8097
54.1692
52.3526
49.5464
47.4815
44.9552
43.5175
40.8205
39.8791
39.2524
38.3975
35.9353
34.8075
34.4749
34.2079
34.744
395.382
164.368
130.413
80.3957
64.9032
54.5871
54.9021
52.6129
50.5378
48.666
47.072
45.2355
44.8842
45.2655
44.5289
39.1294
37.0098
35.4045
34.6131
33.9613
348.864
201.963
139.183
76.1949
62.9315
53.7041
53.0362
53.2961
52.1448
50.4896
49.3271
48.6207
49.4705
50.2708
48.3609
44.9811
43.5771
42.0572
41.0194
38.2165
377.75
193.05
107.201
76.4858
61.9972
55.9833
53.4026
52.7779
51.3894
50.5489
52.9113
51.7386
51.9197
52.0657
50.7834
47.9562
46.9622
46.2376
45.7316
43.1576
362.164
142.383
100.503
67.3381
60.0704
55.5146
54.5407
50.6183
49.7518
49.3123
50.2313
51.25
52.0596
52.6592
50.9513
46.6404
45.8708
44.8109
44.4229
42.6717
190.158
163.253
101.735
75.2676
64.0736
56.5945
48.1819
43.9371
42.987
41.888
43.4557
43.2573
44.6854
44.9772
42.7435
41.5148
41.2583
41.2511
41.4485
41.7746
361.552
282.529
164.216
84.6156
70.91
48.7864
47.8406
40.9638
37.8702
35.2888
35.8583
34.9388
36.6801
36.658
37.8229
37.9846
38.7229
39.4766
40.4503
42.5573
245.837
175.59
112.887
72.8423
59.733
51.425
44.7837
38.6972
36.3408
34.0036
34.0294
33.2671
34.3103
34.4512
35.4971
36.103
37.1606
38.2423
39.1481
40.9205
249.131
145.802
82.1424
74.0088
55.9162
48.6602
44.6183
38.155
38.1542
34.7074
35.2621
33.4507
34.2949
33.6809
34.6395
34.627
35.3868
35.8723
36.4358
37.6619
287.779
132.653
80.6904
72.6983
52.4553
51.017
43.5846
39.2975
38.4961
34.7041
35.4143
33.1767
34.0562
33.2164
34.0763
34.0602
34.9006
35.5155
36.089
37.119
461.483
252.013
123.811
71.8673
62.2311
49.0858
51.0513
42.1883
43.9341
38.2882
39.2244
36.2931
37.3229
36.3299
37.5418
37.5259
38.4399
38.6336
39.0486
39.4408
430.109
391.55
257.149
92.7255
69.5676
49.7861
54.595
43.6434
46.5626
39.7673
41.5974
38.3505
40.2114
39.3544
41.0907
41.3117
42.4568
42.7407
42.9286
43.7014
85.8837
104.78
80.9268
63.3683
54.2529
47.0004
41.584
36.6182
32.5732
28.7158
26.0549
23.8839
22.4644
21.0965
20.0516
18.8499
17.9127
16.2711
15.4556
13.3374
37.9845
41.9088
98.5803
39.6033
38.1191
42.1303
101.195
35.8102
103.717
75.5976
37.6516
36.0696
99.7676
63.5514
86.3595
34.9222
35.3353
40.4026
92.7752
35.7873
37.8708
79.5414
36.2706
41.8662
90.3449
67.3398
39.1516
43.6596
263.704
300.029
250.917
80.1082
70.7175
82.4029
74.0053
262.394
252.496
256.522
69.4974
66.1409
71.9841
68.6296
208.028
252.572
195.96
65.2513
56.8594
68.8222
67.736
258.202
195.065
233.281
54.5101
50.4977
62.1836
49.6438
259.861
245.067
255.702
50.275
49.6062
48.6979
47.4183
220.867
254.566
239.236
49.6
49.5729
47.1923
46.5268
173.376
230.517
192.922
49.6571
49.6024
46.4457
46.0925
128.876
176.947
131.488
49.184
46.1665
45.6637
41.2063
247.613
320.616
243.31
86.2676
76.6571
101.072
84.8292
250.339
243.355
245.385
73.7062
67.8683
75.4142
59.6954
185.237
238.323
174.534
67.9645
67.5454
58.6683
57.888
224.36
169.249
191.466
62.543
48.6752
55.4072
45.507
252.311
207.818
231.848
47.8035
46.8911
45.4002
46.8316
239.69
234.453
233.759
46.6898
45.9002
46.8571
45.5787
200.21
229.795
211.422
45.7347
45.0217
45.015
43.1518
136.606
203.394
174.104
44.5043
39.7441
42.5628
38.7255
234.982
373.409
220.822
112.427
85.6432
131.71
102.188
237.388
207.184
206.932
73.5481
56.9024
82.7517
56.2097
181.152
206.388
184.984
55.6193
54.6369
53.1127
47.5153
180.868
180.724
181.098
52.766
44.4806
45.8403
41.7988
217.454
182.351
196.286
44.3543
46.415
41.1491
41.3243
225.702
199.84
202.556
46.82
46.2372
42.1751
44.6532
210.841
202.362
199.461
45.4219
43.1488
44.8083
43.843
177.25
197.527
177.889
42.5506
38.9747
43.3552
41.1626
235.395
367.892
238.608
146.715
121.949
138.49
127.359
203.546
213.712
184.914
96.8309
56.8242
100.738
52.302
186.667
183.299
177.991
52.8252
46.4769
48.7067
42.9591
186.821
178.555
186.438
44.8713
41.2309
41.9328
38.6334
194.308
186.757
190.381
40.5122
39.9368
38.062
36.6245
198.378
191.042
188.821
40.3604
43.0643
36.6884
38.2115
194.116
187.035
178.275
43.5917
43.6853
38.903
41.8125
176.418
176.007
152.572
43.2973
41.2031
42.5913
43.4695
64.7412
70.7287
66.3652
55.9727
53.0083
55.4589
53.1387
60.3295
64.9138
62.3549
52.1309
48.7498
52.4011
50.5606
51.9987
62.4898
60.8755
47.6467
43.3339
50.2518
46.5533
45.5553
55.7249
44.6107
42.247
39.1148
43.8019
38.4106
44.0432
43.5087
42.0289
38.503
37.3198
37.6147
36.1996
43.7999
41.8114
41.3717
37.1546
36.4971
35.909
35.0557
43.6772
41.354
40.9664
36.1929
34.7843
34.7123
32.8504
41.42
40.358
37.132
33.6616
28.8545
31.849
28.4968
68.648
86.8535
75.1665
56.5673
54.0333
61.9414
54.5593
61.9212
67.2835
54.4834
52.9249
50.5567
51.4385
45.8104
61.0249
53.6154
52.807
50.268
46.8471
45.1877
43.1217
44.0639
50.3686
43.1479
43.9757
38.5554
42.2906
60.7317
41.6752
43.2117
44.3316
37.7965
36.3139
63.636
58.8442
40.7575
44.0779
41.2634
35.9174
34.7553
51.4826
38.1707
39.9483
40.4364
38.4535
34.3476
32.5551
36.2819
33.2039
35.8389
37.853
35.1023
31.6739
28.7055
32.5158
30.5998
75.3812
114.683
89.6104
64.609
53.6295
72.7227
57.7801
51.8445
73.3027
50.5084
49.9255
43.8766
51.8269
41.0858
49.74
47.6511
42.8224
43.1142
41.2787
39.3662
36.3905
41.9974
41.4088
37.8938
40.3165
56.4514
35.5836
34.888
44.3167
37.4222
38.2207
58.695
61.6613
35.3879
39.842
43.1217
39.3221
42.4217
58.8735
44.3008
42.2016
47.338
38.6769
42.588
41.2033
40.2865
34.4669
46.8481
42.1176
35.4561
40.5009
38.6972
33.5821
31.4081
40.6324
37.3915
110.093
116.404
118.155
80.7525
64.8381
77.5435
63.6651
50.8046
86.8586
45.8872
55.7942
40.6337
51.5735
37.3506
41.6704
42.8167
38.1753
38.593
35.3317
35.4189
32.6459
37.1655
37.2531
34.6278
34.5907
33.2958
32.0931
30.8647
36.5224
34.1384
33.3698
33.3473
35.5143
30.605
30.7226
40.2779
33.5129
35.1846
36.9647
41.6176
31.1166
32.8686
41.1251
35.9385
38.6529
42.8651
41.9688
33.5264
35.5804
39.0467
39.4598
40.687
40.9071
38.1658
36.1784
36.8444
50.7713
52.6776
50.4556
49.5758
46.9244
48.3127
46.1159
46.4819
49.7619
47.8518
45.9234
43.0042
45.4388
43.4118
41.8614
47.3909
43.8129
42.1311
40.1933
42.8185
40.5336
38.2169
41.7544
37.6521
39.6758
37.5016
39.6505
37.622
36.3881
36.9664
35.5815
36.8634
35.5702
37.0976
35.7013
35.1573
35.2408
34.1296
35.0266
33.26
35.2415
33.7277
32.7905
33.6604
31.5068
32.4504
30.1075
33.145
31.2422
26.4462
30.5227
27.4989
28.6615
25.9603
30.6123
29.5437
51.0421
56.7288
50.701
48.2547
46.1982
48.7718
45.3081
47.8868
48.4298
43.9988
45.5033
43.4252
44.2393
41.4759
43.9848
43.3563
41.393
42.8289
40.4849
40.8234
39.6857
40.4197
40.0485
41.6674
40.4366
40.7129
39.2121
40.3871
39.4243
36.7907
39.7234
37.1937
39.0553
36.6562
40.2105
33.9877
56.957
38.1307
35.5262
34.0228
50.8976
38.2866
31.5099
36.0465
32.874
33.5251
31.9829
36.8099
34.7034
28.0308
32.2198
30.5928
31.5
30.5903
34.361
33.8693
49.7117
62.8657
51.9819
48.7362
44.5767
49.277
44.1464
42.3233
47.7784
39.4634
43.422
40.5117
42.3426
38.0959
39.8825
38.0321
35.5271
39.8444
38.8723
37.2756
35.8978
55.7302
67.8146
38.4708
46.6566
45.2975
254.479
38.6221
89.8844
88.7474
62.4872
205.158
66.7075
190.433
84.6773
45.2037
44.5518
48.9524
58.8594
43.1078
44.868
45.6414
34.4179
48.1538
42.6735
40.3867
36.4713
44.8879
42.2578
31.5114
41.1544
37.8233
35.9385
35.0349
41.5572
40.0024
56.3738
65.7585
54.6035
50.7581
44.812
50.8061
43.1821
38.8921
46.5129
35.9067
42.4179
37.372
39.8579
34.7894
34.5633
34.2966
32.0892
36.5124
35.1958
33.9004
32.9678
33.31
31.7046
30.7705
34.9984
35.4276
32.8392
32.5715
36.3696
30.5793
30.915
35.988
38.8384
32.5722
33.3351
42.5244
31.355
33.03
39.8842
42.1363
33.7066
34.8027
42.4339
33.6185
35.4563
42.4993
41.8993
35.1378
36.3694
38.5343
35.9893
36.496
41.4351
40.1737
36.6862
36.983
46.8355
47.9828
45.9594
52.3789
50.845
50.9911
50.3711
43.0651
45.309
43.3625
49.6506
47.6244
49.9001
48.5461
40.6166
42.8052
40.88
47.1112
45.8941
48.1925
46.8247
38.0037
40.17
38.4095
45.1444
43.5566
46.2943
44.9636
36.0144
37.8994
36.4967
43.0331
41.6443
44.5396
43.494
33.4816
36.0252
34.6177
40.8461
39.7323
43.2801
43.2824
30.6111
34.1092
32.6566
39.5219
39.3502
43.2611
43.6366
27.9568
32.2508
31.8953
39.2859
39.1166
43.8544
43.7945
45.9658
47.9998
45.183
50.5112
50.2098
50.569
49.8488
43.3616
44.2941
41.8476
49.8322
48.5771
49.3892
48.0384
40.8102
41.2262
40.0768
48.2209
46.7654
47.4929
46.3554
38.844
41.3382
65.5224
46.2979
45.1809
46.4028
49.5117
36.8619
64.8959
51.8578
44.7995
43.6803
49.5365
47.7015
35.045
46.6945
38.8931
43.4499
43.8741
46.8031
46.0853
33.5257
37.8541
36.3785
43.9531
44.3442
46.2369
46.3411
32.8692
36.1754
35.9431
44.5708
44.6438
46.4732
46.4523
44.591
48.0337
43.8178
50.7171
49.6352
51.2702
48.636
41.073
42.3491
38.8808
49.1177
47.7007
47.7752
46.1812
39.4724
38.2214
37.0959
47.1601
46.1254
45.9766
45.0877
63.9801
37.0409
38.8967
46.2743
49.9845
45.011
45.8857
55.2149
39.9936
43.3521
50.2203
48.8045
46.4017
47.3846
42.4254
44.0697
44.4613
48.0526
47.306
47.5773
48.4657
38.007
44.0031
42.4984
47.3227
47.1811
48.5521
48.7218
37.0843
42.1041
41.1054
47.2732
47.2784
48.8288
48.7629
43.9766
48.7067
42.1388
51.4303
47.9724
50.2631
44.4735
38.13
39.4225
35.4292
46.9466
45.3735
42.7923
41.3776
36.471
34.7636
34.1687
45.2862
44.7152
41.5639
41.6869
36.857
34.0668
33.9387
44.5875
45.0706
41.4989
41.9568
39.7492
33.9923
34.8249
45.428
46.4496
42.3242
43.0412
42.1278
35.1266
35.9903
46.7758
47.8371
43.0027
43.5418
42.1605
36.2613
37.3932
48.0116
48.4343
43.828
44.7754
41.141
37.6551
37.8669
48.573
48.6344
44.8251
45.0064
53.892
53.6363
53.7799
69.2293
69.9991
69.3447
69.4755
50.9415
53.3845
52.333
67.0102
66.116
68.8888
67.7991
49.4474
52.082
50.9158
65.2857
65.0375
67.7264
69.7856
47.4929
50.4478
49.4521
63.7549
64.7151
70.3651
71.4368
45.8923
49.1512
48.5271
64.2394
65.4158
71.5307
71.4447
44.8754
48.4381
48.8124
65.3877
68.1241
71.1489
70.711
45.3297
48.928
49.5466
68.5837
71.2303
70.973
72.0528
44.5362
49.7428
48.9324
71.4323
67.4
72.3474
69.1243
53.5679
53.138
53.2904
67.6999
69.1533
69.0445
69.0997
52.3917
52.9693
52.0812
68.7968
67.887
68.6837
68.3313
50.8907
51.6227
50.6829
68.2298
71.6229
69.614
74.8042
49.609
50.6013
52.2007
72.519
73.9187
75.7565
78.7342
48.6399
52.2915
51.3022
74.0954
73.6208
79.6551
79.8273
49.2963
50.8798
51.08
72.9122
70.7912
78.1704
72.2913
50.0326
51.1922
51.3938
70.6781
71.254
71.1043
70.3154
49.6314
51.5472
50.9251
71.4939
68.6065
70.332
67.5408
53.1668
54.417
52.244
68.9172
69.1498
72.5826
68.7121
51.8384
51.532
50.4903
68.608
68.2059
67.72
66.7583
50.5397
50.4339
49.7554
69.4994
74.8572
67.1583
70.9719
52.6732
49.6934
50.4602
75.8789
79.0115
72.0563
73.8798
52.0896
50.8847
51.6223
79.9498
80.0788
74.3073
74.1811
51.9038
51.8436
52.4912
78.3974
72.4663
73.2344
70.2288
51.9427
52.5731
52.8067
71.2346
70.3291
69.7873
69.6921
51.5974
52.9565
52.5251
70.3293
67.8751
69.8006
67.8048
51.4489
53.0384
47.3847
72.0766
67.7023
66.7877
62.6864
49.6862
45.9365
45.1331
66.6987
65.9945
61.208
60.8914
49.4175
45.6322
45.8527
66.083
68.5996
61.238
61.0391
49.8893
45.6361
46.2212
69.3754
70.8678
61.0423
61.723
51.0373
46.6795
47.2388
71.2503
71.277
62.6179
62.8359
51.9221
47.0961
47.6419
70.6456
68.9503
62.8362
63.5278
52.4924
47.9535
48.7803
68.8923
69.1455
64.1715
64.658
52.3861
48.7796
48.6232
69.3107
67.7541
64.809
62.9873
40.8552
38.8256
40.2364
37.7534
40.5412
38.3863
40.7108
50.6927
41.677
65.3564
47.1288
44.7802
41.321
200.46
58.6343
51.2104
87.1525
234.126
49.7334
58.8746
251.387
40.1739
39.7073
38.9715
39.6414
38.8571
39.7375
39.973
40.9036
37.79
38.5408
40.5848
38.2898
40.8099
40.6293
51.3679
48.1211
40.3983
75.4185
40.9198
208.275
45.6548
59.1339
243.294
51.9303
97.8647
59.0348
259.838
51.2244
38.5094
36.2773
37.2881
35.6181
38.2688
36.128
37.3186
54.41
50.7207
106.379
224.881
49.4522
56.9344
218.377
51.0042
43.5165
98.2165
90.9993
47.3377
44.892
155.979
39.541
37.2858
37.144
40.1803
36.7629
40.3362
39.4635
38.5948
35.6884
36.6096
37.5145
36.226
37.3686
38.575
54.453
233.718
50.9019
96.8495
56.9472
227.089
49.1958
50.8364
88.1446
42.603
83.4202
44.5182
162.982
46.3832
69.0554
82.3928
57.919
219.355
52.4508
234.718
77.9276
38.0305
36.2716
34.6744
34.7479
37.0867
36.1655
34.8081
41.0484
41.0422
34.8161
36.1661
38.8784
44.1505
35.2654
58.3083
47.8602
77.2321
39.0117
250.545
38.9255
49.5675
73.3472
230.274
92.8984
64.251
244.558
81.8941
59.0538
38.7592
35.0394
36.9849
36.0693
36.4046
35.2732
38.9111
42.2328
37.0411
44.6816
36.7998
45.5518
35.9571
41.8959
94.5222
89.0218
72.6354
107.004
72.7172
173.047
89.0975
50.7656
43.4556
37.7091
37.4105
46.3532
47.2998
39.1232
54.4783
53.4568
39.5897
43.4221
49.8697
57.34
41.1698
91.2177
216.549
86.8568
67.1127
201.714
87.4819
68.5337
91.7278
96.9268
81.8082
64.6447
175.678
83.0244
68.4267
51.8744
38.4018
47.1898
40.6642
48.6914
40.1246
49.5029
54.7504
43.9323
52.633
42.1828
56.5673
41.999
51.3177
175.555
198.797
190.769
108.076
84.6153
102.396
86.9365
153.933
185.225
171.423
77.9417
71.6587
81.2959
75.8931
149.629
156.795
154.555
66.9529
62.1671
69.9446
65.0647
162.317
159.246
166.245
62.8719
63.1868
63.7113
63.1007
154.03
166.149
162.669
62.9178
61.2107
62.3317
61.5694
124.922
151.548
134.848
60.6461
60.1271
59.9291
57.8934
106.671
119.458
107.315
58.5241
57.0514
56.9983
54.7061
85.337
97.7659
80.1664
55.5638
51.6328
54.8574
50.9281
193.929
212.068
192.807
113.743
91.0108
115.014
95.1164
137.737
270.024
303.43
163.987
129.696
165.636
276.106
108.126
269.506
270.506
101.336
98.7988
110.381
272.465
104.996
214.777
255.835
94.9767
89.5324
106.053
231.927
87.26
234.079
212.535
78.5299
80.7706
88.0685
222.34
91.46
264.672
260.227
88.6694
89.9582
91.1521
263.748
88.908
243.949
257.326
90.3445
91.2182
89.7967
250.703
81.664
196.152
215.679
89.6948
89.9492
83.2475
201.229
76.0423
158.35
161.809
85.409
85.2009
77.5351
150.067
54.0182
73.8427
57.8465
44.9151
32.5742
44.5689
35.3105
193.241
225.572
202.788
117.845
99.7057
122.121
107.959
146.994
269.153
306.172
170.202
142.86
171.988
273.422
105.288
250.202
246.761
110.161
105.733
110.874
248.142
102.142
232.478
242.92
103.211
105.04
100.501
226.101
76.5078
188.001
173.524
86.4705
79.5223
85.0334
176.826
83.4931
246.249
229.122
84.1666
86.1567
80.887
239.332
85.8435
249.86
247.749
87.2308
86.8443
86.0043
246.992
81.1616
224.134
233.221
83.2514
81.3156
82.8587
226.772
72.1153
171.061
193.637
75.0855
71.7007
75.2188
181.833
69.6575
108.953
92.0586
42.4834
35.0929
42.499
37.0148
221.311
270.622
240.068
137.915
126.949
139.924
135.004
174.937
280.199
334.832
200.143
171.021
201.849
279.821
94.7313
234.989
214.942
106.655
97.6611
104.425
216.364
85.0984
219.156
221.786
88.3868
88.0712
86.1783
216.139
74.1663
171.686
176.905
79.0975
74.4207
76.9537
174.521
72.437
204.82
184.213
72.1874
74.8281
70.7961
194.845
78.0621
223.986
211.955
79.9436
80.1891
77.5129
214.353
77.6329
222.187
216.96
79.9212
79.1743
77.968
216.122
73.7318
198.091
203.761
75.3403
73.7619
74.9726
198.246
100.397
122.669
105.427
43.7792
37.9016
45.5826
40.9399
257.874
270.128
236.125
157.81
151.787
161.528
151.067
224.405
336.27
404.449
243.765
226.826
239.087
336.513
106.338
206
221.794
121.837
101.944
127.4
208.439
78.9449
200.204
198.708
84.4188
82.1158
81.9151
196.59
71.2927
184.858
186.166
74.8586
72.3866
72.7816
186.65
68.5486
188.751
191.843
70.5589
69.6899
69.2803
192.882
69.2807
198.226
195.733
70.2612
71.3998
68.5149
196.36
71.6145
196.823
195.132
72.9751
72.8349
71.6481
193.983
70.3837
190.983
189.267
71.4539
71.0353
70.7007
187.802
107.57
115.416
100.216
46.8168
45.1527
50.5576
50.8102
132.671
159.877
128.272
97.3264
89.1821
92.9608
81.5367
116.976
123.102
122.684
70.7229
57.9425
70.5852
63.8239
111.767
116.774
107.18
52.9522
49.6052
61.657
54.3035
110.359
106.288
106.578
45.6691
44.3118
48.4552
46.8152
112.045
104.21
101.207
43.2621
42.2714
44.1789
40.5591
110.749
98.4074
95.9089
42.4157
42.8984