/*--------------------------------*- C++ -*----------------------------------*\
  =========                 |
  \\      /  F ield         | OpenFOAM: The Open Source CFD Toolbox
   \\    /   O peration     | Website:  https://openfoam.org
    \\  /    A nd           | Version:  10
     \\/     M anipulation  |
\*---------------------------------------------------------------------------*/
FoamFile
{
    format      ascii;
    class       surfaceScalarField;
    location    "2.2";
    object      phi_0;
}
// * * * * * * * * * * * * * * * * * * * * * * * * * * * * * * * * * * * * * //

dimensions      [0 3 -1 0 0 0 0];

internalField   nonuniform List<scalar> 
38556
(
532.992
768.357
-3947.53
528.101
712.816
-707.925
875.239
228.773
-575.911
946.304
75.8533
-146.919
1029.68
-25.6291
-57.7462
1150.98
-99.7052
-21.5971
1202
-139.31
88.2969
1256.2
-156.988
102.787
1229.65
-138.242
164.786
1198.45
-119.573
150.779
1082.21
-26.0987
142.33
959.689
30.4675
92.0579
839.66
62.3247
57.7045
760.25
66.2753
13.1347
696.336
66.6253
-2.7116
640.845
65.4603
-9.96901
605.705
52.0243
-16.8841
584.766
31.76
-10.822
572.656
12.4103
-0.300194
1.99041
0.360343
344.849
-311.221
2525.1
603.174
364.328
90.1624
627.538
173.483
30.9261
680.615
78.7097
-55.9327
695.565
-32.5074
-8.07206
767.124
-99.7436
-71.521
810.289
-156.227
-26.2481
882.08
-165.239
-63.5389
895.58
-152.594
0.852697
875.06
-107.76
8.70672
745.85
-8.97344
112.085
626.359
48.8945
101.064
561.683
51.4815
75.5186
526.005
49.8057
52.1481
499.662
49.6719
43.297
478.997
49.7173
36.4075
461.243
46.2083
23.5702
444.449
35.0404
13.513
425.49
29.2856
2.08391
25.0932
-18.0056
190.657
-715.427
-1451.2
196.193
441.889
-83.0961
550.074
204.85
-385.248
600.497
111.238
-82.9522
569.99
2.18652
-4.18679
575.057
-78.8116
-25.9993
539.43
-139.219
18.6186
548.916
-125.885
-48.8405
550.794
-124.394
-30.0778
552.498
-51.3766
-58.0877
533.924
3.59346
6.0069
506.473
57.9152
18.4307
458.381
55.2715
44.3015
417.914
59.6236
30.6491
391.856
50.811
24.9194
382.205
44.1552
15.2126
381.192
39.8402
7.38117
379.617
34.9986
1.61692
376.115
35.7114
-2.92419
36.4181
-15.5293
-675.838
-1526.16
-183.062
-363.247
183.216
-53.9182
-199.761
137.295
-95.9314
-85.1501
-14.9028
11.5308
105.548
-215.497
26.985
181.966
-226.493
71.2639
281.681
-344.791
105.857
344.187
-252.773
64.3818
394.235
-261.287
86.8453
426.093
-146.093
62.8575
433.334
-53.0648
49.4177
414.467
36.3866
40.3953
362.186
61.1248
46.4272
311.385
79.5754
30.8494
285.8
56.8179
19.5775
281.725
34.026
14.2049
296.253
14.5293
10.7825
313.709
16.4257
1.11724
329.934
29.0863
-9.6
38.9079
-18.6163
17.7161
-616.195
-794.438
125.557
113.837
-38.4618
120.391
108.191
34.27
141.466
-214.829
178.851
258.98
-384.098
51.0868
315.115
-323.057
40.4296
379.66
-465.9
56.5632
436.632
-335.599
25.8542
478.287
-363.685
60.7437
525.286
-234.971
41.879
539.441
-116.909
49.6902
491.016
49.7725
35.039
394.006
103.145
54.989
324.312
121.096
28.1745
302.486
63.0926
15.5502
292.651
21.7681
22.0934
285.736
6.43556
15.0091
276.005
20.2371
5.91929
262.014
34.9295
8.14813
33.1994
6.4301
-2023.11
-78.8744
-2796.13
-1099.47
-334.818
-474.987
-435.179
-280.767
-275.334
-191.07
-557.682
98.7431
107.341
-590.097
-92.412
188.882
-393.555
-11.0428
312.082
-595.3
6.20032
355.743
-359.946
-19.3144
406.336
-419.493
5.21566
462.518
-267.971
-23.1828
493.277
-167.389
19.7212
451.325
63.3747
28.3506
402.109
134.054
18.3067
358.87
150.994
13.3409
306.572
65.9972
49.3936
224.171
38.1238
66.0448
147.114
34.5623
48.9305
97.5889
46.9967
22.7651
64.812
43.7927
23.9137
19.4617
18.3402
-500.567
1234.54
-1442.91
-492.385
-291.644
-51.3559
73.5253
-342.329
-504.348
160.21
-544.755
-99.6119
303.999
-586.919
-146.967
320.17
-326.013
-83.7131
323.404
-115.983
-42.6405
-162.548
-117.834
-159.529
348.308
-95.8845
-37.675
-88.6278
-85.9883
-76.675
375.602
-102.311
-28.1816
-121.419
-89.654
-105.22
429.192
-74.9387
-80.7961
-64.9108
-55.7471
-45.1674
466.408
-44.3567
-53.4155
-49.5938
-25.4161
-31.824
459.564
2.28515
17.2162
8.41648
19.6318
22.6691
432.564
35.6336
30.1843
26.132
40.5885
28.5152
350.344
45.8602
67.1461
37.3685
46.5953
36.2438
194.32
121.923
100.099
58.3044
106.176
67.9631
-3.80225
71.68
24.989
-28.9013
60.2313
11.8645
-28.88
25.3512
18.42
-7.31101
16.6261
-1142.93
1379.46
687.938
-374.054
83.8422
-1144.37
162.186
-384.644
-493.924
184.908
-454.036
-113.442
332.789
-564.525
-170.274
88.5755
-70.889
-80.6144
98.9044
76.5657
86.7213
-58.9437
-73.4968
-60.0469
85.8223
-107.186
-6.04383
-66.8708
82.3375
-107.088
-4.26318
-93.0434
87.7469
-100.375
3.36039
-78.3232
89.4349
-81.263
-4.78751
-99.6996
105.616
-41.1007
-9.1728
-104.156
113.979
-6.13693
-1.40084
-117.637
115.394
33.8032
4.07371
-105.635
91.3167
48.5211
11.6573
114.756
58.1115
70.3694
-68.4658
-65.4776
-69.1682
-58.2392
39.8383
59.0283
41.1703
37.3258
163.259
20.3471
17.3154
116.551
-24.8609
34.1037
83.4639
-40.0209
51.248
33.3395
-25.1327
-11.9454
-6.99726
-864.655
1185.62
-1326.8
148.741
62.518
-992.072
379.816
-254.057
-361.662
447.399
-302.659
-218.959
76.7288
-367.44
-98.975
89.5412
86.0458
96.9726
110.745
-89.8652
-15.0402
22.9824
-34.865
35.4504
-21.9319
-1.63585
-34.4796
26.7229
35.6149
-26.4867
-1.37152
-33.5829
22.6886
31.5025
-21.0461
0.437903
-24.4726
20.7854
24.73
-21.3626
0.319728
-23.7123
10.1408
24.7952
-10.2823
-0.941523
-25.5437
1.61583
27.2779
-1.8934
-1.45656
-29.1005
-7.0706
30.4017
5.68251
0.0868796
-28.0625
-13.2086
27.348
12.7604
1.16272
-18.5115
52.4723
68.1309
11.228
-18.4103
-18.6257
-18.1721
111.801
216.167
-5.84276
-37.4851
-44.25
-36.0935
-41.0371
102.812
169.846
-44.3052
116.953
126.399
-57.0766
120.017
83.3037
-53.0282
45.2547
-50.1766
-682.527
291.011
-165.103
-323.802
-88.8958
-207.311
505.461
-138.229
-945.09
623.768
-157.402
-263.564
145.816
-204.838
-156.692
165.889
145.496
160.657
85.66
154.921
-76.7801
-17.9852
26.1278
-34.2208
34.4648
-27.2854
0.913667
29.3379
-36.7289
38.0843
-30.1456
-0.547757
22.4858
-43.1409
43.3832
-23.4242
0.696005
15.915
-32.6027
29.5304
-13.4753
0.632629
7.01369
-25.3842
24.8514
-5.69336
-0.787536
-0.142253
-24.9206
25.0653
1.4079
-1.41031
-6.94334
-26.0218
26.4602
8.17642
-1.67154
-14.7642
-27.2003
26.4944
15.7842
-0.314041
-22.9328
-74.3698
82.7714
77.7817
0.171089
-22.8546
-20.359
-20.2079
286.951
244.038
-29.8684
-75.2569
-78.9342
-62.6974
-68.0642
325.339
162.751
-31.2937
376.111
94.7547
-19.1274
388.436
74.9822
-4.00404
66.2685
-12.8505
-541.082
-41.8635
646.285
147.642
-141.537
-636.084
525.643
-216.437
-299.794
715.536
-146.749
-200.545
181.075
-159.481
-85.2687
208.299
176.345
189.727
64.2135
195.228
-61.2394
-17.1267
24.7573
-39.031
35.4392
-24.5783
3.41286
28.6052
-30.6331
30.4854
-27.407
-1.05057
22.2172
-31.3016
30.9329
-21.4433
-0.405319
9.34373
-26.9245
25.146
-8.5872
1.02203
4.03737
-21.5452
21.945
-4.65392
0.216743
-5.35619
-23.7073
24.0143
5.93869
-0.889438
-11.9013
-25.0256
25.3174
13.0917
-1.48211
-18.6037
-25.8107
25.7963
19.3891
-0.770959
-25.3135
-82.3761
97.9107
86.3566
-4.51665
-25.4882
-22.9872
-23.5856
431.352
221.9
-21.1746
-98.504
-105.204
-86.4971
-97.8342
488.246
112.529
-6.67095
540.868
34.474
7.65853
563.008
31.3175
21.5247
39.7814
20.5706
417.698
7.83794
1579.38
437.115
-295.717
134.763
776.274
-341.517
-214.079
1024.93
-175.318
-220.081
277.984
-109.754
-98.4594
261.092
267.182
267.399
39.0947
302.791
-40.3433
-23.5578
17.5316
-68.3969
60.9345
-17.0236
6.95445
27.3576
-36.1092
33.7806
-24.1669
-0.8621
18.0348
-27.6478
25.3337
-16.0912
0.370521
8.41089
-21.1983
20.7243
-8.35814
0.421212
4.83902
-20.8511
20.2226
-4.33187
0.121337
-4.55237
-21.1059
22.2649
3.66742
-0.274012
-15.051
-25.3102
25.9973
14.953
-0.589126
-20.9461
-28.1123
28.6594
21.1681
-0.769122
-30.7187
-88.6699
128.189
82.1821
-1.05274
-30.8263
-29.411
-29.692
501.541
174.97
52.6635
-128.032
-132.864
-120.763
-125.617
484.351
91.7054
38.0132
480.093
31.5382
7.19419
480.875
34.0397
-3.50481
50.2736
-16.0966
334.355
-679.057
1052.4
370.58
-356.754
24.8122
611.883
-298.33
-284.49
584.203
-222.313
74.6747
521.377
-163.561
116.634
93.8512
-276.901
131.292
60.5356
87.0845
58.7604
76.4232
101.099
93.1029
96.1291
11.9539
73.7749
-33.7724
17.6196
3.00507
15.0407
6.22957
4.22416
-34.5014
26.9415
-24.236
16.4598
2.64611
4.89991
3.56594
11.2719
-34.0357
28.4156
-37.5575
5.18262
7.80549
11.3173
7.60026
9.05943
-5.14267
4.55475
-29.9739
0.662058
6.45247
8.55296
5.83492
4.79945
-15.9607
26.3153
-17.6458
-3.46697
1.36604
3.99245
0.600241
-0.994588
-27.7936
45.192
0.447204
-4.35579
-4.51605
-1.92805
-6.05112
-10.4013
-65.3839
85.7757
26.2599
3.49355
-14.6168
-10.5003
-14.6269
-16.3527
-92.3159
104.826
44.1091
13.2802
-19.46
-15.5714
-18.5154
342.685
163.077
65.8266
-63.5634
-69.0512
-53.7712
-60.7939
-103.183
-64.3687
-94.2888
-62.5688
328.967
121.594
67.095
306.262
83.1734
31.2367
305.494
28.7151
3.59127
316.416
25.1441
-2.02663
31.2368
0.723508
-298.828
-461.377
170.108
240.036
-528.013
-367.606
739.932
-305.518
-492.708
711.164
-96.8368
-96.7086
624.802
2.52579
-79.7253
498.098
-135.212
-14.9848
378.64
69.905
79.0557
19.7918
-32.4038
17.3849
-34.2756
261.999
-154.386
49.8137
47.7875
61.5225
51.0441
60.8588
161.688
6.19686
64.8036
26.543
-8.51127
22.8856
-11.6064
94.9208
-93.6785
25.6951
36.5668
34.3675
33.8759
29.9405
66.107
14.5506
23.2519
14.9836
-14.6696
9.2381
-18.5406
63.7536
-17.994
13.028
8.82649
-1.84187
5.4003
-5.06553
95.2894
58.8276
19.7503
-10.4908
-41.7427
-15.2455
-42.6346
142.441
40.9575
23.5659
-19.2761
-36.2692
-19.9423
-36.1877
187.616
89.0223
28.8797
229.375
63.7902
16.044
258.307
37.9239
16.3182
268.487
-8.5589
27.0935
274.013
-24.647
44.2653
-28.3314
46.9218
985.158
-433.065
2208.73
752.041
-110.056
-184.84
483.353
24.5122
-61.3426
347.567
58.2352
-19.2859
243.885
191.678
-85.4697
191.942
-45.8363
-37.4319
168.351
79.4785
14.0171
85.3094
-84.9885
13.6435
61.0903
4.40567
26.0101
34.45
-72.2001
5.1619
46.839
-7.80404
9.96562
56.1995
-32.9883
5.63384
90.6518
9.95682
14.4185
120.559
1.86231
9.18834
164.452
28.5499
16.5792
199.261
12.2964
16.6843
211.25
1.4323
24.5029
198.63
-24.1677
28.2287
174.317
-39.5947
39.2608
-43.9636
18.115
1860.76
-912.717
-1598.52
1066.37
42.8732
641.461
419.454
235.713
435.714
209.817
107.276
160.596
227.255
161.247
12.992
203.381
1.48604
-23.4481
190.28
79.4322
13.1471
157.813
-38.7177
-13.8035
138.453
2.32707
21.439
130.994
-57.3547
-7.38629
131.938
-16.7371
7.98899
138.386
-33.0971
-6.33963
148.491
-1.74833
1.60074
160.409
-3.23758
-6.81856
173.732
16.9355
-1.70831
178.315
15.0998
-7.38604
167.709
23.2438
-11.2061
142.742
18.8994
-18.1002
113.075
14.3838
-24.311
14.1738
-55.7861
1474.39
298.675
-1560.98
341.474
234.81
940.976
109.512
310.459
157.215
-81.9799
218.145
80.6234
-36.1236
186.167
-70.7759
-111.601
97.9952
-21.0314
-26.19
52.6508
-58.6298
-38.2364
-6.21584
-20.4554
35.4931
-29.7674
-41.635
62.1692
-54.4199
-29.6107
102.066
-41.781
-14.8526
119.497
-36.4612
-14.0675
132.527
-13.7737
-1.00472
140.308
-4.7599
-6.25794
145.114
16.8342
-4.70485
144.598
33.8207
-18.2051
142.573
50.1727
-24.9043
137.302
59.6986
-35.5273
126.519
62.0599
-36.8936
65.0338
-53.389
-597.011
1671.58
-1185.46
-392.089
284.651
-254.763
88.2607
-18.3483
-151.543
132.855
99.1409
74.41
176.777
65.9764
76.2685
153.546
150.259
-29.0331
165.685
45.2475
-4.73607
190.667
25.2547
-56.4528
229.695
-30.734
-38.0612
271.097
-37.9309
-57.8903
300.638
-33.4017
-37.9208
329.391
-23.9288
-41.2857
341.845
-7.54399
-18.6835
350.199
2.94696
-16.0604
333.988
28.2833
4.7612
308.19
50.0934
9.52531
282.936
66.2211
9.20566
272.723
72.7973
-2.88531
270.48
67.7261
-3.42352
62.5874
-4.34022
-614.854
264.336
1291.39
-277.719
15.7264
-68.2105
338.079
135.278
-769.423
378.105
288.205
-229.091
275.546
227.515
-58.9801
202.067
269.379
-45.641
121.982
161.548
-36.2153
112.459
138.877
-104.1
161.093
-22.6014
-56.7665
196.934
-7.14477
-66.6269
224.946
-1.09069
-60.3233
242.125
23.8841
-64.9914
255.946
27.8482
-49.2139
270.049
34.563
-45.719
283.439
37.3131
-22.4196
295.728
46.9289
-9.12432
305.98
51.965
4.00415
315.031
54.256
9.49021
320.621
42.3598
19.7763
29.9409
23.8859
-615.036
-1263.86
226.396
-825.705
1063.75
-702.072
1403.41
-51.463
1340.56
290.371
1330.97
278.965
1199.96
292.56
1105.42
233.417
835.35
247.468
653.97
174.235
553.093
99.7866
517.152
59.825
492.4
52.601
479.111
47.8516
463.576
52.8482
458.332
52.1727
457.906
52.3911
467.908
44.2544
469.257
41.0102
30.4263
697.076
297.814
-4226.88
751.828
501.2
-1263.88
762.65
197.711
-784.443
749.844
37.8273
-171.94
787.198
-52.9994
-42.1003
886.987
-92.8285
-28.558
964.775
-94.3771
104.886
1042.63
-62.0134
86.9504
1032.3
-15.1945
190.305
990.5
29.8638
162.716
873.151
54.6725
205.007
778.896
54.8293
131.483
712.429
35.5747
88.5974
675.372
21.9322
28.2588
648.696
19.3846
4.57975
621.019
20.5553
-2.84728
587.443
22.1557
-5.46318
561.104
16.4335
-0.916897
542.442
14.0393
4.32272
9.43281
-2.43512
619.013
-1345.13
2868.23
672.931
136.077
401.369
568.776
162.274
170.517
506.77
125.3
-81.3993
454.739
-5.74328
-3.29721
472.332
-54.8868
-127.056
496.244
-93.6352
-50.9021
542.252
-62.9151
-108.646
558.737
-35.6217
4.79465
556.459
16.7123
24.1364
521.393
60.0239
141.799
481.702
75.4553
120.129
439.69
55.9879
97.1167
410.418
45.3823
57.9707
389.962
37.3076
45.8294
376.675
35.4881
34.7623
364.853
35.8172
21.7305
352.501
32.7443
9.55441
336.555
33.8964
-1.82721
27.4071
-30.4197
698.359
-628.696
-1798.4
435.759
382.657
-67.0772
367.099
261.488
-415.802
344.567
163.53
-98.6509
322.18
3.98275
8.47384
317.564
-37.1179
-39.152
312.016
-84.1411
14.6727
316.198
-49.7118
-66.2253
320.395
-44.1101
-25.7864
317.644
12.0761
-50.7008
313.323
49.788
20.5639
306.308
78.829
22.0717
295.105
64.0189
47.4736
282.433
60.3539
28.3495
272.936
45.6781
26.0457
270.23
39.0104
14.397
270.928
35.4827
7.01729
270.679
35.5693
-0.958735
268.493
36.8049
-3.64657
30.4344
-21.6821
-646.491
-13.516
22.2509
-363.737
251.691
-205.706
-323.88
221.827
-96.1261
-195.23
22.1124
24.2992
-59.5547
-127.153
22.4449
4.18232
-104.446
74.8556
142.971
-203.01
85.9369
183.888
-79.3292
53.0814
231.225
-95.2418
90.6401
246.352
1.99242
57.8149
253.235
25.5764
66.7462
240.386
88.9582
43.1148
222.592
75.676
52.5646
204.676
78.9168
30.203
198.531
49.7691
21.6304
202.569
32.9146
16.263
217.038
20.7114
11.0841
230.3
24.3419
-0.917014
238.517
27.9215
-8.93344
25.618
-23.3117
-536.381
714.319
163.435
-245.548
264.083
-341.687
-214.426
240.526
-15.5513
-91.0225
-106.37
183.93
88.4474
-245.071
-10.4654
117.524
-145.933
52.8393
207.882
-294.912
58.108
251.106
-116.343
19.6443
294.213
-140.573
62.9677
307.237
-5.43727
36.2844
295.617
32.219
54.6677
263.532
121.77
34.3122
227.104
110.161
56.9311
202.027
104.142
28.026
199.146
42.5075
25.6924
206.02
19.2928
28.8411
210.225
13.2846
18.2316
207.19
27.6978
5.59796
196.952
32.7277
13.5804
23.2126
9.34832
-2249.71
24.1686
429.795
-1023.7
-275.849
-1161.06
-629.586
-136.492
-292.433
-315.258
-423.11
101.156
-118.025
-439.158
-95.559
-81.993
-221.467
28.4595
103.842
-454.064
-20.4831
141.997
-145.404
-28.4082
209.759
-213.013
9.89371
239.841
-22.7016
-36.0005
261.127
16.0135
14.6408
242.452
147.431
21.3644
217.658
133.302
19.9613
194.229
123.097
17.8148
181.982
39.447
64.7013
153.705
39.5014
74.1128
115.219
43.1108
57.5902
80.2061
53.2312
32.2448
53.2565
42.5173
41.0737
11.7954
31.8997
-418.498
1476.61
-82.8138
-193.219
-33.6479
-518.836
-3.94904
-215.75
-614.361
3.00582
-452.357
-77.3197
91.0725
-478.638
-195.553
42.2571
-189.34
-67.0245
81.8243
-101.625
-58.3595
-142.604
-98.5118
-135.172
120.757
-55.4547
-39.5543
-47.9318
-42.1714
-36.8994
177.59
-63.7708
-31.8468
-78.6601
-54.4496
-69.301
216.128
-22.4279
-84.5055
-14.5037
-11.3015
-9.29636
242.565
1.03684
-54.9189
-9.2003
5.31187
-6.0691
244.645
36.6928
9.63594
36.6817
41.1062
38.4501
233.627
42.86
32.6586
28.8617
42.7944
27.3302
186.692
44.5679
84.5571
32.6815
43.6477
31.7238
101.344
105.283
119.61
24.5192
106.876
77.4131
-15.4353
83.4307
24.6235
-32.8841
72.5517
9.99274
-28.1191
35.2137
20.9586
-7.62294
22.2585
1409.03
2343.13
-1321.21
219.328
380.668
-368.976
208.281
-301.32
-397.308
98.248
-399.076
-56.6894
127.565
-491.157
-187.073
29.4994
-53.9299
-67.5764
39.979
13.617
22.312
-43.6447
-46.2435
-36.402
4.80703
28.5876
-97.4552
-8.06451
8.60006
-8.16649
26.4994
-78.5912
-3.79643
0.796949
-43.2399
44.7084
-67.2218
1.18555
16.3219
-39.8395
51.5768
-36.8569
-13.6303
22.0871
-59.1362
61.8719
-2.39384
-21.3921
8.0069
-58.5528
65.2223
29.888
-7.87153
-1.87788
-66.5975
65.7403
44.9416
0.653479
-14.9469
-57.8511
55.4346
47.081
14.8503
43.0263
54.761
75.5987
-42.8955
-35.3186
-25.5217
-18.4403
36.8281
52.2942
35.3205
4.27492
152.313
13.6624
-15.5386
114.879
-36.4954
-12.5431
83.4522
-53.9171
1.64082
33.1723
-37.2755
-10.5254
-20.1164
1136.97
288.848
-92.4064
348.991
-59.0679
235.638
311.395
-278.503
-346.882
234.625
-299.337
-241.927
39.0809
-358.023
-133.152
46.0415
22.5854
27.9609
22.4411
74.0674
-80.533
-30.8245
2.24375
22.1709
-24.083
24.0475
-21.8106
-2.56856
2.63223
-20.1487
22.3766
20.395
-23.0314
-2.22369
-1.09976
-18.5679
17.2057
18.0994
-17.409
1.7716
-0.127466
-15.1123
11.1635
15.9907
-12.2641
0.349791
3.93908
-15.6941
1.42223
16.5812
-2.30226
-3.94616
4.70047
-15.6386
-6.33953
16.6445
5.28455
-4.65144
1.58769
-16.2981
-11.8877
16.8302
11.4537
-1.68583
-1.90734
-14.3592
-13.6131
13.957
13.9043
2.01837
-10.1592
-15.8255
28.2478
61.1623
16.876
-9.52972
-8.35722
-7.65342
63.9765
181.639
-21.5194
-20.7331
-26.0211
-14.1177
-16.754
61.2383
133.853
-60.5417
62.8299
98.0339
-73.2499
53.7233
56.062
-66.8114
23.6208
-73.3103
233.465
-1463.5
3067.53
491.741
-213.86
-310.795
406.837
-176.121
-962.569
402.934
-202.28
-356.718
83.9257
-222.994
-197.238
93.109
63.1272
68.2887
31.2809
79.9716
94.2784
-75.195
-46.4102
-0.856315
23.2863
-22.8573
24.4594
-23.9414
-0.090632
-0.260273
25.2675
-25.0548
25.7282
-26.0622
0.381515
-1.89431
17.1823
-26.4584
25.9175
-17.0567
2.30951
-3.72104
10.6173
-21.4619
19.8736
-9.24014
3.93217
1.97102
1.67131
-16.9946
16.6159
-1.03061
-2.23307
4.11473
-5.56744
-15.8113
15.5225
6.23129
-4.48977
3.68658
-11.6659
-14.7209
14.3819
12.1458
-3.82754
0.952641
-15.2972
-12.9988
12.5001
15.8837
-1.04047
-11.7988
0.642748
-62.9899
45.8893
63.3722
-2.02865
-12.123
-10.2699
-10.694
209.753
166.338
-46.8227
-45.4893
-52.2608
-36.2661
-43.4816
249.481
105.408
-42.5769
279.678
73.1322
-24.4226
276.153
65.9346
-10.3509
56.7802
-32.2072
247.826
-804.331
1619.54
151.392
-177.87
-575.64
228.017
-239.498
-313.041
251.154
-202.668
-223.295
76.5197
-213.616
-100.703
85.0048
44.6365
51.0493
22.6113
66.8434
96.1532
-69.1981
-39.89
-6.24444
22.5885
-26.6134
28.7755
-23.0745
4.56842
-2.31801
26.2264
-25.4651
24.3514
-25.6702
2.87546
0.370223
15.7906
-22.1499
21.4308
-15.3036
-0.138077
-2.9803
5.98285
-19.319
18.6713
-5.46062
3.10578
-0.657985
-0.106565
-17.6102
17.7563
0.019591
0.598844
2.86008
-8.10934
-18.0959
18.0385
8.64206
-3.33542
3.42156
-13.6421
-17.1685
16.8374
14.1854
-3.6337
1.84931
-17.1164
-16.1954
16.1734
17.4009
-2.11173
-16.6448
7.17501
-63.416
67.7383
63.7876
-9.10669
-17.6276
-15.4321
-16.4736
351.279
124.17
-31.7876
-72.6755
-84.9877
-64.3032
-76.532
394.297
68.0011
-12.2816
425.939
42.4765
6.67158
435.111
56.9856
21.3016
63.8961
11.4956
782.682
169.369
-1447.25
548.779
-91.5777
282.374
501.075
-357.363
-48.5114
492.78
-221.641
-192.813
130.072
-194.514
-68.7841
133.852
88.6546
91.4235
42.7523
64.1533
158.482
-77.4501
-57.8657
-10.1658
18.1382
-44.8465
47.0427
-16.7831
6.61452
-10.1013
24.7809
-30.5028
24.9604
-21.8507
12.7134
-1.49154
12.7045
-16.3759
14.9735
-11.3956
1.58515
-0.359242
4.58336
-13.45
13.4949
-4.42036
0.151339
0.879749
-0.0910951
-14.287
14.6209
0.149895
-1.27239
1.65445
-8.6943
-16.3596
17.1891
8.2556
-2.04522
1.95028
-14.927
-19.9016
20.6047
14.4325
-2.15885
1.84754
-17.7781
-22.2607
22.7478
17.3333
-1.88995
-24.3269
1.03782
-61.814
103.622
53.1145
-0.0404122
-24.8503
-23.1294
-23.6132
394.297
112.864
61.0615
-103.726
-105.546
-91.6161
-90.5002
389.764
72.2139
38.3337
387.141
46.5646
5.72861
384.066
60.5531
-3.99639
69.961
-23.7665
128.746
472.681
1433.41
209.513
49.9816
-197.514
304.946
-224.539
-512.747
289.755
-205.813
74.0388
297.943
-180.91
94.8408
46.5779
-306.058
147.166
92.4572
110.056
104.212
123.354
47.3849
31.1666
32.9189
15.6757
-38.9038
31.6275
-30.8485
43.2085
5.11056
15.73
4.97786
7.25206
-32.2975
6.95204
-1.62303
-37.0198
36.7832
5.79094
8.01699
6.14518
9.54273
-10.7715
-9.17
4.97684
-26.595
11.8594
5.69546
9.16866
5.29341
5.97137
0.922042
9.87432
-2.85208
-22.6167
-2.72126
3.14061
5.55404
2.7277
1.51147
6.86437
-9.51847
18.1788
-5.19012
-9.21804
-1.74047
1.22232
-2.10988
-3.49074
5.20949
-16.064
29.9303
7.66336
-4.53023
-7.58778
-3.59861
-7.53177
-9.14362
-5.59029
-43.8103
58.6232
26.6131
6.90729
-12.7924
-8.65354
-12.1533
-11.4492
-19.7241
-61.3254
74.4072
33.7392
22.0433
-14.122
-10.4829
-13.0862
238.592
132.779
79.614
-40.2433
-49.267
-31.9114
-41.5024
-74.2077
-48.2041
-60.1691
-39.6534
247.269
96.6411
74.6406
242.173
77.8801
30.6667
247.516
40.8422
3.97102
258.937
46.8686
0.237069
53.364
-0.0449875
223.025
287.531
-652.23
637.62
-115.218
-617.002
632.137
-219.491
-492.272
556.465
-93.5679
-133.283
383.346
8.28532
-95.8003
216.023
-128.715
-25.0057
123.816
157.628
92.3041
8.4534
-45.7694
4.05891
-45.4121
29.9584
-150.024
49.8819
58.0355
62.8447
61.5517
61.3807
-4.72041
45.1468
65.0831
14.3752
-16.8996
9.86332
-18.0868
-34.2369
-88.595
25.3035
32.5026
27.7154
31.9866
26.2982
-25.0747
32.3392
21.6211
4.55404
-23.1448
2.88905
-24.169
-13.1002
-12.8938
17.3418
3.89352
-6.02619
3.99847
-5.26022
26.5798
68.6432
23.0168
-16.0736
-41.3061
-15.1814
-39.0287
72.5748
38.6212
34.0684
-17.401
-33.5974
-14.4837
-29.6364
114.044
85.6132
34.5765
147.186
57.8346
21.7082
177.75
45.6739
17.961
202.1
15.0166
28.5692
227.298
15.6742
50.262
23.7536
51.2011
322.142
-252.952
1204.6
498.056
-26.335
-449.637
329.575
17.9851
-130.337
220.081
40.4061
-43.7653
39.5778
186.492
-83.1737
-29.4663
-58.9975
-38.1047
12.7577
122.889
6.53242
-56.1592
-83.2353
15.7722
-36.8007
27.3537
24.4446
-57.3945
-65.2639
2.42468
-35.308
4.44356
15.7748
-28.0498
-21.9342
7.41608
8.09663
27.0481
19.8672
33.2179
11.8637
10.8249
71.2713
42.9657
21.1732
104.704
20.3943
20.6922
129.57
17.5998
27.7102
144.374
2.58087
25.861
154.882
3.42295
41.0044
8.63606
17.864
-617.528
-181.624
-1005.22
-174.906
36.5245
135.98
-53.1256
158.936
172.983
-47.1307
82.3042
112.703
23.4163
146.421
-17.4835
-28.757
-17.252
-13.0204
21.6984
71.9649
13.616
-8.24318
-55.3869
-11.7105
17.8279
0.539032
22.1826
11.1664
-57.741
-8.24752
22.2102
-7.65925
9.04811
24.0055
-22.8845
-7.18473
36.0381
11.272
5.34423
44.9572
4.15689
-8.03092
58.7479
24.8663
2.60027
63.9067
18.042
-10.1923
64.0457
23.438
-17.1832
61.9634
17.7799
-31.2167
61.6433
13.0053
-33.5733
7.28925
-62.3172
-805.258
1386.31
-963.129
-380.074
183.646
368.67
-193.227
231.922
-102.619
-217.549
158.223
29.0262
-123.595
105.434
-123.742
-171.206
23.2358
-13.9084
-70.281
-5.89493
-81.6957
-84.2103
-42.3985
-19.5143
-29.0488
-55.1126
-41.1447
-19.458
-68.5846
-28.3579
12.0176
-41.1548
-12.8325
18.9461
-29.0378
-14.8427
32.1848
-3.42103
0.449453
35.8457
6.10934
-11.8716
40.6275
23.9156
-8.53611
38.6284
27.5029
-25.6666
38.0068
31.1725
-32.017
36.7915
30.2722
-46.8041
40.043
21.1
-48.2397
15.305
-70.831
-1285.3
1422.71
-1311.53
-632.611
98.4259
-822.228
-112.535
18.7201
-458.417
-66.2225
153.766
32.5544
45.9932
42.6573
26.8291
24.091
57.807
-41.7023
64.1541
-25.693
-25.0016
74.8056
-35.7625
-73.7401
108.712
-82.7127
-44.368
125.993
-75.781
-67.9744
141.818
-56.129
-38.7719
151.377
-34.8969
-44.9853
155.692
-10.1222
-16.2973
158.552
5.11696
-17.9283
157.663
25.0202
4.54544
155.797
36.3986
2.49603
153.811
40.2426
2.12154
155.688
40.0004
-14.4901
159.682
28.1241
-14.4415
24.0493
-22.8415
-183.562
786.353
710.707
-106.817
227.995
-274.524
107.57
123.769
-1088.86
128.533
274.98
-371.268
105.477
189.798
-183.065
78.5626
200.057
-160.977
84.2823
76.3817
-144.009
93.0587
41.0438
-189.683
134.576
-83.2419
-97.7545
147.872
-55.3761
-100.328
155.413
-41.8206
-82.1729
156.408
-15.9514
-84.9311
162.156
-7.83778
-57.2469
170.088
1.95557
-50.4897
183.68
10.7157
-21.7064
198.997
22.2335
-10.2768
215.713
24.96
2.5707
232.044
26.4714
6.68801
245.574
13.8814
20.4898
10.0016
25.4858
556.572
-602.483
704.769
-745.908
635.154
-508.688
833.349
25.3228
888.503
425.014
998.675
368.85
969.454
398.162
922.389
321.526
731.701
354.915
614.561
235.999
529.207
143.32
492.969
80.1111
461.718
76.0146
443.697
67.829
427.361
79.8996
424.119
77.6479
425.902
75.5679
434.406
62.2215
430.85
58.4477
44.4388
1196.63
-330.459
-2765
912.353
76.3845
-1055.99
660.975
141.612
-674.678
588.964
58.5421
-158.471
564.444
-6.0922
-11.4883
591.343
-20.022
-35.4351
602.967
-6.02929
99.2921
609.912
33.345
46.66
578.576
57.1227
164.519
557.941
65.6899
117.661
542.243
52.5377
168.167
547.869
32.6635
93.1938
556.026
15.8913
64.5487
561.095
4.27832
18.9115
555.418
4.26281
5.99393
544.056
7.80677
0.708033
519.485
15.1787
3.92916
496.668
16.9884
4.9118
476.191
20.6065
4.19255
15.3164
-9.24111
197.533
-1557.03
5083.5
154.144
105.085
416.057
363.543
139.003
-36.2719
273.489
154.163
-86.9671
249.379
9.91744
4.80325
229.935
-4.6248
-123.01
242.095
-24.4185
-44.673
251.33
7.67623
-92.2117
263.06
24.9087
25.2788
262.455
68.7332
21.6987
271.865
73.8655
111.061
273.368
71.5973
79.6923
268.761
49.7395
67.8761
260.114
39.1357
31.7595
252.699
30.5719
26.9352
249.436
29.93
15.9026
246.87
31.2379
8.23723
241.756
31.7942
-0.138038
230.892
33.9331
-4.2896
22.6915
-32.0557
1401.96
-383.389
-155.079
753.917
401.303
284.743
311.772
302.178
-136.833
209.023
210.776
-52.514
161.919
45.934
19.5622
133.306
6.80076
-21.9646
137.792
-22.2272
7.9953
124.012
5.82984
-50.5987
133.45
1.67351
-11.9893
123.471
62.8761
-34.8646
132.746
63.1704
21.9832
135.404
79.7009
11.3095
143.007
58.0201
31.5906
143.931
52.8563
13.7044
146.806
37.973
15.7695
150.55
34.4161
6.16672
155.117
32.2131
1.47561
157.142
34.1193
-5.30935
157.561
33.6856
-3.81795
20.3838
-20.9837
-95.3307
285.414
828.964
-149.707
262.926
-12.953
-317.65
291.784
82.2114
-243.049
74.6553
85.8181
-156.139
-25.825
7.29423
-129.538
-7.93414
62.9896
-15.4178
-97.3073
46.897
-0.373525
7.95758
35.9095
61.6164
-15.2151
45.5387
67.8613
80.3043
34.1417
87.2078
62.5954
47.9748
84.0089
99.754
26.2608
87.5312
70.0365
37.0261
85.8515
68.9212
15.8177
93.4526
39.3652
12.6372
104.042
31.9613
8.12838
119.731
24.3359
3.27185
131.182
27.4776
-5.72626
138.449
24.3746
-6.88937
11.6495
-21.6284
-475.391
1195.69
-2840.27
-270.491
390.778
-674.438
-290.416
352.45
-56.2931
-172.016
-31.4063
171.591
-86.567
-108.249
-13.4902
-67.6943
-25.9094
51.9417
50.0032
-176.288
19.3913
65.149
-2.14365
14.5997
103.417
-30.1756
39.6599
99.4041
102.803
17.7984
97.0467
81.8765
37.7442
81.69
131.693
17.73
77.8453
92.5838
38.2283
77.79
82.7482
14.254
92.1342
31.8654
18.8479
106.969
28.5514
17.4161
116.276
24.2841
8.97679
117.356
31.8513
0.143877
113.709
27.995
13.6073
12.4244
6.46203
-1463.57
-451.774
-1372.97
-1223.13
-123.92
-886.805
-747.744
-67.0566
-348.309
-447.797
-296.443
66.2461
-266.634
-309.219
-75.7532
-209.794
-97.8049
43.5159
-54.8316
-338.293
-13.4415
-43.5314
-12.1383
-29.7138
42.2962
-102.081
-4.02858
52.6123
83.6277
-27.1411
71.4602
70.2775
7.3919
64.5324
153.16
6.82539
60.5211
104.324
12.2323
54.4101
94.1275
12.5466
65.3425
37.3954
48.2388
67.2332
50.2147
50.559
55.415
53.1105
40.5821
33.7124
58.8936
26.9051
18.6501
42.7479
41.3829
12.8909
29.1588
-275.597
-623.443
-600.596
-172.342
-156.48
-589.531
-106.837
-125.967
-620.955
-103.172
-363.041
-14.3865
-88.9818
-368.702
-150.26
-144.262
-81.4559
-28.0926
-84.9592
-85.8659
-58.6308
-118.678
-82.4264
-110.354
-59.2414
-18.002
-23.5207
-16.2313
-8.07907
-11.577
18.7124
-38.4946
-39.6601
-53.463
-32.7581
-47.5061
39.322
4.52186
-54.1868
6.33055
10.7631
11.0839
55.4886
14.0458
-33.9371
1.23147
16.386
1.46599
54.7433
43.8781
-0.647004
38.8292
44.1084
37.3724
50.6495
38.8135
24.8784
22.0336
36.471
18.88
32.2188
40.0641
64.4275
27.365
38.8567
26.4019
11.5668
96.474
81.1829
-16.5364
104.916
50.8148
-42.0671
88.5541
14.7105
-57.2047
79.112
4.91176
-49.25
42.5103
13.2412
4.69661
17.9933
46.2243
-414.925
-2162.46
-262.339
-89.1849
-127.707
23.1273
-275.701
-533.04
-71.5411
-352.293
27.2308
-38.1156
-417.359
-171.842
-24.0178
-27.8803
0.673885
-16.9038
-36.5656
-29.4392
-20.1635
-19.7027
-13.1484
6.18826
-19.8292
-85.0551
-11.1876
5.51448
39.9168
-18.9488
-46.9001
2.41551
1.4825
-2.94001
6.39821
-42.9297
-0.505625
14.6754
-2.92068
13.6658
-9.32436
-11.5743
21.7997
-19.5082
20.0519
10.601
-18.8986
8.60244
-14.4256
18.9167
38.9362
-8.15168
0.392138
-19.0601
17.2981
42.4299
-2.24652
-15.6151
-9.45638
7.8993
43.6412
13.5951
-40.9462
47.761
40.4327
-1.90726
2.13712
9.23206
12.6168
30.156
44.8721
27.7184
-52.4485
131.455
-1.37415
-67.3994
101.94
-34.9306
-72.5425
74.6542
-44.3164
-63.0731
26.5811
-30.8159
-4.02431
-21.2635
10.5205
-750.655
273.43
317.052
-219.07
58.9919
184.418
-253.628
-236.321
41.9906
-285.44
-166.353
-6.22152
-332.252
-119.472
-8.02337
-19.2201
-23.3314
29.0786
17.9049
-59.4097
-21.6757
1.73296
19.3603
-9.64526
9.39624
-18.8201
-2.0241
1.70523
-5.01254
16.7196
5.54015
-17.8531
-1.09936
-1.76173
-6.09446
11.6978
6.75077
-12.4745
1.8821
0.51696
-5.70957
4.78464
6.87889
-6.00401
-0.466911
4.3445
-6.98226
-1.95151
7.68
0.967298
-4.05802
4.57493
-5.47804
-8.87353
6.07847
7.99967
-4.30149
1.68267
-5.01959
-11.8574
5.23945
11.6416
-1.68675
-2.37009
-2.58485
-12.6649
2.54052
12.8016
2.27779
-1.29007
-13.8176
2.35634
51.7037
9.55711
-0.946147
-0.0986241
0.296371
-12.7757
135.632
-26.6138
1.3173
-2.48732
8.65359
6.21013
-18.0601
97.9447
-51.2618
-27.0727
71.1927
-60.7759
-40.732
32.5717
-59.1428
5.2962
-67.6528
-172.836
-1601.06
1209.98
472.946
-129.752
-1045.9
348.567
-96.9119
-994.906
246.596
-212.042
-328.144
28.2807
-225.396
-138.256
29.4128
12.2412
10.8236
46.182
71.6515
31.9619
-75.4621
-46.0524
-0.0767748
20.5748
-8.55382
10.3746
-21.8703
-0.448526
-0.417146
19.5315
-11.5493
11.9671
-19.9363
0.404046
-3.15993
12.4159
-11.5815
11.0989
-11.9637
3.1903
-2.97519
5.93662
-9.93769
9.71881
-5.18188
2.43933
-8.79875
2.49389