/*--------------------------------*- C++ -*----------------------------------*\
  =========                 |
  \\      /  F ield         | OpenFOAM: The Open Source CFD Toolbox
   \\    /   O peration     | Website:  https://openfoam.org
    \\  /    A nd           | Version:  10
     \\/     M anipulation  |
\*---------------------------------------------------------------------------*/
FoamFile
{
    format      ascii;
    class       volVectorField;
    location    "2.2";
    object      U;
}
// * * * * * * * * * * * * * * * * * * * * * * * * * * * * * * * * * * * * * //

dimensions      [0 1 -1 0 0 0 0];

internalField   nonuniform List<vector> 
12920
(
(179.211 176.629 -189.801)
(-60.8967 99.7231 -10.6044)
(92.1108 36.5299 -14.9804)
(51.563 9.30606 -5.37297)
(93.7327 2.75382 -2.70241)
(87.1148 -4.98693 -1.19724)
(109.554 -7.17385 2.31748)
(107.221 -8.1566 3.45927)
(115.332 -5.82107 5.26764)
(107.619 -4.57014 5.268)
(105.904 0.284028 3.74531)
(88.131 3.70404 2.36904)
(79.617 7.6894 1.35197)
(65.8105 8.94725 0.137635)
(62.7495 8.91985 -0.279482)
(54.2263 8.80006 -0.594983)
(51.3569 6.40937 -1.00602)
(47.0025 3.71632 -0.735222)
(45.8412 0.318892 -0.247559)
(43.4978 -1.5045 -0.00636169)
(34.8897 -4.53697 123.531)
(-36.5471 38.8919 -17.2778)
(76.8271 6.2558 -8.1949)
(20.6082 -0.716533 -2.57253)
(70.5807 -11.7203 -0.391835)
(46.3198 -17.1697 -1.82594)
(72.8393 -22.4381 -0.685218)
(66.0029 -24.4593 -1.81679)
(81.3346 -22.6856 -0.260897)
(74.4285 -19.9875 -0.467337)
(74.3919 -6.04681 3.22402)
(52.2224 2.02331 3.0163)
(48.8186 4.60096 2.09878)
(41.022 4.21039 1.61418)
(40.7791 4.32167 1.43508)
(36.906 4.26777 1.23766)
(36.4285 4.02718 0.801089)
(33.2359 2.73968 0.510797)
(31.5379 2.34118 0.104035)
(28.4424 1.91434 -0.408434)
(72.259 -44.8055 -41.456)
(-91.9592 33.9834 -8.00814)
(79.9282 11.7519 -10.0482)
(17.984 6.16683 -2.27177)
(61.7983 0.660919 -0.103914)
(29.9018 -6.84932 -0.579772)
(52.5116 -9.07819 0.644088)
(33.3647 -9.12461 -1.35726)
(48.4421 -8.15126 -1.2459)
(39.0127 -2.08775 -2.18098)
(45.7524 3.68817 -0.337234)
(38.3558 7.1975 0.413278)
(38.5961 5.3773 1.43837)
(30.5932 5.5495 1.12389)
(29.6833 5.44098 0.808652)
(26.4804 5.56986 0.50502)
(27.6221 5.10407 0.244185)
(26.1959 4.30001 0.0628064)
(25.6369 3.66683 -0.156853)
(24.4145 3.13654 -0.415469)
(-4.69895 -218.789 0.553606)
(-160.391 4.5197 -0.0885046)
(19.354 -2.36284 -1.74377)
(-67.0878 0.883119 1.68587)
(24.1912 -11.6067 1.46462)
(-24.4075 -16.5762 2.29922)
(27.9714 -24.1351 3.34122)
(8.02661 -19.2775 2.47605)
(32.1922 -18.7945 3.02123)
(24.0799 -9.7371 2.3242)
(35.1335 -2.52289 1.62826)
(28.9527 3.91326 1.25126)
(29.6197 5.36766 1.47105)
(20.428 6.13626 1.07579)
(18.8142 4.56949 0.575158)
(16.2141 3.17543 0.398199)
(18.0738 2.84909 0.319161)
(18.9066 2.67573 0.016699)
(19.9044 3.63393 -0.419952)
(20.9654 4.27984 -0.599358)
(64.7332 -76.3542 -125.469)
(-80.5621 9.39505 -5.37185)
(64.3372 14.4093 3.62379)
(-35.4884 -17.1515 6.15708)
(40.9636 -36.0955 2.60117)
(-4.50975 -33.7804 1.18818)
(37.246 -45.4907 1.55413)
(19.7081 -32.6203 0.813324)
(40.3999 -34.5075 1.89614)
(33.2952 -20.5334 1.4719)
(46.439 -9.20434 1.66654)
(38.8629 3.60671 1.21112)
(35.2744 6.37079 1.88769)
(21.2313 9.49169 0.884755)
(20.6829 6.63003 0.231527)
(17.7809 3.76468 0.537481)
(18.6634 0.304227 0.44805)
(16.5758 0.400812 0.185507)
(14.8658 2.2579 0.138237)
(12.4552 3.5276 0.208137)
(-95.2473 -130.248 -308.36)
(-290.114 -9.03973 -9.47396)
(18.4591 -8.13771 -12.1773)
(-91.2327 -46.9797 1.97558)
(30.1359 -53.5371 -2.17608)
(-23.182 -38.1512 -1.20084)
(31.9198 -53.8128 -0.0185905)
(12.3491 -38.053 -0.565516)
(32.2295 -40.5158 0.0765079)
(26.7534 -28.2266 -0.830493)
(41.3029 -15.3829 0.722857)
(34.5388 6.51619 1.18335)
(32.2672 13.7896 0.549822)
(25.7124 14.277 0.221434)
(23.4181 5.7886 1.26404)
(15.7072 1.19877 2.03189)
(7.35881 1.43766 1.52057)
(0.767009 3.29241 0.727492)
(-4.69525 4.93273 0.650609)
(-7.64552 3.42054 0.540313)
(81.9544 55.1348 -13.1227)
(-180.319 -82.9091 9.77197)
(66.1553 -58.231 -13.4213)
(-41.7746 -76.6607 -2.9206)
(49.9048 -69.7469 -4.32196)
(3.91681 -44.4079 -2.99426)
(32.7505 -68.4557 -1.48728)
(14.7864 -35.2362 -1.11888)
(29.6224 -45.2231 -0.775233)
(24.0885 -26.1071 -2.727)
(37.4772 -19.6154 -1.96484)
(33.6516 6.50938 0.574173)
(34.7797 12.3567 0.93037)
(29.4999 15.6264 1.8984)
(18.1208 7.16589 2.83221)
(-1.05966 6.67904 2.06906)
(-9.02659 5.51094 0.857811)
(-13.1739 5.87731 0.476765)
(-16.0166 3.83735 0.52876)
(-15.5195 0.720682 0.417482)
(-42.6824 125.993 2.52982)
(-170.082 1.45829 -77.5163)
(89.4029 -25.3619 -19.0622)
(-50.7104 -45.7293 -4.77515)
(62.1147 -56.5701 -5.3349)
(2.24392 -24.7423 -2.98139)
(35.7369 -36.1732 -1.47771)
(17.6232 -38.4992 0.0671164)
(26.7782 -36.4529 1.33929)
(20.5359 -29.473 0.750524)
(30.4606 -13.9922 0.101179)
(30.8856 1.12107 0.675017)
(35.4639 17.8179 0.824319)
(29.4313 22.3442 1.39116)
(5.87999 16.9196 2.1174)
(-4.97739 14.3133 0.669722)
(-9.17649 8.72854 -0.676056)
(-8.79111 6.09844 -1.07996)
(-7.52527 1.19509 -0.615051)
(-7.4203 -2.20501 -0.105551)
(-57.0677 137.139 -36.4974)
(-71.352 32.6795 -56.2954)
(101.17 -56.2335 -11.3261)
(-5.88254 -50.7535 -6.42505)
(62.9329 -59.6295 -2.44441)
(13.9407 -29.6878 -2.1205)
(47.2889 -31.4082 -1.01208)
(45.4253 -39.6544 -0.5554)
(41.6855 -31.2949 0.328654)
(27.906 -31.1246 0.478762)
(27.0991 -13.6072 0.0651428)
(30.6184 0.109761 -0.176003)
(36.1464 13.4907 0.447114)
(33.0805 24.3364 0.634996)
(13.68 29.0641 1.38567)
(0.354467 18.0393 0.210143)
(0.398138 14.3258 -1.10465)
(-1.20012 10.5603 -1.65313)
(1.44386 5.30292 -1.62102)
(-2.52293 -0.106733 -1.29424)
(63.5344 131.749 -133.173)
(-179.665 1.84634 -27.8002)
(108.827 2.14042 -37.1514)
(8.06178 -8.42062 -9.13756)
(83.741 -12.8927 -4.43727)
(42.8286 -30.6539 -2.41039)
(43.2444 -43.3991 0.647172)
(48.9739 -48.0084 -0.36805)
(58.7404 -36.9794 0.235109)
(38.3028 -23.2713 0.0402199)
(29.1533 -9.84577 -0.279681)
(28.7489 3.45597 -0.626562)
(30.9533 12.1885 -0.727288)
(32.3321 24.2161 -0.156097)
(23.5897 29.9002 0.0612249)
(16.1111 24.8932 -0.486974)
(19.8363 19.4282 -0.740867)
(23.3646 14.6205 -0.528096)
(28.4261 11.0414 -0.0773315)
(24.1178 8.91315 -0.0454406)
(-11.505 -17.5297 -35.2566)
(-99.4792 15.468 -30.9579)
(91.9915 -6.53623 -11.6748)
(18.5766 -9.20774 -7.60885)
(93.9106 -22.7616 -3.86006)
(57.0418 -23.3215 -3.09007)
(45.9271 -38.3965 2.25802)
(37.9461 -43.7564 -0.751909)
(39.0289 -34.413 -0.221259)
(30.866 -13.5785 0.328094)
(23.6026 -6.09821 0.074403)
(27.1453 10.7634 -0.311004)
(29.2171 20.1804 -0.637308)
(30.3919 30.4519 -0.383291)
(28.6694 33.624 -0.40295)
(29.3961 23.7648 -0.311324)
(35.2607 13.0617 -0.026214)
(40.2808 4.34123 0.329107)
(44.4875 3.87227 0.80011)
(42.8565 4.32452 0.945659)
(96.3727 74.5702 177.035)
(-60.6655 -11.6681 0.446262)
(114.774 -26.9608 -15.9338)
(51.8989 -5.18222 -11.1106)
(114.871 0.34763 -6.78427)
(100.363 -8.47359 -1.54247)
(94.2389 -26.6853 4.28072)
(44.5898 -41.9995 -0.998941)
(31.356 -26.714 0.075876)
(22.2178 -12.3432 0.193156)
(21.7548 -6.30299 0.165863)
(23.3788 9.42345 -0.075654)
(29.8596 24.311 -0.217847)
(34.3396 33.8425 -0.342785)
(39.3172 36.0617 -0.213681)
(39.9119 20.634 1.6984)
(38.5614 9.50449 1.35166)
(36.3311 2.73356 0.308143)
(36.3699 2.43482 -0.169174)
(34.491 3.70862 -0.381133)
(128.875 -67.989 1.72176)
(-71.0631 -23.2405 18.3313)
(110.46 -16.4344 -4.56981)
(12.3442 -11.9322 3.03315)
(74.7195 -10.1071 4.62863)
(14.729 -34.0082 4.09862)
(30.9609 -3.9343 0.711225)
(-1.64923 -0.0564009 0.90374)
(4.84274 -11.3753 0.155067)
(-12.9924 -8.83528 0.169535)
(-1.61377 -3.25856 -0.400622)
(1.67169 6.59738 -0.571684)
(19.7105 16.9605 0.294197)
(27.4427 24.3711 1.38957)
(22.6723 20.7469 2.11922)
(23.8406 14.6137 2.18218)
(20.3893 9.02143 1.06593)
(19.2747 3.77504 0.0606568)
(18.6187 4.45611 -0.216512)
(19.1578 6.34494 -0.0105266)
(46.3047 -64.4071 -20.1212)
(-106.411 -45.8274 -0.34975)
(99.8706 -39.2357 -15.1482)
(32.9102 -19.2567 -2.0532)
(77.4036 -10.021 -1.61868)
(28.0107 -15.2415 -0.0562168)
(44.2728 20.1076 2.2791)
(11.7856 -17.432 1.59669)
(15.1597 8.64191 1.95994)
(-4.49955 -11.1824 0.905863)
(-1.0908 6.93082 0.757877)
(-8.72216 -0.693908 0.51294)
(-2.2166 10.426 0.681237)
(-0.910465 6.59875 0.681119)
(6.57514 12.2104 0.877001)
(9.27715 9.9125 0.342047)
(14.777 7.74686 0.464813)
(15.3574 2.14985 0.91478)
(15.1112 0.722411 1.39435)
(14.242 0.126075 1.55609)
(216.723 -0.948442 108.203)
(8.43991 -26.8408 -0.918215)
(83.7771 -3.02409 -0.295267)
(-9.00412 20.1241 0.235993)
(47.5416 29.6578 -2.96616)
(-18.6837 -4.08194 -1.56559)
(26.9976 8.94461 0.35928)
(-14.453 -11.0389 0.350345)
(4.32286 1.97309 0.80361)
(-15.0672 -6.14836 0.262893)
(-3.99438 2.14827 0.3596)
(-10.1338 0.0281577 0.262743)
(-2.69768 5.24367 0.577113)
(-2.12739 4.77546 0.325396)
(3.48885 6.57324 0.437017)
(7.25081 3.63373 0.477327)
(10.6116 0.553836 0.782567)
(10.1169 -3.7017 0.956529)
(6.51097 -5.5911 1.29891)
(2.66026 -5.80558 0.560004)
(299.723 -6.02463 -67.1562)
(98.6283 49.3854 4.38988)
(85.7962 30.4104 19.7841)
(-30.3134 15.8129 7.09814)
(41.7784 29.6435 1.38382)
(-19.6417 6.39782 -1.03374)
(27.3484 20.2721 0.175949)
(-10.4026 -1.88617 -0.462614)
(12.4712 7.76958 0.661338)
(-6.6526 -6.02987 -0.123837)
(6.12669 0.614683 0.207262)
(-2.01393 -4.50699 -0.169265)
(5.07814 0.836015 0.0291899)
(2.24587 -1.15873 -0.190027)
(6.49329 1.73482 -0.114972)
(6.03246 0.713719 -0.252177)
(7.24622 0.989604 -0.30431)
(4.88274 -1.03392 -0.480178)
(0.392586 -2.28828 -0.786606)
(-3.56982 -2.82838 -1.8448)
(318.437 -119.951 -111.258)
(-31.9343 5.55425 19.3337)
(63.9468 49.5774 9.46371)
(-86.5236 28.4209 4.72273)
(29.0153 21.6556 -1.37901)
(-73.3706 7.98472 0.0315262)
(8.84338 7.88807 -1.91784)
(-43.2791 -0.531529 -0.706986)
(1.67276 0.0100355 -1.51146)
(-18.4087 -3.30598 -0.939931)
(2.72312 -1.02723 -0.601663)
(-5.05981 -0.579507 -0.415661)
(3.75612 1.98679 -0.0833656)
(0.307586 2.96716 -0.125512)
(4.07429 4.20381 -0.142736)
(2.47166 4.26326 -0.5401)
(3.93726 4.68484 -0.783813)
(2.90345 5.31416 -1.10703)
(1.2313 5.35218 -1.18149)
(-1.89833 5.70265 -1.39212)
(43.8131 210.871 1.74614)
(-177.75 63.3872 10.5287)
(21.79 27.7234 0.974966)
(-47.1301 29.2004 4.7204)
(32.4598 27.1592 3.902)
(-24.8267 23.8622 0.0456473)
(19.6268 11.8346 0.0929997)
(-10.5014 5.22783 -1.46254)
(17.3823 -2.56946 -1.24795)
(6.0264 -6.21373 -1.93585)
(21.0994 -5.89335 -1.38592)
(16.7578 -5.63188 -1.47982)
(24.2593 -3.19687 -0.874998)
(21.8924 -2.17329 -0.716352)
(24.4183 1.10941 0.0646218)
(20.2396 3.25823 0.394031)
(18.9198 5.66072 0.377227)
(15.8807 6.77266 -0.108442)
(15.2577 6.98137 -0.142789)
(12.7153 7.1764 0.0175532)
(50.2104 139.55 24.0968)
(-186.978 8.53789 -11.9826)
(41.487 -8.01392 -29.1144)
(-9.10039 2.67217 -7.97529)
(43.2031 -2.33656 -1.45146)
(-13.6252 11.9892 0.212574)
(18.1542 3.99078 1.22251)
(-20.1992 5.26848 -1.16633)
(10.9075 -1.94385 -1.16817)
(-2.52015 -0.0353293 -1.77237)
(14.5189 0.0256744 -1.74155)
(7.82001 1.74347 -1.90114)
(15.6908 2.75877 -1.55477)
(12.9703 4.26614 -1.50548)
(17.4267 5.1263 -0.851691)
(16.9682 6.89615 -0.374829)
(19.6272 7.63521 0.0663492)
(19.5454 7.84804 0.30518)
(19.9963 6.46274 0.648257)
(17.8296 5.32596 0.894631)
(-2.12955 -71.0072 -44.3691)
(-120.097 -1.08977 -33.393)
(87.9499 40.2479 -29.334)
(99.2393 55.7799 -6.58408)
(134.835 49.7982 4.50341)
(111.016 43.7164 6.38262)
(119.49 29.9427 7.69228)
(99.1604 24.246 6.25686)
(92.0682 -1.45586 6.60171)
(54.124 -0.461302 4.70184)
(50.477 0.867635 2.69361)
(38.3086 3.57584 1.65758)
(40.4632 3.16912 1.46002)
(35.7967 2.96794 1.34699)
(36.5007 2.47735 1.43544)
(34.0833 2.5464 1.43907)
(35.0392 2.80141 1.46957)
(34.3254 3.07056 1.25287)
(35.7805 2.02456 1.18379)
(31.768 0.660066 0.922553)
(150.682 113.57 -156.32)
(-7.71044 79.3009 -44.8128)
(86.0109 32.7968 -32.3862)
(32.5078 1.04046 -6.99801)
(73.9662 -6.12324 -1.5812)
(57.931 -11.1779 -0.618949)
(85.8926 -9.78962 4.66972)
(83.4779 -6.27063 4.58201)
(96.3076 -0.343528 7.75661)
(87.3476 4.09966 6.74038)
(84.7742 5.56264 7.76551)
(67.5303 4.6117 5.15237)
(63.9565 2.59818 3.4022)
(55.9225 1.31262 0.960446)
(55.5769 1.30209 0.0638294)
(51.7906 1.74728 -0.201049)
(49.778 1.58954 -0.351373)
(44.9362 0.716007 -0.20368)
(43.2199 -0.12833 0.091153)
(40.049 -0.428921 -0.0311913)
(108.398 -80.7797 50.8594)
(-17.8987 6.67123 17.8482)
(80.6347 1.06787 9.34366)
(4.00283 -0.020285 -1.76447)
(53.1257 -8.46607 0.500153)
(14.6502 -9.71352 -4.11719)
(45.7202 -11.0323 -1.25287)
(30.3615 -7.67326 -3.50517)
(49.2172 -3.85853 0.355426)
(39.4753 1.13234 1.07343)
(45.797 5.0212 5.80683)
(35.9048 6.20134 5.18346)
(36.0941 4.41302 4.0729)
(29.3294 2.96586 2.62519)
(29.3851 2.47827 2.07458)
(26.3697 2.32159 1.68999)
(26.5532 2.84339 1.08396)
(23.9244 2.64427 0.557836)
(22.5335 3.08502 -0.0483073)
(19.5451 2.48609 -0.975121)
(135.692 -167.016 -115.849)
(-36.9614 7.92044 -11.967)
(66.778 16.0444 -22.7715)
(-10.3154 13.1783 -4.29814)
(41.0889 2.36063 0.11445)
(-0.501202 -5.90297 -1.32035)
(31.9312 -8.72112 1.10622)
(8.31309 -6.43113 -2.54487)
(27.1754 -4.22804 -1.1521)
(14.2803 2.536 -2.30852)
(23.6251 6.32761 0.712861)
(16.4666 8.42768 1.03537)
(20.5603 6.48568 2.12358)
(16.0095 5.93546 1.36549)
(17.2232 4.83381 1.22043)
(15.1862 4.67609 0.721548)
(16.5953 4.21172 0.33813)
(15.3046 3.93188 -0.0705318)
(14.8409 3.85552 -0.254733)
(13.5834 3.06276 -0.735432)
(-14.9893 -45.9678 -53.6613)
(-138.522 19.3349 -11.2752)
(4.56189 6.56793 -7.60086)
(-83.596 2.03751 0.30272)
(13.0798 -8.68131 -0.393029)
(-40.283 -9.29014 2.67439)
(17.4344 -14.0929 3.77582)
(-9.15614 -7.21552 2.37321)
(17.651 -7.15435 3.85356)
(5.99868 0.27812 2.5822)
(17.6415 2.88534 2.64767)
(10.2922 6.85896 1.94968)
(13.7268 5.98649 2.28457)
(8.42303 5.90181 1.42873)
(9.50909 4.15968 1.0173)
(8.05907 3.05505 0.744209)
(10.4232 2.85797 0.517378)
(10.8548 3.14931 -0.0785976)
(11.3384 3.62777 -0.43638)
(11.1955 3.12723 -0.788444)
(6.306 29.4506 35.9876)
(-114.066 15.0449 -8.36531)
(28.5558 21.4935 1.59064)
(-63.0755 -9.12139 8.9185)
(27.7121 -23.399 0.430597)
(-26.0636 -17.703 1.77212)
(22.7233 -28.1303 2.54724)
(-0.0504498 -11.1061 0.950218)
(23.4013 -13.4871 2.84523)
(13.6339 1.29264 1.77424)
(22.8183 3.17932 2.31332)
(13.8806 10.266 1.58435)
(14.9917 8.63264 2.53877)
(8.1912 9.6239 1.38527)
(9.37442 5.67991 1.06019)
(8.4225 3.6616 1.26208)
(10.7629 1.31125 0.796386)
(9.45094 1.53896 0.216645)
(8.28267 2.05377 0.404317)
(6.01001 2.04902 0.105431)
(-190.625 60.5382 102.914)
(-248.022 7.27496 -29.1584)
(-9.14881 6.3877 -7.37803)
(-104.412 -32.2167 4.31985)
(12.8335 -37.8331 -4.49884)
(-49.799 -19.615 0.791202)
(13.6915 -37.1055 -0.441134)
(-11.1758 -16.0673 -1.14631)
(13.5189 -17.3954 0.305752)
(6.45655 -1.55326 -1.24623)
(17.4092 4.90463 0.850912)
(12.1619 13.4072 1.09034)
(13.095 12.9861 0.930477)
(8.13316 10.8114 0.857428)
(8.27664 2.8743 2.74557)
(5.97285 0.970301 3.28485)
(3.00448 1.80746 2.41949)
(-1.2678 3.7089 1.10801)
(-6.10594 4.68584 1.28032)
(-8.51942 2.8429 0.998352)
(10.5847 -89.2026 -47.0964)
(-104.706 -83.3141 -10.4762)
(55.7087 -45.3901 -24.4776)
(-49.0447 -64.5547 -3.57347)
(32.7772 -56.3257 -7.59801)
(-23.4177 -29.1886 -3.26587)
(9.60343 -57.0402 -1.95012)
(-10.454 -14.6834 -2.13575)
(10.067 -27.1755 -1.33813)
(4.42153 -2.76015 -3.72549)
(14.9081 0.395809 -2.32075)
(11.5793 15.5621 0.714162)
(14.2063 13.0851 1.45908)
(10.4673 13.5862 3.48051)
(4.55798 5.32636 5.23621)
(-6.11088 7.14457 3.39563)
(-10.9171 6.73224 1.03526)
(-13.704 6.72793 0.591664)
(-16.2728 3.83173 0.962795)
(-15.0292 -0.296103 0.930056)
(285.928 300.143 2.68644)
(-23.5075 76.7637 -20.1312)
(96.4048 -10.5437 -18.136)
(-46.5094 -39.5547 -2.85316)
(44.8988 -47.4214 -7.55726)
(-23.1155 -12.331 -3.29023)
(14.0989 -33.523 -1.06335)
(-5.08943 -24.5192 -0.827661)
(8.31861 -22.5807 0.118595)
(5.89388 -9.86328 -2.41835)
(13.56 3.59634 -3.63356)
(12.6294 16.8704 -1.42774)
(15.4008 21.8872 0.0993143)
(10.827 22.6009 2.37289)
(-4.72548 15.4731 3.52636)
(-8.88035 13.956 0.896845)
(-12.1468 9.82578 -1.40551)
(-12.6004 7.71137 -1.96265)
(-13.1118 3.16934 -1.33751)
(-11.8661 -1.17379 -0.698463)
(239.341 151.935 -38.5915)
(-2.16144 18.1114 -8.79099)
(100.592 -51.9743 -17.1353)
(-19.7389 -45.5314 -11.1351)
(39.6182 -53.9355 -5.21993)
(2.1281 -25.0766 -4.51978)
(29.8544 -30.7301 -1.40979)
(22.13 -33.0098 -1.63358)
(18.811 -24.057 0.86983)
(13.7808 -15.5667 0.0973054)
(14.6382 0.756145 -2.59486)
(14.3724 13.3313 -3.0946)
(15.2255 22.5686 -1.13524)
(11.375 26.0084 1.20915)
(1.39894 27.7669 2.76318)
(-5.39157 16.1965 -0.687091)
(-3.59546 12.9333 -2.46098)
(-5.56286 8.89966 -2.98074)
(-4.93587 3.29608 -2.60926)
(-9.48509 -0.849536 -2.58041)
(92.5036 -45.1614 128.822)
(-22.8607 -9.11698 3.97767)
(100.166 -6.84756 -36.293)
(-5.7161 -12.7643 -12.8099)
(56.1677 -16.3698 -7.93403)
(18.6415 -28.8429 -6.99813)
(27.3562 -36.1551 0.206881)
(30.1956 -39.8561 0.183356)
(31.3046 -26.3974 1.25922)
(22.1493 -15.1546 2.54503)
(15.9845 -0.454639 -1.28317)
(13.8298 10.8817 -2.85151)
(12.0169 19.4359 -2.47627)
(9.12099 25.0626 -0.697541)
(7.44584 25.2633 -0.342767)
(7.34387 19.8375 -1.94846)
(13.1966 13.6462 -1.79863)
(14.9731 10.6047 -1.10083)
(17.6834 7.62411 -0.453578)
(12.3687 5.37829 -0.948629)
(113.73 -142.697 5.40055)
(-65.6457 7.47304 -26.2451)
(78.6507 -5.03043 -13.5334)
(-28.7695 -14.7379 -9.51106)
(53.0932 -23.182 -3.07315)
(13.7775 -24.5734 -5.657)
(33.1781 -34.0614 3.65671)
(28.9965 -39.5911 1.75415)
(23.9152 -23.2533 -0.256208)
(19.5846 -7.54224 1.72015)
(17.4935 3.10714 0.369994)
(17.8126 14.4841 -1.93358)
(15.8165 22.6742 -2.25947)
(14.4319 27.9435 -1.31016)
(16.0412 25.4303 -1.47336)
(21.6515 13.292 -1.44517)
(27.0362 7.37485 -0.58469)
(29.8327 4.03031 0.169465)
(32.0347 5.44148 0.887434)
(29.6619 5.92469 0.670438)
(160.072 53.6318 -75.7895)
(-33.2421 -13.3968 13.8645)
(108.062 -33.3321 -0.39874)
(0.290577 -12.2269 -7.6038)
(62.9062 -11.3115 -1.45071)
(37.7271 -24.1541 -8.632)
(63.2241 -25.2737 5.58558)
(33.1905 -36.6207 7.78621)
(13.7501 -17.1663 0.994808)
(10.119 -4.99553 0.0908941)
(11.6421 3.78357 -0.794066)
(15.2788 14.8175 -1.26863)
(21.0436 24.0924 -1.37623)
(24.5085 28.6102 -1.25841)
(28.221 24.5278 -0.370526)
(28.1418 11.6632 2.50352)
(28.8984 6.32331 1.70317)
(27.1327 4.52799 0.163768)
(27.0492 5.92722 -0.350425)
(24.4033 6.92254 -0.868408)
(75.3469 49.4847 144.97)
(-71.3127 30.8727 -10.6697)
(90.4247 -12.5768 -18.6496)
(-29.1304 -14.0973 2.65639)
(58.3551 -17.374 4.49606)
(-13.9281 -42.4587 6.06318)
(17.0766 -5.17739 6.50606)
(-14.8383 -5.62719 5.85472)
(-5.14602 -8.03023 1.80078)
(-16.8273 -4.5359 -0.171418)
(-4.42978 2.78283 -1.23903)
(-3.55055 9.36744 -0.819679)
(9.84005 15.146 0.966565)
(14.6304 17.213 3.35564)
(11.2608 15.8029 3.18175)
(14.344 11.1585 3.25086)
(13.5342 8.30326 1.46114)
(13.3342 4.84532 0.10073)
(12.9956 6.19478 -0.217687)
(13.3294 7.09668 -0.154549)
(70.5831 55.7795 1.27645)
(-20.0127 4.39628 -33.3256)
(89.7655 -24.7465 -25.4794)
(20.4719 -13.0637 -6.30829)
(59.7828 -6.56957 -4.92239)
(-3.58371 -12.7845 -1.06704)
(19.8962 28.4713 3.53904)
(-15.7686 -19.164 2.12287)
(-4.0872 12.3754 2.9805)
(-20.9052 -11.3164 1.11919)
(-12.153 8.71888 0.956845)
(-17.6984 -0.124483 0.750185)
(-9.57858 10.6475 1.17633)
(-7.93542 5.90765 1.38071)
(-0.586916 11.1954 1.51171)
(1.519 8.47404 0.957425)
(6.02171 7.41364 0.826665)
(8.08603 3.39722 1.24897)
(9.13897 3.26774 2.17016)
(10.8561 3.703 2.28595)
(118.378 62.5478 76.1943)
(-30.7806 14.4835 -11.9867)
(65.69 1.67343 -4.41665)
(-21.5117 15.0333 -2.03554)
(33.6796 28.1701 -4.80418)
(-48.8826 -4.89234 -1.62266)
(12.197 17.1354 0.365258)
(-33.9639 -8.30353 0.639488)
(-6.8391 6.0903 0.929527)
(-26.67 -4.80622 0.281974)
(-13.1904 4.0553 0.510559)
(-19.7433 0.942195 0.327891)
(-11.298 6.31245 1.01109)
(-11.036 5.1247 0.666542)
(-5.68891 6.92261 0.946276)
(-2.58796 3.90943 0.937591)
(1.36711 2.2982 1.28364)
(2.99062 0.131894 1.21263)
(2.78412 -0.025338 1.85774)
(2.51605 1.0435 0.856052)
(-29.826 -21.3649 10.7477)
(-117.026 26.4325 39.4561)
(25.0598 26.5473 15.6554)
(-72.5824 17.1522 5.28074)
(27.2627 30.3344 -0.641961)
(-51.1744 3.50272 -0.604631)
(11.2527 20.7645 0.514892)
(-32.1253 -4.05792 -0.51214)
(-0.210218 8.25104 0.898977)
(-20.4644 -5.75755 -0.296143)
(-5.03582 2.65966 0.421279)
(-14.3339 -2.73303 -0.226879)
(-6.3222 3.17122 0.248344)
(-9.84993 0.595212 -0.209704)
(-5.07093 3.55076 0.0924282)
(-5.97697 2.12122 -0.309042)
(-3.99463 2.57633 -0.601493)
(-4.93125 1.23416 -1.05666)
(-5.95478 1.15616 -1.24319)
(-7.64311 0.850613 -2.57579)
(-32.0927 41.6876 -22.7661)
(-147.877 30.9306 38.5774)
(5.86896 40.214 3.63537)
(-99.3973 22.8153 2.06326)
(12.1759 17.9561 -3.9997)
(-78.0357 4.56115 -0.455188)
(0.426008 5.50452 -3.62686)
(-48.9831 -2.49741 -0.908759)
(-5.34566 -0.832353 -2.05144)
(-27.2524 -3.67317 -1.19836)
(-6.20005 -0.382324 -0.518052)
(-15.8712 0.0506898 -0.482674)
(-6.47291 2.67653 0.0753841)
(-10.6617 3.10706 -0.272297)
(-6.51116 3.92172 -0.228863)
(-8.54475 3.40429 -0.883605)
(-6.86486 3.11056 -1.15987)
(-7.69137 2.88744 -1.67511)
(-8.41432 1.65106 -1.75357)
(-9.7915 0.683385 -2.80038)
(-42.6983 205.403 -89.5689)
(-194.236 29.1009 -31.7672)
(1.67314 25.5168 -15.3058)
(-80.5365 25.0525 1.81379)
(20.0704 17.3785 1.77993)
(-43.0605 11.8696 -1.62271)
(10.0444 2.19217 -0.878096)
(-23.6207 -2.3923 -2.63586)
(6.49537 -7.44448 -1.75643)
(-8.77093 -8.86536 -2.60997)
(6.4101 -6.36317 -1.61381)
(-1.12119 -4.69071 -1.84088)
(6.20731 -1.17336 -0.685792)
(2.24305 0.423009 -0.627523)
(5.59719 2.52994 0.343351)
(3.43508 3.02356 0.376622)
(5.00818 3.60438 0.346257)
(3.90793 3.50207 -0.388369)
(3.84736 2.74207 -0.458005)
(1.96714 2.4283 -0.627519)
(77.9804 126.387 95.4733)
(-130.815 9.33917 7.43703)
(24.3472 1.56863 -33.1973)
(-43.9235 16.3716 -11.0598)
(25.0701 2.89063 -3.96409)
(-33.7262 8.53342 -4.04978)
(12.139 -2.79949 -4.40785)
(-22.6643 -2.12612 -6.66135)
(9.33082 -8.41641 -3.32922)
(-6.58788 -5.43433 -3.49742)
(8.575 -4.39139 -3.08618)
(-0.578393 -1.58405 -3.35173)
(6.68779 0.157965 -2.37881)
(2.88499 2.14898 -2.1393)
(7.31541 3.13521 -0.912751)
(6.93447 4.49976 -0.369947)
(10.2354 4.59534 0.225268)
(10.9068 4.60571 0.364362)
(12.0771 2.8242 0.861693)
(10.6967 2.26423 1.0639)
(113.195 60.5724 -32.8219)
(1.79045 36.8499 -28.3109)
(61.2855 29.0772 -23.4049)
(36.8639 39.4439 2.64163)
(84.3953 37.5008 18.3094)
(70.1092 33.5288 15.6799)
(94.1285 20.2875 15.4833)
(78.3725 12.9722 12.3751)
(76.2865 -7.47055 13.3094)
(48.8034 -5.31679 9.32814)
(47.7187 -3.84598 5.47498)
(36.1979 -1.29148 3.15056)
(37.7839 -1.29958 2.74904)
(32.3413 -0.907868 2.43021)
(32.8758 -0.633554 2.79926)
(30.4515 0.0404244 2.7325)
(31.8248 0.449986 2.68487)
(31.1576 0.790912 2.21754)
(32.2794 -0.00303196 2.07456)
(27.5932 -0.267756 1.52802)
(186.413 43.7776 -127.731)
(40.0737 2.78473 -45.3316)
(82.4978 22.6275 -33.1422)
(15.3376 4.42871 -7.45791)
(59.1258 1.06667 -1.13132)
(27.5353 -2.51758 -1.73977)
(57.1012 0.467773 4.02162)
(40.0119 3.86057 2.49559)
(53.398 6.12534 7.62429)
(39.5692 5.5837 6.28847)
(45.9829 3.04814 8.63265)
(39.9622 0.451948 5.44294)
(45.0875 -0.923367 3.77263)
(43.4237 -1.47007 1.33206)
(45.2242 -1.04128 0.341376)
(43.4486 -0.458337 -0.0235757)
(42.7075 0.46161 -0.0962676)
(38.481 0.641827 -0.0422036)
(36.807 0.889715 -0.00196614)
(33.2828 0.907431 -0.3744)
(115.502 -155.12 132.187)
(-111.127 -15.6905 6.88702)
(65.4297 -6.85571 3.77923)
(-26.0901 0.232712 -3.54581)
(38.2536 -6.3851 0.0104396)
(-13.3328 -4.22238 -5.75418)
(25.5226 -3.45537 -2.54561)
(-0.592752 1.39049 -4.92152)
(22.0467 4.19554 0.227946)
(7.50589 6.99196 0.820924)
(19.1032 7.25067 5.78482)
(12.5951 5.90229 4.46797)
(17.7126 3.91787 3.78683)
(13.4985 2.46701 2.04873)
(15.1648 1.99828 1.60412)
(13.1551 1.94562 1.10094)
(14.3743 2.56094 0.644746)
(12.6277 2.78871 0.0992023)
(11.7795 3.3687 -0.350542)
(9.0368 2.34669 -1.39031)
(275.161 -104.159 -130.521)
(25.6275 16.8006 -5.91103)
(66.3075 19.7603 -11.9297)
(-22.495 19.183 -2.62619)
(28.6359 5.47526 0.516125)
(-21.2128 -0.54765 -1.2027)
(17.6482 -3.60625 0.63794)
(-12.6337 -0.192934 -2.41024)
(10.1549 0.831964 -0.719974)
(-6.50073 6.00639 -1.76092)
(5.74743 6.87461 0.923278)
(-1.88422 7.9822 0.716528)
(4.78363 5.74432 1.70597)
(1.32386 5.21987 0.923232)
(4.24529 4.01187 0.928691)
(2.91008 3.94669 0.45494)
(4.9702 3.57701 0.185564)
(3.93544 3.62582 -0.327937)
(3.62257 3.6041 -0.425813)
(2.42298 2.32333 -1.0721)
(51.0589 -55.3039 43.2476)
(-101.384 18.052 -13.3523)
(8.0833 14.0972 -1.91837)
(-85.325 6.0531 2.28692)
(2.25642 -3.28922 -0.161638)
(-55.0478 -1.85662 2.93278)
(5.32442 -6.57769 2.18757)
(-27.2789 0.386213 1.63743)
(2.47426 -1.03589 2.63037)
(-12.9039 5.10666 1.79112)
(1.20754 4.93714 2.40672)
(-6.6497 7.44632 1.50758)
(-0.577203 5.48159 1.94671)
(-4.37262 5.10283 1.01084)
(-1.46528 3.4375 0.764122)
(-2.08101 2.88077 0.568681)
(0.834375 2.84525 0.325447)
(1.13133 3.15017 -0.297649)
(1.33859 3.21718 -0.59932)
(1.02815 1.83873 -1.20145)
(0.717409 112.377 -22.7266)
(-103.515 23.7698 -26.9672)
(19.5129 33.507 0.725424)
(-70.9668 0.775541 7.9609)
(14.275 -10.6326 -0.9618)
(-42.9131 -4.62944 2.4549)
(10.0519 -16.1239 1.3325)
(-19.1534 1.85995 0.445683)
(6.64062 -3.33397 1.92758)
(-7.76992 9.83192 1.03226)
(2.99699 6.75064 1.91559)
(-6.053 11.9012 1.12828)
(-1.3758 8.05591 2.02461)
(-5.34066 8.46175 0.888591)
(-1.89917 4.41036 1.04328)
(-1.83398 3.58698 1.03391)
(1.20359 1.93838 0.63033)
(0.329128 2.16127 0.0266452)
(-0.460644 1.77369 0.503005)
(-1.95339 0.571592 0.0677568)
(32.839 -30.4419 -102.698)
(-286.679 18.6119 -46.3033)
(-18.8376 15.2073 -14.2515)
(-116.341 -18.615 2.90022)
(-2.86992 -23.4924 -5.11512)
(-67.5388 -5.92191 2.74774)
(0.516481 -24.2922 -0.954256)
(-28.3457 -1.70956 -1.36803)
(-1.43119 -5.30614 -0.188931)
(-11.7727 9.29996 -1.42398)
(-1.53987 9.04818 0.302)
(-6.88218 13.7829 0.588915)
(-3.31531 10.1002 0.672449)
(-6.90452 7.74453 0.630004)
(-4.64101 2.36356 2.4609)
(-4.49256 2.25608 2.76654)
(-3.94414 2.80527 2.28253)
(-6.35019 3.98368 1.48271)
(-10.2797 3.9788 2.01456)
(-11.4253 2.03559 1.32295)
(23.2691 -121.922 66.7425)
(-97.6384 -42.6496 -26.5046)
(48.8262 -33.2279 -26.0722)
(-58.2611 -52.8903 -0.58851)
(17.6698 -43.8432 -7.52108)
(-42.926 -17.792 -1.27972)
(-5.801 -47.1626 -2.19775)
(-27.715 -0.0570062 -1.26556)
(-4.3913 -17.0302 -1.36504)
(-12.5166 8.16793 -2.74302)
(-3.26267 5.4149 -1.7954)
(-7.74613 16.3771 0.0936148)
(-4.19321 10.3191 1.20727)
(-7.69449 10.928 3.31326)
(-8.22921 5.48218 4.43158)
(-11.5556 7.7587 2.85608)
(-14.0398 7.63444 0.842617)
(-16.1759 7.63983 0.414713)
(-18.7185 4.6501 0.723731)
(-17.0908 0.682754 0.353683)
(123.213 -54.729 -118.689)
(-103.248 13.8768 -15.5452)
(72.0217 -0.732707 -20.8173)
(-63.1968 -32.9621 1.47681)
(28.5956 -37.3939 -7.33217)
(-43.2558 -1.11756 -0.916348)
(-3.98788 -28.962 -1.12124)
(-22.3815 -9.33939 -0.527884)
(-6.9455 -12.7673 -0.394436)
(-8.79281 2.62234 -2.52845)
(-2.62185 10.1322 -3.40786)
(-5.37834 20.8142 -1.46534)
(-3.6508 20.7686 -0.314466)
(-8.05262 21.198 2.42222)
(-15.5816 13.5532 2.56519)
(-15.402 12.942 0.0453594)
(-17.7814 9.91326 -1.65441)
(-18.2419 8.09117 -2.1126)
(-19.7865 3.77523 -1.49134)
(-18.7878 0.372902 -1.74119)
(41.6563 -51.0709 -19.8379)
(-2.31814 -25.48 21.6788)
(82.8782 -55.1742 -13.5373)
(-33.9396 -42.9435 -8.8241)
(22.262 -48.6738 -5.62099)
(-19.9095 -14.5123 -3.6999)
(6.01427 -25.8628 -1.33978)
(-1.72463 -24.1159 -0.951767)
(-0.102855 -15.4336 1.13267)
(-0.906276 -4.97728 -0.391941)
(0.638532 7.87148 -2.80243)
(-2.2294 17.5021 -2.91242)
(-3.08368 22.9461 -1.13789)
(-7.40558 24.4359 1.44327)
(-10.2329 24.444 1.74613)
(-13.439 13.0327 -1.09562)
(-11.4872 10.3061 -2.41431)
(-13.8658 6.70225 -2.85041)
(-14.6516 1.43752 -2.65824)
(-19.1374 -0.976084 -3.47616)
(38.3051 -117.449 -19.3661)
(-30.9534 -12.4663 -43.2995)
(98.2885 -0.0918685 -44.7667)
(-17.5379 -12.3968 -16.2728)
(38.2694 -16.176 -7.57596)
(-7.03899 -28.0778 -7.60751)
(4.30566 -31.5349 -0.41694)
(8.6597 -29.4396 0.202639)
(7.56514 -17.8241 1.99903)
(4.85647 -7.48366 1.64244)
(2.81834 3.96532 -1.62569)
(-0.332593 13.2413 -2.91914)
(-3.46513 19.1407 -2.2374)
(-5.54425 21.3634 -0.853148)
(-3.95265 20.0445 -0.791402)
(-2.24357 13.8577 -1.91934)
(2.64038 9.11587 -1.63874)
(2.86001 7.41758 -1.03694)
(3.90294 4.80103 -0.663344)
(-2.51291 2.4695 -1.77076)
(43.359 -57.9058 1.6051)
(-101.77 28.1282 -34.7414)
(66.3118 4.74552 -17.6481)
(-58.9238 -17.6514 -8.92178)
(31.3549 -23.9248 -5.25538)
(-22.9831 -28.2376 -6.01536)
(1.63783 -34.1331 2.10084)
(9.48964 -30.0018 1.53395)
(7.31098 -14.2756 0.357999)
(6.42926 -4.29486 2.7367)
(8.04911 6.71313 1.15281)
(4.92089 14.5585 -2.48769)
(1.78917 20.1512 -2.33995)
(2.09659 21.7048 -1.82887)
(4.87314 17.4101 -1.8385)
(9.24481 5.72726 -1.19528)
(12.7687 3.91766 -0.537905)
(13.9586 3.34071 0.0921388)
(15.0703 5.31989 0.679546)
(11.7289 5.13799 -0.154682)
(65.6823 38.223 -69.6838)
(-120.693 -21.2723 9.58834)
(88.0965 -39.265 -5.22297)
(-46.3523 -12.174 -8.06534)
(38.4764 -14.4229 -3.58513)
(-9.57379 -39.0493 -7.63292)
(10.7862 -37.5266 4.5135)
(5.29938 -26.4013 7.75371)
(0.782881 -10.3683 0.71832)
(-0.426904 -0.230684 -0.592967)
(1.56034 7.52005 -1.69092)
(3.94995 14.261 -1.67403)
(7.7561 18.3939 -1.18197)
(11.0827 19.2141 -0.86625)
(14.4493 12.9459 0.0882966)
(11.1302 5.64751 2.31519)
(13.0463 4.25846 1.28198)
(11.9451 4.2733 -0.0180837)
(11.8654 6.41784 -0.448127)
(8.82294 6.5411 -1.21329)
(208.288 109.186 -91.1403)
(0.17123 56.577 -4.64368)
(78.6252 -16.4368 -20.1988)
(-46.2125 -12.244 2.75927)
(45.9267 -16.4276 2.53039)
(-36.6495 -42.9733 5.14154)
(-2.08246 -2.13261 7.27915)
(-26.5334 -9.50472 5.36167)
(-13.873 -3.80841 1.50932)
(-23.0818 -2.4185 -0.548978)
(-11.2103 4.97092 -1.52091)
(-12.1894 8.17094 -0.125346)
(-1.48954 11.2057 1.19703)
(0.374508 10.8657 3.37816)
(-2.32646 11.3622 3.13763)
(1.6733 7.65531 2.80261)
(2.30006 6.57815 1.02961)
(2.67646 4.24481 -0.0529207)
(2.44969 6.06904 -0.229927)
(2.3513 5.8619 -0.380172)
(156.848 216.112 -40.0784)
(39.2639 50.9486 -13.8845)
(100.91 -7.55479 -13.3492)
(14.0546 -6.7925 -3.65126)
(48.2187 -3.10523 -2.90012)
(-25.5328 -10.9731 -0.828458)
(2.83833 32.1397 2.9838)
(-34.3187 -21.5271 1.5646)
(-16.4107 13.8364 2.26295)
(-31.8366 -11.7027 0.918229)