/*--------------------------------*- C++ -*----------------------------------*\
  =========                 |
  \\      /  F ield         | OpenFOAM: The Open Source CFD Toolbox
   \\    /   O peration     | Website:  https://openfoam.org
    \\  /    A nd           | Version:  10
     \\/     M anipulation  |
\*---------------------------------------------------------------------------*/
FoamFile
{
    format      ascii;
    class       volScalarField;
    location    "1.3";
    object      k;
}
// * * * * * * * * * * * * * * * * * * * * * * * * * * * * * * * * * * * * * //

dimensions      [0 2 -2 0 0 0 0];

internalField   nonuniform List<scalar> 
12920
(
1299.74
1085.77
1009.73
608.823
419.344
343.469
278.687
227.602
178.089
148.524
134.393
134.141
135.184
136.525
134.931
129.714
119.256
89.1131
69.4621
37.1019
1275.05
1867.95
1715.15
1240.23
809.959
594.04
429.48
321.408
236.444
177.558
134.83
110.913
95.0785
84.9846
83.2274
83.7584
82.7519
71.9812
49.878
22.5188
2588.74
2768.1
2649.92
2157.37
1306.8
801.854
497.391
356.379
260.759
189.456
128.585
86.7021
64.1357
54.372
49.6523
40.8036
30.9295
20.2883
13.0967
5.38026
3284.42
2583.89
2345.63
1330.53
728.81
507.539
300.618
206.456
151.234
131.463
96.118
62.7379
37.3441
22.4206
13.229
6.97763
4.06688
2.3061
1.53812
0.553898
5654.56
3457.19
1995.62
1049.41
689.378
414.043
233.382
117.736
55.7862
43.6777
31.0371
19.4406
9.20729
4.04054
1.626
0.620449
0.277365
0.136717
0.0913889
0.0313098
4264.42
2839.3
2248.56
1908.2
1294.94
701.243
358.894
165.899
54.0346
19.6896
6.74968
3.1469
1.08635
0.337105
0.0854143
0.0228812
0.00900294
0.00500108
0.00395787
0.00212341
5570.8
2615.01
1901.25
1280.32
825.183
499.817
348.577
177.048
43.3847
5.91941
1.08341
0.700298
0.729682
0.410845
0.253254
0.0623696
0.0107466
0.00241076
0.00137107
0.0012087
2102.72
2719.05
2058.8
1289.11
930.92
663.955
393.09
172.752
67.3583
1.57075
0.909812
5.9651
5.74018
4.37456
4.48846
1.2213
0.222446
0.032713
0.00521238
0.00161996
2356.56
2623.8
1850.3
1540.18
1305.39
733.356
378.565
132.487
100.637
8.14492
1.5012
9.73215
13.2076
9.45281
15.8976
6.25283
1.48536
0.257592
0.0370096
0.00498966
4916.57
3128.62
1897
1577.2
1469.18
1102.89
707.298
539.504
134.886
140.355
16.3539
8.02393
17.7941
12.3521
25.8619
8.61212
2.51521
0.54303
0.0919788
0.0125482
2042.5
1521.07
1343.94
1173.01
1035.31
767.079
615.576
401.973
142.487
111.67
32.0636
6.92699
6.20938
9.86102
30.1223
10.5999
2.14244
0.348841
0.0503436
0.00678539
2482.06
2044.38
1786.93
1525.88
1110.49
654.135
386.129
204.958
105.017
69.1989
28.5867
22.0922
18.2075
12.5326
42.2654
10.3899
1.99736
0.319553
0.0489042
0.00719316
7099.25
3540.83
1972.59
1500.88
1108.05
830.554
436.927
238.934
177.739
149.359
103.981
79.2505
41.7985
38.317
49.3125
26.4039
10.0311
2.90279
0.722022
0.125703
4863.62
5134.77
2753.21
1699.98
1241.56
838.5
560.723
345.22
237.624
170.302
127.982
104.55
92.7793
85.1433
79.8885
71.8209
48.9748
20.1557
6.2241
1.32926
12277.9
11443.5
3703.47
1334.79
720.386
411.759
291.063
216.089
174.193
133.378
108.692
95.6681
92.7421
85.8311
69.2589
50.8491
30.9544
14.357
5.33469
1.33063
5715.7
4516.69
1917.77
1017.77
587.522
396.385
297.997
229.321
178.114
122.722
81.6521
48.4847
33.6242
27.7871
26.5301
26.2072
23.8812
15.3265
8.27784
3.04519
641.932
808.791
1143.12
1193.8
987.92
801.79
577.864
379.986
226.417
119.568
58.1222
27.504
15.129
12.1862
12.3607
14.3455
15.1937
13.7672
8.63535
3.01517
3034.18
1458.65
1166.59
1177.4
1108.3
1054.12
877.297
635.895
415.833
261.377
170.491
110.519
68.5046
39.5807
23.2901
15.3443
11.0794
7.21893
3.59388
0.961816
2107.66
1695.46
1389.74
1287.81
963.892
681.809
461.966
305.181
198.444
138.839
107.434
79.3818
51.2805
27.3781
12.9445
5.5395
2.30981
0.847815
0.272038
0.0550408
50.0854
430.899
623.729
583.79
485.021
442.846
339.235
228.98
160.944
110.724
71.9183
41.4704
20.2393
8.0463
2.7141
0.791354
0.206885
0.049582
0.0122962
0.00307999
890.591
2612.52
2110.45
1321.46
847.638
628.088
490.235
419.791
371.951
343.142
315.536
291.221
268.279
242.667
208.882
177.992
170.198
164.697
155.298
109.078
2388.83
4726.12
4268.66
3194.99
1830.81
1315.51
909.73
720.63
552.165
450.663
340.271
249.255
161.485
93.6398
62.2633
60.2285
65.4988
60.6905
53.7845
32.7719
5122.05
5456.04
5360.44
4381.84
2751.84
1765.3
1105.15
825.439
595.379
435.463
280.577
157.215
75.4713
39.3708
28.7938
20.6885
14.456
8.78086
7.84594
4.22199
3175.65
6478.89
4964.89
2942.1
1684.42
1279.35
711.925
531.636
366.189
307.244
214.692
128.664
61.0807
23.4137
7.86894
2.44589
1.03699
0.628953
0.635855
0.341803
21821.4
12386.8
4731.41
2172.06
1420.48
946.663
500.592
257.873
105.015
77.2366
59.444
40.3285
16.8107
5.17971
1.30856
0.296422
0.0836916
0.0392817
0.0367613
0.0186212
9478.82
6732.84
4942.26
3907.85
1993.23
1217.43
639.257
275.078
71.9253
27.0849
9.04097
4.44256
1.43746
0.387865
0.0871717
0.0183356
0.00503956
0.00239582
0.00208445
0.00118957
15352.8
5715.81
4591.09
2807.6
1798.25
1210.15
835.881
285.139
54.7083
12.8243
2.56386
0.949675
0.732885
0.490875
0.409981
0.0966814
0.0140443
0.00236909
0.000925603
0.000620705
4067.59
7279.89
5169.33
3090.75
2241.9
1629.92
1162
692.178
177.192
10.8391
2.57885
11.1387
7.08486
5.98191
7.29395
1.73901
0.289165
0.0395868
0.0055263
0.00117114
9206.64
6620.23
4386.65
3559.4
2692.53
2040.81
1435.88
857.342
477.121
74.6549
56.7856
145.255
94.7109
34.3211
33.9106
8.58827
1.80847
0.305087
0.0495676
0.00739334
17736.3
6072.96
3669.69
3601
3295.63
3158.67
2671.81
2170.2
1034.91
637.067
130.136
197.782
212.436
44.731
38.2273
11.9954
2.98229
0.601632
0.111689
0.0174516
3236.36
3624.97
2873.72
2751.46
2246.51
1991.58
1758.61
1662.32
1022.61
530.719
150.885
38.3346
72.6271
15.5657
22.8167
16.8529
3.31819
0.534906
0.0879257
0.0138514
8397.35
6577.18
4673.68
3641.74
2564.8
2101.67
1572.3
1193.72
735.197
418.575
158.991
92.6744
37.9803
51.7712
98.8961
19.6916
3.20984
0.459479
0.0683786
0.0099297
17314.7
8619.35
4777.92
3279.76
2410.62
1811.09
1324.18
1000.59
785.618
537.173
369.211
239.395
126.034
119.061
72.3246
31.8181
10.5542
2.85396
0.666613
0.107891
23015.3
16091.2
7195.92
3794.7
2568.19
1823.91
1256.03
806.185
540.152
363.006
245.363
188.657
161.37
146.998
135.729
117.75
72.6333
28.286
7.93954
1.51716
17896
9098.18
5171.28
2529.4
1421.71
919.99
697.79
515.904
409.396
344.413
318.244
294.011
269.988
227.631
169.021
105.424
55.6729
23.6141
8.41519
2.05681
7378.8
3884.2
2995.73
2369.92
1177.12
890.021
587.093
448.214
378.259
283.698
213.606
127.268
79.4367
47.5525
37.9717
31.914
23.1836
14.1712
7.6436
2.62796
991.428
1415.53
2233.96
2893.35
2274.21
1769.02
987.617
516.555
232.484
111.392
52.9798
23.6152
10.974
6.82642
6.97544
9.77241
10.9755
10.2117
6.63401
2.07536
4537.4
4750.88
3259.65
3008.53
2406.74
2203.4
1607.88
1159.28
635.792
299.922
131.795
61.7206
34.6983
20.9557
13.5838
9.37997
6.28658
3.46549
1.50801
0.362303
6048.78
5254.36
3522.27
2754.03
1518.27
1250.27
833.872
622.024
361.127
209.465
114.338
64.7833
32.7443
13.724
5.08646
1.72677
0.603112
0.194944
0.0651496
0.01398
1927.43
2079.08
1736.57
1068.97
799.129
760.355
627.742
421.86
275.501
165.585
89.5233
43.4016
18.0526
6.16689
1.78244
0.438504
0.0992587
0.022029
0.0055565
0.00180934
4585.69
3691.2
2501.73
1576.23
1038.21
758.828
611.902
531.199
463.727
412.406
370.631
330.22
286.888
242.294
196.837
153.086
131.811
130.7
131.878
116.823
14149.7
6422.66
5216.12
3501.66
2220.07
1550.12
1127.8
940.053
760.236
649.928
489.636
332.116
186.653
94.6169
46.1315
29.3142
30.5881
39.7025
58.717
50.194
6875.42
6591.31
6090.94
5039.74
3208.32
2038.53
1337.11
1040.33
780.058
593.116
378.545
203.641
86.4747
29.8531
10.3542
5.07297
4.65315
5.7367
9.97271
7.89284
17160.5
8822.98
5757.32
3537.36
2220.34
1562.01
980.122
760.14
536.869
443.559
290.059
160.942
65.6292
19.871
4.55573
0.996934
0.511052
0.609575
1.09324
0.786225
9561.36
7928.84
5386.62
2695.28
1964.02
1208.57
752.94
420.985
196.457
127.631
69.7289
34.9178
11.9367
3.15053
0.655566
0.133456
0.0553493
0.0559507
0.0796393
0.0539978
7178.04
9065.69
6055.86
3784.5
2230.04
1377.62
875.995
415.903
159.586
71.2107
20.7873
5.88406
1.31218
0.279656
0.061527
0.0156404
0.00575717
0.00398545
0.00434052
0.00281698
12419.3
8401.51
5542.86
3257
2384.98
1528.93
1089.4
394.162
168.165
72.2405
13.531
3.02558
0.702964
0.196944
0.184835
0.124129
0.0543873
0.0148538
0.00289302
0.00087602
16656.5
10308.3
6166.79
3872.7
2809.61
2010.09
1571.69
752.984
174.238
120.937
19.7547
34.0144
9.73874
3.42953
3.35343
2.02598
1.29356
0.689419
0.267299
0.0548055
10674.8
10099.2
5896.28
4209.33
2933.84
2312.67
1802.17
1118.43
691.379
193.001
192.657
242.245
101.706
41.7181
22.0004
7.1227
4.54215
4.01012
3.36152
1.51305
8053.91
6694.16
4988.32
4343.4
3413.48
3274.71
2682.3
1948.81
1430.67
682.586
215.629
327.734
278.418
171.882
119.388
28.9389
9.21081
5.69755
4.53691
2.08006
10791.9
7329.44
4701.3
4074.47
2935.48
2789.83
2535.97
2216.1
1559.28
545.936
55.4967
64.2029
177.603
114.984
70.8319
42.0323
12.3002
6.40589
4.88137
2.20386
10500.3
9035.06
5621.38
4174.25
3033.89
2676.87
2231.4
1742.5
1208.16
472.422
210.556
87.7237
33.554
29.964
124.958
29.4249
7.43484
3.98946
3.06822
1.39353
20037.7
9984.7
5997.18
3955.24
2952.49
2149.96
1740.21
1336.22
1043.26
722.307
546.388
359.91
227.822
202.273
60.388
19.9131
6.53487
1.99313
0.517258
0.0933707
25461.7
18875.6
9044.67
4567.26
3036.67
2099.69
1561.6
1121.25
850.418
642.132
470.701
362.68
291.334
246.554
197.939
134.37
64.4868
20.3374
4.64944
0.756793
15583.8
11289.8
5958
2896.84
1876.64
1157.72
1055.9
838.979
701.362
568.977
455.302
353.281
271
198.134
136.029
74.5321
30.2049
9.07364
2.40393
0.491201
13531.5
5689.86
4382.02
2660.01
1504.09
1009.83
727.4
558.658
512.166
405.131
311.826
187.774
108.376
51.0846
25.128
11.4373
5.05474
2.30158
1.60827
0.603561
5352.3
5698.66
5126.35
3958.3
2330.85
1536.99
771.078
343.755
210.948
129.157
79.7466
34.2002
13.6914
5.1055
2.18931
1.54237
1.82126
2.14544
1.82133
0.562456
3434.78
6238.85
5307.45
3903.19
2656.2
2176.82
1344.82
728.316
291.724
87.0083
24.7377
8.0604
3.07576
1.76781
1.58492
1.53658
1.15607
0.535823
0.200313
0.0433405
3970.15
5622.11
4264.26
3221.25
1845.83
1443.3
858.237
491.527
229.697
101.883
46.8258
19.3143
7.61766
2.53075
0.751185
0.205096
0.0546865
0.0141831
0.00499667
0.00149814
3845.63
3665.02
2034.37
1290.93
1082.26
913.544
619.274
389.453
246.42
144.917
77.4311
35.0645
13.398
4.49197
1.32129
0.332663
0.0752486
0.0164753
0.0041047
0.0015309
4888.41
4229.64
2611.84
1696.32
1120.76
805.598
651.451
555.594
476.388
425.358
395.49
368.734
330.462
285.76
234.773
184.739
146.721
133.048
131.013
117.013
27092.7
8707.31
5537.5
3226.7
2397.82
1635.69
1334.76
1150.72
1004.29
900.557
726.884
564.051
410.359
273.669
157.326
87.7331
74.1613
84.8924
116.73
99.4472
7268.56
7208.78
7260.3
5136.89
3335.38
2079.6
1569.18
1240.33
1006.42
818.84
586.605
377.199
217.371
111.163
52.1954
25.1714
23.7213
30.0651
41.0926
27.8585
6885.62
7068.06
6419.28
3816.02
2667.95
1699.28
1273.84
984.741
747.871
609.174
395.639
212.546
87.8259
29.6197
8.54916
2.69814
2.04081
2.53409
4.27296
2.87953
8690.24
9157.33
6106.92
3204.42
2454.38
1350.35
1048
618.272
389.175
269.12
149.302
71.188
26.1906
7.27986
1.87107
0.584963
0.377319
0.37237
0.430847
0.306358
10899.2
17052
7586.19
3931.18
2629.31
1455.13
1171.47
638.537
372.103
238.082
104.495
42.213
11.9694
2.93319
0.790701
0.294494
0.108739
0.0613734
0.0565175
0.0560777
16138
9465.31
6388.05
3773.56
2896.04
1677.49
1316.53
620.014
421.824
217.792
56.1465
10.9173
6.30312
4.018
5.75771
5.63864
3.53223
1.18149
0.299105
0.106574
22141
11758.8
7088.92
4311.28
3258.47
2166.62
1754.58
855.836
474.667
308.54
58.1243
26.8986
6.04078
5.44176
55.4081
55.4766
47.8388
33.8855
20.3738
7.31685
32871.7
19110.3
7315.02
4434.06
2986.64
2270.92
1877.97
1082.78
482.151
462.291
302.435
260.832
85.0266
45.4101
53.4161
97.3045
90.4585
84.8665
75.5893
48.7888
5336.54
8202.25
6220.92
4374.69
3289.4
2785.54
2118.08
1445.83
1134.66
304.909
478.294
450.248
375.592
399.065
323.426
157.86
113.503
99.2073
87.8106
58.2865
7277.08
8206.23
6130.28
4318.38
3110.95
2696.66
2278.93
1700.66
1156.22
277.72
220.93
251.004
537.646
408.876
400.468
194.606
126.369
103.542
91.0337
61.2239
9085.66
10572.4
7138.7
4554.99
3293.2
2677.04
2249.68
1601.32
929.998
465.587
246.81
247.052
475.515
324.575
399.086
122.456
93.4071
81.8943
73.0379
50.3199
30794.7
10637.9
6990.37
4408.05
3439.65
2313.77
1941.05
1504.19
1217.02
961.553
803.265
625.078
494.585
276.179
61.4341
38.5511
25.4337
15.0928
9.89977
4.3843
17854.5
14935.7
8773.91
4834.98
3456.92
2212.15
1763.03
1329.73
1132.19
937.682
758.985
563.867
370.882
238.539
148.781
74.6512
25.1492
5.59459
1.21077
0.357373
10493.9
12256.9
7369.16
3251.81
2319.16
1331.17
1376.83
1128.9
983.777
783.785
615.808
423.004
271.333
144.804
65.36
21.4899
5.37756
1.3572
0.552288
0.33386
27240.4
8797.5
5413.7
2587.78
1893.57
1073.37
929.153
733.14
699.307
548.088
414.571
234.08
123.116
52.5166
23.1382
9.79885
4.41669
1.70484
0.804532
0.508577
29317.8
11767.5
6368.76
3672.46
2292.26
1168.8
680.353
356.398
292.332
190.626
135.449
66.5424
35.9357
16.6017
8.27878
3.30101
1.02378
0.580633
0.503469
0.339209
24229.3
10739.1
6096.04
3902.87
2746.23
1791.92
986.967
416.756
167.672
73.6807
42.3009
21.1099
11.6905
5.44762
2.44946
0.773557
0.440447
0.318067
0.258403
0.220554
6399.22
7414.67
4518.42
2945.2
1895.61
1252.39
676.316
303.222
146.962
77.7624
41.9577
20.2602
9.12076
3.40754
1.10522
0.408537
0.236473
0.186569
0.164405
0.163417
2734.37
3474.44
1868.97
1388.37
1168.92
829.25
528.941
317.94
201.95
121.745
66.4946
31.254
12.8085
4.5524
1.38307
0.348902
0.0788298
0.0182436
0.0064191
0.00319665
1833.03
2339.03
2283.03
1752.02
1133.7
787.627
618.668
503.858
437.065
405.746
403.592
403.868
397.572
364.716
312.798
276.641
263.974
233.526
198.465
127.428
13856.7
9506.31
5789.97
3306.53
2938.02
1716.96
1799.38
1347.72
1398.2
1164.37
1122.77
954.936
903.484
752.55
644.849
538.133
520.913
534.391
556.978
446.281
12500.9
8990.87
8645.53
4759.07
3714.17
2085.97
2015.14
1411.81
1394.81
1082.09
1006.21
797.536
738.128
584.67
454.587
324.481
323.348
340.121
370.425
271.641
10723.1
8500.39
7695.92
4428.4
3353.31
1918.23
1771.76
1178.55
1133.61
830.079
717.049
494.724
397.424
255.508
150.033
82.3773
68.2713
69.4205
78.3645
59.4625
10374.5
11576.7
8158.38
4425.69
3234.82
1711.62
1561.15
823.203
808.233
567.365
502.637
340.824
246.555
123.917
66.174
37.3766
30.3135
27.015
26.9774
25.5769
63311.7
38790.4
12709.8
4858.61
3536.35
1759.03
1719.63
912.255
802.46
554.753
393.867
257.065
140.534
66.9214
31.5184
17.9675
12.7698
12.1896
12.5236
14.7535
21575.6
12267.1
7915.56
4797.85
3722.15
1952.48
1811.39
914.686
820.666
410.439
181.9
74.5557
89.8251
78.1019
90.5544
89.1506
64.6012
38.7591
24.998
20.716
15243.2
11011.9
9203.47
5064.02
4304.57
2409.83
1857.95
1132.18
837.176
451.181
215.114
119.78
160.069
205.477
339.103
334.527
303.43
287.291
246.289
153.442
11011.5
10188.3
8401.88
4844.7
3393.22
2312.51
1947.55
1165.1
943.193
819.619
477.07
333.827
292.832
326.849
383.521
407.272
386.313
388.635
379.593
343.453
5827.08
9201.54
8127.94
4892.81
3718.68
2306.13
1654.31
1199.28
999.77
934.764
779.848
511.42
508.072
551.912
491.638
455.48
419.477
418.084
405.897
368.788
11526.8
11011.9
8111.26
4777.71
3629.8
2285.71
1684.65
1209.54
1058.9
877.434
745.158
708.659
902.437
854.419
659.596
486.635
433.358
426.345
413.898
380.669
41502.5
15087.1
8898.08
5020.53
3881.29
2622.42
2149.14
1420.69
1090.82
931.322
844.529
978.572
1029.64
939.731
640.988
432.477
406.719
403.03
396.623
372.126
32580.8
11020.2
8709.86
4919.43
4501.89
2695.73
2138.58
1647.16
1457.46
1281.04
1179.45
1025.25
709.682
450.575
354.174
324.272
287.715
237.701
208.377
143.227
17658.9
13257.5
10063.2
5222.99
4423.73
2431.8
2205.88
1544.67
1497.09
1154.94
1079.84
759.125
594.938
368.741
232.927
130.324
82.4033
57.1625
48.4268
41.2856
10950.8
12950.6
9054.7
3988.12
3269.47
1707.14
1983.58
1326.03
1332.72
961.41
869.414
559.865
436.457
237.471
142.889
80.7901
55.7606
46.2523
44.8014
44.6265
14084.6
11901.4
7012.9
3287.31
2913.88
1275.76
1455.05
933.233
995.768
677.236
638.806
418.567
325.833
172.186
114.374
72.325
61.0599
55.4485
54.8098
55.2719
21539.4
10691.8
7549.59
3597.83
2925.6
1119.98
1045.79
514.311
546.648
354.04
341.325
214.055
155.666
83.8269
62.9556
46.951
44.4938
44.0085
45.3648
46.661
38150.2
11278.5
7242.53
3897.46
3425.85
1493.98
1158.44
449.804
437.995
316.852
283.105
159.519
122.829
71.0037
55.7066
44.1855
43.5644
42.3232
42.2989
41.9146
18248.8
8575.37
5304.1
2782.75
2450.03
1057.02
791.796
348.407
306.444
215.777
205.428
157.899
144.461
106.947
66.0491
40.1527
33.8923
32.2172
32.384
34.005
4458.33
2716.88
1659.69
1374.25
1043.7
630.075
360.725
208.809
129.073
78.6041
45.164
22.7829
9.92153
3.56013
1.05121
0.27254
0.101277
0.0853033
0.147984
0.251568
183.992
575.284
62.3847
283.724
361.291
240.079
143.882
303.824
60.8205
90.4474
402.432
427.646
165.821
224.546
68.7064
488.935
241.243
254.089
137.528
406.989
205.535
63.0848
198.096
91.322
141.134
160.084
164.918
79.0303
181.652
487.214
342.754
1122.42
854.564
1813.32
1683.52
83.6008
299.34
139.583
689.53
373.089
1548.73
721.824
27.5817
113.137
161.962
387.42
192.643
517.59
550.251
1.16271
82.8821
12.4805
53.8275
21.5028
495.799
112.17
3.84363
20.4943
7.65066
16.6882
57.6478
142.109
168.371
16.2265
9.94762
25.3833
112.073
117.686
176.448
204.224
9.15124
16.2406
9.57396
82.6881
35.5507
176.726
46.6261
9.78189
12.3098
14.9464
34.0408
33.8185
40.9507
45.9356
565.455
717.023
503.958
2367.58
2208.02
2068.72
2082.51
224.682
482.315
248.098
2070.56
1103.26
2003.46
1128.46
161.747
159.53
132.858
773.185
529.408
952.3
519.364
12.6954
138.822
34.8416
528.471
108.623
485.178
130.437
7.12454
16.6863
4.83544
116.985
158.726
76.7516
42.3859
23.4298
3.98227
8.48035
166.372
208.159
43.2376
97.6588
9.24935
9.77323
7.67529
190.04
46.4387
97.8144
29.7431
16.9129
9.59585
19.3222
32.5592
27.6741
16.7853
14.4424
427.254
420.098
242.32
1267.04
1392.07
950.353
830.087
192.374
214.805
128.028
1367.18
815.98
780.642
494.215
98.167
126.302
88.9109
745.242
464.342
498.203
506.886
50.2294
63.5583
34.7087
422.728
180.315
357.635
145.685
10.5836
29.0166
23.6166
132.746
48.3737
114.761
77.6961
5.18637
23.306
19.0448
27.5859
46.5287
69.7259
36.2751
7.74913
17.7621
12.0234
51.6367
16.2964
26.0341
25.656
19.1618
11.9247
26.2926
11.9296
14.0439
32.5567
73.6938
228.866
405.473
224.698
1099.39
995.138
1094.79
1047.22
114.921
196.203
124.856
933.556
538.466
1010.48
733.494
92.1296
103.088
86.1932
511.952
465.933
655.139
504.812
34.1295
84.2533
58.603
357.625
158.078
468.36
298.687
22.0434
51.104
36.2685
123.823
80.3357
258.694
184.72
20.3485
32.5872
28.2841
75.6241
45.9157
165.826
106.922
12.0953
25.1152
26.7688
35.7393
33.4582
83.1457
87.5418
25.5308
27.3492
11.7326
51.5106
85.9047
98.4711
71.4118
1017.59
2089.86
1833.06
1750.53
1247.74
2310.23
1855.49
484.467
1692.29
977.943
1097.45
797.519
1705.56
1335.21
192.927
751.291
659.576
718.088
159.595
1229.26
955.727
70.1078
579.819
135.397
160.938
198.125
536.79
202.987
102.395
164.309
195.274
170.295
218.048
242.047
299.466
136.25
214.951
231.975
229.492
145.698
323.723
275.884
37.1778
196.145
61.2422
103.765
45.3832
226.744
138.31
35.7494
54.6129
56.0844
37.5952
20.0159
126.262
95.5168
2324.13
2535.64
2351.48
2769.87
2228.96
2843.08
2572.11
1361.15
2243.37
1472.5
2059.82
1592.26
2419.02
1925.45
658.353
1255.55
681.023
1391.09
1063
1635.77
1048.33
123.99
608.775
133.148
796.488
163.472
728.962
76.1401
180.036
83.777
57.1687
180.024
264.437
58.1544
88.2992
234.808
62.4833
114.288
296.32
293.993
100.236
122.372
59.8358
112.184
45.392
257.92
142.825
162.285
139.211
41.7985
25.5684
15.2089
124.763
93.1226
96.1448
55.4606
1714
1432.87
1154.12
2400.79
2284.38
2147.33
1850.51
1131.72
1065.31
723.497
2183.22
1786.48
1732.44
1487.74
613.533
726.132
600.794
1566.75
933.13
1401.37
678.72
198.234
424.92
185.086
667.698
93.974
502.835
244.985
53.4412
148.529
99.5974
65.1579
58.1967
203.564
106.885
70.3275
86.815
36.1611
74.4968
81.6467
66.8764
26.951
28.2292
25.5009
25.3761
113.699
105.842
25.6236
20.3481
14.1986
33.933
77.4389
64.3209
35.3982
21.9695
51.3534
1292.35
1512.9
1282.24
2136.58
1817.36
1928.96
1627.34
769.547
1210.47
884.338
1680.7
1335.42
1506.92
1123.55
542.021
795.246
595.063
1210.72
626.864
1025.7
711.796
198.997
538.195
338.194
485.686
258.295
624.116
409.183
101.833
294.409
208.153
212.824
124.508
367.282
257.275
49.698
186.562
124.79
97.7302
32.477
223.994
135.428
36.0133
100.495
94.3056
27.0196
27.0151
121.106
118.754
92.6367
109.273
81.0341
31.9145
73.2475
130.421
130.463
1272.03
2270.73
1784.61
1871.2
1263.97
2039.94
1512.82
814.662
1635.69
1352.17
1092.04
664.392
1375.38
1188.56
163.839
1298.77
888.307
467.472
320.529
1110.2
313.32
228.661
419.626
239.428
382.699
326.458
265.858
418.659
237.184
280.59
338.828
272.271
277.711
438.2
439.061
139.683
351.023
279.265
259.465
113.012
420.837
292.837
51.3416
236.769
179.926
85.3952
48.5841
282.675
304.575
19.9523
167.944
122.323
34.5463
3.71944
305.494
256.399
2115.05
2847
2512.79
2279.44
1707.24
2525.69
2040.49
1560.12
2352.65
1860.56
1563.86
1355.26
1882.85
1491.89
1079.5
1600
1031.19
1302.96
466.859
1377.02
492.8
279.481
313.712
746.748
518.473
370.694
257.045
592.714
234.083
254.79
142.224
267.73
183.912
303.735
183.653
309.379
94.2377
160.289
422.618
358.868
232.359
413.941
190.782
220.209
195.674
347.199
345.891
445.232
384.535
120.707
148.195
78.5245
340.22
298.091
340.081
291.6
2329.57
2272.38
1946.06
2422.97
2031.71
2272.56
1879.57
1787.14
1831.87
1562.02
1884.95
1447.83
1739.26
1262.37
920.885
1406.59
653.161
1296.32
494.184
1065.78
515.978
277.912
268.771
556.589
435.648
340.057
204.294
477.118
54.2161
55.2642
88.2526
48.2376
62.8228
46.2302
71.6062
105.583
57.9693
34.0825
166.636
400.162
80.8551
318.108
162.889
45.9401
26.6847
441.654
372.18
355.305
249.116
56.485
24.6402
46.1319
315.701
256.132
184.133
169.924
1882.32
2022.57
1678.94
2273.63
1838.58
2178.5
1732.29
1368.59
1545.71
1158.22
1671.59
1169.23
1579.89
1224.47
605.387
1054.85
721.037
990.704
520.851
1114.32
793.751
254.648
632.544
431.216
428.13
244.605
725
582.045
116.893
390.692
274.863
203.062
121.699
544.533
437.434
34.2208
237.209
139.497
125.298
309.029
404.359
338.968
28.1656
124.789
131.859
328.07
199.019
313.753
280.301
62.7257
147.918
143.49
171.503
232.994
275.819
193.109
1256.39
1946.42
1428.63
1907.75
1259.78
1727.81
1268.44
646.234
1296.16
1064.58
1119.71
861.819
1165.42
926.883
414.251
917.667
322.531
810.969
764.69
828.015
780.384
355.91
341.701
494.411
738.591
467.565
795.131
731.318
291.931
499.906
468.376
423.888
347.113
691.197
525.828
112.269
434.492
305.052
296.58
221.275
453.045
372.537
56.3194
303.986
340.98
220.897
245.745
388.252
429.181
7.30296
342.081
270.494
246.66
251.262
425.106
373.177
1578.47
2334.28
1843.43
1730.44
1305.72
1794.64
1371.34
1231.28
1695.08
1347.88
1212.67
998.854
1277.85
1074.43
365.707
1231.74
399.284
887.935
762.17
986.01
742.369
454.327
267.039
275.345
773.413
745.942
714.335
660.45
469.693
293.674
310.632
712.268
564.408
642.932
576.388
376.549
316.607
498.63
502.563
445.769
581.509
724.102
399.057
525.447
464.332
471.509
524.233
752.454
741.8
335.896
427.768
388.672
521.018
434.878
726.938
640.026
1849.48
2212.41
1785.97
1808.89
1378.31
2004.16
1505.94
1293.6
1631.49
1136.92
1271.15
1053.71
1352.12
1019.38
423.553
960.473
518.463
977.228
755.399
954.964
814.253
216.942
426.664
225.223
703.097
620.161
756.917
598.955
234.827
179.943
123.708
604.062
581.311
588.407
679.613
507.295
157.359
476.274
602.069
802.585
755.378
920.56
460.166
495.055
373.273
824.087
785.59
915.875
839.966
363.827
319.235
296.829
767.427
675.407
828.212
754.21
1776.87
2212.08
1736
2153.04
1594.77
2292.35
1752.59
1093.12
1584.87
1252.1
1428.35
1063.86
1619.61
1378.05
542.341
1142.9
853.693
991.528
849.609
1299.89
1130.97
288.183
795.111
669.641
801.652
688.015
1092.03
1000.77
210.012
632.53
540.793
684.398
763.921
974.562
936.537
471.872
514.327
460.657
821.315
922.215
921.894
843.371
346.498
428.721
367.951
910.678
841.571
793.077
655.777
355.687
353.655
212.846
833.367
742.785
600.216
409.999
1290.31
1694.95
1262.24
2444.06
1675.1
2045.03
1651.2
976.421
1175.14
1016.11
1590.04
1555.48
1578.42
1618.42
877.976
974.719
951.322
1626.63
1417.97
1676.01
1628.89
518.953
939.203
799.707
1280.18
943.469
1535.77
1233.32
377.477
746.232
536.497
905.048
724.214
1131.46
793.228
287.685
463.022
410.042
700.206
680.362
738.133
762.266
324.571
429.895
467.353
703.923
716.008
780.003
807.82
334.112
464.439
429.1
727.669
726.927
813.5
816.959
1275.1
1658.83
1286.5
1975.6
1652.57
1830.69
1615.28
1053.08
1219.85
1106.9
1588.67
1633.38
1586.81
1664.52
944.043
1061.33
928.67
1674.09
1640.13
1676.19
1598.24
828.187
890.172
792.615
1562.77
1287.77
1533.36
1353
580.493
760.378
658.245
1185
821.623
1277.6
1045.67
476.478
658.143
782.646
757.87
798.33
1032.99
1155.43
556.464
813.694
814.65
836.525
868.641
1203.02
1199.29
478.137
796.587
678.54
868.257
837.361
1165.01
1013.2
1288.73
1958.94
1457.07
1879.86
1616.38
2285.69
1834.8
1093.76
1318.97
1082.63
1584.06
1659.58
1727.59
1670.99
929.894
1051.3
947.375
1664.69
1569.72
1663.36
1527.58
771.935
893.342
772.748
1512.54
1368.79
1469.27
1419.72
694.609
771.498
856.751
1309.5
1167.09
1430.07
1526.92
879.766
919.616
1040.45
1175.21
1312.84
1575.45
1641.05
875.963
1032.93
964.023
1346.87
1305.24
1624.2
1467
718.107
945.177
805.363
1262.2
1066.66
1404.56
1160.63
1572.23
2355.21
1783.42
2623.72
2001.96
2958.14
2221.76
1135.36
1654.92
1436.08
1864.97
1721.28
2092.6
1940.19
978.098
1371.7
1231.21
1713.18
1571.77
1924.84
1795.61
843.086
1190.85
1108.73
1517.86
1484.17
1744.59
1717.36
928.902
1088.07
1061.2
1501.55
1600.77
1718.75
1677.41
1045.6
1042.27
932.727
1639.28
1673.06
1628.21
1421.74
960.569
878.053
723.436
1630.27
1456.14
1346.21
1134.52
787.843
664.531
486.018
1388.86
1138.91
1074.53
949.196
159.942
190.756
131.885
215.928
174.023
201.796
151.441
248.05
702.287
238.682
423.062
349.777
537.926
148.888
120.994
88.7635
101.808
62.4687
151.462
99.9661
76.3528
212.337
360.605
255.386
288.932
232.609
410.591
208.619
171.426
277.56
296.408
284.538
231.112
193.72
221.508
175.11
295.565
261.967
146.681
362.722
121.682
178.821
129.06
77.8704
241.187
135.627
145.244
80.8867
188.423
261.762
278.404
235.425
344.697
214.709
325.06
277.283
168.385
87.1547
79.5416
64.5277
117.06
118.881
76.6152
188.293
163.472
88.3935
95.1963
145.548
199.838
83.729
298.277
331.288
420.554
339.645
359.95
255.966
368.63
317.964
386.195
428.058
378.708
375.72
324.98
378.753
236.889
86.8957
283.29
192.249
198.5
108.06
305.114
244.064
139.293
307.471
219.798
245.468
120.599
310.51
177.426
121.719
136.427
60.891
218.57
103.742
109.662
335.203
519.107
374.571
457.05
371.785
472.81
352.467
247.826
221.338
295.023
228.154
273.166
199.946
280.612
222.296
319.312
175.703
323.672
172.947
382.534
214.906
147.049
72.5513
142.157
118.757
106.728
101.964
157.581
296.82
422.413
381.936
323.862
417.137
329.105
283.538
222.336
211.422
164.868
258.411
178.469
262.437
213.33
43.5506
56.7326
44.4751
51.9677
48.1614
44.1136
40.1583
105.94
186.137
166.423
186.283
127.855
158.613
153.469
66.8647
53.2325
135.38
81.1282
77.2308
46.2658
119.855
57.9487
59.9506
153.322
91.8034
62.0255
72.7269
76.009
46.4521
81.4935
152.349
68.0473
57.8746
43.7102
66.3539
96.0046
171.836
129.349
130.577
138.397
139.516
96.364
65.0385
74.5183
61.9678
98.72
47.7306
107.645
70.0014
244.69
393.149
269.896
643.801
569.853
652.718
592.569
119.728
166.428
138.971
430.621
288.22
401.46
330.931
14.3942
108.524
43.3116
158.841
33.8259
252.619
99.41
0.880196
5.4068
0.902783
3.92288
1.22999
11.6333
1.783
3.56937
1.07463
4.06806
0.86127
3.60929
1.483
9.33484
6.0572
13.2373
15.6657
7.02394
7.05489
33.4536
37.1747
5.4148
13.7627
12.3167
5.94958
5.69054
26.1555
17.4828
1.67679
11.4189
9.6925
5.31631
4.2738
15.0837
14.2894
580.658
902.188
722.209
1288.14
1137.9
1611.18
1606.94
520.072
281.699
379.179
522.236
476.124
546.947
294.933
215.126
79.2593
170.254
251.908
176.627
376.341
118.094
291.614
96.7314
110.284
270.254
267.693
265.126
114.675
14.0129
2.29441
13.7584
29.5254
6.20105
49.7284
4.03444
20.9435
2.01112
5.53543
3.3022
3.8757
24.7892
5.09877
80.4837
15.5146
10.4765
38.1783
57.1136
47.5014
20.0813
31.6232
10.4216
14.6735
39.0605
28.6362
48.5006
10.6395
23.8891
10.4629
10.6739
20.983
20.4925
23.2685
12.2146
10.7585
23.8961
16.731
25.259
15.6431
30.4867
19.1608
1035.77
1043.13
949.384
1838.3
2203.63
1639.55
1855.68
1289.67
593.647
770.373
1132.11
1267.57
1175.6
639.015
1235.18
445.568
571.582
1379.22
1203.79
1431.61
464.616
323.368
121.342
152.551
270.859
283.004
322.486
121.256
294.376
62.6812
154.67
386.061
243.752
384.126
99.5884
47.1417
17.5686
10.1344
67.1476
76.91
38.5454
10.2064
41.6358
16.1808
4.41644
49.7957
76.9157
30.5639
7.01929
60.5168
10.2983
18.0931
95.8316
56.9591
87.4329
11.3566
29.2126
16.0846
11.7861
26.8954
31.7759
22.9336
16.2673
17.4929
23.781
18.3749
19.9632
17.0869
16.2339
17.1426
701.776
686.308
575.692
1095.85
1063.02
1004.85
920.617
613.931
542.696
549.901
704.049
704.93
659.856
476.19
416.569
359.044
338.92
672.896
592.453
493.814
299.216
360.779
102.631
144.574
369.07
365.183
331.967
113.53
188.609
109.021
79.2499
258.629
242.318
200.275
80.844
62.9615
22.7459
36.5322
70.6882
48.8421
80.5379
29.0169
15.3879
5.1363
17.4117
9.37554
6.2142
26.4374
11.3201
5.08315
6.52858
5.91077
10.9261
10.9409
5.74156
6.1476
24.19
13.0697
11.3349
9.80452
22.7601
11.358
13.0925
21.8541
40.5014
27.6691
25.0825
23.1582
57.632
48.6537
533.455
675.089
570.198
1087.4
1019.71
1099.8
1031.22
507.888
316.937
384.774
502.286
469.277
518.827
313.444
418.309
178.395
201.435
386.1
338.359
455.624
176.34
208.429
105.288
97.5246
208.52
251.442
204.906
91.5223
161.969
53.292
79.3394
183.109
122.502
206.523
64.9168
57.3168
24.8709
33.293
46.8042
40.2288
73.3679
27.4424
42.4193
22.033
21.4559
40.0535
39.7579
44.6722
20.4681
18.8633
14.9965
15.8138
26.8112
19.4216
20.7092
14.347
55.0002
14.8412
15.7757
31.0709
46.9542
50.165
15.7364
27.5192
23.8825
14.191
79.6581
59.3318
59.5689
33.2998
312.404
459.367