/*--------------------------------*- C++ -*----------------------------------*\
  =========                 |
  \\      /  F ield         | OpenFOAM: The Open Source CFD Toolbox
   \\    /   O peration     | Website:  https://openfoam.org
    \\  /    A nd           | Version:  10
     \\/     M anipulation  |
\*---------------------------------------------------------------------------*/
FoamFile
{
    format      ascii;
    class       volScalarField;
    location    "1.3";
    object      k_0;
}
// * * * * * * * * * * * * * * * * * * * * * * * * * * * * * * * * * * * * * //

dimensions      [0 2 -2 0 0 0 0];

internalField   nonuniform List<scalar> 
12920
(
1293.52
1077.55
1007.91
607.182
419.239
343.609
278.763
227.454
177.873
148.519
134.59
134.386
135.45
136.727
135.06
129.739
119.074
88.4717
68.959
36.6817
1301.15
1872.99
1719.3
1232.08
805.363
592.18
428.501
320.636
235.642
176.81
134.284
110.57
94.8432
84.8989
83.2646
83.7994
82.7244
71.5015
49.26
22.1555
2678.16
2821.29
2685.92
2173.46
1307.95
799.533
496.121
355.621
260.086
188.604
127.759
86.1403
63.839
54.2247
49.492
40.5694
30.663
20.0319
12.8764
5.26642
3201.49
2590.62
2359.42
1329.66
726.974
507.098
299.941
206.322
151.436
131.343
95.6648
62.2388
36.9682
22.1743
13.0647
6.88077
4.0092
2.2687
1.50601
0.539913
5727.37
3276.54
1967.07
1039.5
684.103
410.919
231.142
116.635
55.3788
43.6258
30.9206
19.2616
9.07569
3.97053
1.59341
0.608282
0.272428
0.134399
0.0894857
0.0304666
4124.94
2810.69
2246.72
1905.75
1291.01
694.267
355.181
163.881
53.1365
19.4185
6.65586
3.10515
1.06449
0.329705
0.0831828
0.0223513
0.00887617
0.00494709
0.00390058
0.00209557
5947.17
2588.45
1903.23
1281.09
823.739
497.954
347.289
175.654
42.4757
5.75479
1.05912
0.687506
0.716225
0.399302
0.245147
0.0596184
0.0102191
0.00233796
0.00136193
0.00120712
2213.8
2725.01
2051.74
1285.18
928.271
661.817
390.42
171.739
65.8581
1.46052
0.906107
5.93048
5.668
4.28559
4.38282
1.17726
0.212376
0.0310268
0.00498236
0.00159408
2492.01
2619.18
1840.98
1542.62
1307.57
730.392
375.391
129.351
100.891
7.43371
1.47852
9.95688
12.908
9.44096
15.7488
6.08864
1.42975
0.245747
0.0350544
0.00474852
5122.5
3152.02
1903.69
1588.09
1479.42
1112.01
706.176
531.135
130.738
135.76
16.371
8.03756
16.9835
12.5589
25.7326
8.43078
2.43973
0.522605
0.0877939
0.0119382
1977.44
1520.52
1349.96
1174.58
1038.58
772.552
621.452
402.971
138.769
111.794
30.9917
6.68311
6.17966
9.96864
29.9741
10.2658
2.04982
0.33161
0.0476406
0.00644735
2297.23
2007.41
1780.85
1524.35
1108.36
652.027
384.746
203.776
105.197
67.4977
28.1009
21.9595
17.8938
12.5055
42.2167
10.0358
1.90442
0.302467
0.0461503
0.00682843
7461.92
3469.91
1953.52
1498.34
1106.18
828.194
433.711
237.513
177.151
148.531
103.466
78.442
41.4578
38.1747
48.8749
25.9456
9.75752
2.79834
0.692835
0.119974
4676.74
4996.78
2668.75
1686.2
1237.97
835.561
557.85
343.484
236.602
169.633
127.543
104.365
92.7036
85.1086
79.8568
71.6278
48.3095
19.6873
6.02905
1.27999
13987.2
11714.3
3465.56
1300.14
714.489
409.339
290.165
215.539
173.816
133.05
108.526
95.7143
92.778
85.6613
68.8974
50.4604
30.5492
14.0753
5.19442
1.28877
5691.6
4471.97
1866.83
1006.5
583.675
394.587
297.016
228.55
177.458
121.987
81.0438
48.0941
33.4645
27.7392
26.5236
26.1903
23.7654
15.1052
8.13329
2.97676
616.209
818.943
1161.21
1205.47
986.34
800.004
575.14
376.936
223.996
117.999
57.3104
27.1147
14.9826
12.1531
12.3578
14.3704
15.1699
13.6768
8.47552
2.941
2991.77
1427.02
1170.53
1185.62
1115.32
1059.93
877.646
633.327
412.768
259.145
169.074
109.544
67.7815
39.0939
23.0161
15.1946
10.9637
7.10976
3.50628
0.93142
2161.78
1665.26
1394.2
1295.99
961.193
680.221
459.999
303.284
197.142
138.184
106.961
78.8433
50.718
26.9489
12.6956
5.41471
2.25103
0.824327
0.263121
0.0529029
54.5774
448.707
630.535
583.178
486.057
444.039
337.7
227.599
160.014
109.955
71.2573
40.9455
19.8889
7.86479
2.63919
0.766277
0.199822
0.0477743
0.0118497
0.00299544
873.466
2587.3
2108.5
1319.68
845.362
627.175
490.057
419.857
372.253
343.338
315.704
291.304
268.29
242.489
208.537
177.951
170.429
164.818
155.181
108.182
2124.54
4676.23
4256.82
3194.2
1821.09
1310.61
907.246
718.9
550.705
449.192
338.601
247.544
159.922
92.6157
61.9194
60.1668
65.4677
60.3586
53.454
32.4052
5250.59
5510.1
5422.51
4409.25
2756.29
1761.63
1102.44
823.58
593.51
433.292
278.319
155.338
74.3587
38.9172
28.5749
20.4947
14.2836
8.68499
7.76837
4.14957
3113.52
6420.97
4980.64
2953.98
1683.25
1280.07
710.631
531.41
366.116
306.813
213.677
127.538
60.2507
22.981
7.69527
2.38791
1.01993
0.623282
0.629664
0.334409
22782.6
11821.7
4610.43
2143.51
1414.86
941.805
497.383
255.718
104.213
77.2202
59.4223
40.0884
16.5715
5.0701
1.27394
0.287753
0.0817853
0.0388064
0.03634
0.0181846
9110.64
6646.36
4940.95
3889.39
1973.84
1206.47
633.903
271.635
70.6929
26.75
8.93124
4.39829
1.41202
0.378875
0.0845565
0.0177583
0.00493216
0.00237295
0.00206429
0.00117288
16181.3
5696.93
4595.42
2801.3
1794.48
1205.75
831.236
281.178
53.4359
12.5709
2.50156
0.92278
0.717352
0.479526
0.397615
0.091482
0.0132477
0.00226877
0.000913009
0.000618479
4408.86
7362.29
5163.9
3077.21
2236.48
1623.25
1154.69
687.074
171.871
10.4498
2.53664
10.9299
6.90218
5.90186
7.13939
1.67463
0.275241
0.0373975
0.00524001
0.00114002
9345.52
6532.43
4377.81
3565.35
2693.66
2035.83
1428.78
843.401
478.044
71.2576
55.3149
145.516
92.0521
33.991
33.5681
8.35338
1.74053
0.290977
0.0471343
0.00704082
18024.8
5977.35
3673.39
3626.61
3316.68
3177.04
2674.57
2158.46
1008.59
634.13
131.237
198.847
209.59
44.2204
38.1163
11.6996
2.88599
0.578328
0.106899
0.0166656
3260.47
3640.78
2873.15
2759.68
2250.26
1999.59
1771.29
1667.25
1020.89
520.933
148.013
37.7749
72.3818
15.2272
22.8879
16.3646
3.17948
0.508558
0.0835987
0.0132122
8190.63
6548.48
4654.81
3640.1
2560.49
2101.74
1569.53
1183.08
736.607
409.775
156.642
92.0219
37.3186
53.1181
98.5487
18.978
3.05183
0.433481
0.0644896
0.0094099
17380.5
8512.82
4721.37
3267.96
2405.43
1806.8
1319.79
997.506
782.943
534.009
367.777
236.758
125.482
118.799
71.3952
31.1582
10.2431
2.74986
0.637955
0.102717
22776.5
16127.7
7068.59
3757.14
2559.6
1818.82
1249.95
802.417
537.362
361.138
244.112
188.132
161.223
146.99
135.705
117.359
71.5472
27.5964
7.67792
1.45792
19055.7
8819
5148.15
2500.02
1415.5
915.984
696.459
514.82
408.762
344.311
318.417
294.03
269.814
227.02
167.959
104.372
54.8411
23.1269
8.19847
1.99473
7533.36
3875.14
3008.49
2362.51
1167.12
885.287
584.349
446.737
377.514
282.567
212.384
126.196
78.7671
47.2516
37.9108
31.783
22.991
13.9975
7.51592
2.57267
1028.7
1409.2
2287.71
2921.77
2267.9
1760.55
977.419
508.81
228.836
109.78
52.2074
23.2388
10.82
6.7932
6.99692
9.82982
10.9684
10.1609
6.51397
2.02405
4811.3
4714.56
3251.83
3021.66
2414.85
2209.58
1603.71
1151.49
627.611
294.732
129.43
60.7472
34.2591
20.7146
13.4467
9.28858
6.20869
3.4038
1.46896
0.350079
6135.96
5251.22
3526.39
2737.93
1512.6
1249.45
830.843
618.747
357.769
207.144
113.024
63.9344
32.1889
13.4269
4.95994
1.68057
0.586815
0.189257
0.063078
0.0134684
1903.31
2068.98
1721.04
1052.04
798.238
762.552
625.129
418.915
273.244
163.825
88.3363
42.6845
17.6677
6.00308
1.7262
0.423154
0.0955677
0.0212065
0.00537401
0.00177591
4418.04
3658.73
2501.8
1574.51
1035.94
757.953
611.88
531.341
463.816
412.454
370.648
330.078
286.59
241.867
196.309
152.698
131.857
130.929
132.051
116.565
12635.1
6431.3
5208.1
3500.12
2211.18
1545.47
1125.37
938.748
758.999
648.235
487.21
329.378
184.465
93.326
45.519
29.1683
30.6161
39.943
58.7775
49.9335
6836.64
6595.86
6125.6
5073.07
3213.11
2034.81
1334.34
1038.51
778.031
590.42
375.55
201.165
84.994
29.2195
10.1512
5.01848
4.63666
5.76192
9.97805
7.82195
16801.6
8709.83
5784.6
3551.03
2218.73
1562.28
978.383
759.958
536.622
442.802
288.586
159.425
64.6163
19.4242
4.42439
0.969593
0.50792
0.612329
1.09206
0.776401
9651.25
7846.3
5347.65
2675.81
1959.8
1204.23
749.001
418.092
195.004
127.027
69.2654
34.5379
11.7208
3.07304
0.635807
0.129552
0.0548629
0.0559392
0.0793844
0.0531652
7057.71
8959.02
6020.13
3760.52
2216.12
1368.96
871.036
411.884
157.708
70.2631
20.427
5.76868
1.27968
0.272067
0.0597879
0.0152287
0.00567145
0.00397453
0.004319
0.00277134
12656.1
8382.76
5536.76
3251.05
2380.87
1523.74
1084.4
390.471
166.806
71.342
13.2173
2.936
0.679535
0.190983
0.180272
0.120884
0.0527248
0.0142582
0.00277787
0.00086118
16431.4
10353.9
6164.4
3860.97
2803.55
2001.83
1563.56
742.042
172.267
118.128
19.4369
33.6219
9.39702
3.35613
3.28337
1.98872
1.27088
0.674741
0.25963
0.0528731
10816
9845.74
5833.21
4207.44
2930.58
2305.39
1793.83
1108.7
677.539
196.617
190.583
241.56
99.5444
40.428
21.3622
6.9139
4.48152
3.97121
3.32365
1.48423
7939.77
6683.22
4983.68
4359.97
3420.66
3280.61
2674.96
1937.98
1423.06
639.617
218.88
328.67
276.03
170.334
117.237
27.9065
8.97475
5.62353
4.48158
2.04523
10551.8
7381.03
4701.9
4084.22
2936.46
2795.9
2540.27
2211.45
1537.52
516.288
54.911
63.9325
179.72
112.609
71.1018
40.7902
11.9577
6.30858
4.81882
2.16717
10534
9009.29
5592.7
4170.54
3031.6
2678.72
2228.25
1733.6
1193.65
462.871
207.413
85.5302
33.4336
30.2272
124.827
28.2539
7.20336
3.93205
3.02949
1.37003
17890.6
9942.42
5943.39
3942.04
2946.01
2144.71
1735.38
1332.82
1039.32
719.58
544.24
356.73
226.928
201.139
58.9605
19.3774
6.3375
1.92405
0.49679
0.0892458
25435.3
19144.8
8975.93
4524.83
3025.71
2094.53
1556.58
1118.15
847.661
639.836
468.586
361.378
290.447
245.755
196.822
132.849
63.2035
19.7197
4.46643
0.722473
15663.4
11412.3
5936.96
2872.26
1870.55
1153.61
1056
838.091
700.276
567.675
453.762
351.777
269.655
196.913
134.8
73.4012
29.5147
8.80316
2.3225
0.473452
13811.2
5718.05
4388.67
2638.79
1493.53
1003.62
724.973
558.065
511.775
403.885
310.178
186.097
107.125
50.345
24.7532
11.2392
4.95543
2.26426
1.58382
0.591475
5110.23
5788.01
5160.67
3940.51
2313.58
1522.64
761.031
338.663
209.36
128.211
78.9972
33.6749
13.4431
5.00502
2.15333
1.53448
1.8249
2.13633
1.7959
0.542905
3450.39
6302.83
5288.15
3891.93
2654.64
2173
1336.14
718.811
285.634
84.6196
24.0396
7.85373
3.0101
1.74878
1.57803
1.52797
1.13823
0.523699
0.194302
0.0417502
4160.39
5650.84
4253.37
3208.77
1840.75
1438.9
852.249
485.852
226.116
100.112
45.9467
18.8901
7.43409
2.45837
0.727256
0.198072
0.0527646
0.0136923
0.00485477
0.00146264
4157.1
3671.26
2004.53
1282.51
1084.03
912.438
615.239
386.315
244.234
143.328
76.3369
34.4129
13.0948
4.37393
1.28169
0.321524
0.0725199
0.0158704
0.00397779
0.00150889
5145.55
4250.04
2612.29
1696.56
1119.21
805.117
651.493
555.628
476.421
425.544
395.782
368.806
330.293
285.397
234.187
184.084
146.353
133.092
131.102
116.842
26589.9
8756.2
5526.52
3218.63
2389.44
1632.74
1332.93
1150.07
1003.58
899.28
724.886
561.886
408.258
271.608
155.696
86.9852
74.0358
85.2478
116.931
98.9121
7575.86
7256.86
7302.88
5152.75
3334.98
2077.23
1567.49
1239.14
1004.87
816.554
583.757
374.57
215.493
110.041
51.593
24.9488
23.6656
30.1356
40.917
27.4481
6900.55
7089.84
6447.84
3822.92
2666.57
1699.34
1272.9
984.924
747.512
607.914
393.49
210.481
86.5784
29.0444
8.34765
2.64844
2.03052
2.5393
4.25505
2.83516
8739.82
9041.84
6046.92
3187.3
2450.27
1346.21
1044.48
615.396
387.412
267.634
148.116
70.359
25.7449
7.10795
1.82329
0.573528
0.374572
0.37099
0.428251
0.301712
10733.2
16631.2
7414.6
3902.3
2619.05
1448.09
1168.3
634.979
370.196
236.628
103.58
41.6814
11.7389
2.86113
0.77048
0.286783
0.10595
0.0606178
0.0560274
0.0555108
16424.6
9447.39
6372.64
3765.23
2890.9
1671.7
1313.4
617.278
420.185
216.185
55.2641
10.6971
6.23045
3.97396
5.71418
5.57597
3.45459
1.1451
0.289187
0.104312
22523.3
11633
7058.23
4295.58
3251.51
2157.2
1747.4
849.187
474.274
303.951
56.8957
26.2554
5.88775
5.35646
55.3412
55.3719
47.5355
33.559
20.0753
7.1782
33494.2
18688.2
7151.11
4412.64
2976.71
2262.17
1870.96
1075.13
474.554
464.551
299.419
257.859
83.2484
43.9209
52.2499
97.0231
90.2869
84.6459
75.289
48.4102
5447.36
8160.39
6186.28
4369.29
3282.33
2776.12
2105.61
1437.37
1120.97
301.998
478.906
448.844
374.329
397.935
318.853
156.33
113
98.9004
87.463
57.8899
7163.9
8224.81
6108.21
4311.56
3102.74
2693.38
2271.95
1687.99
1140.03
270.32
220.428
251.741
537.128
405.358
398.654
192.417
125.65
103.169
90.6612
60.8319
9722.15
10637.3
7083.58
4541.84
3284.74
2672.87
2242.51
1589.45
916.52
459.143
243.349
250.336
474.763
323.09
395.56
121.254
93.1051
81.6709
72.7623
49.9863
27609.8
10576
6948.74
4398.26
3430
2304.82
1936.6
1502.84
1214.21
960.291
800.833
622.081
492.01
270.204
60.3637
38.0914
25.1247
14.8782
9.74651
4.30615
18527.3
14944.9
8724.01
4804.89
3445.73
2204.86
1759.22
1327.84
1130.62
935.598
755.818
559.928
367.318
235.937
146.808
73.1493
24.3679
5.3677
1.16129
0.346972
10628
12414.9
7277.83
3225.13
2312.38
1326.73
1379.04
1127.17
982.559
781.417
612.59
419.445
268.169
142.478
63.9572
20.8619
5.1826
1.31099
0.539124
0.327982
27033.2
8762.38
5393.69
2564.87
1883.8
1066.44
928.112
733.197
699.402
546.091
412.068
231.52
121.289
51.5542
22.6882
9.59637
4.31821
1.65712
0.787442
0.499739
29339.4
11488.6
6323.12
3634.75
2273.39
1154.1
673.901
353.492
291.382
189.71
134.441
65.6886
35.4229
16.3272
8.12125
3.21615
0.993193
0.571539
0.495407
0.333167
25241.9
10521.1
6081.44
3883.36
2738.3
1780.58
976.45
409.734
164.711
72.5491
41.7111
20.7423
11.477
5.33639
2.3877
0.754165
0.4325
0.312761
0.254134
0.217215
6748.36
7386.84
4495.7
2934.78
1889.47
1242.93
668.348
298.373
144.836
76.7384
41.346
19.8994
8.93144
3.31442
1.06936
0.398039
0.23255
0.184067
0.16228
0.16134
2881.17
3497.19
1839.54
1388.45
1169.38
825.132
524.599
315.09
200.138
120.442
65.5871
30.7157
12.5437
4.44031
1.34284
0.33725
0.0759925
0.0176316
0.00628447
0.00315935
1851.86
2329.48
2293.07
1755.63
1133.46
787.51
618.64
503.826
437.404
406.39
404.37
404.62
398.063
364.445
312.361
276.378
263.617
232.731
197.719
126.753
13942.4
9475.5
5768.97
3304.76
2916.04
1716.62
1789.76
1341.24
1391.24
1157.25
1116.28
948.886
897.714
746.399
639.07
533.287
516.849
530.975
552.578
440.241
12828
8976.36
8621.95
4752.92
3692.59
2084.35
2005.45
1405.13
1387.31
1074.51
999.56
791.796
732.667
578.893
448.966
319.702
319.017
336.01
365.259
264.91
10591.1
8481.58
7652.22
4424.91
3330.02
1917.08
1761.04
1172.96
1127.25
823.505
711
489.808
392.65
250.585
146.177
80.299
66.8448
68.1351
76.8698
57.9184
10528.4
11414.7
7967.78
4419.7
3205.61
1710.8
1549.1
817.448
802.621
562.274
498.267
336.758
242.272
120.605
64.345
36.4283
29.6303
26.4446
26.4124
24.9954
67327.1
38581.5
12250.4
4808.9
3500.09
1756.31
1707.48
903.249
796.16
550.094
390.162
253.574
137.335
64.9691
30.554
17.4375
12.4537
11.9346
12.2793
14.4597
21027.6
12267.3
7853.85
4816.16
3691.03
1952.88
1800.95
911.048
814.973
405.906
178.955
73.2271
88.2737
76.5898
88.7377
87.0615
62.6215
37.5881
24.3335
20.2216
15048.2
10957.4
9147.46
5051.2
4267.48
2392.43
1849.65
1129.21
836.526
446.181
213.581
119.213
160.836
205.574
336.329
331.582
300.005
283.493
241.815
149.553
10793.3
10143.4
8313.17
4834.61
3360.33
2306.53
1938.96
1163.24
944.325
816.937
474.609
332.057
293.21
327.256
383.765
404.025
383.214
385.438
376.196
339.38
6060.91
9266.23
8052.66
4875.7
3678.41
2286.03
1643.58
1195.64
998.672
936.609
778.018
508.438
508.393
550.792
490.382
451.545
416.081
414.662
402.321
364.714
11909.9
11133.1
8034.84
4768.88
3595.43
2266.79
1671.51
1203.51
1057.74
876.147
744.231
709.701
902.424
853.319
656.003
481.992
429.656
422.742
410.255
376.537
42336.6
14929.9
8799.34
5009.7
3845.54
2608.27
2134.7
1412.92
1089.22
929.678
845.416
982.122
1028.54
939.295
636.623
428.259
403.17
399.406
392.884
367.668
33581.1
10936.3
8650.97
4922.2
4468.6
2672.25
2130.27
1645.81
1455.87
1279.89
1177.26
1021.35
704.03
447.24
349.54
319.551
282.525
232.188
203.302
139.398
18121.8
13234.9
9981.5
5188.88
4385.24
2411.84
2190.51
1533.15
1487.14
1143.43
1069.09
747.251
584.828
359.697
224.971
125.556
79.5012
55.3839
47.056
40.152
10942.7
12963.8
8887.73
3978.21
3234.74
1700.3
1972.2
1313.02
1323.17
950.3
860.013
550.551
427.75
229.631
137.979
78.0982
54.0626
45.0081
43.6715
43.4539
14375.8
11952.9
6928.35
3291.57
2884.52
1260.98
1446.31
923.938
989.194
669.699
632.578
411.518
318.42
166.658
110.74
70.1563
59.3845
54.0109
53.4063
53.7998
21323.9
10657.1
7433.56
3572.77
2886.14
1104.28
1034.37
506.357
541.22
348.237
335.613
207.54
150.565
81.0235
61.0023
45.5983
43.2892
42.8414
44.1819
45.3806
36544.2
11231.5
7171.56
3898.47
3391.19
1469.92
1141.3
441.309
431.928
310.825
276.39
153.594
118.425
68.4555
53.9338
42.9397
42.3571
41.1843
41.173
40.7781
18497.2
8602.88
5249.41
2780.74
2426.08
1036.14
778.998
341.608
301.69
212.448
202.269
154.799
141.544
103.683
63.3438
38.6766
32.8582
31.3422
31.55
33.1288
4380.62
2705.26
1661.59
1376.77
1041.36
625.652
357.366
206.813
127.846
77.7761
44.5938
22.4223
9.72274
3.46834
1.0183
0.263511
0.0992901
0.0848309
0.149598
0.251972
183.406
539.227
60.6636
272.627
364.681
226.412
145.941
305.199
60.6882
90.5089
404.02
427.402
167.707
223.79
66.1235
476.795
237.557
240.866
137.252
398.639
201.756
63.3282
195.107
88.3353
141.135
159.741
161.955
78.148
179.199
485.171
337.716
1117.14
843.977
1811.24
1672.91
85.4979
292.719
134.064
675.014
374.868
1531.73
698.237
25.7342
113.449
159.135
390.043
178.327
507.283
552.48
1.13809
75.2641
12.6754
49.0757
20.9141
482.213
112.744
3.94862
20.4784
7.43149
16.0587
59.2617
144.05
168.124
15.9462
10.0778
24.7554
112.559
115.603
176.683
203.09
9.11
15.4379
9.63071
80.1423
35.1602
173.101
45.7862
9.7252
12.4438
14.9561
33.7636
33.4444
40.872
46.0874
563.974
720.039
505.517
2374.5
2204.35
2090.01
2091.8
213.753
482.555
238.685
2057.22
1071.81
2003.81
1113.02
162.136
153.265
134.801
749.819
531.979
943.425
515.497
12.3426
138.761
32.7261
527.692
106.772
480.679
123.931
6.91578
15.856
4.68482
118.329
158.691
74.4041
42.0177
22.9954
3.91074
8.52392
166.609
207.407
43.1053
97.5785
9.30395
9.66908
7.65199
187.459
44.9393
97.3204
28.1359
16.901
9.78355
19.3733
32.0545
27.7328
16.3618
14.4521
429.055
419.751
241.696
1281.29
1402.57
948.582
828.826
187.326
214.07
127.897
1373.28
811.557
776.387
497.367
99.1547
127.304
85.3918
748.727
458.167
505.051
496.811
48.0837
61.8412
33.9719
417.705
175.692
346.425
142.643
10.233
28.4742
23.444
130.096
46.6519
112.9
77.1035
5.17819
23.1413
18.7643
26.6391
46.9313
69.1263
35.2953
7.77365
17.5602
11.897
51.395
15.4327
25.5278
25.85
19.2908
11.8867
26.5981
11.8625
14.0445
33.1661
73.7363
227.823
403.188
223.765
1096.45
989.993
1095.11
1048.23
113.642
194.866
122.683
924.8
534.733
1009.29
726.995
89.9432
101.686
85.98
514.068
459.555
650.582
503.019
33.4684
83.8568
57.6827
349.311
155.195
465.888
295.602
21.9018
50.3849
35.8956
121.932
79.9497
256.406
183.924
20.0975
32.2519
27.995
75.3112
45.0341
164.86
105.126
12.0068
24.7976
26.6853
35.1223
34.0061
82.0946
88.6067
25.8781
27.1377
11.3814
52.6707
85.866
98.8643
69.5707
1006.74
2085.1
1822.64
1742.47
1237.2
2300.23
1844.01
485.423
1677.54
955.752
1087.18
794.887
1694.48
1327.35
178.616
737.489
660.849
709.709
154.409
1224.45
934.153
69.2129
560.722
135.839
161.797
195.841
493.326
205.364
103.875
166.3
195.509
168.48
218.729
243.751
300.819
133.642
215.852
230.572
228.938
143.004
324.265
272.855
36.6505
192.219
60.2919
101.321
44.3271
223.514
136.733
35.5689
54.4377
55.9648
36.4942
19.6929
125.033
94.063
2318.33
2554.86
2359.91
2765.31
2217.9
2852.12
2569.29
1334.01
2242.13
1461.68
2048.88
1577.94
2412.77
1908.65
659.413
1239.49
675.083
1376.62
1051.09
1607.49
1026.33
121.843
599.716
126.575
760.393
162.242
695.947
71.9377
180.532
81.4347
57.1143
182.22
266.021
57.3463
89.1887
233.938
62.9812
114.058
297.694
291.985
100.63
123.936
58.2034
111.617
43.4047
255.225
140.769
163.471
136.159
42.1579
24.7065
15.2936
123.683
91.8647
93.7715
55.5753
1724
1429.82
1150.7
2408.26
2286.16
2146.39
1845.68
1129.49
1058.07
727.596
2180.93
1775.49
1727.35
1489.12
605.861
734.162
583.968
1545
912.052
1393.86
659.689
193.799
412.799
181.625
641.556
89.4955
490.204
241.347
51.7278
146.28
98.6392
63.4512
58.7653
200.604
103.57
70.6299
85.7664
35.0689
75.169
82.1458
64.6172
26.6111
26.4371
24.9504
25.5946
115.417
103.101
25.4832
20.2979
14.2195
34.8172
77.204
62.4851
35.8674
22.1756
51.2285
1286.18
1511.22
1281.94
2134.83
1809.88
1928.29
1623.17
766.758
1208.1
877.866
1671.44
1330.11
1501.16
1117.75
531.712
790.54
591.994
1199.51
613.062
1020.64
706.021
195.702
534.606
334.762
475.82
254.468
619.064
405.963
101.09
291.917
207.093
209.732
122.521
365.041
255.096
48.6265
185.232
123.272
95.7103
31.7216
221.6
134.306
36.526
99.2298
95.2829
26.765
27.1101
120.52
119.084
92.6924
109.989
79.2263
32.5871
73.8117
131.556
129.108
1261.6
2259.55
1772.84
1863.67
1254.54
2028.18
1501.94
809.586
1625.36
1348.79
1083.54
653.221
1366.8
1184.01
161.758
1296.92
846.421
455.983
323.492
1096.94
299.186
225.662
385.686
242.971
386.261
321.7
263.544
420.539
237.442
282.277
339.84
269.36
276.899
438.571
438.351
137.187
351.185
276.292
257.212
110.998
419.247
290.687
50.1448
234.053
178.391
83.6585
47.1758
281.387
303.584
19.5978
166.431
120.804
33.023
3.45428
304.2
252.227
2102.96
2851.68
2506.05
2267.15
1695.56
2519.3
2027.54
1550.15
2344.24
1840.2
1554.75
1352.31
1870.5
1479.67
1056.94
1576.83
1000.04
1295.14
436.311
1364.36
462.451
258.467
291.116
708.649
481.129
343.14
242.469
554.56
236.425
256.514
143.738
270.954
186.553
305.258
187.409
307.242
94.2685
163.921
421.993
356.787
232.321
416.303
188.73
221.649
192.495
345.68
344.621
444.877
381.191
119.185
145.384
78.6556
338.822
295.531
336.895
290.776
2327.57
2270.66
1941.02
2418.76
2020.31
2267.11
1870.36
1771.1
1827.48
1555.61
1872.68
1431.91
1729.79
1245.5
894.397
1390.64
635.265
1279.66
467.899
1046.91
504.158
266.822
248.749
535.04
408.172
326.037
190.686
456.447
53.3335
55.1211
85.7323
47.755
61.3786
46.019
69.9358
109.195
56.2355
34.2374
166.933
403.579
80.9889
322.259
159.835
46.7392
26.2352
441.708
368.298
355.755
243.434
56.8124
24.6704
46.3151
311.964
256.122
180.93
170.142
1874.16
2021.49
1673.58
2267.6
1827.58
2176.46
1725.3
1358.94
1539.11
1152.41
1660.2
1155.23
1573.15
1219.16
591.994
1049.4
714.995
975.493
511.061
1108.79
788.864
250.778
627.604
428.158
420.74
240.485
721.652
579.347
114.74
388.507
272.192
199.731
120.78
542.377
434.446
33.9459
234.483
137.94
125.479
311.825
401.992
336.7
28.174
124.234
132.297
328.021
194.99
311.767
279.332
63.7294
148.999
142.149
170.455
233.039
275.053
190.379
1247.88
1935.12
1418.65
1901.04
1255.27
1717.93
1262.66
637.241
1288.09
1055.94
1116.83
861.459
1160.92
921.54
417.248
896.803
317.753
811.325
765.798
823.97
783.785
350.794
345.143
495.264
737.705
463.428
797.521
729.626
290.616
499.595
466.879
421.186
344.938
689.349
522.461
110.256
432.09
303.327
294.18
220.869
449.69
371.922
54.9719
302.9
339.937
220.587
245.808
388.364
428.279
6.93368
340.679
265.695
246.541
250.985
423.745
371.258
1567.79
2325.15
1830.71
1719.96
1299.47
1782.74
1362.96
1225.29
1683.36
1336.67
1207.75
992.97
1271.21
1068.5
351.606
1217.21
380.835
879.995
764.278
978.396
741.741
456.482
261.135
276.465
776.229
744.658
714.167
659.56
468.629
294.204
309.889
710.676
561.428
641.505
575.565
374.789
316.364
500.326
499.473
445.277
581.3
725.171
398.076
524.774
461.277
471.735
523.526
752.424
740.86
332.8
425.029
387.622
519.787
432.455
725.976
636.934
1837.01
2205.51
1775.35
1797.58
1368.73
1993.51
1495.4
1279.45
1620.33
1121.37
1263.06
1048.01
1342.42
1013.59
406.803
944.067
509.025
970.885
753.338
950.91
810.967
215.997
419.433
220.966
701.07
619.035
753.088
596.713
234.523
176.538
123.767
602.906
581.163
587.654
683.119
509.681
160.491
478.631
603.165
803.946
759.712
921.244
456.506
494.611
368.524
823.958
784.521
915.468
839.505
363.861
315.714
297.133
766.524
672.321
827.709
750.931
1765.33
2209.62
1729.6
2142.39
1584.7
2287.35
1748.56
1080.1
1579
1247.4
1419.6
1058.5
1617.04
1376.63
534.301
1137.98
849.759
987.723
847.007
1298.55
1130.62
283.933
792.538
667.172
798.92
686.952
1092.31
1000.51
210.305
630.526
538.286
684.317
767.035
974.614
936.831
472.809
512.362
458.296
825.014
922.661
921.996
841.665
342.757
426.306
366.242
909.784
841.545
790.546
652.947
355.327
352.032
209.948
833.124
739.149
596.717
407.43
1286.63
1684.41
1257.44
2414.99
1658.81
2012.91
1628.75
977.307
1172.05
1015.34
1574.96
1532.43
1559.38
1597.98
877.867
975.142
953.978
1598.04
1385.11
1650.52
1595.34
515.354
940.526
797.676
1245.78
915.354
1501.66
1202.62
375.595
744.118
533.075
877.423
704.861
1102.46
772.864
287.764
460.112
410.006
681.122
663.672
720.08
744.351
325.076
430.17
466.828
686.564
699.278
762.446
790.354
334.795
463.641
428.599
710.056
708.481
795.555
796.337
1269.82
1645.88
1279.47
1946.48
1627.86
1798.84
1588.29
1051.13
1215
1104.77
1567.67
1612.34
1562.66
1641.54
946.543
1059.6
928.833
1649.98
1607.89
1652.43
1567.95
826.626
890.097
791.73
1529.54
1256.66
1502.66
1321.94
577.134
758.945
657.423
1155.3
800.313
1247.17
1021.12
476.65
657.856
783.751
739.335
780.824
1009.55
1131.45
555.824
813.862
813.785
818.033
850.217
1177.59
1174.02
476.989
795.428
675.652
849.266
816.404
1139.45
986.651
1280.49
1945.45
1446.9
1847.44
1587.78
2244.78
1801.78
1092
1310.6
1080.22
1558.56
1635.38
1698.11
1642.97
928.829
1050.13
945.371
1640.04
1539.47
1634.89
1498.01
771.223
890.824
772.268
1481.96
1337.89
1439.94
1390.36
694.578
771.823
860.209
1279.09
1141.39
1400.48
1496.38
880.998
923.719
1040.95
1150.1
1285.33
1543.5
1603.32
875.055
1032.4
963.917
1317.91
1277.25
1585.69
1431.89
715.405
944.686
802.05
1233.92
1038.58
1369.75
1127.29
1562.41
2346.53
1779.03
2573.14
1966.99
2907.93
2193.98
1132.58
1652.2
1434.83
1834.1
1692.7
2065.55
1910.87
976.532
1370.58
1230.9
1682.99
1541.88
1892.89
1763.01
843.394
1191
1108.74
1488.26
1454.29
1710.7
1680.38
932.288
1088.35
1061.57
1471.19
1568.3
1680.1
1636.89
1046.04
1042.22
930.878
1605.03
1632.52
1587.47
1381.83
960.728
875.504
721.041
1590.42
1419.96
1308.3
1101.64
784.253
661.641
484.654
1353.17
1105
1043.06
919.668
154.145
185.363
130.053
217.756
163.52
199.367
150.694
226.874
664.376
218.005
391.241
322.636
500.966
136.65
114.287
85.8393
93.8805
61.9421
139.446
99.0732
72.8702
200.836
335.742
253.997
272.529
226.237
380.46
204.32
169.561
281.954
300.733
289.165
230.702
196.646
223.51
164.175
272.614
246.525
143.432
334.462
114.496
175.196
127.124
78.1986
245.196
136.475
148.194
79.3365
190.983
262.863
279.622
236.611
345.641
216.028
326.066
278.086
170.645
87.0879
81.1938
65.0384
119.828
121.731
77.5579
188.922
164.082
88.8449
95.3736
146.781
199.835
84.0404
300.032
333.751
421.004
342.171
361.029
259.552
369.546
318.541
386.561
428.017
378.575
376.289
325.294
378.716
238.1
88.5332
285.281
193.505
201.781
109.305
305.595
243.96
138.832
306.989
219.602
245.257
121.131
310.071
172.022
113.337
132.006
59.0979
211.288
98.203
106.493
326.137
503.319
366.568
445.82
361.49
458.268
345.191
242.865
218.312
289.823
224.494
267.277
196.953
275.753
214.388
297.442
171.327
311.955
164.293
365.675
209.252
143.527
71.2358
140.799
116.742
103.31
99.8281
154.715
289.316
412.647
372.089
317.654
404.602
322.484
277.203
218.128
207.857
161.992
253.567
175.687
257.74
209.086
43.0463
57.004
44.2842
51.7395
47.4452
43.9168
39.8878
102.643
182.603
164.042
183.396
123.606
155.274
150.923
64.8782
51.9911
132.343
78.7257
74.5808
45.3144
117.058
57.1531
59.6325
153.369
90.5742
62.0392
71.4233
75.179
45.9272
81.4707
152.019
67.9002
58.2091
43.4002
65.9457
93.5419
169.051
126.984
127.954
135.54
137.069
94.2682
63.4261
72.6005
61.6685
96.5807
47.0299
105.181
68.6848
242.523
390.884
267.195
641.216
564.833
650.614
587.999
118.766
165.225
138.73
427.481
285.39
397.339
330.074
13.538
106.801
41.4595
155.338
31.8717
248.96
94.9228
0.868151
4.938
0.855322
3.66883
1.20026
10.6099
1.67976
3.61709
1.06989
4.17235
0.855931
3.6492
1.45828
9.53699
6.00301
13.2291
15.4971
6.93095
6.94807
33.2612
36.5969
5.35257
13.5869
12.2282
5.83282
5.62245
25.459
17.2076
1.63278
11.3246
9.56333
5.24868
4.20767
14.9173
14.089
578.93
902.9
720.816
1286.92
1132.79
1616.75
1605.9
518.205
279.325
376.583
519.234
474.205
545.003
292.576
208.302
77.4206
166.938
242.672
175.713
362.052
115.004
292.115
95.9518
111.792
271.504
266.908
270.185
114.237
12.9952
2.10419
12.477
26.5823
5.53167
44.6178
3.70576
20.1253
1.98243
5.39363
3.22616
3.81632
24.2705
4.91068
80.247
15.4656
10.8231
38.8041
56.748
48.7611
20.075
30.8134
10.2765
14.1707
37.9198
28.0944
46.577
10.4508
23.8981
10.4683
10.7013
20.8297
20.3354
23.206
12.2294
10.5514
23.7527
16.419
24.8395
15.3458
30.1375
18.8879
1040.6
1050.87
956.447
1860.82
2220.17
1656.54
1877.52
1300.84
593.904
770.224
1137.45
1275.1
1179.82
640.888
1185.68
428.35
563.148
1366.16
1159.32
1418.67
447.906
325.679
122.245
146.335
268.64
287.741
319.742
121.028
279.852
56.671
153.234
382.541
225.496
382.183
93.0965
47.2054
17.2942
9.86962
67.951
76.5739
38.0566
10.0166
42.4231
16.542
4.36034
49.4108
78.2896
30.0385
7.25011
57.5483
9.94359
17.5867
93.1794
54.2187
85.8321
10.8395
29.7908
16.2087
12.0545
26.9103
32.2294
23.1213
16.441
17.1947
23.715
18.0705
19.9094
16.9607
16.2315
17.0789
707.864
688.032
577.252
1104.66
1072.28
1008.3
921.56
616.863
545.761
553.528
711.124
712.057
665.173
478.048
408.178
353.011
339.821
675.137
577.04
496.435
295.335
364.381
100.368
142.749
373.782
366.173
341.859
110.912
186.603
107.803
79.0676
256.775
239.549
197.638
80.3633
61.8621
22.1524
35.4775
68.4986
47.6101
78.4834
28.4555
14.8204
5.02584
16.8897
9.00392
6.08409
25.516
10.8797
5.04425
6.4526
5.84593
10.9047
10.7781
5.64638
6.11402
25.1081
13.2823
11.3223
10.1417
23.7841
11.7505
13.2435
21.397
40.3864
27.0403
24.962
22.9413
57.3101
47.6938
532.62
672.451
568.325
1086.71
1019.09
1099.02
1030.25
506.624
315.205
383.022
501.8
466.87
518.591
311.536
411.696
176.023
199.933
384.097
329.822
452.016
173.93
210.393
105.645
96.8394
211.934
257.264
205.193
91.4941
158.875
52.137
78.1641
176.36
118.89
204.349
63.8177
56.7667
24.5124
32.7106
46.0999
40.0548
72.4145
27.0061
42.1387
21.8876
21.2598
40.0908
39.7477
44.6381
20.2558
18.8323
14.7159
15.5829
26.2845
19.0719
20.4246
14.2101
54.8351
15.0334
15.6388
31.8602
47.3772
50.4657
15.6386
26.9268
23.6396
13.8859
79.3419
58.228
58.762
32.5552
310.536
455.583
303.939
765.727
747.769
788.178
730.501
199.537