/*--------------------------------*- C++ -*----------------------------------*\
  =========                 |
  \\      /  F ield         | OpenFOAM: The Open Source CFD Toolbox
   \\    /   O peration     | Website:  https://openfoam.org
    \\  /    A nd           | Version:  10
     \\/     M anipulation  |
\*---------------------------------------------------------------------------*/
FoamFile
{
    format      ascii;
    class       volScalarField;
    location    "1.3";
    object      nut;
}
// * * * * * * * * * * * * * * * * * * * * * * * * * * * * * * * * * * * * * //

dimensions      [0 2 -1 0 0 0 0];

internalField   nonuniform List<scalar> 
12920
(
2.4512
3.1118
4.44529
5.54851
2.04516
2.69704
1.38168
1.28479
0.84535
0.718303
0.599296
0.592702
0.569957
0.56346
0.529024
0.481869
0.427054
0.330368
0.281465
0.169022
4.30066
6.82008
7.93764
7.93466
4.06843
4.91619
2.39677
2.23115
1.36848
1.10083
0.765917
0.638303
0.519109
0.453024
0.413068
0.392478
0.37871
0.353149
0.277789
0.133134
6.52924
11.7031
10.2097
10.3919
6.22278
5.97184
2.7356
2.37097
1.46951
1.15144
0.724154
0.504404
0.358622
0.303946
0.270911
0.227807
0.179181
0.128053
0.0844611
0.0348132
8.00949
11.4003
8.83487
8.19404
3.86246
5.06137
1.74472
1.54239
0.899944
0.845978
0.577883
0.394355
0.233922
0.147551
0.0904701
0.0515708
0.0313968
0.0185291
0.012562
0.00430586
9.6615
13.5631
5.32378
7.30935
3.00799
4.45691
1.33839
1.13157
0.370911
0.350456
0.21854
0.147565
0.0677768
0.0316261
0.012776
0.00503448
0.00223745
0.00110316
0.000733608
0.00023832
11.7216
12.0268
6.58876
8.3768
4.48229
4.21918
1.86389
1.34728
0.372237
0.163381
0.0547235
0.026552
0.00914611
0.00282377
0.000725403
0.000191015
7.47725e-05
4.11521e-05
3.27174e-05
1.65752e-05
13.3482
11.5424
7.61202
8.03291
3.96593
5.02992
2.05303
2.18848
0.346952
0.100674
0.0130401
0.00937112
0.00766968
0.00423269
0.0023078
0.000545804
8.90862e-05
1.94291e-05
1.09616e-05
9.15407e-06
4.1167
11.6971
7.71467
8.0752
3.90837
3.95534
0.955985
0.585126
0.235478
0.0103271
0.00534927
0.0328662
0.0261153
0.0192809
0.0348716
0.00917873
0.00171078
0.000250426
4.0656e-05
1.22042e-05
9.88158
11.5131
7.46912
8.80619
6.04102
1.98995
0.402092
0.161725
0.165581
0.0167209
0.00333081
0.0221827
0.025554
0.0172073
0.0542643
0.0427288
0.0106425
0.00188083
0.000275873
3.65911e-05
12.0429
12.5142
6.80892
7.90137
5.21756
1.97614
0.595225
0.416507
0.138629
0.176068
0.0296676
0.0163915
0.032312
0.0220946
0.0840661
0.0542422
0.0170683
0.0038041
0.000666062
9.03683e-05
7.22779
7.93013
4.67175
5.47367
3.63758
1.29827
0.448703
0.263534
0.139149
0.134605
0.0400228
0.00999774
0.0103146
0.016049
0.0920173
0.0667726
0.0144592
0.00242465
0.000359861
4.82787e-05
6.0995
10.2468
6.47273
8.541
4.26981
1.26218
0.329124
0.170425
0.109651
0.079515
0.0349671
0.0275384
0.0234987
0.0219097
0.13531
0.0704439
0.0139786
0.00225588
0.000348622
5.04168e-05
18.4558
13.4987
6.67724
8.70734
4.61338
4.59915
1.06226
0.725028
0.449055
0.346922
0.2297
0.174566
0.102307
0.104163
0.273642
0.15758
0.0651212
0.0196975
0.00505192
0.000870113
11.2943
16.3125
8.60779
7.54414
4.59413
4.13341
2.60854
1.84354
1.18484
0.839213
0.581157
0.467718
0.401948
0.364106
0.339743
0.31256
0.234019
0.111913
0.0378656
0.00847793
23.3133
23.7437
10.2575
8.3131
3.04223
3.24826
1.46961
1.30828
0.907948
0.733054
0.561289
0.50664
0.475874
0.442632
0.349597
0.261622
0.164609
0.0801748
0.0311496
0.00827428
14.3423
15.1676
6.00556
7.2042
2.56426
2.60391
1.48546
1.39377
0.97907
0.777752
0.491011
0.310106
0.202003
0.167712
0.152197
0.148231
0.128364
0.0809288
0.0434123
0.0168944
0.811807
1.90674
3.14753
5.52825
3.89529
4.29602
2.61131
2.17752
1.18812
0.762746
0.34938
0.178478
0.0916029
0.0740889
0.0709825
0.0796385
0.0805473
0.0726168
0.0459893
0.0170898
8.09578
8.67122
3.95413
7.14636
4.26152
4.71791
3.37713
2.75702
1.76834
1.25783
0.812948
0.568721
0.34971
0.212241
0.125331
0.0849964
0.0612958
0.0410567
0.0211076
0.00587881
8.20037
6.58935
3.75458
5.0477
3.3937
3.02654
1.94113
1.51892
0.942965
0.727367
0.543563
0.431205
0.27877
0.160445
0.0776352
0.0351894
0.0147635
0.00555257
0.0017964
0.000359025
0.161437
1.25458
1.40718
1.61514
1.32988
1.58157
1.23369
0.97079
0.664467
0.50303
0.326499
0.209343
0.104783
0.0456729
0.0157275
0.00482423
0.00125991
0.000306438
7.6246e-05
1.87397e-05
1.684
16.0328
18.1125
20.4222
10.6222
13.3203
6.5028
6.75242
4.97367
4.8473
4.1315
3.85796
3.40686
3.04143
2.54304
2.00575
1.81731
1.82703
1.75369
1.3694
6.1847
28.0669
36.1778
34.0432
24.8435
22.4525
17.9601
16.684
15.3084
14.2913
11.7273
8.58968
5.2977
2.47743
1.36664
1.18796
1.36887
1.39062
1.6208
1.31083
15.1684
31.2998
40.624
40.1357
34.9889
29.4093
22.961
19.4836
16.1327
13.2783
9.92694
5.87183
2.59159
1.11216
0.779333
0.567218
0.452274
0.345818
0.401258
0.281664
7.42799
39.0701
44.3784
36.7939
28.5592
24.7324
16.72
14.9538
11.7798
10.2868
7.79153
5.31321
3.18686
1.27794
0.470863
0.181972
0.109838
0.10076
0.117077
0.0729286
40.0541
39.5044
46.4478
27.7356
22.4922
19.2478
12.3312
8.46248
4.39626
3.59551
3.1128
2.55479
1.43893
0.511616
0.16163
0.0542066
0.0165351
0.00807079
0.00767198
0.00393072
27.6461
42.4947
42.6977
36.715
21.2976
15.5899
12.554
7.45323
2.94464
1.57214
0.679566
0.408761
0.159212
0.0623375
0.0164774
0.00374808
0.00104001
0.00049262
0.00042388
0.000240612
52.2426
44.8327
45.8608
34.9135
27.5615
23.5613
17.1613
6.70513
2.04369
0.822406
0.197198
0.0955145
0.0728336
0.0502576
0.047408
0.0136844
0.00224524
0.000416395
0.000170714
0.000121047
13.1401
45.8014
50.0983
38.0375
33.259
28.2195
19.3552
10.2796
3.09513
0.251901
0.163436
0.406038
0.397806
0.316941
0.384189
0.147551
0.0367484
0.00618987
0.000949715
0.000220875
38.3949
46.3068
43.2792
41.4843
36.1855
26.744
18.6864
11.2347
5.70958
1.02918
1.64499
4.4598
3.26478
1.16106
1.13459
0.448088
0.181989
0.0487852
0.00969142
0.00153533
36.5948
35.785
30.134
32.803
32.399
30.5536
27.1074
22.3821
9.09838
5.66862
3.74065
5.63884
5.67437
1.42451
1.23699
0.609517
0.252348
0.0828305
0.0209756
0.00366734
7.69937
23.4621
22.8179
25.681
22.2548
18.5403
14.5608
13.4311
8.25998
6.56449
2.77863
1.03487
2.13706
0.384419
0.699407
0.937481
0.301847
0.0728545
0.0159759
0.00287421
16.6531
42.2043
42.3277
39.479
30.9607
23.2572
16.7702
13.3138
8.12919
7.24199
3.56818
2.68885
1.22844
1.08241
2.76659
1.30551
0.3645
0.0690166
0.0121398
0.00195972
41.5032
52.4635
45.7336
40.2903
35.1919
31.7134
22.6175
18.1175
14.5207
11.1663
9.74154
6.96574
3.54923
3.3916
2.38108
1.56982
0.722955
0.323598
0.108493
0.0201682
57.5584
60.2375
50.4489
40.7409
34.7326
29.597
22.9239
16.6717
11.7147
8.31144
5.9966
4.91576
4.40883
4.17075
3.94428
3.53535
2.47122
1.59764
0.732643
0.252575
38.5848
32.4426
43.897
29.7282
21.6392
17.8496
14.6215
12.3145
10.0707
9.08188
8.72579
8.32245
7.69816
6.57811
5.03124
3.49593
2.44699
1.46222
0.741657
0.295691
20.0841
21.0175
23.3563
23.8165
16.4311
15.7762
12.2577
11.1081
10.5408
9.13189
7.40674
5.06892
3.42431
2.29473
1.97271
1.69505
1.25398
0.812089
0.511114
0.30986
3.28314
7.73951
17.2965
26.9512
29.4239
25.0315
16.2391
9.66755
6.5074
3.54098
2.31089
1.21058
0.65518
0.443284
0.448391
0.500198
0.587551
0.585909
0.423796
0.209161
11.8146
24.9608
29.239
32.3133
29.3771
27.9318
21.8512
16.7162
11.255
5.05418
2.73162
1.35166
0.932538
0.671544
0.54482
0.445347
0.328518
0.205216
0.110882
0.0671575
23.5314
33.8713
25.7731
24.0814
16.9791
17.2006
14.6331
12.4785
8.1233
4.91152
2.97374
1.93096
1.19885
0.61242
0.318932
0.171581
0.101488
0.0396749
0.0139181
0.00299931
5.05653
14.5305
11.3887
7.86856
5.45571
7.30599
6.55583
5.25458
3.32053
2.2066
1.17716
0.6305
0.262159
0.0953226
0.0277015
0.00712594
0.00161639
0.00036474
9.23442e-05
2.94719e-05
7.29877
16.7231
28.0802
22.3014
14.1465
15.4741
8.61214
9.22703
6.52104
6.16471
5.13319
4.66898
3.92156
3.30873
2.68559
2.11372
1.70069
1.59344
1.57314
1.52745
36.3377
51.0491
49.2669
42.437
36.444
32.313
27.5248
25.254
22.7458
20.3941
16.1067
11.2246
6.62098
3.69123
2.15522
1.50668
1.49411
1.94474
2.94432
2.75703
21.2726
44.7428
51.7503
51.464
46.745
40.7605
33.1342
28.294
23.6628
19.3863
13.5648
8.30929
4.34103
1.83172
0.738153
0.426629
0.443269
0.608158
1.09339
1.14339
29.5482
40.1503
52.7486
52.8183
45.2552
37.3512
27.4022
23.4425
18.4082
15.746
11.0373
7.19831
4.0319
1.71325
0.517848
0.139908
0.0822519
0.107046
0.196721
0.152745
19.72
51.3502
60.5571
46.7753
41.1338
32.1587
22.0974
14.9736
8.06027
5.8096
3.73111
2.29838
1.03677
0.355668
0.0899716
0.0210368
0.00952597
0.0102899
0.0150619
0.0106274
22.0215
57.0677
55.1642
51.6802
38.4492
31.8052
22.9236
13.5618
6.32731
3.27679
1.26141
0.474404
0.136972
0.036143
0.00921073
0.00261311
0.00102464
0.000745666
0.000824584
0.000552593
30.8506
64.2385
63.8016
52.8672
45.9284
36.5031
26.2625
11.8717
5.69731
3.13716
0.882729
0.265537
0.066775
0.0207514
0.0213389
0.0163271
0.00810772
0.00250216
0.00051931
0.000168436
41.0274
57.7475
64.0244
58.3086
49.9057
41.7021
31.003
12.6377
4.5411
2.74924
1.01637
1.55409
0.568769
0.219469
0.221659
0.174491
0.135608
0.0860744
0.0388458
0.00959409
30.5918
54.7789
60.7684
59.1405
49.0385
40.747
31.951
18.5666
9.13047
3.80246
6.03247
7.04994
3.49225
1.52456
0.829857
0.443423
0.385922
0.382272
0.343453
0.192958
32.2506
53.447
53.3559
51.0635
45.3643
43.0858
36.5063
26.5127
15.7183
7.45965
5.89848
8.35589
6.87618
4.72781
3.59038
1.36183
0.653526
0.494937
0.432143
0.253219
25.4535
40.8456
42.2885
45.6945
37.7908
33.7874
27.0431
23.3085
15.8149
7.42861
1.32971
1.07267
4.62309
3.47935
2.32783
1.85303
0.808836
0.527692
0.444403
0.258457
25.5673
52.9168
53.9671
54.5641
46.4043
39.9759
32.2503
23.9882
15.263
10.6728
5.61452
2.49971
1.1245
0.983107
3.81215
1.73797
0.61268
0.376982
0.312721
0.176155
32.2332
59.4882
58.0676
56.4161
51.5688
44.7155
37.5246
29.1731
23.3634
18.9227
16.3498
12.019
7.59687
5.32103
2.3771
1.24501
0.632708
0.261535
0.0803058
0.0168401
55.1733
69.3722
56.6116
54.1399
50.3566
42.6004
35.5013
27.9044
21.7613
16.9237
12.9713
10.2701
8.35392
7.07682
5.62549
3.71709
2.33109
1.19759
0.52829
0.123159
56.3916
65.1164
55.2213
44.2839
36.5064
27.8343
26.294
22.6348
19.2477
16.1135
13.2042
10.5568
8.32942
6.33199
4.58586
2.92992
1.51026
0.617579
0.209684
0.0649567
48.2113
38.4336
46.2876
38.0599
28.1201
23.3524
19.3217
16.7876
15.8721
13.1945
10.376
6.63401
4.20163
2.3197
1.32199
0.675366
0.31251
0.146446
0.109931
0.0603587
11.4129
23.4622
38.6443
45.9163
38.8291
30.1582
19.3995
11.2932
7.82156
5.16841
3.29574
1.55538
0.737785
0.352412
0.178514
0.129669
0.145975
0.171499
0.164357
0.081468
19.6796
32.7242
44.8457
48.0767
41.1385
36.368
26.7727
17.1252
9.0098
3.49213
1.28593
0.516906
0.240183
0.152556
0.147184
0.157145
0.140098
0.0801086
0.0352652
0.00855438
17.055
47.9189
42.6383
38.2306
27.6249
25.4656
19.5184
13.1218
7.243
3.73641
2.11095
1.21182
0.693938
0.326832
0.117933
0.0353558
0.00980443
0.00266581
0.000965656
0.00030159
12.0051
25.7282
12.8279
8.58336
8.61241
10.6768
7.39749
5.87586
3.37544
2.30154
1.1484
0.569431
0.208614
0.0731652
0.021296
0.00555886
0.00124781
0.00027646
6.883e-05
2.50281e-05
13.8204
22.0132
28.6894
23.121
16.854
15.9395
9.50897
9.64968
6.87532
6.38544
5.6178
5.32416
4.65744
4.01606
3.2712
2.65386
2.07263
1.68178
1.5396
1.49803
59.6632
56.7553
55.0127
46.9303
41.3338
35.3336
30.5547
28.037
25.0022
22.7037
18.2912
14.1721
10.288
6.96798
4.22447
2.73841
2.57975
3.00597
4.07075
3.75335
27.5937
52.8696
60.7873
60.5319
53.2242
44.5649
36.5391
31.4542
26.4522
22.3459
16.0374
10.4678
6.33047
3.63858
2.03877
1.15147
1.08452
1.27234
1.63538
1.26297
17.7491
50.9681
61.2161
61.2982
51.9227
41.8119
31.9589
26.9766
21.2251
17.8327
12.1905
7.34343
3.62171
1.52602
0.54997
0.202755
0.155884
0.190271
0.309541
0.241906
26.0828
54.3225
67.6381
58.3201
49.6364
35.9936
26.8909
18.6357
11.8935
8.90394
5.4078
3.03789
1.38052
0.503408
0.160493
0.057357
0.0377391
0.0382777
0.0455304
0.0348803
24.1608
68.0439
68.239
62.2517
50.1627
36.947
28.7174
18.2641
11.0014
7.48071
3.85315
1.90854
0.7285
0.239061
0.0819906
0.0357858
0.0144136
0.0084061
0.00778874
0.00761389
70.226
74.7837
74.5888
64.4685
54.5322
40.6008
30.8989
17.9166
12.1312
7.02294
2.48158
0.740756
0.439441
0.306098
0.428246
0.427919
0.304636
0.12365
0.0360704
0.0136056
69.9303
68.2026
75.9219
69.2523
57.4375
46.3371
36.2215
17.7632
12.7453
8.16783
2.38063
1.27152
0.363929
0.339834
2.16243
2.1831
1.96509
1.48392
0.973214
0.442352
59.7782
64.8753
70.6648
67.9031
53.3899
44.7973
29.4001
21.9135
10.2442
11.2491
8.07307
7.07531
2.76526
1.57356
1.78742
3.18784
3.14572
2.99969
2.74031
1.91643
23.2202
50.5619
70.4001
62.6695
52.3993
45.168
36.6792
25.7866
15.0505
4.34451
10.7586
9.47597
8.85545
9.10701
7.53826
4.51988
3.70332
3.36881
3.07535
2.21227
48.5822
55.7967
60.5449
59.5474
49.1738
41.9656
33.0555
24.2128
17.419
6.04462
5.23683
5.7863
11.1997
9.259
8.08165
5.16671
3.94078
3.45205
3.14107
2.28564
18.8541
61.1445
62.1541
63.9786
55.3862
47.5504
40.2259
28.8696
19.2061
10.6607
5.79282
5.30784
9.82443
5.46454
6.95813
3.6385
3.08167
2.81818
2.58603
1.91488
48.7917
63.3955
66.2564
66.1556
59.8848
49.9214
42.5036
33.1002
27.3771
22.7191
19.5743
15.2647
9.67715
5.31629
2.31638
1.64536
1.16543
0.763231
0.532642
0.278391
46.7137
73.5154
63.652
62.0372
58.3508
47.543
39.7727
32.5306
27.3277
22.6964
18.0819
12.0262
8.25183
5.43457
3.96924
2.54443
1.50842
0.472802
0.11675
0.0374297
37.9001
77.2414
64.478
51.4965
43.5982
32.4063
32.5286
28.5971
24.8022
19.9272
15.8292
11.3422
8.01692
4.92275
2.95906
1.2993
0.392837
0.111474
0.0482457
0.0324359
68.9385
65.9267
61.831
44.3738
35.4798
25.7142
23.4611
20.0574
18.7264
14.9949
11.3423
6.75924
3.91049
1.91641
0.968457
0.497922
0.267481
0.122673
0.0615587
0.0441979
63.1945
57.6862
60.1649
53.9343
41.5569
28.1549
18.1967
11.0416
8.70312
5.95553
4.15672
2.1029
1.18456
0.63104
0.405192
0.229393
0.0907838
0.0556011
0.049429
0.0354095
73.5732
32.9273
59.4034
56.4441
45.9648
36.3294
24.1437
13.1977
5.9139
3.06591
1.89161
1.0955
0.640539
0.344263
0.185639
0.0714671
0.0444592
0.0343517
0.0284969
0.0240116
20.4323
55.1778
52.9846
42.4821
31.6762
26.3261
17.9251
9.75201
5.40012
3.51958
2.39845
1.5514
0.817162
0.343984
0.115468
0.0428694
0.0246107
0.0196746
0.0180042
0.0180614
4.3202
23.2296
14.067
13.6692
11.9369
11.868
6.7915
5.12539
2.79405
1.90765
0.953109
0.479483
0.190159
0.0717057
0.0221123
0.00586133
0.00131348
0.000307675
0.000107999
5.23409e-05
5.18559
13.2605
10.0779
23.4751
7.14405
11.7672
3.82305
4.00708
2.66914
2.79415
2.53587
2.65892
2.45902
2.21961
1.80658
1.56719
1.41537
1.12481
0.873491
0.579585
26.5381
35.5794
44.8582
47.1119
22.2713
33.2396
14.928
18.2386
12.1127
12.2264
9.81333
8.88082
7.6631
6.51104
5.53766
4.86723
4.61328
4.70279
4.63863
3.98642
56.5935
53.9715
47.6526
63.903
30.0078
41.5207
18.0715
20.2667
12.4005
11.6452
8.94095
7.81051
6.85227
5.98797
5.15542
4.55502
4.49245
4.7365
5.01388
4.57042
44.6381
50.1312
42.3239
63.7625
25.8298
40.451
14.5463
16.9215
9.78494
8.89896
6.57845
5.28329
4.47934
3.88677
2.97998
1.65771
1.39836
1.41612
1.54601
1.07337
15.9282
54.1473
36.2597
59.7243
21.6211
34.3528
11.6809
14.0763
6.88587
6.60845
4.9412
4.1622
3.49055
2.71813
1.39762
0.772188
0.598218
0.515937
0.502619
0.446389
101.21
90.7646
51.2789
66.4164
23.1734
35.2199
12.3986
13.2149
7.12579
6.35087
4.40169
3.6073
2.9127
1.59315
0.732325
0.393046
0.267546
0.240135
0.240548
0.26606
49.8766
75.4053
55.6094
68.826
26.7428
38.8896
14.6073
21.373
7.75497
6.59723
3.04109
2.35765
2.4175
2.19824
2.31446
2.13447
1.40358
0.771231
0.478007
0.367849
28.394
73.0842
49.1551
73.7532
25.3306
33.4531
36.1191
23.2634
17.3186
10.4311
5.43769
3.36634
3.97326
4.88937
4.40121
4.01368
3.76836
3.76286
3.7558
2.91322
23.8446
69.6278
40.3708
71.8809
25.3296
42.3615
33.3456
23.2041
16.9993
14.9296
9.79056
7.49519
6.56962
7.13447
8.1298
4.67245
4.28047
4.24524
4.24788
4.09918
8.88149
58.0121
43.626
67.544
23.8518
40.2382
31.3743
22.1342
16.0926
14.5965
12.6326
9.4717
10.3423
11.1021
10.2446
4.95531
4.46581
4.39898
4.37726
4.17634
21.4445
63.3489
45.5714
65.8064
24.973
40.14
31.8474
21.9033
16.7552
13.1981
10.8845
10.9356
14.9328
14.587
12.4223
5.03476
4.49712
4.42285
4.40238
4.23068
88.1749
73.0221
44.5472
69.1548
27.3876
46.4514
38.7319
25.7577
18.1736
14.6635
12.9756
14.9176
16.3885
14.9234
11.5906
4.67267
4.33691
4.28761
4.31021
4.26085
67.8159
68.4677
49.349
70.8624
27.9183
28.6788
39.9964
31.8947
26.7105
23.0821
19.9842
15.7762
10.9015
8.32204
4.36771
4.10245
3.98605
4.02488
3.71783
2.43136
65.6014
76.8623
49.3052
60.1899
26.919
27.3453
17.3551
15.4914
11.8523
9.41504
7.73706
6.02015
5.13341
4.24862
3.73919
2.36294
1.42928
0.933334
0.779002
0.650286
24.2672
68.4715
42.3835
51.8474
19.0832
27.7655
13.4066
13.7636
10.0083
8.30725
6.72471
5.16546
4.5403
3.99051
2.50713
1.39416
0.928475
0.76217
0.738282
0.719991
41.2435
81.5788
35.6184
43.618
16.1436
18.8138
9.92741
9.9548
7.7142
6.56355
5.47202
4.53354
4.19738
3.08038
1.95939
1.22623
0.998223
0.893738
0.887762
0.878808
55.2691
71.5335
30.8383
51.1537
15.9679
18.188
7.06203
6.24783
4.64607
4.12088
3.90816
3.72701
2.76067
1.49254
1.09039
0.816648
0.769289
0.765774
0.786755
0.760753
82.4062
44.9013
32.028
58.7177
19.6397
19.0212
7.51674
4.80872
4.07349
3.78367
3.6581
3.07603
2.24948
1.31273
0.985686
0.781667
0.758832
0.724481
0.701505
0.651759
58.6002
66.3277
28.2254
42.5379
13.4225
10.3838
4.79911
3.02425
2.37915
1.99887
1.849
1.62688
1.57353
1.55916
1.38037
0.781188
0.597766
0.542013
0.523251
0.52504
10.0009
23.4864
6.26765
13.2383
4.52069
3.89139
1.71628
1.18403
0.641629
0.428401
0.232089
0.124962
0.053624
0.0204146
0.00609563
0.00166842
0.000618106
0.000528879
0.000918401
0.00152833
4.81509
5.86139
1.50173
4.96388
8.64341
4.88641
2.30264
8.14447
1.26503
1.77353
9.63489
9.72531
2.69057
5.02266
1.63659
9.61003
5.61421
4.57724
2.6328
9.33022
5.39777
1.34108
4.65366
2.26409
2.74335
3.98016
4.41752
2.19894
0.212337
0.517947
0.33425
11.912
10.2109
19.1519
18.6332
0.14282
0.285045
0.15288
8.15795
4.14761
16.9992
6.01947
0.050907
0.147004
0.223615
4.4198
2.31081
4.16791
4.37031
0.00264427
0.117464
0.0234976
0.618578
0.791499
3.86998
3.02584
0.0091292
0.0386492
0.0153289
0.651243
1.5294
3.99058
4.22863
0.033548
0.0205494
0.0472421
3.13676
3.89392
4.66931
5.48373
0.0174534
0.0297763
0.0176309
2.86322
1.2238
4.85222
1.48055
0.0180694
0.0224092
0.0260926
1.12923
1.05155
1.28859
1.00767
0.453654
0.51434
0.327399
20.7354
21.0073
14.9581
15.4997
0.190985
0.303634
0.187226
19.613
8.9828
15.0879
8.17967
0.200871
0.145152
0.163256
6.10634
4.54422
6.85597
4.87389
0.0219044
0.167929
0.0448
4.76141
2.72031
5.25172
2.41665
0.014239
0.0237104
0.00749003
3.27597
4.15507
1.52571
1.15605
0.0437707
0.0066755
0.0149582
4.44011
5.43659
1.2053
2.72904
0.0168136
0.0165207
0.0127032
5.01908
1.44926
2.72126
0.695199
0.0293688
0.0163756
0.0319717
1.02517
0.856804
0.370073
0.427172
0.282206
0.347214
0.196681
9.08213
10.3229
7.51372
7.27273
0.161811
0.17568
0.120413
10.2689
6.01616
7.04551
4.5061
0.120865
0.126091
0.101953
5.51979
4.84289
4.5657
6.06921
0.0595647
0.0746428
0.0410239
5.07837
3.27864
5.24305
2.72327
0.0144038
0.0346419
0.0291568
2.57901
0.986258
2.27543
2.00439
0.00892705
0.0286401
0.0240561
0.648134
1.41343
1.86891
1.0992
0.011577
0.0227667
0.0189037
1.56166
0.364679
0.851991
0.398629
0.0334279
0.0204385
0.0468479
0.298762
0.353355
0.651903
1.97319
0.189134
0.403993
0.25465
9.97744
10.0633
11.0818
12.8481
0.112784
0.224312
0.141762
9.7139
5.79916
12.7851
9.98863
0.103884
0.115485
0.0935876
5.50837
6.36279
9.00804
7.93601
0.0412706
0.0909464
0.0667877
5.84309
3.12647
7.92631
6.61957
0.0276242
0.0591751
0.0452041
2.52446
2.1466
6.12898
5.45684
0.025758
0.040524
0.0350255
2.19712
1.51328
5.26722
3.44474
0.0203159
0.0326528
0.0402096
1.16297
0.586168
2.31795
1.91845
0.0453268
0.0429538
0.0198847
1.01249
2.2132
1.97924
2.21822
13.4973
25.4221
22.0805
29.3467
20.6421
34.0282
26.7594
5.77385
19.9765
9.26339
17.434
10.186
23.897
15.2322
2.34834
6.888
5.61554
9.0479
2.9734
13.2478
7.83046
2.06465
4.40728
3.76905
2.72078
5.94934
5.34676
5.70999
3.16529
4.77423
5.55954
5.32169
6.50126
6.91187
8.1922
4.51796
6.00174
6.28599
6.78377
4.79988
8.36041
6.99029
1.28839
5.43658
1.87784
3.55871
1.70215
6.07334
3.96591
1.04296
1.65294
0.984549
1.43981
0.78617
3.65408
2.9764
24.2223
20.9535
18.9762
35.1072
28.6986
29.5122
25.818
12.162
18.1509
11.4939
26.1123
17.0105
24.1017
17.6265
6.213
9.78838
6.79632
14.3792
10.4393
14.963
10.1629
3.19648
6.8005
2.4868
7.9124
4.30898
8.15954
1.76445
5.1835
1.66498
1.60056
5.07535
7.41321
1.43633
2.15713
6.22195
1.81916
3.24956
7.97452
7.18062
2.37457
3.04191
1.88494
3.14571
1.27855
6.43001
3.95953
4.03733
3.74684
0.999821
0.753702
0.502273
3.49982
2.80934
2.75258
1.88965
13.7594
13.2954
11.0095
24.2027
22.5142
24.4182
21.0831
9.08729
10.3675
7.10291
21.3704
16.541
19.4884
14.6786
6.76381
7.06781
7.40214
14.5477
10.6747
13.0727
10.7117
3.47411
6.59868
3.76105
8.42204
1.88518
9.30059
5.55338
1.1962
3.17102
2.43396
1.3942
1.43746
4.68711
2.39559
2.11882
2.11364
0.936016
1.21134
2.06445
1.65688
0.881434
0.667685
0.778686
0.534265
2.96731
2.94916
0.853079
0.697274
0.407236
0.713236
2.01538
1.95537
1.23051
0.68078
1.53153
14.2003
19.6803
17.9378
28.7172
24.1213
33.0251
28.4656
8.66729
16.9924
12.8081
21.9513
15.451
26.1824
19.6484
7.63562
11.5484
9.93643
14.0015
11.4624
18.1151
15.4899
4.35261
9.77094
8.06048
10.2871
6.40632
14.676
11.8356
2.84124
7.54606
6.59194
5.46931
3.38905
11.1035
9.05801
1.55484
6.31276
4.38181
2.67646
1.09632
8.15159
5.11097
0.726455
3.33875
2.47097
0.95322
0.872021
4.55975
4.06131
2.50023
2.41052
2.62903
0.92161
2.21347
4.1864
4.06075
22.0468
35.2616
27.2811
28.8801
24.9913
36.0764
27.4746
10.8098
24.3528
16.2621
21.1568
11.7062
24.5755
16.3877
3.72218
14.4522
7.37109
8.90703
8.36862
13.8614
5.31551
6.85741
5.14803
6.60059
9.88115
8.82245
3.95896
10.1073
6.95184
7.75477
8.8167
7.6203
7.58169
10.4914
10.0436
4.64785
8.72078
7.05868
7.19278
3.69021
9.52448
7.4789
1.84992
6.36202
5.05882
2.83761
1.78498
7.3658
7.60629
0.758801
4.76867
3.65543
1.41216
0.243877
7.49289
6.07379
29.16
31.9343
27.2341
37.1537
28.9042
35.2899
27.1402
17.9659
25.3622
18.814
26.2648
18.6381
25.5162
19.6176
10.1154
16.231
10.1341
16.136
6.17475
16.5646
7.25762
4.61197
4.70558
8.31249
6.15669
5.22855
4.45235
6.99989
6.15573
6.99217
3.70635
7.05399
4.98351
7.99872
4.67351
7.35871
2.04874
3.85724
9.27934
8.33163
5.40773
9.04993
5.18083
5.34944
5.26437
8.39416
8.45068
9.79079
9.41945
3.66037
4.22196
2.6001
8.20529
7.10485
8.43686
6.74506
24.6789
28.0456
23.6197
32.3655
25.9965
35.1664
29.004
17.9608
21.7723
15.5471
24.0091
18.5637
26.4819
19.6117
10.9963
14.5389
11.445
16.2296
7.9221
17.848
11.2493
4.45317
4.56043
8.24503
6.13436
5.80764
0.916281
8.00342
1.12162
1.27235
1.8341
0.164699
1.43077
0.17069
1.35309
2.68704
1.55436
1.01868
4.20207
8.93783
2.20797
7.05965
4.55666
1.28457
0.901635
9.88728
9.19163
7.91861
5.12053
1.94159
0.829552
1.50312
8.0119
5.73953
3.85126
4.10077
26.4811
35.407
30.7386
38.9115
31.1625
34.3966
34.9811
17.0095
28.2905
21.6434
28.1853
20.5691
32.4188
26.399
12.2637
20.0593
16.9196
18.8979
12.3869
24.7214
19.6972
6.55111
15.8605
12.7983
10.4962
6.51508
18.3536
15.2555
3.27413
12.0398
9.59887
5.55688
3.38629
14.384
11.5729
1.13762
8.51828
5.20078
3.3514
5.98849
10.6648
8.89377
0.971745
4.6514
4.57287
7.12668
3.57893
8.29806
7.01724
2.0159
4.87075
4.43788
3.27729
5.28588
6.12648
5.3508
25.6366
35.9117
27.193
29.4589
25.9894
33.2384
25.0568
12.5561
24.3757
15.6801
23.3116
17.1893
22.8859
16.4001
10.2435
12.682
5.37669
15.8524
14.6464
14.4579
13.5231
9.25857
5.4478
11.1777
14.3292
10.2205
13.7999
13.2939
7.72495
11.2913
10.2886
9.35054
8.061
12.7481
10.2744
3.53788
9.57934
7.67051
7.10904
5.44937
9.30589
8.40594
1.91661
7.69544
8.17534
5.3855
5.78212
8.74319
9.42776
0.330276
8.08817
6.48467
5.7826
5.72607
9.33655
8.24375
28.3479
34.7475
27.1405
33.0794
25.1889
33.4529
25.7698
17.8694
25.2435
19.186
23.1696
16.993
23.7273
18.3614
6.20773
17.6592
7.04739
14.8146
12.9531
16.3413
12.4603
10.239
5.74596
5.83738
13.1873
13.0674
12.2703
11.4957
10.087
6.29256
6.99468
12.5634
10.3031
11.0266
9.84593
8.67177
6.79717
10.2979
9.59804
9.45798
9.98713
12.7579
9.25149
10.9497
10.4912
10.0152
10.9015
13.4928
13.6407
7.79023
9.65832
7.49819
10.8328
9.35326
13.3424
12.0952
26.3268
36.8245
29.9002
33.5824
25.9344
37.2112
28.4053
18.7054
27.3096
20.1209
23.7189
18.4133
25.5112
18.7059
7.74801
18.2212
11.3402
16.592
12.2219
17.0738
13.1452
5.07206
9.62889
5.70858
11.8723
10.7281
11.8204
8.85128
5.63917
4.67799
2.84757
10.259
9.7704
8.50861
10.3045
10.5248
3.5323
9.69101
10.1727
13.6525
12.1137
15.1441
10.3962
10.1802
7.54604
14.2771
14.0341
15.3532
13.3952
6.64297
6.33871
5.44822
13.6255
12.3252
12.1303
10.3976
31.824
35.2281
35.4128
39.9765
30.1448
35.4229
33.8863
21.257
32.8805
27.069
27.0964
19.7268
31.5156
26.4663
12.3418
25.3008
20.0564
17.9548
14.5269
24.7617
20.9527
6.47701
18.7968
15.9441
13.6268
11.5107
20.1872
18.4233
4.74425
15.0936
12.7792
11.3514
12.4335
17.8192
16.6277
9.12153
12.0745
10.7949
13.3716
15.2917
16.3048
13.7857
5.84514
10.0875
7.15425
15.3488
12.671
12.1081
9.854
6.32463
6.20499
5.51768
11.8397
10.723
9.50301
7.98433
25.4997
31.9474
24.0493
9.01397
7.92949
7.44639
6.83679
18.132
22.1519
17.306
7.33526
6.39887
7.05804
7.2226
15.6024
16.1165
15.1795
6.46215
5.99236
7.17294
5.44643
10.5504
15.0344
13.5054
5.39478
4.65136
4.97125
4.08202
8.26354
12.8237
10.0753
4.58215
4.30268
3.86281
3.29503
6.51975
9.17021
8.74356
4.16433
4.16543
3.32228
4.37262
7.10725
9.16352
9.80675
4.20267
4.25834
4.42146
4.5196
7.13733
9.72964
8.98668
4.21914
4.06868
4.5144
4.36727
23.9052
31.4266
23.7613
7.10012
6.62428
6.67793
6.41852
17.4401
21.9916
18.0246
6.90717
7.3626
6.71844
7.04711
14.7455
16.6955
14.0486
6.90133
5.12215
6.33627
4.58491
13.2732
13.4941
11.9194
4.6902
3.89413
4.21497
3.57149
10.1633
11.3352
10.1932
3.67936
3.02678
3.40933
3.02073
9.68675
10.4387
13.2138
3.01802
4.11857
3.12943
4.40816
11.1838
13.9999
14.3558
4.52899
4.67064
5.09814
5.50906
9.85425
14.0851
12.5994
4.63073
4.40385
5.37754
4.76269
23.8791
36.0637
26.7796
6.81003
6.34488
7.8344
6.76609
17.9337
23.9945
18.3051
6.61041
6.9201
6.76602
7.01077
13.9746
17.23
14.5812
6.23042
4.50031
6.57494
4.91814
11.3841
13.6383
11.5121
4.13405
3.60393
4.56152
4.25432
10.54
11.4001
12.7145
3.47832
3.28619
4.25052
4.51114
14.2469
13.7646
16.1983
3.44698
4.77586
4.77556
6.05347
14.9331
16.3813
15.4492
5.4424
5.76096
6.43822
6.01984
12.9666
15.0852
13.3539
5.60283
4.92179
5.83745
5.14263
28.6458
39.184
32.8746
8.25072
7.14377
9.44061
8.48428
19.4291
30.6387
26.055
7.04878
6.98959
8.03019
6.90073
15.49
24.5134
21.334
6.99449
5.35441
6.93352
6.64245
13.0393
20.6314
19.0306
5.00711
4.75614
6.41743
6.24557
14.1309
18.4676
17.5027
4.76988
5.02576
6.36074
6.26975
16.4046
17.1787
15.5815
5.26532
6.53881
6.21356
5.66171
15.314
14.4071
12.2699
6.41653
5.95239
5.65251
5.09528
13.138
11.5029
8.93251
5.76467
5.0854
5.02068
4.65679
3.43917
4.01629
3.18601
5.55072
3.56571
3.68882
3.2377
4.34213
8.03318
3.52686
5.35639
5.21197
6.70679
0.74878
2.70426
2.09678
2.29611
0.200464
3.10737
2.27952
0.25499
4.06658
5.12023
3.51505
5.00589
3.76076
5.65645
3.45612
2.75139
6.92918
6.07309
6.69284
4.06389
4.38578
3.52844
3.59384
5.22733
4.83393
3.01495
5.40508
0.63668
3.85248
2.9192
0.242856
5.23909
2.41475
2.76348
0.26824
3.15248
6.93932
7.60323
6.49444
8.78854
5.9254
8.48845
7.3189
4.16931
1.84197
1.09498
0.198231
2.95135
2.6854
0.251984
4.80302
4.4838
1.69046
1.73978
3.83589
5.24287
0.483067
7.54392
8.35161
10.0073
8.16089
9.04355
6.37822
8.86463
8.03402
9.31321
10.0358
8.9127
9.32631
8.13042
9.05919
5.81366
0.271852
6.6811
3.34092
4.66611
0.356336
7.35795
5.94059
2.48714
7.41827
4.38968
6.08004
0.626164
7.49485
2.94331
2.57007
2.68797
0.206072
4.03373
0.367
1.93923
6.57698
8.81384
7.93999
9.55143
6.87672
8.63638
7.83451
5.11545
4.49536
6.62922
5.54759
5.40446
4.20862
6.57821
3.78031
5.81448
2.53679
6.79969
0.822453
7.21569
4.68865
2.46758
0.238358
2.79651
2.37755
0.391393
1.74603
3.31723
6.27801
9.34329
8.19422
7.85311
8.31316
7.70371
6.57152
4.82424
5.36597
3.93136
6.57163
3.90298
6.44313
5.09499
0.982775
1.2595
1.1217
0.606931
1.19925
0.208137
0.894842
2.32186
3.80347
3.90847
4.58634
2.69584
3.3817
3.80006
1.58817
1.3647
3.21325
2.13804
1.76382
1.20027
3.01522
1.08462
0.190758
3.20135
1.83939
0.208957
1.30348
1.55453
0.912962
1.57345
3.52979
1.62902
0.250735
0.844888
1.4337
2.15545
4.42245
3.06095
3.54876
3.05192
3.62127
2.28676
1.54677
2.06985
1.6058
2.73529
1.22285
2.84364
1.70077
0.719249
0.950007
0.718441
7.11236
6.81502
6.77001
6.75919
0.437185
0.542512
0.467939
5.75182
4.31876
4.80622
4.4076
0.0727465
0.354284
0.171969
2.54812
0.69432
3.73069
1.38081
0.00516889
0.0333035
0.00458269
0.0945239
0.0876346
0.291345
0.0699905
0.020516
0.00498699
0.0198406
0.0513937
0.21414
0.111938
0.430559
0.0312186
0.0641538
0.0684635
0.256733
0.250445
1.22585
1.34335
0.0246674
0.0542095
0.0472552
0.308353
0.286455
1.00562
0.701217
0.0074678
0.0443057
0.0368874
0.252603
0.137025
0.599624
0.519699
1.24388
2.46502
1.65372
9.93541
10.587
12.6139
15.2132
3.16398
0.314176
0.403547
2.71389
2.90917
2.84096
0.303665
1.47519
0.114934
0.179568
1.80921
1.25102
2.89302
0.140588
2.72632
0.163465
0.183309
2.65878
3.19493
2.01578
0.188525
0.364821
0.00505651
0.0269329
0.434474
0.126857
0.755803
0.0082584
0.720901
0.00453729
0.0114569
0.11432
0.121281
0.710348
0.0105692
1.50915
0.0357881
0.0235689
0.951756
1.40982
0.877044
0.0437896
0.942708
0.0205428
0.0278775
1.20244
0.885241
1.42992
0.0201935
0.599263
0.0195201
0.0198158
0.587243
0.561859
0.545142
0.0224739
0.0387692
0.0801831
0.0547594
0.764109
0.549796
0.881419
0.630215
1.7781
1.71956
1.43547
11.9854
16.8435
10.2553
12.7628
6.04009
0.492888
0.629827
4.57385
6.24895
4.6263
0.511905
7.30061
0.338287
0.413559
8.71649
7.62292
8.47829
0.333691
1.41355
0.144432
0.144686
1.38332
1.23394
1.60155
0.135912
2.97808
0.0829441
0.184491
3.00757
2.70349
2.86637
0.123349
1.31824
0.0320659
0.0171191
1.62831
1.73222
1.04262
0.0178956
0.520297
0.0329861
0.0088549
0.633851
0.955911
0.410331
0.0141719
0.790734
0.018852
0.0322676
1.44508
0.799325
1.26643
0.0202636
0.344101
0.0285518
0.0209323
0.316189