/*--------------------------------*- C++ -*----------------------------------*\
  =========                 |
  \\      /  F ield         | OpenFOAM: The Open Source CFD Toolbox
   \\    /   O peration     | Website:  https://openfoam.org
    \\  /    A nd           | Version:  10
     \\/     M anipulation  |
\*---------------------------------------------------------------------------*/
FoamFile
{
    format      ascii;
    class       volScalarField;
    location    "1.3";
    object      omega_0;
}
// * * * * * * * * * * * * * * * * * * * * * * * * * * * * * * * * * * * * * //

dimensions      [0 0 -1 0 0 0 0];

internalField   nonuniform List<scalar> 
12920
(
158.869
145.671
141.267
109.687
91.1795
82.5661
74.3629
67.1379
59.3564
54.2682
51.699
51.6689
51.8772
52.1088
51.7767
50.7274
48.5549
41.7327
36.8452
26.8159
163.457
193.018
184.751
155.71
125.984
108.195
92.0842
79.6477
68.2462
59.0911
51.5021
46.757
43.318
41.0147
40.6468
40.7775
40.4974
37.5276
31.0596
20.791
237.62
238.737
232.413
208.529
161.237
125.783
99.0909
83.9012
71.7325
61.0235
50.1763
41.2005
35.5022
32.7508
31.2799
28.2843
24.5538
19.8053
15.8452
10.1113
248.907
227.083
217.102
162.451
119.947
100.28
77.0664
63.9693
54.8553
51.0198
43.458
34.9953
26.9428
20.8576
15.9989
11.6027
8.8554
6.65452
5.40878
3.23025
334.212
247.998
196.231
142.776
115.924
89.8895
67.3597
47.8663
33.0233
29.4031
24.7233
19.4596
13.3241
8.80003
5.56784
3.43994
2.3041
1.61888
1.31824
0.766685
281.619
234.649
210.992
194.314
159.774
116.751
83.4863
56.6551
32.1937
19.4951
11.4136
7.79821
4.54862
2.52892
1.26721
0.657966
0.416716
0.311629
0.276148
0.202525
357.721
224.178
194.283
159.399
127.665
99.1679
82.8161
58.7686
28.7042
10.5355
4.53135
3.65539
3.7314
2.77111
2.16699
1.06192
0.438615
0.21205
0.163808
0.154617
214.407
232.624
201.289
159.339
135.436
114.33
175.318
116.362
71.413
10.3635
8.46457
21.6191
21.0653
18.2415
9.20896
4.74185
2.00396
0.763434
0.307272
0.176405
227.081
227.605
190.604
175.018
161.117
240.026
343.436
200.009
179.068
46.2789
21.4874
56.8316
63.2905
54.7263
35.1732
10.8407
5.22222
2.15496
0.810923
0.299283
325.496
250.735
194.615
178.085
171.883
298.055
472.427
406.144
200.864
203.18
72.1725
50.6558
71.6621
63.6656
45.0572
12.7912
6.84961
3.15684
1.2884
0.47435
195.636
173.513
163.938
152.682
143.725
248.446
445.96
357.866
206.971
188.488
97.5159
45.2255
44.1836
56.5864
48.6286
14.035
6.23381
2.49877
0.944932
0.348423
208.855
197.82
187.66
173.747
148.071
226.939
348.523
253.422
182.93
144.507
93.6373
83.2507
74.7128
62.9563
57.8277
13.8568
5.99677
2.38065
0.92856
0.358384
394.512
258.69
195.805
172.21
147.953
127.94
184.686
136.818
118.352
108.23
90.3677
78.4605
57.1164
54.9233
30.9869
22.4777
13.7128
7.31052
3.62877
1.50591
308.639
311.113
226.368
182.099
156.414
128.461
104.881
82.3096
68.342
57.8797
50.2025
45.4519
42.858
41.0739
39.7865
37.6358
30.7338
19.5227
10.7585
4.94178
558.029
484.289
254.491
158.543
118.531
89.8115
75.7292
65.2869
58.6414
51.2986
46.3547
43.5777
42.9022
41.1724
36.8653
31.5097
24.4487
16.5394
10.013
4.97347
335.7
295.361
189.787
140.482
107.221
88.2473
76.6124
67.202
59.2063
49.0306
39.9352
30.7559
25.7006
23.4349
22.9331
22.7834
21.6548
17.1798
12.5874
7.59523
107.777
128.117
152.945
155.361
139.708
125.799
106.528
86.0931
66.2763
48.0436
33.4689
23.0201
17.1534
15.5044
15.6547
16.8973
17.332
16.4135
12.8418
7.54096
243.589
166.311
152.651
153.874
149.183
145.372
131.926
111.82
90.1227
71.37
57.6565
46.3957
36.463
27.6678
21.2366
17.2734
14.6676
11.783
8.23524
4.22761
209.551
179.834
166.605
160.839
137.821
115.993
95.291
77.2986
62.3134
52.2203
45.9509
39.4028
31.5349
22.9315
15.7112
10.2435
6.59542
3.98563
2.24567
1.00361
32.4066
96.2357
112.422
107.446
98.2857
93.9589
81.6265
66.9693
56.1614
46.5267
37.4118
28.3087
19.6824
12.3434
7.13187
3.83441
1.95552
0.954997
0.475688
0.24032
50.8833
90.1365
81.7699
64.6926
51.7371
44.5804
39.4272
36.5012
34.381
33.0147
31.658
30.4065
29.1771
27.7279
25.702
23.7597
23.27
22.8764
22.1801
18.4486
193.067
147.442
118.188
93.9128
73.6241
58.5623
50.6282
43.16
36.0122
31.498
29.0166
29.0391
29.5151
30.0383
31.2162
34.8877
36.206
33.7288
25.2466
14.3286
177.817
174.552
132.415
109.645
78.6604
59.9421
48.095
42.3521
36.8821
32.7597
28.2358
26.7746
25.9589
26.0284
25.7993
23.9495
19.7974
14.4804
11.5988
7.18539
194.03
164.057
112.161
79.9698
58.9015
51.7318
42.5436
35.5502
31.1185
29.8928
27.5498
24.1682
19.0907
14.5245
10.722
7.77341
6.28847
5.43833
5.16287
4.68311
577.296
298.508
99.0072
77.8511
62.8342
48.9596
40.4303
30.3833
23.8398
21.4833
19.0846
15.7389
11.543
8.29597
6.37489
5.46248
5.06041
4.86776
4.7926
4.73941
239.391
157.27
115.876
104.866
93.6385
69.017
50.6795
36.7034
24.3041
17.1744
13.273
10.3532
7.96553
6.20772
5.28462
4.89248
4.84881
4.86703
4.92066
4.9464
305.783
127.274
100.287
80.3848
65.1693
51.2996
48.6945
42.4017
26.6007
15.5409
12.9779
9.92751
10.0543
9.74864
8.61603
7.04765
6.24738
5.68559
5.41985
5.12763
186.757
159.379
102.947
81.1099
67.3234
57.7227
60.0915
67.4424
56.8656
23.6887
15.755
19.1444
17.7675
18.8523
18.876
11.685
7.83179
6.38465
5.81473
5.30122
242.842
141.205
101.318
85.8636
74.467
76.3964
76.9842
76.6712
83.6204
47.8674
32.5302
32.5773
28.9641
29.0812
29.8906
19.0247
9.83684
6.21917
5.10635
4.81567
401.987
168.004
121.998
110.093
102.069
103.634
98.7977
97.6824
114.131
102.947
34.7119
35.1507
37.434
31.4341
30.8185
19.5734
11.7241
7.21484
5.30789
4.75675
152.865
155.429
125.963
107.327
101.311
107.992
121.571
124.298
123.973
79.938
54.3016
36.7296
34.0934
34.7045
32.4675
17.8063
10.9133
7.30142
5.4861
4.81606
320.188
155.176
110.348
92.4048
83.1622
90.743
94.0933
89.9579
90.9055
56.8863
44.439
34.4123
30.9228
47.7952
34.8714
14.8928
8.74157
6.63499
5.62226
5.06444
323.744
162.852
103.797
81.26
68.4491
57.0695
58.5536
55.3118
54.2189
47.9521
37.786
34.4252
35.5631
34.7861
30.2733
20.0589
11.7812
7.64646
6.12513
5.34454
368.5
268.223
141.154
92.6755
73.8567
61.5599
54.734
48.3421
46.121
43.6725
40.9107
38.3795
36.6149
35.2688
34.4401
33.313
29.2559
17.4569
9.56415
5.97421
213.523
204.016
115.754
84.3373
65.4456
51.4362
47.7304
41.9054
40.6885
37.9498
36.5069
35.3744
35.1219
34.6495
33.613
30.0717
22.6177
16.0411
11.2604
6.9144
227.987
184.834
127.698
99.0774
71.3785
56.2775
47.8442
40.2983
35.8583
31.0486
28.8306
25.0929
23.19
20.7135
19.2519
18.8383
18.4892
17.4282
14.878
8.39855
88.8019
132.907
129.406
106.838
77.0575
70.6438
60.7618
49.7524
35.5526
27.9697
22.8716
19.4655
16.722
15.3975
15.4333
16.7679
17.2565
16.7336
13.8794
7.21509
167.374
158.971
111.113
93.2107
82.0593
79.0554
73.7476
69.358
56.2703
47.7577
38.8825
33.4679
28.3821
23.3971
19.092
16.175
13.6118
9.99871
6.62977
4.61173
189.312
155.696
137.066
113.983
89.1659
72.5029
56.8301
49.7875
44.4385
42.6276
38.3797
32.8208
24.8776
16.3031
10.3546
7.04092
5.58594
4.90601
4.68001
4.66328
75.8104
80.8188
73.5544
57.3097
50.308
49.2618
44.4322
36.3254
29.3194
22.6735
16.6267
11.5381
7.40457
4.30437
2.30213
1.13768
0.540048
0.254389
0.12838
0.0743663
115.773
107.335
89.1392
70.6771
57.2843
49.0154
44.0624
41.0644
38.3649
36.1769
34.2936
32.355
30.1392
27.6777
24.9238
21.9837
20.458
20.3997
20.4822
19.2089
349.665
125.937
106.067
82.6606
60.8514
47.9373
40.9571
37.2154
33.4156
31.8719
30.4073
29.5903
28.1779
25.5852
21.3508
19.4423
20.4752
20.3722
18.7858
13.7141
181.796
146.346
118.184
98.4977
68.7324
49.96
40.3334
36.7659
32.9584
30.5844
27.8822
24.4547
19.8623
16.262
14.0025
11.8621
10.473
9.4158
9.09202
6.85894
461.712
216.018
109.504
67.069
49.0269
41.8484
35.7556
32.4421
29.1851
28.1909
26.2758
22.2994
16.2026
11.5468
8.76809
7.10975
6.20527
5.69193
5.5533
5.14353
228.578
151.863
88.273
57.3572
47.6236
37.5036
34.0251
28.0804
24.3498
21.9511
18.6592
15.1514
11.4755
8.83495
7.27443
6.33795
5.80712
5.43577
5.28635
5.08128
153.065
158.466
109.559
73.0412
57.8685
43.1391
38.1301
30.5985
25.1775
21.6903
16.4407
12.3713
9.55892
7.72523
6.67303
5.98166
5.61724
5.34483
5.26415
5.09842
190.224
130.374
86.8691
61.572
51.8998
41.853
41.4819
33.1336
29.4826
22.9701
15.2802
11.3681
10.5137
9.47727
8.6453
7.58854
6.69676
5.92966
5.56726
5.2001
298.169
179.161
96.1315
66.2711
56.2667
48.1763
49.1199
54.0609
38.2448
30.0842
19.4193
21.8594
17.0187
15.5922
15.0544
11.5571
9.50515
7.98393
6.86092
5.70438
267.266
179.331
96.2048
71.1302
59.8516
56.7942
56.5195
60.6318
75.6691
38.6417
31.8994
34.3692
29.086
27.2802
26.4753
15.9269
11.712
10.4593
9.75716
7.81091
182.515
124.922
93.5948
85.2653
75.3993
76.1485
73.5917
73.8744
91.4649
90.5608
36.5494
39.3978
40.3963
36.3567
33.1791
21.0496
14.0014
11.4663
10.4595
8.18041
240.62
180.645
111.092
89.2857
77.8479
82.9352
92.4391
95.387
98.2805
72.4259
41.7818
47.6466
38.4178
32.9261
30.4441
22.4796
15.1115
12.0908
10.9425
8.49218
217.041
170.4
103.769
76.496
65.5042
67.1887
69.4442
73.0466
78.9074
43.877
37.3737
35.0175
29.828
30.6284
32.8011
16.7342
12.076
10.553
9.78212
7.88182
303.332
167.615
102.615
69.9055
57.1834
48.0419
46.3803
45.8524
44.6405
38.1
33.3572
29.9565
30.0253
32.1086
25.2142
15.2156
10.251
7.58209
6.42277
5.53792
318.817
277.563
158.807
83.662
60.1331
49.2385
43.9552
40.1922
39.0988
37.9562
36.296
35.3335
34.9047
34.8742
34.4371
32.8912
25.8784
14.1794
8.72481
6.12247
160.501
175.877
107.36
65.0543
51.3009
41.5463
40.182
37.0942
36.4749
35.3438
34.5084
33.4863
32.5511
31.3029
29.6481
25.3366
19.2237
14.6184
11.3963
7.52626
224.117
147.802
94.1571
69.544
53.3503
43.1416
37.6201
33.2826
32.2932
30.7309
30.0731
28.2913
25.758
21.976
18.9706
16.9149
16.1665
15.7047
14.5932
9.92868
222.931
200.593
131.227
85.4558
59.7926
50.8085
39.6059
30.3389
26.9539
24.9946
24.2034
21.9581
18.5019
14.4361
12.2438
11.8975
12.4858
12.5015
11.0121
6.85153
123.292
163.746
116.79
80.8704
64.5469
59.8567
50.171
42.3956
32.2134
24.7963
19.1589
15.5369
12.7739
11.5724
10.7519
9.74993
8.21663
6.66107
5.6633
5.06249
113.053
117.711
99.9582
84.1449
66.726
56.5399
43.8406
37.3756
31.6483
27.1919
22.0781
15.8217
10.894
7.6998
6.35489
5.79789
5.57646
5.31917
5.17322
4.96756
120.091
107.852
79.252
63.589
58.6969
53.7685
44.0309
34.864
27.7094
21.2039
15.4491
10.3487
6.37043
3.6748
1.98532
0.992482
0.470656
0.220135
0.110563
0.0686929
128.772
116.352
91.1153
73.4139
59.5662
50.5322
45.4672
41.9865
38.8784
36.7506
35.4481
34.21
32.3636
30.0724
27.2244
24.1244
21.5221
20.5529
20.4022
19.2393
378.131
150.719
100.782
68.7757
57.971
46.3015
43.6996
41.0658
40.1982
39.6959
39.7821
39.8394
39.9168
39.2847
37.201
31.956
28.7114
28.2369
28.6695
26.4256
169.025
136.691
120.013
85.1597
62.6857
46.6567
42.9588
39.4518
38.0654
36.6623
36.6076
36.0465
34.3123
30.4956
25.5437
21.8382
21.8743
23.6577
25.1132
21.9644
188.219
138.662
105.416
62.3538
51.3904
40.6776
39.8868
36.533
35.2644
34.1784
32.4494
28.8994
24.187
19.3478
15.4991
13.2904
13.0884
13.3175
13.7846
11.8505
211.42
148.367
89.6364
54.7563
49.4117
37.4958
39
33.159
32.7261
30.2002
27.5772
23.3846
18.9125
14.4112
11.6283
10.1876
9.99242
9.71788
9.44504
8.76347
249.449
245.842
108.545
62.8357
52.3267
39.3242
40.8431
34.9493
33.8414
31.8251
27.0921
22.0683
16.3765
12.2239
9.61268
8.21009
7.53407
7.29495
7.2502
7.35875
208.749
126.153
85.5319
58.4996
53.0959
41.2907
42.6383
34.591
34.7926
30.9861
22.561
14.7028
14.3245
13.1073
13.4269
13.1436
11.5375
9.51255
8.268
7.81924
321.462
169.955
92.7367
62.1214
56.7092
46.7209
46.8989
45.2769
37.2495
35.7036
24.3236
21.0898
16.5467
15.9811
25.6204
25.4101
24.3173
22.7922
20.8746
16.4787
491.682
289.226
100.678
65.0589
55.9193
50.6737
50.9528
49.491
46.6118
41.161
37.4281
36.8026
30.6754
28.7029
29.7274
30.502
28.753
28.2852
27.5679
25.4208
140.686
126.385
87.9082
69.7933
62.7726
61.4097
57.7187
56.174
75.7367
50.685
44.4897
47.5741
42.3932
43.882
42.8412
34.8609
30.6249
29.4363
28.534
26.3126
145.931
147.765
100.636
72.431
63.2483
64.3425
65.6657
62.7388
63.3933
45.5172
42.0994
43.1995
47.977
44.1639
48.65
37.5954
32.0305
29.9755
28.9602
26.7532
167.411
174.452
113.924
70.9992
59.4232
56.3466
55.9937
55.4338
48.0947
43.4764
40.8001
46.6756
48.3084
47.8315
49.8889
33.5982
30.2915
29.0453
28.2218
26.2402
355.118
167.716
105.02
66.4621
57.3412
46.2944
45.6928
45.489
44.4487
42.3317
41.0326
40.9612
41.0651
39.4978
26.408
23.3738
21.7788
19.725
18.5316
15.6914
231.371
204.867
137.415
77.5247
59.0877
46.4785
44.3314
40.9081
41.4782
41.3532
41.1883
40.7217
38.9753
35.9096
32.0797
24.6969
16.2784
11.7588
10.3303
9.51986
128.915
160.737
113.73
62.8494
53.1083
41.0282
42.3829
39.4966
39.7133
39.3643
38.9173
37.2543
33.7555
28.2494
21.9527
16.4486
13.6407
12.1402
11.4125
10.2615
325.158
132.68
87.2863
58.1182
53.2932
41.6672
39.614
36.5841
37.3947
36.5833
36.5741
34.593
31.419
27.3323
23.8092
19.5953
16.4398
13.8449
13.0282
11.4682
431.524
199.856
104.292
67.6126
54.9962
41.3648
37.3517
32.2805
33.6396
32.0251
32.6071
31.6391
30.3085
26.2108
20.305
14.2873
11.2273
10.4167
10.1564
9.55328
339.994
176.378
98.1454
68.9452
59.6871
49.222
40.7684
31.4807
28.3052
23.9835
22.3064
19.2231
18.2089
15.7676
13.1333
10.786
9.87777
9.23526
9.04961
9.16724
144.359
125.962
85.1299
69.2952
59.7508
47.3889
37.6034
31.0274
27.1535
22.0105
17.3973
12.9797
11.1062
9.86937
9.55387
9.52242
9.60127
9.46642
9.11159
9.02835
98.7637
105.699
75.7385
66.3794
60.92
51.0313
40.6236
31.4717
25.0825
19.4402
14.3238
9.78416
6.24139
3.7058
2.03305
1.0165
0.481865
0.232435
0.13971
0.099533
74.9413
85.3767
85.4808
74.7596
59.9649
49.9857
44.2935
39.9748
37.2625
35.9294
35.848
35.8598
35.558
33.9906
31.4584
29.5981
28.9008
27.127
24.9987
20
206.043
155.814
102.247
70.2555
73.7706
51.7015
61.7482
50.4316
57.2285
51.9025
56.1021
54.7582
58.2784
58.6717
60.0941
58.7367
58.2705
58.7907
60.7284
59.3999
226.362
145.747
123.155
74.4433
70.9263
50.2809
57.638
46.862
53.9405
48.6295
53.2537
51.7866
55.0398
54.5201
55.1657
54.065
54.2385
54.568
56.605
59.0884
211.143
145.657
112.348
69.3569
64.916
47.4264
55.7379
43.8679
51.8366
46.2937
49.7658
47.8521
49.654
49.4338
50.0126
49.337
48.4786
48.7168
50.4337
55.0895
231.991
193.091
115.386
74.015
65.7909
49.8934
58.4147
41.2007
50.7859
43.0649
47.2255
44.1924
46.061
45.2803
47.0353
48.087
50.3395
52.024
53.3508
56.9281
662.048
427.039
166.108
72.5666
68.4965
49.9964
59.811
43.1083
48.3703
42.7998
42.9656
41.4956
40.9884
41.7317
42.7555
45.4105
47.4129
50.4355
51.7418
55.0787
254.227
162.169
99.6073
69.9811
67.232
50.3022
58.91
42.775
48.2995
38.0911
35.155
31.4869
34.8534
35.3252
38.8984
41.5021
45.7297
49.9267
51.9589
55.9138
249.947
149.412
112.046
68.5974
75.2456
54.2916
51.3923
48.6682
48.3803
43.1569
39.5668
35.59
40.3726
42.0753
43.9348
43.8731
44.2652
46.5669
48.0927
52.3076
254.679
143.356
106.067
67.3555
64.5295
54.5352
54.829
50.2519
55.6136
54.8709
48.7294
44.5488
44.6509
45.8905
47.218
44.3453
43.4927
44.3278
45.2021
48.3844
177.454
149.737
107.316
72.4084
73.1225
56.9837
52.695
54.2539
62.2735
64.1635
61.7747
53.9039
49.1682
49.7543
48.0045
45.4617
44.251
44.9032
45.4622
48.1348
206.796
174.747
115.967
72.5698
71.6739
56.663
52.8212
55.3053
63.4423
66.6217
68.5929
64.8097
60.4469
58.6421
53.0164
46.8284
44.9
45.3091
45.8924
48.5188
422.381
205.909
126.331
72.492
69.4405
56.2629
55.4014
55.2093
60.2028
63.6352
65.2143
65.6886
62.8751
62.9037
55.2162
46.6128
45.6823
46.3749
47.4421
50.5791
349.046
160.581
119.775
69.4192
75.569
55.7384
53.4282
51.7151
54.6418
55.5484
58.2336
59.2911
57.7272
54.1347
52.0753
51.7627
52.5067
54.4945
55.6174
58.431
207.183
173.135
143.398
76.6544
76.2807
52.8162
57.1868
48.0778
55.0016
52.8839
59.8402
57.8104
59.3847
56.7648
55.1796
54.6085
57.1559
60.7287
61.6371
62.9283
183.547
162.745
128.021
77.0186
75.2326
51.486
60.5745
46.4451
54.5859
49.7744
56.0867
53.5159
55.977
55.0499
56.4897
57.4577
59.5351
60.1586
60.1628
61.4364
184.467
146.359
104.918
75.7502
81.5836
51.045
59.6588
44.738
52.4805
45.7368
52.2917
50.4186
55.0943
55.4256
57.8703
58.4798
60.651
61.5053
61.1886
62.3232
247.715
148.473
111.341
70.2792
76.8503
50.4103
59.7228
42.7886
52.5262
45.5571
52.9372
51.6158
55.8785
55.6381
57.1965
56.9536
57.2871
56.922
57.1284
60.7951
448.542
165.797
105.662
66.4279
76.1951
49.7671
58.9776
45.5319
54.2281
49.2268
54.0122
51.3045
54.0507
53.5561
55.9865
55.9945
56.865
57.891
59.7867
63.7413
255.59
129.631
94.0007
65.527
78.5168
51.4427
58.7041
45.6145
50.2722
44.0731
46.1968
42.1434
42.9904
42.6085
47.4062
50.9117
56.184
58.9236
61.373
64.1927
117.116
92.4367
72.6401
66.1471
57.4058
44.387
33.5085
25.4886
20.0412
15.6233
11.8173
8.36561
5.49662
3.27301
1.76837
0.898764
0.555774
0.517415
0.692821
0.894866
37.9362
78.0255
41.4531
55.7052
41.7858
48.3439
62.5065
37.4114
43.4826
50.8543
41.7954
44.0922
61.4765
44.4657
41.8269
50.3605
42.8733
47.6849
52.1117
43.3719
37.9863
47.2869
42.5414
40.1343
51.2427
40.0959
37.2756
35.9375
236.723
391.161
324.522
94.282
83.988
94.8176
90.7614
166.573
301.136
202.241
84.9394
90.0702
91.6261
121.18
87.135
190.208
222.117
87.4148
65.6386
124.495
115.948
18.795
146.573
64.0947
49.6736
27.0075
100.372
36.848
35.9386
80.5105
47.9014
25.4546
32.9098
35.6363
38.1969
70.5097
57.036
87.4653
33.6719
30.1409
37.828
37.2541
53.6617
68.2317
55.5037
28.8367
29.0841
36.3517
31.5128
55.3987
63.1739
68.927
30.1618
32.0545
31.847
38.5361
422.067
478.755
401.088
114.357
105.716
138.902
134.87
253.815
391.227
269.88
106.307
123.937
133.465
138.601
226.992
216.155
208.269
126.93
116.13
139.153
105.238
61.8214
209.788
98.6919
108.868
39.3042
91.1039
53.557
46.1843
69.1298
37.9673
35.6364
37.4806
50.1885
36.5422
84.5893
34.9352
52.1375
37.5356
38.3251
35.8749
35.8079
54.5598
55.1095
49.2589
37.8513
32.001
35.9949
36.1719
73.2172
56.3146
78.5125
31.7588
32.3446
36.688
33.5981
369.771
364.576
276.521
140.239
135.363
126.995
114.447
240.63
260.072
201.502
133.72
135.975
111.293
110.162
178.394
201.843
161.262
135.064
94.5883
109.545
81.5973
120.833
138.215
102.739
82.1605
54.707
67.129
53.299
55.9901
94.1962
85.9634
51.3471
43.4404
50.198
38.5964
40.5542
85.4083
76.6154
37.5643
32.9129
37.276
32.7534
49.8011
74.2398
61.1498
33.1184
33.5494
30.4973
50.778
78.504
61.3514
92.4017
36.1034
39.5041
49.7877
37.4145
268.185
356.325
265.727
110.419
99.1284
98.6806
81.71
188.916
247.674
195.391
96.3669
93.2645
79.355
73.6563
166.732
178.403
164.91
93.3323
71.809
72.9273
63.291
102.054
162.709
134.162
60.3803
50.4628
58.7936
44.8453
83.1248
125.558
106.114
48.8938
37.1583
41.9643
33.6746
79.3712
100.651
93.6598
34.2626
30.3215
31.3449
31.2173
61.5137
88.1834
91.8602
30.8371
53.0827
36.596
45.6997
91.2396
92.4375
59.1779
50.562
36.1069
43.979
31.8853
75.6422
82.3966
83.4594
59.7579
60.6899
68.0228
69.6558
84.132
85.2623
106.487
63.3679
78.6372
71.8451
88.3672
64.1872
109.427
107.481
79.466
47.9296
93.3599
99.6922
33.9343
99.6242
35.683
41.2496
33.2479
88.381
35.4312
32.3867
34.4297
35.2021
31.9688
33.5954
35.0462
36.6881
30.09
35.8972
36.9142
33.8383
30.2934
38.8508
39.4087
28.8559
35.9971
32.6535
29.1
26.6032
37.2283
34.8575
31.9678
33.1421
38.8436
26.0391
25.4469
34.5135
31.9976
96.4923
121.713
124.551
79.0578
77.9831
96.7546
99.9689
112.722
124.296
128.765
79.3547
94.259
100.773
109.581
105.899
128.714
99.197
97.0592
97.6827
109.32
92.795
38.1718
88.4457
53.2012
94.4156
37.5459
85.7794
42.7205
34.7979
50.2029
35.595
35.4332
35.7564
40.4387
40.9978
37.7729
34.3286
35.2376
37.3276
40.9731
40.5756
40.2968
31.7252
35.7355
35.3782
40.0549
36.0597
40.2512
37.1043
35.7271
33.8654
30.1681
35.6675
33.0258
34.8306
29.3636
125.163
108.307
105.2
99.6786
101.828
88.3679
88.2478
124.967
103.219
102.406
102.563
108.245
89.4439
100.46
89.591
103.299
79.0474
107.668
83.7452
100.685
62.0448
56.8863
63.2163
49.0413
78.6088
49.5529
53.3603
43.9812
42.8313
46.6492
40.9526
46.4873
39.7991
43.4103
43.5179
33.0619
41.1205
34.9838
41.0036
39.4735
40.0034
30.5008
34.2039
31.3295
45.5491
38.3185
35.8177
30.0098
29.2407
34.6378
46.6107
38.4625
32.766
28.7791
32.494
33.5009
91.3346
76.9498
71.8159
74.6972
75.6898
58.561
57.3987
89.3118
71.5871
69.3118
76.981
86.8006
57.7528
57.2977
69.3621
69.1042
59.4746
86.5668
53.7088
56.6591
45.661
45.6321
54.756
41.7144
46.6747
40.2146
42.2944
34.4284
35.6842
38.8
31.4262
38.7714
36.7304
32.9566
28.3284
31.8372
29.4457
28.5582
36.4635
29.4782
27.4328
26.5209
48.2464
30.4319
38.3106
28.3163
31.2762
26.6014
29.4031
36.9645
38.6553
30.5411
34.7883
33.0528
31.3642
32.0664
57.9166
64.4957
65.6677
51.9457
50.6441
56.5367
55.1415
75.5904
67.5743
83.8738
51.772
56.6294
56.153
73.1901
41.9821
90.6011
97.7807
51.7654
38.2803
80.5413
56.9533
33.2738
78.3938
36.2236
38.7838
36.9172
46.372
41.4568
34.172
36.2186
38.5673
35.6909
36.6385
41.816
43.7916
29.9987
40.3643
39.4414
36.0307
30.596
44.2143
39.0777
27.6996
37.1287
35.5482
30.0511
27.0145
38.3649
40.1006
26.3089
35.168
33.4512
24.1452
15.1069
40.82
41.3857
72.77
89.4854
92.4908
61.3378
59.141
70.9792
68.5198
87.4079
93.0216
98.9638
59.6957
73.3696
68.1289
71.1541
96.6141
98.324
90.0482
81.3654
73.5462
74.0867
66.432
58.4349
63.88
89.106
82.1035
68.5201
55.7768
83.2316
38.0301
36.4814
38.293
37.9693
36.8958
38.0186
39.231
42.0431
45.7726
41.5971
45.6467
42.9578
42.9362
45.7673
36.8184
41.2018
37.1132
41.3102
40.9762
45.4606
40.7782
32.8958
35.0138
30.223
41.519
41.9593
40.3053
43.2554
94.6725
81.3931
82.8347
72.4831
70.4612
64.7512
64.9358
99.5276
84.6935
94.651
70.2064
70.0101
65.7961
63.9939
80.9264
92.861
56.166
69.7375
61.4313
58.9767
45.5788
61.5789
57.311
66.7678
61.5986
57.8991
112.302
58.9494
48.103
43.6055
47.9062
62.6855
43.6323
60.2492
52.6809
39.2519
37.0831
33.5589
39.6399
44.7805
36.6947
45.0513
35.6712
34.8713
29.5558
44.6482
40.4119
44.8217
41.2447
29.1076
29.7205
30.7042
39.3628
43.1375
39.4574
41.4932
71.3941
55.1472
54.7875
58.5365
59.0778
51.2813
49.5356
80.5925
54.7736
53.5634
59.3557
56.4821
48.7352
46.3279
48.6701
52.5453
42.3776
51.8797
41.8579
44.9811
40.2205
38.7602
39.6998
33.5761
40.6492
37.4425
39.4548
38.1228
35.6687
32.3518
28.5668
36.454
35.9669
37.8366
37.7872
30.0555
27.8036
26.8345
37.5328
45.3472
37.9145
38.0972
29.0414
26.8539
28.9567
44.9728
41.3591
37.7669
37.1848
31.1349
30.5567
32.3062
40.9532
44.0715
38.1669
35.9964
49.0458
54.1808
52.5779
52.4062
48.4871
51.9527
50.6453
51.3154
53.2987
68.335
48.0697
50.2419
50.9747
56.6032
40.4672
72.3647
49.3577
51.261
52.2911
57.2661
57.8196
38.3523
45.9937
44.2563
51.5614
45.7306
57.7147
55.015
37.7859
44.3012
45.5636
45.3295
43.0484
54.2329
51.1242
31.6943
45.3542
39.7246
41.7079
40.6712
48.6018
44.347
29.2724
39.5081
41.7687
41.0884
42.5738
44.4559
45.5692
21.874
42.3303
41.6653
42.7251
43.9476
45.57
45.3009
55.7248
64.7018
61.9375
52.2965
51.8654
53.5982
53.2245
69.4569
61.5681
65.0873
52.3979
58.9212
53.8989
58.6744
57.5744
68.4632
55.3973
59.9646
58.93
60.46
59.6537
44.3858
46.0661
47.0846
58.7374
57.1138
58.2691
57.5421
46.6563
46.5597
44.4093
56.7274
54.7317
58.3993
58.5381
43.3444
44.9147
48.4328
52.2709
47.1476
58.2287
56.7732
43.1979
47.953
44.2562
47.1189
48.1442
55.7816
54.4559
43.0961
44.313
46.8278
48.1377
46.502
54.5606
52.8616
63.2436
60.1528
59.758
53.8114
53.1323
53.8506
53.0081
62.5978
59.7322
56.1105
53.6119
57.362
53.0045
54.6179
53.8079
52.2129
45.5503
59.0439
59.9666
56.107
59.7875
42.6758
44.15
39.354
58.5376
57.9174
60.0024
61.2219
41.6749
38.3993
40.1404
59.0131
59.4814
62.1641
62.9127
48.2024
44.669
49.1168
59.189
58.8142
62.3879
60.8207
44.2332
48.5586
45.7501
57.7311
56.0596
59.6765
59.6705
48.0849
45.8495
49.2987
56.4229
54.6451
60.7834
60.3839
55.838
50.5884
49.0287
53.8604
52.9051
53.157
51.7841
51.1161
48.1993
46.2206
52.7356
54.0607
51.4695
52.1761
43.8737
45.1151
42.5418
55.393
58.6084
52.6018
54.0852
41.2482
42.2973
42.0032
58.9301
59.8761
54.1953
54.4221
43.8383
41.9134
42.3321
60.4025
61.5242
54.8001
56.4508
49.121
42.6093
42.6609
61.5027
60.3519
56.6496
56.4392
46.8463
42.2968
42.4081
59.3723
60.3845
56.5993
56.6296
49.9209
43.4732
38.4348
61.2832
59.9368
55.7877
51.3667
50.617
53.0094
52.5128
80.4927
69.7153
75.3572
75.5975
53.9981
53.1162
58.8756
70.9627
80.0896
74.8456
83.0947
56.3211
60.6398
62.7881
87.2884
82.652
87.6462
96.9331
49.1889
62.5633
59.2254
81.1896
76.5448
97.5226
94.0534
45.6803
58.2064
53.1855
76.2937
68.765
91.2783
78.7836
44.1987
50.428
46.935
68.5265
67.0019
75.3366
68.9976
45.7464
46.9634
47.7109
67.987
66.8861
68.28
67.953
46.8964
47.7901
47.8147
67.6261
66.7834
68.3983
69.2909
53.3721
52.7257
54.1899
78.0905
77.9241
74.5121
81.3635
60.5633
55.5583
61.6337
76.853
83.8949
80.8494
87.3466
64.1473
63.7981
66.2517
88.6407
101.668
92.0959
110.888
62.4378
66.1073
66.6423
103.813
102.387
116.491
123.292
57.0413
67.1897
64.533
99.5863
84.9473
122.219
107.203
49.2157
63.0294
59.2421
79.9809
70.71
100.406
83.2491
49.8067
58.1409
56.8101
69.3279
68.6796
79.6543
75.9085
48.5687
56.611
53.824
69.0293
68.9998
75.4866
73.5881
54.004
54.2491
54.4208
76.5943
82.3474
77.753
82.34
61.2171
55.0264
59.3394
81.9381
88.1443
82.1647
87.0003
66.6871
61.2258
65.1209
92.651
111.117
89.5439
99.1917
67.9772
65.6307
67.2691
117.427
124.779
101.98
107.256
65.8741
67.8073
67.4413
123.709
110.793
107.765
105.979
61.7668
66.8749
64.2601
104.872
87.6355
103.624
92.8074
58.7319
63.0846
62.5217
83.551
78.7895
89.6033
84.7532
55.3567
62.7605
60.287
78.286
74.955
83.721
79.9693
54.8933
56.5107
54.3032
84.8953
82.7663
84.7731
75.2256
58.6095
54.0845
55.223
82.0506
85.8768
74.9611
80.2513
63.2774
56.0563
57.807
87.6255
94.1507
83.1744
83.5321
64.7848
57.808
58.3632
95.9581
100.112
83.8456
88.485
65.8378
59.0218
60.7381
100.999
100.99
89.7849
90.4663
63.7796
60.769
59.9541
99.6485
92.0677
89.6634
88.7173
62.8515
59.9952
59.0171
89.9069
85.4289
86.7354
82.3293
59.9473
57.7968
54.4729
84.2456
79.7908
80.7865
79.2412
45.6676
44.3337
40.8067
38.733
47.5695
43.0508
41.6472
55.4163
86.3245
54.7532
64.6177
65.0117
78.3487
70.3011
44.1509
41.5361
43.6412
71.9501
47.6293
42.0594
75.8233
50.9991
67.9064
47.1656
56.1229
50.3027
70.2358
48.483
45.5103
39.9784
42.8986
42.4105
42.4975
41.948
45.0589
47.7347
55.0504
52.8734
48.2461
64.7876
66.4324
46.0988
44.0467
81.6489
43.9023
56.3255
43.5081
80.5744
45.209
37.7591
36.6824
36.2978
39.3492
36.2636
38.3722
37.9463
40.3727
40.5004
51.9925
74.3678
39.6593
41.563
80.4083
39.1014
36.4195
52.5567
54.5065
37.874
38.0797
57.7203
39.5654
39.6933
42.0864
41.6271
39.8549
40.0945
41.6182
39.6205
41.6029
42.7391
42.595
40.3714
40.051
41.8669
40.6948
87.4824
42.3344
56.9477
42.4831
95.8269
41.4441
41.0522
55.6198
41.4661
49.6658
40.3837
70.5278
41.4234
59.6602
45.8885
50.5911
69.0595
53.1223
85.8302
56.2436
50.5812
58.374
46.8548
47.4652
53.6319
54.2858
44.7199
48.2315
49.1604
44.2952
41.028
50.3126
47.4187
42.4641
58.1418
53.8269
46.9338
47.0626
99.7714
52.3432
45.5876
59.2698
75.9837
50.8005
49.9119
88.8032
58.2054
47.4912
46.9869
44.9098
46.2242
41.0333
49.7503
42.4886
42.9058
45.9428
39.3093
41.8991
39.1711
45.6536
40.5621
41.7713
44.2885
45.2929
39.7023
54.18
40.0392
55.7428
44.9239
45.5103
48.6848
42.5645
40.5793
47.2683
46.8243
40.3505
41.8421
38.7709
42.0601
37.7864
43.4493
38.4431
39.6726
53.3099
69.9714
47.4813
49.8263
69.9565
55.6371
48.7263
50.7465
51.4543
42.8786
39.4441
61.1206
46.2476
45.8583
44.4639
38.814
42.2384
36.7407
45.2933
38.4852
42.0985
41.8499
35.894
38.4826
36.0496
38.9249
37.7772
41.0024
138.066
175.513
144.788
90.3602
83.5571
96.1604
87.7716
96.654
114.067
104.779
74.7431
66.7074
83.5209
74.9453
31.7127
91.2151
56.0119
62.0837
34.8621
67.4424
54.8108
8.25369
18.8464
8.01845
15.6636
8.85388
22.1734
12.9362
17.0488
9.19876
18.4297
9.5499
16.9463
13.2395
21.8276
21.718
32.3684
34.8578
20.4688
20.2498
27.3186
27.657
20.4845
32.6155
31.0315
19.232
19.8381
25.9495
24.9156
11.2308
29.8456
27.3532
20.055
21.2483
25.145
27.504
213.949
267.5
238.721
129.414
107.49
127.469
105.653
163.82
296.375
344.242
192.107
163.05
192.145
303.269
147.534
154.929
227.7
140.145
141.597
131.213
188.361
105.157
173.63
189.393
100.132
82.8832
129.485
189.867
31.6666
24.7463
59.7487
47.5971
23.6265
54.778
32.8452
28.9418
24.9044
40.7701
19.0443
26.048
29.3283
38.7029
41.6123
69.927
59.564
36.1556
36.657
40.3801
79.7738
33.5254
56.7336
65.9219
32.4736
32.3895
33.7902
57.1125
39.8683
57.6575
58.3648
35.0738
36.1103
39.3046
62.3438
28.6441
43.2681
35.7469
32.9775
28.3751
34.4613
30.3211
287.827
289.74
276.437
153.536
130.942
160.236
145.887
213.314
433.865
493.863
247.697
202.45
254.222
451.465
170.773
361.582
418.427
158.931
159.136
169.652
370.225
199.69
197.886
211.239
196.062
196.839
201.287
196.008
95.9085
127.383
219.148
125.013
85.3734
131.22
165.586
35.7162
73.5188
55.3118
41.1893
41.2865
36.6455
55.8953
53.4617
73.265
37.0011
52.3585
53.4745
48.7059
48.8853
51.8922
55.2479
73.5878
49.1114
50.9781
49.5457
57.3361
71.5469
71.9902
62.5662
69.9199
74.3972
68.5648
72.6148
36.6139
43.3078
37.5378
33.9093
29.1015
32.548
27.0263
238.013
233.853
214.237
142.088
144.076
139.244
137.929
227.392
417.11
420.331
232.547
223.38
233.184
390.096
210.529
331.288
328.631
202.207
206.9
209.846
303.801
168.778
176.501
211.38
202.607
176.06
197.027
185.212
83.4775
183.81
158.275
104.481
85.2297
99.4216
159.244
54.699
82.7257
104.609
59.69
56.8768
58.5321
94.1435
44.2886
39.5294
72.0479
39.9844
39.5399
44.6766
57.5685
30.4424
45.0097
42.8585
38.9176
33.4426
32.6493
43.9611
59.1611
65.4756
59.9358
52.8608
64.2002
57.3988
65.2622
40.7539
56.5053
45.7669
38.4736
30.11
38.8006
31.4892
205.323
230.396
211.889
133.155
120.376
128.947
114.018
166.667
315.198
347.556
194.433
178.384
190.087
313.265
126.489
234.608
250.82
141.804
140.872
129.799
233.179
108.751
183.417
174.723
137.352
120.691
122.829
170.38
76.6058
127.204
156.248
85.6799
83.6024
78.9509
141.046
62.1515
87.5792
100.966
69.9717
62.3177
67.8153
91.8336
43.9671
83.0851
81.7711
45.245
40.6008
47.1471
79.7679
63.8856
67.7072
69.8209
49.0917
61.313
60.0748
66.8484
50.2892
69.5893
70.1406
56.4692
49.6693
57.1635
70.2589
45.6983
43.0904
32.8091
34.0836
29.4336
30.2004
22.5037
156.427
189.212
154.397
104.171
81.6362
102.671
78.9046
125.441
133.451
126.536
69.7127
65.1683
66.0699
62.4009
114.61
111.019
98.5846
63.4596
61.444
60.0724
56.896
97.7867
91.2659
86.246
58.6588
52.8878
56.172
55.1794
86.1477
81.2764
76.3415
46.9804
44.861
53.9426
52.474
65.0267