/*--------------------------------*- C++ -*----------------------------------*\
  =========                 |
  \\      /  F ield         | OpenFOAM: The Open Source CFD Toolbox
   \\    /   O peration     | Website:  https://openfoam.org
    \\  /    A nd           | Version:  10
     \\/     M anipulation  |
\*---------------------------------------------------------------------------*/
FoamFile
{
    format      ascii;
    class       surfaceScalarField;
    location    "1.3";
    object      phi;
}
// * * * * * * * * * * * * * * * * * * * * * * * * * * * * * * * * * * * * * //

dimensions      [0 3 -1 0 0 0 0];

internalField   nonuniform List<scalar> 
38556
(
-1470.46
999.13
-523.215
-280.42
238.876
-1428.91
443.173
85.4241
-809.017
671.387
-74.7126
-153.502
844.685
-229.211
55.9136
949.683
-227.783
122.784
1018.51
-225.037
156.209
1097.45
-181.815
102.872
1153.3
-117.741
61.8977
1210.23
-54.1711
-2.76178
1255.12
-14.2522
-30.6368
1300.58
45.4351
-90.8909
1342.96
71.5395
-113.927
1402.68
91.3399
-151.062
1486.75
103.847
-187.908
1546.84
117.154
-177.246
1517.03
121.206
-91.398
1373.79
119.955
23.2853
1192.06
170.308
11.4239
141.469
-59.2924
-511.784
270.907
1472.36
167.019
447.06
-886.987
674.434
-320.072
-101.918
937.551
-273.786
-64.0442
950.574
-309.505
67.2714
991.246
-263.897
-4.55728
976.469
-257.698
47.4373
1001.59
-206.39
-0.54273
1022.38
-143.875
5.34438
1054.61
-58.0658
-28.3432
1092.64
-6.86193
-45.4194
1140.46
73.5372
-75.921
1202.47
102.45
-92.9163
1294.6
120.016
-120.806
1395.26
114.98
-111.794
1437.17
90.2803
-15.035
1375.28
83.0046
100.089
1217.9
88.593
188.744
1085.06
148.323
154.825
131.144
49.7151
1381.46
780.845
-1427.08
1132.49
9.5755
686.453
964.979
-152.298
-0.266738
1006.53
-262.982
-52.356
982.757
-235.608
-50.1233
1022.4
-242.753
-60.7917
1009.7
-238.773
-6.2236
1041.35
-202.246
-35.7941
1053.35
-144.914
-10.9636
1077.25
-60.0373
-21.9193
1097.26
-6.38522
-20.4884
1126.37
63.1306
-18.7022
1162.76
77.209
-11.1583
1193.71
82.6447
6.42538
1190.99
63.4251
54.2749
1140.76
40.4888
100.026
1051.41
51.1726
121.173
982.101
66.1683
91.7379
944.066
114.219
72.1392
108.999
42.5226
-1215.56
-233.364
-272.395
-30.3928
-615.245
-560.345
734.83
-411.805
-505.716
785.613
-306.736
-7.02913
843.132
-315.142
22.0156
868.24
-273.221
5.35965
908.711
-314.002
34.7576
935.413
-212.339
-16.6096
971.14
-185.026
4.38631
977.257
-53.1136
-13.0411
973.764
-9.47832
6.58553
959.006
54.4525
23.4367
938.476
46.3326
51.4061
899.539
47.2197
74.3615
837.962
27.4954
97.5073
777.388
21.585
79.4779
736.979
31.0451
60.5365
714.035
39.8999
49.2117
716.561
72.1772
39.5162
73.9229
26.474
57.9357
-75.6432
378.92
686.181
-118.745
-1124.74
1187.6
-243.546
-669.683
929.831
-198.963
150
820.366
-319.524
113.847
713.368
-230.728
64.5051
702.302
-390.988
88.053
697.907
-252.55
44.6058
750.709
-307.512
69.6846
760.816
-111.836
48.6147
769.996
-75.6038
56.9463
759.78
2.21366
62.4544
743.914
-6.12019
68.3184
721.921
3.57198
65.641
705.315
-8.37068
52.4721
693.871
-6.20522
39.2337
694.817
2.94285
27.1568
702.62
16.1149
15.9819
719.998
42.6672
12.1319
50.8758
9.55044
607.802
-1313.22
-762.056
1468.73
-7.45435
-972.221
1777.44
-82.8064
-469.448
1880.21
-58.9948
-242.742
1539.87
-73.0201
93.8361
1194.78
-35.7411
150.102
915.666
-325.514
213.644
760.178
-211.553
114.492
729.843
-382.183
105.006
687.904
-117.896
47.9989
681.609
-124.106
54.797
668.062
-35.1234
50.8838
666.807
-62.1703
57.3052
661.649
-41.2114
49.9418
660.716
-48.7432
41.3056
667.009
-44.1723
31.6739
670.769
-21.6074
20.7897
677.525
-4.73623
14.0952
694.025
19.0052
7.16244
31.1629
3.88926
666.989
-1236.21
358.404
886.477
-232.47
5.52767
948.591
-90.7522
-54.1688
916.001
-35.6865
9.28232
859.586
-77.8677
61.2628
766.057
52.3467
5.44067
675.984
-45.9328
41.9795
-92.4189
-46.3823
-92.686
547.384
-59.852
112.368
-38.7778
-60.1297
-36.5615
438.141
-85.3847
109.226
-106.81
-85.386
-104.585
359.209
-21.9054
-24.9691
11.3937
-17.5241
14.0406
391.027
-30.2841
13.9439
-61.81
-25.877
-51.8962
442.803
-42.0099
35.6384
-31.7396
-29.5802
-19.2086
505.949
-42.6349
44.2899
-44.8355
-35.1973
-46.938
552.364
-30.2609
33.0694
-15.7224
-38.2391
-36.474
602.918
-128.667
29.3705
640.964
-103.613
21.3949
674.689
-66.9378
11.6051
696.722
-33.4918
6.72332
718.928
-6.81726
3.61588
13.2489
1.6932
276.583
-408.134
766.809
851.465
-270.066
-537.284
1098.86
-212.025
-126.12
1123.87
-92.435
31.7386
1202.94
-173.699
16.7607
290.182
0.816685
1.94379
292.552
285.472
288.724
52.4979
-4.39226
47.4883
263.781
-18.7114
-0.821143
-208.25
191.086
-56.2282
13.5405
-182.682
139.558
-71.1653
28.9043
-91.4044
99.5881
-26.009
-4.08005
-105.526
107.349
-33.8809
1.77399
-102.519
118.37
-64.7988
6.9379
-131.644
140.506
-62.3616
10.8647
-137.424
142.416
-54.3995
19.1466
701.398
-56.1069
57.3508
-149.886
-169.683
-165.855
-178.141
-49.9858
-57.1405
-60.6177
717.08
-161.748
42.453
719.757
-91.5495
21.9341
725.023
-52.236
13.479
730.544
-23.3741
11.0354
-2.66466
6.27343
659.807
1091.89
652.611
1085.39
170.438
-866.084
1110.7
30.0549
-267.394
1128.64
54.211
-164.59
275.675
7.26755
-152.403
273.528
279.159
271.718
303.652
-7.49159
-19.6687
-3.02755
-85.1061
82.909
6.56031
-1.3357
-72.086
9.32292
61.6563
-7.3076
8.41433
-44.7337
14.6475
46.9244
-12.6604
-4.17782
-40.6597
7.60097
39.5217
-6.90069
0.437787
-37.5935
8.4838
38.4517
-8.76434
-0.577629
-33.5253
14.7993
34.3362
-13.6858
-1.92437
-40.2061
15.3704
42.2866
-14.8585
-2.59232
-42.647
17.2741
43.5457
-18.1154
-0.0574123
-43.1799
183.56
-70.1899
15.9592
-45.4951
-47.7177
-49.0434
782.306
-204.814
53.0808
-182.412
-197.454
-200.995
-211.46
766.159
-106.799
31.3965
759.755
-61.7133
15.8813
758.091
-34.0133
12.3033
-12.9961
7.40417
732.689
482.222
603.604
1322.84
-392.007
-27.7015
1488.79
-241.297
105.398
1671.94
-156.931
27.9885
420.703
-98.963
45.5452
445.373
423.261
443.291
-17.4665
424.8
52.1645
-38.7958
-6.5846
-108.884
111.372
13.0235
-8.9263
-4.88555
-120.562
124.068
10.1934
-8.81393
10.1979
-87.2786
68.5536
-13.9694
22.4965
-5.20816
-64.6878
64.8853
10.2428
-5.2321
-2.07341
-48.1539
46.1698
6.45251
-2.39499
3.53635
-39.4761
38.6145
-0.946186
-1.72858
10.4948
-43.3863
43.1868
-7.71534
-2.57994
18.8758
-42.0795
42.7719
-19.3611
-0.207197
-46.7119
76.898
203.753
-78.2519
-4.90014
-47.6352
-50.7238
-52.4283
839.206
-184.264
10.6345
-207.692
-214.678
-221.504
-226.516
805.759
-92.4642
19.1129
787.978
-56.2866
12.3536
776.873
-35.0511
12.1435
-19.6385
7.80302
790.135
-515.555
-1278.01
1184.81
-1004.41
217.724
1389.14
-674.144
228.512
1602.72
-545.774
175.271
427.46
-404.687
227.238
401.032
431.923
420.787
-25.7464
465.987
-44.33
31.5497
-10.1136
-124.245
128.813
1.24263
4.30349
-8.57855
-141.047
140.223
3.14738
6.25527
10.7819
-89.9288
76.9615
-7.96452
10.1499
-20.2656
-68.2442
71.0843
21.1046
-3.67919
-15.1937
-71.1847
67.706
15.9206
2.75183
-4.8676
-61.1983
54.5897
6.4801
4.99604
-3.04676
-48.2885
52.9948
5.10222
-6.76172
17.7471
-52.303
45.9964
-17.2149
5.77447
-46.1942
70.3005
212.101
-60.9691
-24.7976
-45.4056
-53.4334
-51.601
834.96
-119.797
-17.2985
-214.072
-212.252
-229.916
-225.888
807.472
-66.2753
1.29896
794.266
-46.5947
3.51367
786.287
-34.7773
7.70545
-24.7214
5.92914
586.511
-1157.47
-1208.59
970.589
-879.289
-509.195
1278.34
-677.344
-304.553
1420.82
-522.385
-165.866
359.239
-374.823
-24.8226
328.786
371.569
356.185
102.151
370.329
-123.29
10.0486
25.7873
-99.6337
103.543
-32.0918
2.39544
16.1263
-107.863
106.597
-17.4209
2.56066
-3.73091
-85.0308
80.1427
5.30547
3.3135
-12.6594
-76.5694
74.7988
10.777
3.65294
-13.9434
-71.0931
70.6362
11.0993
3.30093
-8.84117
-69.9764
70.5584
9.16497
-0.90585
1.39559
-68.8129
64.7447
-1.96477
4.63736
16.165
-45.403
43.0452
-18.109
4.30174
-46.181
50.0043
203.325
-29.0339
-30.0382
-46.794
-50.5481
-50.7344
799.117
-73.0889
-5.79252
-206.49
-201.571
-219.836
-212.137
790.353
-64.1292
6.61786
790.931
-50.3953
3.22263
794.72
-42.949
4.38241
-32.0023
3.14611
343.549
-1418.98
663.845
770.988
-697.758
-608.97
1081.71
-540.492
-447.571
1115.11
-308.354
-247.431
1158.38
-284.404
-133.696
276.474
-366.497
-90.757
118.074
150.445
110.085
137.448
276.613
273.961
272.537
25.5639
258.29
-76.9083
-5.27897
19.7835
30.9067
24.1174
13.3171
-236.307
232.135
-39.0202
-6.23819
10.4412
14.6045
11.068
-0.701801
-263.67
292.445
-14.6072
-6.70829
-4.63811
1.16485
-3.28507
-12.3496
-309.849
313.299
42.0995
6.3052
-13.6227
-12.1884
-13.6948
-10.9969
-325.161
327.626
35.0508
8.59075
-11.5484
-11.439
-12.1216
-7.34466
-330.936
314.573
18.926
25.5262
-6.72482
-7.1563
-6.86321
4.62588
-289.673
260.192
-10.6151
17.5351
8.34116
3.28786
6.30567
12.6274
-245.241
225.612
-15.368
-12.2164
11.8186
11.8775
10.8899
984.228
-109.353
78.8329
21.0195
18.3497
24.8234
19.2506
-226.272
-254.349
-255.028
-301.502
912.184
-85.9033
84.8588
848.876
-60.3155
59.4939
819.81
-43.5359
22.2068
809.363
-39.3318
6.83032
-32.4588
-0.343795
560.202
-1108.59
-654.749
1148.13
-353.392
-932.291
1483.6
-209.296
-666.667
1558.22
-78.6396
-304.336
1451.56
-55.7032
-122.041
1323.92
-192.578
-46.276
1222.89
-53.8174
39.5631
51.2076
11.0907
46.7763
6.21037
1170.93
-230.119
74.9786
44.9087
65.1358
39.9888
57.0647
1172.61
-143.955
120.208
29.3547
-8.40861
18.2028
-17.0801
1226.66
-214.887
172.769
-7.62848
7.39427
-13.3218
1.62401
1269.18
-195.053
177.077
-4.12621
-2.25226
-10.6881
-7.48316
1304.63
-249.279
162.319
8.98801
19.8949
4.64375
17.9837
1331.88
-241.768
134.481
19.5909
18.2272
21.0597
21.1617
1356.31
-244.548
114.986
20.0532
28.0978
25.5307
31.4456
1350.72
-208.277
104.513
1280.57
-112.326
96.5815
1123.57
18.277
78.4047
983.577
55.2311
41.2251
908.72
26.838
8.68661
-5.57949
-0.0799925
3464.75
278.925
-52.693
2585.43
415.307
110.624
1734.5
374.602
267.031
1304.87
142.661
208.329
1071.57
15.6571
161.939
968.515
-138.864
49.3422
1035.57
-179.848
58.9728
1030.99
-283.469
57.9328
1059.49
-253.193
80.7392
1068.83
-283.96
59.7318
1080.04
-242.051
35.7838
1089.5
-248.926
-9.80946
1106.17
-216.48
-41.9589
1127.04
-195.456
-69.9614
1136.29
-154.162
-63.365
1099.28
-40.1115
-35.2029
1028.67
103.098
-14.2092
967.337
134.033
-17.4706
914.767
101.287
-21.8788
37.5471
-14.0606
1817.12
-549.943
-2472.14
1807.45
128.414
296.564
1473.07
274.739
434.242
1284.08
153.402
178.248
1132.45
-27.8346
195.127
1090.35
-127.253
30.484
1075.15
-197.784
33.14
1048.08
-237.176
-19.2198
1001.89
-200.124
-6.8792
955.421
-177.484
-60.0095
928.878
-115.769
-99.7392
932.817
-95.1705
-157.695
957.13
-63.3093
-177.483
990.159
-38.5513
-189.934
1026.42
-6.06459
-184.354
1051.15
60.3419
-125.192
1066.29
124.565
-36.6052
1070.88
134.732
-5.28152
1039.71
117.626
14.8269
57.1993
16.3435
2156.61
-1243.99
846.116
2125.4
-219.547
379.165
1651.25
307.462
441.423
1498.79
216.28
89.5877
1370.69
80.2522
20.0073
1341.8
-34.4487
-63.9149
1286.21
-110.577
-31.6162
1219.22
-129.498
-40.6875
1107.93
-105.946
17.1163
1015.23
-61.4597
-23.3235
963.504
-0.678703
-63.3665
954.81
31.7138
-118.191
976.344
50.4647
-135.308
1012.76
54.4283
-129.395
1054.84
60.8435
-108.988
1081.52
78.4032
-44.7409
1090.13
101.595
14.3599
1087.56
93.0019
44.2978
1046.49
81.9235
76.7781
38.9645
58.1235
710.796
-1562.67
-1816.17
1016.58
-106.46
-418.871
1271.97
118.466
-66.3965
1396.99
105.382
-14.1229
1512.55
-54.4278
19.126
1617.49
-83.4235
-55.9642
1624.12
-106.618
-10.5936
1596.73
-71.7661
-30.3383
1503.85
-30.7949
17.7264
1430.81
7.33158
4.25426
1350.93
53.9943
25.2018
1286.18
80.2998
16.1607
1217.83
84.1275
34.689
1159.89
72.8699
39.5044
1110.57
58.9242
51.2402
1076.64
48.8755
63.452
1050.67
55.4567
72.108
1016.99
45.0127
81.6749
969.593
46.9536
82.3633
24.701
44.895
2049.43
-785.106
-1124.17
2309.95
-87.7319
-279.248
2057.95
101.818
268.652
1840.9
123.427
199.007
1566.37
-31.345
251.442
1461.33
-69.7359
91.3523
1341.49
-87.094
100.316
1284.74
-53.5403
38.5273
1234.44
-40.6544
60.1557
1214
-22.806
50.5795
1185.58
4.08874
78.3254
1151.19
37.5649
77.13
1089.94
50.4949
94.8772
1023.43
48.8106
90.5736
957.544
35.9455
88.8613
908.823
23.4773
74.1191
883.087
24.4286
56.7644
867.932
18.2835
41.8847
865.743
20.525
28.6171
12.1171
12.1258
2418.39
960.269
2202.73
127.924
1962.91
341.641
1925.71
160.622
1694.9
199.466
1559.81
65.3583
1415.46
57.2554
1358.76
3.15771
1293.78
24.3217
1239.78
31.1991
1148.39
95.4772
1059.54
126.413
974.964
135.074
909.804
113.971
870.035
75.7146
846.629
46.8831
841.215
29.8428
842.244
17.255
851.505
11.263
5.43582
-792.724
61.8157
1953.52
-137.712
-38.1963
-2045.73
355.773
-67.5197
-1234.98
534.03
-116.904
-214.854
772.355
-209.61
27.1979
889.611
-163.219
168.748
984.161
-147.474
209.132
1072.81
-113.397
127.615
1133.06
-70.9993
72.6515
1187.31
-42.5706
-14.4385
1228.04
-16.7378
-54.6347
1264.4
-7.01687
-120.227
1295.63
-1.19623
-143.968
1326.25
-0.879197
-180.799
1366.91
-3.93388
-224.638
1450.71
-14.7454
-246.299
1504.57
-6.47482
-138.78
1499.51
-8.33064
36.6764
1393.22
33.1992
84.5075
38.8865
7.13349
-359.86
-1427.71
602.566
-295.865
-314.57
-674.609
458.116
-591.42
-331.999
678.648
-350.739
-50.7415
758.255
-314.667
92.7221
801.73
-209.885
-1.36562
839.753
-189.912
51.8525
882.561
-138.613
-18.1348
918.629
-97.831
-3.89149
940.322
-50.376
-42.2309
951.115
-25.5608
-47.39
951.521
-10.6809
-72.6631
955.424
-12.1431
-85.8728
962.125
-18.0395
-110.346
1002.59
-26.7523
-129.439
1065.32
-31.6636
-60.8534
1066.85
-10.8215
102.907
1001.35
6.73369
239.188
927.322
74.101
187.947
68.0343
60.0334
121.422
170.155
-509.976
729.419
-443.502
207.389
848.054
-335.564
-374.758
861.754
-307.458
-109.336
791.037
-250.992
-43.0811
802.388
-236.502
-45.5253
825.125
-232.032
13.1587
876.341
-191.959
-33.6645
913.684
-146.373
0.235796
934.233
-80.8341
-12.0104
933.161
-52.009
7.03169
920.721
-26.0879
9.14523
906.449
-32.0135
22.9831
897.529
-37.2714
34.5771
886.325
-42.7174
81.4437
869.774
-42.7273
127.642
839.276
-15.5328
156.382
817.711
10.5338
109.503
819.94
69.8702
74.1413
77.2342
34.8461
-62.5787
-76.0929
1909.7
434.799
-604.342
-896.884
521.435
-466.938
-460.977
562.114
-310.369
-44.7972
649.194
-304.91
-11.1464
667.258
-261.291
12.0849
764.031
-329.838
35.7919
806.056
-228.68
-21.9139
874.898
-218.047
7.21718
893.498
-96.2741
-16.2014
894.978
-63.4193
16.5163
871.003
-9.47956
30.8032
833.151
-12.5793
69.8231
788.893
-7.51062
88.8593
747.658
-11.4468
107.472
707.19
-6.44076
83.6594
680.955
8.22252
63.0162
670.009
22.7966
47.8945
685.706
58.3485
35.3415
64.1879
22.5982
3426.2
-703.439
-2860.41
1468.24
-52.1982
281.078
840.214
-115.465
-393.134
588.149
-135.15
226.846
621.003
-282.932
59.015
543.568
-201.209
81.8569
630.457
-422.132
93.4584
646.207
-255.062
55.2376
728.027
-323.094
92.9123
750.385
-126.769
56.7515
765.123
-100.157
78.9457
754.098
-21.3863
85.3864
735.587
-25.9878
100.238
712.394
-13.8504
95.1733
698.152
-22.279
77.5469
689.277
-17.5319
59.1991
691.108
-4.26847
37.817
699.195
10.2833
20.4078
717.803
40.6272
11.2454
50.0156
8.48341
975.56
-1892.97
-1259.89
1214.33
-89.8345
-1173.35
1142.38
-86.3019
-426.663
1086.8
-89.736
-232.578
906.24
-106.701
98.1651
770.364
-54.6069
139.376
725.823
-391.882
227.934
628.608
-169.179
125.824
656.637
-379.397
133.281
636.89
-83.7066
24.6834
646.719
-121.905
66.7158
645.123
-34.6194
65.7127
651.937
-65.2131
89.7164
653.876
-47.6996
81.8519
658.725
-57.8605
72.0378
667.807
-48.5894
53.6492
674.405
-22.9019
32.8252
683.958
-4.80324
19.6294
701.802
20.2371
9.70823
32.6066
5.1023
16.8575
-335.314
-146.415
209.403
-221.586
-55.2658
622.428
-208.175
-345.32
607.439
-134.972
69.5062
691.466
-139.789
10.3245
592.144
35.1386
15.0176
497.228
-56.5253
72.419
-102.706
-61.4454
-106.729
381.485
-51.2481
174.31
-19.5072
-41.7116
-2.9118
351.789
-82.3397
133.092
-106.489
-77.9559
-106.782
316.379
-15.4627
-73.4115
18.3612
-17.9874
15.2343
381.047
-28.1986
-19.406
-48.2182
-25.2844
-51.5219
434.147
-24.3946
31.4265
-13.1045
-29.264
-16.7448
505.91
-31.2872
59.3799
-45.9444
-31.4762
-43.3584
559.786
-38.8395
74.4164
-36.2834
-35.9703
-31.8291
611.395
-149.865
69.7664
647.469
-112.697
49.4289
680.606
-70.0633
25.6299
702.94
-34.6921
14.2774
725.601
-6.33499
7.5273
14.1353
3.67777
837.109
-310.346
3103.75
821.967
-301.412
-442.317
890.601
-251.879
-151.05
923.525
-142.853
6.69532
1018.7
-196.497
-21.704
241.438
0.121391
1.47558
245.212
229.043
232.854
50.1076
3.09718
52.4304
-1.91756
216.153
-24.1295
-5.1931
-21.6903
-170.335
166
-55.2543
30.031
-60.1881
-158.773
120.951
-68.9546
84.6247
13.241
-78.6379
88.1518
-25.2814
-12.9361
2.44017
-93.8654
97.1492
-28.3889
-5.53362
-5.23405
-93.456
110.963
-41.7802
5.11267
-12.2736
-127.634
143.315
-48.3936
13.6989
-24.1873
-148.756
160.908
-58.8859
32.0809
723.898
-67.971
134.657
-167.02
-179.465
-164.878
-174.967
-66.5184
-67.6521
-62.5977
734.312
-175.037
94.3787
729.893
-96.0285
52.3185
732.547
-54.688
30.8204
736.995
-24.2115
24.4642
-2.67797
13.6072
767.937
-738.02
1510.57
930.282
-37.5741
-1292.27
913.585
-11.7681
-490.807
886.933
-47.1197
-233.671
228.259
-125.199
-209.859
226.116
210.126
208.592
32.433
255.345
-15.2235
-44.1748
2.97818
-0.867967
-73.0383
71.5771
3.69318
-4.34212
-10.1003
-71.6223
7.87172
72.2021
-6.90374
8.5525
-2.92615
-66.5656
16.8376
62.3203
-17.054
7.3878
-16.4224
-42.9553
7.24124
39.0129
-6.08627
19.2098
1.87069
-38.4151
4.41245
39.4346
-2.54513
-4.75752
12.4461
-41.8553
9.84191
42.8409
-8.61964
-14.6539
6.39688
-41.9526
14.6456
42.35
-14.8977
-6.54218
6.71751
-41.3642
16.1122
42.8737
-16.3269
-8.01229
-46.9904
-10.6336
200.994
-79.467
6.31215
-46.622
-45.914
-45.6501
792.814
-215.229
107.405
-200.87
-210.82
-192.647
-202.609
775.772
-111.174
63.5832
768.601
-64.0661
32.4307
766.294
-35.2212
25.6195
-13.4666
15.5717
610.256
505.389
-1882.03
792.14
-136.294
-110.866
1178.66
-101.223
-191.667
1256.45
-145.264
48.3459
340.561
-173.936
-0.405242
360.536
315.847
334.189
57.5751
18.0394
351.007
-17.9477
-68.1131
21.2544
1.99271
-89.5971
91.1528
-1.3291
-23.4737
20.5389
5.51099
-95.1438
96.8298
-6.45788
-21.278
-34.1941
19.9814
-102.743
103.552
-19.5621
32.9662
-10.5449
2.36708
-91.8316
80.2904
-0.298047
20.0172
6.92053
-6.29574
-56.741
56.0109
8.40609
-8.30084
11.5921
-2.70407
-56.6754
56.7718
6.1567
-15.1411
13.5725
7.30973
-54.3567
53.6951
-4.36709
-15.8535
-3.84762
8.26548
-53.4605
52.8034
-7.25163
3.4908
-50.3432
11.7529
70.5793
214.08
-60.5027
-29.1769
-52.5072
-50.8675
-53.0148
856.433
-197.038
19.9079
-221.495
-227.339
-212.176
-222.888
819.281
-99.1598
44.2511
799.368
-59.3129
27.5134
786.383
-36.3278
26.2352
-20.343
16.6169
894.27
959.336
759.319
938.487
-221.096
258.31
1123.84
-118.929
60.869
1259.58
-222.845
117.11
361.394
-207.502
149.25
351.797
334.384
323.557
-59.8701
36.2961
401.604
-64.8142
48.1787
-14.4952
7.49157
-109.768
115.055
-11.8706
13.5865
-13.7229
8.93288
-122.233
122.965
-9.76046
13.8183
-32.218
9.61304
-119.309
112.611
-5.50554
34.8082
-3.66985
-8.61079
-84.2255
78.5074
10.3155
7.68319
-7.05443
-7.45766
-70.6939
68.6472
7.20697
9.35185
-14.9556
-10.1375
-62.5871
61.805
9.48046
16.3947
5.74415
-4.32944
-64.6614
66.0177
6.52012
-9.29119
-10.6841
10.9433
-62.1173
64.4703
-13.418
10.8057
-64.2274
23.8586
55.4667
244.961
-51.2029
-12.7256
-64.6712
-64.3539
-67.1054
871.858
-127.307
-9.01128
-235.165
-237.798
-233.96
-242.954
829.62
-70.4857
14.863
808.4
-48.5599
13.9805
796.362
-36.0244
19.4403
-26.0105
13.7897
179.409
64.0266
-1484.09
524.41
-294.276
-781.017
1060.6
-214.583
-745.093
1104.12
-226.051
-206.173
306.039
-200.443
-82.1987
290.984
283.833
273.577
-11.9155
70.4275
324.444
-74.5863
-2.33108
-8.90824
18.6107
-91.836
97.0873
-22.0263
7.07258
-10.0556
12.492
-101.636
100.727
-11.8746
10.3469
-13.1926
0.128323
-97.8457
93.6357
2.29271
14.9815
-7.99297
-11.3699
-79.759
78.6501
11.9589
8.51284
-8.58912
-10.2914
-78.9571
78.5199
10.3828
8.93495
0.221165
-5.7524
-75.2309
74.0417
6.2625
0.457915
-11.479
-2.30064
-71.2484
71.8763
1.81232
11.3395
-13.4082
14.898
-65.4407
62.4325
-14.8055
16.324
-62.4696
46.7373
48.8824
241.473
-34.0113
-47.3108
-62.2863
-65.5461
-65.4688
814.316
-68.5503
9.21506
-225.944
-213.949
-232.063
-216.124
801.492
-65.5681
14.5244
800.356
-51.9469
7.74523
803.217
-45.4648
10.9618
-35.0103
8.19328
83.3201
-1389.72
2424.41
539.928
-533.2
-826.654
932.272
-483.533
-570.965
942.594
-283.475
-200.33
999.608
-271.32
-119.834
240.401
-369.285
-69.3569
87.7275
122.466
85.0423
117.915
235.949
231.282
226.71
22.7689
7.16404
229.678
-56.575
-15.3988
16.2421
21.6544
14.8673
7.5992
13.7943
-215.744
219.315
-17.7874
-21.1868
4.71251
6.01418
3.28286
-5.50484
12.6973
-251.105
271.243
15.4721
-15.2679
-9.71681
-6.93169
-10.886
-13.7309
-8.60719
-281.126
286.904
50.5589
9.57642
-14.6902
-14.0315
-14.8535
-11.7517
-13.3736
-303.516
309.276
41.0309
15.0691
-12.4666
-11.786
-12.4816
-8.08791
-34.0334
-313.87
316.187
28.3613
36.2185
-8.14343
-8.23971
-8.39167
-1.4029
-31.2715
-327.039
318.818
7.2959
35.6657
0.238575
-1.97153
-0.333731
8.07423
14.2878
-299.371
263.948
-3.8332
-6.90022
8.7344
7.11686
7.94365
973.895
-29.2984
145.136
20.8859
15.2633
18.4197
14.1638
-249.266
-299.439
-246.274
-284.653
893.89
-38.5046
134.819
840.531
-35.1722
82.4571
819.818
-36.8438
27.8166
813.568
-44.3147
11.93
-39.8958
2.3116
1037.84
-1682.38
-1749.33
1313.95
-359.762
-1381.84
1295.05
-370.879
-760.413
1248.7
-226.619
-314.841
1139.72
-161.854
-122.536
1032.95
-265.986
-42.7965
1013.25
-34.755
47.1091
33.6984
-3.78438
28.0352
-11.0439
1028.32
-190.521
98.8108
32.1849
48.4235
27.6326
43.3809
1097.1
-53.2647
169.713
3.42341
-29.5842
-5.80157
-33.0641
1196.12
-105.29
234.965
-21.6313
-6.6103
-21.9914
-5.68953
1269.78
-58.7062
243.838
-20.1526
-20.463
-19.8441
-21.2566
1321.49
-88.7713
214.034
-9.95759
4.32959
-11.4
2.37867
1351.71
-63.6669
169.383
0.711443
3.57348
-4.03531
-1.71021
1366.83
-64.171
143.791
4.29772
11.4968
-2.7266
7.17832
1349.62
-38.8451
131.266
1266.21
4.18798
137.306
1114.52
61.7838
133.138
992.853
60.1386
65.9074
922.818
15.2038
19.203
-19.8087
7.14381
818.577
-291.655
2437.15
758.979
-74.3643
-115.176
943.986
-134.639
-154.216
875.619
-92.2658
142.343
910.867
-127.158
91.9956
845.616
-211.111
59.7189
946.03
-155.078
78.8814
947.929
-211.402
76.915
1006.87
-128.037
96.5753
1031.9
-144.223
73.6279
1055.65
-85.0887
38.4164
1069.21
-90.6483
-21.4902
1081.1
-55.0338
-62.4804
1092.93
-44.8954
-101.071
1101.68
-11.1746
-99.7796
1089.07
55.1993
-73.612
1064.07
113.285
-40.7009
1037.4
108.571
-39.2411
980.771
51.1451
-1.18838
2.97055
5.71148
436.173
-1719.54
-138.38
663.239
-922.112
917.245
920.004
-314.043
356.88
889.639
-102.436
218.784
917.318
-201.926
242.216
884.142
-190.216
42.7655
887.385
-179.442
54.2597
855.522
-162.391
-36.3673
852.155
-89.073
-42.4769
845.346
-84.0814
-113.342
858.295
-42.4114
-155.365
869.589
-56.0485
-203.59
894.192
-38.8985
-218.221
915.059
-33.3169
-222.379
940.789
-2.59614
-218.662
993.695
54.2029
-177.101
1068.55
92.239
-90.4119
1116.09
79.3367
-23.5926
1096.28
47.7591
38.0257
19.5056
35.1999
3370.01
-1615.77
2977.3
2351.29
-520.583
996.361
1570.38
143.141
765.148
1295.45
74.6511
187.431
1091.11
-71.5854
93.9986
995.441
-127.645
-30.8123
893.092
-142.826
34.1179
817.45
-83.6291
-43.8079
801.1
-29.011
-26.596
790.441
8.424
-105.17
818.991
17.1091
-151.437
836.153
-0.403931
-190.997
865.711
-9.96955
-193.795
891.5
-20.0009
-168.5
939.217
-13.3028
-145.998
1008.67
13.8319
-73.8252
1064.6
39.7593
10.9077
1080.06
33.206
74.9737
1045.57
36.0455
122.975
21.2289
90.5149
2174.43
-378.315
-297.04
1197.06
372.888
-334.97
1081.36
141.748
50.6901
1115.11
33.346
-6.56384
1191.8
-176.225
47.0794
1212.33
-160.721
-43.4205
1163.67
-140.794
36.0337
1098.97
-43.8588
-5.40806
1014.88
22.4816
50.322
959.558
72.7033
-4.70228
939.396
73.5302
-11.0567
940.668
51.3806
-36.8959
956.408
25.0847
-16.1057
967.946
2.36554
5.60058
976.228
-3.41624
33.0713
979.988
-3.38645
76.9106
974.911
10.9298
106.014
961.14
13.5254
115.127
938.684
26.7172
114.147
18.3256
63.1216
1046.2
-318.106
-1796.42
1180.11
321.986
-362.258
1314.4
126.678
149.437
1336.75
92.0402
117.957
1273.41
-162.371
300.934
1228.19
-133.035
108.889
1134.96
-94.8081
147.557
1080.5
-15.13
64.2603
1030.64
18.9176
113.575
1000.07
50.8226
103.035
969.249
44.852
137.822
937.562
37.1931
123.003
908.365
22.4502
126.709
880.703
13.0354
107.566
865.164
3.62449
97.3597
856.264
0.813464
78.8201
852.476
8.32449
63.1575
853.431
9.87368
44.5814
862.143
15.7828
30.8392
10.2626
14.1628
1659.99
-999.616
2240.1
-130.202
2252.14
456.286
2171.98
332.824
1706.8
502.274
1427.57
211.551
1253.8
136.214
1186.64
55.1883
1128.61
101.276
1085.83
124.802
1033.84
192.311
985.059
212.391
937.829
204.755
899.599
165.235
871.662
107.276
854.473
64.8859
849.693
42.9472
850.683
26.1389
859.836
17.8929
9.00063
1333.23
-147.646
-2508.76
462.184
-124.542
-1050.14
532.08
-82.0601
-1222.82
562.002
-98.3223
-146.453
735.589
-153.953
7.56307
854.44
-99.3887
149.286
958.977
-79.505
184.1
1047.46
-58.6669
97.795
1098.54
-34.5971
56.1728
1132.3
-30.1783
-18.0194
1145.99
-28.8939
-39.4285
1153.16
-46.8231
-80.5761
1160.01
-66.3677
-84.4504
1172.89
-81.1166
-112.563
1184.3
-88.9904
-147.053
1214.47
-103.181
-173.297
1290.97
-101.911
-113.363
1382.98
-81.9699
26.6331
1367.03
7.74731
92.713
31.8375
32.4436
-280.688
-1649.71
-1606.01
-341.514
-622.221
-116.103
338.409
-645.95
-448.032
514.655
-337.966
12.6568
636.156
-275.529
92.7969
679.088
-150.287
6.60153
749.081
-130.962
33.3168
793.596
-88.011
-33.3059
838.823
-69.354
-14.3619
860.669
-50.7936
-43.4622
873.69
-60.3947
-28.9099
870.635
-75.7014
-40.7296
864.591
-108.299
-37.8973
852.205
-122.412
-56.6648
838.354
-133.065
-71.5132
844.592
-125.647
-44.6248
857.972
-82.4603
70.0767
861.524
-31.2155
184.881
860.454
58.5872
138.177
67.9064
37.502
846.135
-122.091
-1596.95
1059.3
-484.373
-143.62
799.051
-379.959
-380.504
745.597
-312.271
-81.5774
650.325
-233.253
9.91533
660.224
-197.015
-8.69749
713.155
-198.283
27.5495
766.622
-157.23
-17.9133
819.034
-129.892
8.36183
846.373
-83.5883
-6.55467
855.631
-80.0051
17.3841
840.678
-68.7955
17.1927
810.762
-90.0238
34.6232
777.739
-92.4376
37.626
753.511
-95.0372
67.6429
744.949
-84.1791
94.736
744.027
-43.3295
118.173
750.523
-6.16924
77.9609
765.006
68.2914
49.9541
76.8625
23.5217
1601.71
-1028.66
-2574.32
568.004
-567.201
219.651
485.828
-495.127
-263.631
469.738
-320.959
-20.0199
535.124
-283.837
-25.9477
551.977
-225.311
23.5279
678.585
-310.546
21.4471
716.739
-205.507
-11.7902
793.546
-211.949
12.4665
815.455
-111.219
-10.479
825.682
-100.639
26.9232
802.515
-55.1252
40.2998
766.167
-63.8708
80.0173
726.322
-54.3367
90.6035
700.033
-52.8352
91.5597
676.626
-42.4297
65.3169
661.753
-12.1659
46.7256
657.674
11.7809
34.0232
677.746
55.744
27.8163
63.3002
17.2461
924.313
-1572.27
-2372.16
725.656
-445.145
357.68
524.219
-221.143
-465.681
423.266
-163.177
170.016
481.286
-271.114
-11.7275
432.297
-175.108
80.6434
580.089
-427.327
62.447
604.766
-228.143
53.1965
695.605
-296.352
86.4774
710.773
-122.781
53.1451
722.425
-123.485
90.14
711.318
-55.9157
97.2838
699.908
-66.1713
113.948
684.576
-48.0622
104.231
679.012
-51.7532
82.0284
677.776
-40.682
58.6875
686.468
-17.2535
34.213
697.805
3.24771
17.6034
717.401
38.1628
9.23057
48.7308
7.11518
769.475
-2290.49
-293.331
784.48
-320.017
-1313.48
831.815
-188.813
-506.328
748.773
-118.243
-194.471
644.895
-116.532
47.4617
566.727
-54.3983
96.8337
635.109
-427.36
159.585
579.497
-124.682
77.9752
640.033
-326.793
103.186
608.726
-76.3243
9.5341
602.764
-125.946
75.1379
594.866
-50.9356
68.6309
607.991
-79.6632
90.0824
620.316
-57.1109
78.5762
638.342
-62.954
65.212
656.623
-53.6725
48.3595
668.853
-25.1096
28.4503
682.127
-6.73269
16.3361
701.231
19.3972
9.3695
32.1754
5.02638
537.826
-982.636
1446.34
351.057
-321.507
132.993
452.26
-267.536
-367.801
483.489
-168.048
88.0819
562.93
-152.591
-33.0582
450.462
43.1131
29.9747
405.621
-69.1377
62.1168
-112.709
-75.5723
-114.798
363.303
-26.4514
118.057
10.8726
-21.5704
11.0386
406.137
-65.7774
75.7793
-97.187
-57.2295
-92.1201
358.281
-22.0647
-77.0597
12.6585
-26.8669
11.4522
393.16
-23.705
-30.7142
-52.7304
-23.6052
-49.4759
437.961
-34.5201
43.3257
-22.3681
-31.5646
-19.1827
505.162
-32.903
52.1717
-39.7379
-30.5905
-36.4241
551.508
-30.2231
74.7248
-26.9156
-26.3062
-20.3209
602.693
-112.857
68.4843
642.087
-97.041
53.4036
677.801
-66.7798
31.5855
701.679
-34.037
17.7042
724.957
-5.76718
9.41345
14.4634
4.64267
444.329
-687.081
-145.582
630.784
-383.836
-566.443
757.632
-316.186
-229.248
784.607
-186.329
-1.99848
860.937
-215.469
-35.1553
193.466
8.54813
9.95289
196.628
180.636
183.107
58.118
13.0594
62.0109
1.93421
163.605
-35.211
-6.00075
-44.3109
-109.014
107.812
-38.0604
57.1221
-86.2743
-115.141
110.898
-46.2984
71.0387
18.7864
-89.5779
98.3766
-26.8441
-22.8057
9.85196
-107.227
115.204
-22.9261
-18.6078
-11.4197
-112.501
124.15
-50.1646
15.4156
-18.996
-133.525
142.841
-47.6085
24.3857
-39.3645
-143.739
155.05
-41.0177
38.8485
687.485
-45.1971
119.002
-159.541
-163.446
-155.41
-157.687
-43.2813
-30.1366
-29.9899
714.485
-119.753
90.0906
722.561
-82.19
59.6526
730.104
-50.733
39.974
735.933
-23.3946
36.2627
-2.49071
20.6715
1312.18
-524.804
1866.68
1190.6
-138.245
-1416.28
837.046
-109.564
-343.875
716.539
-124.489
-175.004
176.564
-191.666
-175.645
173.049
158.187
150.72
42.4438
195.396
-13.4716
-39.2562
4.42008
0.906374
-56.7149
54.8723
1.81516
-5.29909
-6.23077
-52.4855
9.23128
52.6009
-9.58088
6.46491
-19.8699
-49.5683
10.9967
46.9741
-12.7019
24.1693
-17.5844
-41.0988
4.75966
43.1856
-3.60125
14.3392
13.6405
-41.5915
3.87707
41.7575
-2.86786
-14.8156
17.8388
-39.5606
11.1778
39.5815
-11.3469
-17.6907
5.09657
-36.2856
14.4494
36.5086
-15.3766
-4.39233
9.27316
-36.2651
12.8741
37.9509
-16.487
-7.34607
-40.3642
-6.00417
172.049
-61.5511
10.9332
-41.2587
-38.7562
-40.2443
742.696
-144.461
92.5034
-175.204
-183.609
-168.71
-175.563
755.286
-87.5427
56.3465
760.86
-56.3112
32.4344
763.715
-32.9039
32.2743
-12.7252
21.2625
330.01
0.1728
-4081.3
663.931
64.9969
-648.028
871.057
-39.234
-469.123
925.632
-151.174
20.4562
255.787
-199.824
-59.8562
270.834
227.384
239.236
60.6929
35.0553
263.933
-46.2452
-57.649
20.2758
7.86866
-68.9186
70.2444
-10.2282
-19.242
17.9468
12.3719
-70.3976
70.7511
-14.8793
-15.7929
-31.6885
15.2822
-75.9062
78.5986