/*--------------------------------*- C++ -*----------------------------------*\
  =========                 |
  \\      /  F ield         | OpenFOAM: The Open Source CFD Toolbox
   \\    /   O peration     | Website:  https://openfoam.org
    \\  /    A nd           | Version:  10
     \\/     M anipulation  |
\*---------------------------------------------------------------------------*/
FoamFile
{
    format      ascii;
    class       surfaceScalarField;
    location    "1.3";
    object      phi_0;
}
// * * * * * * * * * * * * * * * * * * * * * * * * * * * * * * * * * * * * * //

dimensions      [0 3 -1 0 0 0 0];

internalField   nonuniform List<scalar> 
38556
(
-1996.42
214.455
138.959
-618.105
-74.1727
-1304.14
229.069
-74.7552
-772.419
540.237
-157.236
-153.931
771.329
-296.77
65.6775
919.085
-272.16
124.404
1011.8
-251.395
158.676
1109.03
-200.524
103.294
1177.82
-130.09
61.3015
1244.39
-62.9996
-3.56387
1296.51
-20.3258
-31.8008
1347.56
40.5006
-91.5531
1394.22
67.6024
-114.26
1457.88
88.19
-151.848
1544.48
101.63
-188.224
1605.14
115.444
-176.11
1573.51
120.082
-88.4482
1428.9
119.968
24.6359
1248.84
170.612
9.45282
141.636
-60.9603
-405.62
-235.716
2658.34
66.6789
49.1574
-595.629
583.207
-517.008
-74.2748
885.215
-403.821
-55.4235
907.045
-398.369
79.7695
972.01
-330.732
-6.3936
974.6
-304.49
50.5047
1015.56
-240.64
-0.844133
1048.41
-168.216
5.28096
1089.69
-75.3091
-28.9716
1135.22
-19.5639
-46.2939
1188.55
63.4049
-76.235
1254.87
94.3734
-93.0903
1350.81
113.436
-121.185
1453.23
109.904
-110.691
1495.21
86.2758
-12.8186
1431.65
81.0016
102.639
1273.7
87.8351
190.091
1143.21
147.926
153.169
131.203
48.9563
1372.24
664.076
254.405
1012.84
-328.277
736.834
875.191
-402.118
22.7582
956.834
-436.234
-49.2285
959.754
-356.5
-44.7889
1024.11
-333.174
-61.9118
1024.23
-300.343
-4.26616
1067.02
-248.139
-35.2903
1087.02
-177.712
-10.5103
1117.33
-83.6754
-21.9389
1143.07
-24.8205
-20.4873
1176.41
48.5647
-18.4948
1215.91
65.4741
-10.6009
1248.87
73.3721
7.10129
1247.11
56.2541
55.4039
1197.61
35.0491
100.727
1109.52
47.7663
121.333
1041.39
64.3554
91.602
1004.12
113.298
71.9004
108.94
42.6749
-984.17
-531.736
-224.457
73.6136
-919.943
-466.118
762.667
-617.885
-473.286
813.125
-480.565
-6.12778
863.684
-432.037
24.9782
894.472
-367.022
3.06023
937.967
-381.091
37.2521
970.841
-263.896
-17.1167
1012
-223.539
4.67114
1022.44
-81.2375
-12.8842
1022.5
-31.8769
7.00201
1010.93
35.8482
24.2827
992.498
31.4755
52.4307
955.241
35.7566
74.8728
895.229
18.4391
97.8274
835.76
15.1389
79.3791
796.478
26.7193
60.3283
774.354
37.2401
49.2395
777.461
70.6668
39.5244
73.3519
26.5502
13.6584
-778.004
-438.163
735.474
-459.513
-1182.25
1219.32
-443.349
-658.378
954.78
-362.357
146.327
853.846
-449.688
118.586
752.948
-327.917
61.7928
746.122
-465.037
90.7711
744.919
-307.684
44.9917
801.197
-350.551
70.7343
812.762
-142.3
49.4972
823.939
-100.44
57.3859
815.227
-18.3433
62.9036
800.461
-22.1757
68.4167
779.948
-9.58384
65.8541
764.465
-18.2298
52.1516
753.985
-13.4559
39.0741
755.858
-2.40098
27.2476
764.666
12.7
15.732
782.645
40.6688
12.0194
50.2042
9.52992
997.598
-1746.09
-629.895
1751.16
-184.752
-1028.33
1954.41
-210.269
-436.329
2005.21
-177.828
-235.324
1618.47
-169.527
106.577
1261.76
-120.788
149.582
973.224
-390.696
214.194
816.822
-264.744
113.461
787.564
-426.842
105.55
747.146
-150.755
48.8731
741.853
-150.45
55.3025
728.368
-55.6166
50.7591
727.738
-79.0556
57.5096
722.969
-54.7119
49.8971
722.765
-59.4811
41.4548
729.857
-52.2107
31.6628
734.061
-27.3899
20.7853
741.192
-8.51833
14.0874
757.969
16.7538
7.13798
30.2729
3.82769
1088.28
-1038.01
1025.48
1077.22
-231.252
57.5557
1092.06
-149.668
-75.4339
1028.26
-119.226
5.19264
947.64
-152.728
63.8231
850.164
-24.2461
0.934053
751.613
-65.1068
43.9107
-102.551
-65.5809
-102.817
615.48
-77.2034
112.833
-44.5235
-77.4252
-42.2908
501.643
-101.107
110.349
-111.72
-101.216
-109.313
418.932
-33.3362
-24.9798
8.59141
-29.3538
11.0347
451.542
-42.4017
14.4269
-63.5903
-37.8941
-53.6
503.84
-52.3044
35.4668
-31.7581
-39.7576
-19.5621
568.235
-52.3451
44.2803
-44.0722
-44.9053
-46.4085
616.042
-38.9172
33.0531
-14.5991
-47.0855
-34.9698
667.756
-140.492
29.2969
706.305
-112.094
21.3347
740.335
-72.9589
11.5385
762.704
-37.6333
6.74608
784.96
-9.17275
3.67051
12.3548
1.68475
441.768
-154.366
512.803
1004.3
-238.884
-554.896
1232.59
-258.214
-119.75
1242.44
-154.953
25.8759
1307.25
-231.907
14.3728
312.298
-19.3929
-1.82654
315.722
307.377
311.66
43.4902
-24.4261
38.105
282.794
-34.8341
-0.769045
-230.501
207.597
-67.8318
13.5327
-204.109
154.162
-80.6215
29.4608
-110.37
113.512
-32.3793
-4.0991
-124.703
120.951
-40.5922
1.94207
-121.447
132.185
-70.2006
7.15816
-150.75
154.009
-66.7395
11.1348
-156.038
155.469
-57.4901
19.1422
769.028
-64.0324
57.6522
-167.344
-186.645
-183.288
-195.204
-47.3075
-65.3104
-58.0428
784.795
-170.066
42.2053
787.335
-97.3545
21.8555
792.66
-56.4807
13.5222
798.248
-25.847
11.0867
-3.59878
6.34991
558.565
765.089
131.028
1148.89
83.7901
-912.994
1214.2
-67.6383
-255.889
1237.56
-10.0251
-168.289
303.366
-49.0717
-154.39
301.796
305.694
298.258
326.989
-23.9393
-19.0761
2.36486
-91.6889
88.4042
2.31288
-1.39298
-77.7423
13.7245
65.5831
-10.4487
8.88341
-50.5012
18.2619
51.4484
-14.967
-4.24215
-45.8916
10.4785
43.4341
-8.50603
0.485074
-42.6585
11.4592
42.2053
-10.4174
-0.588501
-38.426
17.5004
37.9777
-15.0647
-1.98741
-45.1464
17.9066
45.8435
-16.0586
-2.54516
-47.4629
19.5724
47.0355
-19.1206
-0.0244333
-47.9401
196.917
-72.9471
16.3459
-50.1863
-52.5235
-53.6986
852.046
-211.851
53.3648
-200.341
-214.921
-219.082
-229.283
835.854
-112.414
31.2514
829.493
-65.9905
15.8702
827.794
-36.6015
12.4537
-14.0388
7.59933
866.697
33.585
464.353
1462.7
-591.056
78.8448
1613
-350.25
132.308
1794.69
-221.513
29.7965
450.127
-144.198
41.6093
474.766
451.462
471.856
-2.59848
453.286
40.5543
-41.115
-3.69128
-115.672
118.214
10.3047
-9.15601
-1.82122
-127.341
130.148
7.27481
-8.26048
11.3976
-91.0471
72.9997
-14.7789
21.4287
-3.56248
-70.1114
69.8643
8.7298
-4.92026
-0.520317
-52.7995
50.9175
4.95319
-2.55093
4.81342
-44.1419
43.2904
-2.16431
-1.7976
11.8396
-48.0724
47.7763
-9.11897
-2.42452
19.8785
-46.6217
47.3002
-20.3521
-0.204866
-51.2105
79.9192
221.699
-81.334
-4.66516
-52.2232
-55.2656
-56.92
911.023
-191.494
11.3305
-225.649
-232.662
-239.691
-244.708
877.484
-98.1682
19.2937
859.647
-60.6015
12.4477
848.453
-37.7313
12.3232
-20.761
8.03429
1186.15
-836.884
-1536.02
1436.86
-1143.74
301.982
1561.59
-721.143
246.16
1745.14
-582.277
177.211
460.337
-435.606
227.103
432.896
464.144
452.068
-15.9863
497.539
-52.2652
31.0494
-7.94779
-131.775
136.264
-0.557176
4.01566
-5.97329
-147.56
145.895
0.954578
6.68411
12.1091
-94.2757
81.9515
-9.55173
9.76687
-18.9226
-73.9723
76.7378
19.8149
-3.65788
-13.477
-76.1744
72.7066
14.1349
2.80996
-3.5448
-65.9516
59.2024
5.24549
5.0485
-1.92843
-53.2733
58.1377
4.15556
-7.09157
18.6828
-56.6426
50.4616
-18.1703
5.66846
-51.0283
73.4366
231.005
-63.8341
-24.5868
-50.3072
-58.2817
-56.4037
908.769
-127.378
-16.2397
-232.615
-231.084
-248.48
-244.466
881.198
-72.0628
1.46538
867.873
-50.9259
3.64944
859.778
-37.5394
7.9034
-25.8851
6.16085
1187.81
-886.026
-538.371
1247.04
-838.879
-364.092
1459.49
-673.474
-260.121
1568.14
-533.258
-157.671
392.323
-387.336
-22.7662
360.219
403.63
386.464
109.006
400.761
-127.557
10.1135
27.1863
-107.268
111.002
-33.2903
2.37058
17.5072
-114.612
112.985
-18.6625
2.78245
-2.52353
-90.6081
85.9384
4.27739
2.91592
-11.3523
-82.2928
80.4073
9.46248
3.77531
-12.5649
-76.5247
75.9375
9.89976
3.25228
-7.73206
-75.1665
75.6638
8.12273
-0.888034
2.78371
-73.7142
69.4291
-3.29875
4.80017
17.0777
-50.0913
47.8122
-18.9354
4.13672
-51.0797
52.624
222.582
-31.4152
-29.8831
-51.7703
-55.3992
-55.6581
875.061
-79.8686
-4.86022
-225.647
-221.303
-238.976
-231.784
866.131
-69.8836
6.75119
866.199
-54.2954
3.30105
869.681
-45.5766
4.55516
-33.1636
3.32426
757.453
-1283.32
858.302
988.639
-544.294
-525.771
1241.5
-474.018
-452.312
1244.01
-287.796
-247.977
1274.58
-284.222
-133.679
305.006
-379.121
-91.9864
117.473
160.527
109.308
147.207
304.179
302.256
299.727
25.1044
285.031
-78.2392
-5.38582
21.8427
30.5502
26.1036
13.0051
-262.151
257.818
-42.8472
-6.19457
12.7569
14.2623
13.3504
-1.85603
-289.542
317.996
-16.8535
-5.50125
-2.60719
-0.420116
-1.21582
-12.6713
-333.929
336.572
38.404
6.54302
-11.1425
-12.5312
-11.2449
-11.3249
-347.898
349.661
31.545
8.58144
-9.11073
-11.7656
-9.68843
-7.72923
-352.555
335.084
15.3109
26.2503
-4.33483
-7.54113
-4.48491
4.36877
-309.378
280.052
-14.0581
16.3128
10.8697
2.9997
8.83313
11.9913
-264.988
245.039
-18.115
-12.1667
13.9514
11.2394
13.0484
1062.36
-116.446
79.9228
18.1162
25.3108
21.8144
26.1412
-245.99
-274.55
-274.526
-322.148
989.293
-92.0469
85.2409
925.439
-65
58.9699
896.349
-47.0501
21.8453
885.757
-41.7484
6.76346
-33.6714
-0.264786
776.145
-557.156
290.957
1305.82
-215.563
-858.406
1644.2
-129.075
-683.325
1695.38
-39.2704
-299.702
1569.56
-35.0594
-123.343
1433.7
-195.717
-47.5421
1324.09
-53.002
39.3136
48.268
17.6613
43.8472
13.5217
1268.5
-242.05
74.6058
43.4342
74.6768
38.399
66.5166
1268.35
-152.637
121.399
27.1556
-1.29206
15.769
-10.24
1318.55
-227.275
175.466
-10.7642
16.4918
-15.5319
11.4093
1358.34
-205.724
177.519
-7.68289
7.37923
-13.4184
2.13765
1391.38
-259.958
162.351
6.89457
28.5058
2.47102
26.7022
1416.87
-250.374
134.207
17.0858
25.9991
18.6061
28.9799
1440.27
-251.661
114.671
17.0172
35.4273
22.4771
38.676
1432.93
-213.186
104.074
1359.73
-115.244
96.4017
1200.53
15.9831
78.211
1060.73
52.1025
40.6474
986.25
24.2691
8.46374
-6.8952
-0.0790941
3379.39
323.097
-1045.98
2579.05
475.578
109.196
1817.98
401.676
230.315
1399.32
162.91
216.487
1171.38
32.0531
160.822
1066.22
-138.392
47.8371
1136.74
-183.638
60.1131
1127.5
-291.813
59.0038
1153.79
-260.816
81.8909
1160.3
-293.154
59.3695
1169
-250.026
35.6026
1176.5
-257.2
-10.2555
1191.67
-223.279
-42.2734
1211.3
-201.562
-69.7259
1219.05
-158.089
-62.8459
1180.21
-41.5503
-34.8492
1108.48
101.291
-13.5782
1046.53
131.42
-17.375
993.801
98.8618
-21.8593
35.8842
-13.713
1863.66
-589.279
-1965.32
1884.21
195.42
259.609
1567.25
293.73
424.905
1383.82
164.078
182.259
1230.45
-6.19916
191.623
1188.85
-124.256
27.4687
1173.42
-201.332
33.1169
1143.64
-242.411
-19.6202
1094.57
-205.321
-6.42278
1045.93
-182.963
-61.5501
1017.35
-121.138
-100.308
1020.23
-100.879
-159.199
1043.76
-68.3178
-178.49
1075.71
-43.0421
-190.476
1110.61
-9.01464
-183.97
1134.47
58.2342
-123.649
1148.32
122.488
-35.0461
1151.61
132.923
-4.79588
1119.46
115.994
15.0191
55.8339
16.6351
2198.78
-1331
1032.07
2184.53
-150.098
359.762
1727.71
322.165
428.389
1583.9
221.783
86.1062
1465.69
82.3696
29.6444
1435.89
-25.2538
-69.2074
1380.12
-114.306
-31.256
1311.49
-132.812
-40.9715
1198.2
-109.777
17.7486
1104.66
-64.7294
-24.6893
1051.63
-1.11722
-66.991
1042.13
27.6754
-119.055
1063.09
46.6456
-135.927
1098.66
50.9323
-129.543
1140
58.1449
-108.5
1165.17
76.3175
-43.2535
1172.12
99.794
15.7408
1168.53
91.5034
45.0076
1126.87
80.6785
76.9825
38.2358
58.0141
824.142
-1508.91
-1409.69
1112.37
-30.5153
-407.812
1364.92
118.91
-49.2974
1493.67
109.12
-16.087
1610.03
-50.1301
16.1436
1719.04
-80.6433
-53.6255
1720.84
-106.853
-9.24663
1690.54
-72.4065
-30.1099
1594.82
-31.3964
17.3416
1520.43
6.89826
2.75854
1440.57
52.5475
26.2028
1374.58
78.3895
15.2771
1304.38
81.8034
35.0378
1245.18
70.2485
39.8883
1194.93
56.8113
51.5816
1160.1
47.2675
63.8773
1132.97
54.1078
72.8188
1098.47
43.8337
82.1655
1050.81
46.1856
82.1573
24.3777
44.6883
2081.74
-728.962
-913.169
2376.24
-42.2499
-282.763
2131.87
84.0997
279.181
1922.73
120.127
198.138
1653.17
-33.0462
252.468
1552.7
-70.5938
90.4234
1432.22
-87.0319
100.654
1375.8
-53.4492
37.4691
1325.01
-41.0627
60.4547
1304.27
-23.0357
50.6716
1274.4
3.78968
78.6342
1238.82
37.0256
76.9418
1175.76
49.5831
95.2775
1108.01
47.613
90.3878
1041.35
34.7639
88.705
992.01
22.4472
74.1618
965.681
23.6111
56.8256
950.002
17.716
41.7969
947.502
20.2003
28.4849
11.9268
11.9762
2424.78
-334.225
2323.21
59.3136
2056.85
350.466
2018.23
158.746
1784.52
200.662
1649.72
64.2069
1505.52
57.1713
1450.24
1.82955
1384.48
24.6918
1329.85
31.5936
1236.84
96.8033
1146.6
127.269
1060.99
135.193
994.883
113.717
954.262
75.3851
930.176
46.5333
924.055
29.7321
924.697
17.0739
933.714
11.1826
5.34292
-1409.61
-579.24
2027.64
-481.046
-300.081
-1932.62
143.301
-228.906
-1167.86
393.379
-197.167
-206.843
697.623
-274.966
36.3993
858.448
-206.332
169.912
977.331
-172.907
212.699
1084.42
-131.725
127.932
1157.28
-83.4996
71.9424
1221.22
-51.8253
-15.6859
1269.2
-23.5703
-56.204
1311.12
-12.3807
-121.097
1346.58
-5.34579
-144.374
1380.72
-4.15527
-181.828
1424.38
-6.29955
-225.584
1510.53
-16.566
-245.692
1564.72
-7.49731
-135.141
1558.84
-8.64333
39.1526
1450.55
33.5831
84.1587
39.7733
6.36665
-473.38
-1878.24
2132.09
-368.207
-695.805
-305.078
350.116
-763.231
-258.273
609.757
-477.92
-34.3114
712.628
-403.35
105.284
780.328
-276.237
-4.18893
837.907
-235.674
55.6923
896.186
-172.564
-18.2835
944.15
-122.238
-3.94437
974.297
-68.2868
-42.657
991.526
-39.0425
-48.0505
996.964
-21.0204
-73.0332
1004.76
-20.1391
-86.0971
1014.82
-24.3831
-111.009
1058.85
-31.5741
-129.447
1123.28
-35.1083
-58.7082
1123.99
-12.6571
107.087
1058.43
6.04712
240.956
985.704
73.8781
185.604
68.2761
59.1452
78.3703
-236.722
225.581
561.322
-827.825
385.904
750.886
-571.772
-358.265
808.629
-481.161
-103.731
766.27
-371.881
-33.8996
801.239
-326.702
-46.4154
838.357
-293.778
16.7197
901.386
-237.846
-33.0373
946.828
-179.39
1.1996
973.365
-105.273
-11.4897
977.151
-70.7202
7.40495
968.401
-40.514
9.74829
957.356
-43.7396
24.0443
950.961
-46.3191
35.4323
941.789
-49.6496
82.6519
926.597
-47.824
128.634
897.341
-18.792
156.723
877.023
8.94296
109.024
880.185
69.0949
73.5223
77.3109
34.9671
99.4889
-348.693
2472.46
497.474
-922.665
-769.263
544.321
-678.005
-413.899
581.94
-485.287
-39.6207
667.107
-422.73
-9.34016
689.891
-355.57
9.14422
792.182
-397.589
38.7721
840.712
-280.615
-22.8776
915.139
-257.249
8.10306
938.341
-125.461
-15.8993
943.356
-85.8682
17.1347
922.482
-27.1142
31.757
886.79
-26.4827
70.8661
844.423
-18.4674
89.3881
804.827
-19.6146
107.388
765.412
-12.3843
83.3539
740.357
3.27259
63.3194
730.262
20.18
48.0972
746.733
56.848
35.3001
63.6599
22.6768
3515.97
-1196.7
-3563.93
1451.28
-372.668
332.442
863.869
-336.37
-412.599
603.704
-301.323
222.53
655.074
-411.45
55.9355
580.097
-297.176
78.375
674.336
-497.399
96.342
693.203
-310.149
55.6583
778.615
-366.469
94.5428
802.376
-157.731
58.0066
819.163
-125.548
80.279
809.401
-40.7886
86.3403
792.172
-41.6413
100.804
770.221
-26.0795
95.4165
757.205
-32.0431
77.5961
749.479
-24.7098
59.1262
752.236
-9.46344
37.2261
761.404
6.65423
20.0902
780.487
38.6626
11.121
49.3612
8.47066
1405.83
-2066.99
-861.492
1473.06
-239.898
-1228.32
1303.43
-211.19
-391.881
1201.19
-205.5
-228.904
986.518
-199.608
109.41
839.303
-136.634
136.255
785.041
-458.53
229.587
685.272
-221.321
124.401
714.45
-423.975
133.878
695.969
-115.852
25.4747
706.555
-148.36
67.5287
705.38
-55.144
66.2893
712.797
-82.1313
90.5827
715.333
-61.2437
82.5249
720.822
-68.5799
72.5026
730.635
-56.5638
53.704
737.78
-28.6072
32.7838
747.621
-8.60479
19.5058
765.761
17.9843
9.67554
31.7161
5.05327
298.036
-355.164
-440.623
414.42
-231.946
-66.7797
762.771
-261.539
-373.436
713.884
-207.961
56.539
779.137
-211.598
10.5603
674.272
-39.6881
8.85255
570.516
-75.5619
75.1534
-112.97
-80.5143
-116.97
444.646
-68.0706
176.374
-24.8387
-57.9782
-8.10449
412.056
-98.1993
134.238
-111.28
-94.1064
-111.687
373.841
-27.5595
-73.1562
15.665
-29.9215
12.3552
440.999
-40.2237
-20.3196
-49.9601
-37.2748
-53.314
495.26
-34.5364
31.2765
-14.0371
-39.4258
-17.2148
568.605
-40.9606
59.1405
-45.4807
-41.0722
-42.8237
623.695
-47.7036
74.3509
-34.7546
-44.8366
-30.3367
676.27
-161.656
69.7979
712.802
-121.023
49.2616
746.281
-76.0386
25.4905
768.949
-38.7907
14.2641
791.65
-8.65531
7.60904
13.2535
3.68622
1015.81
-192.631
3326.17
965.212
-273.042
-463.206
1021.26
-295.671
-141.67
1041.27
-203.022
0.925935
1121.97
-254.32
-23.602
263.305
-19.9674
-3.47217
267.966
250.717
255.323
40.7594
-17.1876
43.0129
-1.80753
234.908
-40.1333
-5.22403
-21.864
-192.281
182.064
-66.8159
30.8269
-61.3018
-179.578
135.162
-78.4073
85.9252
13.9284
-96.9783
101.535
-31.8222
-14.2226
2.22335
-112.612
110.326
-34.694
-5.46773
-5.34492
-112.003
124.68
-46.8663
4.99766
-12.5389
-146.663
156.982
-52.6592
13.918
-24.3418
-167.585
174.007
-62.1663
32.3833
791.553
-76.0335
135.159
-184.43
-196.627
-182.306
-192.138
-63.7287
-75.7001
-59.7524
801.953
-183.077
93.8595
797.433
-101.83
52.1668
800.189
-58.9118
30.8873
804.72
-26.6616
24.5616
-3.59694
13.7821
663.526
-1173.9
1024.1
987.633
-155.346
-1354.8
1014.32
-104.638
-473.613
994.632
-114.709
-236.911
254.423
-179.888
-210.814
252.153
235.898
234.152
32.0517
276.837
-30.7524
-43.6812
2.79825
4.49028
-79.268
76.7637
-0.711143
-4.07302
-10.7778
-77.3404
12.068
76.6034
-9.76819
9.21495
-2.67121
-71.7098
20.5466
66.1239
-19.538
7.24854
-16.1731
-47.8304
10.0604
42.7454
-7.51859
18.7163
1.84933
-43.5027
7.3515
43.1917
-4.19982
-4.69003
12.5299
-46.7504
12.6025
46.3585
-10.0475
-14.693
6.38398
-46.7023
17.1562
45.7971
-16.1062
-6.52874
6.68911
-46.1787
18.3981
46.4068
-17.3373
-7.97802
-51.8838
-11.4556
214.672
-82.3546
7.57066
-51.3912
-50.8138
-50.3772
862.736
-222.066
108.468
-218.969
-228.666
-210.753
-220.463
845.571
-116.796
63.3822
838.35
-68.3164
32.4958
836
-37.7896
25.9322
-14.5041
16.0228
668.748
-261.627
-687.12
876.102
-352.748
68.8929
1294.11
-212.808
-177.533
1374.2
-212.772
47.7762
368.332
-221.777
-3.88057
388.521
343.14
361.582
60.133
30.956
377.645
-29.7035
-70.699
21.6393
4.86993
-95.7421
97.1982
-4.12084
-23.8445
19.8562
8.00131
-100.762
102.398
-8.88111
-20.6122
-33.8422
22.2933
-108.186
108.77
-22.0275
32.9921
-10.9136
3.4791
-96.0429
84.35
-1.25574
20.3831
7.35003
-4.79143
-61.3885
60.6907
6.97305
-8.83393
11.7185
-1.18598
-61.2192
61.2809
4.83186
-15.4261
13.2972
8.50967
-58.8566
58.2172
-5.57445
-15.593
-3.9468
9.21861
-57.9902
57.3096
-8.14457
3.55337
-54.8282
11.8069
73.8642
232.245
-64.0193
-29.2668
-57.0286
-55.275
-57.4983
928.271
-204.262
21.4963
-239.653
-245.514
-230.145
-240.929
890.975
-104.787
44.5807
871.021
-63.591
27.6759
857.952
-38.9918
26.5944
-21.4621
17.1344
1298.49
726.595
1148.63
1190.35
-339.118
396.487
1294.51
-161.026
90.2183
1397.96
-260.875
121.864
393.306
-240.302
149.211
382.407
365.119
353.548
-58.6181
46.7374
431.701
-73.5995
47.0853
-14.1527
9.78844
-116.946
122.007
-13.9525
13.2554
-14.4031
10.9301
-128.346
128.874
-11.524
14.4689
-31.5762
11.7885
-124.342
117.081
-7.53355
34.5821
-3.61354
-7.84082
-88.9252
83.2558
9.46039
7.66342
-7.24448
-5.92506
-75.6056
73.554
5.61755
9.6036
-14.8838
-9.0541
-67.4639
66.6871
8.44876
16.2659
5.8873
-3.18064
-69.6747
70.8982
5.41132
-9.34149
-10.6083
11.9221
-67.0005
69.4013
-14.5099
10.7951
-68.789
23.6467
59.0418
263.159
-54.3636
-12.7451
-69.3481
-68.8186
-71.7835
945.384
-134.997
-8.04895
-253.569
-256.003
-252.21
-261.056
903.225
-76.2451
15.0826
881.952
-52.8802
14.2122
869.826
-38.7865
19.8237
-27.1758
14.3016
655.197
335.097
85.2929
742.943
-244.928
-546.028
1233.09
-208.966
-702.329
1244.79
-235.421
-194.819
337.544
-213.829
-80.5169
320.848
314.81
302.861
-11.9158
77.7938
353.506
-78.9966
-2.84315
-8.87614
20.1149
-99.2167
104.208
-23.242
7.01239
-10.6738
13.95
-107.945
106.874
-13.1901
10.985
-12.8082
1.11524
-103.49
98.9284
1.43056
14.8235
-8.02953
-10.1261
-85.0269
83.8984
10.7128
8.57133
-8.46001
-8.95943
-84.1677
83.6718
9.14246
8.77283
0.16422
-4.75503
-80.2431
79.0651
5.25973
0.5091
-12.0404
-1.20325
-76.2487
76.9394
0.691013
11.8619
-13.0267
16.1066
-70.1823
67.2321
-16.0231
15.8934
-67.2495
46.6798
51.3452
260.201
-36.1675
-47.1812
-67.102
-70.301
-70.2248
890.033
-75.5077
10.0998
-244.844
-233.459
-250.701
-235.477
877.249
-71.3598
14.6497
875.618
-55.8599
7.91136
878.173
-48.1181
11.3318
-36.1853
8.60311
415.236
-1013.87
1909.51
739.268
-387.022
-707.708
1090.08
-424.111
-587.977
1070.63
-263.847
-200.102
1114.85
-271.658
-120.075
268.428
-381.924
-70.5859
87.2287
132.148
84.3976
127.522
262.966
259.152
253.533
22.2308
7.34231
256.042
-57.3563
-15.6828
18.0922
21.0821
16.6776
7.26814
13.7167
-241.274
244.576
-21.3702
-20.9681
6.91092
5.6552
5.48579
-6.08582
12.0259
-276.498
295.681
13.5838
-14.8301
-7.62588
-7.47738
-8.77328
-13.981
-9.04537
-304.604
309.794
46.6354
10.0888
-12.2306
-14.2634
-12.3936
-12.0383
-13.4075
-326.15
331.355
37.2496
15.1487
-10.0332
-12.07
-10.054
-8.47164
-34.8618
-335.646
337.732
24.7894
36.9677
-5.81137
-8.62794
-6.0699
-2.1358
-30.4604
-348.179
338.809
4.57721
35.1082
2.75196
-2.66538
2.19405
7.52597
14.2573
-318.678
282.776
-6.56509
-7.08136
10.9937
6.55874
10.2123
1051.61
-36.0284
146.805
17.9948
22.2095
15.5778
21.1245
-268.543
-320.026
-265.564
-305.241
971.023
-44.8417
135.167
917.253
-40.1304
81.5102
896.475
-40.5884
27.3512
890.025
-46.8761
11.9716
-41.1254
2.48957
1125.66
-1431.03
-1770.8
1481.81
-216.647
-1384.93
1450.51
-306.4
-769.737
1383.53
-189.16
-307.413
1258.46
-146.797
-123.13
1142.53
-269.056
-44.4831
1115.65
-27.1198
43.4099
30.4872
1.70402
24.3406
-6.62957
1126.56
-201.414
98.3268
30.6438
57.69
26.033
52.4142
1193.77
-60.1012
174.452
-2.95213
-22.092
-9.74241
-25.3677
1287.88
-117.521
238.942
-23.4592
3.12834
-23.7927
4.05385
1359.23
-68.4911
244.662
-22.3245
-12.4128
-22.0625
-13.201
1408.02
-98.8896
213.946
-12.7764
13.5394
-14.0342
11.7752
1436.31
-71.8063
168.763
-2.88843
12.43
-7.88996
7.31063
1449.87
-71.0594
145.36
-0.0415844
18.7954
-6.8792
14.9378
1430.48
-43.9435
131.379
1344.43
0.770048
136.834
1191.44
58.001
133.072
1070.17
56.6284
64.698
1000.36
12.3624
19.0381
-21.2302
7.29392
554.992
-341.855
577.965
785.408
10.2247
-348.091
1047.16
-95.3516
-242.49
973.395
-42.2759
143.373
1014.24
-113.921
87.0968
943.813
-210.213
59.4254
1047.11
-157.608
87.2998
1044.57
-218.911
79.0407
1101.25
-134.731
99.846
1123.38
-152.898
72.6161
1144.49
-92.3331
38.3366
1155.94
-98.5237
-22.0722
1166.31
-61.3714
-63.0822
1176.87
-50.6537
-100.688
1184.44
-15.2426
-99.1173
1170.66
52.3236
-72.6273
1144.61
110.429
-39.9508
1116.79
105.44
-38.3735
1059.58
48.3458
-0.630011
1.45725
6.22999
406.927
-1774.49
-341.446
727.693
-821.999
771.065
1008.04
-264.49
313.696
988.106
-71.5757
231.494
1016.65
-194.942
244.105
981.701
-187.778
39.9776
985.364
-181.035
52.8817
950.46
-166.136
-37.4905
944.922
-93.2087
-42.4061
936.162
-89.5572
-116.131
946.636
-48.0446
-155.071
956.248
-61.8844
-205.45
979.497
-43.993
-219.117
999.454
-37.7168
-223.37
1024.47
-4.45106
-219.779
1077.45
51.8416
-176.146
1151.81
89.7435
-88.7199
1197.91
76.9432
-22.3962
1176.23
46.1459
38.8986
18.5745
36.0138
3299.71
-1671.5
2698.61
2397.06
-456.217
896.635
1641.04
170.618
749.301
1382.05
83.6269
189.893
1181
-60.6962
96.4473
1086.61
-127.892
-34.6983
985.398
-145.148
34.0664
908.593
-84.6051
-45.6977
892.401
-29.2815
-29.9867
879.864
7.55314
-109.263
907.758
13.4896
-156.419
922.917
-2.41114
-193.687
951.451
-13.9462
-194.508
976.416
-23.4511
-168.774
1024.45
-15.7628
-145.223
1093.3
12.0038
-72.2706
1147.97
37.9582
12.8615
1161.91
31.8013
76.2137
1126.11
35.2144
123.71
20.8082
90.6993
1986.26
-278.927
-1245.03
1216.93
342.879
-437.583
1165.52
132.56
40.1747
1205.31
37.8182
-10.0719
1286.96
-178.402
52.2002
1308.45
-159.15
-43.8575
1257.18
-140.722
37.6013
1190.05
-41.9899
-5.5943
1105.01
22.1391
50.9635
1048.56
70.9782
-4.22196
1027.76
71.149
-10.6519
1028.26
48.7452
-36.3806
1042.67
22.4411
-15.761
1052.7
0.846875
5.55659
1059.8
-5.12462
33.8413
1062.53
-4.88064
78.0385
1056.65
9.87827
106.78
1042.62
12.6234
115.371
1020.15
26.1476
113.696
18.1132
62.8489
1020.29
-532.751
-2750.2
1234.07
259.147
-412.814
1392.9
98.9375
153.981
1423.84
84.3149
120.694
1362.68
-168.904
304.13
1319.6
-132.4
106.758
1225.39
-93.9145
148.051
1170.95
-11.9084
61.8316
1120.62
18.955
113.967
1089.45
50.4851
102.342
1057.13
43.6076
138.488
1024
35.9317
122.886
993.693
21.1294
126.898
965.251
11.8522
107.824
948.56
2.82394
97.448
938.839
0.214553
78.7874
934.865
7.62703
63.051
935.579
9.38425
44.3218
944.079
15.505
30.6271
10.1012
14.0218
1874.97
-2098.09
2398.01
-204.577
2354.97
492.443
2264.23
333.797
1789.74
506.247
1513.68
207.872
1342.76
134.178
1277.76
54.9159
1218.79
102.623
1175.18
125.681
1122.04
193.554
1072.32
212.923
1023.89
204.745
984.652
164.812
955.971
106.89
938.044
64.675
932.501
42.9021
933.108
25.8509
942.038
17.7575
8.87451
703.766
-529.725
-1591.3
66.1374
-362.26
-932.735
310.831
-224.57
-1187.98
423.461
-177.582
-141.891
659.778
-216.76
16.8418
823.129
-141.263
147.824
951.987
-103.927
187.768
1058.91
-76.5732
97.5796
1122.36
-46.766
55.2564
1165.28
-39.5828
-19.0148
1185.6
-36.3255
-40.2046
1198.51
-52.9219
-81.0783
1210.09
-71.2924
-84.6625
1226.44
-84.9165
-113.262
1240.47
-91.853
-147.761
1273.43
-105.463
-173.19
1352.27
-102.889
-111.092
1444.19
-81.687
28.9163
1425.89
8.89721
93.5663
32.859
32.4011
-876.02
-2356.74
-1089.55
-519.534
-1048.6
24.7759
199.737
-813.408
-388.706
427.892
-464.312
24.2636
586.846
-364.426
93.9964
655.627
-216.516
2.28278
746.693
-176.245
36.944
807.049
-121.673
-33.5396
863.916
-93.8684
-13.7088
894.47
-69.236
-43.5583
913.937
-74.8527
-28.9893
915.79
-87.1752
-40.6327
913.72
-117.534
-37.7856
904.378
-129.489
-57.0951
892.763
-138.122
-71.5622
901.16
-129.135
-43.4337
916.177
-83.9562
73.1376
920.532
-31.5111
186.425
919.863
58.8279
136.343
68.2403
37.0535
631.23
-708.54
-1170.21
889.004
-913.738
-6.73309
696.633
-620.813
-358.489
688.508
-487.65
-72.2684
622.759
-354.271
21.6931
656.723
-286.457
-10.4389
725.519
-259.758
31.4367
791.146
-202.929
-17.4076
851.627
-163.077
9.92714
885.478
-108.402
-6.17522
899.45
-99.5019
18.0824
888.087
-83.8433
17.7794
861.286
-102.357
35.6676
830.948
-101.832
38.1145
808.899
-102.028
68.6068
801.928
-89.1849
95.6544
802.671
-46.4842
118.509
810.326
-7.67172
77.5301
825.421
67.6522
49.6034
76.928
23.6933
1673.37
-1429.08
-1629.48
580.758
-890.966
300.58
498.932
-717.954
-234.932
487.55
-497.598
-18.29
549.619
-402.75
-22.9297
571.495
-319.68
20.491
705.711
-378.639
23.4381
750.496
-257.353
-13.2396
833.083
-251.491
13.93
860.028
-140.993
-10.2541
873.877
-124.091
27.8745
853.581
-72.9814
41.1916
819.455
-78.3226
80.9572
781.736
-65.5761
90.8508
757.248
-61.473
91.3213
734.965
-48.6072
65.059
721.129
-16.0197
46.6914
718.011
9.26884
34.2744
738.851
54.3077
27.8044
62.7521
17.3387
1066.19
-2066.64
-3037.35
818.486
-714.247
403.43
578.191
-419.828
-470.429
450.885
-325.872
178.11
514.233
-396.26
-13.9025
466.208
-270.481
77.2015
623.628
-502.193
62.4756
651.292
-282.711
53.3524
745.689
-339.919
88.5742
762.336
-154.141
54.5073
776.221
-149.637
91.9405
766.357
-75.3884
98.6118
756.494
-82.4816
114.826
742.327
-60.5277
104.535
738.185
-61.8447
82.1092
738.24
-48.085
58.5491
747.926
-22.3097
33.8303
760.194
-0.434077
17.5248
780.176
36.248
9.19882
48.0805
7.12816
1164.87
-2474.56
83.8824
1038.91
-456.978
-1359.64
990.818
-305.149
-458.464
858.33
-232.262
-190.027
724.782
-209.478
56.1762
634.214
-136.898
93.2403
694.766
-494.163
161.005
636.537
-176.153
76.0729
697.415
-370.707
103.788
666.751
-108.344
10.3414
661.163
-152.912
76.3919
654.173
-71.4499
69.3404
668.251
-96.8021
90.8252
681.762
-70.7007
79.1876
700.604
-73.7163
65.5317
719.511
-61.6863
48.3977
732.293
-30.7866
28.4784
745.784
-10.528
16.1096
765.22
17.1509
9.33659
31.2915
5.00503
802.051
-889.98
181.212
554.511
-308.295
32.0767
598.205
-318.646
-403.633
590.718
-239.403
71.1685
650.211
-224.378
-34.0329
529.632
-31.5788
24.113
477.36
-88.2548
64.538
-123.212
-94.7048
-125.105
427.828
-42.5156
119.168
5.64294
-38.1123
5.56998
468.883
-81.6335
76.1881
-101.934
-73.0435
-97.1028
417.583
-33.8672
-76.5428
9.79384
-38.6062
9.02238
453.447
-35.7267
-31.9165
-54.628
-35.5419
-51.2839
498.981
-44.7576
42.6564
-22.4419
-41.7393
-19.4247
567.486
-42.4462
51.4058
-39.126
-40.1486
-35.8514
615.093
-38.9715
74.507
-25.4854
-35.0331
-18.9746
667.378
-124.779
68.575
707.381
-105.705
53.2772
743.491
-72.8462
31.4398
767.698
-38.1184
17.6475
791.012
-8.05977
9.50566
13.6056
4.66283
606.427
-562.656
399.204
788.489
-349.366
-604.196
889.907
-355.886
-205.847
902.752
-244.307
-7.01523
962.812
-272.434
-35.6066
215.174
-11.764
3.53318
218.99
202.292
205.37
48.9904
-7.7849
52.9609
1.73586
182.044
-51.1119
-5.74918
-45.7632
-130.177
123.141
-48.6296
58.9136
-87.0771
-136.02
125.67
-55.4808
71.274
20.397
-108.584
112.175
-33.4913
-24.3635
9.85593
-126.595
129.108
-29.3173
-18.7783
-11.458
-131.782
138.062
-55.4839
15.9036
-19.2309
-152.629
156.551
-51.8243
24.6867
-39.7675
-162.634
168.223
-44.1121
39.3193
755.42
-52.9931
119.453
-177.008
-180.559
-172.87
-174.85
-40.6964
-37.8188
-27.6956
782.248
-128.535
89.8617
790.146
-88.2317
59.6545
797.765
-55.0292
40.1781
803.661
-25.8553
36.4612
-3.39277
20.9554
1247.16
-668.731
1242.83
1253.92
-211.544
-1499.38
935.838
-198.175
-313.239
822.287
-188.117
-179.55
202.235
-246.911
-173.989
198.313
183.72
175.671
41.7377
215.666
-28.8993
-38.0326
4.42345
6.13358
-62.6866
59.7399
-2.31915
-5.29122
-6.80466
-57.9114
13.2911
56.77
-12.3888
7.04382
-20.1562
-54.6877
14.403
50.7459
-14.8549
24.5498
-16.5724
-46.3006
7.79473
47.024
-5.2964
13.3507
13.6035
-46.4652
6.85896
45.3254
-4.48271
-14.8399
17.7673
-44.3113
13.9193
43.0254
-12.7952
-17.6054
5.06559
-40.9889
16.925
39.9283
-16.5846
-4.34541
9.25619
-41.0767
15.0237
41.476
-17.3746
-7.30463
-45.2285
-7.54711
185.622
-63.8634
12.3658
-45.9068
-43.5759
-44.8591
812.743
-151.653
93.4503
-193.293
-201.274
-186.756
-193.283
825.138
-93.5079
56.2637
830.682
-60.6967
32.6188
833.468
-35.5159
32.8076
-13.7686
22.0417
268.006
-676.054
-3992.82
768.031
-148.551
-494.126
984.686
-148.312
-444.051
1041.62
-219.508
22.233
282.966
-248.119
-61.7488
297.894
254.076
265.761
63.0543
48.2007
289.547
-58.2564
-59.5803
20.6123
10.8012
-74.7114
75.9272
-13.0516
-19.5777
17.3028
14.849
-75.6099
75.9335
-17.3075
-15.1679
-32.3245
17.121
-81.1792
83.7742
-19.3731