/*--------------------------------*- C++ -*----------------------------------*\
  =========                 |
  \\      /  F ield         | OpenFOAM: The Open Source CFD Toolbox
   \\    /   O peration     | Website:  https://openfoam.org
    \\  /    A nd           | Version:  10
     \\/     M anipulation  |
\*---------------------------------------------------------------------------*/
FoamFile
{
    format      ascii;
    class       volVectorField;
    location    "1.3";
    object      U;
}
// * * * * * * * * * * * * * * * * * * * * * * * * * * * * * * * * * * * * * //

dimensions      [0 1 -1 0 0 0 0];

internalField   nonuniform List<vector> 
12920
(
(-190.957 61.0206 -91.6296)
(-186.775 -51.1085 -29.7745)
(103.702 -12.1411 -19.8286)
(19.3267 -18.9912 -4.58589)
(115.625 -26.602 2.764)
(71.0693 -23.4108 3.714)
(115.204 -20.2383 4.52462)
(102.233 -16.5972 3.04384)
(122.001 -12.0231 1.84175)
(120.671 -7.0975 0.0656001)
(130.961 -4.75499 -0.543289)
(132.517 0.27778 -2.2791)
(139.322 1.82443 -2.99022)
(142.535 3.75037 -4.51625)
(150.794 4.53876 -5.61034)
(160.195 8.15865 -3.88505)
(162.74 10.5755 -2.22732)
(154.435 11.8348 -0.27569)
(133.11 17.4621 -2.61548)
(119.087 14.9781 -4.75242)
(-2.20863 50.0196 7.14136)
(-96.7125 69.968 -60.8143)
(119.121 9.49934 -5.97587)
(53.7633 -8.14832 -3.52685)
(126.611 -28.0217 2.06277)
(81.8992 -27.1984 -0.102356)
(115.166 -27.436 1.39455)
(94.409 -21.8574 0.143945)
(111.667 -13.1743 0.171313)
(105.57 -4.90944 -0.868503)
(115.414 1.17286 -1.46673)
(115.951 7.99121 -2.69067)
(124.249 11.8067 -3.30902)
(129.683 13.8984 -5.12095)
(142.262 15.7144 -4.1063)
(150.494 14.7809 -0.231859)
(150.698 13.2994 1.67161)
(138.316 11.9923 4.27819)
(118.282 16.6902 3.57686)
(112.614 13.4071 0.813586)
(193.277 4.00107 -47.0306)
(70.8561 2.11472 23.8259)
(154.897 -61.4109 8.07647)
(68.5429 -53.576 -1.10455)
(129.618 -45.3428 -1.91862)
(88.1397 -35.1719 -2.48429)
(117.61 -31.7775 -0.632132)
(99.8081 -24.9138 -1.30733)
(115.433 -19.3318 -0.737781)
(108.756 -9.04648 -1.20556)
(117.217 -3.72584 -1.56146)
(115.705 5.38433 -1.63597)
(121.9 7.44895 -1.54584)
(124.438 9.20077 -0.849817)
(127.602 6.59505 0.857164)
(124.624 2.92057 2.50588)
(117.703 3.16786 3.30906)
(106.97 5.71302 2.59594)
(102.655 12.8993 2.14797)
(100.367 12.9025 1.50106)
(-64.5176 60.2428 -184.993)
(-134.934 -54.3414 -11.3368)
(157.665 -11.7952 -17.5951)
(35.9983 -23.8422 -0.140281)
(122.241 -16.4793 1.60173)
(69.0825 -23.4813 0.142696)
(110.892 -21.9027 1.1677)
(87.9397 -20.2652 -0.321569)
(108.088 -13.1721 0.251059)
(100.613 -5.48419 -0.325614)
(106.581 1.21238 0.0774213)
(102.174 5.75361 0.728194)
(102.825 6.70439 1.73259)
(99.0658 6.19982 2.64574)
(94.9048 5.35752 3.43088)
(87.202 4.57169 2.91146)
(83.0498 6.50322 2.21988)
(79.2704 7.07704 1.8329)
(77.3208 9.86956 1.5346)
(80.4384 8.93687 1.0727)
(69.707 -11.1655 156.716)
(-38.7313 -55.8222 -57.1759)
(221.193 -63.3765 -20.0676)
(57.4921 -47.4976 3.20719)
(137.245 -58.2219 5.6846)
(52.6074 -42.0539 2.28744)
(99.2856 -51.2667 2.9958)
(61.3249 -29.245 1.51905)
(88.9996 -29.5476 2.25478)
(77.2897 -8.11115 1.97509)
(87.7018 -4.91983 2.21806)
(81.5761 3.92353 2.49279)
(84.2389 1.49278 2.5198)
(79.5299 2.26471 2.36045)
(79.334 -0.511679 1.76673)
(76.7366 -0.721277 1.17521)
(77.1299 -0.746426 0.800608)
(77.0313 0.681189 0.499941)
(77.3242 4.39569 0.470857)
(81.2922 5.80846 0.380059)
(97.9004 -79.477 -101.875)
(90.2383 21.8914 -44.1694)
(217.539 -11.3407 -20.4385)
(182.157 -8.90702 -11.5151)
(205.103 -18.6405 0.841993)
(128.896 -12.6967 5.01356)
(122.524 -33.0389 6.85504)
(79.6994 -27.3751 3.49208)
(86.3631 -36.6066 2.97516)
(75.5215 -18.275 2.31142)
(77.3121 -12.9286 2.05456)
(74.4976 -4.60405 1.73049)
(74.2467 -3.76403 1.47408)
(74.4469 -2.17211 1.15995)
(73.1389 -1.92495 0.853579)
(74.2661 -1.11299 0.654261)
(74.5962 1.16511 0.470113)
(75.074 2.15904 0.38979)
(74.5706 3.87018 0.22346)
(78.9088 4.25282 0.123759)
(175.689 -152.106 51.4174)
(50.7428 4.88669 3.46285)
(164.248 19.3667 5.81531)
(57.9581 6.18593 -0.675125)
(134.885 3.91214 2.96839)
(65.5032 3.68073 0.222161)
(100.173 -41.8473 0.957457)
(57.0191 -21.0667 1.82337)
(66.6357 -46.9897 2.63617)
(39.2348 -9.14135 0.199869)
(48.933 -15.2811 1.39239)
(46.2874 -4.02023 1.82416)
(58.0055 -10.551 1.37286)
(59.4584 -7.2993 0.347483)
(66.6243 -9.04184 0.181381)
(69.784 -8.65972 0.178405)
(74.1592 -6.1387 0.138824)
(76.5084 -3.41045 0.0956036)
(77.1943 -0.341898 0.0629899)
(81.4784 1.86883 0.0293957)
(52.3146 5.65696 -55.5523)
(13.8648 -10.2703 -20.1104)
(166.237 -19.8753 -3.83281)
(80.6064 -5.7414 1.86801)
(153.286 -17.6597 1.69637)
(114.255 11.1901 0.139688)
(127.852 -12.1779 -1.10732)
(84.3749 -33.1148 1.00328)
(80.2802 -35.4229 2.51698)
(45.0532 -14.4114 0.834032)
(51.6453 -17.2666 0.578692)
(50.7152 -30.2774 0.91545)
(63.5179 -26.7366 1.37644)
(64.055 -20.6321 2.35352)
(76.488 -18.3475 0.118802)
(79.8777 -13.2099 0.169898)
(79.4564 -8.15734 0.162645)
(80.401 -3.90124 0.204353)
(79.1265 -1.29714 0.220513)
(81.9831 0.632561 0.13226)
(54.344 -23.4378 72.8766)
(56.4286 -14.3512 -14.6815)
(157.145 -10.6994 -2.05095)
(89.6473 -7.40391 -3.78719)
(142.783 -18.0298 -4.95843)
(112.52 -3.7337 -2.22142)
(145.232 9.82148 -0.612856)
(119.983 -18.8366 3.98939)
(82.1693 -27.4941 -2.26514)
(71.3933 -18.6683 -0.364137)
(68.9074 -19.0928 -0.309822)
(61.9453 -28.9097 -0.232835)
(74.4593 -29.08 -0.569763)
(77.0167 -33.7394 1.06263)
(82.6575 -30.3822 2.64784)
(87.7559 -20.6692 0.414472)
(85.1672 -11.1019 0.208931)
(84.0715 -7.19472 0.179519)
(82.618 -3.75806 0.264423)
(84.1402 -1.28694 0.20923)
(108.713 155.063 132.33)
(95.4069 35.1487 5.61277)
(179.634 15.7141 11.22)
(146.345 19.6122 1.60884)
(194.415 19.4616 1.44937)
(172.075 16.9025 -4.97803)
(183.985 18.0564 -4.90226)
(206.341 12.0233 -3.33644)
(128.517 -23.0591 7.25839)
(113.059 11.1184 -2.54829)
(83.0755 6.14348 -0.875903)
(70.5554 -3.46656 -0.518573)
(78.8414 -16.3262 -0.319953)
(76.5146 -31.8035 -0.771535)
(90.2457 -32.8412 -1.27519)
(94.4803 -21.4151 0.441656)
(89.8396 -11.3 0.141709)
(87.6088 -5.86435 0.156212)
(84.9975 -3.43914 0.279176)
(85.6478 -1.47077 0.224397)
(168.218 -94.7784 -173.631)
(55.709 -116.27 -0.36984)
(171.497 -76.3779 12.5257)
(140.356 -58.3738 9.36712)
(187.611 -44.482 10.074)
(181.961 -6.45728 1.51752)
(209.952 3.3461 1.93893)
(235.431 6.49898 2.31253)
(140.094 -17.8778 3.88899)
(120.366 32.2179 -2.33293)
(119.655 23.9469 1.10731)
(102.71 8.12974 1.8954)
(88.0092 7.10998 -3.98113)
(85.8989 -28.6873 2.19168)
(92.8968 -26.3098 -3.20396)
(93.8067 -16.76 -0.251517)
(89.9847 -8.1952 0.0232812)
(88.0939 -6.09219 0.0529971)
(86.0287 -3.99967 0.221772)
(86.6624 -2.63218 0.202675)
(163.108 -38.9116 -72.7115)
(35.2359 -98.7112 -14.7177)
(168.675 -62.0375 0.026388)
(120.417 -55.2698 -4.08871)
(172.287 -39.5161 -0.582366)
(148.395 -54.4979 0.576508)
(171.165 -53.7791 0.678336)
(181.83 -31.0994 0.555657)
(139.861 7.58481 0.929309)
(130.377 16.3912 1.64102)
(122.328 18.4113 1.07267)
(121.285 13.9786 -0.61168)
(117.142 -4.2252 1.37353)
(78.6278 -28.8019 1.66864)
(89.5687 -17.3042 -2.95008)
(89.5258 -8.71777 -0.318677)
(87.6735 -6.03746 0.138176)
(87.2207 -3.9271 0.150983)
(86.4655 -3.38513 0.181056)
(88.0086 -2.49069 0.13953)
(153.265 -187.744 -43.8219)
(-5.00163 -77.114 -25.6427)
(167.85 -72.3425 -13.3435)
(80.1012 -48.6517 -9.81898)
(149.871 -39.0431 -5.41201)
(108.251 -50.7155 -4.16008)
(123.47 -33.0925 -1.48162)
(100.67 -19.8333 -0.648861)
(122.651 0.264271 -0.290382)
(133.747 19.2572 0.727513)
(140.369 18.4352 0.821154)
(140.547 7.79138 3.18826)
(118.431 -9.11236 0.679284)
(104.97 -13.7792 -1.63497)
(110.055 -6.8828 1.21523)
(104.123 -6.80878 1.60632)
(95.5621 -7.67717 1.38777)
(91.3209 -6.84072 0.611162)
(88.329 -5.64431 0.163279)
(89.2018 -4.12522 -0.0580667)
(146.168 -105.462 -18.4516)
(35.8587 -63.2694 -38.9213)
(177.944 -51.5327 -28.7078)
(146.299 -26.0823 -12.5288)
(177.136 -24.5295 -5.44116)
(137.041 -28.7692 -2.24394)
(144.14 -0.690817 0.801861)
(122.645 -22.1728 1.88484)
(128.496 -4.5124 3.041)
(126.391 -14.7467 4.58306)
(136.033 -10.3246 4.68907)
(136.724 -18.8068 4.34856)
(141.171 -18.2421 3.65976)
(143.27 -20.1146 3.28536)
(144.983 -16.5525 3.09404)
(142.65 -11.6366 2.8471)
(130.659 -5.23031 1.61633)
(111.262 -2.35889 0.649904)
(101.12 -2.60605 -0.0824746)
(96.482 -2.56009 -0.281502)
(441.274 -61.7869 -37.1868)
(289.499 -16.4382 -32.9139)
(250.763 9.04702 8.82412)
(120.856 6.09313 6.97578)
(154.498 9.09558 6.18861)
(85.2031 -11.6855 1.56026)
(125.382 -13.6232 1.50662)
(104.305 -26.7295 1.51905)
(119.867 -25.9577 2.35186)
(112.225 -30.5204 1.70002)
(119.465 -30.0227 1.27457)
(115.571 -32.7509 0.122545)
(119.95 -31.1257 -0.687761)
(119.576 -29.8361 -1.29731)
(123.233 -25.9058 -0.666513)
(121.69 -11.6217 -0.0669087)
(115.655 8.32843 -0.264474)
(107.474 12.7651 -0.788676)
(101.934 7.62579 -1.69982)
(96.9168 1.30312 -1.12204)
(274.025 64.1969 -82.9275)
(138.511 88.4567 -15.3774)
(213.842 46.5977 13.5811)
(117.198 14.2389 6.30424)
(149.232 -12.4441 5.62329)
(104.742 -21.214 0.956827)
(129.385 -26.1915 0.544239)
(108.794 -32.8368 -0.442882)
(118.613 -27.4519 0.50451)
(102.759 -28.2693 -0.791782)
(106.346 -20.2963 -2.1227)
(99.0205 -18.5498 -4.34132)
(105.376 -13.5658 -5.20963)
(104.849 -10.2518 -6.03874)
(110.892 -5.7246 -5.68871)
(112.289 2.92158 -3.09867)
(115.662 11.7652 -0.3985)
(115.103 13.7239 -0.376031)
(114.992 12.3951 -0.538099)
(108.727 6.05653 -0.171958)
(235.014 -152.658 -68.3005)
(201.511 -63.5061 -12.647)
(215.903 10.4888 8.97493)
(146.518 12.1617 1.03357)
(166.848 3.87046 -1.09782)
(134.211 -7.65258 -3.44331)
(151.036 -14.9283 -3.25757)
(129.617 -16.0042 -2.32632)
(132.288 -13.7113 0.672919)
(110.637 -8.42285 0.862172)
(110.779 -3.90847 -0.193305)
(101.787 -1.53381 -2.3677)
(107.203 -0.0334452 -3.37024)
(107.069 1.68891 -3.52399)
(113.285 3.88975 -2.69175)
(115.802 8.5709 -0.17378)
(118.262 12.7121 1.06454)
(117.328 12.899 1.23337)
(116.212 10.9399 1.77579)
(109.037 5.36007 1.42342)
(134.461 -151.578 -62.9756)
(16.0913 -0.0973441 -1.66897)
(178.254 34.318 10.8242)
(117.547 23.4556 1.70767)
(173.167 5.42199 0.583814)
(159.092 -3.59715 -2.13939)
(180.514 -10.5369 -1.65464)
(168.392 -12.2049 -2.17496)
(168.815 -9.45227 -0.836829)
(153.357 -5.53533 -0.68758)
(150.964 2.90753 1.29705)
(139.322 6.68223 1.46915)
(136.057 9.16942 2.20581)
(126.595 8.42949 1.93816)
(123.249 7.64377 1.78702)
(117.158 6.62247 1.4704)
(116.028 7.23722 1.66034)
(111.919 5.49215 1.97531)
(107.739 5.37737 1.99119)
(102.316 2.39474 0.920951)
(190.51 -162.757 29.0234)
(218.271 -30.6161 -6.80077)
(264.351 -14.6992 10.7645)
(191.023 -5.82527 8.19049)
(189.833 -19.5678 7.64522)
(152.998 -15.4676 2.92268)
(156.68 -11.9432 2.85467)
(135.791 -3.3014 1.24129)
(139.454 2.10882 1.82924)
(128.998 6.08935 1.62603)
(132.241 7.34531 2.26224)
(124.957 8.90073 2.16307)
(123.51 7.18593 2.71967)
(113.613 5.70108 2.57052)
(109.162 3.80665 2.55752)
(100.777 2.83975 2.07444)
(99.083 3.62898 1.42192)
(95.6459 3.34413 1.06378)
(94.374 3.89884 0.709506)
(94.9936 2.55352 0.251406)
(268.967 -50.7232 113.367)
(228.488 -4.1134 36.1347)
(249.059 23.5447 21.323)
(194.41 26.2926 8.03476)
(203.612 10.4311 1.69562)
(165.976 0.224021 -0.706616)
(163.807 -6.49618 0.579512)
(143.784 -8.30987 -0.647653)
(146.431 -10.9149 -0.321841)
(134.071 -11.1489 -0.646858)
(132.547 -6.92808 1.81893)
(117.382 -1.73251 3.30353)
(112.973 2.64471 3.94282)
(101.294 3.80908 3.42959)
(98.892 3.12164 2.12972)
(93.6591 1.64735 1.24436)
(93.8273 1.08744 0.752881)
(92.5799 0.205111 0.388095)
(92.357 0.176809 0.22269)
(94.1947 -0.141039 0.0941766)
(-82.2651 19.949 93.1587)
(-152.441 -18.0816 -95.578)
(100.975 -7.27592 -44.7324)
(1.51703 -14.3762 -9.19185)
(108.507 -20.0961 1.98951)
(63.5461 -17.3765 6.19157)
(111.266 -14.1725 8.15963)
(99.2939 -11.7264 5.2467)
(120.068 -8.67784 3.16448)
(118.525 -6.12833 -0.304389)
(128.546 -4.55753 -1.92484)
(129.559 -3.60967 -4.97904)
(135.092 -3.71273 -6.086)
(137.313 -3.34224 -7.57191)
(140.794 -4.26329 -9.45325)
(146.265 -6.73225 -10.3516)
(157.539 -6.64009 -4.98535)
(157.145 -6.11512 2.16016)
(155.471 -1.82523 3.44479)
(136.844 2.36146 -0.166491)
(103.785 -82.0538 127.604)
(-191.807 -11.7312 -8.24367)
(109.602 -28.7878 -5.51119)
(22.521 -22.0006 -2.83264)
(110.468 -30.4334 4.04868)
(59.1149 -20.3642 -0.203717)
(101.493 -17.9603 2.65927)
(80.7869 -12.9674 -0.12885)
(101.748 -7.08787 0.309874)
(94.8479 -3.51628 -1.41531)
(103.457 0.420265 -2.16665)
(99.7614 1.66227 -3.35324)
(102.861 3.15768 -4.09474)
(101.811 2.88923 -4.62471)
(103.929 3.17728 -4.93839)
(110.507 3.3658 -1.0659)
(116.631 5.07762 6.31615)
(110.851 4.28642 10.7685)
(102.598 8.54838 8.75249)
(96.8409 5.53592 3.16408)
(8.36641 -152.577 -3.38686)
(18.8702 -68.6366 27.0395)
(143.599 -75.8408 -6.23318)
(55.9327 -54.4643 -3.31584)
(114.966 -44.0916 -1.93313)
(63.9307 -30.7629 -2.72413)
(99.3638 -27.2088 0.250761)
(81.029 -19.9351 -1.51037)
(101.598 -15.9596 -0.10061)
(94.7721 -8.82286 -0.574826)
(102.844 -7.04979 -0.0425278)
(97.3889 -4.70977 0.103809)
(99.3361 -6.42248 0.620255)
(95.9361 -7.19089 1.32795)
(97.1486 -9.12447 3.42649)
(94.3784 -10.0256 5.42451)
(93.9748 -7.39578 6.39707)
(88.4699 -2.91616 4.7959)
(88.4531 6.24334 3.68141)
(89.8373 8.1653 1.94705)
(66.5837 73.7396 164.886)
(-29.3045 -92.9678 -39.1405)
(139.353 -38.4225 -20.1754)
(8.22529 -32.4167 -0.833894)
(108.197 -20.7269 0.636278)
(43.8715 -26.6631 0.191986)
(97.3183 -25.194 1.84097)
(72.4522 -23.1456 -0.972965)
(98.0365 -16.8176 0.182116)
(91.4879 -10.0888 -0.752112)
(99.0936 -5.26745 0.453667)
(93.9952 -1.94535 1.14255)
(93.55 -1.13888 2.41851)
(87.3792 -1.30352 3.28966)
(84.6118 -0.150423 4.36764)
(79.5476 0.843941 3.47346)
(76.776 3.82684 2.68665)
(74.4149 4.68275 2.12614)
(73.4396 7.62157 1.63722)
(78.1828 7.30206 1.07481)
(560.759 -17.0817 -126.19)
(135.121 -19.9076 -29.446)
(196.829 -47.0526 -26.7313)
(7.17631 -39.5757 8.05817)
(122.312 -51.6638 3.90518)
(27.1731 -36.1355 2.76472)
(91.9969 -51.0804 4.35546)
(54.0586 -29.6783 2.13713)
(86.0933 -32.6828 3.46239)
(75.7215 -12.6939 2.05221)
(87.1544 -10.2231 2.39447)
(81.1409 -1.21165 2.51849)
(83.5421 -2.52591 2.90858)
(78.5652 -0.974608 2.86543)
(78.4073 -2.93356 2.4148)
(76.2148 -2.62936 1.94395)
(76.7257 -2.28186 1.34846)
(76.7399 -0.332937 0.785019)
(76.9367 3.87427 0.499379)
(81.245 5.48346 0.387243)
(188.024 -200.817 19.1676)
(85.3688 -2.86239 -41.8777)
(181.948 2.34738 -16.6691)
(88.3367 -1.92494 -8.61277)
(141.401 -17.6039 6.27613)
(65.3763 -12.4494 6.50293)
(102.093 -39.7244 10.1933)
(62.2035 -27.4937 5.68608)
(77.7606 -36.6363 5.54487)
(69.61 -16.8538 1.62014)
(73.0525 -12.7575 2.4005)
(71.8107 -4.85795 2.31014)
(72.4129 -4.14842 3.17958)
(73.3255 -2.94458 2.86841)
(72.7497 -2.51257 2.5143)
(74.267 -1.65618 1.92786)
(74.7482 1.00116 1.2062)
(75.6326 2.13275 0.739771)
(75.2989 3.98347 0.352409)
(79.7212 4.40426 0.185197)
(136.247 -109.918 10.7166)
(-74.75 14.3444 -1.59069)
(144.909 4.14757 -8.58953)
(9.57612 -8.28399 1.85451)
(121.715 -4.82476 1.89859)
(44.0926 -0.879857 0.250275)
(87.2494 -48.7165 2.49078)
(33.9268 -12.1192 6.9878)
(57.0617 -46.3518 6.23379)
(30.8587 -3.39594 -2.08485)
(48.0598 -14.9078 0.0603541)
(45.0415 -3.65696 1.05188)
(57.5797 -10.8414 2.16292)
(59.9674 -7.87687 2.36775)
(67.5949 -10.3491 2.2056)
(70.5013 -9.03395 1.56256)
(74.7296 -6.25612 0.800431)
(77.1129 -3.40143 0.452987)
(77.8258 -0.21165 0.234789)
(82.1733 2.00763 0.106392)
(186.564 90.9816 90.7377)
(29.8435 -20.0819 -21.6873)
(147.786 -35.2005 -5.92987)
(55.4952 -15.9509 0.441296)
(138.461 -22.7659 -0.378182)
(91.4881 12.1467 -0.141677)
(109.793 -15.4758 -0.659565)
(74.5889 -31.9489 3.76922)
(71.2845 -33.8873 12.704)
(39.9427 -12.7562 -2.08461)
(47.0675 -16.1765 -0.738208)
(46.9469 -19.2739 0.280579)
(62.1652 -19.6096 1.83756)
(69.4311 -25.6591 4.11524)
(78.6479 -21.2649 4.55638)
(82.129 -14.6549 3.25283)
(80.6348 -8.65869 1.61804)
(81.2324 -4.15465 0.893252)
(79.7894 -1.32453 0.676277)
(82.6119 0.672291 0.377515)
(65.1939 -81.4206 -13.6793)
(45.011 -12.0847 -49.346)
(142.734 -4.4927 -19.0646)
(62.7346 -8.01736 -9.44712)
(121.017 -17.6712 -7.5459)
(93.5108 -4.57433 -6.48112)
(124.71 5.18776 -2.34818)
(123.369 -14.6891 6.06523)
(111.412 -32.6442 3.4106)
(71.2616 -17.1744 11.832)
(70.4214 -10.2102 -2.13404)
(75.9996 -20.3478 -8.82073)
(75.3654 -29.2886 -4.26431)
(75.0284 -31.6484 -4.61496)
(86.1616 -36.0393 1.21038)
(88.856 -21.8731 3.86298)
(86.1833 -11.5017 2.32629)
(84.9797 -7.4316 1.11851)
(83.4694 -3.89268 0.749292)
(84.9253 -1.32633 0.408055)
(148.873 -87.5893 -31.9244)
(0.939717 -3.55364 1.19188)
(162.967 2.97921 0.104825)
(101.081 -0.929973 1.13826)
(155.913 -8.60196 1.60989)
(142.226 -8.25706 -10.9697)
(151.133 -4.59155 -14.5884)
(161.422 -10.7549 -13.5988)
(174.06 -33.7299 21.4631)
(148.672 -2.20835 9.77889)
(98.5409 10.8159 -4.85801)
(99.1849 6.82213 -8.61612)
(94.6087 -10.4682 -9.55445)
(93.6131 -12.5162 2.53426)
(91.316 -25.9778 -3.57607)
(96.4956 -22.3375 0.371206)
(91.284 -11.7774 1.41205)
(88.8439 -6.10156 0.855589)
(86.0298 -3.54914 0.721582)
(86.5156 -1.52485 0.427929)
(225.088 129.697 85.3972)
(21.0509 -39.364 21.1662)
(153.585 -36.564 5.54453)
(103.636 -35.6275 4.89183)
(155.455 -31.5781 7.95975)
(157.227 -25.4418 8.45385)
(188.848 -19.2068 8.96801)
(204.838 -16.9308 8.96598)
(196.438 -13.5676 21.677)
(138.801 14.7589 3.51229)
(121.378 9.62018 4.74864)
(108.299 14.6478 10.5932)
(113.893 7.9703 -4.79843)
(109.619 -20.6205 6.84795)
(108.706 -21.6127 -2.92975)
(98.395 -18.367 -1.10104)
(92.7283 -9.06489 0.0912748)
(89.7616 -6.46313 0.248983)
(87.1754 -4.14696 0.421811)
(87.5303 -2.72102 0.296978)
(144.578 43.8427 17.206)
(-38.3405 -19.6561 -22.3243)
(157.686 7.35522 -23.2077)
(86.4258 -13.2905 -8.53255)
(142.568 -13.281 -1.7115)
(130.108 -31.337 0.513376)
(161.177 -35.2073 5.26386)
(170.904 -22.1452 6.72703)
(163.102 1.12814 9.09673)
(134.885 17.4475 5.36428)
(135.083 15.1241 5.6919)
(127.78 8.31792 0.0104)
(123.076 2.18193 7.30074)
(110.594 -25.5648 9.59632)
(109.31 -19.4587 -8.2614)
(91.3268 -8.63587 -0.128238)
(88.8892 -6.01094 0.4051)
(88.2277 -3.95147 0.125023)
(87.3372 -3.48759 0.192295)
(88.8355 -2.66327 0.13363)
(126.324 -25.9813 106.106)
(-42.2265 -40.2756 -21.8635)
(158.195 -52.4235 -22.5146)
(59.5163 -32.8241 -10.1534)
(136.09 -30.1757 -5.4401)
(89.7932 -46.291 -3.30716)
(110.494 -25.5106 -2.09056)
(93.9796 -9.47975 -2.97832)
(116.529 11.5477 -2.51467)
(122.046 20.9715 1.51497)
(132.729 18.1725 2.34588)
(133.958 11.1085 5.79054)
(139.805 1.19185 5.32111)
(122.307 -7.10809 -2.23613)
(110.366 -3.32103 5.05519)
(101.806 -5.96726 5.23441)
(94.2088 -7.99921 3.3969)
(91.0212 -7.13292 1.19013)
(88.6233 -6.05335 0.39821)
(89.7623 -4.55242 0.0318409)
(168.34 -192.207 42.0747)
(70.6668 -63.5606 -28.015)
(175.125 -59.046 -27.876)
(112.638 -36.5729 -12.9367)
(148.48 -30.9479 -5.10487)
(102.901 -33.7752 -1.74312)
(120.168 1.94046 2.24809)
(104.525 -20.5097 4.09675)
(118.186 1.91537 6.63763)
(121.486 -6.77795 9.23976)
(134.9 -0.211475 9.52568)
(137.85 -6.68094 8.49914)
(143.496 -4.37288 7.01374)
(144.893 -6.18144 5.85495)
(145.434 -3.84571 5.255)
(141.891 -2.87276 4.92769)
(128.475 0.175221 4.64879)
(111.634 -0.70997 2.69921)
(102.588 -3.19134 0.787905)
(97.8385 -3.6295 0.273277)
(157.45 -110.505 62.356)
(5.21715 -19.7461 41.0438)
(165.383 -11.9662 11.1837)
(49.32 -10.1173 9.80847)
(139.252 -4.22281 6.48103)
(68.0819 -20.818 2.50406)
(117.81 -12.0647 3.35686)
(93.9268 -20.4846 3.16741)
(113.646 -14.6174 4.18695)
(107.881 -16.5141 3.07083)
(116.453 -12.9025 1.57506)
(113.679 -12.6222 -0.940345)
(117.806 -9.30395 -2.69131)
(116.742 -7.56673 -4.32928)
(119.288 -4.64305 -4.47063)
(118.711 3.56767 -2.89515)
(116.663 11.4931 -0.850896)
(113.462 12.0894 -0.611634)
(109.87 5.92766 -0.056425)
(102.161 -0.487985 0.0230888)
(123.144 14.138 -87.9279)
(-37.7976 -15.5482 35.2105)
(167.409 -30.8158 21.4337)
(54.5106 -16.3845 9.6567)
(132.344 -29.3013 10.1007)
(78.549 -26.1139 1.53137)
(114.544 -22.8835 2.17598)
(86.0622 -24.7092 -1.0481)
(102.945 -13.7709 -0.988648)
(88.5044 -14.3638 -4.02996)
(98.6592 -5.98979 -5.88708)
(92.5754 -7.04647 -8.34517)
(99.1575 -3.07737 -9.07109)
(98.3887 -2.40691 -9.22576)
(102.305 1.74872 -9.11083)
(103.786 6.83638 -6.95004)
(112.681 10.6328 -2.49291)
(118.537 9.29389 -0.0353157)
(120.638 4.07746 1.74321)
(114.429 1.00966 1.46608)
(441.945 -329.277 122.766)
(238.731 -167.955 31.4811)
(224.365 -32.6857 24.9976)
(123.57 -11.3902 6.38401)
(148.957 -13.562 2.95379)
(95.9135 -14.7879 -1.8604)
(120.497 -14.7286 0.681202)
(81.6004 -9.39317 -0.993126)
(100.304 -5.47891 0.637013)
(81.368 -3.74675 -2.74913)
(95.0551 -3.69451 -5.05351)
(88.682 -5.19054 -7.09698)
(96.5803 -5.6136 -7.50949)
(95.5217 -5.08368 -6.86451)
(100.577 -2.72448 -6.13913)
(105.479 3.41898 -3.43624)
(114.111 7.37942 0.107815)
(116.502 6.26497 2.35834)
(115.588 5.27442 4.35881)
(109.508 2.87104 3.22762)
(351.649 5.39192 15.0367)
(68.1971 48.8111 -25.4775)
(170.862 46.3517 -16.2705)
(85.6251 17.8245 -3.52033)
(149.722 -7.93145 0.453557)
(118.263 -14.8904 -2.10763)
(140.587 -17.0654 0.824548)
(116.34 -9.76373 -0.268056)
(121.631 -2.58834 2.22385)
(102.835 4.05396 0.878227)
(107.479 5.80205 0.740967)
(100.417 4.48249 -0.276857)
(105.953 2.75031 0.56713)
(104.369 0.380543 1.23874)
(107.033 -0.475718 2.28977)
(106.395 -1.08264 3.60508)
(107.397 0.220401 4.16299)
(105.384 0.162455 4.59533)
(103.15 1.87167 4.61546)
(100.751 1.34468 2.69583)
(152.429 -104.893 -109.748)
(68.5962 7.43789 -15.978)
(184.647 -21.8571 9.94868)
(121.025 -15.7535 7.8398)
(159.185 -29.1359 12.6182)
(125.27 -19.1356 4.62759)
(137.788 -12.1096 5.23893)
(113.465 -0.545194 1.83078)
(121.046 5.99472 2.93382)
(106.793 9.77202 2.41739)
(111.797 8.33223 3.98863)
(102.203 5.33061 3.98073)
(103.606 1.79095 4.89319)
(97.2212 -0.0815918 4.6626)
(97.0828 -0.513243 4.55399)
(94.3389 0.162382 3.89604)
(94.9046 1.74669 3.15085)
(93.6486 2.37284 2.30837)
(93.4525 3.35952 1.58574)
(95.1865 2.32122 0.729177)
(163.226 -19.0153 -72.8985)
(205.962 31.1011 -23.3844)
(272.431 36.2143 8.75164)
(227.957 29.8529 5.79658)
(218.837 -5.44018 14.9541)
(153.487 -8.58995 6.20798)
(149.828 -7.84704 4.10551)
(125.559 -3.59636 0.858097)
(130.337 -2.86099 2.26766)
(117.144 -0.0881365 3.11802)
(118.645 0.26164 5.83688)
(108.311 1.76773 6.83805)
(107.153 2.42497 6.90545)
(99.6576 2.45839 5.71607)
(98.4671 1.05293 3.95492)
(94.3892 -0.075898 2.50163)
(94.6555 -0.250932 1.63429)
(93.4299 -0.508776 0.99326)
(93.1847 -0.236593 0.680323)
(95.0273 -0.282981 0.340684)
(278.448 140.183 23.1168)
(-52.3025 5.44641 -54.2933)
(125.111 -4.46509 -53.3058)
(10.1152 -10.8137 -8.03502)
(104.927 -13.2954 0.323112)
(59.6429 -11.2895 7.17947)
(108.668 -7.80125 8.89055)
(96.7667 -6.44564 5.07376)
(117.63 -4.37965 2.72486)
(114.186 -3.2732 -0.823853)
(122.022 -2.87305 -2.44063)
(119.774 -3.57958 -4.62928)
(122.763 -4.80278 -5.3857)
(122.582 -5.73398 -6.87392)
(124.955 -6.62009 -8.49882)
(125.704 -10.3558 -9.28031)
(130.96 -14.822 -6.18099)
(141.128 -15.3191 0.76302)
(148.181 -3.89821 3.40001)
(138.994 0.834621 0.866069)
(117.406 -201.543 19.5628)
(-207.168 -47.7289 -20.8881)
(104.513 -38.3806 -20.0029)
(2.41576 -21.5918 -1.56883)
(100.9 -25.895 4.43379)
(44.2176 -13.6188 0.122369)
(93.1637 -10.5915 2.03157)
(70.8427 -7.18486 -1.22479)
(94.2444 -3.86665 -0.524709)
(86.4237 -3.81919 -1.92581)
(96.0643 -3.80054 -1.58247)
(91.7728 -6.60714 -2.41931)
(94.7597 -9.14352 -2.74225)
(91.8573 -11.0988 -4.11247)
(92.0802 -11.6494 -5.29386)
(89.6537 -10.7578 -3.68819)
(93.6208 -5.78042 2.17216)
(92.2419 -1.24574 8.43777)
(93.3985 5.53027 6.39573)
(92.7288 5.60801 1.73483)
(74.3309 -120.304 -57.0695)
(78.9493 -104.763 -6.51463)
(143.439 -78.3834 -20.799)
(45.9731 -51.9517 -5.27837)
(103.356 -40.4007 -0.409905)
(47.0719 -25.037 -1.07098)
(89.1079 -22.3613 1.1163)
(68.7628 -15.1517 -1.18602)
(92.3922 -13.2085 0.169159)
(85.0648 -8.58615 -0.311569)
(95.1436 -10.0799 0.770038)
(89.6502 -9.90263 0.761283)
(91.1795 -13.7161 1.35601)
(85.0535 -14.2506 1.54057)
(84.264 -15.6531 3.19093)
(80.8831 -14.7168 4.87861)
(82.6452 -11.0128 6.14073)
(80.9095 -4.98603 4.01947)
(82.6513 6.16412 2.27955)
(84.7242 8.1074 0.923732)
(355.377 -26.6382 -19.811)
(-13.9934 -56.0474 -11.6798)
(143.007 -44.0313 -14.3676)
(-1.65585 -35.4511 -2.04525)
(100.288 -20.8874 -1.1408)
(29.1862 -24.1078 0.865526)
(89.8953 -23.2083 1.39883)
(62.5255 -20.8633 -0.80976)
(90.4904 -16.252 0.484421)
(82.8152 -10.9264 -0.511588)
(92.2866 -8.0964 0.981178)
(87.0197 -5.72207 1.4095)
(86.9274 -5.72542 3.20555)
(80.6753 -5.47238 3.84393)
(78.8916 -4.19694 4.24633)
(75.8053 -2.84015 3.20914)
(74.4592 1.84327 2.35662)
(72.9288 3.42591 1.72274)
(72.4594 7.38432 1.22478)
(77.5837 7.26369 0.762049)
(192.694 -172.266 -143.062)
(30.2755 -67.6958 47.8754)
(151.405 -53.0893 -12.542)
(-13.9969 -39.481 9.62201)
(110.134 -47.2794 0.338284)
(10.7084 -31.1716 3.48731)
(87.1966 -48.9389 3.6624)
(48.374 -27.1176 2.27417)
(83.7392 -31.9649 4.1056)
(71.6558 -14.9327 2.61345)
(83.3312 -15.1785 4.00599)
(76.4907 -7.27508 4.41083)
(79.7019 -8.8848 5.17863)
(75.3171 -6.71074 4.80743)
(76.1489 -7.55546 3.83504)
(74.6742 -6.46483 2.83334)
(75.991 -4.70812 1.69919)
(76.5862 -1.23631 0.854031)
(76.8323 3.57447 0.403686)
(81.2791 5.33547 0.298761)
(201.375 -213.969 -104.784)
(20.4119 -45.3252 -50.2746)
(161.802 -13.631 -15.3204)
(44.4751 -7.62039 -8.69386)
(118.696 -18.9014 2.67435)
(35.2451 -11.7473 4.52547)
(92.6349 -43.1766 8.3972)
(53.4942 -24.5717 4.42853)
(76.7556 -31.981 5.31629)
(67.3347 -13.7718 0.502937)
(69.5557 -12.5825 3.00766)
(66.5401 -6.34938 2.95416)
(67.6429 -6.28865 4.0787)
(69.358 -4.56351 3.77289)
(70.0618 -3.99687 3.31198)
(72.9455 -2.62746 2.40626)
(73.8708 0.640714 1.44671)
(75.3879 1.79157 0.833652)
(75.1952 3.79323 0.433571)
(79.7091 4.29401 0.226745)
(193.004 -191.462 -13.7822)
(-21.4332 2.48656 -2.41837)
(120.835 -5.81736 -18.1742)
(-4.1578 -10.2849 3.39296)
(111.149 -6.06204 -1.0817)
(27.4788 -1.65239 0.681437)
(76.3883 -52.3833 3.56508)
(25.7937 -5.54571 7.0624)
(61.6566 -40.1848 4.95555)
(37.533 -4.85263 -3.61042)
(50.3135 -16.0524 -1.88446)
(45.3794 -5.69134 1.32722)
(57.9701 -11.7277 2.57477)
(59.3752 -8.24364 3.58599)
(66.5148 -9.92611 3.40655)
(69.8315 -9.11356 2.42219)
(74.3235 -6.36288 1.27561)
(76.9587 -3.47953 0.707967)
(77.7313 -0.182228 0.379369)
(82.1367 2.03139 0.194087)
(138.941 25.2095 119.989)
(-3.54155 -30.4694 -14.0246)
(136.094 -39.8414 -8.03249)
(39.1888 -21.3229 -0.618006)
(127.215 -24.3929 -1.61756)
(70.4505 14.4972 0.0816958)
(91.463 -21.618 -0.581486)
(50.032 -18.7855 8.59774)
(57.8777 -26.7588 13.481)
(44.0232 -16.8741 -4.23887)
(53.3585 -12.638 -2.13212)
(54.0162 -24.7435 2.51565)
(63.5436 -20.101 3.62419)
(67.1702 -20.1123 6.52598)
(74.2729 -14.2546 6.22794)
(79.289 -11.4191 4.36824)
(79.5305 -7.87853 2.6084)
(80.8742 -3.94068 1.60915)
(79.657 -1.22935 1.32178)
(82.5428 0.725318 0.746677)
(154.718 -73.6767 117.785)
(99.8508 -21.7592 -62.6386)
(145.331 -13.7757 -22.2227)
(43.4168 -11.7148 -10.0872)
(106.435 -19.7499 -8.89163)
(69.0028 -0.683416 -6.612)
(97.0939 1.46445 -3.13973)
(91.8873 -18.5814 4.00881)
(86.302 -23.8432 14.1683)
(76.1897 -11.8395 10.3042)
(74.5999 -9.16078 -9.19178)
(71.3348 -22.8507 -11.4319)
(66.1072 -29.3986 -2.95818)
(67.1786 -28.2608 -5.41435)
(75.0539 -25.7679 1.34438)
(81.8195 -13.9909 4.8265)
(83.1905 -9.49113 2.8293)
(83.876 -6.84541 1.52209)
(83.0383 -3.81101 1.35697)
(84.8484 -1.33306 0.895956)
(92.9465 -56.6035 -97.0153)
(-21.0139 -0.356117 -1.65971)
(137.754 -6.93772 -15.7008)
(63.0588 -13.5205 2.1844)
(127.987 -20.5767 -1.69128)
(105.166 -19.6244 -9.83835)
(117.276 -16.8194 -12.6326)
(120.231 -23.1585 -10.8983)
(131.954 -28.1038 20.1514)
(118.723 7.90161 28.7021)
(106.008 2.80607 -7.83028)
(98.206 -5.85013 -14.2419)
(84.0074 -17.9404 -11.6498)
(85.3128 -27.3321 -3.51622)
(87.2576 -35.0352 -6.40601)
(89.0574 -16.0432 1.35387)
(87.9582 -9.04286 2.18371)
(87.2851 -5.12513 1.39612)
(85.4028 -3.16458 1.43665)
(86.3434 -1.36444 0.965354)
(189.792 -4.66381 -14.7411)
(22.0594 -12.4963 10.07)
(143.945 -13.1413 2.37062)
(64.4053 -23.6515 4.58031)
(124.088 -24.7191 3.62011)
(112.137 -24.2326 5.56576)
(137.469 -26.3612 7.11503)
(143.418 -25.4325 5.348)
(136.838 -20.3945 21.3791)
(112.592 24.9357 11.9004)
(97.4339 18.6831 10.4265)
(110.61 6.80669 -1.66328)
(114.527 -9.03233 -11.3438)
(109.618 -17.3824 6.43915)
(107.32 -25.1705 -1.21018)
(94.8948 -17.5483 0.426324)
(90.6998 -8.62389 1.12212)
(88.6528 -6.27822 0.90167)
(86.6678 -4.16014 1.18546)
(87.4326 -2.75446 0.863618)
(183.863 101.276 -77.026)
(50.2416 38.8866 -36.2221)
(149.01 28.1482 -33.4485)
(59.4381 -5.56149 -7.97421)
(120.094 -7.38003 -4.6066)
(97.0926 -26.7494 -1.58118)
(126.652 -28.2181 1.87515)
(129.182 -9.4087 3.89276)
(121.185 11.3139 9.36012)
(119.299 23.4489 4.74831)
(125.991 16.7783 4.99871)
(118.841 15.3658 4.94194)
(118.291 10.4883 7.82781)
(127.425 -9.49956 13.8494)
(122.063 -15.8747 -4.62872)
(90.1614 -7.70777 0.901529)
(88.1865 -5.87743 0.790728)
(87.8472 -4.18355 0.529294)
(87.138 -3.7178 0.729275)
(88.8199 -2.7931 0.560372)
(180.951 199.894 39.2972)
(-66.8641 -0.859834 -34.5685)
(143.169 -37.6922 -25.6191)
(38.526 -26.8063 -6.17336)
(123.708 -26.1847 -4.26697)
(71.5853 -45.4379 -2.17997)
(96.1026 -16.9258 -2.60939)
(80.3175 0.265841 -4.02267)
(102.421 16.1121 -2.02969)
(106.93 19.1433 1.64985)
(120.832 15.6345 2.5395)
(123.492 10.621 5.95226)
(133.468 2.36601 5.92622)
(119.478 -4.09097 1.55562)
(97.9629 -2.12955 6.7399)
(94.6174 -5.20387 5.62397)
(91.4151 -7.84875 3.24288)
(90.1415 -7.51918 1.06326)
(88.2697 -6.5652 0.597576)
(89.5969 -4.78944 0.182007)
(235.422 -133.454 -228.883)
(131.73 -76.8152 -91.8595)
(183.903 -64.5953 -30.4047)
(90.9973 -40.1728 -10.1839)
(131.525 -32.0341 -4.2864)
(79.1004 -34.1352 -1.5584)
(102.901 7.39898 1.42501)
(87.2062 -19.4423 3.88573)
(105.195 6.90916 7.18356)
(109.568 -1.13182 9.713)
(123.978 8.32164 10.0082)
(127.085 4.25167 8.56702)
(131.812 7.88239 6.58861)
(131.523 5.83917 5.65936)
(130.439 6.70695 5.14978)
(124.456 4.59468 5.97139)
(113.395 2.03051 6.08774)
(103.719 -2.3656 2.60344)
(98.3951 -4.61842 0.811346)
(96.0963 -4.42527 0.331526)
(96.4725 -197.817 12.9805)