/*--------------------------------*- C++ -*----------------------------------*\
  =========                 |
  \\      /  F ield         | OpenFOAM: The Open Source CFD Toolbox
   \\    /   O peration     | Website:  https://openfoam.org
    \\  /    A nd           | Version:  10
     \\/     M anipulation  |
\*---------------------------------------------------------------------------*/
FoamFile
{
    format      ascii;
    class       volScalarField;
    location    "4.6";
    object      k_0;
}
// * * * * * * * * * * * * * * * * * * * * * * * * * * * * * * * * * * * * * //

dimensions      [0 2 -2 0 0 0 0];

internalField   nonuniform List<scalar> 
12920
(
1302.3
1110.29
702.947
460.173
437.637
409.57
354.999
294.688
231.339
194.04
169.865
155.848
145.478
132.231
117.92
102.738
93.3293
86.8023
85.036
80.659
608.982
818.954
622.267
488.159
495.774
519.763
502.341
448.676
348.074
275.557
224.888
204.452
195.802
193.074
190.366
185.754
182.767
176.308
172.759
163.723
912.305
1406.01
1258.12
879.167
709.221
629.689
501.579
432.618
330.055
276.897
235.008
218.03
205.122
199.005
192.277
187.727
185.751
181.842
180.041
173.647
802.255
1260.26
1209.75
873.576
637.641
494.311
379.892
314.302
262.496
233.137
209.998
196.629
184.601
175.938
168.953
165.793
166.227
168.176
170.488
170.41
525.861
1076.34
1051.32
935.525
829.889
607.399
458.712
375.41
315.612
276.907
243.768
221.894
201.429
183.459
169.294
160.762
157.042
156.598
157.624
160.14
2848.54
1398.2
1393.28
1366.55
1292.21
1123.64
738.741
497.563
358.792
299.862
278.702
261.702
241.062
218.412
193.335
170.516
154.038
143.424
141.579
142.11
18363.1
6327
2182.79
1343.48
1049.34
789.995
482.012
375.116
330.767
319.283
316.906
302.851
275.764
250.97
218.474
186.781
157.954
136.675
127.336
122.359
3152.99
3451.51
2238.73
1313.06
889.371
688.863
348.58
232.241
222.626
225.93
222.076
206.641
187.343
165.462
247.616
207.769
176.588
146.52
129.59
115.537
193.338
1866.58
1876.23
962.151
559.987
366.466
261.883
119.95
136.294
142.821
144.896
139.465
119.478
102.794
156.775
218.541
191.562
162.069
140.03
115.643
1399.4
2953.34
1849.81
943.112
563.095
268.026
139.03
105.202
102.164
105.07
123.461
114.213
92.9757
78.2592
131.828
206.2
189.468
173.433
153.755
119.726
4381.19
4196.8
3309.99
1939.43
1038.99
432.459
165.972
112.749
109.608
110.648
124.282
119.068
101.781
93.3846
159.709
218.03
193.985
177.152
160.351
126.577
3333.72
3478.78
2321.56
1470.14
833.101
417.876
195.705
126.429
100.033
115.389
118.132
108.948
99.2086
89.0993
145.823
201.227
184.363
175.295
162.101
133.906
2110.02
2805.92
1878.44
1316.9
849.623
749.223
434.43
310.209
217.19
197.512
205.812
200.339
181.931
159.11
210.59
177.9
163.193
154.867
149.901
134.993
3909.24
2655.03
2118.14
1414.94
990.067
853.644
680.137
631.632
541.947
480.352
404.7
334.04
283.701
240.976
209.791
182.384
163.728
147.187
138.621
128.945
3319.36
1851.53
2035.91
1716.12
1399.29
1172.43
942.756
828.421
687.498
561.977
441.398
339.863
273.117
231.742
208.541
186.28
169.546
151.936
140.121
128.682
1058.1
2198.62
2234.38
1612.94
1182.4
1044.56
894.477
799.022
644.616
503.378
379.717
270.453
210.573
180.615
168.71
159.453
152.932
143.171
137.638
128.852
1950.89
2031.4
1461.49
1093.52
858.647
800.217
731.994
608.083
451.508
325.004
241.97
197.675
173.251
155.478
142.009
132.293
128.76
125.28
123.801
120.31
129.513
969.01
1294.72
1145.49
839.721
740.245
692.441
610.67
458.346
308.675
222.981
191.328
172.127
155.793
136.083
117.964
106.409
101.596
100.099
101.263
304.795
801.562
830.576
735.463
624.688
542.804
459.894
370.244
277.941
215.26
194.54
197.565
196.84
185.416
163.775
142.496
120.389
104.246
92.3324
88.0364
140.386
528.557
543.14
506.499
388.949
343.585
275.095
244.391
207.842
195.191
186.727
182.336
171.654
149.46
130.607
120.675
108.372
97.1343
91.8475
78.0718
1153.22
2004.78
1928.19
1151.53
899.593
773.039
678.202
600.62
494.036
425.79
372.89
353.765
337.063
317.119
294.733
267.515
252.106
235.491
228.061
208.139
2510.58
2856.43
2122.54
1430.75
1287.29
1355.3
1204.6
1104.15
816.595
712.779
607.039
596.774
582.971
581.056
568.956
557.219
546.013
529.915
519.548
494.293
2164.5
4003.28
3324.25
2128.97
1732.44
1481.88
1167.08
1054.18
816.207
750.203
651.815
636.072
604.398
596.185
575.74
566.105
558.932
547.294
539.905
520.541
3868.12
3638.92
3136.34
2158.65
1661.22
1275.26
993.102
853.914
717.431
654.714
598.193
574.146
545.77
531.469
518.844
515.042
518.588
523.272
525.534
521.323
4012.48
3008.63
2934.24
2095.74
1681.06
1449.09
1136.77
1015.31
839.798
752.053
671.639
629.118
576.55
542.282
513.054
498.44
495.941
493.473
494.807
495.985
7430.53
3275.33
3296.29
3125.82
2808.47
2391.36
1611.49
1255.91
951.211
821.775
756.107
708.707
651.503
601.097
545.995
498.786
464.34
443.98
438.261
436.239
20316
4993.69
4409.76
2971.01
2379.44
1863.29
1243.07
1004.7
904.225
848.293
813.582
769.586
699.451
637.932
571.107
509.621
448.499
406.011
390.602
378.274
4425.14
5787.73
4142.83
3022.94
2047.03
1685.06
1232.98
1027.71
925.082
898.591
841.771
773.565
686.471
605.66
577.733
515.024
458.397
404.939
376.03
352.343
706.74
5272.77
4537.4
2252.91
1461.88
1249.63
1152.41
903.15
918.005
884.733
820.816
731.944
628.612
546.731
515.028
532.555
488.71
429.496
382.693
341.833
5106.06
8012.88
4117.52
2100.56
1281.93
1105.16
933.454
864.617
799.447
757.459
701.117
574.117
454.289
385.381
409.93
484.659
484.109
473.019
428.093
355.409
13845.8
10405.6
6408.22
3636.63
1530.69
1353.17
941.516
819.734
759.944
714.57
648.367
567.561
503.657
463.214
466.525
482.077
464.399
456.187
433.741
379.843
5313.4
9024.71
4631.67
2775.76
1709.36
1460.6
1150.63
926.783
778.58
714.789
679.421
615.533
556.106
501.183
483.153
488.502
467.019
450.238
423.813
391.026
7528.41
7449.56
4391.19
2972.57
2130.43
1992.68
1538.61
1231.88
940.037
847.1
821.093
752.351
666.896
576.881
545.58
489.503
461.392
436.889
420.166
398.932
9080.01
7627.6
5416.2
3728.37
2790.59
2401.13
1830.21
1659.61
1426.6
1283.37
1099.48
926.706
810.08
691.009
602.42
528.844
480.095
439.383
416.109
395.871
7636.65
5771.79
5470.6
4762.7
3686.65
2956.37
2278.96
2010.43
1687.82
1445.66
1173.32
923.902
770.766
669.381
597.923
534.533
489.956
447.733
418.282
393.605
1529.43
6217.78
6431.72
4604.32
3227.86
2736.1
2231.75
1980.37
1594.18
1271.62
939.779
708.143
602.99
545.714
511.425
477.758
452.483
426.98
409.558
389.575
5484.1
4942.07
4336.46
3141.82
2292.9
2214.83
1838.89
1491.44
1044.18
792.307
629.66
550.342
496.418
459.144
429.676
404.991
390.923
377.56
369.583
358.442
2213.03
1972.12
2871.2
2876.62
2255.54
2063.71
1756.34
1458.83
963.036
710.141
591.921
531.454
479.493
445.027
396.6
353.807
326.145
313.213
308.216
310.054
319.273
1934.18
2120.07
2048.95
1891.27
1674.51
1154.35
839.826
601.695
571.319
530.657
526.256
524.986
521.929
496.642
433.265
372.608
343.926
317.747
291.545
118.647
763.913
901.855
867.911
766.598
712.23
586.223
487.668
423.976
389.107
362.858
334.404
302.177
261.754
220.906
203.783
199.612
191.199
172.351
120.886
1979.93
3407.1
3236.75
1784.23
1118.72
872.318
744.51
657.735
568.757
514.236
469.896
440.866
409.397
375.876
346.046
315.591
297.712
275.576
265.085
236.938
3169.94
5359.25
3562.93
2171.4
1873.28
1738.55
1445.53
1292.15
1054.72
997.745
922.315
919.025
899.094
887.977
857.656
827.269
794.951
760.168
733.198
691.814
3449.67
6252.01
4605.25
2862.17
2284.49
1818.79
1473.4
1279.73
1084.29
1024.34
955.158
939.646
907.287
890.181
859.401
833.662
809.963
782.978
761.384
727.089
6559.78
5436.04
4409.12
3103.86
2393.89
1785.82
1411.71
1175.46
1015.04
933.784
881.457
856.82
829.436
813.23
796.205
781.277
773.261
759.119
748.894
727.612
10714.9
4712.81
3964.69
2896.79
2462.86
1989.63
1588.71
1328.8
1121.72
1004.36
924.252
875.791
826.017
793.265
764.104
744.275
731.575
716.394
708.787
695.586
7849.31
4660.73
4378.85
3910.62
3456.15
2789.4
1947.85
1567.19
1256.96
1106.94
1011.75
936.926
862.562
800.906
746.173
699.694
667.471
643.463
632.296
620.426
16097
6341.1
5162.75
3763.97
3001.07
2274.96
1658.39
1363.1
1256
1151.66
1082.44
1000.1
904.619
823.763
745.13
680.521
625.461
587.997
569.569
553.234
7426.3
6814.99
5283.83
3815.8
2772.54
2201.56
1823.69
1518.96
1326.3
1253.01
1136.78
1036.56
914.127
816.584
749.949
681.228
620.112
569.624
542.38
520.257
3567.45
7846.78
5810.11
3011.99
2173.93
1904.94
1834.06
1476.01
1378.58
1281.05
1145.9
1004.73
869.261
776.296
728.346
711.966
653.679
591.119
545.542
511.158
8881.32
11036.3
5176.33
2596.84
2002.27
1720.73
1575.7
1406.93
1290.77
1182.74
994.039
780.486
630.361
582.21
630.075
683.113
673.839
639.141
580.543
528.662
17865.2
14352.3
7091.79
3372.76
1985.2
1673.61
1478.83
1302.98
1193.31
1097.31
682.154
645.693
653.766
624.416
631.858
648.562
641.415
622.901
587.975
551.068
26237.4
14219.1
5567.07
2956.72
2222.57
1890.78
1677.71
1370.71
1178.79
1062.12
969.406
866.248
773.716
697.314
656.665
650.32
634.133
612.324
588.36
563.065
10562.7
9897.84
5673.02
3535.02
2828.89
2562.32
2045.48
1591.63
1336.11
1215.74
1131.72
1014.93
893.699
775.913
720.602
667.159
639.252
614.472
600.575
576.307
10028.2
9655.36
6824.16
4881.85
3828.5
3201.43
2341.51
2068.94
1775.21
1585.01
1370.49
1180.33
1033.19
888.325
787.167
710.914
663.987
627.35
609.701
585.34
14880.7
8557.93
7597.01
6375.72
4931.5
3796.36
2821.74
2397.11
1987.79
1696.1
1417.89
1184.24
1015.95
880.305
789.7
719.314
673.468
634.589
612.987
586.666
17958
14667
9470.98
6516.94
4533.17
3539.12
2736.09
2306.43
1839.58
1498.77
1203.25
998.627
869.527
775.032
718.15
669.891
638.059
608.843
592.71
570.344
11869.4
7037.56
6592.81
4545.59
3420.36
3064.14
2368.44
1952.4
1434.08
1132.45
912.118
793.258
713.738
658.171
620.409
586.43
564.827
544.909
533.494
518.724
9152.54
8963.21
4931.43
4011.04
3053.32
2896.48
2364.22
1942.78
1372.55
1044.13
827.646
718.935
645.227
598.93
553.408
516.941
489.488
472.4
465.275
467.98
554.079
2676.86
2730.79
2676.64
2429.45
2172.79
1619.18
1266.66
935.22
796.118
678.087
639.918
605.59
591.381
561.496
519.448
480.231
445.606
411.58
397.837
150.986
770.372
1035.95
1013.8
999.375
853.763
712.369
570.144
483.946
417.97
369.397
315.165
260.532
213.077
192.393
189.275
180.775
160.704
135.065
109.559
3900.17
5747.43
4947.22
2431.28
1299.75
903.17
750.911
648.757
580.772
528.256
483.828
445.629
407.935
374.605
346.004
317.59
298.83
269.773
253.908
219.394
7297.49
8380.64
4684.59
2796.6
2330.69
1898.45
1637.1
1400.35
1264.73
1208.6
1182.3
1178.22
1167.52
1149.99
1112.08
1065.52
1019.7
968.494
926.825
873.804
9370.43
10118.7
6401.69
3600.14
2775.13
2018.82
1722.85
1425.56
1314.11
1233.26
1209.38
1184.38
1166.68
1138.67
1106.84
1066.39
1033.27
992.147
959.185
918.47
4199.8
6797.79
5947.73
3972.46
2980.83
2073.05
1718.41
1384.41
1260.4
1155.85
1127.48
1093.49
1077.72
1056.89
1039.2
1012.7
995.639
966.837
945.641
914.785
10935.1
6552.67
5171.82
3645.68
3070.27
2209.94
1879.7
1485.48
1339.07
1187.33
1137.71
1077.07
1043.31
1008.59
986.122
958.884
941.015
916.33
900.493
878.389
11745.5
6980.66
6176.31
4833.64
4045.17
2848.51
2139.14
1708.55
1476.68
1297.81
1209.76
1110.67
1042.03
974.992
926.31
882.188
853.89
827.946
812.052
795.426
18397.5
8438.7
6362.66
4363.88
3502.75
2475.09
1945.3
1595.18
1502.06
1344.35
1274.26
1155.32
1062.03
971.088
897.325
835.725
792.185
761.139
741.994
727.574
23969.4
8681.04
6681.6
4360.3
3374.1
2540.06
2186.31
1822.24
1598.42
1487.67
1340.54
1217.34
1082.29
977.551
890.299
821.792
770.403
731.457
709.672
695.264
16912.7
11986.2
7236.11
3692.15
2689.25
2367.3
2292.91
1855.79
1693.74
1550.95
1368.03
1202.7
1059.55
967.79
903.76
853.205
790.898
740.644
709.772
690.703
30833.5
15951.4
6524.05
3301.22
2571.18
2178.59
2040.25
1817.92
1662.05
1487.36
1243.48
995.805
857.376
838.46
863.359
865.306
828.541
778.867
737.309
707.063
17762.4
15495.9
7063.15
3438.21
2444.95
2036.44
1876.55
1673.36
1532.16
1375.49
1008.83
867.463
816.378
801.168
813.699
822.45
808.944
781.178
755.283
727.998
28219
19161.7
6483.68
3361.99
2713.54
2252.29
2028.76
1660.19
1459.43
1317.18
1182.11
1050.89
942.743
862.832
817.007
810.768
799.108
781.467
766.498
741.038
11160.5
9548.72
6380.54
3972.66
3548.31
2896.17
2304.28
1811.75
1590.34
1455.31
1333.64
1186.06
1050.22
929.012
879.463
837.284
817.72
798.654
786.884
759.839
9175.86
9341.59
8123.77
5638.24
4720.5
3495.85
2582.83
2257.39
1978.23
1762.2
1543.26
1343
1185.29
1040.69
950.657
882.943
846.489
818.235
804.246
778.36
13700.1
9258.17
9620.4
7649.67
5892.47
4075.86
3094.17
2544.49
2166.01
1840.97
1580.92
1349.28
1186.63
1044.91
959.42
892.104
853.187
821.428
804.824
779.575
13792
11782
10513.5
7666.16
5368.64
3778.04
2984.11
2403.13
1996.21
1633.71
1392.26
1193.98
1071.27
964.725
904.427
849.564
818.421
789.937
774.651
752.988
13394.9
8860.17
7861.55
5114.75
4141.1
3218.33
2626.5
2071.95
1639.91
1314.35
1120.81
986.597
908.685
841.856
801.102
759.977
736.152
713.886
701.346
688.596
11609.5
6950.62
5585.42
4517.02
3746.55
3113.85
2542.69
1974.32
1525.96
1203.29
1007.83
888.938
815.837
756.717
714.001
677.118
652.759
638.955
636.387
647.091
1892.25
4394.63
3845.44
3094.82
2872.3
2223.58
1837.11
1369.03
1102.58
915.713
806.384
756.067
719.603
690.14
656.513
619.293
587.829
558.664
537.77
552.258
375.972
1100.98
1220.02
1048.44
1097.48
856.591
733.736
554.734
470.822
379.866
313.879
248.389
209.113
187.594
182.911
173.371
154.646
133.167
122.339
120.588
2105.79
3734.03
2797.41
1677.12
1175.17
846.527
694.133
583.904
521.169
461.873
416.53
381.66
352.869
327.28
300.055
269.127
240.705
212.476
192.927
172.236
25030.3
11491.6
5342.13
3488.27
2991.77
2120.38
1951.38
1521.39
1501.11
1365.67
1395.32
1344.1
1355.67
1307.12
1274.39
1198.35
1147.09
1073.81
1027.35
978.59
26556.1
15792.1
8394.72
4477.91
3455.21
2373.95
2074.81
1626.42
1574.79
1430.67
1439.48
1378.24
1374.21
1318.43
1288.96
1223.98
1186.5
1128.07
1091.17
1052.46
19748.4
10593
7812.51
5016
3655.91
2453.6
2070.27
1611.73
1520.94
1368.71
1356.42
1294.94
1288.45
1246.57
1226.98
1182.13
1157.85
1112.88
1085.45
1053.21
17227.8
9181.74
6654.35
4981.21
3723.15
2625.92
2220.85
1697.8
1578.85
1374.03
1342.78
1252.95
1232.19
1181.76
1162.66
1121.01
1100.53
1063.65
1042.61
1018.79
9249.17
8922.89
7763.12
5593
4593.06
3000.67
2401.39
1855.99
1698.45
1459.7
1391.86
1255.74
1200.03
1116.86
1075.79
1028.37
1003.42
973.231
954.413
939.072
9219.07
11453.6
7657.92
5449.08
4212.81
2950.15
2299.9
1905.44
1740
1522.07
1446.82
1276.96
1197.2
1087.83
1024.12
961.075
930.689
900.926
884.594
876.655
22783.9
11420.1
8099.62
5145.64
4174.72
3033.21
2495.33
2063.87
1857
1672.73
1530.15
1368.53
1241.48
1123.71
999.834
933.652
891.146
863.555
849.551
846.612
41625.5
17738.6
9028.67
4781.66
3327.24
2863.14
2625.48
2149.19
1965.18
1766.17
1559.63
1380.02
1247.44
1152.21
1059.51
942.763
891.834
856.567
844.841
841.739
41121.7
20563
8441.32
4751.02
3126.97
2625.79
2414.3
2174.95
1977.21
1723.37
1449.78
1207.85
1117.6
1105.31
1066.85
968.035
918.917
877.975
859.476
850.152
24351.8
13883.2
7611.17
4310.7
3016.31
2454.57
2207.7
2009.69
1829.03
1595.37
1326.82
1114.37
1045.97
1042.1
1010.22
941.692
916.237
888.826
876.64
859.188
34023
11957.7
6728.19
4458.09
3248.68
2657.44
2327.1
1916.02
1714.99
1540.62
1375.78
1230.8
1137.31
1065.38
1001.19
940.615
925.239
905.533
895.046
871.172
12512.3
9814.67
7088.55
4774.62
4391.42
3302.77
2467.49
2010.97
1809.57
1657.14
1512.52
1344.5
1210.31
1096.09
1014.11
976.217
959.075
940.678
925.824
897.241
8961.51
9586.74
9314.12
6191.03
5555.74
3495.36
2736.61
2368.32
2088.99
1858.99
1630.54
1430.17
1272.77
1146.12
1072.77
1017.92
992.761
968.144
952.419
927.142
21090.3
10139.6
11065.9
7708.67
6335.27
3898.18
3221.72
2557.13
2255.05
1900.2
1663.28
1431.58
1286.32
1156.95
1087.24
1027.54
998.463
970.304
952.65
930.492
17066.7
11414.4
12474.6
7517.16
5878.28
3606.19
3141.66
2389.84
2101.13
1690.94
1513.18
1301.63
1206.49
1097.22
1047.91
991.6
966.313
936.627
919.097
900.747
20597.2
11672.2
8789.42
5779.02
4659.16
3150.91
2793.43
2047.48
1771.33
1387.92
1272.03
1112.87
1060.78
981.195
949.375
902.879
883.006
857.718
843.554
836.128
6842.42
7800.87
7260.92
4549.84
4401.71
2954.81
2675.77
1822.02
1629.48
1241.85
1160.03
1006.39
964.831
885.508
856.682
814.531
799.223
789.866
793.045
814.112
4340.68
5114.75
4678.92
3407.05
3296.78
2210.95
2015.8
1335.03
1257.58
962.044
945.576
849.301
838.433
782.735
762.911
721.734
703.458
684.941
688.067
741.486
6122.73
1525.95
1286.1
1020.09
1062.33
750.26
655.155
462.279
370.675
278.093
226.788
194.231
184.11
175.431
172.867
160.556
143.806
134.1
132.633
135.569
1050.03
1106.98
735.428
1420.84
1252.53
1328.65
942.697
828.548
659.334
552.538
1186.4
995.269
851.039
702.335
743.708
1068.21
993.009
1307.16
900.088
1266.25
1163.11
626.841
965.967
882.18
827.205
772.455
1128.02
1026.36
126.174
146.417
109.154
856.79
721.923
773.997
717.388
127.95
110.558
118.211
712.983
755.336
716.229
711.029
144.7
117.721
117.39
765.934
760.833
698.828
665.38
142.601
119.322
129.482
756.453
724.225
660.673
647.438
142.155
130.881
127.898
713.981
661.228
636.978
576.493
122.502
122.603
102.771
643.084
571.221
550.089
464.742
105.592
96.9492
81.9208
552.183
490.687
438.723
372.894
78.8891
79.1518
62.3649
476.879
443.014
359.825
344.189
105.439
141.098
100.413
719.218
705.467
675.074
652.625
103.359
98.184
97.5882
700.042
666.285
640.559
612.721
102.785
98.6701
100.09
651.669
626.539
605.633
589.06
121.053
101.41
115.326
625.71
618.167
587.196
568.649
119.836
120.304
120.662
604.653
533.707
554.447
499.915
97.7
117.487
103.811
505.426
424.403
481.012
430.107
80.5599
99.9257
92.0841
401.641
348.04
416.624
386.725
62.6442
90.0322
78.1773
337.129
327.274
379.698
373.262
115.69
190.049
132.894
715.019
685.938
878.664
777.751
108.993
128.532
109.638
670.132
637.289
748.312
668.11
110.758
108.415
117.196
629.571
602.731
653.903
623.235
119.526
119.736
123.777
597.456
583.276
616.227
601.434
123.242
123.038
114.637
573.135
527.673
592.078
546.948
105.199
111.586
103.596
509.774
460.043
531.086
489.257
95.1995
101.026
94.3463
446.815
416.539
477.159
443.631
80.4717
92.4454
77.0277
408.62
393.274
433.202
412.114
131.243
268.201
183.904
922.138
802.683
1070.17
1009.59
104.244
184.733
139.735
769.215
663.644
935.295
713.637
110.274
121.905
95.8043
642.584
610.45
660.47
600.267
118.838
97.2704
106.991
605.484
592.217
598.918
601.322
112.05
110.468
113.612
584.05
545.704
598.099
576.277
101.51
114.74
110.917
531.609
493.893
561.77
525.936
91.5153
109.648
98.7705
481.959
446.382
508.174
466.975
72.9756
99.6511
78.8007
434.767
411.256
447.566
420.456
926.863
1022.52
892.43
1677.26
1398.22
1539.68
1338.89
919.577
884.697
862.712
1353.27
1306.63
1314.58
1249.14
891.687
846.714
801.838
1281.8
1214.03
1222.82
1146.48
837.05
792.129
758.65
1196.87
1108.42
1121.95
1028.03
753.049
740.347
659.921
1077.81
975.619
988.772
859.306
650.289
628.672
532.91
946.223
843.804
816.96
699.485
560.866
504.258
433.981
816.411
739.705
667.678
600.584
504.642
420.53
400.515
724.207
679.364
591.21
586.867
876.361
875.484
815.001
1427.31
1312.55
1317.31
1222.83
817.44
796.354
753.516
1286.14
1207.22
1192.57
1118.68
763.417
742.462
715.473
1181.21
1112.16
1098.22
1038.21
724.174
709.536
652.375
1089.57
977.824
1015.18
766.974
607.59
625.987
550.882
928.349
777.259
702.876
585.32
480.28
528.963
475.205
732.007
613.805
562.86
537.031
396.214
461.741
432.753
583.92
529.307
533.89
530.063
374.427
426.232
415.485
525.913
546.312
530.277
537.201
842.619
1101.97
937.644
1358.73
1229
1507.33
1304.4
772.126
900.027
807.261
1195.89
1118.07
1253.7
1133.59
722.846
787.173
735.968
1095.91
1029.71
1100.63
1014.37
668.576
724.537
697.743
1008.33
787.931
992.658
928.831
587
684.796
631.198
738.149
656.574
905.014
828.043
517.11
612.604
563.201
647.279
629.739
803.224
735.71
471.685
548.894
509.524
621.334
595.049
715.889
663.19
440.018
497.546
467.374
587.436
567.63
648.061
611.147
970.585
1376.77
1210.12
1569.26
1341.31
1843.76
1554.84
805.473
1113.16
867.374
1280.01
1132.57
1434.54
1194.23
724.656
811.143
734.995
1094.45
1006.39
1141.16
1045.39
690.966
729.709
720.275
986.204
928.394
1030.35
986.122
631.96
713.823
682.092
906.648
835.327
969.108
907.656
570.363
665.441
620.61
812.409
747.182
884.754
814.037
514.42
599.594
548.58
726.987
670.964
787.189
716.131
467.818
526.904
481.186
654.437
613.575
689.794
633.565
1526.12
1691.33
1465.66
2190.17
1836.83
2046.7
1793.34
1410.08
1436.8
1359.19
1774.46
1665.84
1753.61
1645.59
1301.69
1329.85
1243.27
1624.59
1523.86
1608.1
1490
1180.56
1214.08
1103.3
1492.05
1361.66
1447.57
1298.64
1035.95
1058.71
917.209
1318.86
1192.76
1243.19
1077.57
897.736
872.24
751.184
1157.28
1043.59
1027.9
906.305
791.812
719.527
656.631
1014.08
938.403
878.482
831.483
727.453
648.907
644.048
921.422
866.478
826.443
819.574
1437.4
1446.43
1338.5
1934.36
1763.71
1771.3
1643.45
1319.46
1305.84
1224.76
1724.55
1614.2
1606.74
1508.48
1210.71
1201.68
1130.52
1577.92
1463.03
1477.47
1379.8
1187.61
1148.08
1150.92
1268.85
1105.83
1229.18
1237.67
861.326
937.005
883.015
1059.43
810.632
998.061
939.812
659.639
537.898
548.393
941.499
820.988
683.138
680.386
582.745
552.684
562.435
796.976
770.019
685.166
703.524
604.317
565.922
576.867
772.203
791.591
711.387
731.761
1338.26
1621.62
1400.98
1786.98
1626.68
1894.96
1644.29
1218.18
1347.7
1221.04
1587.52
1485.76
1585.95
1446.08
1117.51
1185.56
1092.9
1453.97
1355.65
1406.29
1299.18
1095.06
981.309
1083.96
1159.01
1031.16
897.579
1158.82
912.642
645.583
900.13
590.523
868.227
566.824
947.12
659.442
855.647
783.306
785.782
775.745
995.042
912.342
631.05
762.117
706.486
768.889
753.432
889.075
830.733
605.64
690.727
650.432
750.513
743.09
814.589
773.286
1435.07
1964.15
1630.77
1951.05
1664.56
2221.63
1802.08
1218.8
1511.03
1279.84
1595.71
1437.56
1690.67
1490.81
1085.19
1227.57
1129.24
1395.38
1289.95
1441.53
1337.53
994.201
1111.99
1057.48
1259.45
1165.74
1313.91
1234.73
891.212
1036.9
966.923
1133.58
1037.81
1206.12
1114.61
795.45
941.409
863.967
1007.83
925.371
1083.41
991.395
714.525
835.652
760.46
901.122
838.121
960.691
879.342
653.072
734.01
674.079
820.239
774.582
852.977
792.027
1922.22
2149.14
1888.33
2543
2148.41
2410.94
2152.27
1737.04
1845.81
1729.71
2072.13
1935.03
2102.55
1965.36
1587
1689.61
1560.24
1892.56
1760.53
1916.81
1749.31
1412.96
1513.32
1354.11
1709.41
1555.37
1688.75
1503.92
1239.25
1296.3
1126.45
1507.85
1373.89
1441.75
1267.59
1088.95
1076.45
958.457
1332.42
1225.87
1219.67
1123.86
985.539
932.9
891.444
1197.32
1127.45
1106.34
1076.32
909.156
886.582
874.444
1104.4
1037.73
1069.09
1038.49
1859.56
1866.78
1734.89
2317.66
2129.1
2131.08
1997.33
1701.41
1697.54
1593.9
2082.29
1945.86
1957.68
1835.3
1534.57
1559.78
1446.82
1896.67
1725.34
1789.32
1628.58
1311.08
1401.58
1098.72
1663.83
1466.47
1567.49
1341.18
1049.9
1010.15
823.816
1397.18
1203.79
1263.68
1066.08
878.811
789.763
747.943
1152.68
1060.42
1019.71
950.083
836.295
748.42
763.742
1048.83
1039.2
949.72
964.799
850.195
771.55
787.73
1038.74
1026.41
969.685
968.771
1713.37
1977.56
1715.19
2123.05
1963.66
2200.11
1920.01
1566.85
1655.86
1513.31
1922.23
1798.41
1858.4
1709.78
1420.17
1472.54
1360.02
1753.28
1597.54
1665.46
1532.32
1080.68
1324.18
1213.17
1537.32
1329.07
1487.81
1357.26
890.522
1176.05
1070.07
1262.03
1099.6
1315.64
1199.67
824.912
1037.75
953.928
1057.45
987.549
1166.05
1089.7
803.058
930.943
874.026
982.293
979.007
1071.44
1022.76
793.48
858.179
815.4
977.633
962.351
1007.67
961.544
1729.82
2293.8
1849.17
2251.56
1917.31
2476.68
1980.03
1502.01
1741.52
1551.12
1846.95
1689.86
1885.93
1723.27
1350.28
1502.68
1397.33
1646.54
1522.04
1677.14
1561.86
1216.27
1371.83
1286.39
1481.78
1361.99
1531.92
1433.77
1082.07
1255.67
1158.47
1323.68
1213.64
1398.72
1285.77
966.996
1125.83
1031.01
1181.26
1102.84
1250.76
1154.69
880.581
1000.1
918.565
1081.81
1025.52
1125.51
1046.54
815.981
892.89
831.576
1008.61
959.741
1023.19
965.435
2229.98
2500.62
2245.99
2958.08
2573.31
2889.62
2620.11
2007.56
2193.45
2048.43
2471.2
2321.19
2552.51
2374.34
1823.69
1996.55
1814.5
2263.02
2092.44
2309.25
2092.73
1608.32
1749
1556.57
2015.58
1851.18
2015.83
1805.11
1424.17
1493.29
1319.02
1795.44
1655.02
1738.75
1562.09
1276.53
1272.3
1185.31
1603.35
1506.07
1516.02
1442.66
1177.69
1169.73
1139.83
1473.12
1401.54
1428.98
1394.33
1080.86
1130.8
1089.83
1369.96
1276.03
1381.09
1307.08
2224.54
2222.44
2089.92
2798.85
2600.76
2584.98
2453.76
2030.98
2048.91
1918.65
2536.66
2358.97
2402.08
2242.13
1790.04
1867.53
1690.68
2292.07
2069.02
2180.38
1966.16
1519.77
1625.79
1406.02
1990.11
1770.17
1891.41
1671.27
1257.44
1330.18
1131.24
1698.43
1506.95
1595.75
1392.5
1126.41
1084.11
1019.58
1458.88
1393.71
1345.61
1291.99
1107.99
1021.25
1036.08
1389
1373.26
1299.18
1309.76
1080.88
1038.75
1026.85
1365.37
1305.44
1306.86
1257.5
2052.67
2278.3
1995.05
2554.16
2408.24
2612.53
2321.59
1879.17
1932.74
1781.73
2355.6
2197.51
2250.43
2080.9
1658.91
1735.62
1593.5
2138.26
1933.71
2029.16
1867.49
1393.41
1546.2
1409.57
1862.43
1657.28
1812.82
1657.81
1157.93
1366.71
1247.58
1589.29
1406.3
1610.86
1480.76
1048.48
1214.12
1143.21
1362.19
1305.5
1446.22
1381.59
1044.81
1127.36
1080.43
1309.64
1309.24
1371.23
1326.29
1017.89
1065.15
1013.63
1302.73
1245.53
1310.77
1235.33
1986.93
2537.45
2032.94
2656.77
2300.12
2836.28
2305.5
1759.28
1942.04
1786.01
2222.02
2051.76
2213.81
2051.66
1583.57
1740.05
1620.53
2002.85
1855
2006.96
1870.97
1415.37
1589.58
1487.98
1805.43
1663.04
1833.04
1718.6
1262.96
1451.93
1333.92
1619.42
1496.36
1678.93
1548.92
1156.88
1299.19
1203.56
1462.83
1395.12
1514.34
1420.51
1082.34
1175.53
1096.88
1378.85
1325.72
1394.12
1318.07
1012.12
1074.76
1015.31
1308.99
1235.33
1296.84
1222.21
1110.78
1103.41
958.836
1120.28
1037.39
1179.07
1022.41
1121.32
1121.92
1000.88
1177.39
1049.91
1206.64
984.231
953.537
813.296
848.226
586.299
928.801
798.693
726.324
1267.17
1348.15
1373.26
1392.08
1304.47
1318.33
1340.05
1189.93
1188.62
1316.72
1178.37
1250.71
1099.75
1265.55
1206.33
1247.15
1362.26
1233.18
1286.8
1051.93
1294.24
1043.08
650.187
1043.31
1078.08
886.801
794.132
1171.33
789.656
881.707
689.554
882.295
745.122
938.789
729.256
601.5
724.692
598.449
508.823
650.064
691.093
442.673
538.972
565.142
563.498
496.43
594.428
536.705
443.875
934.227
1124.52
1120.13
1094.17
1060.2
1014.94
1013.49
859.348
938.686
1056.03
869.575
997.941
793.394
937.554
687.356
569.063
940.613
786.238
777.719
508.288
854.576
613.081
544.821
734.974
738.341
601.198
497.851
782.024
1033.82
841.662
935.618
634.743
978.572
720.397
985.882
1114.88
1077.56
1044.07
1138.73
1047.49
1149.5
1111.18
1078.5
983.763
1019.15
1053.3
1015.25
1043.13
1082.77
1168.76
1225.92
1176.02
1297.14
959.923
1232.42
1237.81
1103.01
678.099
1015.03
1115.41
768.841
1049.39
1172.94
1179.85
1204.76
1279.54
1232.53
1217.23
1174.07
1239.52
1140.22
1110.11
1155.8
1198.21
1101.43
1142.55
1197.44
884.753
625.936
814.066
597.4
840.669
577.055
856.936
975.959
953.305
937.945
1023.25
923.003
1009.17
992.701
944.371
865.349
909.891
932.92
893.663
914.139
962.485
967.018
630.375
779.785
1066.65
604.584
1005.58
1023.27
935.391
643.361
761.185
954.976
613.461
905.96
986.029
1028.25
1077.34
1115.87
1093.14
1064.22
1044.47
1077.43
994.136
980.929
1006.88
1059.17
961.582
1012.24
1041.13
234.653
351.699
250.399
653.212
672.148
662.672
670.509
223.324
215.446
217.389
628.189
580.435
627.853
647.839
221.706
230.066
250.721
621.819
641.678
674.475
683.913
225.68
251.827
250.687
649.075
642.729
676.589
665.02
213.51
247.752
242.232
631.182
607.76
637.614
608.574
196.48
229.625
216.539
583.114
554.372
576.255
541.602
174.721
202.864
189.45
523.825
498.889
506.191
475.456
135.609
178.195
149.276
455.711
466.392
436.595
439.605
341.278
244.37
257.406
673.239
694.973
657.587
764.474
289.84
179.224
189.244
339.507
318.913
309.949
137.714
291.447
116.386
99.0756
280.352
282.706
280.16
100.014
385.989
144.824
125.107
367.672
399.475
376.064
129.915
378.721
141.584
129.22
428.593
426.045
377.408
130.39
390.722
145.311
141.43
427.723
425.974
391.293
142.396
351.74
133.281
137.345
401.204
384.678
366.701
132.036
291.131
114.581
114.592
344.706
330.449
304.956
109.557
241.979
97.6138
95.1478
294.25
283.336
252.743
90.113
122.384
136.544
112.584
377.364
402.728
326.142
359.091
233.878
296.212
236.391
646.448
625.537
657.236
587.506
266.275
116.258
137.131
260.312
283.555
251.959
112.11
284.26
105.044
94.9682
316.853
318.636
285.566
93.6
281.472
101.588
93.1483
307.281
303.133
280.747
93.7585
307.452
109.926
99.4151
312.45
323.474
295.889
104.312
326.801
123.631
119.874
342.068
339.805
328.466
120.446
278.93
108.392
112.175
302.654
285.806
293.768
106.933
227.222
88.3871
92.7367
241.219
228.088
238.765
88.5747
196.84
75.9009
79.6486
200.528
194.356
202.203
77.5376
110.089
147.409
122.69
298.027
334.011
319.874
341.013
293.473
460.526
327.998
785.22
655.507
862.856
782.765
327.393
133.09
171.88
294.433
299.487
308.048
140.93
348.371
109.995
124.347
320.039
320.291
352.489
120.252
333.871
110.253
113.417
320.557
320.307
333.737
113.687
334.333
110.948
116.698
315.923
317.303
333.444
117.757
343.926
125.371
125.241
340.762
340.494
345.265
125.274
302.84
114.025
117.599
315.222
301.976
315.472
112.78
270.237
99.3218
102.807
270.021
263.659
276.601
100.432
249.351
91.5858
94.3852
247.953
243.723
254.03
92.4736
131.309
158.928
132.196
355.554
372.089
363.472
382.797
335.685
418.735
369.894
911.072
875.834
929.317
896.925
380.533
158.194
200.969
366.464
376.889
364.615
163.874
362.245
120.508
131.418
366.468
353.871
381.131
123.654
286.018
100.393
96.7639
305.389
308.395
286.172
94.5302
315.916
118.35
103.809
333.492
335.936
309.498
108.285
318.977
116.809
112.578
330.404
325.591
321.067
112.364
290.347
105.97
105.796
303.732
296.276
297.968
102.878
263.36
96.5304
96.7237
277.138
270.274
270.93
93.6789
234.931
86.461
86.0805
249.997
244.23
241.045
83.6025
124.319
138.69
125.682
355.827
371.932
324.725
318.664
368.545
441.765
342.067
838.176
894.216
809.918
840.355
254.128
301.372
276.408
838.989
699.271
794.395
734.934
196.908
259.37
230.273
603.979
561.2
663.573
632.07
200.089
239.538
233.343
559.399
562.947
596.257
585.477
203.721
239.178
226.124
560.712
549.591
559.7
537.228
190.869
223.949
208.606
524.541
497.198
492.427