/*--------------------------------*- C++ -*----------------------------------*\
  =========                 |
  \\      /  F ield         | OpenFOAM: The Open Source CFD Toolbox
   \\    /   O peration     | Website:  https://openfoam.org
    \\  /    A nd           | Version:  10
     \\/     M anipulation  |
\*---------------------------------------------------------------------------*/
FoamFile
{
    format      ascii;
    class       volScalarField;
    location    "4.6";
    object      p;
}
// * * * * * * * * * * * * * * * * * * * * * * * * * * * * * * * * * * * * * //

dimensions      [0 2 -2 0 0 0 0];

internalField   nonuniform List<scalar> 
12920
(
-946956
-815972
-752403
-665059
-623806
-553552
-516120
-456557
-423548
-374308
-339693
-296464
-260424
-220281
-183374
-144399
-106365
-67225.4
-31104.9
-2676.3
-1.0077e+06
-831851
-763713
-667847
-624828
-552816
-514647
-454512
-422059
-372743
-338958
-295872
-260309
-220013
-183275
-144211
-106243
-66828
-30207.1
-773.467
-978131
-776870
-742120
-638175
-617394
-540127
-509515
-447164
-418698
-368482
-337381
-294265
-259482
-219093
-182610
-143546
-105896
-66620.8
-29846.3
412.238
-1.05144e+06
-808154
-720717
-617189
-607157
-530523
-501116
-441132
-412451
-364072
-333590
-291927
-256951
-217148
-180645
-142159
-104901
-66181.3
-29533.6
805.107
-968382
-754465
-695712
-583011
-585034
-510031
-486725
-428681
-403210
-356675
-327738
-286842
-252916
-213490
-177865
-139886
-103486
-65221.6
-29032.8
1200.81
-747031
-621878
-663804
-574534
-563834
-496032
-469854
-420133
-391343
-350640
-318608
-280754
-246040
-208657
-173335
-136958
-101064
-63815.1
-28172.5
1672.31
-956196
-547278
-634045
-528774
-528774
-462710
-446800
-400772
-378351
-337889
-309474
-272035
-239200
-202499
-168792
-133450
-98642.3
-62150.9
-27567.6
1825.35
-495172
-498666
-567999
-495545
-504092
-442175
-434202
-398374
-370039
-340268
-309225
-274925
-241874
-207723
-164423
-130307
-96054.2
-60768.9
-27111
1052.5
-722315
-517034
-520434
-454299
-451186
-418738
-407688
-381404
-356251
-329983
-301475
-270768
-239700
-207786
-170894
-127469
-94046.5
-59961
-27321.9
-177.668
-558948
-492357
-474986
-422873
-428827
-389117
-377079
-359539
-337961
-313298
-287392
-260091
-231184
-201244
-165759
-124172
-91348.8
-58194.7
-27098.4
-1043.7
-350246
-318806
-368137
-350729
-370510
-359018
-351319
-337555
-318749
-297097
-273720
-248741
-221827
-193897
-160229
-119747
-87955.1
-55740.3
-25717.5
-683.029
-80727.7
-248010
-338648
-310086
-347699
-326932
-324700
-314875
-300628
-282568
-262200
-238784
-213397
-186794
-154500
-114897
-84635.4
-53418.4
-24378.2
12.2606
-371558
-258524
-284392
-272812
-305237
-290912
-303322
-295835
-284108
-268752
-249260
-226229
-201669
-175694
-139937
-111009
-81817.9
-51445.3
-23250.4
766.847
112750
-121183
-213889
-224734
-283432
-275151
-290167
-277270
-270355
-251448
-233550
-210039
-186954
-161034
-134634
-107056
-79189
-49822.3
-22405.2
1211.25
101018
-149024
-279996
-234635
-297397
-283333
-291435
-274198
-264312
-245287
-227041
-203690
-180977
-155649
-130342
-103676
-76865.9
-48349.9
-21815.3
1242.95
-439376
-333986
-318452
-267845
-312784
-292240
-296409
-275764
-262995
-239483
-221108
-197298
-175553
-150801
-126741
-100923
-75232
-47461.7
-21305.5
1566.75
-564727
-434324
-401212
-327518
-342484
-302454
-302846
-277477
-265109
-238841
-219397
-194723
-172898
-148148
-124790
-99552.6
-74331.2
-46916.7
-21115.1
2020.17
-332701
-371990
-384748
-328228
-346153
-308603
-304920
-276197
-263996
-237478
-218279
-192885
-171328
-146590
-123804
-98755.5
-74143.8
-47076.6
-21477.8
2000.45
-577298
-443483
-429733
-354660
-362804
-313707
-309969
-277217
-264182
-236296
-217947
-192290
-171115
-146283
-123200
-98151.3
-73428.6
-47023.8
-22735.3
-758.831
-760945
-490050
-451363
-375976
-366949
-315035
-309476
-274467
-261993
-233888
-215972
-191262
-170469
-145803
-122729
-97572.1
-73036.1
-47081.1
-23926.7
-4218.8
-995814
-822679
-753619
-665437
-623762
-553320
-516160
-456303
-424230
-374249
-339907
-296417
-260516
-220272
-183432
-144419
-106397
-67183.1
-31051.8
-2419.91
-1.08085e+06
-824682
-762669
-665858
-625549
-552078
-515063
-454032
-422603
-372485
-339238
-295770
-260443
-220042
-183409
-144307
-106343
-66792
-30258.3
-544.345
-964780
-762146
-739064
-637015
-619246
-539522
-511314
-446627
-419507
-368110
-337926
-294245
-259790
-219183
-182783
-143635
-106013
-66649.5
-30106.7
345.594
-989420
-782279
-718325
-616319
-608809
-529893
-501891
-440545
-413094
-363871
-334248
-292061
-257330
-217297
-180848
-142278
-105028
-66250
-29927.6
675.863
-948223
-754337
-687002
-582987
-587718
-508906
-487547
-427839
-404109
-356461
-328492
-286980
-253325
-213607
-178038
-139984
-103598
-65299.1
-29460.3
1111.65
-808727
-658812
-663247
-574326
-565946
-494854
-470735
-419370
-391772
-350567
-319062
-280811
-246262
-208668
-173426
-137003
-101107
-63846
-28613.1
1509.97
-980498
-592528
-633696
-527380
-530563
-460357
-447268
-400265
-379065
-338168
-310072
-272086
-239281
-202361
-168793
-133412
-98606.1
-62068.8
-27904.4
1711.64
-659279
-514742
-573148
-493921
-506390
-440467
-434133
-399001
-371030
-340583
-309493
-275169
-242052
-207800
-164231
-130256
-96012.7
-60725.8
-27331
1187.22
-773435
-522951
-520030
-452642
-451661
-418488
-406865
-381617
-357383
-330006
-301515
-270853
-239804
-207873
-171467
-127526
-94163.7
-60083.5
-27689.9
340.295
-753969
-504418
-472565
-424447
-429204
-388880
-377675
-359920
-337873
-313273
-287565
-260258
-231274
-201361
-166076
-124252
-91451.8
-58210.4
-27073.1
-321.663
-435669
-323149
-368178
-350551
-368558
-356661
-351108
-337535
-318687
-297150
-273781
-248752
-221859
-193942
-160622
-119766
-88007.2
-55731
-25837.1
-279.926
-158951
-267438
-336765
-311123
-349227
-327308
-325132
-315069
-300733
-282749
-262254
-238851
-213490
-186913
-154967
-114924
-84620.6
-53380.5
-24543.1
318.18
-317382
-262401
-281491
-272889
-304772
-289584
-302759
-296403
-284502
-269142
-249521
-226492
-201928
-175887
-140097
-111016
-81775.5
-51402.7
-23436.2
1010.76
186725
-113166
-213579
-225332
-282855
-272457
-289439
-277219
-270830
-251560
-233817
-210076
-187048
-161056
-134568
-106984
-79165.3
-49838.1
-22639.1
1573.64
69964.7
-152422
-281491
-237184
-298772
-282656
-290875
-273974
-264959
-245399
-227076
-203561
-180888
-155483
-130213
-103586
-76848.2
-48326.9
-21968.3
1903.18
-432848
-330368
-321077
-272057
-315261
-292897
-297141
-274376
-262762
-239365
-221034
-197052
-175360
-150588
-126603
-100833
-75246.5
-47441.9
-21555.7
2190.49
-574209
-430685
-409476
-328739
-342671
-303579
-303326
-277186
-264206
-238562
-219249
-194377
-172677
-147906
-124681
-99490.6
-74373.6
-47036.9
-21406.7
2346.3
-382450
-358292
-388127
-330672
-346568
-308215
-305065
-276349
-264254
-236997
-218197
-192588
-171359
-146486
-123808
-98737
-74261.3
-46979.3
-21520.8
2351.54
-601292
-449349
-435373
-355603
-363184
-313514
-310115
-276974
-264316
-236156
-217965
-192059
-171071
-146213
-123210
-98162.8
-73378.8
-46902.4
-22719.3
-277.749
-674832
-478728
-450533
-378483
-367393
-314703
-309797
-274566
-261934
-233861
-215996
-191223
-170469
-145791
-122694
-97489.2
-73001.7
-47092.1
-23951.4
-3760.54
-1.03117e+06
-815521
-751672
-665238
-623323
-552500
-516101
-455713
-425059
-374220
-340326
-296356
-260687
-220250
-183545
-144450
-106455
-67090.4
-30986
-2145.89
-1.05144e+06
-814460
-756117
-664282
-626943
-551328
-515896
-453180
-423345
-372138
-339738
-295666
-260722
-220091
-183675
-144466
-106520
-66689.1
-30458.6
-720.655
-846625
-735306
-726046
-634253
-619656
-539177
-512562
-446127
-420642
-368010
-338983
-294378
-260360
-219318
-183070
-143758
-106189
-66672.2
-30753.1
-432.022
-958568
-756597
-722612
-614953
-609534
-529220
-502919
-440175
-413828
-363851
-335138
-292201
-257973
-217658
-181170
-142452
-105228
-66267.2
-30744.3
-229.594
-905468
-729134
-678177
-581658
-589190
-507356
-488732
-426966
-404806
-356600
-329472
-287276
-253985
-213904
-178341
-140186
-103795
-65305.6
-30341.9
122.188
-914845
-679494
-662736
-575076
-567620
-493221
-471937
-417757
-392421
-350498
-319753
-280986
-246477
-208699
-173586
-137077
-101195
-63800.8
-29507.3
318.684
-962547
-600737
-626374
-528817
-531164
-457470
-447766
-399458
-379901
-338572
-311216
-272350
-239449
-202132
-168770
-133294
-98577.1
-61993.9
-28750.5
503.386
-612721
-527554
-565614
-494544
-506819
-439448
-434059
-400029
-372143
-341494
-310145
-275915
-242592
-208137
-163984
-130167
-96017.7
-60845.5
-28261.4
243.738
-752397
-520901
-516637
-451341
-450852
-418313
-405714
-383547
-358587
-330340
-301935
-271208
-240130
-208129
-172345
-127671
-94498
-60237.9
-28281.1
-41.8304
-735666
-504776
-473828
-422535
-424966
-388272
-378457
-360517
-337900
-313405
-287910
-260405
-231421
-201523
-166716
-124373
-91493.7
-58127.4
-27395.4
-412.553
-424089
-319340
-363810
-348036
-363867
-352921
-350697
-337387
-318459
-297684
-273943
-248435
-221874
-194079
-161164
-119731
-87932.3
-55665.8
-26251.7
-483.923
-402116
-271756
-333847
-311406
-349068
-327210
-325139
-315083
-300910
-283036
-262383
-238951
-213612
-187061
-155504
-114975
-84509.6
-53338.1
-24957.1
4.71833
-286171
-256229
-275722
-271576
-303708
-287699
-301722
-297538
-284985
-269787
-249789
-226824
-202209
-176142
-140222
-110968
-81805.3
-51381.6
-23908
612.973
25611.4
-125208
-219223
-227384
-282366
-270628
-288926
-276939
-271167
-251645
-234013
-210098
-187188
-161097
-134482
-106839
-79224.9
-49803.5
-23202.8
1180.37
19914.9
-145270
-283150
-240604
-299820
-280939
-290094
-273220
-265250
-245197
-226989
-203303
-180719
-155312
-130035
-103469
-76845.1
-48270.7
-22498.3
1644.58
-480029
-314842
-321071
-272557
-315873
-292059
-296753
-273110
-262445
-238857
-220841
-196611
-175013
-150321
-126441
-100705
-75268.2
-47407.5
-22100.9
1967.92
-456956
-429065
-416205
-329496
-344153
-304376
-303966
-275757
-263659
-237966
-218923
-193909
-172525
-147598
-124520
-99432
-74489.8
-47090
-21993.9
1967.75
-242003
-358309
-383374
-329524
-346214
-307812
-305320
-275938
-264432
-236440
-218007
-192006
-171205
-146433
-123894
-98766.7
-74202.9
-46767.6
-22071.1
1933.57
-665684
-467185
-440342
-354888
-363518
-312543
-310468
-276550
-264688
-235871
-217860
-191516
-170743
-146038
-123161
-98069.3
-73413.6
-46714.5
-22847.7
14.285
-580369
-464683
-454117
-375663
-367585
-313851
-309808
-274580
-262064
-233711
-216104
-191060
-170507
-145745
-122686
-97439.5
-72996.6
-46879.1
-23840.2
-3075.38
-1.06081e+06
-811051
-749492
-664830
-622332
-551028
-515799
-454951
-426291
-374228
-340922
-296312
-260949
-220253
-183726
-144520
-106583
-66970.8
-30925.6
-1912.28
-1.00938e+06
-781012
-752038
-662952
-627594
-550472
-516321
-452787
-424190
-372043
-340341
-295773
-261080
-220271
-184144
-144732
-106805
-66506.6
-30687.5
-2144.1
-698492
-712389
-711065
-633931
-616343
-540238
-511707
-446237
-421207
-367788
-340059
-294594
-260779
-219478
-183332
-143911
-106444
-66731.7
-31760.1
-2908.49
-1.09864e+06
-724209
-720951
-613203
-606589
-529744
-502521
-440551
-413706
-363588
-335719
-292319
-258357
-217902
-181370
-142549
-105386
-66383.8
-31869.2
-3019.11
-917602
-716920
-674051
-579597
-585326
-507414
-487970
-427831
-404114
-357075
-329365
-287367
-254392
-214180
-178508
-140360
-103943
-65440
-31481.5
-2902.18
-1.05534e+06
-688091
-658090
-574696
-567624
-492990
-472890
-416490
-393353
-350610
-320193
-281190
-246637
-208798
-173707
-137161
-101284
-63896.2
-30639.7
-3007.41
-840933
-609180
-617919
-531115
-532938
-459129
-446374
-400236
-378089
-338663
-311782
-272429
-239473
-201978
-168776
-133291
-98661
-62072.7
-29912.6
-2855.34
-660007
-536762
-564568
-496357
-505950
-440471
-434145
-399489
-372029
-341992
-311025
-276921
-243425
-208569
-163834
-130112
-96209.7
-61117.3
-29435
-2828.18
-818808
-516209
-522068
-451625
-449743
-418684
-406036
-385249
-359166
-331205
-302736
-271806
-240667
-208542
-172775
-127635
-94703.9
-60256.2
-29198.4
-2526.78
-763846
-498268
-474911
-422202
-421173
-384778
-378804
-361027
-337962
-313514
-288018
-260422
-231499
-201622
-166955
-124182
-91389.1
-57976.8
-28074.6
-2367.08
-297703
-299847
-358967
-344076
-360494
-349772
-350047
-337114
-318129
-297955
-273859
-248671
-222050
-194235
-161479
-119420
-87831.8
-55536.2
-26925.9
-2313.9
-417667
-288726
-332530
-311609
-346424
-325993
-324553
-314777
-300846
-283138
-262515
-239053
-213669
-187106
-155657
-114888
-84429.7
-53245.5
-25685.3
-2026.91
-164622
-237337
-273256
-271921
-302671
-284789
-300504
-298733
-285065
-270204
-249776
-227287
-202410
-176490
-140081
-110866
-81779.8
-51326.6
-24715.8
-1676.84
-13262.8
-126760
-221806
-229480
-282640
-268046
-287814
-275978
-270854
-251920
-234303
-210267
-187414
-161220
-134272
-106831
-79280.3
-49795.4
-24046.4
-1195.1
14091.1
-136019
-285728
-241589
-302003
-278854
-289276
-271763
-265235
-245035
-226760
-203010
-180299
-154879
-129904
-103438
-76893.5
-48384.2
-23455.2
-788.752
-482816
-289835
-315913
-271729
-316553
-289959
-296016
-271222
-262224
-238285
-220567
-196007
-174440
-149703
-126254
-100681
-75319
-47418.9
-23020.1
-486.514
-584366
-438001
-416764
-330879
-346859
-303373
-304514
-274028
-263597
-237255
-218589
-193133
-172068
-147470
-124473
-99438.3
-74538.5
-47071.9
-22721.9
-575.568
-279428
-370809
-385354
-328174
-347097
-307059
-305887
-274359
-264859
-235551
-217568
-190755
-170544
-146273
-123820
-98760.1
-74189.9
-46716.2
-22829.8
-654.143
-688930
-474978
-446754
-354375
-363781
-312162
-311401
-276382
-265645
-235614
-217686
-190487
-170187
-145800
-123039
-97990.7
-73448.4
-46623.4
-23229.8
-1259.86
-535914
-456577
-454239
-370650
-369388
-313724
-312937
-274786
-262414
-233579
-216283
-190859
-170503
-145587
-122614
-97357.5
-73141.2
-46756.8
-23700.7
-2220.58
-1.01003e+06
-799586
-749564
-665473
-622653
-549081
-515467
-454060
-427887
-374312
-341741
-296256
-261330
-220186
-183903
-144501
-106731
-66715.3
-30830.7
-1270.42
-992738
-752313
-752330
-661666
-625560
-550652
-515458
-453533
-423993
-372602
-340191
-296013
-261038
-220372
-184550
-144998
-107155
-66224.9
-30564
-5813.67
-775814
-690879
-704359
-634395
-614719
-540508
-509735
-447092
-419836
-368351
-339049
-294648
-260382
-219475
-183171
-143877
-106443
-66757
-32765.5
-6657.04
-897423
-627897
-719553
-613104
-604882
-530312
-501015
-441487
-412511
-364175
-334408
-292190
-257790
-217778
-181143
-142440
-105345
-66436.8
-32913
-6668.88
-793968
-689688
-672851
-579308
-582716
-506903
-486952
-428614
-403605
-357250
-328429
-286944
-253612
-213897
-178224
-140168
-103863
-65488.9
-32545.8
-6427.05
-978241
-688282
-655570
-574071
-565452
-494367
-471028
-417885
-392292
-350983
-319722
-281169
-246377
-208849
-173589
-137125
-101257
-64039.3
-31695.7
-6223.88
-888343
-609984
-611093
-531476
-531784
-461951
-445650
-400453
-377014
-338609
-310493
-272467
-238828
-202145
-168694
-133308
-98791.2
-62390.3
-30976.1
-5979.85
-670806
-535531
-562322
-494942
-503722
-442509
-434647
-399391
-371634
-340576
-311272
-276885
-243730
-208627
-163925
-130186
-96686.8
-61475.2
-30580.2
-6106.69
-827491
-523141
-521356
-453216
-448751
-419338
-405606
-385145
-359388
-332115
-303662
-272570
-241242
-208824
-172434
-127461
-94882.4
-60428.5
-30231.6
-6082.15
-702705
-495989
-471357
-422286
-420821
-382244
-378247
-360974
-337789
-313482
-287859
-260290
-231405
-201638
-166547
-123565
-91410.5
-58069.2
-28971.5
-6000.69
-294449
-304309
-361725
-341358
-358549
-347320
-348766
-336423
-317595
-296850
-274045
-249044
-222136
-194227
-161199
-118905
-87792.6
-55568.4
-27755.3
-5762.36
-501943
-261973
-349515
-310052
-345281
-322820
-323348
-314285
-300510
-282989
-262447
-238962
-213565
-186983
-154868
-114600
-84385.2
-53261.9
-26634.3
-5337.54
-141954
-219456
-273314
-271868
-302031
-282924
-300461
-297220
-284613
-269667
-249210
-227319
-202241
-176424
-139868
-110789
-81804.5
-51319.4
-25604.4
-4848.77
-118382
-131006
-228163
-231089
-282429
-265723
-288177
-274953
-269848
-252271
-234294
-210729
-187638
-161480
-134387
-106924
-79311.9
-49809.3
-24792.9
-4273.63
-10107.6
-96162.7
-288124
-242053
-302560
-275698
-289244
-269997
-264844
-245114
-226822
-202965
-180294
-155082
-130033
-103530
-76912.5
-48471
-24119.6
-3847.02
-510394
-276339
-317063
-270752
-315987
-286492
-294473
-269193
-262382
-237538
-220590
-195478
-174499
-150004
-126382
-100748
-75337.7
-47535.2
-23686.9
-3489.33
-606575
-435437
-419354
-329261
-348597
-301562
-305538
-272503
-264259
-236689
-218894
-193243
-172247
-147679
-124611
-99524.7
-74606.3
-47186.5
-23443.9
-3416.96
-169068
-350435
-382952
-324731
-347848
-305064
-305239
-272371
-266017
-234990
-217528
-189486
-170234
-146297
-123848
-98858.3
-74157
-46795.4
-23551.2
-3518.5
-674771
-467864
-451470
-353872
-363002
-312330
-311380
-276109
-267273
-235112
-217782
-189242
-169690
-145772
-122970
-97963.6
-73454.2
-46624.2
-23746.4
-3838.25
-462725
-452210
-453843
-368513
-366074
-312265
-317338
-275199
-263031
-233865
-216167
-190394
-170154
-145269
-122365
-97257.6
-73293.5
-46715.1
-23723
-558.426
-294534
-301399
-283961
-313502
-294658
-301525
-283906
-267409
-277847
-258970
-287986
-267416
-277878
-259242
-279867
-286320
-270706
-297561
-279869
-286386
-270856
-255927
-265042
-247406
-274022
-256081
-265205
-247528
-389083
-385461
-370255
-407144
-389278
-385582
-370528
-362885
-364707
-348256
-381506
-363501
-365087
-348395
-336995
-342429
-323944
-356977
-336963
-342515
-323869
-309072
-317449
-297673
-329974
-309178
-317411
-297736
-278893
-290931
-270045
-301506
-278964
-291008
-270186
-247950
-262959
-241039
-270834
-248070
-263090
-241116
-216229
-233551
-210776
-239776
-216299
-233608
-210835
-184204
-203115
-179756
-207856
-184537
-203183
-180084
-364813
-359715
-347909
-377426
-365135
-359872
-347847
-343604
-343388
-329038
-359801
-343574
-343238
-328973
-319661
-323679
-306938
-337886
-319574
-323606
-306887
-293995
-301105
-283275
-313267
-294076
-301114
-283427
-267058
-277131
-258143
-287496
-267158
-277273
-258190
-238565
-251535
-231105
-260201
-238626
-251559
-231110
-208798
-224110
-202907
-231241
-208853
-224121
-202918
-178182
-195660
-173723
-201319
-178444
-195691
-173979
-341771
-332105
-323693
-351032
-341748
-332215
-323823
-323850
-320218
-309146
-337547
-323829
-320371
-309220
-302742
-304875
-290976
-318716
-302720
-304951
-291006
-279717
-285943
-270282
-297118
-279757
-286038
-270418
-255221
-264785
-247243
-273755
-255249
-264841
-247261
-228703
-241087
-222011
-248749
-228701
-241106
-222052
-201002
-215433
-195373
-221846
-201015
-215486
-195456
-172113
-188536
-167609
-193921
-172365
-188632
-167941
-318015
-309275
-304135
-324966
-318151
-308685
-303974
-304685
-300952
-293467
-315018
-304762
-301214
-293695
-287379
-289700
-278340
-300699
-287444
-289778
-278483
-267609
-273893
-260718
-282676
-267700
-274013
-260839
-244873
-254950
-238523
-262231
-244917
-255035
-238635
-219915
-232054
-214097
-238828
-219964
-232137
-214219
-193542
-207375
-188322
-213460
-193620
-207451
-188391
-166044
-181308
-161534
-186872
-166358
-181340
-161787
-389567
-385741
-370791
-405525
-390260
-386021
-371658
-364118
-365310
-348502
-382833
-365498
-365977
-348920
-337044
-342586
-323860
-358289
-337279
-342841
-323929
-309247
-317419
-297791
-330228
-309722
-317546
-298049
-278987
-291065
-270264
-301808
-279295
-291304
-270472
-248127
-263160
-241159
-271133
-248507
-263336
-241300
-216318
-233644
-210871
-240051
-216519
-233767
-210981
-184621
-203225
-180180
-208071
-185450
-203354
-180681
-365302
-359998
-347894
-378220
-365842
-360219
-348141
-343592
-343216
-328911
-360356
-343736
-343220
-328667
-319550
-323553
-306882
-337882
-319564
-323333
-307186
-294141
-301139
-283544
-313362
-294426
-302123
-284097
-267219
-277377
-258248
-287823
-267382
-277865
-257514
-238663
-251579
-231115
-260387
-238779
-251378
-231113
-208886
-224127
-202927
-231387
-208987
-224132
-202963
-178539
-195713
-174046
-201486
-179018
-195802
-174471
-341768
-332297
-323861
-350666
-341844
-331792
-323836
-323807
-320404
-309246
-337433
-323653
-320399
-309342
-302723
-304969
-291051
-318529
-302987
-305015
-291161
-279765
-286105
-270471
-298267
-279672
-286289
-270655
-255293
-264872
-247276
-273618
-254288
-265003
-247377
-228708
-241123
-222082
-248394
-228710
-241216
-222181
-201026
-215519
-195488
-221873
-201070
-215615
-195585
-172444
-188670
-168030
-194044
-172859
-188790
-168497
-318196
-308744
-303804
-325042
-318207
-308269
-303435
-304805
-301250
-293832
-315118
-304996
-301315
-294212
-287492
-289856
-278575
-300872
-287649
-290021
-278759
-267743
-274080
-260899
-282981
-267893
-274234
-261034
-244946
-255079
-238710
-262353
-245035
-255109
-238804
-219991
-232195
-214327
-238931
-220094
-232244
-214479
-193657
-207540
-188476
-213585
-193764
-207589
-188517
-166435
-181416
-161927
-187030
-166882
-181400
-162350
-390501
-386178
-371914
-405828
-390564
-386132
-372530
-365965
-366222
-349064
-384956
-366767
-366824
-349454
-337405
-342927
-323974
-359015
-337846
-343140
-324091
-309922
-317615
-298155
-330919
-310796
-317805
-298386
-279381
-291389
-270513
-302557
-279813
-291551
-270548
-248643
-263369
-241343
-271660
-249239
-263409
-241427
-216580
-233803
-211011
-240534
-216900
-233868
-211057
-185625
-203389
-180701
-208453
-186651
-203448
-181020
-366041
-360377
-348242
-378729
-366575
-360060
-348435
-343804
-343237
-328582
-360942
-344000
-343270
-328343
-319586
-323255
-307281
-337959
-319624
-323017
-307289
-303909
-307252
-309610
-313437
-303765
-307323
-309643
-277890
-281161
-284560
-287985
-277820
-281214
-284690
-238812
-251491
-231114
-260430
-238888
-251601
-231247
-209017
-224139
-202981
-231495
-209085
-224258
-203089
-179032
-195834
-174512
-201607
-179404
-195969
-175017
-341864
-331821
-323781
-350219
-341843
-331223
-323474
-323583
-320344
-309356
-337206
-323324
-320048
-309269
-302958
-305015
-291181
-318222
-302985
-304922
-291209
-288356
-291481
-294001
-295358
-288623
-288832
-293834
-264200
-268116
-270662
-273218
-264603
-267917
-270274
-228703
-241236
-222211
-248574
-228827
-241346
-222297
-201092
-215643
-195615
-221979
-201190
-215712
-195671
-172911
-188826
-168561
-194198
-173353
-188894
-168873
-318153
-308191
-303271
-324634
-317863
-307129
-302713
-305053
-301380
-294325
-314882
-305077
-301615
-294316
-287690
-290099
-278763
-300902
-287745
-290222
-278335
-267937
-274284
-261061
-283132
-268030
-274427
-260753
-245049
-255127
-238839
-262483
-245101
-255029
-238500
-220129
-232277
-214556
-239023
-220202
-232300
-214406
-193790
-207623
-188554
-213666
-193823
-207531
-188263
-166927
-181421
-162416
-187109
-167169
-181305
-162471
-390728
-386122
-372645
-405527
-390871
-385466
-372688
-366830
-366947
-349545
-385229
-366923
-367047
-349639
-337860
-343182
-324108
-359388
-338041
-343176
-324114
-311053
-317850
-298472
-332054
-311677
-317955
-298587
-279913
-291629
-270535
-303523
-280102
-291685
-270474
-249397
-263405
-241431
-272495
-249779
-263358
-241351
-216958
-233869
-211053
-241197
-217010
-233804
-210985
-186629
-203451
-180913
-208818
-186286
-203426
-180921
-366675
-359934
-348405
-378333
-366692
-359102
-348084
-344042
-343229
-328260
-361031
-344019
-342872
-327909
-319607
-322931
-307070
-337859
-319491
-322586
-306405
-294681
-301901
-284131
-313498
-294623
-300846
-283652
-267392
-277974
-257691
-287933
-267294
-277562
-258462
-238891
-251650
-231326
-260348
-238806
-251899
-231439
-209093
-224329
-203134
-231432
-209061
-224449
-203204
-179292
-196017
-174962
-201627
-179373
-196085
-175141
-341762
-331061
-323301
-349022
-341283
-330086
-322641
-323219
-319895
-309185
-336629
-322799
-319304
-308803
-302875
-304848
-291191
-317737
-302252
-304506
-291025
-279755
-286391
-270878
-296871
-279967
-286287
-270847
-254588
-265241
-247561
-274060
-255561
-265239
-247528
-228914
-241391
-222313
-249039
-229055
-241412
-222252
-201224
-215722
-195669
-222164
-201243
-215667
-195572
-173302
-188896
-168806
-194252
-173450
-188821
-168718
-317726
-307152
-302623
-323573
-317278
-306837
-302875
-305025
-301611
-294291
-314374
-304775
-301678
-293856
-287722
-290174
-278190
-300595
-287554
-289916
-277689
-268042
-274448
-260589
-283029
-268006
-274075
-259861
-245115
-255044
-238294
-262482
-245032
-254503
-237436
-220206
-232409
-214272
-239009
-220121
-232127
-213578
-193811
-207624
-188075
-213609
-193692
-207273
-187352
-167076
-181406
-162199
-187033
-166922
-181166
-161851
-390926
-385325
-372641
-406925
-391306
-385434
-372455
-366746
-367013
-349620
-385237
-366331
-366876
-349501
-338065
-343139
-324112
-359693
-338588
-343043
-324075
-311842
-317964
-298551
-332308
-311905
-317902
-298449
-280168
-291638
-270418
-304009
-280586
-291545
-270328
-249805
-263312
-241321
-272782
-249720
-263205
-241260
-216941
-233782
-210960
-241385
-216920
-233728
-210952
-185789
-203409
-180671
-208845
-185416
-203376
-180464
-366645
-358704
-347944
-378036
-366348
-357888
-347480
-343963
-342709
-327778
-360766
-343795
-342350
-327517
-319457
-322451
-306307
-337634
-319377
-322212
-306120
-294557
-300827
-283547
-313396
-294425
-300686
-283419
-267226
-277444
-258353
-287725
-267110
-277315
-258239
-238769
-251851
-231423
-260170
-238693
-251722
-231365
-209054
-224425
-203185
-231344
-209039
-224368
-203152
-179096
-196072
-174918
-201622
-178910
-196050
-174762
-341093
-329907
-322478
-348224
-340655
-329278
-322175
-322648
-319136
-308673
-336070
-322393
-318944
-308476
-302150
-304396
-290971
-317376
-301972
-304248
-290895
-279971
-286257
-270821
-296743
-279942
-286177
-270711
-255496
-265216
-247495
-273984
-255409
-265100
-247424
-229036
-241373
-222203
-248995
-228990
-241308
-222156
-201219
-215622
-195518
-222096
-201195
-215566
-195456
-173192
-188770
-168455
-194215
-173038
-188702
-168287
-317194
-307202
-303114
-322800
-316990
-307314
-302939
-304678
-301750
-293713
-314144
-304493
-301456
-293173
-287502
-290023
-277613
-300372
-287433
-289861
-277358
-267962
-273838
-259642
-282864
-267824
-273391
-259059
-244982
-254290
-237252
-262294
-244917
-253773
-236830
-220072
-231977
-213364
-238867
-220006
-231297
-212885
-193637
-207101
-187230
-213467
-193579
-206628
-186988
-166615
-181032
-161541
-186892
-166407
-180673
-161300
-297851
-301001
-291140
-294633
-297617
-301104
-291328
-300726
-305978
-295625
-299688
-300330
-305917
-295285
-294637
-287545
-290001
-284649
-294013
-288080
-290615
-303938
-313470
-307409
-309651
-307375
-309654
-303844
-297874
-294668
-301159
-291167
-301155
-291336
-297677
-300699
-299439
-305984
-295514
-305902
-295197
-300344
-294615
-284554
-287525
-289884
-288037
-290490
-294036
-270965
-274328
-264131
-267414
-270985
-274355
-264020
-274758
-281095
-271612
-278652
-274434
-281522
-272524
-267538
-261015
-265485
-259302
-267591
-260626
-266568
-277889
-288004
-281196
-284572
-281225
-284686
-277801
-270959
-267419
-274329
-264112
-274357
-264011
-270942
-274753
-278602
-281036
-271711
-281493
-272550
-274409
-267518
-259479
-260966
-265510
-260619
-266478
-267549
-282227
-285578
-276601
-279050
-282572
-284366
-276209
-284972
-290009
-281380
-286324
-284946
-290004
-281393
-279329
-273598
-276132
-270737
-279347
-273553
-276158
-288336
-295057
-291167
-294033
-288755
-293824
-288607
-282235
-279105
-285496
-276730
-284418
-276218
-282633
-284987
-286345
-290033
-281495
-290006
-281432
-284987
-279361
-270788
-273717
-276266
-273599
-276203
-279418
-257864
-262002
-252144
-256961
-258320
-262814
-251956
-261636
-267727
-259269
-265068
-261732
-267661
-259290
-255425
-249625
-253347
-247423
-255595
-249529
-253363
-264249
-273326
-268333
-270869
-268097
-270311
-264871
-257905
-257209
-262174
-252288
-262982
-252008
-258478
-261695
-265123
-267888
-259435
-267718
-259353
-261923
-255471
-247464
-249783
-253482
-249576
-253411
-255748
-414851
-418889
-403490
-433863
-413970
-418586
-403185
-384447
-387673
-373070
-398645
-384658
-387766
-373194
-355620
-359467
-346557
-370440
-355711
-359722
-346667
-326482
-332155
-318288
-340419
-326677
-332243
-318377
-292564
-302754
-287085
-309322
-292666
-302779
-287052
-258897
-270400
-254728
-275013
-259076
-270402
-254763
-225553
-238395
-222407
-241945
-225626
-238390
-222384
-191578
-205543
-188991
-207761
-191689
-205535
-189051
-415912
-406588
-404868
-418539
-415449
-406235
-404544
-395491
-401038
-399239
-407712
-400896
-399213
-395526
-369997
-375964
-375547
-381442
-376019
-375642
-369846
-345951
-350563
-351505
-356354
-350606
-351569
-345925
-319196
-323093
-325798
-329965
-323101
-325788
-319194
-290822
-294040
-297977
-301477
-294045
-297979
-290804
-261002
-263344
-268324
-270781
-263363
-268341
-260966
-230236
-232044
-237857
-239713
-232059
-237867
-230209
-198766
-200057
-206462
-207801
-200080
-206474
-198738
-154570
-168561
-152206
-171107
-154834
-168802
-152386
-387301
-374547
-376739
-388997
-387599
-374605
-377007
-369195
-374008
-370666
-377167
-374043
-370698
-369188
-349368
-354474
-354184
-359588
-354483
-354201
-349382
-327645
-332133
-333519
-337935
-332074
-333460
-327670
-303037
-306917
-309224
-313286
-306914
-309220
-303037
-277457
-280679
-283964
-287407
-280698
-283983
-277434
-250304
-253024
-257246
-260111
-253045
-257262
-250293
-221547
-223778
-228807
-231193
-223785
-228814
-221541
-191917
-193657
-199336
-201258
-193675
-199349
-191900
-149854
-163054
-147384
-165862
-149993
-163186
-147515
-356480
-343790
-344382
-358306
-355761
-342466
-343898
-343225
-349320
-345155
-351385
-349239
-345235
-343250
-327747
-333351
-331615
-337565
-333372
-331651
-327716
-309081
-313592
-313960
-318745
-313585
-313971
-309072
-287731
-291405
-293243
-297095
-291412
-293241
-287723
-264659
-267670
-270582
-273721
-267669
-270587
-264659
-239619
-242176
-246070
-248743
-242174
-246067
-239624
-212862
-214954
-219616
-221827
-214965
-219618
-212848
-185095
-186734
-192109
-193897
-186744
-192115
-185082
-144871
-157451
-142244
-160373
-144995
-157596
-142359
-327495
-307282
-316937
-326839
-328114
-307390
-316851
-317751
-322976
-317681
-324867
-323067
-317786
-317680