/*--------------------------------*- C++ -*----------------------------------*\
  =========                 |
  \\      /  F ield         | OpenFOAM: The Open Source CFD Toolbox
   \\    /   O peration     | Website:  https://openfoam.org
    \\  /    A nd           | Version:  10
     \\/     M anipulation  |
\*---------------------------------------------------------------------------*/
FoamFile
{
    format      ascii;
    class       surfaceScalarField;
    location    "4.6";
    object      phi_0;
}
// * * * * * * * * * * * * * * * * * * * * * * * * * * * * * * * * * * * * * //

dimensions      [0 3 -1 0 0 0 0];

internalField   nonuniform List<scalar> 
38556
(
1097.75
-1573.1
494.52
701.668
-7.85508
403.937
500.339
543.063
-341.734
432.35
392.092
-324.103
542.919
249.877
-360.447
579.287
131.582
-167.951
637.713
56.3914
-114.817
699.732
7.63721
-69.6564
728.258
-28.4406
-0.0852803
769.518
-46.1571
4.89692
791.159
-59.7383
38.0975
825.347
-59.3926
25.2041
850.426
-51.9296
26.8514
880.017
-36.412
6.82059
899.81
-24.6046
4.81148
913.254
-18.1297
4.68587
922.448
-14.8173
5.62284
937.45
-18.3122
3.30997
964.217
-31.5658
4.79946
-35.6119
8.29232
883.644
-2353.89
1892.41
661.33
196.868
17.5901
602.528
516.931
84.9343
635.316
248.699
110.606
625.507
185.523
74.1626
659.117
81.5965
16.3754
684.437
-1.04247
32.1141
724.016
-31.0009
-0.940812
704.953
-61.7168
52.3392
682.537
-58.0685
34.3278
627.41
-67.4961
62.885
595.102
-63.7311
36.646
580.548
-68.1422
30.7666
587.408
-63.1826
19.9106
602.295
-60.9972
21.5052
624.559
-54.2065
13.8126
645.384
-47.2802
11.6384
660.899
-38.3145
4.48675
668.269
-31.4443
-7.49083
-20.4171
-26.3729
-174.183
-1299.39
2259.86
-9.29917
501.317
-469.332
316.172
417.588
-226.128
321.572
220.915
22.3824
428.427
111.23
-32.5612
436.867
87.6864
-14.5299
486.389
-51.7594
1.19543
510.872
-36.9789
-18.5055
516.67
-89.1777
21.6633
517.938
-64.3887
5.05231
505.231
-87.4201
32.6312
499.269
-73.9462
16.1774
500.834
-89.8344
20.1263
509.961
-82.0728
9.76347
523.398
-86.4813
12.0471
541.423
-77.4817
5.24981
560.328
-68.9912
2.80619
576.727
-49.7452
-4.96828
590.992
-29.7133
-15.9965
-7.73585
-35.022
-1132.49
826.4
558.41
-301.706
295.349
-624.817
288.751
194.001
-366.871
315.258
89.6189
104.79
403.38
-7.60775
30.7151
382.258
54.0174
54.7913
385.038
-89.6275
35.0878
355.535
-9.41868
1.94329
368.039
-112.048
10.3662
373.728
-71.553
1.47471
399.649
-127.245
13.9039
421.11
-110.476
15.0696
446.506
-135.483
20.2518
468.703
-122.633
18.3635
489.445
-124.756
17.5327
507.819
-111.006
15.1501
526.209
-97.0427
9.66157
544.993
-69.0154
0.485689
566.76
-40.9319
-10.5479
-6.87143
-30.5121
-222.021
866.486
500.42
41.8156
-249.552
281.065
377.221
-263.195
121.791
462.329
-218.493
223.003
504.656
-212.196
162.261
501.329
-23.181
80.5255
458.933
-110.992
63.7617
411.19
38.5746
-0.250476
399.782
-96.1774
-4.46324
399.63
-58.1129
-13.2874
429.883
-156.748
-0.749535
452.846
-136.763
3.32289
477.95
-174.441
13.8549
495.226
-153.352
13.4427
506.054
-154.097
18.5127
513.173
-133.041
14.9159
515.97
-108.489
8.64987
520.448
-74.8692
1.37541
540.399
-49.4732
-11.41
-12.0806
-30.393
645.918
140.268
-2898.21
515.258
-222.291
103.399
580.269
-278.913
-49.2924
738.016
-230.972
-145.268
732.983
-120.34
-86.8228
739.517
88.2585
-117.973
698.955
-76.8651
6.43449
616.464
136.939
-15.8736
538.715
-56.6842
38.2557
498.279
-36.1624
18.4854
496.077
-164.003
9.45692
504.93
-147.62
2.0047
514.893
-184.707
0.302301
522.193
-160.599
-0.0523924
523.875
-158.492
2.71265
516.213
-133.471
8.09274
499.693
-99.5562
7.58638
487.337
-63.6791
1.16634
493.897
-43.1337
-12.8999
-10.1677
-32.4598
1239.09
-1771.32
-4648.82
617.289
-142.28
541.79
521.512
-401.16
218.025
491.815
-211.869
10.5934
542.78
-97.4425
-73.8623
402.134
282.766
-53.8618
402.36
11.3102
-7.3529
-43.4902
6.4262
-43.9846
359.483
27.6843
10.8975
57.1445
30.2266
53.8643
388.101
-8.15845
26.6652
-42.2286
-18.5352
-43.0458
417.578
-30.2777
21.462
-13.575
-30.0789
-13.1699
465.101
-52.0856
9.87625
-61.6237
-50.4238
-57.2688
493.501
-50.8342
1.68371
-42.9214
-46.2402
-37.7085
513.552
-53.2293
0.185229
-53.7678
-48.9311
-49.0146
527.005
-45.7845
-8.9266
-41.6179
-41.2365
-36.4862
532.229
-161.024
-2.6923
527.015
-126.59
-1.66627
506.072
-85.7962
7.18231
486.048
-51.0521
7.397
480.763
-33.772
-4.07672
-3.68618
-27.2687
1244.98
-922.838
55.1803
1102.2
48.1414
-47.6456
772.65
-165.931
94.325
694.017
-147.372
14.1366
531.927
-45.7901
110.437
131.252
48.2689
-20.4519
134.834
126.51
124.809
110.018
49.1594
110.294
113.41
26.1449
3.00734
-90.1466
91.5758
25.0753
1.1798
-110.817
102.786
3.53319
-3.66105
-102.711
112.196
-36.3439
-3.41967
-133.652
136.335
-54.4592
-0.309776
-136.254
140.01
-55.6393
1.04887
-146.952
145.666
-52.873
0.929356
-144.174
144.106
-46.8737
1.15688
559.375
-45.1808
5.78595
-145.029
-147.313
-134.42
-136.998
-42.3862
-39.3104
-35.5475
559.27
-137.355
10.8697
540.697
-76.7875
9.56417
524.196
-41.3942
6.84336
511.154
-21.0717
0.340902
5.44472
-22.7556
1593.89
-1752.98
1036.47
1134.81
-53.4624
560.684
713.897
82.8683
172.114
479.219
43.2566
44.0493
115.275
36.4903
65.9548
44.1931
114.47
57.0455
115.014
47.5333
0.996536
-8.41708
-33.98
28.0239
11.5749
2.79827
-26.7868
-4.40777
26.9049
3.48254
0.807156
-33.514
-0.951133
33.7736
0.395397
0.296139
-38.6322
11.3109
38.8958
-11.4128
-0.161721
-40.8137
14.6855
40.2991
-14.4111
0.240099
-39.3852
15.0181
39.0915
-14.9453
0.220901
-39.3623
14.2168
39.1646
-14.3502
0.33101
-39.363
12.9643
39.443
-13.3973
0.353044
-40.9705
163.35
-50.6695
3.51952
-40.7684
-39.9464
-39.6955
643.201
-146.952
8.95538
-164.207
-166.333
-154.291
-157.729
628.333
-82.7598
20.8404
600.971
-34.1605
20.129
571.11
-3.10337
11.8926
19.6593
-12.5952
-329.628
-415.716
1218.76
90.4218
-241.536
-231.976
505.288
-6.30614
-325.692
355.437
71.7225
121.385
57.1518
6.46473
121.054
77.7001
54.9261
74.6309
-26.4274
88.4631
-4.79416
-0.089787
-5.49169
-28.8684
31.2279
1.65543
1.47673
3.89725
-33.5549
34.2327
-5.8592
1.28418
8.01479
-37.6128
38.6945
-10.519
1.42257
12.4928
-40.8694
40.8085
-13.1242
0.692295
14.0882
-39.0657
38.129
-13.4134
0.261916
15.0573
-36.8345
36.9147
-15.483
0.345482
15.2029
-38.1913
38.6608
-16.2392
0.566882
15.26
-40.2418
40.8265
-16.2863
0.441523
-42.0641
56.232
168.407
-58.4645
-1.4978
-40.8432
-41.3145
-40.455
665.05
-154.409
-19.3345
-168.134
-156.01
-161.098
-153.016
688.562
-93.8848
-12.3878
698.61
-47.6292
3.4207
672.628
13.5276
9.35111
39.3955
-11.015
1356.93
331.695
-1681.79
1420.53
507.826
-812.957
1450.44
484.845
-521.063
1325.95
366.997
-170.784
182.665
333.713
170.649
198.457
218.773
228.159
14.5116
151.718
11.0885
5.34603
7.50581
-32.9408
33.469
-8.23662
0.202605
12.7272
-36.5185
37.3405
-12.8221
-0.727102
17.0054
-39.3431
39.9687
-18.0982
0.467127
13.1093
-40.5582
39.9637
-12.9958
0.480889
12.1607
-38.0994
37.8684
-11.8258
-0.103911
16.5977
-37.0624
36.6681
-16.3409
0.137571
18.1469
-34.6095
34.0802
-18.0259
0.408301
17.8319
-33.911
34.0195
-18.1001
0.159696
-34.4451
60.1946
138.767
-61.1847
-2.11805
-33.8294
-34.1904
-33.1944
573.582
-155.962
-31.2748
-139.674
-135.186
-136.842
-129.052
618.966
-101.167
-38.1017
667.287
-64.0749
-31.8758
682.132
17.0752
-18.3926
55.7845
-27.2974
-936.166
1052.89
-1116.29
-132.788
681.458
-977.01
559.323
538.673
-745.939
553.81
492.865
-120.354
111.95
360.902
55.0544
122.512
111.266
125.837
-43.4463
127.801
44.4505
-16.8544
2.28343
-36.3183
37.4906
-2.20943
-1.24633
10.8081
-38.2639
38.2374
-9.9818
-0.79985
17.9457
-36.6806
36.0983
-17.3917
0.0282146
11.4778
-33.5852
32.967
-10.559
-0.300642
10.7298
-31.7629
31.5134
-10.6432
0.162821
15.3288
-31.6542
31.8794
-15.6142
0.0601997
18.3843
-32.7181
33.0124
-18.5831
-0.0954908
18.5981
-33.5352
33.6232
-18.5992
-0.0869335
-33.8135
61.2584
134.444
-60.6486
-1.61238
-34.2168
-32.5676
-32.8436
529.316
-153.441
-13.5227
-133.042
-133.216
-125.659
-126.397
544.104
-94.4806
-21.4741
576.996
-55.2947
-41.673
609.201
24.1453
-39.275
70.2977
-42.1307
-411.142
1115.74
-1038.1
271.025
588.041
-588.75
684.087
613.831
-488.219
743.901
494.029
-60.9777
774.504
318.683
11.6174
182.869
18.8124
-7.59225
-31.6168
41.732
-24.7891
50.6311
188.844
173.056
182.557
-1.35566
186.996
6.3706
-5.47721
-1.51086
-1.16276
-0.991213
5.33472
-185.516
179.452
-19.8741
-3.15284
9.69781
4.96707
9.09169
13.2485
-169.142
149.785
-41.1261
8.74939
13.4549
12.2872
12.7431
9.56304
-132.362
129.436
-40.3861
2.36718
10.8906
9.51017
10.9814
12.0781
-136.803
142.573
-56.1801
-1.27523
13.7063
12.1644
13.7363
16.1237
-144.36
147.454
-67.8888
-1.93817
17.4538
15.9616
17.1938
18.2087
-150.54
150.366
-71.7158
-1.04384
18.7358
17.7587
18.2304
17.7471
-148.071
147.046
-69.1735
-0.162245
17.9836
17.1817
17.449
541.005
-184.692
11.6866
55.4003
48.5028
48.1438
43.3524
-144.033
-147.059
-132.243
-140.064
526.377
-147.643
8.83017
514.345
-75.2212
-7.22777
520.987
-39.0633
-22.8731
543.499
31.6371
-30.0035
75.5653
-39.111
-169.164
3289.32
-1371.2
278.895
735.661
-595.68
666.849
669.242
-443.365
735.39
430.729
-5.24062
830.967
224.327
-1.22272
780.441
81.8761
-12.5372
766.898
84.4612
-10.6987
-14.4548
-19.587
-11.2018
-14.9758
744.32
-84.5853
-31.5037
20.2727
44.3552
27.3748
46.6641
746.949
-96.7048
-18.389
30.0918
26.951
28.8437
26.5787
755.341
-185.712
-17.5554
42.1345
55.5261
42.4497
54.7655
736.769
-192.369
-1.06136
55.3395
54.3568
51.5001
50.8055
706.001
-246.024
12.7985
66.2347
69.9853
62.1642
65.6087
656.308
-216.111
18.9007
65.857
62.7491
60.6516
57.6461
605.802
-210.765
17.7797
64.4495
61.954
59.3786
57.7093
565.681
-150.757
6.18644
531.798
-116.657
2.89617
508.342
-50.7932
-0.971212
497.419
-22.7685
-5.37205
510.854
29.7365
-11.5347
64.4357
-24.8237
-987.25
2580.77
415.726
-396.265
9.31035
135.366
456.245
72.216
-255.484
615.02
240.648
31.3065
779.708
191.394
-131.755
853.762
138.642
-130.819
923.555
125.014
-110.346
934.965
11.3509
-107.346
930.889
-29.7102
-62.9187
914.201
-126.823
-42.2012
844.341
-128.457
5.94828
749.64
-176.509
25.1865
648.209
-143.632
28.9524
574.455
-146.119
9.1073
532.604
-102.936
-5.9705
507.137
-82.848
-8.34216
496.879
-34.257
-6.27801
492.686
-14.413
-4.16172
505.759
19.5954
-2.93247
42.6833
-15.0699
458.803
268.516
3471
470.571
-249.927
247.469
927.93
-157.821
-227.322
1056.04
52.0648
60.4756
1061.53
208.313
-22.4152
1080.49
193.517
-73.8301
1041.05
212.114
-47.664
1022.87
101.262
-71.7276
988.406
5.09542
-0.343256
955.566
-106.706
12.7228
849.004
-76.3104
54.4157
715.365
-99.1697
56.299
595.473
-72.388
48.6473
527.157
-92.8474
15.0454
495.927
-74.3852
2.67964
477.619
-61.9717
-2.56902
474.028
-26.6566
-4.00862
475.184
-11.91
-3.65898
495.748
3.63046
-4.59915
17.2263
-16.9943
208.176
-1300.57
2538.11
203.878
-673.707
428.078
587.889
-625.169
83.336
852.944
-358.01
145.02
1031.17
-140.916
171
1142.98
-3.23939
84.9468
1098.59
154.649
101.859
1030.16
118.122
51.5655
861.952
61.7436
111.564
729.326
-49.0019
74.9226
631.228
-39.2444
61.0315
560.932
-62.3532
33.4801
516.672
-50.7076
22.579
487.091
-71.8857
8.61986
467.385
-64.9001
10.2205
451.128
-53.6795
7.96444
443.502
-23.6849
4.65503
438.737
-4.37779
-2.76723
451.284
-0.0341014
-8.88197
8.21718
-27.5265
692.993
-853.374
599.272
429.465
-232.046
-178.133
834.261
-455.964
-574.001
1032.46
-407.746
-148.468
1174.77
-310.335
27.1129
1372.57
-216.21
15.1697
1427.6
24.1379
75.4801
1389.84
70.9978
84.8853
1100.96
157.64
192.986
826.917
94.54
130.5
657.57
71.3435
58.7592
581.234
16.6257
-2.64313
551.738
-10.6856
-10.5253
532.12
-47.9778
-4.29024
506.753
-53.2209
13.6878
470.182
-40.4396
23.3307
435.054
-7.3382
18.7818
416.381
8.25223
6.04248
426.903
-9.76405
-0.791624
-2.77026
-23.2703
-466.9
-1231.33
-2264.87
207.061
-159.662
-746.345
651.011
-299.158
-600.756
687.779
-302.659
-141.855
684.793
-261.851
-45.4975
760.779
-191.459
-100.737
772.811
-26.6436
38.7495
784.485
13.0676
46.256
725.242
105.012
111.872
685.783
95.6608
38.3383
661.785
91.5749
3.7668
672.818
55.9532
-50.3599
704.208
7.32485
-49.4008
732.304
-40.5316
-35.542
730.897
-57.4084
5.59444
691.365
-39.1515
38.2433
618.198
-6.76974
72.5993
551.304
32.989
42.1567
506.56
38.2973
-3.31693
37.5639
-37.0679
659.116
-2168.65
1499.45
-999.999
1491.66
-291.362
1151.54
37.4568
625.078
264.613
545.859
-112.241
598.426
-79.2101
702.919
-91.4253
816.13
-8.20028
960.766
-48.9753
1105.95
-53.6129
1247.4
-85.4925
1316.32
-61.5937
1312.61
-36.8197
1272.11
-16.9157
1262.31
-29.3478
1260.44
-4.89482
1247.27
46.1555
1192.73
92.8374
65.4
548.266
373.607
702.285
659.711
33.4395
259.053
628.41
263.655
-574.089
575.563
227.76
-499.016
512.082
181.265
-478.23
490.487
68.0724
-214.428
503.926
4.47965
-132.736
540.763
-32.7001
-73.7934
578.219
-57.093
19.5525
626.766
-62.1137
18.463
667.231
-65.5618
63.1944
711.049
-59.0119
40.3979
744.126
-50.4298
44.2049
773.444
-40.9129
18.4155
793.902
-33.4968
17.8501
811.637
-27.683
14.6337
826.346
-24.3241
15.2375
842.677
-23.889
10.8679
868.454
-28.434
7.45631
-27.4936
7.30014
71.9082
-475.11
1957.36
154.17
142.162
-173.394
283.204
353.603
-134.047
336.557
167.23
117.783
409.997
130.687
51.301
426.86
40.7812
26.8031
461.004
-40.6113
43.0616
474.25
-45.0206
-1.86623
477.394
-69.987
62.0896
472.271
-52.4469
29.7837
466.628
-57.3539
60.3199
466.442
-48.264
26.084
474.175
-51.4095
24.0134
487.546
-45.9077
11.534
504.46
-44.5211
15.6154
521.993
-38.7403
7.33658
536.845
-32.3624
4.82497
546.495
-26.1467
-2.90547
548.013
-19.9226
-17.5204
-10.9762
-51.6333
-181.619
-700.95
1695.92
-63.1216
261.428
-707.095
175.09
339.491
-450.226
209.534
169.371
-14.2031
306.043
65.475
-63.8585
288.909
40.6559
2.7298
338.317
-84.8483
-3.976
331.732
-45.8669
-11.0744
356.188
-94.281
21.5011
355.533
-53.2605
6.5215
372.26
-73.8609
32.4111
378.486
-54.3216
16.0086
394.723
-67.8712
20.3515
407.215
-57.9003
9.26409
422.931
-61.3021
13.1117
437.111
-52.1248
4.45393
449.778
-43.6305
1.40819
457.048
-31.4963
-6.88876
459.551
-15.9422
-22.4802
-3.50389
-54.8001
356.059
-482.16
2898.39
271.907
422.985
-702.223
200.099
355.835
-311.406
245.443
153.389
75.4287
322.469
32.7751
-13.6109
298.883
60.2958
58.7372
323.658
-100.762
26.2266
296.561
-14.1424
-2.68428
317.386
-113.327
8.58704
312.481
-55.4193
8.53872
334.204
-104.07
22.3902
345.364
-74.162
23.7497
365.933
-95.489
27.3006
379.99
-77.1772
23.5834
396.252
-79.3312
19.2997
409.446
-65.4119
15.2426
421.005
-54.796
9.2684
428.62
-38.5876
-0.0382264
435.04
-17.6213
-15.2892
-0.419154
-50.3337
-1060.55
189.553
1330.68
-388.172
45.2783
-13.602
94.8293
80.7273
-86.1036
244.741
-25.1647
251.646
370.494
-79.7009
148.984
347.304
72.4617
91.5493
352.891
-100.859
58.272
307.738
35.7505
-4.9907
321.177
-120.86
-10.3683
313.303
-55.1395
-5.69348
336.858
-139.124
10.7491
345.292
-94.7679
15.495
367.228
-126.094
22.5237
379.006
-95.5945
20.0819
391.653
-96.2027
22.7379
399.422
-72.6848
14.4188
404.834
-59.3199
7.76238
407.895
-39.7655
-0.508408
414.813
-20.9051
-15.0441
-2.32478
-48.4534
-448.969
-922.466
-484.921
55.3991
-146.049
-209.641
356.172
-8.47369
-260.865
462.199
-94.1495
-182.31
490.968
-38.036
-157.257
476.049
106.784
-137.377
474.614
-115.217
22.2272
408.234
104.813
-18.5554
382.657
-101.382
44.3547
366.598
-42.2341
21.6387
371.87
-150.334
15.3952
377.886
-106.26
7.48061
384.947
-137.726
4.87277
389
-103.204
3.50407
392.312
-102.372
5.56991
392.404
-74.2087
9.52453
389.045
-55.07
6.69626
384.809
-34.4975
0.134211
386.13
-19.6068
-15.5197
-1.66038
-50.0456
-1383.31
-3502.85
-5383.19
-607.854
-627.511
247.797
248.074
-424.267
-222.11
327.146
-169.532
6.90422
418.29
-73.958
-129.085
284.858
254.954
-68.5982
300.18
-13.6453
9.38953
-53.6437
-24.4203
-55.572
259.97
27.3299
14.2491
45.135
27.6585
41.5481
313.33
-29.4619
29.8719
-47.4932
-33.743
-47.2515
335.708
-28.8916
33.8596
-11.768
-26.6156
-9.73428
364.005
-46.7502
21.5346
-51.3017
-44.7428
-47.4935
376.563
-38.8657
11.4362
-29.2801
-35.2288
-25.1965
391.516
-41.5595
4.93686
-40.5873
-38.4825
-36.8017
399.176
-33.1263
-5.93977
-27.5866
-29.9773
-23.1604
400.82
-106.865
0.156528
398.066
-73.0989
-0.0221874
390.62
-47.9907
7.54926
381.749
-25.2857
7.05605
377.846
-13.3321
-6.44867
3.17961
-44.4218
810.877
-2166.58
-2462.13
396.382
-517.551
256.89
346.179
-375.836
96.0974
349.243
-175.796
17.3363
392.108
-53.3842
46.9991
98.5186
49.3091
-29.215
91.6157
93.2035
83.8165
99.3069
47.7623
92.292
-10.9602
83.9935
6.89405
4.94599
-5.40528
-57.313
71.1521
16.6445
2.25157
3.19548
-93.782
82.8873
-20.042
-1.72063
2.9329
-88.1852
89.6748
-35.315
2.00088
0.258724
-107.628
106.492
-46.553
0.680061
-0.314494
-107.698
109.64
-42.1965
1.70275
0.0199092
-117.233
114.601
-40.1023
1.15398
0.00652747
-114.589
113.217
-33.2961
1.53532
439.649
-29.9563
10.4021
-115.382
-118.288
-106.376
-109.035
-25.6828
-26.0698
-20.34
438.666
-75.6984
14.4526
420.903
-31.9629
11.2991
406.732
-11.8981
7.62729
395.972
-0.466636
-1.76463
11.4376
-40.066
921.757
-1385.8
2176.07
557.083
-192.111
599.919
439.927
-76.0867
-10.4797
307.04
-21.4318
22.5719
92.2089
6.11009
30.1157
50.9183
86.3942
53.8636
-1.27599
89.6883
48.8948
4.21086
-2.14702
-3.54396
-28.9426
25.0342
8.34839
1.25096
-2.54565
-22.4815
-1.08415
22.1044
1.49478
2.51211
-0.711666
-29.0126
6.11191
28.4085
-5.05359
0.257448
0.184201
-30.1
11.3419
30.1026
-11.2934
-0.235395
-0.325831
-32.5241
12.7056
32.0915
-12.3388
0.391582
-0.188412
-31.8252
11.9874
31.6135
-11.9245
0.337306
-0.410572
-32.6269
11.0371
32.429
-11.0298
0.601255
-0.626642
-32.9431
9.84724
32.893
-10.0822
0.911617
-34.318
-4.28644
133.745
-31.3079
6.95465
-34.4015
-33.1151
-33.2275
505.495
-65.2228
15.1744
-133.856
-138.199
-123.243
-126.892
485.806
-15.2668
23.8334
461.06
9.98013
22.9968
438.949
22.3499
11.1872
26.9734
-29.3988
-844.385
-580.658
438.654
-213.133
-413.401
-641.937
41.9829
-62.367
-594.528
17.2177
42.6523
82.0664
35.834
-62.7161
54.3607
48.6949
30.2313
37.9769
-5.89053
-30.9491
64.1672
-1.20128
9.70778
-6.16691
-5.50015
-25.2321
27.6902
2.35896
6.85005
-4.59345
2.24545
-29.7421
30.6162
-3.82119
5.29501
-4.00322
7.34322
-33.7888
34.4566
-8.35163
4.34377
-2.00823
10.9203
-34.8743
34.5244
-10.7196
2.15737
-0.987391
11.9423
-33.2423
32.9053
-11.7087
1.09085
-0.813047
12.486
-32.7033
32.9576
-12.8142
0.886837
-1.19453
12.2045
-34.2589
34.7341
-12.7484
1.2633
-0.767279
11.5931
-36.1414
36.5989
-12.0579
0.774636
-37.2355
1.84716
34.6814
147.097
-36.2292
-1.1317
-36.963
-36.1094
-35.9565
549.415
-67.9036
-16.6337
-144.837
-139.991
-133.694
-130.912
545.108
-14.7273
-8.62006
530.631
22.0583
5.81895
501.522
51.1067
9.70343
50.9591
-29.0202
1610.5
110.73
-4443.36
1354.39
222.861
-1193.11
868.483
382.281
-479.798
612.908
259.862
-132.418
121.474
116.812
141.495
125.857
107.15
108.052
-11.7102
19.9724
115.149
-6.91372
4.97651
-1.93872
5.57533
-29.3563
30.635
-6.85991
1.94462
-0.49374
9.06108
-31.2997
31.7128
-10.1395
1.15914
-1.99558
11.5287
-33.3013
33.6811
-12.2729
2.36
-1.99714
10.0893
-33.3147
32.6282
-9.95521
2.54958
0.101822
11.6025
-31.243
31.0804
-11.1908
-0.35083
-0.247224
13.6044
-30.937
30.9314
-13.4384
0.0868858
-0.619397
13.7843
-30.9439
31.0204
-13.793
0.5517
-0.138097
12.6268
-31.4162
31.6648
-12.725
-0.0123027
-32.0855
4.62082
37.704
127.475
-38.7693
-6.43446
-30.858
-31.4347
-30.2174
502.969
-79.5729
-43.2437
-127.259
-118.98
-120.42
-112.672
520.389
-28.47
-41.7787
524.385
14.4316
-28.2461
512.385
62.4949
-17.7809
65.2878
-46.4905
-471.617
857.646
857.79
-63.9025
434.287
-1596.15
181.371
362.81
-971.741
197.529
273.404
-150.054
74.5185
58.4825
-8.91423
99.2505
60.5585
85.499
18.2911
-1.43846
93.6965
-18.9239
-17.1069
2.07407
7.84704
-31.1116
32.5942
-9.13602
-2.26768
0.676746
10.9111
-30.7072
30.1182
-10.5698
-0.428984
-1.06299
12.9614
-28.7048
28.2801
-12.6252
1.15149
0.00427347
9.23573
-26.8179
26.6104
-9.16719
0.134618
-0.214994
10.594
-26.4019
26.4209
-10.5993
0.201334
0.0850194
13.0159
-26.4358
26.5609
-13.0633
-0.162686
0.322779
13.909
-26.9759
27.1453
-13.9652
-0.435947
0.274347
12.8852
-27.5822
27.7753
-12.9272
-0.425432
-28.2451
2.94823
39.1552
112.854
-39.5781
-4.62407
-28.0101
-27.403
-27.0974
443.954
-80.2417
-25.4009
-112.228
-110.097
-105.481
-103.601
458.663
-32.4972
-32.1563
468.657
6.05997
-43.295
472.106
56.9494
-37.1791
65.5986
-56.6608
152.879
792.288
-1342.03
376.184
442.663
-820.43
475.803
376.873
-601.902
516.753
226.391
-54.9142
587.047
24.5505
-24.7448
123.933
-172.331
-15.3582
36.0312
93.8988
50.6398
101.96
132.592
109.892
118.198
6.39002
5.99602
124.821
-24.0224
-8.4015
5.78753
7.04695
6.31506
7.93968
-1.24513
-111.014
109.433
-37.2678
2.81477
10.7147
8.03307
10.5916
9.96586
-11.759
-111.912
107.416
-35.9279
11.8272
10.7054
9.40938
10.2752
8.83174
-2.80843
-101.624
103.65
-40.3436
2.57591
10.5858
8.65284
10.4801
11.0965
2.26262
-110.282
112.369
-48.8687
-2.40282
12.56
10.9109
12.3546
13.2857
2.34909
-111.499
113.095
-56.3916
-2.41072
14.5278
12.9036
14.1395
13.787
0.561499
-114.782
114.513
-55.1561
-0.462766
14.4225
13.2328
13.8841
12.5004
-1.77529
-112.5
113.096
-50.5752
1.97866
13.0198
11.8479
12.4074
415.796
-106.924
8.29301
34.8974
31.86
29.8653
28.4898
-111.161
-113.425
-102.114
-103.891
417.245
-75.1693
2.30897
415.319
-22.3533
-15.4453
420.003
3.53995
-25.0369
428.779
48.3371
-30.1673
59.6951
-53.2569
510.073
2007.51
1433.96
455.806
523.4
-622.149
580.52
395.004
-586.211
630.298
168.918
2.45471
677.699
-1.89435
-22.1797
579.799
-52.8031
-34.1646
558.529
4.4045
-13.4774
10.605
-1.4206
11.0634
-0.603439
519.349
-140.279
-38.4551
38.8734
52.7583
41.6501
53.1291
518.677
-114.885
-11.4493
28.7015
26.7998
26.8287
26.2864
516.966
-195.24
-14.3707
43.122
54.4338
42.653
53.5576
506.844
-179.82
6.62822
46.7689
46.7132
44.4052
44.3652
492.722
-212.252
17.0078
55.4626
58.6192
52.5839
55.4988
467.729
-169.046
23.9949
50.5088
48.0067
46.3344
44.0957
438.74
-149.349
20.5417
46.7754
45.601
42.0686
41.1313
418.136
-85.7802
5.6472
403.413
-57.4794
-0.0714409
396.22
-12.2235
-3.90723
396.39
5.17022
-7.17251
408.21
38.2812
-13.2988
48.6733
-38.8121
-844.186
1455.81
-314.482
9.82897
-22.5359
-172.714
540.74
-49.9929
-341.398
750.685
35.8083
-45.5291
727.947
29.0293
-139.94
696.812
-5.11906
-147.368
675.9
19.949
-104.979
629.911
-87.056
-114.58
607.705
-101.228
-54.3695
587.622
-176.069
-41.2889
555.654
-151
9.09688
515.326
-170.676
23.9382
465.675
-117.299
26.8552
423.674
-105.672
7.43109
400.955
-61.4759
-7.55545
387.872
-43.6603
-9.07889
385.406
-9.30497
-6.73001
388.012
2.42197
-4.01934
402.368
25.4983
-4.50536
33.664
-28.3907
1219.13
1095.93
4952.02
914.724
-48.1992
577.54
921.066
-39.1614
-244.495
1007.63
80.5437
-70.8212
898.157
171.956
-55.871
836.138
94.8384
-111.768
744.694
100.314
-36.5857
691.884
-32.0075
-73.9663
653.309
-75.8496
12.854
624.917
-148.719
13.7646
575.476
-103.962
56.8187
514.253
-103.692
50.5384
452.164
-55.4359
48.8734
409.667
-61.4689
13.34
390.22
-39.5733
0.22425
378.954
-29.9591
-5.00444
377.212
-7.22842
-4.34298
377.922
0.3073
-2.2546
393.178
11.7535
-6.11015
16.572
-30.1859
316.61
-130.658
382.389
193.725
-220.901
723.666
492.705
-391.622
136.817
644.081
-124.735
198.922
771.312
40.1724
175.552
815.778
92.1944
43.1246
773.877
136.269
107.805
709.967
52.9171
30.5511
620.906
7.78033
116.995
545.687
-69.1048
70.5277
480.649
-44.0395
66.1463
431.693
-51.5042
30.248
403.545
-27.1905
22.4821
383.313
-37.1198
4.50268
372.747
-26.1454
7.35876
365.046
-19.0997
4.80578
362.951
-3.56252
3.0838
359.225
5.94148
-4.67509
366.549
6.11436
-10.5673
8.22022
-39.9836
2303.39
823.724
-3169.6
1794.53
201.351
-91.5229
1057.69
-178.931
-49.8588
1003.99
-136.799
-82.697
990.519
-9.67693
90.4293
1060.06
46.1794
-8.35832
1016.2
160.161
95.4476
962.158
116.087
75.7586
788.473
140.406
234.045
629.226
70.1692
150.472
512.404
52.4377
79.1045
448.708
11.0973
-1.54908
421.16
-2.28555
-7.88206
402.515
-17.3931
-5.37121
389.729
-13.9141
14.2424
376.059
0.331104
17.5696
362.901
17.6458
10.7313
352.322
24.0613
-1.49782
358.897
3.79142
-5.04405
1.90094
-35.7801
136.504
-295.684
-3209.23
434.901
-15.2017
-828.191
521.332
-138.442
-727.676
536.254
-119.382
-174.194
565.592
-25.4126
-59.1003
624.038
7.58142
-120.585
615.121
130.973
76.8554
600.725
110.06
66.6783
560.033
153.628
139.342
528.292
115.282
24.9659
505.897
89.9643
-11.3651
490.06
46.8478
-70.2724
483.059
8.94967
-53.6359
480.948
-15.4458
-35.378
477.227
-15.2981
10.6997
468.783
7.96536
39.0529
456.9
43.9592
58.1697
439.622
69.493
14.0021
424.199
41.0905
-25.1922
25.1673
-63.435
620.833
-1163.24
615.963
-1010.33
465.107
-278.947
391.361
-8.17858
423.593
206.968
404.036
-85.1014
465.856
-10.0583
524.923
-40.4316
619.039
51.3116
698.878
-13.5317
757.256
-22.0264
798.348
-79.7368
814.341
-68.6372
815.763
-53.6866
813.819
-30.2702
832.405
-39.9683
896.762
-25.2921
991.709
20.7009
1013.88
111.76
91.1126
511.098
-77.4754
331.224
924.059
-314.671
160.763
861.252
-35.1516
-476.13
687.886
87.5851
-413.235
493.7
130.181
-414.225
427.466
29.4365
-177.631
413.848
-22.8112
-96.307
430.582
-44.1953
-46.3314
472.991
-61.2304
38.3733
519.672
-55.3817
27.1641
569.337
-52.3873
65.9164
616.445
-42.8622
36.1526
653.772
-34.1756
41.0533
682.348
-27.3366
17.1753
701.747
-21.9587
20.4102
718.415
-18.566
16.5318
732.416
-16.5089
17.7452
748.139
-16.9515
12.0964
772.415
-20.0152
3.19504
-18.3263
-6.18211
830.079
1229.23
2317.07
467.74
102.564
-228.29
192.58
273.764
-167.802
217.057
118.59
62.3011
284.018
107.67
6.85099
284.175
29.0774
27.0052
323.223
-45.7232
26.9255
314.388
-36.5005
-0.726048
336.297
-60.0754
39.0257
333.069
-35.527
13.1572
351.688
-42.8443
32.1583
358.439
-32.2371
8.707
375.367
-37.1255
10.0352
388.343
-32.0843
3.30608
405.355
-31.4905
8.13481
419.312
-26.404
1.21715
431.234
-21.0271
-2.57811
437.611
-16.2766
-9.95744
434.22
-11.3815
-22.7633
-6.12672
-70.284
133.298
1141.44
-300.19
102.224
317.456
-890.912
125.335
352.072
-551.645
122.504
162.68
-55.4633
199.637
56.2894
-89.6102
190.18
33.6589
7.60562
234.301
-85.7006
-8.11974
229.7
-35.87
-7.10369
258.402
-82.2107
14.9342
265.544
-37.4714
1.32403
294.486
-60.7149
21.3391
307.375
-38.5572
9.43997
323.428
-51.3082
18.481
328.965
-39.8631
11.5056
341.677
-44.2105
13.1199
349.952
-35.4015
5.17643
357.904
-28.463
0.891915
359.091
-19.7195
-4.63277
354.294
-8.54935
-20.5151
-0.963912
-56.5827
332.521
299.083
4288.72
237.389
492.995
-782.63
153.223
371.743
-246.911
186.6
194.179
10.5533
208.945
59.4852
-39.1513
199.108
65.3261
36.9067
224.56
-103.333
18.4071
197.973
-3.9778
-7.98977
221.104
-105.679
8.92516
227.719
-38.4537
2.90594
258.143
-84.856
16.1069
277.118
-48.7092
14.9266
303.556
-69.5601
19.1151
320.069
-49.0263
16.2334
328.787
-52.6429
19.0138
334.189
-39.9327
14.3718
339.941
-33.0839
8.13725
340.427
-22.3664
2.12209
337.338
-7.86884
-12.8807
1.35085
-46.3918
-781.259
14.7313
2642.13
-224.754
136.008
-213.12
-85.5276
194.472
-48.0599
90.4447
93.4617
176.391
210.247
6.57882
82.0885
200.758
97.8223
68.5422
222.909
-110.785
43.5723
186.245
33.2693
-5.57339
200.913
-128.817
-1.89905
204.917
-43.0271
-5.12474
241.177
-119.495
9.12754
261.278
-63.6263
10.3113
291.332
-93.5804
16.4899
308.494
-59.6617
13.5558
325.583
-63.2965
16.302
328.627
-41.732
13.1743
332.045
-35.4679
6.72863
330.158
-22.8427
1.85404
327.465
-9.50696
-10.7124
0.688039
-38.661
-532.709
640.683
444.023
-7.4085
-93.3656
-505.567
259.778
47.426
-381.005
328.689
-35.2965
-122.463
344.183
-13.2184
-152.953
302.427
96.4435
-94.2424
340.851
-155.295
28.3133
282.908
86.8994
-14.2427
283.078
-123.579
38.9474
277.391
-31.5289
15.8275
291.153
-129.963
12.101
300.027
-71.2568
6.2372
310.446
-103.285
4.15829
315.947
-64.1058
2.44698
322.512
-67.7985
3.50712
326.385
-42.5248
6.44409
327.205
-33.1216
3.53045
323.387
-20.2519
1.36164
318.181
-9.94686
-9.87389
0.486212
-31.4375
-830.131
-482.163
-3315.46
-82.792
-438.993
-153.915
255.334
-368.375
-144.434
294.987
-156.626
88.5801
299.962
-64.67
-82.6075
135.19
228.373
-35.7553
170.556
-36.5047
22.13
-61.1628
-42.9874
-62.7471
139.022
25.6563
10.0251
36.8879
25.5131
34.6004
199.244
-37.4842
20.2564
-49.1484
-39.7611
-47.792
230.662
-23.1597
24.1325
-6.69899
-19.7978
-3.56364
276.388
-41.746
9.53987
-42.8479
-39.4537
-39.6465
297.686
-29.9606
8.51632
-18.3093
-27.0112
-14.3534
318.964
-33.2553
1.80602
-30.38
-30.701
-27.0964
329.142
-25.1797
-2.62879
-16.3968
-23.4359
-12.5825
330.806
-70.5099
1.20435
328.773
-40.7167
0.202951
326.704
-26.918
3.414
322.242
-12.6256
3.89199
316.071
-5.81055
-4.41386
4.56255
-25.2397
889.066
-601.592
-472.182
526.292
-307.251
487.921
286.317
-352.764
320.462
273.061
-190.237
64.2026
261.972
-68.0806
61.4984
65.5645
45.0778
-20.4891
61.8339
53.9778
49.952
84.5511
42.1765
78.4855
-5.69229
51.2089
-15.2538
-1.20291
-2.27412
-26.8802
41.5303
10.2733
3.00697
2.90652
-65.4652
62.8842
-32.9026
-4.90702
-5.12453
-61.8804
70.5247
-30.7441
4.06461
-1.95813
-88.7629
81.6635
-38.9502
6.26177
-3.11299
-87.7863
83.4023
-31.1653
8.70165
-1.24093
-93.2526
87.9207
-30.0798
3.39731
-2.16121
-91.5265
86.1319
-22.4793
4.85541
346.76
-20.8528
8.47007
-90.6028
-92.5084
-84.8734
-84.9904
-13.6196
-18.3096
-9.58052
345.835
-36.5644
11.2246
336.98
-9.46075
2.69674
329.549
-1.15613
3.5889
320.597
5.27591
-3.89882
10.3003
-28.8807
662.783
-638.467
3927.53
603.095
-61.9181
414.274
357.644
-112.841
-4.95181
226.794
-65.3316
28.517
65.6445
-21.5525
7.46952
41.3153
57.5225
38.4294
-10.5897
68.8338
43.8086
8.66952
-1.81755
2.18814
-22.8465
18.3656
2.73806
1.37233
-3.35944
-16.3998
2.57774
16.0324
-2.11243
3.26159
0.272437
-22.4366
8.47011
21.5248
-7.38925
-0.441501
0.418829
-22.2922
10.3998
22.1148
-10.2391
-0.402162
-0.141938
-24.7521
10.783
24.3141
-10.3321
0.129006
-0.319979
-24.5224
9.54677
24.2704
-9.38296
0.408199
-0.662086
-25.7343
8.57922
25.3952
-8.35515
0.777173
-1.17063
-26.0621
7.23028
25.7534
-7.08057
1.32967
-27.0982
-7.69836
101.868
-17.0203
7.8812
-27.1847
-25.7879
-25.8127
379.653
-15.7513
9.63338
-102.654
-105.356
-92.9882
-93.9267
366.073
13.7881
14.1642
351.007
24.1673
12.7394
338.055
25.5339
3.88139
23.2792
-31.5166
-68.3934
-116.185
1455.81
131.061
-200.312
-702.998
-120.652
-58.1437
-397.511
-119.857
-2.55276
18.4919
12.37
-121.858
-7.60588
16.3687
6.08525
7.59083
-19.2324
-29.3318
40.2638
-3.1433
23.8137
-8.9134
-3.22697
-20.628
22.2563
1.22007
9.29201
-5.79816
3.82291
-23.945