/*--------------------------------*- C++ -*----------------------------------*\
  =========                 |
  \\      /  F ield         | OpenFOAM: The Open Source CFD Toolbox
   \\    /   O peration     | Website:  https://openfoam.org
    \\  /    A nd           | Version:  10
     \\/     M anipulation  |
\*---------------------------------------------------------------------------*/
FoamFile
{
    format      ascii;
    class       volScalarField;
    location    "4.6";
    object      turbidity;
}
// * * * * * * * * * * * * * * * * * * * * * * * * * * * * * * * * * * * * * //

dimensions      [0 0 0 0 0 0 0];

internalField   nonuniform List<scalar> 
12920
(
-0.057072
-0.0512056
-0.051766
-0.0725778
-0.0805522
-0.100515
-0.124601
-0.150431
-0.17949
-0.205654
-0.230802
-0.255287
-0.277376
-0.296836
-0.31466
-0.331906
-0.348762
-0.364941
-0.379757
-0.392594
-0.0303934
-0.0475195
-0.0619048
-0.080703
-0.09975
-0.119333
-0.138012
-0.156657
-0.179191
-0.209174
-0.247283
-0.289554
-0.327853
-0.357633
-0.379015
-0.393746
-0.40312
-0.408273
-0.409344
-0.406089
-0.0491691
-0.0513968
-0.0620351
-0.0902222
-0.107185
-0.123596
-0.150596
-0.17585
-0.210499
-0.244114
-0.282577
-0.321145
-0.356931
-0.386321
-0.409424
-0.42619
-0.435866
-0.437127
-0.432345
-0.426482
-0.0440746
-0.0680693
-0.0769816
-0.112425
-0.140717
-0.175746
-0.219355
-0.265828
-0.303562
-0.336079
-0.358728
-0.378008
-0.394026
-0.411066
-0.42891
-0.447803
-0.465271
-0.477953
-0.481852
-0.479223
-0.0304358
-0.071175
-0.0795857
-0.093671
-0.109087
-0.138257
-0.170967
-0.211432
-0.251199
-0.28545
-0.311401
-0.330323
-0.344663
-0.361667
-0.382599
-0.409728
-0.44099
-0.47137
-0.492802
-0.506028
-0.0386415
-0.0523836
-0.064875
-0.0726956
-0.0817925
-0.100287
-0.139931
-0.18515
-0.230924
-0.264022
-0.276209
-0.284179
-0.290406
-0.302343
-0.321416
-0.351731
-0.392737
-0.438292
-0.476172
-0.506416
-0.108951
-0.0828182
-0.0641723
-0.0897927
-0.111694
-0.142828
-0.195268
-0.229073
-0.237902
-0.234306
-0.216892
-0.214582
-0.214681
-0.221183
-0.238477
-0.268563
-0.312086
-0.366967
-0.42614
-0.483883
-0.0487021
-0.0614088
-0.0684875
-0.0937103
-0.126202
-0.159878
-0.170154
-0.185452
-0.175458
-0.141372
-0.121874
-0.112515
-0.111916
-0.114645
-0.136567
-0.163404
-0.192867
-0.229277
-0.275396
-0.332695
-0.0163015
-0.0440507
-0.0672941
-0.120978
-0.163913
-0.160566
-0.162979
-0.162108
-0.146637
-0.113421
-0.0938522
-0.087714
-0.0898631
-0.0947125
-0.109961
-0.141707
-0.163686
-0.18724
-0.218006
-0.260422
-0.0417923
-0.053102
-0.0747477
-0.117066
-0.153439
-0.145172
-0.137185
-0.120048
-0.10643
-0.0962574
-0.0910977
-0.0946416
-0.103484
-0.113113
-0.131246
-0.150948
-0.168687
-0.187512
-0.20945
-0.239409
-0.0336816
-0.0426885
-0.0548886
-0.0765143
-0.10338
-0.109664
-0.112747
-0.107762
-0.103776
-0.0984502
-0.0963491
-0.108544
-0.130366
-0.149721
-0.168954
-0.17175
-0.177867
-0.187308
-0.204544
-0.22863
-0.0498347
-0.0438
-0.0535465
-0.0804315
-0.112201
-0.109462
-0.108928
-0.108304
-0.116969
-0.119946
-0.127389
-0.151835
-0.177779
-0.199512
-0.226521
-0.24082
-0.233619
-0.222626
-0.222468
-0.236619
-0.0301461
-0.0465007
-0.0625393
-0.0856492
-0.109586
-0.123628
-0.119934
-0.12226
-0.136935
-0.157633
-0.179744
-0.203744
-0.231396
-0.259522
-0.319671
-0.339742
-0.334863
-0.315216
-0.295857
-0.290914
-0.0376037
-0.0485355
-0.0663899
-0.0897333
-0.108111
-0.121084
-0.136827
-0.150599
-0.171066
-0.192674
-0.220541
-0.25274
-0.290512
-0.330751
-0.369029
-0.401998
-0.424138
-0.430579
-0.417459
-0.400422
-0.0704068
-0.0658487
-0.0655376
-0.0811668
-0.0831113
-0.0880206
-0.0984833
-0.110269
-0.130071
-0.156531
-0.191028
-0.232899
-0.281157
-0.330733
-0.372154
-0.408107
-0.438481
-0.46156
-0.47202
-0.473492
-0.0345554
-0.0630607
-0.0654167
-0.0784744
-0.085982
-0.092277
-0.103197
-0.117252
-0.139769
-0.167837
-0.200412
-0.245183
-0.298884
-0.354117
-0.40279
-0.441983
-0.473555
-0.498547
-0.515842
-0.526535
-0.0297018
-0.0584233
-0.0698485
-0.0802085
-0.0879952
-0.0965142
-0.109471
-0.131275
-0.162869
-0.203258
-0.24742
-0.290038
-0.331267
-0.372613
-0.416923
-0.46129
-0.500356
-0.528829
-0.548213
-0.561816
-0.0140726
-0.0399168
-0.0501454
-0.0715539
-0.0901174
-0.10218
-0.110323
-0.123664
-0.148094
-0.191396
-0.240799
-0.27578
-0.30238
-0.333031
-0.37466
-0.427598
-0.482769
-0.526626
-0.556897
-0.57971
-0.029755
-0.0344465
-0.0458762
-0.0693944
-0.0956171
-0.119246
-0.143492
-0.168551
-0.196379
-0.225018
-0.239491
-0.236256
-0.238689
-0.251028
-0.274784
-0.309484
-0.358517
-0.4142
-0.466505
-0.514784
-0.0138784
-0.025038
-0.040073
-0.0615392
-0.0908963
-0.113774
-0.137913
-0.15408
-0.172092
-0.177251
-0.179097
-0.178685
-0.183427
-0.192887
-0.203994
-0.214159
-0.231099
-0.255353
-0.280656
-0.311802
-0.0175902
-0.0115628
-0.00626983
-0.00668994
-0.00948005
-0.0153044
-0.024324
-0.0356023
-0.0515464
-0.0642012
-0.0752076
-0.0748303
-0.0692941
-0.0579907
-0.0486118
-0.0419034
-0.0377303
-0.0367209
-0.0412368
-0.0507942
-0.0211513
-0.0129289
-0.0153877
-0.0241994
-0.0277494
-0.0250644
-0.0332639
-0.0430224
-0.0648841
-0.0804603
-0.0925521
-0.0890216
-0.0800242
-0.0679807
-0.0579798
-0.0459493
-0.0353939
-0.0262929
-0.0209345
-0.0204101
-0.0198729
-0.00851553
-0.00890631
-0.0117658
-0.0139543
-0.017212
-0.0258567
-0.0355679
-0.0543651
-0.0657073
-0.0775981
-0.0765651
-0.0745414
-0.0670231
-0.061288
-0.0504836
-0.0399506
-0.0322288
-0.0286516
-0.0292625
-0.0238794
-0.0156453
-0.0130417
-0.025211
-0.0298626
-0.0363396
-0.0410689
-0.0401861
-0.0497759
-0.0608221
-0.0770287
-0.0900818
-0.101513
-0.10654
-0.106202
-0.0981841
-0.0828163
-0.0656018
-0.0538381
-0.0492857
-0.0245406
-0.0178596
-0.0182567
-0.031874
-0.0396981
-0.040209
-0.0410169
-0.0346825
-0.0384492
-0.0478431
-0.060306
-0.0749568
-0.0905237
-0.103231
-0.111958
-0.112573
-0.103459
-0.0904273
-0.0789362
-0.0731651
-0.0162366
-0.011566
-0.0104935
-0.0103995
-0.0124908
-0.0174522
-0.0249559
-0.0284024
-0.0377562
-0.038993
-0.0396624
-0.0438877
-0.0514696
-0.0620811
-0.0736327
-0.082826
-0.0838298
-0.0778636
-0.0709717
-0.068573
-0.0244773
-0.0237134
-0.0105931
-0.014247
-0.0181866
-0.0244179
-0.0397598
-0.0433442
-0.0438719
-0.0393553
-0.0345698
-0.0322474
-0.0332947
-0.0372614
-0.0444712
-0.0540028
-0.0654887
-0.0725502
-0.0724545
-0.071922
-0.0231455
-0.0163692
-0.0149926
-0.018642
-0.0321243
-0.0325772
-0.0472461
-0.0441203
-0.0368105
-0.0317539
-0.0288314
-0.0280376
-0.0299122
-0.0347411
-0.0356931
-0.0380951
-0.0417164
-0.0487774
-0.0575872
-0.0652617
-0.0135473
-0.0172458
-0.0122624
-0.0276684
-0.0447917
-0.0404973
-0.0543875
-0.0707109
-0.0527311
-0.0466132
-0.0355842
-0.0302958
-0.0375083
-0.0505388
-0.0563673
-0.046958
-0.0496898
-0.0529903
-0.0588394
-0.065079
-0.0356419
-0.00717281
-0.00968065
-0.0308198
-0.0541435
-0.0459076
-0.0661677
-0.0722869
-0.0725493
-0.0652208
-0.0525925
-0.0517253
-0.0639345
-0.0710057
-0.0519976
-0.0365363
-0.0402104
-0.0479293
-0.0597449
-0.0687021
-0.00549069
-0.00579652
-0.0127005
-0.0234679
-0.0523847
-0.0520904
-0.057277
-0.0558062
-0.0642785
-0.0653095
-0.052884
-0.0482564
-0.0532747
-0.0521199
-0.0372994
-0.027885
-0.0289667
-0.0338181
-0.0424566
-0.0518394
-0.00961214
-0.00509938
-0.00968302
-0.0167782
-0.0334116
-0.0310515
-0.0330521
-0.0447318
-0.067563
-0.0616006
-0.048187
-0.0379799
-0.0392681
-0.0448245
-0.0452601
-0.0380898
-0.0354139
-0.035798
-0.0398648
-0.0454611
-0.00723091
-0.00533075
-0.0105439
-0.0158722
-0.0242615
-0.0235378
-0.0268281
-0.0407432
-0.0524621
-0.0428095
-0.0328779
-0.0338779
-0.0402053
-0.053247
-0.0597428
-0.0600227
-0.0544924
-0.0506906
-0.0495949
-0.0513645
-0.00901523
-0.00586928
-0.00691151
-0.010098
-0.0127213
-0.012722
-0.0138306
-0.0146865
-0.0183281
-0.023611
-0.0324113
-0.0430159
-0.0494695
-0.0554457
-0.0604698
-0.0669494
-0.0706249
-0.0714955
-0.0706916
-0.071343
-0.0249464
-0.0184101
-0.008648
-0.00682671
-0.00575508
-0.00555022
-0.00610613
-0.0082281
-0.0132546
-0.0227977
-0.0374048
-0.0521197
-0.0563122
-0.0514755
-0.0479459
-0.0499702
-0.0565068
-0.0669307
-0.0785497
-0.0858197
-0.0185851
-0.0222262
-0.0122937
-0.00995928
-0.00820981
-0.00765045
-0.00835456
-0.0137201
-0.0246524
-0.0415056
-0.0625059
-0.0768552
-0.0789543
-0.070658
-0.0629914
-0.0594872
-0.0598902
-0.063663
-0.0710314
-0.0772501
-0.0201852
-0.0151737
-0.0162164
-0.0205565
-0.0259384
-0.0282057
-0.0368954
-0.0478615
-0.06412
-0.0753783
-0.0827312
-0.0827904
-0.083792
-0.0841936
-0.085663
-0.080993
-0.0715859
-0.0618488
-0.056375
-0.0554933
-0.00654982
-0.00450129
-0.00631044
-0.013311
-0.0229008
-0.0307597
-0.0422247
-0.0577911
-0.0783914
-0.0830553
-0.0676216
-0.0556141
-0.0595718
-0.0722713
-0.0927169
-0.105318
-0.102418
-0.0889586
-0.076703
-0.0672917
-0.00185327
-0.00320444
-0.00786426
-0.0164717
-0.027319
-0.0407439
-0.0600623
-0.0760076
-0.0830781
-0.0637085
-0.0429051
-0.033737
-0.0354144
-0.0441909
-0.0640277
-0.0914165
-0.111151
-0.106272
-0.095468
-0.0902758
-0.000607577
-0.00521454
-0.0155459
-0.0216904
-0.0359486
-0.0377772
-0.0475581
-0.049896
-0.0483628
-0.0409347
-0.0346027
-0.0309181
-0.0299819
-0.0308328
-0.034025
-0.0423333
-0.0590128
-0.0857007
-0.119672
-0.157117
-0.0143762
-0.00679127
-0.00510963
-0.00511285
-0.00716178
-0.0121321
-0.019128
-0.0256797
-0.0320791
-0.0348451
-0.0362919
-0.0332666
-0.0293462
-0.0245219
-0.0205992
-0.017568
-0.015632
-0.0149376
-0.0156439
-0.0177898
-0.00870763
-0.00568868
-0.00841034
-0.0120249
-0.0140975
-0.0170852
-0.0229978
-0.0279632
-0.034085
-0.0328716
-0.0297075
-0.0218431
-0.0165291
-0.0130639
-0.011991
-0.0117507
-0.0126921
-0.014573
-0.0172021
-0.0203559
-0.00904489
-0.00427376
-0.00537253
-0.0070491
-0.00880066
-0.0111352
-0.0148987
-0.0177103
-0.0220731
-0.0219427
-0.0230325
-0.0206144
-0.0197956
-0.0183441
-0.0181801
-0.0181323
-0.0193936
-0.0220299
-0.025864
-0.0307454
-0.0119044
-0.00767301
-0.00670969
-0.00877837
-0.0105712
-0.0130292
-0.0156591
-0.0172282
-0.0212547
-0.024728
-0.0297192
-0.0327865
-0.03546
-0.0352649
-0.034121
-0.0318897
-0.0303607
-0.0309129
-0.0338281
-0.0384031
-0.0107177
-0.00885667
-0.00996238
-0.0149489
-0.0176392
-0.016827
-0.0179545
-0.0191522
-0.0226327
-0.0274094
-0.0321671
-0.037256
-0.0415113
-0.0437326
-0.0437824
-0.0412645
-0.0380406
-0.036452
-0.037297
-0.0401446
-0.00625226
-0.00428441
-0.0052318
-0.00629309
-0.00779702
-0.0109746
-0.0150259
-0.0169855
-0.0186175
-0.0198688
-0.0212727
-0.0243992
-0.0276417
-0.030876
-0.0329417
-0.0336652
-0.0328134
-0.031956
-0.0323169
-0.0341957
-0.00516934
-0.00624134
-0.00559179
-0.00804283
-0.0105427
-0.0137312
-0.0166275
-0.016979
-0.015419
-0.0151662
-0.0148954
-0.0160062
-0.0178295
-0.0205596
-0.0238409
-0.0270334
-0.0297626
-0.0311936
-0.0317676
-0.032789
-0.00542836
-0.0072194
-0.00722914
-0.00817285
-0.0109155
-0.0128816
-0.0161087
-0.0148218
-0.0127377
-0.0117051
-0.0117664
-0.0124089
-0.0133803
-0.0147146
-0.0176764
-0.0214301
-0.0255007
-0.0296265
-0.0333522
-0.0364374
-0.0135279
-0.00880748
-0.00581857
-0.00937463
-0.0121135
-0.0141541
-0.0175896
-0.0193241
-0.0137513
-0.01126
-0.0105329
-0.0121643
-0.0152915
-0.0188112
-0.0194526
-0.021405
-0.0259343
-0.0306925
-0.0353695
-0.0391014
-0.0217358
-0.00567394
-0.00592127
-0.0115707
-0.0177647
-0.0172011
-0.0224803
-0.0220152
-0.0206037
-0.0169767
-0.0143515
-0.0159469
-0.0189904
-0.0201823
-0.017964
-0.0196251
-0.0242569
-0.0299852
-0.0357826
-0.0390473
-0.00602062
-0.00617795
-0.00792907
-0.0111914
-0.0232602
-0.0193704
-0.0238513
-0.0254133
-0.0253124
-0.0202072
-0.0140154
-0.0139525
-0.0151149
-0.0149887
-0.0143451
-0.0183111
-0.0220971
-0.0268681
-0.0317815
-0.0352461
-0.0141705
-0.00396168
-0.00516866
-0.00849136
-0.0111514
-0.0114908
-0.0125155
-0.0180329
-0.0198409
-0.0157022
-0.012903
-0.0132053
-0.0148596
-0.0162386
-0.0182688
-0.0218264
-0.02406
-0.0271581
-0.030676
-0.0335147
-0.00219775
-0.00276053
-0.00434983
-0.00653722
-0.007984
-0.00806984
-0.00984297
-0.0141177
-0.013857
-0.0118252
-0.0124598
-0.0149144
-0.0180462
-0.0218175
-0.0257763
-0.0278215
-0.0294775
-0.0312744
-0.0332576
-0.0352518
-0.00448459
-0.0047058
-0.00365943
-0.0038946
-0.00401488
-0.00438347
-0.00545944
-0.0067902
-0.00893093
-0.0116439
-0.0147925
-0.0177998
-0.0201964
-0.0231231
-0.026218
-0.0292743
-0.0318908
-0.0339419
-0.0355668
-0.0371511
-0.0164616
-0.00920644
-0.00435371
-0.0032096
-0.00292608
-0.0032535
-0.00414791
-0.00646739
-0.00962518
-0.0137982
-0.0179218
-0.020834
-0.0208621
-0.0199992
-0.0202455
-0.0218732
-0.0245743
-0.0278083
-0.031142
-0.0337252
-0.0324428
-0.0245552
-0.00941402
-0.00436552
-0.00366093
-0.00429133
-0.00591202
-0.0103923
-0.0158961
-0.0218744
-0.0281242
-0.0302813
-0.0285901
-0.0248664
-0.0224034
-0.0213967
-0.0215808
-0.0225908
-0.024543
-0.0267554
-0.00876129
-0.0068531
-0.00609814
-0.00790361
-0.0104906
-0.012346
-0.0180203
-0.0235494
-0.0309766
-0.0338651
-0.0353244
-0.0334743
-0.0319598
-0.029494
-0.0272506
-0.0245018
-0.0223218
-0.0213066
-0.0216659
-0.0231116
-0.00198121
-0.00275012
-0.00483874
-0.00866795
-0.0136345
-0.0194744
-0.029371
-0.0391512
-0.0467044
-0.0398588
-0.0305996
-0.0265254
-0.0270021
-0.0281466
-0.0300495
-0.0297599
-0.0277511
-0.0257811
-0.0256667
-0.0254476
-0.000272591
-0.00239957
-0.00658227
-0.0143246
-0.0225562
-0.0308709
-0.0406277
-0.0412693
-0.0360293
-0.0232933
-0.0188183
-0.0197025
-0.0238599
-0.0289917
-0.0351337
-0.0410202
-0.0447135
-0.0449081
-0.0478508
-0.0467774
-0.000232863
-0.00196459
-0.00644053
-0.013583
-0.0235918
-0.0247775
-0.0274125
-0.0239852
-0.021352
-0.0171023
-0.0153844
-0.0160094
-0.0196145
-0.0270843
-0.0383745
-0.0524256
-0.0689015
-0.0892169
-0.115624
-0.141774
-0.00653812
-0.00705544
-0.00603464
-0.00525435
-0.00652734
-0.0106524
-0.0153949
-0.0185962
-0.0212131
-0.0215346
-0.0212168
-0.0189884
-0.0165191
-0.0138097
-0.0116041
-0.00996794
-0.00901848
-0.00875614
-0.00916686
-0.0104388
-0.00391122
-0.0049658
-0.00686189
-0.00864588
-0.0104103
-0.0117121
-0.0135017
-0.0129223
-0.0131266
-0.0108663
-0.00995468
-0.00932434
-0.00985365
-0.0110733
-0.0127995
-0.0149738
-0.0173604
-0.0197853
-0.0220811
-0.0241048
-0.00541135
-0.00403962
-0.0046298
-0.00608333
-0.00727534
-0.00806971
-0.00901268
-0.0091516
-0.0099534
-0.00981404
-0.0107321
-0.0114662
-0.0130261
-0.0148477
-0.01714
-0.0196747
-0.0223067
-0.0248236
-0.0270369
-0.0287232
-0.00369358
-0.00351351
-0.00468451
-0.00595681
-0.00730267
-0.00856135
-0.0100411
-0.010671
-0.0122227
-0.0132766
-0.015089
-0.0163058
-0.0178572
-0.0190361
-0.020524
-0.0221487
-0.0240191
-0.0259473
-0.0276901
-0.0289986
-0.00693964
-0.00736762
-0.00725198
-0.0084181
-0.00954601
-0.0105095
-0.0120126
-0.012948
-0.0143137
-0.0160193
-0.0177476
-0.0192509
-0.0204867
-0.0210863
-0.0214582
-0.0216433
-0.0221431
-0.0230804
-0.0242892
-0.025578
-0.00322446
-0.00424975
-0.00447808
-0.00494415
-0.00645528
-0.00909666
-0.010868
-0.0115482
-0.0120087
-0.0131441
-0.0142383
-0.0157893
-0.0169479
-0.0177346
-0.0181276
-0.0183365
-0.0184456
-0.01879
-0.0194488
-0.0204768
-0.00315787
-0.00359009
-0.00426881
-0.0059853
-0.00794544
-0.00947029
-0.009207
-0.00980319
-0.00944927
-0.0105597
-0.0114415
-0.0129859
-0.0143768
-0.0156465
-0.0166418
-0.0172458
-0.0176868
-0.0178866
-0.0181694
-0.0188636
-0.00488239
-0.00511921
-0.00544229
-0.00582242
-0.0070086
-0.00817774
-0.0085321
-0.00817935
-0.00766108
-0.00777033
-0.00833697
-0.00944664
-0.0111224
-0.0133033
-0.0162179
-0.0177398
-0.0188521
-0.0196647
-0.0203048
-0.0209429
-0.0149532
-0.00535443
-0.00417287
-0.00551412
-0.0062305
-0.00817136
-0.0085727
-0.00800546
-0.0067218
-0.00661949
-0.00720492
-0.00810436
-0.0092181
-0.0108202
-0.0145438
-0.0187314
-0.0208081
-0.0221584
-0.0228221
-0.022756
-0.031902
-0.00729551
-0.00436065
-0.00601546
-0.00660234
-0.00792469
-0.00899403
-0.00806329
-0.00717954
-0.00692882
-0.00757585
-0.00866556
-0.00984985
-0.0112317
-0.0145094
-0.018954
-0.0211849
-0.0225613
-0.0229342
-0.021924
-0.00343366
-0.00407533
-0.004982
-0.00659544
-0.00908136
-0.00866244
-0.0103124
-0.00970097
-0.00831961
-0.00740304
-0.00790521
-0.00873638
-0.00989739
-0.0117671
-0.015129
-0.018585
-0.0205869
-0.0219108
-0.0224934
-0.0222039
-0.00346447
-0.00330568
-0.00411693
-0.00542542
-0.00565585
-0.00574858
-0.00627821
-0.00703057
-0.00667676
-0.00679253
-0.00767163
-0.00919306
-0.0113286
-0.0138626
-0.01687
-0.0189197
-0.0203207
-0.0213339
-0.0219978
-0.0224791
-0.0011045
-0.00185654
-0.00299454
-0.00417766
-0.00457463
-0.00492508
-0.00566566
-0.00659764
-0.00700508
-0.00785183
-0.00907791
-0.0108067
-0.012988
-0.0156474
-0.0176982
-0.0191553
-0.020362
-0.021404
-0.0224429
-0.0237235
-0.00251705
-0.00325761
-0.00259543
-0.00285089
-0.00324583
-0.00405559
-0.00520027
-0.00653207
-0.00770834
-0.00888854
-0.00998998
-0.011074
-0.012425
-0.0140878
-0.0158074
-0.0175154
-0.0192679
-0.0210167
-0.0228061
-0.0247914
-0.010345
-0.00371983
-0.0025104
-0.00269469
-0.00303799
-0.00404599
-0.00539305
-0.00735151
-0.0088738
-0.0101567
-0.0107997
-0.0110699
-0.0111461
-0.0116666
-0.0128961
-0.014528
-0.0164797
-0.0185622
-0.0207286
-0.0228411
-0.010443
-0.00657435
-0.00291703
-0.00285235
-0.00336421
-0.00515993
-0.00724621
-0.0100005
-0.0120589
-0.0132589
-0.0141024
-0.0133948
-0.0125691
-0.0120677
-0.0125076
-0.0135878
-0.0150576
-0.0167114
-0.01853
-0.0204212
-0.00372819
-0.00420466
-0.00481329
-0.00555195
-0.00723736
-0.0094753
-0.0126168
-0.0150028
-0.0170942
-0.0165402
-0.0159477
-0.0143446
-0.0136736
-0.0133369
-0.0137036
-0.0144356
-0.0155215
-0.0168579
-0.0182699
-0.0198888
-0.00113934
-0.0028403
-0.00527863
-0.00683023
-0.0105835
-0.0149404
-0.0212142
-0.022674
-0.0230427
-0.0176441
-0.014441
-0.0133554
-0.0135458
-0.0140482
-0.0149097
-0.0156612
-0.0165119
-0.0175936
-0.0187924
-0.0196294
-0.000320729
-0.00341717
-0.00787018
-0.0122435
-0.0167223
-0.0190037
-0.0221693
-0.0178731
-0.015
-0.0126824
-0.0134012
-0.0150624
-0.0168441
-0.0185895
-0.0210571
-0.0239266
-0.0273394
-0.0314574
-0.0356628
-0.0338477
-0.000349127
-0.0020863
-0.00585844
-0.0100507
-0.0151441
-0.0130087
-0.014346
-0.0118376
-0.0109172
-0.0101899
-0.011591
-0.0157327
-0.0226882
-0.0320877
-0.0431039
-0.0557573
-0.0710954
-0.0880917
-0.104555
-0.113289
-0.0017773
-0.00315871
-0.00359228
-0.00448645
-0.0071951
-0.0112176
-0.013723
-0.0139477
-0.013505
-0.0116502
-0.010177
-0.00865669
-0.00833275
-0.00895953
-0.0106253
-0.0132294
-0.0167642
-0.0211413
-0.0261726
-0.031136
-0.00503846
-0.00474882
-0.0057258
-0.00715448
-0.00806591
-0.0082763
-0.00859269
-0.00893797
-0.0100731
-0.0117395
-0.0138898
-0.0163284
-0.0186703
-0.0208312
-0.0226443
-0.0242483
-0.0255645
-0.0266214
-0.0273931
-0.0277571
-0.0071399
-0.00577859
-0.00549956
-0.00632495
-0.00694762
-0.00751401
-0.00844917
-0.00961381
-0.011116
-0.0127379
-0.0141886
-0.0154997
-0.0164317
-0.0171508
-0.0176398
-0.0179974
-0.0182864
-0.0185115
-0.0187193
-0.0188897
-0.00361901
-0.00340158
-0.00502064
-0.0064942
-0.00745736
-0.00832061
-0.0093798
-0.0103339
-0.011428
-0.0124104
-0.0133081
-0.0141039
-0.0148352
-0.0155022
-0.0161864
-0.016843
-0.0175194
-0.0181904
-0.0188234
-0.0194259
-0.00457143
-0.0053211
-0.00620827
-0.0072455
-0.00840037
-0.00917681
-0.00994376
-0.0106654
-0.011449
-0.012221
-0.0129671
-0.0136541
-0.0144207
-0.0151577
-0.016016
-0.0169186
-0.0179367
-0.0189978
-0.0200539
-0.0209987
-0.00121217
-0.00374347
-0.00428693
-0.00588852
-0.00784894
-0.00897444
-0.00942316
-0.010106
-0.0108493
-0.0116741
-0.0124908
-0.0133405
-0.0142922
-0.0153148
-0.0164929
-0.0177294
-0.0189998
-0.020232
-0.0213708
-0.0222639
-0.000622714
-0.00293213
-0.00439588
-0.00610318
-0.00746626
-0.00823406
-0.00838164
-0.00961223
-0.0104464
-0.0114734
-0.0124241
-0.013434
-0.014499
-0.0156247
-0.016816
-0.0180555
-0.0192364
-0.0203088
-0.0211815
-0.0217779
-0.00392341
-0.00326324
-0.00387337
-0.00480715
-0.00588253
-0.00691763
-0.00700812
-0.0083492
-0.00894564
-0.00997145
-0.0109527
-0.0119641
-0.0128444
-0.013775
-0.0159729
-0.016953
-0.0178588
-0.0185969
-0.0191137
-0.019414
-0.00763333
-0.00330971
-0.00346706
-0.00462696
-0.00547417
-0.00656774
-0.00665282
-0.00672627
-0.00734291
-0.00837654
-0.00969368
-0.0110699
-0.0122132
-0.0129165
-0.0134113
-0.0151473
-0.0160038
-0.0166158
-0.0170247
-0.0172
-0.0140548
-0.00819171
-0.00426708
-0.00453068
-0.00522471
-0.00565218
-0.00588123
-0.00604735
-0.00698862
-0.00838997
-0.00985167
-0.0113144
-0.0125715
-0.0133328
-0.0129097
-0.0143263
-0.0152337
-0.0160327
-0.016675
-0.0170381
-0.00537506
-0.00414175
-0.00407548
-0.004855
-0.00562681
-0.00592133
-0.00613102
-0.00640887
-0.00724739
-0.00840463
-0.00978105
-0.0116133
-0.0130816
-0.0136885
-0.0132521
-0.0146156
-0.0156401
-0.0166975
-0.0177322
-0.0185371
-0.00240905
-0.00311906
-0.00383443
-0.00457059
-0.00502939
-0.00538788
-0.00553293
-0.00589851
-0.00669162
-0.00797465
-0.00979932
-0.0117142
-0.0130853
-0.013694
-0.0138079
-0.0161161
-0.0172402
-0.0184153
-0.0195141
-0.0204187
-0.000575316
-0.00192848
-0.00271704
-0.00377719
-0.0044735
-0.0052224
-0.00558417
-0.00673104
-0.00794752
-0.00950736
-0.0110224
-0.0123965
-0.0134917
-0.0143991
-0.0178891
-0.0192379
-0.0205579
-0.0219104
-0.0230971
-0.0241475
-0.000655121
-0.000994429
-0.00203444
-0.00330055
-0.00432754
-0.00537076
-0.00635655
-0.00754122
-0.00899769
-0.0106549
-0.0124912
-0.0144086
-0.0162918
-0.0181399
-0.0199381
-0.0217349
-0.0234756
-0.0252674
-0.0269929
-0.0286145
-0.00790268
-0.00127544
-0.00183051
-0.00316851
-0.004502
-0.0058374
-0.00671466
-0.00778696
-0.00898901
-0.0106447
-0.0124941
-0.0146082
-0.0167623
-0.0189176
-0.0209185
-0.0228329
-0.0246143
-0.0263218
-0.0278968
-0.0291874
-0.00372649
-0.00224549
-0.00250157
-0.00391747
-0.00539255
-0.00684647
-0.0077551
-0.00882509
-0.00993182
-0.0113797
-0.0131227
-0.0152147
-0.0174311
-0.0197618
-0.021879
-0.0238268
-0.0255033
-0.0269475
-0.0279928
-0.0286316
-0.00378889
-0.0055681
-0.00578994
-0.00646717
-0.00756501
-0.00860244
-0.00951497
-0.0101775
-0.0112075
-0.0122369
-0.0138486
-0.0158042
-0.018006
-0.020366
-0.0227522
-0.0251531
-0.027458
-0.0296026
-0.0313935
-0.0326338
-0.000653371
-0.0028809
-0.00514494
-0.0073529
-0.00950472
-0.0104291
-0.0120031
-0.0116486
-0.0122615
-0.0124916
-0.0136287
-0.0151842
-0.0168753
-0.0187605
-0.0208236
-0.0231864
-0.0257519
-0.0284773
-0.0311999
-0.0334968
-0.0003885
-0.00353264
-0.0063795
-0.00849235
-0.00971336
-0.00975382
-0.0109674
-0.0111891
-0.0124681
-0.0140519
-0.0157021
-0.0173754
-0.0189634
-0.0207515
-0.0227116
-0.0250323
-0.0273797
-0.0297433
-0.0313774
-0.0313797
-0.00455709
-0.00362335
-0.00493649
-0.00608752
-0.00749093
-0.00681136
-0.00778596
-0.00796293
-0.00977976
-0.0127263
-0.0170188
-0.021802
-0.0268612
-0.0320181
-0.0376527
-0.0440494
-0.0515627
-0.0590216
-0.0663177
-0.0670067
-0.0145982
-0.0216074
-0.0173705
-0.00803984
-0.00824198
-0.00908829
-0.00875483
-0.0152713
-0.0161943
-0.0147723
-0.00843574
-0.00918331
-0.00884637
-0.00943678
-0.0150211
-0.0165671
-0.0140459
-0.00887925
-0.00873564
-0.00782871
-0.00835625
-0.0136342
-0.0135446
-0.0130986
-0.00882457
-0.00929782
-0.00868789
-0.00985615
-0.162529
-0.14765
-0.131477
-0.16137
-0.161848
-0.144943
-0.132028
-0.153957
-0.126777
-0.11411
-0.160042
-0.145083
-0.127662
-0.114663
-0.120901
-0.110255
-0.100152
-0.136022
-0.111952
-0.110798
-0.101119
-0.0973221
-0.0973762
-0.0915886
-0.106401
-0.0944867
-0.0984344
-0.0926815
-0.0882611
-0.0906689
-0.0911458
-0.0917182
-0.0877784
-0.0917867
-0.0928815
-0.0888863
-0.0922183
-0.0970838
-0.0879223
-0.0916171
-0.0943557
-0.100725
-0.0934863
-0.0990091
-0.105121
-0.0934507
-0.0991822
-0.103093
-0.109732
-0.0982052
-0.107158
-0.112584
-0.100878
-0.104832
-0.111511
-0.114485
-0.124108
-0.125415
-0.112316
-0.133615
-0.123536
-0.121838
-0.111902
-0.109458
-0.109744
-0.1041
-0.120034
-0.110518
-0.109488
-0.104243
-0.0984988
-0.102625
-0.0978844
-0.107727
-0.100194
-0.102808
-0.0982843
-0.0916355
-0.0962019
-0.0932977
-0.0980103
-0.0937557
-0.0969422
-0.0959572
-0.0930172
-0.093692
-0.0998218
-0.093457
-0.0963618
-0.0970775
-0.104979
-0.101097
-0.103331
-0.116599
-0.0983157
-0.105446
-0.10867
-0.120134
-0.110784
-0.121455
-0.13489
-0.107898
-0.114469
-0.123623
-0.131119
-0.119095
-0.138638
-0.146623
-0.116127
-0.117897
-0.132074
-0.126074
-0.109126
-0.110394
-0.107579
-0.10973
-0.107422
-0.104257
-0.10084
-0.104556
-0.107593
-0.111129
-0.106257
-0.103976
-0.102843
-0.111742
-0.1001
-0.112731
-0.113739
-0.103197
-0.0993622
-0.113323
-0.112401
-0.0956824
-0.112911
-0.113195
-0.0980521
-0.0975545
-0.111555
-0.114086
-0.104193
-0.115882
-0.131727
-0.0989375
-0.108793
-0.117348
-0.131592
-0.124615
-0.138528
-0.1588
-0.113284
-0.126644
-0.137038
-0.151357
-0.145641
-0.165233
-0.181923
-0.130554
-0.138053
-0.155551
-0.164269
-0.158086
-0.186609
-0.19686
-0.138398
-0.128888
-0.165271
-0.157892
-0.107462
-0.112401
-0.113372
-0.0971682
-0.100871
-0.102089
-0.0972147
-0.114526
-0.115656
-0.124962
-0.104516
-0.115895
-0.105034
-0.123953
-0.119994
-0.129879
-0.141492
-0.118257
-0.119532
-0.128992
-0.138787
-0.123419
-0.146891
-0.159736
-0.119473
-0.123855
-0.142821
-0.150189
-0.145057
-0.166351
-0.181539
-0.127388
-0.140943
-0.154212
-0.165231
-0.171454
-0.189409
-0.207055
-0.146106
-0.159813
-0.173172
-0.192415
-0.194522
-0.215471
-0.233096
-0.164699
-0.176959
-0.201654
-0.220545
-0.210983
-0.241202
-0.256723
-0.179617
-0.176387
-0.228107
-0.239608
-0.0711985
-0.0666032
-0.075349
-0.0371398
-0.0362806
-0.0355652
-0.031023
-0.056219
-0.0742741
-0.0695714
-0.0345727
-0.0275071
-0.0294595
-0.0258839
-0.0483359
-0.0683704
-0.0626113
-0.0249505
-0.0196089
-0.0250298
-0.0222235
-0.0388099
-0.0595421
-0.0490754
-0.0184379
-0.0165914
-0.0211233
-0.018677
-0.0303414
-0.0459867
-0.0432415
-0.0164715
-0.0175178
-0.018411
-0.0194613
-0.0350819
-0.0448724
-0.0548243
-0.0182209
-0.0207468
-0.0202699
-0.0232888
-0.0470934
-0.0584911
-0.0671228
-0.021617
-0.024085
-0.0242777
-0.0265101
-0.0613154
-0.0685656
-0.0691332
-0.024825
-0.0268848
-0.0269115
-0.0274317
-0.0722749
-0.0567908
-0.064285
-0.036963
-0.0321926
-0.0394481
-0.0381164
-0.0728379
-0.0656527
-0.0697813
-0.0311442
-0.0293067
-0.037936
-0.037136
-0.0679918
-0.0706285
-0.07001
-0.028721
-0.0256701
-0.0364952
-0.0325978
-0.0554531
-0.0687502
-0.0612864
-0.0242861
-0.0209198
-0.0308479
-0.0254547
-0.0501458
-0.0579458
-0.0522897
-0.0203821
-0.0208255
-0.0239083
-0.021596
-0.060731
-0.0523548
-0.0562506
-0.0214917
-0.0242062
-0.0217483
-0.0232298
-0.0704823
-0.0577153
-0.0594892
-0.0251008
-0.026913
-0.0237122
-0.024249
-0.0684696
-0.0586877
-0.0530911
-0.0271246
-0.0269402
-0.0240337
-0.0225551
-0.0555527
-0.0419056
-0.0412884
-0.0392361
-0.0369274
-0.033162
-0.032589
-0.0623474
-0.0444908
-0.0603491
-0.0364872
-0.0352159
-0.0326086
-0.0316257
-0.0660325
-0.0633908
-0.0622797
-0.0345559
-0.0309625
-0.0306894
-0.0265946
-0.0566368
-0.0609786
-0.0546148
-0.0293335
-0.0234509
-0.0251857
-0.0221579
-0.0477671
-0.0518543
-0.0438651
-0.0219594
-0.0206493
-0.0217967
-0.0225764
-0.0522264
-0.0420139
-0.0404855
-0.0211373
-0.0230494
-0.0232101
-0.0250535
-0.0532718
-0.0410326
-0.0436136
-0.0235076
-0.0236108
-0.0254862
-0.0256593
-0.0474828
-0.0443295
-0.0446531
-0.0232262
-0.0214014
-0.0253065
-0.0232237
-0.040251
-0.0287629
-0.0342091
-0.0290275
-0.031887
-0.026035
-0.0287768
-0.0644763
-0.0395206
-0.0591564
-0.0323497
-0.0317754
-0.030995
-0.0322032
-0.0639761
-0.0632528
-0.0605305
-0.030717
-0.0262209
-0.0314469
-0.0276971
-0.0521017
-0.0533664
-0.0376152
-0.0248349
-0.0223544
-0.0263676
-0.0248397
-0.0392535
-0.0347423
-0.0323329
-0.0222314
-0.0234725
-0.0252938
-0.0270895
-0.038226
-0.0329681
-0.0362023
-0.0242314
-0.0265025
-0.0285864
-0.0318834
-0.0434503
-0.0384689
-0.0456988
-0.027174
-0.0281587
-0.0335139
-0.0368194
-0.0471057
-0.0501184
-0.0586108
-0.0280732
-0.0263685
-0.0382905
-0.0403518
-0.0204697
-0.0206342
-0.0212173
-0.0132858
-0.0122923
-0.0122049
-0.0106653
-0.014739
-0.0203794
-0.0181271
-0.0116369
-0.00976857
-0.0101434
-0.0088391
-0.0117623
-0.0175207
-0.0153211
-0.00923742
-0.00847713
-0.00850067
-0.00783902
-0.0105059
-0.0144601
-0.0127384
-0.00843528
-0.00858448
-0.00777161
-0.00803287
-0.0115754
-0.0126593
-0.0140165
-0.00868914
-0.00907289
-0.00822142
-0.00891712
-0.0144358
-0.014822
-0.0175354
-0.00922603
-0.00973429
-0.00916693
-0.00995558
-0.0179912
-0.0183344
-0.0200462
-0.00994419
-0.0107411
-0.0102314
-0.0111489
-0.0207494
-0.0203597
-0.0210315
-0.0110788
-0.0123752
-0.0114887
-0.012726
-0.0224953
-0.023481
-0.0272891
-0.0126249
-0.0108504
-0.0145944
-0.0137701
-0.0210491
-0.0277592
-0.0279772
-0.0103868
-0.00929491
-0.0133813
-0.011906
-0.0180762
-0.027419
-0.0237899
-0.00896254
-0.00815978
-0.0112633
-0.0093624
-0.0129818
-0.0159574
-0.0197899
-0.0119891
-0.0185024
-0.0113562
-0.0138405
-0.0121988
-0.0144039
-0.0161002
-0.0107706
-0.0158368
-0.0110204
-0.0120296
-0.0183215
-0.0148834
-0.0158131
-0.00944749
-0.0102196
-0.00969083
-0.0103305
-0.0201169
-0.016039
-0.0161538
-0.0104684
-0.0112645
-0.0105367
-0.0113057
-0.0200805
-0.0160722
-0.0157464
-0.0115617
-0.0126763
-0.0116376
-0.0128787
-0.0252629
-0.0159257
-0.0173154
-0.0152079
-0.0136818
-0.0123063
-0.0109704
-0.0257084
-0.0183482
-0.0204518
-0.0131113
-0.0113819
-0.0104601
-0.00903274
-0.0223028
-0.0201358
-0.0175649
-0.0107504
-0.0089979
-0.00861444
-0.00785896
-0.0124817
-0.0186482
-0.0190121
-0.0141345
-0.0179214
-0.0128472
-0.0132109
-0.0106904
-0.0134819
-0.0149773
-0.011046
-0.0144603
-0.0108836
-0.010843
-0.014959
-0.0132435
-0.0140227
-0.00950228
-0.0101475
-0.0102565
-0.0113386
-0.0150844
-0.0142921
-0.014926
-0.010379
-0.0112571
-0.0116936
-0.0128432
-0.0147361
-0.0150946
-0.0155727
-0.0116315
-0.0129881
-0.013274
-0.0146157
-0.0164557
-0.0104623
-0.0131466
-0.0110664
-0.0106118
-0.00964302
-0.0101544
-0.0203725
-0.015131
-0.0170924
-0.0101725
-0.00883534
-0.0100519
-0.00932891
-0.0167552
-0.0167422
-0.0140023
-0.00845969
-0.00795304
-0.00917882
-0.00921551
-0.0133071
-0.0128797
-0.0117162
-0.0080372
-0.00885613
-0.00962745
-0.0107678
-0.0128933
-0.0120384
-0.0133222
-0.00927342
-0.0106427
-0.0114676
-0.0130256
-0.0144365
-0.0141719
-0.0161753
-0.0111204
-0.0123873
-0.0138874
-0.015599
-0.0159319
-0.0171445
-0.0193104
-0.0127964
-0.0140125
-0.0164078