/*--------------------------------*- C++ -*----------------------------------*\
  =========                 |
  \\      /  F ield         | OpenFOAM: The Open Source CFD Toolbox
   \\    /   O peration     | Website:  https://openfoam.org
    \\  /    A nd           | Version:  10
     \\/     M anipulation  |
\*---------------------------------------------------------------------------*/
FoamFile
{
    format      ascii;
    class       volScalarField;
    location    "4.6";
    object      turbidity_0;
}
// * * * * * * * * * * * * * * * * * * * * * * * * * * * * * * * * * * * * * //

dimensions      [0 0 0 0 0 0 0];

internalField   nonuniform List<scalar> 
12920
(
-0.0570901
-0.0505873
-0.0515877
-0.0726999
-0.080637
-0.100519
-0.124605
-0.150417
-0.179389
-0.205524
-0.230663
-0.255126
-0.277182
-0.296617
-0.314437
-0.33169
-0.348549
-0.364719
-0.379511
-0.392328
-0.0303645
-0.0473061
-0.061689
-0.0804769
-0.0995796
-0.119117
-0.137766
-0.156403
-0.178972
-0.209047
-0.247245
-0.28953
-0.327755
-0.35743
-0.378721
-0.393383
-0.402704
-0.407817
-0.408893
-0.405703
-0.0507138
-0.0513964
-0.0618227
-0.0899263
-0.106856
-0.123277
-0.150244
-0.17557
-0.210165
-0.243824
-0.282328
-0.320934
-0.356706
-0.386061
-0.409116
-0.425825
-0.435427
-0.436638
-0.431877
-0.426116
-0.0432321
-0.068479
-0.077082
-0.11218
-0.140459
-0.175583
-0.219257
-0.265692
-0.303435
-0.335877
-0.358512
-0.377762
-0.393792
-0.410836
-0.428689
-0.447567
-0.46499
-0.477591
-0.481451
-0.478861
-0.030027
-0.0707754
-0.0791778
-0.0933263
-0.108842
-0.138033
-0.170855
-0.211299
-0.25106
-0.285306
-0.311215
-0.33011
-0.344484
-0.361512
-0.382493
-0.40965
-0.440905
-0.471221
-0.492599
-0.505823
-0.0372423
-0.0519551
-0.0645362
-0.0723734
-0.0814628
-0.10025
-0.13991
-0.185316
-0.230969
-0.263893
-0.276028
-0.283972
-0.290259
-0.302234
-0.321381
-0.351766
-0.39281
-0.438322
-0.476144
-0.50637
-0.106658
-0.0817982
-0.0634502
-0.089529
-0.111485
-0.142871
-0.195214
-0.228936
-0.237676
-0.233992
-0.216746
-0.21447
-0.214645
-0.22117
-0.238504
-0.268655
-0.312241
-0.367147
-0.426304
-0.484035
-0.0513572
-0.0612219
-0.0681486
-0.0934924
-0.126085
-0.159876
-0.170276
-0.18535
-0.175159
-0.141175
-0.121755
-0.112498
-0.111954
-0.114691
-0.136472
-0.163256
-0.192733
-0.229195
-0.275389
-0.332814
-0.0157037
-0.044389
-0.0672923
-0.121202
-0.163808
-0.160462
-0.163032
-0.162071
-0.146373
-0.113206
-0.0937535
-0.087706
-0.089902
-0.0947492
-0.109941
-0.141519
-0.163454
-0.18703
-0.217867
-0.260398
-0.0429286
-0.0528595
-0.0747808
-0.116924
-0.153194
-0.145057
-0.137041
-0.119945
-0.106348
-0.096186
-0.0910958
-0.0946983
-0.103522
-0.11311
-0.131152
-0.150702
-0.168434
-0.187268
-0.209252
-0.239306
-0.0342371
-0.0430434
-0.0551856
-0.0768033
-0.103582
-0.109793
-0.112755
-0.107732
-0.103711
-0.0983322
-0.0963427
-0.108614
-0.130392
-0.149643
-0.16872
-0.17128
-0.177436
-0.186978
-0.204324
-0.228512
-0.0492203
-0.0440036
-0.0537113
-0.0804225
-0.112104
-0.109401
-0.108894
-0.108346
-0.117006
-0.119848
-0.127384
-0.151861
-0.177764
-0.19943
-0.226248
-0.240167
-0.232935
-0.222064
-0.222112
-0.236426
-0.0286828
-0.0465135
-0.0627399
-0.0856094
-0.109429
-0.123392
-0.119782
-0.122275
-0.137055
-0.157745
-0.179811
-0.203796
-0.231423
-0.259488
-0.319396
-0.339264
-0.334212
-0.314547
-0.295335
-0.290582
-0.0385336
-0.048603
-0.0665975
-0.0896237
-0.107889
-0.120872
-0.136635
-0.15049
-0.171016
-0.192698
-0.220582
-0.252811
-0.290581
-0.330772
-0.368975
-0.40185
-0.423857
-0.430158
-0.416966
-0.400019
-0.0716635
-0.0655889
-0.0653109
-0.0807441
-0.0827309
-0.0877932
-0.0983303
-0.110211
-0.130075
-0.156607
-0.191131
-0.233056
-0.28132
-0.330796
-0.372101
-0.407988
-0.438301
-0.461295
-0.47166
-0.473138
-0.0321721
-0.062754
-0.0651758
-0.0782115
-0.0856901
-0.0920523
-0.103041
-0.117216
-0.139734
-0.167811
-0.200455
-0.245346
-0.299096
-0.35423
-0.402772
-0.441863
-0.473364
-0.498295
-0.515529
-0.526237
-0.0299213
-0.0582468
-0.0696351
-0.0798935
-0.0876322
-0.0962079
-0.109297
-0.131284
-0.163022
-0.203461
-0.247563
-0.290087
-0.331253
-0.372591
-0.416903
-0.461233
-0.500209
-0.52859
-0.547936
-0.561603
-0.0139864
-0.0399595
-0.050294
-0.0716143
-0.0899684
-0.101891
-0.110051
-0.123531
-0.148259
-0.191849
-0.241108
-0.275757
-0.302261
-0.332976
-0.374704
-0.427722
-0.482795
-0.526496
-0.556664
-0.579523
-0.0291956
-0.0343378
-0.0459136
-0.0693972
-0.0955629
-0.11925
-0.143379
-0.168504
-0.196467
-0.224992
-0.239185
-0.235916
-0.23843
-0.250901
-0.274712
-0.309564
-0.358706
-0.414362
-0.466579
-0.515018
-0.0137945
-0.0250568
-0.0401643
-0.0616766
-0.091072
-0.113727
-0.137804
-0.153951
-0.171804
-0.176874
-0.178679
-0.178371
-0.183233
-0.192759
-0.203844
-0.214018
-0.231042
-0.255359
-0.280644
-0.311894
-0.0177785
-0.0112013
-0.00622427
-0.00671133
-0.00953313
-0.015375
-0.0244224
-0.0357213
-0.0516911
-0.0643051
-0.0751928
-0.0747143
-0.0690897
-0.0577832
-0.0484341
-0.0417657
-0.037626
-0.0366862
-0.0412866
-0.0508957
-0.0207276
-0.0129208
-0.0153924
-0.0242044
-0.0277262
-0.0250352
-0.0332666
-0.0431169
-0.0649717
-0.0805306
-0.0924751
-0.0888508
-0.0797889
-0.067753
-0.0577378
-0.0457284
-0.0351934
-0.0261592
-0.0208774
-0.0204031
-0.0184073
-0.00857815
-0.00889987
-0.0117305
-0.0139307
-0.0172241
-0.0258538
-0.035628
-0.0544035
-0.0657696
-0.077524
-0.0764574
-0.0743591
-0.0668493
-0.0610924
-0.0503015
-0.0397973
-0.0321444
-0.0286143
-0.0292655
-0.0252825
-0.0157647
-0.0130999
-0.0251451
-0.0298361
-0.0362531
-0.0409482
-0.040183
-0.0497744
-0.0608933
-0.0770468
-0.0900873
-0.101472
-0.10646
-0.106065
-0.0979921
-0.0825953
-0.0654352
-0.0537398
-0.0492541
-0.0249235
-0.0175664
-0.0182364
-0.0316732
-0.0395411
-0.0400785
-0.04088
-0.0346465
-0.0384697
-0.0479074
-0.0604091
-0.0750802
-0.0906361
-0.103322
-0.111987
-0.112528
-0.10335
-0.0903217
-0.0788612
-0.0731352
-0.0165419
-0.0114485
-0.0105066
-0.0104005
-0.0125144
-0.0174902
-0.0249632
-0.0284356
-0.0376581
-0.0389228
-0.0396269
-0.0439309
-0.0515669
-0.0622091
-0.0737603
-0.0828911
-0.0838068
-0.0778095
-0.0709298
-0.0685701
-0.0244481
-0.0233243
-0.0103744
-0.0142397
-0.0181997
-0.024492
-0.0397881
-0.0433607
-0.043799
-0.0392722
-0.0345299
-0.0322431
-0.033317
-0.0373085
-0.0445439
-0.054098
-0.0655617
-0.0725702
-0.0724552
-0.0719259
-0.0236084
-0.0162607
-0.0148934
-0.0186185
-0.0319435
-0.0326352
-0.0471964
-0.0439986
-0.0367505
-0.0317189
-0.0288064
-0.0280302
-0.0299262
-0.0347581
-0.0356798
-0.038075
-0.0417142
-0.0488084
-0.057639
-0.0653209
-0.0135527
-0.0170247
-0.0120407
-0.0276996
-0.0446323
-0.0405009
-0.0546133
-0.0703985
-0.0523989
-0.0464407
-0.035389
-0.0302258
-0.0374786
-0.0505486
-0.0564006
-0.04697
-0.0496729
-0.052965
-0.0588418
-0.0651278
-0.0352596
-0.00718934
-0.00965634
-0.0305548
-0.0539098
-0.0458121
-0.065847
-0.0719995
-0.0723134
-0.0649526
-0.0523351
-0.0516663
-0.0639786
-0.0710052
-0.0519897
-0.0365569
-0.0402568
-0.048001
-0.0598352
-0.0687892
-0.00530441
-0.00579862
-0.0129372
-0.0236856
-0.0525825
-0.0520477
-0.0571611
-0.0559121
-0.0643407
-0.0652434
-0.0527423
-0.0482392
-0.0533278
-0.0521431
-0.037267
-0.0278651
-0.028979
-0.0338654
-0.0425296
-0.0519227
-0.0101668
-0.00512614
-0.00975242
-0.016789
-0.0333154
-0.0310438
-0.0331137
-0.0449199
-0.0675492
-0.0615215
-0.0481177
-0.0379952
-0.0393241
-0.0448539
-0.0451916
-0.0380286
-0.0353848
-0.0358095
-0.0399042
-0.0455118
-0.00743681
-0.00536711
-0.0106666
-0.0159312
-0.0243494
-0.0235843
-0.0268927
-0.0409614
-0.0525148
-0.0427051
-0.0328504
-0.0338849
-0.040248
-0.0532941
-0.0597214
-0.0599616
-0.0544475
-0.0506701
-0.0496054
-0.0513968
-0.0100157
-0.00583456
-0.00693785
-0.0101174
-0.0127633
-0.0127426
-0.0138487
-0.014723
-0.0183804
-0.0236718
-0.0324813
-0.0430258
-0.0494152
-0.0554169
-0.0604999
-0.0670038
-0.070659
-0.071507
-0.0707105
-0.0713796
-0.0247157
-0.0184584
-0.00866293
-0.00676678
-0.0057465
-0.00555388
-0.00611728
-0.00825039
-0.0132966
-0.0228517
-0.0374757
-0.0521028
-0.0561701
-0.0513454
-0.0479022
-0.0499819
-0.0565574
-0.0670082
-0.078627
-0.0858824
-0.0181687
-0.0221445
-0.0121244
-0.00983907
-0.00818116
-0.00764849
-0.00836897
-0.0137774
-0.0247385
-0.0415905
-0.0625714
-0.0768186
-0.07876
-0.0704917
-0.062901
-0.0594511
-0.0598931
-0.0636913
-0.0710754
-0.0772834
-0.0188653
-0.0148473
-0.0162045
-0.0204666
-0.0258545
-0.0281578
-0.036943
-0.0479477
-0.064138
-0.0753177
-0.0826272
-0.0826925
-0.083711
-0.0841645
-0.0856048
-0.0808894
-0.0714724
-0.0617859
-0.0563387
-0.0554853
-0.00644435
-0.00440663
-0.00637679
-0.0134629
-0.0230578
-0.0309036
-0.04238
-0.0580064
-0.0785141
-0.0828445
-0.0672287
-0.0554996
-0.0596157
-0.0723915
-0.0928064
-0.105259
-0.102243
-0.0888141
-0.0766018
-0.0672329
-0.00181656
-0.00321315
-0.00790139
-0.016553
-0.0274359
-0.040928
-0.0602951
-0.0761587
-0.0829142
-0.0633442
-0.0426564
-0.033664
-0.0354435
-0.0442892
-0.0641996
-0.0915019
-0.110969
-0.105973
-0.0953937
-0.0902762
-0.00062903
-0.00532951
-0.0157182
-0.0217191
-0.035757
-0.037817
-0.0476019
-0.0498765
-0.0482388
-0.0407981
-0.0345098
-0.0308855
-0.0299809
-0.0308507
-0.0340741
-0.042452
-0.0592381
-0.0859875
-0.120057
-0.157692
-0.0144081
-0.00670994
-0.00506898
-0.00511219
-0.00719437
-0.012184
-0.0191904
-0.0257359
-0.0321192
-0.0348605
-0.036261
-0.0332088
-0.0292714
-0.0244543
-0.0205403
-0.0175213
-0.0155988
-0.014923
-0.0156492
-0.0178126
-0.00847482
-0.00564859
-0.00843971
-0.0120209
-0.0141079
-0.0170991
-0.0230244
-0.0280022
-0.0340922
-0.032845
-0.0296123
-0.0217576
-0.0164582
-0.0130229
-0.0119628
-0.0117393
-0.0126933
-0.0145846
-0.0172196
-0.0203771
-0.0088385
-0.00426548
-0.00536695
-0.00704073
-0.00879435
-0.0111377
-0.0149037
-0.017722
-0.0220677
-0.0219386
-0.0229845
-0.0205751
-0.019747
-0.018311
-0.0181509
-0.0181182
-0.0193936
-0.0220425
-0.0258866
-0.0307767
-0.0118659
-0.00774165
-0.00672741
-0.00877611
-0.0105799
-0.0130152
-0.0156403
-0.0172327
-0.0212511
-0.0247347
-0.0297048
-0.0327682
-0.0354234
-0.0352218
-0.0340725
-0.0318475
-0.0303355
-0.0309125
-0.0338454
-0.0384318
-0.0106006
-0.0088654
-0.00996722
-0.0149015
-0.0175889
-0.0167954
-0.0179311
-0.019156
-0.0226498
-0.0274299
-0.0321995
-0.0372819
-0.0415306
-0.0437358
-0.0437645
-0.0412359
-0.038015
-0.0364442
-0.037304
-0.0401625
-0.00622722
-0.00426507
-0.00521837
-0.00628303
-0.00780497
-0.0109857
-0.0150331
-0.0169975
-0.0186126
-0.0198697
-0.021289
-0.0244237
-0.0276754
-0.0309044
-0.03296
-0.0336654
-0.0328032
-0.0319503
-0.0323199
-0.0342069
-0.00517261
-0.00613653
-0.00558447
-0.00805064
-0.0105567
-0.0137488
-0.0166275
-0.0169747
-0.0154132
-0.0151568
-0.0148989
-0.0160163
-0.0178491
-0.0205842
-0.0238677
-0.0270556
-0.0297741
-0.0311956
-0.0317691
-0.0327949
-0.00551481
-0.00719078
-0.00723292
-0.00817036
-0.0108962
-0.0128864
-0.0161016
-0.0148024
-0.0127325
-0.0117028
-0.0117693
-0.0124109
-0.013383
-0.0147168
-0.0176908
-0.0214484
-0.0255217
-0.0296471
-0.0333705
-0.0364553
-0.0140794
-0.00866816
-0.00578814
-0.00938135
-0.0120816
-0.0141506
-0.0176091
-0.0192233
-0.013711
-0.0112382
-0.0105283
-0.0121711
-0.015302
-0.018821
-0.0194461
-0.0214223
-0.0259541
-0.0307133
-0.0353912
-0.039125
-0.0221311
-0.00564482
-0.0058999
-0.0115182
-0.0177391
-0.0171439
-0.0223659
-0.0219145
-0.0205011
-0.0168854
-0.0143132
-0.0159547
-0.0190071
-0.0201876
-0.0179754
-0.0196512
-0.0242928
-0.0300258
-0.0358177
-0.0390703
-0.00648975
-0.00623305
-0.00799033
-0.0112423
-0.0232956
-0.0193215
-0.0238262
-0.0254313
-0.0253058
-0.0201329
-0.0140035
-0.0139623
-0.0151249
-0.0149939
-0.0143497
-0.0183278
-0.0221251
-0.0269023
-0.0318141
-0.0352712
-0.0141975
-0.00375798
-0.00517589
-0.00848766
-0.0111648
-0.0115057
-0.0125476
-0.0180788
-0.0198182
-0.0156822
-0.0128989
-0.0132112
-0.0148607
-0.0162308
-0.0182613
-0.0218324
-0.0240757
-0.0271821
-0.0307011
-0.0335355
-0.00230617
-0.00278175
-0.00438114
-0.00655095
-0.00800958
-0.0080919
-0.00987031
-0.0141533
-0.0138447
-0.0118105
-0.0124645
-0.0149242
-0.0180604
-0.0218266
-0.0257856
-0.0278306
-0.0294897
-0.0312901
-0.0332752
-0.0352683
-0.00469637
-0.00471972
-0.00364729
-0.00389253
-0.00401855
-0.00439031
-0.00546845
-0.00680184
-0.00894407
-0.0116549
-0.0148013
-0.0178005
-0.0201964
-0.0231359
-0.0262398
-0.0292982
-0.0319078
-0.033955
-0.0355785
-0.0371625
-0.0170291
-0.00906982
-0.00432143
-0.00319488
-0.00292143
-0.00325408
-0.00415412
-0.00647655
-0.00963619
-0.0138036
-0.0179201
-0.0208124
-0.0208286
-0.0199819
-0.0202466
-0.0218841
-0.0245903
-0.0278253
-0.0311541
-0.0337361
-0.0340641
-0.0243544
-0.00898916
-0.00426384
-0.00364858
-0.00429879
-0.00593109
-0.0104121
-0.0159135
-0.0218855
-0.0281215
-0.0302469
-0.028527
-0.0248273
-0.0223868
-0.0213905
-0.021582
-0.022596
-0.0245483
-0.0267626
-0.00908364
-0.006765
-0.00608452
-0.0078682
-0.0104733
-0.0123537
-0.0180424
-0.0235839
-0.0309531
-0.0338232
-0.0352775
-0.0334415
-0.0319305
-0.0294771
-0.0272282
-0.0244798
-0.0223057
-0.0213017
-0.0216673
-0.0231179
-0.00222317
-0.0027864
-0.00490752
-0.00873713
-0.0136991
-0.0195642
-0.0294979
-0.0392396
-0.0466349
-0.0396666
-0.0304649
-0.0265001
-0.0270083
-0.0281564
-0.0300428
-0.0297295
-0.0277204
-0.0257713
-0.0256634
-0.0254438
-0.000253904
-0.00242334
-0.00662664
-0.0143953
-0.0226429
-0.030973
-0.0407046
-0.0412312
-0.0358333
-0.0231654
-0.0187799
-0.0197155
-0.0238957
-0.0290326
-0.0351689
-0.0410222
-0.044665
-0.0448993
-0.0478754
-0.0467537
-0.000240247
-0.0019977
-0.00650691
-0.0136262
-0.0235835
-0.0247853
-0.0273846
-0.0239276
-0.0212651
-0.017051
-0.0153628
-0.0160165
-0.0196544
-0.0271635
-0.0384922
-0.0525771
-0.0691031
-0.0894959
-0.115954
-0.142076
-0.00656288
-0.00708688
-0.00599331
-0.00523314
-0.00655074
-0.0106909
-0.0154286
-0.0186208
-0.0212257
-0.0215364
-0.0211992
-0.018962
-0.0164861
-0.0137788
-0.0115766
-0.00994666
-0.00900424
-0.00874996
-0.0091675
-0.0104472
-0.00376237
-0.00498263
-0.00687654
-0.00864886
-0.0104246
-0.0117136
-0.013502
-0.0129225
-0.0131101
-0.0108558
-0.0099368
-0.00931876
-0.00985226
-0.0110763
-0.0128057
-0.014983
-0.0173713
-0.0197961
-0.022091
-0.0241155
-0.00569808
-0.00398693
-0.00461464
-0.00607645
-0.00726767
-0.0080657
-0.00901168
-0.00915016
-0.00994572
-0.00981187
-0.0107214
-0.0114631
-0.0130223
-0.0148489
-0.0171436
-0.0196813
-0.0223148
-0.0248323
-0.0270454
-0.02873
-0.00285936
-0.00351775
-0.00469032
-0.00595569
-0.00730129
-0.00855681
-0.0100354
-0.0106694
-0.012217
-0.0132744
-0.0150804
-0.0163004
-0.0178488
-0.0190319
-0.0205215
-0.0221505
-0.0240238
-0.0259534
-0.0276958
-0.0290031
-0.00652906
-0.00744149
-0.00726469
-0.00840577
-0.00954167
-0.0105009
-0.0120101
-0.0129463
-0.014318
-0.0160201
-0.0177528
-0.0192516
-0.0204848
-0.0210836
-0.0214543
-0.021641
-0.022144
-0.0230837
-0.0242929
-0.0255803
-0.0030639
-0.00423182
-0.00446479
-0.00493324
-0.00644948
-0.00909383
-0.0108722
-0.0115479
-0.0120096
-0.013144
-0.0142432
-0.0157929
-0.0169527
-0.0177371
-0.0181285
-0.0183355
-0.0184449
-0.0187907
-0.0194504
-0.0204769
-0.0033194
-0.00357915
-0.00425404
-0.00598157
-0.00794919
-0.00947263
-0.00921025
-0.00979948
-0.00945347
-0.0105594
-0.0114476
-0.01299
-0.0143824
-0.0156504
-0.0166442
-0.0172467
-0.0176861
-0.0178855
-0.0181685
-0.0188619
-0.00470122
-0.00509709
-0.00544199
-0.00581914
-0.00700559
-0.00817401
-0.00853018
-0.00817191
-0.00766499
-0.00777223
-0.00834123
-0.00945212
-0.0111326
-0.013314
-0.016224
-0.0177431
-0.0188545
-0.0196657
-0.0203048
-0.0209416
-0.0138097
-0.00527306
-0.00416543
-0.00551315
-0.00622809
-0.00816628
-0.00857168
-0.0079909
-0.006719
-0.0066208
-0.00720842
-0.0081077
-0.00922275
-0.0108293
-0.0145598
-0.0187413
-0.0208144
-0.0221607
-0.0228214
-0.0227533
-0.0318866
-0.00724094
-0.00434802
-0.00600774
-0.00659351
-0.0079028
-0.0089607
-0.00803912
-0.00716321
-0.0069242
-0.00757749
-0.00866854
-0.00985402
-0.0112386
-0.0145242
-0.0189674
-0.0211953
-0.0225667
-0.0229329
-0.021919
-0.00397214
-0.00410319
-0.00500429
-0.00661206
-0.00907389
-0.0086542
-0.0102984
-0.00969421
-0.00831373
-0.00740466
-0.00790906
-0.00874314
-0.00990548
-0.0117767
-0.0151398
-0.0185959
-0.0205962
-0.0219163
-0.0224955
-0.0222031
-0.00350032
-0.00331522
-0.00412458
-0.00542316
-0.00565899
-0.00575117
-0.00628125
-0.00703079
-0.00667386
-0.00679209
-0.00767261
-0.00919475
-0.0113321
-0.0138678
-0.0168752
-0.0189257
-0.0203264
-0.0213377
-0.022
-0.022481
-0.00116332
-0.00186987
-0.00300514
-0.00418101
-0.00458075
-0.0049309
-0.00566983
-0.00659524
-0.00700329
-0.00785093
-0.00908085
-0.0108125
-0.0129984
-0.0156586
-0.017705
-0.0191606
-0.0203659
-0.0214073
-0.0224465
-0.023728
-0.00258038
-0.00327774
-0.00258293
-0.00285115
-0.00324898
-0.00406052
-0.00520473
-0.00653485
-0.00771002
-0.00888865
-0.00999081
-0.0110759
-0.0124288
-0.0140945
-0.0158142
-0.0175216
-0.0192728
-0.0210216
-0.022811
-0.0247958
-0.010421
-0.00370912
-0.00250667
-0.00269573
-0.00303977
-0.00404952
-0.00539883
-0.00735463
-0.00887397
-0.0101521
-0.0107947
-0.0110637
-0.0111422
-0.0116676
-0.0128991
-0.0145323
-0.0164845
-0.0185673
-0.0207322
-0.0228434
-0.00884906
-0.0061814
-0.00284559
-0.00285161
-0.00337033
-0.00517148
-0.00726064
-0.0100069
-0.01206
-0.0132563
-0.0140939
-0.0133832
-0.0125575
-0.0120645
-0.0125081
-0.0135902
-0.0150612
-0.0167156
-0.0185334
-0.0204238
-0.00350689
-0.00418129
-0.00481077
-0.00554406
-0.00724155
-0.00948723
-0.0126246
-0.0150063
-0.0170773
-0.0165248
-0.015932
-0.0143365
-0.0136679
-0.0133353
-0.013703
-0.0144368
-0.0155238
-0.0168608
-0.0182728
-0.0198917
-0.00116569
-0.00285195
-0.00529501
-0.00684374
-0.0106084
-0.0149782
-0.0212515
-0.0226728
-0.0229616
-0.0175737
-0.0144079
-0.0133495
-0.0135463
-0.0140496
-0.0149099
-0.0156605
-0.0165127
-0.0175959
-0.0187925
-0.0196271
-0.000317655
-0.0034353
-0.00790916
-0.0122637
-0.0167553
-0.0190216
-0.0221502
-0.0178319
-0.0149354
-0.0126699
-0.013404
-0.0150689
-0.016851
-0.0185965
-0.0210647
-0.0239332
-0.0273469
-0.0314771
-0.0356519
-0.033799
-0.00028667
-0.00213201
-0.00589506
-0.0100456
-0.0151065
-0.0129976
-0.0143065
-0.0118131
-0.0108886
-0.0101828
-0.011603
-0.0157643
-0.0227425
-0.0321564
-0.0431862
-0.0558627
-0.0712319
-0.088231
-0.104655
-0.11331
-0.0017988
-0.00315726
-0.00359649
-0.00449782
-0.00721982
-0.0112361
-0.01373
-0.0139492
-0.0134987
-0.0116411
-0.0101617
-0.00864681
-0.00832719
-0.00896174
-0.0106335
-0.0132443
-0.0167861
-0.0211679
-0.0262021
-0.0311643
-0.00494018
-0.00475159
-0.00573918
-0.00716193
-0.00806817
-0.00827401
-0.00859142
-0.008936
-0.0100696
-0.0117367
-0.0138877
-0.0163271
-0.0186699
-0.0208312
-0.0226458
-0.0242494
-0.025566
-0.0266225
-0.0273935
-0.0277564
-0.00704682
-0.00575149
-0.00549493
-0.00632262
-0.00694377
-0.00751101
-0.00844568
-0.00961029
-0.0111124
-0.0127353
-0.0141869
-0.0154987
-0.0164316
-0.0171508
-0.0176399
-0.0179973
-0.0182864
-0.0185113
-0.018719
-0.0188869
-0.00334301
-0.00339264
-0.00501493
-0.00649236
-0.00745528
-0.00831806
-0.00937684
-0.0103313
-0.0114258
-0.0124086
-0.0133068
-0.0141025
-0.0148342
-0.015501
-0.0161852
-0.0168418
-0.0175184
-0.0181896
-0.0188224
-0.0194231
-0.0043079
-0.00533732
-0.00620663
-0.0072401
-0.00839859
-0.00917397
-0.00994238
-0.0106631
-0.011448
-0.0122193
-0.012966
-0.0136525
-0.0144193
-0.0151559
-0.0160141
-0.0169168
-0.017935
-0.0189962
-0.0200526
-0.0209974
-0.00128349
-0.00373751
-0.00427628
-0.0058809
-0.00784529
-0.00897308
-0.00942468
-0.010104
-0.0108482
-0.0116725
-0.0124894
-0.0133389
-0.0142904
-0.0153128
-0.0164909
-0.0177275
-0.018998
-0.0202304
-0.0213698
-0.0222648
-0.000644132
-0.00293333
-0.00439344
-0.00610532
-0.00746818
-0.00823314
-0.00838187
-0.00960936
-0.0104457
-0.0114716
-0.0124229
-0.0134323
-0.0144976
-0.0156232
-0.0168147
-0.0180541
-0.0192353
-0.0203079
-0.0211812
-0.0217792
-0.00386849
-0.00325597
-0.00386791
-0.00480328
-0.00588016
-0.00691451
-0.00700718
-0.00834297
-0.00894772
-0.00997018
-0.010954
-0.0119644
-0.0128453
-0.0137747
-0.0159725
-0.0169524
-0.017858
-0.0185963
-0.0191133
-0.0194135
-0.00708516
-0.0032743
-0.00346344
-0.00462718
-0.00547416
-0.00656601
-0.00665302
-0.00672749
-0.00734448
-0.00837805
-0.009696
-0.0110718
-0.0122141
-0.0129161
-0.0134109
-0.0151466
-0.0160026
-0.0166147
-0.0170237
-0.0171978
-0.0146846
-0.00819165
-0.00426221
-0.00452599
-0.00522117
-0.0056488
-0.00588031
-0.00604911
-0.00699141
-0.0083917
-0.0098526
-0.0113152
-0.0125725
-0.0133333
-0.0129093
-0.0143255
-0.0152329
-0.0160318
-0.0166738
-0.0170363
-0.00547489
-0.00413093
-0.00407323
-0.00485915
-0.00562645
-0.00592108
-0.0061309
-0.00641074
-0.00725045
-0.0084083
-0.00978477
-0.0116154
-0.0130829
-0.0136889
-0.0132515
-0.0146147
-0.0156393
-0.0166967
-0.0177317
-0.0185365
-0.00223036
-0.00312014
-0.00383187
-0.00456822
-0.00502943
-0.00538814
-0.00553365
-0.00589881
-0.0066916
-0.00797429
-0.00979947
-0.0117153
-0.0130867
-0.0136947
-0.0138063
-0.0161146
-0.0172393
-0.0184147
-0.0195139
-0.0204187
-0.000611436
-0.00195114
-0.00272233
-0.00377976
-0.0044763
-0.00522355
-0.00558368
-0.00672879
-0.00794682
-0.0095052
-0.0110209
-0.0123937
-0.0134891
-0.0143954
-0.0178875
-0.0192362
-0.0205566
-0.0219097
-0.023097
-0.0241484
-0.000551788
-0.000988342
-0.00204286
-0.00330662
-0.0043322
-0.00537318
-0.00635704
-0.00754053
-0.00899692
-0.0106539
-0.0124903
-0.0144078
-0.0162908
-0.0181386
-0.0199363
-0.0217331
-0.023474
-0.0252658
-0.0269924
-0.0286169
-0.00709692
-0.00123368
-0.00182887
-0.00317032
-0.00450454
-0.00583859
-0.00671514
-0.00778574
-0.0089875
-0.0106425
-0.0124923
-0.0146063
-0.0167608
-0.0189156
-0.0209166
-0.022831
-0.0246126
-0.0263203
-0.0278964
-0.0291907
-0.00292891
-0.00220615
-0.00250139
-0.00392625
-0.00540051
-0.00685079
-0.00775707
-0.00882481
-0.0099312
-0.0113784
-0.0131218
-0.0152136
-0.0174306
-0.0197604
-0.0218774
-0.0238252
-0.025502
-0.0269466
-0.027993
-0.0286356
-0.00362775
-0.00559174
-0.005795
-0.00647014
-0.00756822
-0.00860193
-0.00951455
-0.0101756
-0.0112036
-0.0122354
-0.0138472
-0.0158032
-0.0180047
-0.0203643
-0.0227504
-0.0251511
-0.0274558
-0.0296008
-0.0313931
-0.0326396
-0.00070374
-0.0028842
-0.00514266
-0.00736069
-0.00951023
-0.0104314
-0.0120026
-0.0116473
-0.0122449
-0.0124883
-0.0136291
-0.015184
-0.0168744
-0.0187591
-0.0208219
-0.0231845
-0.0257493
-0.0284741
-0.031198
-0.0335032
-0.000387288
-0.00354653
-0.00638152
-0.00849283
-0.00971371
-0.00975357
-0.0109615
-0.0111874
-0.0124665
-0.0140533
-0.0157032
-0.017375
-0.0189631
-0.0207505
-0.0227107
-0.0250314
-0.0273788
-0.0297425
-0.0313663
-0.0313621
-0.00461013
-0.0036156
-0.00492764
-0.00608212
-0.00747442
-0.00680882
-0.00777156
-0.00796078
-0.00978303
-0.0127404
-0.0170376
-0.0218222
-0.0268783
-0.0320349
-0.0376724
-0.0440742
-0.0515935
-0.05904
-0.0662967
-0.066973
-0.0145454
-0.0215344
-0.0173327
-0.00802972
-0.00824155
-0.00907945
-0.00875703
-0.0152717
-0.0161707
-0.0147869
-0.00843684
-0.00918584
-0.0088506
-0.00944316
-0.0149975
-0.0165436
-0.014031
-0.00887553
-0.00873689
-0.00782599
-0.0083561
-0.0136422
-0.0135349
-0.0131022
-0.00882802
-0.0093038
-0.00868795
-0.00985526
-0.162517
-0.147429
-0.131345
-0.161426
-0.161817
-0.144741
-0.131886
-0.153711
-0.126662
-0.114007
-0.159968
-0.144862
-0.127524
-0.11452
-0.120655
-0.11015
-0.100057
-0.135733
-0.11177
-0.110658
-0.100997
-0.0971976
-0.0972899
-0.0915489
-0.106236
-0.0943735
-0.0983182
-0.0925984
-0.0882347
-0.0906486
-0.0911727
-0.0916195
-0.0877492
-0.0917184
-0.0928598
-0.0889195
-0.0922526
-0.0971214
-0.0879151
-0.0916544
-0.0943463
-0.10074
-0.093527
-0.0990431
-0.10514
-0.0934937
-0.0992187
-0.103109
-0.109741
-0.0982275
-0.10717
-0.11257
-0.100909
-0.104839
-0.111513
-0.114457
-0.123994
-0.125382
-0.112272
-0.133481
-0.123418
-0.12184
-0.111854
-0.109375
-0.109701
-0.104045
-0.119919
-0.110412
-0.10944
-0.10418
-0.0984214
-0.102559
-0.0977849
-0.107622
-0.100093
-0.102734
-0.0981946
-0.0916117
-0.096107
-0.0932739
-0.0979143
-0.0936996
-0.0968617
-0.0959461
-0.0930674
-0.0937002
-0.0998946
-0.093419
-0.096369
-0.0970936
-0.105043
-0.101144
-0.103411
-0.116657
-0.0983303
-0.105466
-0.108731
-0.120159
-0.110792
-0.121492
-0.134852
-0.107915
-0.114469
-0.12363
-0.131064
-0.119056
-0.138575
-0.146496
-0.116117
-0.117848
-0.131997
-0.125918
-0.109105
-0.110397
-0.107582
-0.109765
-0.107408
-0.104255
-0.100932
-0.104507
-0.107611
-0.111156
-0.106239
-0.103916
-0.102967
-0.111753
-0.0999801
-0.112736
-0.11363
-0.103118
-0.0992509
-0.113286
-0.112263
-0.0956408
-0.11279
-0.113135
-0.0979511
-0.097529
-0.111414
-0.114024
-0.104256
-0.115863
-0.131763
-0.0989406
-0.108849
-0.117316
-0.131613
-0.124662
-0.13856
-0.158802
-0.113338
-0.126657
-0.13706
-0.151371
-0.145588
-0.165219
-0.181854
-0.130548
-0.137972
-0.155545
-0.164161
-0.157937
-0.186518
-0.19669
-0.138286
-0.128679
-0.165097
-0.157516
-0.10748
-0.11236
-0.113421
-0.0971894
-0.101057
-0.102082
-0.0974656
-0.114586
-0.115741
-0.125086
-0.104707
-0.115941
-0.105402
-0.124103
-0.11991
-0.130021
-0.141593
-0.118256
-0.119417
-0.129121
-0.13885
-0.123377
-0.146984
-0.15979
-0.119353
-0.123796
-0.142868
-0.150164
-0.14509
-0.166421
-0.181588
-0.127356
-0.140974
-0.154228
-0.16528
-0.171453
-0.189464
-0.20708
-0.14614
-0.159839
-0.173268
-0.192471
-0.19446
-0.215495
-0.233074
-0.164714
-0.176874
-0.201706
-0.220504
-0.210821
-0.241169
-0.256605
-0.179458
-0.176015
-0.228037
-0.239386
-0.0708464
-0.0664393
-0.07498
-0.0371719
-0.0362599
-0.0355074
-0.030931
-0.0558573
-0.0739096
-0.069253
-0.0345313
-0.0274514
-0.0293666
-0.0257898
-0.0481566
-0.0680675
-0.0623163
-0.0248883
-0.01957
-0.024932
-0.0221236
-0.0386055
-0.0592392
-0.0487747
-0.0184047
-0.0165791
-0.0210287
-0.0186209
-0.0302449
-0.0457065
-0.0431008
-0.0164669
-0.0175323
-0.0183701
-0.0194602
-0.0350486
-0.0447806
-0.0548217
-0.0182393
-0.0207681
-0.0202772
-0.0233077
-0.0470948
-0.0584946
-0.0671183
-0.0216377
-0.0241005
-0.0242957
-0.0265194
-0.0613535
-0.0685485
-0.0691123
-0.024839
-0.0268905
-0.0269167
-0.0274325
-0.0719781
-0.0567437
-0.0643457
-0.0368666
-0.0321021
-0.0394171
-0.0381067
-0.0725992
-0.0657311
-0.0698306
-0.0310528
-0.0292023
-0.0379289
-0.0371197
-0.0677364
-0.0706526
-0.0699579
-0.0286087
-0.025549
-0.0364692
-0.0325349
-0.0551758
-0.0686641
-0.0611308
-0.0241699
-0.0208463
-0.0307717
-0.0253921
-0.0500376
-0.0578028
-0.0522792
-0.0203271
-0.0208213
-0.023863
-0.0216125
-0.060768
-0.0523744
-0.0563268
-0.0214989
-0.0242314
-0.021763
-0.0232502
-0.0705023
-0.0577946
-0.0595498
-0.0251262
-0.026928
-0.023731
-0.0242578
-0.0684464
-0.0587321
-0.0530997
-0.0271343
-0.0269405
-0.0240396
-0.0225549
-0.0556079
-0.0417915
-0.0413715
-0.0391855
-0.0369319
-0.0331609
-0.0326016
-0.0624409
-0.0446152
-0.0604103
-0.0364951
-0.0352165
-0.0326127
-0.0316004
-0.0660046
-0.063379
-0.0622116
-0.0345485
-0.0309192
-0.0306553
-0.0265537
-0.0564798
-0.0609152
-0.0545277
-0.0292728
-0.0234103
-0.0251455
-0.0221324
-0.0477195
-0.051768
-0.0438432
-0.0219326
-0.0206587
-0.0217789
-0.0225782
-0.052274
-0.0420116
-0.0405342
-0.0211463
-0.0230605
-0.0232145
-0.025055
-0.0533138
-0.041086
-0.0436499
-0.0235164
-0.0236088
-0.0254827
-0.0256342
-0.0474784
-0.0443494
-0.0446138
-0.0232212
-0.0213929
-0.0252735
-0.0231777
-0.0403952
-0.0288273
-0.0343337
-0.0290753
-0.031919
-0.0261007
-0.02887
-0.0645647
-0.0397086
-0.0593986
-0.0323653
-0.0317469
-0.0310639
-0.0322115
-0.0638767
-0.0633748
-0.0603612
-0.0306769
-0.0261772
-0.0314267
-0.0276453
-0.0520246
-0.0531921
-0.0375225
-0.0247955
-0.0223333
-0.0263284
-0.0248185
-0.0392519
-0.0346803
-0.0323248
-0.0222177
-0.0234766
-0.0252895
-0.0270911
-0.0382769
-0.0329726
-0.0362369
-0.024238
-0.0265064
-0.0285973
-0.031886
-0.0434952
-0.0385139
-0.0457629
-0.0271733
-0.028134
-0.0335248
-0.036818
-0.0470697
-0.0501918
-0.0585944
-0.0280379
-0.0263121
-0.0382888
-0.0403128
-0.0204002
-0.0205772
-0.0211137
-0.0132887
-0.0122906
-0.0121864
-0.0106441
-0.0146822
-0.0202791
-0.0180379
-0.0116319
-0.00976422
-0.0101231
-0.00882089
-0.0117356
-0.0174316
-0.015239
-0.00923318
-0.00848108
-0.00848365
-0.00783005
-0.0104952
-0.0143844
-0.0126956
-0.00843933
-0.00859036
-0.00776586
-0.00803359
-0.0115792
-0.0126279
-0.0140144
-0.00869522
-0.00907806
-0.00822301
-0.00891935
-0.0144441
-0.0148249
-0.0175447
-0.00923068
-0.00973771
-0.00916901
-0.00995819
-0.0180018
-0.0183421
-0.0200503
-0.00994779
-0.0107449
-0.0102344
-0.0111544
-0.0207468
-0.0203625
-0.0210381
-0.0110833
-0.0123833
-0.0114951
-0.0127358
-0.02239
-0.023429
-0.0272779
-0.0125924
-0.0108215
-0.0145742
-0.0137501
-0.0209494
-0.0277516
-0.0279556
-0.0103582
-0.00926696
-0.0133622
-0.011885
-0.0179777
-0.0273873
-0.023733
-0.00893599
-0.00814496
-0.0112422
-0.00934912
-0.0129288
-0.0158772
-0.0196941
-0.0119326
-0.0184164
-0.0113096
-0.0137782
-0.0121849
-0.0143806
-0.0160595
-0.0107519
-0.015814
-0.0110095
-0.012006
-0.0183396
-0.0148988
-0.0158315
-0.00944989
-0.0102221
-0.00969791
-0.010337
-0.0201252
-0.016056
-0.0161664
-0.0104713
-0.0112697
-0.0105432
-0.0113135
-0.0200855
-0.0160832
-0.0157543
-0.0115679
-0.0126863
-0.0116461
-0.0128896
-0.0252739
-0.0159177
-0.0173435
-0.015195
-0.0136745
-0.0123064
-0.0109637
-0.0257125
-0.0183765
-0.020443
-0.0131042
-0.0113715
-0.0104523
-0.00902411
-0.0222648
-0.0201177
-0.0175415
-0.0107391
-0.00899032
-0.00860634
-0.00785485
-0.0124617
-0.0185913
-0.018981
-0.0141047
-0.017889
-0.0128213
-0.0131902
-0.0106864
-0.0134786
-0.0149564
-0.0110388
-0.0144475
-0.0108819
-0.0108342
-0.0149708
-0.0132484
-0.0140254
-0.00950854
-0.0101527
-0.0102548
-0.011335
-0.0150909
-0.0142926
-0.0149198
-0.0103842
-0.011264
-0.0116899
-0.0128413
-0.0147397
-0.0150869
-0.0155641
-0.0116392
-0.0129986
-0.0132732
-0.0146181
-0.0165053
-0.0104891
-0.0131866
-0.0110797
-0.0106069
-0.00966332
-0.010162
-0.02036
-0.0151864
-0.0170993
-0.0101656
-0.00882606
-0.0100509
-0.00932319
-0.0167323
-0.0167304
-0.0139669
-0.0084511
-0.007949
-0.00917181
-0.00921287
-0.0132979
-0.012855
-0.0117131
-0.00803443
-0.00885563
-0.00962685
-0.0107709
-0.0128984
-0.0120404
-0.0133305
-0.00927323
-0.0106421
-0.0114709
-0.0130327
-0.0144397
-0.0141813
-0.016186
-0.0111189
-0.0123834
-0.0138913
-0.0156047
-0.015926
-0.0171559
-0.0193165
-0.0127921
-0.0140089