/*--------------------------------*- C++ -*----------------------------------*\
  =========                 |
  \\      /  F ield         | OpenFOAM: The Open Source CFD Toolbox
   \\    /   O peration     | Website:  https://openfoam.org
    \\  /    A nd           | Version:  10
     \\/     M anipulation  |
\*---------------------------------------------------------------------------*/
FoamFile
{
    format      ascii;
    class       volVectorField;
    location    "4.6";
    object      U;
}
// * * * * * * * * * * * * * * * * * * * * * * * * * * * * * * * * * * * * * //

dimensions      [0 1 -1 0 0 0 0];

internalField   nonuniform List<vector> 
12920
(
(193.316 -202.057 49.8771)
(11.1419 -27.2936 2.38591)
(91.518 18.6513 -19.3617)
(-13.944 26.1807 -12.0888)
(65.0175 10.7096 -12.3623)
(22.7672 6.50142 -5.69334)
(63.7875 -0.0445703 -3.80147)
(46.2693 -2.0578 -2.39885)
(69.3591 -5.78921 -0.341539)
(60.8439 -6.38578 -0.0448474)
(73.2715 -7.32878 0.878762)
(70.2148 -6.01555 0.537272)
(78.007 -4.42541 0.519623)
(77.9979 -1.36807 -0.0981826)
(83.1324 0.405658 -0.186626)
(83.3895 1.16527 -0.101829)
(85.5604 1.13099 -0.0478837)
(86.3989 -0.0958544 -0.0811086)
(88.5217 -2.93732 0.0563025)
(87.0486 -4.46129 0.28398)
(161.589 -150.373 37.5795)
(8.88041 24.7026 18.3838)
(74.0607 76.1227 11.7419)
(20.5771 43.121 5.36031)
(69.9826 35.6747 3.77201)
(33.9829 16.4876 0.721393)
(68.9815 9.72944 0.913581)
(50.8148 1.94083 -0.180851)
(69.809 -1.15491 1.34509)
(55.7328 -4.15983 1.12245)
(60.4096 -5.52454 2.17244)
(48.6428 -6.71243 1.50644)
(51.2977 -6.66135 1.26187)
(47.7557 -6.51702 0.920332)
(51.8224 -5.81773 0.931573)
(52.0591 -5.1778 0.655928)
(56.3404 -4.36274 0.573813)
(57.614 -3.6958 0.304077)
(59.7318 -3.3262 -0.0909865)
(55.376 -2.39401 -0.546337)
(54.0273 -242.729 67.9875)
(-122.387 19.9284 -16.3152)
(67.0844 22.1489 -8.59132)
(-39.4933 2.1059 0.245328)
(60.3103 -2.16205 -0.908438)
(1.86964 -2.9753 -0.955516)
(52.6819 -12.4722 -0.143589)
(24.6871 -9.57132 -0.783932)
(50.4378 -13.7033 0.55732)
(34.7309 -9.44125 0.314707)
(45.8496 -9.90344 1.18047)
(36.4833 -7.51067 0.688989)
(42.3072 -8.27523 0.785849)
(39.0426 -7.18115 0.416424)
(43.4431 -7.34033 0.450769)
(43.1622 -6.4218 0.230724)
(47.126 -5.72918 0.13803)
(48.3879 -4.44524 -0.135839)
(50.9932 -3.2872 -0.414908)
(48.3985 -1.84143 -0.8382)
(-84.4595 -46.2213 -100.405)
(-160.563 48.2855 -32.1697)
(54.4587 47.5355 -12.9671)
(-42.2707 29.5244 3.28224)
(58.9848 16.2647 1.91902)
(-1.88093 12.04 1.85612)
(43.8523 -1.50346 1.34557)
(7.53844 -1.48328 0.157564)
(31.6609 -8.38909 0.365486)
(16.0543 -7.11517 0.0480313)
(30.6174 -10.3596 0.461827)
(25.9676 -9.88337 0.444796)
(34.6743 -11.5611 0.666713)
(33.8748 -10.9373 0.637366)
(39.3906 -11.2153 0.631856)
(39.5885 -10.1778 0.578124)
(43.3702 -8.88942 0.388734)
(44.726 -6.14675 0.067488)
(47.9578 -3.13491 -0.185226)
(46.5953 -0.136731 -0.599423)
(54.9661 137.866 -3.93305)
(-115.653 -10.9881 17.0125)
(58.4726 -16.3605 9.62203)
(-23.5347 -15.8355 7.03321)
(70.0828 -24.3495 5.9098)
(13.8504 -7.51589 2.57857)
(54.9243 -22.1099 1.98182)
(15.8783 -5.1079 -0.127232)
(37.8449 -19.8198 -0.302409)
(19.0122 -11.4222 -0.616267)
(34.7034 -19.3201 -0.0768672)
(29.6889 -15.3875 -0.0152112)
(38.822 -18.4391 0.403895)
(37.4952 -15.8203 0.407942)
(42.1303 -15.8262 0.62348)
(41.0874 -13.572 0.571231)
(43.399 -11.8301 0.36152)
(42.7805 -8.55313 0.127659)
(44.7965 -5.65894 -0.208266)
(44.5088 -1.59954 -0.56345)
(160.604 137.416 -194.391)
(-27.1109 -39.0512 -1.13595)
(77.4592 -40.5493 3.71148)
(23.6747 -39.1967 -2.74399)
(84.2894 -29.1205 -1.55747)
(46.4729 -7.66567 -3.58097)
(74.949 -7.99619 -0.40409)
(49.2186 4.30058 -0.844949)
(52.5426 -5.84192 0.821313)
(37.0907 -6.34428 0.444154)
(41.4529 -16.8252 0.228015)
(38.536 -16.4415 -0.0266381)
(42.849 -19.6627 -0.0862082)
(42.0644 -17.8352 -0.110259)
(44.3215 -17.2372 0.0195377)
(43.1721 -15.0485 0.239335)
(42.6274 -11.3304 0.289116)
(40.2879 -7.56165 0.0939013)
(40.2892 -4.86697 -0.282078)
(39.3513 -1.01562 -0.63852)
(380.05 -173.595 -226.523)
(-99.7051 -17.0161 -6.39643)
(114.666 -26.2535 16.1523)
(-30.3436 -15.3954 2.09584)
(85.526 -2.42331 -0.69114)
(3.19083 15.9719 -1.83925)
(44.3126 -16.0113 -0.35389)
(9.57307 16.8981 0.209958)
(30.4353 -11.6161 0.885477)
(21.8938 -4.81847 0.592089)
(37.071 -21.1643 0.406869)
(36.1678 -17.0896 0.0570208)
(42.9036 -21.2741 -0.0259)
(42.3763 -17.2492 -0.31661)
(45.475 -17.29 -0.153775)
(44.4908 -13.8346 -0.135708)
(44.2681 -10.4376 0.192397)
(40.7039 -6.4456 0.251011)
(40.1088 -4.56216 0.0387098)
(37.2084 -1.26783 -0.461007)
(155.35 -107.064 34.6256)
(67.7983 -22.3882 -11.0482)
(112.626 -70.7975 3.44868)
(28.6825 -44.8181 1.63666)
(72.4692 -32.7604 5.94102)
(16.6298 25.6846 -0.00448772)
(49.8736 9.5644 -1.1072)
(16.9519 5.17942 -0.597872)
(32.596 -0.0604565 -0.815861)
(29.7457 -14.4145 -0.340425)
(46.6083 -21.8626 0.076498)
(45.9083 -22.8901 0.416357)
(51.0022 -21.6833 0.436172)
(49.4215 -18.7922 0.543942)
(47.5789 -18.0365 0.306077)
(48.9551 -14.0675 0.356025)
(47.7909 -8.64304 0.234123)
(45.6623 -5.12409 0.197103)
(44.4793 -2.97585 0.1138)
(39.9943 0.204289 -0.35725)
(255.088 -186.418 -3.51423)
(25.4891 -8.80737 11.6674)
(130.316 10.036 9.83784)
(-9.0658 -6.55318 2.70815)
(69.239 8.99487 4.54487)
(16.0111 13.6693 -0.0681691)
(39.6433 14.5919 1.93605)
(29.5577 2.98161 -0.00102695)
(44.6155 0.211008 -0.252399)
(54.3142 -20.8074 -0.162074)
(57.4114 -24.8099 0.21772)
(54.9574 -25.4474 0.245078)
(55.2281 -23.6497 0.286998)
(55.4223 -21.4116 0.267964)
(58.4293 -18.4136 0.710043)
(57.148 -16.0529 0.367796)
(58.5149 -8.84532 0.683304)
(54.8104 -4.67918 0.593777)
(52.811 -2.20633 0.419948)
(45.0482 0.599781 -0.10146)
(9.25465 -140.779 60.077)
(-106.395 -52.5038 -6.6135)
(86.3916 -29.4606 -6.95408)
(-23.3128 -11.6957 4.1115)
(48.4544 -26.6735 5.84032)
(-10.1231 -2.50359 -0.80475)
(32.4053 -3.10303 0.483963)
(44.3046 -15.5676 0.37285)
(53.3814 -21.2432 0.529996)
(58.4533 -26.0712 0.236874)
(54.7775 -26.1391 0.0803042)
(51.7618 -27.6361 0.129453)
(54.5959 -27.6275 0.232645)
(58.2279 -27.4961 0.170426)
(60.0992 -24.6769 -0.209725)
(58.8011 -16.1493 -0.494726)
(62.4932 -9.79708 -0.496237)
(64.2971 -3.65748 -0.00882589)
(64.5984 0.72021 0.282178)
(55.1111 2.97463 -0.0597314)
(159.492 -34.088 -35.7453)
(93.1287 -41.352 -38.7631)
(172.894 -5.77533 -26.6653)
(122.163 1.21967 -10.2879)
(130.147 6.80762 4.08504)
(48.0351 -16.0984 -0.767824)
(41.8914 -24.0761 0.472759)
(51.5449 -28.2804 -0.437976)
(56.8369 -34.5033 0.112896)
(58.2834 -26.2353 0.136682)
(54.4191 -23.4024 -0.0944172)
(52.5316 -29.7322 0.0426202)
(47.7717 -31.5136 0.187935)
(47.0916 -30.9005 0.0602917)
(47.8388 -26.0866 -0.115739)
(48.6249 -17.1629 -0.586005)
(53.5586 -10.8686 -1.16078)
(58.9348 -7.25822 -1.24449)
(63.7898 1.21368 -0.704328)
(58.3533 4.65485 -0.617732)
(-69.0884 62.2306 -124.445)
(-121.549 80.1044 -24.5249)
(97.1918 54.696 -24.2034)
(14.4563 41.0834 -6.53504)
(77.6287 33.1499 3.60427)
(26.3176 11.3335 -2.43552)
(52.2174 -11.1786 -0.349868)
(55.6791 -24.3373 -0.449793)
(52.2761 -34.0739 -0.165523)
(46.5339 -22.8971 -0.188235)
(43.6009 -21.0537 0.0856968)
(43.7133 -28.0377 0.0146964)
(45.6843 -32.2129 -0.0709308)
(46.8641 -32.0647 -0.078955)
(47.3072 -26.5059 -0.125258)
(45.3495 -16.3174 0.0105955)
(47.3906 -11.1784 -0.38874)
(49.3819 -6.93529 -1.3953)
(54.4718 1.30886 -1.45625)
(52.8087 6.20106 -1.17969)
(2.23793 -27.0066 -49.1027)
(-85.0771 -8.05126 -13.3251)
(107.878 20.9174 -13.9548)
(36.4259 30.6995 -2.60633)
(105.709 22.1865 1.14778)
(55.903 -14.2935 -0.00753732)
(79.0691 -1.07881 -1.4772)
(72.4014 -15.4319 -1.37738)
(61.7404 -23.1795 0.839948)
(45.2507 -20.8165 0.255748)
(51.0718 -24.9394 -0.162735)
(52.5367 -30.1668 -0.365618)
(55.0338 -31.7142 -0.342145)
(53.0595 -30.4936 -0.345754)
(48.9966 -20.785 0.511757)
(47.2928 -16.9228 0.503847)
(45.6102 -9.62239 0.0272519)
(45.0965 -5.49173 -0.698268)
(46.8808 2.65321 -1.03131)
(46.8561 7.5833 -1.07059)
(27.0597 225.979 -69.5138)
(-35.8527 92.1017 -11.1718)
(134.094 87.2374 -9.916)
(30.4699 52.7137 0.0644779)
(113.722 26.1496 1.29052)
(65.1322 3.51773 0.187505)
(85.9294 8.27392 -0.162147)
(68.0494 -16.0418 -1.01389)
(74.8397 -12.2673 -0.864923)
(70.6422 -22.4949 -0.820392)
(73.1187 -21.8828 -0.302254)
(67.573 -27.0535 0.242974)
(65.139 -24.5331 0.471419)
(57.4202 -25.0476 0.466117)
(53.7927 -18.8717 0.152735)
(48.7272 -14.8511 0.110562)
(45.9968 -7.17937 0.0450729)
(43.9094 -3.6375 -0.0924675)
(43.2367 2.91644 -0.275576)
(43.8377 7.24734 -0.514564)
(-16.0361 325.808 80.6886)
(-152.598 23.8939 21.1888)
(106.185 14.3014 -6.40941)
(7.38852 16.0064 2.26783)
(101.936 4.10485 -4.05136)
(67.4398 -0.0571417 -4.29899)
(98.6197 -2.14946 -4.0992)
(88.3032 -11.2901 -3.7729)
(94.5435 -14.9421 -2.63123)
(89.6053 -21.3894 -1.91602)
(88.0322 -21.8607 -0.0352698)
(75.9336 -26.7531 0.779343)
(66.8235 -22.4401 0.995543)
(54.8001 -20.3687 0.319787)
(50.1927 -13.8873 -0.252262)
(45.5699 -10.5383 -0.339186)
(44.0685 -4.59138 -0.23406)
(43.6656 -2.15827 -0.102451)
(42.839 2.31726 0.0208715)
(43.5229 5.31219 -0.172321)
(113.624 199.305 108.548)
(-35.6958 3.55921 28.4972)
(141.776 9.25765 -3.06778)
(72.1436 22.4855 5.82439)
(129.918 25.5367 0.990188)
(98.7931 18.9101 -1.72186)
(113.956 19.2407 -1.8716)
(98.1725 6.8857 -2.64635)
(102.627 2.64295 -0.675805)
(94.3127 -8.8589 -0.0351601)
(91.9226 -8.07357 1.74518)
(73.9949 -11.8452 2.0146)
(62.1773 -9.29964 1.58233)
(48.8667 -11.3533 0.50603)
(46.1373 -8.80881 0.119965)
(41.8609 -7.73901 -0.0706643)
(41.3764 -3.81037 -0.141804)
(41.4311 -1.94512 -0.112324)
(41.4398 0.949855 -0.0434574)
(43.1411 2.98695 -0.208948)
(112.503 -125.015 90.7964)
(-65.7145 -45.8902 1.14935)
(86.2279 -41.1657 -2.06616)
(40.1626 -12.7214 4.0063)
(118.805 6.87186 6.5785)
(100.662 13.4077 4.45701)
(121.944 17.6607 3.80641)
(102.784 8.14821 2.22623)
(99.5147 -5.93132 3.63023)
(72.4581 -17.4332 2.53599)
(67.5399 -11.8216 1.83154)
(52.8838 -11.6869 1.09957)
(50.3675 -8.17201 0.753895)
(43.5219 -9.51097 0.315874)
(42.6357 -7.92893 0.404548)
(39.0173 -6.22563 0.348623)
(38.2006 -2.8308 0.202458)
(37.5484 -1.40022 -0.037044)
(36.8879 -0.777653 -0.18528)
(38.0573 0.3873 -0.551143)
(180.066 -73.5284 159.319)
(-31.7548 -54.6079 -13.6038)
(118.259 -64.4996 -33.4463)
(66.1646 -50.6851 -7.59491)
(129.87 -34.4487 -0.231841)
(118.326 -16.149 1.15055)
(150.105 10.686 2.7371)
(141.325 13.147 3.33573)
(133.098 16.0146 5.79308)
(88.6051 4.5489 4.04074)
(72.2515 0.733168 1.35423)
(54.5388 -3.4645 -0.279578)
(53.5538 -4.21187 -0.515503)
(48.7042 -6.46699 -0.204025)
(47.9681 -6.41606 0.489112)
(43.2226 -5.66631 0.939691)
(38.7787 -3.01044 0.808704)
(35.1877 -0.235668 0.392819)
(33.8212 0.568259 0.142341)
(35.4697 1.45133 -0.401858)
(49.0281 -133.893 -102.756)
(-96.7369 9.10386 -27.0417)
(102.848 -26.2851 -21.4645)
(33.72 -30.574 -3.88714)
(90.222 -30.4791 -0.800612)
(55.516 -28.8392 -2.99175)
(87.5755 -8.39362 0.513952)
(70.3459 -1.2569 1.0861)
(80.1189 13.3932 3.15298)
(63.4634 12.7757 1.53593)
(66.7036 11.8268 0.459036)
(60.8348 5.29732 -1.35219)
(66.5726 1.00782 -1.68163)
(68.6622 -4.18554 -1.23171)
(71.2138 -4.94522 0.0490887)
(68.7241 -3.02596 1.01463)
(62.2315 1.00572 2.76169)
(53.6863 1.55777 1.99256)
(46.9378 -2.80762 0.388296)
(40.4545 -2.1465 -0.666277)
(67.7906 -54.9998 -74.0657)
(77.2688 -16.9502 -50.8201)
(187.182 -31.7512 -20.0916)
(120.592 -30.4215 1.14394)
(100.485 -20.2241 11.1941)
(31.2729 -9.37094 -4.01971)
(67.3939 3.36494 -4.24501)
(52.8784 4.15726 -4.51136)
(79.6588 7.80038 -2.06233)
(82.7153 6.42634 -3.04992)
(103.562 6.60651 -3.24287)
(115.337 5.72157 -3.83524)
(129.917 0.178954 -2.2544)
(131.058 -4.16174 -0.972017)
(127.867 -6.78976 -0.127369)
(123.292 -5.01933 -0.805522)
(124.895 -2.6142 -0.0606352)
(123.598 4.85747 2.28206)
(121.267 10.319 4.00095)
(107.99 9.15084 2.78546)
(109.531 73.6598 1.24516)
(-7.17741 -32.2362 32.5414)
(86.7327 -16.0413 -8.17769)
(15.036 6.3401 -13.8971)
(65.6554 4.19898 -16.7566)
(15.3078 0.0502834 -8.12283)
(52.5205 -5.48764 -5.4874)
(28.1344 -6.96578 -3.36497)
(53.8959 -9.83412 0.426717)
(44.187 -9.26695 0.431539)
(59.8866 -9.4217 2.24068)
(57.4649 -7.49961 1.50301)
(66.8834 -5.99292 1.69373)
(66.9454 -4.07792 0.684049)
(72.0336 -3.00482 0.626146)
(72.48 -2.16862 0.522663)
(75.4265 -2.06281 0.543461)
(76.6611 -2.24689 0.336687)
(78.6156 -3.35532 0.305398)
(77.4565 -3.69021 0.433809)
(79.9892 -24.7516 56.9665)
(-78.9671 40.6282 -16.3399)
(48.8419 58.6126 -5.2455)
(-24.4224 30.9314 3.38782)
(51.7743 28.5938 2.51156)
(4.50402 10.4257 0.615102)
(48.7475 5.17486 1.72847)
(21.6408 -1.30077 -0.0038687)
(45.8514 -2.82525 2.84739)
(29.7386 -4.4812 1.58739)
(40.758 -4.57196 2.96286)
(32.4105 -5.10555 1.51347)
(38.8509 -4.74723 1.31954)
(36.2617 -4.66882 0.731576)
(41.0925 -4.1462 0.870117)
(41.0907 -3.73739 0.508954)
(44.7518 -3.04437 0.417971)
(45.4008 -2.6511 0.0596818)
(47.0295 -2.29809 -0.458)
(42.7764 -1.43057 -1.46746)
(57.4318 -45.3262 49.1643)
(-124.838 -7.88101 -28.1551)
(49.191 7.16871 -12.9778)
(-56.4575 -3.20453 0.424318)
(46.7146 -6.03593 -1.30539)
(-18.8555 -5.38615 -0.255577)
(37.2019 -15.1741 0.595523)
(1.09896 -9.6787 -0.708304)
(31.7253 -13.7263 1.36909)
(12.9162 -8.00515 0.186867)
(28.9341 -8.8298 1.72512)
(20.4892 -6.0803 0.752717)
(29.1564 -6.86529 1.00438)
(26.4077 -5.59281 0.457255)
(31.6671 -5.73058 0.601232)
(31.2428 -4.78349 0.243153)
(34.8464 -4.09208 0.137851)
(35.231 -3.10263 -0.2448)
(36.9415 -2.07196 -0.780738)
(33.8107 -0.997332 -1.69193)
(118.011 -144.026 134.97)
(-52.548 36.1975 -18.8564)
(41.8916 47.4495 -12.6755)
(-47.8202 24.69 4.01333)
(47.0387 10.9101 0.782818)
(-14.9153 5.56438 2.05459)
(34.1921 -6.79332 1.6727)
(-3.2836 -3.86909 -0.170534)
(22.4256 -9.32449 0.66517)
(5.74232 -6.17682 0.151694)
(20.9836 -8.77636 0.950511)
(15.3993 -7.47145 0.975248)
(24.2996 -8.72706 1.14346)
(22.8697 -7.83362 0.97801)
(28.1107 -7.85092 0.870633)
(27.9362 -6.79089 0.709155)
(31.3754 -5.48968 0.442322)
(31.7472 -3.8946 0.0672963)
(33.7824 -1.68082 -0.407222)
(31.646 0.0124995 -1.38139)
(-34.7821 34.1995 39.513)
(-158.785 32.4144 6.50646)
(32.603 14.0717 -2.54855)
(-57.8504 1.07505 9.12429)
(56.4366 -11.1192 7.39647)
(-8.77694 0.136785 3.22814)
(40.9999 -19.7399 3.12491)
(-1.13571 -3.52441 -0.299747)
(24.5462 -19.2402 -0.0307111)
(4.26863 -8.85338 -0.411744)
(21.2681 -16.3841 0.33504)
(14.854 -10.6775 0.483727)
(24.6296 -13.3525 0.884128)
(22.7786 -9.93504 0.866974)
(27.9851 -10.172 0.968561)
(27.1314 -7.89083 0.722287)
(29.8573 -6.80046 0.398371)
(29.4734 -4.71605 0.0695875)
(31.1818 -2.47529 -0.419234)
(29.8544 -0.393789 -1.27781)
(2.94441 63.5535 -63.0887)
(-97.2599 -21.0113 9.33558)
(47.738 -5.30342 -8.03787)
(-13.6552 -16.4367 -8.6186)
(63.2231 -12.3623 -5.80299)
(13.5073 1.85399 -5.77672)
(50.7708 -8.04181 0.960678)
(22.5779 2.25285 -0.865712)
(31.5019 -11.4255 2.23469)
(19.5388 -8.13969 0.924721)
(25.6992 -16.361 0.639364)
(22.6315 -12.9543 0.248746)
(27.0691 -15.2396 0.158785)
(25.7169 -12.2928 0.102735)
(28.1969 -11.4138 0.241083)
(27.3001 -8.74259 0.445484)
(28.2492 -6.57235 0.361252)
(27.201 -4.39847 0.0316783)
(27.7696 -2.36946 -0.475202)
(26.626 -0.211374 -1.27148)
(30.5465 -272.736 -218.639)
(-285.651 -20.6426 39.9129)
(68.546 -11.9312 -3.9637)
(-56.6285 -10.4882 -2.2289)
(71.225 -4.52402 -5.06813)
(-17.7148 10.1433 -3.30101)
(30.0488 -25.048 0.299914)
(-6.09831 12.5545 0.418224)
(18.3302 -16.5812 1.40587)
(9.01462 -4.84265 1.12876)
(23.8607 -19.0088 0.768455)
(21.401 -12.5795 0.256475)
(28.0061 -16.4085 0.0938543)
(27.0655 -11.4729 -0.371894)
(29.8583 -11.9892 -0.0601625)
(28.4601 -8.36853 0.010406)
(29.183 -6.33092 0.3855)
(27.3163 -3.80177 0.348654)
(27.3769 -2.38881 -0.0311173)
(25.4741 -0.319491 -1.04166)
(159.176 -340.199 -46.9601)
(-53.6041 -115.53 8.17106)
(63.3159 -90.1975 2.11181)
(-30.676 -38.0183 -1.00673)
(51.6809 -26.5694 2.99263)
(-6.87449 26.4179 -1.36608)
(33.3679 1.05692 1.19622)
(4.84217 7.07984 0.354436)
(21.3413 -8.57878 -0.0958752)
(19.3413 -13.3518 0.0720304)
(33.035 -19.5288 0.204353)
(32.2412 -17.3963 0.319661)
(37.1971 -16.7437 0.237853)
(35.5685 -13.3459 0.223088)
(33.6836 -12.563 0.0883439)
(35.1691 -8.98121 0.514384)
(33.6623 -5.33517 0.488411)
(31.5593 -2.75718 0.32195)
(30.505 -1.11905 0.0970676)
(27.4367 0.686136 -0.959836)
(184.977 -229.387 44.0477)
(-54.9674 -30.0783 27.9651)
(89.4612 -16.7516 2.70861)
(-44.6955 -18.9012 1.29864)
(57.4921 2.33676 2.5469)
(6.1098 13.3341 -0.103679)
(31.924 6.6331 0.965126)
(21.4663 -0.791209 1.90375)
(36.0628 -9.49698 0.699999)
(38.9356 -20.4981 -0.117663)
(43.0416 -21.6625 0.247046)
(41.8752 -20.4044 0.178425)
(43.5062 -18.2588 0.379596)
(44.1192 -16.1774 0.532168)
(46.0647 -11.4593 0.992367)
(42.6724 -9.01667 0.297871)
(42.6763 -3.41847 0.946104)
(38.9376 -1.35155 0.972767)
(37.1237 0.136127 0.565639)
(31.579 1.24045 -0.6746)
(-46.3062 -75.7336 40.322)
(-134.309 -50.8727 -15.6247)
(46.0259 -35.1575 -22.2768)
(-75.7124 -12.1201 4.88887)
(40.0408 -27.2808 4.07635)
(-18.3228 -0.879592 0.755952)
(27.8198 -1.79835 4.51987)
(38.0719 -11.5027 3.23185)
(46.3062 -18.3532 2.69933)
(47.6187 -22.332 1.30287)
(45.089 -22.9709 0.688418)
(44.6042 -23.5167 0.554315)
(47.5346 -22.7225 0.815736)
(50.6987 -21.2522 0.513072)
(51.1381 -15.9969 -0.332743)
(47.4804 -7.11199 -1.07728)
(48.7528 -2.04051 -0.554827)
(46.96 1.87966 0.21183)
(45.5335 3.54761 0.461686)
(37.7537 3.81841 -0.683775)
(213.293 -97.7692 -138.808)
(98.2185 -65.8527 -35.3347)
(147.08 -12.3934 -18.6915)
(26.598 -4.73631 -5.13842)
(79.4075 -7.5097 7.13837)
(29.3802 -20.2364 0.364395)
(38.8814 -20.228 1.63332)
(42.0094 -23.0175 0.535492)
(45.9403 -25.256 1.35671)
(45.6294 -21.2122 1.27491)
(42.9314 -22.7148 -0.270335)
(42.0009 -25.1285 0.199931)
(41.7669 -24.8223 0.393478)
(42.636 -22.5419 0.0643035)
(42.4651 -17.0377 -0.946351)
(41.3668 -9.16076 -1.91124)
(45.0441 -3.14529 -1.93384)
(45.7466 1.15422 -1.38887)
(45.8533 5.96975 -0.754511)
(40.2718 6.18158 -1.31596)
(1.29667 50.9118 61.802)
(-85.6634 45.8929 -58.9365)
(70.9449 41.1981 -38.4341)
(-48.4792 24.7641 -5.13514)
(57.1261 4.1378 2.20028)
(5.88855 -13.3957 -2.84769)
(44.7134 -22.5747 -0.988815)
(41.644 -24.3702 -0.384229)
(38.1946 -26.3204 0.689371)
(34.7445 -19.5407 0.0370491)
(34.2598 -20.8325 0.124531)
(34.2514 -24.0786 -0.0765035)
(35.1778 -24.9383 -0.247513)
(36.1376 -22.8607 -0.225949)
(36.7938 -17.6788 -0.604568)
(34.8372 -9.17939 -1.03142)
(38.0523 -4.68652 -1.31802)
(39.0598 0.264391 -1.97537)
(40.3192 5.75056 -1.64669)
(37.2792 6.65508 -1.82593)
(65.9486 -74.5641 -122.671)
(-36.1546 -23.5932 -40.6268)
(92.1962 -2.70508 -27.1006)
(3.3782 2.96276 -2.76648)
(91.8765 -13.3417 -0.6494)
(28.1573 -39.2223 -0.836275)
(54.9232 -15.2008 -1.95435)
(37.8518 -20.5827 0.49215)
(38.4928 -19.9418 1.82411)
(32.0151 -19.8172 0.538761)
(37.8958 -22.8082 -0.39264)
(37.1469 -25.3064 -0.461553)
(38.6488 -24.731 -0.13957)
(36.8301 -22.24 0.292541)
(33.2781 -12.9624 0.379306)
(33.5775 -9.56492 0.225193)
(33.3866 -3.98311 -0.543765)
(33.6193 -0.548758 -1.11332)
(34.4727 4.88546 -1.29081)
(33.4917 6.22511 -1.62281)
(162.417 189.677 20.0455)
(23.7412 73.6535 -30.7546)
(122.029 61.3 -25.3701)
(22.6634 24.8655 -0.206729)
(101.032 0.907774 -1.63956)
(44.2442 -10.2675 -1.71459)
(65.3095 1.71515 -1.03317)
(43.7386 -20.7395 -1.6895)
(50.9137 -13.261 -0.743013)
(44.7665 -23.0203 -0.646092)
(47.4505 -20.2118 0.219735)
(43.0222 -23.9381 0.756012)
(42.8399 -19.6895 1.03284)
(37.4923 -18.252 0.919964)
(35.5477 -11.2211 0.301595)
(32.4499 -7.84076 0.0937173)
(31.5447 -2.51914 -0.109033)
(30.9805 -0.116555 -0.290518)
(31.4772 4.0721 -0.455165)
(31.9361 5.43445 -1.02741)
(-56.0166 115.901 -25.8037)
(-73.1765 -1.8988 -8.42156)
(107.905 -10.7525 -13.655)
(34.1687 -8.614 -0.617135)
(101.729 -12.6708 -6.46466)
(56.3042 -12.1682 -6.66341)
(77.7125 -9.55597 -5.10873)
(57.5638 -17.3694 -4.83403)
(62.0148 -17.536 -2.44847)
(54.2395 -22.8013 -1.63696)
(54.7335 -21.1175 0.376793)
(47.5578 -23.2323 1.15007)
(44.3394 -17.9507 1.2585)
(36.2734 -14.9346 0.354335)
(33.6535 -8.71823 -0.303116)
(30.4459 -5.89112 -0.360239)
(29.8682 -1.65834 -0.236581)
(30.1235 -0.0497912 -0.146689)
(30.5079 2.93969 -0.0854989)
(31.7974 3.97503 -0.635255)
(193.52 235.847 142.064)
(57.5794 21.6289 -13.5428)
(138.526 7.71289 -15.8537)
(74.5611 12.5327 -1.79645)
(118.546 13.7812 -3.07476)
(76.1088 5.02181 -4.66031)
(87.0243 6.3843 -2.32324)
(63.95 -7.59235 -3.3521)
(68.7844 -9.14041 0.367517)
(58.1651 -16.9212 0.890409)
(59.1776 -13.2296 2.49099)
(48.4473 -14.3038 2.38835)
(43.8788 -8.69299 2.20464)
(34.2877 -8.87307 0.595599)
(32.5983 -5.90325 0.0320008)
(29.1401 -4.77306 -0.168462)
(29.0085 -1.78129 -0.156027)
(28.9679 -0.514858 -0.116143)
(29.2581 1.55178 -0.130432)
(31.1017 2.53942 -0.707444)
(150.797 -19.5214 63.3805)
(-74.844 -12.8504 32.6345)
(82.8674 -15.6481 11.823)
(18.3585 3.83187 7.3923)
(98.1306 12.4685 7.29682)
(66.3358 7.60495 2.20399)
(90.6073 7.96786 4.24588)
(66.8402 -3.99879 1.61063)
(69.5802 -11.4147 5.11905)
(51.0253 -17.5314 3.31945)
(49.4388 -11.8963 2.90753)
(37.0584 -10.142 1.42088)
(36.0773 -5.59386 0.97405)
(30.1795 -5.90883 0.292542)
(29.8604 -4.12312 0.368962)
(27.0522 -2.99785 0.288772)
(26.996 -0.942959 0.19032)
(26.6115 -0.160294 -0.161011)
(26.1353 0.24731 -0.355931)
(27.3988 0.747087 -1.0893)
(287.901 76.9397 -93.6727)
(194.615 7.84589 -0.0892383)
(162.918 -40.6948 -18.5112)
(74.2185 -22.501 -6.19513)
(117.418 -3.88214 1.77991)
(92.7756 7.44906 0.162649)
(113.231 16.9113 3.26317)
(94.6355 11.8311 3.11781)
(93.3632 10.1861 9.59705)
(63.5105 0.779976 6.50484)
(55.3507 -0.100989 3.37399)
(39.2557 -2.99985 -0.0807844)
(38.4812 -2.37279 -0.535845)
(32.8936 -3.53358 -0.241085)
(32.6751 -2.83018 0.560021)
(29.5019 -2.22588 0.912147)
(28.0363 -0.782854 0.700667)
(25.7183 0.652955 0.0774993)
(24.729 0.748403 -0.0953327)
(26.567 1.12289 -0.907569)
(77.7457 25.564 -39.1205)
(-22.0441 31.4171 -20.4643)
(90.3751 3.77643 -29.4377)
(13.8383 -3.54228 -7.77795)
(77.3811 2.08413 -2.82098)
(40.7328 0.295085 -5.21885)
(74.027 12.9066 2.44392)
(50.0495 9.49594 2.58163)
(61.9993 16.0008 5.87654)
(45.6274 11.5562 1.58794)
(50.5329 8.87772 -0.158285)
(42.5583 3.7257 -2.80142)
(44.9018 0.866797 -2.38723)
(41.8186 -1.12419 -1.71016)
(43.34 -0.857903 0.336895)
(41.1204 1.59672 2.02203)
(40.7177 3.95681 3.13361)
(38.7262 3.87833 1.4334)
(36.0497 -0.181206 -0.585509)
(32.4057 -0.891855 -2.04675)
(121.053 -0.931341 -53.576)
(-1.39377 -10.7952 -23.8029)
(93.9874 -29.0795 -3.8711)
(-7.28197 -21.7938 1.85415)
(65.3985 -6.08348 10.3013)
(9.81826 0.888722 -4.50327)
(55.6866 14.245 -1.74935)
(33.0984 13.1139 -2.49828)
(61.7735 15.0718 1.50512)
(58.6319 11.6326 -0.791854)
(73.8948 9.21762 -0.987151)
(73.6328 5.39089 -3.10764)
(80.1847 0.49384 -2.76204)
(78.2002 -2.38614 -2.04865)
(79.0884 -2.54861 -1.21728)
(78.1512 -0.237269 -1.46507)
(82.0969 4.63009 -0.294398)
(92.0135 9.94688 1.30744)
(100.544 8.3137 3.38541)
(92.5039 5.35926 2.46126)
(77.3845 -134.557 72.839)
(22.1243 -96.955 -1.04524)
(113.666 -53.3112 -35.7001)
(36.9315 -11.099 -25.6109)
(67.6688 -1.0339 -21.7216)
(9.243 -3.77009 -9.54342)
(44.9513 -8.06954 -5.30025)
(14.763 -8.78709 -2.80321)
(42.9884 -10.9076 1.36579)
(31.4928 -9.05536 1.01666)
(49.3525 -8.38042 2.9446)
(46.8418 -6.00232 1.76364)
(57.3911 -4.4309 1.96099)
(57.3515 -2.91144 0.858708)
(62.4499 -2.10757 0.912822)
(62.6567 -1.61127 0.736119)
(65.6611 -1.58107 0.772163)
(66.7619 -1.78887 0.536505)
(68.7853 -2.55854 0.259653)
(67.846 -2.32313 0.0739066)
(166.492 132.832 154.316)
(-1.05061 38.874 5.63048)
(39.1071 45.187 -5.41582)
(-39.7507 21.6402 4.57094)
(38.8463 23.699 1.61226)
(-15.4083 6.92412 1.0859)
(34.1201 3.20963 1.59684)
(0.338558 -1.82812 -0.12312)
(28.4969 -2.52949 2.3457)
(10.1848 -3.29633 0.82579)
(25.5081 -2.8871 2.14859)
(17.82 -3.30856 0.760737)
(26.4215 -3.03112 0.800783)
(23.9382 -3.14903 0.319513)
(29.3207 -2.77687 0.568037)
(29.0824 -2.5257 0.235933)
(32.5691 -1.97786 0.125164)
(32.9318 -1.71237 -0.309928)
(34.3595 -1.41502 -0.931353)
(30.4928 -0.803122 -2.30655)
(92.4674 134.771 16.0745)
(-84.737 -13.1 -33.0768)
(46.5349 7.65662 -24.6364)
(-63.7487 -3.56516 -2.71149)
(35.5603 -5.54507 -3.90778)
(-34.6891 -4.53865 0.157661)
(25.1675 -14.2421 -0.0819826)
(-15.7364 -7.41584 -0.600242)
(18.1881 -11.8891 1.03223)
(-2.77964 -5.86187 0.0540213)
(15.8922 -7.55788 1.33357)
(6.98015 -4.69347 0.513904)
(17.1325 -5.70784 0.931445)
(14.2117 -4.32513 0.487563)
(19.9432 -4.51908 0.633319)
(19.249 -3.56215 0.227067)
(22.6679 -2.94349 0.0985253)
(22.5886 -2.13595 -0.237507)
(23.8177 -1.2892 -0.786948)
(20.8795 -0.597645 -1.81738)
(103.006 32.1392 134.607)
(-67.1593 52.7372 -42.4646)
(38.0376 45.8864 -13.593)
(-52.9364 22.8545 0.859381)
(34.1174 8.70705 -1.6165)
(-30.1776 3.44892 1.65816)
(22.7502 -7.78941 1.15295)
(-15.7298 -3.3383 -0.28402)
(12.7235 -8.6333 0.598401)
(-5.0211 -4.59425 0.174471)
(11.1214 -7.36884 1.08009)
(4.41338 -5.57759 0.945179)
(13.5028 -6.77601 1.06999)
(11.389 -5.68818 0.843803)
(16.565 -5.70866 0.873107)
(16.1074 -4.71907 0.653952)
(19.3509 -3.65271 0.415751)
(19.3391 -2.57145 0.147245)
(20.7369 -0.934623 -0.320831)
(18.6738 0.0557054 -1.3836)
(-22.3142 0.859006 73.3755)
(-117.443 38.7545 -5.30308)
(15.6088 23.466 -4.30892)
(-77.3862 10.7945 7.34761)
(40.0504 -4.05097 3.90091)
(-33.3155 3.02396 2.7143)
(25.9178 -19.3942 2.304)
(-17.8548 -2.32017 -0.308613)
(12.8272 -18.3547 -0.0899124)
(-8.20514 -6.54456 -0.284137)
(10.121 -14.0708 0.483688)
(2.41237 -7.47648 0.545441)
(12.6133 -10.1913 0.926846)
(10.1837 -6.54722 0.782669)
(15.5183 -7.09868 0.893194)
(14.651 -4.95245 0.576524)
(17.5731 -4.33429 0.345165)
(17.2366 -2.85178 0.123714)
(18.5904 -1.26369 -0.248442)
(17.293 -0.0406339 -1.1589)
(-11.7974 31.5666 91.6095)
(-105.482 -17.7408 -11.0496)
(35.8713 4.60675 -15.0814)
(-28.3763 -6.14717 -7.70792)
(46.9554 -6.30869 -7.07008)
(-15.4673 4.16427 -5.51505)
(30.6808 -11.2795 1.23061)
(0.121243 0.642749 -1.0779)
(15.5541 -13.8924 2.01865)
(4.66891 -7.42813 0.741746)
(12.9478 -14.7301 0.701551)
(9.34211 -9.8841 0.313113)
(14.1944 -11.9728 0.275924)
(12.5783 -8.60637 0.131903)
(15.2428 -8.00431 0.238386)
(14.5693 -5.59857 0.361415)
(16.0046 -4.33218 0.241961)
(15.5662 -2.88538 0.095982)
(16.1998 -1.34631 -0.227864)
(15.3493 -0.0154826 -1.02618)
(-39.5188 104.472 -204.051)
(-172.057 -8.97573 -9.87477)
(63.9282 -11.1287 -13.3767)
(-53.1671 -10.6923 0.597276)
(58.4725 -5.88035 -4.59716)
(-35.1188 6.11955 -2.34646)
(17.5106 -30.1454 0.837189)
(-19.3381 10.541 0.3305)
(7.61012 -18.8053 0.85047)
(-3.01979 -3.47032 1.14691)
(11.8709 -16.9873 0.776765)
(8.3088 -8.88918 0.44409)
(15.208 -12.9609 0.232844)
(13.9779 -7.53236 -0.171584)
(16.8857 -8.57601 0.047229)
(15.4974 -5.28223 0.0249888)
(16.6022 -4.23705 0.248339)
(15.473 -2.50013 0.236827)
(15.8522 -1.51428 0.0906157)
(14.7916 -0.0802839 -0.823142)
(136.481 -136.584 -105.218)
(-7.50536 -83.1702 11.0835)
(56.935 -79.7594 4.76241)
(-39.2352 -35.4825 0.777029)
(40.1819 -24.0805 1.99745)
(-23.0935 24.8948 -1.12091)
(18.1844 -8.28713 0.377104)
(-6.09564 7.43234 -0.0209079)
(10.3423 -14.3439 -0.617568)
(8.40949 -10.8372 0.596723)
(20.1743 -17.0938 0.735848)
(19.1402 -12.7276 1.0917)
(24.0928 -12.9255 0.548597)
(22.5426 -9.01 0.630188)
(20.4658 -8.79328 0.643713)
(21.6693 -5.78193 0.629278)
(20.3316 -3.40286 0.310389)
(18.8071 -1.63471 0.224453)
(18.103 -0.555635 0.15308)
(16.377 0.596026 -0.897013)
(126.544 -76.5755 104.804)
(-21.2103 -16.1877 13.4274)
(74.2166 -21.4744 -2.29873)
(-46.2936 -23.2768 1.03264)
(44.0356 -2.94177 0.676715)
(-4.38551 11.1456 1.30849)
(17.7819 -2.6953 1.22958)
(10.6894 -6.59637 2.55391)
(24.0239 -14.1858 -0.0456135)
(24.9065 -18.766 -0.156107)
(29.401 -18.4353 0.157164)
(29.0708 -16.2871 0.319529)
(31.3113 -14.0047 0.583209)
(31.8427 -11.501 0.888759)
(32.4018 -6.32766 1.40067)
(27.2171 -4.69616 0.703572)
(26.8923 -0.83252 0.890878)
(23.8745 0.0188937 0.790439)
(22.6615 0.697011 0.429086)
(19.3477 1.12812 -0.904873)
(14.8904 -63.1107 50.2963)
(-67.1658 -40.0564 -37.814)
(28.1451 -35.6538 -21.5173)
(-82.6942 -16.8268 0.788775)
(26.4279 -28.1739 0.0752892)
(-25.4909 -1.47439 2.74334)
(18.8697 -3.79929 5.98925)
(27.9509 -12.897 3.82253)
(33.972 -18.3683 2.62947)
(34.2344 -20.5316 1.016)
(33.5461 -20.1362 0.672093)
(34.018 -19.5114 0.790838)
(36.5093 -17.928 0.900051)
(38.7163 -15.3256 0.636305)
(37.1469 -9.19241 0.167426)
(32.0538 -1.68538 -0.397411)
(31.984 1.41246 -0.217888)
(29.4802 3.45701 0.152232)
(27.9205 3.63944 0.322433)
(22.918 3.17803 -1.08498)
(226.621 15.2295 -238.209)
(105.09 -38.425 -71.2937)
(132.831 -12.2925 -21.2311)
(-5.77574 -11.6467 -6.72838)
(61.0666 -17.3391 3.10428)
(5.35458 -26.8621 1.14225)
(22.9481 -21.8945 3.16432)
(29.2779 -19.4321 1.74558)
(32.9396 -19.171 1.58399)
(32.7048 -19.6009 2.14877)
(33.2683 -21.6054 -4.07378)
(32.8375 -20.7133 -0.249509)
(33.2347 -19.1772 0.0783134)
(34.6157 -16.0403 -0.377868)
(33.1855 -10.3867 -1.17033)
(29.311 -4.02276 -1.62507)
(30.7175 0.9203 -1.48172)
(29.4065 3.78048 -0.951363)
(28.7864 5.99187 -0.561824)
(24.5501 4.9721 -1.64892)
(245.181 60.7094 35.287)
(-34.6224 -0.849757 -50.3189)
(68.4293 29.0509 -40.6267)
(-58.9174 17.8229 -5.93223)
(43.9153 -6.33796 -2.63467)
(-10.3169 -24.5966 -2.07166)
(28.5111 -26.2993 -0.0157774)
(25.3484 -20.5414 0.099306)
(24.825 -19.0538 0.593266)
(24.0911 -16.9291 0.201194)
(24.659 -18.6328 0.0170334)
(25.0299 -20.2343 -0.235336)
(25.9513 -19.6236 -0.516636)
(27.2175 -16.8059 -0.619394)
(27.1726 -12.0326 -0.922973)
(23.7674 -4.88819 -0.967719)
(26.0928 -1.10631 -1.22324)
(25.5884 2.64795 -1.50312)
(25.6898 5.64848 -1.22359)
(23.1844 5.18939 -1.80735)
(245.664 -286.463 -16.4776)
(68.0746 -45.1919 -23.9073)
(92.0515 -11.8831 -21.6691)
(-8.02423 -6.92824 -1.48796)
(81.2844 -26.9219 -1.84542)
(6.43317 -45.5206 -2.00217)
(34.66 -15.1326 -1.27043)
(15.9925 -18.8375 0.943791)
(22.0947 -16.2826 1.65799)
(18.5834 -18.4986 0.770791)
(23.924 -19.9817 -0.053904)
(22.7084 -21.414 -0.0417903)
(24.5681 -19.6351 0.128273)
(23.5585 -16.7726 0.459979)
(20.5631 -8.32034 0.237544)
(21.6707 -5.72572 0.00630313)
(21.7456 -1.4475 -0.685912)
(21.8234 0.948369 -0.857287)
(22.1674 4.41689 -0.926657)
(21.3798 4.42033 -1.52102)