/*--------------------------------*- C++ -*----------------------------------*\
  =========                 |
  \\      /  F ield         | OpenFOAM: The Open Source CFD Toolbox
   \\    /   O peration     | Website:  https://openfoam.org
    \\  /    A nd           | Version:  10
     \\/     M anipulation  |
\*---------------------------------------------------------------------------*/
FoamFile
{
    format      ascii;
    class       volScalarField;
    location    "0.6";
    object      k;
}
// * * * * * * * * * * * * * * * * * * * * * * * * * * * * * * * * * * * * * //

dimensions      [0 2 -2 0 0 0 0];

internalField   nonuniform List<scalar> 
12920
(
0.00956811
0.0192192
0.0427482
0.0267498
0.0210581
0.0124613
0.00658381
0.00432666
0.00359012
0.00302895
0.00238239
0.00177549
0.00133789
0.00113269
0.00108068
0.00107285
0.00107155
0.00107115
0.00107092
0.00107105
0.0456799
0.235234
0.0246396
0.0112455
0.00945183
0.00572532
0.0041195
0.00311626
0.0023883
0.00185323
0.00140116
0.00121196
0.00111956
0.00108136
0.00107305
0.00107198
0.00107165
0.0010713
0.0010711
0.00107118
0.122978
0.886977
0.04122
0.00806195
0.0148798
0.0102094
0.0154337
0.00673223
0.00249894
0.00143403
0.001152
0.00109311
0.00107676
0.00107292
0.00107209
0.00107202
0.00107181
0.00107172
0.00107116
0.00107126
7.93341
1.50777
0.059834
0.00841656
0.00914143
0.00728656
0.00820404
0.00336045
0.0013878
0.00113533
0.0010821
0.00107441
0.00107246
0.00107215
0.00107188
0.0010719
0.00107168
0.00107169
0.00107129
0.00107135
3.1213
0.376043
0.021505
0.00980831
0.0149979
0.00559532
0.00364987
0.00182466
0.00122486
0.00110343
0.00107699
0.00107264
0.00107186
0.00107187
0.00107182
0.00107194
0.00107165
0.00107165
0.00107116
0.00107128
0.425345
0.252777
0.0331233
0.0448067
0.0219203
0.00389303
0.00512508
0.00201336
0.00134752
0.00111378
0.00109924
0.00107821
0.00107381
0.00107204
0.00107163
0.00107171
0.00107159
0.00107156
0.00107132
0.00107127
0.0461896
0.0411228
0.0551659
0.0831861
0.0517931
0.0113936
0.00913008
0.00176517
0.00214184
0.00127795
0.00148476
0.00123695
0.0011216
0.00107681
0.00106295
0.00106294
0.00106394
0.00106781
0.0010699
0.00107085
0.200004
0.0978577
0.0365537
0.0401075
0.0194818
0.0102893
0.00309031
0.00137431
0.00105698
0.00160136
0.00134002
0.00123253
0.00115925
0.00115139
0.000998031
0.000986705
0.000989078
0.0010119
0.00104163
0.00106133
16.4159
3.32375
0.102758
0.0394995
0.0235266
0.00583512
0.00331992
0.00124313
0.00150271
0.00140942
0.0014456
0.00130889
0.00134852
0.00135861
0.0011204
0.000900556
0.000921849
0.000970375
0.00101133
0.00104816
69.4895
49.939
9.59117
3.2362
0.78097
0.074795
0.00418587
0.0018691
0.00156053
0.00131169
0.00144085
0.00136386
0.00133783
0.00133778
0.00103625
0.000862357
0.000898578
0.000951663
0.00100012
0.00104394
157.579
75.851
35.0704
12.2132
3.72908
0.725795
0.0320392
0.00749584
0.00833324
0.00170014
0.00136243
0.00137299
0.0013319
0.00133558
0.00102852
0.000862195
0.00089922
0.000951842
0.000999901
0.00104382
265.501
234.545
106.036
34.2659
8.74484
1.2781
0.0337165
0.0113735
0.00858562
0.00150262
0.00133548
0.00136635
0.00133721
0.00133815
0.00108112
0.000926379
0.000936888
0.000972514
0.00101178
0.00104821
550.93
217.697
48.4183
8.13298
2.24278
0.155365
0.0204822
0.0137595
0.00538967
0.00152352
0.00123141
0.00118225
0.0011475
0.00114335
0.00100572
0.00099515
0.0009974
0.00101954
0.00104522
0.00106267
878.755
229.173
40.0869
6.78561
0.982889
0.102644
0.0295271
0.0213329
0.0113605
0.00556308
0.00246302
0.00148428
0.00116071
0.00108598
0.0010708
0.00106974
0.00106969
0.00107055
0.00107118
0.00107148
215.782
123.342
47.6008
7.89184
0.580057
0.0398494
0.0225985
0.0231037
0.0187789
0.0106347
0.00469504
0.00229797
0.00135956
0.00112102
0.00107873
0.00107286
0.00107197
0.00107185
0.00107168
0.00107165
45.5932
11.5603
3.23694
1.1259
0.334238
0.0826271
0.02832
0.0209325
0.0166199
0.00983643
0.00501856
0.00234735
0.00135437
0.00111339
0.00107679
0.00107229
0.00107204
0.00107181
0.00107182
0.00107164
5.23824
6.48662
5.38264
3.84703
1.39543
0.359921
0.068305
0.01657
0.00930649
0.00424649
0.00230903
0.00128705
0.00111064
0.00107564
0.00107226
0.00107169
0.00107189
0.00107168
0.00107164
0.00107162
27.2364
8.59781
5.30528
4.42143
2.08891
0.397438
0.0537297
0.00698819
0.00278683
0.00142597
0.00119505
0.00109205
0.00107624
0.00107265
0.00107211
0.00107173
0.00107168
0.00107151
0.00107164
0.00107164
19.7216
6.07707
4.2501
2.93325
0.652015
0.039444
0.00499792
0.00166773
0.00132066
0.00111438
0.0010772
0.00106853
0.00106916
0.00107089
0.0010715
0.0010717
0.0010716
0.00107148
0.00107153
0.00107158
4.78475
1.5126
1.44446
0.996639
0.209235
0.0245649
0.00288348
0.00119054
0.00109507
0.00107544
0.001072
0.00107091
0.00107132
0.00107167
0.00107159
0.00107169
0.00107134
0.00107125
0.00107125
0.0010715
0.259739
0.406611
0.402196
0.17476
0.0987591
0.045795
0.0189443
0.00711645
0.00443104
0.00391461
0.00315313
0.00202666
0.00135312
0.00110578
0.00104168
0.00102978
0.0010269
0.00102645
0.0010263
0.00102662
6.16454
4.99634
0.133087
0.0794687
0.0678078
0.0199929
0.0184747
0.0102306
0.00640878
0.00533943
0.00339992
0.00213715
0.00133842
0.000942015
0.000760316
0.000703615
0.000673142
0.000663612
0.000656811
0.000655516
107.952
64.7499
4.20309
0.228554
0.260628
0.142182
0.145199
0.0465524
0.0103259
0.00295593
0.0013711
0.00103322
0.000824389
0.000722056
0.000680687
0.000661732
0.000653392
0.000649222
0.000649068
0.000649741
336.619
54.0956
0.489226
0.0688267
0.0574934
0.0516523
0.055525
0.0163757
0.00332615
0.0013406
0.000965815
0.000793982
0.000745751
0.000690863
0.000672028
0.000657258
0.000652425
0.000648722
0.000649003
0.000649871
103.174
11.4945
0.457613
0.137069
0.15075
0.0333322
0.0356497
0.0109961
0.00323576
0.00138816
0.000943696
0.000755792
0.000719057
0.000674828
0.000669468
0.000656425
0.000652774
0.000648731
0.000649087
0.000650034
7.39247
15.6641
1.02158
0.250607
0.202142
0.0271527
0.0580404
0.0139642
0.00569942
0.00168626
0.00123458
0.000812835
0.000755836
0.000687467
0.000669894
0.000657614
0.000652974
0.000649394
0.000649604
0.000650278
1.21327
1.12081
0.685357
0.45906
0.248368
0.0926388
0.0821863
0.00854585
0.0131333
0.00153405
0.0019457
0.00114838
0.000894583
0.000725657
0.000697655
0.000667381
0.000656349
0.00065034
0.000650256
0.000650708
0.287747
0.085051
0.922217
0.588327
0.066687
0.0672061
0.0128651
0.0106915
0.01898
0.0377541
0.00676438
0.00314148
0.00182173
0.00111786
0.000771402
0.000701803
0.000672257
0.000658152
0.000654139
0.000652314
8.51459
1.05156
0.576749
0.417323
0.0928434
0.0370952
0.00719651
0.0244344
0.0283106
0.00205556
0.00321442
0.00100962
0.000879505
0.000832396
0.000779688
0.000695463
0.00068039
0.000667065
0.000660995
0.000655605
1164.09
654.682
98.5226
25.5237
4.9902
0.559453
0.0198873
0.00216523
0.00298787
0.0028481
0.00142088
0.0008319
0.000716008
0.000681845
0.000673282
0.000674376
0.000658612
0.000652237
0.000651681
0.000651735
1038.62
258.955
196.883
47.6453
11.5523
3.50302
0.319499
0.018053
0.0162174
0.00811135
0.002403
0.000859618
0.000684453
0.000666242
0.000662859
0.000664033
0.000658037
0.000652626
0.000652141
0.000651896
724.264
278.896
134.311
43.3828
10.5793
2.38528
0.0959338
0.0303249
0.0132691
0.010112
0.00267515
0.001058
0.000724563
0.000695479
0.000718885
0.000701249
0.000683279
0.000668054
0.0006611
0.000655689
1511.7
112.51
26.8794
7.60004
2.023
0.156074
0.0418662
0.0249585
0.0109908
0.00486571
0.00316133
0.00145181
0.00110172
0.000834568
0.000718498
0.0006772
0.000663646
0.000654911
0.000653929
0.00065255
781.489
46.1654
8.16766
1.23791
0.328209
0.0864898
0.0532411
0.0362895
0.0170608
0.0103613
0.0044438
0.00216036
0.001133
0.000790365
0.000705174
0.00066652
0.000656178
0.000650593
0.000650645
0.000651172
544.312
201.683
23.8894
1.95771
0.136139
0.0667043
0.0501635
0.0499404
0.0428039
0.0260769
0.00928215
0.00384836
0.00164954
0.000907737
0.000719086
0.000667068
0.000654488
0.000649535
0.000649702
0.000650594
172.505
145.066
43.2379
6.47547
0.66783
0.229379
0.0952867
0.0722782
0.0403439
0.0140453
0.00573073
0.00305656
0.00163806
0.000928315
0.000716006
0.000667769
0.000653554
0.000649252
0.000649206
0.000650268
5.77772
22.004
8.24017
4.011
0.741816
0.244372
0.0604069
0.0149006
0.00772922
0.00333007
0.00229354
0.00140654
0.000904157
0.000731371
0.000671614
0.000657826
0.00065068
0.00064848
0.00064874
0.000650101
47.8046
34.6133
5.74706
6.02476
1.34061
0.264218
0.0471377
0.0156129
0.0051541
0.00222681
0.00121573
0.00087398
0.000737941
0.00069002
0.0006639
0.000656044
0.00065034
0.000648331
0.000648589
0.000649944
30.9268
12.1368
3.69233
1.84762
0.227123
0.0283793
0.014034
0.00446475
0.00249766
0.00120868
0.000948336
0.000770316
0.000713871
0.000684468
0.000665731
0.000661952
0.000655533
0.00065515
0.000653414
0.000654181
1.61431
1.25283
1.26191
0.642394
0.122612
0.0145449
0.00256126
0.00131987
0.00115214
0.00105112
0.00100648
0.00100827
0.00100221
0.00101274
0.00101347
0.00102114
0.001022
0.0010252
0.00102531
0.00102665
3.7477
1.31731
2.32011
1.03494
0.39352
0.148
0.0599227
0.0159598
0.00442872
0.00199836
0.00155526
0.00131116
0.00113347
0.00104708
0.00102962
0.0010271
0.00102632
0.00102627
0.00102626
0.00102659
79.2251
9.18883
1.67354
1.01226
0.565582
0.0995155
0.0721721
0.0124172
0.0069369
0.00361258
0.00228155
0.00125393
0.00098261
0.000824723
0.000728972
0.000695032
0.00067058
0.000662655
0.000656311
0.000655111
390.437
186.913
11.867
1.32878
1.09187
0.881784
0.73585
0.245652
0.0574661
0.00898853
0.00188848
0.000898052
0.000742558
0.000692627
0.000670603
0.000658144
0.000652127
0.000648633
0.00064867
0.000649398
535.907
404.038
54.5173
0.849278
0.230096
0.256645
0.205572
0.044777
0.0110418
0.00260536
0.00110519
0.000785741
0.000734179
0.000684769
0.000669425
0.000656157
0.000651907
0.000648372
0.00064867
0.000649516
385.066
226.953
31.1849
0.75545
0.484694
0.0979503
0.135924
0.0295732
0.00533766
0.00176051
0.000991812
0.000761388
0.000718356
0.000673843
0.000668761
0.000655955
0.000652447
0.000648429
0.000648788
0.000649677
103.951
87.1373
9.38604
0.762424
0.606564
0.122658
0.288122
0.0502538
0.00700215
0.00179584
0.00123308
0.000810898
0.000753961
0.000686367
0.000669181
0.000657128
0.000652604
0.000649089
0.000649311
0.000649938
11.8775
10.6626
1.419
1.33643
0.504296
0.345852
0.393457
0.0277676
0.0134325
0.00133494
0.00195496
0.00115224
0.000896597
0.000728003
0.000698336
0.000667403
0.000656163
0.000650024
0.000649926
0.000650285
4.3988
0.744944
1.0058
1.00948
0.221825
0.205864
0.0900785
0.0223694
0.0224201
0.035463
0.00678079
0.00315577
0.0017899
0.00110343
0.000769667
0.000701169
0.00067193
0.000657891
0.000653938
0.000651902
37.7421
5.13007
2.14879
3.11579
1.2173
0.0930042
0.101774
0.064453
0.0144097
0.0120147
0.00267906
0.00102823
0.00088076
0.000833498
0.000779234
0.000700173
0.0006818
0.000667225
0.000660836
0.000655223
489.822
411.623
148.425
69.1443
21.3614
1.38924
0.0254311
0.00227653
0.00461366
0.00274326
0.00124294
0.000876991
0.000791691
0.000771687
0.000860009
0.000815662
0.000695872
0.000660742
0.000653242
0.000651736
549.331
853.008
578.278
133.436
17.1195
1.41388
0.153846
0.0405393
0.0115067
0.00516224
0.00289969
0.00149104
0.0010035
0.000902083
0.000992541
0.000741907
0.000684855
0.000659823
0.000653666
0.000651909
117.509
351.394
213.187
53.4722
8.4531
0.661069
0.0848737
0.0448078
0.0221085
0.00810826
0.00340419
0.00110966
0.000723736
0.000696221
0.000718867
0.00070161
0.000683187
0.000667861
0.000660903
0.000655342
672.583
76.1724
21.0221
5.41241
1.37114
0.230535
0.0931506
0.0548375
0.015197
0.00398345
0.0027438
0.00136582
0.00103465
0.000819813
0.000714135
0.000675735
0.000663149
0.00065461
0.000653662
0.000652152
1043.49
41.8285
7.20123
0.88231
0.440619
0.261811
0.133765
0.0623833
0.0173939
0.00814033
0.00286393
0.00144665
0.000920186
0.000731098
0.000686241
0.000660444
0.000653962
0.000649728
0.000650068
0.000650717
273.188
29.8055
3.84423
0.526603
0.148311
0.145912
0.0881731
0.0546269
0.022526
0.0137848
0.00617795
0.00268082
0.00121768
0.000790703
0.000690253
0.00065988
0.00065246
0.000648848
0.000649261
0.000650208
274.607
30.1875
5.29069
0.957075
0.200481
0.133065
0.0684688
0.0378412
0.0183197
0.00866497
0.00601246
0.00306102
0.0012901
0.00079896
0.000682862
0.000659106
0.000651057
0.000648423
0.000648677
0.0006499
27.915
11.6412
4.19204
0.856573
0.160549
0.0771831
0.0317231
0.014423
0.0068616
0.00337214
0.00203546
0.00107893
0.000786993
0.00069706
0.000662321
0.000654981
0.000649747
0.000648038
0.000648397
0.000649721
10.6693
14.6609
2.82171
0.559833
0.305089
0.0976528
0.0334174
0.0131076
0.00447908
0.00182728
0.00105903
0.000810848
0.000711954
0.000680967
0.000660401
0.000654584
0.000649646
0.00064791
0.000648242
0.00064957
1.71477
3.07805
0.85587
0.155093
0.0421897
0.0173484
0.028452
0.00996197
0.00440862
0.00168731
0.00104105
0.000784407
0.000713909
0.000683761
0.000665202
0.000661522
0.000655199
0.000654827
0.000653106
0.000653796
0.31351
0.66325
0.643575
0.218805
0.0364868
0.00374869
0.00327677
0.00197796
0.00151855
0.00111222
0.00101659
0.00100958
0.00100149
0.00101241
0.00101331
0.00102115
0.001022
0.00102519
0.0010253
0.00102664
0.330324
5.34691
5.6213
3.60074
1.43718
0.474591
0.181486
0.052433
0.0124365
0.00262848
0.00121579
0.0010624
0.00103859
0.00102939
0.00102713
0.00102674
0.00102628
0.00102626
0.00102625
0.00102659
15.4587
38.3192
14.611
6.78496
3.33491
1.26443
0.667089
0.0671193
0.021304
0.0117605
0.0153416
0.00575782
0.00128589
0.000825032
0.000727601
0.000700954
0.000681289
0.000670836
0.00066503
0.000668769
270.652
47.7135
6.89842
4.69823
5.81322
4.50582
3.42933
1.24741
0.373147
0.0698617
0.0180754
0.00341152
0.000951541
0.000711964
0.00067854
0.000666724
0.000661663
0.00065693
0.000657259
0.000662788
252.885
83.3992
10.9693
2.88855
2.08949
1.9296
1.01762
0.244892
0.0892777
0.0200058
0.00709037
0.00173797
0.000832965
0.000699007
0.000676125
0.000663539
0.000659421
0.000656477
0.000657182
0.000663209
269.106
59.1744
10.5623
3.60412
2.40928
1.09974
0.793957
0.118635
0.0356695
0.00777701
0.00195605
0.000913904
0.000740401
0.000681872
0.000676032
0.00066314
0.000661213
0.000659505
0.000660875
0.00066557
178.084
44.6726
3.09993
3.07873
2.08995
1.04103
1.278
0.257511
0.0352822
0.00517435
0.00161421
0.000886807
0.000773513
0.000699253
0.000683963
0.000673161
0.000666836
0.000660692
0.000661573
0.000664729
46.7447
7.81571
2.92013
2.35866
1.57782
1.21757
1.74199
0.337148
0.125132
0.00319748
0.00202333
0.00107983
0.000899113
0.000726236
0.000709502
0.000674843
0.000669718
0.000669222
0.000676034
0.000677469
203.486
15.6115
3.92005
1.2735
1.14181
0.80343
0.30188
0.153162
0.0242514
0.0333424
0.00585564
0.00305506
0.00174052
0.0010919
0.00114966
0.000817511
0.000703109
0.00066958
0.000661878
0.000662342
142
31.6522
5.94125
2.96166
0.530175
0.301348
0.351367
0.172177
0.0589426
0.0110132
0.00365707
0.0010288
0.000880235
0.000834477
0.000789216
0.00237405
0.000949216
0.000708191
0.000670479
0.000662744
2348.69
928.182
267.703
46.1956
4.32156
0.215915
0.152145
0.00849269
0.00884093
0.0227467
0.00137307
0.000836674
0.000731384
0.00071751
0.000702726
0.00274293
0.00109546
0.000712316
0.000663997
0.000660071
2406.77
1608.29
1028.61
308.106
19.5261
0.105268
0.0559402
0.0161143
0.00794171
0.0031878
0.00190618
0.00109295
0.000808885
0.000743749
0.000707537
0.00279019
0.0010644
0.000712729
0.000665133
0.000660076
158.177
405.846
337.681
77.869
4.10163
0.128211
0.236536
0.0944968
0.0794807
0.0185551
0.00331059
0.00104848
0.000723636
0.000696524
0.000717526
0.0027138
0.00106487
0.000722963
0.000672451
0.000666637
1457.81
183.015
46.4244
8.6717
4.41767
1.4536
0.456109
0.234292
0.0305302
0.00480582
0.00305098
0.00141385
0.00103953
0.000833365
0.000962456
0.000777555
0.000692699
0.000667658
0.000664938
0.000671869
1350.89
177.601
17.8956
2.7506
4.65325
2.02011
0.618403
0.223933
0.0344146
0.00942498
0.00235684
0.00108706
0.000836185
0.000714729
0.00069449
0.000671596
0.000665264
0.000661124
0.000662173
0.000670881
531.917
80.267
5.07375
0.745581
1.46111
0.337721
0.231105
0.093293
0.0224739
0.00983346
0.00276786
0.00141005
0.000924474
0.000746711
0.000696501
0.000672065
0.000665443
0.000660889
0.000661603
0.000668193
53.9842
15.3912
8.4474
1.06378
0.359702
0.289974
0.222027
0.0508197
0.0132478
0.00647616
0.00364083
0.00164839
0.000939641
0.000746097
0.000688331
0.000674588
0.000663996
0.000660429
0.000660868
0.000667493
9.31278
12.2092
12.4948
3.78835
0.830203
0.26308
0.191873
0.0273517
0.00691818
0.00269789
0.00152214
0.000944127
0.000761873
0.000704358
0.000676773
0.000668512
0.000663581
0.000661049
0.000662562
0.000669189
9.85735
6.55671
4.09084
0.882785
0.207978
0.0689205
0.0813257
0.0555252
0.0197178
0.0105541
0.00280869
0.00119449
0.000789349
0.000703989
0.000676178
0.000667359
0.000663152
0.00066062
0.000662764
0.000669243
1.94063
0.289342
0.571569
0.0357028
0.0148776
0.0414084
0.178382
0.0543316
0.0479623
0.0167359
0.00807624
0.00302895
0.00148529
0.000888371
0.000722966
0.000684255
0.000671413
0.000670823
0.000671699
0.000675295
0.638706
0.0998082
0.117475
0.0486217
0.00902666
0.00259064
0.00799808
0.00407519
0.00530075
0.00252962
0.00169539
0.00114506
0.0010448
0.0010236
0.00101719
0.0010214
0.001022
0.00102522
0.00102538
0.00102666
1.30924
1.51488
5.68019
5.39048
3.12444
1.10225
0.447595
0.147085
0.0421173
0.00975058
0.00229791
0.0011533
0.00104562
0.00104161
0.00106218
0.00108297
0.00114038
0.00114028
0.00115833
0.00112638
20.0524
16.6508
39.8729
18.3628
13.5512
4.6622
3.52071
0.588567
0.104444
0.0458857
0.13527
0.114763
0.163068
0.145398
0.164808
0.15218
0.159259
0.152813
0.156391
0.156407
126.863
46.2038
53.018
26.6111
25.6371
14.5307
11.519
4.42666
1.65539
0.399545
0.297363
0.192
0.205584
0.173485
0.180249
0.162897
0.166402
0.15832
0.160882
0.15929
311.926
125.662
62.9003
18.0897
17.3165
7.9579
3.86655
0.957758
0.492394
0.180617
0.189154
0.138282
0.154218
0.136219
0.146559
0.140366
0.147712
0.146339
0.15039
0.153744
365.564
215.906
112.932
26.4811
18.918
6.62722
2.83748
0.568892
0.477704
0.224931
0.210474
0.149685
0.161113
0.141652
0.153621
0.146462
0.155099
0.152288
0.156888
0.157466
540.406
201.974
39.5849
7.16997
6.50887
3.02383
3.07429
0.783293
0.731207
0.211835
0.141103
0.112835
0.119159
0.121331
0.126323
0.130167
0.139795
0.143103
0.149522
0.15343
244.912
22.9576
19.1922
8.42297
7.91282
3.98916
4.89318
2.5642
5.13377
0.460419
0.52186
0.195043
0.233097
0.158743
0.172009
0.153037
0.155157
0.152052
0.155936
0.156999
190.061
20.9153
21.4999
7.3797
5.92572
3.34253
1.43549
2.02721
2.92056
0.287816
0.10794
0.163939
0.0550363
0.121258
1.30682
0.566962
0.271225
0.174465
0.151758
0.149788
239.995
60.407
10.6773
7.11013
3.01752
2.2936
0.536864
0.354025
0.178658
0.0268839
0.00292101
0.000538588
0.000627947
0.000569811
0.194734
2.79754
0.828128
0.282235
0.161154
0.143305
1009.95
345.073
88.7655
9.5207
3.57905
0.790003
0.44701
0.0760768
0.0675111
0.0331654
0.00191955
0.00089378
0.000716803
0.000678027
0.191234
3.02621
0.915412
0.313773
0.171614
0.147928
3636.76
1163.13
744.017
93.3326
7.14305
1.01588
0.172456
0.103978
0.283706
0.0937495
0.00417823
0.00103614
0.000690401
0.000664675
0.263077
3.37151
1.00663
0.337112
0.17804
0.150933
238.524
447.454
482.934
110.488
21.686
1.18051
0.390415
0.554957
0.393844
0.046071
0.00838099
0.0012767
0.000735263
0.000701893
0.290628
3.4704
1.02705
0.341678
0.182953
0.155119
1742.19
834.019
154.949
53.9871
33.4736
6.21159
1.4533
1.79963
0.452707
0.0855222
0.062239
0.0169369
0.020911
0.0130388
1.13256
0.539533
0.291974
0.200226
0.176028
0.170129
2784.59
743.992
109.787
35.4913
29.6112
7.51625
7.4204
2.04277
0.751379
0.317332
0.29285
0.238978
0.261644
0.226032
0.21939
0.196507
0.195214
0.187069
0.186788
0.181442
1080.46
391.102
33.352
20.6658
15.7733
3.11215
3.4515
1.12452
0.655404
0.321673
0.294234
0.259394
0.265585
0.248445
0.23429
0.206942
0.204021
0.192869
0.191497
0.185182
38.2914
66.2486
22.4396
12.2573
8.91014
2.67304
2.60197
0.873047
0.637434
0.312615
0.345731
0.273917
0.291662
0.243795
0.239229
0.207812
0.206888
0.193883
0.19396
0.188274
7.91221
27.6051
23.989
14.6529
3.78188
1.41544
1.45166
0.555823
0.589594
0.299013
0.358366
0.245195
0.273347
0.221818
0.229751
0.205035
0.207786
0.194988
0.19546
0.189608
4.17189
4.01555
2.3285
0.0820518
0.0228943
0.0944219
1.06027
0.459577
0.570127
0.289943
0.338787
0.224838
0.257035
0.207027
0.223108
0.198166
0.205468
0.192564
0.195499
0.19073
2.32897
0.10845
0.025172
0.00421947
0.0033287
0.0323353
0.682189
0.292982
0.452612
0.208509
0.288924
0.186519
0.235055
0.189155
0.215118
0.192335
0.204474
0.192142
0.196912
0.191977
0.405842
0.104955
0.0113997
0.00790782
0.00268582
0.00152407
0.0026681
0.00230508
0.015223
0.00855712
0.0189132
0.00923551
0.0116172
0.00550452
0.00570577
0.00279657
0.00272683
0.00159188
0.00168852
0.00126324
0.00144995
0.00358412
0.00300534
0.00400217
0.00145364
0.00267712
0.0025472
0.000921838
0.00258869
0.00175486
0.00120081
0.000921625
0.00228686
0.00173891
0.00360959
0.00781935
0.00351899
0.00315734
0.00283705
0.0154799
0.00447669
0.00174482
0.00303957
0.00139067
0.0024308
0.00164679
0.00306616
0.00127111
0.00123961
0.00338051
0.0021774
0.00601602
0.00315611
0.00505614
0.00228229
0.00153678
0.00208216
0.00146953
0.00620287
0.00880276
0.00219397
0.00208256
0.00128221
0.00136579
0.00131845
0.00476554
0.00191714
0.00212978
0.00188576
0.00146744
0.00132807
0.00145637
0.00184649
0.00313765
0.00186724
0.00215219
0.00127336
0.00146058
0.00138481
0.00303546
0.00106676
0.00192599
0.000972918
0.00134972
0.00135407
0.00133822
0.00103352
0.000900977
0.000862475
0.000721591
0.00136531
0.00133842
0.00133879
0.00087733
0.000806744
0.000705301
0.000676898
0.00135927
0.00133887
0.00145862
0.0008279
0.000824844
0.00067375
0.000668392
0.00206047
0.0074901
0.005093
0.00834918
0.00250166
0.0132863
0.00389276
0.00161593
0.00584502
0.00644981
0.0021359
0.00288032
0.00498207
0.0194468
0.00131196
0.00616893
0.00192574
0.00317828
0.00221368
0.0197394
0.0135193
0.00140244
0.00147299
0.00132952
0.00210681
0.00229538
0.00808553
0.00303224
0.00140496
0.00135367
0.0013855
0.00211928
0.0010486
0.00238153
0.00111818
0.00133786
0.00136903
0.001334
0.000905287
0.000736
0.000925737
0.000711809
0.00133774
0.00133433
0.00133509
0.000715586
0.000681058
0.000690552
0.000670176
0.00146087
0.00133452
0.00145005
0.000677422
0.000667755
0.000669184
0.000667432
0.00737703
0.0424622
0.0103689
0.0888966
0.0102809
0.121466
0.0169947
0.00867035
0.010337
0.0139505
0.00994432
0.0201578
0.0253679
0.0165386
0.00254627
0.0133092
0.00305188
0.0187271
0.0123698
0.014015
0.0132983
0.0013494
0.00187867
0.00135611
0.00857947
0.0037187
0.0104743
0.00344661
0.00139364
0.00136044
0.00139899
0.0031106
0.00121315
0.00278682
0.00155454
0.00133173
0.0013766
0.00133628
0.000958255
0.000707436
0.00119372
0.000740973
0.00133578
0.00133593
0.00133614
0.000686499
0.000665626
0.000704695
0.00067249
0.00145171
0.00133727
0.00145806
0.000662921
0.000660776
0.000669639
0.000665055
0.0111695
0.0425856
0.0118342
0.0783897
0.0219857
0.123972
0.0386729
0.0123892
0.0117983
0.00567374
0.0280874
0.0155078
0.0286257
0.0120757
0.00184011
0.00403447
0.00142504
0.0140746
0.0130081
0.00969823
0.00387441
0.00132959
0.00132063
0.00125165
0.00992134
0.0038252
0.00296128
0.00231849
0.00138024
0.00124343
0.00124558
0.0030827
0.00154241
0.00222797
0.00170733
0.00133803
0.00124596
0.00124548
0.00119677
0.000763066
0.00171326
0.00120927
0.00133747
0.00124439
0.00125732
0.000731231
0.000698546
0.0010878
0.000846925
0.00144735
0.00125623
0.00125816
0.00069507
0.000679699
0.000841527
0.000768444
0.0160179
0.0115279
0.00252368
0.0506276
0.0519479
0.021151
0.00326889
0.031886
0.00231497
0.00208068
0.0496382
0.0141664
0.00237035
0.00199231
0.00289341
0.00209685
0.00205285
0.00962696
0.00502994
0.00206341
0.0058413
0.00420538
0.00261942
0.00178445
0.0104919
0.00335027
0.00478621
0.0013959
0.00102288
0.00133507
0.000848397
0.00248553
0.00101553
0.00113897
0.000831987
0.000900135
0.000798293
0.000719492
0.00101058
0.000903154
0.000802077
0.000725467
0.000810723
0.000706755
0.00067839
0.000880269
0.000811547
0.000710789
0.000688546
0.000834499
0.000674545
0.000666884
0.000833343
0.000837205
0.000685196
0.000678265
0.00269631
0.0262839
0.00487373
0.0221025
0.00262099
0.0302392
0.0185257
0.00272713
0.00667037
0.0205827
0.00216199
0.00253999
0.0244935
0.0150513
0.00286888
0.0202249
0.013094
0.00303182
0.00396537
0.0116323
0.0050631
0.00179125
0.00769919
0.00255478
0.00289111
0.00143458
0.00381665
0.00241391
0.000903151
0.00187999
0.000967007
0.00122547
0.000873761
0.00196753
0.0011679
0.000731649
0.000845038
0.000704911
0.000833534
0.000747404
0.00109734
0.000908362
0.000686366
0.000688171
0.000672864
0.000730377
0.000718383
0.000854737
0.000814647
0.000665776
0.000671782
0.000671077
0.000715972
0.000696088
0.000813477
0.000837262
0.0191747
0.329586
0.0325562
0.336389
0.0403137
0.272391
0.0543457
0.0190556
0.0351257
0.015895
0.0376732
0.0171707
0.0458091
0.0213662
0.012122
0.0133856
0.0114487
0.013318
0.00719091
0.0186945
0.00933124
0.00320654
0.00950862
0.00342066
0.00567149
0.00306156
0.0070622
0.00409972
0.00101209
0.00260898
0.00129667
0.00235883
0.0012192
0.00337575
0.00134826
0.000700788
0.00104217
0.000726507
0.00110335
0.000860574
0.00104753
0.000723841
0.000668216
0.000698517
0.000673627
0.00080325
0.000738447
0.000697613
0.000673149
0.000662182
0.000671173
0.000666755
0.000739737
0.00082317
0.000670691
0.000667399
0.0310721
0.124633
0.0517319
0.0841681
0.0419634
0.125057
0.0897475
0.0153134
0.0309301
0.0111651
0.0401381
0.0235156
0.0722519
0.0138314
0.0124006
0.00820609
0.00445595
0.0179147
0.00962496
0.00892841
0.00444388
0.00359583
0.00397807
0.00217074
0.00805532
0.00508231
0.0040163
0.00220578
0.00130197
0.00205197
0.00139976
0.00385942
0.00138808
0.00202196
0.00134055
0.000747451
0.00137182
0.00105867
0.00107974
0.000746886
0.00130953
0.0010275
0.000698923
0.000987222
0.000824183
0.000723914
0.00069935
0.000946851
0.000815234
0.000681429
0.000820955
0.000765064
0.000696632
0.00068212
0.00081503
0.000762503
0.0709045
0.0389117
0.00340226
0.287912
0.156376
0.146619
0.00742573
0.018491
0.00242166
0.0021162
0.165087
0.0945131
0.00439774
0.0067877
0.0102674
0.00257306
0.00592597
0.057236
0.00914776
0.00644925
0.00588542
0.00338039
0.00388087
0.0013945
0.00828809
0.00387265
0.00680036
0.00171183
0.00104426
0.00115436
0.000850815
0.0029125
0.00103754
0.00122999
0.000852236
0.000905354
0.0008135
0.000743609
0.0010225
0.000905054
0.000815336
0.000745114
0.000811906
0.000725971
0.000701892
0.000880784
0.000811997
0.000726741
0.000702229
0.000837068
0.000696062
0.000683828
0.000833789
0.000837005
0.000696449
0.00068467
0.00262916
0.0342502
0.0248101
0.0424245
0.00448799
0.031081
0.0179242
0.00288388
0.0246647
0.0118125
0.00415979
0.00704935
0.0129981
0.00666246
0.00361601
0.00916411
0.00440921
0.00645964
0.0045703
0.00568199
0.003163
0.00210084
0.00213229
0.00262769
0.00268605
0.00214826
0.00211088
0.00257655
0.00139543
0.00108963
0.00136176
0.00123259
0.00118819
0.00111706
0.00142202
0.000808666
0.00161454
0.00130216
0.000882008
0.000813443
0.00162527
0.00131711
0.000778119
0.00118872
0.00110393
0.000794463
0.000779689
0.00120969
0.00113679
0.000698182
0.00111073
0.00121661
0.000773756
0.000700493
0.00114744
0.00131763
0.0480481
0.157638
0.0607195
0.0609153
0.0309175
0.0974903
0.0610182
0.0151329
0.0444508
0.0247356
0.0188749
0.00836211
0.0500092
0.0426244
0.00636979
0.0221318
0.0110795
0.0070801
0.00350584
0.0430302
0.0225372
0.0046941
0.00467238
0.00612324
0.00402943
0.00557295
0.00374775
0.00496646
0.00207131
0.00226216
0.00281965
0.00242576
0.00202508
0.00189094
0.00274355
0.00109027
0.00107063
0.000725351
0.00144236
0.00108584
0.0010118
0.000720943
0.000896698
0.000698627
0.000674409
0.00100142
0.000895711
0.000696937
0.000674512
0.00111161
0.000671629
0.000668759
0.000904169
0.00115716
0.000671794
0.000669043
0.0547504
0.125773
0.1247
0.118813
0.105334
0.229097
0.227848
0.0289979
0.0867897
0.0161726
0.078034
0.0634251
0.131604
0.0361305
0.0103839
0.0101436
0.00437642
0.0532719
0.0197891
0.0191089
0.00651783
0.00416639
0.00410087
0.00237329
0.0146436
0.00463417
0.00523763
0.00272891
0.00144067
0.0021544
0.00134861
0.00320132
0.00132112
0.00235727
0.00138777
0.000747834
0.00132173
0.00102934
0.00105468
0.00074474
0.00135133
0.00103702
0.000699146
0.00095849
0.000817288
0.00072284
0.00069931
0.000960661
0.000818034
0.000682476
0.000816351
0.000763051
0.000696597
0.000683514
0.000816849
0.000762018
0.163075
0.270581
0.0141364
0.517784
0.154476
0.399502
0.0891391
0.0964112
0.00876729
0.00878106
0.199099
0.136467
0.0727975
0.0372128
0.0103251
0.00787524
0.0255428
0.0961534
0.0275974
0.0335379
0.0230142
0.00557536
0.0256141
0.00289196
0.0211785
0.00540972
0.0221214
0.00304591
0.00105688
0.00154877
0.000841723
0.0037009
0.00097419
0.00162574
0.000835013
0.000903542
0.00080449
0.000725341
0.000943815
0.000891858
0.000787694
0.000717632
0.000811561
0.000710619
0.000688838
0.000886106
0.000809991
0.000705364
0.000678181
0.00083128
0.000685518
0.000678778
0.000830878
0.000919762
0.000674454
0.000669949
0.0104
0.0341944
0.01574
0.3143
0.0843633
0.128956
0.068398
0.00900434
0.0125349
0.0102558
0.065756
0.0403696
0.0571769
0.0277611
0.0273767
0.00949366
0.00424762
0.0336824
0.0255644
0.0221584
0.00761962
0.00203997
0.0030873
0.0020583
0.0226134
0.00237136
0.00643508
0.00366414
0.000876745
0.0017177
0.00115119
0.00151032
0.00088412
0.00282131
0.00117399
0.000748459
0.00109778
0.000912074
0.00081724
0.000729
0.000933503
0.000707071
0.000720065
0.00085706
0.000813639
0.00071472
0.000686476
0.000688113
0.000672432
0.000695343
0.000810969
0.000836129
0.000682312
0.000671194
0.000671092
0.000673894
0.0221385
0.151155
0.0756525
0.0781088
0.0518204
0.250049
0.0429438
0.00998103
0.0578262
0.0513761
0.0390152
0.0318962
0.0420718
0.127666
0.00388692
0.056192
0.0318139
0.0400973
0.0315594
0.135199
0.0844359
0.00227873
0.0211085
0.00504552
0.0174698
0.00392979
0.0580887
0.0110869
0.00117513
0.00325361
0.00125559
0.00263976
0.00105505
0.00588289
0.00133751
0.00086792
0.00100117
0.000718795
0.0008776
0.000700778
0.00101553
0.000717189
0.000742625
0.00069547
0.000673013