/*--------------------------------*- C++ -*----------------------------------*\
  =========                 |
  \\      /  F ield         | OpenFOAM: The Open Source CFD Toolbox
   \\    /   O peration     | Website:  https://openfoam.org
    \\  /    A nd           | Version:  10
     \\/     M anipulation  |
\*---------------------------------------------------------------------------*/
FoamFile
{
    format      ascii;
    class       volScalarField;
    location    "0.6";
    object      k_0;
}
// * * * * * * * * * * * * * * * * * * * * * * * * * * * * * * * * * * * * * //

dimensions      [0 2 -2 0 0 0 0];

internalField   nonuniform List<scalar> 
12920
(
0.00419947
0.0182209
0.0411189
0.0255223
0.0204275
0.0122044
0.00647191
0.0042937
0.00357406
0.00301404
0.00236806
0.0017647
0.00133204
0.00113078
0.00108023
0.00107268
0.00107141
0.00107102
0.00107079
0.00107092
0.0460099
0.217729
0.024113
0.0109701
0.00929092
0.00564631
0.00409373
0.00310405
0.00237769
0.00184314
0.00139552
0.00120926
0.00111824
0.00108092
0.00107287
0.00107185
0.00107152
0.00107117
0.00107098
0.00107105
0.116912
0.883561
0.0353176
0.00797563
0.014846
0.0101687
0.0152436
0.00659588
0.00246353
0.00142529
0.00114994
0.00109248
0.0010765
0.00107277
0.00107196
0.0010719
0.00107168
0.0010716
0.00107103
0.00107113
7.23407
1.26925
0.054069
0.00827103
0.0091022
0.00724895
0.00812276
0.00330034
0.00137781
0.00113351
0.00108169
0.00107422
0.00107232
0.00107202
0.00107176
0.00107177
0.00107155
0.00107156
0.00107116
0.00107123
2.83862
0.366579
0.0212542
0.00981884
0.0149735
0.00557019
0.00361663
0.00181026
0.00122159
0.0011026
0.00107674
0.00107249
0.00107173
0.00107175
0.00107169
0.00107181
0.00107152
0.00107152
0.00107103
0.00107116
0.396194
0.234517
0.0329595
0.0446097
0.0217451
0.00386537
0.00503756
0.00198573
0.00134394
0.00111293
0.00109902
0.00107803
0.00107367
0.00107191
0.0010715
0.00107158
0.00107146
0.00107144
0.00107119
0.00107115
0.0389047
0.0404193
0.0545825
0.0818326
0.0514425
0.0113081
0.00891422
0.00175333
0.002135
0.00127802
0.00148339
0.00123574
0.00112093
0.00107653
0.00106278
0.00106281
0.00106382
0.00106771
0.00106978
0.00107073
0.195784
0.0914472
0.0352983
0.0398183
0.0191068
0.0101471
0.00303993
0.0013651
0.00105793
0.00159799
0.00133848
0.00123076
0.00115875
0.00115111
0.000997613
0.000986513
0.000988988
0.00101203
0.00104169
0.00106128
16.0842
3.00965
0.0877168
0.0384384
0.0229678
0.00574646
0.00326589
0.00124375
0.00149925
0.00140723
0.00144373
0.00130927
0.00134793
0.00135784
0.00111994
0.000900569
0.000922034
0.000970604
0.0010115
0.00104817
73.4694
48.8785
9.22713
3.12049
0.746577
0.0703563
0.00405441
0.00185868
0.00154917
0.00131096
0.00144025
0.00136224
0.00133713
0.00133707
0.001036
0.000862498
0.000898803
0.000951925
0.00100035
0.00104398
168.333
75.6692
34.8788
11.9623
3.60546
0.686223
0.0298034
0.00746987
0.00825198
0.00167753
0.00136233
0.00137125
0.00133122
0.00133487
0.00102827
0.000862353
0.000899446
0.000952099
0.00100012
0.00104386
284.921
233.787
103.471
33.0969
8.30828
1.1834
0.0310034
0.0113512
0.00833725
0.0014926
0.00133473
0.00136469
0.0013365
0.00133746
0.00108076
0.000926319
0.000936943
0.000972723
0.00101193
0.00104822
560.135
217.057
47.5102
7.76409
2.09128
0.141254
0.0197487
0.0136671
0.0053349
0.00151579
0.00123009
0.00118129
0.00114691
0.00114294
0.00100527
0.000994995
0.000997329
0.00101965
0.00104526
0.00106261
827.809
214.723
37.5387
6.29803
0.906243
0.0949593
0.0288971
0.0212121
0.0112883
0.00552236
0.00244688
0.00147829
0.0011589
0.0010855
0.00107064
0.00106961
0.00106957
0.00107043
0.00107106
0.00107135
191.181
116.151
44.6209
7.04577
0.497949
0.0370252
0.0224562
0.0230429
0.0186671
0.0105184
0.00464762
0.00227858
0.00135373
0.0011197
0.00107842
0.0010727
0.00107184
0.00107172
0.00107155
0.00107152
37.6691
10.1904
2.98094
1.06955
0.319169
0.0807794
0.0279994
0.0207856
0.0164922
0.00973928
0.00496419
0.00232336
0.00134736
0.00111199
0.00107649
0.00107215
0.00107191
0.00107168
0.00107169
0.00107151
4.41288
6.15343
5.2764
3.81759
1.38263
0.352373
0.0663763
0.0161748
0.0091718
0.00418652
0.00228061
0.00128022
0.00110913
0.00107537
0.00107212
0.00107156
0.00107177
0.00107155
0.00107152
0.00107149
25.0264
8.33577
5.24283
4.37058
2.04122
0.382025
0.0511501
0.00673215
0.00274756
0.00141873
0.00119217
0.00109146
0.00107602
0.00107251
0.00107198
0.0010716
0.00107155
0.00107138
0.00107152
0.00107151
18.9777
5.90407
4.19031
2.87152
0.623878
0.0370635
0.00483205
0.00166098
0.00131728
0.00111368
0.00107687
0.0010684
0.00106905
0.00107078
0.00107137
0.00107157
0.00107147
0.00107135
0.0010714
0.00107146
4.20832
1.4402
1.41535
0.968323
0.20027
0.023373
0.00278991
0.00118701
0.00109458
0.00107525
0.00107185
0.00107079
0.00107119
0.00107155
0.00107146
0.00107157
0.00107121
0.00107112
0.00107112
0.00107138
0.0883085
0.383896
0.385162
0.162748
0.0944742
0.0444334
0.0183662
0.00696845
0.00440483
0.0039069
0.00313702
0.00201129
0.00134609
0.00110366
0.0010412
0.00102965
0.00102684
0.0010264
0.00102625
0.00102657
5.71283
4.33347
0.118467
0.0768497
0.0659008
0.0196598
0.0183388
0.0101413
0.00637751
0.00530407
0.0033732
0.00212124
0.00132938
0.00093804
0.000759095
0.000703334
0.000673241
0.000663845
0.000657126
0.000655865
114.532
60.3151
3.43888
0.218337
0.257604
0.139998
0.142662
0.0449894
0.00999369
0.00289722
0.00135977
0.00102868
0.000822331
0.00072144
0.000680653
0.000661935
0.000653698
0.000649579
0.000649444
0.000650127
303.565
47.8873
0.433352
0.0679394
0.0571356
0.0510717
0.0548804
0.0159497
0.00326163
0.00132942
0.000963586
0.000793137
0.000745493
0.000690864
0.000672214
0.000657545
0.000652763
0.000649089
0.000649385
0.000650259
88.6571
11.2564
0.418307
0.136364
0.149908
0.0331478
0.0352649
0.0107594
0.00319631
0.00137877
0.000941216
0.000755268
0.000718962
0.000675017
0.000669711
0.000656733
0.000653108
0.000649099
0.000649468
0.000650421
6.03817
14.5476
0.99684
0.248305
0.200339
0.0268649
0.0569822
0.0136306
0.00564918
0.00167325
0.00123059
0.000811842
0.00075553
0.000687534
0.000670105
0.000657929
0.000653315
0.00064976
0.000649984
0.000650667
1.14509
1.02875
0.6763
0.450592
0.246208
0.0918587
0.0803369
0.00849187
0.0130002
0.00154443
0.00194134
0.00114524
0.000893391
0.000725523
0.000697743
0.000667628
0.000656667
0.000650704
0.000650636
0.000651096
0.239108
0.0809441
0.927237
0.572752
0.0631937
0.0662807
0.0126141
0.010616
0.0188349
0.037424
0.00670536
0.00312928
0.00181363
0.00111581
0.000770948
0.000701855
0.000672498
0.000658474
0.000654497
0.000652693
7.78622
0.978697
0.558867
0.403753
0.0901513
0.0360894
0.00717367
0.0236946
0.0277297
0.00203897
0.00316705
0.00100876
0.000879319
0.000833177
0.000779606
0.000695731
0.000680702
0.000667392
0.000661342
0.000655974
1208.28
652.4
93.3293
24.4012
4.68801
0.516923
0.0184749
0.00214365
0.00295232
0.00284097
0.00141012
0.000830196
0.00071599
0.00068207
0.00067354
0.000674625
0.000658924
0.000652598
0.000652064
0.000652123
985.523
251.301
191.241
45.6441
11.059
3.35539
0.299494
0.017967
0.0161681
0.0079601
0.00237618
0.000856253
0.000684449
0.000666532
0.000663242
0.000664372
0.000658392
0.000652992
0.000652524
0.00065228
679.342
278.453
131.523
41.9194
10.0911
2.21812
0.08505
0.0301336
0.013198
0.00996729
0.00264743
0.00105195
0.000724525
0.000695818
0.000719271
0.000701498
0.00068358
0.000668378
0.000661449
0.00065606
1512.02
110.367
26.3981
7.20422
1.87512
0.143031
0.0411147
0.0247285
0.0109668
0.00483902
0.00315129
0.00144731
0.00109872
0.000833647
0.000718431
0.000677395
0.000663962
0.000655267
0.000654308
0.000652932
726.966
46.5595
7.97906
1.16984
0.305328
0.0842444
0.0528904
0.0360818
0.0169671
0.0102908
0.00441164
0.00214424
0.00112795
0.000789057
0.000705004
0.000666712
0.000656501
0.000650958
0.000651029
0.000651555
543.477
185.633
21.3371
1.71763
0.125011
0.0661194
0.050026
0.04983
0.0426799
0.0256712
0.00912801
0.00380012
0.00163405
0.000903892
0.000718445
0.000667201
0.000654808
0.000649903
0.000650087
0.000650979
156.797
138.533
40.1317
6.04232
0.642179
0.22546
0.0945235
0.071463
0.0396439
0.0137391
0.00563722
0.00302798
0.00162261
0.000923624
0.000715193
0.000667855
0.000653863
0.000649617
0.000649588
0.000650652
4.83615
21.4173
7.96034
3.99241
0.740301
0.239225
0.0589773
0.0145623
0.00754745
0.00329597
0.00227562
0.00139556
0.000899941
0.000730494
0.000671648
0.000658099
0.000651029
0.000648855
0.000649127
0.000650486
49.48
34.9913
5.71182
5.93929
1.30702
0.255105
0.0459809
0.0154163
0.00510044
0.0022096
0.00120982
0.000872163
0.000737393
0.000690062
0.000664141
0.000656368
0.000650696
0.000648709
0.000648975
0.000650328
31.4226
12.2077
3.68454
1.7817
0.216034
0.0276175
0.0139645
0.00444477
0.00248382
0.00120518
0.000946388
0.000769976
0.000713766
0.000684681
0.000666001
0.000662294
0.000655887
0.000655522
0.000653783
0.000654548
1.27477
1.23492
1.24526
0.619652
0.117106
0.0138377
0.00251226
0.0013168
0.00115074
0.0010507
0.00100639
0.00100829
0.0010023
0.0010128
0.00101353
0.00102115
0.001022
0.00102517
0.00102528
0.00102662
2.79891
1.26022
2.23286
0.971511
0.371632
0.142099
0.0577423
0.0153307
0.00429798
0.00197689
0.0015513
0.00130767
0.00113104
0.0010464
0.00102947
0.00102704
0.00102627
0.00102622
0.00102621
0.00102655
70.5662
7.90123
1.5422
0.978838
0.548907
0.0967425
0.0705539
0.0120829
0.00686821
0.00358109
0.00225733
0.00124597
0.000979605
0.00082315
0.000728433
0.000694931
0.000670727
0.000662903
0.00065663
0.000655462
396.314
166.844
9.6038
1.24863
1.0779
0.866948
0.721886
0.237995
0.0553915
0.00864536
0.00184165
0.000892332
0.000741799
0.000692536
0.000670754
0.000658409
0.000652452
0.000648997
0.000649048
0.000649785
549.471
404.345
48.4587
0.73798
0.22969
0.25425
0.202687
0.0434783
0.0107769
0.00254919
0.00109752
0.000784562
0.000734026
0.000684853
0.000669649
0.000656459
0.000652251
0.000648741
0.000649053
0.000649904
394.181
222.951
29.2407
0.753095
0.48199
0.0977861
0.133845
0.0286263
0.00522555
0.00174072
0.000987991
0.000760716
0.000718259
0.000674045
0.000669014
0.000656266
0.000652783
0.000648798
0.000649169
0.000650064
101.644
84.1194
7.87848
0.741581
0.601455
0.121527
0.282755
0.0485242
0.00688422
0.00177851
0.00122888
0.0008099
0.000753671
0.000686443
0.000669398
0.000657445
0.000652947
0.000649456
0.000649693
0.000650327
12.2334
9.98067
1.37791
1.31363
0.499453
0.343935
0.385637
0.0272714
0.0133023
0.00135056
0.00195086
0.00114916
0.000895407
0.000727858
0.000698419
0.000667648
0.00065648
0.000650388
0.000650307
0.000650673
1.5324
0.701927
1.00784
0.991795
0.209588
0.202478
0.0887713
0.0220748
0.0222866
0.0351934
0.00672503
0.00314279
0.00178183
0.00110151
0.000769212
0.000701226
0.000672172
0.000658214
0.000654296
0.000652281
31.946
4.73872
2.08306
3.08241
1.18214
0.0916133
0.099471
0.0626372
0.0143258
0.0119708
0.00265625
0.00102726
0.000880504
0.000834274
0.00077913
0.000700405
0.000682099
0.000667547
0.000661182
0.000655592
479.943
410.496
145.329
68.2114
20.5763
1.26894
0.0231151
0.0022616
0.00467192
0.00271698
0.00123707
0.00087615
0.000791941
0.000771959
0.000859997
0.000814326
0.000695722
0.000660977
0.000653594
0.000652118
573.792
848.117
568.993
127.847
15.9819
1.28841
0.143484
0.0399054
0.0113573
0.00512731
0.00287701
0.00148412
0.00100114
0.000902542
0.000992687
0.000741717
0.000684969
0.000660103
0.000654025
0.000652288
121.725
346.692
204.167
50.3785
7.90173
0.604359
0.0821714
0.0443055
0.0217949
0.00801853
0.00337545
0.0011017
0.000723693
0.000696578
0.000719243
0.000701843
0.000683485
0.000668185
0.000661251
0.000655713
645.639
73.0614
19.7428
5.04388
1.28553
0.223787
0.092403
0.0541511
0.0150647
0.00395843
0.00273338
0.0013617
0.00103216
0.000818987
0.000714123
0.000675948
0.00066347
0.000654968
0.000654041
0.000652534
935.45
40.0475
7.00227
0.845666
0.42444
0.258832
0.132503
0.0616029
0.0171981
0.00805959
0.00284163
0.00143878
0.000917841
0.000730633
0.000686328
0.00066072
0.000654315
0.000650103
0.000650458
0.000651101
245.17
28.4279
3.54874
0.500055
0.145743
0.144518
0.0873323
0.0540706
0.0223208
0.0136585
0.00611696
0.00265352
0.00120944
0.000788917
0.000690121
0.000660136
0.000652812
0.000649224
0.000649651
0.000650592
250.755
29.5784
5.07809
0.942525
0.197018
0.131617
0.0677428
0.0371882
0.0180085
0.00855802
0.00595654
0.00302338
0.00127816
0.000796472
0.000682679
0.000659354
0.000651408
0.000648799
0.000649065
0.000650285
24.2299
11.2869
4.16055
0.846328
0.157901
0.0767337
0.0313145
0.0142586
0.00678302
0.00334045
0.00201494
0.00107299
0.000784982
0.000696865
0.000662547
0.000655306
0.000650111
0.000648418
0.000648785
0.000650106
10.0952
14.5936
2.82252
0.558842
0.299527
0.0964018
0.0331556
0.013004
0.0044407
0.00181589
0.00105496
0.000809889
0.000711782
0.000681133
0.000660687
0.000654926
0.00065001
0.000648291
0.000648631
0.000649955
1.81626
3.0469
0.859688
0.152233
0.0414515
0.0171805
0.0283319
0.00993397
0.00438285
0.00167848
0.00103776
0.000783784
0.000713779
0.000683974
0.000665477
0.000661866
0.000655555
0.0006552
0.000653476
0.000654164
0.31566
0.679592
0.632686
0.208493
0.0347101
0.00365161
0.00327562
0.00197446
0.00151343
0.00111086
0.00101629
0.00100955
0.00100159
0.00101246
0.00101338
0.00102116
0.001022
0.00102516
0.00102527
0.0010266
0.308795
5.25446
5.50421
3.43733
1.3577
0.450366
0.173666
0.0501355
0.0118743
0.00253673
0.00120551
0.00106142
0.00103826
0.00102927
0.00102707
0.00102669
0.00102623
0.00102621
0.0010262
0.00102655
13.4755
36.3593
13.9243
6.51602
3.23524
1.22803
0.646677
0.064312
0.0210057
0.0116898
0.0151938
0.00561354
0.00126682
0.000822524
0.000727096
0.000700867
0.000681385
0.000671013
0.000665291
0.000669094
228.109
42.7886
6.66858
4.67341
5.76809
4.42942
3.36341
1.21415
0.361645
0.0675524
0.0175404
0.00329919
0.000939842
0.000710983
0.000678576
0.000666928
0.000661915
0.000657221
0.000657573
0.000663147
255.182
82.9332
9.85659
2.82391
2.08152
1.90979
0.999481
0.239114
0.08744
0.0195374
0.0069513
0.00170646
0.000829237
0.000698687
0.000676266
0.00066379
0.000659708
0.00065679
0.00065751
0.000663575
273.733
58.5032
10.1938
3.54104
2.38175
1.08542
0.780603
0.115675
0.0350609
0.00760996
0.00192107
0.000908513
0.000739665
0.000681956
0.000676214
0.000663403
0.0006615
0.000659823
0.000661207
0.000665917
174.864
39.4404
2.69393
3.02816
2.05742
1.02667
1.26111
0.250605
0.0345008
0.00506271
0.00160014
0.000884321
0.000772978
0.000699285
0.000684159
0.000673441
0.000667109
0.000660994
0.0006619
0.000665068
40.5155
7.1828
2.90565
2.32464
1.56295
1.21158
1.71733
0.329831
0.122335
0.00316093
0.00201338
0.0010784
0.00089796
0.000726133
0.000709522
0.000675015
0.000670016
0.000669554
0.000676345
0.000677729
197.761
15.1502
3.92593
1.25924
1.12548
0.793417
0.29412
0.150072
0.0240029
0.0330671
0.00581419
0.00304355
0.00173313
0.00109006
0.00114478
0.000814683
0.000702764
0.000669727
0.000662162
0.00066267
136.902
30.844
5.82262
2.85851
0.516135
0.296981
0.346281
0.169091
0.0578506
0.0110425
0.00359937
0.00102738
0.000880004
0.000835222
0.000788947
0.002341
0.000941752
0.000707366
0.000670628
0.000663047
2240.95
900.474
260.799
43.5065
4.02897
0.205598
0.146986
0.00860978
0.00888405
0.0224028
0.00135882
0.000835822
0.000731486
0.000717829
0.0007028
0.00271918
0.00108042
0.000710884
0.000664108
0.000660384
2443.97
1591.66
1022.47
297.13
17.4339
0.10008
0.0548361
0.0158881
0.00785581
0.00316982
0.00189305
0.00109037
0.000807593
0.000744083
0.000707774
0.00275791
0.00105061
0.000711377
0.000665239
0.00066038
167.901
402.809
330.945
72.3233
3.62171
0.125202
0.23718
0.0931825
0.0783496
0.0182379
0.00326379
0.00104238
0.000723633
0.000696876
0.000717825
0.00268065
0.00105094
0.000721657
0.000672547
0.00066694
1363.16
172.351
44.0931
8.03225
4.29061
1.4463
0.451947
0.230565
0.0300344
0.00476883
0.00303442
0.00140904
0.00103681
0.000832224
0.000959244
0.000775383
0.000692431
0.000667841
0.000665232
0.000672236
1263.11
161.446
16.8438
2.6513
4.5496
1.98655
0.611125
0.220485
0.0338467
0.00930517
0.00233281
0.00108251
0.000834969
0.00071453
0.000694497
0.000671782
0.000665517
0.000661406
0.000662482
0.000671237
474.758
71.1519
4.91728
0.73283
1.41557
0.328452
0.226108
0.091645
0.0219935
0.00962188
0.00273986
0.00140247
0.000921943
0.000746072
0.000696458
0.000672238
0.000665687
0.000661163
0.000661901
0.000668531
51.5779
14.9604
8.5145
1.08029
0.352626
0.287458
0.217435
0.0494414
0.0130435
0.00641944
0.00360702
0.00163292
0.000935555
0.00074521
0.000688291
0.000674763
0.000664225
0.000660703
0.00066116
0.000667826
9.60492
11.862
12.3674
3.72681
0.821457
0.259216
0.188563
0.0269975
0.00684302
0.00267708
0.00151062
0.000941339
0.000760893
0.000704232
0.000676898
0.000668727
0.000663832
0.000661326
0.000662869
0.000669514
9.45524
6.56292
4.06985
0.871985
0.206726
0.0687696
0.0811905
0.0553574
0.019711
0.0105128
0.00278882
0.00118862
0.00078801
0.000703845
0.000676304
0.00066759
0.000663407
0.000660901
0.00066308
0.00066956
1.9794
0.286564
0.570649
0.0358995
0.0146359
0.0407565
0.177398
0.0542992
0.0476956
0.0165852
0.00800868
0.00300255
0.00147624
0.000886046
0.000722564
0.000684361
0.000671639
0.000671102
0.000671994
0.000675586
0.57794
0.0891884
0.114681
0.0463391
0.00870148
0.00257985
0.00803119
0.00406141
0.00526636
0.00251336
0.00168566
0.00114275
0.00104413
0.00102347
0.00101719
0.00102139
0.001022
0.0010252
0.00102535
0.00102662
1.08567
1.51621
5.62749
5.295
2.97231
1.04726
0.428417
0.140993
0.0403677
0.00934156
0.00223051
0.00114619
0.00104505
0.00104155
0.00106242
0.00108319
0.00114064
0.00114021
0.00115841
0.00112605
18.2252
15.8996
38.6221
17.7269
13.1002
4.54601
3.41753
0.566449
0.100987
0.0454516
0.134151
0.11409
0.162061
0.144552
0.163844
0.151337
0.158423
0.15205
0.155588
0.155681
103.786
45.2288
51.5297
25.9336
25.1114
14.156
11.2419
4.2965
1.60491
0.389558
0.293412
0.19069
0.204223
0.172407
0.179194
0.162
0.165539
0.15754
0.16007
0.158558
300.232
120.342
60.5428
17.5225
16.9112
7.77303
3.77498
0.937473
0.482898
0.178619
0.187605
0.137449
0.153337
0.135516
0.145839
0.139714
0.147052
0.145699
0.149701
0.15309
367.936
211.226
109.671
25.6176
18.4464
6.53638
2.77543
0.559103
0.472099
0.223077
0.208943
0.14886
0.160303
0.140988
0.152937
0.145828
0.154438
0.151645
0.156181
0.156811
511.876
193.359
37.1623
6.76254
6.35738
2.98593
3.03694
0.772726
0.722081
0.208189
0.140275
0.112332
0.118728
0.120884
0.125871
0.129706
0.139297
0.142576
0.148915
0.15284
221.999
19.8144
18.7829
8.26838
7.80622
3.93616
4.84642
2.53571
5.06189
0.456121
0.518412
0.193715
0.232246
0.157987
0.171474
0.152402
0.154558
0.151477
0.155306
0.156416
179.049
20.145
21.0094
7.15125
5.78483
3.30182
1.40148
1.99422
2.85697
0.284297
0.107713
0.156755
0.0546769
0.119266
1.29782
0.561423
0.268799
0.173341
0.151034
0.149237
227.128
57.7663
10.2344
7.03601
2.9995
2.26958
0.516908
0.34447
0.173113
0.0270449
0.0028727
0.000364879
0.000626156
0.000573986
0.191849
2.76034
0.816392
0.278846
0.159984
0.142744
950.921
334.156
84.0707
9.27934
3.49945
0.772117
0.436746
0.0749917
0.0688022
0.0320014
0.00190052
0.000890199
0.000716591
0.000678279
0.188169
2.98679
0.902728
0.30997
0.170323
0.14735
3556.49
1131.8
725.843
88.8823
6.76677
1.02077
0.16932
0.102353
0.28243
0.0897154
0.00410527
0.00102748
0.000689946
0.000664851
0.257763
3.32824
0.992715
0.333013
0.176695
0.150366
242.54
439.174
467.127
103.997
20.9186
1.16608
0.387661
0.552797
0.384363
0.0445313
0.0082403
0.00126337
0.000734949
0.000701999
0.285064
3.42623
1.01305
0.337639
0.181624
0.154562
1776.18
796.25
144.899
51.6226
32.5949
6.14983
1.43652
1.77861
0.447891
0.0843542
0.0618265
0.0168336
0.0207948
0.0129286
1.12132
0.534919
0.289858
0.199232
0.175356
0.169649
2678.22
684.798
103.637
34.5233
28.8824
7.39206
7.27558
2.00599
0.741779
0.316221
0.291583
0.238649
0.260738
0.225411
0.218557
0.195927
0.194638
0.186546
0.186213
0.180952
1110.12
357.99
32.0859
20.1009
15.3758
3.07348
3.38998
1.1098
0.649492
0.320675
0.293553
0.259162
0.265091
0.247835
0.233588
0.206403
0.203473
0.192356
0.19094
0.184721
36.9007
60.7878
22.3945
11.8626
8.73671
2.65924
2.57067
0.861912
0.631781
0.311847
0.344824
0.273442
0.29078
0.243071
0.238428
0.207212
0.206292
0.193369
0.193399
0.187812
7.7752
26.0366
23.9288
14.3824
3.77288
1.40396
1.44251
0.554655
0.587182
0.298628
0.357243
0.244739
0.272547
0.221304
0.229132
0.204558
0.207263
0.19452
0.194935
0.189178
4.17581
3.93806
2.34153
0.0831123
0.0230544
0.0945985
1.05387
0.458155
0.567592
0.289107
0.33759
0.224381
0.256324
0.2066
0.222534
0.197727
0.204957
0.192112
0.194982
0.190309
2.22508
0.105354
0.0257943
0.0041727
0.00329163
0.0323207
0.67877
0.292152
0.45046
0.208238
0.288055
0.186291
0.234525
0.188857
0.214643
0.191964
0.204009
0.191718
0.196414
0.19157
0.401454
0.098463
0.0113862
0.00755791
0.00264099
0.00151942
0.00264982
0.00230053
0.0151922
0.00852594
0.0187801
0.00916222
0.0115162
0.00545213
0.00565009
0.00277349
0.00270163
0.00158426
0.00167836
0.00126013
0.0014422
0.00355988
0.00299561
0.00397859
0.00144329
0.00266787
0.00254144
0.000920423
0.00257141
0.00175021
0.00119465
0.000920417
0.00227389
0.00173475
0.00358922
0.00770138
0.00349773
0.00315302
0.00282795
0.015199
0.00440741
0.00173762
0.00302057
0.00137862
0.0024162
0.00164101
0.00302765
0.00126172
0.00123972
0.00334601
0.00217169
0.00588981
0.0031004
0.0049441
0.00227853
0.00153661
0.0020749
0.00146194
0.00600277
0.00851309
0.00218756
0.00207675
0.00128259
0.00136111
0.0013178
0.0045275
0.00190803
0.00212031
0.00187763
0.00146489
0.00132803
0.00145548
0.00184153
0.00314311
0.00186331
0.00214815
0.00127277
0.00145913
0.00138274
0.00302711
0.00106182
0.00191147
0.000968333
0.00134927
0.00135268
0.00133751
0.00103187
0.000900044
0.000859781
0.00072134
0.00136474
0.00133772
0.00133808
0.000877066
0.000806647
0.000705345
0.000677161
0.00135864
0.00133816
0.00145709
0.000828714
0.000824603
0.00067406
0.000668743
0.00204287
0.00721491
0.00507865
0.00801866
0.00246763
0.0123188
0.00390868
0.00160682
0.00583521
0.00639629
0.00212049
0.00286804
0.00506739
0.0194511
0.00131076
0.0060988
0.00188995
0.00313661
0.00219245
0.0197193
0.0132353
0.00140311
0.00146135
0.00132864
0.00209895
0.00229091
0.00786052
0.00300232
0.0014024
0.001354
0.00138434
0.0021052
0.00104261
0.00235782
0.00111042
0.00133714
0.00136742
0.00133328
0.000901759
0.000735583
0.000921203
0.000711311
0.00133702
0.00133365
0.00133437
0.000715452
0.00068129
0.000690459
0.00067051
0.00145936
0.00133381
0.0014486
0.000677686
0.000668096
0.000669547
0.000667803
0.00732447
0.0392558
0.010311
0.083148
0.0100475
0.112426
0.0167772
0.00860613
0.0103092
0.0138531
0.00988979
0.0200504
0.0257941
0.0163152
0.00248824
0.0131602
0.00296682
0.0186573
0.0122023
0.0139439
0.0132299
0.00134832
0.00184922
0.00135465
0.00843316
0.00368778
0.010305
0.00340966
0.00139226
0.0013594
0.00139744
0.00308172
0.00120214
0.00276818
0.00154185
0.001331
0.00137471
0.00133555
0.000952294
0.000706889
0.00118457
0.000739815
0.00133508
0.00133522
0.00133544
0.000686397
0.000665883
0.000704338
0.000672788
0.00145028
0.0013366
0.00145656
0.000663229
0.000661143
0.000669962
0.000665418
0.0111263
0.0391173
0.0117994
0.0706405
0.0224336
0.110592
0.0384029
0.0122252
0.0117216
0.0056095
0.0280267
0.0153855
0.0281903
0.0120136
0.00181583
0.00399588
0.00142133
0.0140345
0.0128663
0.00964511
0.00382622
0.00132844
0.00131887
0.00125086
0.00976376
0.00378774
0.00294057
0.00231396
0.00137896
0.00124249
0.00124483
0.00305818
0.0015301
0.00222426
0.00170605
0.0013373
0.0012451
0.00124478
0.00118798
0.000762077
0.00171263
0.0012067
0.00133677
0.00124366
0.00125673
0.000731002
0.000698877
0.00108527
0.000846403
0.00144601
0.00125549
0.00125762
0.00069541
0.00068014
0.000841437
0.000768245
0.0156291
0.0111042
0.0025135
0.0490349
0.0503273
0.0204636
0.00318811
0.0314218
0.00230505
0.00207417
0.0480439
0.0138249
0.00234013
0.00198653
0.00282526
0.00208778
0.00205132
0.00948675
0.00515647
0.00206312
0.00585021
0.00418876
0.00263556
0.00176545
0.0106611
0.00329026
0.00472291
0.00138563
0.00101947
0.001324
0.000846556
0.00246052
0.00101299
0.00113303
0.000831
0.000899396
0.000797138
0.000719433
0.00101006
0.000902351
0.000801364
0.000725329
0.000810581
0.000706861
0.00067864
0.000880048
0.000811393
0.000710896
0.000688844
0.000834155
0.00067484
0.000667234
0.000834116
0.000836827
0.000685516
0.000678573
0.00263965
0.0239778
0.00489952
0.0203403
0.00255651
0.0285443
0.0188071
0.0027168
0.0068221
0.0205389
0.00214442
0.00253763
0.0244256
0.0147635
0.00286035
0.0201807
0.0127702
0.00304819
0.0039259
0.0114513
0.00498604
0.00177601
0.0074953
0.00252343
0.00285983
0.00142658
0.00377716
0.00239891
0.000900445
0.00185939
0.00096263
0.00121953
0.000872256
0.00195273
0.00116533
0.000731452
0.000842464
0.000704642
0.000832684
0.000747213
0.00109614
0.000906852
0.00068659
0.000688192
0.000673206
0.000730476
0.000718804
0.000854102
0.000815036
0.000666111
0.000672144
0.000671511
0.000716312
0.000696439
0.000813945
0.000837765
0.0183553
0.303263
0.0323122
0.310768
0.0396845
0.248015
0.0534814
0.0187814
0.0348029
0.0156868
0.037248
0.016895
0.0449359
0.021171
0.0119381
0.0132903
0.011397
0.0131593
0.00711074
0.0185168
0.00921931
0.00317288
0.0093963
0.00337987
0.00561348
0.00303449
0.00698308
0.00408011
0.00100584
0.00258484
0.00128751
0.0023358
0.00121336
0.00334629
0.00133651
0.000700507
0.00103603
0.000725749
0.0011002
0.00085887
0.00104065
0.000723156
0.000668485
0.000698333
0.000673951
0.000802041
0.000738668
0.000697457
0.00067347
0.000662549
0.000671506
0.000667119
0.00074011
0.000823495
0.000671027
0.000667759
0.0310356
0.112251
0.0508209
0.0792676
0.041855
0.116644
0.0890272
0.0151715
0.0303848
0.0110552
0.0398521
0.0231739
0.0708493
0.013652
0.0123134
0.00814536
0.00443075
0.0176558
0.0095404
0.00883072
0.00441987
0.00355026
0.00395379
0.00216698
0.00798977
0.00504573
0.00398877
0.00219968
0.00129326
0.00205002
0.00139684
0.00381345
0.00137567
0.0020178
0.00133765
0.000746868
0.00136983
0.00105747
0.00107246
0.000746295
0.00130744
0.00102622
0.000699267
0.000985721
0.000823907
0.000723882
0.000699724
0.000945391
0.000815114
0.000681876
0.000820919
0.000765012
0.000696988
0.000682557
0.000815111
0.000762503
0.0687491
0.0371038
0.00331141
0.285298
0.153533
0.141707
0.0071802
0.0181757
0.00239111
0.00211977
0.161701
0.0929305
0.00438727
0.00680085
0.0104055
0.00261178
0.00588907
0.0561511
0.00906572
0.00641468
0.00591595
0.00333758
0.00380801
0.00138568
0.00824655
0.00382635
0.00683135
0.00168745
0.00104099
0.00114883
0.000849776
0.0028799
0.00103418
0.00122034
0.000851204
0.000904492
0.000812732
0.000743508
0.00102156
0.000904201
0.000814571
0.000744991
0.000811772
0.000726071
0.000702189
0.000880532
0.000811862
0.00072682
0.000702524
0.000836691
0.000696348
0.000684108
0.000834563
0.000836651
0.000696736
0.000684948
0.0025718
0.0314559
0.0246854
0.0398519
0.00445728
0.0290652
0.0175678
0.00290762
0.0244743
0.0115953
0.00418961
0.0070557
0.0127709
0.00661112
0.00357875
0.00902474
0.00436074
0.00640805
0.00456821
0.00564186
0.00313785
0.00208812
0.00211468
0.00260756
0.00266145
0.00213429
0.00209401
0.00255614
0.00139372
0.00108528
0.00135545
0.0012272
0.00118356
0.00111365
0.00141838
0.000808677
0.00161158
0.00129856
0.000881217
0.000813379
0.00162254
0.00131351
0.000778606
0.00118638
0.00110443
0.000794649
0.000780176
0.0012075
0.00113734
0.000698909
0.00111167
0.00121867
0.000774033
0.000701223
0.0011485
0.00131924
0.0473082
0.147589
0.0599081
0.0594336
0.0300229
0.0963206
0.0604652
0.0148648
0.0434465
0.0245534
0.0183552
0.00830023
0.0497314
0.042618
0.00630789
0.0219429
0.0109157
0.00702427
0.00347869
0.0429057
0.0221192
0.00467671
0.00464956
0.00609102
0.0040139
0.00554058
0.00373128
0.00495491
0.00205252
0.00224288
0.00278946
0.00240384
0.00200279
0.00187199
0.00272214
0.00108726
0.00106333
0.000724595
0.00143646
0.00108297
0.00100602
0.000720314
0.00089676
0.000698443
0.000674718
0.000999044
0.000895739
0.000696806
0.000674823
0.00111251
0.00067196
0.000669138
0.000904734
0.00115784
0.000672122
0.00066942
0.0544347
0.121043
0.123763
0.118435
0.104904
0.225091
0.22388
0.0285793
0.0848314
0.0159759
0.0770825
0.0629089
0.129214
0.0352451
0.0102559
0.0100233
0.00435305
0.0521687
0.019485
0.0187803
0.00646673
0.00413788
0.0040762
0.0023664
0.0144216
0.00456716
0.00519362
0.00271931
0.0014279
0.00214885
0.00134548
0.00316057
0.00131134
0.00234962
0.00138448
0.0007472
0.00131968
0.00102823
0.0010484
0.000744227
0.00134887
0.00103581
0.000699522
0.000957102
0.000817141
0.000722842
0.000699692
0.000959185
0.000817878
0.000682919
0.0008164
0.000763051
0.000696962
0.000683953
0.000816888
0.000762041
0.161345
0.263418
0.0138073
0.508104
0.152886
0.391272
0.087707
0.0947402
0.00883564
0.0087602
0.19536
0.13373
0.0717283
0.0369096
0.0102945
0.00786395
0.0257249
0.0939626
0.0273031
0.0332548
0.0229722
0.0054596
0.0255571
0.00281141
0.020914
0.00531757
0.0220337
0.0029622
0.0010525
0.00152326
0.000840332
0.00364526
0.000967399
0.00159833
0.00083327
0.000902717
0.000803684
0.000725198
0.000942818
0.000890997
0.000786745
0.000717609
0.000811409
0.000710729
0.000689139
0.00088597
0.000809424
0.000705482
0.000678439
0.000831216
0.000685837
0.000679086
0.000831592
0.000915892
0.000674751
0.00067024
0.0103885
0.033298
0.0155548
0.307059
0.0831381
0.12743
0.067775
0.00901133
0.0124249
0.01024
0.0649803
0.0399049
0.0565706
0.0273679
0.0274332
0.00942688
0.00419347
0.0333284
0.0254882
0.0218628
0.0075226
0.00200045
0.00305732
0.00204813
0.0223941
0.00232194
0.00639559
0.00363218
0.000875256
0.00170688
0.00114912
0.00149235
0.000881637
0.00279386
0.00116412
0.000748257
0.00109677
0.000910465
0.000815807
0.000728857
0.000928231
0.000706639
0.000720487
0.000856337
0.000813932
0.000714734
0.000686711
0.000688102
0.000672765
0.000695675
0.000811378
0.000836573
0.000682542
0.000671426
0.000671446
0.000674605
0.0217008
0.150352
0.0750834
0.0770547
0.0507912
0.245015
0.0427751
0.00988582
0.0574516
0.051678
0.0381799
0.03178
0.0423354
0.12692
0.003852
0.0561142
0.0311934
0.0399207
0.0308062
0.134553
0.0826523
0.00226809
0.0206873
0.00495272
0.0170433
0.00387179
0.0564493
0.0108211
0.00117045
0.00320583
0.00124613
0.00260633
0.00104771
0.00574824
0.00132386
0.000866104
0.000995548
0.000718238
0.000873629
0.000700458