/*--------------------------------*- C++ -*----------------------------------*\
  =========                 |
  \\      /  F ield         | OpenFOAM: The Open Source CFD Toolbox
   \\    /   O peration     | Website:  https://openfoam.org
    \\  /    A nd           | Version:  10
     \\/     M anipulation  |
\*---------------------------------------------------------------------------*/
FoamFile
{
    format      ascii;
    class       volScalarField;
    location    "0.6";
    object      nut;
}
// * * * * * * * * * * * * * * * * * * * * * * * * * * * * * * * * * * * * * //

dimensions      [0 2 -1 0 0 0 0];

internalField   nonuniform List<scalar> 
12920
(
2.25619e-05
9.84669e-05
0.000181424
0.00024331
9.98897e-05
0.000111484
3.73909e-05
3.45016e-05
2.14014e-05
2.00807e-05
1.39679e-05
1.1504e-05
9.4136e-06
1.2077e-05
1.26341e-05
1.52582e-05
1.4853e-05
1.60905e-05
1.53779e-05
1.55966e-05
0.000141129
0.0011839
0.00015959
7.11624e-05
6.25453e-05
8.2813e-05
3.303e-05
0.000111144
2.27544e-05
3.3712e-05
1.46498e-05
1.74797e-05
1.34904e-05
1.64929e-05
1.51397e-05
1.72773e-05
1.64445e-05
1.75617e-05
1.67067e-05
1.68716e-05
0.000357317
0.0250933
0.000198094
6.6289e-05
9.42138e-05
0.000154404
0.000124089
0.000120291
2.35783e-05
2.13782e-05
1.32311e-05
1.70249e-05
1.42959e-05
1.68847e-05
1.5461e-05
1.73251e-05
1.65089e-05
1.76006e-05
1.67325e-05
1.69273e-05
0.0800471
0.0115256
0.000354904
5.57615e-05
7.0483e-05
6.72565e-05
6.93825e-05
8.43812e-05
1.53685e-05
2.65487e-05
1.47829e-05
2.17846e-05
1.63172e-05
1.92001e-05
1.70155e-05
1.84302e-05
1.74787e-05
1.81614e-05
1.7264e-05
1.72523e-05
0.00757784
0.00150203
0.000250997
5.25143e-05
0.000120108
4.91036e-05
2.85616e-05
3.55818e-05
1.29893e-05
1.91686e-05
1.49783e-05
1.95409e-05
1.64698e-05
1.91265e-05
1.70972e-05
1.8572e-05
1.74574e-05
1.82788e-05
1.72784e-05
1.73752e-05
0.00159214
0.00115065
0.000569854
0.000267715
0.000182079
3.1645e-05
3.49061e-05
4.06263e-05
1.97131e-05
2.03834e-05
2.03974e-05
2.16865e-05
1.9877e-05
1.98811e-05
1.94775e-05
1.93157e-05
1.88034e-05
1.87475e-05
1.7956e-05
1.77469e-05
0.000156717
0.00015005
0.000887331
0.00041356
0.000394553
0.000123418
7.02178e-05
1.58426e-05
3.79424e-05
2.75868e-05
4.03733e-05
3.39773e-05
2.23916e-05
2.30794e-05
1.93588e-05
1.96355e-05
1.84159e-05
1.8899e-05
1.78948e-05
1.79214e-05
0.000801993
0.000539676
0.00013439
0.000479421
0.000107958
8.62979e-05
1.76508e-05
6.02493e-06
1.1107e-05
2.08359e-05
1.78346e-05
1.72483e-05
1.12377e-05
1.28907e-05
1.91883e-05
1.76465e-05
1.78717e-05
1.79536e-05
1.79064e-05
1.80369e-05
0.0342751
0.0182402
0.00058786
0.000409924
0.000266502
2.49122e-05
1.08663e-05
6.20281e-06
4.21717e-06
8.37114e-06
6.23972e-06
7.03186e-06
6.47007e-06
6.86e-06
9.91186e-06
1.68977e-05
1.7125e-05
1.81873e-05
1.7952e-05
1.82868e-05
0.0738284
0.27648
0.032131
0.0201775
0.00392275
0.00044976
8.74617e-06
4.05337e-06
4.76607e-06
5.42167e-06
6.14282e-06
6.29382e-06
6.43807e-06
6.48945e-06
9.61802e-06
1.61796e-05
1.67282e-05
1.76311e-05
1.77543e-05
1.82965e-05
0.355659
0.321474
0.176791
0.0907574
0.0168442
0.00220161
9.22984e-05
1.85907e-05
2.13024e-05
5.64063e-06
5.40106e-06
5.97557e-06
6.08492e-06
6.2186e-06
9.46201e-06
1.61678e-05
1.68388e-05
1.78193e-05
1.7948e-05
1.85331e-05
0.469135
3.44476
0.402404
0.189413
0.0360825
0.00422472
8.88275e-05
3.74314e-05
2.88705e-05
6.59691e-06
5.86847e-06
6.45005e-06
6.45168e-06
6.50434e-06
9.98664e-06
1.77207e-05
1.76197e-05
1.8487e-05
1.82455e-05
1.87507e-05
2.00044
1.39382
0.296652
0.0933654
0.0111881
0.00402289
0.000109802
0.000142321
3.68854e-05
2.07912e-05
1.13839e-05
1.48212e-05
1.0271e-05
1.20353e-05
1.96725e-05
1.83145e-05
1.8518e-05
1.88348e-05
1.86385e-05
1.89059e-05
0.887257
2.22573
0.183008
0.0831395
0.00564525
0.00123327
0.000198488
0.00032064
0.000128487
9.58023e-05
3.60943e-05
2.62915e-05
1.91319e-05
2.04847e-05
1.91327e-05
1.97762e-05
1.90576e-05
1.97747e-05
1.88384e-05
1.91148e-05
0.397841
0.401498
0.125925
0.0539183
0.00399182
0.00100468
0.000166804
0.000307034
0.000165651
0.000114937
4.67112e-05
2.86274e-05
1.92063e-05
1.92425e-05
1.88704e-05
2.00003e-05
1.94287e-05
2.00604e-05
1.91261e-05
1.93685e-05
0.0627867
0.0368559
0.0106967
0.00674593
0.00185196
0.000981657
0.000191978
0.000186957
0.000113914
8.32547e-05
4.08096e-05
2.60346e-05
1.63476e-05
1.85766e-05
1.74097e-05
2.01278e-05
1.88724e-05
2.02434e-05
1.89688e-05
1.94094e-05
0.0141671
0.0517523
0.0270379
0.0271563
0.00883093
0.00545389
0.00053815
0.000233304
7.93986e-05
6.01919e-05
2.56421e-05
2.43634e-05
1.65663e-05
2.22119e-05
1.83968e-05
2.14701e-05
1.93348e-05
2.07902e-05
1.92788e-05
1.97348e-05
0.0716059
0.0587341
0.0254306
0.031985
0.0112272
0.0047952
0.000488553
0.00015609
3.32482e-05
4.32464e-05
1.75772e-05
3.02568e-05
1.73557e-05
2.41425e-05
1.83658e-05
2.19584e-05
1.91487e-05
2.09384e-05
1.91815e-05
1.97395e-05
0.0369822
0.0240716
0.0236777
0.0221957
0.00680516
0.000374563
6.31367e-05
3.61617e-05
1.86492e-05
0.000102036
1.70448e-05
4.08822e-05
1.79565e-05
2.66575e-05
1.87762e-05
2.28817e-05
1.93813e-05
2.13094e-05
1.93332e-05
1.99151e-05
0.00677498
0.00849046
0.00659059
0.00806897
0.00127558
0.000538117
3.25327e-05
4.55999e-05
1.58791e-05
0.000194008
1.6458e-05
3.7949e-05
1.69378e-05
2.5125e-05
1.75051e-05
2.14936e-05
1.806e-05
1.99692e-05
1.80377e-05
1.85987e-05
0.00060688
0.00266064
0.00276599
0.00170163
0.000882002
0.000619339
0.000281754
0.000337937
9.6647e-05
9.58719e-05
5.68708e-05
3.70315e-05
2.60875e-05
3.39384e-05
3.53488e-05
4.09234e-05
3.92941e-05
4.19583e-05
3.9921e-05
4.01291e-05
0.0312151
0.0846355
0.00694578
0.00667209
0.0044403
0.00175575
0.00154351
0.000947678
0.000778042
0.000696247
0.000578705
0.000479909
0.000340771
0.000216095
0.000139478
0.000118639
0.000106792
0.000103619
0.000100504
9.94778e-05
0.790352
0.693283
0.0672624
0.00703741
0.00725638
0.00457313
0.00499304
0.0024836
0.000917415
0.000376265
0.000212647
0.000173736
0.000137852
0.000114811
0.000103569
9.95038e-05
9.77947e-05
9.71321e-05
9.70147e-05
9.7049e-05
1.83323
0.405853
0.0325229
0.00315197
0.00238151
0.00214081
0.00225585
0.00110478
0.000337934
0.000173954
0.000131562
0.000115734
0.000108809
0.000101985
9.9554e-05
9.79219e-05
9.7334e-05
9.69537e-05
9.69677e-05
9.70491e-05
0.982383
0.204332
0.0160806
0.00431465
0.00486896
0.00161823
0.00155694
0.000712108
0.000295917
0.000170156
0.000125537
0.000108345
0.000104004
9.96066e-05
9.89442e-05
9.76495e-05
9.72978e-05
9.69341e-05
9.69592e-05
9.70613e-05
0.0421809
0.209433
0.031958
0.00657907
0.00693237
0.0015747
0.00272158
0.000960541
0.000449998
0.00019227
0.00014739
0.000112596
0.000106859
0.00010068
9.89624e-05
9.77992e-05
9.7348e-05
9.70018e-05
9.70098e-05
9.70831e-05
0.0153248
0.0240959
0.0164383
0.0107423
0.00851769
0.00389179
0.00401227
0.00067712
0.000731721
0.000165835
0.000199245
0.0001407
0.000118431
0.000104013
0.000101234
9.85908e-05
9.76204e-05
9.70979e-05
9.70835e-05
9.71452e-05
0.00218857
0.00163598
0.0280432
0.0198765
0.0092762
0.0033812
0.00135678
0.000769483
0.00107609
0.00138255
0.000468588
0.000261097
0.000185712
0.000136411
0.000107616
0.000101646
9.90671e-05
9.78039e-05
9.74061e-05
9.72964e-05
0.0531177
0.0185627
0.0216707
0.0266739
0.0084004
0.00264703
0.00138656
0.00140829
0.00181036
0.000775349
0.000327141
0.00012767
0.000116176
0.000112312
0.000108317
0.000101141
9.98678e-05
9.86409e-05
9.80531e-05
9.7598e-05
4.01841
3.86417
1.29403
0.474094
0.187962
0.0152934
0.00128281
0.000821891
0.00102102
0.000621646
0.000179191
0.000113322
0.000102812
9.98475e-05
9.92128e-05
9.93117e-05
9.78515e-05
9.72547e-05
9.7181e-05
9.72097e-05
3.36445
2.18692
1.77263
0.66573
0.25611
0.109808
0.0120782
0.003428
0.000865754
0.000688942
0.00026199
0.00011634
0.000100173
9.84839e-05
9.82038e-05
9.83223e-05
9.78286e-05
9.7305e-05
9.72309e-05
9.72196e-05
2.35845
2.26214
1.67497
0.855787
0.306837
0.0538643
0.00289211
0.0013909
0.000706394
0.000552404
0.000237004
0.000133154
0.000103912
0.000101182
0.000103187
0.000101634
0.000100085
9.87111e-05
9.80528e-05
9.75934e-05
4.74996
0.957181
0.319955
0.128916
0.0715578
0.0100466
0.00244607
0.0011329
0.000673729
0.000396447
0.00029934
0.000170332
0.000140044
0.000114651
0.000103551
9.96551e-05
9.83131e-05
9.75007e-05
9.73999e-05
9.73024e-05
1.9117
0.647678
0.161115
0.0400064
0.0267874
0.00447936
0.00233443
0.00174304
0.00100587
0.000953693
0.000538369
0.000348027
0.000180483
0.000124548
0.000107242
0.000100306
9.82072e-05
9.72749e-05
9.71575e-05
9.71838e-05
1.90478
1.26054
0.207524
0.0675128
0.00821146
0.00294615
0.00222223
0.00233408
0.00235406
0.00263564
0.00222699
0.00113162
0.000347295
0.000150054
0.000110055
0.000100361
9.79236e-05
9.71078e-05
9.70266e-05
9.71125e-05
1.0183
0.814792
0.3834
0.0853255
0.0206786
0.00727426
0.00367078
0.0035756
0.00352611
0.00394482
0.00180099
0.0014742
0.000351512
0.000152223
0.000110717
0.00010072
9.79709e-05
9.71355e-05
9.70014e-05
9.70785e-05
0.10261
0.229397
0.11499
0.0528738
0.0192151
0.0114302
0.00645376
0.00330894
0.00138665
0.00104792
0.00103249
0.000274293
0.00015465
0.000112881
0.000101558
9.84836e-05
9.72914e-05
9.69373e-05
9.6925e-05
9.70617e-05
0.354482
0.292101
0.0840261
0.0702999
0.0461358
0.0110936
0.00384834
0.00139793
0.000836789
0.000335211
0.000197305
0.000134324
0.000112508
0.000103436
9.93225e-05
9.80008e-05
9.71976e-05
9.69434e-05
9.6933e-05
9.70551e-05
0.285264
0.172396
0.0661983
0.0443393
0.0142477
0.00195261
0.0010976
0.00044243
0.000285872
0.000160307
0.000129395
0.000112248
0.000105119
0.0001033
0.000100582
0.000100801
9.95496e-05
9.97713e-05
9.90376e-05
9.88726e-05
0.00352935
0.0112821
0.0157457
0.00887082
0.00152857
0.000215078
7.34554e-05
7.41173e-05
4.4413e-05
0.00054099
4.01304e-05
9.71351e-05
4.18741e-05
6.27551e-05
4.42057e-05
5.42812e-05
4.60505e-05
5.08416e-05
4.60939e-05
4.73697e-05
0.0125032
0.00571447
0.0142002
0.00756744
0.00355444
0.00172132
0.000666031
0.000350502
9.2349e-05
5.3633e-05
3.1456e-05
2.95666e-05
2.88407e-05
3.7243e-05
3.63539e-05
4.14322e-05
3.94216e-05
4.199e-05
3.99277e-05
4.01322e-05
1.00169
0.142851
0.0295936
0.0197086
0.015302
0.00534202
0.00588277
0.00182978
0.00124164
0.000868658
0.000617522
0.00034792
0.000233635
0.000166874
0.000127744
0.000115361
0.000105845
0.000103268
0.000100377
9.93829e-05
2.26811
1.48167
0.274671
0.0255052
0.0235848
0.0187751
0.0175371
0.00916602
0.003924
0.00106735
0.000277753
0.000139572
0.000113596
0.000104485
0.000100035
9.82045e-05
9.73603e-05
9.69715e-05
9.69376e-05
9.69707e-05
2.36514
1.94666
0.743801
0.0230605
0.0066912
0.00660967
0.00634721
0.00279447
0.000968845
0.000322493
0.00014544
0.000111446
0.000104949
0.000100238
9.87793e-05
9.75911e-05
9.71963e-05
9.68772e-05
9.68977e-05
9.69701e-05
2.04553
1.36804
0.498264
0.0180552
0.0130526
0.00380386
0.00495047
0.00175346
0.000470962
0.000207919
0.000129915
0.000107751
0.000103151
9.91902e-05
9.87001e-05
9.75444e-05
9.72336e-05
9.68801e-05
9.69071e-05
9.69843e-05
0.876461
0.813739
0.181199
0.0159238
0.015666
0.00559191
0.00964401
0.00285094
0.000486467
0.000199985
0.000145145
0.000111508
0.000106118
0.000100292
9.87286e-05
9.76587e-05
9.72545e-05
9.69396e-05
9.69546e-05
9.70085e-05
0.0855081
0.217978
0.0280235
0.0238854
0.014888
0.0101574
0.0119409
0.00171337
0.000698302
0.000139963
0.000197781
0.000140522
0.000118537
0.000104105
0.000101298
9.85781e-05
9.7577e-05
9.70268e-05
9.70127e-05
9.704e-05
0.0569372
0.0614669
0.0356923
0.030091
0.0144273
0.00723192
0.00252665
0.00124616
0.00105067
0.001258
0.00044365
0.000259687
0.000180504
0.000134232
0.00010745
0.000101617
9.90456e-05
9.77711e-05
9.73878e-05
9.71934e-05
0.406967
0.146577
0.0428807
0.0871043
0.0693263
0.00395821
0.00363093
0.00327726
0.00211775
0.000920912
0.000234877
0.000128108
0.000116296
0.000112424
0.000108205
0.000102009
0.000100149
9.86982e-05
9.8046e-05
9.7506e-05
4.79062
2.8558
1.17163
0.668382
0.331614
0.0573109
0.00418777
0.00154057
0.000801074
0.000263893
0.000146374
0.000116859
0.00011119
0.000110189
0.000128624
0.000128622
0.000105761
9.9072e-05
9.75367e-05
9.72051e-05
2.28723
4.35501
3.17925
1.18546
0.297366
0.0699636
0.013403
0.00180244
0.000634995
0.000363639
0.000312137
0.000235291
0.000163145
0.000133714
0.000153118
0.000111053
0.000102175
9.84315e-05
9.74724e-05
9.72102e-05
0.726718
2.69029
1.96216
0.674939
0.216355
0.0368593
0.00428037
0.00182268
0.0010486
0.000508196
0.000276185
0.000136915
0.000103822
0.000101242
0.000103159
0.000101701
0.000100093
9.8709e-05
9.80431e-05
9.75147e-05
2.54185
1.3243
0.677685
0.184941
0.0586564
0.0103529
0.00386327
0.0021565
0.000838255
0.000319228
0.000244384
0.000155614
0.000129084
0.000111669
0.00010264
9.93312e-05
9.82242e-05
9.74561e-05
9.73557e-05
9.72096e-05
4.61353
0.689596
0.230847
0.0389233
0.0178534
0.0105947
0.00530337
0.00290314
0.00109896
0.000740449
0.0003129
0.000185841
0.000126029
0.000105809
0.000100509
9.80124e-05
9.73847e-05
9.69988e-05
9.70218e-05
9.70776e-05
2.30485
0.35733
0.0996441
0.0188108
0.00602011
0.00508947
0.00348973
0.00329386
0.00198655
0.00139703
0.000686808
0.000332303
0.000166224
0.000113487
0.000101258
9.8009e-05
9.72576e-05
9.69206e-05
9.69497e-05
9.70315e-05
1.02594
0.284427
0.0830508
0.0205396
0.00681375
0.00456463
0.00295969
0.00256505
0.00252095
0.00168526
0.0010437
0.000400208
0.000173704
0.000113723
0.000100484
9.78957e-05
9.71251e-05
9.68793e-05
9.68976e-05
9.7002e-05
0.269599
0.153115
0.0713947
0.0222629
0.00668728
0.00358504
0.00268199
0.0015346
0.0012339
0.000502092
0.000293259
0.000148955
0.0001121
0.000101636
9.8215e-05
9.74798e-05
9.7005e-05
9.68451e-05
9.68729e-05
9.6986e-05
0.159998
0.181044
0.0547023
0.0156722
0.00978263
0.00385486
0.00189468
0.000936502
0.000481291
0.000217593
0.000141851
0.000112998
0.000103
9.9926e-05
9.8004e-05
9.74802e-05
9.70137e-05
9.68564e-05
9.68753e-05
9.6981e-05
0.0774237
0.0616248
0.021397
0.00689002
0.00275605
0.00124286
0.00175256
0.000858503
0.00044649
0.000212835
0.000137542
0.000113112
0.00010439
0.000103059
0.000100435
0.00010072
9.94901e-05
9.97194e-05
9.8996e-05
9.87933e-05
0.00185457
0.00405121
0.00750698
0.00211259
0.000453237
4.89678e-05
0.000116908
9.38142e-05
5.71287e-05
0.000437228
4.0279e-05
9.75572e-05
4.18307e-05
6.28045e-05
4.42121e-05
5.43028e-05
4.60584e-05
5.08491e-05
4.60981e-05
4.73742e-05
0.00125646
0.0203844
0.0339697
0.0256289
0.011819
0.00558446
0.00184213
0.000661963
0.000169871
7.09383e-05
3.56712e-05
4.79877e-05
3.47855e-05
4.16871e-05
3.72592e-05
4.17436e-05
3.94702e-05
4.20042e-05
3.99306e-05
4.0133e-05
0.322031
0.298094
0.163844
0.0748225
0.0484781
0.0251937
0.0224808
0.00756746
0.00337669
0.00199423
0.00225442
0.0011235
0.000275338
0.00016343
0.000125617
0.000115503
0.000107107
0.000104248
0.000101482
0.000101196
1.44619
0.535991
0.108818
0.0676206
0.0742406
0.0594424
0.0485335
0.0237252
0.0113401
0.00439666
0.00183332
0.000481281
0.000142183
0.000106606
0.000100975
9.92567e-05
9.85558e-05
9.7993e-05
9.80014e-05
9.87202e-05
1.47616
0.809311
0.204872
0.0358601
0.0313839
0.0264787
0.0181342
0.007736
0.00397562
0.00169753
0.000778899
0.000237718
0.000118505
0.000102291
9.96155e-05
9.85099e-05
9.81204e-05
9.78845e-05
9.79609e-05
9.87694e-05
1.48501
0.53308
0.1766
0.0437072
0.0365581
0.0201011
0.0169574
0.00508043
0.00235799
0.000802056
0.000249579
0.000128536
0.000106268
0.000100239
9.96088e-05
9.84136e-05
9.8322e-05
9.83056e-05
9.84764e-05
9.90937e-05
1.56317
0.481811
0.0709238
0.0399885
0.0313069
0.019805
0.0248463
0.0101585
0.00233692
0.0005554
0.000189026
0.000121951
0.000108709
0.000101976
0.000100663
9.97883e-05
9.91287e-05
9.84437e-05
9.85535e-05
9.89653e-05
0.779884
0.183156
0.0644067
0.0331491
0.0241413
0.0209071
0.0318757
0.0139154
0.00627642
0.000355314
0.000207019
0.000132198
0.000119001
0.000103917
0.000102725
9.94959e-05
9.93338e-05
9.95922e-05
0.000100569
0.000100753
0.97021
0.320587
0.0808509
0.0228974
0.0227777
0.0165585
0.00702433
0.00674384
0.0010886
0.00121356
0.000401653
0.000253409
0.000177304
0.000133206
0.000159016
0.000117783
0.000103309
9.92908e-05
9.8377e-05
9.85171e-05
1.10209
0.3781
0.102482
0.0488683
0.0166017
0.00934952
0.00694015
0.00445442
0.00228901
0.000617959
0.000296527
0.000128393
0.000116257
0.000112569
0.000109542
0.000341124
0.000138114
0.0001044
9.92922e-05
9.84215e-05
5.77196
3.53311
1.67696
0.451084
0.128726
0.008284
0.00585997
0.00157001
0.000609839
0.00101294
0.000161398
0.000113268
0.000104385
0.000103412
0.000102006
0.000398735
0.000161184
0.000105849
9.88267e-05
9.82362e-05
10.8627
7.36568
4.81436
2.20015
0.54349
0.00473401
0.00236977
0.000782141
0.000498361
0.000275407
0.000197687
0.000142623
0.000116092
0.000107734
0.00010336
0.000406602
0.000156588
0.000105864
9.89618e-05
9.8223e-05
2.02982
2.92641
2.39558
1.07447
0.1437
0.00544744
0.00710579
0.00326861
0.00268599
0.000887094
0.000279321
0.000132011
0.000103803
0.000101267
0.000102954
0.000387132
0.000154309
0.000106454
9.95653e-05
9.89506e-05
7.74849
2.07411
0.964707
0.1835
0.101895
0.0352616
0.012726
0.006611
0.00168211
0.000359987
0.000257689
0.000158451
0.000129092
0.000113266
0.000137081
0.000113582
0.000102225
9.9134e-05
9.87807e-05
9.98159e-05
5.95291
1.63123
0.363454
0.064802
0.0879406
0.0448849
0.0158081
0.0087381
0.00219088
0.000908643
0.000268245
0.000143797
0.000115449
0.000103699
0.000101557
9.94053e-05
9.87843e-05
9.84126e-05
9.85408e-05
9.97484e-05
2.08899
0.833606
0.107894
0.023285
0.0375916
0.0119975
0.00861712
0.004951
0.00174051
0.000912617
0.000304492
0.00017513
0.000125369
0.000107111
0.000101933
9.95202e-05
9.88773e-05
9.84185e-05
9.84968e-05
9.93905e-05
0.588868
0.172834
0.109278
0.0251003
0.0107949
0.0104464
0.0102931
0.00348138
0.00133859
0.000693879
0.000412083
0.000201476
0.000127228
0.000106776
0.000101092
9.98984e-05
9.87412e-05
9.83728e-05
9.84188e-05
9.93035e-05
0.18514
0.15764
0.163013
0.0711337
0.0259886
0.0109768
0.00873779
0.00202644
0.000706576
0.000305451
0.000190708
0.000126945
0.000108579
0.000102539
0.000100021
9.91786e-05
9.87423e-05
9.84786e-05
9.86756e-05
9.95552e-05
0.115223
0.102973
0.0881235
0.0265915
0.0100522
0.00404547
0.00429477
0.00309965
0.00147654
0.00101314
0.000347329
0.000163453
0.0001135
0.000102983
9.99992e-05
9.90747e-05
9.87084e-05
9.84505e-05
9.87326e-05
9.95806e-05
0.0684575
0.0218489
0.0228761
0.00625519
0.00252844
0.00427901
0.00795432
0.00337025
0.00292793
0.00141641
0.000868631
0.000398796
0.000209004
0.000132494
0.000108521
0.000103878
0.00010161
0.000101815
0.000101468
0.000101678
0.000710991
0.000426904
0.00100495
0.000370349
0.000149794
4.88665e-05
0.000221012
0.000182963
0.000200231
0.0006665
6.77936e-05
0.000111175
4.37055e-05
6.3502e-05
4.43848e-05
5.43127e-05
4.60578e-05
5.08502e-05
4.61013e-05
4.73763e-05
0.00201761
0.00437535
0.0134068
0.0173569
0.00946182
0.00449595
0.00175661
0.000752363
0.000213717
7.74843e-05
1.97589e-05
1.6908e-05
1.28542e-05
1.48649e-05
1.36204e-05
1.57197e-05
1.58792e-05
1.70793e-05
1.65635e-05
1.63201e-05
0.354884
0.29062
0.310922
0.175636
0.124358
0.0575435
0.0473316
0.0206346
0.00987355
0.00502657
0.00575434
0.00426984
0.00452668
0.00399544
0.00404407
0.00374608
0.00376924
0.00364619
0.00366916
0.00367087
1.02585
0.432983
0.3564
0.219943
0.189061
0.124582
0.099918
0.0518809
0.0237097
0.00896809
0.00626791
0.00447089
0.00453568
0.00401562
0.0040411
0.00377073
0.00380245
0.00368439
0.00371634
0.00370029
2.0834
0.827258
0.475502
0.193074
0.151638
0.0886789
0.0457049
0.0175706
0.00940135
0.00446254
0.00430327
0.00349172
0.0036411
0.00334484
0.00347443
0.00338151
0.00349284
0.0034816
0.00354113
0.00361097
2.118
1.25041
0.711104
0.271195
0.169895
0.0781377
0.0365122
0.0115675
0.00884814
0.00513323
0.00463424
0.00364078
0.00375077
0.00344161
0.00360554
0.00350204
0.00363198
0.00359772
0.00366457
0.00368486
2.68715
1.15914
0.274614
0.0863529
0.0665851
0.0397353
0.0386332
0.015099
0.0156423
0.00530239
0.00363698
0.00296973
0.00305977
0.00307762
0.0031491
0.00321706
0.00338271
0.00344336
0.00354975
0.00362271
0.940448
0.245564
0.150937
0.0838257
0.0732694
0.049299
0.0572763
0.0374522
0.0960518
0.0118929
0.0135293
0.0054795
0.00602053
0.0041658
0.00428886
0.0037838
0.00371003
0.00363184
0.00367201
0.00369351
0.888177
0.197333
0.162156
0.0764037
0.0549414
0.0391422
0.0250031
0.033053
0.0850276
0.00803811
0.00453642
0.0156732
0.00351948
0.0125196
0.0311211
0.0137058
0.00668881
0.00429004
0.00367902
0.00356217
1.50989
0.439337
0.10008
0.0645593
0.043258
0.0323372
0.0117838
0.00723757
0.00452844
0.000913246
0.000241276
6.81082e-05
8.31794e-05
7.7297e-05
0.015962
0.0649755
0.0206845
0.00724655
0.00408315
0.00348406
5.17981
1.68723
0.567708
0.100185
0.0545805
0.015958
0.0106698
0.00281135
0.00232039
0.00131652
0.000201026
0.000118681
0.000103035
9.95606e-05
0.0159903
0.0696987
0.0226507
0.00793595
0.00429627
0.00357478
16.3701
5.66633
3.26328
0.824477
0.0987245
0.0311861
0.0045591
0.00372788
0.0116156
0.00543512
0.000341291
0.000133358
0.000100974
9.84531e-05
0.0206789
0.0764443
0.0246486
0.00846851
0.00443612
0.00363946
1.32617
3.00188
2.38845
0.94453
0.221728
0.027616
0.00915973
0.0192831
0.0105982
0.00199017
0.000520043
0.00015483
0.000105401
0.000102159
0.0217127
0.0780023
0.0247571
0.00850194
0.00451595
0.00371733
8.99763
3.9273
1.1977
0.516575
0.277758
0.0827652
0.0269918
0.0326769
0.0106894
0.00394066
0.00276125
0.00124651
0.00149335
0.0011477
0.0248243
0.0122609
0.00683192
0.00470716
0.00411217
0.00394643
7.99004
3.54725
0.86922
0.358707
0.255555
0.0965502
0.0843013
0.0329906
0.0139351
0.00693181
0.00651744
0.00545611
0.00581134
0.00509991
0.00491214
0.00443295
0.00437913
0.00424454
0.00422925
0.00414353
2.68689
1.77033
0.32982
0.198311
0.144131
0.0450129
0.0415524
0.0199981
0.0119557
0.00706571
0.00669823
0.00607361
0.00595768
0.00550582
0.00513727
0.00460396
0.00453755
0.00435247
0.00431827
0.00421264
0.57035
0.503534
0.204986
0.108039
0.0864142
0.0405377
0.0347542
0.0161816
0.0119678
0.00728498
0.00772439
0.00643141
0.0063057
0.00540053
0.00516025
0.00461874
0.00456422
0.00436496
0.00434988
0.00426238
0.208342
0.355377
0.251353
0.157032
0.0601508
0.0281132
0.0230856
0.012465
0.0115385
0.00736031
0.00758072
0.00572129
0.00581778
0.00497936
0.00498005
0.00459859
0.00459724
0.00440223
0.00438746
0.00429477
0.0976663
0.110738
0.137086
0.01016
0.00921763
0.0132276
0.0206437
0.0109389
0.0107201
0.00670968
0.00685596
0.00516035
0.00541929
0.00467724
0.00482926
0.00446499
0.00453782
0.00435112
0.00437788
0.00430803
0.0540796
0.00875624
0.00753131
0.00023014
0.000800076
0.00668234
0.0200313
0.00921969
0.00898023
0.00538145
0.0060335
0.00452808
0.00507569
0.00442207
0.00473274
0.00441726
0.00455611
0.00438448
0.00442821
0.00435604
0.000422042
0.000379736
9.90139e-05
3.79155e-05
1.92533e-05
1.64849e-05
2.77875e-05
6.67883e-05
0.000216432
0.00110207
0.000291424
0.000327362
0.000183308
0.000128154
9.27326e-05
5.56512e-05
4.5682e-05
2.94565e-05
2.8251e-05
2.1775e-05
0.000162575
0.000282436
0.000253795
0.000310612
0.000163377
0.000239742
0.000237706
0.000120346
0.000245049
0.000213076
0.000143666
0.00012177
0.000236962
0.000217713
0.000312344
0.000515212
0.000295322
0.000269007
0.000336074
0.000821525
0.000351206
0.000269997
0.000261232
0.000157969
0.000341718
0.000281167
0.000268056
0.000149576
4.64511e-06
7.71707e-06
5.59457e-06
0.000348912
0.000964375
0.000416531
0.000278857
5.39413e-06
4.94531e-06
4.18698e-06
0.00101166
0.00137468
0.000317708
0.000803038
6.9305e-06
4.19083e-06
5.66095e-06
0.00125517
0.000563305
0.000860836
0.000855163
6.4054e-06
6.25646e-06
6.61161e-06
0.000453082
0.000549171
0.000942372
0.000691177
6.52819e-06
6.56225e-06
6.52348e-06
0.000419046
0.000141673
0.000433863
0.000148264
6.52503e-06
6.54874e-06
6.56397e-06
0.000133652
0.000117503
0.000126318
0.000104226
6.81716e-06
6.54843e-06
6.56303e-06
0.000114906
0.000109718
0.00010217
9.94028e-05
6.11814e-06
6.58683e-06
6.97952e-06
0.000111467
0.000108864
9.91206e-05
9.86846e-05
4.17208e-06
2.38178e-05
1.39139e-05
0.000395394
0.000449477
0.000791456
0.000778961
4.6462e-06
1.51306e-05
1.59987e-05
0.000510931
0.000897722
0.00160779
0.00120865
5.18466e-06
1.57816e-05
5.96246e-06
0.000955608
0.000972771
0.00109396
0.00101832
5.9044e-06
4.96423e-06
5.11407e-06
0.000993984
0.000772567
0.0011326
0.000859823
6.34695e-06
5.38308e-06
5.88494e-06
0.00049903
0.000160965
0.000635139
0.000181368
6.40539e-06
5.95981e-06
5.98568e-06
0.000132977
0.000105846
0.000141677
0.000104604
6.51524e-06
6.05217e-06
6.16542e-06
0.000103193
9.97795e-05
0.000101501
9.88637e-05
6.95828e-06
6.1388e-06
6.85461e-06
9.94495e-05
9.86069e-05
9.87569e-05
9.85997e-05
1.87904e-05
0.000100505
2.40984e-05
0.00293315
0.00133273
0.00267525
0.00127363
2.13224e-05
2.61597e-05
4.09961e-05
0.0012217
0.00111503
0.00249815
0.000846113
7.76977e-06
4.06327e-05
1.10355e-05
0.00096157
0.000722307
0.000737427
0.000695361
5.16219e-06
7.18398e-06
5.60846e-06
0.000758012
0.000857375
0.000608081
0.000336661
5.89843e-06
5.73496e-06
6.2988e-06
0.000714334
0.000194083
0.000322348
0.000232544
6.00587e-06
6.38339e-06
6.46939e-06
0.000146019
0.00010424
0.000176931
0.000108161
6.21613e-06
6.50875e-06
6.54958e-06
0.00010116
9.84544e-05
0.000103093
9.9137e-05
6.7408e-06
6.54255e-06
7.18775e-06
9.8198e-05
9.80325e-05
9.88434e-05
9.83944e-05
3.31532e-05
9.75106e-05
6.95861e-05
0.00160262
0.00349198
0.00227034
0.00170347
4.07338e-05
6.27216e-05
2.46622e-05
0.00160062
0.000790976
0.00124974
0.000701715
7.69282e-06
1.7119e-05
7.62672e-06
0.00073392
0.000778017
0.000696648
0.000783568
5.85818e-06
8.44008e-06
8.11726e-06
0.000656137
0.000373109
0.000834076
0.00053149
6.32956e-06
7.71029e-06
7.08888e-06
0.000351706
0.000225058
0.00044184
0.000257242
6.43263e-06
7.36893e-06
6.55952e-06
0.000174332
0.00011039
0.000243813
0.000172833
6.47716e-06
6.36384e-06
6.42736e-06
0.000105808
0.000101476
0.000156405
0.00012037
6.75992e-06
6.42089e-06
6.07391e-06
0.00010113
9.94322e-05
0.000118569
0.00010559
0.00121678
0.00196263
0.00037294
0.00281885
0.00242567
0.00190421
0.00153046
0.00181248
0.000433608
0.00117223
0.00256053
0.00177913
0.00150954
0.00130475
0.00122257
0.00101978
0.000893298
0.00169967
0.00140427
0.00116735
0.000640527
0.000446382
0.000826262
0.000237097
0.00112681
0.000276771
0.000481006
0.000161999
0.000130329
0.000173418
0.000115228
0.000225361
0.000127878
0.00013996
0.000113044
0.000117777
0.000110409
0.000103149
0.000126656
0.000117998
0.000110263
0.00010363
0.000110635
0.000102021
9.95439e-05
0.000116239
0.000110791
0.00010239
0.000100522
0.000112199
9.92001e-05
9.85221e-05
0.000112465
0.000112801
0.000100207
9.95438e-05
0.000587521
0.0018195
0.00109292
0.00477945
0.00128084
0.00561677
0.00310372
0.00097309
0.0023416
0.00119673
0.00119365
0.00113039
0.00176463
0.000821299
0.000910401
0.00111563
0.00101342
0.000909392
0.000406397
0.000671303
0.000371776
0.000232899
0.000871217
0.000304113
0.000296509
0.000163705
0.000301634
0.00021553
0.000119771
0.000219635
0.000126277
0.00014586
0.000116436
0.000189992
0.000141248
0.000104199
0.000115165
0.000102021
0.000112932
0.000105578
0.000136433
0.000122643
0.000100247
0.0001005
9.90858e-05
0.000104244
0.00010348
0.000117469
0.000113209
9.84329e-05
9.89915e-05
9.89133e-05
0.000103254
0.000101202
0.000113174
0.000116162
0.00231095
0.00953603
0.00429104
0.0284137
0.0041418
0.0226394
0.00223253
0.0010262
0.00188122
0.000829031
0.0021196
0.000859526
0.00179746
0.00104531
0.000731142
0.0007298
0.000625453
0.000725544
0.000469829
0.00094582
0.000569391
0.000353616
0.000535345
0.000280596
0.000397253
0.000251415
0.000473504
0.000322809
0.000129529
0.000234948
0.000151994
0.000214567
0.000150495
0.000273654
0.00015495
0.000101681
0.000132386
0.00010428
0.000141169
0.000121391
0.000132071
0.000103874
9.86612e-05
0.000101601
9.92015e-05
0.000115164
0.000107047
0.000101444
9.9152e-05
9.8132e-05
9.89699e-05
9.85477e-05
0.000107232
0.000117483
9.89276e-05
9.8606e-05
0.00174236
0.00445144
0.00184742
0.0083162
0.00170049
0.0109276
0.00279733
0.000803066
0.00125549
0.000628327
0.00165037
0.00110268
0.00240262
0.000738597
0.000649189
0.000523072
0.000388817
0.00090472
0.000565817
0.000542182
0.000335794
0.000285468
0.000351227
0.000221436
0.000501913
0.000357101
0.000309864
0.000205933
0.00015178
0.000215757
0.000165713
0.000293673
0.000157531
0.000197507
0.00015072
0.000106109
0.0001618
0.000134463
0.000134306
0.000105949
0.000148043
0.000128092
0.00010149
0.000128702
0.000112869
0.000103827
0.000101516
0.000121151
0.000111026
9.98625e-05
0.000112238
0.000107205
0.000101274
9.99333e-05
0.000110964
0.000106637
0.00314934
0.002308
0.00151735
0.00598283
0.00442064
0.00472439
0.00172789
0.00212074
0.0015069
0.0012487
0.0047053
0.00340788
0.00140159
0.000715551
0.00129316
0.00108807
0.000547437
0.00240936
0.000591519
0.000573607
0.000408312
0.000274181
0.000357582
0.000159551
0.000534533
0.000298172
0.000459344
0.000189029
0.000130239
0.000140555
0.000114601
0.000252192
0.000129992
0.000148755
0.000114918
0.000118199
0.000111292
0.000105531
0.000127733
0.000118168
0.000111601
0.000105747
0.000110796
0.000103996
0.000102126
0.000116293
0.000110803
0.000104128
0.000102196
0.000112798
0.000101575
0.000100275
0.000112451
0.000112778
0.00010165
0.000100365
0.0017286
0.00822382
0.00215249
0.00378138
0.00148832
0.00455557
0.000995023
0.0010139
0.00142526
0.000653214
0.00131636
0.000618892
0.000724305
0.000438532
0.000345773
0.000536142
0.000327615
0.000514768
0.000337044
0.000391346
0.000270593
0.00020948
0.00021375
0.000248194
0.000243214
0.000213991
0.000209677
0.000236728
0.00019014
0.00013419
0.000156585
0.000145889
0.00014118
0.000141904
0.000173757
0.000112459
0.000213131
0.000202107
0.000118227
0.00011327
0.000220321
0.000202021
0.000110814
0.000184437
0.000163778
0.00011172
0.000110957
0.000185436
0.000165313
0.000100757
0.000163406
0.000156243
0.000110433
0.000100974
0.000164697
0.000163696
0.00267449
0.00864325
0.00219217
0.00310535
0.00129603
0.00344937
0.00221112
0.000772857
0.00167737
0.00116851
0.00087932
0.000508955
0.00194429
0.00170484
0.000416456
0.00107339
0.000647221
0.00045703
0.00029375
0.00171736
0.00106638
0.000352507
0.000335352
0.00041762
0.000314419
0.000388753
4.01181e-05
0.000360766
0.000204574
0.000288879
0.000240413
2.05309e-05
0.000195947
1.75389e-05
0.00024028
0.000178658
0.000134053
0.000104021