/*--------------------------------*- C++ -*----------------------------------*\
  =========                 |
  \\      /  F ield         | OpenFOAM: The Open Source CFD Toolbox
   \\    /   O peration     | Website:  https://openfoam.org
    \\  /    A nd           | Version:  10
     \\/     M anipulation  |
\*---------------------------------------------------------------------------*/
FoamFile
{
    format      ascii;
    class       surfaceScalarField;
    location    "0.6";
    object      phi;
}
// * * * * * * * * * * * * * * * * * * * * * * * * * * * * * * * * * * * * * //

dimensions      [0 3 -1 0 0 0 0];

internalField   nonuniform List<scalar> 
38556
(
357.508
238.011
-2766.2
295.91
412.56
-350.962
514.861
260.201
-479.151
545.462
666.238
-696.839
670.621
573.335
-698.495
717.304
412.075
-458.758
832.646
284.343
-399.685
929.235
135.056
-231.645
1007.69
86.4852
-164.941
1057.08
49.3533
-98.7464
1043.38
60.2036
-46.4962
957.512
76.5634
9.30135
732.009
107.856
117.647
555.108
80.9805
95.9201
476.98
40.3419
37.7857
437.325
25.6394
14.0156
422.247
12.1863
2.89165
411.645
9.41071
1.19204
407.583
3.76535
0.2961
3.06142
0.0615741
-591.04
373.643
2586.86
16.9938
256.197
-451.671
261.193
93.1876
-77.1863
192.939
615.198
119.294
354.532
426.619
-14.8763
366.962
342.228
57.4167
464.218
141.511
45.5758
471.719
120.233
7.32134
542.852
36.9487
-21.5965
551.438
81.3524
-40.5854
568.027
57.1909
-13.5761
526.048
101.508
17.0342
489.637
91.7168
52.5511
452.563
86.7945
31.2595
434.042
45.0134
13.8498
418.758
36.4733
4.45022
412.531
16.9698
1.44317
406.271
15.203
0.468127
404.408
5.4608
0.166736
5.03272
0.0490121
-132.821
52.2999
2222.55
-43.559
131.223
35.7124
184.528
18.8298
-153.729
169.267
541.334
89.1248
337.571
296.981
-38.6658
319.821
386.462
-26.4832
477.314
179.791
-195.773
472.475
225.083
-100.011
524.934
108.278
-123.788
494.557
161.319
-49.5899
480.494
88.6972
-17.4432
452.682
123.906
5.41378
443.579
82.8028
18.0165
431.823
87.2471
11.3037
424.87
46.0578
5.90844
415.331
43.7645
2.24802
410.522
21.0791
0.700082
405.022
20.4214
0.28113
403.211
7.20496
0.0669773
7.27273
0.00998764
-65.2545
380.043
-207.451
395.676
133.167
-462.874
301.859
24.9704
87.6764
142.479
494.574
206.139
117.795
170.683
150.982
132.983
362.23
9.04365
341.766
73.5281
-102.521
309.563
250.248
7.03843
377.923
49.3955
-9.4772
346.314
189.595
3.33233
376.735
55.2015
3.07481
364.987
132.314
3.3397
387.447
56.8015
3.54121
387.064
85.3741
2.25671
393.689
38.1981
1.23424
392.19
44.7539
0.510062
393.497
19.5721
0.199797
392.67
21.1732
0.0749872
393.319
6.50807
0.0476554
7.11469
0.0182288
124.386
1277.52
-266.644
-165.371
388.293
34.631
-224.05
155.589
-71.9401
-107.554
305.089
72.989
43.966
62.2544
-43.0916
94.4697
280.913
30.8139
430.208
-206.076
-56.1333
392.973
270.308
17.1751
446.81
5.60114
-10.0434
393.482
238.075
4.84887
395.315
51.1193
2.24949
381.39
144.45
1.7889
387.86
48.8597
1.4718
385.446
86.9086
0.878793
390.945
32.2473
0.452309
390.429
45.0362
0.233329
391.89
18.0634
0.0478106
391.008
22.0051
0.0500787
391.378
6.1398
-0.00198766
7.8808
-0.0153609
-665.447
-823.65
2478.55
-385.431
261.445
-153.167
-402
188.345
-16.1874
-75.4037
228.241
-249.748
-36.9199
144.001
-120.23
52.1856
286.158
-94.3504
438.97
-501.588
-91.2731
267.873
401.775
39.6299
342.074
-113.699
45.0997
286.789
279.594
13.7655
315.523
15.0394
7.34618
326.679
130.995
2.29962
346.914
27.5264
1.09897
355.701
77.6467
0.474249
360.644
27.0399
0.264599
369.965
35.5639
0.151616
373.703
14.2759
0.0486248
378.716
16.9565
0.0359457
380.163
4.69943
-0.00659152
5.55797
-0.0401187
-361.254
685.122
-479.46
-647.676
396.573
151.294
-805.564
133.003
213.229
-170.497
4.78846
-411.613
42.6671
159.388
-228.552
-1.50975
475.955
-145.621
80.581
-53.2862
-336.596
-68.7485
-72.9307
-52.1175
-115.843
149.993
42.0173
125.862
150.364
129.962
44.4441
-71.8523
17.2611
-74.782
-67.0191
-77.5935
105.136
43.3804
2.54845
66.246
41.4698
65.2577
210.569
-9.50723
5.37312
-39.6393
-7.42698
-39.1933
269.713
5.23063
-0.641957
32.2873
3.96191
31.0123
314.968
8.38518
-0.429352
-17.1867
8.27558
-16.7733
332.787
9.80059
-0.318298
20.2941
10.0135
20.0374
355.778
4.15252
-0.103453
368.477
22.9143
-0.0492457
374.092
8.66646
-0.0057257
377.359
13.6578
0.0325824
378.407
3.62867
0.0226814
5.00948
-0.00929127
3148.1
77.2476
257.166
2103.54
380.032
1061.1
291.338
499.731
1445.47
361.241
-24.0934
-41.0207
689.17
0.246506
-168.788
112.25
172.321
-61.446
99.1807
85.7898
90.9964
238.099
180.883
247.052
36.7532
29.7399
-7.5295
63.9454
-55.0027
130.531
10.5186
31.7041
-37.9607
-76.2356
10.6398
39.2303
8.48834
0.150457
-4.48866
-49.9221
56.0969
-15.8884
0.206375
-52.5584
65.3159
-7.49207
-0.0348155
-79.5054
80.0203
7.86279
0.00747737
-74.4719
79.6063
4.87688
-0.210655
355.439
2.91475
0.379777
-86.1959
-87.3891
-88.2624
-88.6352
-3.47152
2.86071
-3.48731
366.455
11.8934
0.00510586
366.845
8.366
-0.0902907
371.483
9.09063
-0.0703108
371.058
4.0906
-0.0370624
2.87718
-0.053868
1445.26
-1050.93
1942.44
595.816
413.125
816.349
-133.612
710.146
519.012
-110.264
260.643
-308.084
17.5356
-56.3435
-31.016
-26.4998
12.9493
-26.6433
36.3755
142.908
10.5724
-21.4003
-14.0939
4.88551
28.2225
2.38621
7.27962
-19.5601
-0.432693
17.3381
-4.62492
-31.1588
18.5603
26.0663
-17.5913
4.1235
-10.9695
7.58831
13.7899
-7.20166
-3.20708
-22.3717
2.95689
21.9217
-2.09305
-0.41387
-18.7857
1.28326
19.1419
-1.43915
-0.200263
-20.8824
-1.21049
21.2175
0.902674
-0.0272513
-20.0122
-1.33874
20.4642
0.948356
-0.0615762
-22.5529
91.0767
3.33611
0.181
-22.5136
-23.3268
-23.2858
353.508
10.0025
0.275642
-87.9229
-86.2541
-89.6503
-88.0659
354.021
7.68869
0.165024
356.653
6.40014
0.0583369
360.382
0.493138
-0.131358
-0.474999
-0.127302
1844.65
-494.92
1538
1163.69
497.365
596.714
1197.47
684.844
-8.47125
1155.35
525.536
-222.781
140.237
403.683
-131.923
216.01
205.58
265.424
-86.4077
135.824
75.1626
15.658
-25.5763
-44.2727
48.9461
19.7357
1.16716
4.69242
-48.2613
42.5046
-5.8923
6.95659
14.1332
-31.9013
29.7357
-11.9057
-0.0619156
5.32674
-23.9239
23.5539
-4.88024
-0.0765641
1.73938
-23.426
23.1502
-0.96462
-0.499009
0.136168
-22.1064
21.7874
0.198062
-0.0152397
-0.663723
-21.3204
21.2236
0.76712
-0.00662762
-0.95371
-21.0999
21.1137
0.912848
0.0270507
-21.6251
-3.10411
88.3813
2.62633
0.118168
-21.5379
-22.3944
-22.4643
354.384
9.27614
0.310849
-87.7677
-87.5916
-89.4712
-89.1379
355.531
6.37245
0.169248
358.903
3.03181
-0.00364373
359.946
-0.563231
0.0133308
-3.4596
-0.0242879
202.595
892.148
1973.24
360.338
229.262
110.36
841.024
337.83
-133.671
1150.29
527.514
-311.24
232.787
713.467
-226.252
243.821
292.786
297.361
-99.0076
203.567
117.641
10.5865
-2.21668
-37.7657
34.3775
-3.12388
8.7288
15.1436
-36.7996
38.3358
-15.0334
-1.64646
13.516
-37.8725
36.768
-12.7302
0.318696
0.792443
-31.1956
28.3939
0.868353
1.14085
-1.05472
-25.0121
24.6211
1.82881
-0.38304
-1.34913
-23.5511
23.2849
1.777
-0.16171
-1.19382
-22.6132
22.4457
1.38402
-0.0227662
-1.02234
-21.9395
21.9096
1.04668
0.00553283
-21.9848
-3.07998
89.0677
2.97815
-0.0366689
-21.451
-23.0286
-22.4648
353.691
8.67772
0.481276
-88.3931
-86.7049
-90.091
-88.3851
352.747
7.06903
0.247489
355.603
0.040154
0.135597
356.19
-1.14091
-0.00871089
-5.91053
-0.0405315
1296.77
939.208
2242.4
1445.22
-159.544
240.357
1386.39
-23.8065
420.467
1360.39
354.793
198.717
205.57
782.597
324.808
211.006
267.713
282.165
-124.374
163.196
96.3415
70.4067
9.5036
-38.5125
38.4507
-10.308
0.866157
2.8828
-33.1118
31.2038
2.7073
-3.68215
0.0866577
-30.2027
28.4372
4.02513
-2.34625
-3.2524
-25.0877
24.3986
4.61152
-0.669975
-5.22263
-23.0531
22.671
6.02536
-0.420603
-3.26609
-21.6366
21.2423
3.84507
-0.184712
-1.90204
-21.2319
21.1324
2.02147
-0.0199496
-1.0142
-21.0756
20.9567
1.10939
0.023676
-21.9078
-2.47847
89.3636
1.79931
0.113445
-21.5697
-22.7796
-22.5408
349.18
6.97406
0.371344
-86.574
-85.3944
-88.756
-87.1229
349.663
6.50082
0.0843878
352.752
-2.9938
-0.0547233
354.628
-2.92678
-0.0902724
-7.86054
-0.109983
144.708
2364.36
-933.412
508.06
-114.952
-407.944
465.654
-369.059
387.659
535.279
-58.7272
343.894
490.394
445.612
381.87
99.7038
80.7097
131.468
-58.2737
50.9819
-111.336
-34.9024
114.143
103.3
114.599
-1.74333
83.4608
44.8852
4.01768
-15.1333
-1.26901
-14.5143
-10.8563
-47.7885
63.419
36.8314
-9.00924
-10.5969
-11.2127
-10.7869
-6.82736
-92.4697
99.1003
26.5344
-3.37581
-8.03276
-6.88781
-8.0412
-5.96803
-68.9018
58.3375
29.8575
2.08301
-4.82169
-5.9093
-4.67718
-3.48472
-74.5236
79.9603
11.7327
-2.39192
-4.24571
-3.06372
-3.98336
-3.03914
-68.2412
69.8518
10.5145
-1.25857
-2.44407
-2.96901
-2.41425
-0.716957
-83.3555
89.3381
-1.06104
-0.584073
-1.58292
-0.53802
-1.49961
-0.483305
-82.4934
84.8724
-0.106364
-0.265271
-0.585564
-0.427142
-0.511351
348.725
25.1653
0.872214
-2.56618
-9.72798
-2.26904
-9.61538
-88.8509
-84.5864
-90.2282
-86.9183
359.927
-4.44213
0.213676
356.277
10.113
0.0387106
360.451
-7.14494
-0.0230572
357.646
-0.0513601
-0.0705757
-9.19075
-0.0399867
1110.19
2247.58
-5292.57
1083.03
214.603
-302.4
1279.82
-499.066
-66.7819
1088.33
-162.076
294.841
817.226
233.781
482.932
688.819
220.408
-11.2908
556.224
597.497
-19.3693
-76.089
-140.089
-83.0314
-146.324
442.708
226.865
-95.3217
-17.1546
17.1897
-28.3646
10.3023
400.229
404.038
-98.3905
-42.4463
-86.6516
-45.3823
-88.6886
393.899
166.328
-118.875
-24.9028
11.3877
-32.9739
5.36731
389.549
208.539
-78.5712
-19.1265
-43.3172
-21.1506
-42.0233
388.243
6.54799
-36.7276
-1.88129
18.3269
-1.98486
17.0253
374.816
50.4765
2.69593
-0.0797512
-19.8535
-0.381464
-19.4314
364.667
-37.6576
7.72204
5.60584
14.3609
5.88173
14.2363
364.33
18.9989
6.50301
366.686
-9.50666
2.70927
364.083
11.5094
1.20674
362.846
-6.36419
0.455489
359.683
2.85706
0.254852
-8.17096
0.0468167
3056.73
369.989
-179.671
3225.08
-446.648
492.903
1997.19
-456.339
1185.16
1120.44
-57.5852
772.258
507.666
439.161
407.394
459.521
356.508
-87.9562
538.227
576.769
-57.9772
527.79
373.156
-135.854
586.523
466.314
-121.009
608.315
261.606
-117.07
592.563
254.751
-30.4601
510.385
58.6628
30.0626
426.114
83.8267
50.9215
382.062
-17.6047
23.9983
364.622
29.4385
7.00107
361.011
-8.52345
2.62743
357.608
14.1203
0.79264
357.122
-6.14053
0.262097
354.99
4.89969
0.0894645
-7.54745
-0.00346472
1978.97
-2056.54
-3958.5
2390.19
-976.957
119.095
2025.69
-131.175
39.3383
1491.09
329.316
147.694
827.871
694.435
407.944
693.992
506.387
-15.9998
696.573
562.13
12.0576
735.934
354.641
-20.8458
746.324
407.348
48.5756
742.683
180.269
84.9787
668.163
209.676
119.595
570.751
56.5946
99.4804
464.632
108.808
81.1376
404.967
11.2511
30.8095
377.084
43.3225
13.9985
365.399
-1.29327
4.45567
360.052
17.8333
1.63307
357.341
-3.90824
0.478963
355.577
6.51417
0.149863
-6.0403
0.01634
562.457
-1840.73
-1225.53
1015.49
-352.026
-1077.96
813.194
875.726
-804.607
813.995
1002.7
-674.182
692.181
872.455
-56.2051
652.807
498.62
47.1403
598.001
382.006
234.931
643.341
155.147
154.154
598.535
217.132
235.023
553.921
46.0434
178.839
467.039
137.92
158.638
404.487
30.1214
89.0257
376.333
87.9846
48.9764
355.904
12.7374
18.9425
353.806
39.245
6.1755
349.628
0.927583
1.95787
350.777
16.1071
0.576672
349.546
-2.83824
0.161726
349.564
6.46913
0.0263252
-4.93119
0.00358306
75.6454
-1581.03
-2383.26
376.72
-240.822
-412.279
921.386
880.675
-549.614
1019.13
933.241
-28.2902
735.683
638.173
517.732
618.553
325.249
290.502
465.856
256.969
277.733
427.475
57.9977
135.53
366.661
153.064
124.882
338.029
12.1358
62.5394
333.614
107.113
35.2226
328.56
18.3715
16.8037
342.887
64.3025
9.35526
342.021
10.0074
3.59626
349.279
30.2383
1.74782
347.676
1.80802
0.722757
350.632
12.865
0.28631
349.129
-1.45931
0.124323
350.201
5.36625
0.0307839
-3.2484
-0.00968986
-777.638
2095.65
-2855.26
-165.181
424.057
-1277.34
442.202
687.731
-414.44
278.173
704.972
392.298
-54.9898
404.421
566.915
-40.254
140.572
169.94
73.2978
47.1335
96.2839
95.6704
30.1779
5.44733
189.881
66.4475
-7.59363
203.853
16.2902
-18.1271
271.205
50.3515
-10.5907
282.713
11.4127
-4.54862
317.865
30.9094
-1.75927
322.622
5.37611
-0.126125
338.064
14.9595
-0.163181
338.92
0.947796
0.00430485
345.353
6.44178
-0.00934904
344.685
-0.823969
0.0330384
347.148
2.88652
0.0164575
-1.65443
-0.00817894
726.361
-1139.07
592.905
557.512
705.034
575.602
719.469
690.537
570.112
553.778
405.613
305.072
165.479
287.267
159.141
36.5156
211.14
14.4487
224.336
3.09405
274.666
0.0215105
285.551
0.527956
316.188
0.271967
321.072
0.492363
335.91
0.121636
336.767
0.0904127
343.229
-0.0201388
342.394
0.0117989
345.222
0.0575424
0.0273155
-559.036
-969.815
-2243.46
-2.03752
-421.85
-486.111
563.71
-194.275
-850.624
556.168
227.127
-916.424
729.107
138.471
-1009.91
733.045
146.223
-608.919
774.943
144.293
-585.877
814.55
50.8529
-322.105
855.191
21.8194
-227.401
885.128
-15.8198
-112.863
873.731
2.11587
-37.2151
802.821
24.6818
55.5286
651.248
84.2459
184.974
534.431
72.8246
139.913
474.502
38.3763
59.3383
440.477
25.522
22.5186
425.666
12.4661
5.23657
415.35
9.50035
2.00758
411.271
3.83114
0.544153
3.07927
0.155389
-216.125
-770.015
2182.94
-477.676
-444.927
-167.043
-418
-169.243
-161.894
-154.974
263.769
-180.374
67.9902
103.911
-203.28
143.111
151.942
-23.4231
360.754
39.9057
-67.6792
338.045
73.2847
7.59866
422.947
19.4203
-104.099
407.818
74.1978
-115.474
450.397
45.0987
-99.1384
437.351
88.0043
-33.2427
451.297
79.8911
42.9604
439.174
80.645
35.5621
432.538
42.5808
16.2816
420.749
35.8549
5.90624
415.628
17.0018
2.02832
409.675
15.2354
0.685981
407.92
5.52508
0.228443
5.04215
0.0803332
2468.08
-153.603
1769.18
1269.48
-187.976
977.357
177.607
-58.3768
827.28
156.811
316.743
56.9454
398.055
90.1734
-266.172
360.887
274.231
-111.604
492.769
111.758
-399.507
477.564
193.864
-205.385
508.43
94.3506
-229.584
470.421
154.89
-92.2724
459.949
81.9574
-43.8301
438.13
118.201
-2.96399
439.229
78.1768
18.6324
431.795
85.407
13.9753
427.23
45.4973
7.55684
418.533
43.7172
3.08321
413.979
21.2164
1.03884
408.597
20.4921
0.407262
406.784
7.29461
0.110025
7.28907
0.0454736
210.602
401.196
-2814.68
80.1633
-76.2293
-444.182
-55.685
-2.40465
167.553
33.2947
274.164
159.739
110.467
-0.423243
164.405
112.413
267.026
14.3036
334.072
14.4744
-226.896
303.019
221.828
10.1276
376.257
46.5193
-34.8842
347.262
189.956
-2.73846
380.976
56.801
-5.4834
369.807
133.103
-0.392653
390.956
57.1331
3.43613
390.354
85.4539
2.81162
396.88
38.4303
1.77538
395.499
44.8453
0.763162
396.849
19.7361
0.329787
396.078
21.22
0.118655
396.78
6.58255
0.0569397
7.11009
0.0383739
-268.056
1036.15
-1150.59
-468.561
163.162
-4.2557
-425.204
-36.6089
-81.0932
-149.631
130.96
-59.3796
72.8003
-140.489
-125.458
83.8872
185.445
101.308
431.356
-293.919
-95.2088
389.699
245.583
35.077
447.438
-2.41944
-18.8434
395.828
238.76
7.65452
398.315
52.8268
3.73687
384.904
145.366
2.93582
391.24
49.7615
2.50811
388.906
87.1682
1.49794
394.36
32.6124
0.816397
393.939
45.1239
0.375614
395.388
18.2118
0.123161
394.564
22.0301
0.0639168
394.936
6.20197
0.00690314
7.86718
0.00863309
-118.422
499.168
-33.3088
25.0198
312.093
-445.54
-267.714
92.2286
147.709
-31.0568
18.4801
-373.925
76.7431
-84.3794
-284.139
46.5186
215.53
-94.2113
374.72
-534.438
-178.956
224.088
406.399
29.4461
332.216
-128.625
63.1767
285.409
276.794
22.5393
317.694
15.6724
12.215
329.466
131.309
4.58418
349.819
28.3141
2.19334
358.773
77.7494
0.938937
363.799
27.4016
0.449053
373.197
35.6854
0.192901
377.007
14.385
0.0647075
382.086
16.9569
0.0306263
383.563
4.72244
-0.00476391
5.52503
-0.0107277
-63.5116
503.434
-133.716
-319.496
319.126
400.246
-420.622
125.378
281.206
-37.2541
-203.218
-573.283
232.543
-256.944
-325.784
6.3264
406.355
-110.229
-38.2017
-110.057
-521.264
-42.8759
-112.856
-39.453
-136.41
151.867
-13.7591
128.898
150.465
129.154
43.5838
-69.0937
5.53034
-79.0023
-69.2922
-79.4992
105.13
41.0396
6.70855
64.4988
40.7767
64.773
213.743
-8.54247
8.36372
-39.5799
-8.33373
-39.475
273.368
3.86772
1.47097
30.8853
3.91592
30.9028
318.476
7.89394
1.1127
-17.066
7.90008
-17.0645
336.397
9.73099
0.350773
19.841
9.74503
19.8422
359.109
4.21549
0.371265
371.818
22.7703
0.156706
377.469
8.66064
0.0669946
380.818
13.6007
0.0402526
381.901
3.65249
0.00972983
4.99484
0.0050523
192.99
-439.903
1212.28
282.087
295.672
995.459
786.71
456.168
610.063
638.761
31.4878
-127.778
342.137
-206.141
77.0328
17.2498
166.549
-95.7118
19.2728
4.15173
-2.13431
210.564
163.448
203.657
13.2947
-27.3273
-40.0157
-38.7588
-2.69037
89.3533
-65.0353
136.434
-6.1948
-6.96896
33.5944
-30.9916
-61.1808
-3.54674
2.49231
33.343
10.677
-4.62272
-0.850008
-0.915881
-51.4663
58.0495
-15.5383
1.32856
0.293163
-54.9488
67.5365
-8.93823
-0.0749005
-0.414893
-81.3521
82.1545
7.13652
0.369934
0.112524
-76.9286
81.8941
4.66448
-0.0114456
359.219
2.79123
0.658372
-87.9273
-88.9772
-87.9024
-88.9641
-3.58936
2.83371
-3.54667
370.155
11.5498
0.28993
370.51
8.16368
0.05156
375.017
9.00427
0.0185486
374.547
4.07424
0.0113314
2.84857
-0.00392306
-65.0201
1099.43
142.477
58.7075
779.339
208.955
569.504
741.548
-277.164
120.534
283.096
-110.722
-45.457
-25.0608
99.2734
-45.4931
-47.4274
-52.4588
-6.71023
-36.8727
147.534
17.1411
2.11242
-11.5427
5.91788
-7.07413
16.95
-6.36355
13.9829
11.2883
-22.9173
-3.29378
18.2349
-17.295
1.75682
-31.2852
2.96354
32.895
-0.263389
-6.06682
3.00921
-35.2588
8.29346
32.1373
-7.52148
-0.659638
-0.279621
-26.818
3.88634
25.2123
-2.75009
0.749072
-0.0249349
-21.1558
1.93645
21.0896
-1.90739
0.0620376
-0.0973708
-22.1727
-0.909676
22.5027
0.571713
0.105363
-0.0496156
-21.4022
-1.17105
21.7975
0.769365
0.0560807
-23.4748
-0.347937
93.353
3.21656
0.451966
-23.4735
-23.4679
-23.4662
357.514
9.67775
1.18103
-89.9307
-88.3876
-89.8956
-88.3336
358.01
7.41332
0.419516
360.535
6.36356
0.174573
364.087
0.394219
-0.00404794
-0.534265
-0.025285
1452.78
1247.4
-506.286
1208.36
995.625
624.851
1321.42
850.129
-230.114
1117.75
458.891
-194.908
190.75
251.13
-103.959
228.974
180.696
213.175
-43.388
-84.8649
202.13
62.0569
54.8164
-20.5979
-19.5452
-52.5
54.77
11.7208
26.1523
-18.8498
0.2133
-52.8347
50.6339
-2.49122
23.3285
-10.533
8.61375
-37.7505
33.9851
-7.52716
13.2119
-2.10037
3.22036
-28.3303
27.7277
-3.74282
3.22545
-0.469178
1.94302
-26.6281
25.9733
-1.61919
0.800201
-0.201679
0.539319
-24.0038
23.4551
-0.0368574
0.247941
-0.205071
-0.519028
-22.6213
22.4318
0.666826
0.246785
-0.0839903
-0.856226
-22.1726
22.1841
0.812628
0.116065
-22.6145
-0.319067
-2.98451
90.8375
2.4474
0.532252
-22.5905
-22.6213
-22.6874
358.392
9.08526
1.3767
-89.9556
-89.6366
-89.8997
-89.3738
359.347
6.15681
0.470606
362.63
2.86643
0.21068
363.648
-0.68352
0.0733222
-3.54436
0.03555
-483.328
1154.99
-701.579
-276.168
838.625
60.1998
853.706
608.112
-1021.53
1020.41
504.171
-523.224
256.298
509.872
-475.841
263.518
247.088
244.35
24.327
-76.1809
255.039
74.5381
-21.4245
-9.33814
-15.5217
-58.8455
59.0348
14.8256
9.84488
-3.06467
5.55381
-53.7277
48.7282
-5.61998
8.13035
-1.29796
8.36849
-39.3291
37.7102
-6.90613
1.45453
-3.57862
2.62872
-33.786
32.779
-2.21672
4.17364
-0.107192
0.625052
-28.2754
27.1776
0.295497
0.284466
-0.0016386
-0.983895
-25.0658
24.6181
1.49327
-0.0599827
-0.01247
-1.06177
-23.7858
23.6464
1.2486
-0.0349733
0.0377317
-0.835805
-23.15
23.1211
0.907763
-0.0808263
-23.0537
-0.0333347
-2.82786
91.2672
2.81126
0.142691
-22.5863
-23.1095
-22.6105
357.869
8.67873
1.58463
-90.4144
-88.8602
-90.4277
-88.8637
356.713
6.99364
0.566438
359.449
-0.0279613
0.294007
359.993
-1.31082
0.0747377
-5.99846
0.0298076
264.689
264.441
-254.787
461.539
786.643
95.489
1053.28
376.171
60.6706
1086.05
541.198
128.918
221.78
773.156
264.751
242.02
190.922
228.1
-92.2009
-102.4
206.81
122.32
87.2506
-24.0298
-10.4194
-46.934
46.0396
6.61865
28.7249
8.1476
-2.22261
-37.774
34.7774
5.17758
-8.10607
8.47325
-1.71996
-31.732
30.9011
4.26177
-10.1842
4.34071
-2.43214
-28.4322
27.4692
3.92394
-4.86952
2.2927
-3.68304
-26.2268
25.4431
4.71143
-2.53739
0.300039
-3.1869
-23.3181
22.7172
3.78349
-0.2958
-0.0108781
-1.86135
-22.4855
22.3468
2.00097
0.00988613
-0.067074
-0.954162
-22.2903
22.1726
1.06409
0.0748344
-22.9701
-0.269919
-2.27494
91.8934
1.57338
0.450307
-22.7191
-22.9711
-22.7118
353.709
6.96943
1.47186
-89.0133
-87.5492
-89.0268
-87.5113
353.855
6.44491
0.487328
356.686
-3.08094
0.167651
358.336
-3.05251
0.0015217
-7.94197
-0.0206504
-650.024
400.716
-2155.12
-561.228
231.668
58.2354
-68.6387
-46.1633
317.404
182.813
282.252
351.389
391.948
606.907
338.985
79.4875
112.128
204.507
-86.8608
-1.97911
-74.5517
25.3923
92.9769
78.4209
93.8951
-12.2567
-31.4188
67.0549
71.241
32.5585
-17.4357
-12.1527
-18.1029
-15.3852
21.7823
-23.2639
48.4146
53.3892
-41.1021
-14.1322
-15.5323
-14.1705
-8.27489
11.1076
-83.5008
92.8817
29.679
-15.916
-8.86072
-8.25777
-8.8581
-6.46428
2.9708
-64.9651
58.6347
31.1791
-4.78932
-5.06698
-6.45032
-5.04857
-3.02864
3.76694
-76.9129
82.4936
8.20075
-3.77765
-3.86518
-3.0235
-3.85343
-2.94899
1.27841
-71.2945
72.819
9.13632
-1.21477
-2.41666
-2.94306
-2.41583
-0.5786
0.267624
-85.9103
91.4588
-1.8024
0.166013
-1.51083
-0.580144
-1.51015
-0.437042
-0.307726
-84.6362
86.9225
-0.408668
0.459524
-0.578265
-0.436437
-0.577642
352.806
24.6415
1.93906
-2.4154
-9.74203
-2.33693
-9.69741
-90.454
-86.7202
-90.4417
-86.7063
363.871
-4.61613
0.73396
360.141
9.94175
0.271559
364.166
-7.22763
0.0993359
361.342
-0.30134
0.00253019
-9.28319
0.0132658
-1179.54
627.107
-3292.02
-525.268
91.6764
-816.679
-3.59911
-258.131
-376.484
268.024
112.453
193.017
619.131
364.962
373.77
566.555
214.422
-61.0082
528.254
566.933
-27.9675
-98.4446
-161.422
-99.2803
-160.888
445.758
88.3788
-98.8334
-25.0242
14.616
-13.566
21.6041
413.662
255.93
-70.0707
-41.7825
-85.8557
-38.8362
-85.6794
395.175
-20.4999
-81.5762
-21.2488
19.3648
-18.1659
21.738
373.528
67.3698
-28.8856
-10.8474
-37.2521
-10.0491
-37.2603
367.41
-69.927
-13.0458
3.32367
22.6691
3.39627
22.9738
362.774
25.0093
18.8549
1.1441
-19.4613
1.25616
-19.4712
359.978
-41.9903
11.8076
5.90438
14.4271
5.93127
14.4379
364.411
18.2087
8.50306
369.089
-9.79582
3.21094
367.461
11.3237
1.45262
366.613
-6.44171
0.517648
363.627
2.7092
0.230597
-8.22519
0.0726505
608.996
623.911
-1128.36
760.169
203.204
230.203
563.244
147.322
976.637
378.186
451.316
618.453
386.521
458.676
305.345
435.006
199.436
-121.456
561.683
390.032
-7.75351
577.833
104.837
-168.462
619.802
203.649
-110.697
585.744
6.7798
-110.292
528.513
73.7364
20.4043
463.424
-36.0492
61.2742
416.656
40.418
82.2809
385.81
-24.645
37.4987
368.539
27.7977
14.683
365.197
-8.79576
4.96999
361.743
13.9156
1.65409
361.239
-6.15881
0.483192
359.109
4.7834
0.14502
-7.57175
0.0484549
996.896
-1275.09
-1179.56
1184.18
92.1223
42.8883
533.306
539.026
298.513
479.685
546.301
106.33
514.629
505.445
326.23
620.861
195.262
-118.058
737.812
314.377
-29.2391
806.954
72.7857
-57.9366
798.483
189.494
71.201
758.372
20.4462
111.424
647.486
125.831
178.386
543.916
17.9585
149.043
452.737
90.1843
122.55
403.001
5.01854
50.8822
378.952
42.5456
23.2995
368.695
-1.33883
7.25591
363.902
17.7147
2.62687
361.36
-3.88248
0.744217
359.629
6.42648
0.238398
-6.04184
0.0741631
303.026
-209.564
-2168.83
-149.398
884.976
-1418.39
-320.11
877.854
-972.724
-246.113
570.392
-772.27
112.03
474.741
-383.644
257.26
145.708
-48.5362
412.145
186.835
207.589
475.162
11.3889
152.534
474.066
144.578
281.034
443.688
8.70473
220.959
407.249
132.446
188.462
372.987
31.3373
109.908
367.481
88.6088
56.0577
354.882
13.567
22.9933
356.482
39.5289
7.59298
353.335
1.26549
2.50032
354.795
16.0839
0.74728
353.642
-2.78561
0.218346
353.647
6.41133
0.0365245
-4.91642
0.0435375
-29.0423
557.084
-2923.6
-330.892
521.15
253.396
-287.976
731.098
-445.775
-121.005
399.069
-23.939
310.243
220.352
340.873
334.008
133.175
279.27
358.994
171.485
268.097
348.111
41.4977
116.305
322.352
171.697
123.522
304.305
37.7609
51.5305
318.066
123.74
30.1682
321.677
27.5727
16.9572
342.274
67.1344
10.2331
344.072
10.3673
4.99744
352.536
30.5645
2.24891
351.447
2.14649
0.929896
354.575
12.8678
0.374993
353.187
-1.41539
0.142079
354.245
5.34369
0.0397973
-3.22895
0.0312187
-738.931
1273.75
-2403.67
-708.452
150.819
-937.484
-606.377
458.999
-244.415
-392.865
334.976
242.879
-218.836
138.981
474.256
-119.499
22.3052
181.474
65.1006
9.41135
73.7575
87.3893
14.3036
10.3528
189.661
64.4001
-2.56865
206.888
16.2598
-13.8524
274.715
51.825
-6.50286
287.086
12.5019
-1.84942
321.77
31.1852
-0.493566
326.668
5.24018
0.102227
341.989
14.9958
0.0851916
342.945
1.06937
0.124678
349.348
6.42529
0.0305469
348.737
-0.807556
0.0365855
351.203
2.88291
0.0109733
-1.63855
0.0273414
-962.688
-1232.7
68.1234
-322.48
456.2
646.524
582.168
899.545
498.268
776.659
358.401
467.245
187.904
467.176
177.716
61.0071
219.248
37.3162
231.143
7.45921
278.939
4.05063
289.958
2.01056
320.132
1.2832
325.148
0.71645
339.931
0.334592
340.91
0.181008
347.274
0.0404757
346.451
0.0278893
349.354
0.0374132
0.0484566
-150.111
-1505.99
647.465
75.705
-557.954
-153.974
1005.65
-557.684
-1222.89
1011.26
-97.6942
-824.336
1045.64
-116.27
-928.02
1025.93
-21.8594
-567.351
891.176
83.316
-534.434
810.881
84.5093
-326.32
730.291
114.468
-261.279
680.067
79.6779
-142.316
618.775
82.8887
-58.8113
555.216
78.1335
40.954
512.352
81.5317
146.306
482.788
63.5485
105.928
456.822
36.5316
48.7724
436.198
24.5947
18.5486
424.096
12.2573
5.08119
414.919
9.37398
1.81046
411.142
3.79729
0.523844
3.06734
0.156427
191.629
-1398.6
1317.28
-639.092
-551.98
657.705
-201.641
-587.331
-569.698
-79.7473
-34.0021
-365.96
173.712
-94.3332
-478.677
185.456
36.968
-93.995
370.691
15.2743
-184.873
354.043
63.5481
45.2089
430.769
29.3355
-95.6937
409.533
90.9353
-105.496
433.769
61.8673
-102.353
413.658
95.8224
-30.8202
433.628
74.1636
30.3585
430.707
74.4579
27.574
429.621
39.8802
14.0187
419.848
34.8435
5.43018
415.35
16.7856
1.99809
409.581
15.1473
0.681603
407.874
5.50188
0.230832
5.03294
0.0750311
1841.27
-1252.74
5111.84
1080.48
-408.199
1594.37
703.686
-491.35
1108.09
601.068
64.2727
61.2888
616.445
-99.1006
-276.782
596.284
115.36
-169.835
557.122
46.519
-391.59
513.021
144.279
-242.016
507.701
72.3228
-267.251
465.466
148.56
-107.663
453.603
85.5383
-55.6379
433.007
121.523
-8.0691
435.762
77.1501
12.8915
429.636
83.5055
11.0531
426.172
44.5995
6.30158
418.063
43.347
2.68846
413.81
21.0925
0.985117
408.537
20.4454
0.381991
406.754
7.27963
0.11636
7.28173
0.0438529
1499.58
-634.096
-3983.18
1319.01
-125.907
-545.907
210.061
-119.969
905.123
121.638
99.9888
212.445
208.512
-147.228
125.659
153.788
156.725
27.6635
275.846
-52.7963
-249.639
250.983
172.135
7.13469
356.556
21.2068
-89.3415
335.611
174.746
-7.97952
377.534
50.7318
-12.5998
369.206
130.484
-1.02511
391.239
55.2768
3.27656
390.29
84.3773
2.88923
396.813
37.9465
1.90568
395.447
44.6544
0.821262
396.827
19.6726
0.369249
396.064
21.1962
0.131532
396.765
6.57593
0.0594515
7.1069
0.0319569
1483.8
772.426
-183.027
904.303
415.49
33.8459
-34.3356
62.8514
674.725
-63.26
-33.035
102.568
18.3355
-238.448
-115.833
65.5877
106.716
104.064
418.468
-330.665
-170.221
372.894
192.548
60.2379
439.085
-44.9375
-18.8907
390.434
224.573
6.47951
395.87
48.1145
0.918085
384.001
143.176
2.11281
390.872
48.8828
2.03148
388.688
86.7745
1.2844
394.248
32.4627
0.740349
393.878
45.0701
0.329335
395.364
18.1894
0.120615
394.549
22.0211
0.0541111
394.922
6.19811
0.0112645
7.8644
0.0082182
2032.93
735.84
1250.9
1167.76
571.801
263.324
189.215
202.619
986.485
51.3842
-80.8855
-188.243
76.2682
-187.619
-359.852
41.8815
146.985
-100.093
361.071
-512.901
-315.909
197.187
382.264
3.61506
317.431
-145.538
43.5333
277.231
271.095
16.2179
314.996
13.3065
9.25748
328.253
130.712
3.79104
349.415
28.0763
1.83727
358.594
77.6907
0.84403
363.742
27.3561
0.407372
373.177
35.6601
0.167714
377.003
14.3709
0.0572518
382.083
16.9476
0.0246425
383.553
4.72028
0.00234242
5.52483
-0.00130643
178.028
-178.576
3213.04
201.734
417.118
531.224
101.526
66.6478
517.384
132.012
-285.434
-399.22
332.667
-354.3
-359.759
93.0289
318.174
-41.7801
-51.2614
-107.275
-613.266
-32.8264
-100.93
-35.5766
-139.284
149.398
-97.4216
127.887
148.91
127.754
42.4691
-70.4745
-19.2941
-80.976
-70.6407
-80.3758
100.81
40.5142
7.44713
65.0583
41.0912
65.3511
212.846
-8.49937
5.47016
-39.6147
-8.18924
-39.5324
272.548
3.96225
2.43488
31.0033
4.04081
31.0405
318.162
7.93514
1.80213
-17.0658
7.95739
-17.0543
336.208
9.76078
0.688616
19.8771
9.77852
19.8903
359.02
4.28859
0.627071
371.755
22.7995
0.282587
377.434
8.65074
0.10814
380.788
13.5954
0.0386076
381.869
3.65424
-0.00589442
4.99877
-0.0103403
318.322
-649.573
-944.594
861.031
230.407
639.46
910.38
191.468
435.894
704.667
-179.757
-27.7434
436.617
-246.037
236.819
17.0788
146.842
-47.6397
-0.994637
27.2227
4.57654
181.618
145.963
184.413
69.0588
-32.5182
-40.8467
-85.8904
15.5443
90.0195
-64.87
130.483
-21.7783
8.189
27.6559
-26.6173
-69.2296
-10.4724
-0.55703
32.2704
11.4299
-6.22618
3.59704
-1.59077
-51.2115
58.1777
-15.0908
1.21611
-0.203155
-54.9353
67.4424
-8.79723
0.455525
-0.317247
-81.2823
82.1025
7.18734
0.244819
-0.0793964
-76.8619
81.8361
4.70427
0.161708
359.159
2.87936
0.559991
-87.8795
-88.9458
-87.8695
-88.9337
-3.48426
2.91213
-3.45041
370.171
11.6734
0.40375
370.533
8.18051
0.159366
375.038
9.01509
0.094028
374.555
4.07627
0.0719384
2.8523
0.0329884
366.162
-114.938
-1504.62
427.678
676.286
-298.44
250.712
659.386
-568.118
-87.1251
326.258
-278.9
-45.8333
-53.4495
31.4957
-60.9954
-44.2027
-60.9032
-34.4371
-31.6401
135.384
31.7019
18.1587
-6.11883
11.387
-12.6955
9.65847
-20.3899
17.608
5.4606
-13.0517
6.64066
-1.85731
-14.8002
7.00113
-37.5143
16.191
34.2716
-15.3989
-4.55054
-9.57589
-23.8289
9.58369
22.6148
-8.35724
9.56355
-0.943385
-26.045
3.73147
25.1343
-2.75707
0.879696
-0.0936352
-21.2594
1.91294
21.1455
-1.85696
0.151512
-0.111705
-22.1875
-0.925342
22.5089
0.609804
0.105827
-0.0848024
-21.4034
-1.18323
21.8032
0.783114
0.085057
-23.479
-0.604779
93.3426
3.31017
0.761088
-23.4848
-23.4787
-23.4872
357.295
9.76559
2.15576
-89.8903
-88.3221
-89.8624
-88.2867
357.903
7.37703
0.614248
360.508
6.35188
0.232798
364.078
0.385234
0.11776
-0.53616
0.0592911
2302.56
-785.792
-764.259
2009.36
997.442
596.901
1545.36
1029.24
-135.967
1275.33
649.464
-248.076