/*--------------------------------*- C++ -*----------------------------------*\
  =========                 |
  \\      /  F ield         | OpenFOAM: The Open Source CFD Toolbox
   \\    /   O peration     | Website:  https://openfoam.org
    \\  /    A nd           | Version:  10
     \\/     M anipulation  |
\*---------------------------------------------------------------------------*/
FoamFile
{
    format      ascii;
    class       surfaceScalarField;
    location    "0.6";
    object      phi_0;
}
// * * * * * * * * * * * * * * * * * * * * * * * * * * * * * * * * * * * * * //

dimensions      [0 3 -1 0 0 0 0];

internalField   nonuniform List<scalar> 
38556
(
719.586
238.294
-2477.31
527.514
434.566
-242.494
676.693
329.045
-478.224
660.013
723.052
-706.372
747.586
613.42
-700.993
773.88
434.623
-460.917
877.363
296.496
-399.979
965.827
142.178
-230.642
1039.28
90.4268
-163.875
1085.11
52.1885
-98.0226
1068.92
62.262
-46.0765
980.837
77.2437
10.8441
755.832
107.119
117.886
581.751
79.2732
94.8079
506.441
38.6733
36.6369
468.629
24.346
13.4661
454.576
11.2851
2.76782
444.635
8.80616
1.13423
440.884
3.45425
0.297553
3.01785
0.104033
-393.104
293.218
2490.38
149.453
307.986
-415.977
368.7
212.058
-102.26
283.674
711.323
96.7559
415.918
487.811
-6.63423
413.126
384.23
53.1835
505.322
168.51
35.7905
504.111
138.872
4.51686
574.432
45.1947
-25.0883
579.16
86.9468
-39.4862
594.695
58.4227
-11.6959
552.757
101.566
17.6156
517.929
89.9743
51.9728
482.256
84.4512
30.4948
465.161
42.4527
13.3156
450.905
34.373
4.229
445.501
15.3333
1.35645
439.724
14.1387
0.443771
438.123
4.8847
0.170711
4.99133
0.0884908
303.265
585.97
2012.82
66.131
498.987
46.1325
267.975
120.807
-110.594
230.61
678.475
70.2127
385.735
382.264
-49.5787
354.261
445.86
-30.1559
507.905
211.417
-196.55
498.215
248.467
-99.9057
549.81
114.863
-121.263
519.191
166.441
-48.875
506.612
87.9528
-16.9506
480.114
122.478
5.58493
472.925
79.3231
17.8399
462.454
83.8164
11.1062
456.786
42.4034
5.71786
448.143
40.8616
2.15354
444.143
18.6703
0.663095
439.094
18.9152
0.272684
437.558
6.34569
0.0747634
7.20559
0.0462504
204.448
1485.87
89.9597
473.682
614.395
-384.642
304.391
218.384
71.7144
144.131
634.337
204.398
132.598
243.419
150.379
146.349
424.943
7.16522
361.325
106.281
-109.84
324.46
278.32
7.01189
402.039
48.6651
-11.3812
369.553
195.844
3.08246
403.917
50.711
2.87765
393.619
129.55
3.22669
418.384
51.0317
3.5263
419.182
80.8014
2.21719
427.197
33.1795
1.20826
426.418
41.1522
0.488353
428.489
16.4029
0.196851
427.94
19.3864
0.0777619
428.839
5.38751
0.0594587
7.12751
0.0646377
-253.208
1475.22
567.707
-398.959
595.928
164.219
-307.484
185.703
-58.7951
-151.89
416.434
62.3085
49.9258
57.7157
-16.1127
106.63
338.881
29.3577
433.163
-181.948
-38.3034
396.063
295.767
19.6536
462.814
-12.6847
-5.40162
410.274
242.756
5.62819
420.131
38.6887
2.16509
408.35
139.623
1.70796
419.248
38.6538
1.48025
418.297
80.8923
0.860354
425.545
25.4676
0.463879
425.734
40.7385
0.22515
428.071
14.0143
0.050665
427.375
20.0292
0.0541535
428.045
4.70521
0.0123883
7.93519
0.0313955
-1018.21
-901.729
2897.8
-545.323
201.4
-78.356
-541.762
183.369
-1.22612
-149.144
288.618
-264.802
-92.7854
141.679
-140.321
31.2081
306.314
-91.4268
426.524
-489.972
-87.2925
274.062
407.407
40.8223
346.068
-127.377
42.6855
301.766
273.63
13.429
341.886
-8.88683
7.4556
354.241
124.966
2.30169
381.4
10.3637
1.131
390.732
71.0863
0.474259
397.735
18.1822
0.28245
407.283
31.0425
0.148008
411.946
9.29227
0.0585994
416.736
15.1962
0.0429448
418.39
3.04329
0.00846077
5.78406
0.00992222
-881.439
194.876
-1266.82
-942.606
199.689
62.8787
-972.016
-10.7251
223.504
-228.101
-107.871
-347.426
12.4596
75.6716
-174.553
-18.7526
471.348
-133.821
86.4497
-63.0281
-326.954
-70.3964
-80.1656
-54.6301
-92.9416
144.48
40.4392
126.354
145.018
130.506
66.7507
-79.0007
16.1164
-73.4669
-74.3084
-76.4093
141.747
32.9058
2.25048
66.8802
30.7487
65.8482
239.201
-20.049
5.04592
-36.7084
-18.3495
-36.2804
305.8
-5.39824
-0.648973
36.1091
-6.52295
34.828
347.989
-1.56211
-0.50736
-14.2063
-1.66461
-13.8846
369.667
0.955054
-0.314113
23.947
1.12526
23.6946
395.276
-7.30767
-0.1192
407.331
19.0515
-0.063484
413.842
2.8081
-0.0263748
416.544
12.457
0.0370734
417.768
1.79038
0.0288729
5.3116
0.0387753
2639.9
-439.036
619.959
1850.67
45.5389
943.379
163.914
368.886
1307.15
285.264
-162.281
-66.9398
626.923
-114.678
-151.31
107.718
157.691
-53.5637
87.3571
83.388
79.947
230.343
166.601
238.789
30.9638
24.4895
-10.763
59.1752
-52.1791
126.257
11.2272
18.265
-29.6046
-79.9638
12.3026
26.8109
18.1339
-6.68407
-5.35498
-62.0318
62.8099
-21.0224
0.195403
-63.4328
70.8537
-12.9121
0.0929442
-90.109
86.2018
2.35429
-0.00914181
-85.3859
85.9896
0.524295
-0.172935
393.584
-4.70706
0.394201
-95.7937
-97.5378
-97.7657
-98.725
-0.99696
-4.76509
-0.994528
406.946
5.70095
-0.0117508
406.619
3.24242
-0.10695
411.955
7.19926
-0.0785793
411.158
2.62602
-0.037755
2.96577
0.00255593
1112.6
-1905.77
1493.81
466.856
10.3699
680.913
-131.71
522.943
444.508
-94.5106
84.0273
-283.508
25.3765
-153.967
-47.0212
-27.5186
21.6027
-27.6612
33.7628
136.591
12.7139
-16.9357
-16.0345
5.12531
25.8087
2.0362
4.49404
-16.2473
0.751272
15.1318
-4.12983
-32.6608
20.1795
26.6498
-18.0631
3.89456
-13.446
9.5095
15.0151
-8.08544
-2.99312
-24.5686
5.22111
23.013
-3.39718
-0.268297
-21.3142
3.58931
20.536
-2.66644
-0.144749
-23.7788
1.45237
22.6498
-0.271086
-0.0521867
-22.8882
0.968668
22.0938
-0.0976488
-0.0766775
-25.2111
97.4316
0.244287
0.157873
-25.3199
-25.9508
-26.0591
394.199
3.91059
0.251596
-98.4189
-96.2103
-100.076
-97.9552
394.642
2.65919
0.140037
397.792
4.06665
-0.0175513
401.775
-1.24143
-0.115845
-0.46704
-0.0614451
1988.11
-29.479
1758.01
1165.1
309.895
523.491
1181.62
506.713
-0.289074
1101.6
391.499
-227.457
132.469
307.813
-131.686
197.504
195.164
246.373
-73.1053
127.268
62.9371
15.3691
-22.6758
-43.6136
47.6807
17.5928
1.01592
7.17341
-48.1886
42.3943
-7.88446
6.50538
15.0275
-32.3411
30.3786
-12.9678
-0.0972029
6.29786
-25.234
24.9839
-6.05026
0.00245709
3.24025
-24.9722
24.8173
-2.67195
-0.413355
1.52073
-24.1092
23.8036
-1.11395
-0.101166
0.462412
-23.4443
23.3653
-0.366364
-0.0169898
-0.135965
-23.3077
23.3442
0.0675691
0.0319223
-23.8306
-0.652804
97.9876
-0.189655
0.137759
-24.0064
-24.567
-24.8789
394.766
1.35953
0.307413
-96.8866
-97.8331
-98.5049
-99.2978
396.424
0.843105
0.157702
400.599
-0.185216
0.0769536
401.834
-2.49223
0.0157216
-3.0552
0.0493122
248.191
550.78
1763.2
397.709
-106.509
266.886
872.754
175.37
-143.702
1152.43
404.785
-292.962
229.49
617.119
-198.448
234.467
289.39
288.225
-79.0659
197.954
100.633
9.96921
4.10896
-38.4982
34.6743
-7.44798
7.16289
17.2684
-37.1976
38.7928
-17.2237
-1.63993
14.8618
-38.6744
37.7431
-14.2454
0.315034
3.13087
-32.5524
30.0109
-1.83467
1.24535
0.763171
-26.9868
26.6611
0.167202
-0.604736
0.0526801
-25.4918
25.2591
0.362405
-0.18236
0.0741632
-24.681
24.5985
0.0334539
-0.0251544
-0.0197168
-24.2085
24.2374
-0.0204078
0.0112269
-24.2373
-0.0762661
98.7417
-0.165296
-0.00142338
-24.0359
-25.2302
-24.9953
395.115
-0.882408
0.460337
-97.9218
-97.1287
-99.566
-98.7168
394.434
1.25571
0.268747
397.885
-3.79054
0.154568
398.383
-3.05321
0.0630116
-5.3472
0.0383431
1354.81
117.536
1222.46
1492.98
-438.135
193.458
1410.41
-179.63
437.566
1374.46
225.804
214.937
210.605
674.656
337.537
213.408
271.712
283.659
-103.992
166.545
78.8996
69.1531
13.1934
-40.0001
39.8283
-13.3549
0.333278
5.49425
-34.4373
32.8699
-0.67187
-3.25494
2.49079
-31.9014
30.3632
1.40168
-2.35422
-1.48277
-27.0304
26.3845
2.97612
-0.847422
-3.60409
-25.258
24.8717
4.25018
-0.259785
-1.81187
-23.9568
23.5079
2.40548
-0.1447
-0.271414
-23.6968
23.5598
0.427942
-0.0195013
0.0924424
-23.6027
23.4683
0.0139259
0.0280771
-24.3218
0.884981
98.7633
-0.924936
0.0284741
-24.1739
-25.1602
-25.0959
392.036
-0.203216
0.348932
-96.825
-97.8762
-98.875
-99.4876
392.971
0.221289
0.0996184
395.451
-6.27678
0.00641481
397.015
-4.54797
-0.0700603
-7.46111
-0.028979
590.876
2441.03
-616.282
682.823
-181.179
-348.903
549.052
-465.447
419.589
599.996
-149.794
324.654
545.563
368.417
360.672
117.929
-13.3225
125.801
-43.4482
74.655
-97.8631
2.67128
129.052
120.72
129.368
1.43305
98.3291
31.6098
2.89465
-9.41343
1.80702
-8.73102
-8.91959
-61.1172
77.4187
24.0155
-10.7583
-5.5609
-9.27393
-5.80436
-5.86223
-105.79
110.378
17.9688
-3.7492
-3.47006
-5.92004
-3.555
-5.60645
-81.1249
69.8026
21.5863
1.41605
-0.401565
-5.52232
-0.149702
-3.48095
-86.5806
91.908
3.45799
-1.87512
-0.3622
-3.03217
-0.0349032
-3.36084
-80.3728
82.3665
3.83667
-1.42327
1.10378
-3.28427
1.13428
-0.896887
-94.8536
100.023
-6.2037
-0.530978
1.54608
-0.705418
1.62167
-0.849787
-93.3942
95.4026
-4.70741
-0.180148
2.23131
-0.784266
2.28191
390.584
16.8715
0.731901
-5.2588
-0.260999
-4.88782
-0.182862
-99.4034
-97.6476
-100.714
-99.8316
402.895
-12.7049
0.190905
399.631
3.47065
0.0146685
402.984
-9.61056
-0.0190013
400.903
-2.42817
-0.0387624
-8.88949
0.0351599
1319.09
2041.26
-5488.6
1232.78
99.4636
-194.337
1349.57
-534.543
-47.6969
1138.88
-196.233
257.133
883.261
186.369
437.666
736.572
156.766
-23.4002
601.631
541.214
-25.4229
-66.1192
-117.803
-72.844
-124.084
492.667
182.391
-98.0915
-11.6452
33.1713
-24.2501
27.3887
448.459
368.875
-98.4328
-38.1957
-72.4393
-41.0101
-74.5892
442.621
137.565
-121.769
-22.7203
24.2698
-30.9132
19.406
435.745
186.959
-77.6676
-17.721
-33.0121
-19.9851
-31.6977
435.842
-19.0413
-33.9077
-0.387895
27.4067
-0.42863
26.2627
419.546
37.4665
-1.02121
-0.309301
-10.038
-0.603951
-9.19833
408.436
-48.452
6.84409
4.53564
21.724
4.84274
21.6151
409.339
9.97872
5.99016
411.205
-17.1551
2.58358
407.48
6.10647
1.08989
406.678
-9.233
0.42363
403.543
0.519527
0.187322
-8.17491
0.122726
3182.95
489.551
-48.2342
3226.86
-442.993
498.548
1978.3
-527.657
1241.67
1125.34
-93.7641
750.486
568.528
390.666
352.516
521.6
303.507
-99.8133
597.305
531.38
-65.87
581.422
333.739
-135.466
636.786
434.516
-121.005
655.59
235.516
-116.756
639.457
233.535
-30.4434
554.564
40.0861
25.766
470.169
68.8488
53.0122
428.444
-29.9433
23.216
410.73
20.9255
6.76736
407.249
-16.0932
2.41939
403.118
9.46153
0.775641
402.815
-9.17973
0.249985
400.057
3.18382
0.0939647
-7.76621
0.0787156
1949.9
-2559.96
-3449.1
2480.55
-1101.99
128.351
2083.13
-198.005
67.7696
1522.83
296.946
169.593
888.625
661.997
362.872
756.567
464.603
-29.0376
758.92
523.909
5.11892
792.673
322.274
-22.2889
799.559
379.384
48.2463
792.164
157.219
85.692
715.183
190.578
119.938
616.823
41.5299
96.9158
509.955
96.2138
79.5035
453.087
-3.903
30.828
424.546
36.0216
13.445
413.019
-8.75012
4.18334
407.009
13.9378
1.53394
404.194
-6.81934
0.454914
402.063
5.14505
0.169619
-6.39016
0.104588
966.06
-1732.83
-329.049
1080.38
-276.13
-940.188
901.751
820.139
-839.512
874.442
957.508
-633.253
758.535
838.55
-60.6467
717.534
468.454
37.1512
667.499
357.927
216.016
705.029
132.222
152.521
657.516
195.685
231.213
608.354
26.809
179.572
521.422
121.562
155.948
457.12
16.4703
89.3617
428.813
77.3732
47.1475
407.78
0.29282
16.837
404.624
33.5424
5.63509
399.303
-5.16824
1.73872
399.671
13.043
0.527351
397.864
-5.16519
0.153027
397.571
5.40304
0.0347106
-5.19774
0.0939247
215.036
-1598.16
-2524.73
551.075
-274.758
-337.412
1051.01
848.333
-528.126
1095.96
904.443
8.11597
809.653
632.867
491.986
681
313.227
283.881
536.675
235.781
266.471
492.884
43.8753
132.138
434.128
133.875
120.567
402.138
-2.86416
61.6627
396.177
94.0638
33.4598
388.151
8.46814
16.0281
400.077
56.6359
8.81115
395.836
0.96573
3.56773
401.651
26.127
1.6002
398.451
-2.59943
0.631059
400.499
10.7305
0.264265
398.348
-3.13349
0.119291
399.085
4.62564
0.0402776
-3.47672
0.0814661
-734.384
1833.16
-3502.19
-76.6931
337.529
-1269.98
542.521
621.069
-391.951
377.863
675.018
394.083
79.0236
377.873
553.833
80.9063
128.737
182.606
175.409
51.1206
90.1586
191.294
25.5048
2.48555
273.629
62.8637
-11.3237
280.588
9.96225
-19.7855
340.293
45.448
-11.0895
346.957
6.6311
-4.82674
378.147
27.3164
-1.87055
378.68
0.913138
-0.481061
392.117
12.8737
-0.183169
390.858
-1.35449
0.0139282
396.224
5.37122
-0.00657762
394.716
-1.67011
0.0441841
396.808
2.5037
0.029523
-1.77693
0.0871914
968.838
-1782.52
810.277
496.091
849.29
582.057
829.681
694.627
651.171
556.382
471.969
307.939
250.38
272.71
242.183
33.7013
291.232
13.8145
298.398
2.79654
343.908
-0.0615727
350.126
0.413155
377.198
0.24414
377.843
0.268282
390.597
0.119643
389.137
0.104632
394.523
-0.0144096
392.832
0.0210297
395.266
0.069513
0.128458
-298.927
-716.177
-824.199
212.478
-415.531
-338.368
715.111
-150.836
-830.021
665.85
276.998
-934.108
803.687
180.469
-1019.3
787.777
170.793
-615.801
818.426
157.05
-587.678
850.278
57.4356
-319.93
886.544
23.3284
-223.47
913.284
-16.4564
-108.306
900.222
-1.37613
-31.6386
827.318
25.4746
58.2734
676.492
83.6602
185.052
561.89
71.2998
138.11
504.168
36.8071
57.5522
471.744
24.2677
21.6226
457.923
11.5671
5.02204
448.25
8.89703
1.91017
444.493
3.52011
0.534879
3.03639
0.175287
-51.3174
-887.345
2672.52
-342.676
-380.983
-159.167
-312.04
-127.162
-156.57
-98.8336
355.182
-194.634
130.246
152.759
-208.004
191.143
192.537
-29.4574
403.809
58.8643
-78.6903
372.344
91.3831
2.03413
456.637
18.5104
-104.563
437.761
79.5601
-116.627
478.892
45.6007
-99.8038
466.145
87.996
-32.1582
480.783
78.1975
42.7974
469.419
78.3883
34.7699
463.805
40.0913
15.6462
452.889
33.7896
5.62291
448.528
15.3721
1.91263
443.046
14.1737
0.648281
441.559
4.94946
0.229156
5.00315
0.0953661
2855.32
78.2458
2120.29
1372.16
27.7423
1120.57
268.463
45.5824
820.356
217.024
447.459
29.3737
447.259
158.259
-285.314
395.935
332.859
-119.154
523.338
139.401
-404.49
503.712
217.323
-206.219
533.291
99.9121
-232.244
495.527
159.963
-91.514
486.558
81.0326
-43.4139
466.017
116.767
-2.64489
468.777
74.7232
18.555
462.492
82.0094
13.7701
459.116
41.8675
7.31751
451.275
40.8243
2.96026
447.512
18.8115
0.985952
442.58
18.9865
0.392429
441.053
6.43679
0.1139
7.22017
0.0628718
499.731
1500.21
-2308.54
104.899
372.623
-334.691
-105.657
152.574
175.279
-9.51415
402.843
152.87
124.644
8.68836
165.792
124.144
328.317
12.2067
354.784
19.1251
-220.206
317.881
249.894
11.3447
400.625
45.4665
-39.6791
370.528
196.375
-3.23298
408.09
52.5785
-6.23104
398.279
130.355
-0.550446
421.782
51.3798
3.36648
422.368
80.8818
2.75917
430.296
33.4229
1.72436
429.631
41.2452
0.732497
431.743
16.5745
0.322024
431.255
19.4339
0.118458
432.218
5.46733
0.0663755
7.12362
0.06344
-699.412
1387.54
-811.803
-667.342
332.976
171.796
-511.137
-14.8237
-47.6029
-185.206
174.799
-35.578
73.6959
-145.642
-120.685
98.9973
236.081
96.2917
431.96
-265.072
-87.0685
393.357
270.341
37.8086
462.779
-20.9448
-8.4116
412.442
243.397
8.94393
423.04
41.1463
2.9991
411.77
140.553
2.77984
422.527
39.6603
2.44217
421.655
81.149
1.4651
428.859
25.8689
0.814277
429.137
40.8277
0.363978
431.463
14.1783
0.121596
430.832
20.0532
0.0659191
431.516
4.77724
0.0186836
7.92111
0.0357349
-577.009
324.509
474.973
-150.937
233.468
-404.921
-403.7
23.3725
213.34
-114.015
-7.12716
-372.561
23.2838
-123.299
-299.963
23.4182
231.227
-86.7064
363.696
-522.602
-170.04
232.949
411.097
30.8133
336.847
-140.446
58.2879
300.484
270.8
22.3894
343.95
-8.17865
13.3142
356.91
125.301
4.59307
384.189
11.2941
2.21837
393.693
71.1969
0.922864
400.777
18.6169
0.450627
410.405
31.1623
0.185378
415.137
9.44013
0.0647034
420.003
15.194
0.0360966
421.702
3.07855
0.00854681
5.75227
0.0178003
-494.357
479.851
-193.66
-616.519
130.45
288.058
-572.977
-20.4413
223.776
-120.844
-266.508
-540.178
189.728
-293.861
-314.563
-11.1983
399.241
-100.91
-28.1163
-115.315
-507.649
-46.9034
-117.959
-44.8122
-114.972
146.609
-12.6893
129.637
145.068
129.767
66.788
-76.1943
2.73776
-77.941
-76.2762
-78.4156
141.683
30.3113
7.35622
65.0649
30.0914
65.331
242.151
-19.2967
8.05544
-36.6624
-19.1334
-36.5637
309.233
-6.61938
1.36941
34.6945
-6.58658
34.7126
351.348
-2.06063
1.09116
-14.1517
-2.0551
-14.1519
373.1
0.899302
0.334037
23.493
0.910848
23.4927
398.487
-7.24369
0.355168
410.55
18.8817
0.1541
417.102
2.79798
0.0634568
419.894
12.3921
0.0468211
421.168
1.81545
0.0182113
5.29589
0.0306231
-117.744
-950.997
437.792
154.572
-15.942
817.456
636.142
325.881
479.253
544.725
-120.557
-121.473
294.39
-271.287
76.4522
21.4683
152.072
-89.0799
10.9079
8.5837
-10.0137
201.953
148.904
195.272
15.2472
-23.7244
-43.6471
-41.7221
-2.80472
87.2857
-63.1667
131.876
-6.58172
-7.81757
19.5678
-19.2129
-66.0427
-2.68903
3.51321
19.3353
20.4953
-11.5836
-1.44898
-0.779926
-63.6286
64.6294
-20.6591
1.1414
0.228943
-65.6222
72.9029
-14.0656
-0.0634834
-0.378031
-91.8398
88.2587
1.53839
0.360111
0.112575
-87.7025
88.1843
0.303802
0.00113564
397.208
-4.83829
0.654267
-97.4532
-99.0557
-97.4268
-99.0436
-1.06826
-4.79569
-1.03058
410.504
5.29854
0.27565
410.145
3.01532
0.0349473
415.37
7.07547
0.013359
414.545
2.58512
0.0173189
2.93553
0.0257114
-276.604
208.545
-1242.63
39.0041
381.331
-31.9683
501.054
555.017
-246.679
83.3414
121.636
-107.988
-28.7778
-135.528
79.2221
-54.3372
-33.6928
-61.853
-12.6865
-26.4802
141.317
21.1441
2.12348
-3.81466
0.148638
-4.89833
14.6696
-8.22877
14.6874
9.24856
-19.7265
-1.03704
16.0074
-19.1798
1.64054
-32.823
6.56128
33.2493
-2.98773
-5.64041
2.9577
-36.0916
10.044
32.2389
-8.49351
-0.655556
-0.289478
-28.5578
5.91281
26.0901
-3.85113
0.695503
-0.00444733
-23.5423
4.08311
22.3836
-2.95683
0.0368644
-0.0930146
-24.9966
1.67886
23.8906
-0.581086
0.101256
-0.0433245
-24.1997
1.0955
23.3493
-0.255705
0.053955
-26.1007
-0.324873
99.6306
0.128357
0.43131
-26.2575
-26.0944
-26.2511
398.029
3.55045
1.10451
-100.334
-98.2738
-100.3
-98.2264
398.464
2.33512
0.385451
401.538
3.84501
0.139257
405.36
-1.35725
0.0046066
-0.529423
0.00905615
1759.63
1420.31
-21.3225
1222.59
826.156
615.701
1303.21
666.074
-191.968
1060.02
322.041
-184.668
180.404
149.808
-110.939
209.693
170.123
193.717
-42.6472
-69.1609
190.736
49.0255
52.4503
-19.9113
-16.5748
-51.6184
53.4478
9.43254
25.2241
-18.8357
3.96506
-52.6396
50.4181
-5.83167
22.9239
-9.94316
9.82077
-37.9673
34.4876
-8.85829
12.4603
-1.90421
4.75289
-29.5108
28.9708
-5.15906
2.85045
-0.416999
3.36445
-28.017
27.4754
-3.10661
0.700664
-0.192541
1.84114
-25.8772
25.3822
-1.38948
0.235876
-0.217624
0.62023
-24.6762
24.5165
-0.507391
0.264451
-0.0878556
-0.0203636
-24.3318
24.3717
-0.0530122
0.121408
-24.7829
-0.33543
-0.510389
100.4
-0.462449
0.57638
-25.0028
-24.7886
-25.0941
398.579
1.124
1.30434
-98.9613
-99.7747
-98.8893
-99.5242
400.096
0.54005
0.435596
404.178
-0.384257
0.224822
405.411
-2.6544
0.0804626
-3.13225
0.0744142
-522.399
701.154
-250.099
-111.821
529.04
153.424
878.718
453.951
-922.119
1025.54
372.607
-490.346
252.179
406.564
-411.502
253.526
242.453
233.677
25.0938
-55.8762
248.717
57.5861
-23.3418
-8.52406
-11.8957
-59.0066
58.8864
11.6586
8.88134
-3.09502
8.51886
-53.419
48.5857
-8.57773
7.98721
-1.2399
9.86513
-40.0348
38.6311
-8.61119
1.38963
-3.70758
4.35939
-35.1403
34.1526
-4.11714
4.45301
-0.056997
2.39018
-30.0613
29.0457
-1.62614
0.308586
0.05618
0.47607
-26.9102
26.5165
-0.0141903
-0.124368
0.0203452
0.231945
-25.7919
25.7319
-0.118136
-0.0741677
0.0502262
0.189047
-25.368
25.3811
-0.139944
-0.1124
-25.2704
0.0259946
0.203435
100.791
-0.195166
0.0310454
-25.1187
-25.3248
-25.1425
399.106
-0.881229
1.48474
-99.8812
-99.1726
-99.8943
-99.177
398.22
1.14936
0.545385
401.587
-3.89056
0.294642
402.038
-3.15128
0.108195
-5.43516
0.074406
485.179
-247.631
-452.672
575.32
534.681
97.6756
1089.05
236.967
140.821
1108.99
403.347
164.257
225.897
657.869
300.361
243.708
195.336
229.918
-92.0837
-82.5487
206.132
105.941
88.4564
-22.431
-6.19751
-48.0513
47.291
1.17479
28.2141
7.33028
1.23846
-39.1148
36.088
2.36248
-7.90444
7.95778
1.04903
-33.3438
32.6807
1.74517
-10.0889
3.96826
0.222181
-30.2041
29.3211
1.69276
-5.00027
2.23477
-1.69938
-28.2274
27.4188
2.78439
-2.51114
0.271197
-1.67425
-25.5232
24.877
2.32162
-0.272441
-0.00509448
-0.230098
-24.8677
24.7053
0.398823
-0.00123128
-0.0622409
0.154466
-24.7522
24.6195
-0.0274413
0.0679003
-25.3371
-0.24011
1.10104
101.151
-1.22269
0.400708
-25.2608
-25.3382
-25.2538
396.332
-0.208138
1.34766
-99.1195
-99.8922
-99.135
-99.8567
396.948
0.159737
0.473473
399.208
-6.34217
0.197906
400.58
-4.61482
0.0207474
-7.54176
0.0233746
-179.166
434.128
-2932.57
-346.213
172.171
180.653
98.2766
-150.297
362.364
276.181
185.215
364.883
453.816
522.067
318.839
99.5575
14.6279
202.542
-73.0865
27.2966
-60.5043
50.572
109.507
98.816
110.289
-9.40381
-29.3683
83.7873
58.2536
30.1249
-11.8905
-9.32782
-12.6178
-13.2715
24.2958
-41.6757
64.6795
41.2153
-43.0933
-9.36411
-13.4053
-9.38071
-7.36471
10.4737
-97.7905
104.56
21.4558
-14.262
-4.84096
-7.35819
-4.87353
-6.12659
3.59095
-77.4643
70.2882
22.9966
-5.6223
-0.747882
-6.14463
-0.770103
-2.97552
5.51869
-88.5623
94.4162
-0.90835
-4.87837
0.178629
-2.98003
0.191083
-3.20153
2.44581
-83.0192
85.3185
1.0179
-1.7844
1.20915
-3.19695
1.21071
-0.755809
0.154371
-97.2841
101.994
-6.77916
0.213456
1.60741
-0.756914
1.60709
-0.797029
-0.254968
-95.4275
97.3343
-4.91324
0.383615
2.23579
-0.796795
2.2358
394.467
16.133
1.89552
-5.0659
-0.318626
-4.96985
-0.271306
-100.931
-99.6486
-100.921
-99.6379
406.646
-12.8379
0.641242
403.318
3.27337
0.228937
406.547
-9.67503
0.0856147
404.456
-2.57772
0.0146635
-8.98443
0.0536913
-1026.81
555.815
-3748.18
-247.939
-13.133
-787.901
190.168
-281.927
-354.174
380.748
63.1847
188.583
696.475
314.072
329.933
621.733
148.953
-82.9832
575.839
508.468
-34.1195
-88.0536
-138.758
-88.9182
-138.148
496.617
39.0132
-98.3869
-20.6757
31.446
-7.93792
37.6711
460.795
219.892
-68.335
-37.2264
-71.5513
-34.1714
-71.2184
443.7
-52.9541
-81.8968
-18.8886
31.386
-15.7858
33.4648
420.778
45.2383
-30.8952
-8.41869
-26.6062
-7.4343
-26.629
414.465
-86.6668
-13.0421
4.46414
31.365
4.58806
31.6963
408.979
1.78751
17.4089
0.98738
-8.43566
1.10146
-8.38451
403.949
-52.5309
10.9834
4.89143
21.7987
4.92014
21.8119
409.494
8.17446
8.40351
413.503
-17.3011
3.03758
410.723
5.75405
1.389
410.28
-9.29307
0.484739
407.347
0.339112
0.203626
-8.22616
0.104679
725.473
623.534
-1487.69
758.524
189.214
263.151
594.779
78.0062
1045.49
444.832
383.902
579.716
462.953
406.863
241.604
500.428
146.195
-134.531
621.832
342.543
-21.3485
630.126
64.9891
-169.736
668.941
171.465
-111.393
632.476
-25.5564
-107.688
575.481
53.7279
18.0612
510.636
-54.4244
58.3693
460.721
25.5873
79.1277
432.096
-36.4455
35.7557
414.464
19.2321
13.3412
411.255
-16.2888
4.6154
407.059
9.22906
1.49747
406.757
-9.19604
0.454608
404.011
3.03631
0.142493
-7.7916
0.0845746
1127.97
-1706.85
-257.668
1263.76
-13.1401
194.916
616.229
459.097
334.209
551.168
496.629
121.926
593.731
469.711
257.461
686.904
155.452
-131.467
801.199
274.383
-41.0158
862.623
38.1711
-56.8946
850.63
161.86
69.845
806.997
-9.19043
112.958
693.558
107.217
179.888
590.924
-4.48381
149.61
498.67
77.8141
119.531
451.124
-7.71172
49.6401
426.363
35.2515
22.1867
416.198
-8.78235
6.84206
410.689
13.8221
2.44966
408.044
-6.79869
0.702659
405.951
5.0534
0.245728
-6.38925
0.115337
592.593
360.006
-1184.59
18.3748
817.554
-1196.66
-179.535
824.37
-1006.88
-79.5292
516.965
-753.594
217.153
437.878
-325.496
341.491
121.867
-53.6025
488.563
166.49
176.837
540.566
-11.5969
150.286
536.373
124.416
272.85
501.007
-11.1489
216.896
464.393
116.614
183.166
426.883
17.6639
104.724
420.397
78.1646
53.2829
407.083
1.9282
20.5112
407.229
33.8747
6.86568
402.852
-4.9072
2.24093
403.506
13.0231
0.672455
401.78
-5.12335
0.20345
401.481
5.34367
0.0426508
-5.18351
0.0891701
187.002
622.25
-2434.4
-96.4589
473.143
290.46
-104.842
693.751
-389.123
33.9087
364.314
22.0165
397.941
217.961
347.87
408.337
126.339
269.013
435.261
152.601
253.436
417.58
26.0324
112.189
392.546
152.86
117.157
370.358
24.07
48.6322
381.795
110.758
27.8796
381.628
18.1409
15.7179
399.621
59.4774
9.5058
397.773
2.75809
4.586
404.762
26.4632
2.02228
402.049
-2.36907
0.806005
404.261
10.7355
0.339118
402.228
-3.10464
0.133642
402.96
4.60296
0.049253
-3.45851
0.0794057
-601.256
1035.9
-2885.02
-603.995
160.056
-954.152
-500.872
397.323
-198.646
-284.215
307.209
234.53
-84.6894
118.688
453.581
10.2083
14.2857
199.762
169.751
12.409
70.8079
184.606
9.0286
4.63425
273.784
61.3222
-8.96448
283.485
10.1428
-15.5591
343.521
46.9693
-7.33666
351.118
7.84278
-2.12554
381.786
27.6083
-0.6702
382.551
1.25865
0.253523
395.853
12.9115
0.0657984
394.678
-1.27921
0.0991396
400.029
5.35706
0.0212506
398.584
-1.65908
0.0433088
400.69
2.50007
0.0271217
-1.7634
0.0791008
-494.626
-888.985
346.727
-185.207
610.909
715.199
694.425
918.32
579.211
790.285
423.161
478.275
272.108
436.171
257.937
56.9018
298.715
34.3584
304.617
7.03733
347.878
3.64647
354.265
1.86885
380.896
1.22136
381.726
0.696824
394.422
0.335007
393.067
0.181292
398.374
0.0355013
396.702
0.03358
399.219
0.0530045
0.101054
-85.5685
-1392.52
1432.69
254.453
-555.092
-123.297
1154.84
-493.461
-1236.95
1121.89
-76.0053
-825.154
1117.7
-81.3355
-933.778
1079.95
-18.3871
-559.664
931.537
96.9924
-536.253
844.484
92.7116
-325.588
760.831
118.723
-258.541
708.418
82.3293
-138.222
646.16
84.4208
-53.801
582.404
78.3389
43.6911
540.599
80.6908
146.166
512.101
62.1441
104.463
487.214
35.0758
47.3645
467.63
23.384
17.8223
456.424
11.3652
4.8621
447.837
8.77669
1.72104
444.376
3.48772
0.507828
3.02793
0.166163
317.551
-1577.43
579.191
-527.312
-448.404
579.007
-182.609
-445.449
-549.284
-51.7012
-7.3947
-394.152
235.561
-79.9156
-496.685
233.49
62.6309
-108.405
414.542
18.2561
-181.006
388.82
81.6542
38.8136
463.813
35.467
-96.3009
439.123
96.5509
-106.158
462.574
62.9634
-101.798
442.888
95.6802
-29.814
463.626
72.4215
30.3288
461.292
72.2493
26.999
461.034
37.4689
13.5112
452.043
32.8172
5.1804
448.267
15.1632
1.89113
442.958
14.0897
0.643717
441.522
4.92728
0.225894
4.99489
0.0824788
2063.76
-782.521
4934.69
1165.18
-185.54
1756.29
799.056
-338.453
1079.49
662.163
141.979
16.8931
665.372
-83.2752
-285.163
629.241
166.661
-187.053
586.445
61.4797
-404.917
537.763
167.835
-243.718
532.847
76.422
-268.283
490.588
153.746
-106.45
480.373
84.6317
-54.8669
461.032
120.009
-7.63291
465.42
73.6655
12.923
460.41
80.1291
10.9001
458.098
40.9867
6.11203
450.829
40.4639
2.58298
447.352
18.6894
0.936104
442.526
18.9415
0.367287
441.029
6.42169
0.115747
7.21238
0.0530852
1768.35
350.766
-3462.91
1333.56
199.936
-285.377
220.894
-1.25497
950.751
120.765
207.347
187.631
220.257
-127.75
110.774
165.894
213.192
20.0386
297.446
-52.7436
-237.534
266.453
198.831
11.3411
382.06
7.64704
-86.5104
359.246
181.275
-7.94857
404.905
45.6968
-12.9554
397.712
127.753
-1.10107
422.062
49.4712
3.21071
422.304
79.8093
2.83702
430.231
32.9335
1.85021
429.582
41.0567
0.78909
431.723
16.5107
0.359356
431.243
19.4107
0.129306
432.207
5.4607
0.0634934
7.11993
0.0450797
971.944
1000.93
15.7365
653.791
586.952
102.934
-145.953
67.1917
683.694
-102.938
-3.8631
132.618
-3.31548
-208.745
-139.313
80.6344
136.298
89.2361
418.596
-301.299
-176.475
378.601
215.577
61.0572
452.851
-58.1151
-16.8985
406.971
229.073
7.0261
420.755
34.6556
0.256331
410.912
138.394
1.9822
422.178
38.6932
1.95374
421.444
80.7539
1.2546
428.751
25.7078
0.732387
429.079
40.7747
0.318082
431.44
14.1535
0.117762
430.818
20.0437
0.0551902
431.506
4.77228
0.0188652
7.91863
0.0233887
1692.56
527.635
1412.35
937.346
629.665
307.581
34.2412
185.306
998.331
-47.9792
-119.78
-174.423
27.4453
-194.998
-389.134
17.2214
150.074
-90.2581
350.214
-501.971
-302.361
207.849
386.458
2.29697
323.035
-155.57
40.5566
292.906
265.218
16.3724
341.224
-10.6498
10.3019
355.761
124.687
3.7636
383.801
11.0161
1.85492
393.521
71.1368
0.820242
400.723
18.5536
0.402661
410.387
31.134
0.162117
415.133
9.41594
0.0563954
420.001
15.1832
0.0289191
421.697
3.07436
0.0104716
5.75321
0.0150339
-312.524
-587.713
2013.3
-89.576
228.489
466.286
-32.5522
-106.704
458.761
53.3209
-334.983
-410.848
282.965
-384.532
-354.674
70.8344
306.51
-45.2156
-40.6639
-112.822
-596.681
-39.3446
-107.167
-42.1066
-116.971
143.865
-93.2253
128.403
143.081
127.953
65.3242
-77.2384
-21.6839
-79.7657
-77.2941
-79.1456
137.623
29.5657
9.12842
65.5232
30.2681
65.7896
241.349
-19.3105
5.3894
-36.7101
-19.0558
-36.6328
308.468
-6.55818
2.32367
34.8143
-6.49454
34.8516
351.055
-2.02582
1.85081
-14.1524
-2.00371
-14.1489
372.915
0.92437
0.67878
23.5284
0.937016
23.5426
398.407
-7.17878
0.595203
410.489
18.9184
0.288288
417.068
2.78452
0.116008
419.866
12.3864
0.0457557
421.142
1.81712
-0.00122218
5.29974
0.00504165
175.064
-1114.26
111.262
749.349
-94.5632
566.222
773.761
-19.0097
367.147
608.412
-279.843
-11.2646
381.88
-307.649
226.102
21.1026
131.825
-48.9923
-9.2767
28.6437
-4.09265
173.125
130.913
176.063
66.0653
-34.5766
-46.0555
-77.1529
16.7674
88.8381
-63.2714
125.043
-23.5126
7.91566
14.9907
-15.2751
-73.9833
-10.8864
-0.274035
18.53
21.3431
-12.6833
2.64999
-1.38055
-63.4153
64.7734
-20.3047
1.01661
-0.173478
-65.6252
72.8163
-13.9654
0.389538
-0.32008
-91.7681
88.2217
1.59599
0.244664
-0.0899147
-87.6284
88.1359
0.337613
0.169233
397.15
-4.75009
0.558639
-97.4044
-99.0257
-97.3943
-99.0134
-0.977862
-4.71741
-0.949882
410.522
5.43037
0.391775
410.167
3.03008
0.143782
415.391
7.0822
0.0941209
414.559
2.59213
0.0743693
2.9394
0.048228
367.979
-835.26
-2252.03
367.771
363.607
-489.931
219.235
486.449
-603.601
-82.2133
174.086
-260.469
-28.6252
-156.607
42.7889
-70.649
-27.0012
-70.5469
-34.4867
-22.2788
129.584
30.3809
19.4932
1.4944
5.8977
-12.8184
6.92411
-20.991
17.909
2.34264
-8.92714
7.94964
-4.8126
-14.4615
6.814
-38.299
17.8317
34.3504
-16.1348
-4.56227
-9.1963
-25.0556
11.2277
23.1937
-9.28975
9.12032
-0.799417
-27.8849
5.79462
26.0405
-3.87556
0.724784
-0.0605652
-23.6453
4.06365
22.4425
-2.91981
0.11948
-0.105703
-25.0056
1.66849
23.8996
-0.557578
0.100862
-0.0856514
-24.2024
1.08603
23.3592
-0.242374
0.0852354
-26.104
-0.583897
99.6252
0.221878
0.735189
-26.2692
-26.1037
-26.2717
397.823
3.6425
2.0361
-100.293
-98.2203
-100.265
-98.1878
398.363
2.29429
0.581254
401.518
3.82791
0.238415
405.356
-1.36788
0.126258
-0.530931
0.075515
2575.48
-465.02
428.646
1977.04
890.783
686.958
1507.9
875.928
-112.307
1214.35