/*--------------------------------*- C++ -*----------------------------------*\
  =========                 |
  \\      /  F ield         | OpenFOAM: The Open Source CFD Toolbox
   \\    /   O peration     | Website:  https://openfoam.org
    \\  /    A nd           | Version:  10
     \\/     M anipulation  |
\*---------------------------------------------------------------------------*/
FoamFile
{
    format      ascii;
    class       volScalarField;
    location    "0.6";
    object      turbidity;
}
// * * * * * * * * * * * * * * * * * * * * * * * * * * * * * * * * * * * * * //

dimensions      [0 0 0 0 0 0 0];

internalField   nonuniform List<scalar> 
12920
(
-0.0100979
-0.0307053
-0.0402687
-0.0433702
-0.0469622
-0.0617958
-0.0771768
-0.102089
-0.12833
-0.156879
-0.18891
-0.219898
-0.247579
-0.273408
-0.289482
-0.295685
-0.297541
-0.298019
-0.298124
-0.298085
-0.0413899
-0.0578348
-0.0724718
-0.0871343
-0.104563
-0.141446
-0.164837
-0.192657
-0.209945
-0.228279
-0.254454
-0.271623
-0.283358
-0.292089
-0.296319
-0.297666
-0.298049
-0.298135
-0.298147
-0.298082
-0.027564
-0.0877995
-0.11589
-0.126013
-0.132029
-0.15511
-0.138599
-0.170228
-0.198937
-0.239524
-0.272314
-0.287547
-0.293941
-0.296664
-0.29774
-0.298054
-0.298144
-0.298157
-0.298137
-0.29808
-0.0424523
-0.0849643
-0.144605
-0.156426
-0.166927
-0.177548
-0.1594
-0.214523
-0.253518
-0.275906
-0.290095
-0.294885
-0.29705
-0.29779
-0.298061
-0.298133
-0.298158
-0.298147
-0.298145
-0.29809
-0.0438815
-0.109587
-0.172381
-0.173659
-0.171031
-0.205196
-0.206032
-0.24121
-0.26776
-0.283507
-0.292065
-0.295556
-0.296998
-0.29764
-0.297909
-0.298046
-0.298089
-0.298109
-0.298106
-0.298075
-0.114005
-0.139084
-0.154228
-0.134391
-0.158735
-0.201006
-0.186809
-0.243615
-0.245417
-0.277499
-0.281482
-0.290878
-0.292058
-0.294944
-0.29588
-0.296812
-0.297278
-0.297667
-0.297881
-0.29797
-0.0493755
-0.13746
-0.12387
-0.101786
-0.116774
-0.166223
-0.154946
-0.231446
-0.165749
-0.254678
-0.202761
-0.247445
-0.235675
-0.260058
-0.264277
-0.276191
-0.283042
-0.289388
-0.293206
-0.295638
-0.0104861
-0.0435465
-0.106276
-0.125306
-0.147844
-0.170483
-0.163261
-0.210539
-0.0938987
-0.127753
-0.0933186
-0.0508058
-0.0824952
-0.0623611
-0.0999433
-0.153637
-0.194562
-0.22905
-0.254237
-0.272247
-0.0187666
-0.083044
-0.151452
-0.157951
-0.183546
-0.169411
-0.158439
-0.156663
-0.0914176
-0.0329304
-0.00658137
0.0104695
0.0128591
0.0142824
-0.00100027
-0.0822827
-0.143437
-0.19128
-0.22743
-0.253666
-0.0166866
-0.0631785
-0.107461
-0.111613
-0.132443
-0.144238
-0.152349
-0.121523
-0.063254
-0.0290986
-0.00613011
0.00984243
0.0170696
0.0188493
0.00317199
-0.0795991
-0.140191
-0.188049
-0.224885
-0.251946
-0.0390784
-0.0690857
-0.0912393
-0.100952
-0.119081
-0.121447
-0.107165
-0.0818603
-0.0647611
-0.0471332
-0.0158676
0.00621448
0.0159316
0.0185846
0.00321291
-0.0789042
-0.139392
-0.187435
-0.224417
-0.251599
-0.0320735
-0.0476786
-0.0706853
-0.09641
-0.119096
-0.118623
-0.111682
-0.0782334
-0.0605251
-0.0491458
-0.0210982
0.00244985
0.0132662
0.0166971
-4.27546e-05
-0.0872061
-0.145821
-0.192121
-0.22741
-0.253397
-0.0303124
-0.0421732
-0.0638433
-0.118256
-0.140539
-0.146792
-0.117051
-0.0738253
-0.0847028
-0.0894438
-0.097231
-0.0800852
-0.0829594
-0.0634413
-0.131275
-0.174197
-0.206821
-0.235839
-0.257381
-0.273386
-0.0343407
-0.031315
-0.043371
-0.0707564
-0.108753
-0.119701
-0.110071
-0.111312
-0.118931
-0.150687
-0.193355
-0.244344
-0.26936
-0.284415
-0.287775
-0.291757
-0.293652
-0.295378
-0.296476
-0.29715
-0.0200215
-0.0253933
-0.0340226
-0.0672151
-0.111065
-0.117272
-0.117138
-0.12016
-0.132705
-0.159595
-0.202128
-0.240967
-0.270551
-0.287768
-0.294687
-0.297093
-0.2978
-0.298034
-0.298079
-0.298043
-0.0240129
-0.0239116
-0.0286698
-0.0439307
-0.0803638
-0.111621
-0.130433
-0.145289
-0.159834
-0.184931
-0.214319
-0.24715
-0.273865
-0.289711
-0.295769
-0.297586
-0.29804
-0.298145
-0.298147
-0.298073
-0.0281577
-0.026121
-0.0294778
-0.0425803
-0.0760153
-0.112447
-0.14107
-0.168754
-0.190706
-0.225777
-0.253574
-0.27954
-0.290957
-0.29617
-0.297621
-0.298039
-0.298138
-0.298158
-0.298123
-0.298076
-0.0515885
-0.0423947
-0.0418291
-0.0545197
-0.0807964
-0.128428
-0.170242
-0.214738
-0.2412
-0.270425
-0.283112
-0.2924
-0.295875
-0.297407
-0.297927
-0.298096
-0.298147
-0.298162
-0.298125
-0.298079
-0.0554682
-0.0501496
-0.0606527
-0.0847903
-0.136612
-0.194675
-0.209748
-0.229927
-0.245359
-0.261066
-0.27739
-0.28766
-0.293552
-0.296325
-0.297465
-0.297944
-0.298093
-0.298125
-0.298113
-0.29807
-0.133048
-0.108126
-0.093402
-0.105583
-0.129468
-0.171596
-0.23178
-0.272336
-0.280966
-0.289446
-0.293042
-0.295941
-0.297213
-0.297808
-0.298037
-0.298122
-0.298137
-0.298129
-0.298129
-0.298083
-0.00973545
-0.0153031
-0.00985734
-0.00786017
-0.00665464
-0.0055059
-0.00485992
-0.0050715
-0.0067188
-0.0106564
-0.0223874
-0.0470351
-0.0806757
-0.0782043
-0.0447871
-0.0195456
-0.00698969
-0.00237244
-0.000763237
-0.000303523
-0.0352274
-0.0207827
-0.0140538
-0.0179376
-0.00597307
-0.00946193
-0.00547487
-0.00411219
-0.00582781
-0.00998
-0.0247492
-0.0408915
-0.0494368
-0.0331474
-0.0158168
-0.00615268
-0.00217071
-0.000751629
-0.000310665
-0.000176949
-0.0521191
-0.0558275
-0.0490415
-0.0253797
-0.00959221
-0.00681514
-0.00426906
-0.00324232
-0.00315976
-0.00581542
-0.0124264
-0.0199314
-0.0211117
-0.0137327
-0.00667239
-0.0027883
-0.00105647
-0.000426467
-0.000167393
-0.000136096
-0.0239284
-0.0424544
-0.0628628
-0.0453528
-0.0233418
-0.00499477
-0.00234605
-0.00232129
-0.00186538
-0.00443376
-0.00583443
-0.00732305
-0.00575715
-0.00351477
-0.00166289
-0.000737067
-0.00031326
-0.000156434
-0.000118984
-0.000120484
-0.0248428
-0.0404751
-0.0363697
-0.0205515
-0.00545486
-0.00965987
-0.0123881
-0.0106428
-0.00640188
-0.00551986
-0.00352161
-0.0029103
-0.00180853
-0.00107848
-0.000494322
-0.000268788
-0.000134007
-9.11919e-05
-8.74243e-05
-0.000111982
-0.0947309
-0.0485555
-0.0396414
-0.0112269
-0.00948124
-0.0107224
-0.0220738
-0.0303682
-0.0255245
-0.0132662
-0.00699867
-0.00329959
-0.00155062
-0.00077733
-0.000432034
-0.000250808
-0.000160569
-0.000110339
-9.49874e-05
-0.00010877
-0.0661241
-0.0668283
-0.0386446
-0.0246781
-0.026212
-0.0156685
-0.0233793
-0.0316162
-0.0175181
-0.00755541
-0.0030424
-0.00118295
-0.000409441
-0.000210243
-9.62673e-05
-7.59921e-05
-8.07228e-05
-8.70957e-05
-8.49082e-05
-0.000141971
-0.0186454
-0.0592158
-0.0632464
-0.0412959
-0.0532953
-0.0307907
-0.0467447
-0.0348246
-0.0381977
-0.00900534
-0.00349344
-0.000756229
-0.000541748
-0.00018351
-5.47164e-05
-3.45107e-05
-2.90117e-05
-3.42318e-05
-3.61692e-05
-0.000107445
-0.0301037
-0.0652517
-0.0604178
-0.0506466
-0.0679166
-0.0506145
-0.0705212
-0.0495575
-0.0620245
-0.0759919
-0.0168418
-0.00119119
-8.9744e-05
-1.3329e-05
-6.54543e-06
-1.07098e-05
-3.73069e-05
-2.7788e-05
-3.7468e-05
-8.39363e-05
-0.040923
-0.0433347
-0.0389902
-0.0379141
-0.0504725
-0.0810328
-0.111096
-0.123878
-0.081975
-0.0405987
-0.0102145
-0.00145022
-0.000202835
-1.97961e-05
-8.10891e-07
-8.46926e-06
-3.15433e-05
-4.32655e-05
-3.37993e-05
-7.73947e-05
-0.0373538
-0.0370716
-0.0328657
-0.0365766
-0.0434774
-0.0514216
-0.0804644
-0.0758651
-0.0273149
-0.0249818
-0.0086928
-0.00105838
-8.95925e-05
-7.66821e-06
-3.49332e-07
-2.13673e-05
-6.5725e-05
-6.02036e-05
-3.94282e-05
-6.92564e-05
-0.0142551
-0.0210558
-0.0414252
-0.0558136
-0.0710279
-0.0824888
-0.0918641
-0.0267992
-0.00376546
-0.00286938
-0.00160956
-0.000562215
-0.000191025
-4.96501e-05
-2.26369e-05
-4.78455e-05
-2.41902e-05
-2.32981e-05
-2.72367e-05
-6.36358e-05
-0.0329111
-0.0371922
-0.0618557
-0.0707032
-0.0779551
-0.0445229
-0.0339922
-0.006149
-0.00910181
-0.0106549
-0.0129556
-0.00806233
-0.00646913
-0.0027119
-0.00157297
-0.000641944
-0.000223722
-9.1176e-05
-6.23686e-05
-9.9171e-05
-0.0126782
-0.0168816
-0.0330133
-0.0459747
-0.0616764
-0.0324256
-0.0172377
-0.0148429
-0.016171
-0.0258496
-0.0299822
-0.036278
-0.0282667
-0.0201506
-0.0111153
-0.00516928
-0.00216056
-0.000847266
-0.000344472
-0.000200595
-0.0123604
-0.0187194
-0.033913
-0.0453807
-0.042513
-0.0226347
-0.0176684
-0.0220658
-0.0271154
-0.04206
-0.0600042
-0.0778813
-0.0673011
-0.0390913
-0.0170594
-0.00651457
-0.00226339
-0.000755973
-0.000259392
-0.000157355
-0.00436528
-0.00584429
-0.0107327
-0.0174823
-0.0303248
-0.0261949
-0.0292782
-0.0415204
-0.059315
-0.0855233
-0.1059
-0.106532
-0.0831523
-0.0448023
-0.0197286
-0.00729262
-0.00253832
-0.000826677
-0.00027795
-0.000159532
-0.00435256
-0.00603662
-0.00933269
-0.0157135
-0.0407787
-0.0627415
-0.0823403
-0.103789
-0.121049
-0.128187
-0.117912
-0.0826542
-0.0488159
-0.0213392
-0.00845558
-0.0029713
-0.000997939
-0.000333719
-0.000125578
-0.000125481
-0.0230753
-0.0167188
-0.0163782
-0.0328786
-0.0655079
-0.0687381
-0.0798889
-0.0699604
-0.074556
-0.0503417
-0.0440961
-0.0240489
-0.0148556
-0.00674782
-0.00316089
-0.00133568
-0.000572451
-0.000244685
-0.000110337
-0.000119348
-0.027337
-0.0293448
-0.0380548
-0.0587752
-0.0774521
-0.0448376
-0.0324489
-0.0107274
-0.0175259
-0.00753131
-0.00767103
-0.00301384
-0.00182343
-0.000664178
-0.000328756
-0.000163157
-9.67527e-05
-6.83883e-05
-6.31402e-05
-0.000108202
-0.0348092
-0.0634358
-0.0654981
-0.0757892
-0.0918837
-0.113693
-0.10359
-0.0411307
-0.0149545
-0.00550357
-0.00213909
-0.00111253
-0.000638164
-0.000424144
-0.000255533
-0.000173162
-9.61267e-05
-6.78094e-05
-8.16316e-05
-0.000130345
-0.0419629
-0.0156994
-0.0117816
-0.00918022
-0.00762871
-0.0063853
-0.00541682
-0.00477869
-0.00574959
-0.00923874
-0.0170102
-0.0268983
-0.0342969
-0.0236959
-0.00954263
-0.00290047
-0.000740331
-0.000173173
-3.80429e-05
-8.104e-06
-0.0506458
-0.0179275
-0.0117871
-0.00560198
-0.00410124
-0.00216611
-0.0021955
-0.00230641
-0.00327463
-0.00455823
-0.00710224
-0.00876186
-0.00912751
-0.00480962
-0.00162117
-0.000439505
-0.000102103
-2.20898e-05
-4.49225e-06
-9.0853e-07
-0.0302092
-0.0388582
-0.0359202
-0.0194199
-0.0102576
-0.00628584
-0.00409671
-0.00228426
-0.00128735
-0.00139361
-0.00167516
-0.00212941
-0.00180845
-0.000902987
-0.000290054
-7.79789e-05
-1.78994e-05
-3.90889e-06
-7.98553e-07
-1.78743e-07
-0.0220093
-0.0372291
-0.0393551
-0.0149461
-0.00566753
-0.00265145
-0.00208713
-0.00097375
-0.000443959
-0.00045016
-0.000352432
-0.000399781
-0.000234594
-0.000108918
-3.15187e-05
-8.35168e-06
-1.8482e-06
-4.08697e-07
-9.5627e-08
-3.5982e-08
-0.0181391
-0.023
-0.0235975
-0.00952515
-0.00476485
-0.00267863
-0.00335408
-0.00204777
-0.00109019
-0.00051078
-0.000201845
-0.000109724
-4.09861e-05
-1.64264e-05
-4.57315e-06
-1.30711e-06
-3.36174e-07
-9.3365e-08
-3.26921e-08
-2.34692e-08
-0.0276003
-0.0334373
-0.0312089
-0.0113102
-0.00797996
-0.00333596
-0.00516655
-0.00484222
-0.00308604
-0.00111762
-0.000376309
-0.000118059
-3.5968e-05
-1.10966e-05
-3.29339e-06
-9.59648e-07
-2.78916e-07
-8.30576e-08
-3.07191e-08
-2.18706e-08
-0.0235353
-0.0380906
-0.0223265
-0.0201714
-0.0210115
-0.00912625
-0.0056938
-0.00389346
-0.0028518
-0.000631212
-0.000172617
-6.32626e-05
-2.21326e-05
-8.39181e-06
-2.94689e-06
-1.01596e-06
-3.32264e-07
-1.07398e-07
-3.75481e-08
-3.55488e-08
-0.0187317
-0.0295567
-0.0215312
-0.0245042
-0.0371281
-0.0196221
-0.0113378
-0.00449715
-0.0119789
-0.00178038
-0.000362574
-7.09399e-05
-1.48577e-05
-2.9843e-06
-3.71116e-07
-1.11267e-07
-2.94766e-08
-1.02217e-08
-5.67131e-09
-2.37284e-08
-0.0223377
-0.0285444
-0.0204305
-0.0299668
-0.0426706
-0.0252186
-0.0309702
-0.0362073
-0.0504416
-0.032666
-0.00358793
-0.000200615
-1.00606e-05
-6.43404e-07
-3.48279e-08
-7.34041e-09
-1.35481e-08
-5.86903e-09
-4.37306e-09
-1.54961e-08
-0.00989441
-0.0230896
-0.0238642
-0.0243804
-0.0303953
-0.0517065
-0.0698082
-0.0853541
-0.0522281
-0.0125001
-0.00178866
-0.000200721
-1.7392e-05
-1.06738e-06
-2.56874e-08
-5.32466e-09
-1.21177e-08
-1.11787e-08
-5.11546e-09
-1.31632e-08
-0.00553033
-0.016108
-0.0214275
-0.0251629
-0.035515
-0.0494679
-0.0596916
-0.0392226
-0.0103134
-0.00258211
-0.000405047
-4.363e-05
-3.40689e-06
-2.02796e-07
-6.27054e-09
-2.96122e-08
-4.24393e-08
-2.23911e-08
-7.9468e-09
-1.12548e-08
-0.00131333
-0.0163993
-0.03351
-0.0396395
-0.0501741
-0.0562107
-0.0455276
-0.00859333
-0.00156931
-0.000733423
-0.000322216
-6.85542e-05
-1.04275e-05
-1.51538e-06
-7.97864e-07
-1.07662e-06
-3.26241e-07
-9.52834e-08
-2.45293e-08
-1.50353e-08
-0.0163131
-0.0376033
-0.0545512
-0.0420274
-0.0470026
-0.0251988
-0.0151661
-0.00441904
-0.00620991
-0.00334412
-0.00354592
-0.00147476
-0.000936472
-0.00026169
-0.000121576
-3.6497e-05
-9.34305e-06
-2.38378e-06
-5.47585e-07
-1.37862e-07
-0.016991
-0.0205465
-0.0316079
-0.0308702
-0.0340848
-0.0185838
-0.0111505
-0.0134665
-0.012252
-0.0176105
-0.0129562
-0.0115509
-0.00601315
-0.00288678
-0.00101785
-0.000320244
-8.89515e-05
-2.29118e-05
-5.49421e-06
-1.27285e-06
-0.00709177
-0.0167638
-0.0284747
-0.0257679
-0.020987
-0.0165984
-0.0151532
-0.0238809
-0.0269369
-0.0349237
-0.0358429
-0.0323527
-0.0200318
-0.00848316
-0.00279704
-0.000793678
-0.000205316
-4.92614e-05
-1.12092e-05
-2.43796e-06
-0.0101968
-0.00851419
-0.00994327
-0.0125922
-0.0165692
-0.0203815
-0.0259483
-0.0396379
-0.049344
-0.0582201
-0.0623624
-0.0478391
-0.0269092
-0.0100201
-0.00297471
-0.000737206
-0.000166094
-3.45423e-05
-6.86183e-06
-1.33038e-06
-0.0128733
-0.00693359
-0.00827453
-0.0121493
-0.0250132
-0.0331926
-0.0602448
-0.0643373
-0.076912
-0.0647729
-0.046975
-0.0228514
-0.00943538
-0.00275574
-0.000750487
-0.000178448
-4.17332e-05
-9.35678e-06
-2.08202e-06
-4.72836e-07
-0.0105759
-0.0125101
-0.0131179
-0.0169152
-0.0339291
-0.0213783
-0.0242692
-0.0145301
-0.0208572
-0.00957588
-0.0088593
-0.00313289
-0.00142859
-0.000400793
-0.00012161
-3.18883e-05
-8.50563e-06
-2.16508e-06
-5.46208e-07
-1.50326e-07
-0.00905415
-0.0255676
-0.0222158
-0.0202167
-0.0251415
-0.0124336
-0.00543255
-0.00183706
-0.00401177
-0.00132324
-0.00116401
-0.000331013
-0.000141369
-3.65004e-05
-1.12282e-05
-2.88957e-06
-7.92611e-07
-2.05481e-07
-5.76611e-08
-3.00172e-08
-0.0287956
-0.0449675
-0.0503764
-0.0587679
-0.0803682
-0.0747617
-0.040447
-0.00936395
-0.00228112
-0.000603483
-0.000207686
-6.34445e-05
-2.1818e-05
-6.76196e-06
-2.12186e-06
-6.36855e-07
-1.83093e-07
-5.32981e-08
-2.26908e-08
-2.77009e-08
-0.0203013
-0.0210356
-0.0152682
-0.0109763
-0.0087726
-0.00719793
-0.00625779
-0.00509583
-0.00443926
-0.00512584
-0.00788
-0.0100815
-0.00998104
-0.00513892
-0.00167931
-0.000435947
-9.88677e-05
-2.08341e-05
-4.16323e-06
-8.08687e-07
-0.0351726
-0.0217445
-0.0133777
-0.00874164
-0.00626331
-0.00339007
-0.00238943
-0.00196704
-0.00220711
-0.00226563
-0.00250215
-0.00221482
-0.00165231
-0.000715808
-0.000208436
-5.07052e-05
-1.06986e-05
-2.1249e-06
-3.95019e-07
-7.20686e-08
-0.0388144
-0.0285207
-0.0250662
-0.0151308
-0.0103241
-0.00756216
-0.00550338
-0.00319463
-0.00152419
-0.000815932
-0.000480753
-0.000375619
-0.000213601
-8.92238e-05
-2.44713e-05
-5.90494e-06
-1.22251e-06
-2.4459e-07
-4.61269e-08
-8.73319e-09
-0.01652
-0.0336674
-0.0322721
-0.0140839
-0.00749569
-0.00489648
-0.00351143
-0.00151525
-0.000559058
-0.000262143
-0.000105806
-6.56758e-05
-2.68218e-05
-1.03793e-05
-2.7476e-06
-7.10195e-07
-1.6469e-07
-3.91249e-08
-9.09168e-09
-2.14126e-09
-0.0106224
-0.0155217
-0.0218292
-0.0126968
-0.00718396
-0.00286785
-0.00191932
-0.00102058
-0.000448644
-0.000224727
-0.00010111
-4.63716e-05
-1.94378e-05
-7.85804e-06
-2.97179e-06
-1.06547e-06
-3.61519e-07
-1.14778e-07
-3.42826e-08
-9.63831e-09
-0.0219618
-0.0199836
-0.0253077
-0.01332
-0.00809271
-0.00268038
-0.00223454
-0.00113493
-0.000464897
-0.000186529
-5.89571e-05
-2.32011e-05
-7.69191e-06
-2.84546e-06
-8.98639e-07
-2.85986e-07
-8.16752e-08
-2.29842e-08
-5.91211e-09
-1.49446e-09
-0.0322844
-0.0284521
-0.0232895
-0.0163055
-0.012617
-0.00664729
-0.00323127
-0.000902335
-0.000538769
-0.000105153
-2.70551e-05
-1.07609e-05
-3.72592e-06
-1.4501e-06
-4.96505e-07
-1.6742e-07
-5.20053e-08
-1.51558e-08
-4.08122e-09
-1.03372e-09
-0.0247573
-0.0216104
-0.0183128
-0.0150814
-0.0179112
-0.0105915
-0.0049851
-0.00091617
-0.00272778
-0.000370094
-7.29297e-05
-1.46534e-05
-2.64662e-06
-5.09648e-07
-6.14347e-08
-1.69347e-08
-4.17039e-09
-1.03638e-09
-2.24496e-10
-5.15268e-11
-0.0130395
-0.0166719
-0.0149631
-0.0170783
-0.0236757
-0.0122945
-0.00846632
-0.0204892
-0.0195998
-0.00830404
-0.000868288
-4.7598e-05
-2.1251e-06
-1.2005e-07
-5.70621e-09
-2.65679e-10
-5.95331e-11
-1.42241e-11
-3.33446e-12
-2.84116e-12
-0.0241273
-0.0234396
-0.0217597
-0.0236941
-0.0345878
-0.0303552
-0.0344326
-0.0467815
-0.0184069
-0.00262468
-0.000275997
-2.2816e-05
-1.3699e-06
-6.24619e-08
-1.31863e-09
-6.33232e-11
-1.89621e-11
-5.8336e-12
-1.47039e-12
-1.50117e-12
-0.00630541
-0.0137088
-0.0192395
-0.0239369
-0.03551
-0.0378166
-0.0391541
-0.0146552
-0.00203735
-0.000317919
-7.54438e-05
-1.28921e-05
-1.11433e-06
-6.21422e-08
-1.70995e-09
-1.60984e-09
-6.26127e-10
-2.00259e-10
-4.89471e-11
-1.19979e-11
-0.000866331
-0.00975882
-0.0238173
-0.0282188
-0.0378548
-0.0251101
-0.0148337
-0.0043569
-0.00111072
-0.000387187
-0.000132971
-2.75243e-05
-3.27422e-06
-3.01292e-07
-9.59193e-08
-1.25909e-07
-3.62244e-08
-9.87395e-09
-2.25497e-09
-4.90764e-10
-0.0129069
-0.0242242
-0.036866
-0.0241877
-0.0266653
-0.0144042
-0.00897096
-0.00326331
-0.00376181
-0.00138158
-0.00116537
-0.000351533
-0.000180686
-4.0363e-05
-1.76206e-05
-4.8839e-06
-1.16419e-06
-2.78318e-07
-5.9727e-08
-1.26116e-08
-0.0116741
-0.0171787
-0.0267753
-0.0190122
-0.0164698
-0.0103408
-0.00678928
-0.00867875
-0.00597425
-0.00749972
-0.00428811
-0.0032047
-0.00133161
-0.000537581
-0.000161832
-4.60554e-05
-1.17263e-05
-2.82821e-06
-6.34577e-07
-1.36553e-07
-0.0118904
-0.0115103
-0.0179875
-0.0160179
-0.0117399
-0.0110126
-0.00991696
-0.0148906
-0.014296
-0.0165606
-0.014111
-0.0101248
-0.00500331
-0.00182191
-0.000547876
-0.00014626
-3.62087e-05
-8.36565e-06
-1.83565e-06
-3.81845e-07
-0.006389
-0.00817524
-0.00843571
-0.00943757
-0.0103401
-0.011023
-0.015012
-0.0217483
-0.0290698
-0.0298215
-0.0275314
-0.016318
-0.00712749
-0.00219812
-0.000568467
-0.000128687
-2.7038e-05
-5.31282e-06
-1.0002e-06
-1.81294e-07
-0.00862444
-0.00737328
-0.00765424
-0.00833276
-0.0122852
-0.0123024
-0.0234091
-0.0269777
-0.0320422
-0.0222446
-0.0134765
-0.00507999
-0.00179983
-0.000456038
-0.000114854
-2.54785e-05
-5.6614e-06
-1.20426e-06
-2.54751e-07
-5.28683e-08
-0.0187127
-0.0135866
-0.0102858
-0.00799066
-0.00889957
-0.0050357
-0.00689589
-0.00329422
-0.00679873
-0.00255909
-0.00216337
-0.000624459
-0.000238616
-5.68306e-05
-1.48955e-05
-3.31374e-06
-7.55825e-07
-1.62423e-07
-3.50044e-08
-7.36626e-09
-0.021011
-0.0248787
-0.020645
-0.017129
-0.0185111
-0.00733876
-0.00226435
-0.000847825
-0.00129169
-0.000380683
-0.000273133
-6.932e-05
-2.45859e-05
-5.69813e-06
-1.49092e-06
-3.32989e-07
-7.67039e-08
-1.65548e-08
-3.56733e-09
-7.44217e-10
-0.0763125
-0.0393385
-0.0479865
-0.0576905
-0.0751546
-0.0399312
-0.0130481
-0.00289896
-0.000659197
-0.000182903
-6.06435e-05
-1.87963e-05
-6.06766e-06
-1.84498e-06
-5.43278e-07
-1.52419e-07
-4.03597e-08
-1.01508e-08
-2.40543e-09
-5.46917e-10
-0.0365843
-0.0199842
-0.0123957
-0.0100677
-0.0093032
-0.00846616
-0.00750762
-0.00630158
-0.00478341
-0.00286175
-0.00154283
-0.00116055
-0.00114407
-0.000520104
-0.000151118
-3.54484e-05
-7.32538e-06
-1.40853e-06
-2.5659e-07
-4.53613e-08
-0.0262754
-0.0154954
-0.00984144
-0.00920454
-0.00857996
-0.00659246
-0.00405345
-0.00179638
-0.00127512
-0.000810943
-0.000482758
-0.000288449
-0.000166338
-6.35937e-05
-1.69199e-05
-3.82605e-06
-7.55603e-07
-1.40882e-07
-2.46532e-08
-4.23433e-09
-0.0207518
-0.0147952
-0.015863
-0.0137951
-0.0118842
-0.00984157
-0.00765703
-0.00481784
-0.00216326
-0.000708361
-0.000213125
-7.63295e-05
-2.70403e-05
-8.88537e-06
-2.19858e-06
-4.97201e-07
-9.9264e-08
-1.92337e-08
-3.54021e-09
-6.49605e-10
-0.00740417
-0.0202441
-0.0218604
-0.0161852
-0.0123801
-0.00952164
-0.00671957
-0.0035313
-0.00122419
-0.000356275
-9.06212e-05
-2.69838e-05
-7.33928e-06
-2.08214e-06
-5.10757e-07
-1.23136e-07
-2.77498e-08
-6.15682e-09
-1.31752e-09
-2.7767e-10
-0.00815744
-0.0116438
-0.0109882
-0.0106495
-0.010123
-0.00788762
-0.00400094
-0.0016185
-0.00046555
-0.000167215
-4.65635e-05
-1.44077e-05
-4.17694e-06
-1.2662e-06
-3.74618e-07
-1.11354e-07
-3.24765e-08
-9.22149e-09
-2.52742e-09
-6.66712e-10
-0.0109324
-0.0143728
-0.0170683
-0.0137335
-0.0104163
-0.00608866
-0.00257378
-0.000762339
-0.000107518
-5.06728e-05
-1.12706e-05
-3.97518e-06
-1.0542e-06
-3.35241e-07
-9.158e-08
-2.61325e-08
-6.85601e-09
-1.8066e-09
-4.43068e-10
-1.07743e-10
-0.0313047
-0.0212068
-0.016333
-0.0119042
-0.00902119
-0.00669603
-0.00342606
-0.000610004
-6.55133e-05
-1.66621e-05
-3.1258e-06
-1.18743e-06
-3.62595e-07
-1.33288e-07
-4.3422e-08
-1.41951e-08
-4.31638e-09
-1.23904e-09
-3.30302e-10
-8.28328e-11
-0.0118829
-0.0166308
-0.0158312
-0.0122991
-0.00850644
-0.00520604
-0.00168902
-0.000409776
-0.000273742
-5.39609e-05
-1.10312e-05
-2.39323e-06
-3.39305e-07
-5.79369e-08
-5.71085e-09
-1.50383e-09
-3.59932e-10
-8.72915e-11
-1.85841e-11
-3.96801e-12
-0.00865515
-0.0115202
-0.0102018
-0.00852173
-0.00739542
-0.00454139
-0.00195145
-0.00229843
-0.00208864
-0.00162144
-0.00022126
-1.3021e-05
-5.46521e-07
-2.53213e-08
-8.112e-10
-2.50322e-11
-5.03327e-12
-1.13106e-12
-2.09715e-13
-4.15067e-14
-0.00707577
-0.0180305
-0.0133087
-0.0141548
-0.0230475
-0.00997469
-0.00996539
-0.015702
-0.00498685
-0.00135125
-0.000118512
-6.22037e-06
-2.83899e-07
-1.15492e-08
-3.05041e-10
-1.72656e-11
-3.23934e-12
-6.26928e-13
-1.22179e-13
-2.22076e-14
-0.0024158
-0.0164973
-0.0208331
-0.0160541
-0.017093
-0.0114873
-0.014438
-0.00496636
-0.000984581
-0.00019362
-3.66893e-05
-5.51144e-06
-4.73466e-07
-2.81236e-08
-8.23686e-10
-1.9756e-10
-6.98345e-11
-2.12263e-11
-4.98374e-12
-1.06862e-12
-0.000656923
-0.0102906
-0.0163121
-0.0155778
-0.0150658
-0.0100635
-0.00690393
-0.00232887
-0.000837097
-0.000211054
-6.31433e-05
-9.18822e-06
-8.00474e-07
-5.44084e-08
-1.18582e-08
-1.49608e-08
-4.17066e-09
-1.10039e-09
-2.42694e-10
-5.09552e-11
-0.00965303
-0.0128901
-0.0200277
-0.0140417
-0.0118296
-0.00675957
-0.00511823
-0.00210092
-0.00150544
-0.00043921
-0.000278892
-6.55649e-05
-2.90185e-05
-5.68389e-06
-2.34409e-06
-6.23748e-07
-1.42418e-07
-3.26985e-08
-6.73805e-09
-1.36933e-09
-0.0150224
-0.0108879
-0.014169
-0.0107165
-0.00888249
-0.00577197
-0.0037691
-0.00362005
-0.00204093
-0.00198883
-0.000976152
-0.000603576
-0.000221487
-8.13862e-05
-2.29793e-05
-6.23556e-06
-1.51952e-06
-3.51991e-07
-7.57446e-08
-1.56621e-08
-0.0103593
-0.0070623
-0.00858486
-0.00847616
-0.0065182
-0.00563785
-0.00476381
-0.00567618
-0.00462946
-0.00446201
-0.00322078
-0.00191728
-0.000818615
-0.000276217
-7.97346e-05
-2.07637e-05
-5.0422e-06
-1.14392e-06
-2.46404e-07
-5.02732e-08
-0.00306217
-0.0047809
-0.00585776
-0.00575478
-0.00634366
-0.00613903
-0.00658492
-0.00750596
-0.00934846
-0.00856964
-0.00666407
-0.00324482
-0.00119964
-0.000336803
-8.22045e-05
-1.79553e-05
-3.6658e-06
-7.01178e-07
-1.28405e-07
-2.25847e-08
-0.00640164
-0.00692382
-0.00780117
-0.00772569
-0.00752032
-0.00604236
-0.00569267
-0.0054595
-0.00663278
-0.00397287
-0.00230443
-0.000748207
-0.000251926
-6.02398e-05
-1.46762e-05
-3.11783e-06
-6.62744e-07
-1.33577e-07
-2.67188e-08
-5.23166e-09
-0.0124572
-0.0163908
-0.0171349
-0.0158462
-0.0121498
-0.00610398
-0.00313447
-0.00145158
-0.00166554
-0.000604063
-0.000395885
-0.000107363
-3.66443e-05
-8.4464e-06
-2.08782e-06
-4.44392e-07
-9.51917e-08
-1.91552e-08
-3.81776e-09
-7.40358e-10
-0.023115
-0.0240912
-0.0270123
-0.0266842
-0.0232212
-0.00923814
-0.00320796
-0.00108019
-0.000530354
-0.00017801
-8.31332e-05
-2.52112e-05
-8.44534e-06
-2.4401e-06
-6.94971e-07
-1.86036e-07
-4.69731e-08
-1.1243e-08
-2.51803e-09
-5.37784e-10
-0.0164838
-0.0293484
-0.0413511
-0.049663
-0.0565629
-0.0199993
-0.00579296
-0.00195953
-0.000733092
-0.000305355
-0.000118335
-4.64821e-05
-1.65509e-05
-5.69229e-06
-1.77521e-06
-5.21668e-07
-1.40496e-07
-3.54965e-08
-8.32363e-09
-1.85097e-09
-0.00298563
-0.00313046
-0.000795776
-0.00310917
-0.00064065
-0.000632488
-0.000192438
-0.000353192
-0.000490255
-0.000109416
-0.0003851
-8.09202e-05
-0.000127532
-3.35094e-05
-0.000700164
-0.000719912
-0.000397014
-0.000434222
-0.00016105
-0.000461703
-0.000227597
-7.8108e-05
-0.000309447
-0.000101237
-0.00011245
-3.19137e-05
-0.00017408
-5.94103e-05
-0.147234
-0.159995
-0.143862
-0.13851
-0.131935
-0.15198
-0.142722
-0.106719
-0.1351
-0.0824598
-0.127638
-0.12039
-0.139036
-0.112438
-0.0391891
-0.0665272
-0.0349945
-0.11737
-0.0992162
-0.101067
-0.0720517
-0.0127219
-0.0270641
-0.00913093
-0.090328
-0.0472011
-0.063015
-0.0347397
0.00757024
-0.00415653
0.00784191
-0.0347375
-0.0120631
-0.0272461
-0.0116293
0.0127308
0.0108368
0.0163856
-0.00812973
-0.00288955
-0.00827481
-0.0025461
0.0151989
0.0173417
0.018712
-0.00215664
-0.000779659
-0.00163624
-0.000385392
0.00941432
0.0189024
0.0183648
-0.000632765
-0.00105483
-0.000227275
-4.35534e-05
-0.135729
-0.11527
-0.0870505
-0.146803
-0.139381
-0.125723
-0.0997922
-0.0737368
-0.0817626
-0.0690849
-0.131824
-0.0938649
-0.0907098
-0.0573369
-0.0368627
-0.0657932
-0.0516433
-0.0818439
-0.0581599
-0.0492919
-0.044866
-0.0111952
-0.0434029
-0.0197704
-0.0519336
-0.0331496
-0.0443743
-0.0340989
0.0065859
-0.0130245
0.00305287
-0.0271443
-0.0124754
-0.0289765
-0.0144595
0.015988
0.00697148
0.0146164
-0.00902885
-0.00287583
-0.0107171
-0.00366946
0.0186325
0.0160932
0.0182739
-0.0018563
-0.000436264
-0.00244784
-0.000629355
0.0184306
0.018583
0.0182707
-0.000257335
-4.82248e-05
-0.000380057
-7.30363e-05
-0.0874854
-0.10896
-0.0894101
-0.116035
-0.10027
-0.111049
-0.0900647
-0.067886
-0.0816317
-0.0617203
-0.0913861
-0.0478864
-0.071358
-0.0159792
-0.0542821
-0.0589334
-0.0542383
-0.0377924
-0.0362235
-0.0104593
-0.010953
-0.023138
-0.0500389
-0.0293426
-0.0383241
-0.0341887
-0.0130864
-0.0178173
0.00192374
-0.0218216
-0.00152666
-0.0297342
-0.0150561
-0.0187314
-0.0156972
0.014382
0.0036514
0.013304
-0.0111953
-0.00381699
-0.0128259
-0.00509369
0.0182724
0.015009
0.0176639
-0.00253897
-0.000643021
-0.00350544
-0.00100219
0.0182815
0.0180723
0.0180067
-0.000386336
-7.45146e-05
-0.000644461
-0.000164612
-0.0873207
-0.11782
-0.0740494
-0.110671
-0.0777768
-0.11559
-0.04408
-0.0616414
-0.0680309
-0.0689454
-0.0510379
-0.0119151
-0.0223254
-0.0207674
-0.0544337
-0.0715246
-0.0663977
-0.011463
-0.0193365
-0.0276814
-0.0481649
-0.0282487
-0.062764
-0.0518841
-0.0200373
-0.0191779
-0.0502252
-0.0435001
-0.00235858
-0.0514222
-0.0342981
-0.0191619
-0.0156157
-0.0431135
-0.0337112
0.011662
-0.033824
-0.0328724
-0.0131004
-0.00602612
-0.0322238
-0.0290931
0.0162412
-0.0332633
-0.0205619
-0.00444385
-0.0015776
-0.0288668
-0.0184468
0.0169071
-0.0204676
-0.0208691
-0.00112148
-0.000445018
-0.0169565
-0.0148822
-0.0581171
-0.099754
-0.126061
-0.0401619
-0.0408404
-0.055107
-0.0885776
-0.0505778
-0.126909
-0.110537
-0.0414615
-0.0554627
-0.0919787
-0.0848554
-0.0824551
-0.10069
-0.0682073
-0.0594073
-0.05481
-0.0770518
-0.0413896
-0.0281716
-0.0547278
-0.0181615
-0.0440483
-0.00951078
-0.0279284
-0.00592795
-0.00248893
-0.0113823
-0.00247626
-0.00520635
-0.000755035
-0.00342825
-0.000714078
-0.000154178
-0.00144138
-0.000285579
-0.000381463
-5.53482e-05
-0.000425125
-8.22782e-05
-2.08066e-05
-0.0001665
-2.95908e-05
-2.955e-05
-4.72723e-06
-4.57262e-05
-7.07109e-06
-9.20336e-06
-1.60086e-05
-2.59646e-06
-2.68317e-06
-9.01333e-07
-3.6414e-06
-4.58867e-07
-0.127067
-0.100055
-0.0916007
-0.0809134
-0.096417
-0.0792672
-0.0650206
-0.0939985
-0.0813181
-0.0478701
-0.0956562
-0.0758063
-0.0554126
-0.0285881
-0.0507343
-0.0412304
-0.03467
-0.0628958
-0.025896
-0.0222431
-0.00934776
-0.0155756
-0.0312537
-0.0136893
-0.0175905
-0.00461527
-0.00634483
-0.00154153
-0.00239853
-0.00908462
-0.00221851
-0.00288699
-0.000700591
-0.000949884
-0.000225652
-0.000334702
-0.00127215
-0.000232966
-0.000432088
-8.96425e-05
-0.000137861
-2.94654e-05
-3.68208e-05
-0.000150599
-3.1068e-05
-5.0525e-05
-8.00344e-06
-1.71682e-05
-3.07085e-06
-3.15016e-06
-1.71729e-05
-2.60209e-06
-4.17974e-06
-5.4734e-07
-1.67023e-06
-2.38871e-07
-0.0844406
-0.0848011
-0.069335
-0.0633445
-0.0572176
-0.0618128
-0.034634
-0.0348418
-0.0480185
-0.00845925
-0.047365
-0.01974
-0.0217504
-0.0039284
-0.0251792
-0.00500206
-0.00248052
-0.0146893
-0.00720493
-0.00245967
-0.00107898
-0.0130818
-0.00235918
-0.00195881
-0.00539404
-0.00149681
-0.000907311
-0.000571745
-0.00190566
-0.00170316
-0.000798609
-0.00087063
-0.00015544
-0.000471815
-0.000185411
-0.000163509
-0.000561329
-0.00017519
-8.75755e-05
-1.488e-05
-0.000121333
-2.85145e-05
-1.40914e-05
-0.000117218
-3.17098e-05
-8.09712e-06
-1.28097e-06
-1.74939e-05
-3.96781e-06
-1.23214e-06
-2.00444e-05
-4.84178e-06
-6.82848e-07
-9.79581e-08
-2.48198e-06
-5.76906e-07
-0.0466211
-0.0836862
-0.0181593
-0.0609789
-0.0206213
-0.0556474
-0.0110917
-0.00508874
-0.00902896
-0.0055964
-0.0122586
-0.00270525
-0.00596205
-0.00396101
-0.00304395
-0.00647523
-0.00878162
-0.00193026
-0.00114321
-0.00441747
-0.004257
-0.00193834
-0.00860013
-0.00755977
-0.00100521
-0.000643523
-0.00438468
-0.00437552
-0.000752806
-0.00734483
-0.00452202
-0.000530689
-0.000224157
-0.00458192
-0.00281164
-0.000244239
-0.00401152
-0.00298306
-0.000157428
-5.36285e-05
-0.00251114
-0.00195555
-7.10258e-05
-0.00271917
-0.00130274
-3.92345e-05
-1.30024e-05
-0.00179124
-0.000763575
-1.61119e-05
-0.00103383
-0.000567501
-9.21468e-06
-3.10183e-06
-0.000598768
-0.000336577
-0.0342174
-0.043104
-0.0786073
-0.0124434
-0.0249616
-0.0247147
-0.0530105
-0.047952
-0.081685
-0.0725449
-0.0254055
-0.0256472
-0.054139
-0.0379193
-0.0428372
-0.0643696
-0.0304759
-0.0259552
-0.0171349
-0.0303004
-0.00884875
-0.00659614
-0.0194164
-0.00365581
-0.0112348
-0.00198923
-0.00469002
-0.000784921
-0.000439314
-0.00202769
-0.000343942
-0.0011078
-0.00016124
-0.000448693
-8.57594e-05
-2.07633e-05
-0.0001871
-2.78676e-05
-8.08291e-05
-1.12119e-05
-4.84498e-05
-7.75279e-06
-1.24849e-06
-1.42724e-05
-1.7471e-06
-5.89384e-06
-8.62274e-07
-4.04494e-06
-5.18555e-07
-1.35591e-07
-8.33835e-07
-8.57079e-08
-4.61712e-07
-1.02007e-07