/*--------------------------------*- C++ -*----------------------------------*\
  =========                 |
  \\      /  F ield         | OpenFOAM: The Open Source CFD Toolbox
   \\    /   O peration     | Website:  https://openfoam.org
    \\  /    A nd           | Version:  10
     \\/     M anipulation  |
\*---------------------------------------------------------------------------*/
FoamFile
{
    format      ascii;
    class       volVectorField;
    location    "0.6";
    object      U;
}
// * * * * * * * * * * * * * * * * * * * * * * * * * * * * * * * * * * * * * //

dimensions      [0 1 -1 0 0 0 0];

internalField   nonuniform List<vector> 
12920
(
(232.133 122.216 -98.9858)
(-79.6468 69.6107 10.5996)
(129.513 33.7989 -18.7268)
(6.66607 64.7015 -20.696)
(102.688 63.147 -16.338)
(44.3632 52.3356 -12.8323)
(94.2304 44.1838 -10.9236)
(76.7697 25.7282 -7.66796)
(103.135 19.2168 -6.04259)
(98.1877 9.52583 -4.32535)
(107.363 8.46093 -2.54891)
(98.6338 7.88475 -1.02816)
(87.1851 11.9373 2.18396)
(55.1737 8.49848 1.92139)
(50.3032 3.87207 0.786632)
(40.6241 2.51173 0.255124)
(41.6091 1.19459 0.0382669)
(38.2427 1.00123 0.0179477)
(40.0019 0.396979 0.00449393)
(39.3857 0.409849 0.00224112)
(25.3688 -51.6295 0.254738)
(-110.239 26.2326 -25.0761)
(132.166 29.7361 -8.34241)
(-50.8676 77.5324 2.17511)
(89.7423 56.2999 -0.849736)
(-8.02031 33.2778 2.68135)
(76.1544 14.5576 3.3799)
(20.3878 3.05103 0.482666)
(67.6522 -1.00799 0.931331)
(40.4871 1.36114 0.476804)
(63.74 4.12983 1.75337)
(46.8636 7.75186 1.8527)
(52.7921 9.76738 1.99212)
(41.1167 7.73174 0.95181)
(44.0543 4.16835 0.420425)
(38.3694 2.5641 0.122768)
(40.2624 1.22379 0.0377724)
(37.6453 0.854714 0.0114236)
(39.5782 0.356773 0.00509442)
(39.1874 0.201304 0.00313902)
(165.269 53.9063 153.698)
(-115.166 28.0481 -35.5685)
(117.227 1.22581 -10.0597)
(-59.5336 58.5745 11.2667)
(91.7325 38.8819 10.001)
(-16.3975 43.0576 2.72223)
(73.947 19.4918 -1.68849)
(23.2039 24.7761 -1.3041)
(64.3945 10.8184 -2.06852)
(38.6802 16.3683 -0.655094)
(53.9788 8.26421 0.10233)
(38.6032 13.1062 0.470723)
(46.2443 8.80415 0.651629)
(38.3565 9.73123 0.343656)
(42.6545 4.83885 0.171811)
(37.9263 4.73393 0.0614102)
(40.0302 2.11725 0.017957)
(37.5088 2.1704 0.0072576)
(39.5037 0.730599 0.00149353)
(39.0518 0.825117 0.00170904)
(51.1866 48.6975 3.67504)
(-41.5657 57.5549 -18.4397)
(115.648 22.9178 13.1892)
(-49.7846 74.8745 16.2247)
(75.4473 37.4219 9.95166)
(-48.3059 44.7599 1.32295)
(68.965 22.3534 -1.36682)
(-0.200681 24.7561 0.168844)
(54.0323 13.1083 -0.07752)
(18.8833 17.8972 0.355624)
(43.8321 10.5011 0.392838)
(27.6325 12.335 0.291795)
(39.7101 8.12019 0.18824)
(33.5378 7.86673 0.0926001)
(38.6323 4.42994 0.0436763)
(35.6669 3.9711 0.016914)
(37.7895 2.07307 0.00564302)
(36.3628 1.86658 0.00205637)
(38.2927 0.725835 0.00195236)
(38.3227 0.629531 0.00256215)
(76.872 213.174 -10.7373)
(-120.006 43.4306 2.49167)
(59.1758 4.40016 16.8433)
(-104.8 40.2484 12.316)
(75.1045 3.50719 6.70066)
(-61.58 36.566 0.550679)
(74.664 -1.41201 0.033087)
(9.95521 31.2857 0.274172)
(58.1954 -1.68945 -0.412352)
(26.9248 22.6237 0.0181233)
(44.2398 1.54895 -0.024505)
(30.3364 14.9522 0.018731)
(39.9501 3.5004 0.0151915)
(33.2647 9.4073 0.0119346)
(38.5233 3.23767 0.00448627)
(35.2474 5.01586 0.00382736)
(37.8343 1.79059 -0.000445064)
(36.0882 2.39523 0.00117024)
(38.2498 0.57954 -0.000383432)
(38.0411 0.848835 0.00136738)
(-36.4759 -19.0677 158.104)
(-121.307 55.9559 34.5894)
(-6.54274 40.2227 -0.442351)
(-90.5255 46.4892 -2.75476)
(64.5236 16.9026 -1.57203)
(-72.7206 32.9115 -3.57898)
(79.9024 -32.6563 -1.9495)
(4.28907 28.3302 1.00702)
(41.1902 2.98784 0.994568)
(19.3998 27.5206 0.234299)
(30.9849 9.03886 0.126675)
(26.9812 14.3355 0.0440397)
(32.5546 6.20983 0.0180364)
(32.2826 7.90569 0.0107825)
(33.7648 3.14091 0.00777187)
(33.9976 3.98117 0.00547916)
(35.1176 1.7778 0.00222696)
(35.2066 2.01323 0.00159739)
(36.8107 0.687516 -0.000242349)
(37.2507 0.751795 0.000417715)
(18.0345 -87.4931 50.6028)
(-145.98 -6.26246 7.30121)
(-45.8984 -5.27725 4.31797)
(-123.4 6.69175 -8.11302)
(68.4421 9.56547 -6.43375)
(-56.4141 29.7464 -5.01878)
(51.4623 -62.7312 -8.05654)
(-34.5454 56.2074 1.28446)
(9.56686 -24.2984 0.795331)
(-0.305148 28.771 0.0576281)
(19.1208 -8.0728 0.0934285)
(18.0004 12.4354 -0.0581769)
(30.5968 -2.26011 -0.0556397)
(27.591 7.86402 -0.0242497)
(33.7425 1.80203 -0.0149257)
(33.2309 3.18325 -0.00862382)
(35.6349 0.908855 -0.00266489)
(34.8227 1.50765 0.000294648)
(36.891 0.210232 0.00103702)
(36.8717 0.4714 0.0020116)
(349.529 183.244 31.8535)
(200.813 65.6941 47.6361)
(127.177 20.216 74.9576)
(-73.5592 -15.4619 0.798875)
(125.091 15.8329 -4.80993)
(5.28799 71.4679 -1.55843)
(53.909 2.1795 -0.738394)
(-26.4018 63.7001 2.04386)
(-3.14201 -29.0985 1.66713)
(-5.74299 11.2493 -0.969563)
(22.2341 -1.89324 -0.0112558)
(19.1568 -4.7184 0.0542972)
(30.8882 4.60154 -0.0409321)
(26.8637 0.540052 -0.0342748)
(31.9774 -1.54725 -0.00406024)
(34.4304 1.72014 -0.0121335)
(34.1204 0.442643 -0.0109801)
(34.7293 1.43802 -0.00731786)
(35.8827 0.429456 -0.0040249)
(36.3065 0.610256 -0.00120825)
(197.614 -194.104 140.517)
(9.37073 -26.7693 40.0424)
(69.8812 64.6989 22.1277)
(-80.7287 -0.21656 -17.3838)
(51.3756 -26.4262 -6.17034)
(-9.39982 68.0267 1.22352)
(14.4253 40.0414 1.6477)
(-11.4696 25.417 -1.92645)
(47.2989 -26.2443 2.03278)
(16.1946 -10.626 -1.17156)
(33.3017 -1.92889 -0.203019)
(26.8965 -2.83357 -0.110713)
(31.2153 1.22966 -0.0589)
(29.6269 0.588644 -0.0650344)
(34.5951 1.04457 -0.0134784)
(32.8427 0.172464 -0.0157428)
(33.166 0.884339 -0.005803)
(32.8746 0.470857 -0.00710636)
(34.7307 0.297728 -0.00972444)
(35.3601 0.0513009 -0.00467703)
(369.793 -170.054 -25.3004)
(21.2737 46.9095 -3.71637)
(160.526 65.9389 -2.10438)
(84.9672 34.7608 -18.2677)
(119.011 13.1368 -4.21049)
(19.5258 22.8012 -0.973646)
(64.5871 32.3293 0.810307)
(68.1508 -10.4245 2.8134)
(45.4541 -18.8136 -1.22914)
(34.2336 -7.11961 -0.336926)
(34.0247 -1.63125 -0.336493)
(32.214 -0.326556 -0.0904718)
(31.2778 0.793806 -0.0648259)
(31.1195 1.00828 -0.0687877)
(33.0035 0.718833 -0.0186408)
(32.8043 1.46396 -0.0194504)
(33.1094 0.266006 -0.00822024)
(33.2675 0.707279 -0.00773953)
(34.738 -0.252223 -0.00462128)
(35.1932 -0.0861023 -0.00045329)
(95.3794 87.3587 147.531)
(-43.6554 19.1218 45.1641)
(104.501 45.7824 23.2518)
(75.6591 54.9717 -5.92281)
(131.18 59.1021 -6.55207)
(69.8356 40.9896 5.62321)
(46.7512 -5.88389 4.51274)
(55.1226 -25.3566 -0.104823)
(55.3731 -21.2572 0.164348)
(43.7737 -0.059691 0.501659)
(36.4332 1.71588 -0.46708)
(34.1553 1.96409 -0.134854)
(32.9792 1.55268 -0.0246303)
(32.3664 1.19894 -0.0562726)
(33.3514 0.917718 -0.0102416)
(32.8394 -0.164976 -0.0137768)
(32.9028 0.670303 -0.00355339)
(32.9208 -0.282064 -0.00247184)
(34.3504 0.0819294 -0.00328915)
(34.7311 -0.477648 -0.000430135)
(138.996 79.4818 184.653)
(104.418 2.28247 21.8805)
(177.169 14.1489 9.15773)
(115.089 43.3606 0.629305)
(134.563 76.5019 9.05151)
(54.7947 42.9254 9.11605)
(55.6507 -16.1447 1.39073)
(46.6226 0.211985 -0.422442)
(43.9781 4.19221 -0.72201)
(36.1272 6.72719 -0.39625)
(33.5755 9.31142 0.0985068)
(31.1986 5.42557 -0.0488183)
(31.0739 2.47591 -0.022736)
(30.9431 1.06414 0.00375982)
(33.1625 0.823915 -0.0188616)
(32.1568 1.27713 -0.0159658)
(32.749 0.441629 -0.0100499)
(32.4117 0.193934 -0.00973584)
(34.1876 -0.269508 -0.0084758)
(34.4803 -0.55468 -0.00371722)
(58.7201 42.7384 65.263)
(7.2637 -45.3543 -35.8578)
(101.091 -23.3531 12.0295)
(-2.52643 17.1701 10.6334)
(96.8287 69.7656 11.8437)
(6.37611 -3.73818 2.05711)
(50.9053 24.8611 -1.36734)
(18.9027 20.9139 -0.932805)
(42.3069 15.5101 0.0557578)
(17.82 10.512 0.831295)
(31.959 6.08865 0.0955272)
(23.0367 3.91574 -0.0869051)
(33.9319 1.64184 -0.10993)
(28.8721 0.690723 -0.0864093)
(31.2917 2.98145 -0.0149728)
(33.4863 -0.00794668 -0.0150033)
(33.1908 0.616515 -0.0100989)
(33.3648 -0.635467 -0.00631001)
(34.5858 -0.188031 -0.00434823)
(34.6569 -0.916986 0.000224029)
(254.881 409.372 -185.674)
(13.1607 36.227 -36.2558)
(171.154 -61.3817 -4.11286)
(86.5048 -33.8105 9.15198)
(111.568 12.9628 16.2995)
(57.3652 15.8362 1.68745)
(69.152 61.4638 -0.533134)
(39.4548 9.98501 -4.68907)
(42.0804 35.375 -5.2432)
(33.8598 4.22288 -6.14078)
(38.7204 15.8366 -4.45996)
(34.6881 -4.22421 -2.13879)
(37.4546 5.22875 -0.564217)
(32.7895 -4.31019 0.10025)
(34.6797 2.06166 0.159282)
(33.4683 -0.673651 0.0789807)
(34.6412 1.18898 0.0358075)
(33.3835 -0.529572 0.0139819)
(35.0656 0.206817 0.00729716)
(34.5487 -0.796321 0.00487972)
(277.954 163.436 -14.5313)
(329.452 32.8745 -14.7982)
(289.097 -18.9783 28.2077)
(111.061 10.0799 33.4473)
(89.8294 34.5828 17.4897)
(13.7082 25.2662 -1.91101)
(68.4776 54.3311 -3.6503)
(38.2258 32.2118 -6.16504)
(59.8587 43.193 -7.16315)
(53.4502 27.0086 -6.97036)
(62.0019 24.9966 -3.31324)
(51.9283 5.45246 -0.108053)
(44.4422 5.01355 1.05377)
(35.7865 -3.3241 0.471739)
(35.2815 1.77431 0.0900122)
(33.0438 -0.937147 0.0432342)
(33.999 1.06431 0.0129639)
(32.9171 -0.588064 0.00436028)
(34.538 0.336381 0.00137461)
(34.0931 -0.790448 0.00259194)
(286.012 -85.7879 -303.117)
(147.959 -120.325 -28.4733)
(251.356 -88.8152 -15.8693)
(161.056 -24.5239 5.67578)
(115.684 49.0686 18.207)
(48.805 42.3896 2.93287)
(78.4665 57.9783 0.615318)
(60.5434 39.4998 -1.32627)
(78.1857 47.5419 -0.341532)
(68.4511 23.9058 1.32676)
(73.0804 24.4688 2.68995)
(56.7928 5.6897 2.45964)
(51.2292 10.8269 1.86367)
(37.3858 -0.338854 0.602412)
(38.1742 3.92885 0.248785)
(32.8965 -0.607285 0.081333)
(35.0107 1.73115 0.0309434)
(32.624 -0.541978 0.00974851)
(34.831 0.649727 0.00356284)
(34.0238 -0.689789 0.00341124)
(103.062 -285.687 -57.1484)
(32.4059 -68.4992 -35.5627)
(112.106 66.192 -26.7041)
(55.6431 90.4009 -21.035)
(90.1053 86.5024 0.351523)
(46.313 54.9908 2.67741)
(72.0143 50.1656 7.20085)
(48.5344 28.7604 4.46108)
(71.1136 31.451 6.35223)
(47.1366 10.6048 5.06691)
(56.5718 16.0392 4.64649)
(33.8344 4.72283 2.60692)
(41.3459 9.96921 1.46798)
(30.1877 1.819 0.510841)
(35.8781 4.2942 0.176332)
(30.7798 0.363777 0.0535577)
(34.1477 1.72121 0.0164792)
(31.7533 -0.202327 0.00455373)
(34.2579 0.667831 0.000621334)
(33.4595 -0.535473 0.00379808)
(99.9601 -153.877 -73.0165)
(-53.8466 -12.2776 -26.4065)
(102.839 91.5422 -23.5808)
(88.4772 102.602 -6.3745)
(101.166 85.2741 13.7245)
(44.388 43.5436 8.99468)
(67.8848 26.0601 8.1964)
(25.4583 0.896103 2.80339)
(52.0234 10.8321 2.56726)
(19.83 -2.31414 1.15016)
(41.7479 10.1395 0.661821)
(22.522 0.597013 0.250584)
(37.9581 6.7074 0.168832)
(27.4441 0.200412 0.0550884)
(35.915 3.16791 0.0309613)
(30.068 -0.181928 0.0131682)
(34.4866 1.36441 0.00631859)
(31.5234 -0.310889 0.00346091)
(34.4343 0.610352 0.000167423)
(33.4557 -0.445756 0.00318993)
(-5.19077 -115.284 -99.4723)
(-128.68 -39.3332 -46.0961)
(98.27 82.4171 -20.5616)
(2.78225 81.7885 12.2231)
(45.0375 43.3358 21.8301)
(-48.5676 21.282 3.85397)
(43.1603 21.9802 1.70949)
(-24.7099 9.4595 -1.08678)
(39.9421 17.1169 -1.34679)
(-1.56294 4.49666 -1.2215)
(37.2256 9.76803 -0.733662)
(15.4362 2.76989 -0.325957)
(36.161 5.397 -0.144966)
(24.5966 1.34011 -0.0463122)
(35.0712 2.54141 -0.0190664)
(28.8192 0.476807 -0.00467699)
(34.0659 1.07174 -0.00177538)
(30.9699 0.0511813 0.00039487)
(34.1598 0.433058 0.000300516)
(33.1583 -0.219647 0.00328628)
(216.942 465.093 -74.5821)
(-18.7883 107.383 -5.04622)
(117.766 41.1096 7.98155)
(45.3582 52.2902 22.6927)
(89.393 32.9783 22.2232)
(24.8582 6.03074 9.35792)
(46.0005 -10.1023 5.43163)
(-12.7803 -3.04484 0.83492)
(39.1362 -3.33941 0.0815947)
(2.58572 -1.37748 0.0558113)
(37.1547 -0.00574128 -0.0757007)
(16.0683 -0.674709 -0.00893907)
(36.1786 0.495278 -0.0128418)
(24.3281 -0.461475 0.00220327)
(35.0667 0.312793 -0.00138867)
(28.4846 -0.299172 0.000663046)
(33.9766 0.163433 -0.00126022)
(30.6822 -0.188721 0.000164846)
(34.0092 0.126689 0.00193158)
(32.9543 -0.11382 0.00468589)
(87.1085 -47.0063 -157.212)
(-146.23 -45.6626 -42.2075)
(144.352 -26.4578 -18.878)
(1.56481 16.1072 -35.756)
(110.454 15.0819 -39.5883)
(48.4527 22.9593 -23.898)
(93.3206 28.9261 -21.1473)
(66.1306 14.4194 -10.8369)
(90.9445 8.46684 -7.13433)
(79.7986 -3.50254 -3.53725)
(91.3876 -2.78832 -1.25245)
(80.6169 -0.987732 1.72641)
(74.3204 8.67332 7.23214)
(51.8821 7.73745 5.71571)
(49.492 3.86058 2.20414)
(40.9605 2.60688 0.843739)
(41.9099 1.25752 0.180272)
(38.6199 1.02207 0.072994)
(40.3621 0.409102 0.0205735)
(39.748 0.414149 0.00760041)
(99.1617 -98.8825 158.767)
(-113.349 -28.5155 -20.7091)
(41.2995 -5.79182 -1.62474)
(-97.7219 37.2417 4.5243)
(73.5964 17.4403 -0.327174)
(-49.8796 9.39827 1.26994)
(75.2378 1.39125 -0.553955)
(0.877643 -2.65478 0.0141187)
(60.8416 -3.48368 -2.83701)
(23.3515 1.16055 -3.66372)
(52.4526 3.05719 -2.80789)
(34.6195 6.23773 -0.538635)
(47.4128 8.29083 2.15009)
(38.8667 6.86608 1.52782)
(43.6454 3.79573 0.663295)
(38.4864 2.45437 0.223503)
(40.5398 1.21776 0.0696556)
(37.9844 0.852834 0.0233794)
(39.9146 0.357748 0.0093779)
(39.5394 0.200849 0.00561647)
(362.594 -63.23 65.1097)
(162.638 -49.4709 44.2375)
(119.334 -23.8685 0.928328)
(-65.549 28.1868 -6.00718)
(97.4136 11.3782 -13.7363)
(-9.88486 28.4832 -4.97424)
(75.4446 11.1742 -14.0236)
(24.8047 20.9939 -6.61812)
(63.8568 8.23523 -7.69551)
(35.8421 15.1138 -3.29284)
(52.0654 6.8519 -1.48769)
(36.4208 11.9098 -0.0378401)
(45.5552 7.93975 0.785171)
(38.1863 9.37656 0.554352)
(42.8203 4.72751 0.292043)
(38.2334 4.7191 0.114382)
(40.3577 2.13212 0.0353653)
(37.8677 2.17906 0.013971)
(39.8532 0.742412 0.0045116)
(39.4037 0.82793 0.00317516)
(140.504 65.0944 -42.7007)
(-57.763 45.9179 -9.35476)
(68.7395 30.255 -9.91512)
(-74.0156 59.3903 -0.967871)
(77.9891 19.8232 0.934768)
(-51.7915 36.6865 -0.722949)
(68.801 16.3494 -7.40898)
(-1.31509 22.2673 0.461722)
(53.7981 12.6792 -0.670666)
(18.8207 17.849 -0.0811969)
(44.0684 10.5306 -0.181378)
(28.2475 12.3795 -0.0394584)
(40.0557 8.05634 0.0948586)
(33.8899 7.85381 0.0844428)
(38.9334 4.43071 0.0524401)
(35.9995 3.97825 0.023417)
(38.1109 2.08627 0.00886905)
(36.7055 1.87216 0.00310753)
(38.6251 0.73239 0.00303725)
(38.6686 0.630196 0.00340295)
(74.3633 214.313 -13.0187)
(-169.77 7.37447 3.42171)
(28.5195 -11.1216 -22.2734)
(-116.965 11.4661 -6.01391)
(80.2281 -21.5513 -8.57996)
(-62.8907 25.4301 2.09605)
(74.7286 -12.0038 -3.69745)
(9.72174 28.0852 1.26256)
(57.9371 -1.87602 -0.200193)
(27.1728 22.7808 0.419293)
(44.4545 1.87792 0.20388)
(30.7227 15.0693 0.121465)
(40.2571 3.62949 0.0991281)
(33.6284 9.43654 0.0578842)
(38.8419 3.28391 0.0308503)
(35.605 5.02703 0.0148466)
(38.1699 1.81063 0.00394309)
(36.4453 2.39903 0.00239295)
(38.5965 0.588055 0.000732299)
(38.3916 0.847308 0.0015037)
(14.3233 -59.1838 -5.61204)
(-65.4095 43.6998 -40.2424)
(28.2563 16.591 -3.62854)
(-97.8503 26.6954 -18.8164)
(83.0045 1.33329 -10.0576)
(-67.9127 23.522 -3.70765)
(73.6984 -39.3378 -5.21832)
(-2.45413 26.5505 2.15536)
(39.8051 1.38519 2.39887)
(18.9872 27.4566 0.848492)
(31.1297 9.17261 0.466341)
(27.2549 14.4051 0.143971)
(32.8248 6.27776 0.0714313)
(32.5834 7.92963 0.0285172)
(34.0678 3.17123 0.0141212)
(34.3165 3.98734 0.00608992)
(35.4357 1.78962 0.00161867)
(35.5408 2.01449 0.000731099)
(37.1427 0.693078 -0.000168624)
(37.5834 0.750624 0.000446748)
(69.9744 163.169 -111.562)
(-131.866 10.8604 -1.53765)
(14.4808 -9.63139 12.4844)
(-105.664 -27.6432 -21.8631)
(82.4856 -21.9015 -10.8938)
(-39.3642 24.4298 -5.21169)
(35.9565 -61.8018 -17.6941)
(-40.0035 58.4975 1.22876)
(9.63783 -25.4543 0.694753)
(-0.522762 28.3007 0.122502)
(19.3389 -8.08959 0.307087)
(18.387 12.42 0.0021611)
(30.9031 -2.17412 0.00729428)
(27.9777 7.85966 -0.00114297)
(34.0628 1.85793 0.0053028)
(33.5653 3.20119 0.00187887)
(35.9587 0.925584 0.000423356)
(35.1661 1.50628 0.00105972)
(37.2311 0.211644 0.00120457)
(37.2144 0.465936 0.0017785)
(92.5591 -44.1617 -1.77173)
(-118.057 33.3842 29.848)
(141.647 20.5452 32.4436)
(8.05739 -12.1004 -5.46944)
(91.5759 -23.3469 -7.32063)
(-29.0155 62.4188 -2.18312)
(25.0802 -31.4832 -3.20593)
(-31.3471 64.0874 -0.477429)
(-0.286197 -26.6523 0.183499)
(-4.99896 9.55844 -0.146672)
(22.9064 -1.48701 0.167449)
(20.1522 -5.50619 -0.064073)
(31.6361 4.25219 0.0704823)
(27.841 0.504909 -0.010917)
(32.3614 -1.58906 0.0330062)
(34.7896 1.66909 0.0122817)
(34.4886 0.425409 0.00289225)
(35.0838 1.42759 0.00100713)
(36.2258 0.432742 0.00143801)
(36.644 0.612927 0.00124312)
(101.337 -73.1281 -19.9842)
(-151.664 -10.4531 11.9789)
(134.304 56.0297 11.18)
(-15.8208 3.92738 -4.77278)
(30.9084 -21.0684 2.00492)
(-35.7312 68.9087 1.47015)
(-11.093 18.5962 -2.28614)
(-15.2135 32.0816 -11.0006)
(51.6454 3.11324 -2.99945)
(50.8887 -11.7087 -1.27382)
(38.8037 -3.57614 0.438)
(30.2085 -3.81615 0.0411877)
(33.2286 0.587143 0.0745933)
(31.7221 0.237964 0.0341371)
(35.398 0.989949 0.0496932)
(33.2485 0.154692 0.0331267)
(33.5571 0.861038 0.0160278)
(33.2677 0.455525 0.00846809)
(35.1034 0.286309 -3.90322e-05)
(35.708 0.0427108 -6.37204e-05)
(327.468 134.409 74.9819)
(8.61326 112.657 38.8398)
(181.35 83.8649 0.970207)
(87.8023 39.1348 1.06119)
(108.941 12.6911 -6.3446)
(54.3261 16.8304 7.75205)
(76.4199 20.391 15.7312)
(77.6834 -5.92265 13.4215)
(52.5745 -12.0944 7.43882)
(41.0957 -4.68375 1.57769)
(38.9059 -2.16364 0.417404)
(34.9909 -0.723533 0.141869)
(33.2456 0.605753 0.124327)
(32.7979 0.855151 -0.00661467)
(33.8577 0.662132 0.0597417)
(33.2145 1.41858 0.0431348)
(33.4904 0.233555 0.01658)
(33.6393 0.678536 0.00903797)
(35.0977 -0.260866 0.00617986)
(35.5542 -0.0889047 0.00476109)
(96.1154 129.904 -35.602)
(-181.354 62.4164 -25.6045)
(121.558 59.129 -37.3596)
(63.1377 37.9835 -17.4275)
(118.498 29.3274 -11.1756)
(89.7206 26.9288 -4.73883)
(87.3283 22.7911 6.0649)
(76.0944 -9.90539 3.38801)
(57.2711 -12.4195 0.748983)
(50.0042 -2.97216 2.38908)
(41.4444 -0.815158 0.00374202)
(36.4719 1.39047 0.0925726)
(34.8338 1.278 -0.00470657)
(34.2555 0.908636 -0.0898465)
(34.0755 0.820536 -0.00362119)
(33.2674 -0.158214 0.0490688)
(33.297 0.66127 0.0230379)
(33.3048 -0.288016 0.0141498)
(34.722 0.0681626 0.00593514)
(35.0974 -0.490857 0.00362012)
(146.86 48.2813 -92.9585)
(-59.9944 84.5953 -0.716029)
(146.077 56.2392 18.8071)
(78.8506 55.563 15.2925)
(116.766 65.4838 16.3406)
(73.1892 46.2791 15.18)
(68.7933 10.5096 17.6442)
(53.0051 4.88031 -5.01923)
(46.4371 4.33998 -6.10587)
(40.9813 4.86033 -2.94319)
(38.3138 6.85084 -1.60503)
(33.6421 5.35022 -0.163388)
(32.9798 2.44264 0.0126293)
(32.8276 0.983147 0.0425346)
(33.9647 0.726234 0.0437812)
(32.6232 1.27055 0.0432793)
(33.1761 0.435846 0.0188306)
(32.8117 0.18754 0.00782898)
(34.56 -0.274824 0.00126947)
(34.8272 -0.55926 0.000752866)
(86.6059 -20.0591 -90.5775)
(-162.297 57.1976 9.5656)
(70.8785 14.2435 20.1456)
(-58.9869 40.9025 16.9017)
(95.92 78.0576 16.4741)
(-11.1063 -6.28464 8.57358)
(48.3251 34.7882 6.28154)
(12.9967 28.214 -5.38904)
(39.9308 17.0487 -2.17178)
(17.3489 10.6774 -0.678792)
(32.8715 5.33681 -0.740513)
(24.239 3.554 -0.25859)
(34.7637 1.54745 0.0170039)
(29.7464 0.593387 0.0657005)
(31.7117 2.9556 0.0714632)
(33.8702 -0.00296057 0.0274893)
(33.5786 0.609414 0.0107905)
(33.7372 -0.641531 0.004069)
(34.9433 -0.202482 0.000550407)
(35.015 -0.929039 0.00260332)
(-71.1721 109.793 -137.887)
(-157.638 5.38803 15.0242)
(62.8945 -23.5511 -1.06831)
(-45.9441 9.51957 11.2818)
(92.7128 36.0371 19.0914)
(37.7425 24.4002 -3.00064)
(64.8472 66.6164 -1.22723)
(38.3791 7.5629 -2.75415)
(43.7222 32.7135 -2.56206)
(34.7595 -1.58913 -3.45125)
(38.1673 11.2431 -1.75448)
(32.0881 -7.70582 -0.770904)
(35.8898 4.3171 0.466659)
(32.043 -4.58379 0.453933)
(34.5334 1.9624 0.337122)
(33.6375 -0.706072 0.129884)
(34.9432 1.16059 0.055618)
(33.7467 -0.540402 0.0195872)
(35.4415 0.192046 0.0106302)
(34.9383 -0.803364 0.00637181)
(104.276 82.6311 16.6387)
(11.8736 37.4407 53.578)
(122.245 -8.25519 64.5475)
(-11.2935 25.6602 26.9008)
(72.3962 37.1159 12.3292)
(8.56184 15.7466 -5.62017)
(68.7069 43.0801 -1.31041)
(42.8358 8.89339 -4.80763)
(65.0378 16.3251 -2.52009)
(54.9 -2.76796 -2.46003)
(56.0248 1.87981 0.763037)
(45.1547 -6.80803 2.25564)
(42.1499 -0.158711 3.11797)
(36.2152 -3.97463 1.40785)
(35.624 1.60199 0.460408)
(33.4691 -0.974819 0.154352)
(34.3995 1.03899 0.0482863)
(33.328 -0.593987 0.01262)
(34.9358 0.32333 0.00498762)
(34.4932 -0.794087 0.00477867)
(129.294 32.637 -1.08747)
(81.7536 8.47771 27.9489)
(98.1898 37.1913 20.2793)
(8.09501 56.2963 6.1505)
(70.0828 50.1734 12.0269)
(32.9739 21.3244 -5.01277)
(79.8762 31.8826 -0.0673815)
(67.5977 10.4923 -0.548561)
(85.1135 22.0173 4.10603)
(71.9879 4.09885 5.32923)
(72.607 11.8236 6.76604)
(53.1996 -0.913202 5.45933)
(49.4538 7.5188 4.52051)
(36.8878 -1.12596 1.87855)
(38.2646 3.77904 0.850502)
(33.1849 -0.630961 0.26389)
(35.3694 1.7161 0.0935487)
(33.0244 -0.539646 0.026649)
(35.22 0.639883 0.0102914)
(34.4193 -0.690494 0.00596573)
(143.377 -215.914 28.7813)
(-82.1151 28.3452 -47.609)
(35.7424 71.6504 -38.747)
(-87.8032 53.5221 -30.3873)
(40.2195 49.1021 -7.20677)
(-15.8938 14.7554 0.27297)
(58.6688 26.5629 10.1135)
(25.2288 3.32075 7.51607)
(61.2163 13.4669 12.0816)
(32.3343 -0.598615 9.12578)
(49.6217 11.965 7.91451)
(29.0203 3.51306 4.52111)
(39.9499 9.59388 2.36387)
(29.8392 1.81274 0.915125)
(36.0562 4.29337 0.292306)
(31.1287 0.379881 0.0922089)
(34.5261 1.71462 0.0247223)
(32.1645 -0.198433 0.00664031)
(34.6495 0.660343 0.00191793)
(33.8587 -0.534734 0.00474216)
(147.924 138.236 -181.541)
(-116.835 98.4451 -5.5823)
(37.4916 88.6137 -17.4411)
(-86.5509 52.9446 5.05973)
(63.4631 41.4045 23.7759)
(-1.20091 13.5374 13.9626)
(58.095 11.0491 13.4652)
(14.1441 -1.11443 7.89312)
(47.9131 14.409 7.20151)
(15.2899 2.19781 3.76287)
(39.7796 13.1379 2.06473)
(21.4429 2.00198 1.03445)
(37.7206 7.23119 0.551665)
(27.5671 0.424669 0.233838)
(36.1868 3.23215 0.100238)
(30.4373 -0.145437 0.0390556)
(34.8557 1.36775 0.0150542)
(31.9291 -0.302545 0.00642968)
(34.8234 0.606962 0.00254253)
(33.8508 -0.443225 0.00391783)
(31.4126 19.6037 -166.981)
(-147.614 -4.19817 -54.4194)
(2.7933 54.9642 -13.0523)
(-112.999 23.2997 17.2392)
(27.9807 5.21392 22.9333)
(-64.7163 13.5232 10.0975)
(42.8596 20.1224 5.66301)
(-25.6996 8.60793 1.52035)
(39.5518 17.2277 0.56246)
(-1.18158 4.48975 -0.304786)
(37.4147 10.1004 -0.133786)
(15.9413 2.91216 -0.0341612)
(36.4891 5.44383 -0.00107622)
(25.0311 1.37746 0.0182825)
(35.4306 2.54459 0.00498115)
(29.2276 0.486141 0.0049439)
(34.4436 1.06945 0.00130308)
(31.3761 0.0535135 0.00152733)
(34.5474 0.432156 0.00149482)
(33.5562 -0.21855 0.00393826)
(-9.8445 130.555 -140.074)
(-99.6576 23.2957 35.0414)
(90.0034 22.0203 32.9486)
(20.9554 37.7264 31.9493)
(86.5418 18.463 21.9401)
(13.2996 -9.59531 15.5023)
(47.9376 -16.1782 16.8418)
(-10.0892 -5.17403 1.91602)
(39.7319 -3.78154 1.08431)
(3.53371 -1.37842 0.166461)
(37.478 -0.0397661 0.0750644)
(16.58 -0.649679 0.0478368)
(36.5138 0.504203 0.035902)
(24.7603 -0.446985 0.0259996)
(35.4317 0.317081 0.0111282)
(28.9069 -0.293069 0.00670512)
(34.3631 0.163374 0.00134259)
(31.0891 -0.186616 0.00140283)
(34.3963 0.126731 0.00319877)
(33.3664 -0.112348 0.00559652)
(149.915 -134.128 29.1745)
(-150.019 -59.1642 6.35554)
(168.145 -63.8814 -53.9644)
(69.2403 -26.855 -39.2503)
(132.706 -20.1594 -42.2365)
(89.5963 -8.19735 -25.933)
(110.789 13.6902 -25.9397)
(71.8814 16.6845 -15.0751)
(84.5749 21.6199 -11.0445)
(61.0762 12.262 -5.41432)
(69.2807 11.7872 -1.55226)
(51.6194 9.13457 2.79375)
(53.9612 9.35621 7.45486)
(44.5699 6.89631 5.4123)
(46.6036 3.9507 2.47369)
(40.3935 2.59579 0.917992)
(41.6561 1.2417 0.222594)
(38.5607 1.00963 0.0810891)
(40.3403 0.405372 0.0248911)
(39.7447 0.41335 0.00797454)
(253.058 -110.225 82.4571)
(-182.211 -40.0071 16.7496)
(79.2228 -37.9146 -14.8547)
(-101.768 12.0749 -18.6459)
(86.8493 2.0524 -16.6256)
(-41.5029 4.52138 -3.15414)
(74.5121 4.166 -5.42973)
(3.78181 1.8074 0.411629)
(61.1672 2.02537 -5.40791)
(24.5478 4.6752 -5.59185)
(51.6179 5.27781 -5.11483)
(32.1801 6.84284 -2.02526)
(45.1284 7.1 1.29646)
(37.6359 5.86504 1.28423)
(43.2059 3.36052 0.62289)
(38.3495 2.29478 0.235881)
(40.4993 1.19313 0.0820589)
(37.9727 0.841476 0.0278848)
(39.9097 0.354788 0.0109924)
(39.5369 0.200039 0.00440925)
(331.521 -175.568 78.8491)
(83.6494 -50.5195 57.7832)
(144.593 -61.0949 58.3471)
(17.5924 -16.7842 9.49042)
(100.442 -17.4442 -7.5655)
(30.7217 7.35397 -4.52725)
(81.3439 0.547159 -17.767)
(31.6672 14.5748 -9.92502)
(64.025 6.04564 -10.8627)
(35.5363 14.9717 -4.12609)
(51.414 8.06047 -2.03758)
(35.8056 12.8265 -0.207467)
(45.1592 7.97519 0.700448)
(37.8984 9.15189 0.555316)
(42.6813 4.62061 0.30287)
(38.1662 4.67534 0.126474)
(40.3328 2.11676 0.0438589)
(37.8598 2.17329 0.0167549)
(39.8504 0.74068 0.00622561)
(39.4027 0.827195 0.00300236)
(185.54 -10.7489 -157.831)
(152.488 0.258345 -28.8595)
(106.176 -4.08447 24.8354)
(-60.7174 44.2523 12.6467)
(84.3755 3.31829 13.4898)
(-40.3756 25.1188 1.83394)
(64.8026 11.9522 -9.76844)
(-9.30556 18.7717 0.498644)
(51.7805 10.1464 -2.29956)
(17.0214 16.7206 -0.114917)
(43.5633 10.0378 -0.291997)
(28.0739 12.1381 -0.00898404)
(40.1215 7.81806 0.176539)
(33.8819 7.69764 0.135686)
(38.929 4.36046 0.0858223)
(35.9922 3.95054 0.0372278)
(38.1076 2.07771 0.0157338)
(36.7043 1.86894 0.00530481)
(38.6248 0.731478 0.00319387)
(38.6679 0.629655 0.00198404)
(189.833 49.0287 -43.38)
(56.122 29.948 6.19314)
(80.5099 -6.67544 22.1893)
(-88.4641 -11.4234 1.28195)
(69.6772 -28.8035 -0.986776)
(-64.0333 14.1372 5.86251)
(73.3316 -20.556 -3.49039)
(8.18659 21.4443 1.70694)
(56.6149 -6.28849 -0.579112)
(26.4496 20.9021 0.277621)
(44.1243 1.04009 0.0652392)
(30.5881 14.7882 0.104793)
(40.2139 3.49026 0.0962197)
(33.5996 9.37804 0.0612895)
(38.8279 3.2571 0.0339083)
(35.5964 5.01646 0.0152695)
(38.1664 1.80643 0.00512928)
(36.444 2.39753 0.00210999)
(38.5959 0.587423 0.000555039)
(38.3915 0.846952 0.000543092)
(306.232 58.286 -21.0616)
(88.0695 69.5306 -5.46448)
(104.538 33.9176 26.7206)
(-82.8182 12.8651 -10.3438)
(85.1865 -4.04939 -12.8529)
(-69.6471 15.5355 -3.02362)
(74.2602 -37.8976 -8.59565)
(-5.98145 22.3812 0.293806)
(38.3987 -0.783008 2.19005)
(17.7902 26.4358 0.938697)
(30.7601 8.77875 0.548525)
(27.0719 14.2561 0.224656)
(32.7711 6.23014 0.102244)
(32.5572 7.91053 0.0467264)
(34.0591 3.1664 0.0213262)
(34.3134 3.98664 0.00840281)
(35.435 1.78892 0.00245522)
(35.5407 2.01411 0.0006967)
(37.1433 0.692663 0.000169484)
(37.583 0.75044 0.000108239)
(92.6725 84.43 97.2773)
(-85.8953 62.3222 20.8132)
(91.4073 2.01266 9.88528)
(-71.1392 -33.535 -23.7744)
(83.4984 -30.893 -15.0123)
(-21.2997 16.3837 -2.78475)
(34.4782 -58.6965 -23.2893)
(-41.2448 57.8297 -2.45833)
(10.3162 -26.4209 -0.368543)
(-1.23796 28.2196 0.43606)
(19.305 -8.19863 0.318323)
(18.2621 12.4415 0.105955)
(30.8695 -2.17601 0.0759207)
(27.95 7.8663 0.0270978)
(34.0537 1.85057 0.0211786)
(33.5571 3.19685 0.0094168)
(35.9542 0.922104 0.003305)
(35.1638 1.50477 0.000883005)
(37.2288 0.211355 0.000180427)
(37.2126 0.466085 0.000201024)
(72.3332 -138.103 15.1464)
(-51.2106 1.62783 32.3234)
(162.663 -3.59488 12.4554)
(16.6629 -20.5723 -2.58932)
(93.9373 -32.1954 13.9921)
(-12.8287 52.1275 -5.07934)
(16.6977 -31.2469 -10.6212)
(-32.1733 62.9168 -3.6242)
(3.92831 -26.9877 -1.40125)
(-4.27366 9.09008 0.305869)
(22.9686 -1.42029 0.22068)
(20.109 -5.45559 0.030354)
(31.622 4.27547 0.0499922)
(27.8178 0.516996 0.0199376)
(32.3475 -1.56638 0.0205443)
(34.7909 1.68063 0.00913719)
(34.4903 0.427049 0.000637633)
(35.0869 1.42801 -0.0001872)
(36.2283 0.433387 0.000238416)
(36.6448 0.613656 0.000169014)
(119.7 -56.6036 -83.1019)
(-57.5447 3.27252 -12.2746)
(112.347 14.7301 -27.1494)
(-54.9848 -17.7181 -6.89134)
(28.322 -20.7565 4.21511)
(-34.0691 61.818 5.95859)
(-27.0749 7.43021 -12.5733)
(-3.26482 6.71947 -10.7673)
(57.701 -22.0355 -3.5529)
(32.0731 -14.5076 6.26363)
(38.3845 -3.40311 0.521957)
(30.3291 -3.79299 0.0702987)
(33.2457 0.60397 0.074612)
(31.7284 0.255115 0.0645229)
(35.4074 1.0285 0.103756)
(33.2243 0.166944 0.0565165)
(33.5398 0.862447 0.0145583)
(33.2641 0.456974 0.00455022)
(35.1038 0.287083 0.000543958)
(35.7078 0.0430817 6.31019e-05)
(341.301 -72.7431 -97.6172)
(154.829 86.0324 3.37785)
(199.013 106.298 -17.9569)
(114.275 72.8518 -18.1826)
(112.984 8.34786 -1.82199)
(16.202 17.4897 12.8095)
(66.9411 8.96616 22.0194)
(65.0301 -18.2011 15.035)
(47.2094 -11.1202 9.88529)
(39.4967 -3.67024 2.90021)
(38.4458 -1.71936 0.886479)
(34.9773 -0.556799 0.331412)
(33.366 0.787089 0.307735)
(33.0478 0.977918 0.16707)
(34.0022 0.816311 0.216098)
(33.1854 1.42441 0.0641458)
(33.4675 0.2245 0.0159378)
(33.6315 0.672839 0.0060607)
(35.096 -0.263658 0.00120293)
(35.5553 -0.0896003 0.000849181)
(240.202 -37.3909 49.4188)
(108.036 93.1998 29.0733)
(168.362 75.2993 -32.0379)
(66.2461 42.183 -22.1963)
(86.8836 32.3393 -23.6645)
(17.0649 22.784 0.119404)
(47.8704 1.74035 12.8185)
(56.9477 -11.1895 10.4364)
(50.3854 1.25762 0.602212)
(44.6628 0.894976 1.4598)
(40.5077 0.0900452 0.41947)
(36.7304 1.38147 0.903531)
(34.8045 1.65727 -0.0937655)
(34.1876 1.36703 -0.113563)
(34.0867 0.952205 0.0624349)
(33.2339 -0.147931 0.0746251)
(33.279 0.667996 0.0192254)
(33.3051 -0.283957 0.00859407)
(34.7256 0.0703747 0.00290706)
(35.0993 -0.489825 0.00186858)
(302.602 -133.457 116.239)
(70.0207 56.0704 18.6679)
(160.733 61.9477 -6.23623)
(56.5456 61.6956 -3.27956)
(87.6048 72.2161 6.992)
(-0.544886 1.47462 14.9259)
(43.1597 -15.6557 19.6174)
(52.3055 6.24275 -4.98657)
(43.1903 4.31586 -10.0661)
(46.0841 8.66358 -3.34778)
(41.6446 6.98158 -0.907933)
(33.8762 5.14967 -0.0368524)
(33.0318 2.41511 0.0125495)
(32.8607 0.987842 0.050748)
(33.9775 0.71055 0.118764)
(32.6046 1.24489 0.0667793)
(33.1594 0.428572 0.0198173)
(32.8065 0.1854 0.0066257)
(34.5587 -0.275154 0.000618494)
(34.8263 -0.559353 0.000100579)
(-32.4132 119.106 -86.3984)
(-120.078 106.778 -0.403666)
(59.4712 51.4485 8.09516)
(-68.1189 65.3884 12.0331)
(94.1789 94.7223 9.5068)
(-7.67448 -1.62119 7.22286)
(46.4632 35.1827 3.64956)
(8.24225 23.4466 -9.35002)
(37.57 12.0191 -2.40658)
(15.5311 10.0429 -1.07362)
(32.7287 5.5045 -0.557428)
(24.2048 3.62695 -0.181457)
(34.8382 1.68462 0.0817292)
(29.7357 0.622116 0.084368)
(31.6965 2.97577 0.0742809)