/*--------------------------------*- C++ -*----------------------------------*\
  =========                 |
  \\      /  F ield         | OpenFOAM: The Open Source CFD Toolbox
   \\    /   O peration     | Website:  https://openfoam.org
    \\  /    A nd           | Version:  10
     \\/     M anipulation  |
\*---------------------------------------------------------------------------*/
FoamFile
{
    format      ascii;
    class       volVectorField;
    location    "0.6";
    object      U_0;
}
// * * * * * * * * * * * * * * * * * * * * * * * * * * * * * * * * * * * * * //

dimensions      [0 1 -1 0 0 0 0];

internalField   nonuniform List<vector> 
12920
(
(255.768 163.212 -71.8076)
(-47.6277 76.909 11.8661)
(145.47 37.4979 -18.3939)
(17.3034 67.5516 -20.5956)
(109.919 64.7273 -16.1463)
(48.005 53.1153 -12.7388)
(97.1648 44.6541 -10.8664)
(78.3194 25.9391 -7.61069)
(104.293 19.3828 -6.00121)
(98.6702 9.60756 -4.28847)
(107.572 8.57939 -2.52177)
(98.4096 7.97823 -0.992551)
(86.7425 11.9862 2.20561)
(54.6477 8.45012 1.90675)
(49.8929 3.83608 0.766672)
(40.2453 2.4916 0.245747)
(41.237 1.18419 0.0364282)
(37.9135 0.993445 0.0169599)
(39.1886 0.391511 0.00465117)
(34.9735 0.407761 0.00272702)
(26.0359 -27.1393 -25.4454)
(-102.821 39.8382 -28.183)
(141.94 40.4218 -8.70313)
(-43.1546 84.1149 2.07451)
(95.0451 60.3928 -0.905916)
(-5.49238 35.8497 2.70163)
(78.5601 16.2397 3.2448)
(21.2684 4.22831 0.452792)
(68.4865 -0.163705 0.910906)
(40.6237 1.93971 0.493097)
(63.7813 4.5209 1.7691)
(46.545 7.98156 1.85201)
(52.5032 9.85555 1.97618)
(40.7224 7.72594 0.935542)
(43.7081 4.12974 0.410072)
(37.9938 2.52998 0.119054)
(39.9045 1.20546 0.0361684)
(37.3212 0.838711 0.0109997)
(38.7702 0.347586 0.00506192)
(34.7801 0.197208 0.00371939)
(179.545 75.2928 185.879)
(-98.6709 48.0336 -35.2895)
(124.497 19.411 -7.22936)
(-54.6779 69.1446 10.9615)
(95.123 46.1786 9.91486)
(-15.1333 47.79 2.66205)
(75.2397 22.3607 -1.71227)
(23.4959 26.8616 -1.2939)
(64.6521 12.0417 -2.03017)
(38.4378 17.2093 -0.63616)
(53.7582 8.68349 0.114973)
(38.1926 13.3977 0.47391)
(45.9103 8.87649 0.648933)
(37.9709 9.75369 0.339858)
(42.3049 4.80356 0.168051)
(37.554 4.705 0.059578)
(39.6747 2.082 0.0172089)
(37.1893 2.14817 0.0071453)
(38.7023 0.712755 0.00140189)
(34.6495 0.819591 0.00252472)
(56.9222 103.106 -13.143)
(-35.2622 85.3165 -17.7966)
(116.563 38.7094 13.2748)
(-51.8977 86.5772 16.1467)
(74.7198 44.6451 9.65978)
(-49.6348 50.0916 1.3564)
(68.489 25.7621 -1.42623)
(-0.876437 27.3241 0.204152)
(53.5832 14.6661 -0.0973429)
(18.1981 18.8823 0.359322)
(43.3217 10.9973 0.393806)
(27.0626 12.588 0.288968)
(39.2774 8.18936 0.187743)
(33.1127 7.86817 0.0915578)
(38.2563 4.39193 0.0427956)
(35.2955 3.93217 0.0163206)
(37.4382 2.03093 0.00549427)
(36.0562 1.84405 0.00207509)
(37.5008 0.70745 0.00203487)
(33.9324 0.626095 0.00355935)
(67.2274 239.383 -33.3558)
(-141.347 66.0999 1.31177)
(50.5311 21.6164 16.829)
(-108.81 53.3661 12.2116)
(72.0203 13.4955 6.79094)
(-63.6343 43.3298 0.604622)
(72.9184 2.83025 0.253051)
(8.41052 34.4449 0.339772)
(56.8476 0.398695 -0.330233)
(25.6355 23.7213 0.0343766)
(43.3097 1.92715 -0.0256208)
(29.5427 15.1872 0.0168638)
(39.3928 3.48384 0.0136195)
(32.788 9.39953 0.0110326)
(38.1381 3.14366 0.00435746)
(34.8728 4.98078 0.00354706)
(37.4956 1.73649 -0.000612366)
(35.7933 2.38009 0.00121331)
(37.4674 0.566081 -0.000332143)
(33.654 0.850277 0.00244719)
(-32.0118 -3.95209 157.932)
(-121.761 77.8627 36.1949)
(-15.6815 55.9714 -1.21124)
(-99.2435 59.2151 -3.14767)
(57.0405 25.6576 -2.06836)
(-79.3833 39.5348 -3.47083)
(75.6344 -28.0038 -1.72572)
(1.55602 31.4081 1.05226)
(38.6619 4.90666 0.945836)
(17.0018 28.1786 0.221046)
(29.619 9.36371 0.126592)
(26.0252 14.5623 0.0436852)
(31.8884 6.32799 0.0177869)
(31.7841 7.93695 0.0105999)
(33.3655 3.08217 0.0079746)
(33.6688 3.95274 0.00536332)
(34.7875 1.76042 0.00230707)
(34.9414 2.01867 0.0018481)
(36.0353 0.689747 -5.41031e-05)
(32.8647 0.763637 0.00145623)
(9.38719 -61.5968 58.8958)
(-172.267 15.5722 7.66167)
(-63.1305 4.60509 4.55506)
(-134.48 15.1172 -7.4079)
(59.4122 14.5858 -6.60087)
(-62.5179 34.3712 -4.68084)
(45.6816 -58.9173 -7.63195)
(-38.4999 58.3825 1.11757)
(5.89779 -23.0298 0.805153)
(-3.04482 29.4953 0.0478979)
(17.8151 -7.11042 0.0842105)
(17.0333 13.237 -0.0610256)
(29.859 -1.73817 -0.0572605)
(26.9487 8.27339 -0.0244423)
(33.3023 2.01558 -0.0142885)
(32.9017 3.30644 -0.0086968)
(35.3311 0.981925 -0.00281352)
(34.5487 1.57282 0.00051094)
(36.1149 0.254045 0.00110802)
(32.4634 0.496567 0.00299461)
(353.596 188.44 29.2296)
(176.106 74.4497 49.6985)
(102.729 26.5218 72.954)
(-87.9415 -10.2819 0.198492)
(114.94 20.4317 -4.54062)
(-3.49347 74.0911 -1.23026)
(45.38 5.94712 -1.14326)
(-30.3125 65.956 2.07496)
(-7.00361 -27.6531 1.78034)
(-9.28599 13.359 -1.0841)
(21.1726 -0.466418 -0.00149912)
(17.7934 -3.36424 0.0778991)
(29.8176 5.43371 -0.0422942)
(26.1644 1.40376 -0.0363778)
(31.3041 -1.12599 -0.00397954)
(33.9555 1.95744 -0.0125812)
(33.7282 0.640975 -0.0113052)
(34.4323 1.54996 -0.00749847)
(35.0664 0.504122 -0.00411039)
(31.8446 0.639212 -7.21968e-05)
(185.498 -219.645 133.351)
(-25.0913 -26.2041 34.8743)
(43.9994 65.6421 20.021)
(-94.3032 1.57513 -16.6729)
(39.5319 -24.6894 -6.46504)
(-19.247 70.3372 1.31857)
(7.5798 41.4773 1.33844)
(-17.3474 26.0035 -1.70601)
(44.5467 -24.3666 2.01502)
(13.0086 -8.65936 -1.11058)
(31.3591 -0.330465 -0.183009)
(25.4228 -1.62543 -0.119425)
(30.051 2.26849 -0.0526833)
(28.7488 1.41018 -0.0683987)
(33.729 1.67866 -0.0154342)
(32.2759 0.473421 -0.0173566)
(32.7355 1.11318 -0.00708009)
(32.4786 0.622595 -0.00842606)
(33.875 0.401067 -0.00979617)
(30.8471 0.103414 -0.00334411)
(367.054 -157.615 -6.73138)
(8.45427 36.626 -6.57751)
(145.815 61.423 -1.86532)
(72.1343 32.3514 -18.2192)
(107.111 11.9614 -3.83016)
(8.60154 22.9034 -0.95761)
(57.2149 32.3628 0.785408)
(63.2125 -9.27546 2.7067)
(41.5821 -18.0197 -1.25669)
(31.4566 -6.25121 -0.304561)
(31.7643 -0.735872 -0.325718)
(30.6651 0.723993 -0.108343)
(29.8945 1.6173 -0.0626176)
(29.8943 1.63342 -0.0685285)
(32.0864 1.05035 -0.0208219)
(32.122 1.77219 -0.0221071)
(32.578 0.449624 -0.00936079)
(32.8459 0.888828 -0.00673735)
(33.8229 -0.123507 -0.00434375)
(30.573 -0.0220201 0.00126253)
(79.9889 104.643 130.801)
(-59.9446 8.95954 47.6555)
(90.6924 38.1346 22.8556)
(66.3531 49.4588 -5.87814)
(121.617 54.8109 -6.21775)
(60.5247 37.9189 5.72059)
(40.1075 -7.47197 4.2984)
(50.3974 -26.1098 -0.133599)
(51.7821 -21.4875 0.171396)
(41.0867 0.162476 0.511681)
(34.5102 2.24972 -0.525886)
(32.3704 2.38053 -0.129999)
(31.41 1.79027 -0.0272406)
(31.0346 1.42209 -0.0555225)
(32.4247 1.14396 -0.0127136)
(32.1246 -0.0300766 -0.0160621)
(32.3479 0.840894 -0.00377166)
(32.4707 -0.130565 -0.00204353)
(33.3762 0.191736 -0.0028447)
(30.0184 -0.432662 0.00127012)
(116.167 53.7816 164.797)
(77.6683 -13.6043 16.275)
(165.061 7.19806 8.04548)
(104.975 36.1251 0.688607)
(125.767 70.5005 9.23783)
(47.6779 38.2041 8.99697)
(50.4109 -18.7518 1.19731)
(42.5923 -0.727205 -0.387499)
(40.7346 3.47396 -0.702614)
(33.5252 5.91909 -0.350873)
(31.5145 8.01021 0.114686)
(29.5478 4.41309 -0.0439119)
(29.7236 2.0168 -0.0227829)
(29.7765 0.962022 0.0039413)
(32.119 0.851483 -0.0226562)
(31.4683 1.378 -0.0172345)
(32.2331 0.516043 -0.0106417)
(31.9288 0.278306 -0.00960273)
(33.1653 -0.230791 -0.00864756)
(29.7029 -0.53092 -0.00214749)
(53.3943 -3.26677 73.2576)
(0.245401 -67.3653 -32.3301)
(94.2942 -34.7879 12.9587)
(-12.7707 7.67888 10.679)
(90.4896 62.259 11.3489)
(1.75041 -9.62011 1.92318)
(47.8454 20.5119 -1.31877)
(14.9191 17.4412 -1.03644)
(40.3806 12.8768 0.0544287)
(15.5674 8.5927 0.812212)
(30.5666 4.86862 0.11683)
(21.8819 3.02737 -0.0926636)
(32.9526 0.974439 -0.105447)
(27.9407 0.187999 -0.0849521)
(30.5603 2.70773 -0.0163881)
(32.8509 -0.0931277 -0.0156502)
(32.6116 0.553941 -0.0111293)
(32.8801 -0.669835 -0.00668095)
(33.5501 -0.209592 -0.00419736)
(29.875 -0.910996 0.00158107)
(258.43 388.673 -207.004)
(22.3247 19.0098 -34.33)
(169.026 -74.0338 -3.34751)
(79.3675 -41.9842 8.71456)
(107.254 6.40143 15.6451)
(54.5828 9.62207 1.42335)
(66.6647 56.3395 -0.631731)
(37.5805 6.3536 -4.70663)
(40.7179 32.594 -5.27389)
(32.7514 1.94947 -6.1898)
(37.8449 14.134 -4.44111)
(33.9631 -5.63522 -2.11936)
(36.8456 4.20672 -0.555755)
(32.2347 -5.13027 0.0964989)
(34.1779 1.5215 0.156092)
(32.9865 -1.08228 0.07747)
(34.1721 0.952007 0.0347957)
(32.9371 -0.682871 0.0136648)
(34.0799 0.153109 0.0065342)
(29.78 -0.810063 0.00584072)
(279.909 140.085 -6.32042)
(323.189 16.1462 -14.1696)
(280.221 -33.4417 29.7514)
(101.128 0.633858 33.2757)
(85.0515 27.9354 16.5456)
(11.5071 19.1011 -2.15291)
(67.3763 49.5459 -3.7982)
(37.529 28.5679 -6.19407)
(59.3132 40.4608 -7.17498)
(52.9905 24.8413 -6.96076)
(61.6944 23.3232 -3.2864)
(51.4543 4.06614 -0.0906205)
(43.9769 3.99216 1.06906)
(35.3551 -4.10077 0.463499)
(34.93 1.17543 0.0882066)
(32.712 -1.41099 0.0415162)
(33.6764 0.7196 0.0129369)
(32.6153 -0.796429 0.00432236)
(33.6396 0.228908 0.000992469)
(29.3742 -0.828039 0.00363268)
(271.114 -125.159 -274.103)
(161.294 -137.337 -29.2775)
(251.604 -102.395 -14.696)
(158.997 -32.4943 6.71959)
(114.363 42.8944 17.52)
(48.4252 36.7264 2.58742)
(78.6691 53.5058 0.459964)
(60.8746 35.9879 -1.35786)
(78.4165 44.8138 -0.337961)
(68.5219 21.7722 1.34717)
(73.0808 22.8215 2.68259)
(56.5908 4.34428 2.4659)
(50.9754 9.84481 1.83511)
(37.1167 -1.12381 0.600214)
(37.9504 3.38099 0.242438)
(32.6633 -1.05628 0.0794611)
(34.8062 1.4143 0.0296734)
(32.4147 -0.762653 0.00970562)
(34.016 0.515584 0.00378816)
(29.3975 -0.739768 0.00471088)
(121.1 -307.888 -28.5361)
(47.8263 -87.0306 -33.059)
(111.406 57.3069 -26.899)
(58.3123 83.5711 -20.2824)
(91.4957 81.3829 0.530999)
(46.6855 50.1988 2.49157)
(73.1356 46.4138 6.94688)
(49.6108 25.6246 4.41858)
(71.9299 28.9592 6.31734)
(47.5545 8.56267 5.05115)
(56.8174 14.5363 4.61075)
(33.909 3.5086 2.58611)
(41.3989 9.0561 1.44131)
(30.1701 1.1056 0.486062)
(35.8453 3.7904 0.170613)
(30.6777 -0.0269301 0.0509686)
(34.0524 1.44967 0.0158389)
(31.6339 -0.398952 0.00438122)
(33.5294 0.556508 0.000312128)
(28.9221 -0.582511 0.00521376)
(109.974 -165.9 -67.9128)
(-29.2327 -28.5506 -27.4834)
(112.858 83.9127 -22.8287)
(95.2673 97.4718 -5.42059)
(104.748 81.8437 13.6018)
(45.4641 40.1584 8.85342)
(69.4826 23.2185 8.01689)
(26.6985 -1.54539 2.7249)
(53.152 8.83717 2.49711)
(20.6309 -3.92121 1.10857)
(42.4413 8.86759 0.636557)
(22.9659 -0.393943 0.226838)
(38.3131 5.95197 0.162029)
(27.644 -0.369408 0.0554467)
(36.0293 2.75895 0.029667)
(30.0734 -0.490834 0.0124173)
(34.477 1.14874 0.00620823)
(31.4741 -0.462501 0.00347855)
(33.7685 0.525266 -3.97012e-05)
(28.9853 -0.482214 0.00480614)
(-0.398011 -128.692 -104.241)
(-121.843 -45.1841 -46.0916)
(106.729 76.3981 -19.8718)
(8.80472 77.89 12.316)
(48.7004 40.4303 21.8059)
(-47.6671 19.4665 3.91268)
(44.5736 20.6981 1.63187)
(-22.9367 8.10542 -1.14548)
(41.393 15.9027 -1.39799)
(-0.271461 3.46683 -1.23243)
(38.1871 8.93533 -0.736236)
(16.1654 2.11644 -0.317536)
(36.6904 4.90225 -0.144087)
(24.951 0.957239 -0.04889)
(35.3064 2.26575 -0.0188201)
(28.9125 0.268129 -0.00473652)
(34.1285 0.924904 -0.00181071)
(30.9807 -0.0520942 0.000461949)
(33.5467 0.375952 0.000250947)
(28.7405 -0.244008 0.00486085)
(227.973 451.161 -113.956)
(2.12914 99.5233 -9.78617)
(129.392 36.6055 7.73941)
(55.0784 50.3667 22.8104)
(95.3879 31.3574 22.2651)
(27.1894 5.08318 9.33173)
(47.8864 -10.2078 5.25588)
(-11.2936 -3.37865 0.776872)
(40.6288 -3.55968 0.0757001)
(3.84976 -1.71922 0.0546753)
(38.2462 -0.24019 -0.0759801)
(16.8707 -0.896035 -0.00769259)
(36.8098 0.337056 -0.0127665)
(24.7502 -0.581558 0.000223306)
(35.355 0.223229 -0.000970896)
(28.6191 -0.365808 0.000638654)
(34.0719 0.115122 -0.00127769)
(30.7221 -0.22252 0.000155851)
(33.4223 0.107787 0.00189533)
(28.5634 -0.121544 0.00603862)
(113.151 -22.3669 -140.689)
(-113.49 -39.3262 -40.8969)
(159.462 -22.5335 -18.7058)
(11.1283 19.2461 -35.977)
(117.634 16.8751 -39.5638)
(51.7644 24.0925 -23.8041)
(96.1078 29.5715 -21.0475)
(67.5101 14.6413 -10.7111)
(92.0187 8.55337 -7.02567)
(80.2109 -3.45357 -3.45579)
(91.6011 -2.64194 -1.16843)
(80.4204 -0.81324 1.80647)
(73.9507 8.75799 7.24498)
(51.4279 7.71253 5.67042)
(49.1049 3.8331 2.15169)
(40.5832 2.58835 0.819275)
(41.54 1.24648 0.174671)
(38.2912 1.01419 0.0701233)
(39.5492 0.403435 0.0206478)
(35.3353 0.412042 0.00825976)
(110.413 -58.4569 161.698)
(-101.842 -14.631 -21.3507)
(52.0797 5.5673 -2.03763)
(-89.0086 43.4556 4.24594)
(78.4648 21.7434 -0.395464)
(-46.7954 12.1507 1.24733)
(77.5234 3.24257 -0.846687)
(1.87872 -1.36556 -0.0600466)
(61.6996 -2.57872 -2.88235)
(23.5193 1.75341 -3.65672)
(52.5211 3.44 -2.78953)
(34.3753 6.4628 -0.499006)
(47.19 8.37901 2.14281)
(38.5118 6.86833 1.50308)
(43.3148 3.7654 0.644994)
(38.1168 2.42448 0.216759)
(40.1836 1.19999 0.0663298)
(37.661 0.837158 0.022443)
(39.1069 0.348428 0.00948718)
(35.1318 0.196858 0.00682518)
(369.58 -45.9498 95.8055)
(155.906 -27.4547 46.8493)
(125.638 -5.36944 2.10344)
(-61.5402 38.8503 -6.90215)
(101.022 18.8006 -13.9522)
(-8.50016 33.4289 -5.03874)
(76.7718 14.1532 -14.0133)
(25.1184 23.1346 -6.56598)
(64.1119 9.47268 -7.6486)
(35.6007 15.9547 -3.24757)
(51.8539 7.27161 -1.46095)
(36.0314 12.2069 -0.0236224)
(45.2349 8.02298 0.784513)
(37.8091 9.4061 0.550414)
(42.4738 4.69632 0.284838)
(37.8628 4.69154 0.110691)
(40.0028 2.09735 0.0337701)
(37.5484 2.1569 0.0137066)
(39.052 0.724533 0.0046015)
(35.0009 0.822504 0.00490384)
(143.483 89.627 -38.5858)
(-49.3268 72.8654 -11.7915)
(68.4349 45.1382 -8.55671)
(-75.5173 70.9541 -1.25297)
(77.1608 27.1991 0.9354)
(-53.0733 42.1022 -0.524758)
(68.2762 19.8767 -7.19263)
(-1.96989 24.883 0.59307)
(53.3321 14.2749 -0.730234)
(18.1469 18.8437 -0.0732784)
(43.5588 11.0265 -0.179492)
(27.6736 12.6331 -0.0418724)
(39.6226 8.12594 0.0955771)
(33.462 7.85509 0.0833196)
(38.5568 4.39358 0.0508067)
(35.6282 3.93962 0.0223007)
(37.7597 2.04419 0.00857704)
(36.3989 1.84959 0.00316122)
(37.8336 0.713993 0.00366039)
(34.2778 0.626814 0.00560712)
(67.7495 245.56 -11.1277)
(-183.278 30.3926 3.88083)
(20.9201 5.73555 -21.3687)
(-120.811 24.5462 -6.86597)
(77.2284 -11.6035 -8.36366)
(-64.9244 32.2387 2.18749)
(72.9661 -7.61043 -3.2404)
(8.12216 31.2901 1.44562)
(56.5668 0.224455 0.0705663)
(25.8531 23.8787 0.459102)
(43.5182 2.25638 0.195089)
(29.9283 15.3044 0.116764)
(39.7001 3.61177 0.096174)
(33.1519 9.42841 0.0557968)
(38.4568 3.18991 0.0305131)
(35.2304 4.99195 0.0141794)
(37.8313 1.75645 0.00360972)
(36.1505 2.3839 0.0024904)
(37.8145 0.574562 0.00144621)
(34.0038 0.848712 0.00378483)
(4.72734 -7.90174 10.6027)
(-62.9708 66.0675 -40.1777)
(18.8894 32.3678 -0.408305)
(-106.472 39.6795 -19.2298)
(75.6105 10.0118 -10.7289)
(-74.4284 30.2911 -3.32513)
(69.3232 -34.7252 -4.62653)
(-5.25504 29.5264 2.33122)
(37.2609 3.29331 2.2524)
(16.6127 28.1086 0.818309)
(29.7693 9.49521 0.470855)
(26.2985 14.6311 0.141393)
(32.1582 6.39539 0.0707662)
(32.0848 7.96078 0.0276681)
(33.6684 3.11255 0.0143351)
(33.9876 3.95885 0.00577891)
(35.1058 1.77212 0.00160182)
(35.2757 2.01993 0.00117325)
(36.3676 0.695262 0.000682389)
(33.1969 0.762385 0.00268498)
(60.1989 204.684 -121.148)
(-160.22 32.9751 -3.23655)
(-2.31591 0.00943377 12.7074)
(-116.773 -19.1089 -20.8689)
(73.2845 -16.5405 -11.0587)
(-45.6564 29.2817 -4.70762)
(30.0947 -58.2707 -16.8425)
(-43.9911 60.5944 1.19024)
(6.02971 -24.1694 0.643946)
(-3.264 29.014 0.103796)
(18.0361 -7.12768 0.286589)
(17.4237 13.226 -0.00457237)
(30.1661 -1.65352 0.00502924)
(27.3352 8.26951 -0.00180409)
(33.6226 2.07122 0.00604265)
(33.2356 3.32407 0.00195563)
(35.655 0.998339 0.000149488)
(34.8923 1.57117 0.00153596)
(36.4553 0.255275 0.0019495)
(32.8057 0.491104 0.00392763)
(83.1242 -43.8577 6.07121)
(-148.379 45.1381 29.6447)
(119.71 26.8544 27.1491)
(-6.24287 -7.16236 -5.72417)
(81.4361 -19.2264 -7.03085)
(-38.2122 64.7033 -1.73581)
(16.1856 -27.9364 -4.4491)
(-35.0349 66.434 -0.415871)
(-4.29507 -25.333 0.290373)
(-8.47749 11.8196 -0.286762)
(21.8396 -0.0511464 0.152491)
(18.7947 -4.15921 -0.058085)
(30.5626 5.09315 0.0713603)
(27.1444 1.36538 -0.00915835)
(31.6882 -1.16865 0.0328373)
(34.3147 1.90596 0.0112941)
(34.0964 0.623425 0.00189838)
(34.7867 1.53902 0.000637016)
(35.4099 0.507389 0.00210269)
(32.1816 0.642018 0.00360409)
(90.7136 -84.4616 -43.5497)
(-178.685 -14.9499 5.84477)
(109.985 57.5879 10.3902)
(-29.5258 5.59908 -4.17552)
(19.1266 -19.6231 1.47529)
(-44.9646 71.1911 2.0951)
(-18.846 20.908 -4.08981)
(-20.8614 32.6081 -11.4136)
(48.9288 5.06036 -2.85768)
(47.6167 -10.0401 -1.2328)
(36.6218 -1.97686 0.4258)
(28.7166 -2.58569 0.0235192)
(32.0835 1.61851 0.0798186)
(30.8375 1.06294 0.0345018)
(34.5357 1.62522 0.0476203)
(32.6809 0.454366 0.0302509)
(33.1265 1.08984 0.0139804)
(32.8722 0.607764 0.00678285)
(34.2486 0.389806 0.000643584)
(31.1943 0.0950539 0.00260475)
(343.691 127.779 79.8767)
(0.632875 101.616 35.5695)
(168.245 78.9638 1.35322)
(74.0064 36.0779 1.84904)
(96.5639 11.5454 -6.1896)
(43.7265 16.4903 7.6995)
(69.0615 20.4771 15.3207)
(72.9069 -4.92462 13.3707)
(48.7038 -11.3139 7.20793)
(38.3939 -3.72183 1.44986)
(36.6317 -1.24901 0.381098)
(33.4168 0.331233 0.143754)
(31.8563 1.43093 0.137852)
(31.5757 1.47517 -0.00370429)
(32.9376 0.990336 0.0662875)
(32.5317 1.72685 0.0386992)
(32.9603 0.417582 0.0143894)
(33.2181 0.860829 0.0101618)
(34.1828 -0.131881 0.00698402)
(30.9332 -0.0246226 0.00776543)
(75.7044 125.117 -39.4856)
(-194.329 52.0875 -22.8649)
(105.431 50.5828 -35.808)
(53.5922 31.6236 -16.6801)
(108.727 24.5257 -9.74063)
(80.6522 23.9953 -4.79392)
(80.8934 21.0134 5.58873)
(70.7912 -11.0865 3.34998)
(53.6627 -12.6338 0.789999)
(47.3868 -2.71771 2.46576)
(39.4844 -0.250274 -0.030122)
(34.6844 1.83168 0.0467117)
(33.2658 1.50971 -0.0300578)
(32.9237 1.13664 -0.110655)
(33.1405 1.04633 -0.0216594)
(32.5546 -0.0232216 0.0449746)
(32.7429 0.83206 0.0224015)
(32.8549 -0.136907 0.0147934)
(33.7482 0.177766 0.00699371)
(30.3837 -0.445964 0.00665113)
(129.551 48.5477 -126.588)
(-70.9404 71.6236 1.17051)
(134.329 49.5214 22.5484)
(68.8811 47.7839 16.2354)
(107.877 58.8107 16.9241)
(65.8084 41.8047 15.0545)
(63.2124 7.22632 16.9242)
(48.8862 3.7066 -5.00144)
(43.1853 3.37976 -6.01132)
(38.3794 3.92021 -3.0012)
(36.231 5.50174 -1.62097)
(31.9696 4.31074 -0.146988)
(31.6246 1.98249 0.00712622)
(31.6643 0.880277 0.0400957)
(32.9217 0.759084 0.0405667)
(31.9345 1.37107 0.0400791)
(32.6606 0.509929 0.0179378)
(32.3288 0.271537 0.00834204)
(33.5381 -0.236256 0.00183799)
(30.049 -0.535653 0.00375755)
(78.9322 -44.5251 -93.3537)
(-177.886 36.6997 12.9861)
(61.2639 3.08764 21.7741)
(-69.3469 30.7832 17.0295)
(89.5198 70.0914 15.6066)
(-15.5247 -12.0672 8.27971)
(45.2964 30.6672 5.94825)
(8.84339 24.5543 -5.71944)
(38.0622 14.4084 -2.00061)
(15.1118 8.82134 -0.67388)
(31.4704 4.18113 -0.809292)
(23.0934 2.67092 -0.304897)
(33.7833 0.86583 0.0332719)
(28.8155 0.0842153 0.0617002)
(30.9806 2.68034 0.0682751)
(33.235 -0.088075 0.0255812)
(32.9994 0.546753 0.00905821)
(33.2529 -0.676094 0.00359998)
(33.9082 -0.224286 0.00137833)
(30.2324 -0.923302 0.00542961)
(-70.399 94.7179 -130.385)
(-156.548 -6.18525 19.3317)
(59.3999 -34.8125 0.488908)
(-52.3737 0.921313 11.0935)
(88.5768 28.8971 17.6874)
(35.4552 17.9994 -3.49503)
(62.5736 61.3103 -1.36527)
(36.5881 3.92134 -2.77451)
(42.3519 29.8497 -2.55666)
(33.6144 -3.92408 -3.57129)
(37.2638 9.49082 -1.74923)
(31.3369 -9.1125 -0.766989)
(35.2795 3.3208 0.450995)
(31.4931 -5.39912 0.440973)
(34.0378 1.42387 0.331635)
(33.1588 -1.11457 0.127326)
(34.4753 0.924214 0.0538035)
(33.3005 -0.693516 0.019007)
(34.4564 0.138162 0.00974184)
(30.1694 -0.817239 0.0083416)
(103.442 52.036 3.01063)
(-0.883732 23.9356 51.2763)
(113.116 -22.1713 67.6559)
(-19.2619 16.1791 26.3539)
(68.3959 30.3312 10.4754)
(6.7775 9.35646 -6.01183)
(67.741 38.0287 -1.54552)
(42.2203 5.05593 -4.81332)
(64.4967 13.4451 -2.49517)
(54.342 -5.01826 -2.41594)
(55.5777 0.235284 0.756337)
(44.7059 -8.07953 2.2275)
(41.7183 -1.1093 3.1071)
(35.7709 -4.7384 1.37635)
(35.2737 1.0067 0.444387)
(33.1375 -1.44786 0.147458)
(34.0774 0.694432 0.0466636)
(33.0259 -0.802229 0.0123459)
(34.0378 0.216272 0.00456659)
(29.7736 -0.831557 0.00687192)
(146.146 0.394739 -5.3414)
(95.5738 -6.3791 23.8143)
(97.4542 23.5366 20.5913)
(8.09205 45.8868 6.73732)
(69.6768 43.3645 10.2965)
(32.9172 15.279 -5.65454)
(80.269 27.15 -0.353028)
(67.9868 6.88721 -0.571256)
(85.3252 19.2821 4.09887)
(71.9639 1.9927 5.36068)
(72.536 10.2449 6.73018)
(52.9522 -2.19032 5.47555)
(49.218 6.55487 4.45612)
(36.6309 -1.89979 1.85833)
(38.0409 3.23368 0.830121)
(32.954 -1.07941 0.257074)
(35.1657 1.39921 0.0897568)
(32.8156 -0.760397 0.0262104)
(34.4055 0.505777 0.0110612)
(29.7923 -0.740359 0.00847565)
(149.158 -243.59 42.975)
(-80.0979 10.842 -40.9203)
(33.678 62.143 -40.2907)
(-85.6721 45.7631 -29.5636)
(40.8892 43.7757 -6.13693)
(-15.4363 10.2269 -0.273891)
(59.8142 22.8783 9.42698)
(26.3677 0.233637 7.43371)
(62.014 11.0547 11.9546)
(32.775 -2.54145 9.09109)
(49.9009 10.5424 7.81489)
(29.1458 2.31915 4.45953)
(40.0181 8.69477 2.30595)
(29.8358 1.10021 0.868265)
(36.033 3.79078 0.279774)
(31.0287 -0.0108504 0.0871059)
(34.4318 1.44338 0.0232207)
(32.0451 -0.395142 0.00637749)
(33.9217 0.548831 0.00220292)
(29.3205 -0.58168 0.00766022)
(182.14 127.391 -188.36)
(-89.1161 82.2881 -5.63941)
(47.5691 80.8612 -16.3175)
(-80.8342 46.8586 6.29689)
(66.3187 37.6334 23.6843)
(0.263895 10.5698 13.5328)
(59.8241 8.50554 13.1012)
(15.5034 -3.39352 7.77505)
(49.0629 12.4983 7.05712)
(16.1286 0.615495 3.69032)
(40.485 11.8693 2.01389)
(21.9016 1.00893 0.985648)
(38.0881 6.47695 0.535759)
(27.7708 -0.140898 0.227997)
(36.3013 2.82374 0.0965782)
(30.4433 -0.454033 0.0372413)
(34.8466 1.15212 0.0146097)
(31.8796 -0.454172 0.00652744)
(34.1583 0.521962 0.00304159)
(29.3795 -0.479649 0.00707353)
(33.515 6.08385 -166.574)
(-140.086 -12.1531 -54.0345)
(11.6302 48.4012 -11.4616)
(-106.927 18.9896 16.9189)
(32.0601 2.69834 22.4372)
(-63.4801 11.9091 10.3718)
(44.211 18.8716 5.5852)
(-23.9044 7.25094 1.39005)
(41.0152 16.0308 0.436873)
(0.126675 3.47156 -0.343262)
(38.3856 9.27083 -0.149699)
(16.6719 2.26587 -0.0302111)
(37.0151 4.95028 -0.00318535)
(25.3851 0.993002 0.0168661)
(35.6669 2.26935 0.00490932)
(29.3207 0.277609 0.00452505)
(34.5064 0.922606 0.000943596)
(31.3867 -0.0498214 0.00171254)
(33.9349 0.375114 0.00216035)
(29.1376 -0.243046 0.00710483)
(23.7942 107.921 -159.007)
(-59.3394 16.6675 32.7392)
(103.284 17.7615 34.6331)
(31.1638 35.9455 31.9743)
(92.5005 16.8206 22.1659)
(15.2093 -10.6003 15.5887)
(49.8429 -16.2279 16.2591)
(-8.55493 -5.48522 1.76414)
(41.2497 -3.9797 1.04336)
(4.79629 -1.71415 0.169371)
(38.571 -0.271354 0.0700757)
(17.3819 -0.873061 0.0481559)
(37.1439 0.346181 0.0346365)
(25.1821 -0.566667 0.0238719)
(35.7208 0.227657 0.0115982)
(29.0408 -0.359689 0.00671853)
(34.4584 0.115076 0.000904707)
(31.1288 -0.220453 0.00141504)
(33.81 0.107838 0.00379271)
(28.9749 -0.120168 0.0084517)
(170.308 -118.058 62.029)
(-125.652 -52.4192 5.1523)
(183.213 -60.1036 -54.1114)
(78.4816 -23.6091 -39.3752)
(139.76 -18.3701 -42.2859)
(92.8781 -6.87307 -25.7479)
(113.314 14.6772 -25.8715)
(72.962 17.1865 -14.9066)
(85.4569 21.891 -10.8897)
(61.3726 12.3441 -5.27627)
(69.419 11.8898 -1.38982)
(51.4034 9.19245 2.88607)
(53.7267 9.39325 7.46045)
(44.2366 6.87814 5.3592)
(46.2727 3.92646 2.4174)
(40.0173 2.57618 0.889663)
(41.2923 1.23037 0.215109)
(38.2338 1.00214 0.0777282)
(39.5283 0.399771 0.0246373)
(35.332 0.411421 0.00832431)
(256.049 -79.7195 74.0646)
(-179.766 -25.0727 12.1966)
(87.4565 -26.6868 -14.196)
(-92.8111 18.1506 -19.7389)
(91.8541 6.38022 -16.2595)
(-38.4336 7.38847 -3.20964)
(76.8098 6.12405 -5.36109)
(4.8075 3.10517 0.296868)
(62.0143 2.88 -5.43303)
(24.6711 5.22724 -5.60588)
(51.6617 5.62086 -5.09156)
(31.9226 7.04332 -1.97563)
(44.9203 7.18346 1.30138)
(37.3013 5.87328 1.26507)
(42.8852 3.34182 0.60637)
(37.984 2.27049 0.228937)
(40.1444 1.17625 0.0783557)
(37.65 0.826361 0.0264952)
(39.1024 0.345532 0.0110988)
(35.129 0.196333 0.00513693)
(314.622 -175.32 37.9369)
(79.8606 -29.4259 57.2186)
(151.402 -43.0947 55.9645)
(20.9765 -5.71563 7.82233)
(104.458 -9.89046 -7.83933)
(32.0256 12.4573 -4.74482)
(82.6092 3.74758 -17.8687)
(31.8632 16.8078 -9.85182)
(64.2351 7.28966 -10.8052)
(35.2882 15.8284 -4.05176)
(51.1984 8.49035 -2.00025)
(35.4189 13.1107 -0.189071)
(44.8435 8.05446 0.703995)
(37.5233 9.18522 0.551867)
(42.3358 4.59216 0.295796)
(37.797 4.64887 0.122782)
(39.9787 2.08267 0.0420538)
(37.541 2.15136 0.0163357)
(39.0497 0.722968 0.00649108)
(34.9995 0.822002 0.00414671)
(203.672 35.8687 -163.622)
(161.156 25.97 -27.0396)
(106.408 11.4502 26.7245)
(-63.1684 55.695 12.0244)
(83.9716 10.7576 13.6884)
(-41.8031 30.6288 1.89718)
(64.2691 15.5785 -9.20865)
(-10.0522 21.4333 0.697015)
(51.2764 11.8269 -2.30036)
(16.3772 17.7281 -0.106205)
(43.0563 10.533 -0.290819)
(27.5033 12.3895 -0.0102542)
(39.6884 7.8879 0.176148)
(33.4537 7.6995 0.134085)
(38.5523 4.32499 0.0834618)
(35.6212 3.91263 0.0359295)
(37.7567 2.03595 0.0153752)
(36.398 1.84646 0.00533348)
(37.8337 0.713279 0.00397084)
(34.2765 0.626389 0.00354824)
(170.831 91.1695 -35.5171)
(36.3794 53.7664 7.90311)
(71.7106 10.7087 21.0134)
(-92.1619 1.80195 0.689378)
(66.8856 -19.0619 -0.834082)
(-65.8703 20.9765 5.79984)
(71.5588 -16.1376 -3.03104)
(6.59106 24.6663 1.89648)
(55.2128 -4.18253 -0.350802)
(25.0602 22.0078 0.313581)
(43.1803 1.43035 0.0464293)
(29.798 15.0266 0.0994658)
(39.658 3.47404 0.0926961)
(33.1237 9.37047 0.0590534)
(38.4432 3.16372 0.0333283)
(35.2218 4.98164 0.014626)
(37.8279 1.75232 0.00481738)
(36.1496 2.38248 0.00225558)
(37.8144 0.573982 0.00146965)
(34.003 0.848354 0.00219417)
(309.811 95.1356 14.3893)
(79.2484 90.7273 -2.13223)
(95.3786 48.4338 29.7567)
(-93.5067 26.2113 -10.7756)
(77.954 4.60576 -13.2991)
(-75.9636 22.3418 -2.56447)
(69.7941 -33.2629 -7.63583)
(-8.96852 25.36 0.632618)
(35.8042 1.03919 2.03465)
(15.4635 27.0811 0.909785)
(29.4079 9.10494 0.558599)
(26.1142 14.4836 0.220743)
(32.1054 6.34884 0.10148)
(32.0588 7.94222 0.0454816)
(33.6599 3.10792 0.0213167)
(33.9844 3.95838 0.00810293)
(35.1052 1.77145 0.00227228)
(35.2759 2.01963 0.00102972)
(36.3686 0.694853 0.00116672)
(33.1956 0.762188 0.00179595)
(78.0826 126.37 63.0166)
(-110.021 84.4235 17.4182)
(74.846 9.27116 7.33471)
(-82.4893 -24.9991 -23.8169)
(74.4872 -25.5805 -14.7672)
(-27.5029 21.2502 -2.89905)
(28.6102 -55.4357 -22.3314)
(-45.3982 59.9054 -1.88515)
(6.64347 -25.107 -0.568902)
(-3.95093 28.9204 0.422629)
(18.0043 -7.24087 0.303541)
(17.3031 13.2478 0.0996431)
(30.134 -1.65544 0.0755481)
(27.3078 8.27586 0.0268061)
(33.6137 2.0638 0.0213061)
(33.2273 3.31962 0.00973027)
(35.6506 0.994662 0.00349897)
(34.8903 1.56954 0.00135106)
(36.4534 0.25504 0.00113644)
(32.8031 0.491274 0.00185734)
(58.2791 -116.12 33.6169)
(-74.3057 13.0604 31.3034)
(142.762 3.0557 9.66295)
(2.88249 -15.6463 -2.09606)
(83.6797 -28.2439 13.6966)
(-22.1987 54.3881 -5.1863)
(7.73563 -28.4786 -9.5238)
(-35.8266 65.0753 -3.60014)
(-0.227879 -25.5681 -1.45374)
(-7.70742 11.3781 0.173058)
(21.9054 0.0119448 0.191999)
(18.7565 -4.11041 0.0242344)
(30.5478 5.11732 0.0503327)
(27.1223 1.37783 0.018353)
(31.6745 -1.14649 0.0200097)
(34.3158 1.91692 0.00870575)
(34.0983 0.624765 -0.000175561)
(34.7904 1.5392 -0.000127902)
(35.4129 0.508081 0.00131341)
(32.1815 0.642827 0.00177495)
(115.962 -73.3492 -95.0984)
(-78.8588 -0.279731 -17.9401)
(90.1953 17.4345 -27.5607)
(-68.466 -15.8034 -6.44441)
(16.4713 -19.2321 4.17221)
(-43.4124 64.0542 5.94939)
(-35.2525 9.8585 -13.0391)
(-8.46654 8.03678 -11.1131)
(54.3854 -20.1707 -3.46371)
(28.9355 -12.796 6.11014)
(36.2951 -1.80622 0.453197)
(28.8434 -2.56654 0.0539013)
(32.0993 1.63289 0.0740301)
(30.8462 1.08011 0.0650835)
(34.5443 1.66509 0.101148)
(32.6563 0.466075 0.0545566)
(33.1096 1.09114 0.0138278)
(32.8693 0.609344 0.00443157)
(34.2497 0.390495 0.0017809)
(31.1932 0.095454 0.00184771)
(355.011 -82.6312 -76.4691)
(143.615 83.0666 8.93672)
(184.384 104.259 -16.949)
(100.966 69.9506 -16.5951)
(99.8699 7.46123 -1.4978)
(4.24412 17.1737 12.068)
(59.7073 9.16428 21.7267)
(59.9031 -17.3836 14.853)
(43.3638 -10.3442 9.54903)
(36.8599 -2.60362 2.68371)
(36.2163 -0.772258 0.825759)
(33.445 0.524987 0.360573)
(31.9725 1.60691 0.336535)
(31.8244 1.59611 0.181504)
(33.0799 1.13912 0.218935)
(32.5025 1.73174 0.06185)
(32.938 0.40863 0.0147738)
(33.211 0.855393 0.00585696)
(34.1816 -0.134706 0.00201214)
(30.9335 -0.0253066 0.00259643)
(227.207 -25.5329 73.4894)
(86.3787 86.1703 33.0245)
(153.334 67.7838 -30.4889)
(54.5817 35.4436 -21.8219)
(75.9089 27.6775 -21.7594)
(6.4666 19.6631 -0.118037)
(41.8765 -0.139799 12.2088)
(52.1036 -11.8819 10.1654)
(46.9163 1.25968 1.07327)
(42.2295 1.16039 2.8063)
(38.3623 0.792821 0.671083)
(34.6983 1.75777 0.736512)
(33.2436 1.874 -0.136742)
(32.8582 1.5795 -0.146943)
(33.1576 1.17713 0.0430802)
(32.5237 -0.0131818 0.0715806)
(32.7258 0.839007 0.0185783)
(32.8556 -0.132753 0.00872653)
(33.7523 0.180056 0.00395677)
(30.3848 -0.444881 0.00363582)
(299.184 -147.324 136.365)
(50.1015 44.4808 19.4522)
(147.907 54.522 -2.6361)
(44.3815 53.8795 -2.37809)
(78.2602 65.2672 8.16621)
(-8.29809 -3.2382 14.5962)
(38.424 -17.9144 18.2546)
(48.3258 4.85291 -5.44541)
(39.9188 3.23051 -10.3217)
(43.577 7.49957 -3.56556)
(39.6026 5.592 -0.960111)
(32.1884 4.10841 -0.0409889)
(31.6761 1.96226 0.00403788)
(31.6973 0.887432 0.044607)
(32.9351 0.74518 0.110959)
(31.9167 1.34576 0.0620535)
(32.6449 0.502566 0.0195459)
(32.3241 0.269306 0.00747324)
(33.5372 -0.236554 0.00183554)
(30.0472 -0.535695 0.00204911)
(-39.5435 97.7007 -121.099)
(-132.969 87.3058 -0.922133)
(50.1081 39.1951 9.34419)
(-78.9324 55.2194 12.4206)
(87.6693 86.3521 9.20316)
(-11.7953 -7.35835 6.90745)
(43.7076 31.1234 3.25323)
(3.98682 19.5346 -9.51774)
(35.7543 9.52372 -2.12062)
(13.2425 8.22275 -1.0618)
(31.3365 4.43553 -0.598422)
(23.0711 2.73765 -0.212382)
(33.8586 0.997588 0.0835311)
(28.8034 0.116324 0.078291)
(30.9659 2.70075 0.0722131)
(33.2317 -0.0897801 0.0202989)