/*--------------------------------*- C++ -*----------------------------------*\
  =========                 |
  \\      /  F ield         | OpenFOAM: The Open Source CFD Toolbox
   \\    /   O peration     | Website:  https://openfoam.org
    \\  /    A nd           | Version:  10
     \\/     M anipulation  |
\*---------------------------------------------------------------------------*/
FoamFile
{
    format      ascii;
    class       volScalarField;
    location    "3.5";
    object      k;
}
// * * * * * * * * * * * * * * * * * * * * * * * * * * * * * * * * * * * * * //

dimensions      [0 2 -2 0 0 0 0];

internalField   nonuniform List<scalar> 
12920
(
387.515
839.415
938.227
903.75
746.095
617.525
522.446
438.06
322.285
210.828
140.608
107.167
92.7351
81.2672
74.5251
69.7117
68.2725
66.6454
65.5723
62.7489
1083.05
1095.44
1427.16
1510.71
1249.99
821.358
528.228
394.158
302.861
260.703
224.634
189.371
156.947
135.734
125.104
119.04
116.418
116.246
116.819
119.5
1346.09
1723.23
1452.16
1362.63
1281.44
1154.72
861.985
539.369
352.077
261.163
203.926
170.258
154.982
145.943
137.6
128.647
122.316
116.61
113.781
107.842
676.792
928.66
925.081
971.914
979.823
863.291
601.781
435.361
327.056
266.694
231.069
210.259
193.672
175.484
159.787
144.171
131.632
118.613
112.644
103.871
600.823
1832.15
1300.33
1106.18
875.545
748.09
610.853
554.524
504.813
480.932
427.243
339.493
254.598
195.904
167.586
149.723
136.498
120.938
113.005
102.023
3714.81
5016.86
3650.72
1745.98
1060.31
864.362
709.844
621.081
510.246
419.962
313.039
234.505
187.246
163.834
150.234
136.079
125.321
112.897
107.843
97.7182
12740.2
3083.87
1894.91
1200.78
907.028
820.431
674.049
585.691
479.493
382
284.216
217.669
183.078
164.229
148.422
132.216
119.949
108.732
104.556
96.2832
5787.31
4332.78
2529.86
1557.08
878.387
725.861
478.982
340.224
319.013
256.91
192.809
130.137
99.94
94.5034
175.893
142.578
120.554
107.331
103.06
97.1126
12239.6
7964.36
4312.31
1955.8
851.263
407.184
326.394
167.347
120.351
98.9085
65.9968
48.2684
57.7328
67.2492
114.824
142.619
121.534
106.991
97.8648
92.6111
2731.1
3557.39
3065.32
2418.29
1571.01
722.173
233.101
131.722
120.889
101.75
88.6726
70.6106
73.5686
67.9267
87.616
102.334
96.5002
88.8592
81.3375
81.6027
680.839
2695.21
2391.65
1903.85
1315.68
680.795
246.045
108.007
112.521
106.91
95.2592
105.153
96.681
83.2062
77.6213
100.314
89.4866
79.5843
72.7619
73.3207
5404.73
2914.16
1760.38
1353.78
939.641
502.225
223.603
104.453
74.0413
121.649
146.82
140.98
112.579
82.2498
63.249
93.693
82.9211
71.7654
65.4767
65.9334
4398.94
2685.05
1656.49
1003.75
716.295
638.939
392.678
308.733
311.102
301.709
281.953
238.797
184.854
112.269
99.7069
86.238
76.5109
68.2922
62.7407
61.746
3846.09
2910.19
1979.96
1371.61
906.294
723.73
637.279
625.23
611.382
584.731
510.854
389.562
281.391
190.646
131.696
100.212
84.4044
73.9948
66.2455
60.6677
14527.9
8834.57
2686.96
1539.97
1093.23
946.605
766.736
680.062
597.852
517.453
433.527
353.979
271.627
195.794
142.085
110.621
92.5036
78.6779
71.5725
61.3861
5369.79
1504.07
780.304
909.977
974.056
952.748
788.553
660.436
522.96
411.156
315.627
239.139
186.055
148.366
123.994
108.279
96.9887
83.6195
76.8462
65.0601
782.509
666.419
481.872
559.563
774.821
824.36
724.198
620.402
500.075
389.538
279.716
199.25
156.365
134.205
122.721
113.881
108.681
96.9852
89.3466
74.5486
1253.45
1294.27
931.743
500.181
492.66
591.931
592.718
561.796
468.521
366.323
270.019
201.473
164.047
145.215
136.973
131.013
127.436
118.54
112.18
95.9576
1623.81
1248.97
872.435
567.427
477.736
497.963
488.664
457.631
381.817
305.648
238.059
189.08
163.109
154.904
154.131
152.943
149.647
138.3
128.117
107.489
1177.75
677.721
405.823
328.359
315.727
306.017
276.671
239.082
206.462
178.09
153.45
134.858
123.291
113.888
108.686
102.622
98.0224
87.1151
80.3182
65.0585
359.347
866.198
1687.44
1744.13
1533.91
1278.45
1081.39
855.002
599.815
402.27
283.038
220.133
181.086
158.516
149.635
148.378
149.193
150.344
153.878
155.074
6157.71
5536.87
4549.85
3674.63
2316.79
1682.4
1081.63
869.313
702.993
648.457
547.9
453.885
380.517
348.795
341.643
341.22
342.669
346.126
350.723
362.941
1317.07
5416.35
4798.25
4480.98
3725.42
3022.74
1670.87
1069.54
763.147
609.919
484.443
432.38
413.734
403.598
389.795
376.437
366.673
356.606
349.114
335.566
908.74
1894.43
3124.32
3419.04
3059.96
2182.38
1313.91
1009.62
771.645
676.471
600.616
563.832
513.64
475.14
442.549
411.852
384.511
354.638
338.749
316.577
1256.69
5735.59
4193.02
3084.16
2213.6
1876.7
1472.99
1369.03
1208.65
1143
999.638
798.889
601.198
495.791
458.597
427.392
395.95
355.438
333.088
304.146
10006.6
10174.4
7889.65
4204.3
2615.56
2121.35
1665.82
1440.39
1163.37
973.651
758.559
594.303
499.085
449.068
417.557
385.12
357.222
326.074
311.68
285.005
32405.5
7700.29
4751.61
2821.93
2302.82
1981.84
1582.19
1352.34
1104.81
898.132
692.325
548.291
476.267
433.804
394.654
361.204
330.868
304.831
293.796
276.26
9336.25
7341.63
5272.12
3308.9
1946.92
1763.08
1419.53
1130.95
982.477
748.237
574.998
442.302
409.978
401.727
397.154
337.245
299.915
279.77
273.946
274.575
16675.6
10021.9
4433.5
3175.84
1387.92
1280.8
1252.17
961.554
756.01
577.454
414.719
359.284
358.585
355.798
344.882
313.898
277.903
259.605
256.967
264.686
10541.1
9955.97
6539.53
4629.45
2682.33
1967.41
1192.71
874.966
712.306
563.401
450.994
367.355
316.069
274.714
236.075
229.846
226.37
226.244
228.357
246.556
6587.52
8236.27
5080.77
4039.79
2066.29
1624.96
1021.88
735.004
630.168
563.033
506.675
478.949
440.046
357.525
248.509
223.796
211.386
201.464
201.49
214.948
15125.3
6614.48
3714.13
2875.91
1685.33
1367.19
977.032
737.333
602.257
693.185
728.837
659.587
531.86
367.619
225.489
218.451
198.144
186.862
186.68
195.081
11047.3
6444.18
3650.68
2508.83
1719.12
1659.35
1382.93
1359.79
1290
1186.39
1028.92
823.084
573.218
322.695
251.297
220.174
201.119
186.935
182.333
184.794
13827.9
6606.4
4429.73
3278.37
2265.31
2091.03
1891.91
1858.9
1716.01
1500.33
1251.92
947.523
656.125
422.991
310.135
256.842
228.42
205.062
189.394
180.247
16407.7
9700.51
4967.48
3872.66
2735.65
2560.95
2092.65
1898.8
1629.84
1401.2
1151.92
924.057
677.017
466.562
348.502
289.01
250.097
217.998
199.349
177.194
13816.1
5199.33
2427.64
2563.62
2547.24
2372.98
1922.52
1658
1321.82
1066.17
801.935
616.193
481.625
386.883
331.336
295.769
267.365
235.624
217.006
187.514
6772.15
2481.56
1393.2
1753.72
2084.85
2075.77
1721.86
1483.5
1176.49
925.965
650.935
485.265
407.82
366.358
339.273
319.013
306.38
279.639
258.579
218.641
4854.91
3012.36
1550.52
1314.22
1326.71
1595.51
1473.96
1326.22
1066.06
846.104
623.028
503.095
442.127
410.253
393.217
377.684
367.046
342.311
326.546
286.613
6166.89
3674.87
2306.6
1731.79
1238.89
1320.71
1173.55
1037.96
842.759
677.403
537.902
471.072
443.171
434.06
433.378
430.368
420.128
387.727
358.924
316.007
460.746
1718.24
1184.88
911.39
753.103
702.683
582.482
487.972
393.703
322.229
275.091
255.635
245.213
241.519
240.374
238.767
233.298
210.503
193.719
159.75
216.059
2314.67
2452.11
2111.45
1678.84
1354.87
1066.46
754.369
509.062
357.573
278.492
239.413
218.426
204.991
198.603
193.731
192.813
190.602
190.689
188.565
5645.1
7932.48
6613.43
4298.02
2343.38
1595.46
1071.65
870.371
718.595
681.264
612.457
574.752
536.836
524.319
519.361
520.86
526.489
537.643
549.545
564.876
15182.9
9318.96
7055.33
5374.74
3493.39
2524.99
1610.9
1275.89
960.178
824.659
709.761
667.341
628.353
607.885
585.896
571.764
560.759
551.838
544.999
534.188
4312.18
4076.32
5201.85
5153.47
3696.57
2412.98
1592.78
1298.81
1031.17
923.277
820.896
763.348
700.428
657.304
616.519
583.146
555.623
528.944
513.213
488.379
6794.01
6997.67
5783.22
4364.36
3093
2420.53
1890.86
1657.11
1405.71
1254.19
1051.8
891.922
762.39
690.118
637.518
591.478
552.444
512.679
491.181
457.439
16329.6
12708
8603.04
4977.48
3420.86
2694.95
2069.06
1709.51
1349.32
1109.28
894.527
760.935
675.338
619.626
576.012
535.255
503.595
470.965
454.65
422.267
26635.4
9732.42
5826.7
3665.78
3126.55
2478.19
1942.83
1582.83
1263.16
1024.47
839.648
732.741
659.243
603.614
551.476
508.057
474.208
447.25
434.318
408.9
6511.79
8070.16
6514.55
4001.56
2740.51
2351.37
1986.12
1511.71
1225.11
934.048
771.377
667.941
624.284
574.902
520.23
463.891
430.407
416.409
413.21
406.962
10526.8
7421.09
4928.19
3145.97
2062.66
1957.95
1916.55
1375.02
1065.6
815.749
658.849
590.228
556.779
521.883
473.091
426.181
396.627
390.152
392.244
401.63
12376.7
10844.8
7818.66
5019.54
2864.51
2213.43
1657.46
1247.46
962.801
762.182
621.805
496.765
404.996
361.691
342.779
353.063
353.693
356.9
365.264
390.416
13814.9
9820.28
6095.85
4206.43
2313.43
1995.62
1493.34
1107.16
901.024
793.723
540.912
447.529
459.54
392.779
324.998
333.513
326.888
326.968
330.071
348.63
9944.35
7828.13
4683.61
3213.1
2277.16
1831.67
1532.65
1194.1
1031.37
1010.42
922.793
776.723
602.387
420.812
329.474
313.889
295.12
290.732
292.58
309.509
14396
6973.42
4403.44
3201.14
2676.82
2613.53
2183.86
1953.43
1663.67
1420.13
1144.28
875.193
593.261
407.827
355.915
317.388
294.789
282.978
281.219
289.426
22756.8
8595.37
5359.33
3951.42
3283.52
3179.53
2809.12
2479.34
2012.08
1642.12
1282.5
951.935
690.911
516.091
421.386
360.458
322.425
295.588
280.502
276.611
14062
8382.13
6071.54
4711.3
3701.06
3409.78
2794.94
2422.16
1942.87
1578.82
1239.85
944.304
698.493
539.055
446.022
383.846
338.352
304.169
282.941
264.74
16906.7
6949.47
4682.85
4114.55
3549.65
3055.23
2460.05
2032.96
1577.67
1233.53
939.761
736.132
590.924
499.989
442.053
399.487
364.062
329.162
306.465
275.346
13755
7639.52
3637.78
3331.03
3110.36
2665.94
2119.5
1748.06
1340.8
1041.02
795.116
659.422
574.613
518.082
481.156
451.173
427.732
391.89
366.931
320.14
3428.67
4022.97
3139.75
2877.81
2481.98
2254.07
1830.77
1550.61
1215.71
986.778
803.01
707.817
645.451
604.92
580.486
554.73
534.001
496.819
473.388
418.672
4513.93
5144.09
3452.01
2499.45
1943.76
1716.68
1425.29
1227.55
1008.92
867.646
761.872
711.146
679.236
657.216
650.867
639.397
615.424
560.362
525.572
477.335
1586.85
2743.96
1856.44
1358.91
1073.1
883.757
715.477
585.171
485.898
423.771
384.908
365.855
350.196
335.274
324.279
301.937
280.33
249.216
234.047
198.41
3259.42
4543.32
3696.94
2386.92
1653.61
1197.42
845.976
550.925
386.912
303.155
261.314
236.63
223.055
213.501
209.171
203.833
201.855
197.997
196.159
190.871
4533.46
8715.94
8093.39
4722.18
2346.06
1452.89
1044.21
878.206
791.215
770.368
741.492
734.564
722.852
728.677
734.49
748.155
767.809
786.999
806.654
822.379
8529.27
9009.1
9096.57
6334.81
3523.64
2257.06
1657.67
1381.53
1148.94
1025.84
935.784
894.862
859.515
842.174
824.753
815.859
808.069
802.122
796.541
788.564
4410.2
5072.31
8166.19
7180.93
4356.62
2564.56
1846.7
1494.41
1262.15
1123.92
1026.27
957.605
900.787
859.082
824.234
795.449
772.385
748.841
733.448
708.817
13538.9
8110.44
7880.04
5327.55
3899.99
2745.04
2255.83
1840.56
1567.64
1340.58
1163.29
1033.23
946.23
886.927
837.889
790.151
753.106
715.106
693.356
657.59
13808.9
13312.7
10277
5749.57
4294.49
3085.57
2411.89
1877.97
1500.8
1224.55
1048.77
931.592
860.992
802.608
758.676
716.556
687.996
656.797
639.514
603.366
19005.8
13136.2
6767.36
4396.63
3855.62
2766.58
2203.98
1715.72
1396.56
1142.98
1005.51
909.311
842.813
781.842
732.479
689.684
660.566
634.875
619.821
585.684
21086.2
10600.1
7045.32
4230.5
3466.09
2831.65
2332.27
1696.8
1360.88
1075.94
944.311
856.371
794.425
722.054
677.156
633.514
614.224
607.353
602.909
583.502
9925.94
8842.22
5616.77
3386.98
2600.92
2466.99
2323.89
1575.11
1232.29
981.11
850.373
778.897
726.813
672.985
621.001
596.229
582.448
584.922
590.617
586.319
6563.87
9307.52
8937.6
5576.6
3167.66
2429.31
1948.91
1468.3
1121.43
900.176
749.06
613.503
531.466
515.324
531.5
558.498
557.111
560.863
571.799
576.881
12943.5
11812.9
7261.68
4205.42
2643.57
2207.29
1767.95
1349.55
1102.58
940.288
681.737
500.675
463.33
453.698
484.212
520.782
508.949
509.045
512.742
527.528
8469.17
10167.7
5546
3529.9
2810.67
2194.05
1931.6
1540.17
1328.54
1164.43
961.25
772.117
609.373
504.319
472.619
461.171
443.782
443.793
448.244
473.975
12261.9
7728.19
5106.55
3658.52
3544.41
3148.5
2659.09
2208.63
1793.52
1442.59
1111.32
831.333
618.421
512.77
488.08
447.925
429.133
422.377
423.912
443.354
6517.21
8435.44
6305.31
4346.73
4188.33
3763.59
3220.15
2632.88
2062.55
1608.31
1229.14
933.149
739.048
619.898
543.293
485.849
447.74
423.378
413.875
417.706
16521.8
8748.69
6963.51
4938.44
4437.14
3735.58
3183.1
2565.41
2021.6
1576.86
1227.83
947.525
755.917
637.655
562.002
502.304
456.764
423.826
404.282
394.494
28770
11051.4
6952.06
5036.41
4291.29
3351.93
2797.03
2139.15
1679
1282.81
1026.82
837.023
718.243
634.217
578.844
530.2
490.887
453.822
428.239
402.006
7006.69
7262.06
5686.44
4347.6
3772.1
2876.61
2361.43
1800.42
1420.93
1116.98
939.748
824.727
749.354
687.803
648.521
606.911
574.559
532.264
503.015
455.657
8153.02
6141.14
5106.38
3756.27
3224.14
2487.42
2062.47
1619.49
1336.64
1127.87
1007.55
930.812
880.04
833.939
805.328
765.742
734.951
686.835
656.238
591.714
7358.35
6845.51
4343.41
2891.21
2434.03
1862.44
1614.24
1341.64
1190.9
1094.3
1039.32
1014.03
981.515
942.114
923.525
894.499
858.565
791.769
754.139
700.192
7660.21
4198.21
1923.79
1360.25
1115.64
874.157
716.034
591.691
510.548
460.778
426.322
408.418
388.821
365.344
345.348
314.292
293.911
259.431
241.424
201.477
8880.17
5244.24
4431.82
2551.18
1390.63
811.557
523.825
363.676
291.072
255.256
237.06
225.232
217.809
210.678
205.431
197.926
191.968
184.193
181.193
174.992
4463.76
10051.7
9944.18
4717.74
2797.11
1396.83
1331.21
1060.18
1114.58
1012.36
1059.53
1019.41
1059.33
1062.57
1091.7
1103.98
1134.11
1146.84
1167.65
1185.77
9910.27
10083.2
12501
6827.47
4005.77
2092.02
2008.06
1574.76
1533.49
1300.11
1289.51
1198.83
1206.92
1170.49
1175.08
1157.61
1157.24
1148.04
1143.67
1139.68
10401.3
8832.33
12409.4
8532.21
5357.12
2681.76
2407.79
1763.11
1674.99
1393.18
1355.28
1222.55
1202.64
1138.97
1125.53
1088.63
1076.48
1051.94
1039.92
1019.85
28400.8
11715.5
10195.4
5982.44
4785.48
2894.1
2723.75
2002.64
1857.92
1485.17
1407.87
1244.68
1225.18
1154.83
1130.49
1068.42
1043.43
1001.83
984.653
953.98
18240.5
17059
13001.2
6577.78
5717.61
3455.04
3025.18
2086.43
1794.36
1400.12
1303.33
1156.62
1122.41
1048.14
1017.07
969.114
952.742
923.331
908.542
875.908
23255.5
15074.3
7840.42
5495.04
4691.45
3124.86
2519.37
1909.52
1625.25
1318.2
1248.76
1123.79
1097.01
1023.36
1000.27
950
935.588
907.759
893.591
855.22
18651.4
11996.7
8179.83
4628.62
4672.77
3543.73
2689.09
1886.26
1559.95
1278.04
1196.93
1100.86
1049.29
973.04
944.407
906.881
897.083
886.288
877.655
837.513
15073
10503.3
6309.11
4467.44
3193.58
3040.69
2738.7
1758.81
1447.84
1216.09
1122.09
1052.21
1002.98
951.168
920.939
875.31
871.265
869.85
872.244
842.829
8227.09
12057.5
11129.6
5523.95
3805.01
2664.92
2270.33
1730.52
1365.69
1106.34
933.277
820.112
823.055
864.393
885.615
859.918
851.908
846.836
850.125
822.528
36324.5
17125.6
8886.17
4768.6
3221.39
2454.54
2063.32
1650.61
1375.19
1091.21
848.641
678.086
693.904
792.951
842.302
805.664
784.586
775.758
781.388
772.986
26485.7
14740.8
6835.94
4397.85
3562.78
2528.01
2285.47
1885.63
1599.65
1280.41
1002.06
827.849
785.798
790.274
783.119
709.121
694.831
689.888
698.317
720.216
25998.1
10401.1
6262.18
4725.5
4557.38
3366.51
3000.21
2362.85
1898.25
1446.21
1127.9
892.016
792.258
742.882
710.704
665.844
651.867
649.11
657.22
688.536
10178.7
9018.64
7529.67
4923.67
5167.63
3942.41
3608.61
2562.33
2085.51
1516.7
1213.23
963.03
867.482
776.273
726.724
674.143
651.586
633.821
634.8
650.348
15313.2
10936.9
7425.74
5324.39
5149.81
3804.38
3520.32
2473.47
2037.59
1488.93
1232.39
984.003
875.459
779.544
729.471
673.962
640.633
613.878
608.448
611.758
16981
10946.3
8654.57
5553.55
4925.98
3423.77
3074.23
2065.24
1756.38
1271.38
1140.5
943.447
888.986
797.395
763.61
703.755
673.484
637.571
622.733
612.153
6081.69
7784.9
7354.56
4994.82
4292.96
2981.37
2558.83
1752.3
1514.83
1166.46
1106.17
977.087
946.727
870.304
842.92
783.739
751.909
706.621
687.461
657.584
12023.2
7941.91
6263.27
4397.11
3756.95
2603.95
2285
1615.28
1495.29
1238.04
1232.22
1143.59
1129.66
1060.31
1039.68
977.739
943.267
886.101
861.575
810.779
15960.8
7424.31
5006.69
3661.21
2845.6
1994.08
1826.53
1404.72
1431.3
1307.78
1371.26
1342.6
1329.62
1241.91
1206.31
1143.97
1114.4
1062.14
1047.49
1007.59
3417.62
2852.83
1744.29
1225.68
1003.5
759.825
644.841
548.698
495.997
459.72
434.679
409.806
384.358
345.414
300.696
251.85
222.423
196.522
187.229
165.721
654.354
771.787
559.04
865.39
752.727
870.314
646.091
526.295
505.929
410.58
717.848
613.304
572.652
434.7
594.65
943.67
891.479
904.554
674.967
1068.61
952.244
456.724
867.545
779.736
599.178
465.527
910.876
788.499
201.165
184.17
136.696
915.137
844.312
911.348
807.496
127.679
132.417
120.549
785.53
666.121
769.894
658.756
106.738
116.779
98.08
628.865
532.937
620.492
510.514
77.4107
89.7028
76.7739
485.186
367.764
475.716
403.376
48.7694
77.7091
69.6432
334.16
289.465
384.682
330.296
54.0537
67.3583
67.5179
287.987
295.433
317.328
288.736
65.2828
67.7339
66.0146
299.843
305.599
281.336
258.04
59.401
63.5941
45.0762
305.504
309.358
249.351
226.009
136.939
264.377
120.596
947.611
768.204
878.623
676.054
123.233
113.97
120.065
736.143
649.008
630.12
573.483
107.906
121.7
119.071
615.381
517.764
558.057
506.966
94.3655
115.069
90.9663
489.053
416.461
486.007
424.259
70.9022
86.8576
91.0769
391.38
332.638
408.853
389.49
73.553
94.4335
96.9397
320.16
291.582
387.072
375.622
70.6394
95.6147
84.8964
283.865
258.446
366.878
330.473
47.2361
82.2839
48.2422
247.208
225.949
307.029
231.362
114.559
236.741
124.682
721.292
630.083
711.369
664.131
110.256
113.014
92.2844
603.085
553.183
623.831
503.976
111.343
91.778
110.365
539.329
501.253
497.923
544.671
95.1022
123.219
143.339
487.331
452.435
567.366
600.385
104.159
144.282
141.251
446.805
437.582
601.8
580.164
100.946
136.505
117.203
434.941
413.222
561.73
490.401
85.5549
110.45
89.057
400.37
354.539
464.222
377.584
49.4115
84.7332
48.3383
329.248
234.177
343.898
217.523
119.236
236.183
105.74
717.451
644.033
783.255
770.447
73.9289
94.4146
65.8609
594.211
473.391
759.195
698.358
107.56
66.7978
85.2865
473.973
554.412
692.755
718.121
144.325
98.3218
139.004
586.224
637.789
745.469
805.511
144.64
148.744
151.88
640.731
613.714
801.982
726.19
120.074
147.03
123.865
591.912
510.272
681.589
560.683
88.06
118.977
84.2304
479.525
376.611
507.908
350.756
45.8934
76.7532
43.4176
335.991
212.282
293.366
187.767
1055.08
1167.83
968.78
1763.52
1443.2
1640.53
1311.54
802.282
917.217
772.103
1299.49
1072.44
1226.17
1004.6
629.238
724.751
596.02
1008.22
826.961
939.805
775.991
448.613
557.588
471.066
767.827
637.167
730.633
621.645
363.361
447.797
385.729
606.118
548.998
592.422
515.063
357.374
369.55
330.823
539.493
517.676
492.415
434.485
357.517
320.724
292.358
512.539
492.038
419.403
383.704
348.551
283.39
252.772
484.778
464.178
375.099
352.294
919.244
1172.61
813.093
1564.13
1249.37
1475.02
1119.99
754.346
755.281
668.282
1175.13
974.467
1042.7
885.833
596.526
645.365
578.801
914.559
763.982
845.935
744.31
478.069
556.137
486.857
722.586
617.551
722.039
579.225
384.312
466.794
431.207
586.112
496.483
537.139
447.188
326.589
424.903
405.926
469.059
399.958
429.576
402.783
285.791
396.579
355.57
382.872
346.258
398.563
368.088
245.717
330.297
254.439
337.697
326.171
350.642
298.231
778.705
998.146
823.053
1397.32
1106.41
1403.66
1154.39
651.077
762.919
616.63
1032.65
879.581
1072.54
913.273
578.626
607.427
643.228
843.764
759.173
895.838
887.782
518.12
661.102
682.818
743.205
614.79
886.324
855.445
484.189
681.647
647.811
577.306
507.602
837.642
763.408
453.318
626.733
547.059
494.195
478.098
733.052
628.958
387.345
517.456
416.534
470.688
416.702
590.211
461.294
258.925
375.592
244.35
389.539
316.779
417.289
326.599
800.598
1072.55
988.857
1405.89
1171.17
1660.35
1542.15
603.513
969.885
891.95
1093.57
947.882
1494.43
1343.02
666.315
879.285
887.08
936.913
946.535
1306.25
1238.71
729.935
906.368
927.491
948.126
916.323
1220.98
1122.87
685.181
912.352
807.783
894.059
801.482
1074.64
915.063
566.878
760.189
621.222
765.017
643.575
857.491
680.616
414.512
563.971
391.965
598.835
457.001
615.846
439.213
238.341
333.529
218.464
410.143
320.282
391.438
307.489
1523.01
1761.04
1392.12
2221.25
1693.79
2022.7
1576.9
1135.33
1298.14
1058.14
1533.88
1272.97
1463.11
1184.05
874.49
989.653
819.094
1194.49
993.031
1109.14
928.352
688.847
772.527
661.05
938.744
828.51
880.264
766.823
600.911
631.166
550.848
801.845
743.425
736.017
651.248
563.956
527.077
466.208
730.24
693.807
626.433
565.401
530.739
450.501
414.182
681.886
643.327
550.737
520.32
492.686
405.875
382.144
630.356
589.294
514.595
499.665
1329.74
1542.65
1196.94
1879.77
1520.11
1719.32
1385.64
1026.61
1115.89
942.812
1417.81
1153.33
1296.68
1091.83
804.942
898.962
788.754
1082.01
910.896
1038.98
909.371
754.581
723.801
754.195
798.102
719.551
758.985
790.045
594.568
589.465
607.159
655.13
567.464
621.432
637.469
422.908
388.981
376.317
581.842
507.932
400.815
375.73
368.942
378.183
363.33
492.056
466.711
379.877
387.616
352.402
350.777
305.477
464.134
469.241
388.301
387.949
1185.81
1514.52
1239.53
1702.74
1378.35
1776.61
1466.97
940.467
1156.38
998.769
1292.02
1100.23
1384.4
1222.65
808.443
978.397
952.637
1052.57
938.398
1189.87
1101.47
830.872
738.669
831.495
830.144
796.474
703.894
877.601
686.774
501.897
701.605
428.898
680.834
392.079
710.71
460.969
746.262
635.469
442.934
444.975
748.831
632.124
415.682
595.026
466.799
445.499
429.701
594.626
497.768
326.576
426.943
346.42
421.654
400.53
474.389
430.059
1273.33
1845.68
1684.02
1838.51
1542.82
2266.2
2010.76
1046.79
1624.19
1447.24
1459.78
1295.95
1916.74
1666.9
1018.07
1402.41
1307.98
1263.66
1172.86
1600.63
1426.86
952.008
1279
1148.53
1136.42
1005.25
1368.07
1164.69
816.212
1093.53
921.914
958.661
820.69
1097.12
904.459
648.466
861.77
678.335
775.71
643.995
841.57
663.399
462.743
614.535
447.829
602.15
496.719
611.022
490.332
340.907
406.363
329.79
471.922
425.563
464.606
411.516
1734.99
2097.22
1629.27
2614.69
1862.92
2323.38
1807.45
1311.72
1510.45
1223.03
1702.55
1450.68
1676.81
1378.92
1032.99
1147.38
965.446
1377.48
1190.98
1305.35
1119.22
876.138
916.967
802.512
1143.84
1056.95
1066.77
945.252
792.656
771.441
686.554
1038.09
984.845
914.49
835.656
739.839
662.198
604.826
968.862
927.066
816.773
788.615
686.423
592.189
568.287
915.841
877.365
788.282
791.128
626.682
564.317
548.686
863.187
816.552
791.71
782.731
1575.9
1779.04
1443.02
2171.97
1769.77
1993.92
1647.71
1193.93
1352.33
1141.03
1648.69
1358.92
1555.02
1332.68
946.926
1085.52
945.753
1285.24
1093.72
1266.62
1077.53
784.552
905.644
729.799
1039.16
907.799
1017.23
853.751
644.275
661.26
499.948
871.104
772.798
795.548
643.914
544.716
462.946
413.352
748.893
719.878
609.43
576.294
515.162
413.297
423.469
723.728
747.72
587.153
654.256
520.139
428.779
437.851
754.689
764.416
672.668
704.381
1436.77
1858.14
1539.14
1973.79
1642.66
2084.89
1776.29
1152.79
1457.09
1290.74
1556.85
1352.78
1697.93
1511.87
974.852
1252.69
1140.15
1290.4
1102.72
1454.31
1256.91
751.525
1098.51
961.747
1042.19
865.436
1187.41
994.802
531.159
915.758
785.782
805.64
659.708
939.54
801.435
466.327
745.592
633.613
626.766
593.903
766.258
704.855
455.458
600.42
522.883
603.272
662.382
699.901
700.308
446.553
506.13
470.211
677.962
703.353
700.932
694.419
1624.51
2393.26
2093.78
2197.48
1876.27
2701.09
2307.04
1367.45
1989.34
1718.73
1789.37
1585.05
2177.55
1857.78
1210.41
1646.08
1448.34
1524.71
1318.89
1769.98
1503.22
1012.08
1381.45
1160.5
1244.77
1038.83
1414.57
1163.28
817.158
1091.02
896.38
980.313
833.442
1094.13
911.354
646.479
834.982
666.326
795.468
723.829
860.144
745.03
522.839
619.967
516.688
713.343
697.316
720.422
672.251
465.468
495.728
446.354
694.44
681.777
661.45
630.127
1915.93
2412.47
1884.64
3091.37
2153.78
2712.35
2218.19
1517.22
1751.35
1455.53
2016.93
1808.71
2076.11
1785.24
1262.25
1383.57
1193.3
1744.63
1524.42
1710.7
1487.6
1137.7
1138.67
1015.57
1489.6
1429.2
1426.96
1298.54
1068.88
985.762
910.599
1423
1346.22
1268.97
1192.27
1012.32
893.975
880.775
1336.46
1301.37
1182.55
1204.33
965.291
885.449
895.076
1300.56
1248
1213.81
1219.74
904.59
896.159
883.107
1240.98
1196.06
1219.62
1199.95
1855
2093.69
1740.68
2662.25
2219.68
2489.9
2145.61
1439.7
1647.65
1421.67
2080.12
1781.17
2040.71
1787.44
1164.89
1350.94
1138.59
1698.32
1458.83
1698.51
1421.99
969.491
1070.97
898.769
1390.21
1239.35
1332.02
1130.24
840.25
842.448
697.54
1202.95
1112.59
1075.86
943.159
810.356
667.328
659.204
1100.45
1137.96
926.491
990.933
857.049
685.013
772.191
1163.23
1193.36
1044.5
1131.36
867.835
791.228
814.842
1197.62
1185.03
1143.62
1145.92
1735.12
2164.24
1872.83
2447.39
2141.77
2506.64
2298.49
1443.4
1795.86
1600.06
2049.87
1814.44
2209.53
1965.96
1160.55
1534.39
1305.66
1725.45
1438.77
1873.13
1561.42
906.685
1226.65
1018.6
1344.53
1130.23
1456.37
1211.87
707.449
962.036
827.139
1073.47
942.714
1150.95
1025.92
669.528
796.983
766.361
926.626
991.843
1009.21
1054.45
775.935
773.556
796.927
1045.07
1129.97
1083.66
1118.91
812.504
800.829
793.612
1140.79
1137.46
1121.41
1107.14
1973.59
2804.68
2382.08
2694.83
2403.42
3257.83
2761.36
1668.2
2242.84
1909.7
2296.7
2023.57
2583.01
2210.06
1363.6
1815.87
1528.78
1929.23
1610.35
2088.33
1745.54
1061.22
1432.56
1179.52
1501.83
1253.04
1610.15
1368.92
860.399
1111.74
939.202
1190.26
1062.98
1288.39
1151.32
785.83
892.489
801.324
1043.49
1072.71
1097.37
1064.59
790.212
783.2
751.652
1085.49
1104.77
1045.29
1045.32
778.363
742.923
715.082
1104.48
1085.51
1026.61
1010.03
717.882
688.161
645.829
688.587
683.371
723.004
678.64
755.212
753.513
715.188
805.85
720.538
791.649
694.962
704.236
624.019
634.262
456.026
674.8
646.24
552.551
787.541
831.977
824.824
856.704
792.237
823.823
819.089
751.09
721.168
788.164
742.004
756.062
711.031
782.398
789.311
835.563
860.079
811.138
826.96
716.845
822.726
739.803
479.66
719.767
734.991
679.802
576.38
776.702
550.395
557.648
489.064
555.039
527.252
587.973
508.821
525.765
572.325
454.913
394.846
521.164
585.76
338.206
456.934
427.695
419.732
336.46
468.649
411.428
318.432
623.814
686.976
682.539
698.749
652.302
668.372
653.622
577.784
583.833
647.52
562.807
617.764
533.602
607.77
553.503
412.539
658.386
515.325
615.965
357.155
596.781
481.159
337.364
482.919
472.884
431.215
329.347
534.003
778.214
661.626
725.924
482.706
758.013
568.574
738.475
908.076
883.586
930.34
992.788
866.487
930.945
971.956
880.982
824.678
912.881
918.993
846.175
853.002
947.176
873.195
864.658
851.633
953.204
746.354
919.346
912.615
814.084
507.583
764.505
803.326
603.708
765.054
857.929
943.813
1034.1
1006.58
1032.39
971.963
1005.66
972.476
910.443
938.777
892.89
993.286
875.722
973.594
933.665
671.132
467.241
645.482
382.126
665.574
386.63
643.573
797.61
803.167
840.636
888.869
780.378
825.498
856.741
770.316
732.269
811.423
787.994
757.457
740.436
823.19
695.512
445.433
538.338
755.904
400.374
727.82
713.382
673.06
380.88
492.843
644.908
387.016
640.351
678.887
808.429
902.745
852.964
869.557
841.755
865.716
814.375
776.375
790.157
741.022
828.803
742.382
828.255
777.723
358.659
459.484
339.046
762.375
761.849
751.523
753.982
330.47
275.712
252.584
720.199
682.759
697.96
649.548
285.423
242.962
223.256
630.986
586.055
617.019
560.26
217.729
193.929
162.692
506.663
442.417
474.009
396.701
155.752
132.389
105.435
381.478
323.3
327.777
268.155
111.82
91.923
89.0532
282.915
263.164
239.823
236.001
94.8009
89.8857
94.3866
261.436
264.608
240.332
257.17
75.2938
102.926
92.3961
270.039
301.351
268.093
307.708
373.582
332.56
297.445
714.661
714.39
784.555
799.252
367.044
264.654
253.949
406.864
404.782
372.667
205.437
353.098
149.876
148.479
326.602
313.451
360.306
136.948
279.059
117.314
107.45
270.038
264.054
298.163
101.037
200.356
94.6241
84.2427
214.12
199.213
222.772
77.7527
139.722
58.2233
56.1406
134.286
124.112
142.565
53.9914
151.171
48.793
58.6281
118.586
125.475
149.493
59.5541
171.202
60.9057
64.8426
156.308
165.006
168.182
66.3071
168.036
68.1015
66.8662
181.124
183.247
170.162
65.7297
97.2669
90.3604
61.7489
255.24
272.614
199.996
211.137
426.763
815.608
490.124
1176.06
947.95
1130.44
899.436
395.249
174.761
240.525
410.918
388.964
410.992
181.272
362.474
127.787
131.338
368.664
365.414
364.831
127.735
335.152
117.142
124.58
343.526
328.372
345.233
123.132
288.5
98.4191
114.179
279.956
268.529
299.679
111.113
207.88
80.7485
87.9624
228.802
208.495
227.051
79.4553
203.191
71.2365
76.8033
184.867
184.901
200.376
80.3267
197.894
73.1726
82.927
181.831
178.684
202.298
81.8628
161.51
64.3799
74.9067
161.092
155.071
176.797
67.45
60.8549
82.2118
59.7072
176.416
180.899
178.048
168.466
435.367
607.401
403.489
950.557
691.418
891.248
687.338
282.241
173.077
241.189
356.798
317.216
330.312
171.105
286.608
107.348
108.319
291.471
296.328
282.385
105.523
292.072
113.234
107.588
304.398
303.838
291.894
107.902
292.292
102.115
106.981
285.607
275.444
291.948
106.609
308.382
97.706
115.205
261.548
265.723
306.042
117.554
294.465
104.959
117.123
273.436
272.468
304.313
113.432
241.339
92.0911
98.2331
249.275
237.1
254.945
93.0722
196.595
77.6235
83.6323
209.772
192.508
212.548
78.3288
58.0906
70.2796
53.2803
177.118
176.087
165.979
172.832
363.192
465.832
339.054
829.832
691.439
762.788
692.879
278.193
169.345
216.108
322.777
300.4
308.818
159.835
198.885
88.4878
89.1825
275.86
242.02
225.446
75.3669
196.996
76.8592
63.4689
211.828
223.26
184.914
65.5841
342.253
131.754
108.533
332.428
354.122
312.546
121.242
407.25
146.887
148.829
389.001
389.962
403.475
150.245
368
135.003
144.828
372.682
356.724
388.555
136.968
274.083
104.585
112.937
297.701
275.413
301.973
103.628
158.946
71.501
75.7114
206.088
184.907
187.959
63.2976
47.1414
57.038
43.6883
151.44
159.149
140.585
145.239
325.459
429.12
362.851
698.717
759.989
766.267
858.542
309.847
350.038
354.433
837.621
883.847
945.881
999.961
307.109
352.933
344.011
891.988
887.774
1013.83
1003.93
296.54
327.871
310.661
889.483
879.3
970.882
921.444
259.572
288.097
269.483
829.528
741.513
839.263
769.823
214.542
248.714
226.582