/*--------------------------------*- C++ -*----------------------------------*\
  =========                 |
  \\      /  F ield         | OpenFOAM: The Open Source CFD Toolbox
   \\    /   O peration     | Website:  https://openfoam.org
    \\  /    A nd           | Version:  10
     \\/     M anipulation  |
\*---------------------------------------------------------------------------*/
FoamFile
{
    format      ascii;
    class       volScalarField;
    location    "3.5";
    object      k_0;
}
// * * * * * * * * * * * * * * * * * * * * * * * * * * * * * * * * * * * * * //

dimensions      [0 2 -2 0 0 0 0];

internalField   nonuniform List<scalar> 
12920
(
358.252
849.282
944.62
907.889
746.433
619.067
523.852
438.412
321.322
209.739
140.079
107.08
92.7356
81.2694
74.5524
69.7586
68.3334
66.692
65.6129
62.7813
878.325
1060.78
1424.11
1511.95
1249.01
818.195
526.667
393.791
302.644
260.829
224.77
189.314
156.848
135.705
125.114
119.066
116.468
116.305
116.884
119.581
1394.08
1729.14
1438.56
1351.77
1278.61
1153.18
858.276
535.978
350.638
260.618
203.658
170.23
155.079
146.015
137.605
128.624
122.294
116.597
113.763
107.833
714.296
930.62
917.548
973.154
981.276
860.603
598.914
434.039
326.597
266.673
231.284
210.502
193.76
175.49
159.755
144.097
131.534
118.539
112.596
103.854
604.128
1855.95
1301.95
1109.95
877.598
749.75
612.601
556.745
507.011
482.652
427.669
339.128
254.022
195.623
167.511
149.669
136.41
120.854
112.944
102.003
3506.45
5115.73
3664.72
1738.72
1058.82
866.36
711.563
622.225
510.603
419.592
312.309
234.028
187.093
163.841
150.255
136.069
125.293
112.871
107.821
97.7143
12252.7
3099.04
1904.21
1205.52
909.809
823.363
675.966
586.859
479.779
381.725
283.806
217.485
183.103
164.292
148.424
132.173
119.916
108.724
104.554
96.2949
6032.49
4284.22
2504.11
1548.92
874.412
725.662
480.23
341.64
319.883
256.978
192.594
129.828
99.936
94.6406
175.919
142.469
120.503
107.337
103.095
97.1433
11859.1
8101.95
4316.87
1936.7
846.734
406.782
327.82
167.259
120.419
98.8233
65.5505
48.369
58.0237
67.4585
115.028
142.666
121.52
106.972
97.866
92.6414
2912.61
3579.49
3070.49
2418.99
1567.81
717.085
231.734
131.736
120.846
101.729
88.494
70.7041
73.6136
67.7905
87.4538
102.355
96.5697
88.862
81.3598
81.6535
741.957
2722.53
2400.58
1906.48
1314.21
677.509
244.277
108.159
112.649
106.739
95.4232
105.254
96.5089
83.1141
77.3741
100.301
89.4919
79.5766
72.7921
73.3871
5160.71
2913.38
1762.95
1357.34
940.477
502.197
223.23
103.722
73.8013
122.231
146.87
140.714
112.171
81.9403
62.9837
93.7897
82.9239
71.7448
65.4871
65.9729
4312.77
2690.57
1661.74
1002.93
717.413
640.596
394.064
310.999
312.822
302.147
281.548
238.525
184.166
111.572
99.5602
86.2169
76.4904
68.269
62.735
61.7657
3700.07
2916
1980.46
1369.07
904.382
722.546
638.262
626.756
612.858
585.809
510.402
388.629
280.405
189.881
131.277
100.039
84.328
73.9453
66.2054
60.6608
15094.2
8771.8
2621.65
1533.4
1093.59
946.806
766.864
680.373
598.096
517.168
433.048
353.423
270.965
195.236
141.745
110.451
92.4091
78.619
71.5247
61.359
4849.74
1453.72
783.338
919.297
980.43
956.289
788.43
660.16
522.383
410.472
314.966
238.596
185.687
148.147
123.888
108.225
96.9365
83.5625
76.7892
65.023
730.908
654.531
475.38
565.852
782.313
828.358
725.114
620.874
500.167
389.095
279.152
198.854
156.207
134.175
122.736
113.92
108.695
96.9299
89.2666
74.4938
1238.95
1304.49
918.506
495.22
495.032
596.186
595.231
562.929
468.651
366.047
269.622
201.199
163.952
145.24
137.044
131.072
127.464
118.511
112.111
95.8477
1733.87
1237.28
865.843
564.367
479.089
500.095
490.326
458.42
381.935
305.544
237.848
188.928
163.147
155.065
154.294
153.062
149.672
138.175
127.948
107.362
1189.78
670.273
403.591
328.649
316.861
307.055
277.316
239.43
206.718
178.251
153.546
134.961
123.407
114.017
108.818
102.724
98.0681
87.0692
80.2587
64.9891
288.198
853.063
1698.88
1751.9
1536.97
1281.99
1083.7
854.084
597.485
400.498
282.262
219.757
180.863
158.5
149.75
148.543
149.367
150.52
154.048
155.209
5670.19
5489.23
4532.83
3672.69
2312.65
1677.81
1078.98
868.603
703.17
648.78
547.445
453.051
380.086
348.791
341.755
341.356
342.805
346.257
350.885
363.133
1422.16
5391.41
4777.67
4459.88
3724.2
3007.83
1657.41
1065.13
761.199
608.661
483.653
432.383
413.948
403.743
389.767
376.386
366.602
356.513
349.003
335.479
891.834
1919.96
3138.71
3426.93
3053.07
2166.2
1306.53
1007.62
770.51
676.499
600.789
564.01
513.518
475.109
442.425
411.634
384.232
354.391
338.562
316.448
1467.94
5840.85
4192.37
3088.81
2215.59
1879.06
1476.71
1372.84
1211.77
1145.41
999.706
797.066
599.713
495.507
458.609
427.278
395.674
355.137
332.866
304.015
9208.55
10255.5
7965.9
4202.56
2612.8
2123.58
1667.19
1441.4
1163.02
972.629
757.057
593.395
498.832
449.085
417.562
385.035
357.073
325.933
311.563
284.926
31690.5
7734.38
4767.23
2835.33
2307.44
1986.85
1584.95
1354.13
1105.19
897.651
691.339
547.898
476.279
433.828
394.543
361.032
330.691
304.719
293.731
276.232
9141.91
7323.47
5282.96
3300.75
1943.92
1762.71
1420.39
1131.26
983.315
747.496
574.175
442.293
410.544
402.248
396.872
336.938
299.733
279.71
274
274.644
17145.2
10099.4
4424.79
3167.8
1389.79
1283.47
1252.96
960.464
755.788
576.365
414.043
359.913
359.388
356.429
345.169
313.71
277.715
259.537
257.001
264.781
11169.5
10003.2
6506.97
4619.5
2667.48
1952.54
1187.04
874.973
711.946
563.172
450.682
367.343
316.137
274.581
235.762
229.888
226.421
226.267
228.397
246.713
7166.21
8309.93
5025.84
4035.17
2059.09
1617.12
1018.09
734.863
630.406
563.29
507.606
479.852
440.118
356.21
248.015
223.738
211.386
201.502
201.559
215.116
14668.8
6586.36
3702.45
2881.93
1686.95
1368.74
977.649
735.136
602.915
695.572
729.949
659.127
530.788
365.786
225.265
218.439
198.118
186.882
186.713
195.18
11414.3
6480.17
3660.77
2510.94
1723.44
1665.93
1389.93
1367.11
1292.87
1187.48
1027.85
821.389
570.385
320.864
251.068
220.094
201.044
186.891
182.331
184.836
13507
6572.48
4435.83
3280.34
2262.35
2089.3
1895.44
1862.23
1717.62
1500.21
1250.52
944.674
653.206
421.165
309.475
256.585
228.26
204.935
189.302
180.219
16660.9
9774.37
4993.79
3878.15
2739.2
2562.27
2092.47
1898.86
1629.72
1399.95
1150.42
922.095
674.793
465.027
347.81
288.669
249.855
217.821
199.213
177.108
13369.2
5212.46
2427.51
2582.65
2558.92
2376.93
1922.47
1657.39
1320.41
1063.95
799.976
614.648
480.555
386.302
331.071
295.594
267.187
235.443
216.826
187.38
6753.9
2421.86
1380.03
1767.51
2096.84
2082.36
1722.43
1484.29
1176.37
924.397
649.266
484.277
407.55
366.268
339.261
319.057
306.374
279.481
258.326
218.423
4884.2
2969.18
1527.5
1309.87
1335.05
1602.66
1476.76
1327.38
1066.05
844.84
621.916
502.511
442.016
410.293
393.325
377.748
367.027
342.171
326.342
286.306
6146.96
3654.78
2292.33
1724.65
1243.36
1324.49
1175.25
1038.67
842.508
676.513
537.378
470.983
443.465
434.417
433.713
430.578
420.071
387.308
358.481
315.701
537.776
1731.24
1177.33
912.298
755.607
704.632
583.123
488.169
393.619
322.136
275.225
255.948
245.603
241.95
240.792
239.108
233.442
210.251
193.494
159.619
234.005
2348.23
2453.92
2110.71
1681.78
1356.99
1066.18
752.002
506.965
356.51
278.165
239.366
218.471
205.096
198.749
193.893
192.977
190.762
190.838
188.669
5335.41
7925.64
6611.4
4284.55
2335.45
1591.6
1069.41
869.361
718.57
681.445
612.319
574.544
536.738
524.339
519.427
520.945
526.606
537.765
549.674
564.96
15114.8
9304.83
7068.04
5353.73
3481.46
2515.41
1605.27
1272.98
958.126
823.523
709.159
667.175
628.204
607.726
585.675
571.555
560.555
551.626
544.772
533.988
4550.29
4103.76
5238.28
5168.73
3674.43
2400.13
1587.5
1296.32
1029.83
922.89
820.604
763.191
700.122
657.026
616.154
582.763
555.242
528.596
512.889
488.114
7241.75
7039.48
5800.45
4369.61
3091.67
2421.52
1893.1
1659.1
1406.81
1254.44
1050.85
890.841
761.645
689.76
637.123
591.052
551.993
512.279
490.835
457.17
16515.7
12853.4
8634.15
4972.48
3418.45
2695.65
2068.59
1709.01
1347.83
1107.8
893.271
760.384
675.04
619.44
575.771
534.983
503.304
470.699
454.397
422.047
26840.4
9726.21
5837.97
3673.65
3129.59
2481.99
1944.29
1583.37
1262.75
1023.87
839.158
732.668
659.133
603.388
551.142
507.688
473.896
447.013
434.107
408.713
6156.07
8016.9
6528.73
3993.83
2737.97
2349.78
1985.96
1511.11
1225.34
933.477
771.247
668.325
624.64
574.854
519.655
463.427
430.106
416.253
413.102
406.846
10399.2
7406.74
4931.42
3143.2
2065.54
1959.25
1916.95
1373.58
1065.44
814.928
658.903
590.81
557.357
522.226
472.976
425.759
396.344
390.001
392.146
401.568
12894
10863.5
7807.43
4997.29
2851.06
2203.44
1653.86
1246.78
962.136
761.84
621.587
496.423
404.876
361.763
342.827
352.955
353.584
356.788
365.206
390.445
14452.6
9758.88
6075.49
4198.87
2308.68
1991.46
1491.73
1106.02
901.056
794.652
541.649
448.532
459.723
391.958
324.423
333.432
326.833
326.905
330.026
348.68
10447.5
7768.46
4676.01
3217.79
2279.68
1833.7
1532.64
1193.25
1033.05
1012.13
923.025
776.012
601.017
419.461
329.222
313.759
295.024
290.672
292.533
309.575
14009
6968.35
4413.93
3209.5
2685.44
2622.33
2191.04
1958.48
1665.14
1419.67
1142.66
872.865
590.866
406.862
355.587
317.157
294.625
282.886
281.159
289.453
23302
8380.13
5363.77
3961.21
3289.54
3186.16
2814.18
2480.75
2011.39
1640.2
1279.98
949.205
688.693
514.837
420.71
360.028
322.135
295.382
280.367
276.561
13791.9
8371.22
6085.93
4718.54
3708.72
3415.52
2797.67
2422.46
1941.77
1576.72
1237.58
941.847
696.546
537.945
445.367
383.381
338.011
303.922
282.746
264.62
16682.2
6935.13
4687.66
4135.73
3559.03
3059.72
2460.58
2032.01
1575.64
1231.02
937.607
734.529
589.893
499.406
441.693
399.19
363.779
328.898
306.202
275.143
14028.8
7580.35
3607.58
3343.87
3121.22
2670.88
2121.12
1748.44
1339.82
1039.32
793.835
658.659
574.21
517.852
481.043
451.077
427.544
391.602
366.569
319.818
3612.77
4032.21
3124.14
2883.18
2490.09
2257.13
1832.18
1550.86
1215.07
985.721
802.337
707.43
645.285
604.863
580.456
554.626
533.769
496.489
472.96
418.175
4458.46
5183.65
3442.21
2504.18
1948.1
1719.3
1426.41
1227.88
1008.68
867.314
761.777
711.242
679.407
657.399
651
639.301
614.909
559.603
524.969
476.895
1571.83
2729.97
1859.86
1363.45
1075.91
885.672
716.207
585.503
486.044
424.033
385.322
366.298
350.631
335.669
324.545
301.949
280.222
249.133
233.95
198.26
3237.1
4568.13
3702.27
2385.98
1654
1196.58
843.471
548.851
385.864
302.806
261.259
236.699
223.187
213.658
209.335
203.983
201.994
198.108
196.252
190.927
4662.37
8729.63
8113.83
4709.05
2335.87
1448.39
1042.01
876.951
790.978
770.18
741.293
734.339
722.73
728.613
734.463
748.178
767.833
786.993
806.585
822.199
9105.28
9130.61
9133.96
6285.91
3506.84
2251.15
1655.31
1379.23
1147.18
1024.62
935.034
894.341
859.075
841.753
824.329
815.472
807.695
801.744
796.146
788.169
4110.96
5101.25
8226.56
7197.17
4330.06
2551.66
1841.77
1491.14
1260.28
1122.72
1025.46
956.992
900.187
858.548
823.679
794.918
771.874
748.349
732.963
708.364
13443.4
8161.38
7920.93
5336.37
3900.22
2747.09
2256.72
1840.56
1567.05
1339.55
1162.16
1032.43
945.667
886.408
837.285
789.538
752.521
714.575
692.861
657.138
13897.4
13425
10304
5746.19
4290.22
3082.55
2408.91
1875.34
1498.35
1222.83
1047.76
931.091
860.612
802.232
758.269
716.156
687.61
656.417
639.121
602.962
18572.8
13083.4
6781.45
4400.36
3859.13
2768.17
2204.9
1715.02
1395.94
1142.47
1005.37
909.268
842.604
781.481
732.052
689.252
660.199
634.541
619.471
585.278
20732.4
10516.1
7041.99
4230.87
3463.86
2827.04
2329.66
1695.25
1360.67
1075.63
944.368
856.426
794.144
721.42
676.52
633.05
613.908
607.119
602.652
583.108
9590.55
8834.71
5610.25
3383.86
2601.62
2466.54
2322.13
1573.58
1231.95
980.636
850.623
779.178
726.847
672.69
620.404
595.778
582.185
584.708
590.385
585.983
6609.62
9306.62
8946.48
5550.12
3154.32
2422.06
1946.45
1466.87
1120.45
899.698
748.761
613.097
531.256
515.213
531.227
558.287
556.915
560.669
571.642
576.622
13282.7
11702.1
7213.7
4189.28
2640.69
2205.6
1767.23
1348.19
1102.3
940.092
681.568
500.794
463.174
453.209
483.795
520.624
508.806
508.89
512.612
527.451
8318.37
9994.11
5516.36
3527.06
2814.17
2196.15
1930.84
1540.17
1329.62
1164.58
960.582
771.091
608.193
503.674
472.248
460.978
443.676
443.701
448.187
474.066
11731.2
7700.78
5117.34
3664.64
3556.39
3157.88
2665.16
2211.2
1793.51
1441.04
1109.33
829.198
617.044
512.208
487.806
447.701
429.004
422.324
423.876
443.467
6894.52
8443.87
6297.27
4360.48
4201.64
3774.51
3225.02
2633.44
2061.14
1606.14
1226.94
931.295
737.888
619.23
542.805
485.465
447.486
423.227
413.799
417.722
16751.4
8743.67
6991.34
4954.4
4449.9
3745.62
3187.06
2566.22
2020.64
1575.19
1226.08
945.888
754.86
637.047
561.56
501.933
456.487
423.636
404.135
394.433
29264.2
11025.9
6972.51
5060.4
4303.38
3359.11
2798.91
2139.01
1677.41
1281.2
1025.56
836.201
717.792
633.945
578.639
529.986
490.663
453.608
427.998
401.839
7031.69
7328.03
5685.79
4364.96
3784.01
2882.29
2364.16
1801.39
1420.51
1116.48
939.538
824.716
749.434
687.902
648.592
606.902
574.425
532.029
502.674
455.35
8367.85
6140.75
5116.88
3764.83
3232.73
2491.27
2064.68
1620.52
1336.97
1128.22
1008.05
931.329
880.519
834.342
805.598
765.833
734.865
686.61
655.811
591.247
7680.88
6905.14
4341.64
2896.08
2439.13
1865.71
1616.22
1343.24
1192.03
1095.56
1040.53
1015.07
982.187
942.497
923.738
894.413
858.069
791.118
753.608
699.739
7861.29
4118.2
1918.18
1363.74
1117.63
875.82
716.728
592.303
511.055
461.363
426.999
408.996
389.315
365.758
345.554
314.358
293.878
259.302
241.259
201.287
8931.71
5277.92
4460.78
2554.64
1387.69
809.185
522.404
363.103
290.971
255.367
237.243
225.439
218.011
210.865
205.588
198.043
192.051
184.263
181.257
175.047
4530.76
10010.5
9992.99
4725.89
2796.75
1396.73
1332.94
1061.29
1116.13
1013
1060.33
1019.84
1059.92
1062.92
1092.03
1104.18
1134.26
1146.84
1167.75
1186.51
9790.58
10043.1
12514.3
6784.01
3996.31
2092.95
2012.84
1577.33
1535.17
1300.94
1290.4
1199.34
1207.41
1170.65
1175.15
1157.53
1157.14
1147.81
1143.59
1140.29
10024.3
8752.26
12550.2
8580.36
5356.53
2679.32
2409.24
1763.35
1675.46
1393.2
1355.5
1222.5
1202.66
1138.8
1125.33
1088.36
1076.21
1051.59
1039.71
1020.25
28916
11738.4
10259.7
5998.76
4800.69
2903.36
2731.59
2006.73
1859.91
1485.97
1408.48
1245.18
1225.59
1154.86
1130.29
1068.04
1043.08
1001.42
984.396
954.288
18786.3
17411.7
13158
6609.65
5739.38
3461.27
3027.22
2085.39
1793.92
1399.7
1303.47
1156.66
1122.41
1047.95
1016.83
968.83
952.467
922.965
908.268
876.105
24472.8
15164.9
7882.44
5507.35
4706.78
3134.15
2523.85
1914.05
1626.91
1319.57
1249.65
1124.39
1097.23
1023.3
1000.08
949.706
935.294
907.381
893.287
855.304
17534.4
11965.7
8227.05
4633.67
4684.75
3549.53
2685.79
1886.06
1561.21
1279.15
1198.3
1101.73
1049.84
973.301
944.056
906.526
896.745
885.879
877.301
837.46
15303.4
10456.9
6315.34
4474.31
3201.16
3042.27
2735.83
1758
1448.41
1217.11
1123.43
1053.18
1003.65
951.619
921.631
874.896
870.9
869.422
871.876
842.757
8044.09
12015.1
11134.9
5507.55
3797.6
2659.74
2269.78
1730
1365.8
1106.51
933.453
820.306
823.889
865.438
886.681
859.574
851.502
846.369
849.721
822.488
36970.1
16531.8
8792.01
4788.9
3220.22
2453.72
2062.74
1650.34
1375.49
1091.16
848.517
678.156
694.579
794.087
843.563
805.28
784.2
775.366
781.107
773.152
26952.3
14411.4
6744.8
4414.08
3561.17
2529.43
2286.15
1886.86
1600.93
1280.49
1001.9
827.858
786.543
791.415
784.36
708.796
694.524
689.624
698.191
720.599
25688.3
10217.8
6255.22
4756.4
4556.63
3371.7
3004.23
2363.76
1898.11
1445.36
1127.59
892.168
793.23
743.989
710.424
665.531
651.646
648.921
657.185
689.002
9763.21
9006.12
7527.41
4951.3
5167.26
3952.8
3607.38
2558.49
2081.6
1513.72
1211.13
961.875
866.873
775.86
726.275
673.74
651.249
633.583
634.694
650.719
15523.6
10914.2
7452.66
5353.89
5147.75
3815.6
3516.65
2470.95
2033.91
1486.74
1230.56
982.992
874.823
779.161
729.048
673.57
640.302
613.635
608.353
612.059
17675.5
10973.5
8654.85
5583.08
4921.7
3431.89
3070.12
2063.77
1753.2
1270.26
1139.35
942.969
888.56
797.104
763.245
703.399
673.137
637.268
622.522
612.356
5935.62
7846.51
7358.72
5020.29
4287.19
2990.07
2555.19
1753.04
1512.88
1166.6
1105.77
977.223
946.59
870.192
842.652
783.408
751.532
706.272
687.192
657.718
11812.9
8014.58
6250.84
4425.3
3749.47
2610.96
2280.86
1616.29
1493.87
1238.68
1232.12
1143.82
1129.51
1060.09
1039.31
977.211
942.708
885.55
861.081
810.818
15581.6
7504.77
5003.32
3686.7
2839.03
2002.93
1823.55
1407.64
1431.14
1309.3
1371.88
1343.28
1329.45
1241.31
1205.65
1143.28
1113.63
1061.4
1046.93
1007.6
3606.87
2857.63
1748.61
1228.23
1005.5
760.752
646.044
549.558
496.985
460.628
435.52
410.454
384.755
345.478
300.524
251.655
222.326
196.493
187.2
165.681
654.132
772.377
559.463
864.964
752.486
869.754
646.128
525.967
506.265
411.133
717.596
612.91
572.655
434.507
595.426
945.18
892.262
903.998
675.363
1069.22
952.221
457.546
868.092
779.555
599.442
465.065
910.721
787.998
201.186
184.712
136.928
915.226
842.787
910.652
807.31
127.781
132.498
120.467
784.434
665.798
769.955
658.414
106.712
116.665
97.7904
628.386
532.003
620.051
509.842
77.0004
89.3564
76.9847
483.965
366.38
475.082
403.426
48.7765
77.9637
69.6044
333.188
289.75
384.618
330.286
54.3757
67.4136
67.6007
288.522
296.21
317.397
288.885
65.5015
67.7962
65.9602
300.629
306.188
281.478
258.012
59.5455
63.5278
44.9333
306.093
309.801
249.33
225.746
137.008
261.756
120.065
943.26
767.786
874.103
673.442
123.212
113.895
120.294
736.254
648.866
629.37
573.846
107.811
121.889
119.118
615.095
517.465
558.367
507.009
94.4241
115.014
90.7897
488.873
416.179
485.902
424.319
70.9415
86.8941
91.4301
391.023
332.647
409.241
390.341
73.6143
94.6963
97.0282
320.246
291.711
387.919
376.027
70.5638
95.59
84.8657
283.977
258.285
367.065
330.004
47.1353
82.171
47.6937
247.016
225.69
305.933
230.783
114.49
236.67
124.705
719.278
629.429
713.724
664.707
110.44
112.82
92.011
603.279
553.527
623.118
503.404
111.278
91.5846
111.143
539.618
501.51
498.146
546.809
95.1892
123.885
143.521
487.508
453.127
569.317
601.597
104.359
144.36
141.124
447.698
438.503
602.787
580.125
100.8
136.22
116.87
435.758
413.412
561.444
489.701
85.517
110.093
88.8205
400.37
354.087
463.438
376.616
48.8866
84.4892
47.9101
328.099
233.432
342.527
216.313
118.961
236.143
105.788
718.02
643.07
784.84
773.232
73.5952
94.412
66.316
591.914
473.087
762.157
700.774
108.33
67.3539
86.0875
474.134
556.875
695.522
721.198
144.521
99.1004
139.362
588.466
639.127
748.77
806.962
144.515
148.794
151.367
641.731
613.516
802.859
725.032
119.685
146.231
123.328
591.441
509.399
680.246
558.977
87.7339
118.383
83.7116
478.505
375.355
506.022
348.308
45.5091
76.1968
43.1229
334.409
211.133
291.206
187.071
1053.67
1166.8
968.456
1763.13
1441.49
1639.35
1310.8
802.314
917.241
771.726
1298.08
1072.57
1225.8
1004.01
628.339
724.267
595.409
1008.04
826.208
939.182
775.481
447.573
557.034
470.98
766.869
636.773
730.194
621.465
363.791
447.669
385.691
605.983
549.492
592.287
514.967
358.18
369.567
330.937
540.068
518.32
492.338
434.502
358.163
320.846
292.383
513.176
492.505
419.458
383.824
348.95
283.437
252.645
485.205
464.3
375.238
352.484
918.649
1162.89
810.251
1559.8
1248.44
1469.15
1117.59
754.091
754.33
668.504
1174.63
973.864
1041.41
885.62
596.198
645.567
578.867
913.963
763.586
845.833
744.359
477.768
556.124
487.067
722.262
617.309
722.071
579.739
384.251
467.257
432.063
585.882
496.203
537.722
447.883
326.659
425.784
406.366
468.775
399.827
430.423
403.238
285.658
396.825
354.936
382.811
346.279
398.821
367.478
245.508
329.194
253.852
337.742
326.277
349.941
297.476
777.751
1000.35
822.901
1394.71
1104.81
1404.81
1153.04
651.305
761.668
616.231
1031.65
879.505
1071
913.662
578.942
607.958
645.387
843.869
759.511
896.96
889.641
518.895
663.095
684.108
743.659
615.549
888.07
856.45
485.201
682.762
647.856
578.071
508.421
838.391
763.344
453.594
626.517
546.375
494.984
478.511
732.78
628.134
386.643
516.663
415.295
470.831
415.821
589.201
459.732
258.267
373.917
243.472
388.553
316.027
415.761
326.073
799.298
1074.4
991.847
1405.85
1170.07
1663.23
1545.93
603.586
972.897
894.569
1092.4
948.759
1498.07
1345.41
668.895
882.215
890.069
938.527
948.779
1308.82
1240.66
731.306
909.354
928.734
950.132
917.165
1222.65
1122.66
684.991
912.62
806.559
894.539
801.076
1073.93
913.563
565.969
758.78
619.406
764.399
642.44
855.803
678.464
413.013
561.924
389.478
597.523
455.296
613.599
437.218
237.461
331.379
217.874
408.55
319.799
389.904
307.055
1521.04
1759.88
1391.27
2219.64
1691.5
2021.43
1575.69
1135.5
1297.6
1057.47
1532.41
1273.03
1462.09
1183.14
873.799
988.981
818.586
1194.23
992.436
1108.3
927.795
688.659
772.093
660.885
938.171
828.619
879.797
766.666
601.445
631.047
550.747
802.081
743.8
735.893
651.099
564.567
526.985
466.21
730.621
694.085
626.28
565.314
531.122
450.545
414.301
682.078
643.251
550.665
520.294
492.688
406.014
382.34
630.211
588.862
514.572
499.625
1328.72
1538.33
1194.71
1876.96
1518.74
1716.8
1383.61
1025.89
1114.53
942.482
1416.57
1152.3
1295.12
1091.22
804.518
898.784
789.076
1081.12
910.38
1038.57
908.86
754.428
723.514
753.959
797.74
719.351
758.687
789.794
594.034
589.214
606.84
654.913
567.012
621.167
637.1
422.711
389.84
376.71
581.443
507.706
400.306
375.692
368.991
378.366
362.792
491.892
466.675
379.825
387.308
352.545
350.189
304.774
464.108
469.228
387.921
387.537
1184.13
1515.35
1238.19
1701.87
1376.64
1776.3
1466.06
940.323
1155.08
999.365
1290.71
1099.84
1383.81
1223.42
809.167
979.601
954.31
1052.39
938.029
1190.89
1102.29
831.007
739.316
831.992
830.858
796.896
705.017
878.041
687.694
502.429
702.77
429.885
681.978
392.855
711.664
461.361
745.904
634.571
442.758
445.015
748.19
631.102
414.895
593.944
465.357
445.426
429.204
593.53
496.851
325.834
425.649
345.932
421.121
400.011
473.646
429.657
1272.42
1848.41
1687.62
1837.72
1542.45
2268.16
2013.43
1047.87
1627.57
1449.32
1459.66
1297.07
1919.09
1667.87
1020.04
1404.66
1309.5
1264.99
1173.71
1601.68
1426.93
952.562
1280.14
1147.99
1136.96
1004.94
1367.7
1163.26
815.691
1092.61
920.331
958.179
819.828
1095.6
902.598
647.255
860.007
676.17
774.731
642.727
839.647
661.479
461.191
612.359
446.126
600.85
495.741
609.268
489.328
340.493
405.077
329.407
471.152
425.2
463.844
411.136
1732.62
2095.76
1627.92
2610.58
1860.91
2322.24
1806.41
1311.68
1509.27
1222.02
1701.14
1450.66
1675.84
1378.2
1032.44
1146.47
964.854
1377.21
1191.07
1304.77
1118.88
876.288
916.472
802.326
1143.94
1057.4
1066.48
945.123
792.931
771.278
686.355
1038.56
985.105
914.357
835.5
739.951
661.997
604.661
969.025
926.96
816.629
788.531
686.161
592.022
568.149
915.65
876.958
788.244
791.143
626.114
564.174
548.494
862.718
815.899
791.697
782.563
1574.35
1776.72
1440.94
2170.11
1768.38
1991.87
1645.84
1192.79
1350.68
1140.32
1647.35
1357.99
1553.62
1332.07
946.354
1084.99
945.627
1284.51
1093.25
1266.08
1077.06
784.27
905.249
729.805
1038.74
907.483
1016.81
853.379
643.869
661.161
499.624
870.771
772.447
795.161
643.639
544.459
462.681
413.298
748.592
719.748
609.18
576.228
515.047
413.197
423.182
723.662
747.791
587.117
654.335
519.978
428.44
437.463
754.743
764.322
672.753
704.347
1435.03
1857.56
1538.39
1972.92
1641.28
2084.69
1776.46
1152.3
1456.66
1291.42
1555.81
1352.44
1698.31
1512.59
974.996
1253.52
1140.63
1290.11
1102.35
1454.92
1256.79
751.406
1098.79
961.488
1041.84
865.028
1187.1
994.235
530.84
915.402
785.182
805.271
659.472
938.953
800.854
466.262
744.883
632.629
626.59
593.818
765.69
704.487
455.004
599.412
522.119
603.203
662.421
699.669
700.345
446.077
505.501
469.786
678.015
703.326
701.013
694.436
1624.27
2395.68
2096.18
2197.74
1876.83
2704.11
2308.9
1368.42
1991.39
1719.42
1790.05
1585.95
2179.32
1858.2
1210.86
1646.84
1448.05
1525.49
1318.75
1770.59
1502.52
1011.53
1380.77
1158.94
1244.38
1038.13
1413.9
1162.12
816.221
1089.41
894.555
979.594
832.743
1093.11
910.305
645.283
833.123
664.63
794.798
723.462
859.236
744.502
522.031
618.446
515.859
713.097
697.352
720.089
672.193
465.083
495.082
445.944
694.528
681.779
661.443
629.988
1914.58
2412.36
1884.55
3104.91
2159.07
2722.64
2222.72
1517.94
1751.24
1455.68
2024.06
1813.41
2080.17
1788.35
1263.36
1383.86
1193.71
1748.61
1527.06
1713.49
1489.87
1139.06
1139.1
1016.06
1493.21
1431.92
1429.22
1300.38
1070
986.244
911.006
1425.82
1348.08
1270.71
1193.94
1013.04
894.391
881.526
1338.69
1302.84
1184.35
1206.18
965.801
886.318
896.06
1302.37
1249.25
1215.78
1221.7
904.809
897.112
883.837
1242.62
1197.27
1221.54
1200.48
1854.47
2092.18
1739.54
2667.81
2222.76
2498.94
2148.3
1439.63
1647.02
1421.78
2083
1783.59
2042.93
1788.96
1165.06
1351.05
1138.53
1700.66
1460.48
1699.82
1422.65
969.684
1070.92
898.648
1391.86
1240.65
1332.61
1130.58
840.387
842.303
697.497
1204.24
1113.9
1076.21
943.833
810.978
667.35
659.646
1101.92
1139.69
927.314
992.332
858.111
685.684
773.29
1165.09
1195.33
1046.04
1133.22
868.655
792.348
815.779
1199.58
1186.64
1145.43
1146.68
1734.46
2164.67
1873.68
2453.12
2144.32
2513.07
2301.03
1443.74
1796.93
1601.37
2052.07
1815.81
2211.82
1966.79
1160.53
1535.54
1305.94
1726.56
1439.2
1873.61
1561.13
906.539
1226.73
1018.43
1344.88
1130.49
1455.9
1211.65
707.442
961.857
827.032
1073.71
943.25
1150.79
1026.37
669.972
796.951
766.838
927.317
993.087
1009.81
1055.65
777.036
774.297
798.041
1046.45
1131.7
1084.94
1120.45
813.474
801.986
794.603
1142.52
1138.94
1122.81
1107.57
1974.7
2808.31
2383.79
2695.55
2405.84
3267.9
2766.27
1669.63
2244.64
1910.47
2298.98
2024.27
2586.54
2209.21
1363.9
1816.9
1528.56
1929.56
1610.02
2087.43
1745.34
1061.04
1432.62
1179.18
1501.3
1252.83
1609.18
1368.39
860.317
1111.66
939.081
1190.15
1063.61
1287.81
1152.46
786.407
892.611
801.799
1044.29
1074.03
1098.12
1066.17
791.316
783.848
752.539
1086.94
1106.35
1046.31
1047.17
779.347
743.88
715.815
1105.95
1086.44
1027.64
1010.7
717.73
687.917
645.583
688.372
683.192
722.76
678.389
755.44
753.42
715.506
805.852
720.834
791.593
695.103
704.419
623.931
634.738
456.669
675.036
645.985
553.215
787.374
831.589
824.481
856.299
791.924
823.51
818.832
750.917
720.947
787.881
741.741
755.804
710.773
782.192
789.435
835.379
859.952
811.119
826.903
716.779
822.644
739.72
480.117
719.369
734.967
679.422
576.947
776.398
549.786
557.353
488.546
554.679
526.718
587.65
508.178
524.714
572.029
455.245
395.364
520.66
585.061
338.57
455.8
427.116
420.015
336.603
468.105
410.28
318.641
623.298
686.747
682.228
698.37
652.018
667.986
653.155
577.21
583.453
647.152
562.123
617.416
532.938
607.228
552.325
412.772
657.711
515.34
615.159
357.217
595.809
479.846
337.365
482.015
472.938
430.005
329.259
532.98
778.948
662.353
727.128
483.892
759.101
569.641
739.407
908.994
884.889
931.607
994.026
867.642
932.037
972.938
881.823
825.675
913.904
919.515
847.252
853.774
947.916
873.309
864.742
852.526
953.833
747.539
919.873
912.796
814.422
508.257
765.244
803.424
604.551
765.577
857.998
944.528
1035.03
1007.11
1032.76
972.784
1006.34
972.964
911.064
939.023
893.146
993.431
876.24
974.033
934.053
671.705
467.898
645.74
382.633
666.274
386.852
643.676
798.067
803.999
840.929
889.181
781.005
826.13
856.848
770.61
732.603
811.466
787.692
757.906
740.619
823.078
695.995
446.049
538.686
755.953
400.778
728.337
713.309
673.513
380.791
493.117
645.037
387.059
640.412
678.773
808.738
902.82
853.135
869.284
842.166
865.631
814.493
776.497
789.755
740.76
828.42
742.336
828.009
777.655
359.709
459.386
338.611
762.753
762.007
750.832
753.047
331.456
275.502
252.653
719.888
682.891
696.915
649.506
285.812
243.005
223.126
631.099
585.844
617.081
559.768
217.615
193.566
162.147
506.116
441.623
472.945
395.357
155.425
131.755
105.043
380.71
322.598
326.492
267.429
111.614
91.9132
89.2089
282.673
263.411
239.99
236.478
94.9121
90.083
94.7672
261.878
265.264
241.01
258.165
75.4757
103.236
92.6928
270.674
301.744
268.996
308.332
374.585
333.106
298.236
715.405
715.847
784.618
800.019
367.274
265.178
254.937
407.453
404.989
373.153
206.061
353.106
149.875
148.603
325.776
312.919
360.393
136.905
278.254
117.36
107.3
269.554
263.512
297.434
100.86
199.286
94.502
84.0815
213.231
198.217
221.996
77.4395
139.914
57.8612
56.0125
133.538
123.669
142.357
54.0234
151.718
48.9847
58.8262
119.014
126.311
149.956
59.7289
171.621
61.1653
65.0262
157.092
165.68
168.758
66.4592
168.236
68.302
66.952
181.631
183.64
170.466
65.7572
97.4807
90.2024
61.8355
255.49
272.78
200.091
211.37
423.623
810.448
485.429
1167.38
942.901
1122.97
895.817
393.643
174.183
239.354
408.331
387.457
408.789
180.706
362.639
127.758
131.282
368.686
365.489
364.878
127.719
335.268
117.098
124.707
343.398
328.208
345.36
123.261
288.557
98.5808
114.308
279.922
268.735
299.838
111.181
207.616
80.5239
87.6233
228.364
208.058
226.35
79.2818
203.615
71.3758
77.0308
185.153
185.183
200.854
80.5673
197.898
73.1783
82.982
181.944
178.733
202.452
81.816
160.628
64.2195
74.6939
160.813
154.796
176.222
67.0844
60.704
82.003
59.7998
176.106
180.779
177.738
168.046
432.637
605.908
403.032
945.785
689.065
889.662
688.349
281.888
171.967
239.903
354.371
314.862
328.881
170.544
287.222
107.507
108.563
291.897
296.843
283.426
105.704
292.262
113.295
107.654
304.678
304.072
292.094
107.924
292.819
101.985
107.039
285.496
275.355
292.339
106.733
308.938
98.068
115.506
262.139
266.531
306.72
117.762
294.069
105.025
117.069
273.873
272.806
304.292
113.186
240.892
91.932
97.9641
248.997
236.817
254.402
92.8438
195.557
77.2599
83.527
209.434
191.289
212.24
77.995
58.1853
69.9195
53.4114
176.921
175.858
165.768
172.863
362.942
465.451
338.681
830.493
691.892
763.318
693.754
277.612
169.08
215.486
322.775
300.424
308.361
159.38
197.211
87.5954
88.6526
274.156
239.242
223.743
74.8763
197.581
76.9164
63.4205
211.247
223.715
184.749
65.6929
343.671
132.165
108.934
333.872
355.281
313.902
121.653
407.495
146.883
148.944
389.496
390.276
404.107
150.181
367
134.624
144.407
372.156
356.065
387.644
136.494
272.846
104.176
112.506
296.701
274.382
300.845
103.188
157.567
71.074
75.2801
205.27
183.646
186.751
62.857
47.2633
56.8365
43.6778
151.263
159.253
140.539
145.377
327.428
430.788
364.838
702.681
765.483
770.829
863.933
311.929
351.916
355.84
843.636
887.827
951.011
1003.58
307.937
354.093
344.495
895.171
889.894
1016.2
1005.69
296.631
327.828
310.363
891.033
879.755
971.257
921.23
259.244
287.919
269.398
827.759
739.764
838.158
768.517
214.107
248.563