/*--------------------------------*- C++ -*----------------------------------*\
  =========                 |
  \\      /  F ield         | OpenFOAM: The Open Source CFD Toolbox
   \\    /   O peration     | Website:  https://openfoam.org
    \\  /    A nd           | Version:  10
     \\/     M anipulation  |
\*---------------------------------------------------------------------------*/
FoamFile
{
    format      ascii;
    class       volScalarField;
    location    "3.5";
    object      nut;
}
// * * * * * * * * * * * * * * * * * * * * * * * * * * * * * * * * * * * * * //

dimensions      [0 2 -1 0 0 0 0];

internalField   nonuniform List<scalar> 
12920
(
0.526826
4.77553
3.09628
5.10169
3.08595
2.92146
2.32155
2.05846
1.51881
1.14297
0.820272
0.705438
0.599691
0.527718
0.469906
0.431351
0.410077
0.383175
0.370793
0.348561
3.45094
7.55302
6.46563
8.7248
6.54751
5.35296
3.33478
2.95058
2.08558
1.82797
1.50253
1.29375
1.07079
0.979148
0.907448
0.874118
0.849626
0.840755
0.84699
0.889988
3.26763
6.83841
4.07073
5.86419
4.6784
4.7743
3.57077
2.94601
2.07143
1.72833
1.33965
1.21608
1.11091
1.08473
1.01011
0.952301
0.904968
0.864722
0.855451
0.851533
2.46897
5.21741
3.2368
4.35845
3.96761
4.17991
3.01427
2.68788
2.05362
1.85728
1.5798
1.53757
1.39522
1.30991
1.18877
1.08676
0.993551
0.904304
0.877523
0.864281
2.35479
9.55043
6.32176
7.45624
5.81504
6.13536
4.49418
4.33496
3.41364
3.25451
2.70682
2.16184
1.62113
1.37446
1.22096
1.13272
1.04038
0.935446
0.895653
0.866917
14.0879
15.7515
13.5426
9.40305
6.01158
6.51594
4.65754
4.46184
3.60885
3.18409
2.39151
1.9218
1.53491
1.38798
1.26302
1.15019
1.05323
0.946157
0.913507
0.870964
25.8468
11.3559
9.75163
7.76641
6.75289
6.42083
5.82202
5.42933
4.09531
3.35264
2.32368
1.83866
1.46759
1.32502
1.17893
1.0728
0.989276
0.906068
0.879551
0.841647
14.8815
14.8654
9.04229
8.82614
4.46074
5.0832
1.48894
1.4874
1.28581
1.05033
0.75235
0.497218
0.352013
0.323422
1.30876
1.10851
0.980959
0.884146
0.850693
0.819954
14.9293
19.8701
14.739
9.98015
6.46423
2.26686
0.606868
0.348262
0.248483
0.191525
0.124643
0.086596
0.105096
0.123189
0.399996
1.07792
0.937995
0.832678
0.755508
0.740404
7.6428
13.3526
10.8843
11.0417
6.25457
1.7012
0.423042
0.236775
0.213617
0.193151
0.165604
0.140979
0.141481
0.119771
0.299938
0.762252
0.715262
0.660236
0.607353
0.653014
3.03979
11.5998
9.33406
9.79174
6.29216
1.8383
0.394947
0.20045
0.212766
0.205445
0.182983
0.173573
0.145971
0.126441
0.280317
0.806425
0.713154
0.637631
0.599465
0.668686
16.2655
12.1244
8.24193
8.25179
5.45895
1.97588
0.388777
0.185545
0.136849
0.220877
0.229337
0.208877
0.168023
0.128796
0.250508
0.861594
0.758215
0.662304
0.612689
0.667694
15.0423
11.6245
8.7123
7.11763
3.87893
5.15289
1.11467
0.899863
0.77481
0.746885
0.730111
0.683901
0.560424
0.38485
0.880849
0.804574
0.731889
0.658566
0.614011
0.647966
12.7222
12.1024
9.74656
8.32457
3.92701
3.95556
3.03947
3.34415
3.25476
3.36205
2.93872
2.37668
1.7702
1.34405
1.02812
0.874281
0.771247
0.703337
0.644111
0.640565
21.6722
21.1829
11.7847
8.83142
4.83403
5.60395
3.79024
3.89839
3.27498
3.03059
2.53055
2.26062
1.82548
1.45899
1.14152
0.977548
0.866409
0.767199
0.713917
0.662623
9.73866
8.85875
3.48832
6.7398
5.33749
6.91875
4.81393
4.8119
3.32672
2.88633
2.1952
1.91087
1.55299
1.33601
1.11595
1.00034
0.894231
0.788675
0.733672
0.672817
3.18984
4.54308
1.83168
4.59756
4.50392
6.43209
5.01126
5.31515
3.50187
3.01229
2.07237
1.69759
1.3961
1.27326
1.13915
1.05954
0.977874
0.867084
0.801304
0.725055
2.57682
5.45861
2.75753
2.53409
2.44446
5.36461
4.02497
4.84399
3.27942
2.81563
1.94125
1.59256
1.32506
1.24798
1.14827
1.09333
1.02184
0.943577
0.889101
0.814618
3.31911
7.93009
3.55028
4.77962
2.65652
5.00052
3.60315
4.50422
2.84367
2.50766
1.75429
1.47329
1.22819
1.21472
1.16513
1.14958
1.10425
1.02199
0.944547
0.821929
1.95864
5.46398
1.57987
4.0675
1.72609
3.24698
1.74308
1.94859
1.32261
1.22265
0.935287
0.822427
0.694671
0.632433
0.571388
0.526655
0.476169
0.411796
0.377509
0.32291
1.2434
4.77678
14.1292
23.3943
19.8268
19.2276
14.518
11.9561
8.18835
6.37421
4.94718
4.30661
3.41323
2.946
2.68964
2.62987
2.56623
2.50844
2.55478
2.59297
9.71617
37.4947
37.9288
38.903
27.8242
22.5366
18.3578
17.8994
16.2353
15.5055
13.3422
11.4941
10.6529
11.1372
12.1845
13.1125
13.7473
14.1248
14.3508
14.7156
6.08212
24.1917
34.266
35.1821
36.9191
25.8869
17.4869
14.8772
13.7795
12.7189
11.1389
11.1369
11.8583
12.6725
13.1365
13.4481
13.7747
14.033
14.1802
13.9969
2.80367
15.5651
28.5072
35.1761
35.6311
27.0299
18.6771
17.2338
15.2279
14.7061
14.0746
14.435
14.1243
14.1868
14.2795
14.2657
14.0535
13.7375
13.7144
13.59
2.17663
32.8811
36.8957
34.4942
28.9701
26.9279
24.0067
24.3703
23.029
22.259
19.7732
16.1525
13.0721
12.9357
14.1173
14.7525
14.6238
13.9447
13.6447
13.3049
33.7969
48.5997
47.0302
40.6337
34.7479
31.3913
28.7872
26.959
24.18
21.8534
18.8327
16.252
15.121
14.9029
14.9193
14.7081
14.4219
13.9026
13.7323
13.0373
73.3921
55.3906
46.5497
33.9012
33.9386
32.1604
28.7836
26.3934
23.4629
20.5892
17.0741
14.4006
13.4795
13.2983
13.2978
13.6643
13.7281
13.4407
13.3204
12.7158
40.9951
49.981
39.8145
30.8617
24.994
28.3032
22.1401
20.0823
19.3688
16.1353
13.3866
11.1273
10.9212
11.3318
12.7325
12.2426
12.4794
12.4785
12.4408
12.3998
60.2677
43.3196
24.6366
23.5647
17.7109
18.9437
17.9732
16.7577
15.38
12.7059
9.754
9.47267
10.6835
11.4523
11.9031
12.0339
11.5689
11.4062
11.4737
11.7423
45.5458
49.9363
49.2789
42.9305
26.9646
14.573
15.2667
16.7347
15.8623
14.3538
12.2902
11.3397
9.94657
8.55858
7.66688
9.33916
9.65174
9.92953
10.2401
11.0419
17.9839
49.4965
40.2327
35.0388
19.857
15.1911
10.6634
13.4082
14.7621
15.0675
13.6972
12.0235
10.6899
8.94529
8.08789
10.0539
9.54604
9.1167
9.38972
10.5545
39.979
55.1972
38.4847
32.2018
20.1012
16.6023
13.1497
12.8139
13.3264
16.8852
17.3029
14.9917
12.0083
8.53373
7.79854
10.4312
9.75459
9.52881
10.0105
10.5787
26.1387
43.1629
36.0327
29.4047
21.8076
22.8525
19.0777
20.0954
19.5674
19.103
18.4246
16.3549
11.8957
7.38569
9.5283
9.91993
9.99828
9.815
10.0065
10.3471
37.6602
48.6284
44.0688
36.1609
26.8718
26.4594
25.9098
27.955
28.3388
26.5583
23.4341
18.5785
13.8946
10.5573
9.74146
10.0315
10.396
10.2353
10.0375
10.0973
43.5887
36.3832
35.0132
37.99
31.12
32.662
29.9094
30.0383
27.7888
24.9698
21.4876
19.284
15.6825
12.402
11.1603
11.3206
11.3878
10.9471
10.5035
10.0067
45.0643
34.1755
25.7405
31.9063
35.6541
36.2718
32.2951
29.7871
25.0706
21.5451
17.7645
16.5969
15.2612
13.8179
13.0365
12.6947
12.1561
11.4207
10.8572
10.1374
24.3218
18.0389
15.173
22.2503
30.5143
33.8462
30.9777
28.0803
23.5283
19.4871
15.0261
13.68
14.0007
14.2216
13.9822
13.5754
13.1736
12.2459
11.5113
10.5636
19.0655
19.5812
14.2483
14.535
17.7652
26.0488
27.4844
26.0813
22.0051
18.2267
14.5734
14.0574
14.7652
15.2785
15.245
14.915
14.5702
13.7825
13.3297
12.3656
15.322
31.0515
25.1399
20.5247
17.5966
23.4878
23.869
22.5536
19.0322
15.9127
13.544
13.6385
14.3713
14.9537
15.1373
15.1501
14.9812
14.3554
13.7045
12.8511
0.819661
11.2916
12.2035
16.9403
11.7331
14.8615
10.7208
12.1389
7.45645
6.66703
4.93756
4.60645
4.01329
3.93598
3.75474
3.66842
3.38652
2.96903
2.76561
2.46695
0.423872
14.5906
27.4871
25.8019
22.9832
20.6487
15.1374
11.5375
8.22185
7.16944
5.78795
5.29596
4.56293
4.15377
3.81108
3.6364
3.49859
3.36029
3.34124
3.32458
10.6088
56.3914
56.8669
51.017
36.7074
30.232
24.781
22.6621
20.5875
20.225
19.1641
18.9997
18.9755
19.5333
19.9446
20.2306
20.4386
20.7533
21.0145
21.2442
31.1664
44.6845
56.7466
58.4794
46.9216
37.224
27.8445
26.2765
23.4807
22.2192
21.1057
21.5137
21.805
22.205
22.2892
22.3905
22.4693
22.4651
22.4399
22.0647
19.4211
21.8456
43.3792
55.7396
52.2274
40.4513
32.0411
29.5598
26.4234
25.5275
24.4924
24.3234
23.7111
23.4651
23.126
22.8041
22.4976
22.0591
21.8804
21.2541
15.2999
44.9305
56.7614
56.9708
49.7096
44.0534
39.4319
37.4624
34.2115
31.6159
27.7795
24.8431
23.2438
23.2276
23.394
23.1026
22.5872
21.7644
21.3923
20.4642
38.9509
65.5967
66.0948
62.024
55.3702
49.7626
44.4321
40.2241
35.5489
31.6701
28.0516
25.723
24.4814
23.8023
23.2578
22.5933
22.0127
21.1946
20.7876
19.6074
51.557
78.4648
69.4506
58.2177
56.0309
50.1713
43.8847
39.4955
34.0743
29.8552
25.9867
23.8187
22.6768
22.1571
21.699
21.3816
20.9064
20.2989
19.9327
18.9407
31.3106
45.6512
58.9436
51.9732
47.4785
47.6743
41.3512
35.3793
31.7691
26.3487
22.8671
20.6305
19.9337
19.4948
19.1705
18.6979
18.4345
18.4164
18.4017
18.273
50.977
60.6739
48.7171
45.9776
38.7717
39.0524
33.9501
31.9203
27.5077
22.752
19.572
18.8174
18.6984
18.2373
17.4255
16.2882
15.8577
16.1946
16.5024
17.2857
29.2549
65.9751
65.6025
59.8126
42.6615
30.8841
32.0163
30.3053
26.8285
23.2765
20.0392
15.7424
12.5642
11.8792
12.0098
12.996
13.6572
14.4503
15.1352
16.6722
69.1937
68.9292
60.2274
51.4438
34.1856
29.9159
26.0448
26.4595
25.5642
24.6327
7.22685
6.35022
10.7391
11.984
11.996
13.4092
13.7357
14.3187
14.8964
16.2245
24.2676
70.6465
60.2372
48.541
38.1763
32.5264
29.0748
26.8197
26.1125
26.8256
24.9867
21.431
17.4916
14.006
13.9975
14.1694
13.9118
14.2758
14.7158
15.6385
33.5599
61.6467
55.2113
46.8422
42.0527
42.9352
37.4733
35.9498
33.0573
30.9498
27.8198
23.1214
17.4093
14.3816
15.4856
15.0883
14.7927
14.6943
14.8401
15.2417
49.9157
57.1326
59.4598
50.6301
45.2322
46.0055
45.8453
44.9827
41.0718
36.6595
31.1091
25.1649
20.6332
18.0646
17.2421
16.7232
16.1048
15.3973
14.9774
14.882
38.6482
46.6305
57.5155
55.4051
49.8607
50.7058
47.4632
45.2847
40.0894
35.3668
30.5535
26.5275
22.3114
19.6372
18.4903
17.8505
16.9636
15.942
15.1835
14.4696
58.7819
49.5878
48.9958
54.6992
55.9035
53.9109
48.1393
43.0104
36.4339
31.7758
27.7791
25.3393
22.8499
21.0267
19.7883
18.8178
17.7718
16.6115
15.7768
14.6435
39.8326
37.445
35.9393
45.0563
52.5737
51.5872
45.5007
39.9777
33.4098
28.5542
24.9258
23.6907
22.9196
21.9297
20.9929
20.0674
19.1966
17.9673
17.1294
15.7185
9.58773
30.9374
30.407
35.2539
40.7071
44.7662
41.3461
36.9386
31.1102
27.1276
24.5849
24.135
23.8195
23.209
22.5305
21.688
20.9815
19.819
19.1857
17.7762
18.0865
42.7135
37.8461
35.7466
35.1112
36.8029
34.4311
31.3919
27.2795
24.5791
22.9517
22.4881
21.9531
21.2818
20.9613
20.5497
19.964
18.8615
18.3133
17.4236
3.71907
29.4838
22.7071
20.6611
17.5451
16.6717
14.315
13.577
10.0767
9.67958
7.33138
6.91599
5.87853
5.54519
5.09104
4.60325
4.07902
3.60452
3.47124
3.19295
6.91663
30.927
34.1109
27.434
22.3101
17.4297
12.8173
9.31609
7.38933
6.82292
5.87843
5.48303
4.92715
4.55994
4.16548
3.94474
3.70445
3.46024
3.35486
3.19963
14.0346
62.8953
65.5802
56.7986
37.6962
29.4497
23.9845
23.0295
22.1197
22.4387
22.1385
22.214
21.7669
21.6296
21.1668
21.1637
21.2794
21.5682
21.6797
21.5831
25.0608
47.4689
65.0398
70.118
52.036
41.6181
34.4791
32.4264
29.4788
28.1894
27.1282
26.8773
26.2859
25.9899
25.4598
25.1704
24.8369
24.4883
24.1397
23.8054
12.6459
34.989
59.6112
68.3884
60.6872
48.9574
40.0092
36.7284
33.1407
31.737
30.0108
29.032
27.8537
27.0376
26.2623
25.6173
25.0371
24.3088
23.714
22.8484
41.0857
55.4259
69.9088
71.4347
62.0963
54.2939
48.0489
43.7693
39.2502
35.7315
32.2185
29.8504
28.3182
27.4221
26.5392
25.5541
24.7345
23.7131
23.0362
21.7243
35.1918
81.3871
79.8388
75.4677
67.8073
60.2645
51.9594
45.9184
40.2905
35.8471
32.2601
29.8548
28.1664
26.8087
25.7018
24.6428
23.8032
22.7361
22.0716
20.6019
62.2183
75.2225
82.3526
72.9946
67.3962
58.9699
50.306
44.8101
38.2891
33.9804
30.3827
28.2702
26.5745
25.3375
24.2132
23.301
22.4397
21.6044
21.054
19.8198
37.0947
69.3511
75.2241
67.8991
61.3565
58.4716
51.2841
42.4126
36.8081
30.9748
27.9172
25.58
24.2308
22.6548
20.054
19.8976
19.7312
19.8373
19.7856
19.4565
25.9706
62.4195
72.3533
59.8119
52.5662
52.3891
41.9295
38.7157
32.6637
27.2768
24.4123
22.6769
21.3117
19.9398
17.6284
16.5277
17.1036
17.9237
18.3918
18.6524
22.5682
66.841
72.832
71.6676
54.9018
44.5815
42.7951
36.4937
30.3114
25.869
22.2202
17.7781
14.9409
14.2294
13.8728
14.65
15.7633
16.7037
17.2043
18.1116
74.0657
77.7519
74.1217
61.9147
47.6552
42.8984
38.7298
33.9187
29.5362
26.3394
12.6709
9.71781
11.551
12.277
12.6197
14.2732
15.2782
16.206
16.6207
17.7717
33.4445
60.3195
73.4147
60.942
51.6463
45.1927
41.0302
35.9872
32.3849
29.4942
25.6541
21.7253
18.0375
15.2458
13.587
13.9637
14.5344
15.1921
15.5046
16.646
51.7265
71.8577
67.9227
60.0793
57.7643
55.1646
49.3014
44.4216
39.6178
34.673
29.3182
23.7391
19.359
16.8853
15.7893
15.5895
15.416
15.3427
15.3659
15.8863
10.0838
57.9271
69.6383
61.668
60.1972
59.4103
56.364
51.8409
44.9784
38.7302
32.28
26.9103
23.1021
20.986
19.5572
18.2067
16.8535
15.8946
15.402
15.2336
73.4681
59.1646
71.5752
65.7446
62.9098
60.7725
56.586
50.8185
43.9777
38.2078
32.7402
28.1321
24.4377
22.1357
20.5647
19.0656
17.4882
16.2126
15.3179
14.6014
77.3755
62.9698
65.3903
67.5852
66.4866
61.4302
54.8507
47.2981
40.5154
35.0043
30.7688
27.3135
24.6727
22.6335
21.0899
19.678
18.3249
16.9778
15.9529
14.7076
42.8866
49.9646
56.8652
62.6574
64.0929
58.1232
50.6095
43.0488
36.6687
31.8908
28.8879
26.8854
25.169
23.5533
22.3202
21.0956
20.1079
18.8641
17.8925
16.076
39.552
50.0036
51.96
54.6806
56.0013
52.598
46.1496
39.6995
34.3392
30.8526
28.7468
27.2835
26.0086
24.7169
23.8463
22.7707
22.015
20.9221
20.2883
18.4473
32.6175
53.0853
51.5173
47.6377
45.2423
40.9447
36.9277
32.7413
29.464
27.2919
25.7595
24.6532
23.3821
22.1636
21.5562
20.9425
19.9348
17.9551
17.1657
16.6117
13.8992
27.3445
24.6603
20.6794
18.7067
16.5831
14.629
13.6492
10.8625
10.7026
8.31029
7.93855
6.59258
5.99504
5.20811
4.41301
3.87348
3.40974
3.3337
3.09825
25.3531
31.6428
25.7428
28.3375
9.7413
8.80878
4.34623
3.90503
2.8031
2.77798
2.32284
2.20771
1.95041
1.82658
1.65503
1.5552
1.46537
1.38255
1.37814
1.41588
7.06207
45.8093
71.9927
56.9831
34.4197
24.5314
19.1623
21.6166
17.0762
18.6314
16.001
16.5929
15.5154
15.6015
15.1392
15.2764
15.4499
15.4606
16.0185
17.6777
32.7854
44.3616
54.6205
74.3815
48.5902
38.9507
33.7331
31.5474
26.6643
27.4358
22.5573
22.5597
20.0836
19.7229
18.5815
18.4281
18.0274
17.7891
17.981
19.5638
35.925
43.2403
70.6683
76.9687
59.0935
47.9094
34.7898
35.5771
26.8273
28.1235
23.2672
23.1434
20.6775
20.0177
18.7453
18.2765
17.6927
17.1531
17.172
18.527
70.1821
68.9081
80.5261
77.9198
64.1351
54.7325
47.0354
41.7966
36.9649
33.0596
27.7583
26.5746
22.316
20.7849
18.755
17.9169
17.1825
16.496
16.4285
17.5124
40.0644
93.543
88.6925
82.0878
68.826
60.1243
43.5649
43.1809
32.5595
31.6938
26.1705
24.1251
21.205
19.7525
18.3756
17.3725
16.6508
15.8418
15.7155
16.5833
45.1226
91.7446
87.0542
70.7336
68.3035
60.146
49.131
43.0067
36.6967
32.3133
28.4381
26.0575
21.1356
19.4578
17.4551
16.601
15.927
15.3144
15.1866
15.8495
67.2371
59.8267
82.015
72.4655
50.2054
58.6717
50.6565
41.7521
35.1141
30.1481
26.9503
24.5776
22.5506
20.7975
16.2922
15.2727
14.9938
14.6748
14.6758
15.45
34.9915
49.2639
77.8981
49.9421
54.8906
52.2366
45.1506
36.6944
30.0193
25.0897
22.4782
20.6623
19.3156
18.1243
16.9959
14.7452
14.2969
14.1708
14.2303
15.3257
16.1189
59.0281
64.636
74.397
42.3381
49.1813
42.6028
32.6625
25.9654
21.6061
18.2202
15.3158
14.7319
15.2561
15.6844
14.3901
13.813
13.6884
13.8229
15.376
79.0182
84.268
54.0637
60.8671
44.8185
45.4041
39.6634
30.9441
25.645
21.4725
16.831
13.1888
12.2991
13.7556
14.9534
13.932
13.2475
13.1132
13.3657
15.3396
68.0237
73.5511
47.4176
63.9081
41.6518
48.8008
42.9804
34.8109
29.5593
24.4382
19.6158
16.1718
14.7549
14.4789
14.5464
13.3695
12.5099
12.6228
12.9454
15.3733
71.8047
73.53
66.6356
66.3609
44.7942
58.8958
51.4869
44.1352
36.9995
30.3095
24.3486
19.6635
17.0033
15.6773
13.9135
12.68
12.5279
12.475
12.8761
15.1711
25.7242
63.0149
61.2247
69.5758
48.3171
64.6659
46.0277
50.1538
32.6294
30.489
22.5102
19.9292
16.8376
15.4476
13.6353
12.8607
12.364
12.2934
12.5443
14.5
56.6097
52.3929
78.0676
72.7632
52.7693
64.1968
44.292
48.4458
32.8754
32.7104
23.3218
21.1311
17.5757
16.1855
14.2619
13.3221
12.6908
12.3678
12.4868
14.0733
51.4829
70.9453
64.1779
75.6415
53.3892
62.6524
42.1734
44.6224
29.5295
31.0157
21.9632
21.3473
17.5037
16.5659
14.6727
13.9296
13.0858
12.6281
12.4279
13.7673
17.6186
54.9435
56.6256
71.9431
49.6613
58.4206
38.7514
39.8617
27.4799
28.8513
22.2756
23.0661
18.8217
18.1317
16.2846
15.4287
14.4645
13.8352
13.5242
14.4639
24.9928
62.1273
52.6681
64.8569
40.6773
52.4135
31.6129
36.5743
25.137
28.5548
21.9013
23.2626
19.6043
19.287
17.69
16.9577
16.1053
15.3969
15.0104
15.8876
52.1516
58.7743
52.204
51.6233
32.1447
39.192
24.5268
29.3263
20.8635
25.3582
18.9779
19.764
16.9547
15.9854
14.9206
14.5311
14.3106
14.1273
14.1665
14.8005
6.40267
29.9611
11.0082
19.6346
7.41653
15.466
5.57519
7.82757
4.23714
4.27685
3.18221
2.90249
2.39485
2.10212
1.78901
1.54839
1.41358
1.296
1.27208
1.20222
20.9344
23.416
7.59028
25.9596
23.3173
25.4024
7.99986
16.8486
6.87029
6.36527
22.2134
18.5147
7.17376
7.00318
8.3867
26.3498
24.8375
26.1555
8.80832
28.7669
26.0384
6.18325
24.1229
21.6629
7.64447
6.51554
25.0965
22.3865
0.407451
0.589508
0.26038
10.3356
11.5637
11.648
12.5625
0.269241
0.239042
0.209216
11.8158
11.5868
12.5087
12.0148
0.20902
0.202883
0.175098
11.2955
10.1852
11.8329
10.9217
0.147152
0.162487
0.143899
9.43173
7.4621
10.4755
9.4529
0.0885129
0.144221
0.13512
6.9883
6.6915
9.17776
8.69207
0.0976732
0.133434
0.136372
6.84908
7.75605
8.77879
8.80798
0.120186
0.135662
0.127339
8.12488
8.96332
8.69909
8.09106
0.104568
0.119665
0.0790177
9.08076
9.40365
7.81163
7.13568
0.249333
0.409017
0.219673
9.38968
12.4746
7.6989
10.5978
0.21626
0.216023
0.230804
12.6238
12.3922
11.039
11.8745
0.201538
0.234489
0.227891
12.2681
11.6166
12.0332
11.8822
0.177621
0.2187
0.174802
11.2769
10.0327
11.5485
10.6096
0.139839
0.167913
0.167122
9.55206
9.02473
10.3589
9.90421
0.144131
0.166923
0.154548
9.04523
8.59054
9.68566
8.89071
0.127173
0.149106
0.12976
8.3364
7.44635
8.5775
7.64753
0.0795024
0.125961
0.0770997
7.10143
6.70026
7.1215
5.74038
0.206866
0.451188
0.211438
6.4622
9.3214
7.09832
8.91741
0.207109
0.191505
0.16298
9.95245
11.1809
9.24813
9.77683
0.212374
0.166579
0.212563
11.4634
11.8432
10.343
12.7879
0.185765
0.236004
0.244129
11.7743
11.3493
13.4902
14.1364
0.179202
0.236143
0.21521
11.2046
10.5932
13.927
12.6541
0.153889
0.205811
0.175843
10.3079
9.31353
12.0771
10.3357
0.129365
0.165599
0.136679
8.95981
7.96521
9.75843
7.98234
0.080618
0.131135
0.0814925
7.41863
5.64793
7.3003
5.12976
0.210664
0.374441
0.171565
8.21227
9.34004
9.55872
11.0643
0.135316
0.153463
0.106611
9.32589
9.16806
11.1972
10.9233
0.199879
0.105982
0.121705
9.74082
12.5585
10.8668
11.4925
0.232494
0.136884
0.184536
13.3698
14.2618
12.0773
13.3549
0.21522
0.19742
0.206804
14.0624
12.7995
13.4181
12.5254
0.178392
0.202928
0.177156
12.2319
10.4458
11.9401
10.1347
0.13581
0.173142
0.130318
9.8098
7.77373
9.24461
6.51167
0.0799592
0.123626
0.0798575
6.98639
5.06955
5.56205
4.54576
17.149
17.0982
16.9654
29.1514
30.3498
30.1771
28.6599
15.8191
16.7173
15.741
28.7926
25.9239
27.7945
25.3192
13.6155
15.4369
14.1755
25.0298
21.8367
24.5442
22.0169
10.2921
13.6032
12.2117
20.6182
17.9193
21.1406
19.1384
9.32494
11.8739
11.3476
17.3852
16.8073
18.669
17.3013
10.3697
11.3238
10.9526
16.8355
17.074
16.7847
15.1563
11.3818
10.7332
9.92754
17.1267
17.0446
14.6978
13.7463
11.3195
9.63117
8.55491
16.9394
16.6788
13.5511
13.1899
16.7087
10.9171
14.2442
27.7751
27.998
23.2557
24.8382
16.0946
14.6687
15.2853
27.4527
25.374
24.722
24.0048
14.8358
15.3818
15.0602
24.6717
22.3514
23.7212
22.4826
12.7864
14.7111
13.3653
21.5426
19.3923
21.9214
12.7939
11.5209
12.8324
11.5453
18.6556
16.0963
11.4599
9.06436
10.3225
11.1513
10.2094
15.1675
12.6627
8.68522
8.88345
8.89849
9.93317
9.02892
12.1042
11.2246
9.30363
10.1418
7.8147
8.46995
7.00499
11.1291
11.6378
10.09
9.75862
12.821
11.5654
12.3104
21.8192
23.4199
22.5968
22.9353
14.4904
12.5447
13.0912
23.4648
23.3689
22.8276
22.8974
15.1202
13.73
16.2958
23.3289
22.7301
23.2551
24.4629
14.1305
16.9651
17.3975
22.6492
13.4639
24.6245
23.7017
12.3977
17.1107
15.4647
11.8665
9.63917
23.0741
20.7368
11.0174
14.7789
12.677
9.45499
10.9554
19.8982
17.299
9.59776
11.9714
9.7447
11.5265
11.9408
16.4167
13.7575
6.98726
8.86596
6.6184
11.6332
10.6726
12.9025
12.3294
12.9534
15.3719
15.4478
24.8991
23.9515
29.3544
28.6959
12.6954
15.4588
14.9738
23.4881
22.9834
28.1847
26.4394
16.0917
14.8313
15.3238
23.3029
24.6905
25.9908
25.761
17.5667
15.8759
16.9558
24.9316
24.3227
25.8568
25.3588
15.6757
16.9648
15.7327
23.7281
21.3059
24.8225
22.3804
12.7974
15.0789
12.7309
20.3989
17.5139
21.3428
17.7038
9.50483
11.6438
8.29591
16.5044
13.5732
16.3421
12.8031
6.51237
7.26435
6.0077
12.7108
12.213
12.0926
11.9456
33.6583
34.3611
31.7982
37.4791
40.1084
42.9136
38.0415
28.5567
30.7301
27.7523
37.8787
33.492
36.3739
31.9377
23.9846
26.8178
23.9317
32.1163
28.0246
30.6047
27.0164
20.0984
22.9985
20.8977
26.8323
24.4577
26.0223
23.7507
18.8693
20.3578
18.5993
23.9179
22.7374
23.0397
20.6149
18.748
17.946
16.0863
22.4323
21.5708
19.8207
17.7831
18.3813
15.6058
14.7009
21.2896
20.402
17.3036
16.3755
17.779
14.5423
14.2254
20.1209
19.2858
16.2172
15.7735
31.0733
27.4721
27.9402
40.8877
37.3253
37.5085
34.6897
27.6956
27.579
26.2889
35.8486
31.5944
33.5307
30.3444
24.1401
25.8443
24.1662
30.294
26.8845
29.3918
26.8224
23.6522
22.4958
23.4175
24.6268
22.5429
23.8227
24.7226
16.6174
19.0436
18.3454
21.0679
16.5613
19.9351
18.6486
13.1139
6.1971
7.4716
17.45
15.0704
6.85653
8.05563
11.8874
8.19075
9.86289
14.6024
14.0372
8.73926
10.3696
12.5684
10.0456
9.9966
14.0382
14.4551
10.6878
11.1472
26.6476
26.76
26.3425
36.3061
33.9507
36.8619
34.4424
25.7862
26.079
25.7237
32.9484
30.2024
33.5536
31.4128
24.4389
25.8813
26.3977
29.3946
27.1488
30.8872
29.3755
16.4897
14.4109
24.6067
21.7572
20.3333
3.14711
25.4802
12.7924
6.65324
15.1873
2.02812
14.8445
1.89851
12.6074
9.68269
20.7971
18.2208
6.73175
9.79372
21.5401
19.099
12.0772
17.353
14.8296
10.7433
12.2127
18.3019
16.1698
11.1486
14.1109
13.5995
12.2958
11.8798
15.6258
14.4391
27.3706
34.1762
32.4458
38.7971
35.5774
44.4877
41.0873
25.9793
31.7443
29.6315
34.55
32.221
39.8715
36.669
26.8055
29.0949
28.4986
31.7065
30.2424
35.8061
33.6007
25.6919
28.3964
27.2514
29.6169
27.1283
32.8174
29.8458
22.3748
26.5455
23.7089
26.1689
23.242
28.7223
25.0816
18.4909
22.5749
18.7733
22.2805
19.4579
23.8314
20.2445
14.7224
17.4518
14.2271
18.5634
16.3018
19.1936
16.7935
13.523
13.6539
13.4627
15.7586
14.5288
16.3057
15.3197
41.0083
44.6172
38.889
40.7607
40.2335
45.3013
37.3083
34.1595
37.0258
32.1508
37.9057
33.0704
35.0112
29.4258
28.4409
30.7199
27.0081
31.2642
26.9274
27.8998
24.3039
24.9888
26.0189
23.7274
25.9139
23.8305
23.3735
20.9725
23.0499
22.9913
20.5511
23.1141
21.5303
20.2104
17.9932
21.6557
19.7562
17.6723
21.1208
20.0162
17.3291
16.1392
20.2664
17.1857
16.2062
19.6205
18.6058
15.9738
15.7596
19.0268
16.0323
15.5898
18.2941
17.2957
15.7191
15.4347
38.2099
39.7593
35.7764
43.928
36.5905
41.3845
34.4931
31.7183
34.3456
30.5376
34.3434
28.7681
32.4922
27.764
26.7925
29.4475
26.7513
27.2737
23.9498
26.5987
23.772
23.2822
25.6438
14.0158
23.0413
20.5354
22.8456
19.0877
18.7692
12.4467
10.0934
19.6646
17.0179
17.5838
14.1492
15.4114
9.6083
9.63199
16.1869
14.6831
13.3649
11.7343
14.2666
9.99755
10.962
14.5579
14.7034
11.6872
12.5535
14.4777
11.1777
11.5731
14.7881
14.9124
12.8549
13.4285
35.2007
39.2027
36.0051
40.7445
34.2874
42.0383
36.1538
30.4942
34.8849
32.1229
32.3909
27.9899
34.4913
30.6035
27.0901
31.3937
29.336
26.9032
24.1265
29.4913
26.3881
14.5004
28.5727
25.6736
23.206
19.1964
25.2729
21.9325
9.90549
24.6785
21.9186
17.716
14.4915
20.8844
18.1041
11.0326
21.0758
18.5686
13.7665
12.2435
17.2492
15.0865
12.2825
17.7632
15.6385
12.1487
12.8169
14.6884
14.2202
12.0362
15.0793
13.9318
13.0496
13.4638
14.1391
13.87
37.2058
46.982
42.7986
43.7026
37.6426
49.5213
43.8587
33.1055
41.433
37.8648
35.9349
31.9178
42.1384
37.4291
30.2972
36.8647
34.0403
30.769
27.3838
35.9912
31.535
26.6682
33.0571
29.6086
26.1925
22.6162
30.148
25.8221
22.6829
28.393
24.5938
21.5016
18.5312
24.4917
20.7255
18.9072
23.3577
19.935
17.6422
15.5388
19.6865
17.0558
15.8172
18.9661
16.6382
15.0933
14.3821
16.3863
14.9984
14.0386
16.0722
14.8497
14.2357
13.8146
14.7105
13.9102
38.9351
43.8327
35.6373
42.6439
28.8546
39.6613
22.5558
31.8346
33.3562
27.989
31.3368
21.0684
21.6053
18.4944
25.9956
26.5704
23.0743
19.9711
17.9156
17.8716
15.4306
23.1305
22.1138
19.6782
18.6332
16.6207
14.8382
13.2719
21.0392
18.9507
17.1062
16.5485
16.0516
12.9535
12.835
19.6588
16.6689
16.0402
16.1063
15.3812
13.1603
16.0368
18.4054
16.0098
16.0075
15.5197
15.4818
16.2409
16.5418
17.2526
15.9906
15.7482
15.5793
15.1509
16.5045
14.729
34.8887
40.0832
32.8838
25.1881
20.0838
30.6339
18.4461
27.3551
30.949
26.5114
19.6995
17.6609
18.0822
16.1747
22.5645
25.3153
22.1897
16.8806
14.2687
15.2629
12.8194
19.0434
21.1774
17.9452
13.6903
12.0774
12.1642
10.2374
15.9234
16.6977
13.6319
11.7793
11.3941
9.78788
9.10875
14.6428
12.8831
11.7995
11.6809
14.7914
9.16605
12.3652
15.153
12.0505
13.3451
15.8555
16.4656
13.8268
15.4726
15.3394
13.6713
14.1962
16.5389
16.2849
15.6991
14.8959
32.783
41.3752
34.9786
24.6778
18.2957
28.8515
18.7978
26.7894
33.3053
29.4604
17.9874
16.1324
18.6895
16.9615
22.5065
28.2981
24.7338
15.2362
12.8196
16.2073
13.8057
18.0602
23.5013
19.9981
12.118
10.2452
13.0439
11.3611
13.908
18.9613
16.3094
9.75765
8.95376
10.9545
10.4644
12.0812
15.5754
14.3745
9.02396
12.1174
10.645
13.7631
13.4718
14.3192
14.4355
13.8411
15.4676
15.0656
15.5403
14.1916
14.4485
14.3134
15.6821
15.9273
15.4308
14.1615
36.5409
49.1074
43.0217
20.6813
19.3395
27.6056
25.1223
30.7626
41.2197
36.2356
19.3159
17.2835
23.4581
17.8717
25.7601
34.684
29.9766
16.8773
14.4622
17.4502
16.5079
20.7053
28.5395
24.192
13.7096
12.0742
15.602
13.6615
16.876
22.9118
19.4505
11.7378
11.4748
13.58
14.0353
14.906
18.5374
16.4179
11.7599
14.9418
13.8371
13.6972
14.5439
15.9354
14.9575
15.1286
15.4533
13.7357
14.2331
14.2142
14.7335
14.1073
15.4208
14.7551
13.9413
12.6555
22.3413
21.7504
20.0096
22.1067
21.3917
23.0317
20.6521
21.0085
23.3936
14.3897
21.76
21.6337
24.5062
4.19441
16.9458
15.8856
9.50278
2.24673
18.7207
13.9062
2.58862
24.45
25.5375
25.1404
25.9298
24.7215
25.5759
24.8982
23.0841
22.9104
24.3127
21.9245
23.9016
21.2679
23.6215
21.5004
21.9557
25.8032
14.8619
25.3067
4.18515
23.5981
17.3204
2.378
16.9489
9.83905
14.1708
2.63315
20.1887
14.6
17.9786
13.1948
17.4253
14.7679
18.6952
13.0176
9.38467
13.4876
6.18963
1.88955
11.3439
11.4692
1.66725
7.4153
8.21024
5.96445
3.70991
9.32608
6.68787
2.83878
17.0888
21.8066
21.0198
19.9251
20.6036
19.1623
17.9661
15.1054
18.0006
19.7378
14.7133
19.2844
13.5752
16.1729
9.7495
2.20578
14.3663
6.64824
11.7287
2.0736
12.2573
7.96116
3.7824
9.56343
6.69071
7.19322
2.83716
10.5817
13.1815
10.0631
15.7169
2.33178
17.0639
2.67665
12.4996
25.1755
25.6198
26.0159
27.648
24.6737
26.7737
27.0781
23.4847
22.4878
25.4871
25.5842
23.411
22.4935
26.3605
17.0875
21.9634
15.3423
26.8046
3.41972
26.2264
21.9441
13.4531
2.47907
10.6985
16.3456
2.76619
12.5997
18.1377
25.7785
28.4636
27.8761
27.9549
27.5352
27.7332
26.4457
23.9215
25.9865
23.4612
27.0044
22.806
26.8699
24.7392
13.2493
5.9031
14.3802
3.03728
14.667
2.33131
12.8836
21.1705
21.764
23.3389
24.7898
21.0789
21.7997
23.9593
20.6207
19.7739
22.5238
22.2376
20.4502
19.9157
23.1171
12.5697
2.32228
6.89848
15.412
2.25312
12.4961
14.7173
12.9937
3.28961
6.2958
13.8998
2.4643
12.6105
14.3212
21.3073
25.1186
22.4552
24.1663
21.9975
24.2365
21.5766
20.7322
22.4808
20.098
23.2712
20.0004
23.3677
20.8502
1.41871
1.36817
1.16356
7.08559
8.44887
7.07581
8.23687
1.35597
1.21618
1.11816
8.96715
8.60866
9.36723
9.65235
1.19385
1.01173
0.919728
8.2397
8.04065
9.73889
9.14575
0.857582
0.80965
0.662673
7.58788
6.8444
8.04303
7.01701
0.611155
0.52026
0.402824
6.37758
5.65948
6.05605
5.20115
0.409529
0.339918
0.315985
5.38665
5.26143
4.80252
4.86742
0.329583
0.306668
0.318569
5.53368
5.8403
5.1034
5.68355
0.257811
0.344818
0.305276
6.07142
7.69873
6.01096
7.70352
1.31243
2.04594
1.57149
7.18215
7.15415
8.01575
8.70849
2.58287
0.533631
0.572877
2.41071
2.531
2.32625
0.416593
3.59997
0.319984
0.297219
2.68943
2.71829
3.45201
0.275275
3.28307
0.237391
0.212211
2.55892
2.53601
3.43605
0.194438
2.51216
0.182544
0.154903
2.21033
2.08543
2.76079
0.141449
2.06046
0.108959
0.102324
1.62523
1.60061
2.02428
0.0980219
2.28979
0.0877591
0.107067
1.81116
1.93735
2.24163
0.11153
3.16171
0.112196
0.127409
2.59723
2.82015
3.01386
0.130078
3.20899
0.123778
0.129172
3.32307
3.41798
3.24832
0.125042
0.337599
0.322106
0.216883
7.12079
8.33499
5.63681
7.15178
1.17089
1.6904
1.08271
7.87773
8.11966
7.13873
6.83229
2.98428
0.318164
0.424338
2.67113
3.11509
2.4908
0.335701
4.32198
0.225211
0.242388
4.06798
4.19375
4.16053
0.23555
4.45121
0.210314
0.234388
4.29443
4.20478
4.47908
0.234322
4.13934
0.188281
0.220431
3.96636
3.89982
4.2361
0.212713
3.09367
0.152601
0.165144
3.36196
3.07802
3.31497
0.152187
3.49967
0.142633
0.15142
3.14717
3.27269
3.43382
0.156149
3.25171
0.137435
0.148802
3.27016
3.19406
3.37253
0.142925
2.61756
0.111428
0.122835
2.86636
2.77731
2.85614
0.109366
0.213617
0.278642
0.209041
4.53037
5.52783
4.26366
5.43226
1.18253
2.2836
1.27886
6.30874
5.32547
6.2812
5.7457
1.92074
0.29158
0.425803
2.0724
2.16621
1.94361
0.289751
3.31292
0.200058
0.188217
3.28262
3.59657
2.96092
0.183666
4.08225
0.214684
0.195552
4.13052
4.20556
3.97801
0.199492
4.31677
0.198587
0.210288
4.09662
4.01259
4.28875
0.210232
4.46394
0.182263
0.210754
3.9442
4.01389
4.47686
0.205889
4.0055
0.167347
0.183743
4.00751
3.92542
4.19937
0.174165
3.25864
0.138694
0.146898
3.47051
3.30176
3.42977
0.139306
2.73015
0.11902
0.126945
2.95784
2.70953
2.95189
0.120357
0.216363
0.262615
0.215379
4.14215
5.82276
3.87866
6.0479
1.19534
1.90044
1.01854
6.89767
6.90513
6.57458
7.35186
2.09768
0.297685
0.390208
2.07659
2.22562
1.99548
0.279698
2.29862
0.158225
0.161617
2.88515
2.80221
2.37479
0.137549
2.88929
0.142843
0.116717
3.06218
3.32444
2.61979
0.12023
4.88535
0.229687
0.185437
4.77644
5.02269
4.53259
0.198296
5.17054
0.224287
0.222706
5.20275
5.1163
5.25085
0.221235
4.52921
0.199511
0.211164
4.71382
4.51698
4.771
0.199782
3.48741
0.157236
0.167649
3.86199
3.61075
3.82224