/*--------------------------------*- C++ -*----------------------------------*\
  =========                 |
  \\      /  F ield         | OpenFOAM: The Open Source CFD Toolbox
   \\    /   O peration     | Website:  https://openfoam.org
    \\  /    A nd           | Version:  10
     \\/     M anipulation  |
\*---------------------------------------------------------------------------*/
FoamFile
{
    format      ascii;
    class       volScalarField;
    location    "3.5";
    object      omega;
}
// * * * * * * * * * * * * * * * * * * * * * * * * * * * * * * * * * * * * * //

dimensions      [0 0 -1 0 0 0 0];

internalField   nonuniform List<scalar> 
12920
(
84.2849
129.772
136.862
134.175
121.661
110.796
101.92
93.2388
79.8226
64.4904
52.7038
46.0797
42.8824
40.1439
38.4491
37.1924
36.8105
36.3657
36.0703
35.2834
131.972
145.033
168.046
173.151
157.376
127.375
102.194
88.3666
77.4679
71.9174
66.7613
61.2699
55.7693
51.8744
49.8092
48.5902
48.0572
48.0237
48.1431
48.6952
166.265
185.17
168.896
163.722
159.23
151.218
130.457
103.093
83.3844
71.8883
63.5487
58.0997
55.4539
53.809
52.2363
50.5029
49.2446
48.0839
47.4959
46.2414
119.013
135.844
134.887
138.914
139.493
130.634
108.978
92.7727
80.4752
72.7185
67.7218
64.6077
61.9852
58.9905
56.2838
53.4544
51.071
48.4827
47.2516
45.3802
109.451
191.84
160.677
148.357
131.918
121.931
110.216
105.071
100.268
97.8301
92.0894
82.0044
70.9726
62.2825
57.6339
54.4781
52.0089
48.9537
47.3246
44.9741
263.687
318.5
269.573
185.682
144.899
131.07
118.785
111.078
100.623
91.2156
78.6952
68.1223
60.9095
56.999
54.5845
51.9439
49.8447
47.3092
46.2389
44.0184
492.914
247.896
194.318
154.612
134.317
127.777
115.776
107.875
97.5385
87.0023
75.0182
65.6705
60.2565
57.0774
54.251
51.195
48.7634
46.4321
45.533
43.6976
345.863
291.468
222.834
175.255
131.678
119.956
195.169
164.615
159.287
142.769
123.597
101.478
89.0321
86.6411
59.0626
53.1515
48.8825
46.135
45.214
43.8896
484.933
400.821
292.577
195.969
129.577
179.625
322.503
230.362
195.462
177.07
144.213
123.879
135.681
146.296
95.5185
53.1883
49.0884
46.0566
44.0526
42.8606
240.324
266.42
246.751
219.015
176.32
238.49
271.151
204.441
195.808
179.658
167.568
149.776
152.825
146.656
83.2866
45.0515
43.7599
41.9772
40.1662
40.2386
121.296
232.35
218.179
194.434
161.432
231.816
278.392
185.245
189.052
184.042
174.029
182.75
174.985
162.388
78.34
44.5972
42.1257
39.7236
37.9925
38.1474
319.897
240.356
186.971
164.059
136.562
199.582
266.129
181.406
153.02
196.929
215.869
211.293
188.649
161.237
70.6805
43.1254
40.5504
37.7182
36.0357
36.1691
292.438
230.982
181.525
141.023
119.272
112.706
176.795
157.06
157.519
154.809
149.438
137.547
120.862
94.0724
44.4322
41.3477
38.9456
36.7932
35.2704
34.9969
270.87
240.463
198.17
164.766
133.916
119.698
112.501
111.482
110.239
107.779
100.603
87.7856
74.5673
61.3616
51.0212
44.539
40.8923
38.2922
36.2328
34.6824
547.092
417.061
228.004
174.374
147.259
137.021
123.315
116.153
108.903
101.268
92.6667
83.7149
73.3013
62.2208
53.0164
46.7994
42.8068
39.4838
37.6603
34.8814
310.109
169.784
124.632
135.015
139.432
137.705
125.037
114.414
101.777
90.2189
79.0291
68.784
60.6801
54.2003
49.5644
46.3255
43.8429
40.7063
39.0216
35.9078
120.389
113.925
97.0903
105.927
124.551
128.164
119.911
110.958
99.5894
87.8382
74.4005
62.7947
55.6552
51.5811
49.3334
47.5286
46.4258
43.8414
42.0727
38.434
156.741
160.833
134.957
99.0957
99.0769
108.729
108.642
105.653
96.4008
85.1969
73.1195
63.1638
57.0183
53.666
52.1298
50.9812
50.2746
48.4768
47.1498
43.596
185.423
156.636
131.031
105.788
97.4684
99.5822
98.6048
95.3426
87.0263
77.8382
68.676
61.2074
56.8782
55.4514
55.3134
55.092
54.4785
52.3443
50.37
46.1403
153.599
115.287
89.4595
80.7275
79.2665
78.0304
74.1555
68.9041
64.0243
59.4526
55.1791
51.732
49.4682
47.549
46.4521
45.1326
44.098
41.5516
39.8935
35.8985
30.2386
52.0243
73.417
74.5539
69.8311
63.776
58.6368
52.0554
43.5391
35.6464
29.9255
26.405
23.9547
22.4249
21.7971
21.7091
21.7692
21.8531
22.1077
22.1909
217.417
147.671
119.958
94.4561
83.2652
74.6519
58.9195
48.5667
43.3001
41.8211
41.065
39.4885
35.7194
31.318
28.0391
26.0226
24.9263
24.5048
24.4392
24.6637
121.13
188.747
140.029
111.812
100.908
101.87
95.5498
71.8913
55.3826
47.9539
43.491
38.8241
34.8897
31.8484
29.6727
27.9919
26.6194
25.4119
24.6199
23.9743
135.97
121.71
109.597
97.1979
85.8791
80.7393
70.3485
58.5835
50.6731
45.9994
42.6738
39.06
36.3656
33.4916
30.9919
28.8702
27.3605
25.8153
24.7002
23.2949
118.501
174.434
113.645
89.4108
76.4099
69.6934
61.3575
56.176
52.4837
51.35
50.5552
49.459
45.9909
38.3273
32.4847
28.9708
27.0757
25.4892
24.4116
22.8597
182.553
209.352
167.757
103.468
75.2727
67.5777
57.8667
53.4291
48.113
44.5538
40.2789
36.5681
33.0062
30.133
27.9877
26.1843
24.7693
23.4541
22.6969
21.8608
441.539
139.018
102.076
83.2398
67.8524
61.6235
54.9683
51.238
47.0874
43.6215
40.5481
38.0742
35.3327
32.6209
29.678
26.4342
24.1016
22.6797
22.0561
21.7257
171.351
146.888
132.417
107.217
77.8956
62.2926
64.1158
56.316
50.7246
46.3726
42.9533
39.7492
37.5397
35.4513
31.1921
27.5468
24.0329
22.4201
22.02
22.1436
276.692
231.347
179.956
121.454
78.3653
67.6108
69.6688
57.38
49.1553
45.4478
42.5178
37.9284
33.5644
31.0678
28.974
26.0844
24.0215
22.7599
22.3961
22.5412
231.439
199.373
132.705
107.836
99.4758
101.918
77.3853
52.2844
44.9057
39.251
36.6954
32.3953
31.7767
32.0981
30.7915
24.611
23.4538
22.7849
22.3002
22.3291
155.702
166.401
126.285
115.295
104.058
106.968
95.8306
54.8174
42.6883
37.3675
36.9912
39.8346
41.1646
39.968
30.726
22.2596
22.1439
22.0984
21.4585
20.3655
304.075
119.834
96.5093
89.309
83.8421
82.3498
74.3008
57.5416
45.1927
41.0527
42.1222
43.9967
44.2912
43.0784
28.9143
20.9421
20.3129
19.6102
18.6485
18.4408
240.413
149.299
101.316
85.3207
78.8314
72.6112
72.4895
67.6669
65.926
62.1047
55.8451
50.3265
48.1871
43.6919
26.3738
22.1951
20.1154
19.0459
18.2214
17.8595
277.36
135.855
100.518
90.6606
84.3007
79.0281
73.0193
66.4962
60.5534
56.492
53.4232
51.001
47.2217
40.0664
31.8366
25.6036
21.9718
20.0348
18.8686
17.851
274.078
266.621
141.875
101.939
87.9066
78.4078
69.9664
63.2126
58.6511
56.1159
53.6086
47.9184
43.1703
37.62
31.2268
25.5295
21.9618
19.9139
18.9793
17.7076
265.065
152.136
94.3119
80.3486
71.4432
65.4222
59.5298
55.6616
52.724
49.4856
45.1426
37.1271
31.5587
27.9986
25.416
23.2986
21.9943
20.6312
19.9873
18.4974
278.439
137.568
91.821
78.8179
68.3235
61.3294
55.584
52.8305
50.0033
47.5168
43.3204
35.4725
29.1285
25.7607
24.2646
23.4994
23.2571
22.8353
22.4631
20.6976
254.644
152.576
105.653
88.3353
74.6805
61.2506
53.629
50.8493
48.446
46.4212
42.751
35.7887
29.9438
26.8517
25.7933
25.3224
25.1916
24.8366
24.4977
23.1782
233.716
118.347
91.7505
84.3762
70.4049
56.2296
49.1664
46.0221
44.2808
42.5699
39.715
34.54
30.8372
29.027
28.6298
28.4069
28.0437
27.0091
26.1903
24.5898
41.3063
74.1129
61.1174
53.8002
48.9625
47.2821
43.0126
39.3551
35.3389
31.9694
29.5501
28.4965
27.9146
27.7063
27.6399
27.5431
27.2148
25.8276
24.777
22.5039
27.2476
86.3149
88.2359
81.8332
73.0466
65.6152
58.161
48.8455
40.1055
33.6319
29.7075
27.558
26.3277
25.509
25.1112
24.8026
24.7439
24.6015
24.6064
24.4662
143.487
140.668
116.297
84.2469
63.8394
52.7738
43.2447
38.4066
34.9044
33.6843
31.9585
30.2506
28.2911
26.8423
26.0401
25.7462
25.7596
25.9064
26.1507
26.5896
358.511
208.55
124.33
91.9083
74.4515
67.8323
57.8532
48.5565
40.8923
37.1147
33.6289
31.0194
28.817
27.376
26.2861
25.5359
24.9567
24.5643
24.287
24.21
222.036
186.597
119.916
92.4562
70.7783
59.6516
49.7105
43.9385
39.0249
36.1679
33.5163
31.3832
29.5401
28.0119
26.6591
25.572
24.697
23.9785
23.4554
22.9781
231.552
155.744
101.887
76.607
62.2214
54.9453
47.9526
44.2339
41.0889
39.6697
37.8625
35.9022
32.7997
29.7111
27.2513
25.6022
24.4582
23.5559
22.9606
22.3532
229.908
193.729
130.162
80.2508
61.7815
54.1561
46.5668
42.4998
37.9566
35.026
31.8887
29.5819
27.5858
26.0322
24.7664
23.6909
22.8775
22.221
21.8712
21.5361
269.403
124.036
83.8971
62.9667
55.8004
49.3946
44.2713
40.0763
37.0707
34.3146
32.3106
30.7633
29.0712
27.2425
25.4148
23.7614
22.6825
22.0332
21.7892
21.5884
113.958
125.972
110.522
76.9927
57.7211
49.3215
48.0305
42.7286
38.5629
35.4494
33.7331
32.3763
31.318
29.4899
27.137
24.8098
23.348
22.6108
22.455
22.2712
179.073
122.311
101.159
68.4239
53.2002
50.1366
50.619
43.0767
38.7383
35.854
33.6628
31.366
29.7768
28.6162
27.1494
26.1649
25.0117
24.0914
23.7689
23.2349
193.152
164.377
119.182
83.9212
67.1452
62.5209
51.7695
41.163
35.8873
32.7447
31.0294
31.5558
32.2341
30.4475
28.5415
27.1671
25.8978
24.6984
24.1334
23.4172
187.333
142.469
101.214
81.7674
67.6727
66.7076
57.3372
41.8433
35.2456
32.2224
74.8475
70.4747
42.7911
32.7752
27.0922
24.872
23.7985
22.8351
22.1577
21.4879
188.643
110.807
77.7528
66.1935
59.6486
56.3135
52.7139
44.5232
39.4973
37.6663
36.9314
36.2429
34.4386
30.0451
23.538
22.1525
21.2137
20.3653
19.8821
19.7915
245.547
111.368
79.756
68.3387
63.6541
60.8716
58.2779
54.3377
50.327
45.8848
41.1319
37.8521
34.0772
28.3575
22.9835
21.0354
19.928
19.2578
18.9499
18.9891
386.564
140.136
90.1337
78.0448
72.5926
69.1119
61.2739
55.1177
48.9893
44.7939
41.226
37.828
33.4853
28.5692
24.4394
21.5544
20.0204
19.1974
18.7284
18.5869
233.238
159.64
105.564
85.0337
74.228
67.2464
58.8866
53.4875
48.4635
44.6414
40.5796
35.5972
31.3065
27.4508
24.1219
21.5034
19.9457
19.0797
18.6347
18.2964
287.618
140.145
95.5765
75.2214
63.496
56.6718
51.1028
47.2667
43.3023
38.8196
33.8298
29.051
25.8611
23.7787
22.3391
21.2292
20.4855
19.8154
19.425
18.8033
321.677
204.02
101.22
73.9305
59.1619
51.6783
46.5817
43.7259
40.1319
36.4576
31.8993
27.8347
25.0708
23.6247
22.92
22.4829
22.2817
21.8113
21.4212
20.3671
124.884
130.036
103.257
81.631
60.9716
50.352
44.2791
41.9781
39.0776
36.3755
32.6627
29.3274
27.0977
26.0641
25.7645
25.5777
25.4511
25.0679
24.674
23.5523
131.297
120.432
91.2118
69.9214
55.36
46.6452
41.3953
39.1039
36.9846
35.3002
33.1945
31.6232
30.9403
30.8816
31.0508
31.1146
30.8267
29.7093
28.699
27.3958
70.6185
93.0668
76.8166
65.7712
58.4255
53.0093
47.6688
43.1003
39.2693
36.6788
34.9645
34.0905
33.3535
32.6341
32.0888
30.9515
29.8172
28.1146
27.2444
25.0803
101.343
120.388
108.38
87.006
72.4408
61.615
51.731
41.7294
34.9891
30.9954
28.7906
27.404
26.6103
26.036
25.7713
25.4397
25.3154
25.0707
24.953
24.6121
125.504
138.579
123.412
83.139
62.2358
49.3347
43.5368
38.1339
35.7696
34.3321
33.4933
33.0677
33.2087
33.6888
34.7001
35.3509
36.0823
36.4889
36.8744
37.1776
201.066
189.789
139.861
90.345
67.7155
54.2327
48.0774
42.3348
38.975
36.1626
34.4948
33.2944
32.6987
32.4039
32.3944
32.4134
32.5351
32.6912
32.7831
33.0987
164.92
144.969
136.991
105.002
71.7881
52.3835
46.1568
40.6882
38.0845
35.4134
34.1968
32.9845
32.3399
31.7736
31.3847
31.0512
30.8496
30.7944
30.8073
31.0227
300.494
146.329
112.719
74.5793
62.8056
50.5589
46.9486
42.0514
39.9398
37.5181
36.1062
34.6135
33.4142
32.3435
31.5718
30.9208
30.4476
30.1566
30.0985
30.2698
166.618
163.573
128.721
76.1858
63.3337
51.2005
46.4187
40.8979
37.2495
34.1604
32.5099
31.2041
30.568
29.9384
29.5184
29.0777
28.9035
28.8879
28.9746
29.2868
218.511
145.166
82.1754
60.2323
57.2083
46.9152
43.8114
38.2888
36.4741
33.6365
33.0947
32.165
31.7151
30.8571
30.2512
29.5989
29.4374
29.3864
29.4396
29.5504
312.618
139.309
93.6577
62.3058
56.4911
48.4277
45.4774
40.007
36.9722
34.7361
33.8254
33.4782
32.7857
31.8721
33.7667
31.8387
31.1296
30.6167
30.4722
29.9901
158.953
120.427
77.6298
56.6272
49.4788
47.0897
47.5558
40.684
37.7265
35.9687
34.8339
34.3476
34.1039
33.7509
35.2274
36.0746
34.0542
32.634
32.1131
30.9686
127.852
139.249
122.715
77.812
57.6968
50.798
45.5405
40.2343
36.9969
34.7974
33.7108
34.5089
35.5712
36.2156
38.3125
38.1227
35.3422
33.417
32.6382
31.0437
174.757
151.931
97.9696
67.9229
55.4729
51.454
45.6483
39.7879
37.3297
35.6989
53.8032
51.5214
40.1118
36.9552
38.3696
36.4866
33.3122
31.4109
30.8497
29.6837
184.937
139.339
75.5435
57.9223
54.4215
48.5487
47.0776
42.7977
41.0235
39.48
37.4696
35.54
33.7837
33.0792
34.7846
33.0264
30.5332
29.212
28.9103
28.4738
198.753
107.549
75.1817
60.8949
61.3599
57.0746
53.9353
49.7198
45.2706
41.6055
37.9053
35.0196
31.9449
30.3677
30.9121
28.7325
27.837
27.5295
27.5879
27.908
154.589
133.158
90.5437
70.486
69.5768
63.3491
57.1314
50.7877
45.8564
41.5261
38.0773
34.6762
31.9905
29.5387
27.7796
26.6851
26.5666
26.6366
26.8715
27.42
224.884
127.062
97.2894
75.1155
70.5318
61.4684
56.2525
50.4817
45.9687
41.2707
37.5023
33.6813
30.9323
28.8067
27.3285
26.3462
26.1184
26.1419
26.3927
27.0175
371.823
175.503
106.316
74.5194
64.5437
54.565
50.9936
45.2269
41.4411
36.6472
33.3722
30.645
29.1108
28.0211
27.4465
26.9438
26.7881
26.7303
26.844
27.3332
163.377
145.344
99.9985
69.3869
58.8536
49.4917
46.6598
41.8226
38.7504
35.0253
32.5308
30.6756
29.7729
29.2019
29.0553
28.7695
28.5738
28.2157
28.1132
28.3439
206.134
122.814
98.2752
68.6948
57.5725
47.2911
44.6909
40.7936
38.9247
36.5569
35.0493
34.1162
33.8365
33.7396
33.7716
33.6283
33.3841
32.8283
32.3457
32.076
150.98
128.953
84.3098
60.6917
53.7998
45.4866
43.7135
40.9769
40.4187
40.0961
40.3469
41.1318
41.9772
42.5072
42.8427
42.7121
42.0735
40.5589
39.3525
38.7791
157.929
114.306
78.0118
65.778
59.5477
52.7136
47.6862
43.3498
40.267
38.2593
36.8069
36.0226
35.1452
34.0653
33.1111
31.5812
30.5351
28.6826
27.6667
25.271
168.338
129.404
118.966
90.0286
66.3531
50.6687
40.7116
33.9414
30.3837
28.4642
27.4355
26.7442
26.3
25.8653
25.5396
25.0666
24.6845
24.1788
23.9808
23.5664
161.629
146.449
138.128
82.7918
81.2646
56.9404
61.1527
49.045
53.568
48.4514
51.8941
50.1697
52.6129
52.6526
54.0698
54.308
55.0891
55.3234
55.6387
56.3661
302.277
192.036
164.46
91.7899
78.6613
53.7096
59.5279
49.9172
52.9865
47.3873
49.2653
47.3233
49.2042
48.7296
49.7376
49.5024
49.8386
49.7948
49.8372
50.3614
251.934
189.07
168.342
110.853
90.6551
55.9757
61.4368
49.5573
51.8492
45.6871
47.512
45.1614
46.6561
46.0417
46.9376
46.7243
47.1254
47.1517
47.2852
47.7055
404.673
170.016
126.61
76.7769
74.6155
52.8772
57.9084
47.9139
50.2618
44.9239
46.3686
44.4873
46.2905
46.1031
47.0491
46.5826
46.7272
46.5188
46.5772
46.9726
184.413
182.366
146.587
80.131
83.0733
57.465
60.5089
48.3184
47.4154
42.1484
42.9822
41.881
43.3075
43.1902
43.817
43.8836
44.3997
44.6231
45.0115
45.6427
259.89
164.308
90.0637
71.0175
68.6854
51.9547
51.2786
44.4005
44.2889
40.7942
42.8791
42.1393
44.268
44.2861
45.1646
44.8675
45.2017
45.2069
45.4987
46.1364
233.568
146.458
99.7358
63.8735
75.5491
60.3993
53.0847
45.1777
44.4252
42.3919
44.4123
44.791
46.5304
46.7863
49.101
46.8993
46.3001
45.9605
46.1408
46.2468
199.746
128.571
80.9918
73.2798
58.1809
58.21
57.3897
47.9314
48.2302
48.4698
49.919
50.9242
51.9259
52.4803
54.1861
49.9504
48.1897
47.1421
47.249
46.859
158.364
164.965
139.855
74.2495
68.101
54.1856
53.2906
52.9819
52.5967
51.2051
51.2221
53.547
55.8689
56.6588
56.4649
51.0832
48.8235
47.4118
47.1721
45.9089
398.911
203.228
114.032
78.3445
63.1032
54.0599
52.0207
53.3417
53.624
50.8191
50.4213
51.4137
56.4192
57.6455
56.3285
49.5565
46.9611
45.4109
45.0648
43.8094
353.689
200.416
89.6067
68.8152
64.2837
51.8027
53.1746
54.1676
54.1167
52.3939
51.0843
51.1909
53.2568
54.5811
53.8361
46.4127
44.0664
42.614
42.3638
41.7888
362.067
141.454
84.5205
71.2092
71.8059
57.1605
58.2713
53.5367
51.3048
47.7147
46.3229
45.3641
46.5945
47.3859
45.3367
42.3552
41.2926
40.8224
40.8556
41.0727
221.825
143.119
101.691
70.767
76.979
60.9657
61.8198
51.0894
50.4373
44.6975
43.7149
41.1635
41.7511
41.1734
41.3237
40.6728
40.5874
40.2263
40.2952
40.6683
196.086
147.232
95.1193
73.1742
74.8997
59.2612
61.0606
51.0564
50.1385
44.0663
43.2469
40.6185
40.5519
39.9533
40.2689
39.9564
39.8668
39.5912
39.7497
40.2861
218.764
154.292
113.534
73.4194
70.2389
54.6471
56.4272
46.2826
46.8494
40.9916
41.6534
39.697
40.621
40.0842
40.7867
40.3973
40.574
40.3469
40.5818
40.983
163.253
141.689
109.551
69.4273
63.9053
51.0328
52.1496
43.9595
44.9489
40.43
41.7012
40.4368
41.5676
41.1598
41.8129
41.5048
41.7254
41.5489
41.8972
42.2673
199.43
127.833
97.2079
67.7971
63.3743
49.681
52.1032
44.1642
46.7732
43.3567
45.8797
45.0735
46.5004
46.0772
46.7268
46.3049
46.4137
46.0726
46.3149
46.3599
265.84
126.319
85.7996
70.9218
62.2719
50.8797
54.2804
47.8998
53.0397
51.5724
55.9354
56.4897
58.5792
58.2587
58.2572
57.0277
56.6242
55.7687
55.8817
56.1975
106.975
95.2179
74.4839
62.4245
56.4817
49.1289
45.2738
41.7563
39.7088
38.2288
37.1723
36.0867
34.9388
33.1074
30.8784
28.2565
26.5589
24.9683
24.3707
22.9272
31.2575
32.9597
73.6521
33.336
32.2819
34.2611
80.7628
31.2366
73.6401
64.5031
32.316
33.1253
79.826
62.0718
70.9039
35.8131
35.8925
33.9959
76.6284
37.1471
36.5708
73.8647
35.9636
35.9941
78.3805
71.4488
36.2949
35.2221
252.647
242.082
208.431
88.542
73.014
78.241
64.2783
201.348
205.032
195.501
66.4814
57.4894
61.5485
54.8285
184.002
192.392
176.143
55.6737
52.3248
52.4381
46.743
156.301
168.377
156.288
51.4419
49.2842
45.4121
42.6722
124.4
157.279
148.606
47.8171
43.2585
41.9146
37.9997
131.346
146.248
146.451
42.0476
38.0907
36.1471
32.7812
144.159
146.662
144.663
36.9043
34.0944
32.3408
31.892
137.448
141.97
119.399
33.643
32.8977
31.9205
31.6731
208.492
288.18
195.175
92.3448
61.5816
114.123
63.7919
197.716
190.093
195.361
58.3139
52.3721
57.0812
48.2954
184.949
196.653
194.414
50.1611
44.5711
46.3764
42.666
173.092
191.042
169.752
43.3675
41.5105
42.0841
39.9881
150.029
166.07
170.333
40.9734
36.8584
39.4687
39.3256
152.826
173.342
175.455
35.3955
33.9422
39.9634
42.2488
149.626
174.149
164.09
34.0513
34.7078
42.7721
43.213
122.289
161.464
123.012
34.8111
33.7224
43.113
40.3044
190.59
274.023
198.91
111.617
67.5953
100.217
74.4758
187.188
189.194
170.858
60.5967
49.4759
67.4548
51.548
187.907
170.462
187.785
47.0479
42.3242
48.141
42.5928
173.816
198.259
213.399
41.3893
39.8646
42.0576
42.4709
181.978
214.022
211.605
39.8769
41.3079
43.2109
45.8481
178.833
207.893
192.56
42.1948
44.368
46.5121
47.4473
164.718
186.894
167.87
44.6851
44.511
47.5713
47.3024
124.541
163.725
123.29
44.3813
41.4624
47.1073
42.404
194.275
273.718
183.204
87.3632
68.954
81.9414
69.6339
152.806
173.073
145.052
63.7163
51.6348
67.8021
63.9328
185.392
146.183
165.267
48.6584
44.1465
63.7496
62.4859
214.135
177.318
210.275
43.8468
44.7203
61.7245
60.3156
214.129
217.274
219.145
45.5635
47.9481
59.7688
57.9775
194.865
215.395
197.809
48.3909
48.8497
57.0838
55.3229
166.84
193.803
162.97
48.8822
48.4466
54.941
53.8657
120.161
155.483
116.969
48.0923
41.8739
52.7442
41.3061
61.5245
68.3013
57.1031
54.0024
47.5522
54.3636
45.762
50.716
54.8662
49.0504
45.1327
41.3688
44.1157
39.6775
46.2147
46.9494
42.0459
40.2808
37.8701
38.2903
35.2453
43.5882
40.9893
38.575
37.2402
35.5576
34.5607
32.4816
38.9665
37.7127
33.992
34.864
32.6642
31.7329
29.7703
34.4633
32.6348
30.2049
32.0449
30.3196
29.3371
28.667
31.4113
29.8815
29.4492
29.9264
28.8677
28.535
27.9131
30.7922
29.4242
29.547
28.6183
27.8304
27.6804
26.7093
55.0158
98.0457
57.0826
56.3139
44.6237
63.426
45.0916
46.8694
51.4892
43.7207
42.8057
38.4042
42.1771
36.9023
40.2085
41.9563
38.4324
37.0691
34.1805
35.6615
33.106
37.389
37.8039
36.427
33.5422
31.8453
32.9376
45.2735
33.3577
36.3761
37.349
31.4174
30.8445
46.871
49.3347
31.6385
38.1035
39.7601
30.9252
31.5855
49.4606
45.3408
32.1168
39.9247
39.3813
31.6312
30.848
42.8395
36.2942
31.4429
38.9964
36.3225
30.3435
28.0268
34.7514
30.5608
60.7366
86.3044
66.8581
64.0407
47.2422
62.1177
50.3326
44.9318
60.8159
47.1028
44.0082
37.6389
46.9844
39.8855
38.2683
44.2409
39.4721
36.1682
33.3995
38.5222
36.2909
36.6669
38.9684
39.2479
32.8137
45.6621
35.9936
36.0922
39.0547
39.8374
41.8897
48.6503
52.6604
36.3023
36.8141
41.1458
42.4072
43.1535
52.2681
43.6404
36.8401
36.358
40.3579
43.2244
42.7447
40.8353
34.8972
35.9519
33.5304
37.0568
42.3634
36.9198
33.485
29.6815
32.3416
26.4894
61.8061
69.7732
64.013
56.4633
48.8974
56.5624
53.7413
47.5378
62.74
59.5672
46.5583
41.242
53.0229
50.7962
41.4075
59.2858
57.889
40.2059
38.336
50.258
48.0844
41.5522
57.0907
54.7004
38.029
37.6736
47.2209
44.2791
43.7098
53.7792
51.3442
37.6794
37.6179
43.293
40.8868
44.2963
50.4141
48.7963
37.5028
36.7465
40.177
38.4445
43.6106
48.4352
47.248
36.2833
33.6693
37.6846
34.3052
36.5982
45.9131
36.3639
32.2673
26.2247
32.3701
25.7409
45.2491
51.2509
43.7799
47.5204
42.2303
47.1342
41.4521
39.757
42.2431
38.1282
40.4946
38.0081
40.2241
37.0739
36.4604
36.9029
34.2264
37.1927
35.4343
36.2409
34.3625
34.2737
33.5903
31.6327
34.9855
33.8752
33.8273
32.2864
31.8459
31.0037
29.6166
33.5249
32.6962
31.9455
31.5911
30.0809
29.3702
28.9816
32.553
32.1641
31.6049
31.7942
28.8738
28.8674
28.1738
32.029
31.5325
31.8278
31.7744
27.7117
27.91
26.8634
31.3284
30.5558
31.7315
31.6775
42.7936
56.1534
42.8394
45.9739
40.726
45.8381
39.9439
37.0674
40.4615
35.8635
39.5499
36.5041
38.6716
35.9812
33.3446
34.7838
32.6387
35.7171
33.8818
35.3494
33.9034
31.9033
32.1749
32.2064
32.4078
31.9192
31.8597
31.9564
35.7799
30.9534
33.096
31.0961
34.2644
31.1728
34.1832
32.2489
62.7682
50.3663
33.3434
33.704
58.4575
46.642
31.0365
46.1719
36.8381
33.6969
33.2481
43.4679
37.3801
28.0386
34.9184
30.5581
33.0623
32.4618
36.3311
34.8025
44.4997
56.5964
47.0543
46.8994
40.5987
48.1965
42.592
36.4717
44.3413
38.8268
39.2134
36.4284
41.2592
38.9219
33.0802
37.8033
36.088
35.8081
34.5649
38.5232
37.4962
50.3873
51.2577
33.7914
38.1549
39.171
223.664
34.4424
53.6861
75.4366
46.1968
188.933
45.8643
176.413
56.3725
47.6075
35.883
34.8761
65.7978
45.4347
34.7644
33.0973
34.4187
34.2896
31.4775
41.4677
35.1846
32.4898
30.7839
29.2929
30.2563
25.473
34.2926
33.7152
30.3593
29.7843
46.5218
54.005
51.9025
47.3879
43.3652
50.94
48.9387
40.2931
51.1648
48.8415
42.2512
40.2207
48.0729
45.4582
37.9797
48.2013
45.8964
39.8549
38.7819
44.7026
42.4653
37.0547
45.041
42.1455
38.3707
37.0556
41.6874
39.0236
36.4791
41.1944
38.8848
36.6335
35.3107
38.1975
36.0607
35.0694
38.1739
36.1329
34.8157
33.0968
35.3135
32.7694
31.4313
35.2133
31.4772
32.4375
30.4701
31.8346
29.1977
25.2095
29.7617
24.4966
29.947
29.2911
28.4936
26.8619
42.3082
47.0048
41.8954
52.9066
46.3029
51.2874
48.4465
38.3998
40.7946
38.0404
44.9155
43.8664
47.8934
46.8609
36.3205
37.3496
35.7465
44.0595
44.2294
46.7872
46.0511
35.0612
35.2424
33.8222
44.14
44.3529
45.64
45.0711
34.3886
33.5535
33.4072
44.9115
45.7423
45.2486
46.4428
34.1637
33.5185
34.2246
45.8724
46.3157
47.1332
48.8633
33.87
34.4582
35.066
46.6777
47.1556
49.3484
50.1999
32.9368
35.1989
35.1953
47.1839
47.2111
50.3662
50.7124
41.2432
44.7454
40.3343
49.4439
48.3668
48.1805
47.7693
37.6417
39.3743
37.3649
48.006
47.2371
47.8584
48.0001
35.3429
36.863
35.3536
47.1236
45.6674
47.6195
45.3277
33.6974
35.3162
52.0698
45.1001
44.2065
44.526
44.7278
34.3263
53.1275
49.5321
44.298
45.4109
45.2433
45.5087
35.3451
48.1819
42.9145
46.2653
49.0276
45.5994
49.1117
36.1097
41.3398
38.6305
49.7136
50.8537
50.2391
52.1172
35.927
38.3604
37.8335
51.0335
51.2603
52.3279
52.4541
40.8165
47.3984
42.7479
48.4432
47.9087
49.5951
49.1316
37.8035
41.7684
40.1812
48.0645
48.331
49.2276
49.4019
35.9856
39.9026
38.8653
47.9646
45.7059
49.3133
47.6318
51.828
38.4463
37.4606
44.9101
45.0834
46.9834
45.3575
53.6227
37.1075
35.8501
45.4752
45.5236
44.9876
44.2683
42.2682
35.3766
34.1229
45.5285
48.5077
44.4229
46.7208
37.0817
33.8014
33.4356
49.6572
51.6805
47.65
49.2473
37.1008
33.5645
33.7509
51.9528
52.2401
49.574
50.0663
43.6628
50.94
48.9216
50.2826
49.8444
54.544
52.6018
41.3057
48.0136
45.3914
49.7949
49.6602
51.6761
49.6347
39.9514
44.652
42.5478
49.5535
48.1632
49.1782
47.6682
37.9508
41.7896
39.1946
47.5237
45.9333
46.9208
45.0498
36.0252
38.4257
36.4473
45.5925
44.975
44.6734
43.9726
34.1922
35.7476
33.4249
45.0888
46.5819
43.6921
43.6818
33.0551
32.6881
31.0543
47.2621
48.485
43.965
44.8214
33.1562
30.8439
30.0582
48.7815
49.3519
44.9645
45.2996
49.2084
55.0382
52.884
72.4928
61.9126
68.3878
70.4665
47.6595
52.5043
52.0037
61.5252
63.8222
70.1311
70.3228
48.5565
52.0717
51.7154
64.6727
63.3057
70.4142
72.1217
49.1861
51.4914
51.6087
63.6319
65.6096
72.9234
74.9533
50.8044
52.017
53.2322
66.7292
66.7496
75.4209
75.18
51.4946
53.6313
54.9105
67.1169
68.1729
74.6542
72.796
52.446
55.3068
55.9161
68.806
68.6926
72.5322
72.0812
52.4321
56.043
56.0767
68.9029
68.6995
72.1203
71.8256
53.1691
52.2336
52.9343
70.5009
72.3408
70.5715
73.4906
52.63
53.2375
53.6247
71.8723
71.4585
73.259
73.434
51.6249
53.3645
51.312
71.6674
74.7883
74.4738
80.5686
50.9096
50.5716
50.0841
75.8983
77.9976
82.2354
84.6393
52.7682
50.453
51.1699
78.4171
77.9462
84.9922
83.7988
55.3418
51.7985
55.8673
77.1357
74.0837
82.211
77.0671
56.5598
56.8453
57.8632
73.3643
72.4487
75.5412
73.1199
56.5757
57.875
57.3985
72.4047
71.7127
72.8462
71.7617
52.9273
52.3075
53.542
69.4194
73.0155
65.4498
72.2207
53.8794
53.9212
54.3124
73.0535
73.5157
72.2674
72.1233
51.5648
54.2224
52.7885
74.5989
80.707
72.2775
75.2436
50.2036
52.1949
50.9351
82.3515
84.4099
75.9605
76.3905
50.8663
50.7368
50.7154
84.66
83.7824
76.2793
75.8402
55.4188
51.1692
53.3138
82.2048
77.0426
75.0899
72.5172
57.5969
54.0225
55.2061
75.5048
73.0539
71.8197
71.0775
57.2526
55.4266
55.4455
72.7448
71.4159
71.0321
70.4028
54.0105
57.1131
55.3694
68.5786
72.1886
72.0896
69.9443
54.2284
54.4119
52.7022
71.9244
71.3707
68.4874
67.4384
52.9348
52.3547
50.9991
71.0815
72.5091
66.9705
65.4203
51.2535
50.1959
48.7564
72.7853
72.9143
63.9339
64.0237
50.9835
48.5224
48.2868
72.7789
72.4798
63.5282
64.1587
52.7192
48.1454
48.8078
71.9657
70.5483
63.5663
65.1317
54.3328
49.1485
50.2526
70.3088
70.2359
65.1579
66.4746
54.7595
50.424
50.6888
70.2671
69.7139
66.3215
66.508
32.1325
31.639
32.276
31.1483
31.9456
31.3916
32.8605
35.9479
32.2102
49.7015
37.0335
33.3062
32.304
165.688
41.5582
39.282
66.7449
195.945
36.0456
46.4715
213.454
32.2103
32.5786
32.8087
33.0393
32.0465
32.2109
32.8975
32.5371
31.4777
32.4178
33.8437
31.6323
33.4321
33.1223
36.7115
38.0568
33.3323
54.5784
32.6775
171.283
34.8641
42.7128
201.708
42.4668
74.7014
47.9721
218.894
38.4721
37.6983
31.0173
37.065
31.8524
35.7026
31.4504
39.087
56.0238
42.4333
73.4961
182.315
45.9421
51.0725
166.978
61.6204
52.0929
70.3723
90.6922
50.2514
61.5186
112.172
36.5042
31.5031
32.4712
35.0688
31.6596
34.8795
36.3808
38.2502
32.4341
32.806
38.2516
32.0345
39.307
37.5796
56.7725
187.027
45.8286
77.5129
52.5176
172.239
48.6877
60.4384
89.193
50.4965
70.6776
59.9474
116.083
50.4649
59.0381
65.7476
46.1874
200.45
44.4219
212.42
59.08
36.0699
34.4884
35.7604
35.9081
35.1179
34.7708
35.8945
37.5131
36.6722
35.8174
35.9203
36.1443
37.9222
35.9316
51.1015
39.3682
55.5089
35.5612
218.25
35.0542
41.5883
60.5127
204.747
71.4592
49.1464
218.245
60.7201
47.301
36.6123
36.3304
36.1092
36.9306
35.299
36.262
36.7726
38.0596
36.1255
38.0582
36.7824
38.3988
36.2335
37.7403
50.6543
79.1518
44.8869
125.812
45.379
165.802
49.9527
37.6754
36.9034
36.0186
35.8562
37.0218
37.8674
35.7582
37.3565
37.0321
36.0251
35.4352
37.0392
37.1786
35.6096
55.3324
191.808
78.0373
49.0463
177.697
58.2439
48.4723
51.7991
115.783
78.2812
46.397
157.049
50.7794
47.4044
37.9415
35.9393
37.9852
35.9822
38.266
35.7195
37.7435
37.4479
35.148
36.8705
35.6149
37.1183
35.4445
37.3005
168.912
190.886
163.884
107.595
90.1717
106.21
91.5375
162.143
147.825
141.562
80.3152
79.3106
74.5108
67.2942
150.566
138.833
133.033
76.5788
72.8864
63.3562
61.259
131.38
123.908
113.407
66.7727
64.6393
58.9341
56.5342
111.032
102.228
91.2786
59.8155
57.1254
54.124
51.5568
94.0905
85.3836
84.1181
52.5215
50.0176
49.9369
48.4859
86.7653
84.5293
86.6991
47.2445
45.3073
47.0924
45.2481
77.373
90.4899
85.745
44.4771
39.1429
44.6007
39.9438
172.37
162.546
153.803
99.5051
99.8566
97.8767
91.7785
142.107
290.057
284.402
168.774
159.93
160.201
255.69
98.0838
218.062
217.135
121.439
115.312
104.376
208.413
84.9995
192.964
184.508
105.528
104.122
86.775
178.886
79.7544
173.155
163.33
96.8727
95.526
80.6915
156.746
67.8113
135.491
133.309
82.6257
77.54
70.4272
130.92
66.0195
124.665
136.616
65.475
64.7663
66.6893
137.66
54.1485
139.305
143.635
60.1827
58.5096
55.8029
145.209
52.3642
147.208
145.746
54.5049
53.6128
52.3847
144.44
87.9316
84.5852
70.0333
35.8443
32.7072
35.4803
29.5223
183.305
253.541
196.222
149.289
116.748
158.352
131.645
132.444
235.082
275.572
153.837
124.865
165.004
239.443
83.8676
201.33
204.089
90.6258
87.1329
87.6886
201.3
75.2945
192.749
198.912
79.9933
78.0949
77.0767
197.756
69.6972
176.858
190.446
70.5826
68.8568
70.7441
187.826
67.1952
159.843
166.749
68.0561
67.7369
68.4926
158.612
58.0599
150.485
156.336
58.7408
56.498
58.3538
159.882
60.8585
152.373
162.259
55.6032
55.9427
59.984
161.114
61.7023
142.741
153.942
56.2009
55.835
61.9007
145.89
69.3895
80.6493
68.8708
38.9407
32.7252
41.7594
31.0122
185.245
219.224
178.795
150.673
129.832
141.891
119.627
146.943
233.581
275.888
172.167
146.439
169.948
232.613
86.512
184.686
185.591
88.7921
82.3918
95.3707
183.131
71.5467
189.594
184.813
73.6948
72.2468
73.3769
185.045
67.7108
179.903
184.296
69.7176
68.6449
68.073
184.038
69.0829
176.421
191.461
66.312
66.2008
68.3608
193.318
73.5152
182.547
192.732
68.231
69.4111
72.4662
189.505
74.0612
170.785
176.299
71.8266
71.8101
74.3328
171.63
72.0088
156.564
162.79
70.9206
71.0487
72.004
157.307
67.9348
74.4706
65.0883
42.76
30.2412
42.7929
28.5771
169.67
192.142
163.901
120.306
100.134
116.021
94.2453
132.62
231.612
261.472
155.437
134.974
154.759
224.87
86.5236
166.708
167.711
95.6139
86.3675
94.9331
154.13
68.1815
156.216
141.85
69.1756
67.1572
70.5834
144.369
70.0571
204.776
185.908
69.5973
70.5045
68.9553
196.462
78.7635
215.878
217.385
74.7682
76.2195
76.8401
218.285
81.2504
206.67
214.047
79.0615
78.9741
81.4409
208.1
78.5922
181.802
188.931
77.0848
76.2757
79.0042
180.938
71.6192
150.166
154.545
73.3941
71.152
75.1031
141.219
61.2276
67.1428
58.8594
41.8589
28.4295
40.423
31.5695
161.155
184.849
170.112
103.746
92.1271
105.416
95.5493
157.294
167.073
168.001
84.6768
81.8866
87.721
84.6235
156.285
167.589
165.302
81.6063
81.1381
82.2022
79.7957
153.389
161.253
156.899
79.7976
77.6364
76.4006
73.0736
143.397
151.119
146.178
75.0901
71.1795
70.4849
67.954
130.317