/*--------------------------------*- C++ -*----------------------------------*\
  =========                 |
  \\      /  F ield         | OpenFOAM: The Open Source CFD Toolbox
   \\    /   O peration     | Website:  https://openfoam.org
    \\  /    A nd           | Version:  10
     \\/     M anipulation  |
\*---------------------------------------------------------------------------*/
FoamFile
{
    format      ascii;
    class       surfaceScalarField;
    location    "3.5";
    object      phi_0;
}
// * * * * * * * * * * * * * * * * * * * * * * * * * * * * * * * * * * * * * //

dimensions      [0 3 -1 0 0 0 0];

internalField   nonuniform List<scalar> 
38556
(
-219.802
23.7399
-3452.18
385.198
214.05
-819.049
937.1
-79.9703
-471.932
1188.8
-164.357
-87.3409
1243.01
-149.203
94.9863
1302.35
-139.256
79.917
1318.2
-86.6836
70.8414
1315.47
9.24283
-6.5142
1233.24
96.6738
-14.4457
1119.07
118.819
-4.65134
1001.32
75.4429
42.3126
941.298
18.7311
41.2872
937.687
-52.7067
56.3177
947.981
-87.0007
76.7072
966.175
-97.6113
79.4173
988.198
-94.4815
72.4584
1019.18
-94.1019
63.1162
1054.89
-86.3659
50.6622
1101.53
-74.2174
27.5776
-56.6652
20.6986
335.95
-203.561
-748.048
861.236
364.593
-675.829
1058.57
165.265
-442.566
1232.2
71.7954
-409.781
1239.56
-29.4063
-127.162
1199.6
-78.1366
-21.1602
1071.28
-17.6854
59.3225
1030.4
49.607
0.519625
1043.04
91.7514
-7.71849
1065.74
107.869
-11.7557
1071.29
71.7271
-1.82907
1055.09
36.0649
-1.13087
1002.99
-36.568
35.952
956
-76.3934
36.387
935.96
-96.0946
18.524
929.112
-95.9544
8.32019
929.705
-95.2132
0.518554
933.81
-85.2696
-5.2012
945.341
-75.9848
-9.76343
-59.3086
-9.30749
1942.95
-1907.8
495.273
2292.24
452.491
-437.192
2090.4
496.043
-128.935
2062.83
350.287
-250.926
1991.86
147.007
-105.443
1929.52
69.6192
-85.4107
1580.65
116.305
214.88
1284.32
143.252
202.687
1143.64
125.216
107.215
1084.06
113.539
53.9033
1037.23
58.648
59.9169
990.499
20.1383
62.6539
961.237
-57.2579
49.9518
945.503
-94.032
33.3723
941.315
-111.485
19.5781
937.008
-107.569
15.9219
931.046
-101.776
12.5248
924.174
-86.3102
7.91322
918.404
-79.3492
9.13357
-68.6315
8.38283
919.455
-1331.82
-322.361
1171.75
347.461
-147.265
1497.14
358.87
-188.214
1613.28
230.324
3.82319
1565.91
205.34
-10.9675
1454.44
162.319
18.7744
1252.73
189.265
128.748
1125.63
174.926
95.4213
1063.28
128.609
58.9557
1034.68
99.1211
43.0251
1013.24
46.6971
33.3928
988.757
25.4711
19.1466
966.129
-52.0857
17.4554
944.581
-90.4813
17.9966
934.17
-113.417
12.3438
927.198
-108.83
8.23187
917.147
-100.33
8.60451
903.045
-81.4734
9.26524
887.657
-73.6586
9.69776
-67.3274
4.65294
327.618
-572.984
687.769
498.037
-61.1221
238.164
758.462
75.9249
22.5199
815.064
87.6429
86.0791
841.93
93.9002
84.5739
886.105
98.0072
20.1365
948.231
88.0565
39.0837
1027.85
104.398
-9.09234
1089.73
78.2624
-11.5353
1146.47
75.8348
-33.447
1179.29
33.6564
-19.787
1177.64
22.6057
4.51973
1093.84
-20.92
52.6315
998.515
-61.3149
66.1618
948.519
-94.5629
31.1416
924.827
-93.5204
8.38225
909.828
-87.2207
1.89092
892.819
-68.5115
4.04694
874.664
-62.8868
7.38327
-63.0806
3.16398
-1440.53
-300.965
-812.167
14.7791
-775.538
-740.893
919.345
-276.285
-552.356
1055.47
-31.9041
-16.5822
1063.79
82.5752
3.01158
1024.39
139.126
-1.72019
1033.49
99.2508
-20.2931
1011.67
164.667
-38.4546
987.447
138.355
-35.8662
956.816
137.337
-30.8712
914.158
85.2496
-8.93473
874.306
49.3054
13.1516
851.033
-16.2671
18.6207
835.497
-55.8015
10.0225
831.497
-92.4443
1.88145
831.146
-92.4751
-0.69434
829.954
-84.7196
-1.3091
827.658
-65.5917
-0.624358
826.982
-62.4555
0.244538
-65.1639
-0.322439
-821.033
-487.97
-1147.31
-148.109
-861.982
-586.48
283.455
-640.662
-67.1879
407.919
-344.01
187.643
588.454
-163.223
65.2633
594.454
143.145
-10.0206
723.541
7.95296
-20.4843
-13.6855
10.1022
-13.7211
800.848
12.195
-24.8333
43.5353
13.6643
42.7991
850.14
37.286
-32.7166
28.5305
32.5452
23.418
880.097
34.2638
-21.8025
37.2576
26.834
30.8267
881.766
28.8365
-1.28983
20.8017
20.0479
15.1844
881.803
10.6207
20.2629
12.0953
1.25741
5.03254
891.726
-10.8837
29.8101
-14.0035
-15.1118
-16.001
889.081
-21.3517
25.796
-20.0344
-20.5677
-16.9987
877.885
-98.6657
17.4174
855.671
-78.297
8.03571
836.054
-67.678
2.57577
828.367
-56.2141
-1.69129
834.018
-63.8923
-4.21414
-72.72
-0.688491
1464.76
-178.441
342.778
1668.42
-678.102
-387.543
1564.23
-494.528
-41.9433
1388.57
-317.44
149.084
1212.25
-187.72
200.822
266.532
42.1446
52.1814
277.052
262.196
264.173
83.2516
33.3683
74.4951
236.447
33.0376
4.99992
-204.038
200.022
18.257
-2.04612
-204.011
204.877
41.2126
-4.79216
-203.864
210.025
32.8027
-4.70053
-212.379
213.954
28.6834
-1.42156
-216.081
224.022
-2.00845
4.68813
-233.45
239.947
-22.3956
5.01519
-243.094
246.043
-29.6733
5.37303
924.706
-28.1339
26.1246
-242.896
-249.157
-230.139
-236.132
-22.0433
-23.4241
-17.5714
876.401
-52.9369
22.9451
841.629
-36.166
3.25949
834.59
-39.3844
-9.79077
851.84
-67.3384
-13.8038
-82.0321
-8.29439
1580.92
-1592.86
-3274.27
2156.81
-996.907
-257.089
1633.77
-516.577
545.091
1092.45
-75.3345
299.215
156.911
36.1237
367.664
82.1091
162.678
99.2449
174.688
10.7329
13.6352
-15.5741
-48.6397
46.5542
13.893
3.76663
-47.5567
-11.3617
47.8088
12.5527
-1.44313
-48.8841
-9.63579
50.2516
8.1368
0.131459
-52.6228
-8.13542
53.2252
6.98975
0.543275
-53.9549
-5.77106
54.6902
4.06798
0.967728
-57.0262
4.96997
57.1874
-6.8825
1.75134
-55.665
9.40524
55.3459
-10.4428
1.35671
-54.4819
9.68262
55.4568
-11.0384
0.380845
-58.0266
239.367
-38.5632
0.651011
-56.5917
-58.174
-56.7968
905.238
-37.1045
4.68595
-236.14
-234.281
-227.601
-227.735
885.061
-14.5338
-1.45569
886.152
-23.2773
-17.1972
903.849
-68.6048
-16.4311
-85.2401
-9.73576
1108.02
-793.564
-588.187
1386.54
-750.986
-524.438
1595.28
-195.684
-529.633
1773.7
41.8602
-295.611
338.387
232.902
13.5537
378.202
404.609
442.165
4.42533
280.643
43.6493
9.66936
-0.0920345
-56.9604
55.4219
3.74597
-2.11541
-8.74031
-56.995
58.2094
7.94246
-0.416579
-5.86884
-59.389
58.7592
6.25861
0.24007
-4.31494
-55.3443
54.6736
4.78974
0.195875
-0.774341
-55.8667
55.7154
0.31507
0.610588
5.60983
-52.0875
51.4683
-5.17438
0.183753
9.6478
-52.5628
53.6517
-9.98314
-0.753616
11.8686
-57.1825
58.2943
-12.4676
-0.512817
-60.3224
48.9434
238.086
-52.2014
5.77015
-61.5618
-58.6307
-60.0837
921.484
-37.4787
1.33367
-234.477
-234.235
-227.17
-226.562
922.519
-16.8538
1.28541
926.235
-25.7293
-1.26379
923.053
-64.1706
-1.25202
-74.4749
-5.75472
1718.66
-133.943
1165.56
1597
-332.166
-297.159
1414.59
214.54
-227.815
1433.22
115.239
-92.0154
296.023
302.43
210.005
242.337
328.656
286.674
-65.3809
271.807
50.7042
38.8922
-14.0364
-60.1299
56.5686
13.1109
4.48676
-10.4271
-53.9374
54.009
10.7459
-0.390458
-7.90205
-54.6484
54.6809
8.50577
-0.636276
-4.4191
-54.6839
54.0275
4.9706
0.104908
-0.669555
-53.2838
54.4109
-0.314045
-0.143523
7.18768
-61.1679
63.5843
-9.1969
-0.407157
12.6156
-67.7555
68.0574
-13.2719
0.35441
14.089
-67.5811
67.1308
-14.3411
0.702337
-60.5327
51.6539
225.905
-45.0043
5.82422
-60.4838
-58.9539
-58.4086
853.166
-43.0811
-1.96595
-219.057
-208.17
-215.087
-203.283
855.67
-33.0784
13.7204
846.833
-40.1847
23.2924
821.202
-57.103
18.5637
-58.0923
0.905716
-472.742
324.692
-1553.98
296.155
-127.466
-973.597
840.026
182.051
-511.382
933.174
103.958
-81.8662
226.157
191.997
125.538
221.72
234.849
235.342
-45.5329
227.605
40.6555
3.42905
-8.92616
-57.6362
56.605
8.21558
1.74171
-12.3748
-55.0423
54.5449
12.6265
0.245741
-13.0764
-53.5709
53.4006
13.1173
0.129384
-6.79426
-54.99
57.4552
5.91579
-1.58668
4.41024
-65.6075
67.4618
-4.87313
-1.39137
11.1424
-69.9763
70.0868
-10.761
-0.491892
14.4096
-69.0885
68.583
-14.0401
0.136044
14.8469
-65.912
64.7178
-14.3836
0.73087
-57.4957
34.542
204.525
-23.6433
9.29953
-56.4472
-55.6744
-55.1059
753.066
-41.9269
14.4478
-195.083
-193.967
-190.999
-188.62
749.52
-41.1695
11.6371
746.302
-46.864
9.89768
741.089
-53.9303
2.04049
-49.9499
-4.56836
509.096
323.493
-1532.45
701.018
-142.405
-176.983
854.277
98.5168
-69.725
933.201
-4.51682
29.55
1029.37
-46.236
142.062
274.511
-188.215
96.5284
-13.7492
24.435
-16.2627
23.273
276.198
273.026
279.629
-5.62206
276.068
11.908
15.8207
-9.20137
-5.81579
-8.64684
-11.0723
-282.903
297.818
22.3587
4.6896
-10.7479
-10.2281
-9.9144
-7.71515
-330.696
346.808
13.4585
-3.69674
-6.17644
-6.78606
-5.19683
-1.76915
-355.828
352.406
6.7455
-4.06118
2.01208
-1.5198
2.01416
2.71194
-349.245
330.143
2.54309
1.39349
5.00802
2.57926
4.86626
7.60889
-315.323
297.117
-16.1176
2.1573
8.86378
7.25147
8.44236
11.4272
-289.012
273.4
-35.3046
5.53759
11.8884
10.8116
11.252
10.9522
-258.574
233.624
-32.1502
14.9466
10.5619
10.4698
10.1702
780.544
-27.4058
38.6659
17.5031
15.5068
13.5286
14.2053
-216.56
-216.092
-206.432
-213.464
745.359
-25.6018
18.86
730.371
-31.1151
4.93342
724.148
-44.2387
3.59822
721.13
-52.1943
1.28154
-47.9911
-0.81293
-81.6939
798.179
-263.419
548.548
-21.8895
-750.757
1060.07
26.5144
-439.515
1297.36
-95.7419
-146.069
1414.35
-186.944
23.7188
1444.81
-235.61
16.9328
1428.01
-51.5769
86.7431
1.14413
-6.68415
-2.5664
-10.2553
1392.46
-31.6387
31.3547
0.0817459
19.1282
-1.91437
18.5334
1334.79
93.225
13.5627
-11.8487
-12.7915
-11.9124
-12.5654
1306.1
86.4093
-24.0176
-13.8115
-5.43336
-12.7126
-1.74134
1268.12
66.9533
-11.669
-11.6431
-0.327128
-8.76969
3.43669
1216.51
-30.9453
11.9802
10.522
25.12
11.6065
23.3267
1119.09
-39.6248
39.9969
26.2575
27.7835
20.533
22.476
990.234
-13.4199
66.6519
22.5788
20.1934
15.5009
17.3467
877.214
23.2605
62.3537
805.201
14.0737
32.3373
764.418
-3.10811
12.7763
740.924
-27.7621
7.01778
727.897
-42.7423
3.57462
-42.5644
1.23807
2932.09
709.779
-2670.84
1751.05
6.25124
1152.89
1439.32
-138.708
476.952
1465.89
-199.302
76.9884
1421.29
-215.749
73.4053
1410.84
-188.882
-36.2704
1362.08
-22.8561
20.0297
1327.09
15.8222
-12.4711
1297.74
119.287
3.29392
1283.33
104.224
-3.41108
1232.09
97.9438
20.2516
1157.72
32.5445
10.886
1064.39
35.8509
17.8523
960.958
52.3408
37.6704
867.126
76.3437
40.7489
795.355
66.7564
19.0876
749.882
38.139
4.22654
725.146
-1.91021
-1.11583
713.956
-30.9531
-0.599628
-36.9714
-0.312878
742.37
-910.573
-3757.51
670.303
-313.205
391.524
908.542
-528.039
151.091
977.903
-363.474
94.8112
1029.61
-278.274
10.8185
1057.48
-148.654
-68.1023
1071.22
16.1902
-52.7792
1092.8
56.0662
-61.8225
1090.43
139.885
-18.2294
1068.68
132.104
-6.12763
989.194
138.148
39.2772
901.736
95.7866
24.2152
835.024
91.8232
10.74
799.016
84.597
3.75156
782.908
90.6723
1.78028
774.146
80.4298
-4.91221
763.803
52.1008
-3.61832
752.921
10.6946
-1.7232
743.926
-21.9068
-0.0506079
-30.3869
-0.0773451
747.476
-840.859
-819.229
1227.07
-933.365
140.562
1226.4
-692.296
164.934
1110.35
-360.282
112.85
949.665
-169.788
52.2024
936.305
-76.565
-58.7295
948.407
38.1711
-34.0828
984.923
77.1141
-57.5642
1001.63
148.933
-25.7553
995.694
158.204
-20.1632
926.277
174.703
32.8623
834.507
150.918
36.6389
774.384
125.077
26.8696
757.174
96.1953
5.61167
759.569
93.4174
-5.14058
774.438
74.8599
-9.29887
790.92
43.1095
-7.49067
797.438
8.24862
-4.07153
789.843
-18.3288
4.01625
-22.4581
1.20045
1987.6
-695.573
-588.452
2210.56
-953.38
-202.949
1842.47
-493.435
169.228
1522.73
-261.001
220.46
1085.81
-9.63444
276.772
988.394
-12.5119
33.3601
947.193
69.3491
10.0236
976.395
92.2628
-44.3507
993.51
151.194
-19.377
998.307
167.421
-14.0129
956.81
191.291
24.9083
894.332
186.766
26.6302
838.236
162.635
18.5381
818.866
117.376
-1.81159
825.355
95.1385
-8.2105
849.328
66.5962
-15.7086
872.121
34.6878
-14.3715
883.984
3.49346
-7.10783
884.563
-13.3675
-5.54065
-9.70889
-7.43956
1077.73
-297.388
1788.66
1239.72
-524.561
-590.81
1330.92
-146.352
-438.284
1264.93
-87.2095
-107.803
956.65
94.1739
204.474
882.964
57.3633
3.81123
841.39
98.4427
12.4806
874.474
103.64
-44.4613
901.326
135.66
-11.3171
918.624
153.609
-3.48698
911.753
169.455
28.7064
897.831
175.196
25.4919
876.59
166.075
17.8013
869.608
132.123
-7.76449
881.467
106.283
-23.0029
891.305
88.5642
-31.8061
893.749
72.8128
-40.5696
894.591
46.1749
-43.5232
906.321
15.0016
-40.0986
7.50427
-25.7128
682.935
-2611.69
845.244
-686.87
943.52
-244.628
873.859
-17.5485
823.466
144.567
842.741
38.0887
856.997
84.1865
894.67
65.9676
924.534
105.796
962.604
115.538
995.505
136.555
1035.5
135.202
1071.08
130.489
1109.85
93.3558
1148.29
67.8447
1194.81
42.0389
1243.51
24.1223
1275.02
14.6624
1278.13
11.8913
16.3691
1964.09
-1014.56
-2237.97
1642.13
-434.518
-62.5704
1187.2
-178.868
161.864
1215.12
-148.632
33.3664
1176.96
-87.5093
220.664
1205.27
-80.1824
131.79
1200.63
-47.8813
123.359
1174.05
-25.9789
46.0418
1065.5
31.7244
62.3836
966.665
32.8244
61.3591
901.623
8.14454
99.2101
874.556
-29.4418
97.7957
886.323
-60.0393
104.59
911.565
-68.539
120.004
941.221
-68.4137
118.176
976.731
-62.8507
99.7984
1019.61
-59.156
79.3953
1058.99
-47.8019
59.0833
1101.17
-42.8298
28.2235
-33.7281
22.9813
143.097
-1414.85
-5287.51
419.864
-380.576
-1006.54
731.058
-307.057
-625.572
806.722
-183.239
-450.837
760.241
-46.8897
-121.301
747.12
3.1148
-91.3368
746.581
22.6159
-10.6354
764.128
32.4067
-75.4123
788.645
39.2534
-39.765
811.176
33.5373
-34.9997
821.77
4.7436
-9.02232
822.582
-20.6345
-10.7495
824.697
-47.7953
21.5924
827.716
-55.2567
20.0864
831.375
-58.733
5.18426
838.253
-54.5217
-6.88708
846.985
-53.8463
-13.5235
858.395
-45.9419
-18.4706
871.773
-43.5019
-22.47
-35.0224
-18.6751
1766.17
-869.611
2575.33
1204.67
4.28608
-260.555
1163.31
-75.4999
-319.134
1121.21
-10.0674
-382
1067.37
27.8145
-126.305
1037.72
50.3524
-102.999
990.447
90.6095
194.161
947.388
108
170.152
894.414
84.7317
114.711
860.489
66.6161
54.7496
833.818
24.7212
66.6103
815.149
1.43976
59.248
809.489
-44.41
52.2268
810.007
-58.0307
35.6283
813.044
-63.0397
20.848
815.559
-56.1317
15.0161
816.522
-53.107
10.8228
818.14
-45.6224
5.9754
821.653
-44.9881
7.10693
-38.3149
6.71952
1178.65
-168.793
-1154.74
1185.3
-9.98221
-139.64
1175.6
66.3518
-320.37
1170.17
107.527
-108.337
1079.81
147.593
-40.3898
1002.45
129.313
17.178
932.686
156.476
132.641
886.39
155.958
93.7584
847.829
112.184
70.0652
825.515
86.9479
45.0075
808.316
37.9288
37.3834
794.449
13.0651
21.3883
790.771
-44.3614
21.0853
788.444
-57.1746
19.467
789.108
-65.7193
14.3601
788.635
-56.7651
9.33775
787.327
-52.3198
9.12568
786.096
-43.3216
8.19492
784.095
-42.6619
9.37303
-38.2002
4.03305
1249.83
-550.559
5748.67
800.677
-530.075
1207.41
596.589
-100.33
393.29
614.115
76.4235
99.6571
635.672
114.572
96.0375
656.655
121.257
7.20994
713.515
90.1763
48.5235
765.347
106.267
-11.2329
804.55
67.9086
-6.46395
828.177
61.3205
-31.4466
836.58
18.4338
-8.69465
837.079
5.14743
11.9382
826.244
-36.1777
55.2832
812.876
-42.1377
64.493
799.122
-56.2035
35.379
787.214
-49.2148
12.7397
779.113
-47.179
4.85167
773.384
-38.4626
4.91673
769.5
-38.8993
7.50448
-37.7978
3.00293
741.28
-653.915
-1413.53
869.543
-940.975
-458.255
882.259
-302.303
-363.101
899.255
-8.60714
51.453
862.501
115.219
39.1184
816.663
155.067
10.3079
828.243
68.6972
-10.3935
792.74
138.964
-35.6488
765.196
89.2659
-29.6802
734.414
83.8533
-22.622
716.843
23.9047
3.16575
708.898
3.96922
22.2746
711.987
-41.7203
21.0752
712.937
-46.6615
13.5957
716.68
-61.4393
3.37433
721.456
-55.746
1.06054
726.24
-53.1459
-0.126197
730.632
-44.2962
0.817459
735.694
-45.2595
1.54287
-43.67
0.807624
-87.7246
-555.63
-3251.31
-192.45
-825.365
-597.365
101.232
-494.509
-168.664
257.366
-235.3
258.201
456.285
-51.578
33.1417
427.516
166.772
7.04335
544.321
3.96875
-20.2509
-25.2118
1.86543
-28.9637
589.646
9.05115
-20.8398
36.4486
9.18283
34.9624
629.374
19.548
-36.036
11.8928
15.7054
5.71123
654.327
11.8478
-17.9391
19.4131
6.63104
17.1456
680.522
3.45669
0.401627
-1.05174
-1.43973
-4.94759
709.059
-11.448
27.6572
-3.67543
-13.0027
-3.83607
732.91
-17.7996
33.1287
-17.9884
-17.163
-15.9386
743.416
-18.7835
29.5213
-14.4532
-17.0142
-10.6417
746.667
-67.1482
19.8758
742.644
-52.0503
8.36283
739.501
-50.444
3.01645
740.207
-46.3256
-0.367888
747.026
-55.4946
-0.798486
-53.1722
1.81538
769.336
-1258.13
1146.55
984.982
-766.633
-661.92
956.682
-416.871
-91.2824
945.503
-236.333
161.296
941.225
-102.242
255.764
215.498
43.3671
69.8418
217.299
204.88
204.983
79.466
45.6335
79.2099
-14.1962
191.071
31.5721
11.0188
-0.0500293
-161.446
160.216
10.9449
-0.613934
4.30958
-164.109
163.935
22.1086
-6.697
2.5803
-163.952
169.771
6.04289
-2.59486
-3.92594
-175.729
180.498
-1.16786
3.78112
-11.8863
-186.424
194.718
-19.7316
11.8768
-10.1629
-202.428
206.102
-23.0668
11.7566
-9.06609
-206.721
208.51
-21.9474
10.4405
787.563
-17.1359
32.1855
-205.665
-212.661
-193.85
-199.889
-9.95538
-14.8485
-6.76797
770.753
-34.9547
22.6596
758.585
-35.6892
0.673337
759.374
-47.0698
-9.83553
768.996
-68.1048
-10.8159
-63.5221
-5.50037
224.392
-2610.01
-3451.01
533.151
-1107.91
-224.567
571.607
-385.202
474.966
397.518
-45.671
282.642
117.078
3.57715
322.347
58.2119
108.884
52.8411
-28.4858
142.684
18.1703
28.0763
-2.77517
-14.3035
-44.4205
44.9993
14.3073
2.19259
-0.140599
-42.059
-7.00806
41.5493
7.44124
0.217054
-1.09014
-43.4561
-4.6031
44.7658
3.44253
0.940967
-2.54587
-46.8859
-1.23357
47.1551
0.986338
2.52394
-3.82562
-48.8904
2.22384
49.2316
-2.48008
3.74064
-4.95311
-50.8432
6.1635
51.3139
-6.74378
5.06266
-3.04488
-52.2508
6.75415
52.6645
-7.38652
3.26353
-0.918293
-52.9602
6.13489
53.4688
-6.95755
1.23235
-53.7405
-1.15477
213.947
-20.6448
3.39443
-53.6148
-52.6637
-52.6589
809.316
-20.0289
7.24245
-209.748
-213.102
-200.076
-203.872
802.578
-24.5888
-5.81871
803.676
-49.7578
-15.6071
808.011
-76.9987
-11.8717
-67.9029
-7.11992
1462.64
-1198.24
-1335.81
1349.59
-760.67
-758.632
1198.98
-24.3412
-739.882
1182.27
32.2006
-356.769
268.336
141.48
-30.5588
308.201
239.407
272.534
-11.017
-3.40153
257.126
23.7663
1.86243
-8.69004
-0.806275
-57.2869
55.6972
1.70108
9.38489
-1.35117
-4.7051
-51.8725
51.5646
4.46692
1.89728
-0.971509
-2.47528
-50.528
50.1714
2.73745
1.066
-1.21705
-1.29249
-49.1578
48.9758
1.18301
1.50848
-1.99557
2.36286
-48.8384
48.7499
-2.44774
2.16889
-0.345105
5.96663
-48.4867
48.5468
-6.02614
0.344463
1.05148
7.9535
-49.3752
49.8556
-8.59308
-0.892244
0.036689
8.69815
-51.4781
52.1154
-9.67574
0.303617
-53.5396
-8.12453
24.272
215.285
-25.3893
8.11607
-54.5386
-52.564
-53.5171
841.384
-22.0981
3.95567
-214.557
-214.985
-205.674
-206.72
836.913
-24.0252
5.19313
830.173
-47.0278
2.74606
817.986
-66.5855
0.522191
-56.0353
-8.43573
1769.6
771.855
842.045
1296.75
114.044
-699.024
953.699
382.798
-291.902
864.286
135.694
-106.097
226.368
259.387
192.648
188.669
191.968
156.731
-51.0072
-35.3255
235.453
41.4192
35.8284
-15.9789
-13.6349
-62.3983
62.5239
13.4795
16.0087
-2.69497
-6.07122
-54.638
53.2313
6.56936
3.60361
0.551282
-3.15232
-50.7417
50.208
3.5018
-0.367041
0.0257588
-0.34774
-49.3929
49.3422
0.261099
0.111496
-0.0919153
3.32248
-50.6076
51.4638
-4.03376
-0.0530928
0.894116
7.72621
-54.4555
55.2445
-8.32559
-1.08377
-0.581063
10.2768
-56.2808
56.2647
-10.2854
0.605692
-2.5578
10.6125
-55.277
54.6177
-10.3861
2.99068
-52.6442
-6.07724
25.777
206.742
-23.857
4.13303
-51.8462
-51.4991
-50.7278
787.045
-28.9236
3.78424
-205.157
-194.329
-197.636
-188.847
781.897
-27.8925
22.7361
770.29
-38.673
26.5447
750.484
-44.7207
16.5051
-37.1446
-4.49115
-28.7362
853.309
-3478.19
216.029
269.791
-1374.11
557.198
253.832
-723.585
587.545
105.146
-81.6644
180.573
149.034
111.601
190.039
162.874
178.348
-11.8464
-39.8423
192.657
29.8611
9.74269
-4.45047
-6.54534
-55.0107
56.6097
4.95626
4.44053
-2.29836
-7.36815
-56.0567
55.4213
7.22264
3.07925
-0.860226
-5.38814
-54.1147
54.0707
5.33214
0.960266
3.78915
0.0948884
-55.0722
55.5136
-0.302993
-4.02249
3.22044
5.95507
-56.805
56.9652
-5.97061
-3.36508
1.1296
8.84802
-56.7825
56.5384
-8.5562
-1.17728
-0.576501
9.66807
-55.3612
54.7582
-9.24678
0.758232
-2.75191
8.88814
-52.2464
51.1551
-8.31096
3.26599
-47.8427
-12.0793
19.2648
182.369
-12.374
10.8761
-47.4085
-46.593
-46.2121
697.962
-26.8514
20.4612
-181.813
-177.022
-175.903
-171.309
693.536
-28.9563
17.1276
686.407
-33.0245
11.3775
678.365
-35.4252
0.787439
-28.804
-8.47812
627.523
835.989
1956.17
589.088
260.653
-129.41
663.263
145.259
-35.3273
723.418
-12.6757
87.2164
884.045
-51.471
181.94
239.63
-165.471
129.64
-2.14591
39.8309
2.61784
45.1568
240.743
226.052
224.52
-3.44645
-27.2053
243.074
9.68942
30.9949
-5.67174
-2.90847
-4.89656
-6.50587
-9.8851
-244.493
249.832
15.3219
12.4544
-5.77121
-5.87577
-5.07818
-3.77677
1.06123
-265.501
264.409
9.74739
1.17408
-2.14325
-3.30421
-1.66641
-0.583462
2.37445
-261.665
251.139
5.13184
-1.51152
2.67139
-0.361543
2.80533
3.65886
-0.495633
-248.345
236.428
-4.56739
-0.986326
5.39454
3.60373
5.30934
6.18669
-0.710933
-232.118
222.013
-14.8688
-0.477293
7.27247
5.81396
6.88816
6.89058
-6.92615
-218.832
207.656
-18.0111
8.67854
7.48612
6.21052
6.84743
5.37747
-23.3877
-199.493
188.223
-10.9639
24.6633
5.78454
4.57123
5.2248
684.211
-4.7281
43.9029
7.98608
11.3076
5.22141
10.6076
-185.257
-187.757
-173.562
-173.266
667.694
-13.3254
21.8503
656.326
-19.0305
6.3762
651.247
-29.2689
4.92121
650.088
-32.8592
-0.125566
-27.8377
-2.40158
58.6337
1654.28
-619.682
425.873
539.325
-1396.67
831.368
-9.75769
-689.993
1005.7
-162.409
-170.67
1140.38
-192.778
30.3524
1138.38
-160.955
14.4141
1118.26
56.5574
106.301
-7.05772
-19.2099
-8.58717
-21.1419
1071.51
25.3729
35.0075
-4.89707
14.2914
-5.33953
13.6733
1011.22
101.696
25.2988
-12.7214
-13.3385
-13.425
-13.6573
967.207
45.5466
-21.1155
-9.72796
6.28055
-8.75542
7.7638
919.973
24.1964
0.0708221
-3.10586
8.43787
-2.27066
8.23657
879.355
-28.5377
21.0231
10.7206
20.9801
9.38427
19.0282
828.583
3.06017
45.5258
10.5495
14.6104
5.47026
11.5523
772.248
19.6617
77.1615
3.74867
11.6621
0.626483
10.1263
723.657
35.1218
71.0951
686.509
18.21
37.9496
663.785
1.01991
15.4502
650.551
-17.2758
8.25841
645.378
-26.7924
2.68131
-25.5809
0.548628
951.76
1602.75
-1727.15
857.299
256.173
1530.51
989.673
-196.526
531.347
1073.54
-279.727
110.437
1083.25
-222.211
93.1311
1072.33
-129.237
-57.0723
1059.63
64.6718
24.6163
1022.51
67.1432
-17.1164
982.989
132.685
11.823
946.289
79.9848
-1.14938
891.935
68.624
30.1784
830.447
27.3463
16.4899
775.894
50.4188
25.0461
733.839
57.7701
41.617
700.087
64.6694
44.9539
668.103
48.5408
20.7406
646.18
21.1351
6.03464
634.407
-6.90457
0.285707
631.839
-23.8734
-0.951057
-25.6219
-0.202292
380.986
547.469
-2169.21
620.757
162.674
245.252
824.99
-310.638
60.9698
866.791
-284.103
57.3868
883.972
-214.947
-13.6265
876.302
-91.4105
-98.259
871.569
68.289
-51.6635
861.645
81.1221
-65.8771
837.099
144.694
-5.69251
803.313
108.483
-0.838807
756.495
108.908
45.8115
711.36
72.9339
23.762
682.431
74.471
15.6166
670.764
65.0854
8.10342
666.891
65.0146
5.30788
665.228
50.014
-4.72219
661.527
24.0954
-2.87739
656.863
-3.12697
-0.837621
655.364
-21.8883
-0.536056
-24.165
-0.090035
662.902
789.636
-1266.47
753.267
286.571
-73.7007
910.706
-150.198
-152.944
851.845
-168.08
55.6886
765.506
-119.202
42.7961
741.268
-50.8165
-75.085
747.021
63.4338
-34.9802
753.595
82.2011
-65.2171
749.939
140.165
-17.5715
732.602
124.062
-18.4049
708.745
129.097
36.5305
682.773
104.876
30.6681
669.476
92.6427
21.9955
667.027
69.1989
3.94648
672.219
61.4255
-6.74344
681.877
42.9156
-11.8579
688.745
20.2727
-10.5364
689.866
-3.3602
-4.95912
688.832
-20.039
3.20137
-20.4465
-0.146568
673.049
-863.988
-440.681
984.933
-224.443
-3.81886
1113.92
-72.3134
-37.6424
1040.38
-44.1424
170.064
851.909
48.5619
297.477
794.275
13.432
26.7452
755.056
91.0668
21.609
756.585
88.9901
-52.6679
758.2
132.025
-12.8518
755.919
126.911
-14.5815
749.103
135.462
25.3595
739.7
122.97
17.9393
734.062
107.315
9.50449
737.244
74.9228
-10.718
749.166
56.6817
-15.3889
764.564
35.7894
-23.9806
775.952
16.3126
-21.7989
780.962
-5.2015
-10.2771
779.187
-18.1529
-5.65184
-14.9879
-8.27053
374.711
-1111.22
656.229
571.543
-394.618
-617.467
735.169
-13.0438
-661.18
708.959
-9.1011
-116.634
683.386
92.0662
186.543
676.47
33.9036
-9.74409
686.928
76.7482
16.3411
709.86
76.3272
-54.7298
739.723
103.186
-12.3421
762.591
113.271
-12.7145
785.945
122.409
18.4052
806.302
123.647
4.45849
821.611
112.665
-2.85845
838.056
86.9011
-36.1882
857.65
68.7049
-54.6202
871.226
58.8822
-68.4743
877.722
47.7014
-78.4543
882.156
21.3924
-74.5514
889.368
-8.58185
-56.8821
-12.3333
-30.741
1518.87
2430.13
688.208
-250.829
653.475
-222.939
646.924
-20.0989
742.505
141.052
768.732
45.7658
796.493
133.173
830.535
108.253
867.179
172.337
915.191
180.797
965.681
208.474
1030.81
193.721
1091.56
182.405
1146.5
125.312
1195.81
87.2394
1247.13
49.6064
1293.03
25.9167
1311.58
17.5044
1300.03
14.865
18.3326
972.943
1337.54
-218.129
880.694
-190.503
220.182
936.295
-217.452
323.716
1059.74
-149.563
59.4861
1056.71
-41.8541
265.547
1068.47
-25.5573
145.587
1024.84
17.7993
149.188
967.248
19.8798
83.7535
876.516
42.7618
110.354
821.585
23.6457
92.644
805.567
3.41096
111.817
812.106
-19.8934
111.15
838.124
-33.0162
111.588
881.492
-34.8138
111.45
926.894
-31.2572
104.031
970.961
-26.0362
81.7673
1014.81
-23.6436
59.1851
1049.41
-16.7089
41.194
1082.68
-17.0085
11.9656
-12.9677
11.1997
-247.703
-108.602
-6045.29
237.9
-814.977
-867.667
554.872
-592.672
-567.324
565.035
-287.257
-323.306
542.905
-56.6852
-84.3407
546.781
9.55273
-130.323
586.608
27.0519
-59.7145
610.664
23.4544
-103.044
638.787
22.9562
-48.0818
657.485
13.0486
-43.1009
674.489
-4.2565
-18.359
685.234
-17.9165
-23.4714
703.687
-28.4906
-1.38553
722.214
-29.1083
-4.14642
737.592
-29.3686
-12.0829
751.047
-26.0785
-20.2997
763.272
-27.132
-22.2596
774.969
-22.3687
-24.5078
785.391
-24.1008
-25.7993
-19.5455
-20.8363
1288.22
-847.507
-1321.8
932.462
-266.569
-453.202
939.72
-323.23
-595.834
753.161
-129.375
-353.323
664.896
11.1848
-105.91
619.031
50.9181
-98.4982
639.803
74.3068
126.134
664.558
78.4743
90.3771
667.4
58.594
76.2307
660.356
43.1324
31.7099
660.759
16.799
45.1518
665.953
2.62852
33.5094
677.708
-20.3879
32.369
690.571
-28.2066
21.8634
700.34
-30.8286
12.5392
707.595
-25.7592
7.44124
712.658
-26.3125
4.94081
717.26
-22.9702
1.97433
722.774
-25.4223
2.91444
-20.9178
1.95648
1842.94
-419.551
-1038.55
1325.71
78.1185
32.8941
1045.86
28.2121
-391.957
901.577
59.5949
-153.026
779.145
134.706
-41.4788
712.298
119.885
15.058
691.057
133.545
94.6435
672.742
133.089
57.4586
662.281
89.5679
49.5518
651.261
71.5395
27.6211
649.575
28.8011
27.0665
649.89
9.67639
14.0258
657.376
-22.1612
15.3726
664.644
-28.8187
12.8108
672.108
-33.5284
9.59576
676.754
-26.9028
5.83538
680.199
-26.8298
6.19766
683.445
-22.693
4.67211
686.446
-24.848
5.79787
-21.3142
0.78466
-90.3332
-801.109
4750.43
176.679
-18.3503
1036.86
402.411
14.332
181.439
395.94
86.5013
79.2224
451.226
116.741
58.716
463.011
115.934
-0.624503
532.662
72.4187
39.9991
573.92
93.8541
-13.255
609.156
49.2275
-1.35904
623.033
47.9394
-21.7237
632.694
11.8058
-1.36078
641.622
1.56446
11.1226
656.031
-19.2686
37.9816
669.584
-17.722
39.8428
675.817
-28.2992
23.9166
675.835
-22.9022
8.72159
674.388
-25.2505
4.71962
673.652
-20.9941
3.95343
674.872
-24.2393
5.67566
-22.151
0.668814
724.669
-283.131
-1436.42
702.398
-248.288
-206.046
654.878
-69.9586
-231.29
688.148
45.5614
59.1229
682.191
126.573
35.2427
645.081
146.315
17.037
671.164
37.1722
-1.22978
630.159
121.719
-22.5091
609.871
55.2658
-15.43
585.973
60.388
-11.1729
584.907
6.00616
10.0316
589.775
-0.673927
19.6451
603.417
-30.0204
18.1852
612.185
-24.3423
11.4485
620.107
-36.4792
3.6322
628.13
-31.9659
2.10086
635.963
-33.661
0.450957
643.025
-28.5949
1.35677
650.414
-31.9421
1.85638
-27.8474
0.242645
-604.672
773.317
-3319.04
-365.888
-389.761
-694.677
-85.178
-265.486
-253.846
161.735
-129.868
186.717
336.578
0.510608
-15.638
292.017
172.187
25.732
414.617
-2.28627
-21.6618
-35.7426
-6.61305
-39.3751
444.152
9.04258
-12.1515
32.805
9.80954
31.8392
487.118
8.41767
-29.5533
-1.91811
4.77118
-5.45367
510.69
1.5763
-10.8011
14.2579
0.0298637
13.8137
547.712
-6.74605
1.4809
-8.6582
-7.72253
-8.96811
580.729
-13.0878
22.7425
-2.93054
-11.8905
-0.867496
609.621
-15.0691
23.8524
-12.0046
-13.2331
-9.32866
628.576
-13.6625
19.4612
-5.1479
-11.916
-2.51113
640.994
-42.6039
13.5828
645.592
-33.2534
5.05225
649.289
-36.968
2.62592
653.748
-34.4451
1.02336
661.652
-42.1821
1.53795
-35.0456
1.97988
1535.86
640.245
2987.35
1056.19
-280.483
-291.528
713.22
-258.665
244.865
682.914
-157.774
219.508
751.539
-36.6598
224.31
172.637
50.714
60.1328
173.007
162.142
162.12
81.3283
51.4579
80.0283
-15.9848
152.215
22.2893
11.8318
0.463732
-123.487
125.062
7.37502
-0.370826
6.02875
-130.158
129.506
9.84495
-6.80351
1.45327
-129.975
136.24
-4.85316
-1.28839
-4.39203
-144.779
149.739
-10.9269
3.61329
-11.8306
-155.64
162.551
-19.0695
10.9009
-11.8366
-169.222
172.155
-17.0737
10.9085
-10.3736
-172.973
174.552
-14.9822
10.1149
672.773
-11.2276
24.1539
-173.24
-179.437
-162.293
-167.439
-2.84159
-9.70124
-1.16692
671.742
-24.5562
14.9935
669.211
-34.2597
0.496492
672.182
-42.318
-4.93357
677.77
-54.0849
-4.50055
-42.6681
-2.28796
-173.921
-1372.46
-2375.96
-116.05
-553.46
-9.46149
176.849
-262.544
185.947
101.74
-30.7596
230.738
83.4156
-17.5232
183.78
34.4641
74.2882
29.0017
-29.2302
109.123
29.8413
24.3959
-2.99678
-11.9178
-35.1338
35.5707
12.3257
2.15198
-0.831213
-33.9464
-3.60229
33.9314
3.62834
0.820213
-1.17263
-37.1521
-1.33874
37.9892
0.635619
1.03867
-2.14691
-39.4831
2.21421
39.5831
-1.88229
1.71505
-3.82925
-41.6256
4.28429
42.0955
-4.50401
3.57905
-4.43106
-43.8044
5.2541
44.4038
-5.52237
4.1
-3.06757
-45.7937
4.63691
46.2139
-4.94957
2.96009
-1.5606
-46.6858
3.94135
46.8861
-4.23433
1.65322
-46.8446
-4.17274
185.229
-11.4386
5.11312
-47.3949
-45.556
-46.1628
705.277
-14.8261
8.17846
-181.866
-187.146
-171.203
-175.729
702.303
-34.5267
-2.57751
703.187
-52.2453
-6.56359
703.566
-62.8242
-3.51161
-45.7501
-3.92457
1477.43
-1462.94
-363.599
1448.77
-572.764
-710.664
1021.35
37.7384
-612.743
865.461
24.9088
-256.551
180.759
104.018
-22.3394
207.557
162.25
185.134
-10.3602
-4.46787
177.131
11.0934
7.36273
-11.3565
-3.05098
-43.7333
44.6381
3.03395
10.4687
-2.91097
-2.17922
-44.2392
44.0107
2.32228
2.99639
-1.18059
-0.317698
-43.3851
43.257
0.448339
1.17798
-2.16693
0.837372