/*--------------------------------*- C++ -*----------------------------------*\
  =========                 |
  \\      /  F ield         | OpenFOAM: The Open Source CFD Toolbox
   \\    /   O peration     | Website:  https://openfoam.org
    \\  /    A nd           | Version:  10
     \\/     M anipulation  |
\*---------------------------------------------------------------------------*/
FoamFile
{
    format      ascii;
    class       volScalarField;
    location    "2.5";
    object      nut;
}
// * * * * * * * * * * * * * * * * * * * * * * * * * * * * * * * * * * * * * //

dimensions      [0 2 -1 0 0 0 0];

internalField   nonuniform List<scalar> 
12920
(
0.611071
6.94422
4.33666
4.53328
2.78882
2.61363
2.14431
2.06862
1.71979
1.54299
1.21091
1.06323
0.949221
0.88754
0.786702
0.700882
0.621424
0.531534
0.472487
0.437261
1.32739
9.15201
8.43217
6.5599
4.98228
5.25167
3.39455
3.40633
2.31675
2.26521
1.98811
2.0858
1.99339
1.99227
1.75816
1.49106
1.22202
1.05423
0.932982
0.906056
3.05216
11.8972
10.6479
7.89675
5.3949
4.92247
3.29405
3.88353
2.55948
2.74382
2.27399
2.3598
2.15477
2.21551
2.08518
1.94911
1.65546
1.46235
1.35616
1.3155
8.3496
9.43856
8.27718
7.45118
5.48796
4.97254
3.94017
3.80051
3.05552
3.39283
2.51293
2.48737
2.11689
2.05988
1.82537
1.77546
1.65522
1.55334
1.48455
1.38492
9.65101
10.3607
7.92814
6.38109
5.68962
5.12712
4.77439
4.37684
4.10412
3.91245
3.40018
3.41315
2.79467
2.60943
2.10216
1.88093
1.67397
1.45234
1.30954
1.02576
7.41694
10.3818
8.39576
7.37873
6.59241
5.65703
5.33955
4.78023
4.41821
4.11992
3.91204
3.778
3.60085
3.23468
2.50446
2.14184
1.76353
1.36804
1.09124
0.710366
9.83046
12.9991
6.80288
7.50561
6.96357
6.74122
5.88555
5.19347
4.74593
4.38763
4.12662
3.91842
3.82072
3.69033
2.95027
2.29722
1.7507
1.26165
0.873065
0.577771
4.26424
8.3693
8.47485
7.41591
6.75472
6.41609
2.55134
2.0148
1.96402
1.85147
1.58297
1.25834
1.03706
1.03437
3.67727
2.64978
1.79947
1.23364
0.861109
0.772446
0.46907
4.19809
4.06955
6.56364
6.17449
2.49266
0.834395
0.744652
0.616371
0.573783
0.461327
0.310294
0.303425
0.300864
1.28367
3.24484
2.00263
1.29864
0.944761
1.22828
2.70826
10.7257
6.35496
6.24839
6.00793
2.36224
0.755084
0.496402
0.598047
0.52188
0.401925
0.274874
0.230585
0.272783
1.22613
3.30541
2.15204
1.41463
1.29648
1.63006
14.1448
12.451
9.27683
7.10722
5.96224
2.09899
0.804574
0.516023
0.46171
0.422921
0.349659
0.269486
0.187024
0.20933
0.884373
3.19026
2.3659
1.90043
1.87056
1.76558
18.6333
9.10594
9.98526
7.67813
6.30792
2.24761
0.659408
0.338589
0.336396
0.291447
0.192484
0.225138
0.365746
0.374728
0.956419
2.72974
2.22039
1.8718
1.66178
1.52467
19.5818
8.52085
9.08535
6.45544
5.87345
5.4612
2.05755
1.80957
1.68756
1.39032
1.04229
1.04551
1.08023
1.16883
2.96662
2.64939
2.12258
1.78133
1.53876
1.4372
8.92296
13.1778
10.441
7.47219
6.10143
5.5798
5.04038
4.51655
3.86879
3.27532
2.85138
2.56562
2.43271
2.32864
2.30837
2.30853
2.02194
1.70082
1.54659
1.35559
18.1799
15.4327
10.0674
8.15571
6.3912
5.44174
4.76692
4.31772
3.73798
3.21882
2.80131
2.54022
2.35957
2.2256
2.13806
2.07199
2.05227
1.79924
1.57757
1.2791
8.86087
13.5778
10.5078
9.79035
7.96389
6.03116
4.57046
3.82979
3.35529
3.05509
2.77769
2.60959
2.44776
2.32364
2.20499
2.09801
2.03926
1.7932
1.66002
1.50553
6.47481
12.1351
11.166
10.4512
6.7509
6.42466
4.01303
3.64194
3.2325
3.03863
2.86308
2.74614
2.60022
2.4654
2.32326
2.1556
2.03179
1.67577
1.56842
1.33593
1.68843
8.62708
6.55122
7.59737
5.28361
5.67667
4.67633
3.98715
3.46796
3.2588
3.05777
2.93636
2.79057
2.68191
2.57075
2.23741
1.86574
1.49785
1.34386
1.09722
0.967198
3.83809
3.92251
6.01152
5.77605
5.40097
4.87759
4.38617
3.56371
3.378
2.66575
2.79513
2.4872
2.40174
2.03034
1.75558
1.55352
1.33945
1.20793
0.946594
1.65676
7.79353
6.53753
5.90241
3.28926
3.39367
1.98961
1.94459
1.67905
1.58336
1.28213
1.08979
0.946077
0.849961
0.735182
0.642639
0.530065
0.441764
0.414402
0.378883
0.187775
15.3878
27.0052
24.0901
18.9471
18.8208
13.3668
12.3395
9.50395
8.5012
7.41066
7.42199
6.75063
6.08088
5.00094
4.1795
3.35569
2.71918
2.50985
2.86988
6.76794
31.1866
37.7989
29.6531
27.3753
25.3446
20.7646
19.4791
16.1086
15.7738
15.7424
16.8405
17.5576
17.5765
16.2007
14.4816
13.4556
12.3487
11.1733
11.3663
13.6842
42.5823
46.8291
36.935
29.7091
23.7684
17.9928
16.9231
15.3408
16.3104
16.8715
17.6972
17.849
17.5532
16.7128
15.5115
14.2587
13.2293
12.6698
12.5821
12.8596
49.316
44.6624
34.4251
26.5633
23.2415
19.7848
18.2325
16.6767
16.5863
15.5842
15.3287
14.5002
14.24
13.7728
13.3315
12.8968
12.39
12.3174
12.0582
21.3896
34.1853
38.4751
28.6954
27.7376
24.6608
23.5787
22.199
20.724
20.397
19.0104
18.5377
17.3955
16.407
14.7106
13.0098
12.001
11.0061
10.5074
9.67426
18.6484
25.9237
31.3298
31.6207
29.6796
27.7516
27.7353
25.212
23.5211
21.8941
20.6402
19.6832
18.6256
17.0597
15.3905
13.8053
11.6793
9.04532
6.90197
4.99126
33.6072
18.4582
23.9122
29.5707
34.0448
34.0521
30.5638
27.1782
24.9971
22.7913
21.2055
20.1669
19.3455
17.907
15.868
13.3028
9.74479
6.09039
4.18289
3.09243
9.16415
37.7978
44.8306
35.4346
36.2125
34.4622
25.7199
25.7933
24.2857
22.6182
20.4935
18.4499
16.9608
16.8291
16.9179
12.8159
8.21683
5.33106
4.74303
4.82456
6.52014
13.3887
25.7536
30.1246
33.7934
26.8744
22.7548
23.3176
23.1099
21.7519
18.9241
16.8839
15.9421
15.2279
16.2445
13.3009
8.30355
6.22798
6.88442
8.3315
25.3013
31.4163
25.0226
28.0174
31.2595
26.2802
22.3196
22.0918
22.5144
21.1673
16.7677
11.517
12.2924
13.9085
15.82
14.2814
10.1094
9.99887
11.3211
12.8581
64.6541
59.7831
46.689
34.0366
30.8017
24.3705
21.3185
20.908
20.7039
19.1606
15.243
10.8553
9.61411
9.74685
12.9959
14.6701
13.3662
13.8181
14.3658
14.6812
69.9071
68.5
54.0117
40.3127
34.4621
25.0806
19.1348
18.0172
17.3403
14.4115
11.2661
10.2518
13.756
13.2572
12.4728
14.2999
14.0901
14.0118
13.5332
13.4334
60.6178
67.5845
55.1554
32.6537
32.8243
26.8078
19.8894
20.1867
17.5291
13.1169
11.3182
12.5372
13.8605
14.4552
15.1331
14.034
13.131
12.274
11.0184
11.2762
36.8526
64.7757
56.7994
38.7202
30.1625
27.6155
24.744
22.0257
18.1685
14.9007
13.2855
12.536
12.4261
12.0785
11.808
11.5113
10.9174
10.3328
9.98246
10.0036
34.9294
56.0063
43.2951
37.3057
28.6395
24.4446
21.0913
20.8377
18.1717
16.438
14.3277
13.4065
12.3687
11.7065
11.2217
10.7543
10.4632
10.2938
9.99668
9.38894
38.2306
51.5792
49.6095
42.4087
27.0063
20.5834
16.6835
17.6311
16.8305
16.311
14.935
14.1142
13.0726
12.4348
11.5267
11.1197
10.8054
10.5275
10.3809
9.96384
24.0549
42.1212
39.716
32.1059
16.9101
11.8366
14.1085
17.4895
17.697
16.8349
15.7873
14.9092
13.8663
12.9267
11.9562
11.0998
10.5322
9.72999
9.34556
8.36814
8.79666
23.915
17.4158
17.9877
18.9851
23.4902
22.0623
20.5101
18.2462
17.2614
16.0489
15.299
14.3591
13.6821
12.9872
12.2276
11.671
10.432
9.77345
8.54615
1.52596
17.8022
18.7925
23.3404
23.324
24.7364
22.269
20.4389
17.3412
16.2952
15.2344
14.5255
13.6157
12.8029
11.9478
11.2577
10.9465
10.217
9.72759
8.36691
2.08088
16.8137
25.0298
23.8798
20.7056
18.0675
15.0262
14.7462
13.3523
13.0192
10.0034
8.53505
7.08408
5.77293
4.3303
3.68826
3.25459
2.85151
2.69463
2.42327
0.632578
29.4959
30.5709
25.9525
19.8528
19.7468
14.7269
13.1984
10.417
9.50511
8.55265
7.97928
6.90275
5.77884
4.65927
3.85007
3.4239
3.43998
3.643
3.9952
17.8053
46.9854
49.8527
43.4643
36.4214
33.946
28.6988
28.1999
26.5095
26.6715
26.6257
26.4543
25.5278
24.0484
22.3065
20.1052
18.4881
17.6836
17.1019
16.9998
20.9671
59.5396
63.4433
52.9754
45.5586
38.3096
32.81
30.7733
29.1695
29.297
28.8723
28.1758
26.7625
25.3845
23.9082
22.5796
21.5799
20.6869
20.2276
19.3319
52.3109
76.1941
63.3098
51.8815
44.9225
39.5204
35.2121
32.2555
30.2884
29.2494
27.5024
26.2359
24.6428
23.5788
22.4598
21.506
20.7077
19.7715
19.4249
18.0229
54.7767
58.7496
59.0583
49.5744
47.2326
41.5133
39.3074
35.8521
33.7988
32.0381
29.8747
28.0809
25.9899
24.173
22.1779
20.4347
18.9593
17.2548
16.3995
14.2691
42.8701
45.7249
47.1762
49.303
49.5035
45.6414
43.867
39.1543
36.2904
33.3915
31.1332
28.9134
26.5485
24.1205
21.9032
19.709
16.9264
13.8828
11.7433
8.45598
68.9204
47.3913
48.3787
50.9907
53.0423
51.5182
46.6562
41.1921
37.4534
34.1642
31.6452
29.592
27.2446
24.4912
21.4515
18.025
13.7976
10.0189
7.44318
5.22617
19.8145
62.9787
65.4174
56.519
55.9685
52.2637
46.2194
41.7423
37.6318
34.1696
30.9021
28.5215
26.6875
24.7954
20.8964
16.1594
11.8104
9.21863
7.6895
7.30949
29.9362
32.965
53.3655
54.5301
54.017
48.5205
44.5244
39.9618
36.4676
32.8483
28.8377
26.3007
24.7326
23.86
21.5097
15.8261
12.3149
10.8201
11.0405
12.3285
52.4904
38.386
44.2209
49.3351
50.9678
46.8959
42.7369
38.5997
35.334
31.2091
20.1499
14.8908
19.1976
21.5246
21.0853
17.3585
15.7842
16.5304
17.4644
18.7942
80.5078
65.5068
63.3746
54.4537
51.0169
44.6342
40.1702
36.1781
32.7831
28.8295
6.72353
7.88339
11.3606
13.7791
18.2837
19.3107
19.6674
20.2422
20.9947
21.4719
45.0611
81.8396
73.1382
59.2409
53.3049
45.1961
39.0267
34.2436
29.4364
23.8866
19.8458
19.8233
20.5955
17.746
17.1235
19.4042
20.1259
20.506
20.649
21.0297
39.5894
53.5419
76.9755
56.5149
51.7759
44.5419
38.2154
34.1007
28.8295
23.0355
21.3959
21.6406
21.6273
21.1796
20.5924
20.0449
19.7244
19.4254
19.0695
19.4137
45.195
65.3802
73.8957
58.8465
49.4869
44.6674
39.5796
34.386
28.6206
24.7006
22.5071
21.0763
20.4211
19.5134
19.229
18.7843
18.3562
18.0691
17.9592
17.8602
33.946
65.3923
59.8659
54.331
45.3255
40.2258
35.9252
32.6806
28.3166
25.4222
22.8424
21.1324
19.7167
18.5937
17.9774
17.4824
17.2633
17.0027
16.7282
16.1037
25.0895
65.8508
59.9888
54.5932
41.2286
36.7946
32.2684
30.5813
27.5639
25.3433
23.1325
21.3689
19.7602
18.4454
17.3397
16.5386
16.0757
15.4747
15.1323
14.177
20.0265
53.6331
53.2631
45.7005
30.6574
30.4277
30.8732
30.4371
27.7705
25.554
23.5357
21.7765
20.1022
18.5264
17.129
15.7705
14.8416
13.5178
12.8394
11.018
48.3922
34.2174
35.7243
38.0545
38.7749
40.4174
35.6791
31.458
27.364
24.8705
22.6428
21.1612
19.8098
18.6894
17.677
16.5477
15.6909
14.2173
13.5563
11.7032
24.4687
28.1768
34.812
39.4916
38.6824
38.2186
33.5538
29.7727
25.1957
22.3429
19.6388
18.0487
16.5024
15.3733
14.6274
14.1716
13.9625
13.1046
12.5516
10.9014
0.95591
19.8027
25.9621
25.9356
24.0862
20.9282
18.0595
16.2732
14.4425
13.2175
10.3859
8.71405
6.85438
5.22706
4.27378
4.01175
3.79384
3.53587
3.43447
3.07923
10.5578
34.7349
32.5012
25.5837
18.7576
16.6599
13.2925
10.2756
9.28426
7.73346
7.25018
6.0018
5.35496
4.56172
4.20648
3.89961
3.96804
4.05877
4.03203
3.78479
46.6787
59.9501
53.7454
44.5647
36.5837
35.6668
31.689
32.0956
31.0705
30.929
29.8273
28.7683
27.0134
24.4587
23.1303
21.2137
20.5104
19.5229
18.8638
17.9874
40.7861
70.4057
71.34
62.2145
52.8113
45.5744
40.6056
37.5716
35.9223
34.7689
33.1963
31.2792
29.3144
27.4481
26.0201
24.7229
23.856
22.8254
22.1761
20.5723
81.1588
85.3269
72.1013
63.3349
55.1077
48.1111
42.811
39.2498
37.1321
34.9488
32.8983
30.659
28.6454
26.8099
25.2622
23.8103
22.6702
21.3705
20.5531
18.5827
38.6259
76.8456
71.6214
63.0172
57.8917
50.4185
46.8629
42.004
39.6048
36.6593
34.1309
31.39
28.8597
26.489
24.231
22.0943
20.2303
18.2493
17.0852
14.5539
38.5692
62.8576
64.1466
63.7371
61.1395
54.8805
51.282
45.2839
41.7562
37.9441
35.0188
31.7124
28.6161
25.6712
22.8101
20.083
17.2956
14.6701
12.6918
9.50768
54.4906
68.7171
66.222
64.759
64.0383
60.1625
53.6742
47.059
42.4773
38.3845
35.2589
32.0638
28.4786
24.9833
21.2928
17.7287
14.0633
10.9746
8.63451
7.07471
33.5501
71.8311
74.3284
68.92
66.1111
60.956
54.9077
48.1204
42.3536
38.0579
34.603
31.7101
28.8468
25.2086
19.2059
15.5611
12.4724
10.1947
8.89452
8.69472
35.5005
54.8783
68.0136
67.272
64.8078
59.455
54.6963
46.4438
40.5451
35.482
31.7456
29.1131
26.97
24.4009
19.5463
15.3298
13.6097
12.702
12.7902
13.64
62.4358
51.1335
61.3401
62.8048
62.1359
57.9553
52.7385
45.0095
38.5789
33.0745
23.6291
20.8048
22.3806
22.2225
19.3456
17.8821
18.376
19.0984
20.0741
20.2842
51.0143
70.8652
72.0833
66.1001
61.4835
55.0285
49.8852
42.7146
36.3521
30.5392
12.2597
11.6201
14.2354
17.0735
18.7894
20.435
21.6656
22.7452
23.4612
23.4684
56.2521
83.664
80.904
69.7271
62.9036
55.8722
49.5748
41.4379
33.9193
27.5654
23.9964
22.7757
20.3921
18.0847
18.3606
21.1374
22.534
23.3804
23.7924
23.7671
36.3723
54.4356
83.7515
69.759
61.8296
54.0132
47.5031
40.4121
33.6258
27.921
25.3545
23.661
22.6412
21.6581
21.5466
22.0865
22.5344
22.5772
22.5986
22.4045
13.797
57.3833
75.3689
71.2432
61.0634
54.3604
46.6403
39.8125
33.1249
29.1683
26.2491
24.1971
22.9582
21.9188
21.637
21.3403
21.1957
21.0328
20.9699
20.4628
34.219
74.2346
73.342
66.0866
56.62
49.9907
43.7233
37.8665
32.4383
28.7798
25.904
23.5651
21.9834
20.5732
20.0806
19.6043
19.3253
19.012
18.8114
18.125
38.9121
70.1889
69.4904
64.1575
53.4423
47.4702
40.7353
36.048
31.6242
28.5012
25.703
23.2531
21.372
19.6552
18.5644
17.5909
17.0421
16.3026
15.7993
14.7584
26.0163
62.8512
61.6093
57.4062
47.7907
44.7144
39.4567
35.2966
30.9797
28.0177
25.3417
23.0414
21.0932
19.1602
17.6777
16.1804
15.0561
13.7645
12.878
11.4647
24.6963
48.5923
51.4516
50.9204
51.2197
48.1445
40.8074
34.7487
29.5698
26.242
23.5749
21.7197
20.3108
18.9533
17.9196
16.6725
15.7302
14.4272
13.6694
12.1174
26.0059
45.7997
47.7403
49.3001
46.7055
43.1376
36.8503
31.3044
25.373
21.6043
18.6603
16.2781
14.8666
13.1977
13.0404
12.6507
12.7737
12.4313
12.0433
10.8251
0.368918
10.2746
25.442
25.4256
23.2841
19.5519
15.3071
12.0464
10.6357
8.42314
6.91163
5.40323
4.42675
3.68433
3.37034
3.25786
3.20386
3.08774
3.06238
2.84885
12.0253
20.6816
12.6967
11.055
6.56788
7.59216
5.05992
6.30555
4.38643
5.69211
4.25629
4.71892
3.86191
3.99562
3.60719
3.57444
3.2002
2.90328
2.61903
2.34267
56.08
64.6034
42.4563
42.1808
26.9177
34.462
27.1387
31.0968
28.5246
28.5018
26.2543
25.3445
23.7437
22.5974
21.8155
20.9056
20.2278
19.2153
18.5388
17.2205
92.9978
82.8799
72.0601
62.9938
51.3112
44.8682
39.2722
38.0166
34.3125
33.6193
30.7797
28.9999
26.9388
25.1981
24.064
22.8545
22.05
20.927
20.103
18.5321
130.092
105.291
78.5586
65.7985
54.2868
47.9586
41.1981
39.5101
35.5706
34.6269
31.2043
29.0794
26.6303
24.526
22.988
21.5115
20.4591
19.2685
18.3201
16.5188
81.7983
86.7884
75.9325
62.9464
57.9573
50.9835
44.9546
42.3087
37.8187
35.8879
32.1998
29.459
26.4788
23.8519
21.5227
19.4505
17.8191
16.2875
15.0763
13.516
42.7849
51.8648
72.7102
70.1079
61.5745
55.021
49.0424
45.3616
40.6286
36.9382
33.1865
29.5868
25.9709
22.6576
19.526
16.8761
14.6737
12.9794
11.6346
10.6919
29.6762
73.3153
75.0341
72.3946
64.1282
61.4774
53.222
46.8291
41.8969
37.5629
33.5263
29.7214
25.3201
21.3465
17.445
14.2735
11.961
10.6279
9.90992
9.6765
73.8984
78.2689
79.2281
55.0556
66.9317
50.122
54.0745
47.1397
40.5433
36.6352
32.5239
29.3668
25.3494
21.3766
15.8064
13.3478
11.8239
10.9523
10.6412
10.6478
21.9123
64.4631
71.8279
72.9753
66.7513
61.2642
52.8603
43.4045
36.4035
31.5492
28.0679
25.2747
22.51
19.2732
15.4879
14.6855
14.2
13.8721
13.8605
13.8888
33.6099
42.5433
72.504
46.7292
64.7631
60.5146
51.5553
40.6268
33.5568
28.4275
23.4999
20.3854
19.2435
17.9683
16.4357
18.5202
19.3086
19.8323
19.9455
19.5101
49.2124
71.2148
78.589
61.624
63.7023
56.2191
49.8792
38.8974
31.7685
26.268
20.4426
16.6648
15.4323
16.5139
17.6244
20.967
22.0038
22.8344
22.9941
22.5348
52.2071
53.5413
85.0513
41.6816
64.4402
56.1867
47.827
38.0984
29.6044
23.8405
20.6855
18.6648
17.2375
16.7903
18.1037
21.5823
22.537
23.076
23.1241
22.5828
40.1859
81.1412
79.4071
68.3075
62.7026
45.9625
47.3058
39.1229
31.0476
26.0436
22.7613
21.1747
20.056
19.6359
20.8479
21.4458
21.7255
21.5688
21.4218
20.7732
23.3993
59.154
74.7175
64.0223
61.0856
50.4717
45.4546
37.5694
31.332
28.1581
24.7906
22.9212
21.5145
20.7304
20.3642
20.097
19.8161
19.5764
19.4263
18.9357
23.9666
77.7981
79.089
53.8232
57.9136
32.8799
42.4901
35.8333
30.3436
27.0899
24.053
21.8017
20.3321
19.1538
18.6939
18.2491
17.884
17.5513
17.4167
17.0833
24.74
71.8794
75.4505
45.9941
54.9593
35.3418
39.3459
33.6827
29.3213
26.2721
23.5008
21.0604
19.28
17.6073
16.7269
15.8775
15.4242
14.8812
14.5086
14.0647
61.7933
64.7552
68.8138
40.5881
52.8425
29.2079
37.5497
32.9331
28.4571
25.936
23.2128
20.8495
18.8814
16.7811
15.4606
14.1348
13.4029
12.6465
12.2394
11.8176
47.2345
40.8444
63.4979
56.1805
54.7279
46.3195
38.0497
31.0601
26.9424
24.1228
22.0258
20.1264
18.7239
17.0226
15.9362
14.604
13.9314
13.1266
12.7231
12.1134
47.4729
46.6594
54.7355
41.5996
46.2
41.3374
33.9384
26.6958
21.8303
17.8938
16.2465
14.7481
14.1667
13.5539
13.1562
12.5976
12.1992
11.7115
11.339
10.8416
1.88392
24.9547
11.708
22.3526
11.7669
17.9602
9.53056
9.87354
5.55184
4.78417
3.42401
3.00352
2.46549
2.4019
2.15153
2.02963
1.87277
1.72923
1.63421
1.4256
23.5482
28.9336
9.28578
33.2314
25.0815
27.6235
9.14565
14.978
8.00119
6.95651
22.2367
18.9119
7.84041
7.41983
7.67354
24.708
20.9734
20.3294
7.55009
27.9372
24.4239
6.57563
20.0404
18.5437
6.51921
6.63037
23.6442
22.504
0.816602
0.737993
0.503757
13.8733
16.8159
16.0051
16.3104
0.66916
0.506111
0.552673
17.7205
18.384
16.6632
17.4378
0.559202
0.563366
0.546241
18.2805
17.744
17.5383
17.1959
0.47225
0.52426
0.433962
17.4833
15.8939
16.8676
14.9579
0.305006
0.400163
0.302005
15.262
13.7556
13.9464
10.8904
0.280238
0.275013
0.247776
13.5907
13.1876
10.5005
10.8093
0.285273
0.252975
0.284396
12.876
11.9511
10.9272
11.2494
0.278078
0.293
0.288887
11.9848
12.866
11.4455
12.5753
0.473415
0.695362
0.482266
15.0503
16.2057
14.7293
16.2972
0.595506
0.504304
0.516108
16.6579
17.5846
16.685
17.1058
0.547585
0.500647
0.461518
17.6417
17.2491
17.0195
16.5327
0.42845
0.447656
0.400341
16.8881
14.8969
16.1482
14.2825
0.302688
0.377832
0.297218
13.7536
10.2123
13.3416
10.2679
0.229727
0.281409
0.197146
9.58396
9.56064
9.29958
7.24158
0.26185
0.194877
0.209505
9.8018
10.6377
7.54444
7.98308
0.281883
0.211733
0.206328
10.9889
12.3288
8.36662
10.4997
0.532182
0.754279
0.366057
14.7712
15.7891
13.0756
13.2651
0.471675
0.339235
0.323808
15.9834
16.3636
13.2207
13.5593
0.435707
0.327282
0.312718
16.3452
15.8831
13.5928
12.6874
0.371229
0.297768
0.191762
15.4439
13.6248
11.9346
9.28272
0.286316
0.172911
0.170497
12.8885
10.3237
8.93575
8.29126
0.187798
0.169505
0.207155
9.28471
7.10326
7.63946
8.34363
0.214557
0.25569
0.3277
7.44868
7.79884
9.51671
10.2571
0.194029
0.319167
0.21747
7.91972
9.69929
9.86145
9.20508
0.358626
0.755197
0.693871
12.1703
13.0992
10.4196
12.8585
0.336935
0.690531
0.618688
13.0858
13.3067
13.4939
13.1631
0.310379
0.518603
0.444992
13.2764
11.9998
12.5218
10.8503
0.197629
0.377816
0.294748
11.237
8.66107
10.0027
7.46073
0.222799
0.253209
0.354827
8.59531
7.87455
7.25567
7.91086
0.32376
0.338607
0.443614
7.70521
9.98294
8.39979
9.97717
0.386134
0.436094
0.471281
10.7568
11.1043
10.3365
11.1009
0.245869
0.4547
0.346478
10.7967
9.75611
11.2057
11.6263
22.7933
23.143
21.9644
39.6335
37.3087
39.0994
36.1902
23.3911
22.122
22.4921
36.729
34.8024
35.5949
33.9192
22.1454
22.4764
21.7518
34.0399
31.7803
33.2986
31.0136
19.7003
21.2493
18.6158
30.9691
28.0654
30.0127
25.3793
17.0899
17.2523
13.4692
27.0695
24.9114
23.1029
18.6746
16.2917
13.0585
13.576
24.5678
23.4722
18.3468
19.7108
15.1271
13.7679
14.2581
23.0672
22.5453
20.0959
20.9127
15.5129
14.513
15.2069
22.4341
21.7214
21.1399
21.1099
21.8631
21.7709
21.6111
38.5232
35.9705
37.0643
34.6298
22.5686
21.7556
21.7125
35.379
33.7024
34.0022
32.1095
21.7141
21.5066
20.5763
33.0774
30.681
31.39
28.7273
18.3546
20.0221
17.0301
29.5972
23.3736
27.7019
14.7369
12.3086
15.6345
11.8311
20.3242
14.7401
12.6505
9.7157
11.8871
10.7036
9.09444
14.31
16.8084
9.47066
10.5014
13.4706
9.45247
9.92802
17.7644
19.7584
11.0065
13.3516
14.9364
10.3767
12.6525
20.2263
20.7775
14.5801
17.9242
20.9176
19.7622
18.4304
36.1601
33.7612
35.0948
32.0336
20.8461
18.1669
17.9233
33.1039
31.2473
31.0883
28.6031
19.7854
17.7482
16.1792
30.5478
27.8234
27.6805
24.2368
16.3772
15.2049
12.2381
26.8723
14.0242
22.8489
19.2213
11.9506
11.753
10.3712
12.3007
10.2334
18.3314
16.4921
9.19934
9.76456
11.4146
10.4661
11.7292
16.6293
18.4542
9.6041
12.4869
12.617
11.7526
12.2017
18.4407
16.282
11.685
12.0503
10.7583
12.8649
16.5818
15.4034
14.4915
18.2613
17.8845
18.0966
34.6873
31.9209
33.1475
31.5539
17.6068
18.4312
17.4807
30.9278
28.131
30.7941
27.5449
15.4036
16.5943
14.2818
27.079
23.3868
26.1884
22.2982
11.4939
13.1644
10.4503
21.9794
18.6463
20.8673
18.4312
10.2116
10.2927
11.0585
17.9873
17.2919
18.3135
18.9739
13.0286
11.6367
13.275
17.8121
19.6544
19.3871
20.2454
13.712
13.6347
14.2205
19.6547
18.0079
20.3213
20.0695
11.4702
14.238
13.9854
17.2147
15.3035
19.8366
19.0338
40.8512
43.2836
39.7432
53.0353
47.3356
51.6692
46.4032
37.4053
38.8857
36.4683
45.7422
41.6655
44.7889
40.4111
33.7563
35.6334
32.8395
40.3147
36.554
39.0508
35.1432
29.827
31.7219
26.5178
35.4893
32.5436
33.8695
28.5761
26.6819
24.0673
19.862
31.6365
29.5572
26.5305
23.4979
25.1341
19.6652
21.2353
29.0611
27.6187
23.4897
24.0749
24.0922
21.6206
22.327
27.1179
25.6351
24.1159
23.77
22.6445
22.4524
21.9393
24.9859
22.7053
23.4653
21.7445
39.4629
41.1232
37.8885
51.1246
45.9853
49.1946
44.1681
36.1721
37.0241
34.483
44.3692
39.9627
42.6155
38.2613
32.4458
33.5776
30.3342
38.5859
34.6673
36.8816
32.729
28.6419
29.6522
30.6047
32.3188
28.341
30.5674
31.5758
10.7143
17.5557
14.6598
20.0875
12.1695
17.6582
12.9271
18.1593
7.26097
9.84724
19.3092
21.6318
8.16374
12.1543
21.1492
10.8275
14.3483
22.1643
22.8021
13.5077
17.2723
21.6436
15.7432
18.9212
22.7232
21.5402
18.2949
19.9361
37.049
39.3391
35.583
48.303
43.5028
47.944
42.573
33.6811
34.4219
31.2005
41.9813
37.665
40.7948
35.7462
29.4603
30.0569
26.1549
36.2615
32.0038
34.1161
29.3968
22.3469
15.6898
27.1191
23.766
23.8395
3.59708
28.3364
15.3441
6.28946
17.2908
2.57317
16.2179
2.51415
16.1894
11.0714
18.7831
19.7321
8.29417
12.262
22.3085
20.6302
12.7867
19.3417
16.736
13.0363
15.5328
19.71
17.2317
17.6032
15.8834
15.3174
16.5664
19.0697
16.8423
17.2039
35.471
37.8378
34.9557
47.8801
42.4329
45.3923
41.6722
30.6998
33.8842
30.0878
40.5719
35.2788
39.9356
35.0605
25.343
28.6016
24.3805
33.5838
28.7666
33.2999
28.4059
20.5216
22.9637
20.695
27.3164
24.2063
27.1041
24.9628
19.3603
20.5364
20.8889
23.6132
22.9446
24.5122
23.626
20.8686
21.1431
21.5785
22.8526
21.6361
23.4174
22.8099
18.5674
21.5243
20.9997
20.9369
18.7468
22.5131
21.5132
16.0718
20.7163
19.8309
18.2197
17.5743
21.2161
20.5661
48.2029
53.1904
47.2883
54.8595
47.1543
54.0245
45.6774
42.0052
45.4496
40.5641
45.1228
40.0905
43.4477
37.8259
36.5506
39.075
34.9586
38.3468
34.1632
36.1692
31.9994
32.6251
33.6886
28.8563
33.1686
30.5573
30.8311
27.2972
29.6466
27.1085
24.3608
29.6484
27.4131
26.1679
23.738
27.5306
24.2272
24.183
26.7802
24.8107
23.195
21.7858
25.1562
24.0598
23.2973
24.0592
21.643
21.4017
19.9899
21.9321
22.8634
20.9003
20.742
18.0931
19.3809
17.2457
46.8462
50.8013
45.0565
53.4246
45.166
51.7406
43.6644
40.085
43.2847
38.4259
42.9453
37.2929
41.4549
35.8031
34.4686
36.9326
32.6821
35.6233
31.5173
34.242
29.9301
26.0255
30.9292
14.8643
30.2816
26.0111
28.5435
22.1768
20.6111
12.9865
11.0284
24.6081
21.9733
20.4283
17.2236
22.1223
11.3253
13.8853
21.5459
20.5863
16.7107
16.1998
22.4494
14.8891
17.7775
20.3721
19.5331
16.3273
17.3098
20.7639
18.534
19.6158
19.0877
17.3284
17.5019
17.5031
44.4513
49.5686
43.6214
51.102
43.247
50.0081
42.5734
37.8763
41.6555
36.1374
41.0443
35.3255
40.2284
33.8626
31.9913
34.3963
29.5557
33.735
29.3375
31.9525
27.3545
13.9828
28.1303
24.8109
27.9844
22.1266
26.1037
23.2835
10.784
24.0835
22.7806
20.5392
17.4495
22.6017
20.728
13.6958
22.386
20.2322
16.8502
15.6834
20.0259
17.7412
16.2517
19.2779
17.2161
15.6878
16.5703
17.2436
16.6536
18.9429
16.9778
17.4378
16.8784
17.3685
16.6707
17.0755
43.4794
48.8719
42.7763
49.6291
42.486
49.289
42.6349
35.7109
40.9082
35.7672
40.1028
33.5117
40.5004
34.3036
28.9761
33.9023
28.8721
31.5397
26.7683
32.1582
27.1854
24.5808
27.6163
25.3747
25.541
22.8698
25.9669
23.3498
23.0612
24.8044
23.5513
22.2568
20.6917
22.5975
21.0582
21.1279
23.2462
22.462
20.1172
18.3673
20.7394
19.9628
18.478
22.134
21.1241
17.96
17.2446
19.6597
19.0164
17.7296
20.8589
20.3912
17.1545
17.2454
18.9031
18.8582
45.4809
52.0684
43.3184
27.8726
22.2648
29.7495
29.9531
38.1886
41.1439
35.6903
19.4092
24.7536
27.6183
24.9266
32.4947
34.0905
30.0288
20.9012
18.0853
24.0682
19.5758
28.9783
28.9041
25.6509
15.9855
19.5495
18.5169
17.1847
25.9091
24.6418
22.3025
16.5884
16.7933
16.7192
14.808
23.2787
21.7349
20.4564
14.2274
17.256
14.4306
15.1662
20.1518
20.1037
18.7316
14.1035
14.6675
14.8609
13.7327
16.8413
18.1427
16.2433
11.9867
12.8691
13.2318
11.8321
42.7828
50.1352
41.403
23.7697
29.2558
23.5024
28.1022
35.1752
39.2395
33.7746
27.6885
25.0056
27.0372
24.1624
29.584
32.2487
28.1062
23.5848
19.2439
22.3539
17.8265
24.7013
26.8018
21.8923
18.1284
16.4089
16.5002
14.2673
20.9328
20.3991
17.2847
15.8209
13.8138
13.5302
11.2951
19.4172
16.6448
15.8258
13.4251
14.0567
10.9044
11.5382
18.4101
15.9856
16.8274
14.3678
13.4662
12.4416
12.5752
16.3845
16.9353
16.8732
13.0722
12.2169
12.4288
11.7135
41.086
48.3679
40.5175
22.4801
26.6612
25.6996
23.7604
33.3252
38.1643
31.8767
25.7546
23.1854
22.0473
19.2362
27.5547
30.0293
25.6169
21.422
16.9572
17.9187
14.292
21.7929
24.4552
21.7462
15.6634
13.6556
13.4899
12.3191
17.4019
21.0707
19.1761
13.1621
11.4289
12.0456
11.0813
15.352
18.4949
16.8532
10.9484
11.4063
10.9642
12.0489
16.2981
16.5961
16.375
12.2677
12.4399
12.5513
12.073
16.8415
16.417
16.8215
12.3347
12.0997
12.0277
11.88
40.4885
47.6354
41.2875
24.885
21.5926
21.8717
14.0649
31.5057
39.0217
32.3339
19.825
17.4656
14.2505
13.4615
25.0163
30.2145
25.6211
16.6921
13.2317
13.6639
9.86645
21.2781
24.4781
22.0484
12.5799
11.8374
10.306
10.4068
19.1675
21.367
20.0034
11.6921
10.9908
11.1102
9.43405
17.4819
19.7142
19.042
11.0323
12.4663
10.2006
10.2202
16.8352
18.7767
18.3153
12.3965
12.0376
11.1798
9.914
16.9589
18.2226
18.2942
12.0293
12.2782
10.831
10.3817
22.6316
27.2065
18.3308
23.5741
23.8145
27.712
16.5288
21.5165
29.6444
18.4575
25.5343
25.0249
30.1365
5.0585
10.9684
11.7197
11.9573
2.67121
16.9029
7.047
3.07023
29.0481
32.9843
31.4237
32.4365
31.1434
32.1705
29.7319
22.831
24.0847
28.7137
19.2648
28.1911
16.8906
24.5443
21.4298
26.1368
31.406
18.2854
30.6562
4.97374
25.8178
11.1127
2.62754
12.2418
11.7019
7.31444
3.04333
16.9869
9.40572
15.9018
9.75148
15.6014
10.6006
16.2508
9.04734
4.47631
9.43181
7.08987
2.42735
8.04166
5.4752
2.22653
4.0843
6.98002
6.69655
4.12865
7.22295
4.69602
3.14295
11.6953
20.8359
20.422
16.1762
18.7225
13.574
14.4397
10.6296
17.0422
19.3404
13.2746
17.5261
10.5177
13.4407
4.97514
2.35838
10.1979
7.12925
5.86773
2.17838
9.0217
4.59774
4.12063
8.65945
7.02967
5.3547
3.04303
8.37278
19.0191
9.88855
18.6867
2.73635
20.7275
3.0528
17.294
25.5633
25.859
23.3226
26.198
24.3794
27.2498
24.7998
23.8633
21.4627
22.0635
22.4462
22.8357
22.4675
23.5345
22.9416
21.3091
16.4553
29.6832
3.81759
29.2107
25.7177
19.3425
2.70895
9.93517
19.7897
3.04358
17.5845
21.9917
26.5046
27.2874
28.8276
26.593
28.2584
25.9045
27.1853
24.7697
23.6193
24.181
25.4115
23.3844
24.6675
25.5526
14.9194
5.87641
14.8107
3.48483
15.3801
2.61996
14.4995
20.3506
20.2995
19.2624
21.5389
19.3132
21.3239
20.8394
19.6344
17.8949
18.7185
20.3282
18.4745
19.2064
20.4203
15.6611
2.53836
5.96802
18.4164
2.47751
16.4651
17.3885
15.3087
3.66233
5.66545
16.2811
2.71376
14.9371
16.6331
21.3276
22.7738
23.0639
23.0795
22.2396
22.1569
22.2076
20.7071
21.6808
21.1043
22.7228
20.2877
21.8021
21.5722
2.05873
2.39492
2.12304
8.50638
12.1609
8.25626
11.5141
2.02578
2.05399
2.04788
13.7854
12.8849
13.3782
13.9396
1.87679
2.04412
2.03108
13.5976
13.9415
13.815
13.5875
1.76431
2.01576
1.79406
13.5085
12.7306
12.9232
12.2388
1.2033
1.4552
1.30085
12.4876
11.8537
11.5118
10.9139
1.05288
1.25222
1.18328
11.2182
10.4771
10.531
10.1466
0.948912
1.10893
1.06039
10.0056
10.097
9.56287
9.30675
0.911884
1.11183
1.04292
9.93864
12.4801
9.15235
11.609
2.09021
2.30615
2.25461
9.28107
9.78283
9.93598
13.1116
3.51813
0.926432
0.718056
2.95732
3.39462
2.8735
0.55858
5.96454
0.761159
0.537902
5.31616
5.91412
5.54129
0.554284
6.16899
0.587649
0.530871
6.45483
6.60304
6.19653
0.530278
5.74865
0.525374
0.532094
6.57832
6.47211
5.88719
0.511966
4.91607
0.380967
0.426139
5.94444
5.78757
5.19778
0.384214
4.3429
0.277943
0.293321
5.49316
5.45124
4.3623
0.285546
4.33707
0.283995
0.292937
5.08921
4.99689
4.35395
0.295323
4.20313
0.295307
0.298207
4.54628
4.623
4.1335
0.311366
1.00959
1.28351
1.11975
9.64689
10.2445
9.65755
10.9188
2.19727
2.33919
2.06205
9.02667
11.6989
8.70736
11.1492
3.2321
0.543286
0.733569
2.72138
3.34822
2.65377
0.542699
5.66473
0.529626
0.515307
5.25271
5.58799
5.28928
0.556088
6.09082
0.589077
0.601806
5.95998
5.97318
6.05282
0.585094
5.95581
0.492916
0.509114
5.89975
5.82296
6.03695
0.481032
4.94539
0.372467
0.400585
5.18154
4.84345
5.28804
0.374144
3.63799
0.251106
0.280542
3.89275
3.74195
3.84565
0.253451
3.30589
0.238581
0.216092
3.65187
3.65064
3.33493
0.220535
3.76846
0.287424
0.249417
3.89086
3.96783
3.63565
0.266393
1.07742
1.09345
1.03728
9.46131
11.0045
8.85541
10.8713
2.00159
2.10224
1.95199
8.8626
11.3989
8.70267
10.5173
3.42105
0.651338
0.785756
2.85578
3.68085
2.70677
0.631789
4.9922
0.497423
0.441961
5.31872
5.56816
4.7478
0.416866
5.45893
0.454396
0.401025
5.83758
5.85435
5.41934
0.399349
5.19081
0.41058
0.378156
5.72189
5.58286
5.36263
0.366279
4.27826
0.327281
0.280687
5.08503
4.88033
4.43243
0.260503
3.19231
0.244706
0.231605
4.02188
3.66143
3.5924
0.212834
2.62916
0.204305
0.182125
2.44108
2.6292
2.28951
0.209277
2.97026
0.213312
0.226489
2.83974
3.01537
2.88818
0.221094
0.87885
0.824086
0.703444
7.81713
10.5997
7.31771
9.76898
2.05351
2.30025
1.97589
8.37874
9.38035
7.87282
7.86294
2.60457
0.479859
0.654883
2.33107
2.66389
2.31249
0.484759
4.03774
0.330215
0.371036
3.60872
3.80714
3.69624
0.372058
4.22464
0.33213
0.371684
4.26654
4.26994
4.33362
0.359036
3.41099
0.260035
0.303964
3.8078
3.41307
3.75876
0.278593
2.68702
0.206817
0.230817
2.67629
3.04709
2.69742
0.239411
2.68622
0.246462
0.295789
2.64897
2.57691
2.53754
0.326111
3.87723
0.390309
0.434102
3.60638
3.82598
3.70456
0.455398
3.94818
0.349528
0.42096
3.88526
3.77602
4.00338
0.401254
0.670768
1.18993
0.784884
7.81469
9.83022
8.74126
11.0048
1.87167
2.15915