/*--------------------------------*- C++ -*----------------------------------*\
  =========                 |
  \\      /  F ield         | OpenFOAM: The Open Source CFD Toolbox
   \\    /   O peration     | Website:  https://openfoam.org
    \\  /    A nd           | Version:  10
     \\/     M anipulation  |
\*---------------------------------------------------------------------------*/
FoamFile
{
    format      ascii;
    class       volScalarField;
    location    "2.5";
    object      omega;
}
// * * * * * * * * * * * * * * * * * * * * * * * * * * * * * * * * * * * * * //

dimensions      [0 0 -1 0 0 0 0];

internalField   nonuniform List<scalar> 
12920
(
77.8395
148.774
148.613
133.515
115.326
106.586
100.268
95.1738
87.1296
78.4472
69.2375
63.225
60.7377
59.1477
56.9637
53.9872
50.8997
46.0922
42.2136
37.2769
109.384
184.708
167.521
129.971
112.446
104.165
91.9358
85.0685
77.2312
73.3007
71.5922
71.4675
71.1827
70.0322
66.2688
60.1446
54.7856
50.0364
46.7634
43.9875
176.868
240.613
210.879
155.868
119.114
97.4862
82.7741
77.3878
72.4957
70.4953
68.127
66.6949
65.3105
64.4025
62.7657
58.7473
54.0591
49.8147
47.8137
45.5894
169.196
207.665
181.749
147.452
119.195
98.5963
83.8333
75.43
70.5367
68.2383
65.717
63.4447
61.3015
58.8759
56.0356
52.7667
49.8547
46.3972
44.6987
42.3683
300.551
206.176
157.099
126.586
113.85
101.914
94.8778
86.936
81.5139
77.6971
74.16
71.5304
68.8763
65.4103
60.5115
54.8553
50.3011
44.6524
41.7986
36.1854
296.678
205.246
167.125
146.868
131.195
112.474
106.123
94.9407
87.735
81.8099
77.6873
75.0414
72.9776
68.5497
62.3662
56.4399
50.8426
44.007
38.1877
28.0062
295.734
258.912
180.105
149.063
141.206
134.202
116.896
103.169
94.2718
87.1569
81.9493
77.8295
75.9089
73.2705
66.2148
58.1616
50.6562
41.2631
30.5755
20.2918
147.301
167.13
168.351
147.703
134.32
127.459
202.962
159.426
155.768
146.9
137.726
126.008
117.793
115.033
72.962
61.1076
49.4662
37.2034
26.9379
22.1476
97.2938
141.348
140.41
130.298
122.733
198.074
341.464
263.058
270.101
260.202
232.709
193.81
194.593
186.064
125.878
64.3238
49.9538
36.8577
28.9444
29.5486
196.967
215.346
146.721
124.092
119.459
188.924
278.246
229.708
248.422
249.662
236.49
189.853
170.504
169.298
118.443
65.5798
51.5489
40.3931
37.7902
40.6839
339.226
246.237
184.834
141.468
118.411
166.972
257.044
235.961
251.376
251.744
237.863
211.532
159.741
143.781
101.489
63.6921
55.7493
50.0907
49.2744
48.647
401.852
248.074
199.403
153.031
125.482
179.57
267.502
201.572
197.635
189.323
146.532
134.911
155.848
165.822
102.256
60.7044
57.2748
54.2406
51.2083
48.9829
362.478
235.948
179.117
128.205
116.593
108.585
164.319
144.059
134.151
110.301
88.5412
83.1114
85.8831
92.8989
58.9173
56.5896
55.2343
52.6809
49.3373
46.3959
220.577
257.689
205.795
148.338
121.265
110.965
100.203
89.7273
76.7969
64.9902
56.585
50.9213
48.2921
46.2295
45.8247
45.8233
46.024
45.3688
44.0938
41.2329
398.606
301.188
197.313
161.704
126.881
108.132
94.8234
85.8251
74.2153
63.86
55.5824
50.404
46.829
44.1715
42.4368
41.1278
40.7359
40.2716
39.5078
36.6059
288.145
258.985
215.732
193.953
158.232
119.316
90.5143
75.9915
66.6011
60.634
55.1314
51.7958
48.5856
46.1172
43.7614
41.6359
40.4708
38.9712
38.2021
36.2047
245.062
241.394
223.102
207.799
173.313
128.752
90.2265
72.2103
64.1553
60.3192
56.8418
54.5185
51.6172
48.932
46.1004
42.759
40.3913
37.4206
36.1662
33.1965
150.114
171.852
163.352
150.33
130.262
112.553
92.7625
79.1103
68.8356
64.695
60.7074
58.2935
55.4001
53.2461
51.5961
49.5747
47.8442
43.6258
41.3146
36.1882
90.0411
105.127
117.085
119.785
114.892
107.389
96.9872
87.1142
75.2626
67.1885
61.2979
58.5598
55.6248
52.4407
49.3928
46.4015
45.0676
42.3046
40.4917
35.8478
107.109
157.303
146.945
117.056
97.0983
87.3984
80.3268
77.8965
76.082
72.9204
66.7887
61.0742
57.2649
53.9769
49.5177
43.2408
37.4841
32.6266
30.723
28.3563
18.4084
80.4562
86.2463
76.2232
65.4462
60.3389
56.9363
52.1313
46.0779
41.1637
38.4188
37.2775
36.2702
34.9265
32.8487
30.3351
27.4414
24.3881
22.5896
21.7873
134.391
127.422
86.9432
67.8001
56.5067
53.7299
49.2923
48.2689
46.9904
45.8696
44.2843
42.3097
40.6505
39.6928
39.0109
37.428
34.9419
31.9787
30.929
28.5704
198.56
172.749
109.711
76.4384
59.2941
51.8061
48.156
46.0191
43.9608
41.3648
39.0664
37.1961
35.933
35.0171
33.9259
32.2498
30.9495
29.183
28.3393
26.1421
342.578
151.054
96.1002
77.1022
63.5913
52.3981
45.3166
41.5452
39.9917
38.59
37.8737
36.8911
36.3122
35.1004
33.4038
30.883
28.4651
25.8688
24.4008
22.5643
316.465
117.718
85.7369
71.2624
60.7818
53.3025
47.7459
43.6273
41.0844
39.1074
38.1278
36.9923
36.5274
35.7536
34.8053
32.4573
29.2631
25.4119
23.5736
20.358
197.673
135.551
105.154
83.7233
68.8779
56.4385
49.3201
44.7405
41.0618
39.2064
37.8496
36.9979
36.1802
35.1124
33.3763
30.9179
29.0563
26.5138
24.3554
18.1174
276.799
168.067
116.307
88.7418
69.8198
62.0492
52.2922
46.3969
41.5997
39.9468
38.2319
37.5189
36.1431
34.8461
33.0926
31.6494
30.4939
27.8995
21.016
13.4245
219.359
124.14
91.142
73.7402
63.124
56.0232
60.9725
48.9385
43.7094
41.5498
39.8298
39.8099
39.2196
36.518
31.7885
31.2833
30.3861
25.5712
16.9908
13.5035
221.267
190.479
109.062
76.4097
59.0965
60.2171
65.724
52.8758
47.8277
43.6689
40.4899
39.3294
39.8718
37.6459
32.3283
30.2487
29.219
23.1566
17.1173
16.5506
287.086
210.571
108.603
80.5849
63.2268
62.3014
59.0717
49.6686
44.6831
43.2162
45.3251
44.3695
39.8302
34.6098
30.9576
28.8945
27.5262
22.9982
20.7845
21.5495
245.082
138.601
94.7295
74.6117
60.2749
58.3092
59.2096
52.7712
48.6318
46.9809
49.0401
53.6768
43.8523
33.8033
30.5799
28.646
27.8572
25.9315
25.2884
25.457
271.14
124.122
92.661
72.3482
60.1275
61.5756
61.8826
55.9491
49.6195
47.2828
44.6584
40.2447
30.0872
28.3352
28.6435
28.5151
28.85
28.8294
28.7158
28.1854
417.062
128.798
82.1111
66.3426
59.2458
55.7192
58.1442
52.0727
45.4727
42.5087
34.5028
28.776
26.2354
25.8938
25.8102
27.8641
29.466
30.1266
30.0906
28.2243
206.621
146.253
104.626
74.194
61.9822
57.4622
51.2881
45.3351
39.6531
35.2732
31.3045
27.7572
25.4724
24.1228
24.2404
24.9093
26.2195
26.6964
26.5787
24.7483
250.837
171.098
121.917
91.275
67.0866
59.1426
50.8648
43.4565
36.5694
31.6347
28.1897
25.6187
24.1416
22.9859
22.386
22.1473
22.3399
22.5088
22.5237
21.4919
467.583
198.53
128.791
99.8144
85.875
72.1954
54.2858
41.6272
33.6349
29.6085
26.8512
25.3412
24.0548
23.0519
22.496
21.6748
21.246
20.6005
20.2385
19.0554
236.091
155.133
124.124
127.342
128.508
97.7161
55.9046
37.8326
30.5073
28.1619
26.1899
25.3116
24.2875
23.6121
22.9079
21.8796
21.0893
19.8956
19.3278
18.0262
225.155
240.424
142.02
109.292
86.0136
63.6021
48.0356
40.0582
34.4363
32.017
29.5043
28.2005
26.789
25.8898
25.3281
24.8893
24.6759
24.1319
23.4505
21.2827
97.9082
116.176
100.42
82.7308
69.4295
58.937
52.2353
47.5844
42.1867
38.0542
34.1754
32.2438
30.0546
27.832
25.6391
23.6745
22.7631
21.8218
21.412
20.3017
28.8393
75.9155
80.0159
76.1654
65.8043
57.3053
50.4724
46.8363
44.9349
42.4406
38.3668
34.9843
32.579
29.9006
26.4883
22.9387
20.278
18.0491
17.0893
15.8538
32.9172
96.5859
97.8705
81.6172
68.9497
62.7265
57.463
51.0073
44.9116
41.0838
39.0879
37.7018
36.0573
33.8917
31.5001
28.8859
26.8811
25.5138
25.0253
24.0639
174.746
129.678
77.3237
57.9668
52.0811
47.8676
44.3522
42.3679
39.4454
38.8067
37.4169
37.1487
36.5853
36.3328
35.6602
34.4066
32.9802
31.1857
30.275
28.3269
225.565
151.415
98.2194
64.9511
50.9079
42.9303
39.6424
38.1312
36.1425
35.2228
33.648
33.1503
32.2858
31.7694
30.826
29.6472
28.6402
27.3926
26.7469
25.3856
255.428
158.863
87.604
63.6362
51.2271
41.4904
37.1026
34.4119
33.3246
32.6474
31.929
31.6013
30.9006
30.0226
28.6707
27.0859
25.5384
24.1071
23.307
22.5574
344.308
133.368
80.6699
59.5423
50.8825
42.6857
38.9426
35.817
34.1029
33.1042
32.2616
31.8686
31.3043
30.5409
29.1908
27.2343
25.1996
23.2514
22.3806
21.1773
147.61
123.608
100.791
72.3456
56.2221
44.367
39.8048
36.0143
33.8061
32.4383
31.5925
31.0161
30.4108
29.5493
28.1549
26.4582
24.8896
22.9756
21.7738
18.774
239.635
125.414
96.8192
73.3075
59.248
49.6734
41.9912
36.8245
34.3537
32.9395
31.9078
31.2565
30.2644
29.1473
27.9336
26.7992
25.2209
22.0898
18.3155
15.9415
310.779
116.838
85.9278
62.5416
54.2168
46.3676
45.1675
40.1836
36.0368
34.6182
33.2792
32.5849
31.1416
29.5495
27.7102
26.6621
24.5291
20.2408
17.3604
16.3142
548.065
192.288
99.3683
65.5135
51.2884
47.6267
47.8104
41.8812
38.5675
35.9129
34.4209
33.8944
32.6707
30.2157
27.801
26.3447
23.5478
20.1916
18.6302
18.7047
366.93
184.296
100.547
72.6124
55.1719
49.4836
45.4286
40.2646
37.7575
36.835
43.6729
44.9007
34.8809
29.9573
27.7771
26.3105
24.1288
22.5419
22.4358
22.9874
232.923
144.553
90.2158
63.5591
51.1235
46.8942
47.1971
42.6461
40.2668
39.1377
101.702
69.6105
41.6973
33.9479
28.7999
27.2298
26.3259
25.9801
26.0006
26.3734
245.188
131.956
88.1908
63.9223
52.3196
48.8966
47.1313
44.1912
40.3082
37.8537
35.2804
30.6205
27.0903
27.6482
28.7254
28.4997
28.3766
28.3595
28.2764
27.9162
184.795
158.876
80.7017
56.5172
51.469
45.828
44.7665
41.6187
35.6663
31.7775
26.8088
24.3853
23.6615
23.962
25.2004
26.6205
27.4877
27.7099
27.5611
26.3844
282.264
167.255
108.254
62.9596
52.3317
46.5632
41.4627
35.5351
31.2163
27.2198
24.7753
22.6518
21.7436
21.367
21.6413
22.3558
23.3781
23.7206
23.6778
23.1079
144.906
147.539
112.896
72.254
53.6356
45.3705
39.4069
33.8082
28.972
25.5909
23.3252
21.7574
20.8664
20.3151
20.1366
20.1693
20.4328
20.7896
20.9669
20.9162
231.837
161.592
124.571
84.3354
62.7573
49.3955
38.4671
31.6638
27.213
24.8163
22.9838
21.9647
21.0531
20.4651
20.0277
19.7064
19.4791
19.3152
19.2264
18.9972
160.356
132.918
111.294
85.8484
73.8365
53.851
37.469
30.335
26.4549
24.8385
23.368
22.67
21.7249
21.1659
20.4616
19.8704
19.3706
18.8568
18.5732
18.4533
463.716
187.385
121.004
88.3942
64.8453
49.6108
39.0584
34.3167
30.3324
28.9553
27.0372
26.1713
24.8779
24.1528
23.3885
22.8098
22.3291
21.7551
21.267
20.7981
181.852
145.293
100.406
77.9818
60.7652
52.4952
46.0278
42.4474
37.4126
35.1356
32.6147
31.3405
29.3703
27.3253
25.2595
23.5593
22.5195
21.6618
21.2917
20.808
36.0424
75.3724
83.046
82.857
76.7168
66.4699
57.3032
51.6757
47.7738
43.927
40.0605
36.8379
34.001
30.6513
27.132
23.8263
21.567
19.6181
18.8212
17.3583
101.296
111.558
103.046
80.6162
67.626
59.9772
53.522
46.4784
41.5507
38.2322
36.1923
34.0186
32.2621
30.4465
29.1531
27.891
27.2395
26.2844
25.7491
24.2208
197.724
137.519
79.2844
61.4017
56.9976
48.1616
45.7944
41.4246
40.2387
39.6282
39.3023
39.3581
39.1518
38.8982
38.2309
37.5736
36.6958
35.773
35.0424
34.405
263.281
163.177
106.219
65.1033
53.4439
42.2362
40.8997
37.9991
37.5311
36.476
35.9111
35.4063
34.7892
34.1751
33.4141
32.6445
32.0558
31.4629
31.2165
30.8341
445.1
241.112
102.657
63.105
50.9098
40.3301
38.3108
34.6407
34.665
33.6413
33.4648
32.9193
32.3241
31.4797
30.5392
29.631
28.9133
28.4749
28.386
28.5078
234.472
177.786
90.8975
58.8214
51.7167
41.1609
39.7916
35.7395
35.352
34.073
33.8602
33.2914
32.695
31.6405
30.4004
29.1207
28.1759
27.6935
27.6515
27.8666
222.63
125.699
96.6569
66.0275
55.0527
42.5
40.3451
35.5995
34.5304
32.7102
32.5007
31.936
31.5017
30.5962
29.4613
28.2215
27.2035
26.6073
26.3297
26.5292
284.648
134.428
96.7134
68.5723
59.4857
46.8432
41.8724
35.813
35.0331
32.9526
32.778
32.0105
31.378
30.198
29.0276
27.6678
26.1281
24.9706
24.5864
24.8597
207.352
142.295
97.206
63.6237
56.7068
45.7047
43.2168
39.358
36.1965
34.9706
33.4915
32.6919
31.4082
30.3356
29.4336
27.0763
25.1838
24.2236
24.0515
23.7331
334.323
171.675
116.462
68.8913
53.6828
46.3645
45.4734
41.179
38.7156
37.0163
35.5164
34.4427
32.8631
31.4927
30.4962
28.0215
25.9141
25.0784
24.8727
24.3388
659.955
176.27
108.263
73.0772
56.9924
48.1566
43.9125
40.7473
39.4099
38.0588
41.3381
39.1274
34.3914
32.4727
31.9061
30.083
28.4995
28.0894
28.2663
28.4197
184.119
137.784
94.8266
63.8144
52.3092
46.5846
45.7879
42.3061
40.6812
39.3125
63.5521
53.2999
39.7767
35.1576
33.1603
32.1658
31.2151
31.2549
31.5762
32.0523
388.155
148.172
98.3016
64.7186
54.3268
48.4091
46.2699
42.7244
38.7767
36.0539
33.5068
31.6579
31.9555
33.3076
34.07
33.4795
32.804
32.6955
32.7398
32.7208
150.243
165.979
99.7762
58.7288
54.3967
46.1187
43.5468
39.3622
34.1569
30.2585
28.0799
27.6511
27.898
28.7756
30.0303
30.2008
30.64
30.7903
30.7599
30.5581
96.9651
171.624
141.602
65.6554
55.8837
45.6773
41.3876
34.5539
30.9406
27.0437
25.8099
24.3168
24.3683
24.3122
24.8027
25.5644
26.5806
27.1168
27.4006
27.9945
154.418
140.798
102.426
62.5827
53.7554
42.4101
39.5874
32.8821
29.5888
26.3915
25.0007
23.7324
23.3777
23.1806
23.3057
23.6493
24.225
24.9697
25.4153
26.4323
197.564
170.923
113.033
69.8395
56.929
43.4122
37.9434
31.5192
29.0683
26.3365
25.4091
24.2692
23.8693
23.4047
23.3183
23.3636
23.4869
23.802
24.0545
24.7387
148.685
142.791
103.33
68.0426
57.596
42.5309
37.1812
31.1537
29.4909
27.2477
26.5759
25.4701
24.8771
24.2486
23.7702
23.5053
23.4637
23.5651
23.8333
24.7232
288.262
149.021
129.782
87.0468
64.4434
47.9119
41.1724
35.8658
33.8288
32.2682
31.3679
30.2877
29.2605
28.4082
27.6416
27.1462
26.816
26.6966
26.7424
27.3852
176.383
147.51
107.223
75.2563
63.1586
53.5365
49.2639
44.9559
41.5043
39.7707
37.8656
36.4238
34.2407
32.1773
30.2931
29.0973
28.5659
28.4545
28.5629
29.3295
17.8614
64.1915
81.4624
81.1835
74.0022
63.0514
55.6395
50.2866
45.9128
41.6001
38.014
34.6473
31.6046
28.2718
25.3406
22.656
20.9383
19.4148
18.8003
17.4886
121.268
124.045
103.947
78.5049
63.3403
54.3019
46.1255
40.2243
36.1032
34.0242
32.2845
30.7543
29.6145
28.5208
27.6193
26.4968
25.5042
24.1557
23.319
21.3914
200.178
142.784
100.231
74.5972
77.6254
56.3743
63.106
49.5744
56.917
50.3397
55.2522
51.6583
53.3743
50.7868
50.9266
49.4246
49.4851
48.8984
49.238
49.6615
404.204
201.159
125.849
71.1374
73.4134
50.9744
58.2325
46.5856
52.5712
46.2263
49.3194
45.4174
46.259
43.7211
43.6567
42.3811
42.6795
42.4645
43.01
43.3471
502.759
328.565
135.988
71.6902
68.8583
48.8294
53.857
42.8226
48.1271
42.1691
45.5564
42.216
43.2718
41.0665
40.9604
39.7997
39.9869
39.9462
40.4837
41.3737
247.795
204.086
116.791
67.873
67.8137
47.8115
54.2482
43.0358
47.9422
42.432
45.4137
42.3681
43.1149
40.7011
40.1805
38.8901
39.1736
39.2254
39.8057
40.4141
197.474
136.113
110.317
69.1591
70.2896
50.1027
54.3597
42.9539
44.7829
40.331
42.3261
40.4869
41.0427
39.4553
38.7991
37.6538
37.7492
37.8535
38.1339
38.6869
180.612
141.353
112.882
71.0997
76.4024
52.0849
52.5169
42.7128
44.0771
39.8047
42.2068
40.3311
40.8589
38.945
37.5902
36.2735
36.0949
35.9976
36.1055
36.2377
282.656
165.496
111.973
69.9147
72.1346
54.7179
51.0917
45.1198
44.3975
41.6469
41.8804
40.451
40.231
38.3329
38.0258
35.4311
34.5717
34.4786
33.9094
33.5878
143.689
172.219
150.914
80.0109
67.4616
53.0888
54.3532
50.2574
49.4658
47.6574
46.2893
44.8461
43.7765
42.5332
41.2062
36.9026
35.6239
35.1384
34.8281
33.8283
264.283
171.095
129.989
77.9871
69.4092
53.7387
52.9652
53.4347
52.6474
49.6648
48.3582
46.7929
46.1748
45.3891
43.4878
39.418
38.2503
38.3751
38.6435
38.3666
151.313
147.06
107.479
70.8968
62.8262
53.3484
53.2943
54.5117
53.1093
49.0689
48.4074
47.2417
47.5
46.7067
44.7404
41.6241
40.9068
41.3822
42.0682
42.7063
327.108
170.41
112.207
71.2249
65.7007
57.1576
59.3221
53.1544
50.1583
47.2
45.8841
45.6716
46.625
46.7648
45.6741
43.0682
42.3168
42.6801
43.0815
43.5808
280.624
206.195
112.855
67.4195
69.0445
55.7928
51.6683
45.7413
43.138
39.4091
40.2009
39.5282
40.7331
40.687
40.3769
39.7338
40.3021
41.0191
41.4798
42.3661
183.58
210.055
170.037
74.0762
74.9039
52.7441
52.6542
42.8345
40.0255
34.9328
35.2722
33.3754
34.4294
33.9899
35.1468
35.882
37.3488
38.2875
39.1209
40.8751
141.086
137.254
111.572
66.8711
67.6845
48.9298
52.5915
39.7154
39.6617
34.069
34.5397
32.5022
33.1303
32.6832
33.4361
33.9864
35.2688
36.5383
37.4251
39.3584
243.846
151.914
113.891
68.0608
69.8323
48.6128
51.3679
39.3022
41.0461
34.8808
36.2938
33.4061
34.5391
33.3454
34.4139
34.3444
35.1479
35.5046
35.9755
36.9942
403.552
150.896
106.575
67.6864
64.8208
46.0283
51.4309
38.8752
42.1751
35.4485
37.3229
34.0373
35.1429
33.7813
34.6955
34.4898
35.1844
35.3066
35.5841
36.3764
228.566
153.234
130.636
78.0529
75.9624
52.206
55.8364
43.8128
47.3829
41.0024
42.895
39.2471
40.3289
38.726
39.7005
39.2055
39.7503
39.6376
39.9588
40.5558
392.688
170.144
118.783
74.9227
78.6014
58.1757
66.0519
54.3379
58.6471
51.5436
52.3346
47.0929
46.5609
43.8899
44.6283
44.4452
45.2734
45.5215
46.0952
47.44
48.5749
79.4859
77.9982
71.0399
62.5008
57.0974
51.2829
43.7462
38.1736
33.4124
30.024
26.7572
24.4602
22.3641
20.9851
19.5498
18.8251
17.8892
17.4377
16.2701
40.9029
39.8718
85.5189
37.2059
40.9227
39.5853
86.3572
45.9007
86.9413
76.1209
42.6309
42.3255
85.646
69.8407
100.794
38.6296
38.5202
38.6693
100.189
36.8659
35.6777
85.4078
38.3915
36.12
101.365
83.5677
35.1451
32.9148
262.363
280.211
233.835
83.8084
64.0012
72.6989
60.7143
271.255
234.854
246.445
59.8003
54.9464
57.7375
52.3422
262.281
249.043
249.529
53.8808
50.1662
51.0837
48.393
240.211
247.664
237.075
49.1604
45.8313
47.9011
48.0549
198.108
230.394
197.142
44.9676
42.8841
48.4887
47.1177
193.164
187.151
177.138
42.7537
43.5728
45.2728
43.2167
188.557
178.3
177.439
43.9973
43.391
42.9707
40.1291
174.16
177.551
167.911
42.5079
38.3477
39.1703
35.8028
228.065
275.27
234.239
70.2525
58.9256
69.8438
59.1742
246.111
237.784
254.562
55.9544
50.8735
56.8399
53.543
249.929
256.199
258.657
50.0087
48.4223
53.1229
52.1072
242.091
258.312
251.45
48.3703
49.5183
52.0567
52.6189
201.701
247.018
219.841
50.4184
49.9773
53.4182
56.4526
170.973
212.819
170.091
47.9838
44.2614
57.1564
55.0366
168.681
162.465
148.178
43.5263
39.3745
49.754
38.747
165.743
146.246
140.151
38.161
35.3396
36.9046
33.4526
231.962
253.336
203.515
68.9321
61.0354
70.6855
63.4692
250.111
198.078
197.58
59.0418
54.9678
61.1057
55.3953
252.581
199.935
199.637
54.1424
52.4177
53.9778
51.6653
241.851
196.355
161.71
52.2617
52.5404
51.6489
52.2629
218.446
153.924
152.344
53.0323
56.1554
51.7865
52.7882
168.737
150.811
141.529
58.034
57.3143
54.4076
44.3374
147.778
149.239
162.494
50.9162
37.918
38.6182
32.7207
136.54
161.579
137.234
36.2852
33.2421
32.4136
31.0938
209.659
299.564
221.976
74.2224
64.926
83.4676
67.8859
196.891
220.314
219.179
62.6772
56.3609
63.884
58.6057
194.292
218.436
199.411
54.6611
52.2834
56.6152
52.9011
154.049
189.567
147.717
52.1934
51.5532
52.0397
46.715
140.681
138.448
128.614
48.8987
45.3173
43.1537
36.2876
146.408
131.385
141.53
44.6806
35.6371
34.4916
31.3543
166.024
145.12
153.853
33.4683
31.2791
30.8286
30.0252
143.455
156.804
150.912
31.2058
30.614
29.8963
29.1221
55.8046
61.6861
53.3337
50.3159
44.6884
49.3821
43.2994
48.8172
51.0566
46.5069
43.2743
40.5549
42.0078
39.2586
44.5378
45.3917
43.0386
39.6818
37.2084
38.5476
37.0009
41.0957
42.6576
42.9142
36.6786
35.2765
36.7662
37.4161
39.3768
43.4313
42.8981
35.0111
34.5964
38.3886
39.2709
39.8331
41.7392
39.7181
34.5522
34.0924
38.9187
35.379
38.5695
39.1543
36.1759
33.6834
31.6965
34.2191
31.1863
34.6515
35.2361
32.8413
31.0333
29.0867
30.3906
28.5274
51.8499
58.7125
52.616
47.2075
42.4615
47.3988
43.8115
45.5018
50.9215
48.0746
41.351
38.9821
42.8857
41.0274
43.2453
47.6319
46.6577
38.421
37.425
40.657
40.0471
44.3262
46.6396
47.9892
37.4285
40.2129
40.3033
58.1264
45.5366
49.1457
52.3246
42.4001
44.4366
60.9459
59.9874
40.9512
52.6879
48.2475
43.942
37.6703
56.7057
45.0079
35.7445
43.7098
35.7265
35.6474
31.3374
41.7388
34.7233
32.4706
34.3567
31.5825
30.3778
28.4194
32.9247
28.9804
54.3647
60.1354
56.2888
48.7537
45.0354
48.733
46.0454
49.3629
54.5835
50.2491
43.9665
41.796
45.0735
42.5203
47.0812
49.0843
47.0788
41.3068
40.3955
41.7313
40.1227
48.1098
47.0424
47.6114
40.403
60.3179
39.9859
40.1816
52.4991
47.5202
49.0488
62.8652
61.1643
40.2258
38.7914
49.4498
49.068
37.994
56.4103
42.7068
36.9511
30.195
34.8368
33.9431
29.7373
39.8264
34.914
28.9678
28.3419
31.5593
29.6009
29.7401
33.6515
29.5879
28.695
29.4172
57.5615
66.5288
59.4737
49.0023
46.746
51.0531
47.3159
51.0408
56.4999
51.7312
45.8269
42.7923
45.7514
41.7816
47.401
49.7999
46.7234
41.7579
39.7431
40.0174
37.467
46.4586
45.983
40.3436
39.4218
37.8893
36.3902
31.1915
41.5717
37.3828
31.8213
36.9905
33.5381
29.5046
26.4183
31.8465
30.3249
27.7274
31.922
27.6344
25.6526
24.4553
28.3434
27.2631
26.7184
26.9498
26.6975
24.2537
24.2433
28.9229
26.6817
26.8681
26.991
28.364
24.3505
25.035
43.0868
47.4788
41.8826
45.3915
41.5529
45.2988
40.8432
39.4053
40.7712
38.4053
40.6901
38.7209
40.1437
38.6165
36.3665
37.7862
36.4023
38.0455
36.4857
38.1847
37.0176
34.6936
36.1679
37.0619
36.1485
35.0597
36.6894
37.2531
33.9737
38.1914
39.1219
34.7223
33.9685
37.8978
37.6137
33.151
38.617
34.5797
33.7444
32.6018
36.701
33.7022
30.7903
33.4008
30.5914
32.1234
30.8748
32.9578
31.3502
28.5555
29.8921
28.2838
30.4929
29.2305
30.9638
29.9918
41.1988
45.7345
42.5528
43.6138
40.4854
44.0499
41.6287
38.2482
41.7405
40.0972
39.9292
38.6779
41.1117
40.008
36.8297
39.7483
39.2461
38.3421
37.3474
39.6872
38.8821
39.5359
37.1169
37.8226
36.6288
39.0242
36.9874
37.6407
65.0281
45.4693
55.3741
44.721
58.054
46.4407
62.1194
36.9741
68.0752
47.9446
40.5359
35.0233
62.5913
44.4791
30.8101
43.562
34.8119
33.8069
31.5792
40.9334
34.5236
28.2179
32.8152
28.898
31.1105
30.049
33.2148
30.8014
43.6185
47.0934
44.4874
45.5532
42.3498
45.8745
43.0299
40.7171
43.5841
41.2081
41.6598
40.2664
42.1597
39.8224
39.5054
40.4463
38.8263
39.8706
38.89
39.0569
37.2881
46.2352
65.9972
39.5231
45.0265
42.499
257.001
38.8836
51.1621
99.256
48.2434
214.577
48.4406
199.96
51.5829
45.019
34.4058
29.5983
67.0994
44.0045
32.1729
31.2409
35.5906
28.8969
29.0043
41.0155
35.6534
31.3854
32.5353
29.5257
29.4618
29.8514
34.3101
31.2807
32.7956
32.4205
45.0658
48.4379
45.4705
45.5891
43.3142
46.0239
42.9138
41.3158
44.0154
39.9313
42.3743
39.4309
41.4409
37.0062
38.2543
38.2399
35.7083
38.4451
36.3245
35.6168
33.1693
36.1536
34.5385
29.7281
35.7405
33.7611
32.0042
28.6807
31.9712
28.3306
25.9142
33.0462
31.003
28.0341
27.2589
27.4995
25.3562
24.5286
30.4693
29.9043
27.135
27.1449
27.2573
24.411
24.563
30.0269
31.0327
27.229
27.8662
28.853
24.7127
25.4146
31.3769
32.0126
28.0818
28.8251
41.9912
45.4265
41.4691
49.9648
47.092
49.5409
48.0061
39.3261
40.8946
39.5906
46.2901
44.8253
47.7616
46.9616
37.3564
39.2095
38.0456
44.6968
43.7444
46.6923
45.1748
35.8867
37.6611
37.7604
43.155
41.8544
44.5315
43.4255
34.7092
38.0889
37.4218
41.595
40.7635
43.1802
42.0528
33.3015
36.6197
34.3294
40.3168
39.3927
41.6458
41.1411
31.8412
33.7825
32.5999
39.1273
38.5053
40.9681
40.488
30.254
32.3009
31.426
38.1235
36.8706
40.3026
39.5784
41.1906
44.3153
42.2412
48.5769
47.9891
48.6432
48.733
39.7102
41.8379
40.9055
47.8665
47.3064
48.738
48.2657
38.3268
40.5783
39.4193
47.0485
45.2388
47.7039
45.4393
40.3459
39.6283
59.3189
44.5811
43.9499
44.7002
46.1067
40.5245
59.9482
54.8997
43.8614
42.5833
46.3247
44.9618
35.229
51.5596
41.6765
41.9997
41.3899
44.1048
42.894
32.8264
39.4566
35.1913
41.2686
40.7722
42.8324
42.0575
31.5125
34.2403
32.2839
40.5833
39.7976
41.7289
40.6121
42.8844
46.5217
43.5435
49.7649
49.1623
53.1622
49.7812
41.0796
42.6543
40.2881
49.0182
48.2759
48.8194
46.5783
39.3862
39.5336
37.7032
47.6384
45.2666
45.9576
43.5182
61.7507
37.2035
35.763
44.4356
45.2878
42.763
41.1011
59.5729
35.2183
33.4056
45.5921
44.9126
40.7331
40.0742
41.6506
32.9308
32.7548
44.078
43.1192
40.1214
41.6007
36.1481
33.1151
34.2774
43.141
42.5363
42.0362
42.5166
32.7022
34.4408
33.8958
42.1877
40.9501
42.4712
41.8862
43.7328
46.4089
42.9575
53.8682
49.58
53.0369
46.5066
39.726
41.3953
36.9664
48.3006
45.5316
44.8141
41.5909
36.6833
35.7119
33.3457
44.8689
42.651
40.9122
38.6005
34.1203
32.2336
29.4664
41.9041
40.4594
37.8947
37.2028
31.9746
29.0386
28.7009
40.1946
39.8417
37.3723
37.5665
31.6812
28.6716
28.8598
39.9773
41.2467
37.5632
37.9901
33.0294
29.0011
29.7578
41.5541
42.0556
38.2934
38.9119
33.6091
29.9774
30.5225
42.0925
41.9
38.9657
39.0309
51.0231
53.8795
53.3722
74.0173
67.8258
76.5948
76.267
49.2945
53.1904
52.4741
67.3121
70.0033
75.7433
75.5173
48.3874
52.2174
50.5691
70.839
67.7217
75.4577
76.457
46.444
49.8316
48.5412
67.2223
69.0354
76.9012
78.1186
45.3685
48.2262
47.0657
69.6591
68.4023
78.1849
76.9086
43.9945
46.6879
46.1186
68.419
70.0021
76.1107
73.6358
42.9922
45.9176
45.3312
70.4477
69.6681
73.3348
72.8518
40.8086
45.1018
43.9225
69.6223
68.4823
72.7076
71.5277
53.4867
52.7037
54.184
73.6122
76.8717
71.9687
77.7945
52.9158
54.3131
53.8768
76.5619
76.3146
77.8788
78.1121
50.49
53.2098
50.3027
76.4837
79.0342
79.04
84.326
48.5767
49.3648
49.1894
79.7499
81.094
85.5716
87.3836
47.1688
49.2073
47.9141
81.1213
79.5992
87.4758
85.4291
46.3141
47.3659
47.2877
78.4953
74.5938
83.6956
77.3047
45.6037
47.2506
46.6314
73.6941
72.873
75.4705
73.0911
44.1794
46.3538
44.9185
72.6868
71.6901
72.747
70.4884
54.4879
58.0676
54.9442
69.9372
77.2521
75.9707
76.2921
53.8445
53.9913
51.9117
77.4981
77.8766
75.4739
74.4536
50.0777
51.3225
48.6243
78.8133
84.0654
74.7139
77.4732
48.3493
47.7505
46.2377
85.2606
86.7654
78.3432
79.3654
47.7044
45.9638
45.5161
87.0985
86.2406
79.5881
79.4305
47.4752
45.6634
46.7234
84.4116
77.722
78.6758
75.1312
46.995
46.9903
47.1091
75.805
73.2118
74.1776
72.7539
45.2697
47.0092
46.0742
72.8554
71.1639
72.528
70.7353
54.4944
57.9875
49.7224
77.2056
74.8425
75.1859
65.3797
50.7167
48.1549
46.1666
73.5539
72.6226
64.0535
65.5921
47.9174
45.7188
43.1694
72.6666
74.1154
66.1496
63.7489
46.062
42.5936
42.3422
74.7158
75.9831
63.2488
65.762
45.5749
42.5699
42.5531
76.2659
76.1774
66.3689
65.8834
46.4358
42.5348
42.9315
75.6716
73.4535
65.7118
67.4315
46.7883
43.2664
43.5878
73.1615
72.3191
68.0002
67.6747
46.1932
43.6131
43.2891
72.2071
71.6346
67.6031
66.6177
46.0662
38.2193
50.2203
41.7122
43.1045
38.4297
55.7298
52.0812
39.1656
58.1622
44.912
44.097
39.4747
200.931
87.3803
71.5161
77.9418
225.435
58.3497
107.324
254.305
39.7014
36.7489
37.4493
38.0105
37.1015
37.702
39.3506
46.4073
41.6866
38.5569
50.0258
38.5543
55.3686
43.9567
53.0139
45.4685
39.0875
60.8543
39.4927
204.712
44.6862
86.6792
223.445
69.5227
81.5951
103.488
254.112
59.6582
65.8258
46.0503
58.3774
46.3767
58.8563
46.8262
63.7719
111.808
76.6103
85.6605
204.73
77.2178
112.115
183.852
107.498
72.1208
82.7399
103.479
76.2204
92.5498
124.317
61.8864
44.204
43.1899
52.9868
45.3487
60.3268
53.546
61.8393
44.7445
43.068
51.206
45.4187
59.1591
53.1391
102.91
200.479
71.2404
83.6933
104.494
181.388
70.7915
99.046
98.502
63.9682
78.2115
85.0166
124.743
69.3425
50.3465
90.5943
47.4337
228.217
45.6903
243.075
51.5024
38.6588
39.1665
38.5559
37.6376
39.3696
38.3211
37.4719
39.2281
40.4188
38.5532
37.1669
39.8962
39.5561
37.3543
45.8015
45.5915
65.0453
38.4922
244.796
38.5546
41.5045
50.0543
224.432
90.5452
46.0796
240.958
50.997
44.8027
38.0924
37.033
37.7075
36.4832
37.8138
36.7596
37.7231
38.5257
36.1793
37.8474
36.1169
38.6378
36.5138
37.8751
49.7893
98.5959
47.2656
137.95
48.2335
186.961
48.5167
39.3918
40.7378
38.0541
36.8477
40.7695
39.5904
36.2996
38.7921
39.6801
37.3407
34.2346
40.4939
37.7687
35.4226
50.2959
210.313
99.954
46.2228
196.055
50.8911
46.0171
48.7447
128.609
98.3355
44.4278
173.736
47.5291
45.546
38.1491
35.7192
37.6339
34.4835
38.5255
35.0656
37.1713
37.4046
33.1778
35.7672
33.7065
36.4815
34.1892
36.5128
163.077
190.667
168.894
107.121
77.477
104.367
80.5794
160.461
163.214
162.702
65.2678
63.6303
67.9889
64.0933
148.954
162.535
162.518
59.2344
55.1304
62.1196
60.9413
142.46
160.272
153.703
54.8098
54.0138
59.6124
56.967
129.77
143.671
136.595
51.9266
50.7844
54.0501
52.5936
121.722
133.443
131.703
51.374
51.9996
52.7346
53.4383
115.741
127.815
123.085
51.613
50.0369
53.5696
52.9021
109.751
120.669
113.791
48.7047
40.5267
51.1197
42.1412
192.146
183.69
179.027
99.5056
99.0378
94.9092
85.408
141.431
294.666
307.592
172.358
149.49
169.358
269.109
97.7127
265.555
245.593
104.964
99.9121
100.809
253.434
95.1357
266.75
261.467
94.8466
92.2712
95.8471
261.3
88.3563
254.174
253.886
87.1553
84.4014
90.3477
248.263
80.175
218.534
229.424
76.6886
72.0366
82.7427
218.893
71.5893
192.087
192.386
65.5363
65.632
72.0373
191.306
74.5621
194.293
194.272
70.7422
71.5899
74.2437
194.453
70.9688
185.528
186.564
71.1737
69.4365
72.7135
185.949
111.326
122.691
112.979
43.7575
40.5099
42.2362
38.4313
176.803
186.77
173.545
100.438
83.0818
101.526
82.626
130.452
245.843
279.414
156.082
129.895
156.19
243.542
89.1293
234.65
228.962
92.8243
89.978
91.8596
236.496
88.2452
249.643
251.122
88.3443
88.0596
88.1617
253.519
89.3963
248.808
256.823
86.9417
86.907
88.9638
256.502
90.8551
227.722
245.241
87.6371
87.0635
90.985
237.142
75.4855
180.002
197.311
75.6493
71.0514
81.9057
184.361
70.3705
169.922
166.471
69.1493
69.2506
71.0894
163.995
60.7876
170.653
160.925
63.6418
63.1451
61.4982
162.815
110.314
111.221
106.997
40.9393
36.8844
39.3752
35.5132
158.936
167.461
155.224
89.8047
79.6473
90.5929
79.0455
120.752
235.382
251.378
140.596
119.312
139.95
229.029
93.4195
242.55
223.272
95.7247
93.9425
96.6683
226.246
88.5429
252.619
234.962
91.6708
91.3024
88.9849
236.87
87.2523
249.878
236.635
90.7398
90.5503
87.5888
234.312
83.3151
232.425
211.924
88.3881
88.1274
83.6192
206.714
88.4468
200.95
196.781
88.2492
88.1298
86.955
187.785
75.9834
156.689
153.818
87.3834
77.9031
87.6689
153.862
55.8788
143.132
146.135
59.4677
55.8743
59.343
142.752
99.7416
97.2615
89.7944
37.4376
33.6606
35.9936
31.062
163.487
183.645
173.783
99.6082
86.39
104.312
96.1193
132.953
240.517
271.515
147.877
129.984
149.928
244.851
95.1905
197.092
207.997
98.0926
93.0339
100.902
205.306
86.0846
197.576
201.993
84.9655
84.1863
87.1463
199.772
81.2102
180.895
187.387
82.7103
82.9764
82.0875
178.367
61.639
145.145
141.207
73.3641
65.2075
67.6109
133.736
58.136
134.393
127.533
65.4556
65.8536
58.4291
131.026
55.5719
161.93
155.481
57.9007
57.0108
55.5294
161.083
55.7487
164.1
167.273
56.3349
56.1968
55.6496
166.783
88.7584
106.233
94.2196
35.0992
30.0458
34.0716
28.3174
149.216
172.322
155.277
93.7517
77.8823
94.8612
78.8935
141.487
149.821
146.254
68.3485
65.3562
71.88
70.3263
124.904
134.709
122.621
60.4144
58.0138
66.2823
61.8583
97.3592
109.498
101.013
55.9885
50.9054
55.6915
53.4419
83.8573
93.5026