/*--------------------------------*- C++ -*----------------------------------*\
  =========                 |
  \\      /  F ield         | OpenFOAM: The Open Source CFD Toolbox
   \\    /   O peration     | Website:  https://openfoam.org
    \\  /    A nd           | Version:  10
     \\/     M anipulation  |
\*---------------------------------------------------------------------------*/
FoamFile
{
    format      ascii;
    class       volScalarField;
    location    "2.5";
    object      omega_0;
}
// * * * * * * * * * * * * * * * * * * * * * * * * * * * * * * * * * * * * * //

dimensions      [0 0 -1 0 0 0 0];

internalField   nonuniform List<scalar> 
12920
(
80.083
149.737
149.016
133.432
115.397
106.765
100.464
95.3065
87.1486
78.4035
69.1875
63.2447
60.7965
59.1953
56.9865
53.9932
50.8778
46.042
42.1591
37.2542
114.394
186.288
167.631
129.894
112.492
104.176
91.9164
85.0287
77.2385
73.3489
71.6799
71.558
71.2594
70.0724
66.223
60.0698
54.7081
49.9725
46.7284
43.9769
184.213
242.789
210.722
155.514
118.925
97.4147
82.7891
77.4479
72.5664
70.5613
68.176
66.7364
65.3502
64.4384
62.7721
58.7054
54.0172
49.7911
47.8043
45.5877
168.99
206.391
181.491
147.342
119.19
98.5726
83.8306
75.4552
70.5753
68.2803
65.7505
63.4706
61.3231
58.8846
56.0345
52.7603
49.8418
46.3843
44.6893
42.3627
304.466
206.13
157.034
126.617
113.963
102.02
94.9599
86.9951
81.5667
77.7464
74.206
71.571
68.9035
65.4078
60.494
54.8349
50.2788
44.6269
41.7718
36.1556
289.869
204.79
167.318
147.074
131.377
112.583
106.213
94.9931
87.7819
81.8582
77.7371
75.1
73.0209
68.548
62.347
56.4242
50.816
43.9698
38.1323
27.9509
298.705
259.256
178.995
149.158
141.554
134.427
116.963
103.241
94.3363
87.2186
81.9997
77.8883
75.9769
73.3057
66.1894
58.139
50.6185
41.1933
30.4919
20.243
150.24
167.767
168.556
148.014
134.5
127.569
203.163
159.241
155.733
146.906
137.702
126.022
117.813
115.106
72.9589
61.0708
49.4
37.1234
26.8814
22.1393
104.058
142.56
140.722
130.377
122.873
198.269
342.071
262.848
270.079
260.263
232.351
193.778
194.762
186.047
126.005
64.283
49.8852
36.7888
28.9296
29.5743
204.131
216.463
145.264
124.166
119.613
189.58
278.876
229.924
248.743
249.903
236.398
189.372
170.707
169.49
118.624
65.5705
51.4994
40.3706
37.8241
40.7236
341.419
245.214
185.179
141.637
118.458
167.142
257.765
236.346
251.684
252.044
238.175
211.414
159.7
143.839
101.681
63.7294
55.7567
50.1196
49.3007
48.662
407.827
248.359
199.995
153.291
125.607
180.018
268.316
201.623
197.722
189.18
146.51
134.929
156.242
165.948
102.313
60.7425
57.3053
54.257
51.2098
48.9863
350.859
233.775
178.454
128.259
116.624
108.707
164.78
144.315
134.245
110.25
88.5495
83.2001
85.9908
92.9863
58.9564
56.6241
55.2606
52.6854
49.3291
46.3946
216.355
255.87
205.022
148.234
121.338
111.096
100.306
89.784
76.8106
64.9904
56.5936
50.9376
48.3145
46.2541
45.8511
45.8464
46.0381
45.3712
44.0956
41.2329
385.226
297.492
195.646
161.563
126.865
108.202
94.9481
85.9091
74.2432
63.8643
55.5887
50.4153
46.8446
44.188
42.4547
41.1469
40.7547
40.2852
39.515
36.5975
263.497
253.65
214.586
193.77
158.277
119.067
90.3906
75.9883
66.6182
60.6528
55.1505
51.8151
48.6045
46.1324
43.7754
41.6486
40.4838
38.9814
38.2097
36.2046
242.604
241.608
223.823
207.995
173.276
128.238
89.9087
72.1792
64.1833
60.3508
56.8736
54.5458
51.6387
48.9471
46.1076
42.7588
40.3899
37.4217
36.1675
33.1925
153.655
171.901
163.123
150.02
130.044
112.492
92.7415
79.1123
68.8555
64.7261
60.7376
58.3216
55.4254
53.2732
51.6239
49.5957
47.8514
43.6151
41.3039
36.177
88.4855
104.288
117.482
120.05
115.041
107.514
97.1007
87.1616
75.2697
67.195
61.3165
58.578
55.6303
52.4308
49.384
46.4061
45.0748
42.3033
40.4839
35.8339
106.51
157.721
147.166
117.039
97.0831
87.3749
80.3934
78.0267
76.2241
73.0006
66.81
61.0924
57.2968
53.9914
49.4864
43.1808
37.4305
32.5996
30.7161
28.3568
20.3845
82.0311
86.5166
76.107
65.449
60.4077
56.9918
52.1234
46.0377
41.1454
38.4369
37.3061
36.2946
34.9344
32.838
30.3098
27.3967
24.3507
22.5819
21.7969
138.044
127.71
86.5328
67.7242
56.5418
53.7766
49.3615
48.335
47.0672
45.9094
44.3003
42.3125
40.6624
39.7181
39.0331
37.4291
34.9248
31.9651
30.9205
28.5613
200.598
173.505
109.706
76.4077
59.3107
51.8484
48.2205
46.0684
43.9968
41.3791
39.0795
37.2092
35.951
35.0335
33.9356
32.253
30.9512
29.1834
28.3356
26.1358
315.118
150.894
96.0875
77.2135
63.6442
52.409
45.3439
41.5769
40.0325
38.6213
37.9055
36.9179
36.3371
35.1147
33.4068
30.8798
28.4573
25.8614
24.394
22.5615
288.61
117.508
85.7659
71.3284
60.8424
53.3438
47.7929
43.6627
41.1203
39.1389
38.1627
37.0235
36.5577
35.7818
34.8252
32.4581
29.2503
25.4007
23.5633
20.3482
191.882
135.099
105.601
83.9302
68.9776
56.4917
49.3492
44.7693
41.0923
39.2385
37.8842
37.0294
36.208
35.1341
33.3871
30.9225
29.0605
26.5126
24.3412
18.0906
294.027
166.228
115.564
88.5197
69.782
62.0801
52.3213
46.425
41.6292
39.9778
38.2646
37.5456
36.1642
34.8635
33.1078
31.666
30.5084
27.8846
20.9583
13.4015
226.669
124.481
91.2946
73.7927
63.1521
56.0406
60.9447
48.9796
43.7431
41.5838
39.8681
39.8513
39.2399
36.5212
31.795
31.3018
30.3945
25.5243
16.9551
13.4957
211.107
189.358
108.053
76.2405
59.1019
60.2389
65.7413
52.9325
47.8886
43.7027
40.5188
39.3735
39.9124
37.6469
32.3378
30.2625
29.2198
23.118
17.1027
16.5605
287.316
213.151
108.672
80.7461
63.2879
62.3548
59.0389
49.6905
44.7297
43.2747
45.3947
44.3412
39.816
34.606
30.9681
28.9
27.5286
22.9824
20.7995
21.5671
246.083
139.42
94.8658
74.6763
60.3007
58.3314
59.2646
52.8494
48.7055
47.0579
49.1321
53.7912
43.6785
33.802
30.5989
28.6556
27.8661
25.9467
25.3041
25.472
268.4
125.162
93.0734
72.5904
60.1809
61.5698
61.9127
56.0259
49.675
47.3576
44.7049
40.3185
30.0741
28.3537
28.6691
28.5336
28.8707
28.8507
28.7362
28.2005
411.618
127.637
82.0878
66.4193
59.3376
55.7707
58.182
52.1523
45.5237
42.5543
34.5124
28.7818
26.2475
25.9085
25.826
27.8894
29.4934
30.1475
30.106
28.2291
211.074
146.475
104.71
74.4257
62.1198
57.5633
51.3502
45.3563
39.6756
35.2876
31.3221
27.7668
25.4857
24.1352
24.2504
24.9262
26.2309
26.7011
26.5792
24.7451
252.215
172.485
122.314
91.4699
67.1949
59.2393
50.8978
43.4843
36.5885
31.6464
28.2026
25.6297
24.1535
22.9958
22.397
22.1558
22.3472
22.5135
22.5273
21.4959
473.381
192.152
129.172
100.125
86.2218
72.1969
54.2247
41.6015
33.6315
29.616
26.8626
25.3519
24.0654
23.0602
22.5037
21.6814
21.2526
20.605
20.2417
19.055
244.287
155.419
124.825
128.32
129.03
97.1366
55.5535
37.7635
30.5126
28.1753
26.203
25.3234
24.2993
23.6228
22.9162
21.8845
21.0925
19.8976
19.3291
18.0254
227.285
244.82
141.126
109.126
85.7095
63.3662
47.937
40.0646
34.455
32.0334
29.5186
28.2124
26.8002
25.9014
25.3421
24.904
24.6888
24.1407
23.4551
21.282
99.879
116.762
100.676
82.9379
69.4704
59.012
52.2843
47.6304
42.2051
38.062
34.1837
32.2476
30.0504
27.8195
25.6262
23.6687
22.7638
21.8243
21.4139
20.3035
28.7673
76.2967
80.3194
76.3519
65.8329
57.2721
50.4462
46.8535
44.9781
42.4574
38.3589
34.9827
32.5777
29.8789
26.4515
22.9044
20.2551
18.0377
17.0871
15.8551
34.6268
98.1143
98.2926
81.2313
68.8934
62.7596
57.4722
50.9771
44.8853
41.0904
39.1122
37.7207
36.0623
33.8823
31.4777
28.8606
26.8669
25.5156
25.0333
24.0734
178.124
129.64
76.9946
57.8716
52.0933
47.8734
44.3726
42.3842
39.4694
38.829
37.4363
37.1685
36.6083
36.3516
35.6701
34.405
32.9728
31.178
30.2661
28.3158
218.536
151.512
98.3799
64.9282
50.9179
42.9499
39.6766
38.1618
36.1674
35.2414
33.6649
33.1676
32.3034
31.7814
30.8324
29.6494
28.6407
27.3915
26.7435
25.382
255.389
158.304
87.4137
63.6803
51.2694
41.496
37.1241
34.4338
33.3532
32.6717
31.9532
31.6219
30.917
30.031
28.6728
27.084
25.5352
24.1045
23.3051
22.5578
342.304
133.286
80.7155
59.6028
50.9301
42.7206
38.9762
35.8491
34.1323
33.1333
32.2896
31.8955
31.3284
30.557
29.1977
27.2324
25.1937
23.2472
22.3784
21.1743
149.667
124.104
101.205
72.4597
56.2634
44.3845
39.83
36.0362
33.8323
32.4638
31.6192
31.0393
30.4313
29.5633
28.1608
26.4601
24.8884
22.9708
21.7659
18.7595
247.47
125.594
96.9872
73.374
59.3132
49.7035
42.0142
36.856
34.3826
32.9698
31.9338
31.2788
30.2826
29.1603
27.9445
26.8082
25.2183
22.0664
18.2901
15.9345
287.144
117.335
86.1507
62.6662
54.2532
46.3952
45.1715
40.2288
36.065
34.6482
33.307
32.6074
31.1501
29.5578
27.721
26.6694
24.5151
20.2166
17.3487
16.312
537.584
187.261
98.934
65.4683
51.3132
47.6794
47.8923
41.9212
38.6068
35.939
34.4512
33.9206
32.6839
30.2211
27.808
26.3491
23.5376
20.181
18.6333
18.7143
383.557
185.525
100.978
72.8003
55.2854
49.5505
45.4003
40.2922
37.7927
36.8729
43.7539
44.9094
34.8624
29.9585
27.7851
26.3166
24.131
22.5553
22.4535
23.0059
235.075
145.769
90.5227
63.6559
51.1823
46.9493
47.275
42.6958
40.3137
39.1784
101.996
69.6266
41.7244
33.9735
28.8121
27.2461
26.3451
26.0013
26.0209
26.3925
243.717
133.798
88.8265
64.2414
52.4289
48.927
47.1758
44.2372
40.3455
37.8959
35.3227
30.6238
27.0966
27.6727
28.7485
28.525
28.4011
28.3822
28.2958
27.9294
183.675
157.07
80.3648
56.5536
51.5432
45.8757
44.8107
41.6779
35.6997
31.7943
26.8179
24.3945
23.6745
23.975
25.219
26.6409
27.5067
27.7245
27.5709
26.3849
284.099
167.459
108.241
63.0906
52.4037
46.6304
41.5
35.5512
31.231
27.2284
24.784
22.6592
21.7524
21.3774
21.6515
22.3672
23.385
23.7236
23.6783
23.1078
138.635
148.879
113.504
72.3463
53.6978
45.4223
39.4294
33.8234
28.9831
25.5997
23.3343
21.7657
20.8753
20.3239
20.1458
20.1781
20.4403
20.7952
20.9707
20.9195
232.9
162.365
125.731
84.6768
62.8421
49.389
38.4506
31.6583
27.2183
24.825
22.9936
21.9737
21.0616
20.4729
20.0347
19.7126
19.4844
19.3196
19.2291
18.9993
157.146
132.825
111.891
86.0971
73.8505
53.654
37.3831
30.3207
26.4641
24.85
23.379
22.68
21.7335
21.1731
20.4673
19.8743
19.3729
18.8588
18.5745
18.4556
458.352
185.672
121.408
88.4384
64.796
49.5579
39.0511
34.3302
30.3483
28.969
27.0479
26.1794
24.884
24.1585
23.3942
22.8148
22.3327
21.7569
21.2667
20.7987
178.689
145.07
100.849
78.1579
60.8563
52.5758
46.0933
42.4828
37.4284
35.1455
32.623
31.3417
29.3632
27.3107
25.2462
23.5509
22.5152
21.6597
21.2901
20.8046
36.2832
75.7714
83.3587
83.1284
76.8391
66.4763
57.2815
51.6838
47.7939
43.9301
40.0561
36.8335
33.9868
30.6202
27.0961
23.7988
21.5507
19.6107
18.8182
17.358
104.456
112.18
102.967
80.352
67.5473
59.9676
53.5042
46.4518
41.5413
38.2371
36.1974
34.0172
32.2573
30.4432
29.1535
27.8956
27.2479
26.2925
25.7557
24.2212
202.22
137.824
79.0529
61.3512
56.9598
48.1116
45.7652
41.4091
40.2462
39.6397
39.3137
39.3686
39.1603
38.9014
38.2296
37.5693
36.6905
35.768
35.0363
34.3922
264.03
162.041
106.341
65.057
53.4017
42.2235
40.8968
38.0089
37.537
36.4809
35.9151
35.4101
34.7922
34.1756
33.4128
32.6438
32.0564
31.4644
31.2168
30.8317
456.415
237.314
101.439
63.047
50.8811
40.3249
38.3064
34.6488
34.6741
33.6515
33.4724
32.9253
32.3266
31.4793
30.5375
29.6304
28.9143
28.4786
28.3905
28.5105
228.407
178.08
90.7195
58.8711
51.7164
41.187
39.8
35.7604
35.3644
34.0926
33.8742
33.3064
32.7042
31.6432
30.4002
29.1202
28.1771
27.6989
27.6575
27.8712
204.493
126.64
96.8583
66.1278
55.0555
42.511
40.3411
35.6087
34.5409
32.7238
32.5131
31.9488
31.5106
30.6003
29.462
28.2215
27.203
26.61
26.3332
26.531
278.768
134.911
96.9371
68.6701
59.5128
46.8494
41.882
35.8334
35.0504
32.9763
32.7944
32.0266
31.3891
30.2041
29.0311
27.6677
26.1222
24.9692
24.5912
24.8605
202.971
143.744
97.7119
63.8028
56.7262
45.7184
43.2237
39.4142
36.2204
35.0018
33.5133
32.715
31.424
30.352
29.4397
27.0749
25.1808
24.2285
24.0582
23.7375
307.878
171.699
116.494
68.8998
53.6756
46.4061
45.5539
41.2171
38.7495
37.0441
35.5438
34.4655
32.8809
31.5095
30.5149
28.0309
25.9216
25.0898
24.8824
24.3468
676.725
170.909
108.846
73.356
57.1219
48.2176
43.8902
40.7778
39.4412
38.0832
41.3787
39.1298
34.3999
32.4892
31.9272
30.1025
28.52
28.1113
28.2857
28.4365
187.494
138.062
95.1692
63.9558
52.3526
46.6442
45.8661
42.3443
40.715
39.3271
63.6028
53.3119
39.8088
35.1806
33.1883
32.193
31.2407
31.2793
31.5975
32.0693
368.475
149.48
99.2061
65.0578
54.4426
48.4264
46.3041
42.7565
38.7958
36.0758
33.5228
31.6722
31.9809
33.3397
34.1072
33.5079
32.8269
32.7147
32.7544
32.7295
146.089
163.92
98.6199
58.7295
54.4434
46.1679
43.5861
39.3952
34.1749
30.2678
28.0899
27.665
27.9133
28.7947
30.0483
30.2155
30.6512
30.7982
30.7634
30.5572
97.4504
172.021
141.259
65.7166
55.9122
45.7392
41.4082
34.5616
30.9452
27.048
25.8136
24.3226
24.3738
24.3212
24.8107
25.5729
26.5873
27.1218
27.403
27.9954
152.516
141.532
102.577
62.6626
53.8246
42.4542
39.5918
32.8929
29.593
26.3989
25.0065
23.739
23.3843
23.1887
23.3135
23.6576
24.2332
24.9769
25.4207
26.4369
203.644
172.988
113.565
70.0472
56.9864
43.4418
37.9374
31.5221
29.0697
26.3415
25.414
24.2754
23.8747
23.4107
23.3235
23.369
23.492
23.8073
24.0584
24.7433
145.914
143.333
103.734
68.1035
57.6271
42.5192
37.161
31.1565
29.4955
27.2566
26.5824
25.4776
24.8817
24.2533
23.7731
23.5083
23.4666
23.5686
23.8374
24.7298
271.413
149.923
130.872
87.5022
64.5269
47.9334
41.1824
35.8778
33.8377
32.2781
31.3736
30.292
29.2611
28.4087
27.6406
27.1454
26.8147
26.6969
26.7423
27.3861
178.003
148.771
107.969
75.4488
63.262
53.628
49.3071
44.9765
41.5106
39.7708
37.8574
36.4084
34.2162
32.1513
30.2734
29.085
28.5586
28.45
28.5562
29.3169
18.1205
64.969
81.8174
81.4202
74.034
63.0244
55.6439
50.3063
45.9252
41.5988
38.0076
34.6343
31.5836
28.2449
25.3152
22.6386
20.9293
19.4114
18.7986
17.488
123.792
124.707
103.51
78.2504
63.2507
54.2775
46.1058
40.2193
36.1099
34.0384
32.2985
30.7682
29.6289
28.5352
27.6322
26.5073
25.511
24.1596
23.3196
21.3911
203.01
142.965
100.035
74.8602
77.7281
56.4392
63.2393
49.6607
57.0773
50.4626
55.4042
51.7861
53.5083
50.9147
51.061
49.5625
49.6274
49.0432
49.3877
49.8039
409.647
198.489
125.918
71.2794
73.6163
51.065
58.4023
46.6905
52.7208
46.3369
49.4477
45.5264
46.3737
43.8299
43.7701
42.4963
42.7998
42.5872
43.1361
43.4711
547.23
330.907
134.493
71.7233
69.0183
48.9408
54.0067
42.9205
48.2643
42.2721
45.6806
42.322
43.3836
41.1708
41.0691
39.9089
40.1004
40.0622
40.6038
41.4931
244.573
205.009
117.231
67.9908
68.0228
47.8885
54.4322
43.1359
48.0993
42.548
45.5514
42.4833
43.2323
40.8052
40.2871
38.9956
39.2846
39.3388
39.9223
40.527
192.56
136.318
111.21
69.3262
70.6424
50.227
54.5715
43.0568
44.9256
40.4348
42.452
40.5952
41.1535
39.5553
38.8995
37.7523
37.8513
37.9587
38.2395
38.7896
183.505
141.537
113.362
71.2986
76.5897
52.1517
52.727
42.7765
44.2288
39.9044
42.34
40.4431
40.9735
39.0427
37.6854
36.364
36.1887
36.0931
36.1992
36.3269
291.075
166.188
112.835
69.8791
72.5115
54.7637
51.0421
45.1442
44.3555
41.6407
41.814
40.4073
40.1506
38.2811
38.1234
35.5177
34.6563
34.5626
33.989
33.665
143.514
174.58
151.782
80.1775
67.658
53.0734
54.3068
50.266
49.3858
47.6056
46.1983
44.7762
43.6991
42.4818
41.1881
36.9987
35.7159
35.2268
34.9168
33.9078
269.332
170.218
130.693
77.8566
69.8276
53.7852
52.8356
53.3137
52.5392
49.593
48.2827
46.7053
46.0949
45.3261
43.4768
39.5305
38.3602
38.4885
38.76
38.4773
151.175
147.468
108.124
71.0184
63.0882
53.4774
53.2801
54.4067
53.0235
49.0245
48.3655
47.2094
47.4477
46.6497
44.7324
41.751
41.0344
41.5148
42.2069
42.8431
310.702
169.977
113.913
70.9543
66.1174
57.2686
59.425
53.0852
50.0714
47.1331
45.8104
45.6047
46.5642
46.7095
45.6665
43.2071
42.4532
42.819
43.2235
43.7195
292.094
204.906
112.234
67.5304
69.4008
55.8975
51.69
45.7629
43.124
39.3985
40.1601
39.5004
40.6913
40.6578
40.4925
39.8551
40.4263
41.1492
41.6121
42.4981
190.918
211.938
171.162
74.089
75.4957
52.8463
52.8825
42.9511
40.1559
35.0086
35.3642
33.4499
34.5149
34.0739
35.2439
35.985
37.461
38.4059
39.2431
41.0015
137.498
138.043
112.198
66.8249
68.1377
48.8814
52.866
39.7915
39.8083
34.1415
34.6412
32.5773
33.2187
32.7653
33.525
34.0792
35.3709
36.6485
37.5388
39.4777
240.518
152.327
114.794
67.8843
70.3424
48.6265
51.6433
39.385
41.2131
34.9626
36.4156
33.4886
34.6428
33.4322
34.5138
34.4409
35.2495
35.6068
36.0783
37.0977
398.771
148.969
107.315
67.4896
65.2279
45.9521
51.7152
38.947
42.3496
35.527
37.4486
34.1184
35.2467
33.8671
34.7935
34.5842
35.2835
35.4048
35.6817
36.4734
218.69
153.412
132.132
78.1039
76.439
52.3315
56.1249
43.9442
47.5879
41.127
43.0504
39.362
40.4606
38.8416
39.8245
39.3236
39.8712
39.7565
40.0793
40.6721
402.552
169.934
119.624
74.8589
79.0551
58.3334
66.4074
54.5699
58.9125
51.7479
52.5357
47.2579
46.7241
44.0429
44.7897
44.6014
45.4279
45.676
46.2532
47.5932
47.2977
79.484
78.1488
71.0949
62.5288
57.1518
51.3221
43.7552
38.1699
33.4065
30.0164
26.7501
24.4554
22.3613
20.9833
19.5493
18.8263
17.8901
17.4379
16.2685
40.9855
39.9003
85.4984
37.2334
40.9903
39.5482
86.3991
45.9314
86.9766
76.2597
42.6939
42.35
85.7726
69.9243
101.039
38.6792
38.5812
38.6272
100.488
36.8984
35.7037
85.5375
38.4549
36.1419
101.761
83.724
35.1656
32.9165
262.507
280.722
234.069
83.9096
64.0294
72.7753
60.7203
271.432
235.072
246.809
59.8391
55.0033
57.7618
52.3815
262.499
249.407
249.779
53.9331
50.1951
51.1183
48.4361
240.174
247.841
237.08
49.1812
45.8435
47.9498
48.1274
198.044
230.223
196.686
44.9793
42.9223
48.5477
47.0879
193.521
186.819
177.437
42.7941
43.6405
45.249
43.2475
188.532
178.602
177.622
44.0441
43.4083
42.9939
40.1272
174.178
177.719
167.888
42.5079
38.3417
39.1743
35.8014
228.271
275.768
234.552
70.336
58.94
69.9632
59.2327
246.459
238.172
254.869
55.9766
50.9236
56.9131
53.6376
250.19
256.485
258.966
50.0602
48.4807
53.2157
52.187
242.097
258.615
251.738
48.4341
49.612
52.1392
52.7063
201.14
247.178
219.772
50.4945
49.9696
53.5259
56.5772
171.123
212.647
169.654
47.9286
44.2639
57.2549
54.924
168.878
162.431
148.183
43.5228
39.3577
49.5317
38.7014
165.753
146.353
140.261
38.1565
35.3446
36.8823
33.4623
232.292
254.077
203.688
69.0684
61.1261
70.913
63.5592
250.423
198.215
197.767
59.1346
55.0531
61.1888
55.4624
252.887
200.091
199.673
54.2235
52.4938
54.0417
51.7405
242.168
196.283
161.464
52.3425
52.6295
51.7289
52.3376
218.49
153.943
152.429
53.1346
56.3176
51.8484
53.0078
168.227
150.746
141.79
58.2134
57.2167
54.5821
44.1859
147.743
149.856
162.644
50.6447
37.8726
38.5233
32.7271
136.623
161.684
137.06
36.2676
33.2567
32.4287
31.1102
209.744
300.779
222.776
74.4324
65.0232
83.7214
68.0196
197
220.628
219.745
62.7709
56.426
64.0032
58.7088
194.271
218.61
199.69
54.7203
52.356
56.7057
52.9781
153.781
189.521
147.655
52.2745
51.5944
52.1174
46.72
140.522
138.313
128.941
48.9057
45.45
43.1537
36.3068
146.911
131.533
141.943
44.8012
35.6054
34.5025
31.3752
166.168
145.323
154.2
33.4515
31.2948
30.8408
30.046
143.241
157.003
150.904
31.2262
30.6332
29.9136
29.1285
55.8455
61.7166
53.3399
50.4237
44.7243
49.4379
43.3124
48.8787
51.0793
46.5431
43.3162
40.5979
42.0315
39.2916
44.5712
45.4257
43.0796
39.724
37.2353
38.5804
37.0353
41.1198
42.7045
42.9793
36.7058
35.3046
36.8032
37.461
39.4168
43.4866
42.8929
35.0433
34.6274
38.4326
39.2876
39.8825
41.7316
39.7318
34.5823
34.1127
38.9256
35.3719
38.5744
39.1654
36.174
33.7007
31.6961
34.2147
31.1851
34.6634
35.2381
32.8608
31.0369
29.0881
30.3919
28.5318
51.8614
58.7104
52.6713
47.1934
42.4779
47.4442
43.86
45.5474
50.986
48.1566
41.377
39.0195
42.9376
41.0838
43.2999
47.7132
46.7307
38.4585
37.4667
40.7127
40.094
44.4073
46.7164
48.0684
37.4715
40.2787
40.3485
58.1486
45.543
49.2363
52.4299
42.4605
44.4544
60.9846
60.0189
40.9377
52.7561
48.096
43.9475
37.6422
56.6809
44.9816
35.7325
43.5713
35.7032
35.6263
31.3327
41.7213
34.7307
32.4911
34.3488
31.6048
30.3772
28.4245
32.9326
28.9879
54.4401
60.2199
56.3632
48.8444
45.0891
48.8172
46.0952
49.4398
54.6529
50.3077
44.0211
41.8505
45.1205
42.5633
47.1515
49.1418
47.1496
41.3594
40.4429
41.7744
40.174
48.193
47.1183
47.69
40.4601
60.3537
40.0431
40.257
52.6452
47.609
49.2099
62.9185
61.1883
40.3067
38.8438
49.2855
49.2009
37.8966
56.3617
42.6711
36.9597
30.1703
34.8154
33.8783
29.7463
39.8128
34.9411
28.9566
28.3609
31.5826
29.6184
29.7735
33.6768
29.5979
28.7244
29.4454
57.6404
66.5462
59.5678
49.0624
46.7997
51.1372
47.378
51.0981
56.5897
51.8067
45.8771
42.8341
45.8055
41.8312
47.4683
49.8728
46.782
41.7999
39.7894
40.0639
37.5035
46.5074
46.0453
40.3381
39.4718
37.9374
36.4181
31.1974
41.6765
37.3807
31.8301
37.0441
33.5632
29.51
26.4264
31.8213
30.3326
27.7396
31.9289
27.6294
25.6611
24.4671
28.3587
27.2742
26.7334
26.9514
26.7141
24.2663
24.2575
28.9553
26.698
26.8939
27.0142
28.3959
24.3648
25.0528
43.1216
47.5269
41.898
45.4826
41.5891
45.3469
40.8669
39.4453
40.796
38.4374
40.7286
38.7593
40.1737
38.6485
36.392
37.8178
36.4338
38.0815
36.5118
38.2149
37.0435
34.7213
36.2006
37.1062
36.1757
35.0876
36.7137
37.2879
34.0012
38.2371
39.1406
34.7504
33.9897
37.9322
37.6277
33.166
38.623
34.5722
33.7665
32.6155
36.7031
33.7049
30.7912
33.3963
30.5915
32.1375
30.8854
32.9637
31.3598
28.5612
29.8945
28.2903
30.5053
29.242
30.9748
30.0066
41.2177
45.7661
42.5992
43.5927
40.5116
44.0882
41.6707
38.2836
41.7889
40.1479
39.9607
38.711
41.1545
40.0486
36.8664
39.7977
39.2997
38.3741
37.3733
39.7254
38.9006
39.5678
37.157
37.8633
36.6627
39.0642
37.0242
37.6756
65.2846
45.532
55.5294
44.8267
58.1764
46.5251
62.4254
36.9485
68.1147
47.9534
40.5334
35.0179
62.6484
44.5044
30.8078
43.5686
34.8227
33.807
31.588
40.9533
34.5379
28.2243
32.8241
28.9062
31.121
30.0638
33.2278
30.8183
43.6677
47.1596
44.5329
45.6313
42.391
45.9354
43.0665
40.7659
43.6268
41.2466
41.7009
40.3043
42.1939
39.8498
39.5615
40.4848
38.8711
39.9067
38.9087
39.0834
37.3179
46.0605
65.2936
39.5668
44.9375
42.4442
257.728
38.9117
51.1093
99.5481
48.2556
214.835
48.4408
200.21
51.5289
45.0346
34.403
29.5868
67.1305
44.0465
32.1738
31.256
35.6232
28.8965
29.03
41.0543
35.6777
31.4038
32.5671
29.535
29.4937
29.8776
34.3298
31.2979
32.8269
32.452
45.1156
48.4849
45.5303
45.6285
43.3549
46.0713
42.9669
41.3533
44.0665
39.9731
42.4109
39.456
41.4828
37.0296
38.2935
38.2786
35.7363
38.4683
36.3478
35.6399
33.1828
36.1945
34.559
29.7329
35.7654
33.781
32.0156
28.6875
31.9852
28.3368
25.9209
33.0637
31.0113
28.0461
27.2714
27.4997
25.3656
24.5408
30.4775
29.9202
27.151
27.1624
27.2773
24.4247
24.5774
30.045
31.0598
27.2483
27.8841
28.8808
24.7277
25.4304
31.4049
32.0456
28.1042
28.8467
42.0263
45.4688
41.493
49.9278
47.0899
49.4553
47.939
39.3646
40.9244
39.6221
46.2912
44.8065
47.7024
46.9093
37.3828
39.2394
38.0711
44.6686
43.7239
46.641
45.1475
35.9152
37.685
37.7901
43.1433
41.834
44.5071
43.4081
34.7309
38.1169
37.4334
41.5675
40.7437
43.1637
42.0386
33.3193
36.6264
34.3392
40.3103
39.3818
41.6328
41.1286
31.8571
33.7952
32.6155
39.1217
38.5074
40.9593
40.4924
30.2642
32.3175
31.4399
38.1371
36.8906
40.3117
39.6108
41.2163
44.3511
42.2804
48.4674
47.9151
48.5936
48.6761
39.7425
41.8781
40.9433
47.7983
47.2514
48.6816
48.2219
38.3517
40.6139
39.4517
46.9984
45.2154
47.6746
45.4293
40.3922
39.6388
59.3561
44.5621
43.9424
44.6896
46.1057
40.5391
60.0052
54.9645
43.8556
42.5759
46.329
44.9805
35.233
51.606
41.697
41.9916
41.3782
44.125
42.9037
32.8417
39.4764
35.21
41.2613
40.7749
42.8388
42.0638
31.5255
34.2586
32.2999
40.5898
39.8245
41.7354
40.6371
42.9226
46.5784
43.5762
49.7724
49.1155
53.1592
49.7382
41.1149
42.685
40.3119
48.9684
48.2352
48.7751
46.5356
39.419
39.5565
37.7296
47.6098
45.2591
45.9182
43.5044
61.7717
37.2318
35.7838
44.4286
45.2767
42.754
41.0952
59.6265
35.2344
33.4118
45.5865
44.9269
40.7284
40.0801
41.6829
32.9388
32.7749
44.0975
43.1338
40.1294
41.6069
36.1733
33.1424
34.3121
43.1522
42.5465
42.045
42.5282
32.7178
34.4736
33.9242
42.1971
40.9721
42.4837
41.9137
43.7685
46.4512
43.0072
53.8589
49.5412
53.0408
46.5087
39.7468
41.4326
36.9828
48.2593
45.4912
44.8025
41.5516
36.7036
35.7312
33.3578
44.8258
42.6347
40.8742
38.5624
34.1383
32.2449
29.4753
41.8914
40.45
37.8588
37.1611
31.9874
29.0533
28.7172
40.1863
39.8444
37.3376
37.5425
31.7032
28.6909
28.8817
39.9759
41.2491
37.5459
37.973
33.0609
29.0233
29.7812
41.5583
42.0648
38.2807
38.9035
33.6381
30.0032
30.5406
42.1024
41.9259
38.9634
39.0349
51.0312
53.7415
53.2556
74.6539
68.216
77.4366
77.1901
49.2313
53.0824
52.3662
67.6361
70.8188
76.5866
76.3386
48.3295
52.1085
50.4845
71.605
68.2641
76.2589
77.1994
46.3609
49.7479
48.4492
67.7373
69.7971
77.6368
78.9166
45.2868
48.1306
46.9729
70.3866
69.0748
78.9889
77.6631
43.9112
46.5979
46.0317
69.0494
70.7767
76.8412
74.2641
42.9252
45.8332
45.2628
71.158
70.3462
73.9466
73.4129
40.7596
45.0402
43.8783
70.2174
69.2921
73.2428
72.1966
53.3596
52.6475
54.0684
73.9208
77.8009
72.354
78.748
52.8035
54.1978
53.7705
77.4233
77.1383
78.7731
78.9533
50.4134
53.1212
50.2491
77.2873
79.7856
79.8531
85.0625
48.505
49.3155
49.1492
80.4879
81.8913
86.3083
88.1431
47.0825
49.1705
47.8895
81.924
80.3714
88.226
86.1561
46.2319
47.3304
47.234
79.2451
75.2239
84.4236
77.9052
45.535
47.1931
46.5706
74.2805
73.412
76.0148
73.5613
44.13
46.2938
44.8665
73.2032
72.4093
73.2091
71.1071
54.3888
58.1356
54.8695
70.0083
78.1122
76.4186
77.0096
53.7423
53.907
51.8197
78.3226
78.6846
76.1402
75.0894
50.0271
51.2326
48.559
79.5936
84.7652
75.3372
78.0623
48.3037
47.6895
46.1684
85.9587
87.489
78.9315
79.9974
47.6753
45.8929
45.4499
87.835
87.0165
80.2307
80.0646
47.4272
45.5971
46.6659
85.1723
78.3228
79.2989
75.6455
46.9385
46.9332
47.0555
76.342
73.6703
74.6516
73.1772
45.2147
46.9557
46.0246
73.3079
71.8447
72.9497
71.3427
54.4345
58.1075
49.7181
77.6057
75.4228
75.627
65.2528
50.6334
48.1434
46.1173
74.0674
73.1705
64.0168
65.8617
47.848
45.6554
43.0993
73.2053
74.6178
66.5426
63.8524
45.9893
42.5266
42.2666
75.2217
76.5388
63.4335
66.0443
45.5098
42.5033
42.4894
76.8363
76.728
66.7538
66.0763
46.3748
42.4748
42.8626
76.2141
73.9149
66.0096
67.7335
46.7323
43.1985
43.5255
73.6174
72.7402
68.4289
67.9488
46.1406
43.5541
43.2274
72.6277
72.3237
67.9916
67.0959
46.2213
38.2711
50.3802
41.815
43.199
38.4874
56.0202
51.8968
39.2016
57.5428
44.8399
44.0474
39.495
201.352
87.9861
71.7276
77.631
225.63
58.4404
108.084
254.732
39.7331
36.7797
37.479
38.0386
37.1348
37.7325
39.3807
46.5751
41.7822
38.602
50.1748
38.6114
55.6496
44.0586
52.9002
45.3955
39.1053
60.2471
39.5039
205.114
44.6349
87.375
223.602
69.7545
81.3869
104.267
254.5
59.8117
66.0607
46.0909
58.4485
46.4224
58.9456
46.8882
63.9236
112.465
76.7971
85.7179
204.891
77.3566
112.851
183.998
108.127
72.2151
82.8636
103.907
76.3572
92.9013
124.372
62.1059
44.2989
43.2361
53.1198
45.4208
60.6012
53.6511
62.0336
44.7831
43.1084
51.2563
45.4777
59.261
53.2313
103.594
200.642
71.4665
83.8684
105.262
181.547
71.0112
99.6407
98.8204
64.0608
78.4031
85.3014
124.815
69.5296
50.2543
90.531
47.4414
228.472
45.6766
243.442
51.4409
38.6866
39.2161
38.6088
37.6806
39.4142
38.3648
37.5169
39.2619
40.4768
38.6108
37.2147
39.949
39.5909
37.4017
45.6026
45.4622
64.3439
38.5195
245.448
38.5667
41.4153
49.9397
224.696
90.5574
46.032
241.301
50.9097
44.7462
38.1142
37.0704
37.7423
36.5157
37.8528
36.798
37.7475
38.5456
36.2144
37.8573
36.1472
38.6535
36.5518
37.889
49.7043
98.6818
47.2597
138.996
48.22
187.189
48.4896
39.4176
40.7955
38.1143
36.8934
40.8204
39.6209
36.3369
38.8034
39.6926
37.3882
34.242
40.5349
37.7586
35.4465
50.2254
210.599
100.427
46.175
196.346
50.8159
45.9721
48.6579
129.399
98.6916
44.3867
174.007
47.5084
45.4982
38.155
35.7495
37.6403
34.497
38.5393
35.087
37.1687
37.3982
33.1795
35.7574
33.7133
36.4682
34.2005
36.5048
163.001
190.92
169.089
107.421
77.4775
104.674
80.6391
160.458
163.372
162.844
65.1736
63.5369
68.0533
64.1542
148.989
162.712
162.674
59.2063
55.126
62.173
60.9847
142.508
160.422
153.733
54.8023
54.0244
59.6421
56.9746
129.811
143.671
136.665
51.9253
50.8166
54.0612
52.6391
121.753
133.592
131.823
51.4111
52.0257
52.7958
53.5051
115.836
127.856
123.122
51.6237
50.0293
53.6244
52.9217
109.812
120.745
113.876
48.6851
40.5013
51.132
42.105
192.369
183.974
179.089
99.5074
99.0938
95.1294
85.5623
141.713
294.893
307.84
172.879
149.479
170.104
268.913
97.8143
265.87
245.828
104.476
99.6853
100.889
253.765
95.1754
266.888
261.643
94.716
92.1757
95.9265
261.49
88.3871
254.262
253.997
87.0419
84.3288
90.3934
248.335
80.1146
218.202
229.224
76.477
71.8836
82.7484
218.53
71.6716
192.343
192.496
65.5189
65.6648
72.0772
191.537
74.6375
194.552
194.561
70.7641
71.6396
74.3339
194.7
70.987
185.681
186.623
71.1186
69.4426
72.7447
186.074
111.317
122.85
113.003
43.7367
40.5079
42.2424
38.4273
177.019
187.272
173.682
100.996
83.2307
101.98
82.763
130.934
246.041
280.039
156.823
130.283
157.017
243.679
89.2142
235.058
229.252
92.8815
90.0496
91.9293
236.963
88.3402
249.937
251.466
88.4284
88.1417
88.252
253.854
89.5103
248.987
257.112
87.0224
86.9889
89.0704
256.766
90.9567
227.361
245.244
87.7072
87.1059
91.0926
236.935
75.3104
179.682
196.671
75.4437
70.947
81.5974
183.772
70.3586
170.123
166.568
69.2345
69.2884
71.0999
164.054
60.8231
170.859
161.107
63.6487
63.1853
61.4891
163.037
110.358
111.435
107.088
40.952
36.877
39.3955
35.5105
159.025
167.674
155.373
89.9969
79.7824
90.8628
79.2516
121.116
235.803
252.175
141.199
119.663
140.545
229.496
93.4827
242.917
223.549
95.8908
94.0701
96.7313
226.577
88.6337
252.933
235.279
91.7692
91.3961
89.0805
237.177
87.339
250.152
236.889
90.8472
90.6537
87.6826
234.526
83.4914
232.607
212.177
88.516
88.2752
83.7273
207.094
88.693
200.423
196.849
88.3595
88.2622
87.1611
187.397
75.6044
156.828
154.003
87.1743
77.5234
87.379
154.104
55.8677
143.252
146.06
59.3863
55.8491
59.2808
142.831
99.851
97.3616
89.8871
37.462
33.6533
36.0152
31.0582
163.689
184.043
174.086
100.098
86.5577
104.739
96.336
133.43
240.998
272.349
148.58
130.423
150.492
245.375
95.3123
197.18
208.212
98.2992
93.1779
101.096
205.435
86.1722
197.652
201.996
85.0334
84.2516
87.2349
199.761
81.2938
180.557
187.27
82.7819
83.037
82.1598
178.057
61.6489
145.232
141.099
73.1833
65.1948
67.5287
133.722
58.2542
134.511
127.702
65.7115
66.0434
58.5709
131.334
55.6107
162.225
155.799
57.9174
57.0314
55.5727
161.358
55.7808
164.173
167.404
56.3703
56.2293
55.6827
166.908
88.7686
106.322
94.229
35.1125
30.029
34.0787
28.3035
149.562
172.71
155.737
94.0811
78.0548
95.1567
79.0989
141.685
150.011
146.456
68.4513
65.4721
72.0061
70.4747
124.931
134.804
122.764
60.4889
58.0791
66.4008
61.963
97.3235
109.506
101.086
56.0458
50.9328
55.741
53.5153
83.9209
93.5246
86.3102
46.4455
43.2187
50.4871
46.8195
84.1579
82.9558
82.5573
38.8471