/*--------------------------------*- C++ -*----------------------------------*\
  =========                 |
  \\      /  F ield         | OpenFOAM: The Open Source CFD Toolbox
   \\    /   O peration     | Website:  https://openfoam.org
    \\  /    A nd           | Version:  10
     \\/     M anipulation  |
\*---------------------------------------------------------------------------*/
FoamFile
{
    format      ascii;
    class       volScalarField;
    location    "2.5";
    object      p;
}
// * * * * * * * * * * * * * * * * * * * * * * * * * * * * * * * * * * * * * //

dimensions      [0 2 -2 0 0 0 0];

internalField   nonuniform List<scalar> 
12920
(
-1.40931e+06
-1.26125e+06
-1.2421e+06
-1.19662e+06
-1.19244e+06
-1.15014e+06
-1.11383e+06
-1.05601e+06
-998932
-928209
-857712
-778930
-700413
-616487
-531722
-442973
-353328
-261810
-172507
-83220.1
-1.15376e+06
-1.17631e+06
-1.25469e+06
-1.2159e+06
-1.21374e+06
-1.16319e+06
-1.12504e+06
-1.06402e+06
-1.0046e+06
-932057
-861093
-782222
-703368
-618975
-533688
-444489
-354105
-261933
-171814
-80824.3
-924878
-1.12193e+06
-1.25294e+06
-1.23538e+06
-1.23692e+06
-1.18609e+06
-1.14807e+06
-1.08013e+06
-1.01949e+06
-944525
-872015
-790149
-709732
-623887
-537901
-447369
-356037
-262270
-170835
-78150
-1.39925e+06
-1.28895e+06
-1.38937e+06
-1.32224e+06
-1.31099e+06
-1.24331e+06
-1.19157e+06
-1.11386e+06
-1.04327e+06
-961667
-883845
-799716
-716999
-630085
-542752
-451750
-358848
-263693
-170785
-76377.9
-2.06481e+06
-1.58373e+06
-1.51603e+06
-1.41996e+06
-1.38296e+06
-1.30111e+06
-1.23844e+06
-1.14845e+06
-1.07168e+06
-982591
-900143
-812129
-726689
-637373
-548395
-456130
-362177
-265821
-171775
-76154.7
-2.30248e+06
-1.77306e+06
-1.71758e+06
-1.55056e+06
-1.4946e+06
-1.3813e+06
-1.29214e+06
-1.1916e+06
-1.09989e+06
-1.00607e+06
-916397
-825393
-736185
-645265
-554310
-460978
-365936
-268844
-173948
-75741.8
-1.83986e+06
-1.83124e+06
-1.74336e+06
-1.5999e+06
-1.53932e+06
-1.42707e+06
-1.33462e+06
-1.22483e+06
-1.12822e+06
-1.0277e+06
-936183
-840555
-748960
-654991
-562023
-467062
-371196
-273455
-177145
-73423
-2.1053e+06
-1.94126e+06
-1.88122e+06
-1.67718e+06
-1.61377e+06
-1.47858e+06
-1.39571e+06
-1.27618e+06
-1.17476e+06
-1.07349e+06
-976451
-879505
-784557
-688984
-570845
-474180
-376829
-277572
-178385
-71337.7
-2.17625e+06
-1.95144e+06
-1.95336e+06
-1.75696e+06
-1.66398e+06
-1.53887e+06
-1.43969e+06
-1.32527e+06
-1.21734e+06
-1.11479e+06
-1.01313e+06
-912541
-812998
-714740
-603699
-480150
-380589
-278880
-178087
-71588.5
-2.25914e+06
-2.00574e+06
-2.04694e+06
-1.79354e+06
-1.721e+06
-1.58495e+06
-1.47689e+06
-1.36527e+06
-1.25471e+06
-1.14668e+06
-1.0402e+06
-935198
-831031
-727919
-612532
-485032
-381886
-277982
-177398
-74349.8
-2.18047e+06
-2.07644e+06
-2.05836e+06
-1.82096e+06
-1.74663e+06
-1.62207e+06
-1.51124e+06
-1.39835e+06
-1.28888e+06
-1.17607e+06
-1.06437e+06
-954153
-845278
-737673
-617719
-486375
-381552
-277182
-177564
-77419.9
-2.2766e+06
-2.24042e+06
-2.19664e+06
-1.92623e+06
-1.82233e+06
-1.66666e+06
-1.56232e+06
-1.44002e+06
-1.32061e+06
-1.20276e+06
-1.08722e+06
-971109
-855347
-742960
-618560
-485211
-380586
-276874
-178451
-79656.1
-2.7296e+06
-2.34229e+06
-2.20317e+06
-1.95894e+06
-1.84189e+06
-1.68678e+06
-1.5958e+06
-1.46148e+06
-1.33623e+06
-1.21538e+06
-1.09586e+06
-974686
-853180
-733276
-593043
-485301
-380132
-276629
-178869
-79747.4
-2.96157e+06
-2.48118e+06
-2.30743e+06
-2.04203e+06
-1.91336e+06
-1.7278e+06
-1.59945e+06
-1.45826e+06
-1.33756e+06
-1.20755e+06
-1.08682e+06
-963160
-841779
-720504
-600957
-488377
-380775
-276362
-178268
-77884.3
-2.97436e+06
-2.45976e+06
-2.29242e+06
-2.04982e+06
-1.91738e+06
-1.73756e+06
-1.61236e+06
-1.47085e+06
-1.34716e+06
-1.21811e+06
-1.09541e+06
-971875
-850976
-730262
-611706
-495977
-384465
-277744
-178474
-75957.5
-2.58271e+06
-2.37024e+06
-2.27093e+06
-2.0278e+06
-1.92784e+06
-1.74884e+06
-1.62572e+06
-1.48167e+06
-1.35833e+06
-1.22473e+06
-1.10293e+06
-977636
-858384
-737075
-620034
-504006
-392108
-282946
-181515
-75274.1
-2.36349e+06
-2.27097e+06
-2.20463e+06
-1.99692e+06
-1.90355e+06
-1.74036e+06
-1.6265e+06
-1.48612e+06
-1.36459e+06
-1.23e+06
-1.10786e+06
-981993
-862522
-742128
-625412
-509656
-398283
-288921
-185507
-76488.8
-2.54491e+06
-2.24783e+06
-2.1852e+06
-1.9699e+06
-1.87855e+06
-1.72058e+06
-1.61466e+06
-1.47664e+06
-1.35973e+06
-1.23014e+06
-1.11055e+06
-986265
-866752
-746198
-629522
-514212
-402960
-293438
-189816
-81931.7
-2.29646e+06
-2.08297e+06
-2.08764e+06
-1.8965e+06
-1.84248e+06
-1.69318e+06
-1.59866e+06
-1.46614e+06
-1.35419e+06
-1.22933e+06
-1.11209e+06
-989927
-871645
-751359
-634225
-518675
-406979
-297149
-193418
-85790
-1.5549e+06
-1.89221e+06
-2.01593e+06
-1.84165e+06
-1.81214e+06
-1.6795e+06
-1.58794e+06
-1.46187e+06
-1.35012e+06
-1.22811e+06
-1.11139e+06
-990620
-872680
-753444
-637051
-522052
-410223
-300388
-196505
-90294.5
-1.39453e+06
-1.24033e+06
-1.2401e+06
-1.19652e+06
-1.19289e+06
-1.15028e+06
-1.11432e+06
-1.05634e+06
-999274
-928315
-857675
-779028
-700579
-616550
-531764
-442933
-353309
-261652
-172154
-82375.9
-1.11988e+06
-1.16541e+06
-1.25146e+06
-1.21402e+06
-1.21407e+06
-1.16324e+06
-1.12559e+06
-1.06393e+06
-1.00457e+06
-932081
-861313
-782171
-703422
-619075
-533778
-444604
-354160
-261746
-171316
-79520.7
-998247
-1.12637e+06
-1.2568e+06
-1.23667e+06
-1.23846e+06
-1.18658e+06
-1.14812e+06
-1.08044e+06
-1.01941e+06
-944373
-871835
-790071
-709875
-623985
-538175
-447632
-355978
-261976
-170296
-76479.9
-1.34755e+06
-1.2906e+06
-1.38631e+06
-1.32067e+06
-1.31147e+06
-1.24342e+06
-1.19085e+06
-1.11339e+06
-1.04292e+06
-961286
-883902
-799813
-717170
-630376
-542978
-451639
-358717
-263365
-170196
-74581.9
-2.03587e+06
-1.59334e+06
-1.52399e+06
-1.41987e+06
-1.3841e+06
-1.30149e+06
-1.23829e+06
-1.14829e+06
-1.07168e+06
-982349
-900011
-812208
-726960
-637665
-548583
-456093
-362004
-265455
-171127
-74304.2
-2.33593e+06
-1.81391e+06
-1.72522e+06
-1.55232e+06
-1.49618e+06
-1.38044e+06
-1.29246e+06
-1.19282e+06
-1.10007e+06
-1.00604e+06
-916377
-825231
-736146
-645376
-554441
-460951
-365777
-268456
-173175
-73893.4
-1.88989e+06
-1.85715e+06
-1.74091e+06
-1.59853e+06
-1.54161e+06
-1.42728e+06
-1.33459e+06
-1.22434e+06
-1.12822e+06
-1.02753e+06
-935725
-840127
-748643
-655162
-562306
-467080
-371029
-272968
-176158
-71659.3
-2.06949e+06
-1.95126e+06
-1.88248e+06
-1.68113e+06
-1.61515e+06
-1.47849e+06
-1.39587e+06
-1.27606e+06
-1.17501e+06
-1.07351e+06
-976362
-879397
-784923
-689072
-571352
-474371
-376680
-276959
-177378
-69341.3
-2.49531e+06
-1.99602e+06
-1.96518e+06
-1.75787e+06
-1.66606e+06
-1.53866e+06
-1.43976e+06
-1.32493e+06
-1.21769e+06
-1.11455e+06
-1.01295e+06
-912364
-813397
-714870
-602880
-480414
-380321
-278072
-177218
-69518.8
-2.27819e+06
-1.99963e+06
-2.04958e+06
-1.79043e+06
-1.7224e+06
-1.58408e+06
-1.4773e+06
-1.36507e+06
-1.25496e+06
-1.14695e+06
-1.04035e+06
-935192
-831121
-728240
-612669
-485339
-381681
-277281
-176639
-72274.6
-2.1785e+06
-2.08973e+06
-2.04931e+06
-1.82181e+06
-1.74579e+06
-1.62195e+06
-1.51104e+06
-1.39988e+06
-1.28918e+06
-1.17644e+06
-1.06445e+06
-953912
-845007
-738066
-617982
-486471
-381350
-276682
-176924
-75615.9
-2.36515e+06
-2.2473e+06
-2.19745e+06
-1.9293e+06
-1.8224e+06
-1.66897e+06
-1.56204e+06
-1.43986e+06
-1.32038e+06
-1.20279e+06
-1.08686e+06
-970554
-855362
-743275
-618926
-485243
-380569
-276631
-177957
-77761
-2.7362e+06
-2.33336e+06
-2.20183e+06
-1.96255e+06
-1.84393e+06
-1.68714e+06
-1.59492e+06
-1.46301e+06
-1.33707e+06
-1.21553e+06
-1.09514e+06
-974012
-853081
-733762
-593780
-485566
-380215
-276493
-178370
-77718.9
-2.88807e+06
-2.47229e+06
-2.30263e+06
-2.0466e+06
-1.9138e+06
-1.72758e+06
-1.59864e+06
-1.45851e+06
-1.33696e+06
-1.20704e+06
-1.08544e+06
-962389
-841015
-720320
-601802
-488859
-381010
-276246
-177740
-75811.2
-3.00499e+06
-2.47232e+06
-2.29542e+06
-2.05025e+06
-1.91844e+06
-1.73767e+06
-1.61203e+06
-1.4705e+06
-1.34637e+06
-1.21706e+06
-1.09472e+06
-971218
-850559
-730352
-611832
-496639
-384834
-277891
-177947
-73762.7
-2.54082e+06
-2.36787e+06
-2.27479e+06
-2.03021e+06
-1.92919e+06
-1.74829e+06
-1.6254e+06
-1.48066e+06
-1.3576e+06
-1.22412e+06
-1.10246e+06
-977707
-858373
-737606
-620423
-504263
-392071
-282951
-181068
-72770.5
-2.45646e+06
-2.28884e+06
-2.20989e+06
-1.99753e+06
-1.90555e+06
-1.7385e+06
-1.62614e+06
-1.48401e+06
-1.36222e+06
-1.22933e+06
-1.10784e+06
-982724
-863282
-742850
-626066
-509901
-398521
-288836
-185038
-73964.1
-2.5918e+06
-2.26612e+06
-2.18739e+06
-1.97105e+06
-1.88069e+06
-1.71945e+06
-1.61449e+06
-1.47588e+06
-1.35915e+06
-1.22989e+06
-1.11044e+06
-986251
-867051
-746368
-629699
-514388
-403095
-293317
-189338
-79633.7
-2.31445e+06
-2.09661e+06
-2.08564e+06
-1.89709e+06
-1.84297e+06
-1.69217e+06
-1.59848e+06
-1.46553e+06
-1.35384e+06
-1.22902e+06
-1.11196e+06
-989825
-871546
-751526
-634539
-518944
-407178
-297101
-193063
-84261.9
-1.79125e+06
-1.91607e+06
-2.01694e+06
-1.84377e+06
-1.81266e+06
-1.67975e+06
-1.58802e+06
-1.46173e+06
-1.35008e+06
-1.22802e+06
-1.11136e+06
-990690
-872826
-753512
-637022
-521944
-410095
-300154
-196158
-89564.6
-1.41336e+06
-1.24497e+06
-1.2382e+06
-1.19631e+06
-1.19333e+06
-1.15056e+06
-1.11514e+06
-1.05696e+06
-999733
-928442
-857920
-779169
-700741
-616669
-531939
-442974
-353097
-261299
-171593
-80742.3
-1.05266e+06
-1.1458e+06
-1.24522e+06
-1.20987e+06
-1.2144e+06
-1.16334e+06
-1.1263e+06
-1.0641e+06
-1.00483e+06
-932318
-861679
-782191
-703551
-619239
-534016
-444711
-354088
-261382
-170582
-77050.3
-991249
-1.11752e+06
-1.25505e+06
-1.23782e+06
-1.24062e+06
-1.18743e+06
-1.14835e+06
-1.08107e+06
-1.01982e+06
-944661
-872105
-790574
-710459
-624486
-538467
-447844
-355900
-261485
-169405
-73463.6
-1.19408e+06
-1.30544e+06
-1.37338e+06
-1.31981e+06
-1.31243e+06
-1.24375e+06
-1.19035e+06
-1.11316e+06
-1.04205e+06
-961115
-883488
-799943
-717619
-630750
-543271
-451561
-358512
-262879
-169247
-71330
-1.98565e+06
-1.59374e+06
-1.5279e+06
-1.4215e+06
-1.38559e+06
-1.30208e+06
-1.2374e+06
-1.14813e+06
-1.07125e+06
-981847
-899621
-811876
-727060
-637985
-548741
-455973
-361745
-264906
-170132
-71005
-2.37254e+06
-1.83762e+06
-1.72315e+06
-1.55276e+06
-1.49805e+06
-1.37886e+06
-1.29239e+06
-1.19255e+06
-1.10024e+06
-1.00579e+06
-916442
-824904
-735998
-645711
-554592
-460865
-365536
-267865
-171995
-70592.9
-2.09584e+06
-1.89184e+06
-1.74104e+06
-1.59955e+06
-1.54413e+06
-1.4272e+06
-1.33343e+06
-1.22372e+06
-1.12869e+06
-1.02795e+06
-935336
-840039
-748912
-655571
-562566
-467061
-370758
-272115
-174566
-68653.4
-2.23208e+06
-1.97457e+06
-1.88366e+06
-1.68488e+06
-1.61847e+06
-1.47832e+06
-1.39527e+06
-1.27646e+06
-1.17574e+06
-1.07412e+06
-976518
-879097
-784316
-688046
-571892
-474564
-376308
-275776
-175308
-66673.9
-2.31746e+06
-1.97455e+06
-1.96773e+06
-1.7565e+06
-1.66659e+06
-1.53759e+06
-1.43901e+06
-1.32423e+06
-1.21788e+06
-1.11458e+06
-1.01307e+06
-912612
-813449
-714339
-602433
-480739
-379472
-276812
-175598
-66804.4
-2.0739e+06
-2.02064e+06
-2.04016e+06
-1.79278e+06
-1.72169e+06
-1.58378e+06
-1.47692e+06
-1.36496e+06
-1.25549e+06
-1.14765e+06
-1.04091e+06
-935112
-831195
-728602
-613186
-485606
-381242
-276370
-175567
-68983.5
-2.21241e+06
-2.10759e+06
-2.04517e+06
-1.82434e+06
-1.74458e+06
-1.62201e+06
-1.51124e+06
-1.40146e+06
-1.28956e+06
-1.17373e+06
-1.06513e+06
-953527
-845099
-738166
-618467
-486561
-381093
-276126
-176090
-72316.7
-2.35483e+06
-2.25114e+06
-2.19715e+06
-1.93133e+06
-1.82305e+06
-1.67384e+06
-1.56186e+06
-1.44009e+06
-1.32056e+06
-1.20293e+06
-1.08638e+06
-970150
-855501
-743908
-619645
-485469
-380642
-276407
-177146
-74186.1
-2.69161e+06
-2.3443e+06
-2.20326e+06
-1.96725e+06
-1.8463e+06
-1.68674e+06
-1.5941e+06
-1.4643e+06
-1.33849e+06
-1.21535e+06
-1.09438e+06
-973369
-853232
-735678
-595624
-486232
-380550
-276406
-177586
-74018.4
-2.83948e+06
-2.47271e+06
-2.30765e+06
-2.05163e+06
-1.91386e+06
-1.72782e+06
-1.59802e+06
-1.45829e+06
-1.3349e+06
-1.20658e+06
-1.08445e+06
-961765
-840565
-720510
-603267
-490713
-381959
-276309
-177000
-72233.1
-3.05634e+06
-2.4915e+06
-2.30348e+06
-2.05024e+06
-1.91461e+06
-1.73775e+06
-1.61098e+06
-1.46949e+06
-1.34586e+06
-1.21644e+06
-1.09412e+06
-970863
-850190
-730296
-612122
-497441
-386599
-278941
-177304
-70285.8
-2.67073e+06
-2.40828e+06
-2.28514e+06
-2.03514e+06
-1.92736e+06
-1.74723e+06
-1.62333e+06
-1.47916e+06
-1.35625e+06
-1.22374e+06
-1.10196e+06
-977662
-858205
-737843
-620736
-505141
-392853
-283596
-180433
-69478.4
-2.684e+06
-2.31377e+06
-2.22165e+06
-2.00061e+06
-1.90451e+06
-1.73657e+06
-1.62296e+06
-1.48158e+06
-1.36034e+06
-1.22881e+06
-1.10763e+06
-983141
-863769
-743384
-626679
-510995
-399385
-289242
-184266
-70872.3
-2.63123e+06
-2.26743e+06
-2.18878e+06
-1.97044e+06
-1.88266e+06
-1.71804e+06
-1.61328e+06
-1.47468e+06
-1.35774e+06
-1.22936e+06
-1.11024e+06
-986496
-867475
-746733
-629993
-514706
-403327
-293147
-188566
-76104.2
-2.40789e+06
-2.11845e+06
-2.08659e+06
-1.90105e+06
-1.84289e+06
-1.69172e+06
-1.5981e+06
-1.46437e+06
-1.35313e+06
-1.22852e+06
-1.1116e+06
-989737
-871679
-751847
-634770
-519116
-407249
-296856
-192387
-81656.9
-1.74724e+06
-1.93833e+06
-2.01953e+06
-1.84931e+06
-1.81455e+06
-1.67998e+06
-1.58822e+06
-1.46097e+06
-1.34983e+06
-1.22774e+06
-1.11145e+06
-990865
-873194
-753691
-636941
-521702
-409793
-299694
-195535
-88040.7
-1.27583e+06
-1.23302e+06
-1.2344e+06
-1.19535e+06
-1.19418e+06
-1.15115e+06
-1.11618e+06
-1.0576e+06
-1.00045e+06
-928781
-858447
-779410
-701102
-616912
-532139
-443015
-352946
-260770
-170811
-78345.2
-947483
-1.12771e+06
-1.24306e+06
-1.20665e+06
-1.21555e+06
-1.1634e+06
-1.12737e+06
-1.06457e+06
-1.00537e+06
-932729
-862092
-782506
-703934
-619452
-534292
-444838
-354076
-260982
-169689
-73455.6
-940285
-1.10899e+06
-1.25379e+06
-1.24143e+06
-1.24237e+06
-1.18832e+06
-1.149e+06
-1.0818e+06
-1.02039e+06
-945005
-872462
-790879
-710838
-624891
-538786
-448009
-355830
-260989
-168425
-69366.5
-1.20183e+06
-1.31671e+06
-1.367e+06
-1.32309e+06
-1.3141e+06
-1.24439e+06
-1.19008e+06
-1.11329e+06
-1.04167e+06
-961246
-883527
-800141
-717987
-631145
-543538
-451350
-358262
-262552
-168331
-66998.3
-1.9459e+06
-1.60909e+06
-1.52399e+06
-1.42469e+06
-1.38672e+06
-1.30283e+06
-1.23693e+06
-1.14836e+06
-1.07096e+06
-981870
-899430
-811966
-727334
-638303
-548617
-455703
-361485
-264629
-169233
-66708.9
-2.60134e+06
-1.90289e+06
-1.72827e+06
-1.55648e+06
-1.49759e+06
-1.37767e+06
-1.29182e+06
-1.19144e+06
-1.10017e+06
-1.00595e+06
-916138
-825386
-736450
-645948
-554551
-460709
-365338
-267537
-170877
-66580.7
-2.38276e+06
-1.94582e+06
-1.75293e+06
-1.60277e+06
-1.54701e+06
-1.42524e+06
-1.33231e+06
-1.22365e+06
-1.12943e+06
-1.02836e+06
-936213
-840655
-749350
-655861
-562611
-466917
-370322
-271268
-172877
-65818.8
-2.39649e+06
-2.03025e+06
-1.88236e+06
-1.6907e+06
-1.62121e+06
-1.47869e+06
-1.39423e+06
-1.27644e+06
-1.17691e+06
-1.07459e+06
-977282
-879020
-783858
-687600
-571794
-474110
-375339
-274500
-173940
-65040.3
-2.36377e+06
-2.00406e+06
-1.97887e+06
-1.75907e+06
-1.66601e+06
-1.53775e+06
-1.43777e+06
-1.3235e+06
-1.2177e+06
-1.11458e+06
-1.01304e+06
-912000
-812557
-713614
-602526
-479891
-378831
-275998
-174523
-65218.2
-2.20269e+06
-2.01952e+06
-2.04161e+06
-1.79487e+06
-1.72188e+06
-1.5858e+06
-1.4765e+06
-1.36542e+06
-1.2561e+06
-1.1483e+06
-1.0413e+06
-934996
-831229
-728541
-613252
-484861
-380797
-276261
-174884
-66499.8
-2.33105e+06
-2.13206e+06
-2.03948e+06
-1.82684e+06
-1.7441e+06
-1.6229e+06
-1.51239e+06
-1.40187e+06
-1.29012e+06
-1.17805e+06
-1.0653e+06
-953661
-845050
-738020
-618679
-486511
-381246
-276344
-175543
-68332.4
-2.52336e+06
-2.24445e+06
-2.19638e+06
-1.93308e+06
-1.82467e+06
-1.67736e+06
-1.56243e+06
-1.44114e+06
-1.32121e+06
-1.20301e+06
-1.08621e+06
-970231
-855914
-744590
-620744
-486294
-381193
-276621
-176357
-69472.4
-2.73095e+06
-2.35933e+06
-2.20547e+06
-1.97017e+06
-1.8465e+06
-1.68654e+06
-1.59341e+06
-1.46389e+06
-1.33862e+06
-1.2151e+06
-1.0936e+06
-972733
-853354
-737007
-597199
-487893
-381595
-276868
-176838
-69471.4
-2.70949e+06
-2.46264e+06
-2.31218e+06
-2.05542e+06
-1.91303e+06
-1.72823e+06
-1.5976e+06
-1.45846e+06
-1.33395e+06
-1.20613e+06
-1.08386e+06
-961222
-840415
-720783
-604237
-491924
-383389
-277330
-176663
-68545.9
-3.01458e+06
-2.48977e+06
-2.30563e+06
-2.05125e+06
-1.91174e+06
-1.7375e+06
-1.61002e+06
-1.46892e+06
-1.34525e+06
-1.21627e+06
-1.09368e+06
-970733
-849783
-730200
-612432
-498091
-387660
-279764
-177329
-67652.9
-2.69228e+06
-2.4027e+06
-2.28655e+06
-2.04031e+06
-1.92526e+06
-1.74718e+06
-1.62256e+06
-1.47885e+06
-1.355e+06
-1.22359e+06
-1.10148e+06
-977448
-857834
-737783
-620632
-505487
-393402
-283949
-179830
-67625.7
-2.62697e+06
-2.32682e+06
-2.2188e+06
-2.00435e+06
-1.90306e+06
-1.73651e+06
-1.62119e+06
-1.48066e+06
-1.35876e+06
-1.22849e+06
-1.10721e+06
-983374
-863877
-743768
-627152
-511698
-399888
-289461
-183745
-69058.5
-2.69364e+06
-2.309e+06
-2.18585e+06
-1.97816e+06
-1.88139e+06
-1.71915e+06
-1.61064e+06
-1.47364e+06
-1.35644e+06
-1.22901e+06
-1.10997e+06
-986755
-867810
-747439
-630747
-515436
-403793
-293286
-187637
-72596.9
-2.40511e+06
-2.13964e+06
-2.08338e+06
-1.90507e+06
-1.8425e+06
-1.69431e+06
-1.59734e+06
-1.46356e+06
-1.35222e+06
-1.22792e+06
-1.11135e+06
-989815
-871860
-751999
-634835
-519120
-407176
-296501
-191561
-78124.9
-1.80143e+06
-1.95611e+06
-2.01532e+06
-1.85295e+06
-1.816e+06
-1.67991e+06
-1.58846e+06
-1.45969e+06
-1.34945e+06
-1.22733e+06
-1.11165e+06
-991219
-873764
-753943
-636598
-521115
-409243
-299000
-194733
-85724.9
-1.38056e+06
-1.24407e+06
-1.23507e+06
-1.19524e+06
-1.19489e+06
-1.15148e+06
-1.11712e+06
-1.05815e+06
-1.00125e+06
-929201
-859017
-779703
-701436
-617113
-532317
-442965
-352703
-260259
-170230
-75400
-840818
-1.11292e+06
-1.23733e+06
-1.20444e+06
-1.21761e+06
-1.1634e+06
-1.1287e+06
-1.06495e+06
-1.0059e+06
-933093
-862428
-782709
-704103
-619474
-534266
-444754
-353959
-260741
-169038
-69788.2
-882806
-1.08669e+06
-1.25211e+06
-1.24259e+06
-1.24244e+06
-1.18868e+06
-1.14932e+06
-1.08231e+06
-1.02078e+06
-945211
-872506
-790877
-710725
-624746
-538499
-447787
-355736
-260975
-167900
-66560.1
-1.16727e+06
-1.33218e+06
-1.36061e+06
-1.32444e+06
-1.31433e+06
-1.24473e+06
-1.19029e+06
-1.11356e+06
-1.04214e+06
-961456
-883749
-800166
-717913
-630897
-543166
-451223
-358139
-262389
-167806
-64875.6
-1.98368e+06
-1.6308e+06
-1.5209e+06
-1.42655e+06
-1.38767e+06
-1.30336e+06
-1.23635e+06
-1.14839e+06
-1.0707e+06
-982099
-899677
-812100
-727238
-638094
-548503
-455572
-361360
-264472
-168692
-64650.7
-2.66221e+06
-1.94008e+06
-1.72458e+06
-1.55727e+06
-1.49642e+06
-1.3769e+06
-1.2904e+06
-1.19084e+06
-1.09973e+06
-1.00595e+06
-916056
-825633
-736656
-646043
-554519
-460626
-365233
-267331
-170255
-64884.8
-2.44792e+06
-1.97105e+06
-1.75663e+06
-1.60642e+06
-1.54587e+06
-1.42433e+06
-1.3319e+06
-1.22361e+06
-1.1294e+06
-1.02875e+06
-936179
-841058
-749624
-656032
-562600
-466822
-370089
-270832
-172041
-64583.8
-2.4884e+06
-2.0535e+06
-1.87679e+06
-1.69403e+06
-1.62258e+06
-1.47857e+06
-1.39275e+06
-1.27696e+06
-1.1769e+06
-1.07403e+06
-977461
-879371
-784531
-688350
-571711
-473867
-374892
-273900
-173215
-64046.7
-2.465e+06
-2.02106e+06
-1.97994e+06
-1.76065e+06
-1.66381e+06
-1.53992e+06
-1.43775e+06
-1.32387e+06
-1.2178e+06
-1.11425e+06
-1.01284e+06
-912123
-812758
-713909
-602912
-479509
-378501
-275613
-174003
-64446.6
-2.25393e+06
-2.0428e+06
-2.03873e+06
-1.79927e+06
-1.72154e+06
-1.58732e+06
-1.47815e+06
-1.36603e+06
-1.25629e+06
-1.14825e+06
-1.04106e+06
-935204
-831034
-728144
-613193
-484547
-380576
-276186
-174502
-65375.4
-2.49851e+06
-2.15312e+06
-2.03994e+06
-1.82927e+06
-1.74369e+06
-1.6241e+06
-1.51502e+06
-1.40248e+06
-1.29041e+06
-1.17764e+06
-1.06534e+06
-954154
-844897
-737838
-618894
-486498
-381314
-276400
-175148
-66433
-2.52611e+06
-2.25078e+06
-2.19331e+06
-1.93483e+06
-1.82405e+06
-1.67907e+06
-1.56442e+06
-1.44165e+06
-1.32184e+06
-1.20342e+06
-1.08622e+06
-970248
-856192
-744995
-621623
-486648
-381469
-276668
-175822
-67268.8
-2.58374e+06
-2.36767e+06
-2.20748e+06
-1.97358e+06
-1.84572e+06
-1.68567e+06
-1.59275e+06
-1.46303e+06
-1.33832e+06
-1.21453e+06
-1.09319e+06
-972254
-853830
-737765
-598021
-488653
-382099
-277078
-176386
-67622.6
-2.67274e+06
-2.45973e+06
-2.31642e+06
-2.05787e+06
-1.9123e+06
-1.72902e+06
-1.59766e+06
-1.45865e+06
-1.33336e+06
-1.20563e+06
-1.08347e+06
-960797
-840311
-720911
-604739
-492557
-384057
-277779
-176402
-67047.1
-3.06129e+06
-2.50646e+06
-2.30455e+06
-2.05123e+06
-1.91055e+06
-1.73662e+06
-1.61025e+06
-1.46902e+06
-1.3449e+06
-1.21641e+06
-1.09345e+06
-970660
-849720
-730150
-612718
-498437
-388178
-280129
-177207
-66501.7
-2.70217e+06
-2.41129e+06
-2.2847e+06
-2.04241e+06
-1.9245e+06
-1.74731e+06
-1.62238e+06
-1.47942e+06
-1.35417e+06
-1.22372e+06
-1.10125e+06
-977317
-857527
-737517
-620441
-505523
-393672
-284101
-179447
-66501.8
-2.63615e+06
-2.31813e+06
-2.22079e+06
-2.00305e+06
-1.90309e+06
-1.73668e+06
-1.62083e+06
-1.48059e+06
-1.35762e+06
-1.2284e+06
-1.1068e+06
-983310
-863424
-743966
-627147
-512032
-400043
-289556
-183427
-68097.1
-2.75968e+06
-2.31505e+06
-2.18637e+06
-1.98243e+06
-1.88149e+06
-1.72003e+06
-1.60868e+06
-1.4733e+06
-1.35551e+06
-1.22863e+06
-1.10965e+06
-987058
-868082
-747872
-631128
-515788
-404041
-293333
-187095
-70946.6
-2.36623e+06
-2.14097e+06
-2.08034e+06
-1.90596e+06
-1.84423e+06
-1.6961e+06
-1.59553e+06
-1.46393e+06
-1.35204e+06
-1.22812e+06
-1.11122e+06
-989726
-871693
-751887
-634765
-519167
-407194
-296477
-190933
-75434.1
-1.7727e+06
-1.96873e+06
-2.01454e+06
-1.8573e+06
-1.81694e+06
-1.6801e+06
-1.5886e+06
-1.45777e+06
-1.34901e+06
-1.22688e+06
-1.11214e+06
-991865
-874566
-753983
-635842
-520155
-408500
-298183
-194000
-82826.9
-1.06757e+06
-1.16734e+06
-1.08623e+06
-1.14819e+06
-1.06806e+06
-1.16822e+06
-1.08717e+06
-961426
-1.05888e+06
-979935
-1.04129e+06
-961406
-1.05954e+06
-979981
-1.09261e+06
-1.19672e+06
-1.11006e+06
-1.17473e+06
-1.09312e+06
-1.19688e+06
-1.11004e+06
-984032
-1.08114e+06
-994929
-1.06555e+06
-984040
-1.08109e+06
-995073
-1.35644e+06
-1.46662e+06
-1.38294e+06
-1.43971e+06
-1.35585e+06
-1.46694e+06
-1.38318e+06
-1.24249e+06
-1.35501e+06
-1.27282e+06
-1.32508e+06
-1.24268e+06
-1.35528e+06
-1.27291e+06
-1.14156e+06
-1.24557e+06
-1.16534e+06
-1.21761e+06
-1.14169e+06
-1.24565e+06
-1.1656e+06
-1.03953e+06
-1.1388e+06
-1.05994e+06
-1.11461e+06
-1.03961e+06
-1.13902e+06
-1.06012e+06
-939369
-1.03378e+06
-956011
-1.013e+06
-939377
-1.0339e+06
-956049
-839343
-930078
-852763
-912440
-839521
-930085
-852753
-740907
-826908
-750562
-813278
-740960
-827007
-750613
-641508
-724939
-648190
-715021
-641250
-725006
-648419
-1.39276e+06
-1.50305e+06
-1.418e+06
-1.47721e+06
-1.39275e+06
-1.50285e+06
-1.41801e+06
-1.2821e+06
-1.39023e+06
-1.30811e+06
-1.36516e+06
-1.28221e+06
-1.39043e+06
-1.30856e+06
-1.17362e+06
-1.28054e+06
-1.1968e+06
-1.25488e+06
-1.17375e+06
-1.28083e+06
-1.19706e+06
-1.06661e+06
-1.16898e+06
-1.086e+06
-1.14684e+06
-1.06677e+06
-1.16923e+06
-1.08614e+06
-961320
-1.05855e+06
-976707
-1.04027e+06
-961370
-1.05863e+06
-976567
-857102
-949573
-868845
-935204
-857056
-949445
-868728
-753723
-842122
-762110
-831088
-753780
-841986
-762307
-650693
-735633
-656220
-728044
-650712
-736086
-656236
-1.42611e+06
-1.54961e+06
-1.46093e+06
-1.51116e+06
-1.42651e+06
-1.55001e+06
-1.4607e+06
-1.31681e+06
-1.43111e+06
-1.34271e+06
-1.39931e+06
-1.31723e+06
-1.4308e+06
-1.34234e+06
-1.20417e+06
-1.31337e+06
-1.22565e+06
-1.28911e+06
-1.20443e+06
-1.31302e+06
-1.22554e+06
-1.09217e+06
-1.19652e+06
-1.11025e+06
-1.17631e+06
-1.09227e+06
-1.1965e+06
-1.11019e+06
-981664
-1.08159e+06
-995657
-1.06442e+06
-981497
-1.08145e+06
-995545
-872302
-967077
-881466
-953977
-872163
-966846
-881090
-764391
-853139
-769487
-845090
-764631
-852907
-769727
-657439
-741947
-659742
-738030
-657505
-742118
-659937
-1.47082e+06
-1.59351e+06
-1.49864e+06
-1.5621e+06
-1.47054e+06
-1.59376e+06
-1.49929e+06
-1.35042e+06
-1.46408e+06
-1.37216e+06
-1.43989e+06
-1.35023e+06
-1.46451e+06
-1.37267e+06
-1.23215e+06
-1.33918e+06
-1.25113e+06
-1.32042e+06
-1.23214e+06
-1.33944e+06
-1.2514e+06
-1.11617e+06
-1.21924e+06
-1.13303e+06
-1.20277e+06
-1.11602e+06
-1.21914e+06
-1.13308e+06
-1.00036e+06
-1.10078e+06
-1.01469e+06
-1.08697e+06
-1.00009e+06
-1.10015e+06
-1.01434e+06
-884174
-980547
-894561
-970737
-884013
-980321
-894558
-770840
-860728
-777103
-855331
-771104
-861297
-777517
-660059
-745519
-663117
-743158
-660270
-745819
-663781
-1.35554e+06
-1.46708e+06
-1.38328e+06
-1.43914e+06
-1.35475e+06
-1.46706e+06
-1.38358e+06
-1.2428e+06
-1.35534e+06
-1.27297e+06
-1.32443e+06
-1.24329e+06
-1.35549e+06
-1.27333e+06
-1.14178e+06
-1.24575e+06
-1.16574e+06
-1.21785e+06
-1.14221e+06
-1.2462e+06
-1.16626e+06
-1.03963e+06
-1.13914e+06
-1.06022e+06
-1.11455e+06
-1.03993e+06
-1.1396e+06
-1.06063e+06
-939356
-1.03398e+06
-956073
-1.01303e+06
-939619
-1.03432e+06
-956169
-839540
-930079
-852796
-912546
-839722
-930072
-852847
-740877
-827047
-750671
-813642
-740770
-827110
-751128
-641146
-725144
-648429
-714524
-641561
-725529
-648779
-1.39272e+06
-1.50276e+06
-1.41806e+06
-1.477e+06
-1.39269e+06
-1.50202e+06
-1.41873e+06
-1.28228e+06
-1.39067e+06
-1.3087e+06
-1.36492e+06
-1.28257e+06
-1.39149e+06
-1.30909e+06
-1.17386e+06
-1.28092e+06
-1.19721e+06
-1.25533e+06
-1.17436e+06
-1.28125e+06
-1.19796e+06
-1.06687e+06
-1.16937e+06
-1.08621e+06
-1.14745e+06
-1.06735e+06
-1.17025e+06
-1.08647e+06
-961378
-1.05866e+06
-976509
-1.04073e+06
-961419
-1.05887e+06
-976155
-857085
-949412
-868664
-935154
-857087
-949147
-868460
-753880
-841930
-762525
-831182
-754306
-841868
-762692
-650696
-736145
-656243
-728572
-650999
-736197
-656542
-1.42703e+06
-1.55009e+06
-1.46058e+06
-1.51111e+06
-1.42846e+06
-1.54993e+06
-1.46041e+06
-1.31734e+06
-1.43069e+06
-1.34225e+06
-1.4012e+06
-1.3176e+06
-1.43059e+06
-1.34225e+06
-1.20457e+06
-1.31295e+06
-1.22555e+06
-1.28944e+06
-1.20525e+06
-1.31295e+06
-1.2257e+06
-1.09232e+06
-1.19652e+06
-1.11017e+06
-1.17729e+06
-1.09253e+06
-1.19666e+06
-1.11009e+06
-981416
-1.08139e+06
-995445
-1.06474e+06
-980814
-1.08121e+06
-995039
-872073
-966700
-881016
-953527
-871814
-966227
-881222
-764764
-852968
-769800
-844983
-764865
-853206
-770092
-657526
-742204
-660034
-738156
-657811
-742560
-660577
-1.47046e+06
-1.59395e+06
-1.49969e+06
-1.56181e+06
-1.47047e+06
-1.59409e+06
-1.50064e+06
-1.3502e+06
-1.46479e+06
-1.373e+06
-1.43997e+06
-1.35032e+06
-1.46593e+06
-1.37423e+06
-1.23217e+06
-1.33961e+06
-1.2517e+06
-1.32046e+06
-1.23234e+06
-1.34017e+06
-1.25254e+06
-1.11596e+06
-1.2191e+06
-1.1331e+06
-1.20289e+06
-1.11574e+06
-1.21908e+06
-1.1325e+06
-999943
-1.09986e+06
-1.01408e+06
-1.0865e+06
-999461
-1.0997e+06
-1.01342e+06
-883989
-980376
-894599
-970154
-884028
-980857
-894598
-771213
-861531
-777785
-855447
-771628
-862023
-778789
-660389
-745942
-664099
-743732
-660996
-746435
-665334
-1.35452e+06
-1.46704e+06
-1.38364e+06
-1.43798e+06
-1.3543e+06
-1.46678e+06
-1.38402e+06
-1.24346e+06
-1.35556e+06
-1.27347e+06
-1.32357e+06
-1.24384e+06
-1.35588e+06
-1.27393e+06
-1.1424e+06
-1.24636e+06
-1.16645e+06
-1.21781e+06
-1.14304e+06
-1.24685e+06
-1.16699e+06
-1.04005e+06
-1.13978e+06
-1.0608e+06
-1.11471e+06
-1.04051e+06
-1.14023e+06
-1.06114e+06
-939682
-1.03445e+06
-956196
-1.01323e+06
-939955
-1.0347e+06
-956194
-839638
-930058
-852842
-912290
-839410
-929967
-852883
-740810
-827121
-751199
-812809
-741366
-827224
-751226
-641689
-725578
-648874
-713806
-642481
-725612
-649235
-1.39272e+06
-1.50194e+06
-1.41896e+06
-1.47647e+06
-1.39302e+06
-1.50193e+06
-1.41951e+06
-1.28271e+06
-1.39173e+06
-1.30921e+06
-1.36526e+06
-1.28315e+06
-1.39224e+06
-1.30961e+06
-1.17457e+06
-1.28139e+06
-1.19817e+06
-1.25596e+06
-1.17513e+06
-1.28182e+06
-1.19892e+06
-1.12876e+06
-1.12097e+06
-1.15541e+06
-1.14786e+06
-1.12845e+06
-1.1212e+06
-1.15565e+06
-1.02032e+06
-1.01432e+06
-1.0472e+06
-1.04109e+06
-1.02013e+06
-1.01444e+06
-1.04749e+06
-857069
-949208
-868427
-934965
-857050
-949062
-868481
-754352
-841959
-762658
-831242
-754298
-841899
-762436
-651071
-736186
-656607
-728596
-651367
-736059
-656823
-1.42876e+06
-1.54993e+06
-1.46044e+06
-1.51175e+06
-1.42923e+06
-1.54995e+06
-1.46084e+06
-1.3177e+06
-1.43064e+06
-1.34233e+06
-1.40181e+06
-1.31809e+06
-1.43109e+06
-1.34282e+06
-1.20539e+06
-1.31302e+06
-1.22578e+06
-1.28998e+06
-1.20608e+06
-1.31344e+06
-1.22604e+06
-1.15557e+06
-1.14703e+06
-1.18401e+06
-1.17236e+06
-1.15579e+06
-1.14465e+06
-1.18412e+06
-1.04211e+06
-1.03785e+06
-1.07041e+06
-1.06632e+06
-1.04215e+06
-1.03971e+06
-1.07035e+06
-871823
-966166
-881299
-953547
-872022
-966425
-881448
-764857
-853257
-770210
-845092
-764726
-853432
-770545
-657856
-742698
-660742
-738087
-658050
-743071
-661289
-1.47058e+06
-1.59422e+06
-1.50075e+06
-1.56207e+06
-1.47127e+06
-1.59435e+06
-1.5011e+06
-1.35044e+06
-1.46654e+06
-1.3746e+06
-1.44082e+06
-1.35099e+06
-1.46744e+06
-1.37487e+06
-1.23242e+06
-1.34056e+06
-1.25265e+06
-1.32103e+06
-1.23264e+06
-1.34226e+06
-1.25279e+06
-1.11566e+06
-1.21942e+06
-1.1322e+06
-1.20301e+06
-1.1155e+06
-1.2204e+06
-1.13183e+06
-999403
-1.09991e+06
-1.01324e+06
-1.08617e+06
-999453
-1.1005e+06
-1.01318e+06
-884054
-981153
-894480
-970191
-884240
-981692
-894091
-771792
-862293
-779153
-855781
-772280
-863297
-779489
-661192
-746685
-665815
-744432
-661893
-748081
-666767
-1.35421e+06
-1.46681e+06
-1.38423e+06
-1.43758e+06
-1.35368e+06
-1.46711e+06
-1.38485e+06
-1.24395e+06
-1.35606e+06
-1.27407e+06
-1.32386e+06
-1.24399e+06
-1.35662e+06
-1.27427e+06
-1.14308e+06
-1.24699e+06
-1.16711e+06
-1.21781e+06
-1.14184e+06
-1.24717e+06
-1.16714e+06
-1.04047e+06
-1.14032e+06
-1.06117e+06
-1.11452e+06
-1.03916e+06
-1.14033e+06
-1.06103e+06
-939874
-1.0347e+06
-956184
-1.01297e+06
-938971
-1.03456e+06
-956243
-839386
-929960
-852928
-912162
-839038
-930064
-852866
-741481
-827229
-751190
-812752
-740733
-827121
-750863
-642463
-725567
-649117
-713911
-641702
-725251
-648946
-1.39319e+06
-1.5023e+06
-1.41968e+06
-1.47755e+06