/*--------------------------------*- C++ -*----------------------------------*\
  =========                 |
  \\      /  F ield         | OpenFOAM: The Open Source CFD Toolbox
   \\    /   O peration     | Website:  https://openfoam.org
    \\  /    A nd           | Version:  10
     \\/     M anipulation  |
\*---------------------------------------------------------------------------*/
FoamFile
{
    format      ascii;
    class       volScalarField;
    location    "2.5";
    object      turbidity;
}
// * * * * * * * * * * * * * * * * * * * * * * * * * * * * * * * * * * * * * //

dimensions      [0 0 0 0 0 0 0];

internalField   nonuniform List<scalar> 
12920
(
-0.0271363
-0.054969
-0.0715587
-0.092761
-0.110253
-0.125912
-0.137071
-0.142367
-0.144692
-0.149878
-0.164606
-0.186341
-0.209788
-0.230726
-0.24836
-0.263591
-0.277269
-0.294298
-0.318043
-0.349942
-0.0367174
-0.0748392
-0.0901623
-0.11905
-0.137383
-0.147728
-0.156547
-0.168061
-0.184159
-0.203725
-0.22712
-0.249605
-0.267666
-0.282181
-0.297275
-0.315644
-0.339515
-0.36846
-0.400195
-0.437968
-0.0215339
-0.0454582
-0.0597187
-0.094775
-0.1418
-0.181884
-0.209195
-0.2262
-0.242622
-0.259404
-0.275547
-0.2903
-0.304332
-0.315906
-0.330324
-0.355404
-0.393853
-0.435711
-0.477898
-0.520986
-0.026305
-0.045066
-0.0640723
-0.0930238
-0.134435
-0.181229
-0.216882
-0.243368
-0.258097
-0.271455
-0.28292
-0.297264
-0.315306
-0.340325
-0.37314
-0.411801
-0.455714
-0.506222
-0.558191
-0.605425
-0.0529097
-0.0699724
-0.087053
-0.123023
-0.152886
-0.179696
-0.19507
-0.213569
-0.224328
-0.236912
-0.246707
-0.259855
-0.277357
-0.303337
-0.339893
-0.383816
-0.437495
-0.498873
-0.562754
-0.623687
-0.0542944
-0.0607187
-0.0744841
-0.101746
-0.125312
-0.151547
-0.163465
-0.182895
-0.189353
-0.199128
-0.204002
-0.21383
-0.228451
-0.260201
-0.310307
-0.365818
-0.423125
-0.485325
-0.557951
-0.645669
-0.0471221
-0.0670869
-0.0781602
-0.088359
-0.0943784
-0.102823
-0.118105
-0.138187
-0.141901
-0.148035
-0.148462
-0.155115
-0.164916
-0.194017
-0.254264
-0.325498
-0.395894
-0.474617
-0.569977
-0.664914
-0.0470964
-0.0747105
-0.0804793
-0.0970491
-0.10706
-0.116109
-0.113753
-0.106786
-0.0987334
-0.090107
-0.0863506
-0.0854626
-0.0870737
-0.0915998
-0.146159
-0.233457
-0.324901
-0.418707
-0.495778
-0.524245
-0.0117528
-0.0492662
-0.0827548
-0.110597
-0.125381
-0.114086
-0.108733
-0.0968257
-0.0857892
-0.077443
-0.0724386
-0.0707368
-0.0738183
-0.074459
-0.0842186
-0.16948
-0.265348
-0.35824
-0.410134
-0.408707
-0.0189259
-0.063531
-0.0845615
-0.104279
-0.123934
-0.118687
-0.109286
-0.0925183
-0.0794788
-0.0740156
-0.0714047
-0.0707529
-0.0777836
-0.0808741
-0.0847043
-0.143292
-0.225004
-0.300875
-0.342657
-0.357708
-0.0491022
-0.067438
-0.0805885
-0.106295
-0.129299
-0.117737
-0.107564
-0.0952708
-0.0899078
-0.0856453
-0.082826
-0.0786553
-0.0845198
-0.0911906
-0.0917625
-0.131339
-0.193907
-0.252056
-0.289692
-0.315382
-0.0589104
-0.0530916
-0.0709958
-0.102529
-0.132296
-0.131289
-0.134677
-0.126798
-0.118664
-0.117984
-0.126289
-0.122989
-0.128723
-0.120758
-0.106484
-0.128407
-0.172916
-0.217249
-0.252745
-0.276985
-0.0687595
-0.0562536
-0.0826253
-0.13304
-0.152064
-0.167851
-0.161897
-0.156406
-0.168298
-0.175419
-0.198029
-0.216228
-0.220703
-0.182793
-0.171121
-0.18
-0.19896
-0.224608
-0.253007
-0.284068
-0.036192
-0.0421179
-0.0684452
-0.109124
-0.135099
-0.15509
-0.177665
-0.204186
-0.237833
-0.28037
-0.326002
-0.372144
-0.401273
-0.411992
-0.386183
-0.355322
-0.336595
-0.341112
-0.366625
-0.411744
-0.0177067
-0.0282482
-0.0511745
-0.0852935
-0.117447
-0.146811
-0.17687
-0.206959
-0.244218
-0.291306
-0.345378
-0.397272
-0.441993
-0.474847
-0.49498
-0.503987
-0.501285
-0.507795
-0.530627
-0.564934
-0.0252285
-0.0227551
-0.0364502
-0.0539676
-0.0808701
-0.121533
-0.170902
-0.221034
-0.265131
-0.305681
-0.346177
-0.38165
-0.417535
-0.449704
-0.481483
-0.509757
-0.533891
-0.551814
-0.562273
-0.551947
-0.0216312
-0.0286995
-0.03851
-0.049927
-0.0653166
-0.101395
-0.175835
-0.25044
-0.291133
-0.310147
-0.325363
-0.34112
-0.364052
-0.392291
-0.428541
-0.46597
-0.499848
-0.52156
-0.525916
-0.512992
-0.0252899
-0.0356105
-0.044367
-0.0598622
-0.0857759
-0.129843
-0.18359
-0.231289
-0.265556
-0.279574
-0.286394
-0.289849
-0.297619
-0.308414
-0.325361
-0.347553
-0.380078
-0.421603
-0.464416
-0.500094
-0.0285069
-0.0363685
-0.0558365
-0.0804402
-0.109122
-0.14087
-0.170244
-0.199225
-0.229992
-0.258572
-0.277425
-0.282186
-0.284398
-0.290218
-0.306327
-0.330191
-0.361634
-0.402161
-0.452899
-0.50358
-0.0373408
-0.0425194
-0.065762
-0.0962717
-0.115101
-0.126753
-0.132789
-0.138988
-0.152071
-0.171417
-0.193668
-0.216297
-0.237757
-0.259605
-0.28561
-0.320188
-0.362106
-0.406253
-0.448758
-0.488225
-0.006086
-0.0140804
-0.0203677
-0.0294607
-0.039829
-0.0459117
-0.0466148
-0.0414655
-0.034408
-0.0290258
-0.0289912
-0.0365831
-0.0516533
-0.068665
-0.0833837
-0.0940109
-0.101166
-0.106853
-0.1081
-0.0981763
-0.0267155
-0.0226226
-0.0186467
-0.0275068
-0.0290262
-0.0329006
-0.0383492
-0.0429286
-0.0532916
-0.0601542
-0.0647018
-0.0619427
-0.061593
-0.0678227
-0.0821287
-0.0994777
-0.116579
-0.131701
-0.146662
-0.149446
-0.0182116
-0.0121981
-0.0109717
-0.017592
-0.0299426
-0.0449384
-0.0634662
-0.0705172
-0.0773475
-0.074371
-0.0714895
-0.0653048
-0.0644008
-0.0689655
-0.0801979
-0.0961947
-0.113588
-0.12793
-0.13405
-0.125374
-0.02038
-0.00782023
-0.0103175
-0.0184444
-0.0356861
-0.0495286
-0.0617914
-0.0722545
-0.0795558
-0.0866594
-0.0952899
-0.104545
-0.116546
-0.126256
-0.135548
-0.143687
-0.152269
-0.158686
-0.15948
-0.152219
-0.00905333
-0.0260846
-0.0182546
-0.0299637
-0.0315159
-0.0353863
-0.0348547
-0.0380185
-0.0408151
-0.0444524
-0.0514516
-0.0595398
-0.072524
-0.0887776
-0.111808
-0.136996
-0.158316
-0.175342
-0.192392
-0.204417
-0.00399415
-0.0117499
-0.0142423
-0.0218436
-0.0268844
-0.0248333
-0.0173222
-0.0174161
-0.019201
-0.0242492
-0.0306435
-0.0395303
-0.0516704
-0.0689699
-0.0911978
-0.119978
-0.158204
-0.209222
-0.265981
-0.305558
-0.0166109
-0.0341721
-0.0285582
-0.0170828
-0.00887554
-0.00751617
-0.00720971
-0.0100105
-0.01379
-0.0193543
-0.0258597
-0.0330033
-0.0423781
-0.0583894
-0.0841938
-0.123622
-0.1789
-0.241478
-0.28251
-0.286219
-0.0213141
-0.0204061
-0.0114789
-0.00969998
-0.00650891
-0.00598927
-0.00612992
-0.00802697
-0.010586
-0.0150696
-0.022991
-0.0333389
-0.0407155
-0.0474363
-0.0783774
-0.118731
-0.169254
-0.202087
-0.191468
-0.157308
-0.0217327
-0.0370589
-0.0311374
-0.0197274
-0.00974926
-0.00734568
-0.00638756
-0.00667265
-0.00748653
-0.0125182
-0.0250997
-0.0403904
-0.0511347
-0.0529514
-0.0585374
-0.108328
-0.148143
-0.161045
-0.137424
-0.105085
-0.0340524
-0.0372876
-0.0270201
-0.0192216
-0.0145481
-0.0114705
-0.0119456
-0.0105977
-0.0113776
-0.0184436
-0.0323848
-0.0539464
-0.0617695
-0.056906
-0.0504488
-0.0869806
-0.114231
-0.120403
-0.107946
-0.0919642
-0.0221857
-0.0175634
-0.0114857
-0.017492
-0.0174494
-0.0142141
-0.0205846
-0.0188626
-0.0224629
-0.0345973
-0.0524945
-0.0712425
-0.08048
-0.0689409
-0.0488198
-0.0638234
-0.0812058
-0.0879303
-0.0856301
-0.082495
-0.0186259
-0.0107764
-0.0101018
-0.0131628
-0.0182317
-0.021669
-0.0360955
-0.0556093
-0.0623635
-0.0802573
-0.102314
-0.101739
-0.0716116
-0.0582181
-0.0474527
-0.0492674
-0.0594551
-0.0676647
-0.0736444
-0.0778045
-0.0274651
-0.0114901
-0.0119111
-0.0248324
-0.0207822
-0.0273127
-0.0358011
-0.0348243
-0.0498123
-0.0862975
-0.106679
-0.0909976
-0.0678978
-0.0586532
-0.0564414
-0.0604774
-0.0694661
-0.08096
-0.0921976
-0.0940599
-0.0134936
-0.00881821
-0.0116273
-0.01696
-0.0229551
-0.0250666
-0.0293808
-0.0387763
-0.0588207
-0.0795215
-0.0936512
-0.0950983
-0.0923688
-0.0906299
-0.0938758
-0.0966484
-0.103003
-0.11499
-0.131062
-0.147088
-0.00391514
-0.0037116
-0.00592286
-0.0134864
-0.0270937
-0.0362801
-0.0423657
-0.0420427
-0.0514466
-0.0603167
-0.0715551
-0.0732949
-0.0800111
-0.0864727
-0.0972799
-0.111108
-0.127073
-0.144543
-0.1706
-0.191672
-0.00337086
-0.00276724
-0.00510154
-0.0127034
-0.0321783
-0.0512585
-0.0639759
-0.0567156
-0.0519649
-0.0459422
-0.0449845
-0.0426297
-0.0434918
-0.045254
-0.0529476
-0.0573319
-0.0627995
-0.0657906
-0.0662011
-0.0637749
-0.00276469
-0.00526047
-0.0118246
-0.0234323
-0.0463594
-0.0685045
-0.0737095
-0.0476081
-0.0301549
-0.0250362
-0.024248
-0.025432
-0.0282183
-0.0317867
-0.035594
-0.0386513
-0.0405033
-0.0414781
-0.0423853
-0.0441196
-0.0116893
-0.0142601
-0.0232437
-0.0279431
-0.0330585
-0.0316316
-0.0364178
-0.0352806
-0.033425
-0.0299265
-0.0279159
-0.0278933
-0.0298599
-0.033247
-0.0378538
-0.0434712
-0.0506747
-0.0597639
-0.0705136
-0.0736118
-0.00172178
-0.00585389
-0.0151536
-0.0223044
-0.0290588
-0.0264229
-0.0303176
-0.0345883
-0.042256
-0.0425152
-0.0400591
-0.0403221
-0.0434753
-0.0489914
-0.0560673
-0.0603234
-0.0613314
-0.0636177
-0.0714321
-0.0884195
-0.00861617
-0.00943916
-0.0118689
-0.0188786
-0.0243101
-0.0241438
-0.0217175
-0.0210349
-0.0255373
-0.0375313
-0.0558368
-0.0752187
-0.0946735
-0.115939
-0.139622
-0.160479
-0.176196
-0.188337
-0.20026
-0.210897
-0.00858934
-0.0120216
-0.0150713
-0.0199103
-0.0255102
-0.0282965
-0.0270698
-0.0231404
-0.0199988
-0.0197479
-0.0225839
-0.0278905
-0.0350032
-0.0427606
-0.0504174
-0.0569007
-0.0613524
-0.0621874
-0.0588935
-0.0522103
-0.0187861
-0.0127412
-0.011039
-0.0133909
-0.0160782
-0.0180724
-0.0207676
-0.0231081
-0.0280086
-0.0328449
-0.038858
-0.0451869
-0.0529059
-0.0602117
-0.0664823
-0.0703931
-0.0717892
-0.0705144
-0.0680263
-0.0600154
-0.0160369
-0.00695329
-0.00708036
-0.00971349
-0.0130262
-0.0174218
-0.0239725
-0.0262255
-0.0295494
-0.029809
-0.0319666
-0.034602
-0.0390736
-0.043848
-0.0485106
-0.0516644
-0.053216
-0.0528896
-0.0506787
-0.0460311
-0.00964733
-0.00473835
-0.00620379
-0.00953046
-0.0146895
-0.0191841
-0.024096
-0.0292209
-0.0339115
-0.0381057
-0.043794
-0.0486366
-0.0543075
-0.0579473
-0.0617394
-0.0645597
-0.0667558
-0.0678361
-0.0672837
-0.0656662
-0.00540729
-0.00663578
-0.00790857
-0.0104139
-0.0108064
-0.0135541
-0.0152324
-0.0183085
-0.020995
-0.0245555
-0.0292476
-0.034745
-0.041756
-0.0498477
-0.0603118
-0.071436
-0.0821464
-0.0924442
-0.101725
-0.109353
-0.00259563
-0.00499331
-0.00698176
-0.00892303
-0.00938746
-0.0103203
-0.0104671
-0.0134681
-0.0164263
-0.0204487
-0.0249969
-0.0307819
-0.0380266
-0.0473535
-0.05995
-0.0775334
-0.102235
-0.131347
-0.158502
-0.175153
-0.011972
-0.0163202
-0.0113343
-0.0076235
-0.00555859
-0.0058654
-0.00744725
-0.0108556
-0.0143873
-0.0183846
-0.0228848
-0.0289754
-0.0374058
-0.0492562
-0.0664347
-0.0905537
-0.121341
-0.147232
-0.153991
-0.14361
-0.0241269
-0.0117289
-0.00885679
-0.00696172
-0.00568246
-0.00564514
-0.00611099
-0.00925475
-0.0121524
-0.016001
-0.0204716
-0.0250269
-0.0312011
-0.0430449
-0.0703003
-0.0932857
-0.112371
-0.113579
-0.0971719
-0.0784746
-0.0470349
-0.0256278
-0.0144947
-0.00974544
-0.00708366
-0.00610911
-0.005819
-0.00631957
-0.00859599
-0.0137067
-0.0202093
-0.0270626
-0.030038
-0.0352358
-0.0606924
-0.0884078
-0.0952461
-0.085347
-0.0673016
-0.0514718
-0.0450047
-0.0193708
-0.0129983
-0.010801
-0.008854
-0.0078344
-0.00732805
-0.00832397
-0.0128129
-0.0199061
-0.0276548
-0.0319701
-0.0330381
-0.031649
-0.0508169
-0.0708225
-0.0733103
-0.0662995
-0.0567187
-0.0495574
-0.0152903
-0.0119855
-0.00859327
-0.00847544
-0.00876659
-0.00950401
-0.0117914
-0.0139833
-0.0204849
-0.0319643
-0.0405233
-0.0413376
-0.037073
-0.0315119
-0.0376001
-0.0504271
-0.0539447
-0.0525781
-0.0499103
-0.0482897
-0.00921516
-0.00924426
-0.00838231
-0.00861291
-0.0104064
-0.0123898
-0.0161237
-0.0220607
-0.0317488
-0.0463909
-0.0523178
-0.041776
-0.0325242
-0.0297001
-0.0297037
-0.0403694
-0.0459383
-0.0494017
-0.0511677
-0.0512063
-0.00402435
-0.00920805
-0.00967722
-0.0118354
-0.0130661
-0.0157599
-0.0181326
-0.025268
-0.0337326
-0.0444498
-0.0409246
-0.0325973
-0.0320185
-0.0355189
-0.0413233
-0.046374
-0.0508731
-0.0541884
-0.0554458
-0.0536169
-0.00849727
-0.00697395
-0.00910012
-0.0118294
-0.0140453
-0.0154583
-0.0191123
-0.0240954
-0.0315363
-0.0350849
-0.0354855
-0.0342692
-0.0345241
-0.0375378
-0.0432706
-0.0485283
-0.0543806
-0.0616795
-0.0704634
-0.0802442
-0.00123598
-0.00484184
-0.00858979
-0.0125407
-0.017754
-0.0193619
-0.0219372
-0.0231571
-0.0268958
-0.0275882
-0.0293336
-0.0301492
-0.0339492
-0.0386327
-0.04522
-0.0526946
-0.0618254
-0.0720946
-0.084869
-0.0953331
-0.000851968
-0.0025678
-0.00562554
-0.0114817
-0.0221453
-0.0253651
-0.02722
-0.0235824
-0.0227657
-0.0219592
-0.0228561
-0.0242925
-0.0270752
-0.030281
-0.0346021
-0.0385222
-0.0428992
-0.0467439
-0.0504944
-0.0538796
-0.000747872
-0.00300927
-0.00865476
-0.0172408
-0.0338139
-0.0351086
-0.0278842
-0.0191939
-0.017832
-0.0187718
-0.0205111
-0.0225812
-0.0247702
-0.0270104
-0.0292817
-0.0317511
-0.0345318
-0.0376473
-0.041334
-0.0460466
-0.00798821
-0.0116992
-0.0133311
-0.0114962
-0.0121414
-0.0122486
-0.0156781
-0.0178366
-0.0199142
-0.0218625
-0.0242197
-0.026694
-0.0292355
-0.0314317
-0.0331488
-0.0347334
-0.0367469
-0.0400068
-0.0453012
-0.0534235
-0.00218342
-0.00558811
-0.00970819
-0.00855866
-0.00975326
-0.0103581
-0.0139278
-0.018031
-0.0229522
-0.0274477
-0.0322957
-0.0371636
-0.0427423
-0.0479364
-0.0515666
-0.0521593
-0.0518376
-0.0536464
-0.0592701
-0.0695451
-0.00723493
-0.00878119
-0.00841364
-0.00759163
-0.00809893
-0.0085081
-0.00948203
-0.011758
-0.0169191
-0.0255162
-0.0372535
-0.0506309
-0.0650295
-0.080359
-0.0949914
-0.10366
-0.106537
-0.107963
-0.11133
-0.11576
-0.0075893
-0.00907262
-0.0105792
-0.0138591
-0.0169512
-0.017208
-0.0157568
-0.0152044
-0.0172746
-0.021484
-0.0263835
-0.0310266
-0.0350111
-0.0379252
-0.0396992
-0.0400704
-0.0392231
-0.0369291
-0.0341671
-0.03162
-0.0135987
-0.00946536
-0.00875256
-0.0108199
-0.012826
-0.0146072
-0.0172735
-0.0213647
-0.0261195
-0.0304729
-0.0345418
-0.0372424
-0.0390027
-0.0391611
-0.0383815
-0.0364966
-0.0344263
-0.0322426
-0.0304784
-0.0277857
-0.0104715
-0.00555978
-0.00517679
-0.00672035
-0.00886053
-0.0113999
-0.0144185
-0.0166088
-0.0190287
-0.0206905
-0.0226268
-0.0240943
-0.0254112
-0.0262369
-0.0267042
-0.0268134
-0.0269536
-0.0269917
-0.0269439
-0.0267429
-0.0116617
-0.00528142
-0.00462635
-0.00618188
-0.00849795
-0.0111584
-0.0136229
-0.0162597
-0.0188485
-0.021342
-0.0245292
-0.0269868
-0.0297122
-0.0314795
-0.0333718
-0.0347398
-0.0358297
-0.0365405
-0.036858
-0.0376621
-0.00356139
-0.00490514
-0.00541916
-0.00638685
-0.00747333
-0.00927187
-0.0110832
-0.0128937
-0.0151463
-0.0176436
-0.0211776
-0.024984
-0.0297618
-0.0348287
-0.0408548
-0.0466712
-0.05207
-0.0565993
-0.0604227
-0.0649167
-0.00489841
-0.00530609
-0.0057851
-0.00621347
-0.00712706
-0.0090543
-0.0107784
-0.0129277
-0.0157632
-0.0187122
-0.022865
-0.0273266
-0.0331832
-0.0398828
-0.0483713
-0.0584736
-0.0702593
-0.0803444
-0.0883489
-0.0924263
-0.012187
-0.00827716
-0.00518736
-0.00438727
-0.00477039
-0.00677391
-0.00981419
-0.0127547
-0.0160341
-0.0197605
-0.024619
-0.0302841
-0.0372766
-0.0453946
-0.0551177
-0.0654074
-0.0745388
-0.0772351
-0.0730958
-0.0657289
-0.011772
-0.0116273
-0.00851743
-0.00619336
-0.00594816
-0.0068945
-0.0081342
-0.011884
-0.014022
-0.0165567
-0.0203148
-0.0267394
-0.0350768
-0.0445494
-0.0538771
-0.0587155
-0.0587889
-0.0521241
-0.0436349
-0.0375052
-0.0268919
-0.0173273
-0.0131968
-0.00869617
-0.00717221
-0.00689561
-0.00739602
-0.00905082
-0.0121348
-0.0154273
-0.0174908
-0.0203602
-0.0293088
-0.0420926
-0.0540215
-0.0493983
-0.0445854
-0.036758
-0.029641
-0.0243532
-0.0569155
-0.0134252
-0.011791
-0.0101347
-0.00853819
-0.00790459
-0.00807062
-0.0102201
-0.0136238
-0.0170915
-0.0198987
-0.0202276
-0.0239449
-0.0366312
-0.0493
-0.0440512
-0.0410778
-0.0377509
-0.0352435
-0.0338827
-0.0101662
-0.0104494
-0.00838745
-0.00742265
-0.00813056
-0.00905189
-0.0110381
-0.0132595
-0.0169562
-0.020235
-0.0239884
-0.0235588
-0.0221986
-0.0293333
-0.0392167
-0.037254
-0.0372259
-0.0374328
-0.038257
-0.0395253
-0.0132538
-0.00834207
-0.00792909
-0.00781426
-0.00932305
-0.0110355
-0.0132977
-0.0177715
-0.0222523
-0.0238038
-0.0224685
-0.0214483
-0.0215456
-0.0237584
-0.0286401
-0.0331893
-0.0357806
-0.0379633
-0.0399156
-0.0412359
-0.00162917
-0.0065327
-0.00845539
-0.0089185
-0.0105368
-0.0127686
-0.0145096
-0.0185801
-0.0200248
-0.0208785
-0.0198762
-0.0202122
-0.0223749
-0.026098
-0.0304255
-0.03414
-0.0374648
-0.040387
-0.0428671
-0.0449181
-0.00132066
-0.00387397
-0.00684364
-0.00924499
-0.0107935
-0.0124259
-0.014994
-0.0171949
-0.0191655
-0.0209809
-0.0220507
-0.02437
-0.0266656
-0.0302987
-0.0344588
-0.0392351
-0.0445218
-0.051056
-0.0581149
-0.0653437
-0.00125664
-0.00562093
-0.00789111
-0.00969796
-0.012081
-0.0135475
-0.0155693
-0.0168613
-0.0187687
-0.0207241
-0.0233158
-0.0264719
-0.0302616
-0.0345008
-0.0393006
-0.0444338
-0.0501801
-0.0561551
-0.0623247
-0.0670037
-0.000861923
-0.00361664
-0.00629695
-0.00922339
-0.0136825
-0.0146093
-0.0162228
-0.0168925
-0.018562
-0.0206591
-0.0232227
-0.0259989
-0.029029
-0.03201
-0.0351297
-0.0378473
-0.0404851
-0.0424247
-0.0441387
-0.045319
-0.000701864
-0.00469472
-0.00792671
-0.0105776
-0.0183563
-0.0164812
-0.0158564
-0.0164988
-0.0187749
-0.0212791
-0.0238815
-0.0264786
-0.0291201
-0.0318965
-0.034751
-0.0376312
-0.040376
-0.0430193
-0.0458859
-0.0490689
-0.0024368
-0.00638904
-0.00587056
-0.00540215
-0.00713633
-0.00977799
-0.0132285
-0.0162056
-0.0193617
-0.0224888
-0.0255425
-0.0282512
-0.0307174
-0.0332524
-0.0362876
-0.0404922
-0.0458848
-0.0522272
-0.059186
-0.0662746
-0.00254126
-0.00368509
-0.00530271
-0.00520148
-0.0066993
-0.00909123
-0.0128501
-0.0172968
-0.0223216
-0.0271148
-0.0320438
-0.0364205
-0.0404797
-0.0429512
-0.0440116
-0.0452004
-0.0483727
-0.0539098
-0.0613668
-0.0703299
-0.00168044
-0.00301371
-0.00380595
-0.00481128
-0.00588697
-0.00701205
-0.00909094
-0.0130035
-0.0189212
-0.0267827
-0.0359651
-0.0455736
-0.054832
-0.0624067
-0.0664106
-0.0651325
-0.0624212
-0.0618485
-0.0643169
-0.0685375
-0.00467174
-0.00565819
-0.00613121
-0.00694276
-0.00795569
-0.00917032
-0.0119628
-0.0157357
-0.0188971
-0.0205479
-0.0214954
-0.0214916
-0.0217441
-0.0215354
-0.0215763
-0.0214461
-0.0213634
-0.0209709
-0.0203839
-0.0193935
-0.00443718
-0.00523927
-0.00660092
-0.00845507
-0.0104499
-0.0135138
-0.0160258
-0.0179986
-0.0193688
-0.0198615
-0.0202644
-0.0199492
-0.0196287
-0.0190981
-0.018418
-0.017454
-0.0163967
-0.0151277
-0.0138979
-0.0124589
-0.00901492
-0.00513176
-0.00536787
-0.00699223
-0.00917625
-0.0111915
-0.0129786
-0.0142992
-0.0155452
-0.016422
-0.017254
-0.0177152
-0.0179191
-0.0177206
-0.01718
-0.0163001
-0.0152143
-0.0139779
-0.0126891
-0.011628
-0.0122612
-0.0074159
-0.00545188
-0.00659105
-0.0085479
-0.0106638
-0.0125897
-0.0144246
-0.0163044
-0.0177994
-0.019295
-0.0200411
-0.0205715
-0.020386
-0.0200029
-0.0192542
-0.018391
-0.017406
-0.0164051
-0.0159033
-0.00259828
-0.0046147
-0.00500449
-0.00619265
-0.00795775
-0.0098632
-0.0123053
-0.0142864
-0.0168771
-0.018907
-0.0210923
-0.0225146
-0.0238486
-0.0246357
-0.0254473
-0.0258642
-0.0261603
-0.0261506
-0.0262191
-0.0266846
-0.00224075
-0.00404942
-0.00514533
-0.00653873
-0.00871031
-0.0112068
-0.014271
-0.0164813
-0.0195239
-0.0214252
-0.0233449
-0.0243464
-0.0250641
-0.0255689
-0.0262269
-0.027055
-0.0279441
-0.0279323
-0.0280351
-0.027647
-0.00380352
-0.00531977
-0.00436148
-0.00519994
-0.00765841
-0.0109815
-0.0148191
-0.0177864
-0.0209755
-0.023127
-0.0246353
-0.0251253
-0.0244539
-0.0237616
-0.0227635
-0.0220662
-0.0211585
-0.0189594
-0.0165727
-0.0148018
-0.0121581
-0.0129028
-0.00835803
-0.0064728
-0.00830776
-0.0110562
-0.012883
-0.0171741
-0.0193758
-0.0223649
-0.0246424
-0.0259257
-0.024925
-0.0227068
-0.0154979
-0.0142712
-0.0128303
-0.0106937
-0.00903475
-0.00840263
-0.00302955
-0.0120711
-0.0149037
-0.00893778
-0.00900295
-0.0102414
-0.0118152
-0.0140732
-0.016081
-0.0185622
-0.0226104
-0.0262825
-0.026135
-0.0223814
-0.0160193
-0.00984664
-0.00803761
-0.00617883
-0.00476818
-0.00387369
-0.00976138
-0.0137464
-0.0156522
-0.0107521
-0.00962112
-0.0103265
-0.0117001
-0.0138257
-0.0154397
-0.0170707
-0.0200581
-0.0250287
-0.0281451
-0.026692
-0.0215151
-0.0162065
-0.0138581
-0.0109806
-0.00804227
-0.00583488
-0.00624231
-0.0123652
-0.0096137
-0.00757012
-0.00948165
-0.0109805
-0.0122057
-0.013566
-0.0148597
-0.0163404
-0.018279
-0.0221715
-0.0271233
-0.0305993
-0.0312495
-0.0237392
-0.0220864
-0.0194393
-0.0161649
-0.0133705
-0.00666769
-0.00734906
-0.00747694
-0.0078985
-0.0102574
-0.0120857
-0.0133589
-0.0145791
-0.0153237
-0.0160023
-0.0172796
-0.019558
-0.0222404
-0.0247668
-0.02816
-0.0239314
-0.0226273
-0.0200976
-0.0169376
-0.0141371
-0.00270353
-0.00541112
-0.00707819
-0.00873672
-0.010958
-0.013434
-0.0141756
-0.0175027
-0.0188963
-0.020098
-0.0212537
-0.0219188
-0.0230428
-0.0246072
-0.0262971
-0.0272794
-0.0271302
-0.0265389
-0.0252369
-0.0243577
-0.000334518
-0.00149695
-0.00483598
-0.00884298
-0.01138
-0.0141557
-0.016402
-0.0197333
-0.0220917
-0.0249643
-0.026984
-0.0295662
-0.031536
-0.0340305
-0.036222
-0.0386171
-0.0404635
-0.0421584
-0.0429689
-0.0436249
-0.000348413
-0.00488794
-0.00762227
-0.0100729
-0.0129633
-0.0160171
-0.01812
-0.0211495
-0.0235552
-0.0263309
-0.0284444
-0.0303855
-0.0320653
-0.0331878
-0.0342935
-0.0345249
-0.0346849
-0.0338927
-0.0329757
-0.0317879
-0.000564184
-0.00333487
-0.00683579
-0.0100577
-0.0133425
-0.0165602
-0.0194075
-0.0226132
-0.025061
-0.0276233
-0.0290975
-0.0303338
-0.0304303
-0.0300645
-0.0288514
-0.0270753
-0.024913
-0.0225889
-0.0204803
-0.0190433
-0.00144989
-0.00313369
-0.00670555
-0.00990038
-0.0136222
-0.0165754
-0.0200339
-0.0238204
-0.027326
-0.0306328
-0.0334466
-0.0360629
-0.0378628
-0.0394202
-0.0398665
-0.0398869
-0.0387072
-0.0369921
-0.0345801
-0.0320734
-0.00192628
-0.00255934
-0.0041586
-0.0064582
-0.00962557
-0.0131734
-0.0166382
-0.0202737
-0.0242277
-0.0283857
-0.0327925
-0.0373398
-0.041918
-0.046447
-0.050713
-0.0543619
-0.0569889
-0.0582084
-0.0578716
-0.0560855
-0.00444901
-0.00272546
-0.00396029
-0.00546547
-0.00772447
-0.0106967
-0.0142683
-0.0175866
-0.0211559
-0.0242786
-0.0275722
-0.0308147
-0.0346622
-0.03902
-0.0440404
-0.049707
-0.0558366
-0.0621069
-0.0681288
-0.0732653
-0.00111949
-0.00261971
-0.00392529
-0.00440468
-0.00532377
-0.00729371
-0.0110285
-0.0159452
-0.0214611
-0.0264071
-0.0305534
-0.0329871
-0.0351162
-0.0360518
-0.0369203
-0.0379077
-0.0405973
-0.0452362
-0.0516739
-0.0596961
-0.0258562
-0.0285165
-0.0359971
-0.0179825
-0.0210586
-0.0223776
-0.0252698
-0.0312637
-0.0378725
-0.0397746
-0.0218853
-0.0232012
-0.0258439
-0.0257862
-0.039061
-0.0439721
-0.051897
-0.024445
-0.0277787
-0.0296939
-0.0293688
-0.0417288
-0.0526375
-0.0487957
-0.02832
-0.0277057
-0.0287484
-0.0265871
-0.100135
-0.102054
-0.0930316
-0.100232
-0.0780077
-0.090797
-0.081504
-0.0884254
-0.0902475
-0.0824896
-0.0678732
-0.0515741
-0.0768337
-0.0573681
-0.079219
-0.0802326
-0.0750533
-0.0486314
-0.041709
-0.0510508
-0.0395564
-0.0734154
-0.0738657
-0.0714152
-0.0406459
-0.0455232
-0.0387071
-0.0448586
-0.0706476
-0.070794
-0.069999
-0.04957
-0.0643615
-0.049191
-0.0640418
-0.0729732
-0.0705425
-0.0751308
-0.0683767
-0.0753394
-0.0686675
-0.0785095
-0.0746754
-0.0769247
-0.0793512
-0.0762585
-0.0748462
-0.0799736
-0.078388
-0.0743738
-0.0791445
-0.077885
-0.0724815
-0.0644626
-0.0757995
-0.0646987
-0.0967624
-0.11107
-0.0983796
-0.100059
-0.0854973
-0.10129
-0.0824806
-0.0819166
-0.0947594
-0.0879524
-0.0787209
-0.0547362
-0.0747458
-0.0581051
-0.0749147
-0.0866174
-0.083352
-0.0484881
-0.0386864
-0.055286
-0.0515188
-0.072026
-0.0823458
-0.0795887
-0.0382348
-0.0447203
-0.0521234
-0.0586309
-0.0702934
-0.0786744
-0.0753323
-0.0489847
-0.06376
-0.0615701
-0.0709108
-0.0756566
-0.0746865
-0.0783879
-0.068679
-0.0799103
-0.0746904
-0.0862607
-0.0810007
-0.0814012
-0.0875771
-0.0816939
-0.0800438
-0.0886541
-0.088062
-0.0794297
-0.0876625
-0.0851972
-0.0772265
-0.0654424
-0.0848404
-0.0703444
-0.0975213
-0.121168
-0.119227
-0.0986187
-0.0861301
-0.115984
-0.117463
-0.0910306
-0.117821
-0.111707
-0.0817487
-0.0701718
-0.116476
-0.111701
-0.0866472
-0.109611
-0.106132
-0.067485
-0.0638886
-0.110471
-0.111054
-0.0834003
-0.106267
-0.11169
-0.0648788
-0.0717901
-0.112756
-0.119183
-0.0795732
-0.113627
-0.111916
-0.0740159
-0.0797454
-0.12012
-0.116506
-0.0815016
-0.10979
-0.109327
-0.0821302
-0.0903656
-0.114506
-0.10801
-0.0912032
-0.111796
-0.113502
-0.0922279
-0.0915622
-0.104336
-0.0923147
-0.0877898
-0.111384
-0.101583
-0.0885412
-0.0736452
-0.0896458
-0.0801972
-0.12899
-0.148924
-0.144566
-0.131038
-0.127039
-0.147006
-0.141721
-0.12033
-0.143651
-0.147409
-0.125093
-0.119621
-0.139114
-0.140343
-0.117132
-0.150372
-0.154977
-0.118713
-0.120502
-0.143548
-0.149334
-0.124271
-0.156633
-0.165714
-0.122394
-0.12927
-0.151766
-0.163689
-0.124589
-0.171446
-0.183945
-0.130413
-0.127004
-0.168806
-0.172331
-0.126975
-0.187689
-0.193805
-0.124675
-0.111774
-0.169933
-0.148094
-0.12447
-0.19158
-0.17106
-0.104296
-0.0868546
-0.136408
-0.10141
-0.108081
-0.161173
-0.13476
-0.0840132
-0.0780876
-0.0923344
-0.0775128
-0.00668819
-0.0106538
-0.0121316
-0.00610304
-0.00626402
-0.00687361
-0.00731399
-0.00706033
-0.010358
-0.00918452
-0.00642572
-0.00757025
-0.00766496
-0.00992832
-0.0106207
-0.0100265
-0.0146295
-0.00829303
-0.0119195
-0.0111705
-0.016235
-0.0212693
-0.0168592
-0.0265305
-0.0135641
-0.0190584
-0.0183131
-0.0251972
-0.0370233
-0.0310575
-0.0464756
-0.0209549
-0.0265894
-0.027453
-0.0324358
-0.0488292
-0.0507203
-0.057017
-0.0284536
-0.0330288
-0.0334609
-0.0358754
-0.053935
-0.057672
-0.0568279
-0.0337896
-0.0350018
-0.0362759
-0.0351307
-0.0510712
-0.0554744
-0.0502575
-0.0366102
-0.047892
-0.0349567
-0.0411905
-0.0117553
-0.0115728
-0.0119259
-0.00884063
-0.00835425
-0.0105129
-0.0116342
-0.0104022
-0.0123646
-0.0153648
-0.00869372
-0.0113267
-0.0124449
-0.0164889
-0.0162171
-0.0169468
-0.0240359
-0.0127306
-0.0182732
-0.0185225
-0.026511
-0.0278826
-0.0272385
-0.0385963
-0.0205193
-0.0280485
-0.0296394
-0.0391085
-0.0489487
-0.0429406
-0.0587765
-0.0305507
-0.0357512
-0.0419313
-0.0475613
-0.0614548
-0.0646818
-0.0765186
-0.0364597
-0.0374191
-0.0479425
-0.0447082
-0.0588181
-0.07674
-0.0697174
-0.037485
-0.0355345
-0.0431805
-0.0382413
-0.0505199
-0.0657985
-0.0539579
-0.0349279
-0.0394208
-0.036375
-0.0350457
-0.0190936
-0.0317296
-0.0504305
-0.0143282
-0.0148617
-0.0207616
-0.0242825
-0.0209163
-0.054164
-0.0574442
-0.0155795
-0.0197532
-0.0255481
-0.0314535
-0.0306136
-0.0580317
-0.0665655
-0.0219994
-0.0310171
-0.0345099
-0.0461937
-0.0482084
-0.0728622
-0.0921623
-0.0344848
-0.0439396
-0.0503728
-0.0600267
-0.0661061
-0.0950501
-0.0981987
-0.0463786
-0.0509248
-0.0614676
-0.0598981
-0.0808855
-0.0984271
-0.0863175
-0.0511878
-0.0467193
-0.0569404
-0.0443426
-0.0728496
-0.0787058
-0.0648461
-0.0446632
-0.0392428
-0.0414242
-0.0369932
-0.056306
-0.0631085
-0.0577795
-0.0372692
-0.0342786
-0.0358556
-0.0326339
-0.0517171
-0.0396374
-0.0394703
-0.0232781
-0.025471
-0.0240888
-0.0253024
-0.0609103
-0.0365514
-0.0417257
-0.0267295
-0.0334335
-0.0278622
-0.0386558
-0.0734771
-0.0470154
-0.0689463
-0.0368727
-0.0496263
-0.0434392
-0.0573685
-0.10006
-0.0802139
-0.107973
-0.0541474
-0.0633872
-0.0628928
-0.0708975
-0.103801
-0.111817
-0.105789
-0.0638099
-0.0578228
-0.0695905
-0.0573952
-0.0797079
-0.0969877
-0.0708056
-0.0535389
-0.0409532
-0.052224
-0.041994
-0.059378
-0.0653221
-0.0564733
-0.0386721
-0.0354301
-0.0401491
-0.0372993
-0.0557315
-0.0550961
-0.0533264
-0.0346337
-0.0321868
-0.0367752
-0.0355238
-0.00608674
-0.00621003
-0.00689272
-0.00600377
-0.0069931
-0.00638373
-0.00764881
-0.0077807
-0.00735118
-0.00998748
-0.00761123
-0.0101292
-0.00842583
-0.0115782
-0.012213
-0.0112826
-0.0160219
-0.0111302
-0.0145031
-0.0127157
-0.0160546
-0.0185158
-0.0178016
-0.0232543
-0.0156478
-0.0185067
-0.0171603
-0.0203174
-0.0254642
-0.0249527
-0.0290324
-0.0192083
-0.0207695
-0.0211726
-0.0225544
-0.029801
-0.0301398
-0.0323043
-0.02136
-0.0251993
-0.0226499
-0.0233317
-0.0324932
-0.0322509
-0.0313245
-0.0275837
-0.0374682
-0.0244132
-0.032408
-0.0479565
-0.0322693
-0.0422074
-0.0415679
-0.0534201
-0.0363549
-0.0492944
-0.00779273
-0.00879429
-0.0106901
-0.0074273
-0.00858642
-0.00911458
-0.0117129
-0.0113752
-0.0116102
-0.0158896
-0.00942119
-0.0126348
-0.0128135
-0.0165438
-0.0179736
-0.0178945
-0.0252883
-0.013745
-0.0169281
-0.0177928
-0.0210142
-0.0231642
-0.0219004
-0.022246
-0.0194248
-0.024474
-0.020935
-0.0215833
-0.0285881
-0.0291828
-0.0308131
-0.0250555
-0.0323766
-0.0262772
-0.0273634
-0.0332419
-0.0393788
-0.037237
-0.0232262
-0.0232249
-0.0254539
-0.0237652
-0.0312268
-0.03633
-0.0322486
-0.0239066
-0.0307184
-0.0234739
-0.0265515
-0.0400757
-0.0311484
-0.0338111
-0.0344298
-0.0470993
-0.0290377
-0.0388787
-0.0131725
-0.0151695
-0.0197426
-0.0119592
-0.0138531
-0.0148858
-0.0187431
-0.0183126
-0.0213006
-0.0271895
-0.0148899
-0.0187178
-0.0202907
-0.025268
-0.0287498
-0.0299058
-0.0402084
-0.0199983
-0.0231403
-0.0266648
-0.0292573
-0.0364195
-0.0346412
-0.0360744
-0.0307069
-0.0394517
-0.0329471
-0.0339238
-0.0412492
-0.0413973
-0.0470972
-0.0381004
-0.0483251
-0.0383956
-0.0410763
-0.0382944
-0.0456768
-0.0363153
-0.0269626
-0.0242247
-0.0259315
-0.024131
-0.0328396
-0.034525
-0.0312398
-0.0236095
-0.025486
-0.0236657
-0.0237136
-0.032239
-0.0303089
-0.0289697
-0.0274947
-0.0359294
-0.0244174
-0.0284335
-0.0203747
-0.017192
-0.0207567
-0.015447
-0.0192922
-0.0162209
-0.0206417
-0.0287487
-0.0229337
-0.0299684
-0.0209994
-0.0262871
-0.0230141
-0.0277865
-0.0425849
-0.0329383
-0.0425005
-0.0276674
-0.0298972
-0.0289606
-0.030291
-0.0527378
-0.0459082
-0.0470666
-0.0300902
-0.0285437
-0.0301199
-0.0277441
-0.0453897
-0.0449214
-0.0358511
-0.0275799
-0.0252111
-0.0264479
-0.0237482
-0.0337347
-0.0331318
-0.0307299
-0.0247102
-0.0236752
-0.0235136
-0.024187
-0.0303568
-0.0309794
-0.0320532
-0.0234505
-0.0236365
-0.0246204
-0.0262953
-0.0285102
-0.0322686
-0.0324078
-0.024143
-0.0271177
-0.0271166
-0.0303267
-0.00844135
-0.00744845
-0.00885978
-0.00815044
-0.0102251
-0.00811459
-0.0102376
-0.0113255
-0.00960956