/*--------------------------------*- C++ -*----------------------------------*\
  =========                 |
  \\      /  F ield         | OpenFOAM: The Open Source CFD Toolbox
   \\    /   O peration     | Website:  https://openfoam.org
    \\  /    A nd           | Version:  10
     \\/     M anipulation  |
\*---------------------------------------------------------------------------*/
FoamFile
{
    format      ascii;
    class       volVectorField;
    location    "2.5";
    object      U_0;
}
// * * * * * * * * * * * * * * * * * * * * * * * * * * * * * * * * * * * * * //

dimensions      [0 1 -1 0 0 0 0];

internalField   nonuniform List<vector> 
12920
(
(98.1851 25.8892 -151.83)
(47.5566 -5.17082 -30.4025)
(149.641 -16.052 -11.898)
(131.156 -18.0348 -1.49975)
(155.852 -18.8467 1.7271)
(145.349 -22.5386 1.65144)
(156.455 -16.444 0.870643)
(150.096 -9.45127 -0.255454)
(152.709 9.9306 -1.92517)
(141.393 15.5213 -2.46531)
(141.296 15.2997 -1.67238)
(135.23 9.91416 -1.20765)
(138.953 1.65198 0.425172)
(139.321 -4.60114 2.04239)
(143.214 -6.18525 2.71922)
(144.42 -5.36899 2.49041)
(146.208 -2.17014 1.35912)
(142.954 -0.744462 0.881854)
(136.374 6.7741 0.760389)
(121.376 7.58459 0.0548014)
(190.351 143.64 36.1397)
(29.8664 30.9427 16.7885)
(114.755 11.2039 7.13879)
(37.1533 -3.90845 3.94834)
(94.1978 4.12694 0.3564)
(65.7918 2.96693 -1.57017)
(94.4455 12.0586 -2.51335)
(85.5216 11.7201 -2.65071)
(101.155 10.0332 0.179679)
(96.7853 3.52952 1.65392)
(103.286 -3.01165 2.64488)
(99.7976 -8.71174 2.33734)
(102.983 -11.5282 1.39516)
(100.758 -12.5684 0.562335)
(102.179 -11.7496 0.0725766)
(100.203 -9.48831 -0.386976)
(101.848 -2.39684 -0.564031)
(98.4537 3.55653 -0.713819)
(97.4491 6.97779 0.296687)
(95.5679 5.96573 0.705021)
(183.565 35.3984 36.3689)
(38.401 -22.8473 5.30964)
(120.823 -4.25411 -7.7609)
(58.0879 -22.1355 -5.875)
(97.8223 -21.6863 -1.4606)
(57.812 -14.6048 0.234632)
(82.7061 -12.3265 1.86764)
(68.0789 -3.32816 2.02472)
(83.9594 -1.42002 2.58989)
(78.097 0.393825 2.10571)
(86.0983 -1.80006 1.69814)
(82.5505 -2.90345 0.893358)
(86.0478 -4.76098 0.441511)
(83.6615 -4.8475 -0.0991661)
(84.9156 -3.10921 -0.696355)
(81.3061 -0.949922 -1.18964)
(80.5266 3.27824 -0.600389)
(77.3374 5.36535 0.0998451)
(76.6144 7.12315 0.483054)
(77.1708 6.2983 0.407306)
(85.6015 -36.6183 145.97)
(-48.9412 40.8136 -10.3145)
(115.881 50.0622 -6.10213)
(50.074 23.3459 -3.97089)
(97.7819 16.6488 0.96951)
(50.0183 3.49997 0.775231)
(76.0483 -4.94105 1.56574)
(53.1919 -7.29115 1.17826)
(70.9144 -12.6961 1.32951)
(63.9377 -12.695 1.38034)
(74.5768 -15.0016 1.44296)
(72.7173 -13.9226 1.29224)
(78.4618 -13.1117 1.37669)
(77.0149 -10.3875 1.08552)
(79.7243 -4.10913 0.979641)
(74.4184 0.801895 0.744042)
(71.5864 4.6978 0.588428)
(66.566 5.35727 0.518435)
(64.9426 5.08754 0.462889)
(66.8797 4.44173 0.378184)
(195.772 -32.8515 -52.6954)
(-25.2532 -10.5249 16.961)
(118.894 -4.94268 1.42346)
(24.1502 -5.3958 3.21845)
(93.7849 -14.0076 1.66263)
(41.0016 -5.31469 1.12798)
(76.9616 -18.6433 0.552544)
(54.5856 -8.03025 0.299639)
(71.4818 -18.6645 0.372118)
(62.7716 -13.5118 0.179618)
(72.018 -18.8755 0.236789)
(69.5477 -15.8643 -0.0393271)
(76.1776 -16.582 0.0220754)
(76.1347 -12.5943 -0.27803)
(81.7705 -5.00442 0.0214944)
(76.521 3.42756 0.60804)
(72.4454 7.91819 0.883292)
(66.5146 7.92422 0.459841)
(65.0878 5.08299 0.423541)
(66.5051 3.48875 0.267941)
(193.627 -128.2 -153.626)
(-33.7923 -26.2279 -8.77417)
(121.407 0.496623 -13.1148)
(59.6264 9.03329 -3.44317)
(101.791 -2.41757 0.0168185)
(54.7854 1.62864 0.16642)
(78.5722 -16.893 0.0248317)
(57.3667 -10.527 -0.536427)
(65.1293 -19.5382 -0.597929)
(58.1055 -17.0189 -0.487362)
(64.4539 -21.331 -0.522896)
(63.5693 -19.1293 -0.508585)
(69.0844 -19.1542 -0.727436)
(69.7468 -14.6245 -0.94736)
(74.7485 -4.27222 -0.57833)
(71.8619 6.90656 -0.0137722)
(70.285 10.1292 0.341419)
(68.5983 8.79591 0.633746)
(65.3478 3.32379 1.52597)
(59.1118 2.68454 1.04424)
(240.639 -295.269 -52.5364)
(228.209 -109.371 -28.9294)
(194.922 12.5309 23.0868)
(86.6374 11.0131 9.57986)
(117.149 17.2213 1.72066)
(70.2616 14.167 -1.80443)
(77.6092 -14.9556 -1.73201)
(52.8897 6.92225 -1.31595)
(60.5624 -16.3255 -1.16267)
(53.5769 -10.8393 -0.624797)
(63.1072 -22.217 -0.415874)
(62.2367 -18.155 -0.215538)
(68.2165 -19.1161 -0.519155)
(67.4864 -13.4295 -1.50203)
(72.3724 -4.36266 -1.00964)
(71.1851 7.51498 0.136365)
(70.3137 9.19056 0.748825)
(65.9266 7.30502 1.74829)
(54.0996 6.34716 2.06888)
(44.73 4.69776 1.03846)
(209.136 -168.152 -95.6346)
(-110.934 -7.61708 -2.68672)
(119.47 -10.5056 -6.18968)
(-15.0772 5.54901 1.0221)
(85.3122 11.471 -1.1763)
(46.9821 41.0881 -1.99263)
(68.0452 27.0352 -1.15939)
(37.024 3.17746 -1.00405)
(56.032 5.26267 -1.07772)
(56.9189 -18.4938 -0.44432)
(67.6473 -19.9984 -0.215727)
(69.0367 -25.2113 0.759967)
(73.6282 -20.6219 1.10834)
(71.5293 -16.6977 1.08423)
(67.1325 -3.0416 -1.07735)
(69.1427 7.0025 -0.0754037)
(66.6858 10.4747 1.08626)
(56.1993 11.8869 1.52589)
(45.5297 11.9592 0.662542)
(43.2301 7.03894 -0.121353)
(489.977 -41.6338 -219.289)
(162.964 -54.8694 2.01694)
(185.624 -15.192 22.2797)
(35.1655 2.92742 6.42178)
(91.3155 -8.15672 -0.0112929)
(45.3078 18.8158 -1.032)
(70.1817 41.5349 0.224557)
(64.3396 11.4682 -0.905734)
(80.0307 -0.248652 -0.79514)
(80.1061 -12.988 -0.450222)
(78.5014 -15.5777 -0.488395)
(76.5636 -27.8305 0.287157)
(79.0951 -26.2252 0.637195)
(77.4447 -14.6407 0.614627)
(69.6643 -1.34218 0.267321)
(65.0616 8.66013 -0.420924)
(61.8615 14.8195 0.826469)
(51.4038 17.3626 1.16198)
(45.458 16.4598 -0.0088744)
(44.8071 10.4551 -1.00523)
(408.52 -39.6145 114.574)
(40.525 -21.0292 42.8748)
(124.371 49.6061 24.2706)
(30.6583 40.8974 1.73765)
(77.5443 31.7547 0.505712)
(44.0171 26.6819 -0.995804)
(64.9924 15.1813 0.217181)
(72.5292 2.91123 -0.288392)
(71.5425 -2.22225 -0.249437)
(79.2328 -10.5914 -0.412977)
(89.5351 -15.7499 -0.0544893)
(83.0684 -23.0189 -0.294678)
(77.4935 -29.7418 -0.0734537)
(71.8568 -10.9394 -0.127593)
(66.5497 2.28079 -0.516861)
(62.2152 11.8581 -0.841611)
(59.6131 19.2573 0.0917479)
(54.1254 21.4562 0.286282)
(51.4655 21.3393 -0.663749)
(53.5824 16.593 -0.924707)
(-6.04108 -151.283 11.7866)
(-95.704 -18.5048 -17.8175)
(107.281 -1.75027 0.85879)
(18.9679 2.29126 2.41278)
(78.3904 8.2506 3.21732)
(26.4159 8.52181 -1.15053)
(52.422 12.3015 0.00266427)
(73.4668 6.50957 -0.381537)
(90.474 -4.99918 -0.509574)
(96.82 -11.231 -0.508849)
(101.659 -17.0194 -0.502843)
(104.741 -11.6674 0.125598)
(87.6237 -20.8943 1.0311)
(69.0736 -4.41954 0.0640185)
(66.4282 7.88525 -0.627003)
(61.6659 16.3923 -0.782691)
(59.971 23.007 -0.271247)
(58.9788 24.3867 -0.331641)
(58.0235 23.2678 -0.982241)
(65.7497 16.2873 -0.440524)
(-140.167 -77.4023 12.7068)
(-173.591 -45.6417 -24.2905)
(69.9785 -12.4214 -8.07386)
(-12.1474 5.63195 -1.6915)
(64.5019 22.4938 1.29817)
(41.4071 5.43278 -0.758101)
(73.0172 -16.3865 -0.104357)
(80.6478 -11.5188 0.0537647)
(79.3274 -10.4892 0.403423)
(82.0676 -14.4461 0.552125)
(71.0753 -26.4829 0.799376)
(59.3364 -11.3716 0.254502)
(52.2509 -6.97716 0.0176441)
(56.4997 -1.80432 -0.526542)
(61.9102 10.5624 -0.997598)
(63.2829 18.5673 -0.744086)
(64.9222 24.1592 -0.420432)
(68.3853 25.2376 -0.300508)
(69.5838 22.9786 -0.107827)
(76.2677 13.3929 0.334487)
(-97.5703 -67.0633 -6.32158)
(-161.904 -57.0854 -42.6603)
(118.535 -35.3353 -10.7031)
(-28.5721 -1.12016 1.98961)
(91.5542 -5.26404 0.175746)
(33.002 -29.6287 1.44012)
(54.8351 -12.6797 0.29865)
(41.989 -10.0885 -0.244071)
(61.7562 -17.5207 -0.862392)
(57.2254 -12.6392 0.0540963)
(52.2992 -11.3291 0.355194)
(39.5193 -7.90845 0.448356)
(40.9322 -6.7151 -0.0817453)
(42.2605 0.230432 -0.471848)
(49.1327 9.83909 -0.528462)
(58.5536 14.9728 -0.281402)
(65.2679 20.6099 0.235516)
(69.7361 20.5211 0.574059)
(71.746 17.5122 1.33584)
(74.2769 9.93216 1.04791)
(-52.861 -10.6667 -67.1654)
(-129.076 -50.7772 -34.3193)
(86.5697 -37.0293 -17.6796)
(11.4887 -14.957 -2.9119)
(84.1074 -26.2102 -0.475866)
(48.9506 -23.2569 -0.354631)
(72.4033 -3.28286 0.222196)
(57.348 -21.6867 0.242149)
(61.7208 -8.2503 0.367996)
(51.1635 -13.6987 0.732391)
(51.2628 -4.19632 0.7444)
(43.9987 -7.08557 0.753024)
(43.6421 -1.59869 0.569347)
(40.485 -3.1752 0.511979)
(42.508 0.22039 0.614747)
(46.4628 3.77241 0.429654)
(53.9512 10.9365 0.661572)
(59.0268 13.01 1.02352)
(60.988 12.1044 1.48159)
(65.1648 7.19489 1.27527)
(183.179 45.5297 -23.9585)
(104.437 -13.6751 -6.99107)
(158.807 20.6725 1.89247)
(59.2182 8.30321 -3.69479)
(88.2949 -5.08911 -2.74599)
(40.5024 -19.2562 -0.574066)
(71.0025 -17.3677 1.10483)
(51.4998 -17.1596 -0.0489472)
(57.7561 -10.8239 -0.295112)
(45.8156 -10.0118 -0.151969)
(46.4894 -5.89808 0.129061)
(40.3734 -6.06729 0.139388)
(40.9043 -3.91516 0.265514)
(39.0097 -3.53899 0.302054)
(39.9633 -0.873199 0.284897)
(41.0989 -0.0869244 0.515636)
(44.3897 3.20389 0.68693)
(50.0013 5.22524 0.696013)
(53.5084 3.8548 1.02016)
(58.6596 0.173636 0.873305)
(-37.1287 99.9869 161.467)
(-91.3065 47.4114 -54.9604)
(137.696 66.87 -20.5845)
(68.1446 43.9598 -18.3058)
(129.282 7.47982 -9.41138)
(91.8423 -20.4233 -2.26509)
(87.826 -19.0619 4.05939)
(55.1539 -12.8887 1.87643)
(57.4588 -1.24679 0.772779)
(43.6346 -3.14299 0.0919566)
(47.2412 0.887247 0.0418531)
(41.6789 -2.68361 -0.119839)
(44.9969 -1.66341 -0.000508592)
(43.318 -3.88877 -0.106459)
(46.2329 -3.61542 0.0847017)
(46.9274 -4.02004 0.076925)
(49.016 -2.62055 0.117772)
(50.4454 -2.01529 0.0850895)
(51.8113 -0.746867 0.0656467)
(54.2085 -0.793993 -0.365888)
(46.6443 36.0003 -3.83251)
(27.1272 83.9636 -21.5004)
(159.021 75.5143 -11.0485)
(153.965 71.3524 -16.4843)
(201.993 41.7298 0.658106)
(134.905 16.3758 9.69783)
(91.1768 3.03829 11.3656)
(38.3716 -1.5977 2.52896)
(47.4222 -0.532233 -0.086265)
(33.6695 -2.72745 -0.5067)
(41.5044 -2.98087 -0.75942)
(37.3062 -4.3387 -0.915967)
(42.3132 -4.39715 -0.867811)
(41.7466 -4.81376 -0.661531)
(45.3228 -4.57133 -0.423811)
(46.1221 -3.38231 -0.241748)
(49.2675 -0.834879 -0.13811)
(49.8566 0.514129 0.05333)
(50.1266 1.70363 -0.174755)
(52.8349 2.55859 -0.580619)
(55.1647 -85.5954 -41.385)
(44.0724 14.5071 -14.4857)
(152.692 31.0544 -1.56946)
(116.626 23.4128 3.76221)
(136.21 21.486 10.2479)
(78.6012 18.8503 5.83122)
(78.4673 19.3435 2.84123)
(52.8333 10.7387 0.369766)
(59.0362 7.65469 0.193033)
(49.2103 5.08525 -0.500266)
(54.0828 3.8064 -0.750639)
(50.3818 1.36628 -1.03893)
(53.9251 -0.264973 -1.09131)
(53.2187 -2.96204 -1.10671)
(57.1558 -5.07472 -1.06462)
(59.3276 -6.42565 -1.20322)
(64.074 -5.16836 -0.982091)
(65.8314 -3.59364 -0.414059)
(65.9254 -0.0729258 0.209383)
(66.1362 2.77554 0.142502)
(86.2614 -152.08 -129.063)
(-2.94358 -73.3243 -25.1825)
(119.439 -13.107 -1.50031)
(38.797 22.8118 2.47124)
(86.3272 39.0552 4.5895)
(46.9554 31.3198 1.41446)
(75.1611 19.6312 1.40412)
(61.6752 10.9866 0.547995)
(71.27 5.27775 0.93878)
(61.9203 4.13391 0.824587)
(63.4752 2.70692 0.405609)
(56.266 2.16813 -0.294682)
(56.6662 0.107684 -0.8446)
(52.5952 -2.04015 -1.45672)
(54.775 -4.41614 -1.74364)
(56.9824 -4.39565 -1.83734)
(61.4651 -2.33487 -1.71602)
(63.5398 -0.459715 -1.45193)
(65.0384 2.65924 -0.749944)
(69.389 4.60494 -0.13189)
(-76.4329 48.3489 -63.2991)
(-130.351 51.1979 -19.0455)
(85.6871 19.3056 -12.5363)
(16.4132 14.644 0.815497)
(93.3185 10.7282 3.10504)
(79.0964 10.2388 2.0047)
(109.058 5.36705 0.148295)
(109.311 5.22172 -1.56873)
(122.072 5.39216 -1.30424)
(122.269 8.0795 -0.631779)
(127.22 10.9587 0.854803)
(125.615 12.5804 1.62716)
(126.329 12.8881 1.80382)
(124.84 11.6571 1.80783)
(122.306 4.73068 2.26782)
(109.279 -0.824085 2.16663)
(100.795 -1.29355 1.80957)
(92.4008 -0.498892 1.4416)
(87.7787 0.551486 1.38972)
(87.3928 1.7936 1.28581)
(329.236 -8.88588 179.052)
(102.077 4.51118 12.5562)
(146.194 -17.384 -13.3457)
(113.847 -24 -1.94795)
(142.461 -19.1865 1.93051)
(134.079 -15.5159 2.04933)
(144.538 -4.69258 0.722228)
(134.43 2.51669 -0.963879)
(133.44 8.83061 -1.60799)
(122.302 6.81194 -1.67565)
(122.705 4.38608 -0.0571945)
(119.056 -0.936684 0.956018)
(123.315 -3.42284 2.24627)
(126.88 -5.21139 2.78566)
(134.902 -3.31355 2.69242)
(136.888 -0.548529 2.09741)
(136.045 2.55526 1.11748)
(127.608 4.52211 1.59585)
(119.517 6.14352 2.87129)
(109.651 3.54772 1.293)
(101.515 89.7124 92.5159)
(4.66896 31.8787 14.9435)
(92.8008 16.1324 7.14555)
(16.4253 0.200684 1.739)
(83.1974 8.03838 -4.04644)
(48.4753 3.39717 -4.60888)
(82.4303 8.98706 -5.01976)
(67.4725 5.523 -4.1651)
(83.8569 3.16685 0.522408)
(77.7155 -1.50435 2.13606)
(86.6099 -4.40408 3.38699)
(83.7321 -5.68916 2.19597)
(87.6088 -5.55972 1.00387)
(85.3524 -4.51144 -0.524084)
(87.2898 -2.50952 -0.970248)
(85.7128 0.740069 -1.39794)
(86.5704 4.35693 -0.900838)
(83.6884 5.42378 -0.290175)
(82.1245 6.0621 1.32369)
(81.0597 4.46191 1.25862)
(100.467 51.7623 129.774)
(-5.39496 -14.1842 3.79027)
(103.373 5.68526 -10.3766)
(30.5549 -15.3433 -7.20259)
(83.6857 -14.261 -1.83041)
(40.7749 -8.74019 0.19653)
(72.899 -8.03927 2.67317)
(55.9485 -0.32132 2.71004)
(73.5347 -0.0735879 3.65439)
(65.6152 2.08085 2.66269)
(73.8049 0.286084 2.20394)
(68.5798 0.100194 0.803611)
(71.6426 -1.06529 0.225569)
(67.9995 -0.668021 -0.594107)
(68.4941 0.562927 -1.16474)
(64.7302 2.36437 -1.39599)
(64.7595 4.49279 -0.487724)
(63.2346 5.42608 0.378396)
(63.3494 6.28731 0.823224)
(64.9083 5.12117 0.622577)
(106.572 -117.487 -81.7515)
(-87.5527 43.9495 -38.8209)
(101.726 35.0079 -4.41462)
(16.0892 6.98914 -4.95061)
(80.5734 7.83857 2.33479)
(30.7848 2.29221 0.910047)
(65.8496 -1.90759 2.14155)
(41.7905 -1.27862 1.64425)
(62.1923 -5.02191 2.17746)
(53.4324 -3.91549 1.98186)
(64.5031 -5.40737 2.16046)
(61.0332 -3.66229 1.70634)
(65.9346 -2.84008 1.71302)
(62.7746 -0.47305 1.17453)
(63.3679 2.50555 0.940996)
(59.4157 3.9388 0.753139)
(58.0118 5.17786 0.802166)
(55.6401 5.10643 0.772623)
(55.2002 4.80414 0.740678)
(58.0452 4.08502 0.628356)
(-2.05219 -27.6945 48.6599)
(-78.9407 12.551 9.62534)
(86.8771 -16.0552 -5.23955)
(-1.03699 -8.97117 2.69567)
(81.6339 -12.6278 0.346064)
(25.4596 -0.723804 1.31598)
(66.1521 -13.093 0.790551)
(40.8535 0.0175065 0.536595)
(60.6103 -10.1787 0.825139)
(50.843 -2.79018 0.454496)
(61.3113 -7.08376 0.693527)
(57.7876 -2.49044 0.123888)
(63.7214 -2.18824 0.291011)
(61.4152 1.91876 -0.479781)
(62.6282 5.16751 0.126556)
(58.4468 8.03493 0.659931)
(57.0675 8.31572 1.07983)
(54.66 7.02672 0.745052)
(54.7297 4.65002 0.833372)
(57.5109 3.43237 0.587212)
(97.2627 -89.3461 -31.3102)
(12.0999 -10.7816 30.2329)
(115.697 -7.20825 -8.73673)
(39.6836 -7.04495 -3.71662)
(83.4853 -8.64698 -0.35323)
(32.4816 5.13595 -0.207883)
(63.873 -12.3458 0.0332574)
(40.8563 -2.10411 -0.870822)
(52.03 -11.9153 -0.543189)
(44.6142 -7.21928 -0.494587)
(52.2405 -10.7057 -0.536261)
(50.8907 -6.80668 -0.519551)
(56.539 -5.25695 -0.716192)
(56.0198 0.893471 -1.13067)
(58.0503 6.2693 -0.539817)
(55.4744 10.0417 0.0936407)
(55.6927 9.62988 0.514232)
(54.6729 6.29896 1.27229)
(54.362 2.55259 2.32746)
(53.7415 2.51351 1.76776)
(109.383 -134.907 -70.623)
(-10.9122 -17.2687 28.4024)
(113.174 17.7838 34.0132)
(43.9827 5.27884 8.71288)
(98.7257 15.7825 0.926884)
(45.4557 16.0123 -2.19739)
(58.3333 -14.8295 -1.97683)
(33.1338 11.9091 -1.23361)
(45.5026 -13.8364 -1.6017)
(38.9245 -3.8353 -0.384332)
(49.7071 -14.0592 -0.400162)
(48.421 -7.30525 -0.299326)
(54.7715 -7.51888 -1.01284)
(53.8089 0.0878468 -1.87778)
(56.323 5.3416 -1.03504)
(54.918 10.4404 0.535464)
(55.5272 9.27702 1.35377)
(52.6404 6.52245 3.21625)
(47.2285 6.24093 3.54339)
(42.7443 4.84288 1.74597)
(111.082 6.48986 58.2884)
(-81.7036 -37.2141 8.03471)
(94.8351 -32.9482 -5.26509)
(-21.8621 -9.41365 1.3169)
(73.0822 3.48352 -2.21877)
(31.796 35.4425 -1.77454)
(53.5501 16.5448 -1.23648)
(31.6799 3.68842 -2.92071)
(45.7205 -2.3539 -2.58604)
(43.7143 -14.3221 -1.81568)
(53.3415 -14.2971 -1.0489)
(53.7012 -14.9291 0.386182)
(57.928 -8.67312 0.536141)
(56.9791 -3.8155 -0.696743)
(52.6266 5.25525 -2.23253)
(53.2412 10.6553 -0.0991813)
(51.598 11.1018 1.91849)
(45.6656 11.6669 2.65477)
(39.625 11.8961 1.02185)
(38.3897 7.77262 -0.434769)
(235.976 -190.02 290.977)
(-21.4701 -37.8502 57.5092)
(133.13 -1.42205 29.5144)
(33.2684 -1.49267 7.18787)
(79.1178 -6.90793 -0.290125)
(43.333 17.9756 0.201251)
(58.359 28.2999 -0.398908)
(54.1196 2.63577 -2.06525)
(61.6538 -5.9418 -2.24952)
(60.4397 -14.0272 -2.15049)
(61.2684 -16.6628 -1.37775)
(61.3968 -18.5127 -0.0499945)
(62.7166 -11.3499 0.554379)
(59.8196 -2.46638 -0.268583)
(55.9862 6.66797 -1.38959)
(48.8013 12.2739 -0.825458)
(46.334 15.9978 1.26335)
(41.7879 16.9352 1.35909)
(39.3883 15.3244 -0.569612)
(39.0913 8.92117 -1.70656)
(132.059 -289.497 52.717)
(-124.624 -33.4634 17.2558)
(108.728 50.8179 17.543)
(11.1062 35.239 1.19039)
(60.6753 24.1945 2.23859)
(40.8893 22.3728 -0.649392)
(61.4914 14.1513 1.28572)
(64.4862 0.0093929 0.370457)
(64.4055 -8.18459 -1.49673)
(67.5855 -14.7537 -2.23664)
(69.299 -17.4001 -0.885159)
(65.0547 -21.529 -0.341111)
(62.8336 -13.9986 0.43778)
(58.8085 -1.38256 -0.319551)
(53.891 8.03798 -1.24833)
(47.2269 15.1148 -1.42848)
(45.4106 18.8235 -0.0991401)
(43.9896 19.1113 -0.138348)
(43.8254 17.8422 -1.28023)
(46.9284 11.4043 -1.35091)
(57.4771 -66.9848 11.7895)
(-86.5361 4.91549 -44.6082)
(88.5715 2.85085 -5.83413)
(-6.11083 4.8521 1.35445)
(64.7967 6.04753 2.04271)
(24.2262 2.03382 0.292481)
(48.3481 2.90217 1.22522)
(64.7897 -2.723 -0.516722)
(72.2899 -10.4732 -1.43951)
(74.5857 -16.3082 -1.75815)
(77.2453 -17.9502 -0.825203)
(75.0761 -16.4564 1.08825)
(64.4351 -9.20081 2.67694)
(60.0631 3.68238 -0.299135)
(54.7168 11.8064 -1.25991)
(48.7177 17.3058 -1.28323)
(48.4976 19.6242 -0.573776)
(49.3831 18.8259 -0.734408)
(50.8433 15.2116 -1.65489)
(58.4467 8.28209 -0.49995)
(-100.453 -27.3642 23.7849)
(-169.32 -37.699 -52.5586)
(49.0924 -11.0197 -16.8229)
(-34.2415 6.36554 -4.4647)
(49.8924 14.4071 0.406074)
(30.4171 -2.164 -1.85079)
(62.109 -18.4593 2.27553)
(65.9832 -10.4494 1.63853)
(63.4534 -11.1125 1.2486)
(62.4901 -16.0023 1.46109)
(57.7301 -17.4384 1.11234)
(49.822 -7.9642 0.568613)
(48.6683 -2.03627 -0.939597)
(51.2406 5.51111 -2.02618)
(53.882 14.0605 -2.01688)
(52.6107 16.7864 -1.36616)
(54.9509 18.5292 -0.646122)
(57.6303 16.9396 -0.349161)
(59.8319 11.3257 0.0210892)
(65.0475 5.93918 0.510079)
(104.329 -73.6188 -39.4514)
(-115.959 -52.5351 -69.4367)
(93.6302 -42.1916 -36.2592)
(-37.0153 -3.19299 1.15589)
(81.343 -9.38287 -3.53912)
(18.503 -29.7581 3.18864)
(43.0431 -8.89462 2.76136)
(30.1135 -7.53428 0.149181)
(45.3784 -13.4042 -0.679648)
(36.5014 -9.83732 1.16969)
(38.1563 -9.2836 1.39122)
(32.5347 -5.16608 0.74662)
(36.5858 -2.90796 -0.389014)
(38.1084 2.83169 -1.29017)
(42.4463 9.41343 -0.867615)
(49.3709 11.5343 -0.243398)
(54.6934 14.5828 0.62883)
(58.4325 12.4175 1.32993)
(60.114 9.19151 2.0787)
(63.0157 5.40065 1.44591)
(72.5418 64.7661 34.0407)
(-65.7211 -13.3117 -49.9999)
(73.2065 -15.6794 -39.6971)
(-6.23331 -8.28252 -6.96178)
(71.246 -23.0231 -1.46006)
(27.6459 -20.196 -0.30537)
(54.8407 2.97732 1.09224)
(36.3616 -18.8189 1.00231)
(43.5372 -2.50392 1.03523)
(33.0018 -10.997 1.46506)
(36.1605 -0.951019 1.17394)
(30.6959 -5.6384 1.127)
(33.2515 0.102472 0.71013)
(32.0859 -2.03059 0.755711)
(35.9208 2.10817 0.95727)
(39.5261 3.69902 0.758994)
(45.5945 8.22344 1.19114)
(49.651 8.73496 1.81818)
(51.4909 7.81205 2.31966)
(56.6853 4.96105 1.94601)
(174.181 111.4 -183.537)
(23.2884 -21.9659 -59.2326)
(136.47 14.6839 -13.4603)
(40.0713 5.3776 -3.6341)
(72.9817 -6.31506 -0.264787)
(13.6946 -17.3939 -0.437725)
(54.5557 -11.0706 2.91554)
(31.0941 -13.1939 -0.0468524)
(41.7625 -5.77604 -0.0127891)
(29.7941 -7.11666 -0.0487264)
(33.7991 -3.02379 0.400103)
(28.9184 -4.48374 0.192579)
(31.311 -2.09907 0.432139)
(30.4085 -2.21017 0.470501)
(32.2957 0.395097 0.485034)
(34.0655 0.499088 0.695843)
(37.8565 3.16512 1.05566)
(42.4911 3.83533 1.19943)
(45.2257 2.89172 1.51331)
(51.2081 1.46965 1.28222)
(389.952 150.785 -294.264)
(-35.4582 13.3195 -57.2136)
(141.515 24.9114 -37.2389)
(42.854 22.2894 -18.3129)
(88.8082 0.561398 -4.52603)
(39.8136 -18.0616 -0.135259)
(58.9031 -12.9457 6.0668)
(33.794 -11.0529 2.05323)
(43.3052 -0.895717 1.25017)
(30.4868 -4.47171 0.0609103)
(36.6284 0.11513 0.209771)
(31.0617 -3.33666 -0.097991)
(35.2943 -1.34819 0.140571)
(33.421 -3.14499 -0.0157591)
(36.8093 -2.11974 0.356082)
(37.3596 -2.35879 0.209835)
(39.6094 -0.901683 0.260042)
(40.953 -0.525275 0.204107)
(42.1031 0.59279 0.140424)
(45.1999 0.770576 -0.490192)
(153.05 -35.7703 -20.6249)
(25.1295 23.705 -27.0065)
(127.412 17.7691 -18.3062)
(52.8535 10.1076 -12.1142)
(105.432 5.66783 10.1014)
(48.0718 -1.74876 13.5284)
(60.5067 0.612034 15.365)
(29.4725 -1.03417 3.72605)
(40.7861 0.0719857 0.4379)
(27.2933 -2.48034 -0.770092)
(35.2616 -2.63909 -0.991919)
(29.8945 -4.03818 -1.26605)
(34.5427 -3.89363 -1.09949)
(32.9788 -4.05639 -0.915611)
(36.2548 -3.44469 -0.490362)
(36.8162 -2.35313 -0.298366)
(39.8452 -0.628183 -0.153576)
(40.6689 0.152381 -0.0338795)
(41.0311 0.82542 -0.333873)
(43.8122 0.92267 -0.862432)
(207.212 7.17129 149.142)
(68.2126 12.2851 30.9143)
(131.848 10.2296 36.2149)
(54.6607 1.08035 10.6182)
(95.1714 10.112 16.0319)
(47.815 11.9332 6.12446)
(63.6866 12.7336 4.4062)
(40.7555 5.80116 0.346601)
(50.2998 3.37819 0.327988)
(40.5409 0.667878 -1.01505)
(46.261 -0.323793 -1.32416)
(41.9631 -1.9474 -1.76207)
(45.5781 -2.83887 -1.65309)
(44.3881 -3.99568 -1.62614)
(47.4849 -5.0594 -1.42834)
(48.2449 -5.43416 -1.3509)
(51.1103 -3.93714 -0.915723)
(51.4537 -1.76317 -0.299872)
(51.9236 0.554443 0.26221)
(54.4618 1.22091 0.103911)
(207.779 -35.2969 -15.9233)
(64.8268 -14.3449 -25.8743)
(114.787 12.4571 10.1871)
(20.1577 31.068 -2.59305)
(76.4831 34.6719 4.92876)
(38.2445 25.0582 0.416646)
(68.8957 14.7817 2.58283)
(55.0141 8.54007 0.910657)
(65.8227 3.66344 1.48821)
(57.8725 1.96446 0.378386)
(61.4261 -0.495732 -0.386346)
(56.1612 -1.73902 -1.6629)
(57.4193 -3.72308 -2.50916)
(54.2909 -5.13659 -3.72285)
(55.7985 -6.59392 -3.83535)
(56.0528 -6.52594 -3.10752)
(57.712 -4.24724 -2.35811)
(57.3199 -1.59855 -1.61821)
(57.504 0.892621 -0.766093)
(61.763 1.92325 -0.0454926)
(66.5224 97.4457 -26.7361)
(-21.7208 46.5155 -63.9487)
(85.5007 21.6479 -26.3455)
(24.9099 18.9539 -7.73876)
(100.553 12.8851 0.71705)
(93.5191 11.2481 1.57593)
(123.167 5.35674 1.46788)
(119.025 4.47708 0.295169)
(124.109 5.07989 1.57256)
(119.53 8.3839 2.55473)
(121.393 10.5086 3.81363)
(120.298 11.6684 4.20638)
(122.179 11.085 3.95566)
(121.157 9.0162 3.45097)
(117.619 1.28252 4.25013)
(104.543 -4.09898 4.27595)
(97.1652 -4.175 3.5712)
(89.6862 -2.91691 2.94641)
(85.9886 -1.49934 2.95021)
(86.0241 -0.17188 2.60933)
(227.225 33.6788 90.0657)
(188.467 17.2575 9.42848)
(184.248 4.35927 -7.80583)
(135.42 -3.6955 0.18418)
(146.825 0.519648 2.27605)
(128.073 2.24066 2.04747)
(131.072 9.05266 0.791101)
(113.684 9.57007 -0.927782)
(112.878 8.63815 -0.734709)
(101.433 4.34096 -1.24932)
(104.448 1.39517 0.204132)
(102.087 -0.356315 0.551587)
(107.088 -0.677066 1.4232)
(107.627 0.241017 1.02674)
(109.98 2.08779 1.29698)
(107.719 3.35569 1.72542)
(104.476 4.2423 2.58505)
(97.1513 3.82523 3.17007)
(95.2689 2.79004 3.39094)
(94.2599 1.30367 1.51372)
(92.7777 142.934 106.857)
(10.2208 53.6323 24.8392)
(87.746 32.1588 12.0004)
(9.55207 10.0395 0.128244)
(77.4885 15.2652 -7.66938)
(36.9326 6.09034 -6.45442)
(73.6527 9.29021 -6.41599)
(52.1448 3.8707 -3.88573)
(69.9918 1.51954 0.197136)
(61.1477 -1.50077 1.23924)
(71.4632 -2.46334 2.29328)
(67.585 -2.21301 0.829098)
(72.1578 -1.20374 -0.00356879)
(69.2029 0.276823 -1.45452)
(70.5851 2.10242 -1.44576)
(68.1577 3.55905 -1.32301)
(67.991 4.89013 -0.336655)
(65.5395 4.75276 0.427023)
(64.8785 4.76495 1.67935)
(65.7129 3.37938 1.14029)
(69.3549 162.44 138.502)
(-15.874 28.8319 -7.48655)
(93.1622 22.5415 -16.4279)
(14.241 -8.28574 -9.24976)
(73.832 -6.39855 -3.45423)
(26.859 -2.30776 -0.144004)
(63.3031 -3.25836 1.852)
(42.1128 2.82858 2.10303)
(61.6496 1.35849 2.94879)
(51.3431 3.37836 1.83644)
(60.725 1.47584 1.55326)
(54.2948 1.92163 0.233434)
(57.9135 0.979786 -0.116773)
(53.373 1.71834 -0.837101)
(53.9374 2.40251 -1.08028)
(50.4294 3.49906 -1.03195)
(50.7324 4.42977 -0.204145)
(49.9292 4.61291 0.435363)
(50.5739 5.13393 0.768775)
(52.8748 3.97418 0.509796)
(40.1502 47.652 -65.1462)
(-91.9103 29.0018 -52.4242)
(94.043 26.9997 -10.7146)
(-5.30417 4.11568 -6.90012)
(68.4798 8.5695 0.341204)
(16.7288 4.89349 0.5191)
(56.4826 1.65451 1.41572)
(30.4797 3.204 1.26456)
(52.8255 -0.306729 1.73607)
(41.5284 1.36896 1.54455)
(53.2045 -0.196865 1.81623)
(47.8047 1.55499 1.28721)
(52.5571 1.70792 1.26672)
(48.4934 3.66771 0.756291)
(48.93 4.11785 0.644982)
(45.6306 4.57627 0.518145)
(45.4767 4.62289 0.650408)
(44.5215 4.29461 0.658077)
(44.8776 4.08041 0.645828)
(48.2937 3.32502 0.523577)
(30.3904 -237.05 -182.265)
(-90.337 0.10985 -22.7781)
(78.9152 -18.282 -11.8857)
(-9.60933 -5.04069 2.62573)
(71.1779 -7.46352 -0.602336)
(12.358 4.02192 1.33964)
(56.5764 -8.83135 0.703105)
(28.609 5.30078 0.539196)
(50.8456 -5.17464 0.803513)
(39.2245 3.41424 0.331437)
(50.6518 -1.15352 0.495464)
(45.461 3.93159 -0.0482617)
(50.8465 3.36457 0.0792247)
(47.0079 6.85637 -0.55298)
(47.2897 7.13172 -0.0228889)
(43.997 7.99908 0.391144)
(44.1658 7.11011 0.72384)
(43.3825 5.53611 0.603654)
(44.4969 3.71556 0.680321)
(47.7382 2.79481 0.448525)
(122.11 -69.7986 -96.1725)
(60.3759 -48.832 -18.3994)
(109.822 -22.1203 -5.12488)
(24.3562 -11.1225 -0.793816)
(70.5806 -6.39016 1.16573)
(17.5712 8.84541 0.414697)
(53.4769 -8.71488 0.176058)
(28.8774 3.73123 -0.674541)
(42.8234 -6.68486 -0.188506)
(34.2626 -0.463348 -0.352024)
(42.6833 -4.22622 -0.122127)
(40.4256 0.470187 -0.369121)
(45.2638 1.63936 -0.564994)
(43.635 6.33857 -1.00329)
(44.3714 8.13974 -0.496796)
(42.4718 8.88643 -0.0872906)
(42.9591 7.48256 0.355531)
(42.7424 4.19355 1.09006)
(43.516 2.39558 1.81153)
(45.1624 2.49483 1.43918)
(77.4012 -52.6903 -16.9124)
(-18.0936 -0.301789 -26.2269)
(110.887 22.901 6.21228)
(32.5363 8.04724 3.1066)
(88.1106 18.557 -0.0272603)
(28.4747 17.9026 -1.74776)
(46.1988 -13.8617 -1.91627)
(20.6997 15.6158 -0.990645)
(35.5414 -10.8809 -1.62578)
(28.2793 2.05051 0.212922)
(39.62 -8.29225 -0.00996698)
(37.5759 -0.326982 0.180665)
(43.5581 -1.40206 -0.586989)
(41.6973 5.67944 -1.26695)
(42.8868 7.74005 -0.848385)
(41.2075 9.67624 0.182471)
(41.6316 7.60973 1.20777)
(39.7855 5.84229 2.68651)
(38.624 6.10035 2.81761)
(38.0028 5.37161 1.45067)
(48.6812 25.5 24.174)
(-88.9805 -35.2134 8.95919)
(79.6598 -30.0603 -8.36972)
(-29.6092 -8.85708 0.511662)
(63.4781 4.48124 -3.03826)
(18.8099 34.4399 -1.20381)
(41.0661 10.4277 -1.56751)
(23.0939 6.61607 -2.75693)
(35.764 -3.98494 -2.64101)
(32.7525 -8.67444 -1.19045)
(41.8263 -8.27265 -0.41528)
(41.6419 -6.62403 0.972005)
(45.8785 -1.59478 0.378095)
(45.0283 2.80953 -0.95056)
(39.4988 7.71811 -1.36907)
(38.5637 10.8286 -0.208229)
(36.5535 10.6343 1.50803)
(34.4068 11.285 1.88177)
(31.7907 10.7943 0.470509)
(31.6057 7.21292 -0.491358)
(294.657 -279.195 167.064)
(-54.379 -16.0089 51.5362)
(119.149 3.84679 6.75123)
(24.3836 -0.431303 3.39945)
(69.502 -2.76351 -1.09689)
(36.4946 20.0156 1.40389)
(47.2462 20.3514 -0.421523)
(41.9854 -1.14621 -1.90008)
(47.8521 -7.15355 -2.57541)
(45.7848 -12.2103 -2.26262)
(47.786 -12.1175 -1.05157)
(47.9266 -9.6835 0.51202)
(48.8455 -2.65492 0.868343)
(47.1182 3.52739 -0.646662)
(43.5646 9.80072 -1.36036)
(34.7211 12.8462 -0.118962)
(33.2626 14.5686 0.735475)
(32.2979 14.4278 0.662545)
(31.6936 12.4109 -0.746089)
(31.5253 6.7223 -1.51333)
(65.1693 -267.059 152.768)
(-69.689 51.6394 -7.05172)
(90.3236 61.7233 11.9393)
(-11.6228 33.6255 -1.79762)
(47.1854 22.3381 1.52056)
(26.8677 20.6625 -0.0818432)
(49.5707 12.0996 1.71386)
(53.4274 -2.48048 0.0739633)
(53.4312 -10.1818 -1.86334)
(53.3457 -14.5214 -2.5113)
(52.5026 -14.7865 -0.87204)
(50.5109 -12.9702 0.674172)
(49.0424 -4.19126 0.910422)
(46.8194 3.98612 -0.168938)
(42.1895 10.4738 -1.27484)
(35.0079 14.3603 -0.672664)
(34.2871 15.5525 -0.010066)
(34.6745 14.9028 -0.186122)
(35.8706 12.8273 -1.20967)
(38.5966 7.09941 -1.08714)
(67.6978 33.923 -87.7424)
(-84.3252 37.9294 -45.5753)
(79.4609 14.9828 -6.85882)
(-16.9594 8.67442 0.752988)
(53.1166 6.25939 -0.0074095)
(16.1405 -0.413952 1.02657)
(39.8928 -1.58712 1.76757)
(53.4913 -5.78164 0.135638)
(56.7933 -11.4946 -1.44485)
(56.7726 -16.5158 0.775131)
(57.5893 -14.6897 -2.9724)
(54.298 -10.8868 0.858707)
(50.944 -0.472851 0.93231)
(47.4021 7.60084 -0.509064)
(42.4569 12.7058 -1.14506)
(37.8729 14.6783 -0.523485)
(38.4663 14.7058 -0.366352)
(40.4679 12.2663 -0.729149)
(42.5104 8.45123 -1.3028)
(47.9132 4.24964 -0.395923)
(-59.2491 -62.3518 105.938)
(-161.517 -21.2933 -70.0117)
(42.3154 -10.6165 -17.4952)
(-43.7034 6.86572 -5.65387)
(39.8374 9.80748 -1.21989)
(17.4531 -8.60402 -1.47413)
(47.8841 -19.3896 2.1246)
(49.4821 -8.01475 1.48592)
(47.8552 -10.313 0.929413)
(45.1937 -12.8391 1.0508)
(42.5733 -10.4348 0.357062)
(39.8554 -3.93913 -0.326731)
(41.2568 2.18035 -1.71716)
(43.0433 8.51387 -2.16244)
(43.2667 12.9578 -1.61272)
(41.6624 12.4333 -0.698639)
(43.7292 12.1658 -0.347925)
(46.4458 9.0066 -0.0266955)
(47.836 4.74355 0.116961)
(51.8795 2.6876 0.382137)
(142.897 -78.8393 -182.382)
(-11.8025 -45.3062 -88.3366)
(84.3145 -44.6355 -45.5313)
(-28.7336 -4.18237 -1.30267)
(70.724 -10.5261 -5.62328)
(4.27488 -28.8 3.41314)
(30.5913 -4.32583 2.46701)
(18.351 -6.53686 0.346889)
(31.8607 -9.41309 -0.0701724)
(23.8129 -7.69394 1.40396)
(28.7246 -6.53251 1.26772)
(26.011 -3.16209 0.146577)
(31.0196 -0.657667 -0.845361)
(31.9945 3.52797 -1.27743)
(34.2716 7.55362 -0.385019)
(38.9955 7.18903 0.128521)
(42.9529 8.83013 0.802652)
(45.5829 6.2036 1.34395)
(46.7169 4.44705 1.71252)
(50.0658 2.85913 1.22608)
(107.731 66.0102 2.58059)
(-36.1692 11.4472 -64.7488)
(68.4237 -3.0038 -56.262)
(-16.8367 -1.80635 -10.6518)
(61.2289 -18.161 -2.9627)
(11.1746 -16.47 0.147308)
(42.2654 8.97022 1.04541)
(20.9501 -17.1128 0.906076)
(31.0933 1.62249 0.741011)
(20.4319 -9.75217 1.26218)
(26.0234 1.0451 0.85278)
(21.4479 -4.95506 0.913916)
(25.436 1.02021 0.498477)
(24.6674 -1.84982 0.658149)
(28.9828 2.28625 0.97893)
(31.6391 2.80725 0.727433)