/*--------------------------------*- C++ -*----------------------------------*\
  =========                 |
  \\      /  F ield         | OpenFOAM: The Open Source CFD Toolbox
   \\    /   O peration     | Website:  https://openfoam.org
    \\  /    A nd           | Version:  10
     \\/     M anipulation  |
\*---------------------------------------------------------------------------*/
FoamFile
{
    format      ascii;
    class       volScalarField;
    location    "1.5";
    object      k;
}
// * * * * * * * * * * * * * * * * * * * * * * * * * * * * * * * * * * * * * //

dimensions      [0 2 -2 0 0 0 0];

internalField   nonuniform List<scalar> 
12920
(
206.424
876.252
1245.02
887.28
572.703
334.508
227.469
187.934
159.304
137.838
115.491
98.7352
91.4648
91.9913
93.5827
97.7656
97.8141
95.0086
89.772
75.843
1631.97
1536.83
1227.23
720.119
565.406
443.449
361.876
302.081
237.963
201.706
169.097
146.049
121.596
103.328
90.0972
77.3838
70.0031
66.9464
65.7214
60.4674
1618.22
2087.72
1240.05
910.188
721.054
583.83
419.361
333.28
243.803
209.109
173.519
142.098
108.491
80.8826
62.2474
51.6705
47.8479
39.811
35.5992
26.7649
5530.73
2388.68
1393.36
731.112
538.688
400.795
269.228
199.824
119.982
100.432
88.3789
86.2735
71.5902
52.3359
37.0437
24.5606
15.0235
7.29081
5.99817
4.62729
891.975
1752.99
1682.74
1195.77
768.216
500.469
325.669
199.531
106.496
53.2761
28.4008
26.9723
21.5133
15.0059
8.03991
3.70797
1.61601
0.67973
0.601226
0.473026
1136.51
2267.78
1502.9
960.139
724.884
588.094
398.649
255.785
113.248
41.2787
10.6924
6.33797
3.36629
1.80416
0.74581
0.282931
0.0834123
0.0223344
0.0178733
0.0198974
7454.06
1947.19
1112.97
672.532
619.245
477.917
358.399
199.064
79.4163
13.7536
3.75625
4.28178
7.55142
4.02619
3.52624
2.1979
0.778656
0.179952
0.0312717
0.00504447
12717.5
2649.12
1443.41
885.068
696.349
519.092
271.587
201.322
99.9733
15.8593
3.87028
10.3016
24.5208
17.2998
20.1326
12.6594
5.38504
1.66231
0.385559
0.0618326
12518.2
3252.65
1942.85
1209.27
824.286
369.974
246.016
162.105
166.792
65.7676
38.4534
34.0883
61.5725
47.7597
22.4608
21.7568
12.831
5.17118
1.63546
0.351478
6063.23
2500.09
2018.66
1352.52
916.759
446.707
224.231
158.981
216.885
267.129
214.519
86.7612
60.8977
77.4636
41.5603
25.1638
17.494
7.30051
2.41218
0.572226
4931.93
3555
2600.86
1521.86
815.115
351.764
168.703
104.666
93.4817
81.7119
78.7556
108.761
43.4653
17.9543
19.0788
40.164
26.7034
9.21109
2.66805
0.574439
10317.8
2290.93
1495.27
1056.35
922.262
525.887
295.825
184.953
156.168
185.374
177.655
45.3221
57.7852
24.9262
21.6186
47.923
30.5067
10.3589
3.36601
0.797975
4154.89
2901.39
2014.46
1336.28
1042.8
899.581
465.441
294.948
213.735
167.334
144.899
95.924
62.0053
49.3265
54.447
49.8621
44.5585
31.2816
16.8138
5.3028
4594.57
3609.2
2493.75
1523.64
1091.76
924.908
666.955
428.157
283.213
187.628
138.552
106.403
86.0767
72.2894
67.0002
63.6378
59.1698
54.6267
46.6883
22.2682
7688.68
3483.29
2102.91
1344.76
988.132
810.198
543.628
328.041
204.457
147.211
114.99
90.8123
74.9773
70.3575
70.6569
70.579
65.3981
50.6322
34.8694
14.7783
785.315
1527.95
1478.71
1345.81
931.24
711.174
477.248
310.9
209.149
164.95
126.411
92.1837
61.7459
39.1561
26.7914
22.0192
22.7088
23.3102
22.5951
15.0441
920.673
643.34
1093.74
1225.39
986.431
662.56
446.914
390.493
312.556
245.985
165.46
98.3854
50.7307
25.2252
14.3231
11.3623
11.4455
13.1613
14.5898
12.9366
50.0984
772.861
1300.25
1185.21
755.094
552.239
423.067
386.336
334.338
302.026
245.16
187.698
137.851
95.8084
63.7659
40.9319
25.8736
17.2746
14.415
8.71471
141.751
450.485
956.789
911.299
803.592
616.74
439.062
341.958
259.99
194.901
142.005
103.99
82.6913
66.868
50.1412
31.6326
17.506
8.74111
4.63184
1.64413
24.0617
42.4677
89.173
333.774
447.017
432.086
338.686
253.98
199.898
159.111
123.025
91.3865
64.5981
40.988
22.5852
10.0575
3.84782
1.31231
0.445341
0.111065
372.655
1813.33
2651.4
2294.51
1450.78
744.765
485.419
374.478
306.965
268.769
242.078
228
215.032
202.896
190.795
176.103
155.964
129.268
120.381
113.509
5656.01
4093.12
3142.77
1798.95
1366.06
1024.03
823.022
699.354
561.923
498.642
427.09
382.002
316.69
255.751
183.372
117.139
82.3032
74.5103
76.5978
75.514
3152.74
6013.36
3286.71
2122
1632.8
1367.42
955.534
790.343
592.355
522.455
426.091
350.332
252.252
164.797
95.2482
55.5489
42.9314
29.399
26.3394
18.9877
5802.08
8621.9
3990.4
1776.08
1298.49
948.845
650.335
486.524
299.814
275.514
228.648
209.475
150.164
96.1854
48.6084
21.3608
8.79865
3.0048
1.99089
1.90914
1743.63
4651.26
4450.87
2824.49
1672.74
1173.44
662.236
413.895
175.992
95.6071
49.5361
46.3845
36.0254
21.8123
8.87429
2.97107
0.875833
0.229849
0.147993
0.145177
5590.29
5556.52
3797.11
2350.82
1632.61
1400.67
805.91
475.902
147.441
57.0389
17.4506
8.99497
4.31859
2.0065
0.911447
0.37011
0.0977157
0.0192684
0.00687138
0.00688129
13682.1
5510.51
2795.6
1644.21
1638.21
1179.82
854.159
385.427
127.861
29.0204
14.8956
8.39262
12.1664
6.47733
7.79042
4.61684
1.32678
0.268956
0.0441212
0.00583557
20856.8
9191.57
3465.26
2024.85
1822.24
1286.97
1086.5
746.375
345.751
84.2449
39.1116
63.3439
63.8724
43.8237
51.3512
27.6351
8.95187
2.37414
0.504722
0.0788729
9700.01
8050.94
4836.16
2952.57
2080.16
1469.98
1136.35
1080.4
885.713
630.164
283.1
225.48
230.635
183.329
107.281
55.8373
22.7743
7.61621
2.15093
0.469825
13198.3
4823.02
4136.68
3340.27
2371.21
1704.42
1233.62
1040.67
1060.65
1099.79
989.092
544.369
303.855
269.512
148.472
56.2479
33.2096
12.9895
3.78554
0.845686
15042.9
6937.67
3691.77
2412.99
1568.54
1274.09
961.8
794.855
713.169
677.321
668.584
546.708
346.871
113.78
70.211
53.9856
49.4224
20.9873
5.31547
1.08714
20141.6
6482.1
3691.63
2371.49
2150.69
1726.37
1412.48
1119.54
959.549
950.449
813.346
283.906
208.518
105.177
39.5961
85.0746
66.6462
22.1259
5.77722
1.20291
20329.8
9909.03
5022.61
3131.88
2361.63
2034.86
1465.98
1064.77
785.671
652.94
528.001
344.108
239.121
165.898
126.735
98.3159
67.4286
38.1518
19.5759
6.09606
14430.7
11146.8
6054.09
3649.39
2364.84
2099.29
1403.25
918.224
647.864
441.923
330.981
238.25
181.217
144.76
133.104
118.869
102.444
92.0974
76.3785
33.8196
18895.9
9491.03
5117.69
3354.5
2114.27
1775.11
917.266
651.394
441.789
355.596
288.167
249.801
237.432
229.934
214.742
185.937
146.396
98.0924
63.4326
25.9529
5168.85
4003.46
3812.11
3427.07
2249.03
1733.02
962.54
705.734
461.59
364.259
288.749
217.105
162.344
104.008
66.5702
42.1214
35.0268
33.2352
28.9574
15.7863
4376.82
2931.34
3265.13
3166.55
2321.87
1649.35
1079.97
905.082
614.802
422.793
229.839
113.226
51.9873
24.7189
12.4563
7.92177
7.52011
10.6377
12.9895
11.28
258.153
2259.64
2908.14
2769.6
1842.07
1436.54
1028.79
927.683
733.669
640.011
473.251
307.485
170.857
94.088
54.0344
32.7017
21.0518
14.3137
11.7004
5.88674
26.044
896.551
2102.85
2177.97
1810.66
1437.45
931.61
730.294
508.997
401.947
277.378
188.365
117.915
75.754
46.2318
23.9041
10.3766
3.97366
1.67988
0.499209
118.595
525.061
627.248
914.083
971.445
908.194
670.604
508.4
399.73
314.341
228.88
152.77
91.1651
49.2202
23.2699
9.1555
2.96291
0.827315
0.217315
0.0466776
4399.53
2772.73
3211.67
3062.24
2048.44
934.031
572.695
440.072
370.104
326.611
293.427
270.482
251.878
232.642
207.444
178.498
149.581
117.917
102.833
97.4434
11143.1
5515.45
4038.62
2447.4
1745.34
1250.03
1015.48
856.389
716.907
656.047
577.146
520.471
419.865
315.227
197.785
109.427
59.1947
41.341
49.7645
69.4788
12875.2
7333.64
4564.08
2720.45
2045.1
1629.42
1182.63
964.651
757.082
675.275
557.864
455.531
310.446
181.636
81.0763
29.286
13.2214
8.59883
10.5512
15.1945
12877.2
10392
6265.74
2562.09
1718.27
1215.99
903.243
670.539
473.588
430.756
339.416
281.365
172.445
93.074
36.7284
10.9456
2.95836
0.957112
1.02865
1.82904
2518.86
6936.8
6057.06
3658.5
2097.58
1326.73
859.703
554.204
286.762
196.671
105.482
73.0487
36.9238
17.0213
5.64621
1.45487
0.339759
0.0976085
0.10018
0.170809
6779.63
7769.68
4946.27
2853.9
1922
1401.94
947.74
549.592
224.182
131.874
49.0472
19.365
5.80878
1.69604
0.622938
0.259307
0.0905049
0.0253797
0.00884433
0.0103528
17519.3
7736.21
3616.8
2346.07
2108.4
1397.07
1066.75
461.632
215.366
96.6589
41.3108
14.2459
11.4872
3.9268
5.68407
3.66797
1.62391
0.643294
0.210684
0.0309345
24035.6
11669.7
4541.48
2840.82
2437.95
1686.47
1492.6
769.034
458.023
164.025
117.45
113.614
75.4779
40.1045
59.1118
33.2416
14.134
7.0779
4.18867
1.55421
8566.86
8759.47
6374.36
4058.49
2706.72
2029.07
1661.95
1426.92
1032.51
790.749
410.966
367.711
290.066
205.083
218.29
141.113
54.2301
22.6549
14.7151
9.33665
10316.3
6598.04
6310.93
4856.42
3220.23
2324.44
1751.7
1459.04
1400.38
1344.63
1132.66
776.486
476.511
398.292
302.1
200.919
107.205
45.5867
23.3442
12.7988
14792.3
8043.82
4982.06
3237.57
2426.81
1941.94
1589.53
1332.57
1262.58
1350.91
988.242
724.641
490.305
262.463
221.285
184.784
120.199
52.2823
26.0878
13.9957
20114.8
8208.83
4722.43
3073.93
2711.41
2285.51
1901.05
1494.56
1298.57
1214.37
1000.99
586.969
283.169
101.901
89.5084
196.6
105.196
38.6733
17.3532
9.42596
21742
12040.2
5832.47
3640.56
2944.86
2303.37
1886.11
1365.21
1046.3
841.061
669.754
490.482
405.235
309.978
287.226
182.224
88.121
37.3137
16.9292
5.34378
27428.4
14948.2
6956.9
4079.89
2773.11
2163.98
1577.77
1083.08
890.678
678.034
564.815
458.814
381.614
312.223
276.606
229.56
193.48
152.989
94.2131
31.6433
23150.2
10683.7
6147.51
3770.64
2362.25
1754.08
1092.23
816.482
664.628
556.614
495.254
428.204
377.353
320.021
261.467
201.024
150.731
97.1212
49.3566
14.5461
21902.8
7867.51
5730.23
4436.35
2703.78
1925.01
1090.61
774.3
540.576
415.978
367.069
286.633
233.708
155.719
100.608
55.4907
32.568
17.7804
10.5835
4.40313
15642.8
7151.55
5088.45
4481.86
2966.68
1998.62
1245.55
912.216
531.745
312.274
175.517
98.1942
56.4961
27.6385
13.7824
6.76117
3.84936
2.99427
3.85996
3.99211
4319.83
3729.33
3913.92
3661.1
2501.95
1806.7
1245.01
1003.81
707.627
484.15
252.91
106.695
40.428
16.5577
8.15319
4.89961
3.9079
3.49793
2.91618
1.19903
459.2
2162.99
2905.8
2869.01
2196.14
1607.07
1049.47
800.448
534.796
368.651
216.617
122.559
68.4149
36.5513
16.9258
6.42939
2.18928
0.660594
0.198276
0.0460404
65.906
980.582
1504.96
1444.94
1237.5
943.989
700.398
535.261
410.232
302.119
211.533
136.143
80.769
42.0447
18.3942
6.58257
2.0426
0.556276
0.136335
0.0278166
4681.9
4218.72
4242.33
3591.14
2083.93
952.291
576.157
445.695
380.279
337.252
302.055
278.629
266.422
256.47
234.666
202.452
178.561
152.39
131.652
112.417
13636.3
6561.28
4857.48
2965.36
2041.13
1388.87
1183.4
960.12
865.296
786.961
722.329
650.052
544.82
433.998
324.408
228.505
163.926
125.305
119.396
137.316
16651.8
7361.35
5182.14
3049.56
2403.42
1757.69
1388.55
1080.5
923.598
810.7
698.849
571.736
420.634
278.504
155.923
77.695
46.8773
41.2728
54.5984
72.6491
11793.7
8884.76
6760.01
3146.72
2092.09
1414.19
1146.95
818.289
669.825
589.712
477.289
372.873
226.801
118.151
49.7386
17.7841
7.27214
5.41034
7.91641
11.5704
10787.2
9189.29
7639.65
4436.12
2441.34
1443.7
1085.97
676.953
477.229
359.539
238.267
159.394
81.8894
36.2936
13.4012
4.4933
1.83313
1.07781
1.1781
1.58594
25903.1
11374.1
6014.11
3373.94
2192.02
1440.27
1114.74
638.347
413.093
283.315
144.062
87.0572
31.7565
12.878
5.10594
2.7066
1.64844
0.792482
0.323642
0.290636
15378.5
9429.43
4532.79
3029.31
2441.48
1535.57
1188.97
585.49
419.201
212.924
93.2783
28.0016
19.765
11.5822
17.7916
19.3288
19.3937
14.502
6.61218
1.86772
20936.1
10311.7
5244.6
3519.27
2887.27
1930.91
1619.57
762.002
549.373
317.136
212.273
103.042
57.4384
31.7252
96.6829
87.1833
81.1172
76.7621
66.3362
41.6446
22212
12204.8
8198.3
4889.86
3132.72
2308.08
1911.36
1460.14
956.611
676.336
446.121
461.274
280.669
226.118
253.834
200.845
140.689
123.645
117.43
103.159
21111.2
13585.7
10211.1
6221.94
3867.55
2656.6
2017.77
1646.1
1479.76
1257.65
1001.44
798.95
583.762
523.987
480.972
374.945
227.451
162.849
140.842
117.572
17292.5
12369.8
7045.33
4155.68
2987.05
2352.3
1959.27
1663.82
1570.73
1524.58
956.063
482.517
498.941
621.473
535.239
439.351
257.11
176.321
148.543
123.062
35046.4
9808.36
5572.85
3744.73
3105.81
2568.19
2157.34
1671.05
1417.23
1233.23
953.64
558.653
349.006
516.916
528.337
364.372
192.77
132.593
116.569
105.024
23301.7
11517.9
6063.73
4076.85
3433.01
2473.02
2042.24
1482.77
1145.88
908.194
777.108
688.129
658.584
595.23
431.947
231.148
125.681
75.391
55.1347
32.7853
13764.4
11579.8
6631.14
4090.38
3175.48
2138.34
1698.87
1199.09
1041.58
843.905
783.581
717.106
675.605
577.321
454.345
326.132
227.71
135.914
62.8689
16.3627
18054.1
9411.83
6396.01
3719.87
2598.4
1685.45
1296.88
953.751
880.42
737.473
699.674
612.758
560.854
461.331
355.383
231.197
128.572
53.6894
17.0796
5.97383
16931.5
9715.68
7575.84
4791.29
2986.25
1852.96
1165.67
798.297
647.194
508.629
480.947
381.162
319.936
212.801
135.285
71.1564
38.9583
22.54
12.1454
6.67147
13984
9535.66
7671.83
5279.53
3270.16
1959.61
1244.83
784.722
479.92
300.54
225.446
155.97
122.491
73.422
47.5083
27.2237
17.0209
9.55713
4.54325
3.61242
14080
7689.67
5976.08
4384.69
2918.9
1856.06
1318.93
917.167
591.036
332.716
178.939
107.107
71.904
44.7418
28.1217
14.4337
6.42099
3.31532
2.8282
2.37445
4377.05
4346.92
4053.39
3359.52
2407.12
1492.23
1035.3
724.579
473.261
283.721
166.378
100.758
63.805
39.6046
24.3925
13.4302
6.07032
2.63191
1.67704
1.47153
118.045
1294.06
1706.56
1515.09
1152.26
808.208
623.774
472.802
362.827
256.489
177.717
114.858
68.0744
35.1964
15.6497
5.98555
1.97529
0.553601
0.137623
0.0309499
10482.6
7568.49
4839.05
2917.74
1275.63
683.81
503.811
411.03
354.431
310.209
282.766
270.81
270.704
269.928
265.147
243.901
234.872
233.003
228.128
187.563
63740
11599.5
5038.32
3297.79
2294.84
1690.24
1455.69
1169.93
1093.13
948.379
903.462
784.522
723.976
617.94
564.641
485.143
461.567
428.258
422.738
423.638
11991.1
8099.17
5715.59
3684.4
2843.56
2114.01
1692.3
1307.47
1178.78
992.544
892.196
714.668
630.772
509.296
448.351
346.22
317.433
309.57
331.15
340.056
17990.8
8968.7
6579.33
4108.42
2567.26
1967.99
1473.77
1101.41
965.048
787.348
685.005
512.978
416.438
303.978
234.819
151.058
112.511
101.353
117.048
125.227
26469.6
13337.5
9350.38
5202.93
2858.21
1891.22
1440.86
947.09
798.8
578.748
489.487
353.113
294.464
193.583
134.011
78.3313
55.5208
44.8618
46.997
50.7849
25373.2
12539.7
7092.76
4734.72
2670.09
2091.59
1428.53
924.554
720.833
488.861
343.59
269.18
174.004
122.489
77.7091
53.0318
36.8365
26.2035
22.3595
23.6601
25731.8
11248
5618.08
4542.33
2931.35
2135.95
1620.57
1001.48
743.391
397.194
224.64
141.534
135.062
113.759
134.082
144.956
149.392
126.703
81.6462
50.3468
25390.5
12168.8
6322.66
4978.47
3428.12
2566.38
1749.47
1022.03
744.195
461.337
357.729
185.08
200.621
189.034
289.81
283.902
287.485
288.394
276.965
244.029
29198.2
15142.5
10158.8
5911.25
3678.37
2640.4
2119.24
1381.85
912.571
641.51
587.189
500.387
346.949
328.37
353.474
351.814
333.721
338.613
339.107
335.37
24710.3
17291.7
13318.6
7019.37
4361.94
2901.92
2232.12
1748.43
1379.58
985.527
826.242
760.387
662.216
628.036
589.346
450.859
380.176
364.862
360.503
353.706
46475.3
19299.7
8787.13
5286.68
3589.45
2685.9
2230.44
1894.28
1621.89
1233.06
794.497
647.609
813.177
906.149
777.831
504.317
401.45
377.069
369.92
363.48
54652.9
15291.9
6753.38
5347.48
3529.35
2889.03
2383.99
1801.74
1442.12
1095.49
851.751
770.186
892.85
930.658
767.995
440.483
367.312
354.75
356.046
357.934
15322.7
13061.3
7207.06
5246.2
4219.73
3084.56
2196.16
1583.77
1242.43
1020.69
972.299
948.246
937.488
816.736
463.509
354.862
322.324
306.448
293.407
257.571
24083.4
11105.1
6751.12
5079.08
3847.36
2524.96
1923.24
1468.42
1212.94
1022.66
1001.77
917.966
879.421
713.733
578.638
431.279
333.242
209.082
148.238
110.856
14138.1
10817.1
6571.38
4714.37
3077.78
2091.52
1610.51
1192.51
1092.83
902.213
875.914
739.82
691.018
542.874
442.87
293.965
197.377
124.425
99.8521
93.5975
18007.6
11636.3
8507.55
5062.49
3406.77
1893.42
1380.42
904.896
836.265
649.068
617.082
480.341
444.096
325.576
269.58
179.391
139.574
109.84
106.314
108.54
8789.8
10492.6
9657.69
5341.65
3609.51
1931.76
1344.25
755.367
595.902
425.948
414.188
348.552
329.199
244.817
187.371
127.111
100.828
88.5913
88.3905
92.561
8388.36
7847.47
7974.09
4634.05
3425.17
1883.17
1519.04
839.158
651.535
412.971
405.967
346.232
325.861
250.766
208.432
141.353
106.938
86.5047
83.9302
86.6072
12603.5
6342.8
6082.39
3840.52
2850.46
1409.04
1194.81
662.709
547.871
334.753
306.467
247.112
241.836
224.213
212.461
175.317
127.348
85.2883
71.9162
69.8541
732.657
1676.58
1769.26
1412.74
915.552
633.233
484.117
349.544
252.374
174.04
120.506
79.2365
48.7103
27.2267
13.9369
6.27246
2.40639
0.852999
0.427704
0.39365
1204.38
1396.45
1112.07
1309.8
1121.54
1539.12
1099.76
874.624
1037.53
889.306
1053.58
861.398
924.959
550.357
1069.15
1274.89
1179.88
1536.62
1100.3
1344.9
1199.62
830.089
1113.19
755.496
913.943
510.614
1116.08
802.177
151.981
204.564
162.274
876.565
914.614
993.523
922.812
175.337
169.723
213.997
922.862
852.238
922.722
954.654
114.55
227.15
253.93
790.927
626.401
964.633
969.87
49.7901
252.623
150.408
523.711
294.866
956.591
786.927
34.1138
87.504
91.2081
231.337
189.424
649.297
438.777
52.2545
98.5896
62.8481
188.885
207.376
423.61
284.364
59.2462
61.9552
78.252
208.032
195.123
255.293
251.42
11.0592
75.4369
31.5781
171.849
86.2815
243.632
158.266
155.404
184.196
109.154
993.193
889.717
737.147
604.937
202.003
98.4883
81.2609
881.323
912.317
561.375
491.02
261.734
79.8823
81.5556
932.285
985.881
489.852
500.977
243.872
85.4935
114.729
992.132
950.521
515.502
615.946
81.0284
135.632
171.105
896.489
539.223
653.187
685.509
65.4341
138.229
67.5929
466.847
316.243
613.319
399.968
78.2103
39.1895
29.8727
261.515
245.175
303.838
152.61
41.3273
46.3258
46.2231
243.786
187.068
156.548
156.304
108.728
283.845
188.173
718.246
644.734
1109.27
979.03
100.17
182.423
166.693
626.623
577.647
939.898
844.208
82.5229
163.466
179.816
556.904
497.35
828.648
841.995
78.1653
190.859
202.335
491.465
480.101
850.84
824.325
109.325
195.414
64.1307
477.369
464.546
787.344
360.599
65.9913
51.8014
60.0779
423.003
330.272
221.948
163.566
13.3068
59.346
28.1849
305.104
101.574
180.859
111.118
25.2226
22.3302
13.8992
100.818
129.287
81.1927
36.8036
194.242
397.952
208.956
1174.5
1018.8
1156.34
1004.83
162.746
201.772
152.669
967.609
846.261
930.216
745.411
174.94
147.474
128.424
825.271
832.736
687.383
644.672
193.496
127.962
125.32
839.753
792.566
626.873
550.591
48.7832
118.662
53.5266
732.155
309.017
504.583
305.242
58.7467
41.9082
30.0863
206.447
165.731
255.563
161.145
30.4006
28.6639
17.4551
176.182
119.311
146.176
96.1691
15.9585
16.7533
14.2507
92.1134
44.4964
87.0241
68.636
1090.75
1228.55
1090.21
1562.29
1432.92
1663.71
1436.45
958.486
1080.39
1084.17
1375.09
1116.83
1405.14
1340.79
717.45
1085.47
1071.63
1023.93
852.341
1320.39
1246.63
353.308
1051.77
888.076
781.496
484.061
1207.77
1033.57
226.992
770.571
509.94
394.045
335.928
948.901
701.914
233.599
476.58
332.241
334.714
307.098
639.927
469.624
207.468
294.674
278.992
283.216
220.03
420.018
363.189
106.108
267.975
180.24
200.326
183.246
344.755
274.832
1059.53
1001.08
794.89
1651.77
1417.25
1492.26
1260.08
1047.45
745.723
670.684
1381.57
1342.09
1209.15
1147.22
1098.12
669.713
690.554
1339.65
1329.88
1150.99
1210.98
1046.29
712.403
795.587
1313.16
1194.89
1244.62
1126.55
651.268
812.38
789.074
1125.61
850.006
1072.8
918.654
372.676
712.702
449.072
739.601
522.905
823.719
577.248
272.425
363.101
166.826
437.269
371.424
481.949
249.865
206.718
166.768
169.967
362.04
302.206
257.963
282.54
823.041
1329.56
1134.15
1462.79
1263.61
1721.31
1457.37
731.042
1087.13
980.838
1219.54
1146.65
1397.33
1275.06
676.525
963.023
963.461
1142.37
1169.82
1253.09
1226.82
677.092
966.362
922.251
1189.94
1060.91
1218.9
1134.87
611.86
879.364
460.059
1003.76
839.472
1073.3
695.667
365.773
292.445
200.105
732.465
515.216
556.342
390.452
116.47
212.798
123.232
467.457
193.115
323.308
112.92
137.408
91.3477
42.2934
197.418
244.728
88.5027
54.9994
1179.54
1478.57
1194.83
1816.57
1497.67
1902.82
1523.27
983.524
1093.62
877.226
1425.78
1270
1392.96
1127.95
950.495
812.189
756.996
1238.57
1188.65
1061.86
965.108
879.602
732.217
627.198
1172
1049.86
923.119
755.586
403.094
571.546
359.366
973.028
632.202
686.737
473.032
206.695
307.69
197.173
526.07
351.569
425.41
301.72
133.509
182.918
117.68
290.477
136.228
279.768
198.88
49.4125
108.724
77.4558
108.47
54.2325
185.715
125.751
1502.51
1754.26
1511.99
1863.31
1595.5
1957.89
1656.22
1128.6
1474.38
1390.3
1472.23
1082.39
1596.81
1442.99
863.695
1362.93
1267.32
984.761
810.26
1391.48
1227.5
496.877
1222.24
1042.98
718.13
470.997
1161.68
974.725
367.803
964.464
737.798
432.121
453.34
914.651
767.867
322.603
679.989
507.653
445.588
333.084
731.183
582.012
220.784
457.454
391.416
284.593
225.846
533.693
454.082
202.947
371.259
308.235
219.405
237.22
436.474
404.191
1498.87
1620.1
1379.01
1960.86
1667.77
1899.22
1649.55
1407.66
1329.04
1273.34
1613.67
1512.8
1599.11
1541.24
1371.94
1279.07
1349.3
1484.14
1368.21
1544.31
1567.63
1423.63
1307.09
1421.43
1354.97
1402.23
1308.91
1457.85
1142.96
1053.83
1237.33
1122.43
1158.87
1047.66
1225.05
558.88
808.418
611.272
806.913
619.97
572.139
629.857
408.538
505.982
305.01
564.031
511.502
533.516
526.838
334.583
324.606
336.153
498.694
444.24
559.133
514.457
1378.88
1825.39
1534.06
1879.57
1646.96
2045.04
1707.65
1262.92
1471.01
1343.83
1595.86
1522.06
1634.36
1481.96
1303.06
1320.06
1286.11
1521.08
1544.44
1448.38
1373.92
1368.46
1293.79
1308.52
1430.64
1292.52
1217.49
1396.64
1072.24
925.192
1131.92
754.061
1061.03
713.69
1155.12
563.424
635.855
415.633
521.243
570.228
689.287
321.098
245.515
315.739
106.567
484.48
489.789
257.032
318.934
295.514
92.8229
82.2932
535.808
509.965
381.011
416.565
1569.6
1989.73
1592.41
2104.71
1723.79
2171.44
1714.45
1333.02
1457.08
1183.23
1637.79
1448.63
1570.78
1281.88
1236.36
1115.74
1004.25
1402.7
1292.66
1207.93
1049.27
1079.85
957.1
776.802
1250.8
1073.72
987.959
803.017
685.497
706.967
497.863
989.767
706.159
742.521
581.192
361.071
454.682
329.348
598.046
312.237
556.188
493.921
121.213
310.395
236.713
265.077
323.029
487.894
469.951
70.3358
225.235
163.639
369.474
399.9
463.631
413.366
1598.33
2007.69
1685.03
2049.18
1562.33
2151.23
1750.01
1051.47
1616.47
1434.48
1388.43
979.683
1648.56
1370.65
775.381
1373.75
1182.97
900.419
700.804
1279.77
1010.03
466.492
1110.28
927.113
616.489
533.346
928.461
798.346
475.392
875.16
761.28
537.54
527.245
777.526
740.211
328.911
729.804
590.902
484.443
336.623
713.718
597.462
231.595
543.304
468.388
307.625
288.066
561.548
516.295
242.046
453.919
429.234
283.055
288.919
508.775
485.576
1707.18
1976.09
1719.16
2171.91
1807.63
2171.11
1899.36
1519.56
1666.71
1595.55
1719.39
1488.07
1835.22
1679.92
1326.4
1590.68
1567.25
1405.77
1131.06
1624.36
1392.99
1064.47
1524.69
1144.19
1043.6
881.853
1298.52
995.072
839.445
965.104
550.643
847.203
781.571
856.792
643.633
630.122
566.327
616.564
758.26
656.872
645.743
695.841
536.141
553.204
605.456
632.641
604.072
719.412
803.359
475.897
627.267
566.577
593.825
555.356
801.67
710.694
1717.34
2103.49
1753.58
2159.12
1902.34
2265.99
1885.71
1579.1
1676.21
1510.3
1838.61
1680.28
1793.77
1569.14
1553.24
1470.93
1370.74
1625.92
1410.66
1500.93
1278.63
1149.28
1331.14
1161.39
1322.69
995.318
1200.84
967.217
480.341
1069.59
736.834
827.037
560.532
867.453
631.615
543.074
610.96
337.596
562.567
674.353
608.796
684.91
587.175
327.243
470.529
718.091
837.318
735.466
855.074
570.005
523.347
521.372
839.681
746.13
857.069
771.223
1761.73
2218.78
1736.09
2319.7
1868.3
2372.74
1777.04
1468.65
1590.22
1298.02
1761.07
1506.76
1624.87
1334.48
1284.2
1221.46
1049.35
1433.1
1204.62
1252.8
1048.66
1039.67
985.727
810.545
1125.55
915.717
988.97
876.504
664.477
756.651
621.646
845.45
687.516
849.944
810.427
352.328
607.349
572.847
671.846
726.381
814.359
833.61
473.324
570.991
564.398
764.949
850.479
835.552
820.955
511.284
558.069
499.126
847.152
759.912
796.898
701.282
1566.29
2208.83
1780.32
2664.73
1967.61
2705.16
2188.04
985.978
1666.46
1356.34
1734.08
1368.73
2033.59
1639.67
715.172
1256.57
969.763
1310.71
1197.74
1521.97
1228.08
584.818
892.823
789.961
1114.33
1079.18
1171.5
1103.7
551.231
777.269
746.999
1072.92
1042.36
1092.69
1056.37
367.903
718.915
614.37
961.677
889.89
1031.51
1008.81
333.405
584.218
548.521
867.574
882.697
994.198
991.095
330.057
541.627
510.546
856.202
746.773
990.065
876.773
1847.73
2241.37
1959.27
2680.31
2263.68
2715.99
2395.63
1477.01
1888.55
1691.59
2126.91
1751.82
2293.68
1971.08
1071.6
1612.71
1310.44
1612.74
1256.45
1829.12
1376.06
849.519
1205.9
928.507
1188.45
1108.22
1264.56
1095.42
782.41
823.45
690.915
1096.13
1052.27
1067.81
1043.42
679.025
697.318
762.218
1033.35
1039.48
1048.34
1146.9
638.337
794.64
866.103
1045.91
1046.94
1202.51
1252.95
586.187
857.638
757.503
1043.47
941.106
1243.02
1112.98
1964.24
2327.95
1939.14
2683.69
2400.33
2787.94
2346.47
1698.09
1841.17
1589.72
2301.57
1985.98
2223.91
1891.78
1334.21
1508.09
1237.72
1848.62
1402.49
1772.06
1399.13
925.286
1149.98
925.231
1287.04
1095.17
1304.61
1170.81
637.009
844.672
710.84
1059.69
1040.1
1149.33
1141.36
763.621
712.706
819.765
1054.29
1183.54
1159.28
1296.81
911.932
870.215
952.01
1246.46
1307.4
1339.55
1363.07
801.048
943.12
835.891
1296.64
1164.78
1347.3
1193.87
1915.42
2449.46
1811.71
2797.03
2299.14
2872.96
2150.79
1525.53
1654.98
1362.55
2166.45
1828.36
1993.64
1674.92
1179.62
1279.28
1068.44
1722.4
1387.15
1595.09
1390.18
904.794
1012.46
922.381
1305.91
1200.76
1354.83
1290.08
767.494
904.648
886.483
1190.73
1194.25
1299.22
1299.98
855.921
893.032
919.024
1211.93
1324.97
1309.17
1305.8
944.258
919.85
891.441
1347.32
1348.54
1305.59
1235.03
821.578
859.487
738.829
1327.68
1182.35
1196.79
1003.22
1368.24
1259.28
1305.08
1194.7
1360.9
1254.16
1301.39
1461.87
1428.72
1350.68
1471.64
1412.46
1493.77
1306.07
1374.28
1298.3
1216.59
866.545
1364.31
1281.38
1022.5
1418.03
1343.22
1248.59
1440.86
1289
1464.47
1384.37
1351.18
1166.3
1184.7
1232.11
1228.65
1275.54
1312.02
1479.19
1513.46
1524.27
1451.47
1526.81
1321.62
1464.19
1371.73
835.208
1245.29
1279.72
1261.37
1012.94
1359.77
1052.01
968.034
965.552
882.618
1067.4
967.694
955.07
1105.22
1224.67
954.921
782.692
1148.45
1190.82
712.74
1001.53
973.997
911.787
770.298
1062.47
924.995
718.236
1108.36
1095.34
989.361
1146
1025.64
1192.97
1061.14
1019.06
876.932
924.105
898.436
953.075
929.857
976.161
1047.32
711.231
1125.46
742.922
1154.52
582.889
1000.8
929.387
617.464
803.042
596.362
855.344
558.306
878.66
1311.16
1161.21
1197.02
845.298
1254.56
975.141
1235.56
1353.71
1303.38
1255.86
1316.17
1295.47
1365.57
1293.13
1322.58
1225.87
1225.16
1207.57
1270.92
1269.99
1257.72
1427.6
1488.5
1439.12
1490.75
1264.65
1460.31
1452.11
1350.48
827.997
1264.93
1263.36
990.908
1253.81
1368.67
1389.34
1339.7
1425.1
1308.57
1407.78
1310.79
1397.2
1349.04
1215.01
1277.8
1261.22
1288.33
1270.26
1348.86
980.499
868.515
852.015
713.893
977.448
693.928
847.241
1110.89
1167.36
1020.04
1135.86
1087.14
1201.27
1041.2
991.938
813.272
895.254
801.168
969.489
850.996
923.978
1046.36
691.102
725.222
1136.31
594.327
1149.57
1002.46
941.708
568.67
574.251
770.69
537.172
816.198
883.117
1108.16
1138.07
1183.67
1016.98
1207.82
1042.11
1075.32
992.078
821.216
846.564
910.484
868.531
932.304
962.018
231.982
266.082
249.009
628.694
707.07
590.432
725.992
152.705
244.814
216.416
556.531
318.412
701.662
592.631
59.2713
162.67
126.6
223.286
180.575
423.051
359.46
5.32357
71.2588
28.1996
56.8192
14.3972
226.452
95.2757
6.86399
17.6294
21.2886
12.3618
23.9643
57.8545
71.5878
19.4089
27.4438
50.2311
33.9406
45.5186
89.1644
125.572
25.9036
63.0904
63.0205
51.2771
54.8272
134.623
133.648
10.529
42.4188
22.9022
35.8069
23.2867
94.4323
55.8571
359.982
379.038
344.362
873.268
783.765
953.885
960.794
385.106
169.442
218.599
368.467
372.497
364.253
172.013
534.26
175.314
166.831
476.333
501.943
493.13
185.736
553.127
156.737
206.581
466.726
433.943
559.902
206.491
246.161
51.8907
164.775
192.717
164.243
427.75
97.533
181.232
31.6945
57.2949
118.706
96.5905
176.861
62.0618
156.417
36.8772
63.5973
106.495
117.412
166.856
59.3115
166.605
66.3514
62.7455
150.084
155.664
157.927
70.7829
117.005
30.2512
59.7881
125.569
95.0904
142.754
44.5292
16.7229
32.431
18.9415
60.6276
40.6876
70.8363
38.6633
369.929
401.346
315.885
990.535
940.735
850.569
746.294
364.112
181.203
219.641
401.898
413.344
373.035
175.371
366.356
169.869
131.963
450.792
479.329
344.659
134.867
510.805
231.565
182.103
570.455
597.823
480.142
196.828
627.326
266.241
245.527
658.798
657.119
608.522
252.462
601.97
151.922
252.089
556.501
419.482
633.645
238.143
280.018
93.6827
84.071
291.741
285.331
275.589
85.0535
163.617
63.2258
53.6292
174.216
169.935
174.917
54.7746
169.422
73.9674
75.2517
178.337
171.321
172.3
73.8981
19.9476
39.972
20.0806
105.93
48.011
102.753
50.2178
292.288
415.555
393.937
720.624
693.672
911.322
1004.92
381.924
136.228
191.075
280.686
270.167
342.821
164.022
418.835
104.114
150.798
254.006
257.723
418.371
152.572
367.234
87.214
142.99
223.54
196.619
387.343
136.682
351.835
80.3329
138.954
161.315
154.056
363.617
137.288
262.039
81.5109
119.876
136.993
139.651
285.983
111.648
101.944
90.2499
79.0646
167.19
155.849
105.277
74.8421
112.64
20.9205
54.4888
177.138
101.145
166.432
27.406
33.4098
29.4403
9.79976
63.5075
80.4897
31.9707
11.5526
19.3693
16.4141
24.9192
42.2623
39.8034
25.0904
45.6411
487.519
639.567
573.997
1115.43
1135.22
1107.78
1043.79
553.146
238.111
330.99
537.048
548.797
552.519
249.314
496.85
178.025
183.714
523.617
506.79
517.44
172.588
409.71
157.096
140.581
455.644
457.236
414.317
137.542
448.355
193.23
149.162
511.536
523.336
439.212
155.754
285.18
123.099
140.207
475.909
359.909
387.524
99.2699
97.7543
47.1496
39.1834
105.107
105.579
91.0272
42.93
113.381
50.7007
52.8399
131.157
124.954
118.942
47.352
43.9621
21.3033
23.7978
55.8316
44.8324
51.9592
21.0088
25.8778
27.9519
27.6358
35.6834
55.6426
48.0554
60.4823
356.842
510.878
392.789
882.452
877.568
930.711
891.201
259.853
317.057
298.23
764.852
638.16
693.076
565.334
189.561
229.894
186.041
547.001
524.375
482.736
431.317
160.176
147.758
135.517
465.531