/*--------------------------------*- C++ -*----------------------------------*\
  =========                 |
  \\      /  F ield         | OpenFOAM: The Open Source CFD Toolbox
   \\    /   O peration     | Website:  https://openfoam.org
    \\  /    A nd           | Version:  10
     \\/     M anipulation  |
\*---------------------------------------------------------------------------*/
FoamFile
{
    format      ascii;
    class       volScalarField;
    location    "1.5";
    object      k_0;
}
// * * * * * * * * * * * * * * * * * * * * * * * * * * * * * * * * * * * * * //

dimensions      [0 2 -2 0 0 0 0];

internalField   nonuniform List<scalar> 
12920
(
202.413
888.585
1255.45
887.58
569.733
333.538
227.389
188.05
159.408
137.892
115.483
98.7756
91.6118
92.1696
93.7869
97.9535
97.9538
95.0783
89.808
75.7981
1594.71
1531.15
1235.27
721.996
565.953
444.391
362.296
302.288
238.027
201.711
169.04
145.914
121.421
103.188
89.9727
77.2741
69.9771
66.9723
65.7585
60.45
1570.63
2055.68
1240.19
914.678
723.675
584.862
419.894
333.449
243.961
209.146
173.453
141.873
108.22
80.6345
62.0805
51.6074
47.7961
39.7408
35.5238
26.6829
5736.27
2360.45
1380.68
731.204
539.643
401.479
269.284
199.773
119.88
100.507
88.5341
86.3331
71.4206
52.1779
36.9003
24.4289
14.9202
7.24285
5.978
4.60583
908.468
1750.64
1686.81
1193.7
767.333
499.496
324.986
199.027
106.084
53.0753
28.394
26.9817
21.4769
14.9403
7.9857
3.67495
1.60087
0.674406
0.597673
0.469176
1274.95
2284.53
1495.23
960.465
725.97
589.193
398.935
255.469
112.86
41.0594
10.6523
6.32397
3.35162
1.79292
0.739273
0.279442
0.0822065
0.0220714
0.0177929
0.0197618
7166.06
1858.18
1107.45
672.777
620.044
477.709
358.032
198.539
79.0535
13.6463
3.72899
4.26927
7.48359
3.98936
3.50059
2.17618
0.766782
0.176354
0.0305443
0.00494718
11279.2
2605.36
1442.3
885.405
696.646
519.341
271.146
201.286
99.6996
15.7187
3.83716
10.2748
24.4065
17.1123
20.0377
12.5825
5.32868
1.63781
0.377979
0.0605065
11946.3
3018.12
1938.57
1206.53
822.549
367.975
242.29
162.811
166.206
64.6221
38.1018
33.7421
61.6172
47.1938
22.2869
21.6825
12.7484
5.11774
1.61239
0.345322
6017.41
2507.08
2025.83
1351.84
915.516
445.674
222.909
159.889
218.345
268.254
213.539
87.4259
60.5453
77.3663
40.6842
25.059
17.397
7.22875
2.38056
0.563033
4998.61
3579.73
2616.32
1516.19
810.479
349.245
167.681
104.685
92.8661
81.599
78.8373
108.619
42.0292
18.032
18.8149
40.2275
26.511
9.10161
2.62814
0.563995
9890.29
2284.07
1497.87
1062.32
925.99
526.219
294.137
184.658
156.215
186.135
176.043
45.3189
57.6855
24.6602
21.6123
48.0358
30.2553
10.2318
3.31615
0.783499
4095.52
2880.79
2006.46
1338.38
1046.19
900.745
462.997
294.953
213.545
167.443
144.762
95.6819
62.0212
49.3692
54.4214
49.8555
44.5061
31.1017
16.6449
5.22974
4050.42
3629.28
2484.42
1524.32
1095.51
926.874
667.012
427.549
282.672
187.385
138.443
106.374
86.0372
72.3138
67.0557
63.6665
59.1811
54.6265
46.5848
22.0503
8181.61
3532.43
2093.83
1344.43
991.155
811.906
543.219
327.018
203.944
147.014
114.904
90.7329
74.9675
70.4247
70.7308
70.625
65.3146
50.4401
34.6583
14.6508
789.665
1533.87
1485.28
1346.64
927.711
710.22
476.342
309.975
208.805
164.728
126.224
91.9489
61.5178
39.0096
26.7187
22.0193
22.7279
23.3155
22.5771
14.9671
871.821
629.207
1111.24
1235.1
985.371
660.554
446.648
391.026
312.864
245.786
165.059
97.9429
50.4061
25.0581
14.2612
11.3561
11.4537
13.191
14.597
12.9111
47.1571
833.653
1326.5
1187.96
751.203
551.545
423.516
387.148
335.185
302.527
245.208
187.491
137.578
95.4991
63.5038
40.7315
25.7436
17.2119
14.3658
8.6709
142.145
449.333
956.644
914.345
804.905
616.574
439.144
341.978
259.865
194.677
141.763
103.841
82.6167
66.7669
49.9669
31.4441
17.3678
8.66337
4.58322
1.6236
21.493
40.5217
91.2072
342.479
450.604
433.527
337.865
253.699
199.801
158.987
122.834
91.1671
64.3685
40.7744
22.4158
9.9551
3.80099
1.29436
0.438274
0.109184
373.144
1852.19
2675.81
2299.59
1439.01
741.086
484.539
374.361
306.956
268.879
242.282
228.238
215.271
203.083
190.95
176.175
155.881
129.224
120.479
113.645
5606.25
4079.91
3160.39
1802.07
1366.04
1025.82
823.694
699.886
562.05
498.73
427.026
381.707
316.189
255.046
182.537
116.474
82.0193
74.4547
76.5855
75.4215
3233.26
5922.33
3279.87
2130.13
1638.06
1370.11
956.565
790.855
592.629
522.495
425.83
349.642
251.36
163.866
94.5735
55.2143
42.7561
29.279
26.2372
18.8881
6271.01
8848.45
3930.25
1773.79
1298.91
950.681
649.988
486.46
299.838
275.681
228.848
209.343
149.656
95.6854
48.2448
21.1605
8.70008
2.97078
1.98198
1.90054
1798.4
4639.46
4461.25
2815.31
1668.85
1171.18
660.379
412.471
175.299
95.2683
49.5039
46.3845
35.9709
21.6997
8.80141
2.93911
0.865099
0.2271
0.147235
0.144301
6068.02
5529.39
3794.7
2355.02
1634.44
1403.71
804.583
474.591
146.742
56.738
17.3599
8.96507
4.2952
1.99345
0.902077
0.364984
0.0959616
0.0189032
0.00681943
0.0068421
14021.8
5402.54
2769.95
1648.63
1641.72
1176.32
852.998
383.833
126.993
28.8572
14.7532
8.35247
12.0542
6.41646
7.72666
4.55737
1.30437
0.263368
0.0430591
0.00569778
22098.1
8989.47
3436.09
2028.81
1823.74
1287.71
1086.96
746.097
345.066
83.1197
38.8448
62.958
63.5284
43.3272
51.0262
27.3819
8.83437
2.33548
0.494672
0.0771439
9605.11
8138.28
4809.65
2956.33
2078.03
1465.96
1134.09
1082.12
885.482
626.592
280.876
224.658
230.068
182.202
106.626
55.3796
22.5518
7.51936
2.11739
0.461823
12135.7
4617.5
4135.99
3351.14
2370.17
1704.8
1233.28
1043.72
1064.93
1103.42
989.441
541.64
301.059
268.984
146.356
55.8726
32.9336
12.8219
3.72513
0.831331
15744.2
6868.79
3663.3
2400.03
1568.67
1275.6
960.516
795.258
713.554
679.03
670.301
538.578
343.912
112.846
69.1344
54.0282
49.2573
20.6649
5.22058
1.0669
20647.6
6489.78
3698.86
2383.91
2157.37
1724.97
1410.36
1119.07
960.988
952.144
809.431
279.48
209.105
103.994
39.4202
85.3128
66.2799
21.8009
5.67799
1.18053
19944.7
9954.16
5012.82
3138.97
2366.32
2035.77
1463.79
1064.24
785.545
652.869
527.039
343.388
238.903
165.338
126.528
98.0787
67.1293
37.8869
19.3731
6.01069
14234.6
11306.5
6079.23
3655.53
2370.19
2102.44
1401.42
916.776
646.915
441.378
330.51
237.932
180.963
144.702
133.093
118.771
102.411
92.0817
76.1481
33.4626
18400.2
9677.37
5121.22
3356.36
2116.77
1773.37
913.426
649.483
441.131
355.205
287.995
249.833
237.621
230.024
214.644
185.696
145.957
97.68
63.0387
25.7283
4531.19
3986.82
3826.17
3435.09
2245.51
1729.49
959.834
703.53
460.614
363.638
288.366
216.708
161.867
103.605
66.259
41.9639
34.9869
33.1884
28.8562
15.6755
3943.16
2917.65
3285.56
3180.97
2319.35
1646.7
1079.92
905.243
614.324
421.417
228.585
112.411
51.579
24.5306
12.3733
7.89367
7.52237
10.677
12.9855
11.253
254.091
2324.39
2951.5
2784.52
1834.79
1435.77
1029.58
928.879
734.624
640.341
472.483
305.991
169.673
93.3626
53.63
32.4725
20.922
14.2458
11.6381
5.83591
29.5436
929.205
2119.03
2191.62
1812.08
1437.44
930.703
729.425
508.554
401.397
276.696
187.642
117.373
75.3568
45.9166
23.6674
10.2471
3.91976
1.65585
0.491743
114.075
520.404
629.154
924.837
978.476
910.757
669.125
507.943
399.493
313.89
228.219
152.087
90.6218
48.8497
23.046
9.04273
2.91852
0.813166
0.21331
0.0458165
4457.26
2792.44
3235.12
3079.67
2038.84
927.828
571.526
440.035
370.221
326.854
293.689
270.787
252.128
232.759
207.458
178.438
149.419
117.763
102.826
97.5301
11707.5
5521.95
4047.91
2449.52
1744.68
1251.01
1016
856.998
717.206
656.442
577.268
520.205
419.149
314.125
196.659
108.619
58.7786
41.2098
49.8468
69.4275
11881.6
7266.27
4558.37
2727.67
2048.99
1631.89
1183.28
965.182
757.348
675.424
557.595
454.676
309.232
180.43
80.3007
28.9648
13.116
8.56873
10.553
15.1714
12554.1
10577.5
6239.61
2550.34
1717.97
1217.49
903.179
670.69
473.717
430.896
339.39
280.864
171.84
92.5286
36.4076
10.8171
2.91954
0.949606
1.0289
1.82807
2575.3
6975.93
6073.22
3652.56
2093.25
1324.7
858.343
553.054
286.204
196.178
105.214
72.8002
36.7588
16.9031
5.59195
1.43705
0.335204
0.0968397
0.100162
0.170597
7040.23
7703.87
4949.67
2854.95
1921.78
1403.08
946.733
548.365
223.575
131.513
48.8182
19.2501
5.76364
1.68209
0.615525
0.255564
0.08895
0.024915
0.00877625
0.0103226
18144.3
7643.96
3596.55
2346.99
2110.21
1393.6
1065.12
459.76
214.545
96.4021
41.0076
14.1771
11.3726
3.8856
5.62256
3.61614
1.60002
0.633363
0.206778
0.0301857
24882.3
11741.8
4515.54
2843.27
2439.12
1687.89
1493.41
767.977
456.434
163.432
116.887
113.018
75.0624
39.7221
58.6412
32.8619
13.9651
7.00627
4.14564
1.53459
7877.26
8769.01
6361.7
4060.33
2703.4
2024.28
1659.46
1428.57
1031.8
788.463
408.276
366.925
288.735
204.245
217.645
140.037
53.6201
22.4247
14.6106
9.276
9328.76
6450.36
6324.57
4860
3219.05
2325.03
1751.06
1461.84
1404.05
1347.05
1132.31
773.792
472.596
397.391
300.647
199.98
106.365
45.1238
23.1437
12.7085
15227.5
7958.56
4945.12
3224.01
2425.1
1942.95
1589.91
1334.73
1266.44
1354.84
990.281
718.354
481.276
261.991
218.985
184.154
119.368
51.7787
25.8664
13.8961
20113.3
8233.4
4734.23
3083.75
2716.93
2283.56
1898.34
1494.79
1300.54
1215.35
997.36
583.464
279.069
101.014
88.7232
196.008
104.246
38.2241
17.1854
9.35759
22848
12086.2
5825.53
3648.01
2947.55
2302.21
1884.31
1364.97
1046.38
840.803
668.796
490.275
405.032
308.976
286.361
180.963
87.2586
36.8803
16.7243
5.26326
26855
15328.8
7005.46
4088.33
2776.59
2165.87
1576.7
1082.86
890.445
677.938
564.563
458.567
381.159
311.838
276.129
229.17
193.2
152.411
93.3898
31.2313
22891.6
10889.9
6166.07
3770.29
2361.03
1751.22
1090.03
815.428
664.395
556.735
495.284
428.166
377.124
319.532
260.837
200.402
150.123
96.4503
48.8024
14.3405
20975.8
7738.01
5741.38
4441.42
2700.45
1922.18
1088.33
772.506
539.753
415.7
366.874
286.384
233.164
155.133
100.05
55.1085
32.3267
17.6315
10.4795
4.36158
15898.2
7076.13
5108.6
4496.14
2963.87
1996.74
1245.02
911.068
530.2
310.824
174.712
97.7334
56.1772
27.4403
13.6661
6.70153
3.81951
2.98321
3.85789
3.98071
4412.49
3743.93
3954.82
3674.35
2496.24
1806.1
1245.29
1003.87
707.12
482.555
251.108
105.538
39.9298
16.3525
8.05057
4.85307
3.88337
3.47798
2.89077
1.18305
506.647
2159.21
2929.33
2887.62
2195.77
1606.6
1048.52
799.487
533.859
367.45
215.501
121.769
67.9165
36.2119
16.7132
6.3329
2.1525
0.648631
0.194467
0.0451672
71.4466
999.676
1513.69
1453.07
1240.26
943.957
699.865
534.861
409.734
301.465
210.815
135.511
80.2697
41.6981
18.1912
6.49373
2.01139
0.546627
0.133811
0.02731
4448.57
4252.94
4278.46
3604.29
2075.01
946.673
575.116
445.855
380.587
337.561
302.33
278.987
266.804
256.755
234.743
202.46
178.545
152.261
131.525
112.377
13842.5
6424.93
4873.87
2963.68
2041.81
1388.69
1184.3
960.656
866.148
787.779
723.007
650.295
544.608
433.5
323.826
227.91
163.374
124.914
119.27
137.312
14771.3
7221.78
5196.87
3054.02
2408.32
1758.93
1390.1
1080.82
924.514
811.106
699.038
571.299
419.841
277.526
155.162
77.2223
46.6777
41.1936
54.6566
72.5789
11207.8
8849.5
6761.25
3133.5
2093.3
1414.01
1148.05
818.218
670.327
589.911
477.278
372.303
226.089
117.533
49.3824
17.6315
7.2198
5.39022
7.9078
11.5306
10478.4
9133.77
7678.36
4430.19
2438.13
1440.83
1085.92
675.823
477.039
359.075
237.898
158.867
81.5289
36.0586
13.2921
4.45047
1.8168
1.07148
1.17431
1.57866
25217.3
11033.8
6026.16
3365.02
2192.34
1438.41
1115.02
637.197
412.766
282.971
143.788
86.7462
31.6001
12.7965
5.06712
2.68546
1.63219
0.782522
0.320287
0.288839
15852.2
9229.24
4496.69
3019.96
2442.91
1530.76
1187.29
583.868
418.802
212.556
92.8125
27.8668
19.6445
11.5425
17.7278
19.2538
19.3107
14.3887
6.53715
1.84417
21793.6
10274.9
5232.72
3513.97
2890.93
1930.09
1620.52
760.729
548.181
317.195
211.52
102.243
57.0045
31.352
96.3793
86.945
80.9756
76.6113
66.1291
41.4412
22329.1
12263.5
8213.78
4884.25
3127.86
2301.97
1908.26
1460.25
954.716
673.499
445.068
460.348
279.129
225.598
253.055
200.035
140.291
123.477
117.276
103.003
21835.7
13540
10241.2
6232.82
3868.28
2657.27
2016.06
1647.52
1481.24
1257.12
1000.17
798.169
581.364
523.451
480.729
373.982
226.661
162.459
140.608
117.392
17942.3
12187.3
6979.58
4129.77
2982.94
2352.7
1959.91
1665.59
1573.79
1526.03
950.139
480.332
494.06
621.681
534.433
438.394
256.211
175.89
148.295
122.881
36158.2
9744.18
5590.17
3745.09
3112.7
2564.45
2154.79
1671.29
1418.21
1232.61
950.127
553.855
347.881
517.827
527.881
362.9
191.845
132.243
116.41
104.896
22841.2
11513.8
6056.11
4079.24
3434.11
2468.66
2041.35
1482.78
1146.11
908.442
777.339
689.21
658.75
594.59
429.731
229.379
124.707
74.917
54.8042
32.5831
13948.7
11697.2
6653.12
4093.78
3177.56
2138.42
1699.19
1199.11
1042.3
844.661
784.413
717.846
675.881
576.371
452.909
324.771
226.484
134.757
62.0106
16.0785
18440.6
9440.16
6414.2
3716.96
2596.05
1682.68
1295.75
953.845
881.18
738.373
700.452
613.103
560.638
460.477
353.975
229.705
127.313
52.9206
16.7738
5.89394
16955.8
9691.37
7599.43
4797.25
2983.56
1851.36
1164.22
797.534
646.951
508.904
481.128
380.984
319.359
212.052
134.484
70.6258
38.6415
22.3512
12.0288
6.60399
14754.1
9587
7698.58
5289.72
3267.81
1957.89
1243.94
783.235
478.663
299.757
224.964
155.605
122.094
73.0487
47.2236
27.0442
16.8933
9.45757
4.50017
3.58603
13513.2
7706.68
6004.24
4393.2
2916.91
1855.73
1318.75
916.304
589.402
330.909
177.832
106.476
71.4882
44.4186
27.8972
14.2839
6.34162
3.28317
2.8065
2.35676
4656.21
4360.47
4081
3374.45
2407.14
1491.43
1034.39
723.496
471.924
282.402
165.488
100.196
63.4266
39.3321
24.2021
13.2872
5.9848
2.59693
1.66121
1.46042
131.549
1315.39
1716.69
1520.24
1153.02
807.754
623.484
472.498
362.3
255.849
177.119
114.345
67.6631
34.9157
15.4925
5.91336
1.94712
0.544298
0.135142
0.0304539
11031.9
7515.49
4837.34
2913.42
1268.15
682.39
504.079
411.278
354.774
310.442
283.131
271.262
271.222
270.413
265.551
244.132
235.16
233.277
228.309
187.416
61361.4
10550.3
5000.83
3313.35
2281.23
1697.95
1447.89
1172.48
1088.3
948.028
900.234
783.292
721.886
616.846
563.29
484.15
460.46
427.375
421.99
423.089
11201.2
8070.72
5686.91
3701
2830.46
2123.02
1683.41
1309.23
1173.58
991.473
888.629
713.12
628.79
508.258
447.057
345.251
316.548
308.953
330.701
339.441
17502.5
8817.95
6501.31
4125.82
2556.52
1979.17
1467.62
1105.51
961.513
787.456
682.509
511.869
415.007
303.111
233.846
150.407
112.02
101.009
116.765
124.854
28003.2
12935.3
9246.37
5216.34
2829.07
1898.9
1432.1
949.205
795.456
578.503
487.726
352.566
293.481
192.995
133.35
77.9196
55.2157
44.6697
46.8193
50.5412
24849.2
12597.3
7032.79
4771.26
2651.28
2102.81
1421.17
927.397
718.996
489.108
342.974
269.114
173.765
122.233
77.4359
52.7615
36.5947
26.0282
22.2502
23.5531
27318.4
10944.3
5529.99
4581.4
2899.35
2145.98
1612.55
1003.33
742.429
397.725
224.412
141.719
135.1
113.911
134.068
144.858
148.974
126.013
81.0303
49.9836
25294
12213.9
6272.69
5018.69
3401.91
2568.3
1744.46
1018.79
742.038
460.575
356.371
184.322
200.215
188.851
290.254
284.007
287.439
287.994
276.41
243.229
28517.7
15319.2
10132.3
5931.93
3643.73
2633.19
2112.57
1378.76
910.626
640.509
587.32
499.263
346.203
328.172
352.754
352.091
333.774
338.505
338.752
334.76
25965.7
17251.3
13280.2
7026.21
4332.93
2897.65
2232.23
1749.31
1378.59
984.041
826.169
759.915
661.538
627.75
588.698
450.231
379.795
364.628
360.158
353.109
48017.1
18570.7
8592.53
5274.73
3551.52
2681.72
2232.24
1897.26
1623.08
1231.1
791.359
649.074
815.215
907.169
777.902
502.718
400.84
376.729
369.555
362.868
54560.7
15044.6
6719.23
5356.54
3521.88
2882.67
2383.21
1802.25
1442.15
1094.17
851.197
771.946
895.634
931.786
768.254
438.974
366.727
354.554
355.798
357.334
15876.9
13070.9
7173.13
5267.77
4198.84
3098.99
2194
1581.95
1242.8
1021.25
974.105
950.329
939.352
817.084
460.544
353.402
321.46
305.555
292.506
256.438
23444.8
11114.7
6755.2
5082.33
3841.3
2533.67
1917.37
1472.45
1210.79
1023.9
1000.27
916.543
876.332
709.968
575.39
428.434
330.367
207.047
146.949
109.951
14384.6
10835.6
6589.8
4723.68
3066.06
2097.78
1604.47
1196.73
1091.1
903.784
874.61
738.837
688.851
540.565
440.29
291.834
195.693
123.477
99.251
93.0408
18984.3
11705.5
8559.54
5086.69
3401.85
1897.54
1376.85
907.305
834.806
650.521
616.119
480.482
443.002
324.908
268.469
178.588
138.822
109.323
105.89
108.011
8832.54
10580.8
9698.61
5359.35
3602.03
1935.57
1339.68
756.323
594.325
426.846
413.673
348.81
328.489
244.03
186.358
126.42
100.288
88.1945
88.0192
92.083
8518.47
7931.37
8001.42
4646.36
3418.04
1887.73
1514.84
839.404
648.698
412.711
404.871
345.856
324.723
249.832
207.245
140.425
106.235
86.0619
83.568
86.125
11834.2
6271.18
6119.06
3861.33
2845.74
1411.85
1190.77
662.475
545.308
333.693
305.21
246.395
241.021
223.514
211.589
174.248
126.158
84.5925
71.4882
69.4229
798.773
1706.62
1779.2
1410.41
914.479
632.838
484.022
349.216
251.905
173.588
120.112
78.8984
48.4409
27.0344
13.8148
6.20179
2.37193
0.840106
0.423259
0.391399
1204.98
1400.26
1114.11
1310.04
1120.85
1542.92
1096.89
871.628
1038.9
889.261
1052.51
859.925
919.86
549.174
1071.64
1276.69
1178.83
1539.26
1097.6
1345.57
1197.6
828.424
1110.43
748.477
908.088
509.125
1112.92
797.244
151.982
203.419
163.023
879.541
916.948
996.81
925.753
175.105
170.88
215.243
924.997
853.418
925.981
958.197
112.856
228.482
254.878
790.698
624.917
968.138
972.687
49.8665
253.311
147.333
519.655
294.392
958.721
784.506
33.9206
86.0974
92.0028
229.319
189.295
646.255
438.397
52.2794
98.8408
62.4111
188.084
207.311
423.43
281.942
58.9536
61.7298
78.2204
207.679
194.648
254.034
251.1
11.0053
75.2102
30.989
170.689
85.5441
242.954
156.192
155.907
183.194
109.249
995.244
891.71
736.91
604.081
203.466
98.5979
81.4769
884.31
916.449
560.96
492.819
263.309
80.2095
81.9509
936.544
989.895
492.042
503.621
243.738
86.1434
116.355
995.715
952.327
518.777
620.644
81.0842
138.113
170.93
896.78
535.526
657.859
685.833
64.7586
135.55
66.6556
465.428
312.705
606.57
396.594
78.2418
37.7857
29.9121
259.319
244.955
297.045
151.604
40.6029
46.5189
45.594
243.458
185.46
156.149
155.619
108.719
280.964
187.846
718.654
644.445
1110.2
978.372
99.5666
182.222
166.504
626.602
577.035
939.633
844.782
82.4449
163.506
180.603
556.093
497.401
829.821
844.004
78.1461
191.401
202.222
491.934
481.237
852.229
823.556
109.903
194.377
62.4718
478.765
464.125
784.698
348.715
65.4906
51.4188
60.391
416.537
330.245
215.428
165.295
13.1627
59.2826
27.8479
301.818
100.24
181.744
109.519
24.6727
22.1253
13.8798
100.034
128.531
80.3246
36.3154
193.85
395.059
209.734
1175.15
1017.98
1155.55
1004.5
162.454
203.109
152.839
966.985
846.678
929.561
745.051
175.788
148.074
128.732
826.45
834.939
686.975
645.303
193.428
128.573
125.579
841.433
791.272
626.954
549.818
48.195
118.685
52.8339
728.228
301.681
502.776
303.19
58.9407
41.776
29.9724
202.861
167.222
254.38
160.747
29.9717
28.4404
17.3204
176.912
117.611
145.688
95.6712
15.9121
16.7131
14.3291
90.9309
43.9448
86.7947
68.3729
1092.67
1229.13
1093.2
1561.24
1434.47
1662.51
1439.16
959.262
1083.74
1087.65
1376.87
1117.36
1408.04
1343.75
716.391
1088.88
1074.36
1023.43
851.972
1323.41
1248.61
352.171
1053.96
886.676
779.167
482.615
1209.17
1033.08
226.855
768.176
508.597
391.292
335.943
947.656
699.841
233.378
476.301
329.291
333.835
306.367
639.057
466.043
206.86
293.061
278.475
282.097
219.224
417.543
362.152
105.52
267.237
178.317
199.342
182.822
343.771
273.271
1061.67
999.098
794.561
1651.83
1419.57
1491.99
1261.37
1051.59
745.901
673.131
1384.53
1345.94
1211.11
1151.16
1102.05
672.501
694.122
1343.59
1333.37
1155.2
1216.78
1048.1
716.449
799.836
1316.1
1195.9
1250.59
1129.03
646.859
816.068
788.934
1125.47
846.521
1074.62
917.815
368.337
705.687
446.253
736.255
517.755
817.21
574.665
271.976
355.873
165.572
433.439
370.447
473.214
247.823
205.491
165.967
169.268
361.142
300.634
257.115
281.34
823.173
1328.15
1133.65
1462.97
1265.14
1720.9
1457.47
731.48
1087.08
981.784
1221.4
1149.68
1397.92
1276.85
677.874
964.487
965.489
1145.75
1174.67
1255.3
1229.16
679.024
967.892
921.418
1194.92
1063.86
1220.78
1134
610.469
876.746
447.47
1006.07
837.032
1070.62
686.8
365.73
284.092
201.794
724.842
514.693
550.689
388.163
114.738
213.634
121.576
461.615
190.754
318.673
111.182
137.025
90.4169
41.6493
196.165
243.331
87.5102
54.1417
1178.77
1476.19
1195.13
1813.39
1497.3
1899.89
1523.64
984.289
1093.37
877.271
1425.9
1271.49
1392.5
1128.12
952.577
812.121
757.825
1240.51
1190.45
1062.08
965.758
878.051
732.419
626.204
1173.18
1047.81
922.806
753.834
395.363
569.514
357.279
969.288
626.744
684.225
471.163
207.799
306.44
196.628
522.403
349.032
424.078
300.63
131.807
182.349
117.053
287.132
134.91
278.96
197.954
48.7149
108.371
77.1648
107.462
53.4098
184.758
124.855
1503.54
1753.19
1514.46
1860.85
1595.69
1955.29
1657.61
1128.84
1477.04
1393.09
1472.79
1081.61
1598.3
1444.4
863.276
1365.72
1268.8
983.112
808.955
1392.62
1227.31
495.448
1223.26
1042.46
715.317
469.718
1161.16
973.803
367.786
963.344
736.015
430.608
453.343
913.558
767.32
321.652
679.229
504.128
444.713
331.691
730.389
579.119
220.008
454.862
390.331
282.973
225.287
531.365
453.145
202.89
370.262
307.25
218.803
237.16
435.764
403.668
1501.1
1619.41
1380.58
1959.58
1669.17
1898.92
1651.09
1411.28
1331.29
1277.42
1615.5
1515.27
1601.17
1544.97
1374.98
1283.54
1355.59
1486.45
1368.96
1548.41
1570.56
1425.83
1308.89
1425.28
1356.72
1405.02
1310.06
1461.01
1141.48
1052.9
1237.38
1121.87
1157.84
1046.69
1224.49
553.742
802.37
608.468
805.999
615.895
572.438
625.037
407.527
496.578
303.117
561.119
510.784
526.192
527.326
333.647
324.399
335.114
498.036
443.48
559.167
512.874
1380.67
1823.92
1534.32
1880.5
1648.63
2043.27
1708.01
1266.47
1471.78
1345.8
1597.88
1525.4
1635.17
1483.7
1308.82
1322.42
1288.44
1524.7
1547.11
1450.27
1375.24
1371.85
1292.28
1311.46
1434.62
1295.25
1209.65
1399.89
1071.44
927.092
1132.78
755.177
1060.71
716.434
1155.92
562.027
631.491
410.627
520.383
565.284
683.405
314.557
243.31
309.481
104.928
476.144
490.55
252.77
319.917
294.688
91.9788
81.3058
536.08
508.186
382.032
414.788
1569.37
1986.77
1593.05
2101.85
1723.7
2169.16
1715.6
1334.63
1456.76
1183.56
1638.11
1449.9
1570.52
1282.17
1238
1116.04
1004.84
1404.11
1293.21
1208.12
1049.41
1077.68
956.664
775.041
1250.7
1071.08
987.116
801.398
680.962
704.562
496.161
986.336
701.797
740.92
580.307
357.051
453.442
328.411
592.898
308.067
556.015
493.804
119.891
309.955
235.864
262.29
323.776
488.073
469.571
69.3884
224.432
162.775
370.256
398.112
462.978
411.952
1598.2
2005.23
1685.98
2044.42
1560.18
2149.29
1750.5
1050.46
1617.46
1435.29
1386.8
978.376
1648.86
1370.03
773.726
1374.22
1182.14
898.489
699.611
1278.58
1008.15
465.657
1109.25
926.081
615.014
534.018
926.783
797.808
475.445
874.058
760.948
537.612
527.194
777.058
740.046
327.547
728.874
588.351
483.422
335.695
712.768
595.898
231.137
541.216
467.607
306.72
288.049
560.207
515.951
242.082
453.395
429.063
282.867
289.048
508.652
485.381
1708.28
1975.69
1720.58
2171.83
1808.8
2172.54
1901.8
1521.33
1668.53
1598.76
1720.46
1488.25
1837.66
1681.83
1326.28
1594.14
1568.97
1405.27
1129.16
1625.57
1391.23
1063.4
1525.9
1140.93
1041.83
880.789
1296.72
991.41
838.48
959.556
548.697
846.305
781.192
852.719
643.311
626.709
566.224
611.204
757.27
655.323
645.728
695.188
535.512
548.928
605.78
631.463
603.798
719.259
803.965
475.81
627.328
565.64
593.681
555.58
802.109
710.266
1718.86
2101.93
1753.92
2161.09
1904.85
2265.05
1886.82
1581.94
1676.93
1511.69
1841.11
1682.29
1794.97
1570.02
1555.42
1472.36
1371.42
1627.43
1409.29
1501.41
1277.45
1146.32
1331.19
1158.89
1320.9
990.912
1199.18
964.156
477.234
1066.04
731.212
821.958
560.249
864.241
630.574
538.375
603.615
333.905
562.853
674.522
608.83
686.041
587.837
325.237
471.704
718.484
838.302
736.837
856.458
569.166
524.366
520.647
840.405
745.889
858.07
771.078
1761.65
2216.48
1737.3
2317.67
1868.69
2368.49
1776.63
1469.6
1590.09
1298.31
1761.56
1507.17
1623.68
1334.38
1284.2
1221.56
1049.36
1433.26
1203.36
1252.58
1048.67
1036.81
984.874
809.246
1123.99
913.577
988.805
876.781
660.045
755.535
621.246
843.386
687.298
850.695
811.599
349.945
607.72
573.056
672.321
727.679
816.136
834.75
474.428
571.449
564.275
766.467
851.668
836.734
821.35
510.479
557.542
498.417
847.923
759.772
796.892
700.638
1562.36
2207.1
1780.35
2636.63
1949.38
2661.09
2156.14
984.747
1666.28
1355.31
1720.05
1349.7
2005.29
1615.86
714.043
1255.02
968.087
1296.06
1193.91
1500.36
1216.69
585.602
891.58
790.128
1111.24
1072.07
1162.23
1097.59
550.788
777.46
747.114
1067.03
1046.99
1087.18
1051.11
367.064
718.379
613.157
963.334
893.446
1025.41
1000.39
333.295
583.117
548.059
869.925
888.826
986.683
990.626
330.374
541.312
510.152
861.624
746.886
991.216
877.126
1848.83
2242.92
1962.23
2647.59
2229.61
2682.72
2358.52
1476.74
1891.46
1693.37
2095.86
1725.24
2258.67
1938.87
1069.75
1613.55
1308.44
1588.75
1243.11
1799.34
1356.54
849.198
1203.94
925.816
1177.7
1101.93
1249.12
1087.14
782.518
821.028
691.453
1090.48
1046.72
1061.27
1039.49
678.171
698.18
763.022
1026.27
1029.11
1043.07
1134.59
637.992
795.938
867.211
1035.13
1041.31
1187.72
1240.12
586.338
858.174
757.292
1040.12
938.664
1231.96
1107.24
1967.28
2328.33
1940.58
2652.88
2363.58
2749.03
2312.66
1700.11
1842.64
1590.68
2266.59
1953.41
2192.99
1863.43
1332.48
1508.52
1236.46
1818.2
1381.75
1745.66
1380.91
921.862
1148.45
923.345
1270.46
1086.63
1289.68
1162.8
637.847
843.126
711.955
1053.26
1036.59
1143.01
1136.78
765.146
714.286
822.372
1049.76
1171.56
1153.47
1284.16
913.48
873.075
954.104
1231.67
1293.27
1324.59
1348.23
801.411
944.482
836.615
1283.81
1156.28
1333.47
1183.75
1915.95
2444.61
1810.28
2765.85
2269.37
2841.05
2140.28
1525.88
1652.82
1362.2
2139.32
1803.68
1979.11
1662.38
1178.37
1278.83
1068.29
1698.64
1371.36
1578.43
1383.1
903.794
1012.38
923.046
1292.74
1193.51
1345.71
1284.42
768.815
905.911
888.084
1184.61
1189.53
1290.78
1296.29
858.536
895.367
920.899
1205.7
1311.82
1300.82
1295.77
946.196
921.79
892.54
1332.98
1334.02
1291.95
1222.71
822.188
860.074
739.16
1313.94
1170.22
1183.56
992.377
1369.33
1260.61
1306.03
1194.89
1362.61
1254.93
1301.62
1463.03
1431.82
1349.44
1474.32
1415.18
1496.92
1301.14
1374.84
1300.39
1216.17
867.925
1366.9
1281.34
1020.41
1419.49
1344.22
1248.43
1442.22
1289.46
1466.88
1385.02
1351.59
1166.05
1184.35
1231.28
1228.83
1275.14
1311.93
1479.37
1517.21
1527.27
1449.16
1530.34
1315.47
1464.88
1370.95
833.561
1243.65
1276.64
1260.1
1009.16
1358.9
1049.76
966.36
961.761
880.152
1065.37
966.069
951.499
1103.33
1225.65
956.648
784.665
1148.56
1189.99
715.792
999.359
970.359
913.767
771.922
1061.58
921.562
721.381
1106.52
1094.52
988.141
1144.42
1024.56
1191.85
1059.09
1016.65
874.886
922.564
896.125
951.468
926.75
973.846
1043.4
708.335
1122.38
735.037
1152.23
580.202
995.855
925.269
619.146
800.126
590.873
851.826
557.963
873.883
1314.69
1161.94
1198.91
845.323
1257.52
972.641
1237.61
1355.69
1306.39
1256.94
1317.74
1297.66
1368.39
1293.93
1323.4
1225.85
1225.33
1206.29
1271.68
1269.94
1257.57
1430.12
1492.1
1436.56
1493.39
1254.96
1463.56
1452.88
1352.46
825.35
1263.57
1262.33
986.509
1254.78
1368.46
1390.73
1340.86
1426.71
1308.54
1410.08
1311.25
1398.07
1349.73
1213.42
1276.98
1260.27
1288.05
1269.72
1349.13
976.037
869.353
843.777
715.191
973.684
695.993
840.415
1107.38
1166.19
1014.98
1133.05
1083.55
1199.96
1036.62
986.078
803.934
888.14
795.55
962.414
844.428
918.065
1044.81
688.403
718.092
1134.14
593.619
1149.59
999.508
937.808
569.821
569.537
768.026
537.026
811.766
880.076
1104.86
1135.16
1181.42
1012.97
1206.19
1037.94
1071.98
987.535
816.364
841.809
905.994
863.781
927.385
957.752
232.094
265.319
249.228
630.969
708.015
593.424
726.719
152.353
245.165
216.307
555.58
318.343
701.866
592.184
58.8869
162.117
125.919
222.87
179.966
421.759
358.064
5.27264
70.7757
28.018
56.0811
14.2354
225.155
94.5103
6.83537
17.5081
21.1581
12.2
23.798
57.3138
71.2328
19.3977
27.2741
50.2185
33.7661
45.3738
88.7649
125.382
25.7693
62.9239
62.7967
51.0043
54.502
134.255
133.309
10.5058
41.8745
22.7199
35.3572
23.11
93.4114
55.3078
359.433
377.151
344.448
875.375
784.628
958.476
961.27
387.181
168.456
216.163
369.092
373.109
365.098
171.724
536.169
175.194
167.845
477.629
503.867
495.518
186.594
554.008
156.365
206.929
465.686
434.166
560.827
206.91
241.434
51.7248
162.968
190.098
165.091
422.404
95.3495
181.823
31.5778
57.6839
117.497
96.3436
177.264
62.4132
155.785
36.6384
63.1843
105.761
117.171
165.91
58.952
166.669
66.2756
62.8247
150.033
155.712
157.76
70.8027
115.968
29.7224
59.2758
124.51
94.0797
141.804
43.9188
16.7272
31.9261
18.8556
60.1645
40.4044
69.7273
38.2399
369.445
400
315.635
993.156
938.479
850.882
744.726
363.769
180.654
218.108
403.619
413.583
373.35
174.847
370.005
171.254
132.521
453.557
482.595
346.401
135.762
514.603
233.187
183.65
573.953
601.498
483.961
198.34
630.975
267.186
246.968
661.55
659.562
612.342
253.752
602.136
149.423
252.77
555.492
414.455
635.887
238.005
280.692
93.8744
83.6357
292.136
284.841
275.7
85.4101
162.915
63.1368
53.0829
173.209
169.495
173.324
54.5172
169.178
73.7268
75.1751
178.109
170.93
172.172
73.7595
19.7934
39.0175
19.9447
104.213
47.2262
101.085
49.5407
291.849
414.13
393.854
721.05
694.074
914.509
1005.89
382.022
136.031
190.186
280.488
269.749
345.243
163.653
418.638
103.977
150.677
253.651
257.039
418.27
152.417
366.055
86.8981
142.412
221.178
194.977
386.175
136.155
349.246
80.2011
138.443
160.953
153.675
362.393
136.543
258.287
81.8839
118.831
137.246
140.223
283.3
110.046
102.108
88.75
78.7185
165.875
156.307
103.884
74.2062
108.691
20.1052
53.5553
173.206
97.5555
165.217
26.264
33.1012
29.4129
9.74112
63.2457
80.3289
31.5584
11.5175
19.4946
16.44
25.2149
41.5487
39.7945
25.0472
46.1479
487.94
642.166
575.108
1116.81
1131.64
1111.34
1044.46
553.143
237.398
328.674
538.82
548.642
553.44
248.195
495.929
177.772
183.471
522.895
506.129
516.692
172.192
410.341
157.404
140.457
456.074
458.176
414.197
137.655
449.269
193.697
149.604
513.187
524.412
440.343
156.115
279.191
119.542
138.81
472.59
350.929
383.651
96.7903
98.5285
47.4862
39.2537
104.835
106.186
91.046
43.3706
112.559
49.959
52.6438
131.444
124.292
118.792
46.682
43.5119
21.1577
23.5288
54.991
44.3594
51.0772
20.8674
26.1724
28.0601
27.7426
35.647
56.1445
48.0843
60.8101
356.75
510.353
393.521
883.252
877.966
931.694
890.046
259.673
317.511
298.584
763.778
637.402
690.111
564.427
189.477
229.377
185.896
546.746
524.529
481.926
430.619
160.296
147.752
135.467