/*--------------------------------*- C++ -*----------------------------------*\
  =========                 |
  \\      /  F ield         | OpenFOAM: The Open Source CFD Toolbox
   \\    /   O peration     | Website:  https://openfoam.org
    \\  /    A nd           | Version:  10
     \\/     M anipulation  |
\*---------------------------------------------------------------------------*/
FoamFile
{
    format      ascii;
    class       volScalarField;
    location    "1.5";
    object      nut;
}
// * * * * * * * * * * * * * * * * * * * * * * * * * * * * * * * * * * * * * //

dimensions      [0 2 -1 0 0 0 0];

internalField   nonuniform List<scalar> 
12920
(
0.30437
6.60122
5.4896
6.68808
2.95427
3.41073
1.32747
1.57405
0.974678
0.991693
0.70638
0.6435
0.547721
0.560313
0.545238
0.565601
0.539865
0.491627
0.440468
0.376602
6.36594
6.68061
7.84133
6.0184
3.55068
4.72395
2.44369
3.32594
1.74231
1.90411
1.30482
1.27404
0.95917
0.852061
0.701528
0.594125
0.488415
0.427858
0.393814
0.386359
4.79826
9.42752
6.15876
6.75836
4.11247
5.42131
2.76638
3.47993
1.79804
1.93162
1.3364
1.22312
0.852548
0.666574
0.484057
0.398194
0.346974
0.294307
0.271427
0.226782
11.3085
11.0409
7.89163
6.07168
3.74185
4.49195
2.16151
3.17486
1.05546
1.2055
0.783934
0.850576
0.63548
0.486231
0.336791
0.236377
0.154153
0.0858575
0.0760653
0.0637113
1.95938
8.07288
7.0678
7.77224
3.85069
5.0287
2.11609
2.6975
0.90876
0.752625
0.297182
0.349348
0.244001
0.189442
0.0979747
0.049726
0.0217135
0.00967999
0.00856665
0.00657729
1.92176
10.6549
7.21936
6.95725
3.90024
5.44079
2.72934
3.34418
1.18986
0.784996
0.170062
0.122047
0.0577598
0.0308442
0.0125185
0.00459515
0.00130986
0.000335647
0.000267507
0.000288669
9.15692
10.144
4.57288
5.82266
2.84734
4.91038
2.39375
3.1726
1.02342
0.760669
0.0906256
0.248717
0.167657
0.101951
0.0652086
0.0390018
0.0120714
0.00269012
0.000450556
6.84891e-05
16.1417
11.655
6.08166
6.6796
3.59675
5.1152
1.03779
1.20733
0.541221
0.228888
0.0422372
0.131838
0.188903
0.137038
0.279523
0.161134
0.0701515
0.0214577
0.00517607
0.000808058
13.3472
13.2958
6.81886
7.81805
4.38276
1.97907
0.393231
0.323434
0.294696
0.143978
0.13826
0.139202
0.199572
0.141811
0.139279
0.247739
0.144039
0.0617896
0.0201839
0.00431449
10.6196
11.2128
7.48287
8.26084
5.24331
2.22065
0.355226
0.228691
0.309861
0.366115
0.280428
0.212132
0.156124
0.188167
0.217759
0.255959
0.179083
0.0811163
0.0286687
0.00683895
9.18768
13.3432
8.38562
8.7769
3.99687
1.64486
0.320346
0.161664
0.124995
0.0934779
0.0778703
0.106726
0.0895142
0.0449547
0.089766
0.392399
0.274846
0.104464
0.0318435
0.00677672
20.0495
10.7647
8.49993
7.27825
6.80606
2.57409
0.506796
0.304666
0.277184
0.335248
0.284766
0.0898033
0.0960563
0.0425903
0.0856287
0.429399
0.313103
0.124552
0.0418858
0.0095466
7.89488
12.1393
9.09299
8.20264
5.12284
6.73107
1.60192
1.43782
0.903612
0.871883
0.675219
0.427195
0.223672
0.17025
0.378485
0.359493
0.353017
0.280908
0.169869
0.0576859
6.94069
13.4538
11.2353
8.76374
6.0273
6.82233
4.51614
3.81396
2.32513
1.74887
1.20546
0.916279
0.649259
0.525923
0.456039
0.424402
0.384806
0.356458
0.32528
0.188577
11.8785
10.4552
8.06645
8.23606
5.27241
6.38532
3.46476
3.19647
1.78082
1.55992
1.10544
0.936833
0.710814
0.670895
0.633856
0.620621
0.545043
0.420844
0.293954
0.131889
1.75326
7.83825
6.92787
8.23577
4.9103
5.80811
3.10823
3.01071
1.80575
1.84182
1.29195
1.11989
0.694028
0.472956
0.293207
0.239149
0.222682
0.218361
0.197436
0.127824
1.56485
4.91624
4.10556
7.83009
5.69769
5.78916
3.2331
4.07709
2.64938
2.59184
1.53441
1.08752
0.534874
0.2941
0.154411
0.121743
0.112518
0.120276
0.124576
0.108147
0.106543
2.65899
4.4812
7.72217
4.41423
5.28057
2.97491
3.48715
2.42004
2.43472
1.7725
1.45674
1.01214
0.750595
0.497803
0.341751
0.219161
0.151563
0.127331
0.0781876
0.373843
4.77245
4.64015
6.76784
5.08069
5.57769
2.84768
2.77037
1.80433
1.58854
1.07268
0.869429
0.659179
0.567415
0.421624
0.291358
0.171337
0.0939868
0.0516312
0.0180941
0.0425421
0.518323
0.304853
2.10058
2.18556
2.69638
1.67193
1.4369
1.05946
0.967082
0.742967
0.627205
0.447189
0.330179
0.190329
0.0987356
0.0397334
0.014468
0.0049893
0.0011849
1.55753
23.6547
28.7761
24.6618
21.4712
15.3592
9.03711
10.6605
5.52261
5.8702
4.32987
4.47746
3.8631
3.76467
3.37734
3.07183
2.61684
2.01291
1.69178
1.65928
18.133
38.164
36.2098
27.5891
24.9936
21.4406
19.2213
17.8079
16.0265
15.3593
14.5272
13.8205
12.0641
9.76356
6.96729
3.61167
2.11509
1.59987
1.6757
1.67098
8.18165
45.4076
37.3318
27.0152
24.9229
24.0632
20.8727
19.5938
17.4094
16.3081
14.6067
12.8685
10.1916
6.82768
3.49341
1.59809
1.12093
0.770533
0.726642
0.660623
10.2739
45.3603
45.3548
28.3937
24.9443
19.8346
16.4177
14.2224
10.6241
10.9691
9.7843
9.0607
6.84024
4.6884
2.42629
0.98596
0.467539
0.205095
0.163243
0.214616
4.78818
34.117
44.0423
36.8987
27.8374
21.8883
14.1208
10.947
5.81868
4.36129
2.86066
2.78495
2.3645
1.69825
0.767687
0.313503
0.116043
0.0490081
0.032441
0.0326193
9.48564
50.0194
43.2917
31.6146
27.1723
23.0348
15.2742
9.98149
4.37312
2.72761
1.23363
0.778347
0.401278
0.228348
0.115179
0.0732933
0.0218577
0.0044825
0.00158158
0.00154497
25.6725
43.4358
38.7135
24.2799
28.7976
21.8146
18.1993
8.96581
4.02576
1.81791
1.09528
0.74542
0.980761
0.556747
0.653558
0.425204
0.165869
0.0437058
0.00802691
0.00117302
60.1242
50.9669
42.6582
27.7175
30.0607
23.9932
19.0211
13.2776
7.49648
1.53583
1.8987
2.25429
2.99763
2.04888
2.28988
1.35086
0.598502
0.261828
0.0789813
0.0150524
21.3868
43.7288
42.4315
34.0014
33.4528
23.2654
17.5508
20.1368
18.0826
11.7895
4.91775
6.32522
8.03659
6.56892
3.9929
2.28555
1.21198
0.61966
0.282996
0.08905
20.6141
28.5004
34.0632
35.6256
34.0135
25.4021
19.4991
18.1486
20.1844
21.1748
17.8843
7.5611
6.25756
8.5151
5.24736
2.14656
1.60361
0.936423
0.426439
0.146409
40.2617
38.1669
25.0723
21.8256
20.3413
18.9744
14.1908
12.544
11.5818
10.9287
10.5836
8.29701
4.30765
3.7406
2.25963
1.85376
2.2609
1.51407
0.596498
0.183271
45.864
48.706
41.1664
31.4925
34.0879
26.8374
22.3622
20.6267
19.9237
20.8796
17.4726
5.21253
3.84685
3.05355
1.2756
3.18808
3.00323
1.73275
0.709393
0.206951
64.6991
45.2891
46.3767
35.4789
32.8067
31.6025
22.2903
20.0107
17.7796
16.9191
14.2061
9.3545
7.03879
5.89727
4.73242
3.72557
2.61272
1.75433
1.34212
0.740977
53.397
47.0484
47.1909
38.3662
29.773
28.0431
22.625
18.1557
14.8124
11.6315
9.02033
6.7767
5.40949
4.58637
4.43921
4.14813
3.71747
3.43834
2.98183
1.86173
44.7265
49.1006
47.7885
37.4921
27.866
23.4221
14.0674
13.4363
11.5955
10.9429
9.45212
8.83899
8.56788
8.45067
7.8707
6.88587
5.56069
4.01929
2.90552
1.80844
21.5334
27.4843
35.4209
37.9654
29.338
24.0495
16.1628
15.0695
12.6388
11.5272
10.3158
8.72258
7.22331
5.16635
3.63032
2.4999
2.09846
1.97628
1.73033
1.07211
18.5905
19.8215
27.9303
34.775
32.043
26.2054
20.3991
18.6488
14.743
11.2168
7.41697
3.90851
2.57958
1.44158
0.832163
0.566885
0.472623
0.576994
0.816986
0.771595
1.5824
14.1615
23.9612
32.2028
27.3845
24.3684
19.9088
18.8143
15.984
14.0878
10.7781
6.56792
3.85845
2.14687
1.46006
1.0618
0.860959
0.717784
0.617894
0.393283
0.114229
5.80609
26.6911
30.565
29.431
24.3616
16.6163
13.9403
11.0975
9.853
7.42254
5.19444
3.44087
2.41275
1.72303
1.05937
0.620759
0.349228
0.194283
0.0996667
0.518174
4.66063
4.04904
13.6598
14.3151
16.8951
9.91743
8.59667
6.08929
5.51082
4.01914
3.05352
1.82811
1.13365
0.545169
0.23697
0.0790738
0.0236356
0.00637732
0.00131508
11.7273
29.4578
24.2076
30.9792
25.4693
17.2152
11.3252
11.7778
7.05673
7.68783
5.60368
5.73081
4.90226
4.71698
4.05526
3.5181
2.90872
2.3446
1.90207
1.78894
38.4434
49.0639
46.9908
37.6989
33.2993
29.9024
27.9211
25.6174
23.4256
22.2083
20.7162
18.9427
15.7638
12.0155
7.83728
4.73148
2.81947
2.01442
2.13743
2.85783
18.0054
48.6986
53.1333
41.7745
38.7014
36.3485
32.0459
29.0049
25.5711
23.5677
20.8778
17.5995
12.8913
8.353
4.28542
1.56114
0.765253
0.573008
0.663883
1.05365
21.1264
42.2555
57.703
47.1898
40.2026
32.8752
27.2514
23.2285
18.2717
17.5915
14.7391
12.4556
8.25621
5.34644
2.62613
0.913091
0.36201
0.155065
0.175058
0.313819
8.88134
48.8851
58.9892
53.8252
43.051
33.3875
24.4013
19.0379
11.3234
9.11969
5.65026
4.28352
2.61509
1.50209
0.607829
0.212495
0.0580818
0.0184284
0.019373
0.0344998
11.9385
51.5676
60.1297
49.1149
40.9554
32.724
24.9725
16.6198
8.41796
6.24545
2.89983
1.39168
0.551975
0.20735
0.08987
0.0428805
0.0164765
0.00496535
0.00177078
0.00214317
66.8096
67.4563
57.8819
45.5648
44.8511
34.2671
28.5193
14.5291
7.36315
4.81494
2.56386
1.15219
0.928071
0.366745
0.521125
0.364361
0.191817
0.091919
0.0345177
0.00593088
89.595
65.2237
61.6117
49.1975
48.4081
39.2757
33.6735
14.1537
11.6665
4.00753
5.10884
4.68728
3.5188
1.99553
2.73312
1.69151
0.93677
0.590736
0.401644
0.197224
34.681
60.1656
58.3802
53.2342
49.7717
37.7252
28.7616
31.7008
25.0648
16.7947
8.31478
9.54916
9.37299
7.30731
7.44603
5.05878
2.59558
1.43216
1.0467
0.762019
23.7555
39.6432
50.9088
54.1077
50.6847
43.285
35.6032
31.1429
29.7773
27.7985
22.667
14.0757
9.33059
11.0419
9.58036
6.34435
4.22414
2.42739
1.46942
0.963438
59.2764
58.4684
48.0576
43.861
42.7461
37.3955
30.8796
26.6418
25.0172
20.3426
9.99045
10.3334
7.30583
6.96117
6.7333
5.62978
4.59873
2.70895
1.58727
1.01938
61.3372
66.834
61.4612
52.0033
51.3515
39.9226
39.9778
34.7402
31.0587
27.6724
21.0478
10.9399
5.6035
3.11005
2.92664
6.21742
4.47727
2.35654
1.24536
0.773125
68.2962
64.5633
65.3532
55.1242
51.4793
46.2283
40.387
33.6305
28.9135
24.206
19.2503
14.2931
12.6992
10.9769
9.9871
6.35761
3.52135
2.03639
1.32671
0.649071
59.4355
60.9901
62.3978
54.7846
45.8076
40.711
35.8196
29.2084
25.6411
21.0705
17.6914
14.6785
12.4489
10.4209
9.27443
7.80336
6.77416
5.26982
3.38301
2.04764
76.6024
58.3495
60.7837
51.4467
39.7859
33.1186
25.3939
23.1021
21.31
19.2396
17.2841
15.3018
13.4669
11.4741
9.47071
7.52714
5.89076
4.19864
2.43421
0.917545
31.9197
43.5324
48.743
52.4157
41.9546
34.349
25.5918
22.0382
18.4652
15.5509
14.3992
11.5679
9.4865
6.49818
4.49759
2.82159
1.84691
1.08207
0.657924
0.301327
44.0165
36.1426
39.0831
50.3655
45.3246
37.0058
29.091
24.1047
17.4157
11.7994
7.66902
4.64857
2.8123
1.52781
0.864549
0.503571
0.317839
0.251189
0.302858
0.327376
11.8592
27.0133
37.3607
47.8074
42.9298
36.2197
29.5109
25.1497
19.9656
14.7352
9.0164
4.49006
2.07036
0.922125
0.584389
0.402764
0.337334
0.328698
0.296092
0.167367
2.27171
15.7679
33.6383
41.8289
40.3916
32.3388
23.8063
19.6216
15.2621
11.8487
7.90889
4.98387
3.22545
2.13796
1.32762
0.74272
0.343136
0.124064
0.0384079
0.00941368
0.149776
6.87366
16.3268
21.2809
19.7275
17.2495
11.2069
9.75759
7.12033
6.53701
4.62817
3.58288
2.03077
1.19786
0.504797
0.192693
0.059381
0.0168328
0.00417583
0.000799259
9.584
24.8022
36.4121
33.582
25.0615
17.3762
11.5503
11.8502
7.50158
7.83263
5.93142
5.83309
5.34413
5.38916
4.89702
4.2779
3.73173
3.32927
2.74179
2.2891
23.8812
54.5107
50.8491
42.3985
36.6184
33.178
30.5641
27.6496
25.2167
23.6672
21.7755
19.6526
16.4537
13.0904
9.72283
6.87713
5.02013
4.16202
4.163
4.74962
25.7551
47.2108
60.9118
51.798
47.0225
42.3745
36.7447
32.1321
28.1259
25.5497
22.2415
18.3961
13.6045
9.05004
5.22244
2.98093
2.00922
1.80241
2.28641
2.81894
21.9314
50.3162
63.1673
56.5378
48.0463
38.4549
32.6614
26.8783
21.9778
20.2398
16.4696
13.1439
8.35724
4.84411
2.45155
1.09197
0.501036
0.370619
0.493335
0.679372
25.4791
54.271
64.7496
62.6144
50.4731
38.384
30.6109
22.6195
16.1104
13.1515
8.73906
6.31391
3.6476
1.96488
0.891274
0.366846
0.165503
0.0992917
0.103399
0.132963
40.0382
65.0683
68.1713
58.572
47.6182
36.556
30.2946
20.7385
14.1939
10.6715
5.83435
3.77245
1.74679
0.847825
0.409525
0.248888
0.169313
0.0888993
0.0375498
0.0327733
32.4989
67.5641
68.321
57.259
51.6919
39.1672
31.7513
18.8189
13.3137
8.26723
4.11582
1.69011
1.20567
0.791553
1.12513
1.18762
1.15143
0.891517
0.475805
0.164336
103.186
78.1649
71.7054
61.0764
56.3708
45.2772
38.2476
17.0766
15.3867
10.0476
7.34533
4.13799
2.64684
1.58948
3.81566
3.56154
3.36471
3.13525
2.72488
1.79955
80.2104
78.5085
72.3604
65.6878
57.5815
47.826
34.3807
33.1381
24.2535
15.5272
10.5703
11.7191
8.67913
7.4232
7.96893
6.8189
5.18404
4.5926
4.31968
3.76726
75.2294
65.7756
67.935
65.2864
58.8492
50.9525
43.1707
36.0559
31.2475
25.8532
19.6122
13.8095
9.57347
13.264
12.73
10.3765
7.37352
5.66033
4.9766
4.18734
65.006
75.587
68.4789
60.8912
54.518
47.5964
40.7662
35.0518
31.554
27.2371
11.0361
4.3648
6.66456
13.615
12.7639
11.0845
7.9413
5.96004
5.14976
4.30681
90.6199
70.7325
73.3465
63.7372
58.6307
46.9311
47.0246
38.8344
32.4145
25.9679
18.6363
9.67628
7.02312
10.5235
10.6889
9.57069
6.36564
4.65497
4.09963
3.65763
77.4753
78.2508
76.6777
66.8553
60.8898
52.7862
46.6207
37.9503
31.0727
24.6706
20.4821
17.7919
17.0357
15.6618
9.84285
6.08439
4.28538
3.01454
2.25953
1.40889
34.7243
67.3501
75.1952
64.748
55.6575
46.5636
41.8662
34.0102
29.9583
25.2608
22.7937
20.5338
18.4935
14.7792
10.9815
7.85209
5.88115
3.91797
2.52108
0.984999
74.3276
71.6798
72.533
58.759
47.4762
38.1618
32.6531
27.9325
26.5352
22.9481
21.2691
18.2132
16.1113
13.1023
10.2278
7.26119
4.88383
2.63371
0.980619
0.364999
73.7294
65.9389
65.3145
61.7997
49.1944
38.7942
29.7199
23.7997
20.6381
16.8075
15.5725
12.2454
10.0667
6.80106
4.49255
2.59596
1.55576
1.00017
0.602817
0.364558
51.5108
57.1157
60.7551
62.7077
52.2016
40.9058
31.1373
23.0179
15.9071
10.5765
7.75892
5.32097
4.07159
2.49118
1.66322
1.06339
0.774376
0.530886
0.292427
0.241035
33.0581
48.8409
51.9075
58.4445
50.3311
40.3846
31.9957
25.0191
18.1187
11.766
6.73957
4.25419
2.91235
1.96757
1.32764
0.79365
0.409209
0.234104
0.210268
0.177351
18.3882
30.5149
41.1041
48.9104
43.2109
32.3626
24.7432
19.5632
14.6657
10.2545
6.66222
4.58984
3.23284
2.24482
1.48327
0.906014
0.453372
0.208884
0.132043
0.111707
0.268898
8.34177
21.2125
21.8155
19.051
15.965
11.0654
9.49181
7.39103
6.59834
4.26421
3.20736
1.73034
0.972037
0.41056
0.166468
0.0562184
0.0168227
0.00424969
0.000894612
24.1633
26.7201
13.5659
19.0885
6.86294
10.3721
3.69848
5.56767
2.80033
3.41353
2.42767
2.90181
2.59005
2.90223
2.64408
2.47158
2.2474
2.21885
1.99184
1.50458
76.2275
53.5015
32.9179
42.605
19.9358
31.833
14.5615
26.2053
12.2486
18.0654
11.421
13.6711
10.2421
10.2136
8.27472
7.50107
6.69547
6.57952
6.43138
6.79575
24.8447
46.045
41.5287
55.3615
26.6178
41.8274
17.6412
30.6341
13.79
19.0968
11.7823
12.9438
9.30779
9.06668
7.33222
6.65204
6.09585
6.20299
6.586
6.82776
42.7483
44.4585
43.0162
54.8375
29.846
34.9557
17.9318
25.9473
12.3617
18.6773
9.77417
10.4288
6.99048
6.44118
5.12446
3.77093
2.76107
2.48811
2.91238
3.06711
63.1888
65.2462
44.3875
66.0429
23.4006
35.5426
14.6968
22.5804
9.83365
14.0259
7.35249
8.19149
5.61162
5.14458
3.57042
2.0707
1.39884
1.0884
1.11538
1.15859
68.3218
73.1174
47.7172
55.4095
25.8753
32.2619
16.7973
21.2931
11.6367
13.4429
7.32049
7.79882
5.16647
3.63024
2.28903
1.49929
0.98282
0.656795
0.541638
0.543027
75.513
77.2569
37.633
55.5496
21.2426
36.1409
17.5263
20.3249
13.9125
10.5529
6.46013
4.3733
4.19549
3.62321
4.11841
4.29454
4.12056
3.28145
2.01363
1.14081
69.614
83.7739
57.3687
60.5685
28.3455
38.5641
35.3366
21.0835
16.8647
11.7096
8.87804
5.09539
5.3617
5.25845
8.07732
7.37665
6.93913
6.29876
6.05125
5.47587
84.1612
92.5489
72.9109
72.7661
30.149
46.8984
39.3541
28.0694
19.5934
14.0277
12.4244
10.8349
7.99643
7.74908
9.00236
9.79516
8.28835
7.70782
7.22893
6.71176
44.22
88.3131
73.4261
74.3857
39.7152
51.1075
41.232
32.2505
25.7804
18.6223
15.1947
13.4474
12.9141
13.1986
13.6248
10.589
8.52229
8.07153
7.67658
7.00834
110.202
86.3719
49.0675
68.1962
26.8601
49.2408
41.3282
33.8746
28.5977
21.3231
13.3943
10.8136
13.9254
16.8514
15.8951
9.92126
8.5327
8.09589
7.78649
7.10479
103.439
80.0213
64.1624
52.8268
45.3634
51.459
44.6092
34.4302
27.2569
19.9665
15.0135
13.1271
15.3222
16.9393
15.3709
8.62686
7.71196
7.8678
7.64187
7.04296
24.3585
84.4821
68.6662
70.8015
33.9924
50.8613
44.3612
34.9821
28.0906
23.0229
20.6461
19.5772
18.7371
16.5293
7.56992
6.40275
6.2792
6.07236
6.06498
5.4983
79.6482
56.3188
74.8672
53.72
42.6139
45.9827
27.4323
33.1556
21.8827
25.4705
16.5455
15.4656
11.4705
9.49091
7.73252
6.54503
5.58034
4.50904
3.15455
2.19354
44.9229
78.1552
74.0919
55.3294
32.8946
36.1465
20.3819
28.4875
19.1186
22.9555
15.3191
14.656
10.7995
9.0385
7.29704
6.09015
4.20468
2.60394
2.03085
1.85245
29.6661
76.3313
73.7855
64.7084
40.9653
36.5738
20.596
22.197
14.922
17.0961
12.0227
12.3277
8.64129
7.74362
6.02606
3.92757
2.92898
2.27572
2.13799
2.13301
37.6571
64.1489
71.7456
69.1401
43.078
38.6908
19.952
18.7645
10.8317
10.947
8.63726
8.36861
7.16182
5.43438
3.96512
2.67107
2.08569
1.83261
1.82939
1.89357
53.1437
55.9638
59.6434
63.837
39.8918
37.951
20.4398
20.113
9.60417
10.054
7.01728
7.91025
6.48772
5.5088
4.46013
3.02488
2.23687
1.81499
1.76394
1.74464
27.7676
38.8314
40.3467
52.7992
32.4496
28.4135
14.4954
15.7925
6.96362
6.51
4.15789
4.08721
3.4162
3.4558
3.12599
2.97344
2.7704
1.93575
1.51326
1.36894
1.58831
6.77646
6.55157
21.119
6.7573
13.177
3.9005
4.79606
2.23353
1.96134
1.0895
0.815621
0.456108
0.275804
0.134938
0.0642442
0.0250955
0.00951468
0.00485575
0.00422524
24.2743
19.1371
10.8733
27.0092
22.4182
27.0326
9.83317
16.7711
10.2055
11.3165
20.758
15.5208
8.11175
4.62141
10.7408
27.677
23.6365
23.4996
9.61384
27.5876
22.4096
10.2729
21.8723
14.3699
7.64331
3.79976
20.1269
12.3763
0.297463
0.338777
0.256562
11.4988
14.842
13.6263
14.465
0.311288
0.268799
0.324846
15.5932
15.3496
15.0647
17.0681
0.212405
0.341694
0.369463
14.6195
11.3555
17.5566
17.9841
0.155392
0.363616
0.215546
8.56804
4.4171
17.6672
12.7145
0.149669
0.149778
0.249118
3.93046
4.83635
9.55794
5.33076
0.186275
0.284795
0.172698
5.45508
7.03681
5.13792
5.77094
0.181783
0.16852
0.200913
7.19068
6.78924
6.63414
7.83542
0.0359139
0.192099
0.0903516
6.04872
3.21268
7.69341
5.30199
0.221853
0.296246
0.155993
13.4265
13.5066
9.15053
7.99313
0.28915
0.138302
0.103105
13.8684
15.6769
7.50093
6.72702
0.363752
0.0979665
0.0917535
16.3138
17.5598
6.79179
7.18025
0.317123
0.0935431
0.116395
17.6345
16.0288
7.44445
9.0643
0.172646
0.136289
0.178061
14.6259
6.65242
9.61192
9.80606
0.170326
0.161829
0.141663
5.3543
4.97898
8.13074
4.07681
0.194894
0.0882434
0.0738133
5.67383
7.58086
4.12525
4.65791
0.10933
0.112752
0.108626
7.63122
6.16263
4.83769
4.98855
0.171853
0.448659
0.293398
9.15659
8.90613
15.2524
15.4331
0.14055
0.289786
0.271618
8.88165
8.44393
15.4754
15.2632
0.0986442
0.266588
0.292689
8.12624
7.18869
15.3282
16.3319
0.0801359
0.305179
0.293664
7.09904
6.92419
16.558
15.8497
0.103076
0.270179
0.100588
6.87361
6.5515
15.0202
5.83183
0.121873
0.0868425
0.101616
5.72205
2.98404
2.94557
2.17474
0.0333407
0.0988308
0.0479986
3.77597
3.14028
2.89432
3.11754
0.0584843
0.0396094
0.0269603
3.23147
4.24239
2.38859
1.2044
0.310842
0.695945
0.425243
15.5341
15.777
12.754
14.2569
0.284584
0.427177
0.303188
15.7375
15.3791
14.1897
13.0847
0.320561
0.304136
0.281049
15.5168
16.9154
12.8116
13.6564
0.318871
0.294447
0.27514
17.1423
16.0994
13.6683
12.7679
0.0953728
0.26463
0.123009
14.8172
5.38025
11.8279
7.15958
0.100263
0.0935119
0.0602547
3.25084
2.63953
5.94463
3.73301
0.050948
0.0538215
0.0324536
3.18496
3.22703
3.45431
2.71411
0.0290518
0.0307652
0.0268011
2.62846
1.48861
2.68904
2.5938
19.6478
19.5172
19.1157
25.452
30.6732
32.7272
30.3044
19.0182
19.5738
21.2582
29.8846
25.6407
30.0737
29.5418
14.4796
21.6427
21.7304
24.2301
19.6544
29.2269
27.4991
5.7994
21.2556
16.3352
16.9872
9.41131
26.5245
21.6745
5.51754
13.2907
7.55518
7.74003
7.81359
19.4146
13.3868
7.97262
6.68242
6.34637
8.75458
9.71885
11.2868
8.66628
7.33896
7.38
8.73857
9.29615
7.75765
9.58696
10.3552
3.94218
8.54486
6.25749
7.1754
6.48518
10.2192
8.92929
17.9862
14.6349
11.8489
32.2509
29.0521
27.7305
23.5756
19.6248
11.2193
10.2971
28.5962
28.2121
22.6706
21.4076
21.1851
10.3669
10.928
28.1469
27.5263
21.3754
21.8616
19.3537
11.3087
12.6617
27.0557
24.0398
22.079
15.8142
9.91543
12.9024
12.3817
22.4676
16.2526
14.8744
13.9969
5.661
10.8031
5.14927
13.32
8.59252
13.1402
8.29129
8.46932
4.75745
5.19835
8.46914
10.359
7.22761
6.9442
6.92995
5.38409
5.55916
10.3873
9.55121
7.34156
8.3927
12.7198
21.4519
20.2953
27.1521
24.0611
34.6979
32.0216
11.859
20.1339
19.5726
23.4375
22.1877
31.2465
29.1844
10.9428
19.549
20.1656
22.0285
21.7547
28.681
27.3338
10.7874
20.2183
18.8372
21.8124
15.3561
26.714
23.2783
9.51621
17.7927
8.45356
14.3682
12.8603
21.6716
13.6987
3.8674
4.68333
2.996
11.6668
6.65798
10.4408
6.36239
3.70498
3.46868
3.43104
6.81429
5.37637
5.61472
3.23399
4.53167
2.69006
1.40543
5.60464
7.33032
2.69155
1.92176
20.9176
20.9306
19.9114
36.78
33.1034
31.2541
32.9625
19.8586
19.3749
17.8781
32.1339
29.8167
31.4506
28.3436
20.858
17.4526
17.983
29.2909
27.7592
27.6178
25.741
19.0039
17.7731
15.8579
26.9624
22.8781
24.6819
20.173
7.91711
14.5087
8.85466
20.9137
12.7914
18.2559
12.0892
3.60533
7.51119
4.8333
10.1629
6.39485
10.8048
7.94936
3.6578
4.61459
3.53733
5.61331
3.78798
7.67683
6.47753
1.67261
3.55127
3.13375
3.17664
1.92488
6.3658
5.04025
32.9702
35.9068
32.9543
31.4229
35.8964
42.3497
37.4223
26.6119
32.4538
31.0807
33.554
26.8638
36.0982
32.3659
20.1468
30.4955
28.0879
24.9695
19.0883
31.0989
26.9914
9.94899
26.9565
22.0126
16.1577
10.5129
25.3865
20.2713
8.65358
19.9399
14.2031
9.84562
11.175
18.6782
14.3532
9.97511
12.1891
9.51097
11.4464
9.87249
13.1678
9.59314
7.7666
9.93466
10.8725
8.96931
7.64704
9.77433
12.0992
7.04039
10.7937
9.77212
7.45279
7.64887
12.0828
11.687
31.8035
31.5259
26.9925
42.0445
36.9074
39.4701
34.5857
30.0786
26.0264
24.6101
35.6494
32.5942
33.4381
31.1548
28.5049
24.496
24.6563
31.6306
28.3322
30.6326
27.389
26.7104
26.8517
27.3253
28.0219
26.5122
26.8709
28.0487
19.8752
20.9542
22.2848
22.3829
20.8447
20.6917
21.527
9.36405
11.7484
8.51027
13.9748
9.25082
5.46009
8.19267
10.9581
7.75039
7.948
8.96236
12.7533
7.23862
10.9205
10.3613
8.64257
9.64176
12.9048
12.4564
12.9112
13.1813
27.3843
38.1318
34.7801
39.0088
34.8132
44.483
39.4797
25.2122
33.8089
31.2328
33.7291
31.4046
37.9734
34.0621
24.4647
30.5618
28.5163
30.8259
26.9433
32.8424
28.9852
20.8895
16.7025
25.49
23.1128
22.98
4.15564
26.856
13.3832
9.6961
16.828
1.98072
15.8727
1.98064
14.2465
7.03494
11.4958
6.73671
4.39209
7.52504
10.1914
5.41261
6.38548
5.607
3.13017
6.55519
10.1133
5.31379
7.26226
8.49662
2.8054
2.57667
12.1935
12.8331
8.67274
9.50738
35.8986
35.8148
35.9948
46.2179
40.416
38.715
40.7551
31.838
34.2867
30.6983
38.7135
34.2368
38.6848
33.7643
28.716
29.7319
26.9039
32.8548
28.5135
32.0692
27.0519
23.0869
25.5566
20.5907
26.9382
21.6796
25.3199
20.3555
13.3642
18.6786
12.7397
19.5457
12.3928
18.7837
14.3771
6.53058
11.5762
8.73811
10.2491
6.09129
13.6626
12.3079
3.52123
8.56959
7.56743
5.91485
7.46372
12.3354
12.2177
2.35003
7.45323
5.95588
8.0161
8.32525
12.0364
10.1081
35.4306
43.2701
37.7235
37.1266
32.5339
42.4888
35.2154
26.2113
36.1631
31.8096
29.8307
22.666
33.225
27.8357
18.2489
30.3671
25.7916
20.8463
16.0346
26.0573
20.7134
10.869
24.0823
19.1613
14.3105
12.317
19.1047
15.9799
11.7126
17.7553
14.1879
12.2469
11.9308
15.3295
13.9817
9.59469
13.2985
10.0755
11.2203
8.47286
13.5746
12.5157
7.58766
10.3706
12.2689
7.90625
7.54393
12.19
11.9912
7.65327
12.2633
11.9997
7.47667
7.94427
11.9757
12.0686
37.4936
41.1555
36.0403
42.7148
35.6989
42.3246
36.3507
32.4118
34.8029
32.124
33.8893
29.206
34.8741
31.25
27.3411
31.4118
26.9734
27.5886
22.268
30.0002
25.0258
21.2103
27.2322
14.5609
20.6251
17.0841
23.3097
16.9335
14.9422
11.7807
5.3284
16.1602
14.0921
14.4469
10.5583
9.37006
5.68201
8.10256
13.633
13.0182
10.3974
11.2827
13.1348
7.44808
12.5703
13.0049
13.3846
13.071
15.8079
12.8505
14.0141
13.9536
13.3927
13.2573
16.1192
15.3988
36.234
45.4384
39.9002
42.2858
36.5576
45.1705
37.9256
32.3273
38.2479
33.9584
35.0846
31.3847
36.0044
31.0241
28.5126
32.5937
28.2644
30.1303
25.1979
29.3967
24.0462
14.2941
26.7326
21.4857
23.5119
16.6304
22.2936
17.466
4.25252
19.0482
10.9793
13.6015
9.214
15.4205
10.7977
7.40709
8.92699
6.28122
9.21877
11.282
10.5404
12.1976
12.1417
6.21608
9.88386
13.0035
16.0601
13.1607
15.9698
13.7626
11.29
11.7171
16.4488
15.7316
16.327
15.6147
40.6891
43.1333
41.0656
46.2495
38.2664
46.7602
38.8926
33.9558
38.9241
33.6033
36.1467
30.6394
36.6281
30.806
27.6368
31.7367
26.3311
28.8787
23.4006
28.7017
23.2677
20.742
24.6173
19.9913
21.6329
17.2135
21.9424
18.9135
11.6339
18.6008
14.9
15.7542
12.3579
18.1214
16.6769
7.16186
14.4379
13.6141
12.0708
13.1021
16.6767
16.7935
9.6986
13.6643
13.4482
13.8701
16.0236
16.8732
16.7313
10.8468
13.3295
10.9633
16.2491
15.3741
16.4351
14.7005
30.6804
40.9089
33.4279
10.6054
10.4239
9.22171
8.78866
21.2021
31.4339
26.0305
10.5176
6.85009
8.73665
7.82897
15.4055
24.2298
18.8935
8.08203
10.1294
7.83666
7.15676
12.5274
17.4604
15.1352
10.6066
8.80652
6.98686
6.96027
11.6632
14.7159
13.7579
9.77738
11.5155
7.0776
7.4901
8.37529
13.3509
12.2112
10.8392
9.90932
7.60322
9.30897
7.77933
11.9348
11.7715
9.78433
9.71741
9.44612
11.0078
8.26655
11.7401
11.8997
9.61593
9.44367
11.5336
11.0848
34.0591
41.22
35.1338
11.391
8.76382
10.9522
8.9006
27.4991
33.6614
29.8897
8.70081
7.92435
8.86141
7.87368
20.1656
28.4422
22.8641
7.54731
6.48857
7.3837
6.08567
15.8165
21.1059
15.878
6.30686
6.46912
5.87542
5.72685
13.8329
14.0532
11.6027
6.52599
6.67561
5.77766
6.07088
12.8823
11.5365
13.0423
6.56595
7.86764
6.0094
6.54648
13.2358
13.8662
16.184
8.47225
9.8902
7.2012
8.33805
13.1681
16.3499
15.5373
10.4259
10.1193
8.78531
9.88301
35.3628
43.6629
36.321
11.6183
8.95875
10.4927
9.37583
30.0301
34.3997
29.4331
8.89267
7.87537
9.31368
8.3172
23.0763
27.7694
22.1135
7.37836
6.07167
7.90421
6.64359
15.611
20.3463
16.0172
5.85304
5.68722
6.48036
6.59992
10.7649
14.4806
11.8791
5.74874
6.07992
6.75676
7.0318
12.9055
11.9215
13.7346
6.09324
6.69893
7.09093
7.97393
16.626
14.7056
16.912
7.32331
8.27803
8.31897
8.39755
15.9852
17.0645
16.0959
8.59973
9.01814
8.63438
8.80839
36.5416
45.7017
37.0873
13.1611
9.95343
13.7957
14.4281
29.0064
34.8363
29.2683
9.77827
8.60555
11.6737
10.1743
21.692
27.2519
22.2076
8.35885
7.25512
8.60408
10.2268
16.0957
21.0785
18.6209
7.0911
7.43881
9.26969
10.0384
13.117
18.0255
17.0831
7.54197
7.88027
9.12193
10.7567
14.5689
17.1668
17.3692
7.86164
8.7273
9.23066
8.94414
16.9036
17.4171
17.05
8.4628
8.46375
8.01315
8.2546
15.8201
16.6503
14.7744
8.59332
8.22585
7.98952
7.44033
24.6976
25.6567
23.6076
24.0162
25.0404
25.4999
22.9872
22.3589
25.0431
18.0499
21.6919
23.9329
26.7287
5.76157
16.7887
18.0373
12.7252
2.39442
20.1922
14.5479
3.09678
26.5945
27.75
25.5632
27.8387
26.4234
28.2116
26.2592
24.4474
23.3734
24.004
22.3534
24.928
22.6024
24.265
22.1981
23.7768
27.7064
17.3693
27.424
5.69566
24.3107
16.9736
3.14252
17.551
12.0185
14.7242
3.49898
20.1353
18.1179
19.0282
17.3428
16.7127
19.2254
18.8358
16.3917
12.5031
16.9245
9.66411
2.12464
15.9951
13.565
1.99892
11.2652
14.7554
9.80601
6.76339
15.066
11.8348
4.2555
19.0077
21.7165
19.0871
20.4266
20.0276
20.9313
18.2751
17.0508
16.1777
17.3292
14.4315
18.213
15.309
16.1812
11.8648
2.90297
15.4605
6.07492
13.4756
2.6554
12.8879
10.3417
4.96531
9.71874
4.91184
10.242
2.84898
10.5491
17.6949
12.2229
18.1111
2.28372
20.267
2.96062
15.4395
26.2953
26.9175
26.6082
28.1246
25.8749
27.8155
26.8543
24.2874
22.4865
25.2406
23.5361
24.3138
22.1449
25.3022
20.9307
23.6797
16.6003
27.7737
4.47215
27.5687
23.8112
17.2004
3.17346
11.6689
16.6539
3.5543
14.6092
19.8234
26.3493
28.068
27.9114
26.0609
28.1334
26.6353
26.1653
24.083
23.0973
21.3865
24.3525
21.7058
24.9742
23.9165
12.9738
9.19147
13.6175
4.90757
14.9031
2.383
11.7894
18.5863
20.8573
19.8502
21.6142
19.3456
20.2827
19.4946
16.6743
14.6244
17.3085
14.3718
17.3604
14.3211
17.0505
11.7613
2.90031
5.51601
13.8125
2.74817
12.9059
11.4102
10.8748
3.8171
4.19208
8.10987
2.90382
9.60262
9.62
17.4266
21.0042
18.7351
17.5839
19.4826
18.7126
16.162
15.4325
13.6297
11.4404
14.9411
13.2348
16.2349
13.815
1.60775
0.961631
1.38484
7.72059
10.3401
7.22575
10.2222
0.718609
1.29324
0.973718
8.69821
5.4819
10.9284
9.64413
0.54864
0.673481
0.590124
3.93787
3.36732
7.22278
5.73898
0.0476177
0.533985
0.203041
1.17843
0.787978
3.67869
2.43584
0.0952233
0.135028
0.207368
0.637685
1.09556
2.20057
2.76986
0.200826
0.257522
0.375715
1.2444
1.84088
3.45427
4.57064
0.211523
0.408521
0.405825
2.2701
2.40987
4.80618
4.69802
0.082221
0.29228
0.150565
1.57883
1.06008
3.58454
2.24194
0.956607
2.05165
1.0795
9.30334
8.92102
10.2803
11.2791
3.15776
0.316934
0.329541
2.48641
3.06218
2.45646
0.271307
5.71032
0.337023
0.290229
5.05355
5.42364
5.15824
0.31682
6.00947
0.277404
0.331384
5.2005
4.92509
6.04179
0.325844
2.07241
0.131182
0.260638
1.7185
1.45862
4.17285
0.166624
2.40882
0.12591
0.168006
2.13078
2.16687
2.1186
0.196956
3.20197
0.148248
0.235253
2.75387
3.00163
3.09337
0.202462
3.66401
0.214541
0.193739
3.60637
3.71284
3.51725
0.204691
2.55351
0.0963911
0.169758
3.03161
2.50629
3.0656
0.127114
0.104738
0.190574
0.111413
2.21203
1.54778
2.25203
1.32435
1.05844
1.87249
0.933414
9.61127
10.8416
8.21762
8.27655
2.83182
0.260685
0.328695
2.73164
3.29733
2.51055
0.249772
3.74821
0.243149
0.183969
4.5646
5.00537
3.35394
0.184518
5.33082
0.32955
0.243454
6.01344
6.26929
5.05106
0.261082
6.25718
0.359007
0.313789
6.73145
6.65606
6.14284
0.317313
5.61006
0.207347
0.305556
5.02233
3.36109
6.13271
0.287225
2.11322
0.241886
0.165847
2.11648
2.6569
1.68233
0.192989
2.82029
0.161098
0.133095
3.24653
3.42826
2.79448
0.135706
3.49733
0.180529
0.179458
3.67847
3.5293
3.539
0.175805
0.108461
0.198478
0.109874
3.14148
1.43708
2.89381
1.32872
0.939484
1.86948
1.21876
7.54656
7.90514
9.74574
11.9876
3.10817
0.227307
0.325377
2.02581
2.14551
2.49955
0.261105
4.33668
0.155594
0.230234
2.3348
2.42983
4.19924
0.229777
3.67461
0.111631
0.208424
2.07931
1.81103
4.01874
0.194106
3.32897
0.0884978
0.179391
1.45683
1.38903
3.53544
0.171908
2.42055
0.0783023
0.135101
1.24083
1.26257
2.6474
0.119993
0.680234
0.108159
0.0782762
1.25506
0.952963
0.885692
0.0877469
2.07741
0.0477845
0.099523
2.38215
1.55879
2.2917
0.054831
0.643131
0.0726792
0.0245328
1.24264
1.71559
0.566743
0.0288983
0.106932
0.0745029
0.136135
1.08997
0.959494
0.550776
1.08991
1.5634
2.83385
1.65588