/*--------------------------------*- C++ -*----------------------------------*\
  =========                 |
  \\      /  F ield         | OpenFOAM: The Open Source CFD Toolbox
   \\    /   O peration     | Website:  https://openfoam.org
    \\  /    A nd           | Version:  10
     \\/     M anipulation  |
\*---------------------------------------------------------------------------*/
FoamFile
{
    format      ascii;
    class       volScalarField;
    location    "1.5";
    object      omega_0;
}
// * * * * * * * * * * * * * * * * * * * * * * * * * * * * * * * * * * * * * //

dimensions      [0 0 -1 0 0 0 0];

internalField   nonuniform List<scalar> 
12920
(
63.3187
133.806
158.449
132.691
106.007
81.2126
67.1387
61.0896
56.2432
52.3026
47.8545
44.2663
42.6554
42.7912
43.171
44.1141
44.1047
43.4396
42.2125
38.7614
176.112
174.06
157.044
119.836
105.984
93.9914
84.8164
77.4614
68.72
63.2504
57.8932
53.7704
49.0404
45.2095
42.215
39.1224
37.2483
36.4531
36.1244
34.621
172.958
200.525
156.839
135.031
120.009
107.802
91.3094
81.3478
69.5825
64.4107
58.6437
53.0063
46.2757
39.9333
35.0461
31.9755
30.7742
28.0525
26.518
22.9712
341.591
215.035
164.863
120.542
103.566
89.326
73.1026
62.9496
48.7493
44.6643
41.939
41.3934
37.5983
32.125
27.0053
21.9576
17.1487
11.951
10.872
9.536
135.322
186.361
183.072
153.776
123.306
99.4648
80.2168
62.765
45.7983
32.3976
23.7344
23.1395
20.6266
17.1804
12.5482
8.50433
5.61245
3.6456
3.43381
3.03883
167.461
213.275
171.928
138.085
120.083
108.217
89.004
71.1595
47.2625
28.4903
14.5249
11.1928
8.13947
5.94843
3.81595
2.34223
1.26897
0.658354
0.592628
0.623744
367.317
189.744
148.021
115.594
110.949
97.3421
84.2431
62.7039
39.543
16.425
8.57503
9.17803
12.1235
8.85879
8.30263
6.54029
3.87397
1.85403
0.770606
0.310731
440.484
227.213
169.241
132.617
117.594
101.542
146.65
126.392
88.8644
35.2338
17.3725
28.4925
43.8878
36.6793
19.8923
15.7541
10.233
5.66331
2.71475
1.08538
469.714
239.206
195.982
154.586
127.627
170.571
275.428
227.809
229.312
142.141
109.54
102.926
139.827
121.737
41.9098
20.706
15.8553
10.0293
5.62071
2.59692
342.726
223.721
200.804
163.741
134.72
187.902
265.38
225.94
264.095
292.313
259.777
167.156
138.185
156.564
56.2762
22.2509
18.5283
11.9218
6.83232
3.31854
313.22
267.519
228.714
173.196
126.485
165.965
230.177
182.269
171.125
160.83
158.35
185.564
113.671
75.7692
38.4037
28.264
22.8559
13.3651
7.17272
3.31806
420.786
212.697
172.503
145.612
135.752
204.428
304.801
241.918
222.725
243.515
235.32
119.975
135.177
88.0664
41.4067
30.8981
24.4041
14.1674
8.05664
3.91081
282.572
238.153
198.979
163.038
144.279
133.751
191.219
152.975
130.109
115.305
107.134
87.0336
70.164
62.6161
32.8459
31.4439
29.6946
24.7706
18.0856
10.1212
265.978
268.697
221.592
173.941
147.669
135.734
115.039
92.039
74.821
60.9335
52.3864
45.9318
41.3023
37.8787
36.4829
35.5423
34.2638
32.9163
30.3655
20.8174
417.36
266.629
203.37
163.277
140.438
127.047
103.783
80.4228
63.527
53.9643
47.7217
42.4036
38.5577
37.3892
37.472
37.4369
35.9702
31.5739
26.1446
16.9784
121.675
174.925
172.107
163.464
135.393
118.623
97.1161
78.2937
64.2988
57.1191
49.9994
42.6542
34.8715
27.7695
22.993
20.8993
21.24
21.5059
21.1526
17.1891
124.504
110.498
149.595
157.13
139.717
114.292
94.0901
88.1072
78.8054
69.7915
57.1493
43.9785
31.5262
22.2266
16.786
15.0048
15.0779
16.1915
17.0187
15.9877
32.0006
133.443
163.776
153.595
121.756
104.523
91.6932
87.7105
81.633
77.5209
69.747
60.9517
52.1855
43.4548
35.4221
28.3586
22.5445
18.4461
16.8537
13.0836
53.2193
94.7055
137.889
134.927
126.42
110.54
93.3255
82.3572
71.7792
62.1054
52.9833
45.3537
40.4656
36.3656
31.43
24.9044
18.4926
13.0552
9.48842
5.64292
20.3751
27.9926
43.2792
83.5328
94.9277
92.8687
81.7521
70.8904
62.9327
56.13
49.3199
42.4731
35.6702
28.3687
21.012
13.9859
8.63465
5.03571
2.92744
1.4601
34.8601
77.5922
92.5733
85.4971
67.2857
48.3766
39.181
34.4639
31.2112
29.2164
27.7393
26.9251
26.1501
25.3967
24.6254
23.649
22.2355
20.2472
19.5605
19.0009
218.548
107.757
87.0894
65.2947
54.6681
47.8198
42.8632
39.2978
35.0804
32.4726
29.3988
27.6378
26.257
26.207
26.3361
26.8027
28.4788
33.0859
35.5961
34.2797
168.208
131.298
88.3085
78.9285
65.6929
56.8858
45.7966
40.3408
34.0365
32.0466
29.1741
27.2167
24.7466
24.146
24.6177
26.6663
27.5359
26.1129
24.7575
19.8572
246.256
191.055
87.3831
62.5997
52.126
47.8834
39.6272
34.2157
28.2131
25.127
23.3888
23.1344
21.9553
20.5097
18.9377
15.6764
11.8848
8.13725
7.12406
6.2289
174.814
137.162
101.15
76.6209
60.1466
53.642
46.8896
37.7797
30.1956
21.8918
17.3205
16.6603
15.2312
12.821
9.69142
6.96768
5.45252
4.68864
4.56257
4.45138
201.963
109.451
87.8457
74.6189
60.2055
60.9501
52.8192
47.6748
33.6631
20.8695
14.1354
11.5504
9.38055
7.32647
6.04185
5.04446
4.46945
4.30052
4.34752
4.45644
270.344
101.281
72.1777
67.8021
56.9192
54.0727
46.9083
42.9563
31.7143
15.9522
13.586
11.2572
12.3923
11.6265
11.909
10.8341
7.97695
6.14626
5.49441
4.97507
379.677
151.432
81.0968
73.0474
60.6363
53.6572
57.1695
51.6254
46.1777
35.468
20.5792
24.6139
21.3022
21.3828
22.4265
20.442
14.9091
9.03571
6.37897
5.2385
190.478
183.553
113.49
86.5787
62.0821
63.2054
63.686
53.6936
49.0302
53.6733
57.4088
35.464
28.6898
27.8952
26.8783
24.4184
18.7523
12.2458
7.57125
5.26745
418.967
163.105
121.569
93.6843
69.6868
67.1456
63.3286
57.386
52.616
52.0512
55.4472
72.4073
47.8727
31.6442
28.2763
26.192
20.6648
13.8241
8.84306
5.76317
335.428
181.863
148.173
110.223
76.7656
67.1439
67.9899
63.51
61.7543
62.1342
63.3289
66.2423
79.4574
30.3806
31.1831
29.1045
21.8014
13.8078
8.87794
5.91907
343.982
133.324
89.7464
75.317
63.1183
64.3505
63.1619
54.2789
48.1898
45.5931
46.6346
54.7022
53.8231
34.4027
31.1543
26.712
22.1186
12.7035
8.1126
5.8026
311.656
220.62
108.138
88.275
72.0085
64.357
65.7226
53.2137
44.1749
38.5941
37.2082
36.8332
33.9047
28.0911
26.7988
26.4139
25.8149
21.6666
14.5029
8.18907
271.328
240.878
129.007
95.2959
79.6471
74.9644
61.984
50.5145
43.7077
38.0017
36.7172
35.1791
33.5089
31.5716
29.9954
28.6678
27.573
26.8035
25.6148
18.0879
327.831
196.342
107.226
89.5699
76.0881
75.9508
65.1679
48.3788
38.0575
32.4897
30.4962
28.2814
27.7337
27.2362
27.3093
27.0215
26.3396
24.4002
21.8037
14.2976
193.188
145.265
107.7
90.4393
76.8858
72.1728
59.4946
46.7484
36.4839
31.5832
27.9864
24.8811
22.4699
20.1285
18.3339
16.8528
16.7004
16.8252
16.7387
14.7107
233.198
147.844
117.11
91.1314
72.5046
62.9781
52.9718
48.5546
41.7283
37.6902
30.9605
25.0118
20.1262
17.1302
14.9604
13.9755
14.0272
15.1897
15.6586
14.6121
103.457
144.273
120.777
85.6546
67.2144
58.9636
51.7173
49.3643
45.9688
45.4969
43.9593
42.5051
39.4427
35.3317
30.2238
24.8652
20.4317
17.2465
15.8008
11.5326
61.0261
90.64
78.9225
71.4518
61.6233
59.109
56.1812
52.4353
45.8668
40.7943
37.3862
36.2775
34.2677
31.3696
26.7687
19.8313
13.3133
8.68002
6.56488
4.99982
18.9973
40.5409
44.7773
54.4956
55.9339
53.8327
46.0281
40.1303
35.5934
31.5381
26.8737
21.9223
16.9106
12.4069
8.51373
5.32649
3.02252
1.59402
0.815834
0.378105
118.302
94.5269
101.683
99.1188
80.2223
54.0805
42.5482
37.3683
34.2826
32.2176
30.541
29.3288
28.2987
27.1837
25.6586
23.792
21.7639
19.3192
18.0628
17.5991
236.321
112.9
86.2274
64.9989
52.3728
41.8141
36.3869
33.4507
30.619
29.5561
27.872
27.4883
26.6456
26.2429
25.235
23.1103
20.9813
20.5246
23.3041
23.2553
322.494
149.515
85.94
65.361
52.9281
44.862
36.9131
33.2714
29.6217
28.6664
26.7291
25.8871
24.0752
21.7178
17.8647
14.1485
13.5071
12.4626
12.922
12.3595
335.48
249.034
107.737
54.1828
42.7595
37.0156
33.1543
28.8777
25.9249
24.5001
23.0422
22.5988
20.8781
17.3806
13.1143
9.60111
7.5115
6.16609
5.87399
5.82461
167.424
142.166
102.832
67.9626
48.7054
39.7333
35.2244
29.0987
25.3151
21.5603
18.6688
17.0473
14.1085
11.3155
8.69691
6.83879
5.84685
5.29676
5.17188
4.95147
205.105
117.15
82.4706
58.1694
46.9654
42.8822
37.9697
33.0571
26.6192
21.112
16.9096
13.9039
10.5137
8.17416
6.92733
6.04469
5.49196
5.11183
4.99573
4.83186
270.636
113.696
62.3554
51.4962
47.0273
40.7438
37.3932
31.7565
29.2453
20.0741
16.0957
12.3631
12.367
10.6996
10.8962
10.0482
8.4503
6.98775
6.0967
5.21406
279.02
180.832
73.4155
57.7492
50.3722
42.9587
44.3774
40.9088
39.3481
31.4819
22.9692
24.2312
21.4446
20.0861
21.612
19.618
15.0485
11.9565
10.4058
7.86235
151.553
145.78
109.287
76.2015
54.3399
48.8948
47.1164
45.0514
41.2396
45.6608
49.4631
38.3539
30.9094
28.0682
29.3345
27.8713
20.8428
15.7849
14.0375
12.2342
211.545
148.56
124.238
89.8213
63.524
53.7407
49.2437
46.9261
47.1258
48.4725
50.0797
55.5301
50.5008
36.0456
31.5326
31.6659
25.3302
18.7373
15.8583
13.263
226.931
136.822
103.462
73.5325
56.6591
51.9733
51.5797
50.1219
50.6066
54.7369
99.1649
69.9727
66.6004
37.6653
32.8256
32.809
26.0906
19.26
16.4085
13.7077
275.039
123.348
76.9531
59.182
52.8445
50.2298
47.5081
43.0443
41.873
43.9802
47.658
53.9029
50.0868
32.736
30.5486
31.5923
23.4244
16.3647
13.9112
12.1744
294.267
187.462
89.116
66.1065
57.2345
49.8063
46.67
40.6023
36.204
34.7753
34.8252
34.32
31.8566
28.2084
28.77
27.9186
24.053
16.563
12.2799
8.20319
373.098
250.399
112.294
74.5944
60.6123
53.1794
44.0286
37.0726
34.7399
32.2019
31.9503
31.2785
30.6714
29.979
29.8426
29.4314
28.5757
27.779
25.5454
15.3551
298.443
186.076
101.504
73.3453
59.4427
52.9632
42.9722
35.3094
31.1869
28.9499
28.6755
28.008
28.0432
27.9083
27.6198
26.7087
25.5844
23.1085
20.2306
13.4321
375.911
180.155
117.607
84.7026
64.5314
56.0646
42.5825
35.0988
29.2673
26.7517
25.5044
24.7964
24.6519
23.9684
22.3564
19.6479
17.6191
16.4263
16.0814
14.6029
364.598
198.59
130.859
89.0334
65.4881
54.0421
42.8324
37.8421
30.5197
26.4424
22.8789
21.1243
20.0885
18.0813
15.9227
13.4077
12.103
11.9218
12.7514
12.187
213.652
136.879
104.927
76.5725
58.2794
49.9075
42.2172
39.9405
35.4612
32.8548
28.0266
23.7185
18.9588
15.5463
13.1629
12.1499
11.5717
10.6263
9.82547
7.1399
92.192
100.708
86.6383
68.7135
54.4119
49.7522
44.1306
40.8067
35.0349
31.101
27.3786
24.5718
21.1782
17.0457
12.6911
8.61618
6.36152
5.32056
5.16139
4.89083
15.8286
57.0126
69.5252
68.0838
62.8003
54.7277
47.1068
41.1808
36.0362
30.8968
25.8224
20.6913
15.9135
11.4588
7.55882
4.51136
2.50893
1.3068
0.646178
0.291971
116.672
116.65
117.023
107.112
80.9684
54.6503
42.6867
37.6226
34.766
32.7434
30.9871
29.7718
29.1165
28.5586
27.2971
25.3471
23.8015
21.9714
20.4196
18.8796
244.012
118.718
95.8618
69.9152
55.7042
41.8454
38.7448
34.7462
34.3498
33.2809
33.208
33.1111
33.1495
33.1901
33.4054
33.2604
32.6719
30.0977
28.6914
28.9262
362.114
123.872
85.323
58.9722
51.179
41.4924
37.82
33.6423
32.8721
31.7554
31.4514
31.1056
30.9497
30.8013
29.8658
26.0385
23.3213
22.8996
23.8991
25.789
255.672
175.453
106.743
55.4888
43.5586
36.7594
35.1447
30.4534
30.5075
29.157
29.0069
28.384
27.1469
24.3752
20.2668
16.2694
14.5104
14.5977
16.0474
17.0226
320.486
165.389
118.322
70.7848
48.3418
37.5797
35.4971
29.9277
29.6525
27.3519
27.2832
25.2372
22.4402
18.4535
15.02
12.2364
11.0711
10.8531
11.3929
11.9198
439.881
168.414
88.288
57.4887
46.0469
39.3563
36.8214
30.7752
29.1217
26.5636
24.7033
23.0747
18.1686
15.1766
12.4552
10.8634
9.72352
8.90473
8.6129
8.86316
205.53
124.407
65.9902
52.7861
47.2575
39.1402
37.4437
31.0962
31.5016
25.7459
22.6441
16.5568
16.3833
14.6274
15.8092
16.2703
16.8338
16.248
13.8634
11.3464
210.106
131.725
73.0823
57.5416
51.2634
42.6384
42.3903
35.7478
35.7353
31.5742
28.895
24.6157
21.6808
19.934
25.3396
24.4862
24.1192
24.494
24.3493
23.1336
238.438
156.333
113.639
74.3855
54.3813
46.3017
44.872
44.0979
39.4733
43.6419
42.1992
39.3128
32.2956
30.4708
31.8671
29.458
27.1494
26.9398
27.202
27.397
269.686
208.051
150.953
95.4075
65.7497
52.1777
46.7582
45.7257
47.4399
48.7207
51.2018
58.0574
47.2912
39.4908
37.8192
36.1392
30.8491
28.7837
28.3176
28.0929
220.114
162.15
102.14
67.9462
54.7515
49.4778
48.1187
47.5489
49.9025
55.7991
87.204
110.584
55.2413
45.6396
41.971
39.6422
32.3759
29.5985
28.8624
28.5899
398.661
137.807
76.0881
58.752
53.0458
48.3743
45.8439
43.0672
43.7956
47.5727
51.2485
57.7483
46.3137
46.1722
44.6511
37.4633
30.277
28.4999
28.4517
28.7317
265.315
147.371
79.033
61.0216
56.4095
46.8021
43.8071
39.0861
36.91
36.8498
37.9792
38.7097
38.665
38.0214
38.3346
32.3841
27.5392
25.0017
24.3968
23.2628
200.728
173.927
88.4451
63.2325
57.0947
45.9286
40.591
35.2657
34.7984
33.4467
34.4242
34.9715
36.5895
37.7113
37.9581
36.5558
33.7854
28.7488
22.3119
16.5667
248.48
131.96
88.3977
63.3214
54.7375
44.1374
39.716
34.1547
33.2121
32.1771
32.9448
33.6928
34.8531
35.237
34.751
31.7888
26.2533
20.3208
17.3845
16.344
230.261
147.415
116.348
77.6297
60.7331
47.7744
39.2201
33.5474
31.3811
30.2914
30.9216
31.1624
31.812
31.3068
30.1123
27.3954
25.0196
22.5066
20.1193
18.2736
262.976
167.929
126.82
84.3096
62.6702
47.9183
39.9945
34.0897
30.178
28.4317
29.0848
29.3392
30.1076
29.4857
28.5648
25.575
21.9386
17.9566
15.5125
14.9692
243.778
157.702
115.46
75.0428
57.9996
45.9808
41.2481
36.6663
32.6146
28.2601
26.5508
25.1731
24.6826
22.7175
21.1571
18.1547
15.662
14.1417
13.4353
13.3758
174.641
143.27
98.8576
68.7745
55.7255
46.1364
41.8635
37.0343
32.2569
27.6495
24.9623
21.9351
19.7171
17.6241
16.4285
14.802
13.3706
12.5891
12.6929
13.1624
21.8393
65.2812
74.034
69.5521
60.4975
50.6071
44.4665
38.7084
33.8822
28.459
23.6693
19.0084
14.6115
10.4869
6.97908
4.30796
2.46967
1.30432
0.649529
0.308628
191.678
153.569
123.861
96.0643
63.2485
46.496
40.0045
36.1365
33.5657
31.3967
29.9892
29.3605
29.361
29.3169
29.0486
27.8457
27.3321
27.2218
26.9258
24.3794
647.483
174.855
93.9631
77.7702
63.2267
53.3166
51.4409
44.7475
46.3767
42.3028
43.9639
41.9671
43.4137
42.988
44.6385
44.9873
45.8523
44.8607
44.5012
44.8328
219.993
125.506
87.4354
66.7755
59.3518
50.7173
47.9468
42.7726
43.6651
40.56
41.862
40.1392
41.7141
41.3759
43.0477
43.0597
43.4028
42.5134
41.9168
42.6239
281.494
137.115
95.5158
75.3146
54.7366
56.6188
46.0044
42.6061
42.1494
38.7956
40.0308
38.2885
39.3533
38.9541
39.8568
40.0709
40.7485
40.734
40.1961
40.8571
448.965
197.32
126.653
78.879
57.8127
53.44
47.0705
42.0771
41.997
37.8851
38.8692
36.7379
37.7599
36.5981
37.5376
37.8426
39.6986
41.2266
42.1422
43.8375
312.934
171.884
99.1531
86.0868
58.9471
65.2346
46.6347
43.5782
39.3005
36.4377
35.1625
34.5678
33.7164
33.7756
33.9799
35.4
37.5028
39.9081
41.2905
43.5728
289.898
139.278
78.4438
82.519
57.9335
59.4437
51.988
49.439
42.7143
37.7362
34.812
32.4373
32.2395
31.4572
32.6009
33.7975
36.2826
38.6336
40.5628
44.1318
236.375
145.993
83.1633
82.8851
61.2859
60.7617
49.3467
48.2856
44.0019
39.3058
40.2027
36.2322
37.3629
35.9003
35.9363
34.9833
35.6052
36.9143
38.0358
40.5331
257.849
164.997
124.103
81.4399
62.4186
56.2356
53.7402
49.1202
46.5277
45.7091
47.2505
46.1488
43.3632
42.3561
39.2016
35.9711
35.3314
35.9995
36.9369
38.4101
247.752
196.263
155.577
94.4646
71.1741
56.7156
54.1996
54.2718
53.5414
52.9564
54.4537
56.5958
51.2578
47.5495
43.2131
38.1159
36.4014
36.4034
37.1222
38.3022
419.005
198.212
107.921
77.5154
62.491
54.497
54.0482
56.0302
56.8096
57.8896
59.3471
59.9259
58.4496
53.7728
48.9491
40.0286
37.3392
37.0584
37.5757
38.6933
529.608
188.87
87.1371
81.9523
60.5967
55.9889
53.4666
52.3702
52.9599
54.91
56.7756
58.7227
58.3267
54.9649
50.0011
39.5453
37.6074
37.7168
38.7501
40.2534
185.585
154.663
87.9809
74.365
67.8463
60.9298
49.4571
45.2063
44.2534
44.3286
47.1507
48.4958
50.1287
49.4878
43.5697
40.6828
40.683
42.7069
44.6273
46.8432
295.962
138.281
85.3577
74.847
67.3138
55.1076
46.704
44.4172
40.9803
40.2299
43.068
44.3946
48.6164
49.0675
49.13
47.839
47.5787
46.3327
46.9861
50.5244
203.882
138.974
88.9909
80.001
64.3262
58.106
47.8164
41.9948
40.8185
39.3943
41.7005
42.1087
44.7819
45.1008
46.2627
46.2161
46.9464
47.7967
49.18
50.5119
253.401
152.775
115.901
78.557
69.1655
51.9304
48.1687
40.8962
40.5971
38.0609
39.4562
39.0442
41.3772
42.1102
44.7766
45.7181
47.675
48.2889
49.752
50.8832
200.854
164.712
132.406
77.4566
68.5043
50.0783
47.7484
40.3782
40.8913
39.0194
41.4389
41.7425
44.4
45.1127
47.2881
47.6221
48.3586
48.3539
48.3242
48.8672
159.369
141.179
123.161
72.7478
67.9767
49.7682
51.469
41.8157
44.6604
41.1535
44.5136
43.8342
45.9015
45.5663
46.7549
46.7591
47.8228
47.6695
47.5911
49.6357
340.004
160.773
129.303
72.9422
69.0469
49.7333
53.2397
42.0367
45.1962
40.138
42.4868
40.2304
40.9693
39.1913
39.2636
38.8015
40.8849
44.0865
47.5531
51.0211
53.0307
74.2786
75.3301
66.8084
53.8157
44.7913
39.1814
33.2704
28.2452
23.4394
19.4915
15.7903
12.3654
9.23095
6.59326
4.41218
2.7253
1.62141
1.15321
1.11126
49.7327
57.0387
102.322
48.5796
50.1443
57.1766
111.917
52.3768
101.701
78.104
50.8898
55.767
114.233
119.555
99.9801
46.1837
50.0452
55.9104
115.124
48.8694
53.6551
80.2811
50.997
52.7669
120.645
134.761
55.5868
65.1003
219.775
253.538
227.981
75.9995
61.6078
72.8729
63.8155
235.617
233.613
262.072
59.2173
55.5602
61.2643
55.9746
188.005
270.033
284.921
54.1473
55.3438
54.9947
54.0156
125.865
283.872
214.15
61.4323
66.7774
54.2477
62.2159
103.373
164.146
171.495
57.1288
39.059
68.2463
82.5413
128.73
177.264
140.26
34.4795
29.4622
82.5958
48.6407
136.463
139.692
157.508
28.9261
28.7537
38.1293
32.0786
58.9903
154.276
98.2905
28.3896
26.873
31.6702
29.8631
222.856
240.753
186.372
73.9513
65.9073
80.6662
75.8522
255.025
177.056
161.075
63.5753
58.2422
75.0124
73.1315
289.854
159.942
161.79
57.2096
56.2492
72.2297
69.8833
278.093
166.125
193.63
56.3794
59.4794
69.3537
68.0916
160.539
211.299
232.872
61.4789
81.6024
68.101
70.2034
142.619
205.483
144.444
87.479
62.6094
76.1721
97.5456
157.543
107.693
97.4638
45.4568
32.3115
71.8717
32.6013
112.569
121.671
119.542
31.9436
30.3755
31.7107
30.8486
185.759
297.102
243.969
78.571
72.5475
72.7165
63.4349
177.192
240.357
229.763
70.7179
68.6425
60.7386
55.3508
161.685
227.828
239.877
68.76
69.352
54.1048
51.6276
157.555
246.768
253.262
69.3837
69.466
51.4625
52.1093
187.228
247.708
139.237
69.5919
71.1311
52.525
62.848
143.665
127.407
138.772
74.4778
100.887
76.1218
74.5904
64.3141
137.075
93.5343
78.7975
32.2092
61.5159
35.5356
87.6053
83.4787
66.3358
31.1629
30.5046
33.9945
30.6335
247.827
353.038
258.453
75.5554
64.5631
90.5525
70.5118
226.9
254.633
220.364
61.4741
55.0493
65.6131
56.9794
236.723
217.176
202.332
53.1991
49.2887
53.6438
47.2027
247.722
202.435
199.814
49.0552
49.3128
45.8706
43.1554
123.084
194.092
128.729
49.5006
57.9901
42.703
42.7203
136.978
114.994
97.3661
63.7307
62.4725
43.0639
43.1169
96.9246
94.6717
73.9136
54.7834
36.8708
42.2188
35.2709
70.9952
72.7831
67.636
34.9828
29.9419
32.1639
26.4502
55.5311
62.9924
57.0629
49.4932
46.7378
50.8375
47.4517
50.4503
55.22
51.0441
46.0518
43.5928
46.7716
45.449
49.7105
50.2066
49.3996
42.302
43.4964
45.2473
45.4193
61.0787
49.5799
54.5964
46.1406
51.5726
45.6255
47.8241
41.0063
58.1926
67.8258
50.9432
42.9
49.001
52.7068
29.2859
71.573
51.6464
38.0513
31.5681
57.0542
53.7323
28.2833
39.5065
31.9125
30.4354
28.3633
43.4243
35.0393
26.9353
31.3602
28.7826
27.9152
28.2777
33.7157
30.7778
58.9594
68.5905
67.2266
51.2501
48.856
53.9063
53.5584
53.4288
66.6139
65.2644
48.3858
47.6572
53.4524
53.7221
51.9376
64.7145
63.3158
47.6866
48.4167
53.9823
55.5785
54.2147
63.1164
62.9689
48.6406
49.8267
56.5557
71.414
66.1152
63.1029
63.9158
50.2084
52.5235
72.2077
65.4879
65.172
66.3587
87.2534
55.9094
60.7715
62.7733
69.7961
32.1277
75.0131
31.9417
51.004
35.8025
66.3646
35.833
29.8153
30.9418
30.6006
34.8318
31.6214
35.1003
33.6391
64.8417
62.0361
55.8931
53.9765
52.6211
49.5913
45.533
61.8341
54.0133
50.1627
52.1432
51.8114
44.7508
43.7581
61.9824
49.3186
47.859
51.9981
53.9557
43.7667
44.9914
62.9151
47.8821
49.0689
54.7295
69.2739
45.7418
48.8777
64.4822
49.5243
54.9758
69.948
65.1563
49.6253
50.9623
88.7341
62.9882
66.5991
62.889
71.6129
53.7109
61.3579
31.2558
60.6408
35.8066
68.2555
35.7808
57.0823
34.8447
30.3495
33.9602
30.1296
35.1954
33.3637
32.8807
28.5859
56.3877
70.6248
59.999
49.3601
45.2555
52.0082
46.2285
49.553
56.4525
49.0613
44.3908
42.6406
44.3034
39.8099
45.6367
46.5169
42.102
42.3423
42.9096
38.4624
37.5358
46.3735
41.2063
39.5959
43.5604
45.9898
37.4263
37.5075
51.2487
39.4398
40.6839
46.6196
49.6575
37.664
39.1931
57.2818
41.0395
40.7304
52.0299
54.964
39.4094
37.8434
36.3725
39.5216
33.1261
51.3678
35.8918
36.3171
30.6001
29.5669
30.4411
24.7008
34.1254
28.1238
29.0657
24.8987
45.6056
48.8574
45.9356
44.6535
44.4803
46.216
44.3132
42.4481
45.4836
44.7988
43.9118
40.3184
44.292
44.6521
43
44.765
45.2022
39.4732
42.5592
44.8136
45.5468
50.0806
45.4303
47.5104
44.5593
44.8883
45.8415
48.2091
42.4237
48.4895
52.2259
43.8848
40.54
49.0988
53.7401
32.3076
56.1186
52.9603
38.8619
33.6994
55.7234
49.0328
28.4278
44.0441
35.9629
31.6821
29.5411
44.2024
37.4981
28.8577
34.3701
31.5522
29.4468
31.0472
36.1065
34.6022
47.2029
51.4839
51.1935
46.6617
45.2554
48.1834
47.7798
46.891
51.1758
51.8751
45.3383
46.5036
47.917
49.5969
48.2306
52.3566
54.932
47.0125
48.3743
50.5527
54.6411
53.4909
48.7847
52.1538
48.4523
53.0438
48.8156
52.1118
57.6645
50.4134
55.6255
50.2621
55.699
50.7645
57.0385
59.586
68.699
69.3274
57.9963
54.9351
104.659
69.5836
37.2314
64.8446
38.2588
48.0134
40.0733
57.2767
44.2707
32.2869
37.521
34.8364
38.6223
35.6716
43.2842
38.9913
50.4517
47.8477
44.1315
48.2514
47.3918
45.9661
43.2888
50.2205
43.5457
43.0955
47.3998
48.5826
43.086
43.5849
53.469
43.2763
45.2152
49.4752
53.988
44.1897
47.5185
64.6948
78.3842
51.5053
62.1975
56.3826
292.156
52.1647
79.7848
95.4573
67.2301
250.729
66.786
238.761
80.6841
71.4422
55.7434
61.64
118.428
72.6558
67.8497
58.7116
38.3354
55.6825
33.9624
58.6727
44.7169
47.8758
43.6952
34.7613
33.0811
31.8736
43.9226
39.7043
43.9623
42.4099
43.7394
49.0131
44.2529
45.5042
42.6757
46.0885
42.0938
41.9219
42.5028
38.5571
42.3385
42.3745
40.616
37.9892
43.1476
37.5402
37.3752
42.7691
45.4276
37.6941
38.8369
46.8757
37.4875
37.7755
46.5238
49.6099
39.0545
39.4784
51.5293
37.8902
39.127
50.7349
57.1231
39.551
40.4436
55.2084
39.2962
37.5817
58.4232
50.8243
40.7124
40.0901
34.3409
36.1038
31.1978
44.5315
43.087
39.5193
38.4562
29.8656
30.1407
27.4497
43.5817
42.6823
38.0067
37.0855
44.8513
46.3761
44.7222
49.7713
48.0134
50.6515
49.7515
40.1412
44.7557
45.1605
46.5401
43.2445
49.6728
49.2885
42.5914
45.3022
45.9284
43.2073
43.7538
49.1556
48.804
42.9941
46.1792
48.5072
43.1091
43.3692
48.6498
50.0496
40.5844
49.4219
53.8582
43.9235
44.2268
50.815
53.0173
34.2437
55.0144
47.6005
43.176
39.7362
52.6032
47.7094
30.5298
43.8907
38.1537
38.9105
38.2151
46.0475
43.0652
31.6613
37.0062
35.7984
37.8832
36.3828
42.502
40.2509
45.5964
48.0759
47.7812
50.8948
50.7082
51.378
52.3471
46.967
47.9784
49.7864
50.8052
51.0123
52.7187
53.8488
48.5852
50.7691
54.7535
51.0085
50.8375
54.2343
55.7289
50.3025
56.1458
78.8602
50.6492
51.7068
55.7686
58.851
56.4138
82.3802
103.929
52.5264
55.5547
59.3866
61.0278
52.5263
99.7064
65.0246
55.6814
50.4118
62.1033
56.1172
40.7952
54.7691
45.7376
48.6224
45.1401
54.3977
50.8374
37.0633
44.7518
40.6014
44.355
41.9133
49.7523
46.1683
47.4742
46.2833
43.9892
51.1376
52.1321
50.2087
49.7848
48.9566
43.8729
44.5504
52.4987
53.6307
49.886
50.6529
54.3282
45.2156
48.6069
54.0581
56.0612
51.1334
53.2493
80.7097
49.9023
54.1632
56.3261
59.9415
53.9277
55.4124
113.334
56.2895
67.2944
60.8813
60.843
56.2947
58.49
66.5968
68.5216
53.283
60.9806
56.3124
57.7166
56.1883
46.4578
47.8471
46.6753
55.2161
52.1611
55.9223
53.5804
41.4175
46.3765
43.9497
51.0708
47.4541
52.5257
49.4248
43.3263
46.1124
42.3059
50.1725
48.8681
50.1568
45.6754
43.316
40.8698
38.6612
48.7672
49.2415
44.3401
43.3428
46.5531
38.5228
39.905
49.6917
51.5408
43.6822
45.1121
50.1886
40.08
40.5759
52.0858
53.2307
45.1027
46.3947
57.1917
40.7052
41.7435
53.7031
55.6607
46.9535
48.6493
48.9453
42.0821
42.0705
55.6794
55.4866
48.8864
49.6862
46.2914
41.7773
41.0569
55.1914
53.1125
49.5592
49.1082
44.1912
40.6235
39.8752
52.1687
49.4676
48.5206
47.7086
50.9114
54.0206
53.2918
78.0225
80.7535
73.3297
74.43
46.4723
53.0408
52.1216
77.7812
75.6544
74.1778
74.3317
46.3938
51.8695
51.3435
77.5318
85.9932
75.2569
82.4758
46.7027
51.1616
52.2579
83.6248
83.7899
84.1029
86.0354
47.2332
52.885
54.3466
84.415
91.3855
86.289
87.0783
43.9006
53.8619
50.2859
89.366
90.5239
85.951
82.7701
42.8445
48.9197
46.5626
89.2316
91.6696
82.4517
84.6823
39.9225
46.1031
42.8625
89.7435
78.2431
85.466
78.4228
54.318
54.4583
55.8779
71.7705
74.4478
72.3624
74.3774
53.7485
56.2121
56.685
74.2379
74.0046
74.2976
74.5584
53.1665
56.7862
57.3786
74.9448
82.4222
76.0871
85.6476
53.7782
57.1913
58.5331
84.6276
87.9153
89.1338
94.74
56.6337
58.6376
59.6123
88.4509
88.0259
96.0647
96.1338
52.6951
60.4802
58.4699
86.5737
81.2022
92.9228
82.1396
48.195
57.3434
53.5159
80.0298
81.3574
79.3522
76.5494
44.4835
52.4427
48.7369
82.3493
76.6218
77.1692
74.3583
55.6577
53.363
53.4607
71.1333
73.9185
71.0135
71.4863
56.645
53.5925
54.0839
73.923
74.4314
71.6622
72.2237
57.8899
54.3777
56.0408
76.0006
85.5966
73.2199
80.6778
59.3192
56.5802
57.8
89.1833
95.3553
83.4596
89.5228
59.2212
58.3705
59.877
96.5775
96.44
90.8097
90.242
59.2195
59.8206
59.7598
93.3614
82.4869
87.9753
80.5237
54.8625
59.2374
56.3257
79.6331
76.3341
78.6123
76.2183
50.1114
55.2886
51.9594
76.6568
74.1036
76.4285
73.0537
52.46
53.5357
48.7799
69.8644
70.4343
70.6516
68.8206
52.6446
47.4257
46.5321
70.6447
71.2426
68.2061
66.9094
54.4273
46.9405
48.0988
72.0412
78.4194
67.6996
71.9908
56.2494
48.0076
49.5442
80.8569
86.1696
72.7009
73.8434
58.5583
50.2027
51.9141
87.2839
86.97
74.7905
76.5322
58.8157
52.0533
52.9568
85.06
79.0946
75.4676
73.9214
55.896
52.8576
52.3282
77.7705
76.0146
73.4834
73.4647
51.9673
51.6473
50.0622
76.2459
73.443
73.5944
69.8005
55.5771
49.1983
55.39
49.8606
54.4862
49.296
56.749
66.3854
55.3788
75.3488
62.9945
59.4451
55.8933
226.38
83.0818
72.2618
96.1054
270.528
68.0311
88.9838
289.818
53.5006
48.4973
48.9366
51.8676
48.8824
52.0385
52.8488
55.4283
50.0129
49.4604
55.2361
49.3971
56.5618
54.1887
67.6234
63.936
55.215
84.1573
55.9286
231.613
60.6487
81.7873
265.787
71.2306
106.746
86.3474
289.237
67.881
58.2395
51.0274
55.8357
53.0598
55.6397
51.5453
58.4655
89.1673
72.554
98.7064
257.258
71.9585
88.4705
243.364
89.3208
65.9648
92.5944
112.873
70.5949
78.1262
169.139
58.5172
50.5631
52.0044
56.2668
51.3641
57.14
58.301
60.0053
54.4786
53.5465
62.5518
52.5293
61.0056
60.6167
88.9836
244.765
73.1447
122.768
86.2077
219.262
78.2419
90.3483
123.933
82.9417
122.054
83.6253
151.14
83.8392
73.6079
95.7527
66.1515
265.116
62.0402
277.448
79.6265
51.6241
48.5784
47.3286
46.9221
50.2204
49.2597
48.2844
54.6095
54.662
48.6774
51.4358
52.4332
57.4832
49.8457
67.3561
63.204
88.0209
53.8644
281.855
53.1334
61.0783
77.8407
260.742
109.245
75.9503
278.465
85.3615
69.0666
52.8645
47.8547
51.2113
50.3318
50.2044
49.3404
53.5524
56.1637
52.7327
59.9193
51.9118
59.494
50.9953
56.5624
75.458
94.3229
62.4149
143.432
65.461
222.688
71.2962
59.8055
56.0626
51.4739
52.661
56.2427
59.3105
53.5127
59.5284
55.7149
51.8333
55.9958
55.88
59.5267
54.3322
88.6581
238.048
132.669
82.4483
216.203
88.6351
87.9946
86.4439
148.077
137.689
95.3035
184.962
84.6603
92.0142
63.6641
54.3051
63.3551
58.0062
62.1021
55.8231
66.7143
64.3913
60.5502
74.3961
61.183
65.8527
57.6194
69.891
135.762
144.957
140.662
81.2611
68.3471
81.4995
71.0078
109.874
139.543
130.97
64.0054
58.1034
64.2359
61.4685
68.1913
113.225
99.6914
56.7169
53.6168
58.6208
62.7452
20.3943
74.7206
47.0252
34.2486
17.1525
61.5879
38.8881
23.2051
37.137
40.8031
16.7542
21.8759
26.1731
25.8023
39.1775
46.3321
63.0527
23.6993
23.5188
25.7915
27.4907
45.0838
70.5376
70.4402
22.5867
22.7385
28.0097
28.4449
28.8345
57.3085
42.3052
22.6708
21.964
26.2985
24.9121
168.796
172.668
165.358
93.3178
87.83
92.3293
85.2511
121.639
230.914
260.68
147.197
121.242
147.339
233.442
93.7021
235.769
231.41
94.4165
92.4315
95.7097
243.817
92.173
222.533
256.428
89.8545
88.1395
92.7558
256.43
119.346
128.032
226.068
112.576
112.833
103.242
172.118
75.2216
99.8769
135.703
55.2544
44.3426
82.9488
141.034
48.6816
107.42
141.136
38.548
39.0691
53.6257
136.348
45.5246
144.899
141.239
41.6417
41.9212
44.875
149.885
45.8303
96.3584
136.628
41.3535
37.8303
46.5558
117.311
36.4379
49.981
38.6071
27.413
26.3113
31.4463
29.1846
171.136
178.008
158.264
102.736
86.721
103.199
90.2261
128.382
239.219
262.45
146.384
125.215
147.81
235.417
97.7666
234.064
205.612
98.824
95.8937
102.729
208.361
96.1029
272.958
242.487
95.0685
95.5726
95.3124
251.906
100.534
291.649
280.768
98.1029
98.9703
99.3323
284.497
107.839
216.062
283.61
111.347
125.968
103.587
274.785
130.908
172.714
162.623
135.652
106.245
151.156
164.973
51.8794
141.403
129.149
53.3023
49.4351
58.4252
131.223
48.4589
152.729
154.37
48.4873
48.5694
48.6951
152.837
39.5019
55.046
39.6683
33.7414
33.4078
35.5546
36.2333
152.077
180.991
176.743
95.1361
87.8856
93.0505
83.9149
122.936
207.737
245.221
138.301
126.092
136.805
227.678
96.6534
181.488
218.523
109.051
106.385
99.6587
219.771
100.241
165.793
212.13
107.835
108.856
96.6803
207.428
106.027
159.451
209.172
110.881
111.054
103.062
207.553
108.351
161.691
193.326
110.587
110.85
108.113
185.495
141.942
166.544
157.833
135.353
154.184
120.568
152.832
50.7881
78.4598
129.233
67.3743
50.9875
70.8978
89.6002
45.5681
96.5163
55.461
45.7138
44.592
46.618
60.3657
39.44
36.1467
44.962
35.849
38.9426
39.1425
41.9343
196.849
226.084
213.79
96.6751
91.6141
108.719
109.369
135.136
274.198
321.968
158.965
132.498
161.708
280.201
98.12
237.384
241.18
100.741
95.9345
103.066
233.543
82.9812
223.742
211.077
86.4648
83.9473
86.2931
209.118
77.8625
248.211
218.221
82.4081
82.8388
78.5433
222.843
73.9093
192.177
208.869
80.7721
80.3353
73.695
173.243
90.8039
123.235
111.743
108.775
104.557
93.8072
117.898
60.0908
125.05
129.024
66.3806
56.7719
66.4911
120.903
40.3973
81.7179
85.9985
43.6416
39.95
44.901
81.1594
45.8024
47.2636
47.0018
38.7516
42.3323
31.6005
34.712
168.23
201.133
176.855
108.926
85.9261
108.986
87.9217
143.48
158.794
153.966
72.9688
65.3927
76.8558
73.9572
122.585
134.756
121.374
58.9225
54.4451
68.0093
60.4243
112.819
108.263
103.647
49.373
46.7037
53.0487
50.0026
98.9526
95.1836
89.01
45.7735
44.1444
46.9398
44.8539
76.728
82.4321
76.6887