/*--------------------------------*- C++ -*----------------------------------*\
  =========                 |
  \\      /  F ield         | OpenFOAM: The Open Source CFD Toolbox
   \\    /   O peration     | Website:  https://openfoam.org
    \\  /    A nd           | Version:  10
     \\/     M anipulation  |
\*---------------------------------------------------------------------------*/
FoamFile
{
    format      ascii;
    class       volScalarField;
    location    "1.5";
    object      omega;
}
// * * * * * * * * * * * * * * * * * * * * * * * * * * * * * * * * * * * * * //

dimensions      [0 0 -1 0 0 0 0];

internalField   nonuniform List<scalar> 
12920
(
63.3541
132.741
157.781
132.666
106.29
81.3258
67.1491
61.065
56.2225
52.2907
47.8535
44.2568
42.6217
42.7513
43.1248
44.0723
44.0723
43.4206
42.2001
38.769
177.827
174.247
156.508
119.653
105.937
93.8724
84.7593
77.4223
68.7019
63.2442
57.8963
53.7903
49.0685
45.2346
42.2387
39.1447
37.2506
36.4421
36.1103
34.6221
176.479
201.899
156.819
134.676
119.792
107.692
91.2484
81.3149
69.5529
64.3992
58.6471
53.0403
46.3243
39.9867
35.0859
31.9898
30.7859
28.072
26.5409
23.0024
337.264
216.348
165.464
120.413
103.445
89.2251
73.0737
62.9395
48.756
44.643
41.8997
41.3756
37.6329
32.1661
27.0502
22.0093
17.2005
11.9842
10.8876
9.55673
134.218
186.318
182.889
153.852
123.352
99.5226
80.2764
62.8219
45.8649
32.4416
23.7284
23.1308
20.6367
17.2122
12.5838
8.53653
5.63422
3.65693
3.44261
3.05017
159.002
212.841
172.191
138.005
119.982
108.09
88.942
71.1746
47.3071
28.534
14.5337
11.1983
8.15235
5.96261
3.82876
2.35397
1.27676
0.661561
0.593989
0.625992
376.961
191.955
148.19
115.502
110.883
97.3279
84.259
62.7448
39.5928
16.4499
8.59907
9.20094
12.1818
8.89421
8.33156
6.56906
3.89934
1.87003
0.778253
0.313209
472.928
227.295
169.116
132.503
117.533
101.48
146.652
126.355
88.9267
35.3097
17.4458
28.5478
43.9986
36.8417
19.9333
15.7957
10.2793
5.69886
2.73772
1.09536
486.712
244.638
196.063
154.676
127.713
170.842
277.258
227.278
229.635
143.188
109.948
103.467
139.819
122.365
42.0446
20.7353
15.8995
10.0738
5.65445
2.61678
345.43
222.967
200.427
163.726
134.738
188.016
265.937
225.229
263.201
291.741
260.299
166.548
138.598
156.672
56.8066
22.2914
18.5734
11.9726
6.87061
3.34135
314.833
266.428
227.772
173.393
126.773
166.437
230.652
182.246
171.651
160.915
158.184
185.648
115.476
75.6375
38.631
28.2434
22.9281
13.4343
7.21904
3.34421
442.854
212.819
172.342
145.138
135.506
204.3
305.485
242.047
222.627
243.015
236.338
119.911
135.285
88.4533
41.4034
30.863
24.4938
14.244
8.1091
3.94162
284.977
239.007
199.467
162.909
144.033
133.646
191.635
152.954
130.146
115.244
107.155
87.1165
70.1384
62.5768
32.8504
31.4421
29.7074
24.834
18.1675
10.1835
283.404
268.266
221.957
173.858
147.388
135.571
115.006
92.0764
74.8681
60.9569
52.3951
45.9276
41.3046
37.8675
36.4648
35.5313
34.2568
32.9122
30.3933
20.9104
402.786
264.663
203.764
163.277
140.193
126.884
103.787
80.527
63.5933
53.9927
47.7334
42.4168
38.556
37.3696
37.4507
37.4227
35.9882
31.6259
26.2155
17.0445
125.134
174.402
171.617
163.411
135.632
118.673
97.1885
78.4004
64.3466
57.153
50.0295
42.7001
34.9266
27.8126
23.0178
20.8957
21.2293
21.502
21.1587
17.2276
131.483
111.7
148.443
156.497
139.783
114.448
94.1105
88.0559
78.765
69.8127
57.2104
44.0699
31.6153
22.291
16.8164
15.0062
15.0705
16.1731
17.0132
16.0006
30.5794
128.572
162.184
153.481
122.049
104.579
91.6412
87.6182
81.5263
77.4529
69.7305
60.9742
52.2312
43.5166
35.4859
28.4198
22.5938
18.4744
16.878
13.1126
53.0911
94.3929
137.731
134.651
126.336
110.573
93.3166
82.3483
71.7842
62.1317
53.0197
45.3774
40.4752
36.3861
31.4772
24.9704
18.5578
13.1069
9.53325
5.67408
20.6445
28.3465
42.5275
82.4085
94.5264
92.7179
81.8516
70.9275
62.9439
56.1483
49.3532
42.5182
35.7266
28.4347
21.083
14.0501
8.68169
5.06621
2.94801
1.47141
34.4075
76.6582
92.139
85.4162
67.569
48.4897
39.2085
34.4636
31.2071
29.2075
27.7253
26.9097
26.1342
25.3835
24.6136
23.6422
22.2388
20.2483
19.5511
18.9885
220.955
107.251
86.7935
65.205
54.6565
47.7612
42.8183
39.2722
35.0621
32.4652
29.3993
27.6403
26.2507
26.1944
26.319
26.7797
28.4292
33.022
35.5744
34.3047
171.696
132.431
88.0404
78.5483
65.514
56.8261
45.7792
40.3363
34.025
32.0364
29.171
27.2241
24.751
24.1367
24.5951
26.6419
27.5381
26.1387
24.7928
19.9248
236.813
190.076
87.9819
62.5521
52.0554
47.838
39.6119
34.2082
28.2201
25.1173
23.3689
23.1191
21.953
20.5156
18.9632
15.7266
11.9342
8.16504
7.138
6.24019
169.289
136.333
101.059
76.5473
60.0899
53.6103
46.898
37.809
30.246
21.9217
17.3163
16.6554
15.2359
12.844
9.71693
6.98563
5.46108
4.69002
4.56191
4.45064
194.297
111.087
87.7099
74.3588
60.0836
60.8069
52.7628
47.6785
33.7153
20.9117
14.1458
11.5565
9.38977
7.33447
6.04962
5.04972
4.47053
4.29859
4.34464
4.45399
255.842
103.603
72.2124
67.7188
56.8869
54.0838
46.9337
42.9885
31.7608
15.9636
13.5998
11.2589
12.4051
11.6342
11.92
10.8579
7.99897
6.1538
5.49666
4.97482
346.895
154.858
81.2332
73.0531
60.6186
53.6389
57.1209
51.6294
46.1218
35.5948
20.5991
24.6176
21.3076
21.3891
22.4253
20.4573
14.9571
9.06756
6.39039
5.23989
192.368
184.111
113.976
86.8368
62.182
63.1832
63.6931
53.6528
48.9815
53.4512
57.5669
35.6479
28.6982
27.9085
26.8679
24.4305
18.791
12.2909
7.60057
5.27596
441.038
169.227
121.441
93.7604
69.7136
67.0976
63.2654
57.3416
52.5478
51.9385
55.305
71.996
48.5581
31.6511
28.2946
26.2038
20.7093
13.8714
8.87711
5.7762
324.491
181.772
147.245
110.558
77.1112
67.148
67.7765
63.3655
61.577
61.9762
63.1714
65.8922
80.5245
30.4175
31.0719
29.1222
21.8597
13.8615
8.91113
5.93186
330.325
133.086
89.6758
75.3032
63.0923
64.3271
63.1637
54.2764
48.1612
45.5203
46.5497
54.466
54.2049
34.4441
31.0411
26.6852
22.1915
12.7692
8.14389
5.81253
314.22
218.795
108.3
88.2744
71.9861
64.3891
65.7675
53.2098
44.1893
38.592
37.1673
36.7853
33.9719
28.1314
26.7803
26.3895
25.8079
21.7472
14.5858
8.22706
270.252
236.922
128.289
95.1197
79.4289
74.8596
62.022
50.575
43.7378
37.9935
36.6928
35.1572
33.4998
31.563
29.9837
28.6562
27.5574
26.7855
25.6146
18.1657
341.882
193.297
107.09
89.4722
75.8728
75.7879
65.2049
48.4803
38.1002
32.4957
30.487
28.2612
27.7118
27.209
27.2838
27.0027
26.3269
24.4054
21.8318
14.351
201.199
145.664
107.623
90.2682
76.6594
72.0603
59.5526
46.8321
36.5215
31.5999
27.9911
24.89
22.475
20.1318
18.3373
16.8492
16.6917
16.8171
16.7352
14.7246
235.434
147.887
116.903
91.0584
72.4609
62.9393
52.9423
48.5331
41.7011
37.693
30.9883
25.0529
20.1534
17.1472
14.9686
13.9742
14.0187
15.1699
15.6509
14.6191
104.605
143.417
121.368
86.0049
67.2669
58.951
51.675
49.3072
45.9002
45.4302
43.9087
42.4899
39.462
35.3853
30.2863
24.9259
20.4776
17.2723
15.8277
11.574
58.4772
90.5735
78.7848
71.257
61.5222
59.0048
56.0661
52.3872
45.8659
40.7944
37.3696
36.2628
34.2688
31.3974
26.8317
19.9202
13.3888
8.72365
6.59076
5.00878
19.0244
40.6336
44.678
54.1687
55.7174
53.7547
46.0754
40.1442
35.6016
31.5576
26.9086
21.9666
16.9563
12.4493
8.55093
5.35631
3.04297
1.60622
0.822662
0.381265
118.919
94.1256
101.312
98.848
80.428
54.2562
42.5827
37.3645
34.2725
32.2027
30.5253
29.3109
28.2831
27.175
25.6555
23.7936
21.773
19.3294
18.0621
17.5908
228.449
112.414
85.9448
64.9196
52.4136
41.8035
36.3697
33.43
30.6036
29.5406
27.8597
27.476
26.6348
26.2352
25.2364
23.1274
20.995
20.5225
23.2824
23.2763
352.671
150.593
85.8987
65.1224
52.8431
44.8277
36.9044
33.2582
29.607
28.6526
26.7204
25.8831
24.0818
21.745
17.9013
14.1672
13.515
12.4746
12.9384
12.3822
349.613
245.932
108.586
54.2934
42.7402
36.9882
33.1448
28.8671
25.9192
24.4867
23.0282
22.5895
20.8867
17.4086
13.1456
9.62456
7.52594
6.17232
5.87606
5.82833
165.071
141.9
102.681
67.97
48.7232
39.7373
35.2318
29.1105
25.3247
21.5655
18.6685
17.0534
14.1195
11.3317
8.71013
6.84661
5.84966
5.29664
5.17108
4.95103
199.947
119.208
82.2601
58.1066
46.9291
42.8412
37.9514
33.0685
26.6314
21.1152
16.9138
13.9149
10.5236
8.17957
6.93155
6.04719
5.49298
5.11135
4.99459
4.83057
258.857
114.685
62.4859
51.4887
47.009
40.77
37.4044
31.7729
29.2492
20.0748
16.1127
12.3641
12.3775
10.7072
10.9073
10.0668
8.46595
6.99848
6.10366
5.21584
268.269
178.919
73.7113
57.7432
50.3625
42.9392
44.3256
40.8982
39.2597
31.5282
22.9895
24.2389
21.4499
20.0971
21.628
19.6521
15.088
11.9815
10.4288
7.88046
156.632
145.589
109.187
76.2383
54.3827
48.951
47.1342
45.0122
41.1937
45.5183
49.426
38.5071
30.947
28.0654
29.3163
27.8947
20.8932
15.8187
14.0585
12.2525
219.002
150.273
123.965
89.7547
63.5346
53.7008
49.2006
46.8498
47.0285
48.3706
49.9697
55.165
51.0697
36.0711
31.5333
31.669
25.3791
18.7802
15.8867
13.2845
222.302
137.575
103.669
73.8144
56.7726
51.9298
51.475
50.0179
50.4686
54.5694
98.9187
70.1258
67.1115
37.7038
32.8643
32.8225
26.1374
19.2998
16.4356
13.7296
271.994
122.824
76.8359
59.1103
52.8009
50.2642
47.5527
43.0211
41.8101
43.8839
47.5579
53.654
50.5343
32.7651
30.5841
31.6209
23.4956
16.411
13.9343
12.192
278.152
186.487
89.2454
66.0429
57.2048
49.826
46.701
40.5945
36.1872
34.746
34.7918
34.316
31.9103
28.2392
28.7597
27.9197
24.1226
16.6354
12.3312
8.23297
377.519
245.092
111.493
74.4715
60.5383
53.1547
44.0478
37.0811
34.7364
32.1794
31.926
31.2574
30.6543
29.9613
29.8246
29.4181
28.5615
27.7692
25.5791
15.4536
302.213
183.098
101.138
73.2921
59.3741
52.9636
43.0113
35.3423
31.1886
28.9307
28.6537
27.9839
28.0208
27.8907
27.608
26.7065
25.5877
23.1316
20.2762
13.4767
384.464
180.728
117.56
84.6378
64.4453
56.0427
42.6154
35.1345
29.2754
26.7495
25.4923
24.7784
24.6358
23.9634
22.3692
19.6665
17.6338
16.4318
16.0862
14.6125
355.384
197.87
130.196
88.9868
65.4541
54.0084
42.8157
37.8439
30.5325
26.4652
22.8864
21.1235
20.0889
18.0903
15.9417
13.4264
12.111
11.9204
12.7451
12.1943
209
138.056
104.76
76.5801
58.28
49.8818
42.1882
39.9136
35.4423
32.8566
28.0499
23.7625
19.0021
15.5827
13.1897
12.165
11.5846
10.6418
9.8489
7.16405
92.828
100.927
86.3837
68.5893
54.3712
49.695
44.0835
40.7943
35.0408
31.1132
27.389
24.591
21.211
17.0963
12.7489
8.65656
6.38023
5.3246
5.16238
4.8908
15.0559
56.3177
69.3002
67.8983
62.7296
54.7257
47.1219
41.1942
36.0551
30.9267
25.8622
20.735
15.9585
11.502
7.59707
4.53903
2.52618
1.31692
0.651571
0.294359
118.803
116.161
116.509
106.936
81.1383
54.8044
42.7162
37.6108
34.749
32.7259
30.9711
29.7514
29.0945
28.5414
27.2905
25.3446
23.8007
21.9791
20.4277
18.8822
251.577
120.367
95.5272
69.9401
55.7405
41.8612
38.7187
34.7246
34.3144
33.2512
33.1716
33.0771
33.1124
33.1539
33.3656
33.2269
32.6537
30.1067
28.6802
28.9109
396.743
127.149
85.0762
58.8742
51.112
41.48
37.789
33.6267
32.8379
31.7304
31.421
31.0791
30.9188
30.7737
29.8562
26.064
23.3311
22.8986
23.8795
25.7717
267.281
176.579
107.018
55.6569
43.5433
36.7752
35.1162
30.4442
30.4774
29.1363
28.98
28.3684
27.1383
24.3906
20.2886
16.2863
14.5142
14.5981
16.0467
17.031
321.884
169.322
117.988
70.8481
48.3692
37.612
35.4764
29.9279
29.6224
27.3382
27.2645
25.2449
22.4502
18.4711
15.036
12.2485
11.0761
10.855
11.3938
11.9277
443.473
174.803
88.2205
57.6034
46.0332
39.399
36.7967
30.7807
29.1036
26.5488
24.6921
23.0771
18.1799
15.1895
12.4679
10.8748
9.736
8.91438
8.61901
8.86808
198.521
126.548
66.3455
52.9054
47.2314
39.2055
37.4465
31.1117
31.4864
25.7552
22.6633
16.568
16.3933
14.6322
15.813
16.2751
16.8431
16.2667
13.8968
11.3652
202.898
131.922
73.1409
57.6209
51.2191
42.6465
42.3444
35.747
35.7045
31.5634
28.8991
24.646
21.7007
19.9595
25.3385
24.4791
24.1082
24.4836
24.3447
23.1416
233.238
155.458
113.298
74.441
54.405
46.3599
44.8889
44.0621
39.4422
43.5581
42.205
39.3609
32.3384
30.461
31.8529
29.4542
27.1389
26.9228
27.1848
27.3831
253.672
206.546
150.308
95.3023
65.7197
52.1388
46.7392
45.6542
47.3559
48.646
51.062
57.8549
47.4896
39.5045
37.7827
36.1342
30.847
28.7702
28.3008
28.0779
214.27
163.65
102.883
68.2477
54.7902
49.4218
48.0612
47.4673
49.7792
55.636
86.6302
110.547
55.778
45.6463
41.9339
39.6366
32.3762
29.5839
28.8446
28.5739
386.74
138.668
75.9797
58.7527
52.9724
48.4125
45.8768
43.0301
43.7221
47.4908
51.1711
57.7342
46.4159
46.1426
44.6047
37.487
30.2828
28.4841
28.4339
28.7137
269.001
147.192
79.0808
60.9802
56.3808
46.8497
43.8054
39.0713
36.8773
36.8128
37.9408
38.6765
38.6591
38.0052
38.3445
32.4246
27.5686
25.0091
24.4009
23.2703
196.16
171.934
88.1857
63.1738
57.054
45.923
40.5787
35.2566
34.7677
33.4077
34.3771
34.9231
36.5321
37.6709
37.9328
36.5604
33.8095
28.8197
22.4027
16.6119
242.899
131.304
88.1806
63.3071
54.7307
44.1659
39.717
34.1449
33.1793
32.1365
32.8963
33.6436
34.8113
35.21
34.7466
31.84
26.326
20.3855
17.4171
16.3667
229.643
147.344
115.99
77.5293
60.703
47.764
39.2219
33.5423
31.3591
30.2619
30.8844
31.127
31.7816
31.2894
30.1132
27.4104
25.0413
22.5362
20.1477
18.3002
247.253
166.953
126.275
84.1926
62.6449
47.9055
39.9787
34.0919
30.1703
28.4158
29.0563
29.3124
30.0843
29.4727
28.564
25.601
21.9801
18.0022
15.5363
14.9871
253.465
157.443
115.129
75.0232
57.994
45.9595
41.2221
36.6586
32.6202
28.2777
26.5505
25.1767
24.6893
22.7396
21.1817
18.1865
15.6912
14.1617
13.4504
13.3884
171.27
142.452
98.6128
68.6873
55.7062
46.1096
41.8417
37.0378
32.2699
27.668
24.9734
21.9523
19.7365
17.6427
16.4451
14.8233
13.3893
12.5998
12.7008
13.1731
20.4296
64.6016
73.8008
69.45
60.4831
50.6238
44.4763
38.7182
33.9039
28.491
23.7055
19.0469
14.6518
10.5251
7.01095
4.33144
2.48549
1.31412
0.654803
0.31084
187.086
154.417
123.885
96.1429
63.4309
46.5299
39.9912
36.123
33.5499
31.3838
29.9715
29.3366
29.3345
29.2907
29.0261
27.831
27.3148
27.2051
26.9139
24.3848
669.34
186.268
94.5285
77.4037
63.535
53.097
51.6582
44.6449
46.5148
42.2703
44.0423
41.9499
43.441
42.9679
44.6361
44.9711
45.8582
44.8624
44.4977
44.8085
230.383
125.794
87.7114
66.5516
59.5831
50.5411
48.1578
42.6803
43.7903
40.5315
41.9241
40.1172
41.7302
41.3507
43.0438
43.0433
43.3999
42.5069
41.8964
42.5946
284.446
139.204
96.3596
74.9199
54.838
56.2994
46.1357
42.4477
42.2382
38.7373
40.0716
38.2548
39.3576
38.929
39.8499
40.0586
40.7492
40.735
40.1898
40.829
418.897
204.419
128.2
78.7812
58.3089
53.21
47.3103
41.9431
42.098
37.8355
38.9033
36.7019
37.7597
36.5755
37.5336
37.8285
39.6906
41.2182
42.1356
43.8334
317.504
171.501
99.8299
85.4496
59.1794
64.8315
46.8146
43.4204
39.3277
36.3658
35.1455
34.5155
33.6795
33.7414
33.9484
35.3713
37.4804
39.896
41.2813
43.5707
271.341
141.874
79.5086
81.7708
58.6954
59.1007
52.1895
49.2736
42.7092
37.6384
34.7734
32.3632
32.1923
31.3973
32.5567
33.7535
36.2552
38.6118
40.5468
44.1325
236.449
145.258
83.4775
82.1957
61.7538
60.5888
49.5088
48.4754
44.1274
39.3983
40.2937
36.3231
37.4174
35.9487
35.8794
34.9382
35.5622
36.8858
38.0072
40.5195
262.603
163.616
124.016
81.2363
62.904
56.3006
53.8505
49.2298
46.5755
45.7315
47.2611
46.183
43.388
42.3753
39.2646
35.9172
35.2874
35.9606
36.9064
38.3931
238.699
195.8
155.713
94.3646
71.4355
56.7807
54.1356
54.2141
53.5126
52.9219
54.3769
56.5453
51.2783
47.5834
43.2555
38.0904
36.3696
36.3697
37.0885
38.2842
403.483
203.695
109.904
77.5217
63.1485
54.5463
53.969
55.9205
56.7138
57.8272
59.316
59.8886
58.3954
53.773
48.9353
40.0325
37.3139
37.0274
37.5429
38.676
528.357
191.097
87.373
81.7703
60.6141
56.1424
53.4417
52.3303
52.9084
54.8663
56.7324
58.6715
58.2717
54.9407
49.9641
39.5506
37.5842
37.6803
38.7124
40.233
182.864
154.604
88.3025
74.0974
68.2021
60.6465
49.5063
45.2738
44.2295
44.3337
47.0936
48.4361
50.0338
49.4114
43.6209
40.6923
40.6633
42.6801
44.6045
46.8456
302.372
137.918
85.2265
74.7873
67.3018
54.911
46.7733
44.2888
40.9835
40.1507
43.0432
44.3476
48.6282
49.0918
49.1688
47.8792
47.6314
46.3694
46.9917
50.5374
200.308
138.405
88.6923
79.7308
64.4005
57.8623
47.9061
41.8607
40.8084
39.3028
41.6657
42.0464
44.7619
45.0761
46.2605
46.2086
46.9421
47.7834
49.1676
50.5264
243.283
152.444
115.301
78.2354
69.0717
51.7697
48.1577
40.7667
40.574
37.9658
39.4166
38.9643
41.3316
42.0444
44.7357
45.6748
47.6527
48.2663
49.7262
50.8858
196.099
163.567
131.783
77.2584
68.4711
49.9282
47.7536
40.255
40.8582
38.91
41.3833
41.6499
44.3486
45.0497
47.2549
47.5879
48.3427
48.3416
48.3168
48.8817
157.843
140.224
122.876
72.592
67.9335
49.621
51.4535
41.7221
44.651
41.0753
44.4861
43.77
45.8723
45.5209
46.7324
46.7303
47.807
47.6614
47.5811
49.642
359.162
163.342
128.68
72.7381
69.0001
49.5905
53.2646
41.9635
45.2232
40.1003
42.509
40.2251
41.0023
39.2074
39.2923
38.8073
40.8673
44.0595
47.524
51.0278
50.3416
73.5842
75.1324
66.894
53.8645
44.8086
39.1875
33.2861
28.2705
23.468
19.5213
15.8216
12.3971
9.26135
6.62046
4.43582
2.74325
1.63261
1.15883
1.11436
49.6156
56.8948
102.275
48.4947
50.0282
56.9358
111.842
52.1508
101.664
78.585
50.7552
55.4997
114.027
119.089
99.5414
46.0631
49.9176
55.7067
114.449
48.7502
53.5315
80.8037
50.8949
52.5748
119.574
134.381
55.452
64.8158
219.589
254.046
227.426
76.2313
61.6234
72.9122
63.7961
235.703
232.842
261.324
59.1837
55.5218
61.2506
55.932
189.225
269.241
284.37
54.1008
55.1627
54.9442
53.9293
125.782
283.495
216.209
61.1238
66.7554
54.1449
61.8921
103.74
165.279
170.852
57.4916
39.1668
67.9327
82.3105
128.79
177.087
140.717
34.6256
29.4702
82.4479
49.2752
136.764
139.947
157.534
28.9307
28.74
38.4816
32.0876
59.0903
154.473
99.156
28.4108
26.8565
31.6676
29.8502
222.407
241.085
186.176
73.9727
65.8728
80.5579
75.6822
254.075
176.868
160.78
63.5491
58.195
74.8408
72.9923
289.037
159.526
161.255
57.1469
56.1442
72.1241
69.7715
278.097
165.335
192.171
56.2609
59.301
69.2465
67.953
160.396
209.37
232.896
61.2944
81.0568
67.9559
69.9066
143.339
207.39
145.424
87.191
63.5155
75.4321
98.108
157.556
109.491
97.418
46.0915
32.3414
73.6531
32.7214
113.5
121.487
120.273
31.9459
30.3552
31.7413
30.7992
185.724
298.566
244.127
78.4403
72.3922
72.7275
63.4372
177.735
240.445
229.841
70.5525
68.4097
60.7348
55.3102
161.741
227.763
239.377
68.5316
69.1851
54.0602
51.5551
157.489
246.432
253.308
69.2297
69.3369
51.3854
52.0089
186.749
248.346
140.788
69.4496
70.9067
52.4191
61.8328
144.147
127.727
138.421
73.9249
101.316
75.3499
75.2118
64.6232
137.145
93.9964
80.8015
32.3454
62.4875
35.643
88.4757
83.7838
66.3602
31.1987
30.4751
33.9919
30.5577
247.998
354.035
257.959
75.6077
64.5746
90.6648
70.4802
227.029
253.852
220.208
61.4843
55.0268
65.5559
56.9679
236.163
216.748
202.096
53.1857
49.2295
53.6532
47.2065
247.733
201.972
199.606
48.9873
49.2296
45.8631
43.1229
123.658
194.05
129.471
49.4125
57.4354
42.6605
42.6341
136.749
115.128
97.5161
63.5057
62.7884
42.9905
43.1675
97.5149
94.9912
74.13
55.3168
36.9724
42.3171
35.433
71.0525
72.8189
67.4256
35.0446
29.8912
32.3625
26.4616
55.5154
62.9473
57.032
49.5775
46.7157
50.8358
47.4006
50.3984
55.1958
51.0002
46.0135
43.557
46.7231
45.3862
49.5491
50.1539
49.3146
42.2585
43.3664
45.1771
45.3336
60.9216
49.4819
54.3659
46.0051
51.434
45.5341
47.6863
41.1402
57.9784
67.4954
50.91
42.9928
48.8757
52.4335
29.3002
71.3184
52.3513
38.233
31.5981
56.6968
54.1898
28.2693
39.9288
31.9265
30.4659
28.3629
43.8114
35.0733
26.916
31.3609
28.8038
27.9184
28.2561
33.7361
30.7787
58.9077
68.4034
67.0858
51.2164
48.7833
53.8129
53.4485
53.374
66.468
65.133
48.313
47.5713
53.3355
53.5894
51.8346
64.6012
63.1914
47.5952
48.3132
53.8464
55.3932
54.0615
62.9962
62.834
48.5355
49.7045
56.3714
71.2369
65.6823
62.9633
63.7291
50.0993
52.2996
72.1234
65.6325
65.8321
65.9719
87.2109
55.5257
60.8558
62.6869
69.6211
32.1661
76.3227
32.092
51.6309
35.8551
66.6817
35.9818
29.8296
30.9742
30.5743
34.854
31.6406
35.1373
33.665
64.7057
61.9787
55.8826
53.8741
52.5167
49.6085
45.5121
61.6447
53.9952
50.1129
52.0335
51.6797
44.7195
43.6899
61.8238
49.262
47.7774
51.859
53.7731
43.6906
44.8828
62.767
47.7964
48.959
54.5535
69.0868
45.6278
48.7523
64.2966
49.4228
54.422
69.8596
65.276
49.5258
50.7836
88.7169
62.4439
66.7906
62.7817
71.4228
53.2854
61.3688
31.4361
61.3483
35.9167
68.5995
35.9192
57.5823
34.9167
30.3217
33.9575
30.0929
35.224
33.3857
32.8817
28.6193
56.3899
70.6417
60.0074
49.3902
45.2423
52.0693
46.2123
49.5263
56.4452
49.0672
44.3699
42.5937
44.2903
39.7956
45.5699
46.5369
42.095
42.2851
42.8199
38.4482
37.493
46.2854
41.1981
39.5512
43.468
45.8895
37.4006
37.4554
50.9142
39.3933
40.585
46.5258
49.4239
37.6173
39.1284
57.3304
40.9642
40.7948
51.7636
54.9769
39.3724
37.9552
36.4998
39.6392
33.2681
51.7478
35.9632
36.4432
30.703
29.5422
30.6156
24.7167
34.1461
28.1745
29.1738
24.9494
45.5718
48.8559
45.8813
44.6743
44.4473
46.2315
44.2576
42.4098
45.4303
44.7317
43.8763
40.2917
44.2352
44.5836
42.87
44.6928
45.1199
39.4386
42.448
44.7438
45.4775
49.9425
45.3414
47.381
44.4451
44.8017
45.7599
48.084
42.503
48.3685
51.9462
43.8896
40.5672
48.9689
53.4981
32.3408
55.7865
53.3755
38.9284
33.7386
55.528
49.3227
28.4273
44.3871
36.0005
31.7296
29.5338
44.3781
37.53
28.8261
34.3959
31.5423
29.4392
31.0137
36.1237
34.5847
47.129
51.3895
51.0885
46.6378
45.1878
48.118
47.6945
46.7993
51.0648
51.7406
45.2649
46.4133
47.8229
49.4703
48.1299
52.2155
54.7245
46.9208
48.2919
50.414
54.4786
53.2989
48.6782
52.0189
48.3539
52.8899
48.7112
51.9757
57.5068
50.292
55.5233
50.1468
55.5952
50.6317
56.9078
59.6836
68.8106
69.1844
57.7404
55.2745
104.786
70.1462
37.2819
65.2848
38.3756
48.3012
40.1074
57.8918
44.3212
32.2917
37.559
34.8642
38.6442
35.6635
43.3062
39.0292
50.3531
47.8705
44.1073
48.1833
47.3087
45.9735
43.2538
50.0917
43.5097
43.0261
47.3141
48.4661
43.0397
43.5077
53.2627
43.1931
45.1008
49.344
53.8255
44.101
47.4008
65.5094
77.4605
51.3346
61.8982
56.2454
292.972
52.0048
80.1185
95.4191
67.264
250.412
66.846
238.234
81.0809
71.3047
55.3121
61.6966
118.678
73.3399
67.6341
59.3241
38.4489
56.3115
34.0452
59.3754
44.7675
48.3707
43.6606
34.7801
33.0872
31.9378
43.9423
39.7383
43.932
42.4136
43.7231
49.0473
44.2401
45.5389
42.6512
46.116
42.0671
41.8689
42.4969
38.5439
42.3053
42.3121
40.6047
37.9656
43.0548
37.5267
37.3272
42.694
45.3351
37.6663
38.7873
46.7732
37.4502
37.7258
46.4322
49.5265
39.019
39.4497
51.2936
37.8491
39.0796
50.6386
56.9814
39.53
40.4248
55.2893
39.2772
37.691
58.3508
51.2596
40.7088
40.1304
34.4236
36.2205
31.2805
44.8155
43.0437
39.5522
38.4649
29.9298
30.2198
27.4752
43.5404
42.6839
38.0305
37.0819
44.8119
46.3991
44.6681
49.7984
48.0217
50.6305
49.6945
40.1153
44.6995
45.0958
46.5435
43.2225
49.618
49.2406
42.4893
45.238
45.8664
43.1932
43.7058
49.1139
48.7621
42.9195
46.1038
48.3848
43.0794
43.3016
48.5985
49.9593
40.5881
49.29
53.6571
43.892
44.1918
50.721
52.9416
34.2806
54.8787
47.7952
43.1754
39.7295
52.5776
47.7372
30.5226
44.014
38.1768
38.9091
38.1852
46.0661
43.0561
31.6265
37.0144
35.7703
37.8584
36.3683
42.4838
40.2345
45.5325
48.0151
47.7011
50.8469
50.6354
51.2965
52.251
46.8828
47.8898
49.6685
50.7355
50.9509
52.624
53.7576
48.513
50.6394
54.619
50.9548
50.7932
54.1451
55.6621
50.1862
55.9885
78.5793
50.5986
51.6185
55.7074
58.7636
56.1794
81.9224
103.341
52.4254
55.4617
59.3063
60.9599
52.8353
99.6702
65.6415
55.6196
50.458
62.1059
56.2126
40.8184
55.242
45.7654
48.6462
45.1317
54.4219
50.82
37.0335
44.7596
40.6043
44.3396
41.8907
49.7338
46.1524
47.3957
46.2932
43.9492
51.0601
52.0367
50.1653
49.7213
48.8472
43.8247
44.4749
52.4051
53.5381
49.8208
50.578
54.1753
45.1294
48.497
53.963
55.9831
51.0579
53.1738
80.4022
49.7946
54.0541
56.2564
59.8494
53.8645
55.3771
112.954
56.1518
67.1109
60.805
60.8348
56.2532
58.4956
67.3674
68.4396
53.7469
61.024
56.3833
57.7584
56.151
46.4791
48.0825
46.6478
55.2229
52.1364
55.8837
53.5433
41.4171
46.3551
43.9281
51.0482
47.4288
52.4938
49.3908
43.2974
46.1292
42.2761
50.1562
48.8236
50.1825
45.6909
43.2518
40.8545
38.6279
48.7202
49.1772
44.3613
43.3188
46.4673
38.4873
39.852
49.6249
51.478
43.649
45.0692
50.1242
40.042
40.5449
52.0295
53.1976
45.0712
46.3429
57.1154
40.6785
41.7213
53.6651
55.6339
46.9027
48.5958
49.195
42.0664
42.0774
55.6589
55.44
48.8322
49.6387
46.2579
41.7871
41.052
55.1511
53.0767
49.5195
49.0671
44.1684
40.6349
39.8425
52.1354
49.4281
48.4877
47.667
51.0517
53.994
53.2583
78.7744
80.8141
75.4752
75.9359
46.5037
53.0146
52.106
77.6707
76.3733
75.424
75.2881
46.4231
51.8604
51.3278
77.6977
85.387
76.0034
82.5981
46.6831
51.1341
52.1936
83.0835
83.5207
84.1405
85.922
47.2622
52.8182
54.2959
84.0623
90.5187
86.1224
86.813
43.9272
53.8478
50.312
88.7221
89.8033
85.7667
82.6524
42.8578
48.9507
46.5975
88.6698
90.8367
82.2765
84.1894
39.9268
46.135
42.9043
89.04
77.8518
84.8998
77.997
54.2508
54.3757
55.7659
72.8862
76.1676
73.618
76.3549
53.7111
56.1043
56.5945
75.7286
75.1683
76.1146
76.2108
53.1402
56.7013
57.3142
75.9198
82.8051
77.604
86.5896
53.711
57.1355
58.4777
84.88
87.8512
89.8228
94.9392
56.5614
58.595
59.5479
88.3406
87.8765
96.1205
96.0079
52.7099
60.4445
58.442
86.562
81.3661
92.955
82.7328
48.2282
57.3078
53.5161
80.1483
81.0486
80.0023
76.8458
44.5155
52.4552
48.7539
81.942
76.3067
77.2792
74.1875
55.5454
53.3164
53.389
72.1588
75.8925
72.7284
73.1407
56.5463
53.5228
54.0115
75.7519
76.1282
73.1076
73.5242
57.8173
54.3075
55.9711
77.5896
86.6584
74.3961
81.4307
59.2716
56.5204
57.765
89.9823
95.5717
84.0097
89.6099
59.1749
58.3312
59.8394
96.6152
96.32
90.7792
90.2056
59.1702
59.7832
59.686
93.3763
83.0846
88.0588
81.0105
54.8499
59.1756
56.2919
80.3073
76.7303
79.1621
76.6645
50.1117
55.2681
51.9321
76.901
74.1491
76.7455
73.2401
52.4173
53.5967
48.85
70.7916
71.7418
71.528
68.7516
52.593
47.5074
46.5536
71.7759
72.2693
68.4249
67.1105
54.3804
46.9426
48.1116
72.973
78.9139
68.235
71.7891
56.2134
48.033
49.5347
81.1982
86.1313
72.6954
73.6293
58.5114
50.187
51.8925
87.2051
86.886
74.8284
76.2141
58.7501
52.0209
52.9111
85.1136
79.4907
75.5392
74.0473
55.8613
52.8129
52.2839
78.2458
76.4105
73.9326
73.6881
51.9326
51.62
50.0073
76.5501
73.7502
73.8716
70.0236
55.3995
49.0819
55.2821
49.7457
54.3479
49.1829
56.6136
65.3819
55.2309
74.8302
62.7645
59.0176
55.6752
226.687
81.8574
71.9788
95.6045
270.131
67.5659
88.0799
289.897
53.3202
48.4044
48.8432
51.7575
48.7827
51.9104
52.7196
55.2689
49.8983
49.3542
55.1194
49.2879
56.4338
54.0705
66.6357
63.6528
55.0152
83.5654
55.6743
232.04
60.2284
80.8153
265.777
70.9526
106.478
85.6668
289.497
67.5314
58.0648
50.8736
55.6746
52.8113
55.5204
51.3753
58.2655
88.3952
72.3607
98.8111
256.841
71.7997
87.7866
242.789
88.9048
66.0097
92.9825
113.892
70.5206
78.159
168.778
58.3112
50.438
51.834
56.1032
51.2112
56.9946
58.0647
59.7658
54.2061
53.3264
62.2551
52.3295
60.739
60.327
88.2712
245.001
72.7955
122.293
85.675
219.511
77.6546
89.8684
124.355
82.6282
121.413
83.5133
151.114
83.2921
74.0978
95.0025
66.0929
264.937
61.9014
277.569
80.026
51.4811
48.4211
47.1984
46.798
50.0667
49.094
48.1534
54.4555
54.5159
48.5393
51.3071
52.2714
57.349
49.7079
68.206
62.8597
86.6924
53.6748
282.782
52.97
60.9843
78.5147
260.913
108.402
75.8593
278.791
85.8234
69.0434
52.7277
47.7305
51.0581
50.2122
50.0395
49.2123
53.3989
56.0164
52.6041
59.7479
51.7904
59.354
50.8631
56.3986
75.575
94.4914
62.5676
145.468
65.5868
222.392
71.8648
59.7695
55.9687
51.3868
52.5517
56.1954
59.2263
53.4099
59.489
55.6107
51.7235
55.7459
55.8448
59.4228
54.1907
88.9663
238.286
131.476
82.2669
216.263
89.0734
87.8568
86.5957
148.98
136.985
95.0311
184.988
84.9974
91.8001
63.5902
54.1831
63.1792
57.8357
61.9948
55.6902
66.5339
64.2852
60.2521
73.9979
60.9383
65.6247
57.4258
69.6357
135.68
145.067
140.599
81.4308
68.3815
81.7123
71.0213
109.929
139.449
130.985
63.9823
58.0844
64.2054
61.45
68.3431
113.397
99.938
56.7021
53.6258
58.5718
62.6348
20.4503
74.9251
47.1416
34.4289
17.1954
61.5578
39.1142
23.2845
37.2654
40.966
16.7935
21.8739
26.2907
25.8453
39.2248
46.5115
63.1128
23.7017
23.5234
25.8128
27.4735
45.2103
70.647
70.5755
22.5881
22.7511
28.0104
28.4477
28.8669
57.6315
42.451
22.6793
21.9669
26.3443
24.9147
168.847
172.959
165.29
93.866
87.856
92.7875
85.1837
121.956
231.184
261.883
148.193
121.644
148.284
233.416
93.5604
235.763
230.765
94.2571
92.5473
95.6004
243.312
92.0425
222.734
256.228
89.7463
88.1086
92.6717
256.216
118.78
128.105
227.388
112.142
112.602
102.508
173.93
75.2368
100.094
135.283
55.7102
44.576
83.4801
140.719
48.8503
107.816
141.586
38.671
39.1161
53.9399
136.762
45.4709
145.008
141.183
41.6163
41.9259
44.9006
149.879
45.8213
97.1085
137.137
41.4199
37.9407
46.5664
118.043
36.4248
50.3221
38.6728
27.4081
26.2878
31.4545
29.1941
171.183
178.121
158.226
103.06
86.7708
103.505
90.1696
128.579
239.408
263.058
147.127
125.357
148.587
235.529
97.7415
233.096
205.049
98.7583
95.7631
102.762
207.541
95.8212
271.999
241.386
94.8633
95.3573
95.0578
250.855
100.257
291.162
279.933
97.8688
98.7249
99.062
283.757
107.302
217.741
283.215
110.805
124.805
103.322
274.816
132.508
172.58
162.9
136.738
107.392
151.061
164.617
52.0967
141.533
129.776
53.6621
49.5689
58.9405
131.517
48.4433
152.942
154.437
48.4813
48.5426
48.686
152.976
39.6229
55.6308
39.774
33.7197
33.4088
35.5078
36.2277
152.147
181.24
176.747
95.4904
87.7495
93.5098
83.83
122.878
207.747
245.643
138.555
125.922
137.153
227.865
96.5796
181.628
218.645
108.791
106.066
99.6301
219.904
99.9382
166.045
212.564
107.507
108.567
96.3843
207.843
105.689
159.537
209.595
110.73
110.909
102.849
208.158
108.256
161.208
194.197
110.404
110.609
108.024
186.878
141.149
167.807
158.041
133.213
153.571
118.864
153.442
51.538
79.8674
130.352
69.006
51.5931
72.6238
91.2842
45.6326
96.6016
55.593
45.7633
44.6941
46.6001
60.4496
39.3226
36.1107
44.7213
35.7281
38.9122
38.9255
41.8759
196.729
225.688
213.58
96.7092
91.6334
108.623
109.182
135.286
274.444
322.922
159.888
132.667
162.527
280.616
98.103
237.491
241.268
100.797
95.9617
103.074
233.734
82.9699
223.472
211.099
86.4646
83.9285
86.3028
208.983
77.7965
247.903
217.865
82.2867
82.7269
78.482
222.556
73.6927
194.752
209.859
80.7706
80.1309
73.7007
175.24
91.1713
122.744
111.598
108.654
105.031
93.8038
117.304
60.2276
125.899
129.238
66.8442
57.1452
66.6692
121.7
40.4852
81.9313
86.4003
43.7753
40.0424
45.1622
81.3673
45.5625
47.177
46.9093
38.4957
42.2386
31.474
34.6326
168.216
201.197
176.673
109.287
86.0322
109.239
87.8838
143.515
158.696
153.893
72.9508
65.3979
76.785
73.9132
122.592
134.884
121.429
58.9573
54.4814
68.0371
60.4752
112.758
108.256
103.658
49.3928
46.6868
53.0777
50.0298
99.0712
95.1817
89.0322
45.7486
44.0982
46.9376
44.8119
76.7525
82.4569
76.722
44.1032