/*--------------------------------*- C++ -*----------------------------------*\
  =========                 |
  \\      /  F ield         | OpenFOAM: The Open Source CFD Toolbox
   \\    /   O peration     | Website:  https://openfoam.org
    \\  /    A nd           | Version:  10
     \\/     M anipulation  |
\*---------------------------------------------------------------------------*/
FoamFile
{
    format      ascii;
    class       surfaceScalarField;
    location    "1.5";
    object      phi;
}
// * * * * * * * * * * * * * * * * * * * * * * * * * * * * * * * * * * * * * //

dimensions      [0 3 -1 0 0 0 0];

internalField   nonuniform List<scalar> 
38556
(
609.258
-469.732
551.244
163.141
-88.2387
534.356
249.399
75.9577
-162.216
290.061
163.605
-204.267
575.695
138.417
-424.05
648.853
36.4515
-109.61
707.788
-54.4215
-4.51334
742.739
-91.7541
56.8028
777.831
-114.66
79.5681
815.511
-95.5053
57.8256
847.786
-72.74
40.4652
881.942
-35.7116
1.55537
909.961
-11.7827
-16.2367
940.416
29.9988
-60.4536
966.724
49.5218
-75.8301
1004.42
75.6892
-113.388
1070.9
90.2153
-156.688
1153.46
97.1522
-179.721
1162.71
95.2267
-104.471
100.573
-70.7536
-1795.15
-343.936
-60.4934
-389.857
-870.325
-623.21
67.6353
-325.399
-56.1361
266.157
30.5349
-65.4512
507.892
31.6657
-134.984
558.507
25.5124
-39.6753
632.586
-94.8689
-33.6324
650.537
-91.969
-17.736
687.872
-140.214
-11.7813
703.105
-92.5589
-18.1799
724.343
-76.1687
-17.8088
737.23
-14.4422
-34.157
757.321
11.7305
-43.6036
787.62
62.0177
-62.3181
830.664
88.6797
-82.2023
907.122
112.125
-112.893
1015.51
105.198
-123.366
1095
62.8959
-45.2402
1075.66
50.0682
64.5031
71.9295
73.8949
-1072.06
-915.86
2242.74
-75.1438
-1114.31
-752.932
418.352
-539.651
-279.244
600.286
-117.259
-34.1406
667.605
-13.1976
-22.4561
691.744
23.944
-22.5703
690.06
-98.4085
5.22343
690.943
-71.7912
-21.0611
710.527
-146.652
-13.1458
727.956
-73.8924
-36.0954
744.642
-64.7896
-28.0645
755.078
10.0161
-34.8948
771.706
22.7345
-27.6315
798.936
61.5796
-26.7925
841.824
72.7106
-26.9185
895.188
75.7381
-16.9772
915.363
49.9424
35.0809
892.686
11.3358
74.2362
817.941
27.7926
97.0208
62.83
72.25
757.658
-2441.63
-636.522
-161.411
-841.487
646.243
309.618
-396.869
-613.811
332.353
-190.641
50.6472
407.494
-72.6938
-15.6446
392.714
-7.47076
46.1954
460.228
-167.406
1.48334
456.41
-71.6776
3.70449
534.751
-217.001
-7.99264
564.543
-82.5135
-21.1708
623.979
-95.466
-28.7603
643.722
24.078
-33.8042
665.136
22.052
-20.7313
669.953
56.6671
0.0952465
661.445
41.8135
39.4053
620.364
37.3524
79.4661
545.071
21.0622
104.174
475.11
10.1777
71.1192
428.697
31.6027
42.6025
54.1263
31.6487
-47.6942
-2033.03
567.468
458.38
-1012.33
-335.233
726.437
-411.402
-253.524
814.488
-145.574
-133.119
804.907
-4.88615
-58.2265
754.772
64.7401
-22.0767
660.918
-112.352
38.8004
548.877
22.5485
17.8152
495.699
-227.377
63.5544
451.093
-78.8324
40.9255
459.35
-140.338
36.6142
449.52
7.32415
26.5847
454.444
-24.1881
41.3159
439.002
25.9585
46.1501
424.423
4.35583
52.0371
404.649
6.51844
50.6075
389.28
-3.97714
40.4089
375.177
-1.31934
25.5996
380.609
9.33458
16.8366
29.7366
14.6115
740.088
1334.56
1004.04
770.383
-603.78
-438.842
690.471
-90.9896
-240.5
749.248
-110.921
-93.4286
727.467
70.9501
-54.0562
675.751
121.789
-5.33292
688.872
-183.023
57.5495
529.443
117.331
64.6469
407.791
-220.806
115.082
297.66
-30.8901
62.188
286.338
-162.247
33.2313
281.823
-19.1084
30.9476
299.431
-91.7404
49.9447
305.102
-24.6512
44.9384
313.261
-52.5292
48.7257
327.82
-50.9564
42.9163
342.087
-51.6896
33.4452
350.107
-32.5656
23.2264
356.291
-8.50643
11.6568
14.4839
6.44737
1073.37
2706.1
-5358.89
549.049
-204.794
125.33
699.775
84.6608
-326.377
645.288
-205.444
149.01
827.13
-94.6203
-16.2714
651.241
243.191
54.4866
569.59
-22.2227
77.6756
-63.777
-30.0108
-63.0368
370.188
31.6241
119.184
65.0682
36.1263
64.7302
210.53
-15.1515
80.1744
-54.9778
-17.8118
-53.3818
108.016
1.41117
-3.64931
35.8529
2.40099
35.6083
122.276
-31.866
-13.4231
-51.7587
-34.6914
-44.7682
144.844
-27.5228
21.7765
-18.1654
-17.8051
0.0405612
200.58
-46.7185
34.3251
-50.4389
-38.3489
-46.2958
224.45
-29.8304
52.3827
-18.1618
-28.2399
-24.6716
264.896
-130.138
37.164
299.941
-124.445
38.4434
335.261
-112.656
25.6458
356.571
-69.9445
16.0681
379.453
-40.1514
8.76339
-7.06267
5.21897
309.573
937.691
-4416.39
270.496
-219.545
53.8288
694.313
-16.6775
-322.479
615.546
-291.538
164.862
760.757
-262.212
22.3811
175.373
27.0669
50.4461
173.975
164.977
164.382
108.514
32.1088
107.106
147.96
4.06639
1.12398
-101.585
119.438
17.9043
-4.13276
-128.044
90.6512
3.1376
19.104
-45.9747
41.8657
3.14237
2.37784
-53.885
47.6605
-23.4511
-2.19044
-35.9669
48.2293
-36.7026
-3.08266
-65.9975
70.2737
-49.318
-1.67678
-67.9926
73.593
-41.9138
6.48311
373.113
-39.9598
20.114
-80.465
-97.3271
-86.2534
-97.5954
-47.4814
-33.6768
-40.6063
393.958
-189.958
44.6672
401.1
-163.93
44.1334
406.725
-103.311
27.7414
406.406
-57.6656
17.8331
-23.0939
10.3576
1733.71
715.02
-6135.44
520.126
-53.1228
1047.16
1089.78
-296.581
-289.746
826.309
-231.019
202.947
190.967
-198.196
17.9415
179.43
190.635
183.319
202.939
14.1024
0.992566
-2.28206
-61.0408
53.3559
8.92927
1.03766
-46.5275
-0.916938
46.3485
2.27374
-1.17779
-52.4419
-0.227813
51.8453
1.13223
-0.307816
-41.5342
-0.70461
30.9632
2.50317
8.77239
-23.2082
1.42661
20.3984
2.65218
-1.26899
-17.7635
7.99335
18.8108
-6.19936
-2.84123
-22.8923
9.36716
24.7056
-7.45023
-3.73019
-26.7734
9.66915
26.4723
-8.6326
-0.735422
-24.4605
103.272
-40.0767
1.00781
-25.1208
-26.4566
-28.1253
454.061
-210.752
9.43731
-103.75
-110.684
-108.532
-119.738
455.575
-196.806
31.361
447.623
-124.302
28.9425
442.251
-71.5758
19.2824
-32.4984
11.8175
275.685
-1546.64
940.294
826.139
-592.023
-11.554
1073.33
-391.7
-152.072
868.812
-104.251
77.751
187.717
-61.3164
-15.5858
182.029
189.517
188.256
-15.6246
217.337
-12.8327
-1.1619
-4.51842
-61.184
62.96
3.11612
-0.373691
-3.71351
-65.5705
65.5702
3.73065
-0.0168275
-6.37499
-65.6148
65.6963
7.8633
-1.56976
-6.0746
-67.51
68.5984
7.89633
-2.91012
-9.26057
-70.3422
65.9877
10.676
2.93899
-3.44288
-31.1133
29.4234
4.64111
0.491661
-3.14096
-31.0458
31.6925
5.55196
-3.05774
-1.70963
-34.8213
35.748
4.99763
-4.21472
-30.3859
38.3186
115.534
-30.2325
7.97662
-32.2783
-33.7517
-35.181
496.038
-208.391
0.296454
-112.105
-112.308
-135.114
-139.169
489.349
-173.824
-16.2928
472.093
-103.896
-3.14937
458.003
-64.0934
6.60726
-34.8642
9.02233
1631.73
-2425.34
2399.16
1835.26
-763.701
-31.8527
1670.08
-59.8954
-166.624
1312.21
78.5213
175.1
210.605
96.4894
289.303
208.713
226.08
219.701
46.1376
194.769
-45.8653
15.5645
11.7068
-50.2359
51.64
-16.2042
3.09333
11.0553
-58.1332
59.9162
-16.9895
4.15124
4.01637
-66.8799
70.7538
-13.7287
5.83848
-0.545328
-79.4036
83.254
-11.6905
8.38545
-7.31253
-93.4537
96.9343
-3.62334
7.45527
-14.5368
-94.7189
79.7826
15.412
14.0612
-14.1548
-39.9902
35.8693
19.7056
-1.42986
-10.929
-30.9413
31.5797
9.89574
0.394832
-35.6943
21.7068
123.135
-24.8781
26.5058
-34.4759
-38.4125
-37.8867
491.614
-169.853
-32.1387
-109.729
-111.395
-136.042
-140.848
480.22
-127.693
-34.737
469.206
-74.6262
-18.2566
460.92
-56.6984
0.890797
-37.2094
5.4629
60.7792
-1527.5
-2215.53
69.7297
-615.654
-156.998
333.953
-81.9598
-242.159
259.657
83.5451
69.2726
106.815
-66.0442
-50.4073
134.708
101.573
129.503
35.9338
151.513
-57.5104
-23.1213
20.3414
-53.7127
56.5504
-20.8862
-2.29284
17.7263
-57.5616
56.124
-15.3111
-0.977635
18.9983
-51.8161
50.2596
-17.1457
-0.296167
19.7254
-47.9356
48.5948
-18.3776
-2.00704
17.2309
-54.5967
55.4674
-15.889
-2.21269
-22.891
-41.5363
39.8439
20.7484
3.83496
-29.0703
-45.3182
47.7685
28.0353
-1.4152
-11.3399
-51.3739
51.1271
11.461
0.125669
-45.7912
23.6153
143.54
-11.3549
33.7565
-45.449
-49.2417
-49.0748
549.671
-75.6778
-3.32807
-131.065
-156.703
-166.925
-185.825
491.424
-61.6007
-7.84661
454.452
-39.8459
2.192
452.223
-59.3432
4.87343
-43.4598
4.36135
1037.06
1261.78
-1029.23
694.182
-268.891
-3.88116
952.04
-90.7322
-249.085
972.245
-40.3439
103.684
1002.2
-121.598
25.5953
217.898
-243.246
-59.0559
81.1903
144.854
81.3563
137.979
221.237
206.62
213.372
16.8444
192.178
-42.2634
2.73622
14.9746
17.8861
15.5424
8.66233
-164.939
163.994
-36.6889
-2.53775
11.4285
8.61096
11.4691
11.0279
-179.89
171.063
-39.2775
0.0918705
13.269
10.8429
12.8724
11.283
-154.752
143.8
-35.0533
-3.91616
13.9274
11.0342
13.6773
9.13304
-157.776
159.633
-27.4931
-10.3686
9.70147
8.24362
8.92704
-8.78746
-167.532
171.306
25.3417
4.8263
-9.39361
-7.98926
-7.7718
-16.316
-193.154
201.187
43.271
8.4918
-14.2983
-15.5574
-13.624
-11.6877
-211.86
208.208
33.283
12.5238
-9.39177
-11.8783
-9.19766
831.139
-64.4311
76.5453
-1.34213
20.5854
-12.056
12.1011
-210.495
-213.548
-219.636
-218.862
787.597
-94.9051
62.7687
713.404
-81.0533
93.6462
628.357
-52.5067
97.7078
550.57
-51.15
69.5936
-31.6231
24.7208
-587.648
-1138.78
-1547.52
-255.272
-303.912
-297.355
736.592
-424.865
-657.73
959.739
-199.7
-63.7907
1003.17
-161.588
-3.44393
961.171
-154.795
-46.4498
907.73
52.7581
49.6908
9.64813
-25.3124
-1.03116
-32.3134
823.775
-155.821
25.6301
41.1836
68.4366
40.3871
64.1388
755.825
-66.3379
66.507
28.6156
11.0236
22.5324
5.61
710.678
-186.689
64.8315
35.8381
51.6328
32.2874
47.2451
700.671
-118.756
100.082
22.4205
-1.08819
14.4732
-7.12468
736.979
-159.933
136.39
-4.51322
2.69587
-8.58765
-2.35964
776.938
-123.975
160.529
-20.1191
-14.9291
-22.2513
-19.2133
815.955
-167.464
139.493
-10.2887
8.83445
-14.8786
5.28682
844.724
-174.802
81.6022
873.537
-184.163
60.4451
892.159
-162.899
63.2237
874.866
-91.3286
56.1145
758.719
11.4375
53.5593
31.8284
23.7498
-690.184
-2336.29
1058.12
-171.355
-539.991
-282.749
854.947
-665.139
-786.028
954.472
-288.656
-10.5687
1024.23
-205.031
-26.3124
994.389
-106.611
-18.3463
905.67
58.4676
83.0087
749.488
-47.9993
48.3602
669.113
-50.1321
64.1691
617.878
-171.004
35.5496
601.546
-150.103
47.6799
596.46
-191.196
36.3483
607.881
-155.772
20.3761
618.281
-163.691
-14.1724
638.191
-142.866
-51.8459
672.915
-133.363
-85.5233
700.012
-99.2828
-90.7136
696.167
-18.8178
-68.6661
647.065
92.7892
-32.2496
95.4978
-28.9664
15.7158
-27.1749
-20.6408
468.703
-118.136
-874.842
784.725
-441.452
-539.709
1004.75
-275.985
-232.698
1070.64
-172.54
-98.3834
1030.13
-27.1236
-38.9728
901.14
118.606
68.85
783.652
58.9876
10.5013
689.835
32.9165
10.7686
632.169
-75.5758
-37.7623
579.193
-69.8832
-27.2439
542.505
-90.4905
-64.0179
523.272
-54.6735
-81.8647
524.699
-44.35
-120.769
547.96
-25.9976
-140.129
588.888
-16.6548
-157.636
632.712
16.1599
-159.267
658.519
67.4936
-112.119
659.984
118.421
-27.0963
110.97
-12.109
1508.42
847.737
-1405.9
1283.57
373.822
-267.108
1098.19
-211.047
-45.0285
1014.61
-163.542
-28.8639
898.336
-31.4836
-24.7782
842.671
81.5047
-52.9629
791.979
148.823
20.4748
767.163
108.863
-25.0597
759.198
81.709
-40.8273
746.523
19.2789
-82.1794
711.637
3.2569
-38.2549
649.775
-2.0074
-26.6213
595.056
27.5243
-27.4785
574.693
36.9266
-60.913
587.84
51.0978
-90.2425
621.85
45.9044
-96.5693
662.678
54.6549
-79.3228
689.909
66.0133
-25.7512
691.689
91.745
24.8965
79.5713
34.1571
3118.05
636.078
476.199
2484.8
379.775
627.289
1433.27
147.3
693.188
1101.67
2.90989
165.144
903.101
111.59
55.4977
843.154
120.839
20.6124
824.815
134.698
32.4642
857.9
86.0112
-10.2327
895.054
45.7597
-1.20436
935.502
-1.84714
-19.3221
959.589
-8.92222
-11.9077
974.199
3.40767
-20.0253
955.488
30.3677
15.8676
912.861
49.6238
29.9298
848.348
63.5815
52.0294
791.33
47.6892
55.233
740.949
42.0444
62.9914
707.448
34.6014
64.9132
676.829
48.8203
73.5442
38.959
57.5365
-161.602
473.077
33.4625
-110.272
429.485
-101.04
577.408
104.53
-644.909
684.863
48.363
-152.909
830.96
88.1486
-122.656
894.824
98.7625
-41.7866
906.46
93.339
29.7224
910.344
60.9389
21.1884
876.33
18.6405
61.1332
852.589
-12.2124
34.1062
828.037
-36.8487
52.4779
817.217
-36.4226
50.651
804.914
-17.9849
60.6551
788.464
8.03905
58.0343
746.165
27.2568
78.6237
683.917
26.6912
83.2467
614.081
25.8707
86.0094
564.194
16.2986
68.1898
533.756
21.7669
57.4913
16.3916
34.4197
1247.67
-1286.19
1954.16
-277.007
1526.48
532.209
1228.54
346.302
1081.72
234.967
1094.56
85.922
1078.49
109.41
1072.87
66.5631
1022.68
68.8278
981.921
28.5477
920.002
25.071
867.385
16.1942
779.957
69.443
691.421
96.5748
605.588
113.09
538.121
94.1584
502.783
61.2088
482.349
36.7324
479.624
24.4914
14.6008
646.738
-205.105
1460.91
417.962
-161.977
925.108
564.081
-145.172
-163.161
558.219
75.5054
-273.911
583.969
115.615
-565.415
614.114
26.3653
-166.12
656.19
-42.3341
-4.25561
698.254
-63.9629
78.7022
745.124
-75.4059
108.104
786.089
-53.8289
70.6885
818.228
-37.2826
45.6098
845.622
-15.1943
-10.6451
864.911
0.494044
-36.0191
884.547
5.3079
-85.398
900.572
8.22283
-100.078
920.521
3.12395
-136.46
943.462
1.03648
-180.666
992.645
-20.0664
-208.838
1034.96
-12.6441
-134.137
-2.98784
-72.2283
-1217.98
-790.921
713.223
-319.306
-705.263
-978.597
34.0859
-423.751
-130.949
253.024
-56.5933
-152.291
423.286
-5.8676
-183.763
457.494
4.60884
-52.1276
522.719
-100.023
-41.1681
538.993
-69.4478
-28.5251
581.479
-108.212
-21.4611
596.768
-52.4081
-34.8901
622.611
-46.7915
-34.1425
626.912
-0.821443
-52.831
635.484
1.8871
-53.5681
638.152
10.0301
-69.7086
643.758
1.64678
-81.2324
655.933
-18.0886
-103.856
693.808
-36.4601
-123.744
773.66
-61.6593
-83.4994
794.97
-27.9691
58.5177
16.8783
91.1042
-1002.73
-1173.44
4559.19
12.0941
-1015.76
-1457.26
292.872
-562.364
-421.408
473.525
-186.77
-84.618
529.329
-63.5277
-20.5998
535.508
-7.41129
-16.7289
542.406
-122.498
20.8
547.176
-74.0759
-21.2031
579.7
-144.891
-8.99033
595.428
-64.4116
-39.8208
616.653
-66.553
-29.5283
621.656
-3.32915
-37.3895
627.926
-10.3368
-21.678
628.443
5.6812
-22.9606
628.313
-14.6558
-10.4851
633.04
-34.8606
-4.93224
633.099
-44.2882
42.8502
619.715
-55.2123
81.1732
589.723
-22.5756
121.619
26.7531
92.6942
96.3544
-1624.42
4188.25
233.867
-741.941
234.911
121.265
-289.566
-774.007
226.197
-174.921
-66.1336
285.155
-73.4117
-64.7189
293.399
-18.7662
49.306
376.08
-198.589
-5.1061
375.544
-79.6968
9.86085
464.019
-233.731
-7.6279
490.748
-87.4964
-24.8147
539.819
-113.199
-31.1861
544.296
-2.15115
-39.4586
551.624
-21.7841
-16.6126
537.916
19.8692
-0.384428
515.008
2.09259
45.5653
479.159
-1.01745
81.4722
439.891
-2.42934
101.582
394.45
-5.46159
66.8098
362.047
17.1083
35.3222
42.4516
27.2625
451.118
-1434.92
2849.44
463.358
-577.04
-512.373
594.469
-174.141
-500.061
596.75
-81.226
-229.095
551.249
12.7418
-98.8787
497.255
37.6933
-24.5428
488.663
-191.148
39.9509
416.846
-14.051
23.9869
431.207
-254.583
70.0453
410.955
-70.195
43.8762
435.057
-139.226
38.5398
429.272
-1.40206
31.6198
433.478
-40.3483
55.6746
418.224
13.2243
68.0489
406.342
-13.6419
79.6531
389.695
-8.30663
74.5443
379.108
-16.5455
65.1122
368.487
-10.1581
40.9169
372.842
6.21172
23.3775
28.2478
18.1404
1067.69
364.132
4197.11
688.619
-222.812
-414
446.744
-18.0824
-154.683
451.286
-77.7533
-101.443
421.313
68.3056
-79.6471
373.345
79.5767
0.751205
452.559
-267.345
54.5331
328.139
90.6001
84.4151
304.288
-243.828
128.178
244.787
11.3568
40.1376
262.125
-143.872
20.5401
264.243
4.37888
23.0484
285.16
-79.9452
68.6246
296.003
-26.6933
74.0134
310.875
-66.8642
87.0759
328.845
-63.4333
80.0729
344.412
-58.0264
59.3589
353.945
-35.2096
38.7455
362.384
-8.44479
17.8737
15.6276
8.71606
610.673
1563.61
-2540.01
516.291
69.1435
-72.2436
399.325
102.126
-329.619
491.756
-175.743
154.569
627.127
-33.837
-49.5001
446.971
224.128
90.0907
399.058
-42.1496
75.0507
-64.6859
-49.3907
-60.5803
242.994
43.0193
140.751
66.4517
48.2606
67.3651
143.541
-24.2543
94.8789
-52.6513
-31.0371
-51.1376
73.5964
10.1798
-25.1374
40.534
12.9225
39.1532
114.746
-34.5727
-46.0222
-42.9576
-31.6725
-43.22
140.662
-14.9612
25.1755
4.69758
-17.0927
2.41942
199.192
-34.2868
48.1837
-42.6962
-35.1374
-40.2134
228.629
-27.8496
96.8386
-25.2887
-25.849
-21.5991
274.35
-154.741
79.3208
312.322
-149.379
86.4164
344.57
-125.973
61.3442
363.078
-75.421
37.7706
385.839
-42.8495
20.408
-7.12842
11.4452
802.731
1600.27
-2078.26
542.428
220.517
162.759
444.947
122.344
-245.216
464.144
-215.347
185.27
611.956
-155.315
-3.95361
130.983
43.9594
73.6776
133.253
115.572
120.118
109.227
50.2171
109.524
-5.97202
108.921
-16.1091
1.99345
6.75863
-69.3652
84.0067
23.2239
-1.60485
-29.5766
-100.072
79.777
-3.77757
29.3953
-9.95736
-42.8835
33.6244
6.14779
23.2485
7.33405
-43.0302
42.4475
-24.4109
-16.9131
10.2186
-34.9875
46.9987
-23.4565
-13.7346
4.46397
-65.2782
69.0575
-37.8259
-4.70422
-7.85485
-68.3265
76.806
-38.6033
10.129
371.503
-42.6463
27.2646
-83.3331
-90.7523
-79.5418
-84.9851
-51.7336
-46.6848
-53.7179
406.839
-218.501
78.454
415.035
-181.503
91.4665
417.246
-110.713
60.8222
414.259
-62.8888
40.8594
-24.9562
22.7519
358.744
-37.6112
-3262.83
672.121
303.093
651.206
788.116
109.534
-392.931
669.255
-72.355
178.815
163.662
-66.8009
-37.9925
161.293
155.78
155.941
-5.79507
173.323
34.1881
5.90501
-4.00597
0.505773
-50.7207
44.2218
6.63334
3.36581
3.21082
-38.433
-0.114937
38.6481
0.447076
-3.75807
1.78149
-44.9966
1.19187
44.7261
-0.35629
-2.34655
-12.8637
-44.6847
-1.01259
44.1292
2.03028
12.4015
-5.80252
-37.545
1.00126
31.2437
2.50452
8.59796
8.93001
-23.8699
5.48479
24.1137
-5.12287
-9.53575
11.8802
-26.5004
8.36709
26.6747
-7.0822
-13.3393
3.87881
-25.3786
9.08766
25.1608
-8.0676
-4.68113
-24.5566
6.57008
101.034
-32.106
-17.1678
-26.8136
-23.7005
-25.9062
454.25
-209.202
-17.3863
-103.456
-120.209
-97.3174
-115.743
461.233
-204.959
47.8356
456.706
-134.179
56.9352
451.927
-78.3013
39.4731
-34.764
24.2608
1285.53
-1675.38
-3156.07
794.501
223.577
558.987
902.41
205.988
-356.435
710.183
162.922
34.7005
161.3
106.644
-114.392
165.648
150.67
157.926
1.51117
-35.3125
187.025
15.3151
-7.23869
-1.77274
-7.04531
-54.294
55.9118
5.53597
1.66433
-1.79869
-2.70661
-58.3556
58.5924
2.22747
2.04098
3.65721
-1.96516
-59.7224
60.2704
1.81493
-4.05491
6.83176
-2.06351
-62.317
63.0129
1.68846
-7.15256
-4.25994
-6.38773
-65.9461
66.7062
5.63439
4.25318
-16.619
2.09049
-64.7201
60.2478
0.301841
18.699
7.99074
-1.11998
-46.7362
44.2982
3.47657
-7.90926
11.7687
1.05125
-39.4671
38.1715
1.92179
-13.4461
-35.9761
-8.56672
18.4621
143.264
-10.6886
4.45213
-37.9566
-35.407
-37.5829
568.46
-177.698
-6.65405
-142.642
-153.962
-139.779
-156.631
532.317
-176.678
-8.43084
497.554
-115.853
13.2869
474.001
-71.1701
23.0298
-37.1199
21.4075
544.295
-206.587
1953.03
915.132
-134.108
-45.0059
876.378
297.451
-219.332
756.069
260.939
197.391
194.368
203.149
204.5
185.844
186.556
177.599
-28.8983
7.57567
186.844
1.15498
27.6918
-9.49056
3.86722
-49.9814
51.9836
-6.43526
10.0564
-10.7297
4.48252
-57.9629
59.9444
-7.30583
11.5716
-12.5669
3.35958
-66.3573
68.734
-6.09892
12.9295
-14.2023
1.87227
-76.1079
78.532
-3.82113
13.727
-14.4357
-2.77826
-85.6167
87.6444
1.29623
13.89
-26.3688
-6.21374
-90.6757
89.3071
6.74774
27.2034
-3.19233
-11.3513
-65.3995
55.5311
16.7367
7.67529
2.08925
-10.3462
-45.7097
45.8566
12.569
-4.45904
-44.2863
-39.7398
-3.49785
166.936
10.0215
43.431
-43.465
-44.9816
-44.4178
616.714
-132.09
-15.5852
-160.42
-166.375
-170.962
-181.118
551.334
-128.241
-17.7943
502.294
-79.3924
-5.67672
479.101
-58.6208
11.5341
-38.3744
14.976
-618.642
333.287
-554.747
-143.409
-590.597
-175.742
150.603
29.8017
-268.522
136.895
239.504
104.417
75.0377
59.8509
-92.9218
94.4661
67.4326
85.7709
26.9592
-0.738973
119.427
-43.084
-27.525
2.65976
10.9949
-45.0163
47.2672
-12.8526
-3.05293
1.64099
9.58104
-47.2825
46.4619
-8.62536
-1.77604
2.1565
10.5568
-46.3293
46.7249
-10.2127
-2.8962
7.13039
8.59015
-49.7918
51.1916
-8.75494
-8.3654
5.439
5.68976
-55.7648
56.4294
-5.75843
-6.03493
-11.8963
-4.21688
-54.5136
53.5914
5.0332
12.0022
1.16802
-23.4987
-53.1842
54.0572
21.7126
-0.254888
-2.13001
-11.8748
-55.5784
55.2548
11.4489
2.87943
-52.8899
-44.5854
-12.8988
199.018
19.6834
49.2299
-52.9874
-52.0949
-52.4753
636.927
-19.0893
22.6373
-188.383
-197.676
-195.327
-194.507
527.435
-36.8684
10.2722
471.041
-33.5161
12.7099
462.549
-57.8891
12.6337
-44.9455
10.4096
480.566
-38.1506
-1992.34
499.194
-637.793
24.6869
594.826
-116.576
-198.339
642.239
142.994
152.781
749.777
-35.3637
13.2722
152.626
-210.371
-64.8715
71.0987
123.397
67.9791
117.125
156.184
137.27
140.283
9.29375
-15.7559
132.356
-6.56321
10.6296
8.02225
7.82514
6.81866
4.53819
3.57394
-108.135
118.144
-30.9028
-6.65577
8.14824
3.78909
7.50019
6.34837
0.180047
-139.431
133.705
-18.9364
-3.65235
8.62968
5.45085
7.70662
4.94221
9.61953
-126.764
126.183
-16.1145
-15.8931
7.70533
3.75959
6.56144
-0.0964908
16.227
-143.141
142.422
6.10878
-22.5997
2.0249
-1.54862
0.603783
-9.5661
-1.52812
-149.328
157.232
35.3559
-3.24748
-8.94853
-10.2774
-9.69256
-15.8633
-8.75192
-182.294
194.067
49.7267
7.23025
-13.8758
-16.1608
-14.0781
-12.8512
-15.8992
-204.724
207.714
41.0461
17.6945
-9.95127
-12.9438
-10.0854
837.863
45.8117
95.3009
-19.1858
0.794833
-20.6713
-4.5567
-216.937
-217.892
-210.674
-213.307
770.267
27.6106
83.6644
670.189
20.8513
136.005
592.839
7.7515
133.79
535.748
-20.3911
89.1868
-26.5971
33.3058
149.053
-1230.38
-0.352369
268.927
-856.866
-198.157
415.655
-486.777
-434.259
564.804
-89.367
19.4207
599.724
-105.758
32.0314
537.316
-140.163
-54.2498
574.691
86.3823
66.1706
-24.2001
-41.4042
-32.1169
-42.5164
548.798
-190.751
23.8969
44.8364
65.7493
44.4243
63.3683
574.936
-28.7244
80.4827
8.31251
-7.79118
0.000771592
-11.9116
593.198
-138.601
75.8927
22.2316
36.9374
17.9124
32.1962
640.812
-20.1216
133.117
-7.04323
-18.7457
-13.3764
-21.3624
723.394
-61.0809
182.482
-19.9174
-12.4639
-22.0964
-13.1151
800.163
14.4054
195.322
-31.8326
-31.2529
-32.0617
-30.821
868.545
-29.2361
166.451
-23.7427
-9.15594
-23.449
-9.75651
912.619
-9.01979
92.3597
935.452
-17.1053
82.3282
932.782
4.86074
81.8837
894.62
26.5166
75.5122
770.385
60.6409
96.7616
44.7437
39.2888
-51.841
-2010.39
-1183.37
196.529
-922.509
-465.477
409.705
-708.377
-777.604
540.796
-258.519
27.4933
605.97
-199.843
2.59836
562.743
-109.201
-6.08149
605.407
7.38372
119.343
523.069
-102.688
42.636
534.966
-42.9424
66.4897
524.563
-125.462
32.8139
551.187
-55.3953
56.3291
574.651
-85.3134
37.1175
608.451
-31.9259
32.9074
634.759
-46.9701
-22.7467
661.336
-23.1812
-64.2616
685.253
-18.3691
-108.176
701.537
13.4887
-115.626
704.431
58.8307
-103.874
680.685
105.318
-53.182
81.2525
-47.4737
679.117
-812.376
-1865.35
616.63
-930.414
-804.45
580.786
-653.98
-558.262
674.854
-340.167
-245.117
682.253
-207.154
-98.4717
641.493
-73.8567
-33.5574
593.271
38.2034
86.2532
531.488
-35.1743
4.77106
489.373
-2.71034
12.6511
453.751
-67.8905
-59.7129
447.818
-20.0045
-56.7011
450.271
-42.9278
-108.857
467.884
-11.9719
-119.432
484.482
-31.1607
-153.176
506.686
-23.9072
-161.607
529.305
-24.809
-173.815
558.779
4.74088
-179.993
613.784
55.0339
-163.327
669.974
91.3452
-69.3123
67.3204
-18.6639
316.146
-573.35
-1987.15
446.908
-773.943
-554.342
661.928
-627.544
-286.485
737.16
-283.231
-161.032
679.694
-82.3184
-92.1484
622.916
7.96742
-78.0094
570.468
92.3057
18.8205
521.424
35.2414
-46.431
487.709
26.4587
-36.2817
441.889
-21.4016
-82.8493
430.336
8.60927
-55.3152
423.963
14.9718
-78.1476
451.539
26.9297
-93.9565
468.757
14.2279
-123.519
490.689
5.45709
-141.539
513.463
-13.2783
-130.874
561.738
-7.39645
-115.461
632.798
15.3346
-57.1113
676.398
42.3879
30.2541
35.1483
56.4719
930.418
-1265.14
-310.511
824.563
-423.649
382.851
804.256
-170.903
256.853
762.458
-107
30.7127
665.414
78.6054
-8.38273
630.191
78.5273
-14.724
632.993
90.752
31.2157
643.352
27.877
-13.2278
653.694
-6.14925
21.0617
646.117
-19.7382
-13.4089
624.477
11.427
6.91499
605.598
33.406
-19.5805
602.018
45.4235
0.953771
606.365
40.47
-0.659171
617.729
23.5767
22.5458
625.891
4.05517
29.7369
631.833
-1.29661
50.9495
636.06
-1.59178
77.6127
627.588
13.2325
111.172
14.3659
85.4543
1697.81
-52.6477
3192.92
811.355
276.919
84.8451
551.848
-61.3856
-494.92
574.836
-70.9368
-211.96
631.382
56.2877
-156.884
664.934
72.5189
-69.3306
694.145
60.779
30.4849
705.07
32.4776
5.66231
695.612
-9.57011
74.0118
678.758
-17.0333
48.2552
663.209
-11.1665
90.6209
649.243
12.5679
85.4553
635.112
14.8783
105.331
617.725
16.1261
99.7654
591.889
12.0267
116.009
560.343
6.80321
112.045
531.101
4.72159
109.234
510.191
1.98585
85.5217
502.412
9.40557
69.0974
9.52964
38.7288
-818.02
-2349.05
-158.785
-659.322
721.438
-409.399
829.947
166.856
921.203
199.999
984.282
95.3622
999.394
155.077
998.237
100.197
931.239
126.257
864.339
78.4146
783.666
94.5771
730.568
81.8599
678.62
136.27
629.334
161.987
578.361
176.09
533.01
146.313
505.213
93.7281
489.388
54.543
487.675
35.6092
22.1065
331.999
-1404.29
4050.72
629.211
-355.96
983.856
1083.78
-96.5466
-521.181
1040.01
90.63
-320.777
728.374
155.711
-409.486
641.904
38.6488
-118.299
624.046
-10.0043
23.6063
661.092
-28.2032
69.8598
709.855
-36.5977
95.9388
746.468
-15.3878
49.4632
770.41
-8.21873
29.8876
778.579
0.190881
-19.006
777.02
-7.46442
-26.9952
772.056
-21.7106
-58.7238
768.961
-41.0186
-55.9639
773.782
-60.346
-80.9353
777.327
-74.1596
-110.051
794.407
-92.9501
-132.968
832.897
-88.7405
-83.887
-48.7451
-41.2377
-650.23
-1079.11
3293.91
-196.303
-662.172
-1126.31
128.68
-408.865
-143.615
275.532
-52.6566
-155.855
377.944
7.38168
-137.846
383.415
7.84127
-26.7915
440.634
-81.8695
-26.5216
453.68
-38.2872
-31.4875
499.109
-76.6874
-26.8002
508.441
-18.6825
-40.928
532.104
-31.4348
-34.5888
529.881
-1.89899
-48.5186
536.6
-28.8096
-38.9415
532.515
-40.488
-46.8462
529.121
-75.4274
-43.4298
525.927
-101.499
-59.5086
520.836
-121.219
-71.5948
526.527
-128.529
-53.6113
527.107
-76.5431
45.7395
-5.20653
64.7229
-122.127
-1909.47
484.767
158.199
-1216.26
-1183.49
235.956
-600.876
-307.154
321.689
-173.431
-49.5774
399.997
-69.6061
-21.9192
404.405
-7.88917
-5.4075
440.101
-118.145
21.3798
449.031
-49.0006
-19.4194
486.954
-119.655
-3.94647
498.538
-39.1303
-30.9575
518.233
-58.9811
-21.6773
520.513
-12.0919
-29.4758
524.411
-40.758
-13.6275
513.949
-36.3337
-16.6537
492.997
-65.6614
0.701378
467.288
-80.6637
-0.0589952
450.967
-86.2596
24.2124
437.911
-81.0396
46.7411
435.046
-33.3479
81.2889
26.5258
61.493
1178.7
-3112.59
-115.311
953.621
-848.577
92.3008
267.848
-249.789
-439.322
223.924
-159.835
-35.8048
220.921
-63.9919
-67.3306
227.051
-21.2949
56.5822
313.462
-202.864
-6.79854
320.104
-61.4721
15.6904
404.325
-211.655
0.15198
422.584
-64.0007
-18.2026
465.034
-111
-21.6169
464.184
-24.2922
-26.4084
467.502
-57.2273
-3.46163
445.297
-24.0612
9.54826
421.834
-45.3604
48.7269
398.131
-42.9917
67.5029
381.93
-40.6151
72.1395
357.65
-31.9244
41.9736
337.425
5.36168
16.8382
38.511
18.8473
966.641
-2093.55
3135.37
675.286
-201.489
-868.106
567.6
-98.4932
-543.671
475.991
-73.6798
-223.641
407.728
3.63424
-98.2417
352.322
19.7021
-10.1333
386.843
-226.27
28.835
342.258
-10.5861
17.6865
388.953
-241.087
52.7805
376.918
-38.2974
30.2084
397.57
-125.002
31.8895
384.263
-9.39379
30.0286
385.756
-64.9079
61.862
372.489
-18.6655
75.9202
368.736
-47.6569
85.7026
363.328
-39.7753
76.7363
363.682
-38.423
62.5656
360.521
-26.3929
38.5466
368.585
0.949397
19.7264
26.9318
16.0404
844.76
-413.839
7079.23
438.865
-38.3718
-171.222
360.904
-34.8767
-140.339
316.899
-76.6824
-54.4355
269.239
50.0788
-78.4316
231.471
46.1375
12.0838
319.65
-293.626
33.7108
235.092
99.7626
58.6247
271.45
-241.801
92.5333
233.692
32.657
6.94141
242.935
-126.088
12.3838
233.095
7.15353
16.3411
250.505
-79.4627
65.7697
260.16
-23.353
69.0459
283.32
-63.2906
79.549
312.75
-62.9855
73.8531
335.629
-57.3746
55.4311
348.874
-37.2948
36.4021
360.169
-9.38497
16.9135
14.7489
8.87652
467.713
1117.73
-3138.28
444.349
223.117
-310.368
331.274
81.6059
-333.027
413.959
-128.409
123.61
469.366
-2.89769
-51.9314
308.804
202.366
94.4248
276.684
-53.8725
34.3725
-56.5747
-58.6672
-51.7137
168.067
57.5899
91.7399
69.6969
62.041
68.0631
149.214
-38.5131
56.6159
-51.0916
-44.6809
-50.3992
103.125
14.0143
-42.8935
36.3466
12.9454
33.1964
123.549
-31.2271
-48.91
-40.8012
-33.4458
-38.1509
138.717
-16.4753
36.7315
2.30458
-12.5062
7.10682
188.962
-34.2734
50.6723
-36.4419
-31.1438
-30.3377
215.114
-20.7154
94.4364
-13.8757
-13.116
0.60497
260.062
-107.436
78.5183
302.439
-104.858
85.9118
339.081
-99.3287
66.6565
360.467
-66.8571
45.9462
384.265
-40.3214
27.5461
-6.9492
15.7799
637.762
718.235
-1503.82
500.184
191.124
332.33
357.042
118.377
-138.846
394.277
-152.968
172.595
478.185
-74.8183
-15.9413
89.1863
55.5586
73.861
96.5701
76.9235
85.6652
109.151
58.7862
108.526
-2.43704
70.7636
-28.9655
-4.04726
-3.1215
-36.8488
52.3001
33.4348
11.8253
-27.4244
-69.1921
55.8539
-18.7305
20.98
-29.7448
-29.8387
35.4069
10.8501
27.3408
25.6679
-48.3918
45.2127
-24.4798
-29.2362
13.9439
-38.5837
48.0871
-26.2868
-13.6358
1.87302
-62.3817
61.6539
-37.1085
1.68997
-13.1435
-58.7311
65.0501
-30.3266
16.4358
314.559
-39.7741
37.7557
-70.8114
-72.901
-67.225
-67.3189
-44.8543
-34.4266
-35.1745
364.741
-159.803
83.2158
389.862
-122.503
89.5199
404.086
-82.6007
62.3415
408.783
-52.5687
48.4097
-22.8664
29.0043
682.142
-485.694
-2346.32
859.27
279.759
385.444
677.826
125.565
-218.676
587.144
-17.9359
134.465
134.109
12.8276
-65.2463
137.662
124.892
130.088
-12.2668
138.638
49.2732
14.0234
-2.65836
3.32375
-40.4947
34.0921
4.51361
1.22357
4.85159
-29.6666
-0.601937
30.1951
0.0264456
-4.80451
3.53453
-36.5274
2.09272
35.8079
-1.05067
-3.85708
-10.9473
-35.1448
-1.77692
34.6926
2.48578
10.6906
-12.526
-34.1373
2.23717
30.4603
1.55555
12.4103
8.77016
-24.4369
7.08603
23.733
-6.88014
-8.27217
14.2101
-22.495
9.29617
21.4957
-9.04266
-13.4642
6.51918
-18.0845
8.71209
18.0966
-8.52731
-6.7161
-19.2651
25.3001
81.7414
-43.3292
-26.065
-20.5277
-18.3247
-19.304
372.625
-196.86
-15.2679
-82.4119
-97.5727
-72.735
-84.9664
407.883
-161.271
51.3457
423.399
-94.7133
53.5321
434.584
-61.1866
36.9052
-30.653
24.8795
842.487
-452.269
-4123.39
1047.31
486.519
147.402
873.63
327.012
-384.2
670.357
235.141
-15.103
131.512
175.971
-128.62
140.19
120.298
129.441
7.976
-48.2558
152.234
28.8525
-9.29409
-2.77883
-8.56158
-44.8666
46.6136
7.32506
2.2684
-1.74358
-1.9442
-48.8734
49.2048
1.91148
1.44495
4.92743