/*--------------------------------*- C++ -*----------------------------------*\
  =========                 |
  \\      /  F ield         | OpenFOAM: The Open Source CFD Toolbox
   \\    /   O peration     | Website:  https://openfoam.org
    \\  /    A nd           | Version:  10
     \\/     M anipulation  |
\*---------------------------------------------------------------------------*/
FoamFile
{
    format      ascii;
    class       volScalarField;
    location    "1.5";
    object      turbidity;
}
// * * * * * * * * * * * * * * * * * * * * * * * * * * * * * * * * * * * * * //

dimensions      [0 0 0 0 0 0 0];

internalField   nonuniform List<scalar> 
12920
(
-0.0228916
-0.0619211
-0.0543755
-0.0746715
-0.0988521
-0.156111
-0.206852
-0.240778
-0.268931
-0.292738
-0.310634
-0.31712
-0.307884
-0.282692
-0.255797
-0.225118
-0.197632
-0.183323
-0.192738
-0.211141
-0.0727454
-0.0724131
-0.0793527
-0.111806
-0.13209
-0.170128
-0.200775
-0.229619
-0.26173
-0.2853
-0.301788
-0.301401
-0.290747
-0.272432
-0.250917
-0.231366
-0.226163
-0.242322
-0.261556
-0.281018
-0.0489469
-0.0539657
-0.0838482
-0.118708
-0.144582
-0.169928
-0.202516
-0.233863
-0.272203
-0.29365
-0.313462
-0.323959
-0.331394
-0.331118
-0.328685
-0.330179
-0.338758
-0.357243
-0.377725
-0.398834
-0.130719
-0.0763137
-0.0847132
-0.146023
-0.180826
-0.223135
-0.26722
-0.30916
-0.347787
-0.369617
-0.388143
-0.39307
-0.40584
-0.414814
-0.424856
-0.445008
-0.48057
-0.527665
-0.552046
-0.566208
-0.0301863
-0.0737497
-0.0894292
-0.115908
-0.148298
-0.193513
-0.237438
-0.296546
-0.343212
-0.407229
-0.453808
-0.479318
-0.499581
-0.516165
-0.547692
-0.586231
-0.623646
-0.653097
-0.666584
-0.675593
-0.0282763
-0.0566388
-0.0708689
-0.103938
-0.127009
-0.158895
-0.193547
-0.23851
-0.296867
-0.383842
-0.436103
-0.500284
-0.524986
-0.571607
-0.600765
-0.62934
-0.660393
-0.690598
-0.71132
-0.720685
-0.0613166
-0.0770124
-0.092635
-0.143834
-0.164859
-0.193064
-0.22149
-0.266266
-0.283448
-0.374344
-0.346754
-0.377697
-0.324055
-0.365157
-0.382786
-0.421506
-0.477938
-0.551631
-0.619541
-0.674003
-0.125226
-0.0737409
-0.0894364
-0.128252
-0.154073
-0.186731
-0.179906
-0.184046
-0.181627
-0.238889
-0.224683
-0.127705
-0.0917357
-0.0917546
-0.13667
-0.187496
-0.238307
-0.299912
-0.368812
-0.438917
-0.0942597
-0.0779954
-0.0789686
-0.105507
-0.128062
-0.130081
-0.14674
-0.132827
-0.121399
-0.112163
-0.141731
-0.097417
-0.0587007
-0.0617283
-0.0893971
-0.149306
-0.19117
-0.23083
-0.275058
-0.322887
-0.167703
-0.0746633
-0.0798588
-0.0989803
-0.117875
-0.11232
-0.107823
-0.0966693
-0.0829775
-0.070248
-0.0723141
-0.0950478
-0.0786256
-0.0533786
-0.0935381
-0.155449
-0.190626
-0.227248
-0.267728
-0.311718
-0.0501136
-0.0619074
-0.0749198
-0.0917146
-0.113434
-0.105606
-0.0959228
-0.0884113
-0.087061
-0.0867926
-0.0802174
-0.0725834
-0.109404
-0.0980926
-0.120135
-0.165919
-0.196384
-0.232279
-0.275703
-0.319087
-0.0501426
-0.0520202
-0.0727418
-0.093153
-0.100632
-0.0926152
-0.0907929
-0.0900568
-0.100739
-0.112753
-0.104803
-0.0875683
-0.110814
-0.130849
-0.138963
-0.186917
-0.227469
-0.273954
-0.325428
-0.371171
-0.0139772
-0.0404043
-0.0585961
-0.0771646
-0.0906093
-0.102738
-0.1019
-0.11432
-0.139366
-0.154302
-0.145249
-0.115689
-0.114429
-0.123557
-0.199791
-0.249418
-0.293021
-0.340731
-0.397566
-0.457429
-0.030544
-0.0356181
-0.0463976
-0.0653117
-0.0822921
-0.0990146
-0.125374
-0.166967
-0.212054
-0.25375
-0.276994
-0.287214
-0.289648
-0.296309
-0.300299
-0.306911
-0.324598
-0.355996
-0.399801
-0.460699
-0.0613625
-0.0358792
-0.0427115
-0.0636575
-0.0816654
-0.103217
-0.136639
-0.187939
-0.241359
-0.273644
-0.289312
-0.287615
-0.279364
-0.262762
-0.247629
-0.244042
-0.264915
-0.311957
-0.373519
-0.432674
-0.0213928
-0.0309389
-0.0464697
-0.0633916
-0.0844875
-0.110971
-0.148721
-0.195572
-0.235598
-0.251491
-0.2612
-0.247206
-0.223204
-0.20045
-0.189382
-0.189849
-0.208238
-0.262336
-0.347963
-0.423222
-0.01183
-0.0248606
-0.0486625
-0.0757547
-0.103324
-0.132155
-0.164504
-0.184093
-0.202701
-0.217041
-0.245661
-0.261761
-0.253074
-0.234396
-0.227384
-0.239703
-0.271778
-0.325497
-0.385178
-0.44494
-0.00942628
-0.0289115
-0.0514479
-0.0778197
-0.108789
-0.14124
-0.16852
-0.186287
-0.202247
-0.213114
-0.228833
-0.246342
-0.267728
-0.288713
-0.31072
-0.338729
-0.371714
-0.411423
-0.457322
-0.512201
-0.0244876
-0.0429059
-0.0492783
-0.0699918
-0.0941146
-0.120516
-0.146961
-0.172474
-0.20188
-0.236513
-0.271918
-0.304839
-0.332083
-0.356824
-0.38706
-0.431087
-0.485588
-0.544201
-0.595551
-0.641473
-0.0132937
-0.0249877
-0.0394365
-0.0684161
-0.0980197
-0.120596
-0.139601
-0.160888
-0.186631
-0.218798
-0.255346
-0.296181
-0.341598
-0.395722
-0.459601
-0.5319
-0.59925
-0.652113
-0.687222
-0.710213
-0.0194068
-0.0407015
-0.0255389
-0.018005
-0.019475
-0.0371404
-0.0685522
-0.0978438
-0.116698
-0.120603
-0.111902
-0.0908567
-0.0719123
-0.0557314
-0.0437571
-0.0351679
-0.0297933
-0.0288463
-0.0286705
-0.0279388
-0.0330571
-0.0215691
-0.0189355
-0.0196281
-0.0235286
-0.0325025
-0.0435786
-0.0521918
-0.0592765
-0.0582006
-0.0534621
-0.0458446
-0.0394156
-0.0354516
-0.035999
-0.0441908
-0.0604
-0.0885435
-0.126499
-0.15003
-0.0114479
-0.0120692
-0.0180909
-0.0254065
-0.027069
-0.0309518
-0.0455213
-0.0572483
-0.0725824
-0.0746377
-0.0761711
-0.073262
-0.0741121
-0.079648
-0.0970646
-0.126857
-0.166508
-0.195757
-0.208838
-0.199859
-0.0189633
-0.0273417
-0.0190541
-0.0368576
-0.0502259
-0.0733136
-0.0969523
-0.109398
-0.128775
-0.126699
-0.130612
-0.127238
-0.138139
-0.160594
-0.203133
-0.238932
-0.25305
-0.23246
-0.204549
-0.179351
-0.0143381
-0.0335714
-0.0196198
-0.0320963
-0.0520835
-0.0794544
-0.111848
-0.140051
-0.170351
-0.185713
-0.196859
-0.212489
-0.233335
-0.247214
-0.252618
-0.237441
-0.204398
-0.160656
-0.129633
-0.110129
-0.0133426
-0.0163944
-0.0229979
-0.0352346
-0.0479704
-0.0694565
-0.0977799
-0.137247
-0.164861
-0.173064
-0.161442
-0.19621
-0.216918
-0.230746
-0.219669
-0.199285
-0.170371
-0.136614
-0.100859
-0.07267
-0.0154458
-0.0195673
-0.0274882
-0.0509949
-0.0449323
-0.0649909
-0.0798789
-0.134607
-0.129583
-0.0789913
-0.0688301
-0.10806
-0.103984
-0.113706
-0.102601
-0.0997508
-0.0868287
-0.0702632
-0.0534309
-0.0384603
-0.0379333
-0.0223017
-0.0219874
-0.0369423
-0.0316758
-0.0474946
-0.049191
-0.0841237
-0.119448
-0.095723
-0.0581143
-0.0510482
-0.0474916
-0.0486314
-0.052904
-0.0653453
-0.0687427
-0.0616856
-0.0524544
-0.0406687
-0.0133369
-0.0256179
-0.0232675
-0.0251336
-0.0195894
-0.0296647
-0.047883
-0.035066
-0.0456177
-0.0798303
-0.094488
-0.0518536
-0.0250621
-0.0244501
-0.0381593
-0.0570685
-0.0601556
-0.0544364
-0.0456091
-0.0355981
-0.0619755
-0.0198533
-0.0187446
-0.0219073
-0.0220686
-0.0234469
-0.0298378
-0.0338888
-0.0299075
-0.0301506
-0.0369526
-0.0542008
-0.0558161
-0.0324235
-0.0415231
-0.0706749
-0.062652
-0.0488816
-0.0393985
-0.0319632
-0.030902
-0.025727
-0.0419103
-0.0451709
-0.0468337
-0.0424106
-0.0536244
-0.0640656
-0.0705016
-0.0754885
-0.0775362
-0.0759045
-0.0734792
-0.0599567
-0.0826138
-0.0946295
-0.0755669
-0.0520984
-0.0347514
-0.0250936
-0.0202809
-0.01135
-0.0114073
-0.0132293
-0.0103141
-0.0106024
-0.0116266
-0.0141069
-0.0209082
-0.0294331
-0.0446049
-0.0767566
-0.08255
-0.099243
-0.119935
-0.0959837
-0.0780743
-0.0574112
-0.043262
-0.0290866
-0.012442
-0.0113253
-0.00887678
-0.0116675
-0.0117031
-0.015782
-0.0199882
-0.0248775
-0.037876
-0.0477246
-0.0565341
-0.0696203
-0.0832104
-0.0941402
-0.112303
-0.125563
-0.141678
-0.146802
-0.128048
-0.0868834
-0.0112858
-0.0109144
-0.011209
-0.0137855
-0.0203245
-0.026468
-0.0358748
-0.0526643
-0.07436
-0.0957771
-0.12078
-0.140093
-0.15349
-0.160045
-0.161785
-0.165348
-0.175422
-0.185412
-0.187527
-0.162566
-0.0121804
-0.00745722
-0.00931891
-0.0140199
-0.025576
-0.0418081
-0.0709527
-0.0775559
-0.085922
-0.0818942
-0.0875663
-0.0819522
-0.0719556
-0.0617332
-0.0603947
-0.0632592
-0.0691134
-0.0782269
-0.0864422
-0.0835839
-0.00305554
-0.00535774
-0.00788154
-0.0118278
-0.0210885
-0.0350614
-0.0583946
-0.0562535
-0.0489229
-0.0391998
-0.0362799
-0.0361958
-0.0377163
-0.0395426
-0.0419895
-0.0453403
-0.0505103
-0.059105
-0.0699107
-0.0814473
-0.00281027
-0.00868424
-0.0111017
-0.012079
-0.0172048
-0.0235959
-0.0318701
-0.0327607
-0.0341947
-0.034176
-0.0340915
-0.0336812
-0.035694
-0.0413634
-0.050614
-0.063162
-0.0746611
-0.0883837
-0.121328
-0.162447
-0.00604188
-0.0169029
-0.0199731
-0.0195152
-0.0290687
-0.0314586
-0.0363359
-0.036601
-0.0396462
-0.0414288
-0.0439594
-0.0509333
-0.0729246
-0.0995549
-0.130604
-0.163843
-0.196133
-0.224331
-0.252859
-0.273054
-0.00162931
-0.0068892
-0.0109646
-0.0131195
-0.0194262
-0.0292822
-0.0482475
-0.0609698
-0.0759328
-0.0844734
-0.100914
-0.119043
-0.146546
-0.179999
-0.220607
-0.254337
-0.271279
-0.266474
-0.24549
-0.205675
-0.00668864
-0.0201178
-0.0330271
-0.0351742
-0.0362603
-0.0374214
-0.0468033
-0.0513913
-0.0558409
-0.0576828
-0.0738657
-0.108106
-0.169417
-0.234687
-0.287825
-0.309292
-0.288992
-0.239797
-0.18492
-0.132996
-0.0406586
-0.0329103
-0.0282613
-0.0235432
-0.018621
-0.0232458
-0.0409146
-0.0584179
-0.068172
-0.0673099
-0.0596001
-0.0485657
-0.0395325
-0.032523
-0.0281297
-0.0257424
-0.0253371
-0.0279409
-0.0317289
-0.0312997
-0.0305758
-0.0211596
-0.018342
-0.016582
-0.017604
-0.0219438
-0.0262801
-0.0281479
-0.0289972
-0.0283466
-0.0280303
-0.0278113
-0.0292489
-0.0316914
-0.036179
-0.041702
-0.0497404
-0.0621259
-0.081733
-0.0879425
-0.0201248
-0.0104731
-0.010714
-0.0144344
-0.0167517
-0.0195992
-0.0271732
-0.031068
-0.0370896
-0.0379178
-0.0407117
-0.0427974
-0.0478418
-0.053876
-0.0637463
-0.0746314
-0.0881892
-0.0944342
-0.0952782
-0.0787824
-0.033354
-0.0268284
-0.0133547
-0.0191927
-0.0267395
-0.0373992
-0.0517051
-0.0554059
-0.064321
-0.061205
-0.0646123
-0.0658507
-0.0741614
-0.0837502
-0.100945
-0.108621
-0.100046
-0.0732384
-0.0519203
-0.0397604
-0.0115124
-0.0124441
-0.00850429
-0.0188567
-0.0340658
-0.0492501
-0.06691
-0.0783341
-0.0907443
-0.0906799
-0.0924151
-0.103479
-0.115861
-0.121441
-0.113726
-0.092356
-0.0657717
-0.0403723
-0.024613
-0.0167654
-0.00782264
-0.00901498
-0.0140694
-0.0256259
-0.0381988
-0.0529636
-0.0667753
-0.0877565
-0.0927331
-0.0744877
-0.0623518
-0.0752952
-0.0898616
-0.095411
-0.0867589
-0.069668
-0.0496424
-0.0311016
-0.0172353
-0.00943386
-0.0170269
-0.0139389
-0.0179005
-0.0271254
-0.0316435
-0.0444448
-0.053885
-0.0849644
-0.0750547
-0.0334839
-0.0259931
-0.0378742
-0.044279
-0.051279
-0.0466294
-0.0403121
-0.0288048
-0.0176425
-0.00966824
-0.00490622
-0.0205063
-0.0219881
-0.0178888
-0.0186157
-0.0191683
-0.0301302
-0.0332353
-0.0750376
-0.0891576
-0.0526109
-0.028526
-0.0277388
-0.0327073
-0.0413119
-0.0427502
-0.0425975
-0.0368241
-0.0264897
-0.0171544
-0.00985746
-0.00440256
-0.0142858
-0.0236188
-0.0185887
-0.0161986
-0.0231682
-0.0276884
-0.0350895
-0.0506967
-0.0604568
-0.0724117
-0.0429073
-0.0215833
-0.0280607
-0.0367106
-0.0394762
-0.0338183
-0.0250419
-0.0165607
-0.00994593
-0.0110928
-0.0124921
-0.0155516
-0.0152416
-0.0146078
-0.0155083
-0.0186416
-0.0219792
-0.0267041
-0.0344461
-0.0391147
-0.0477797
-0.0510375
-0.0305325
-0.0419726
-0.0531823
-0.0409093
-0.0264122
-0.0160142
-0.00929558
-0.0186975
-0.019646
-0.0222576
-0.0214287
-0.0187802
-0.0186972
-0.024294
-0.0307699
-0.0355019
-0.0393162
-0.0451275
-0.0598626
-0.068477
-0.0561403
-0.0632419
-0.0710025
-0.0536923
-0.0325993
-0.0173956
-0.00882092
-0.0154447
-0.00791611
-0.00831555
-0.00803461
-0.00910714
-0.00967646
-0.0105286
-0.0129098
-0.018653
-0.0291083
-0.042937
-0.0618347
-0.0760558
-0.0822988
-0.0924379
-0.0694145
-0.052085
-0.0326948
-0.0193453
-0.0107211
-0.00878945
-0.00576554
-0.00547196
-0.00646512
-0.00894849
-0.0132479
-0.0129267
-0.0195116
-0.0265047
-0.0349311
-0.0460103
-0.0578101
-0.0642609
-0.0687468
-0.0787754
-0.0822912
-0.0827283
-0.0711636
-0.0513434
-0.0321553
-0.00882513
-0.00653977
-0.00814209
-0.0105167
-0.0154099
-0.0200849
-0.0218296
-0.0303011
-0.0416845
-0.056652
-0.0743293
-0.0903638
-0.101015
-0.107295
-0.10806
-0.110662
-0.114489
-0.116091
-0.110341
-0.0840272
-0.0035696
-0.00470892
-0.00880784
-0.0154269
-0.024648
-0.0311376
-0.042059
-0.0397178
-0.0445379
-0.0468407
-0.0546967
-0.0583975
-0.0648899
-0.0680442
-0.0713314
-0.0726845
-0.073526
-0.0707241
-0.0631647
-0.0534715
-0.00358315
-0.0038298
-0.00590459
-0.0105809
-0.0188888
-0.0273551
-0.035162
-0.031721
-0.0317182
-0.0330788
-0.0364586
-0.0382381
-0.0406781
-0.0411432
-0.042459
-0.0443588
-0.0480404
-0.0534849
-0.0598903
-0.0693101
-0.00264481
-0.00380763
-0.00511189
-0.00793802
-0.0124927
-0.0175917
-0.0219231
-0.024745
-0.0273281
-0.0300981
-0.031956
-0.0346046
-0.0378787
-0.0428756
-0.049798
-0.060962
-0.0756191
-0.0947904
-0.114849
-0.132231
-0.00280888
-0.00497886
-0.00661081
-0.00878912
-0.0124195
-0.016622
-0.0212762
-0.0252131
-0.0291864
-0.0333122
-0.0395822
-0.0502729
-0.063508
-0.0756337
-0.0883318
-0.103121
-0.120114
-0.137974
-0.156287
-0.155634
-0.00146954
-0.00607339
-0.00919568
-0.0113289
-0.0156528
-0.0219425
-0.0310875
-0.0370441
-0.0472224
-0.0587379
-0.0764962
-0.0963848
-0.118251
-0.135896
-0.147814
-0.146226
-0.131794
-0.107239
-0.0805416
-0.0541227
-0.00143405
-0.0104174
-0.0147138
-0.0157849
-0.0187219
-0.0218875
-0.02755
-0.0307549
-0.0351994
-0.0428445
-0.0612305
-0.092457
-0.137144
-0.181774
-0.207691
-0.200068
-0.160976
-0.111869
-0.0704726
-0.0411979
-0.0438219
-0.0372548
-0.0310339
-0.0257884
-0.0206745
-0.0195287
-0.0289635
-0.0378992
-0.0419897
-0.0394531
-0.0344194
-0.0288892
-0.0249096
-0.0219538
-0.0199291
-0.0182352
-0.0172131
-0.0176996
-0.0196487
-0.0189346
-0.0165375
-0.0244183
-0.0207571
-0.0176729
-0.0168108
-0.0187723
-0.0205971
-0.021453
-0.0215359
-0.0214744
-0.0215312
-0.0217193
-0.0225515
-0.0227403
-0.0226267
-0.0219391
-0.0223889
-0.0253606
-0.0354573
-0.0366107
-0.00702453
-0.0049009
-0.00761603
-0.0111834
-0.0136959
-0.0161001
-0.0194945
-0.0211402
-0.0237322
-0.0248893
-0.027082
-0.0285247
-0.0306207
-0.0312191
-0.0318209
-0.0306775
-0.0309451
-0.0294413
-0.0284577
-0.0214483
-0.0052388
-0.00264934
-0.00642004
-0.0139629
-0.0183337
-0.0231003
-0.0296106
-0.0300899
-0.0335371
-0.0324949
-0.0353965
-0.0370238
-0.0410269
-0.0424599
-0.0435158
-0.0384989
-0.0286622
-0.0167594
-0.00993406
-0.00747201
-0.0212751
-0.00641421
-0.00526476
-0.0139303
-0.0228391
-0.0309402
-0.0406188
-0.043119
-0.0462741
-0.0461352
-0.047776
-0.053291
-0.0565279
-0.0549761
-0.0452868
-0.0314862
-0.0186946
-0.00948002
-0.00478413
-0.00291397
-0.0185038
-0.00782681
-0.0114499
-0.0210517
-0.0281397
-0.0369091
-0.0450442
-0.0491862
-0.0461805
-0.0335828
-0.028418
-0.0311773
-0.0346458
-0.03331
-0.027769
-0.0196184
-0.011824
-0.0061015
-0.00282978
-0.00139974
-0.00382893
-0.0100379
-0.0148829
-0.0208766
-0.0264284
-0.0356217
-0.04176
-0.0488274
-0.0408405
-0.020529
-0.0153116
-0.0175313
-0.0203586
-0.020978
-0.0187078
-0.0148721
-0.00961994
-0.00515544
-0.0024029
-0.00099942
-0.00687074
-0.012277
-0.0121322
-0.0139613
-0.0198519
-0.0284206
-0.0359371
-0.0535027
-0.0638773
-0.0335886
-0.0202526
-0.0247295
-0.0330508
-0.038894
-0.0293917
-0.0245637
-0.0178471
-0.0109534
-0.006182
-0.00314903
-0.00742981
-0.0156213
-0.0120946
-0.011749
-0.0175148
-0.0252053
-0.0290185
-0.0455032
-0.0620201
-0.0711789
-0.0615565
-0.0255098
-0.0197382
-0.0251962
-0.0248492
-0.0176092
-0.0137998
-0.00900352
-0.00516506
-0.00271037
-0.0165225
-0.0178203
-0.0177967
-0.0143068
-0.0137054
-0.0169048
-0.0219978
-0.0280522
-0.0406678
-0.0548732
-0.0533923
-0.0553194
-0.0339001
-0.0272118
-0.0410531
-0.0247475
-0.0145507
-0.00818105
-0.00443061
-0.00226385
-0.0124234
-0.0149008
-0.0121448
-0.011857
-0.0128763
-0.0146111
-0.0175639
-0.020808
-0.0258386
-0.0397256
-0.0505744
-0.0602247
-0.0602774
-0.0418251
-0.0545212
-0.0366744
-0.0209933
-0.0104251
-0.00496824
-0.00230089
-0.019904
-0.00730406
-0.00696711
-0.0076073
-0.0105414
-0.011774
-0.0130966
-0.0163782
-0.0252242
-0.0428385
-0.0566887
-0.0660493
-0.0698339
-0.0633735
-0.0597085
-0.0359421
-0.0222509
-0.0121874
-0.00690408
-0.00378209
-0.0076372
-0.00421891
-0.00501282
-0.006216
-0.00995037
-0.0141927
-0.0149114
-0.0220059
-0.0260193
-0.0327733
-0.0404504
-0.0460398
-0.0466558
-0.0504854
-0.0541079
-0.0495374
-0.0421441
-0.0305396
-0.0212789
-0.0135104
-0.00116332
-0.00549372
-0.00855604
-0.0103441
-0.0144537
-0.0183507
-0.0203129
-0.0274007
-0.0349125
-0.0450604
-0.0549877
-0.065274
-0.071263
-0.0747723
-0.0730404
-0.0724485
-0.0722944
-0.0692606
-0.0591347
-0.0392505
-0.00341233
-0.00738482
-0.0124232
-0.0175082
-0.022289
-0.0248057
-0.0285111
-0.0301902
-0.0355163
-0.0400992
-0.0473122
-0.0511897
-0.0555776
-0.0562122
-0.0555682
-0.0522422
-0.0464032
-0.0381579
-0.0309185
-0.0276639
-0.00283672
-0.00585121
-0.00955023
-0.0156966
-0.0216973
-0.0246374
-0.027545
-0.0288151
-0.0316111
-0.0335188
-0.0357555
-0.0358711
-0.0367907
-0.035175
-0.0336149
-0.0316464
-0.0315764
-0.034384
-0.0402888
-0.0449038
-0.00213415
-0.00475499
-0.00779116
-0.0123587
-0.0170797
-0.0205932
-0.0242184
-0.0288956
-0.0324331
-0.0362372
-0.0378461
-0.0386446
-0.0368922
-0.0341273
-0.031569
-0.032146
-0.0373903
-0.0472031
-0.0630571
-0.0739256
-0.00274433
-0.00457879
-0.00830183
-0.0126143
-0.0162309
-0.0204877
-0.0251909
-0.0314014
-0.037529
-0.0455747
-0.052756
-0.0584032
-0.0598193
-0.056169
-0.0491357
-0.0431095
-0.0447067
-0.0531596
-0.0641442
-0.0602517
-0.00358768
-0.00688213
-0.0102635
-0.0143621
-0.0192851
-0.0243173
-0.0300559
-0.0365292
-0.0458784
-0.0569116
-0.069908
-0.0819438
-0.0917764
-0.0938282
-0.0869097
-0.0708549
-0.0507935
-0.0321237
-0.0188225
-0.0105833
-0.00231036
-0.00733891
-0.0117109
-0.015821
-0.0189337
-0.0213463
-0.0241965
-0.0267283
-0.0316902
-0.0409867
-0.0578772
-0.0825656
-0.113208
-0.138901
-0.146438
-0.129546
-0.0951694
-0.0602122
-0.0344775
-0.0184812
-0.0529944
-0.0267595
-0.0127246
-0.00829813
-0.00976665
-0.0150285
-0.0205698
-0.0226087
-0.0226036
-0.0200939
-0.0179904
-0.0163623
-0.0150371
-0.0137286
-0.0124256
-0.0112484
-0.0104109
-0.0101586
-0.0104933
-0.0105562
-0.0488232
-0.0165934
-0.0114712
-0.0131262
-0.0145281
-0.0164306
-0.0173752
-0.0176614
-0.0174132
-0.0166691
-0.0155087
-0.0140074
-0.0123526
-0.010698
-0.00929756
-0.00831679
-0.00819951
-0.00931028
-0.012134
-0.0107369
-0.00249211
-0.00516403
-0.00811542
-0.0117024
-0.0141649
-0.0159544
-0.0173274
-0.018006
-0.0183387
-0.017792
-0.0169661
-0.0154361
-0.0139425
-0.0120252
-0.0104123
-0.0086137
-0.00745318
-0.00638701
-0.00630657
-0.00541739
-0.00428745
-0.00458275
-0.00845023
-0.0127409
-0.0152181
-0.0171011
-0.0185086
-0.0190324
-0.0195486
-0.0189837
-0.0189754
-0.0179593
-0.0173715
-0.01554
-0.013351
-0.00973821
-0.00621716
-0.00362353
-0.00259483
-0.00228529
-0.0150989
-0.00481202
-0.00546439
-0.0121396
-0.01674
-0.0199395
-0.0222828
-0.0229094
-0.0228305
-0.0226934
-0.0223964
-0.0225888
-0.0214126
-0.0186751
-0.0135704
-0.00851893
-0.00478307
-0.00259477
-0.00158756
-0.00114243
-0.00611463
-0.0053035
-0.0101368
-0.016702
-0.0200087
-0.0229127
-0.0247107
-0.0231353
-0.0196887
-0.0164031
-0.0133154
-0.0126989
-0.0113284
-0.00924505
-0.00655067
-0.00410775
-0.00229105
-0.00120547
-0.000681274
-0.000453225
-0.00744112
-0.0093858
-0.0137343
-0.0187833
-0.0217626
-0.0247892
-0.0247079
-0.0220314
-0.0163451
-0.0110076
-0.00700481
-0.00614583
-0.00487528
-0.00444121
-0.00354219
-0.00264194
-0.00160821
-0.000823304
-0.000387874
-0.000187199
-0.006466
-0.00940424
-0.0117718
-0.0161268
-0.0210421
-0.0240497
-0.0283114
-0.0266784
-0.0282649
-0.0142227
-0.00960468
-0.00931315
-0.0119149
-0.0115962
-0.00701327
-0.00553581
-0.00336147
-0.00171895
-0.00089601
-0.000410467
-0.0131363
-0.0155204
-0.0111083
-0.0145419
-0.021199
-0.0242277
-0.0259931
-0.039398
-0.047356
-0.043973
-0.0201688
-0.00983416
-0.0126659
-0.0112316
-0.00510021
-0.00237413
-0.0018196
-0.000949836
-0.000461325
-0.000216899
-0.0134867
-0.0218839
-0.0163374
-0.0124811
-0.0171602
-0.0222679
-0.0265125
-0.0328087
-0.0443579
-0.0568717
-0.0551861
-0.0334932
-0.00849632
-0.00939009
-0.00485624
-0.0013886
-0.00104318
-0.000581826
-0.000310385
-0.000158647
-0.0269592
-0.0156578
-0.00991603
-0.0116763
-0.0163406
-0.0187214
-0.0214342
-0.0273376
-0.037088
-0.0491556
-0.0553267
-0.0453109
-0.0247298
-0.0271009
-0.0185666
-0.00250065
-0.00118879
-0.000529597
-0.000271591
-0.000140079
-0.0262141
-0.00764836
-0.00740462
-0.0103183
-0.0144969
-0.0164708
-0.0181805
-0.0213735
-0.0283897
-0.0371297
-0.0467819
-0.0456733
-0.0325309
-0.0330907
-0.0189327
-0.00398215
-0.00215417
-0.00114693
-0.000760788
-0.000450568
-0.00207886
-0.00456651
-0.00625015
-0.0092717
-0.0139893
-0.0187277
-0.0198911
-0.0246391
-0.0244975
-0.025999
-0.0279519
-0.0319852
-0.0341533
-0.0300363
-0.017539
-0.0138297
-0.0103424
-0.00696602
-0.00485157
-0.00290852
-0.0045352
-0.00562328
-0.00859887
-0.0116363
-0.0165372
-0.021215
-0.0244373
-0.0290908
-0.0334528
-0.0379679
-0.0413848
-0.0435822
-0.0420772
-0.0396442
-0.0344807
-0.0327558
-0.0313321
-0.0267113
-0.0196215
-0.0112665
-0.00205861
-0.00870363
-0.0141561
-0.0179058
-0.0216194
-0.0241715
-0.0262285
-0.0282154
-0.0307603
-0.0305925
-0.0316254
-0.028956
-0.0276783
-0.0241196
-0.0212167
-0.017792
-0.0153179
-0.0118832
-0.00933015
-0.00787275
-0.00295707
-0.00835933
-0.0146236
-0.0194652
-0.0228203
-0.0249921
-0.0266596
-0.028396
-0.0280468
-0.0278186
-0.0252172
-0.0229011
-0.0194915
-0.0164837
-0.0138345
-0.0119598
-0.0110857
-0.0110909
-0.0119494
-0.0128212
-0.000855723
-0.00625144
-0.0128854
-0.0183201
-0.0230024
-0.0281981
-0.0319615
-0.0364665
-0.0387407
-0.0412957
-0.0410771
-0.0398071
-0.0353311
-0.029342
-0.022445
-0.0169218
-0.0139201
-0.0138992
-0.0172683
-0.0203292
-0.00203813
-0.00873218
-0.0136475
-0.0186031
-0.0241514
-0.0301338
-0.0353585
-0.0407423
-0.045492
-0.0502844
-0.0542619
-0.0563314
-0.0547421
-0.0483461
-0.037799
-0.0262824
-0.0170465
-0.0126754
-0.0125027
-0.0105522
-0.00561221
-0.00677878
-0.0114791
-0.0186104
-0.0249748
-0.0294294
-0.0343693
-0.0389418
-0.0449843
-0.0513251
-0.059208
-0.0664146
-0.0715294
-0.0703222
-0.0609752
-0.0456281
-0.0290814
-0.0161794
-0.00814766
-0.00397866
-0.00328174
-0.00559939
-0.00891652
-0.0162111
-0.0198144
-0.0212253
-0.0236037
-0.0270214
-0.0328712
-0.0414739
-0.0542596
-0.0698945
-0.0862534
-0.0961029
-0.0929436
-0.0763184
-0.0527146
-0.0316685
-0.0173391
-0.00901552
-0.0379923
-0.0381005
-0.0396268
-0.0489669
-0.049161
-0.0354532
-0.042761
-0.0444827
-0.0411589
-0.0497363
-0.048773
-0.0507044
-0.0451335
-0.052919
-0.0431508
-0.0275986
-0.0367766
-0.0338495
-0.0417597
-0.0368488
-0.0467529
-0.0548074
-0.0404417
-0.0559789
-0.0445309
-0.0540639
-0.0492667
-0.0580321
-0.136546
-0.112805
-0.10045
-0.14172
-0.113614
-0.10385
-0.0865826
-0.123667
-0.096746
-0.0864715
-0.100551
-0.0858911
-0.0775238
-0.0499122
-0.109603
-0.0833232
-0.0748985
-0.086493
-0.0912307
-0.0440278
-0.0364213
-0.146473
-0.0733792
-0.079599
-0.0974325
-0.108988
-0.0366433
-0.0514566
-0.107798
-0.0878876
-0.0998277
-0.111232
-0.0758805
-0.058847
-0.0657485
-0.0669144
-0.0962
-0.0800504
-0.0609792
-0.0325345
-0.0653382
-0.0581184
-0.0544977
-0.0707596
-0.0498055
-0.0276755
-0.0237038
-0.0507967
-0.0308363
-0.0847499
-0.0522208
-0.082932
-0.0247248
-0.0344475
-0.0275647
-0.0319131
-0.099865
-0.102482
-0.0944678
-0.10082
-0.0912647
-0.100107
-0.0936829
-0.0864614
-0.0926155
-0.0887252
-0.0853025
-0.0597841
-0.0922122
-0.0891816
-0.0728387
-0.087561
-0.0831906
-0.0519643
-0.0383603
-0.0882815
-0.0853231
-0.0698634
-0.081317
-0.0747758
-0.0364019
-0.0381155
-0.0841487
-0.0792625
-0.0909053
-0.0725745
-0.0692206
-0.0422165
-0.0571177
-0.0771402
-0.0708939
-0.087186
-0.0721859
-0.102603
-0.0597633
-0.0611745
-0.0704856
-0.0719453
-0.0542188
-0.106232
-0.0890724
-0.0566381
-0.0368195
-0.0700764
-0.0547233
-0.0803531
-0.082083
-0.0854669
-0.0320478
-0.0314342
-0.0496332
-0.0432878
-0.089503
-0.0920005
-0.0886276
-0.0916158
-0.0868862
-0.0789877
-0.074038
-0.0871543
-0.0889728
-0.0937696
-0.0860352
-0.0853286
-0.0740084
-0.0758799
-0.0871178
-0.0965235
-0.1046
-0.0853265
-0.0849605
-0.0745401
-0.0614854
-0.0828144
-0.106065
-0.10377
-0.0846523
-0.0832035
-0.0579156
-0.059267
-0.0725073
-0.101032
-0.0876038
-0.0823517
-0.0782321
-0.0643966
-0.0814446
-0.101615
-0.085224
-0.102611
-0.0767629
-0.0756665
-0.0825752
-0.0813454
-0.104525
-0.109965
-0.126993
-0.0746745
-0.0660027
-0.082755
-0.0951846
-0.0999725
-0.130341
-0.13431
-0.0616259
-0.0577497
-0.101214
-0.118674
-0.0892302
-0.0969361
-0.0979313
-0.0747334
-0.0713903
-0.0905436
-0.0874348
-0.0969913
-0.102781
-0.116604
-0.0722424
-0.0753682
-0.0922573
-0.101989
-0.110968
-0.124
-0.135077
-0.073647
-0.0581139
-0.10643
-0.0948227
-0.108849
-0.139442
-0.135633
-0.0544738
-0.0555079
-0.0919816
-0.0796792
-0.0882429
-0.12876
-0.0978663
-0.0611518
-0.0816882
-0.0775149
-0.0816639
-0.103897
-0.094108
-0.102805
-0.0832757
-0.0833183
-0.0849442
-0.0921117
-0.127304
-0.107326
-0.118972
-0.0853211
-0.0985006
-0.0950555
-0.104673
-0.134722
-0.12149
-0.12589
-0.104243
-0.121095
-0.108078
-0.118122
-0.0351914
-0.0354371
-0.0301282
-0.034765
-0.0327325
-0.0258403
-0.0256511
-0.0427353
-0.027849
-0.0273047
-0.0349726
-0.0462046
-0.0258782
-0.0283513
-0.0660227
-0.0278576
-0.0303289
-0.0482866
-0.0535936
-0.0298407
-0.034608
-0.0949641
-0.0315964
-0.0439507
-0.0603852
-0.0743964
-0.0358884
-0.0403475
-0.063757
-0.0505784
-0.0595134
-0.0754857
-0.0557323
-0.0428191
-0.0494569
-0.0289533
-0.060249
-0.0568038
-0.0455896
-0.0251662
-0.0521247
-0.052776
-0.0231905
-0.0501417
-0.0306343
-0.0224636
-0.0249741
-0.0456726
-0.0282573
-0.0324093
-0.0276709
-0.0289721
-0.0273469
-0.0340718
-0.0276422
-0.0318114
-0.0351619
-0.0529742
-0.0711637
-0.0250411
-0.0265706
-0.0302392
-0.0373693
-0.030446
-0.0740733
-0.0783287
-0.0266938
-0.0268281
-0.0396136
-0.0445358
-0.0298657
-0.0786703
-0.0780297
-0.027342
-0.0307454
-0.0454097
-0.0461774
-0.0336007
-0.0772731
-0.0732093
-0.0320908
-0.0357631
-0.0460797
-0.0459148
-0.0506646
-0.0714987
-0.0678874
-0.0372434
-0.0438878
-0.046684
-0.0537264
-0.0591057
-0.0684354
-0.0705823
-0.0474639
-0.0555991
-0.0576978
-0.0658259
-0.0369784
-0.0689731
-0.055599
-0.0526486
-0.0340861
-0.0657804
-0.056453
-0.0294415
-0.0509796
-0.0422569
-0.0313998
-0.0323906
-0.0517997
-0.0443742
-0.062804
-0.0167734
-0.0153566
-0.031515
-0.0350661
-0.0160048
-0.0159254
-0.0688389
-0.0159216
-0.0195542
-0.036175
-0.03995
-0.0165475
-0.0193142
-0.0746203
-0.0212318
-0.026895
-0.0412994
-0.0453281
-0.0204524
-0.0252238
-0.0773613
-0.0291022
-0.0390508
-0.0465709
-0.050687
-0.0274681
-0.0362578
-0.0764402
-0.0450678
-0.0723086
-0.0525145
-0.0610869
-0.0402167
-0.0577984
-0.0748141
-0.0769123
-0.0792505
-0.0648236
-0.0704215
-0.0635701
-0.0734996
-0.0639358
-0.0804907
-0.090809
-0.0700582
-0.062956
-0.0760463
-0.082859
-0.0536251
-0.0957613
-0.11167
-0.0589151
-0.0511602
-0.0845916
-0.0932457
-0.0131005
-0.0160184
-0.0155837
-0.0114778
-0.0132624
-0.0136071
-0.0150336
-0.0188674
-0.0190184
-0.0271551
-0.0143043
-0.0181127
-0.0184964
-0.025401
-0.0271391
-0.0309105
-0.0370062
-0.0195397
-0.0252891
-0.0276176
-0.031355
-0.0389623
-0.0404682
-0.0474822
-0.0279881
-0.0377379
-0.034403
-0.0437173
-0.0719302
-0.051037
-0.067265
-0.0417072
-0.0578444
-0.0476196
-0.0597456
-0.0805561
-0.0736649
-0.0862296
-0.0633164
-0.0742225
-0.063636
-0.0734793
-0.0942141
-0.0894607
-0.0977341
-0.0773105
-0.0852642
-0.0757384
-0.0794954
-0.115329
-0.100095
-0.109117
-0.0875395
-0.0974774
-0.0799531
-0.0840259
-0.0309284
-0.0224854
-0.0234904
-0.0279108
-0.0370297
-0.0238861
-0.0272602
-0.048486
-0.0244327
-0.0293165
-0.0432594
-0.0581591
-0.0294203
-0.0388258
-0.0553302
-0.031562
-0.0377272
-0.060901
-0.0672173
-0.0428027
-0.0523746
-0.0714131
-0.0390012
-0.0419412
-0.069159
-0.0693313
-0.0533512
-0.0521265
-0.053064
-0.0435639
-0.049025
-0.0662916
-0.0406292
-0.0518593
-0.0539052
-0.0236024
-0.0518011
-0.0510646
-0.0306295
-0.0192321
-0.0554634
-0.0400565
-0.0255537
-0.0430064
-0.0270617
-0.0198217
-0.0250274
-0.0298839
-0.0234963
-0.0343017
-0.0275261
-0.0339783
-0.0266136
-0.0297217
-0.0267287
-0.0368347
-0.0213385
-0.0227063
-0.0307096
-0.0193234
-0.0227265
-0.017838
-0.0208931
-0.0250918
-0.0327898
-0.0371135
-0.0243022
-0.0321415
-0.0219311
-0.0248138
-0.0326478
-0.0378502
-0.0385267
-0.0358789
-0.0469004
-0.0258185
-0.0320411
-0.0359509
-0.0358445
-0.0315627
-0.0383478
-0.0330724
-0.0396735
-0.0339718
-0.0412176
-0.0403634
-0.0373021
-0.0417587
-0.0388903
-0.0425496
-0.0399679
-0.0549721
-0.0544493
-0.0642144
-0.0529138
-0.0498099
-0.0554233
-0.0621721
-0.0321862
-0.0645215
-0.0543548
-0.0402859
-0.0258618
-0.0605233
-0.0430328
-0.0343612
-0.0496437
-0.0445744
-0.0280902
-0.0392648
-0.0401627
-0.0446643
-0.0295406
-0.0127641
-0.0133415
-0.0184576
-0.020855
-0.0130669
-0.0146037
-0.0343595
-0.0139596
-0.0170843
-0.0216749
-0.0244146
-0.0155341
-0.0201167
-0.0386878
-0.0185965
-0.0249076
-0.0254619
-0.0306789
-0.0225154
-0.032847
-0.0332207
-0.040486
-0.0340389
-0.033881
-0.0360093
-0.0350114
-0.0312178
-0.0448675
-0.0476757
-0.0437697
-0.0406536
-0.0476392
-0.0437024
-0.0410468
-0.068336
-0.0613744
-0.07223
-0.0575472
-0.0648739
-0.061849
-0.0701044
-0.0604312
-0.0747846
-0.0785915
-0.0636353
-0.049014
-0.070336
-0.0672389
-0.0503948
-0.0792003
-0.086218
-0.0459663
-0.0486772
-0.0659815
-0.0668423
-0.012006
-0.0118084
-0.0134604
-0.0110825
-0.0135141
-0.0121119
-0.0150064
-0.016888
-0.016027
-0.0215549
-0.0147624
-0.0201629
-0.0176379
-0.0227509
-0.0259491
-0.0235773
-0.0295643
-0.022856
-0.0344232
-0.0244837
-0.0327361
-0.0392825
-0.0331481
-0.0444568
-0.0388441
-0.0500167
-0.0367043
-0.048812
-0.0568396
-0.0485896
-0.0599993
-0.0527735
-0.0607547
-0.0524552
-0.0618971
-0.073137
-0.0633798
-0.0717198
-0.0640494
-0.0712692
-0.0638846
-0.0667996
-0.0811623
-0.0734039
-0.0755264
-0.0717934
-0.0696658
-0.0662205
-0.0628887
-0.0899147
-0.0755143
-0.0780909
-0.0686207
-0.0696885
-0.0615921
-0.0613304
-0.0394554
-0.0268633
-0.0307224
-0.0291118
-0.0408745
-0.028714
-0.0337813
-0.0583994
-0.0328057
-0.0426603
-0.0462356
-0.0546255
-0.0359996
-0.046888
-0.0703402
-0.0470434