/*--------------------------------*- C++ -*----------------------------------*\
  =========                 |
  \\      /  F ield         | OpenFOAM: The Open Source CFD Toolbox
   \\    /   O peration     | Website:  https://openfoam.org
    \\  /    A nd           | Version:  10
     \\/     M anipulation  |
\*---------------------------------------------------------------------------*/
FoamFile
{
    format      ascii;
    class       volScalarField;
    location    "1.1";
    object      k;
}
// * * * * * * * * * * * * * * * * * * * * * * * * * * * * * * * * * * * * * //

dimensions      [0 2 -2 0 0 0 0];

internalField   nonuniform List<scalar> 
12920
(
644.634
1103.73
923.536
724.912
551.277
392.414
260.395
203.227
185.287
188.263
191.572
187.844
175.99
142.888
76.9541
39.8055
22.7294
10.7108
3.81427
0.889976
4827.5
1684.75
1349.98
1150.26
806.014
467.971
262.319
158.426
116.551
103.881
99.2506
96.4939
96.1227
81.7437
43.9184
19.9792
9.21617
3.66962
1.16308
0.217227
2548.46
2672.53
1416.71
1345.94
992.961
623.305
382.594
206.558
104.53
62.2755
47.7653
39.4161
29.811
18.0263
8.21957
3.23641
1.27113
0.394369
0.101629
0.01525
2857.89
1587.5
1005.81
814.198
561.163
379.302
261.987
171.025
89.7037
41.7313
18.2388
9.07095
4.37175
1.87458
0.692874
0.239403
0.0860022
0.0239494
0.00641387
0.0017585
2600.87
1097.94
679.86
485.768
370.982
177.724
86.4682
65.6152
32.3639
12.9423
3.91739
1.26611
0.373683
0.119553
0.0361188
0.0121235
0.00478717
0.00202516
0.0013281
0.00115894
1221.72
1792.34
816.31
496.583
518.704
213.966
60.4644
17.8811
4.71968
1.90303
0.416501
0.106967
0.0216658
0.00639056
0.00242757
0.00152461
0.00125823
0.0011655
0.00114399
0.0011387
1606.12
3666.04
1140.01
692.664
597.791
293.124
121.07
21.8207
1.45675
0.263837
0.0465532
0.0144007
0.00601471
0.00246461
0.00163538
0.00131657
0.00120452
0.00116105
0.00114315
0.00113565
1040.7
1753.63
1397.45
1220.93
852.602
490.551
217.726
18.6768
0.0970968
0.0668472
0.664466
0.718528
0.0660534
0.00770726
0.00673169
0.00273503
0.00168049
0.0013018
0.00115155
0.00109352
13326.2
5738.56
2146.24
1260.26
801.343
304.946
124.632
30.643
0.402763
0.445417
3.43597
8.20743
6.06717
0.190732
0.0374337
0.00430659
0.0014578
0.00105566
0.000979467
0.000971534
7471.68
4465.24
2079.03
1230.71
892.617
486.68
70.6815
37.3629
6.17487
0.457718
5.77678
7.62201
15.5291
8.36887
0.484128
0.0167817
0.0025441
0.00111007
0.000927011
0.000918308
7485.97
4825.06
2133.12
1220.61
839.236
441.059
170.367
49.378
20.4343
5.24989
1.6899
8.80306
21.5468
6.16242
0.352601
0.0120549
0.00233032
0.00111871
0.000933756
0.000922269
3013.67
2091.41
1349.68
1049.87
729.335
378.568
172.411
67.5616
27.1636
12.8874
13.2305
12.4651
23.4464
2.54145
0.0198466
0.00272305
0.00160976
0.00121611
0.00106847
0.00102265
2702.99
3077.39
2470.97
1284.18
739.731
479.152
255.003
156.01
115.06
51.4132
27.8602
25.1235
5.86281
0.998274
0.343945
0.0702736
0.0126608
0.00375623
0.00159327
0.00116197
308.472
1651.81
1787.26
1261.98
737.48
467.011
312.703
230.21
171.067
149.002
133.109
120.951
97.5391
53.6724
17.5793
3.7051
0.625148
0.0927602
0.0134709
0.00257408
690.756
1408.31
1204.73
707.535
460.261
348.208
279.034
216.253
176.693
143.888
123.273
95.6559
71.4084
39.5163
14.9301
4.17062
0.956431
0.183047
0.031908
0.00538397
605.369
1095.66
960.269
614.036
479.571
419.353
309.246
182.583
106.452
52.5117
41.1329
33.1128
33.0884
28.0329
14.9555
6.62369
2.47547
0.702241
0.14445
0.0218247
11924.4
1987.2
1320.62
772.637
626.539
469.372
317.582
159.698
67.893
24.8975
13.8027
11.9228
13.4044
14.1417
12.0947
5.9665
2.11672
0.518843
0.0897782
0.0121563
8622.68
7109.31
3902.6
1467.45
839.777
673.612
470.752
319.629
196.425
102.244
47.8251
22.4038
12.7944
7.63261
4.22263
1.54174
0.382437
0.0624654
0.00964679
0.00209018
5408.24
4017.55
2639.82
1226.88
694.815
416.828
242.528
161.434
113.674
63.1472
28.981
10.7509
3.72063
1.12231
0.354872
0.0810581
0.017052
0.00339505
0.00144405
0.00116961
599.07
1162.94
987.332
570.362
414.627
301.824
191.489
105.428
54.2865
24.234
8.93809
2.55412
0.614895
0.127367
0.0257015
0.00541292
0.00186799
0.0012486
0.00115413
0.00113955
3100.88
1879.82
1462.77
1185.3
997.842
803.32
616.511
493.434
440.393
402.4
363.16
317.223
278.517
255.151
213.737
147.243
84.4561
35.951
10.2889
1.94613
13052.1
6810.81
3392.23
2344.86
1472.81
954.068
606.452
397.384
238.482
138.492
78.7573
42.407
32.0476
32.6705
28.2144
23.2008
16.651
6.66276
1.7688
0.288143
16914.2
7256.75
3619.05
3211.97
1934.66
1282.62
752.956
451.185
215.128
81.8022
28.6241
13.6671
8.85586
5.29183
2.8737
1.95661
1.27146
0.459388
0.122141
0.0182978
7818.06
4449.66
3175.49
2627.77
1493.43
979.4
598.876
446.773
284.052
140.6
47.1199
11.1095
2.21817
0.532447
0.193856
0.121521
0.073964
0.0251084
0.00700506
0.00145097
7968.7
3787.69
2570.55
1655.09
1146.32
508.236
200.278
150.052
91.8969
48.5389
13.857
2.81979
0.423507
0.0702929
0.0170902
0.00787851
0.00417661
0.00168991
0.000859247
0.000583053
2563.8
5090.03
3024.88
1976.84
1406.1
471.336
126.287
33.5532
8.36568
4.4995
0.98567
0.217752
0.0340989
0.00746907
0.00243971
0.00130097
0.000875181
0.000665226
0.000591169
0.000541476
13542.9
8550.09
3588.05
1773.89
1452.76
711.001
206.462
26.6237
4.50332
1.39561
0.140947
0.0327387
0.0117156
0.00412303
0.0019842
0.00115635
0.000828117
0.000664146
0.000596703
0.00054381
4104.76
5009.5
3907.53
3030.55
1749.39
1084.43
642.064
17.2572
3.71609
0.63701
0.224187
0.253334
0.167371
0.0352337
0.00759705
0.00273696
0.00140581
0.000914278
0.000715844
0.000591204
16368.9
5606.38
3556.23
2788.74
1459.4
793.366
501.167
53.9324
40.1197
11.3887
6.2579
10.5981
4.66253
1.05817
0.0247381
0.00233263
0.000953002
0.000725569
0.000623719
0.00056206
39390.9
14068.8
3915.97
3248.73
2063.15
1474.65
429.71
24.686
14.6381
62.0806
37.2302
36.5343
42.2442
10.6763
0.613328
0.0131239
0.00187981
0.000847692
0.000615164
0.000543658
10768.5
5062.58
3664.1
3039.3
1853.65
1488.39
740.92
248.2
96.4291
6.87801
3.11583
31.1308
14.0327
12.5848
0.855355
0.0121403
0.00195018
0.000870385
0.000610814
0.000538214
6640.37
6718.79
3566.69
2513.6
1541.21
1255.58
825.764
427.952
204.854
75.0467
29.0596
34.4561
33.97
10.2602
0.0446607
0.00232056
0.0011937
0.00081811
0.000656678
0.000571813
12297.9
7340.74
5498.01
2801.29
1673.56
1099.55
789.782
606.463
444.141
211.427
112.234
58.7492
15.1694
1.41127
0.214229
0.0459428
0.0121783
0.00333268
0.0011155
0.000632811
2631.73
4341.86
4370.26
2980.41
1667.6
1063.28
634.842
432.192
284.902
267.539
238.094
213.001
149.753
72.6047
20.1527
3.68619
0.560445
0.0816391
0.0120789
0.00198887
2490.01
3941.73
2994.25
1679.09
1078.58
823.431
619.381
522.093
451.448
400.65
345.389
248.949
137.235
59.1904
19.7679
5.55864
1.36117
0.287639
0.052518
0.00794465
4355.83
3287.36
2639.64
1394.62
989.126
766.831
518.712
292.521
216.062
95.2105
71.6334
45.5334
40.4089
23.6856
11.9526
5.10598
2.02318
0.622358
0.14491
0.0227086
23883.7
3678.13
2872.51
1701.1
1184.59
663.703
219.765
78.8976
41.0346
13.1369
8.10032
6.16473
8.23204
8.41242
6.92353
3.37386
1.20244
0.297671
0.0530284
0.00690242
15854
11780.9
4530.4
2516.04
1619.87
1212.09
479.688
202.547
83.4688
34.362
18.1217
10.307
6.41164
3.62816
1.71958
0.557389
0.141393
0.0247388
0.00420449
0.000960835
18535.7
6698.66
4768.87
2516.04
1247.22
929.735
360.857
174.814
75.353
30.388
11.1817
3.25509
0.967726
0.257002
0.0786049
0.0186321
0.00495536
0.00129488
0.000663105
0.000539317
3318.8
2283.91
1999.24
1096.6
703.896
497.486
286.784
134.6
54.5057
19.8362
6.25244
1.63501
0.373882
0.0762379
0.0154539
0.00366767
0.00148237
0.00108554
0.00102304
0.00102592
2901.85
2123.8
1838.14
1434.59
1260.37
1000.21
749.192
600.944
527.914
453.068
375.174
307.95
246.425
204.869
195.898
182.968
143.778
70.098
18.4207
2.84449
2812.58
4720.25
4137.26
2571.2
1906.39
1302.48
924.156
669.537
418.07
223.495
100.923
47.8162
24.4722
20.3455
23.0332
32.0312
36.721
18.3281
3.86238
0.529301
8540.27
6011.98
4668.78
3526.09
2369.99
1638.71
1050.38
652.028
329.103
128.924
38.2589
10.0734
3.49677
2.33001
2.50613
3.66179
3.96929
1.67242
0.33912
0.0440248
8800.49
6664.14
4711.04
3354.1
2192.55
1501.8
986.952
725.231
419.409
190.988
54.9372
10.7675
1.5693
0.365063
0.260148
0.317401
0.293696
0.103358
0.0227924
0.00334346
10393.6
6771.33
4167.1
2553.18
1688.2
801.624
335.752
205.115
94.2856
39.6517
8.70225
1.568
0.234499
0.057009
0.0295014
0.0249928
0.0168433
0.00578695
0.00176709
0.000697559
2995.52
6385.3
4898.27
2793.36
1904.99
664.745
229.327
76.5178
23.1871
6.96551
1.34663
0.264444
0.0511029
0.013275
0.00473639
0.0026084
0.00152659
0.000857231
0.000631187
0.00054439
10961.3
8495.74
5521.6
3075.79
2198.37
936.356
333.517
123.105
48.3557
11.1163
0.939404
0.110568
0.020206
0.00565702
0.00407322
0.00143653
0.000878426
0.000675457
0.000595872
0.000541162
11094.7
8776.45
6571.19
4486.03
2710.62
1597.66
899.589
169.617
83.1514
4.30603
1.5492
0.492114
0.101324
0.0272913
0.110139
0.0730264
0.0225175
0.00603663
0.00171172
0.000724488
17484.5
7200.35
5671.78
3735.8
1882.55
1167.56
813.829
85.176
197.649
117.66
50.2802
7.62336
2.50424
0.275037
0.00446373
0.561986
0.515733
0.35362
0.1329
0.0246828
18262.3
7399.44
5326.93
4134.37
2341.11
1374.9
368.082
89.7889
125.64
83.6706
194.293
66.8838
15.393
4.63321
0.108518
0.800427
0.730421
0.519415
0.208225
0.0392268
18575.9
5670.77
5303.74
3632.32
2091.73
1326.41
513.589
226.142
71.2276
12.4908
19.6952
114.724
57.4753
7.23121
0.141526
0.853225
0.772867
0.562442
0.236045
0.045318
11859.3
7509.37
4803.6
3268.53
2033.96
1501.02
918.148
469.564
187.664
49.8764
74.8142
44.3469
54.392
10.1756
0.0376211
0.615577
0.533609
0.361924
0.150124
0.02973
22895
10431.8
6613.18
3571.72
2222.74
1579.63
1220.48
988.373
662.792
333.099
207.151
120.743
24.6051
1.35533
0.144809
0.0608181
0.0121591
0.00288812
0.00107708
0.000623787
11311
8227.77
6038.17
3698.17
2209.88
1511.37
1075.99
753.254
489.646
376.452
274.131
209.766
124.39
48.6693
10.3209
1.42155
0.176724
0.0227154
0.00351518
0.000902168
5428.04
5877.24
3693.77
2187.77
1645.95
1081.55
931.831
676.901
482.027
340.629
236.131
146.52
76.9308
24.3671
5.61014
1.04887
0.213143
0.0504144
0.0110876
0.00219194
6739.69
4850.74
3099.51
1698.88
1135.48
636.329
603.809
376.812
290.228
125.299
69.0351
24.3535
11.5077
3.546
1.24159
0.573316
0.358389
0.144929
0.0383457
0.00665124
39191.8
5573.2
3550.5
2078.75
985.288
303.391
210.927
85.6907
68.2993
17.0574
7.68414
1.94461
0.892513
0.633747
0.828106
0.596072
0.207773
0.045262
0.00771217
0.00139241
17146.9
11587.9
5248.28
3048.21
1657.91
634.242
144.303
32.6696
8.69801
2.25484
0.965092
0.684999
0.7511
0.498105
0.21559
0.0619448
0.0142616
0.00292785
0.000930642
0.000566805
16436.2
9188.01
5319.51
2863.91
1213.97
559.682
178.991
50.9516
18.0204
5.47291
1.78998
0.415809
0.0978747
0.0216612
0.00633765
0.00216301
0.00106404
0.000668224
0.000565662
0.0005271
5337.31
3774.62
2393.07
1217.22
684.633
403.055
235.947
110.245
46.0546
16.1095
5.3347
1.51771
0.363946
0.0738484
0.0140351
0.00323249
0.00136666
0.00106187
0.00101884
0.0010248
4999.09
3033.63
1676.21
1385.3
1249.45
981.955
757.38
657.04
606.381
536.563
450.064
360.041
266.417
201.042
182.298
179.972
164.806
98.9796
29.118
4.75178
6498.4
4804.07
4355.98
2540.37
2177.26
1576.11
1341.82
1084.84
825.83
566.164
351.804
196.296
95.0669
47.9298
45.8746
66.3885
75.1687
41.8454
9.53578
1.27112
18972.6
7848.01
5801.59
3720.49
2771.9
1889.1
1423.85
1004.32
655.72
369.233
199.215
95.3592
48.0432
19.156
12.1142
12.7794
12.1346
5.87773
1.36491
0.202933
9883.57
9094.2
6431.65
3999.64
2807.86
1825.36
1340.89
956.47
542.161
239.926
73.6341
17.7041
4.07783
1.45867
1.11487
1.27611
1.12115
0.470589
0.130347
0.031549
21009.9
10642
5532.92
3217.69
2155.94
1022.94
574.473
315.376
152.628
67.23
20.4119
4.29885
0.866411
0.314094
0.212909
0.190664
0.139132
0.0607293
0.0251418
0.0148413
12482.4
9146.28
6150.09
3457.89
2385.71
909.985
558.93
305.551
163.117
67.0985
16.6292
3.03817
0.493238
0.103833
0.0355551
0.023431
0.0160276
0.0101885
0.00816073
0.00870771
13711.2
10007.5
6866.17
3922.78
2795.88
1156.86
698.31
421.03
223.705
71.0819
8.88586
1.27624
0.693957
0.323334
0.383468
0.10292
0.0296487
0.0147482
0.0107951
0.0103384
26978.1
15037
9102.67
5364.87
3410.7
1898.24
1187.64
529.477
308.676
30.8755
2.82349
0.40297
0.2099
0.325603
21.3289
14.4108
6.86919
2.93098
1.1252
0.303799
18758.7
9002
7140.97
4027.05
2019.73
1494.73
1112.54
395.01
379.517
218.845
129.153
3.08655
0.059105
0.0821874
6.39467
48.1094
40.9485
30.8508
18.0492
5.6113
14905.7
7387.62
6342.1
3874.61
2110.99
987.196
525.532
420.679
225.597
379.765
365.866
150.277
40.0481
1.35085
15.9463
59.5459
48.9713
37.6411
23.0699
7.32643
15066.3
6885.05
6211.46
3685.74
1987.02
936.506
313.134
158.822
50.2684
17.7362
340.334
288.463
116.27
79.9308
28.4152
61.4992
50.5277
39.269
24.7043
7.9979
28643.2
10160.2
6040.47
3564.93
2372.69
1645.62
1040.23
617.767
258.52
287.293
448.686
198.756
123.13
11.1026
15.7678
50.7118
41.362
30.9963
19.3356
6.38856
14862.7
11481.3
7943.2
4191.33
2805.36
1930.43
1627.13
1325.7
880.421
581.975
366.382
110.946
9.2187
0.624138
8.09636
5.18348
2.85289
1.37226
0.635778
0.197753
17918.7
10635.6
7112.89
4059.84
2774.71
1830.4
1535.88
1024.83
649.627
370.939
183.04
94.9033
36.9733
9.60659
1.55853
0.207314
0.0494458
0.0262643
0.0213694
0.0179089
15039.3
6769.8
4132.92
2622.77
2187.55
1284.65
1269.04
796.14
493.659
236.183
108.793
38.3066
13.6562
2.74021
0.580568
0.189013
0.0646082
0.0383314
0.0282918
0.0212835
13655.5
5255.69
2944.33
1827.52
1328.95
708.001
878.491
539.595
386.683
146.642
60.4895
19.5438
7.09009
2.37236
0.771691
0.183877
0.0872899
0.0568747
0.0404417
0.0257425
19310.2
6499.86
3612.33
1999.12
817.949
317.412
374.535
159.588
132.454
39.6647
20.7483
6.55991
2.55009
0.566287
0.138141
0.0774757
0.0478181
0.0318811
0.0250536
0.0202642
11194
9270.52
5395.03
2916.29
1446.75
383.153
117.336
33.2894
15.3056
6.17298
3.36821
1.50951
0.468373
0.119128
0.0611757
0.0346214
0.0254444
0.0214891
0.0203803
0.0197868
34374
11355.7
4808.15
2284.32
711.813
197.124
114.327
48.5331
21.0881
7.96741
2.31898
0.581745
0.222912
0.137808
0.0938326
0.0582799
0.0343863
0.023457
0.0188847
0.0187522
4481.6
4243.66
2453.33
990.59
480.819
259.309
163.847
87.4
41.1391
16.5587
5.90794
1.67109
0.37666
0.0710261
0.0146282
0.00488516
0.00271982
0.00172915
0.00136996
0.00114823
11733.5
6919.89
1925.85
1214.74
1065.45
833.442
720.141
684.419
678.594
652.798
600.99
490.216
374.705
282.728
244.514
210.422
166.779
93.3659
32.4101
6.17725
11665.1
6254.33
4458.66
3114.23
2548.1
1846.62
1830.22
1463.81
1399.93
1145.29
1026.32
754.565
548.649
363.227
338.057
355.502
323.532
156.571
52.5999
20.2181
8195.64
11972.3
6723.77
4517.4
3088.74
2124.25
1802.64
1361.6
1241.95
974.04
865.355
629.611
462.682
258.179
170.78
148.432
122.437
58.4241
25.6162
13.4054
9595.71
10496.2
8008.59
4578.32
3324.79
1996.83
1665.22
1090.38
831.029
538.991
386.784
198.275
95.4719
44.3572
27.8026
24.5411
20.0749
12.4577
9.2367
7.94002
15695.9
14104.7
7026.28
4368.38
2524.8
1423.99
976.429
623.86
532.946
393.885
236.892
99.4755
40.5388
19.058
12.3095
9.3089
7.97174
7.19206
7.00195
7.03284
21517.8
10749.4
7346.67
4091
2834.69
1382.44
1093.63
775.147
623.553
399.123
176.106
60.9269
17.9856
7.31953
4.6906
4.35136
4.36684
4.61094
4.88174
5.55218
17284.6
12858.1
7769.41
4980.54
3161.13
1582.71
1367.09
896.484
557.182
248.487
66.7298
27.1414
35.746
26.3241
20.3967
11.1024
7.6811
6.31778
5.96036
6.04623
32240.7
14297.6
10220.5
5481.25
3898.36
2066.27
1550.52
964.036
599.192
154.21
80.398
81.5583
141.393
151.38
261.759
192.009
134.789
89.7342
56.9543
28.6374
29031.7
11290.9
7903.87
4647.36
2189.14
1779.44
1557.24
1032.45
824.821
421.61
318.905
290.976
345.532
383.866
413.025
342.25
306.519
273.67
216.794
115.73
15758.5
10205.3
6545.01
4467.2
2047.65
1083.96
1066.39
1095.12
854.709
807.821
472.091
342.297
439.358
466.153
483.247
370.424
330.001
298.758
243.182
132.253
10514.6
9292.83
6849.94
4745.64
2144.64
1012.97
752.138
707.791
686.343
590.579
577.816
595.085
623.012
562.879
502.77
371.598
333.957
303.09
250.447
138.34
17755.6
10330.5
6937.89
4292.61
2879.12
1937.18
1465.05
1107.02
931.824
936.451
946.152
835.762
705.601
498.462
472.087
341.7
306.456
272.673
224.141
124.896
26560.2
11491.5
8737.77
5382.15
3308.66
2342.67
2019.37
1493.44
1191.74
926.059
488.025
292.621
214.779
223.266
187.016
124.429
92.3845
64.4409
45.2882
24.4297
20424.7
11315.9
8001.26
4669.8
3299.04
2081.54
2028.76
967.588
856.198
312.131
214.404
78.2604
48.0405
21.7301
15.0815
11.0234
9.88993
9.29103
8.9525
8.20833
27839.4
9368.75
4829.71
4275.91
2507.85
1762.45
1815.11
939.406
807.155
289.324
171.208
67.4005
39.9654
21.0196
14.2937
11.1732
10.5931
10.4566
10.0984
8.86126
37586.2
7427.41
3429.84
3104.32
1504.55
1137.57
1317.79
734.746
683.43
270.483
153.197
58.7821
36.4567
19.9655
16.2525
13.0664
12.3493
12.0713
11.7638
10.2973
33549.1
9459.07
4179.13
3160.03
1045.16
680.388
513.434
249.727
210.537
86.8443
60.5654
23.654
17.7139
11.7664
11.0879
10.2708
10.3145
10.1999
9.97667
9.03438
8075.18
9060.81
5759.61
3405.98
1593.39
574.09
247.997
124.575
61.3547
26.1794
20.7131
14.6433
13.8114
11.7384
11.187
9.78877
9.52902
9.07094
8.96469
8.61779
18183.9
10400.1
4180.59
2115.04
717.16
294.994
168.193
100.289
55.4981
19.2677
17.5023
10.9225
9.01939
7.6275
7.78137
7.53671
7.71325
7.71625
7.84025
7.94967
4143.37
3457.97
2109.99
692.454
297.337
149.39
88.2957
50.106
26.9257
11.5742
3.87476
0.967978
0.198224
0.0452098
0.0306713
0.0369989
0.100587
0.131258
0.144127
0.0850581
232.274
15.8704
34.3054
273.647
348.146
38.533
48.5664
97.215
27.1442
103.283
307.421
167.677
159.73
296.731
17.6727
45.7098
24.0212
11.9374
58.9967
58.9407
345.668
116.236
86.5051
82.3062
210.18
320.414
381.998
238.937
56.3953
51.2453
45.8816
354.54
150.865
224.87
36.0706
1.88256
35.4227
5.32276
69.3038
4.01421
29.4869
10.3065
0.383008
2.30912
0.458617
8.73597
10.9486
6.60917
47.1317
2.57553
0.498849
2.39652
3.10149
1.51253
37.8003
12.7944
7.56572
5.76591
6.30807
2.61039
7.99911
17.7548
27.6015
8.80027
7.54787
12.9022
5.6094
4.57444
27.736
25.602
0.528122
13.3092
11.0975
3.98829
1.82985
24.4963
7.71676
0.00835065
5.36532
0.291761
1.16865
0.0695134
5.58411
0.95458
42.6826
171.56
53.755
382.781
44.1121
609.427
245.901
11.535
38.4192
23.7751
27.7248
22.6795
172.613
102.708
0.59337
21.2614
3.84401
12.006
29.1418
80.4598
7.46494
2.70906
1.65296
1.36175
31.4555
11.9424
3.71264
1.6658
5.72888
3.63436
4.2897
15.2344
30.7706
3.07017
18.8042
14.8252
9.28258
20.242
32.0872
28.0661
15.8589
11.5117
12.4173
20.5553
11.6296
26.864
8.72455
9.16225
10.2526
0.522816
8.73439
1.22191
6.95469
1.7447
10.0856
3.21995
67.9823
171.396
76.8395
626.108
287.641
671.225
401.593
22.3905
58.5148
28.2647
208.411
95.2847
316.254
176.719
11.4189
20.5515
14.4473
83.2436
21.7381
142.164
73.1679
1.04358
14.4726
9.54432
7.48865
1.17144
62.2306
21.1142
3.26765
9.20372
13.7086
1.45606
11.9305
15.5154
14.3567
20.9611
13.1246
21.6391
8.76897
13.8232
15.8786
26.9797
9.44629
21.8486
6.75018
13.5795
14.6387
26.8631
18.497
0.999141
2.98523
0.106042
11.9143
2.86861
7.65543
0.316373
84.6154
191.387
96.2498
648.254
446.246
629.985
541.071
40.7989
90.4067
67.8759
370.328
227.455
514.6
421.76
13.6634
64.792
49.821
180.834
75.4289
405.106
258.086
11.5106
46.0772
14.7172
61.5603
29.5037
219.246
119.591
15.39
12.0808
12.2058
29.234
31.8252
121.3
57.0831
23.094
12.3308
9.72137
28.7828
35.942
47.9484
54.827
6.37273
8.3141
1.50838
34.6075
23.4186
55.9226
15.9376
0.0643381
0.481876
0.0108751
9.26232
0.187764
4.89403
0.105916
137.728
289.633
35.2406
728.09
99.7642
361.686
31.8785
12.1989
33.5733
11.8746
38.3341
133.776
23.0176
84.8632
33.6824
16.2972
78.5315
158.067
137.13
128.997
90.9926
4.49927
71.368
35.0697
88.698
45.9163
104.306
198.29
13.5513
40.7366
28.6751
30.7829
12.6724
182.75
59.9735
6.28373
29.3896
32.9528
9.37752
5.51501
36.2815
10.3637
1.83462
32.8067
13.3404
4.8251
1.86269
8.37045
12.6213
0.0580564
7.25203
0.938175
0.64856
0.0243653
9.29477
0.67177
34.9324
717.061
276.803
383.982
39.4724
600.37
236.964
20.0368
200.923
107.558
42.312
44.8175
192.324
61.0771
61.2219
43.5951
7.97487
74.2613
62.7403
26.4836
29.2467
32.3059
7.16556
6.06703
73.3098
182.748
27.3857
38.5459
32.8333
8.87543
28.9648
166.13
71.7071
28.9623
64.1697
42.5225
30.4711
15.4496
52.4936
23.2878
65.9608
65.2659
17.0635
11.4902
11.0545
16.9476
12.7887
59.1201
21.0877
1.80133
10.9516
3.41782
10.9789
1.23506
12.7784
1.72035
334.642
829.353
453.486
620.304
313.274
798.91
408.833
116.606
363.834
203.288
256.337
131.515
341.605
196.993
12.7753
164.513
89.9019
80.174
16.628
159.622
91.5123
2.43725
74.5354
20.7942
15.8915
18.8049
61.2929
10.8561
31.9977
14.1719
15.1077
15.784
81.3331
18.4454
33.5283
16.3328
16.6087
21.738
86.0201
60.1564
24.6305
24.6389
14.2723
26.4908
20.954
52.3062
20.4364
38.3133
19.9884
3.12309
8.88635
0.43265
12.1795
1.34946
8.71706
0.398299
510.516
838.96
656.55
923.691
544.598
1189.02
935.369
257.26
624.201
512.72
471.323
268.827
884.422
705.193
92.1523
484.097
299.851
205.688
93.4646
640.961
349.146
31.0619
255.283
135.384
67.1797
19.4163
291.56
187.126
38.9777
135.027
83.7633
24.8288
40.5665
164.781
148.851
33.404
63.3154
74.041
42.7836
38.8184
136.529
126.994
26.7652
74.2983
18.0955
47.7871
29.8137
124.158
17.4303
0.228197
5.46466
0.105404
10.4069
0.304861
4.36654
0.0645927
128.814
392.024
53.8454
1023.85
379.056
551.245
315.862
188.358
43.7171
138.738
289.172
292.537
279.406
269.753
170.692
157.855
90.3718
305.962
279.05
209.924
226.726
78.7179
116.714
255.915
187.286
172.343
297.489
388.075
13.2441
222.018
79.5744
116.665
16.04
321.377
138.444
3.15467
47.2829
9.60365
4.69259
0.233315
94.622
17.5926
0.807351
5.46359
6.52825
0.122588
0.0245562
6.3733
0.158824
0.0130007
5.0674
0.308945
0.0142485
0.00442461
0.0782376
0.0219861
65.5543
486.294
198.269
455.498
316.995
308.425
188.332
111.013
166.331
64.7708
301.787
246.041
172.584
72.7505
60.7884
38.421
19.2036
166.852
181.322
44.4134
25.8526
152.68
145.732
57.4937
119.681
109.683
202.877
76.851
149.407
140.295
120.94
216.191
109.192
178.544
135.478
23.1748
94.6624
66.4877
127.251
48.6759
232.131
79.8904
4.76547
53.4946
13.8242
25.245
0.776554
69.0229
34.4535
0.553017
7.33329
0.839556
0.177612
0.030505
18.295
0.304947
264.406
736.042
359.041
300.487
157.241
636.837
316.084
119.228
298.953
170.256
136.081
81.4713
252.939
111.163
16.2693
140.142
74.0373
53.6585
11.4167
85.8294
50.0347
9.19511
14.8229
13.3855
10.3201
10.5108
8.39593
12.1429
178.517
44.959
24.7809
32.3221
89.1816
106.134
69.7633
68.7081
47.0248
31.2553
249.546
79.6839
163.214
69.4372
13.6711
46.3351
19.474
66.9884
38.9865
74.2716
23.6467
0.625745
8.2003
0.306501
26.4596
1.31003
7.26608
0.27017
541.233
1287.36
1014.02
973.775
628.667
1575.72
1261.53
251.744
957.764
746.988
549.291
269.642
1181.52
877.786
76.6479
672.294
351.142
191.426
128.517
777.05
448.668
38.7958
290.748
184.496
157.613
347.357
395.177
277.564
45.0924
167.229
148.718
344.345
172.865
247.503
210.546
41.807
146.408
146.304
123.635
69.5287
215.168
211.845
29.4916
141.027
16.4899
83.2675
24.9065
160.955
6.53317
0.281498
3.93477
0.053071
6.38647
0.10441
1.27123
0.0209876
499.623
629.135
461.157
1442.31
990.181
1025.76
995.844
368.155
414.3
353.454
878.124
740.778
953.24
785.082
324.031
289.993
326.453
708.593
485.797
739.438
696.243
192.182
394.911
433.16
347.605
268.754
706.131
543.748
13.5291
361.087
151.861
231.449
162.673
441.253
256.963
0.0635092
106.65
23.1622
145.119
173.511
245.305
270.636
0.00256589
10.2154
0.743786
169.936
217.06
279.787
285.372
0.237177
0.436647
1.4191
211.876
214.431
283.992
272.581
447.207
327.719
253.413
902.234
972.323
634.632
653.488
313.199
237.7
96.5412
941.833
736.15
623.359
480.466
287.649
57.5778
54.1103
695.029
706.937
499.42
502.648
407.591
72.7369
117.336
727.294
561.955
453.767
514.264
183.787
288.948
326.992
459.218
275.694
497.378
439.544
71.9123
268.002
125.72
267.948
290.089
433.708
458.451
3.40053
126.88
85.1432
301.899
308.313
459.285
410.978
0.775008
57.1466
3.36948
305.995
298.59
394.026
339.247
184.005
677.028
378.545
609.77
552.418
1008.45
777.615
74.4159
307.798
136.458
517.046
393.872
714.943
592.093
16.9478
104.299
97.3247
399.121
416.881
583.364
623.637
173.576
151.803
463.145
395.641
533.151
665.835
813.638
365.405
482.511
299.393
546.718
553.803
821.019
687.408
111.419
218.872
103.212
514.409
517.544
628.385
577.86
98.671
111.39
48.2708
525.881
455.639
576.488
424.446
10.1011
23.5251
4.61654
438.627
360.994
401.17
362.974
701.497
1678.82
1354.45
1348.75
1045.22
1974.14
1636.08
331.4
1264.96
938.484
963.802
767.114
1515.44
1207.72
237.799
835.354
538.824
746.957
767.646
1133.79
999.916
461.147
495.729
381.038
799.33
862.95
967.123
802.5
252.503
337.75
274.846
839.733
715.188
725.138
590.459
112.388
273.457
218.092
674.548
593.995
479.061
337.379
33.7003
139.335
4.38889
574.443
380.989
245.444
207.752
1.0233
0.847664
0.302467
351.287
318.169
176.225
185.105
1146.88
1188.69
1172.28
2108.53
1701.99
1892.66
1717.87
867.145
1120.31
921.953
1582.9
1366.4
1640.33
1417.84
552.057
877.607
792.652
1347.86
1148.04
1389.12
1233.93
336.03
777.524
563.863
1087.22
1072.1
1172.21
996.354
296.772
464.819
340.48
1080.62
1119.35
969.188
1019.65
338.886
341.848
409.757
1093.88
1100.18
1050.21
1164.14
385.213
426.095
445.959
1091.64
1106.54
1163.76
1160.6
387.292
448.534
446.052
1082.9
974.523
1154.52
1050.75
1135.86
779.856
809.09
1734.61
1643.1
1496.19
1381.85
889.673
785.54
730.935
1584.29
1412.51
1381.36
1357.61
817.251
746.929
682.997
1378.6
1226.41
1327.41
1125.57
579.903
625.579
566.866
1165.38
931.782
1040.76
798.505
339.681
514.468
480.085
889.019
939.9
775.719
896.843
416.282
491.882
546.225
983.523
1141.88
961.267
1124.26
463.644
554.269
537.886
1164.67
1163.81
1162.45
1168.27
466.827
528.735
494.802
1159.55
1051.98
1164.02
1059.29
728.403
1152.25
947.982
1537.68
1367.4
1857.66
1589.18
677.355
894.579
805.65
1366.94
1336.19
1547.65
1437.23
629.108
797.221
790.105
1299.42
1093.23
1400.28
1242.85
585.044
804.508
893.933
1010.2
826.985
1199.93
1198.88
601.11
905.788
838.628
828.549
991.763
1242.79
1258.15
623.249
802.809
734.288
1046.23
1159.85
1242.73
1208.68
575.31
702.369
555.191
1181.03
1171.62
1196.04
1145.3
508.503
538.21
504.978
1165.49
1059.78
1143.76
1046.64
1184.11
2061.72
1716.43
2000.85
1754.16
2490.19
2159.23
947.727
1583.03
1295.36
1689.34
1534.14
1988.79
1668.51
922.983
1236.56
1133.64
1507.37
1380.1
1627.33
1530.83
965.383
1086.22
893.292
1349.13
1326.36
1458.45
1218.9
870.882
818.414
686.699
1340.57
1273.82
1189.03
1139.17
748.738
580.917
478.519
1247.03
1196.82
1097.56
1052.62
520.033
413.238
384.432
1164.04
1119.28
1002.42
1024.85
472.179
360.479
357.728
1121.82
1039.68
1016.4
928.668
194.408
210.113
160.384
272.225
157.807
268.479
183.138
75.2479
33.1074
26.0289
13.6927
58.575
33.0921
31.1717
102.062
85.0635
37.2601
28.3154
87.4956
89.3383
34.6557
209.861
186.749
357.35
209.349
274.302
128.933
275.742
234.477
306.729
388.903
229.166
328.335
199.104
279.478
102.214
19.0631
109.17
43.9395
58.16
36.0183
136.198
111.052
27.7498
105.572
38.0482
84.8415
34.1964
129.103
157.078
117.682
103.564
124.3
115.334
153.501
137.678
117.326
61.0958
46.4785
33.4566
72.4985
69.9386
97.4365
152.184
101.801
92.0731
169.382
104.947
144.466
154.879
207.033
251.036
270.627
235.345
224.808
170.284
273.38
204.298
148.99
217.626
195.274
190.076
172.114
242.886
195.455
66.2085
176.031
312.99
98.1678
193.273
280.207
209.591
235.665
235.576
319.452
196.474
234.396
263.651
9.0536
19.4496
10.7601
9.77463
9.97152
8.15036
14.4353
12.2739
25.8569
21.9681
31.0998
12.714
22.8393
20.5262
12.4216
11.5794
14.0748
99.1778
9.09368
33.4482
27.4336
9.40132
10.0906
12.9303
11.6929
7.95296
12.0098
12.3294
12.0489
19.2413
17.3181
142.311
8.42124
47.8054
31.8941
15.1213
32.4842
20.2456
111.411
18.7544
38.0176
28.3345
26.9768
226.705
254.009
237.22
111.894
95.5437
90.132
206.42
103.275
140.523
170.663
138.343
153.871
197.255
210.758
48.09
122.687
191.658
127.072
141.97
203.691
210.009
133.428
114.769
141.15
141.714
192.669
186.819
276.881
92.1389
319.445
311.241
201.382
185.839
363.747
282.229
237.444
339.533
311.866
229.146
257.357
352.956
296.007
286.714
367.328
367.455
256.3
283.768
381.246
283.347
190.059
294.517
316.887
245.449
253.465
356.154
87.2235
213.29
109.32
378.424
166.072
339.047
200.882
2.91203
30.4021
3.17129
21.9484
2.96894
36.5528
3.1515
0.0482933
0.272365
0.156693
0.366344
0.231861
1.50545
0.839615
0.13356
0.221701
0.870259
0.139651
0.122202
0.565927
0.670177
1.40299
3.26077
5.72227
0.295125
0.688824
1.78646
3.19492
0.427861
5.63228
4.50236
0.509971
0.516874
2.91603
2.73441
0.0602131
1.58783
0.747601
0.224921
0.148069
1.718
0.964798
0.00340718
0.154243
0.0311289
0.0392139
0.0190375
0.272931
0.0572976
230.426
265.819
122.537
447.998
353.606
472.619
253.477
163.561
86.8113
99.3305
186.457
171.672
166.858
78.0777
28.2905
19.4957
29.8573
48.8835
28.2344
51.1271
18.2451
1.49906
0.297017
0.51818
0.671336
0.741698
0.87259
0.342623
1.30907
0.769545
0.558347
0.569898
0.805934
1.48608
0.734897
8.66512
4.90684
3.32458
3.3282
5.88771
5.63866
4.57666
10.5119
9.2837
8.2104
9.19289
8.87613
10.6034
9.31419
10.4506
3.21589
10.4391
8.50242
7.0451
10.7765
9.56813
2.91671
0.0741782
0.616509
2.41944
1.17749
4.96741
0.350105
0.010507
0.196084
0.0359498
0.0396315
0.00823063
0.211727
0.0389014
243.428
504.908
339.916
772.553
596.083
800.491
673.934
144.292
48.717
86.7296
164.3
114.931
190.546
54.2691
63.0497
28.8607
33.9225
70.8563
62.407
62.3789
30.2932
8.38709
3.11599
9.52035
10.6132
4.73126
16.4595
5.06719
0.678303
0.49681
0.526701
1.2965
1.20812
0.820324
0.4169
12.1527
6.78476
4.68954
10.5044
15.8093
7.03457
5.72749
15.1438
10.8191
8.4157
13.5698
13.6304
11.7302
12.491
34.9438
15.7051
17.5116
27.501
26.8521
37.4408
17.4435
10.5815
4.07873
9.33688
13.92
9.58037
15.0608
5.52202
0.0917828
0.614131
0.123329
0.669032
0.122205
1.01472
0.199874
323.249
416.166
311.371
814.441
664.52
771.306
662.466
254.496
123.736
169.489
274.787
230.623
290.304
124.558
67.8247
36.1702
50.4539
86.9364
60.6658
97.0334
37.192
40.0001
18.0101
17.934
43.2035
41.8653
38.7647
16.7346
17.006
2.07296
14.7073
10.4702
3.50195
33.7096
9.60944
1.77042
1.9401