/*--------------------------------*- C++ -*----------------------------------*\
  =========                 |
  \\      /  F ield         | OpenFOAM: The Open Source CFD Toolbox
   \\    /   O peration     | Website:  https://openfoam.org
    \\  /    A nd           | Version:  10
     \\/     M anipulation  |
\*---------------------------------------------------------------------------*/
FoamFile
{
    format      ascii;
    class       volScalarField;
    location    "1.1";
    object      omega;
}
// * * * * * * * * * * * * * * * * * * * * * * * * * * * * * * * * * * * * * //

dimensions      [0 0 -1 0 0 0 0];

internalField   nonuniform List<scalar> 
12920
(
118.932
148.828
135.643
120.161
104.704
88.2628
71.8437
63.4704
60.6376
61.1375
61.6751
61.0633
59.0873
53.1193
38.911
27.9841
21.1249
14.4743
8.6273
4.16131
305.56
181.983
163.427
151.394
126.53
96.3063
72.039
55.9777
48.0503
45.3874
44.3741
43.7709
43.6584
40.1532
29.3484
19.7941
13.4313
8.46136
4.75482
2.05062
227.048
228.038
167.093
163.626
140.674
111.281
87.1305
63.9403
45.4504
35.0902
30.7382
27.9083
24.2414
18.8152
12.6881
7.95684
4.97892
2.76678
1.40227
0.543459
228.864
174.071
140.793
126.895
105.518
86.7406
72.1269
58.188
42.1029
28.6886
18.9616
13.3624
9.26958
6.06231
3.68211
2.16245
1.2931
0.681398
0.352721
0.185952
225.553
147.889
116.224
98.2825
85.744
59.4766
41.506
36.0627
25.313
15.9738
8.78908
4.98882
2.71026
1.53047
0.840778
0.486606
0.305547
0.199327
0.161958
0.151556
150.059
188.372
127.34
99.0715
101.275
65.0972
34.5663
18.8089
9.6775
6.11874
2.86963
1.44987
0.653883
0.35442
0.218798
0.173554
0.1578
0.151979
0.150597
0.150256
178.561
270.004
150.321
117.349
108.893
76.3339
48.9621
20.8631
5.40919
2.28444
0.953637
0.530813
0.342463
0.220859
0.17999
0.161567
0.154538
0.151723
0.150549
0.150055
142.881
185.381
166.318
155.909
130.227
98.5626
131.199
38.7248
2.79431
2.27766
7.13962
7.50133
2.25788
0.778563
0.364872
0.232825
0.182531
0.160654
0.151098
0.147244
517.62
334.522
205.362
158.171
126.273
156.163
198.992
98.8904
11.353
11.7892
32.9358
51.0593
43.7273
7.71225
1.71386
0.291233
0.169916
0.14466
0.139351
0.138791
378.491
292.627
201.853
155.446
132.836
196.447
149.848
108.936
44.5687
12.0184
42.6347
49.1785
70.2102
51.4572
6.16489
0.574126
0.224145
0.148296
0.135566
0.134937
391.217
307.7
204.528
155.392
129.145
187.501
233.139
125.43
80.4492
40.8128
23.067
52.9586
82.674
44.283
5.27352
0.487105
0.214622
0.148876
0.136055
0.135225
242.024
200.403
162.235
144.285
120.245
173.391
234.269
146.551
92.7234
63.9856
65.0193
63.0769
86.1601
28.2612
1.25057
0.231888
0.178459
0.155217
0.145531
0.14239
239.948
248.602
221.507
159.819
121.209
97.5334
142.447
111.38
95.5659
63.6846
46.9913
44.4972
21.4667
8.81912
2.59753
1.16785
0.497746
0.271422
0.177394
0.151738
78.1033
182.538
188.838
157.996
120.843
96.2244
78.7759
67.6046
58.3142
54.4186
51.4392
49.0218
43.9557
32.5277
18.5807
8.5293
3.50552
1.35012
0.514617
0.225331
116.887
166.923
154.72
118.627
95.664
83.2249
74.4888
65.5721
59.2643
53.4941
49.4618
43.5758
37.6196
27.9374
17.1477
9.05876
4.33785
1.89695
0.79187
0.325547
110.464
147.576
138.024
110.482
97.7163
91.3613
78.4245
60.2255
45.9654
32.3123
28.5644
25.6648
25.6359
23.5613
17.1809
11.4296
6.9802
3.71296
1.68219
0.654262
480.228
195.857
160.503
123.556
111.639
96.6852
79.5397
56.3365
36.7131
22.2253
16.554
15.3891
16.3142
16.7436
15.4631
10.8376
6.44791
3.18819
1.3255
0.488397
407.298
376.107
275.821
168.889
128.961
115.776
96.7822
79.6916
62.4187
44.9763
30.7427
21.0411
15.9046
12.2764
9.11563
5.49767
2.73365
1.10519
0.43486
0.203079
331.99
283.445
229.953
156.36
117.54
91.0182
69.3792
56.604
47.4437
35.3254
23.9068
14.5569
8.5558
4.70019
2.63822
1.2599
0.577228
0.258287
0.168966
0.15226
106.595
151.88
139.674
106.413
90.7743
77.4061
61.6065
45.6818
32.7566
21.8721
13.2747
7.0964
3.4819
1.58502
0.711386
0.32664
0.192122
0.157286
0.151262
0.150312
101.202
77.1031
68.1737
61.496
56.4056
50.5669
44.2611
39.5897
37.4103
35.7614
33.973
31.7482
29.7537
28.4707
26.0152
21.5541
16.2917
10.6059
5.66681
2.4636
386.09
218.304
98.4211
84.821
72.2581
55.2263
41.7675
34.3323
32.1012
33.0788
33.2726
32.6777
31.4248
29.8673
23.0752
15.5643
10.839
7.81781
4.99592
3.02969
402.626
194.892
101.501
86.1821
69.5198
58.8182
50.3084
40.8084
32.7708
28.2827
24.639
21.8016
18.1787
14.8336
10.9073
8.36404
6.5627
5.17374
4.278
4.19209
154.53
132.214
103.718
80.9941
62.4449
49.9245
44.312
40.8672
36.0017
27.4829
17.9873
12.0072
8.52093
6.82521
5.96605
5.50383
5.20796
4.97916
4.92904
5.06852
331.368
101.05
82.0672
62.3951
47.0772
38.2396
31.9705
29.582
23.4086
17.1313
11.7908
8.99593
7.3388
6.3659
5.85463
5.52017
5.33483
5.26535
5.27314
5.28939
170.391
131.978
84.312
74.3442
53.6319
35.7026
28.5899
20.4897
16.6747
13.3779
10.5928
8.03545
6.68796
5.95411
5.67367
5.57377
5.50549
5.43667
5.41774
5.35528
342.444
221.639
103.604
79.5641
64.1574
44.0165
37.9437
22.909
20.9771
14.1685
11.9126
9.83444
9.21979
8.0005
7.06662
6.35662
5.96924
5.65517
5.51181
5.37466
199.991
149.585
119.581
94.9441
83.2637
60.3507
55.9219
28.5931
26.4227
19.0282
14.1359
13.9198
14.1161
11.6381
8.74914
7.64991
6.72547
6.10017
5.74415
5.47153
323.236
182.601
138.826
111.478
89.2289
76.9202
58.5097
54.4581
41.4895
33.5305
30.7803
28.2367
18.6297
18.1228
7.07644
6.0997
5.62772
5.37896
5.26966
5.25538
729.035
332.998
166.964
149.994
106.574
102.042
78.4909
52.4388
47.7804
39.6539
41.9964
37.7524
43.1573
24.8434
15.066
6.83427
5.58923
5.24071
5.13942
5.16155
307.958
226.171
138.263
99.6544
78.6907
79.7562
73.4904
64.3997
62.1003
32.6962
31.6304
41.8748
32.5103
25.2445
15.5057
7.67342
5.7801
5.24924
5.11343
5.13767
204.339
227.124
151.529
99.0061
74.4379
72.7791
67.6352
51.1354
36.6836
32.4732
33.1495
51.1347
41.7892
18.8704
11.0244
7.34988
6.11857
5.58482
5.35881
5.29128
288.406
152.794
107.101
76.7816
62.2456
56.7299
60.7154
56.8598
51.7833
50.2433
42.8161
33.9963
21.7512
11.6366
8.3908
7.05043
6.28149
5.79035
5.55249
5.3771
180.407
151.063
124.97
84.5489
66.6148
59.8304
56.7339
54.2204
51.1072
49.12
47.8214
46.5411
43.1798
32.7996
17.3676
9.71486
6.8802
5.61601
5.16176
5.08398
146.126
124.807
93.5685
78.2656
62.9108
56.1413
55.2347
51.8509
50.8652
50.1496
49.6408
47.5377
40.1947
26.5938
17.9857
13.4556
9.39174
6.20287
4.94102
4.84615
144.84
112.361
82.4797
77.4665
61.372
56.1269
49.8599
41.1444
38.5015
31.1993
29.5621
25.4543
23.4629
21.7161
20.1875
17.2205
10.9652
5.93642
4.13349
4.21036
326.539
117.583
96.9189
83.5485
63.4725
64.3367
43.0815
33.6885
26.8804
22.1838
19.1553
17.7701
18.5463
19.5749
18.5234
13.546
7.31732
4.08778
3.65936
4.40354
236.29
225.292
161.758
97.8612
65.0127
66.1197
55.2515
54.1908
40.1073
33.9598
25.73
20.7623
15.7121
12.1318
8.46422
5.44675
4.26838
4.13967
4.53982
5.00974
366.248
166.688
124.724
81.466
58.0867
62.2335
55.3079
51.8986
38.2957
28.8226
17.4329
10.3939
7.08507
5.80756
5.36544
5.1894
5.16468
5.19079
5.20781
5.19415
99.0608
84.7719
79.6043
58.9517
47.283
39.7458
30.1549
20.6379
13.126
7.91328
4.4414
2.27146
1.08647
0.490733
0.220934
0.107675
0.0685124
0.0586727
0.056971
0.0570515
94.6556
82.3641
76.5336
67.6357
63.3768
56.411
48.7878
43.6948
40.9613
37.9368
34.5199
31.2727
27.972
25.5213
24.9586
24.1015
21.305
14.8261
7.58335
2.98078
139.091
132.464
85.2072
65.1335
57.5514
47.6266
41.344
38.6694
36.5876
34.354
31.7792
27.6147
21.6021
17.677
15.6868
14.098
11.9458
7.70106
4.16885
3.18885
177.899
113.317
88.8615
70.825
58.1936
50.4806
43.951
38.4436
32.5773
27.1768
21.6086
18.6072
16.5564
13.6348
10.4775
8.31197
6.66839
5.26947
4.59131
4.76942
138.099
123.933
94.2217
69.9961
53.9112
46.3866
41.5524
39.7289
35.5939
27.4382
17.8803
12.5515
9.85738
8.36912
7.15424
6.28592
5.76728
5.42988
5.37906
5.35229
231.305
118.834
83.0905
59.1018
46.5773
37.6049
32.7762
29.1564
22.9901
17.7131
13.5553
10.9336
8.93526
7.51019
6.58588
5.99671
5.69531
5.50006
5.45563
5.37416
144.664
123.941
88.9323
63.6548
51.4223
33.7044
31.3457
26.6128
22.4686
17.9819
13.5539
10.2606
8.38457
7.12028
6.41027
5.98343
5.73835
5.56203
5.49514
5.3846
191.029
145.768
98.0778
69.8481
57.9526
39.4875
37.8907
32.866
28.4454
17.3669
12.5368
10.3914
9.75209
8.48448
7.41395
6.55461
6.07009
5.71733
5.5581
5.39739
265.278
170.976
132.94
89.9739
69.272
50.7346
50.6497
44.252
35.734
20.7995
18.0549
12.8967
12.5385
11.8424
9.52109
8.17195
7.04749
6.27484
5.85493
5.52267
274.303
136.936
104.065
82.5108
63.5771
52.4846
47.1021
41.6868
43.9829
38.8638
32.7883
26.2764
21.2425
15.8148
7.62868
7.3288
7.09955
6.67754
6.09528
5.55615
315.921
160.159
119.084
99.2521
68.5688
59.6762
44.6857
61.2776
58.9898
37.9428
46.6137
40.7669
28.8453
25.6402
12.1397
7.40026
6.87092
6.46207
5.84417
5.33253
370.419
125.198
96.554
75.0904
57.07
52.0258
49.2887
50.7321
51.1313
37.3247
48.1311
58.4386
38.2607
21.8958
13.7704
8.61732
7.47168
6.84654
6.1616
5.52178
239.478
152.348
100.494
71.2411
55.3733
51.6798
47.0439
39.6262
33.5935
34.42
38.2855
34.5865
38.6564
17.953
11.7575
8.43265
7.54487
6.81889
6.19629
5.60828
344.728
161.143
100.279
67.4611
53.8259
48.8665
47.9064
46.394
41.9321
39.3439
37.6248
38.1654
22.0935
11.2529
8.53429
7.30215
6.48228
5.93827
5.65844
5.43507
225.474
157.848
109.272
73.9682
56.3384
51.2123
47.7368
46.8114
43.8558
44.1014
44.0847
43.6102
39.2727
26.6432
14.2435
9.2559
7.19333
6.15586
5.69328
5.41131
221.871
132.007
79.2437
63.4815
54.8369
49.2107
48.3543
47.1293
44.7373
43.0157
41.3189
38.1873
30.746
20.7631
15.4559
12.3799
9.64709
7.36316
6.16587
5.52832
155.034
103.965
73.7289
61.8846
51.4517
43.2508
44.1181
39.3737
38.2201
32.3682
28.9342
23.2738
19.5938
16.7721
16.02
14.8212
12.1328
8.66225
6.64873
5.6311
487.645
122.025
81.1615
67.2252
46.5785
35.5131
34.508
29.0258
29.3006
24.5426
20.0428
14.5342
12.4157
11.7901
11.6055
9.47626
7.15153
5.88783
5.47457
5.31886
223.156
181.035
113.423
78.2744
53.7494
42.0101
32.3249
25.6256
20.4198
16.5545
13.7679
11.9492
10.2655
8.47354
6.88442
5.95567
5.58776
5.43092
5.36151
5.30179
228.232
163.023
112.07
77.7558
50.7449
51.374
40.5846
30.2676
21.0914
12.901
9.24617
7.30731
6.93202
6.50235
6.17173
5.80041
5.57419
5.38747
5.29437
5.21902
124.466
109.269
87.1631
62.1241
46.6067
35.7519
27.3428
18.6767
12.0653
7.13484
4.10577
2.18977
1.07229
0.483058
0.210635
0.101123
0.0658069
0.0580351
0.0568548
0.0570206
124.729
97.127
73
66.4344
63.0847
55.8813
49.0602
45.7088
43.912
41.2891
37.8051
33.7967
29.0653
25.2631
24.0781
23.9164
22.8591
17.6349
9.54306
3.8543
183.262
104.854
81.2426
61.677
59.7525
52.0367
51.5794
50.5856
50.6895
49.6586
47.93
45.3024
40.2081
30.3179
25.3828
25.2928
25.0504
19.9986
10.902
6.7793
283.154
116.782
88.5151
67.8293
60.8059
52.4671
49.7187
46.549
45.6084
42.4878
38.9109
34.1133
31.0026
27.0072
23.7456
22.5414
20.7203
15.6491
9.93298
7.60907
147.377
132.088
97.0643
69.8171
59.8949
51.1715
48.371
45.6666
40.4055
33.5738
26.6748
21.1266
17.3992
15.2265
14.288
13.6185
11.5948
9.0872
7.69759
6.99271
313.41
149.461
84.5871
60.9307
53.0389
41.7741
40.3126
33.7966
30.7462
26.8267
21.9042
16.644
12.9929
11.1404
10.0913
9.33197
8.36291
7.37224
6.93858
6.75157
276.327
138.079
91.3974
63.5391
56.5422
40.0791
43.6107
39.2943
36.6298
31.1133
22.1574
14.9487
10.6237
8.58013
7.55279
7.06817
6.72812
6.52011
6.44724
6.46227
182.397
137.063
99.9653
69.6196
60.8813
43.5827
46.0121
41.3256
38.2722
30.8395
17.1687
11.9055
11.4844
10.0755
9.17427
7.8269
7.14796
6.74031
6.58868
6.52578
319.509
214.789
133.858
86.2939
68.4523
52.7478
48.0935
47.5558
43.1094
25.6579
18.1482
15.0239
14.1908
12.7475
22.3201
20.3614
17.5299
14.7518
12.3003
9.50867
255.669
129.92
100.586
71.4342
56.5571
49.7499
46.8702
48.3551
48.7958
44.9651
41.4165
18.0147
11.1467
10.1941
17.802
27.6069
26.0142
24.5192
21.9798
16.4872
236.337
114.788
95.9153
71.9611
56.2563
45.6352
41.9423
54.3547
47.3869
55.8407
56.7068
43.319
38.0816
14.2457
22.832
29.5351
27.1151
25.5662
23.0234
17.404
257.997
116.474
91.7713
65.4473
53.103
44.1616
39.0486
41.9807
41.7398
30.953
54.2941
47.3422
40.8757
43.3597
31.1351
29.7607
27.4231
25.8687
23.4094
17.7858
429.156
161.606
89.5408
63.4138
54.7282
48.9992
45.8919
44.4135
40.9293
47.703
49.973
40.6599
39.3946
21.2756
24.5066
28.6219
26.5464
24.7368
22.3657
17.1081
191.051
157.297
105.901
67.8993
57.1176
49.9554
49.3938
49.6883
45.5724
45.2163
43.6112
38.7573
17.2811
11.9182
18.3773
16.7143
15.0079
12.8776
11.2727
9.04969
216.073
149.657
102.531
69.859
58.9522
51.3376
51.0481
48.544
45.5305
42.9987
36.6835
31.4985
23.2692
15.0576
10.5655
8.54434
7.73654
7.2917
7.10558
6.87733
275.291
113.479
75.3819
62.4989
57.3112
48.1433
50.1572
46.6205
43.1026
36.4286
29.7194
22.4846
17.5528
14.7062
12.1873
10.3425
8.98124
8.03477
7.50502
7.03305
201.711
99.4442
67.9569
58.9816
53.1756
43.7804
48.5656
43.3467
43.0692
36.5075
31.5833
26.3192
20.8936
16.3426
12.9092
10.9363
10.169
8.92552
8.01498
7.27049
245.331
108.115
73.8743
60.2649
44.5888
38.2722
44.6397
36.9487
40.0908
35.334
33.2438
24.9739
16.9605
10.8286
8.87397
8.17036
7.71994
7.33829
7.17283
6.95468
155.906
138.401
96.7025
67.3001
49.7434
33.6902
31.4978
23.5713
21.4548
17.9425
17.7555
14.9008
11.5189
9.35255
8.33699
7.63416
7.30055
7.07707
7.01541
6.91859
411.164
179.918
98.5525
67.0816
41.2793
34.7006
34.5246
25.6715
14.8638
10.2064
8.50087
8.65668
9.82077
10.0513
9.79327
8.507
7.60752
7.10362
6.89976
6.79918
121.282
116.296
88.0988
55.9887
39.0223
28.6576
22.7727
16.6269
11.4042
7.2345
4.32067
2.29755
1.09068
0.473711
0.215105
0.124373
0.0927444
0.0739721
0.0658417
0.0603327
193.284
146.769
76.9581
62.1148
58.2081
51.4745
47.8625
46.6773
46.4731
45.5745
43.7145
39.459
34.48
29.9505
27.8511
25.8298
22.9656
17.1445
10.0805
4.39748
209.313
124.508
86.286
81.2119
72.5749
62.5609
66.184
62.1249
65.8508
65.4509
68.0081
67.6047
67.4853
62.7613
59.95
59.9179
57.5578
52.8175
51.7858
55.8183
160.254
172.675
94.2247
81.9463
68.521
61.2028
61.5074
58.2652
61.7355
61.3704
63.6794
62.9025
62.9246
60.8639
60.4998
60.3087
61.2065
61.2603
61.4673
61.8148
173.558
138.142
105.537
74.1186
69.693
58.4675
60.2143
54.9508
55.6699
53.1337
53.9334
52.8215
52.9829
51.3613
50.7987
52.5051
55.8096
57.2577
58.504
59.6967
210.034
181.651
97.734
77.8183
62.5566
59.4498
53.7261
49.0663
51.5431
49.7302
49.992
48.5596
49.531
50.3801
52.0348
53.2433
55.3506
56.6664
57.8443
59.0586
279.133
135.491
99.0952
69.1474
66.4309
57.6526
57.299
52.0562
53.0872
52.0508
48.3279
46.6201
46.1294
47.195
48.6335
51.0262
52.9512
54.5071
55.5076
57.0369
194.688
151.276
102.137
80.8739
69.2784
60.9187
62.4316
53.7645
50.6947
46.9263
40.7458
39.2267
41.4557
42.3889
46.0478
47.6087
51.1805
53.1384
54.4831
56.3636
327.955
174.911
127.658
79.849
75.2265
62.3455
62.0997
59.1674
56.0369
45.3058
42.5361
42.5924
51.8838
53.9653
51.091
49.2807
49.7129
51.5434
52.8614
55.0684
344.147
145.597
100.878
83.3497
65.4027
62.3017
66.196
67.0982
68.9521
58.0511
57.9888
60.757
64.3932
66.2812
63.0848
50.6649
48.8185
49.1917
49.9761
52.1148
206.4
141.012
89.1503
80.228
64.219
59.2353
68.6802
76.6183
78.3642
74.5657
62.8765
60.1914
65.1194
66.8171
63.2999
50.9523
48.8134
49.0823
49.6611
51.7574
193.149
156.028
96.6744
85.1345
65.3813
60.0062
65.07
76.9126
82.5142
80.0481
69.9544
74.7378
71.588
67.3768
63.1505
50.8254
48.7994
49.057
49.6608
51.6994
275.599
152.221
95.3248
73.4039
65.7699
58.233
61.0005
67.8776
72.1115
72.3751
73.8473
77.7006
76.6502
67.7935
62.9068
50.7853
49.1837
49.5779
50.3682
52.4101
275.147
141.771
109.739
82.9213
67.6294
60.6001
62.0379
61.6773
65.0525
65.4198
64.202
63.878
65.5465
64.8116
55.027
52.6092
52.8366
53.7659
54.8497
56.0968
215.225
140.342
104.626
76.7858
69.5202
58.4064
67.0281
52.7807
60.5405
49.4134
52.2967
46.0953
47.7096
48.0137
52.5055
54.3636
55.1648
55.4683
56.328
57.3447
326.23
140.306
88.9275
102.109
66.9241
65.0176
67.2074
55.2946
61.1455
52.0516
53.9187
50.2785
52.2377
53.8422
55.3751
54.8204
54.2578
54.3227
55.6356
57.2
410.556
132.174
82.868
97.092
63.0529
64.3864
64.0049
54.4384
59.6363
52.3259
55.6804
52.4075
54.7834
54.55
55.7788
55.0599
53.893
53.5729
55.1134
57.6057
354.28
146.387
87.8978
100.864
61.6056
67.3029
54.059
49.6361
52.167
47.7304
51.4851
49.1861
51.0682
50.2993
50.2825
49.6881
50.6653
52.863
55.789
57.6219
123.64
130.683
95.225
76.7642
61.3122
54.8923
46.3499
41.4321
40.4443
38.6786
44.5678
45.9529
49.9075
49.7551
51.1252
51.8715
54.2215
55.5465
57.2433
58.3076
277.118
170.412
93.8846
90.3078
57.6049
54.0468
40.9707
32.3736
26.3376
16.4699
22.2576
27.8954
40.2335
44.0167
50.5565
52.5652
55.4244
56.1225
57.2185
57.9891
114.042
104.826
81.9119
46.8928
30.691
21.7441
16.7093
12.5868
9.2251
6.04539
3.49657
1.74736
0.790833
0.378012
0.311795
0.342596
0.564662
0.644525
0.674224
0.518557
47.5399
34.2864
43.5326
50.2462
52.7041
32.1037
38.2947
43.5294
43.9388
66.3485
53.2292
42.7871
47.3294
52.2719
45.495
37.3063
38.6545
30.1035
36.0949
40.39
47.4056
72.8721
43.6047
36.3427
47.6713
53.9448
47.0951
39.2198
134.023
127.962
120.741
67.5458
58.1065
60.1565
51.7374
24.7388
106.329
41.5429
57.5189
22.9462
53.8887
42.9579
10.9428
27.4163
11.9943
32.946
38.6331
34.2223
43.0257
28.5173
12.4897
27.2528
29.3217
19.8025
40.4979
38.9856
49.0404
42.5274
44.7015
22.9392
29.4048
38.945
36.7423
52.8329
48.9621
63.9908
23.5194
20.735
35.7706
34.5121
12.8502
64.9924
59.3025
21.4008
19.4137
34.0953
23.6827
1.59622
41.11
9.54612
19.994
8.24358
22.6179
19.4639
116.282
233.745
131.182
90.3437
58.8891
93.1605
75.0109
60.845
110.835
86.8483
54.677
57.5653
69.8587
64.6909
13.7742
82.0737
34.9118
48.9415
41.1038
64.6225
40.208
29.0525
22.8991
20.6409
39.438
40.3106
30.5711
27.1349
42.6404
33.8511
36.9511
38.0645
38.3161
32.6174
41.885
68.586
54.3248
80.1659
37.7498
35.935
42.0393
41.4673
62.7886
80.7507
60.8311
35.9319
24.2588
39.1471
28.4378
12.8232
52.6985
19.6532
23.1008
20.1774
25.7212
19.7446
147.232
233.789
156.248
85.6392
74.2766
80.93
63.8325
84.2813
136.408
94.7598
72.1791
56.2929
58.9625
44.7815
60.2043
80.7849
67.7082
56.3244
51.9104
41.2888
35.478
18.1915
67.7367
55.0719
35.853
21.4095
35.7124
30.9051
32.3022
54.1282
66.091
23.7328
37.6272
29.1419
29.4281
81.5719
64.6543
82.8703
38.026
46.7652
40.6061
53.1722
54.7151
83.208
46.0935
41.8739
29.1363
41.5625
28.6485
17.7917
30.6629
5.77312
25.8575
18.8815
19.1633
14.3589
163.93
246.622
175.355
79.2608
62.0508
80.1108
65.6461
113.665
169.883
147.061
56.8043
43.6318
63.0287
57.3069
65.8922
143.661
126.051
39.9498
34.0414
55.9297
48.1733
60.5729
121.023
68.2404
33.6697
33.7182
49.2828
73.0713
70.0724
61.8673
62.1758
35.1448
49.3017
76.072
43.9177
85.5877
62.3395
55.5493
60.4071
56.3817
38.421
34.8015
44.7218
51.4138
21.815
44.462
30.2144
34.4027
22.8937
4.49848
12.3256
1.85001
19.843
9.48249
13.6722
6.1009
61.9031
56.952
50.825
49.5852
46.6703
45.3597
42.9581
29.2649
55.4546
42.7714
36.3237
41.6114
39.4767
46.0314
38.6126
40.6484
41.545
42.9243
42.6559
52.4426
40.9954
30.4015
40.7007
42.1242
38.7832
33.5842
39.291
44.8737
31.7821
41.751
34.9617
31.6477
28.2328
44.2838
39.2666
20.5178
34.4979
37.9931
26.4119
23.1322
36.8186
25.3717
17.1498
37.6595
27.3538
22.812
22.4049
25.6661
30.0648
8.03206
22.5152
19.3581
19.5984
7.87211
28.9182
18.3091
54.6206
78.8579
68.6039
51.6933
51.8204
56.5817
54.5469
55.6559
65.1039
70.7952
51.9501
43.565
54.4074
55.2796
40.7795
67.7818
36.5022
45.7963
39.7631
41.059
40.784
41.9048
31.7727
33.5189
37.9491
45.1014
38.2884
39.2725
37.4394
35.7418
39.5749
45.5394
43.2567
42.1167
57.3931
42.7548
39.3026
33.6667
41.1719
31.5639
53.6399
46.6832
29.5613
29.3454
25.7891
29.2053
29.7972
44.1491
30.3435
20.3603
24.8725
19.7271
28.6461
19.1252
26.6859
17.0274
66.9777
69.4926
57.3994
54.7775
54.1909
50.7253
45.195
59.1135
53.4691
41.0222
53.5397
55.7415
43.6525
37.2598
44.1455
37.6563
34.8423
54.02
35.598
36.3441
40.9757
27.4512
37.9971
30.8363
36.4471
38.2785
39.0525
29.9587
42.8783
28.0191
28.5313
41.5483
57.6297
34.735
31.7589
35.3379
32.8598
41.9757
52.8458
43.1833
29.7102
32.6894
27.7208
37.8971
27.6781
40.1237
27.169
35.7838
24.0897
18.4503
18.6687
13.8065
24.3389
16.3765
18.283
13.6345
55.4597
68.8816
59.6999
50.4368
43.1801
53.4142
47.3454
40.0282
57.2796
52.3539
41.3047
35.5776
46.3498
43.2848
31.9636
51.1853
44.4693
33.8396
33.9623
42.1956
36.9916
32.8363
44.9854
55.7527
34.8951
30.6115
37.3831
42.0083
42.6858
64.0285
46.6989
31.737
34.3979
42.8838
46.8933
49.3725
37.9941
36.8198
37.7843
38.5365
45.787
40.2103
29.3809
36.7508
23.0431
38.826
26.6842
40.0072
20.126
11.4396
15.3004
8.24524
18.3456
13.0839
13.6202
8.7713
48.5348
42.0949
50.1483
45.2199
48.6495
39.8632
56.2604
45.7282
44.3114
57.9344
49.3755
45.478
59.0002
54.0919
43.1857
61.7262
40.187
45.5896
47.3352
48.3069
49.2654
35.9511
39.5678
47.1733
43.1516
41.5479
50.4996
52.2307
28.3924
45.9004
39.7849
40.1565
29.4842
51.0367
41.2354
21.8426
37.1985
25.0259
22.2871
12.651
39.8647
32.9431
20.7563
23.108
28.6488
11.9292
10.5964
25.1273
12.6278
7.68949
27.6768
15.4316
10.0056
8.19568
12.1504
9.48391
56.3691
49.868
50.2443
39.4415
53.4926
37.4971
42.0813
57.7901
50.9369
54.4643
55.451
52.1896
45.0092
45.1779
38.4183
47.0825
43.3889
46.3084
47.6379
41.016
30.4678
39.6056
39.561
36.4778
40.124
37.4009
42.6194
37.2421
49.6998
44.7256
45.4721
47.3173
46.5692
46.9653
46.2689
31.2512
58.2681
42.5848
41.0495
37.4753
47.6902
34.3273
25.0855
37.965
27.0942
34.9948
13.6618
34.2875
33.4559
16.5045
24.0539
16.453
11.1827
9.06595
30.0101
10.2588
50.9152
46.8822
42.4593
37.7204
39.7959
41.7636
39.4531
52.8368
41.2541
36.6882
42.0379
44.9984
38.2825
34.9714
40.4685
36.5903
40.081
43.7672
29.6112
35.1688
38.4376
31.9166
38.3129
34.8785
33.6912
33.6751
24.3856
35.6968
45.9089
61.6734
46.0533
51.8125
45.4523
91.6014
44.1535
41.8175
31.3859
32.5647
47.3689
33.5148
36.6461
34.3518
23.2948
35.7749
23.3499
32.8819
33.9934
34.8139
25.4937
15.685
17.8302
13.6932
31.6298
15.144
18.4604
14.9373
41.0861
50.878
45.7653
44.1294
41.2379
49.5119
46.3456
34.8687
44.9271
41.7885
40.4876
36.2269
45.7673
42.2383
34.6666
40.6065
35.3842
35.7086
38.4444
41.1519
38.4713
36.7528
35.6275
39.419
41.2213
46.1018
38.4653
38.5595
33.2393
40.4113
42.8635
45.2355
38.0382
38.5005
40.1838
36.9585
42.7857
41.2685
35.8847
35.072
42.3002
46.372
25.5374
41.3497
19.3063
36.7853
23.8484
43.5652
15.4085
12.9978
13.3381
8.82229
16.7992
14.2745
12.1923
9.27681
48.4492
42.7855
53.876
61.0553
61.9249
62.3487
69.0689
47.8256
55.7558
52.9006
62.1648
64.4347
70.2541
72.8316
49.7437
50.7261
55.6554
64.7366
59.3262
73.8152
70.0745
42.9164
55.5153
55.028
54.0676
51.9262
68.4236
62.3524
25.1209
52.9428
41.9439
51.8779
54.1709
58.3592
52.5676
11.4799
41.062
31.85
53.7088
58.0752
53.3404
58.4344
10.1648
24.3773
13.9
57.6797
61.5905
59.6413
61.6156
8.63939
12.842
9.78775
60.9036
62.2418
62.1261
63.0593
52.6987
39.025
44.1863
62.3417
70.523
59.8089
69.1834
51.0186
46.2208
44.29
71.5982
73.7216
70.3083
75.7434
55.5394
39.6568
38.3109
74.7851
72.2691
78.1676
76.5011
56.6635
40.1565
45.3226
71.5385
65.8463
74.0984
68.4645
43.6629
56.6947
51.7947
60.4155
52.701
64.2919
64.6464
42.2267
48.0955
41.7111
53.4114
58.2887
65.8853
67.1884
17.8561
44.4212
43.8944
59.6465
61.6962
66.038
62.8713
10.1011
40.907
18.4561
62.1667
63.3434
62.7723
62.9939
40.6654
43.536
42.8522
58.6002
67.1372
56.184
62.0332
43.2155
41.8531
37.8523
68.798
73.9671
63.794
68.3546
31.2888
37.9185
41.8167
76.0845
76.5172
69.1432
68.3745
47.108
45.6412
51.6655
73.8557
66.4266
67.5284
69.4495
52.0385
51.3681
42.7258
65.611
69.003
69.7432
69.3107
37.8625
40.2353
37.0281
69.3621
71.0089
70.3314
72.6794
44.9576
38.2383
36.8677
69.8338
64.1619
73.1474
65.3714
25.8018
29.0889
21.9141
63.7365
63.4198
64.1196
63.4667
44.7896
50.7808
48.7826
56.8944
60.9674
59.0049
61.3823
41.1159
48.2612
45.1888
62.1558
65.9436
60.9937
61.271
45.2255
44.5253
44.0903
67.1231
68.0416
61.9558
65.6649
50.9218
44.3106
43.5077
68.0703
69.1614
65.7326
64.8468
42.4707
42.6092
43.9903
68.855
70.2181
64.9126
68.0132
38.1424
47.1001
46.4082
71.06
72.6167
65.4996
64.0393
30.0669
42.1599
14.9216
73.2292
66.3979
64.627
67.718
15.1059
12.224
9.29643
64.3546
62.7599
63.9177
61.914
67.0239
68.6523
74.5905
89.4566
87.5308
96.3945
93.276
68.7971
75.341
77.0517
88.0765
88.3928
93.4545
93.396
62.227
77.257
72.5495
90.4221
94.1875
93.8337
93.8392
57.269
70.9457
64.8538
96.7921
101.725
94.3534
104.815
60.5527
61.6338
59.5366
102.47
103.897
107.455
110.794
64.0305
60.6239
64.4245
101.916
99.4716
108.573
100.902
66.2824
65.1119
66.4748
98.0932
97.9517
99.4003
97.6043
66.2528
66.9462
66.4042
96.3679
90.509
96.9452
91.0292
75.9058
66.301
75.9786
95.2478
94.1818
98.9036
96.8223
78.1797
77.4612
81.9837
94.4534
94.0269
97.6353
96.2212
75.2352
82.6281
81.5631
94.5327
95.115
96.8632
100.669
67.7388
80.5846
71.3159
96.2884
106.242
102.07
103.667
59.1809
67.6085
68.2809
109.23
113.928
107.45
120.688
64.3669
69.6275
69.8443
111.784
101.714
119.234
103.14
66.3899
68.7715
66.8707
99.2806
96.8574
98.55
94.5272
66.4215
66.9047
65.964
96.2943
90.0446
94.3127
89.2358
74.8021
60.9368
68.2014
102.883
97.2761
91.3447
91.3087
81.7818
70.1744
74.0425
98.0266
96.2867
92.8976
92.1798
81.8131
74.3102
72.9963
96.7939
100.127
92.1529
92.5076
70.7428
72.3028
73.7057
100.918
101.716
92.6652
94.7963
74.0361
74.3122
77.0416
105.362
120.07
98.0175
105.25
73.534
78.1186
77.2414
118.894
102.259
104.002
95.9226
67.5645
75.6903
68.2703
97.4672
93.544
93.8066
92.3699
66.3036
67.5845
66.2583
93.4551
88.9932
92.7498
88.6929
66.481
62.3592
65.3296
81.7098
87.7513
78.2192
84.537
71.4424
64.8741
65.9011
89.5154
89.8587
83.5499
82.7596
72.3375
66.9908
70.5136
89.8212
90.441
83.7652
87.0543
73.5804
70.3122
69.8173
90.7245
93.4317
87.1666
87.439
76.9574
70.5951
73.5358
96.128
99.534
89.9583
94.7991
77.6519
71.8204
73.2248
98.8008
93.8867
95.2657
96.5042
68.9211
73.8009
71.9944
92.777
92.5729
95.1644
95.7229
65.9268
70.206
67.3761
93.1653
89.3409
95.5432
89.7918
43.385
43.4186
45.3665
48.7834
40.0823
46.6181
46.9888
34.0861
35.0107
34.6311
30.1243
36.0501
32.0801
34.8987
39.1458
42.9378
40.5395
48.5102
37.5623
44.7496
53.1204
43.4522
44.7449
51.3591
47.6704
46.7803
41.3591
48.0812
46.9106
49.963
53.1434
49.9157
49.7814
47.9852
50.0603
35.4649
30.178
41.589
34.5448
33.141
38.1553
41.4489
39.9998
48.216
42.6441
37.3038
42.0175
52.9206
42.4782
50.7497
44.5167
49.3525
43.179
49.8647
45.5864
48.7469
60.1356
43.8562
60.8584
52.7806
52.6027
45.3478
89.4646
63.026
57.4069
68.8063
67.4498
60.3199
57.4869
78.0116
53.0321
49.5641
51.6447
53.7477
49.6775
48.7912
54.7314
50.8777
42.7741
46.1787
45.9744
46.2253
46.9838
49.443
63.4353
74.5828
50.4753
58.3036
47.58
126.366
55.8636
63.5375
62.5542
50.1167
56.9039
54.601
97.7389
52.804
33.4003
41.4084
41.1441
28.4685
34.5237
25.4122
39.8036
33.9357
36.1437
33.0074
36.46
32.1278
36.3935
35.3774
38.4427
38.7247
32.1046
45.5397
31.2412
46.8556
40.1436
34.2527
32.5938
31.7606
35.3244
22.4415
35.9434
36.3589
38.1788
39.7641
33.2319
44.0956
25.6854
41.8561
38.205
39.6308
38.1829
39.1363
43.586
37.9984
40.8475
40.3261
43.9063
45.0951
47.6927
46.0924
45.3286
44.3681
43.3843
44.8489
80.2781
41.6229
78.5477
44.0016
104.433
42.878
44.3138
45.7332
42.2121
44.4693
44.2003
45.7811
42.2894
41.7075
39.9708
40.1823
37.7653
41.3386
40.0328
40.4259
48.0287
87.2003
57.0184
49.9357
125.805
46.9832
50.2517
46.5924
75.2779
58.5881
44.4561
120.582
43.5951
48.6026
45.4562
44.6213
49.225
45.4587
46.0077
43.08
48.4572
43.3135
38.1015
41.5141
41.9143
40.3728
40.5828
45.7197
83.2049
129.937
93.0683
68.3114
67.9777
74.6673
67.5994
15.3008
49.2794
16.0214
37.2132
18.6113
47.9041
20.2211
1.94756
4.6716
3.51145
16.7067
9.66631
22.5981
18.4728
3.19461
4.14523
8.20872
5.48835
5.30057
14.4857
14.8015
10.4645
15.971
21.2367
7.47844
11.4538
19.2433
22.2343
5.76478
21.0708
18.8105
12.602
14.1757
19.7072
19.6551
2.15298
11.1538
7.62779
12.9938
12.8175
19.693
18.6281
0.515308
3.46882
1.5585
9.96962
9.6038
13.2123
8.8667
135.285
145.534
98.7798
105.203
81.55
110.619
78.4722
81.477
166.473
178.09
117.409
87.4984
113.931
157.645
56.4808
78.9376
97.5621
60.9769
56.2411
60.6324
76.3649
22.967
9.66446
12.9151
13.9557
15.1058
16.0148
10.3573
23.9502
15.4624
13.2344
14.6944
19.6887
24.71
15.1796
44.4637
39.4012
32.2991
39.9962
45.3185
41.218
37.9252
48.7067
54.3067
51.0838
49.7188
47.4969
49.9527
54.4203
47.6945
31.7178
57.5608
45.2992
44.3089
46.7955
55.0137
40.3673
4.78691
13.9426
43.4631
34.6723
42.4225
10.4634
0.90991
3.92096
1.67946
6.47979
5.58468
10.5911
8.15926
138.643
200.199
164.285
133.401
120.63
128.62
114.214
78.9866
124.268
166.172
93.0957
63.6788
115.182
131.341
81.1775
95.9798
103.706
79.0035
85.1202
69.3277
98.1012
40.412
31.6956
55.1195
44.1588
31.638
53.3106
40.2358
22.4737
12.4904
12.9306
26.0406
26.3031
21.1911
11.4647
42.864
46.2255
38.4681
39.3724
42.4263
37.6646
42.5189
71.2249
58.5936
51.6297
48.8846
56.3521
56.4869
62.9627
77.4138
70.5944
74.5735
73.7706
70.8347
86.3096
74.4255
43.1575
35.8552
54.4171
46.1003
43.5839
43.6803
41.7965
2.68372
6.95102
3.11393
14.3467
9.68668
16.8836
12.2625
160.439
182.246
157.525
115.346
97.9656
112.377
93.2844
127.779
198.741
232.578
150.444
133.692
146.933
199.334
96.0188
107.337
126.725
107.786
93.7509
109.01
108.776
52.0999
75.5131
75.4098
52.3804
48.406
56.6317
72.8364
29.2781
25.6708
68.2858
28.1028
23.102
39.1111
55.2068
25.5416
24.7121
25.2019
28.6651
32.6593
25.0271
25.4274
79.2768
65.6118
55.3968
52.3647
79.6747
51.1561
65.1767
51.8965
79.3118
83.2006
70.9648
56.1625
63.3168
79.7768
21.1361
35.7036
38.6944
30.9192
29.8155
26.9843
27.5704
2.53952
2.22896
1.24964
16.8903
13.8286
13.9219
13.4139
151.99
170.844
150.33
106.604
90.5289
104.605
89.1338
121.928
206.165
234.572
139.298
120.787
140.428
206.762
81.8582
136.291
155.162
88.0819
81.0584
87.8592
144.322
58.4391
77.4622
115.278
61.0432
57.9613
63.5911
93.257
51.3051
61.8826
69.4688
48.474
41.7426
51.9762
69.4092
74.1305
71.5395
80.6766
49.3512
54.8582
76.0307
77.8537
53.7221
65.9375
54.9011
72.7468
69.1506
57.0717
63.7702
50.3537
80.6274
89.3363
57.4061
52.4129
52.3905
83.7226
14.8084
16.809
24.2148
27.7468
16.1979
27.204
13.0319
0.738785
1.17168
0.599456
6.72031
9.59314
4.30212
5.20767
123.697
144.703
117.358
87.1656
77.3196
83.0139
75.1258
102.506
105.987
96.1562
72.4353
68.6903
74.0756
69.7908
85.6795
85.1215
73.5251
64.507
62.2347