/*--------------------------------*- C++ -*----------------------------------*\
  =========                 |
  \\      /  F ield         | OpenFOAM: The Open Source CFD Toolbox
   \\    /   O peration     | Website:  https://openfoam.org
    \\  /    A nd           | Version:  10
     \\/     M anipulation  |
\*---------------------------------------------------------------------------*/
FoamFile
{
    format      ascii;
    class       volScalarField;
    location    "1.1";
    object      omega_0;
}
// * * * * * * * * * * * * * * * * * * * * * * * * * * * * * * * * * * * * * //

dimensions      [0 0 -1 0 0 0 0];

internalField   nonuniform List<scalar> 
12920
(
124.881
149.661
136.024
120.46
104.886
88.3457
71.854
63.4695
60.6635
61.1742
61.7152
61.0964
59.105
53.0225
38.7781
27.888
21.0302
14.385
8.56732
4.12804
297.525
180.969
163.334
151.802
126.683
96.3293
71.9903
55.9292
48.0379
45.3942
44.3893
43.8024
43.66
40.0566
29.2071
19.6988
13.3545
8.40122
4.71427
2.02955
230.468
225.872
166.985
163.917
141.114
111.438
87.2016
63.9153
45.3987
35.0537
30.7079
27.8654
24.177
18.7337
12.6198
7.91051
4.94279
2.74148
1.38733
0.538263
220.937
171.328
140.511
126.811
105.613
86.8045
72.207
58.1671
42.0542
28.6317
18.9205
13.3223
9.23496
6.03206
3.66026
2.14748
1.2814
0.674441
0.349305
0.185326
222.72
148.317
116.364
98.4453
85.7322
59.6211
41.6183
36.0702
25.3106
15.9421
8.77395
4.97243
2.70131
1.52251
0.835889
0.483282
0.303221
0.198377
0.161675
0.151522
146.295
188.299
127.398
98.898
101.119
65.1153
34.5357
18.8102
9.69078
6.1012
2.86884
1.44513
0.652949
0.353209
0.218288
0.173266
0.157657
0.151938
0.15058
0.150246
181.474
270.838
150.307
117.512
108.92
76.4684
48.9655
20.948
5.44901
2.28463
0.947062
0.527212
0.33982
0.220733
0.179943
0.161566
0.154534
0.151716
0.150541
0.150046
142.516
184.257
166.207
156.247
130.446
98.5318
131.101
39.0366
2.8184
2.25151
6.99812
7.45501
2.22956
0.777237
0.364838
0.232874
0.182562
0.160662
0.151095
0.147235
517.586
332.511
204.674
158.344
126.555
156.934
199.627
99.3242
11.412
11.6703
32.8074
51.0605
43.6276
7.65404
1.71051
0.290786
0.169912
0.144656
0.139341
0.138788
373.053
287.683
200.767
154.697
132.675
196.577
150.348
109.074
44.9402
11.9738
42.3924
49.1304
70.2266
51.4575
6.15265
0.573455
0.224077
0.14829
0.135559
0.134934
401.235
305.518
203.535
155.273
129.332
188.087
234.11
125.829
80.4183
40.9359
22.951
52.9601
82.6707
44.418
5.27321
0.486606
0.214585
0.148866
0.136045
0.135216
239.382
196.93
160.982
144.345
120.269
173.624
234.912
146.78
92.7208
64.052
65.2302
63.3028
86.0781
28.2226
1.25059
0.231493
0.178302
0.155164
0.145513
0.142378
249.157
250.341
221.691
160.151
121.346
97.6201
142.756
111.551
95.6281
63.5713
46.9659
44.3641
21.3889
8.74766
2.58548
1.15583
0.495145
0.270183
0.177141
0.151697
79.5372
184.332
189.417
157.846
120.795
96.2456
78.8276
67.6596
58.3981
54.4873
51.5086
49.0773
43.9451
32.4513
18.5125
8.50367
3.49862
1.34766
0.513624
0.225035
119.178
166.873
154.953
118.86
95.8169
83.369
74.6065
65.6707
59.3441
53.5785
49.4911
43.6096
37.6218
27.8984
17.1061
9.0365
4.32874
1.89296
0.790033
0.324885
111.884
147.804
138.101
110.628
97.9316
91.5532
78.5656
60.3073
46.0077
32.371
28.5741
25.7083
25.6576
23.5531
17.1533
11.4083
6.96198
3.70009
1.67558
0.65207
478.265
192.657
159.487
123.445
111.852
96.9337
79.7539
56.4315
36.7637
22.2492
16.5713
15.4035
16.3244
16.742
15.4452
10.8078
6.42508
3.17474
1.32002
0.486967
403.556
377.427
273.091
167.354
128.973
116.027
96.9817
79.8009
62.4611
44.9527
30.714
21.0195
15.89
12.2568
9.08713
5.47262
2.71879
1.10027
0.433394
0.202817
332.863
284.527
231.218
156.879
117.757
91.1609
69.4393
56.6457
47.4264
35.2831
23.8598
14.5261
8.53155
4.68793
2.62719
1.25387
0.574044
0.257513
0.168804
0.15224
102.535
151.546
139.398
106.571
90.8973
77.4786
61.6212
45.6676
32.724
21.8391
13.2501
7.08481
3.47683
1.58292
0.710008
0.32611
0.191919
0.157249
0.151249
0.150302
103.378
76.9874
68.2278
61.678
56.558
50.6603
44.3064
39.6196
37.4448
35.7953
34.0059
31.7762
29.7848
28.493
25.9948
21.5012
16.2222
10.5402
5.62763
2.44667
392.917
215.517
98.461
84.8248
72.2706
55.2398
41.7313
34.3347
32.1272
33.0978
33.2868
32.6717
31.3972
29.7701
22.9389
15.4766
10.7913
7.77619
4.96359
3.02044
421.363
193.502
101.875
86.3422
69.7104
58.9037
50.3518
40.8398
32.783
28.2748
24.6163
21.7588
18.1292
14.7824
10.873
8.3464
6.55057
5.16553
4.27509
4.19554
146.869
131.93
103.768
80.9234
62.4311
49.9437
44.3743
40.9306
36.0393
27.4791
17.9677
11.9889
8.51457
6.82458
5.96857
5.50656
5.20987
4.98149
4.93271
5.07186
323.735
101.646
82.29
62.6026
47.1642
38.3125
32.0378
29.6262
23.4307
17.1164
11.7891
8.9997
7.34572
6.37141
5.85872
5.52336
5.3378
5.26837
5.27586
5.29196
161.116
132.844
84.5813
74.5516
53.7112
35.6993
28.5733
20.5137
16.6963
13.395
10.6032
8.04598
6.69564
5.96078
5.67895
5.57768
5.50861
5.43924
5.42005
5.35747
339.135
224.804
103.952
79.8554
64.2896
44.0387
37.9163
22.9456
21.01
14.2036
11.9262
9.84195
9.22268
8.0061
7.0702
6.35964
5.97216
5.65768
5.51409
5.37689
194.902
150.163
120.094
95.2702
83.4231
60.3125
55.7865
28.6173
26.441
19.084
14.1727
13.9061
14.1173
11.6381
8.75871
7.65634
6.72964
6.10323
5.74699
5.47395
322.179
182.115
138.964
111.196
89.1541
76.8858
58.3543
54.5845
41.4397
33.5774
30.5827
28.1176
18.5459
18.088
7.0619
6.10219
5.63044
5.38199
5.27251
5.25797
768.948
322.915
167.701
149.903
106.005
101.189
77.8079
52.5306
47.8874
39.6634
41.9253
37.7646
43.1263
24.7903
15.0208
6.83275
5.59177
5.24344
5.14253
5.16414
307.525
221.98
136.863
99.0569
78.6435
79.6143
73.4587
64.4203
62.0572
32.6271
31.5219
41.9139
32.4894
25.2548
15.5002
7.67147
5.7817
5.25164
5.11632
5.14018
198.541
230.676
150.793
98.2258
74.2478
72.6821
67.6437
51.1315
36.6616
32.5111
33.1854
51.1183
41.7414
18.7541
11.0444
7.35155
6.12068
5.58717
5.36141
5.29372
288.409
153.139
107.438
76.8633
62.3458
56.803
60.7478
56.928
51.8488
50.3217
42.7302
33.9615
21.7014
11.6331
8.39003
7.05224
6.28354
5.79255
5.55459
5.37924
175.554
151.329
125.459
84.4781
66.6965
59.9026
56.8141
54.2873
51.1778
49.1864
47.8994
46.6022
43.1896
32.6773
17.2829
9.69402
6.87496
5.61511
5.163
5.08614
150.87
125.517
94.1023
78.425
63.0876
56.2288
55.3215
51.9474
50.9597
50.2605
49.733
47.6064
40.1564
26.5306
17.9582
13.4403
9.37524
6.19366
4.93991
4.84817
143.006
112.872
82.6235
77.4678
61.5318
56.179
49.9481
41.202
38.5355
31.2492
29.5863
25.4928
23.4703
21.7308
20.1934
17.1971
10.9251
5.91479
4.13054
4.21289
306.693
117.444
96.7099
83.4541
63.6683
64.4126
43.2178
33.7106
26.8975
22.1983
19.1633
17.792
18.5705
19.5827
18.511
13.4886
7.27388
4.07501
3.66052
4.4087
236.53
228.434
160.233
96.9299
64.9312
66.1772
55.3855
54.1985
40.1504
33.935
25.7266
20.7344
15.691
12.1008
8.42749
5.42786
4.26472
4.14223
4.54507
5.01309
368.217
167.593
125.128
81.7054
58.2169
62.3357
55.4342
51.9244
38.2869
28.7602
17.3839
10.3677
7.0759
5.80756
5.36695
5.19289
5.16859
5.19412
5.21034
5.19644
92.6045
84.3298
79.5741
58.9712
47.3282
39.7765
30.1631
20.6254
13.1139
7.90132
4.43415
2.26841
1.08543
0.490396
0.220771
0.107609
0.0684836
0.0586668
0.0569708
0.0570507
93.4595
82.7026
76.7017
67.8232
63.5293
56.5027
48.8335
43.7319
41.0022
37.9655
34.5445
31.2934
27.9875
25.5505
24.9882
24.1116
21.2585
14.7492
7.53307
2.96422
140.906
131.182
85.2286
65.22
57.6091
47.6736
41.3788
38.7027
36.6182
34.3726
31.8004
27.6099
21.5864
17.6636
15.6542
14.0651
11.8894
7.64314
4.1456
3.18631
175.533
113.138
89.2433
71.086
58.3251
50.5731
44.0113
38.4822
32.5927
27.1749
21.6108
18.6236
16.5722
13.642
10.4776
8.30699
6.65683
5.26185
4.59239
4.77325
142.98
124.591
94.5107
70.1596
54.0092
46.4484
41.6376
39.794
35.6495
27.437
17.8753
12.5551
9.86803
8.37695
7.15987
6.28869
5.76861
5.43185
5.38132
5.35452
234.52
119.819
83.6824
59.3904
46.6938
37.709
32.835
29.2072
23.0071
17.7154
13.5635
10.9435
8.9437
7.51499
6.58917
5.999
5.69739
5.50217
5.45767
5.37629
143.225
124.823
89.455
63.8756
51.5522
33.7525
31.3557
26.6534
22.4941
18.0069
13.5736
10.2749
8.39251
7.12625
6.4144
5.98649
5.74082
5.56429
5.49725
5.38668
195.377
146.872
98.6502
70.0815
58.0738
39.5437
37.8571
32.9456
28.4998
17.407
12.5574
10.3982
9.75572
8.48927
7.41641
6.55713
6.07271
5.71971
5.56028
5.39957
254.332
171.653
134.139
90.3697
69.4173
50.7435
50.5933
44.4007
35.8418
20.8253
18.0868
12.8856
12.5497
11.8505
9.52633
8.17412
7.04963
6.27709
5.85732
5.52488
276.762
137.863
104.521
82.634
63.6371
52.4616
47.0106
41.809
44.0942
38.9873
32.729
26.2514
21.1431
15.7015
7.62754
7.31456
7.08762
6.66948
6.09158
5.55681
312.735
157.509
119.591
99.1909
68.3806
59.1869
44.4244
61.5889
59.0941
37.938
46.6231
40.8305
28.7546
25.6613
12.1166
7.37783
6.85413
6.44963
5.8374
5.33221
365.319
124.781
96.4401
75.2285
57.1332
51.9795
49.2775
50.7851
51.093
37.3905
48.0944
58.6434
38.2996
21.9501
13.7689
8.59803
7.45598
6.83453
6.1548
5.52136
248.328
151.458
100.431
71.1345
55.373
51.6415
46.9994
39.6589
33.605
34.3889
38.3017
34.5991
38.7014
17.8954
11.7746
8.41984
7.53433
6.81118
6.19228
5.60863
319.99
159.345
100.817
67.6661
53.9175
48.9451
47.939
46.4246
41.9671
39.3931
37.6642
38.1641
22.0695
11.2507
8.53416
7.30315
6.48396
5.94009
5.66037
5.43716
228.653
158.048
109.574
74.0428
56.4031
51.2738
47.7913
46.8523
43.9038
44.1546
44.1435
43.6396
39.2468
26.5065
14.1973
9.24446
7.19065
6.15616
5.69451
5.4133
233.469
132.388
79.6749
63.6915
54.9658
49.3148
48.422
47.2047
44.8024
43.0733
41.3734
38.2102
30.6865
20.7206
15.437
12.3646
9.63641
7.35811
6.16497
5.52984
154.95
104.645
73.9002
62.0126
51.565
43.323
44.1646
39.4352
38.2442
32.3943
28.9283
23.2799
19.582
16.7703
16.016
14.8073
12.1106
8.6483
6.64472
5.6322
503.441
121.301
81.1696
67.3938
46.7734
35.5522
34.5262
29.0583
29.2914
24.5593
20.0278
14.5325
12.4135
11.792
11.588
9.44776
7.13624
5.88521
5.47636
5.32134
232.189
182.222
113.051
78.1223
53.7306
42.0052
32.3484
25.6304
20.424
16.5645
13.7738
11.9533
10.2605
8.46455
6.87864
5.95546
5.58984
5.43345
5.3639
5.30403
239.578
163.539
112.867
78.1781
50.8868
51.4746
40.7027
30.2748
21.0813
12.8842
9.23979
7.3114
6.9363
6.50712
6.17411
5.80274
5.57619
5.38953
5.29631
5.22114
117.321
108.992
87.2219
62.1558
46.633
35.7611
27.3417
18.665
12.0533
7.12794
4.10211
2.18802
1.07169
0.482852
0.210588
0.1011
0.0657974
0.0580329
0.0568553
0.0570201
122.348
96.2402
73.1281
66.5862
63.2203
55.9603
49.1107
45.7635
43.9651
41.3231
37.827
33.8009
29.0635
25.2746
24.1079
23.9378
22.8544
17.5601
9.48679
3.83389
184.514
104.699
81.4713
61.7805
59.8351
52.1492
51.6821
50.6999
50.8047
49.7487
47.9988
45.3527
40.2189
30.2977
25.3789
25.2899
25.0237
19.9285
10.8432
6.76359
286.49
116.079
88.9525
68.1031
60.9577
52.6137
49.8101
46.6489
45.6985
42.5507
38.9611
34.1593
31.0586
27.0628
23.7797
22.5426
20.6885
15.6009
9.90562
7.59972
141.157
133.195
97.397
70.0954
60.0931
51.3133
48.4873
45.759
40.4761
33.6
26.7013
21.1467
17.4162
15.2437
14.3058
13.6235
11.5849
9.07535
7.68927
6.98764
296.831
151.525
85.1498
61.1638
53.2234
41.8709
40.3738
33.8548
30.7644
26.8523
21.9173
16.6551
13.0043
11.1474
10.0952
9.33053
8.35873
7.36787
6.93447
6.74807
269.133
139.193
91.9374
63.7784
56.7213
40.158
43.6668
39.3722
36.6814
31.1548
22.1815
14.9592
10.6299
8.58469
7.55522
7.06846
6.72698
6.51864
6.44543
6.46005
187.343
137.633
100.739
69.8685
61.0792
43.6697
46.0402
41.4178
38.3421
30.9027
17.2193
11.9071
11.4756
10.0715
9.16429
7.82269
7.14588
6.73851
6.58679
6.52344
314.724
218.709
134.801
86.7679
68.6579
52.8505
48.0977
47.5764
43.175
25.7025
18.1983
15.022
14.2007
12.7491
22.2902
20.3445
17.5181
14.7359
12.2895
9.49798
263.063
130.919
101.379
71.707
56.6792
49.7852
46.8506
48.3879
48.78
45.1093
41.4768
18.0222
11.1358
10.1827
17.6947
27.5951
26.0026
24.5071
21.9696
16.4662
232.832
114.59
96.4041
72.1017
56.2791
45.5465
41.932
54.3472
47.2154
55.7945
56.72
43.3419
37.8998
14.1446
22.7148
29.533
27.1076
25.5555
23.0132
17.3825
254.727
116.422
92.3073
65.686
53.2212
44.1883
39.0475
41.9329
41.7234
30.8949
54.2777
47.3911
40.7873
43.2482
31.0135
29.7579
27.4154
25.8585
23.3994
17.7643
440.498
154.584
89.627
63.469
54.816
49.0377
45.8618
44.4195
40.8786
47.6666
49.9415
40.6413
39.3688
21.1352
24.3962
28.6166
26.5395
24.7273
22.3561
17.0883
188.517
157.68
106.582
68.1269
57.2493
50.0641
49.4255
49.7055
45.6055
45.2283
43.6372
38.7054
17.2603
11.904
18.3424
16.7001
14.9974
12.8682
11.2626
9.03992
221.089
149.812
102.763
70.0141
59.0647
51.4304
51.1074
48.617
45.5584
43.0106
36.6776
31.4487
23.2004
15.0154
10.5514
8.53781
7.73177
7.28749
7.10149
6.87354
273.123
113.726
75.7081
62.6063
57.482
48.2242
50.2016
46.6932
43.1243
36.424
29.6856
22.4641
17.5324
14.7059
12.1853
10.3352
8.9745
8.02867
7.49975
7.0287
201.382
100.344
68.1132
59.0389
53.297
43.8415
48.6275
43.4151
43.0967
36.5344
31.5866
26.3147
20.8745
16.3255
12.8912
10.9295
10.1601
8.91677
8.0082
7.26561
242.764
108.2
74.0739
60.4068
44.7199
38.237
44.7037
36.9989
40.1101
35.3876
33.2483
24.9661
16.9252
10.8167
8.86973
8.16469
7.71505
7.33445
7.16908
6.95074
162.575
138.567
96.6945
67.3115
49.7877
33.6993
31.5209
23.5615
21.4522
17.9614
17.7533
14.9005
11.5098
9.35166
8.33565
7.63267
7.29787
7.07401
7.01173
6.91464
407.61
180.904
99.2002
67.3642
41.3759
34.7149
34.5538
25.6992
14.8597
10.2023
8.50763
8.66896
9.83081
10.0613
9.79691
8.50665
7.60541
7.10067
6.89621
6.79526
123.958
116.562
88.1247
55.979
39.0169
28.6486
22.7565
16.6115
11.3922
7.22708
4.31656
2.29559
1.09003
0.473508
0.215074
0.124337
0.0926341
0.0739022
0.065772
0.0603124
193.895
145.486
75.9485
62.1865
58.2855
51.539
47.9295
46.7556
46.5446
45.6413
43.767
39.488
34.4878
29.9559
27.8525
25.8249
22.9341
17.0871
10.0312
4.37531
213.293
123.982
86.5395
80.9276
72.8246
62.6886
66.4902
62.4171
66.2008
65.8114
68.3686
67.9638
67.8264
63.0659
60.2632
60.2337
57.8489
53.0987
52.0888
56.1326
160.528
169.917
94.6549
81.5867
68.8537
61.2135
61.817
58.4971
62.0566
61.6863
63.9994
63.2186
63.239
61.1751
60.8162
60.6158
61.5092
61.5553
61.7593
62.1118
176.606
137.718
106.159
74.3057
70.0663
58.5955
60.5201
55.1748
55.9462
53.393
54.2004
53.0834
53.2369
51.5857
51.018
52.7242
56.0448
57.5059
58.7644
59.9768
200.998
182.83
98.5613
77.5582
62.8608
59.1258
53.9578
49.1169
51.7716
49.93
50.219
48.7837
49.7602
50.602
52.262
53.4752
55.596
56.9217
58.1085
59.3326
278.85
135.152
99.9898
69.0311
66.7736
57.5253
57.5113
52.2083
53.3349
52.2623
48.5379
46.8006
46.3146
47.3806
48.828
51.2336
53.1718
54.7435
55.7522
57.2952
201.495
152.362
102.84
81.0107
69.6708
60.7683
62.5596
53.8451
50.8722
46.9743
40.7872
39.2511
41.5221
42.4934
46.2075
47.7913
51.3931
53.3687
54.7231
56.6162
332.526
176.647
128.915
79.9797
75.5412
62.5896
62.3272
59.3236
56.1829
45.2098
42.4483
42.553
51.8688
54.0513
51.292
49.4838
49.9215
51.7641
53.0962
55.3163
349.553
145.866
101.745
83.3041
65.6314
62.2195
66.4055
67.3816
69.2384
58.1839
58.0827
60.9111
64.5977
66.5141
63.33
50.8764
49.015
49.3932
50.1851
52.3414
204.463
141.896
89.4006
80.274
64.4322
59.2657
68.9361
76.9807
78.7441
74.8687
63.0626
60.2839
65.3249
67.0546
63.5418
51.1734
49.011
49.2846
49.8692
51.9826
192.793
156.316
97.3775
85.075
65.622
59.7268
65.1612
77.2291
82.9126
80.3656
70.0786
74.8569
71.7914
67.6249
63.3921
51.044
48.9969
49.2582
49.8685
51.9234
268.723
152.214
94.9734
73.5468
65.963
58.2188
61.1025
68.1237
72.4209
72.6801
74.1309
78.0059
76.937
68.0434
63.1472
50.9965
49.3804
49.7795
50.5771
52.6371
278.46
142.781
110.414
83.1442
68.028
60.5501
62.1528
61.8369
65.3106
65.6903
64.4006
64.1294
65.7433
65.0457
55.2756
52.8315
53.0606
53.9966
55.0918
56.3465
225.029
140.945
104.674
77.1315
69.6834
58.5993
67.2265
52.9215
60.717
49.6021
52.4508
46.292
47.9149
48.2635
52.783
54.6112
55.4097
55.7153
56.5837
57.6022
333.57
141.396
89.2792
102.276
67.2813
64.9182
67.5262
55.4285
61.3644
52.2319
54.0881
50.4796
52.4554
54.0956
55.6188
55.0576
54.4999
54.5724
55.8962
57.4597
374.142
132.039
83.1565
97.6678
63.2271
64.5059
64.2448
54.5618
59.8435
52.5078
55.8824
52.6224
55.0118
54.7902
56.0214
55.298
54.1394
53.833
55.3874
57.8766
358.545
147.034
88.0611
100.904
61.8468
67.0627
54.3118
49.5639
52.3617
47.8546
51.6724
49.3635
51.266
50.4978
50.4908
49.9145
50.9149
53.1291
56.0604
57.8864
125.294
131.566
95.0752
77.0984
61.3889
54.9399
46.4621
41.3765
40.5618
38.7535
44.7386
46.1128
50.1043
49.9604
51.3523
52.1186
54.4798
55.8084
57.5079
58.5695
272.773
170.595
94.0614
89.9782
57.7878
53.8655
41.1286
32.425
26.3993
16.5005
22.3564
28.043
40.4403
44.2306
50.7838
52.8026
55.669
56.3744
57.4746
58.2463
113.823
104.916
82.0625
46.963
30.692
21.7325
16.6892
12.5723
9.21326
6.03592
3.49095
1.74469
0.789891
0.377679
0.311682
0.342457
0.564131
0.643719
0.672416
0.517911
47.5472
34.3369
43.4252
50.1662
52.701
32.0563
38.2153
43.5695
43.8897
66.3693
53.1994
42.8555
47.2898
52.341
45.4668
37.2839
38.8565
30.1302
36.0629
40.4268
47.412
72.9684
43.6139
36.3386
47.6892
54.0173
47.1011
39.2286
134.431
128.586
120.879
67.4377
58.0787
60.0214
51.8421
25.127
106.763
42.0759
57.5484
22.8825
53.869
43.3333
10.8553
27.8225
11.9115
32.677
38.7235
34.2086
43.0001
28.3937
12.3777
26.8217
29.5157
19.7614
40.4847
38.9269
49.0518
42.2127
44.6517
22.8071
29.233
38.9382
36.7977
52.8376
48.9528
63.9909
23.4057
20.682
35.8197
34.4558
12.7702
65.0026
59.3194
21.3443
19.3774
34.0255
23.6346
1.54833
41.0592
9.47995
19.9423
8.18051
22.5743
19.4249
116.226
234.524
131.93
89.4361
59.0528
92.9356
75.0658
61.2733
111.381
86.8854
54.8253
57.6391
69.9541
64.6438
13.8412
82.0713
34.9898
49.1631
41.0317
64.5704
40.0797
28.6814
22.9678
20.4006
39.4059
40.2377
30.4716
27.0644
42.6207
33.6867
36.9324
38.0304
38.3313
32.544
41.9176
68.5744
54.2962
80.1809
37.7662
35.9049
42.0899
41.4051
62.8699
80.7513
60.9755
35.8733
24.2164
39.1095
28.4177
12.7812
52.8164
19.6633
23.0778
20.1472
25.7149
19.7383
147.751
234.692
156.495
85.6328
74.343
81.0505
63.8477
84.335
136.668
94.9058
72.2316
56.2992
58.9343
44.7117
60.3037
80.8949
67.7307
56.2872
51.8383
41.2292
35.468
18.169
67.7239
55.1554
35.7565
21.3705
35.7108
30.9192
32.3223
54.2458
66.2368
23.6629
37.5981
29.1444
29.4033
81.5764
64.8001
82.8731
38.0376
46.7917
40.6429
52.9103
54.771
83.1634
46.0181
41.9012
29.1297
41.4771
28.5228
17.8238
30.645
5.76753
25.8627
18.8756
19.0552
14.3932
164.137
247.085
176.048
79.2907
62.0536
80.1513
65.7733
113.646
170.485
147.446
56.808
43.6089
63.1678
57.4616
65.9729
144.015
126.447
39.9255
34.0515
56.0301
48.3359
60.7282
121.192
68.246
33.6984
33.7588
49.4818
73.2978
70.3117
61.8436
62.1259
35.1885
49.2482
76.1734
43.813
85.563
62.1316
55.569
60.4284
56.2386
38.383
34.8428
44.5992
51.496
21.7917
44.4031
30.0866
34.4921
22.7985
4.49635
12.3238
1.84257
19.7135
9.52468
13.6358
6.10057
61.7493
56.8026
50.8406
49.4862
46.7927
45.2594
43.232
29.1539
55.4736
43.03
36.3786
41.6686
39.577
45.9837
38.675
40.5876
41.568
42.9907
42.6932
52.4036
41.0491
30.3276
40.6943
42.0845
38.882
33.5546
39.3059
44.8632
31.7588
41.7118
34.9666
31.6283
28.2506
44.2796
39.2545
20.3943
34.4854
37.8957
26.43
23.0835
36.8018
25.3392
17.1218
37.5792
27.2555
22.7125
22.2837
25.7271
30.0947
7.97905
22.45
19.3069
19.5059
7.84921
28.9058
18.2532
54.7619
78.6476
68.6129
51.2352
52.0689
56.4589
54.5673
55.7304
65.1055
70.6967
52.3993
43.5666
54.3715
55.3883
40.7909
67.6992
36.3716
45.7646
39.8215
41.1677
40.7523
41.8609
31.693
33.5233
37.9721
45.0941
38.2448
39.2745
37.4508
35.7797
39.6129
45.5176
43.2726
42.1139
57.3977
42.7414
39.3321
33.6283
41.2009
31.4875
53.6662
46.7692
29.4975
29.3044
25.7704
29.1433
29.8274
44.1868
30.3951
20.3247
24.8729
19.7245
28.6394
19.0698
26.702
17.0223
67.0045
69.5549
57.3991
54.7635
54.2356
50.7143
45.1992
59.1041
53.4392
40.9644
53.5786
55.7311
43.6456
37.2426
44.094
37.6055
34.836
54.0575
35.5923
36.3464
40.9921
27.417
37.9574
30.8436
36.3463
38.2096
39.0276
30.0361
42.9244
28.0244
28.5217
41.5157
57.6463
34.8741
31.7632
35.2934
32.8443
41.8331
52.9529
43.2982
29.702
32.7541
27.7063
37.8546
27.5602
40.1823
27.2436
35.7906
23.9974
18.4456
18.5886
13.827
24.3938
16.3722
18.2436
13.6446
55.4476
68.9494
59.7959
50.3734
43.1953
53.3957
47.4077
40.0112
57.4032
52.4942
41.3245
35.5851
46.4336
43.3696
31.9876
51.2854
44.6176
33.8441
33.9533
42.252
37.1113
32.866
45.1547
55.9737
34.8762
30.6654
37.5202
42.1087
42.6727
64.2464
46.5267
31.798
34.4122
42.9965
46.92
49.2484
37.9589
36.8919
37.7734
38.5388
45.7967
40.2692
29.2359
36.8353
22.951
38.8565
26.5194
40.0755
20.0242
11.4762
15.2679
8.24513
18.2808
13.0974
13.5967
8.77282
48.638
42.0174
50.6211
45.1677
48.6364
39.8691
56.2813
45.8425
44.678
57.9856
49.4289
45.5188
59.062
54.1581
43.2314
61.7875
40.1977
45.6055
47.3542
48.2876
49.107
35.9311
39.5477
47.1774
43.2817
41.5955
50.4337
52.2553
28.3599
45.9208
39.805
40.1976
29.459
51.0691
41.3183
21.7813
37.2371
24.9311
22.2641
12.6414
39.9165
32.8503
20.6225
23.0612
28.6893
11.9111
10.5773
24.9864
12.6289
7.67633
27.6605
15.3818
9.99476
8.19696
12.1469
9.4771
56.3879
49.7886
50.2851
39.3985
53.4692
37.4853
42.073
57.9488
50.9724
54.4794
55.431
52.1438
45.0365
45.2147
38.4512
47.1196
43.3805
46.2328
47.4413
41.0198
30.3864
39.5758
39.5516
36.4856
40.0485
37.4004
42.583
37.187
49.6022
44.6993
45.4475
47.3188
46.513
46.9211
46.2365
31.1868
58.3829
42.6062
41.0891
37.4128
47.7504
34.3138
25.1353
37.9911
27.1635
34.8723
13.6088
34.2461
33.2812
16.4608
24.0384
16.4508
11.1749
9.05898
29.8401
10.2199
50.9744
46.8705
42.4733
37.7209
39.7813
41.7488
39.4862
52.8033
41.2608
36.6874
42.0385
45.0327
38.3093
34.9797
40.4456
36.6012
40.0973
43.7885
29.6348
35.1763
38.4493
31.9602
38.3988
34.884
33.7995
33.6435
24.3752
35.7502
45.972
61.7817
46.0674
51.6
45.4916
91.3089
44.2261
41.8827
31.3968
32.6527
47.479
33.5154
36.6476
34.3681
23.3455
35.7793
23.2554
32.861
33.8358
34.7971
25.3445
15.6844
17.7903
13.7061
31.4807
15.0541
18.4133
14.9443
41.1167
50.8897
45.8199
44.091
41.2698
49.5242
46.3776
34.8844
45.002
41.8595
40.5035
36.2082
45.8101
42.2585
34.6414
40.6535
35.4858
35.6969
38.4455
41.1675
38.4592
36.8823
35.7446
39.5123
41.2189
46.0736
38.4544
38.5687
33.2638
40.5058
42.894
45.2012
38.0341
38.523
40.2127
36.9879
42.8071
41.3183
35.8914
35.0912
42.3288
46.4113
25.3865
41.4045
19.2072
36.8117
23.6896
43.5665
15.3582
13.0111
13.3156
8.82383
16.767
14.2906
12.1846
9.27911
48.4674
42.8127
53.8912
61.181
62.1229
62.5815
69.3493
47.8254
55.7884
52.8704
62.3766
64.6469
70.543
73.0955
49.7914
50.5872
55.5674
64.9436
59.5778
74.0875
70.3194
42.9671
55.4852
55.0626
54.2376
51.9884
68.6482
62.5103
25.1053
53.0021
42.015
51.9309
54.2324
58.5038
52.6147
11.4718
41.094
31.6706
53.7519
58.1448
53.3763
58.5098
10.1599
24.2097
13.8374
57.7432
61.6976
59.7415
61.7373
8.63706
12.8
9.74017
61.0133
62.3944
62.254
63.2364
52.6888
39.0199
44.1378
62.5606
70.797
59.9087
69.3373
50.9302
46.1989
44.2594
71.8771
73.9949
70.4887
75.9832
55.4179
39.5931
38.0611
75.0634
72.5115
78.4345
76.7204
56.67
39.9587
45.2178
71.7604
66.0089
74.289
68.5274
43.7137
56.6517
51.825
60.5714
52.735
64.3241
64.6116
42.1388
48.0954
41.6357
53.4297
58.3474
65.8771
67.2133
17.6853
44.312
43.7643
59.7416
61.8242
66.0917
63.0081
10.0367
40.753
18.2841
62.2999
63.5205
62.9135
63.1793
40.6193
43.5154
42.8607
58.6423
67.2341
56.2547
62.1465
43.2073
41.8484
37.8307
68.9282
74.1299
63.9214
68.5225
31.2345
37.8997
41.8188
76.2841
76.6896
69.3253
68.551
47.0502
45.6263
51.6567
74.0174
66.4647
67.6922
69.6173
52.0774
51.3583
42.7083
65.6308
69.0623
69.9071
69.4616
37.8238
40.2112
36.9801
69.4293
71.1017
70.4749
72.8313
44.8365
38.1748
36.6913
69.9336
64.3177
73.3086
65.5253
25.5736
28.9288
21.7385
63.892
63.6032
64.2756
63.6529
44.8146
50.7946
48.8136
56.9644
61.1205
59.1467
61.5533
41.0705
48.3051
45.2066
62.3196
66.1352
61.1863
61.4686
45.1856
44.5545
44.0697
67.332
68.2544
62.1447
65.8888
50.8992
44.2879
43.4774
68.2788
69.3578
65.9579
65.0551
42.4446
42.5972
43.9967
69.0467
70.3853
65.1097
68.1149
38.1033
47.1344
46.4229
71.2231
72.76
65.5862
64.1299
29.8467
42.1409
14.8688
73.3984
66.5409
64.7584
67.8245
15.0325
12.2067
9.28853
64.5024
62.9368
64.0387
62.0409
67.2928
68.9251
74.9451
90.3772
88.3835
97.4514
94.2734
69.0857
75.7029
77.4187
88.982
89.209
94.4441
94.2523
62.4842
77.6275
72.8622
91.2384
94.6822
94.6895
94.6057
57.3371
71.2294
65.044
97.268
102.049
95.0194
105.053
60.697
61.802
59.6416
102.821
104.24
107.632
110.997
64.2278
60.7421
64.6109
102.314
99.964
108.858
101.415
66.5168
65.3187
66.7038
98.6273
98.5444
99.9565
98.2162
66.5508
67.183
66.6962
96.9693
91.2034
97.5719
91.7111
76.259
66.4424
76.2752
96.4517
95.176
100.001
97.8013
78.5609
77.8051
82.3947
95.4368
94.8806
98.6189
97.0814
75.5626
83.0421
81.9197
95.3965
95.9041
97.7237
101.485
67.9574
80.9118
71.4956
96.9757
106.466
102.816
104.089
59.2699
67.7279
68.3046
109.354
114.034
107.747
120.755
64.5445
69.6745
69.9862
111.978
102.221
119.36
103.645
66.6204
68.9549
67.1083
99.8423
97.4781
99.1552
95.1895
66.711
67.1448
66.2486
96.9316
90.7209
94.9817
89.9471
75.0627
61.0136
68.4147
104.222
98.2709
92.5995
92.3467
82.1774
70.4198
74.3498
99.0298
97.1673
93.95
93.1185
82.172
74.6231
73.2883
97.6601
100.935
93.0763
93.3769
70.9012
72.5817
73.9758
101.688
102.233
93.5047
95.5057
74.126
74.5733
77.3386
105.756
120.254
98.6417
105.8
73.7169
78.4123
77.5198
119.112
102.794
104.573
96.5988
67.8123
75.9551
68.5191
98.0879
94.2212
94.4781
93.0512
66.5884
67.8338
66.5428
94.1377
89.6877
93.432
89.4168
66.7033
62.5171
65.5464
82.8544
88.7801
79.0753
85.7019
71.7396
65.1166
66.1721
90.5652
90.8054
84.6686
83.687
72.6453
67.2643
70.8182
90.7479
91.3206
84.6989
87.9913
73.871
70.6198
70.1191
91.561
94.1503
88.1069
88.17
77.2618
70.8865
73.7883
96.7697
100.161
90.819
95.6042
77.9372
72.0807
73.5471
99.4447
94.5973
96.0905
97.3406
69.171
74.1412
72.3035
93.4694
93.2566
95.9952
96.4818
66.2078
70.4982
67.6937
93.8405
90.0288
96.315
90.5644
43.4111
43.4258
45.3447
48.7982
40.0915
46.6322
46.9669
34.1192
35.007
34.5567
30.1177
36.0531
32.0587
34.6681
39.2137
42.9596
40.4714
48.2772
37.5737
44.7576
52.8181
43.4255
44.6327
51.3236
47.5717
46.752
41.2405
48.0351
46.9338
49.9687
53.1285
49.8908
49.783
47.996
50.0637
35.4666
30.239
41.4513
34.5452
33.0443
37.896
41.4013
40.0305
47.9556
42.5933
37.2289
41.9856
52.5826
42.4592
50.7519
44.5148
49.3978
43.2438
49.8572
45.5948
48.8166
59.9832
43.8597
60.9392
52.4818
52.6057
45.2936
89.1223
62.9714
57.4816
68.7707
67.5214
60.3148
57.5862
77.7539
52.9236
49.5411
51.6923
53.6492
49.64
48.7223
54.7218
50.8833
42.8445
46.2676
46.0232
46.2866
47.0575
49.5094
63.1708
74.0067
50.3669
58.2368
47.4138
125.799
55.8191
63.4529
62.7675
50.1398
56.9189
54.6865
97.4949
52.8189
33.4175
41.3939
41.1707
28.423
34.4914
25.4197
39.7986
34.008
36.1489
33.0091
36.4668
32.1306
36.4059
35.4616
38.6589
38.936
32.1861
45.5426
31.292
46.866
40.3196
34.3217
32.6909
31.7988
35.4015
22.3875
36.0057
36.4035
38.2236
39.571
33.219
44.1293
25.6158
41.9318
38.2254
39.7926
38.2284
39.1844
43.5872
38.0817
40.9323
40.3795
43.9613
45.1068
47.7379
46.0866
45.3678
44.3758
43.4196
44.9032
80.3449
41.6428
78.6624
44.0348
104.229
42.9081
44.3419
45.7425
42.2073
44.4592
44.1874
45.7837
42.3066
41.7341
40.0016
40.1928
37.7805
41.3651
40.069
40.4582
48.0874
86.9014
56.9646
49.9733
125.509
47.0612
50.2923
46.6466
75.2101
58.5824
44.4986
120.303
43.6298
48.6568
45.4904
44.6362
49.2482
45.4528
46.0462
43.0893
48.4737
43.3397
38.1206
41.535
41.9171
40.4077
40.6091
45.7364
83.3779
129.922
93.1234
68.0953
67.7474
74.5265
67.3776
15.4409
49.5853
16.2169
37.3749
18.6329
48.0366
20.2287
1.93735
4.70164
3.49624
16.7535
9.74713
22.6274
18.58
3.12568
4.08864
8.07982
5.49143
5.28467
14.5206
14.7838
10.372
15.83
21.1631
7.40285
11.3777
19.1538
22.1673
5.70365
21.004
18.7324
12.567
14.1468
19.6617
19.611
2.12138
11.0947
7.5645
12.9718
12.7752
19.6418
18.5622
0.50986
3.44483
1.54778
9.95836
9.61544
13.1478
8.85728
135.454
146.05
99.0567
105.337
81.4749
110.457
78.104
81.6498
167.135
178.927
117.374
87.8065
113.974
158.019
56.4907
79.3973
97.9162
60.9475
56.2378
60.6455
76.7879
22.7002
9.62178
13.0173
13.8915
15.0035
15.8948
10.2807
23.9493
15.2446
13.1294
14.6733
19.5631
24.7529
15.0508
44.464
39.2982
32.0675
39.7588
45.2373
41.1034
37.7035
48.8059
54.321
51.0987
49.7248
47.5495
50.0399
54.4616
47.6479
31.5474
57.574
45.3182
44.2467
46.8569
54.9576
40.2397
4.72375
13.9155
43.2818
34.4888
42.3184
10.3904
0.908012
3.91191
1.67565
6.45704
5.5744
10.5457
8.14285
138.496
200.414
164.483
133.146
119.913
128.443
113.746
78.9529
124.336
166.852
92.6913
63.5808
114.98
131.633
81.0743
96.3514
103.716
79.1405
85.2251
69.3673
98.2212
40.4035
32.0029
55.3639
44.4488
31.8313
53.3105
40.447
22.3762
12.3996
12.9538
25.8922
26.2383
21.1305
11.4156
42.8311
46.0444
38.2948
39.3427
42.4313
37.6381
42.4064
71.0396
58.5577
51.5187
48.8597
56.3205
56.3616
62.9123
77.3603
70.6093
74.6123
73.7151
70.7581
86.2098
74.4759
43.1405
35.8198
54.4747
46.0788
43.524
43.7554
41.811
2.67788
6.94443
3.11082
14.2789
9.65947
16.8391
12.2288
160.849
182.937
157.976
115.391
97.9603
112.556
93.4324
128.019
199.549
233.596
150.667
133.866
147.211
200.073
96.0115
107.656
127.059
107.998
93.8367
109.077
109.036
52.2365
75.4799
75.4347
52.3754
48.3491
56.7526
72.8298
29.2161
25.7909
68.3075
28.0387
23.0346
39.0836
55.3076
25.497
24.6083
25.2439
28.5816
32.5412
25.0088
25.4635
79.4679
65.6415
55.4756
52.5644
79.8
51.4542
65.2406
51.9452
79.3324
83.2042
71.0412
56.2595
63.3187
79.7959
21.1503
35.8139
38.7222
30.9669
29.8909
26.8892
27.5978
2.53836
2.22947
1.24902
16.8717
13.8083
13.9339
13.4159
152.264
171
150.45
106.561
90.5606
104.489
89.2346
122.001
206.7
235.183
139.445
120.928
140.507
207.353
82.0159
136.523
155.467
88.1986
81.1241
88.0252
144.577
58.4406
77.5264
115.129
60.9988
57.9381
63.5708
93.2588
51.4678
61.9244
69.7164
48.4094
41.7349
52.0597
69.6994
74.148
71.7453
80.9905
49.3954
54.8425
76.0266
78.165
53.911
66.0552
54.9768
72.925
69.4129
57.2363
63.8795
50.4194
80.5279
89.2713
57.4831
52.4454
52.5115
83.6242
14.704
16.8113
24.1946
27.594
16.0902
27.0316
13.043
0.73884
1.16182
0.599572
6.73445
9.60111
4.31063
5.21126
123.92
145.03
117.682
87.2685
77.4323
83.0908
75.264
102.641
106.132
96.1413
72.5423
68.7635
74.1707
69.8539
85.5988
85.1896
73.5316
64.5998