/*--------------------------------*- C++ -*----------------------------------*\
  =========                 |
  \\      /  F ield         | OpenFOAM: The Open Source CFD Toolbox
   \\    /   O peration     | Website:  https://openfoam.org
    \\  /    A nd           | Version:  10
     \\/     M anipulation  |
\*---------------------------------------------------------------------------*/
FoamFile
{
    format      ascii;
    class       surfaceScalarField;
    location    "1.1";
    object      phi;
}
// * * * * * * * * * * * * * * * * * * * * * * * * * * * * * * * * * * * * * //

dimensions      [0 3 -1 0 0 0 0];

internalField   nonuniform List<scalar> 
38556
(
473.81
1045.41
3532.67
367.428
-273.911
380.294
517.258
-501.091
351.261
520.862
-326.887
323.282
593.114
-314.768
242.517
633.008
-150.207
110.312
652.127
-44.2478
25.1284
700.146
27.2832
-75.3013
724.694
83.2719
-107.82
789.116
102.879
-167.301
842.304
129.962
-183.15
912.252
135.237
-205.185
934.434
161.49
-183.672
860.322
173.507
-99.3949
652.654
202.281
5.38699
490.492
208.422
-46.2602
473.256
211.066
-193.83
547.454
178.007
-252.205
565.762
134.975
-153.283
91.4297
-36.2191
-149.14
473.689
-688.121
47.9703
-369.864
-101.158
712.629
-726.969
-438.782
572.132
-332.695
146.306
506.5
-419.782
170.646
476.322
-167.275
47.245
470.456
-96.4965
58.1149
495.634
68.0539
-65.9491
534.605
120.914
-76.6124
598.152
171.931
-132.6
669.647
180.705
-122.239
741.838
186.075
-123.029
756.581
178.051
-31.3038
662.411
171.513
96.1643
482.955
165.959
215.778
378.812
150.845
161.72
386.881
163.996
39.0013
428.454
151.396
-14.962
404.218
137.206
22.0055
88.5687
58.3586
542.299
350.265
1168.22
862.085
224.107
-913.756
655.238
-418.796
-101.325
662.388
-129.761
-210.085
565.635
-312.998
-10.0301
563.171
-122.824
-41.9863
494.358
-92.4183
64.7342
474.969
90.1396
-2.69703
468.362
122.182
5.33902
486.048
172.155
-17.909
485.3
151.077
30.3768
465.11
151.695
54.57
406.249
124.011
112.902
333.413
116.136
128.212
280.805
113.132
105.436
263.52
112.107
56.0221
262.051
132.059
33.4062
259.369
131.831
22.2468
226.139
131.513
38.9215
81.1458
32.5423
1637.43
1999.77
-3966.69
1611.74
871.56
-621.764
1224.2
23.5212
-54.7781
1051.28
42.719
0.442281
679.614
-112.5
171.17
560.508
-31.1634
27.4446
433.94
-50.0401
84.1904
356.974
126.934
40.1708
300.788
117.262
61.1055
243.732
183.738
45.4734
207.085
122.673
65.0497
151.83
120.884
86.0668
98.9258
78.3803
98.5342
52.5356
79.1819
83.3445
32.5898
69.6281
63.4497
30.6667
75.9554
38.0751
48.5511
92.2027
21.9721
73.7923
89.8341
16.7561
100.044
90.5023
14.7592
55.1655
10.6336
-591.571
1617.13
-45.4826
-360.277
561.834
78.4319
-327.44
-156.003
146.688
-251.768
-74.8281
41.8752
-51.6815
-211.954
-100.634
-98.0584
-52.8754
68.0886
25.3525
-223.743
50.2922
28.5825
25.8223
97.882
92.2035
-37.2455
90.8863
68.7508
120.546
86.645
74.1663
38.0866
79.1713
40.7831
83.558
70.7097
28.3537
34.8455
55.964
19.0259
52.7465
35.763
26.8835
41.5174
20.2532
39.6157
52.5971
10.6262
58.5561
66.0672
7.19498
81.1702
62.1329
5.08706
102.714
64.4015
4.55759
43.0143
2.89399
-1470.12
208.921
550.381
-316.139
204.77
-796.915
-280.161
-169.235
-22.7463
-206.09
-99.9282
-48.97
182.112
-303.899
-296.257
52.2728
-10.4459
87.4093
152.626
-395.198
71.1012
61.4887
9.89812
107.062
83.3141
-141.034
81.9633
30.6862
105.666
67.5086
23.299
-14.1567
59.6307
3.80717
50.5448
52.5048
0.231419
-7.59604
46.0171
-5.26824
24.2442
34.002
0.895876
9.2931
26.0604
14.7823
25.6278
13.0828
32.2966
41.4309
7.12199
53.3136
38.0296
3.08636
71.4848
44.7564
1.47406
29.0503
0.919372
-587.523
989.605
89.6687
5.33535
279.779
-667.867
-18.2439
-4.28164
-141.374
-45.3671
-204.798
131.993
114.61
-379.139
-84.7368
16.3108
13.5348
74.3183
-11.779
-80.8669
51.5367
-129.618
-82.7174
-125.443
-213.72
28.3188
80.1659
32.5923
37.5916
33.1705
-250.013
-35.5557
7.33712
-21.4493
-35.2263
-19.8464
-279.528
53.1041
-45.8445
34.135
56.8815
36.9042
-229.783
-6.45865
11.8324
-34.4385
-0.611905
-34.2257
-161.884
-0.35966
12.7935
-8.68005
-3.77189
-17.3362
-108.46
-4.80142
15.6602
-26.9586
-11.672
-33.2479
-60.2217
-0.414907
15.4411
-15.1371
-4.53025
-19.3527
-18.6167
-42.827
10.5151
14.4333
-12.7398
5.31751
40.2627
11.8414
3.76021
60.3172
16.4706
1.50459
78.3412
25.7263
1.00607
18.0126
0.501739
-877.684
1583.77
627.458
-86.9927
161.706
-672.619
448.394
-161.727
-377.941
696.977
-381.695
-71.6864
652.381
-410.696
76.1527
119.856
9.87966
97.9973
127.474
116.478
122.683
51.3603
-15.3681
35.5558
72.1485
-35.0294
1.86978
11.8796
-56.2315
38.8814
33.7892
90.0514
-114.229
-15.2907
3.91256
118.362
-99.0899
39.7023
-5.87007
82.3759
-74.5559
-29.7462
15.4675
66.5023
-50.9699
-32.8706
16.9785
33.9649
-25.889
-14.9805
2.10323
20.1958
-11.9848
-8.71863
0.0927878
19.5971
-6.5566
15.1288
5.32412
-6.7815
-1.54399
-15.5646
-21.0126
-9.25732
-22.1605
39.6713
-42.4928
9.67881
47.1219
-2.7888
7.17966
63.2124
-2.8233
3.20335
73.704
11.495
3.73962
6.61328
1.74973
1635.75
1959.85
-4188.6
1288.57
312.768
196.118
964.879
-296.097
458.061
711.613
-484.436
356.007
41.0491
-331.739
422.516
21.3806
75.4165
72.2938
42.0957
-23.7433
32.5763
-1.40328
-12.1537
8.06526
4.13649
1.35526
-5.23699
-14.6505
1.4349
15.5428
2.90975
14.8587
-6.30069
-18.7749
10.3932
-0.176274
21.3868
-5.72339
-18.7939
4.68904
-1.55854
12.6815
13.348
-10.4066
-15.0298
-0.593126
6.6277
18.8167
-3.9965
-21.7702
0.3224
3.63789
8.9889
-3.60097
-15.1043
6.07846
4.42189
1.43969
-2.04863
-2.60035
-1.21259
-0.31265
11.0105
-9.40629
2.82391
-1.75995
-3.21599
-5.6961
62.814
-44.6464
13.3958
-10.7658
-19.266
-16.0142
-28.0101
70.1411
-18.22
8.10419
72.0082
-11.8584
7.1679
76.9552
-1.1845
7.73253
-0.385594
3.50637
1108.76
1919.96
-272.552
1537.44
376.181
-492.094
1996.64
-707.258
-48.0362
1947.92
-567.637
131.925
242.962
-90.7173
505.928
266.998
340.188
350.817
39.2435
140.923
-0.977249
63.7732
-7.96496
-11.658
7.83356
12.8853
-1.09598
-18.1634
-13.8941
13.4021
21.9658
-3.31042
-15.5236
-3.09066
2.38267
12.0475
4.18411
-11.3411
1.57429
-3.6086
14.6991
-1.32371
4.2925
11.6714
-9.72569
-1.2514
-4.98682
16.4423
0.887617
-0.209238
-15.8667
-1.25392
19.0994
-1.79115
3.88016
-20.3381
-0.850259
13.3971
-6.23997
4.3904
-16.1659
4.61835
-3.69625
17.0087
27.7622
-19.2962
0.899308
-3.97457
-9.15549
-9.54778
93.2661
-31.6545
15.5302
-25.0225
-27.0201
-33.0422
-36.7035
84.0435
-18.7528
9.75533
82.0124
-16.779
6.95174
80.0349
-9.21803
10.0111
-7.72142
3.59203
2517.52
911.954
-1754.4
2111.1
-268.325
1050.93
1313.41
-751.22
841.653
884.241
-398.723
260.252
115.672
101.032
223.125
97.5583
132.029
124.107
-40.4398
108.18
25.0734
22.8577
-15.053
-24.1524
23.4561
10.4344
5.31481
-20.3258
-22.0651
20.97
16.1242
5.29681
-14.2908
-17.9629
18.2281
17.2818
-3.25619
-11.0393
-19.3398
18.3574
11.5889
0.432807
-11.3238
-4.5529
3.63729
11.0458
1.19354
19.1582
-6.4272
0.136466
-19.1292
6.26177
23.4533
-0.189809
4.68289
-21.8137
-6.13269
13.2346
-11.4499
10.8796
-12.3622
-0.302024
-6.35382
18.7121
30.7844
-12.5976
-4.23262
-6.36932
-10.5803
-9.36287
97.2058
-13.8004
5.67589
-26.3998
-24.489
-36.6841
-33.1629
87.658
-15.3667
6.16163
86.1272
-20.5296
5.28151
85.2931
-16.4718
8.08781
-13.6922
2.9533
2496.54
-1173.92
-593.817
2896.28
-655.735
-12.3285
1841.76
-313.828
617.121
1135.34
-0.00417721
307.702
178.404
230.732
259.339
173.653
198.52
195.728
-9.78713
158.356
15.8501
13.9854
-8.1727
-35.6375
32.7339
9.41247
1.66389
-10.0689
-22.6466
20.0954
12.0529
0.567242
-11.7062
-16.021
15.7829
10.6164
1.3278
-14.1944
-15.6117
17.1778
11.0053
1.62291
-0.418331
-24.8011
27.3667
-5.82845
3.68114
12.7011
-16.1079
5.31223
-12.3452
10.4397
13.6104
-0.015964
4.89376
-11.8901
-6.59809
9.22435
-9.15564
8.97152
-7.97612
-1.0641
-4.31277
9.33977
21.0094
-15.1023
3.17665
-3.99996
-5.24885
-4.86194
72.8263
-10.8943
-2.60938
-18.934
-13.011
-24.39
-16.7881
80.5737
-24.8977
1.78361
83.4584
-27.0951
3.68074
89.8906
-28.6281
5.72407
-19.8499
2.37542
631.743
-1318.99
1173.77
271.361
-71.5108
-223.842
394.404
39.0524
-475.924
319.333
172.516
-97.4497
450.191
185.467
-85.5929
132.38
-126.545
59.0519
-0.774593
19.9219
-9.50922
7.83724
119.427
130.708
117.694
-11.9057
149.788
36.0655
12.4433
-20.6574
-12.1188
-21.2357
-12.2902
-140.562
156.58
15.1308
19.2135
-11.8598
-13.4682
-12.7442
-9.04583
-175.351
166.453
27.5094
22.6342
-10.7127
-9.99789
-11.4891
-1.32258
-119.859
65.6586
9.12515
47.7376
1.55397
-2.89305
-0.000433191
8.23721
-46.2969
34.7245
-16.3421
-4.5189
8.53556
7.74359
7.91706
15.2442
-20.6973
14.1635
-30.5296
-21.5016
13.3325
15.5873
14.401
5.87475
-17.7881
22.209
-18.8154
-5.11935
3.38593
6.46751
3.78565
4.34492
-21.335
24.5342
-19.6517
1.97813
3.22391
3.89261
3.01291
77.4024
1.70027
19.7033
15.8028
-4.8184
15.3333
-4.23565
-27.8694
-21.3604
-32.4625
-39.1958
83.195
-19.3679
2.68105
81.5961
-19.8645
-3.43425
94.7157
-37.996
-2.21884
103.623
-36.4365
-1.09841
-25.1721
-0.0336489
961.394
-1553.69
-339.838
778.477
286.736
-175.33
756.864
283.541
-222.875
769.456
228.795
-68.8712
753.598
183.157
18.1678
693.655
-139.863
73.2603
661.406
58.5751
182.708
-23.0056
-76.9543
-28.7109
-80.3638
660.289
-307.917
190.826
27.4922
37.7241
20.3509
32.641
701.649
-138.163
222.64
-10.7547
-52.3354
-14.1471
-48.5998
762.203
-333.542
177.949
16.3675
31.8173
15.0451
31.8101
785.608
-213.315
173.657
14.5737
-7.35439
13.2607
-4.22858
783.37
-276.046
155.711
34.1609
30.8695
27.4581
30.0847
688.477
-103.312
171.211
16.586
-3.05946
16.7268
-3.25849
483.866
-10.203
141.34
26.4261
13.402
22.7629
10.8823
284.634
113.953
86.9788
195.313
68.4745
1.47885
156.634
35.9813
-17.167
146.75
-18.7094
-9.40245
142.053
-31.1645
-0.5752
-22.6854
0.887944
-542.624
329.588
-996.675
-121.794
379.54
-513.634
36.9565
341.26
-216.468
12.0217
36.8111
216.918
188.662
-37.1154
43.6322
251.397
-276.3
73.7019
422.86
-187.215
74.3278
440.168
-379.501
54.2749
501.076
-231.966
32.8955
539.007
-340.424
-31.0479
572.772
-200.726
-46.3538
576.743
-238.128
-41.8885
505.037
-67.3061
35.7002
383.418
74.5431
36.8723
302.516
198.42
-3.5648
250.116
160.303
-39.428
204.096
107.678
-25.6779
172.291
23.8103
-10.714
152.666
-12.3848
0.844952
-17.1476
2.26454
-634.344
2324.48
278.009
-260.392
-303.204
308.792
380.461
-198.224
-101.369
392.182
-270.563
295.654
503.417
-174.949
26.5987
448.153
-193.777
-27.2588
362.678
-101.757
0.0167048
279.087
-170.799
-125.111
240.781
-59.9122
-133.748
248.227
-115.254
-232.616
308.459
-22.1544
-238.804
343.956
-38.0454
-235.58
378.045
67.836
-169.231
394.957
124.071
-66.4408
406.999
189.597
-3.21872
400.011
163.223
4.06778
348.22
122.614
36.8556
285.42
47.6489
38.9604
222.627
16.7863
33.6217
-0.859183
14.0973
303.144
1993.17
-3723.88
-376.595
-76.1107
452.646
294.629
-609.719
-259.73
158.092
-493.939
359.913
344.349
-303.924
-57.2819
327.175
-188.608
12.0046
283.506
-23.568
-34.5198
192.913
-11.9301
-68.2762
179.96
84.4956
-131.455
195.779
70.0281
-201.101
273.76
107.686
-207.822
323.901
81.9675
-170.154
375.568
124.443
-108.274
397.933
124.936
-23.2296
402.53
139.624
45.3751
389.763
101.205
74.7856
332.455
79.5997
100.322
258.569
37.4752
84.0596
193.554
30.8135
50.9873
5.71004
17.7686
2561.76
-233.123
-1811.58
2778.43
258.968
-551.752
1727.58
60.1225
381.014
1060.69
-191.771
364.718
797.043
-0.041285
-40.2335
745.373
-41.0798
-95.8571
701.414
53.3913
-33.0002
680.584
56.3468
-47.4469
581.037
150.976
33.0666
518.014
143.697
-10.6463
436.666
152.833
36.2009
393.112
95.812
29.7094
354.477
95.6431
67.4357
333.305
69.024
77.0835
300.32
72.4969
100.113
255.722
46.2094
99.5934
207.024
49.2186
79.0789
172.98
27.0527
44.4659
158.076
24.1232
21.5944
4.57439
7.24761
748.468
-14.1313
262.027
621.121
170.292
216.023
396.855
88.1169
196.272
261.577
-29.4936
-27
385.73
13.3309
-137.525
384.251
-54.3125
14.7118
399.717
-41.0461
78.9711
414.714
-8.12847
49.4785
373.536
63.3305
128.823
330.246
97.9414
89.0458
254.896
104.387
123.796
189.297
69.0141
92.3968
152.823
49.5604
82.5571
127.375
29.1964
65.2752
120.008
30.64
49.2239
114.545
21.4368
30.2356
121.675
22.3443
19.744
127.774
12.3446
8.6093
137.242
11.0214
3.63415
2.13591
1.30753
-886.545
318.867
-264.601
-451.652
547.827
-724.312
552.594
-34.26
617.545
-51.6201
601.031
-37.7989
497.974
62.0108
434.816
55.0292
322.176
175.971
244.847
175.27
172.826
176.408
121.894
119.947
96.3855
75.0687
85.556
40.0259
91.7418
24.454
99.2174
13.9612
114.188
7.3737
122.963
3.57003
132.528
1.45577
0.806599
-211.304
-348.058
3340.17
-22.2198
-269.616
460.826
416.168
-246.379
159.252
448.245
-107.999
399.205
587.065
-185.16
288.857
645.64
-97.7484
149.487
672.953
-50.4853
48.3006
722.972
-23.0194
-102.301
735.596
16.2796
-136.724
785.147
8.21416
-225.066
819.015
18.2241
-235.243
881.466
-1.11231
-266.522
951.07
1.24126
-254.518
1003.11
-2.72123
-148.709
964.344
7.14453
37.004
786.626
27.8743
103.584
559.391
104.78
-71.3757
469.829
109.818
-272.461
425.515
98.1634
-207.132
58.7103
-42.6618
1453.48
-864.608
-2582.04
402.381
-104.725
785.05
388.442
-348.224
-322.997
223.725
-70.4438
273.468
366.735
-275.162
117.638
342.692
-69.888
43.4271
370.648
-77.7706
57.4445
339.292
4.33048
-61.9432
318.985
12.8863
-52.9121
279.686
36.4206
-121.507
268.675
25.9735
-118.977
263.785
21.0071
-140.259
304.714
20.0001
-90.9913
313.194
27.3365
57.6262
260.146
36.4371
239.534
192.34
53.5415
203.859
191.49
99.5657
45.066
250.067
102.19
-65.9117
273.675
104.612
-8.05069
73.6142
60.4445
1147.05
626.354
-233.043
155.907
606.415
-633.748
210.853
-356.516
-147.98
144.683
-107.978
-106.38
276.326
-346.39
-70.4455
307.572
-109.107
-34.0129
354.706
-133.507
73.3373
326.181
-7.89637
38.0556
278.837
-14.0593
79.6283
214.925
29.0899
53.3341
184.155
0.20252
86.9181
150.857
8.38354
100.491
132.962
2.92425
147.873
114.206
17.8501
156.455
106.96
32.3827
116.736
112.453
60.4716
43.5992
139.831
100.657
4.9362
168.003
107.869
-11.6038
176.692
114.7
20.1449
74.4315
28.3986
866.943
-198.043
-3445.59
839.767
643.703
-631.876
499.509
-65.4269
-5.60944
447.552
-50.4391
-5.13975
380.191
-214.461
106.602
380.937
-71.5078
-10.9008
403.01
-136.08
64.6911
383.555
16.69
35.0391
330.113
7.97833
92.5105
237.342
91.5078
75.8259
150.66
44.7601
107.174
77.454
57.3396
110.317
44.0287
28.0552
106.829
15.4106
43.0965
86.7163
7.68692
42.576
60.9801
9.66832
59.9479
36.6175
32.5675
82.396
17.3343
65.5667
82.8142
8.81179
98.9559
86.5593
9.51103
53.6414
11.902
-1331.79
-1172.04
-1211.46
-683.426
272.454
-198.681
-261.311
-165.784
-175.07
-202.313
-116.78
49.2177
-98.2396
-248.174
-170.994
-103.174
-71.2311
72.7467
36.7901
-291.04
65.2876
55.9966
-19.5139
114.88
120.29
-83.7212
118.293
88.4424
83.4677
126.532
78.6464
11.029
122.698
39.2734
58.8371
108.586
25.7876
14.0404
83.4645
18.3075
37.6407
48.6986
26.6521
29.4444
25.0401
40.8062
45.7248
10.6952
60.8278
64.2549
5.31446
84.1969
62.3667
2.16563
108.152
64.9497
2.21192
43.519
2.87577
-178.202
-907.747
1682.94
-204.056
-109.229
-389.378
7.49937
-247.969
-152.117
-7.26237
-148.736
-2.25256
9.46497
-300.609
-260.549
-51.1326
-29.5111
106.287
58.3004
-422.874
93.5026
-1.13728
41.2212
105.765
39.2935
-147.907
105.718
2.16991
104.1
83.9993
4.84704
-25.309
93.2918
-6.98014
40.5799
82.5893
-4.3662
-15.4628
72.9063
-6.11655
19.034
54.3591
2.17012
6.07429
41.1439
17.4738
25.1701
18.3338
38.4841
42.0885
8.2782
60.4308
39.3898
4.11668
78.4294
46.1213
2.30392
29.9433
1.41512
574.343
381.126
-2749.07
171.03
104.911
-478.694
-55.5359
-20.7544
-142.023
-36.4335
-182.06
146.215
18.7271
-320.686
-119.82
-118.865
32.9031
149.496
-201.487
-85.8294
94.2226
-108.595
-87.2489
-101.265
-353.985
60.5955
67.429
35.4957
65.5713
44.7931
-319.929
-44.2641
-16.1683
-33.3563
-40.4996
-40.3361
-317.421
47.2889
-86.9928
32.923
38.7288
23.7994
-238.781
-1.27968
-13.4407
-32.7159
-6.24756
-38.4325
-163.545
-2.76508
23.8333
-17.4638
-5.91652
-19.5504
-105.796
-12.1546
36.2786
-34.0654
-13.7643
-33.8464
-56.4303
-5.0251
34.0311
-19.6166
-5.22069
-19.0588
-13.975
-46.4623
20.5964
18.1332
-13.4243
11.8038
46.0908
11.8003
6.09084
66.3143
17.1955
3.47538
84.5198
26.69
2.23179
18.661
0.95268
-88.9634
337.531
-549.494
174.439
-182.66
-648.45
350.812
-51.3127
-523.756
503.415
-306.679
-99.6708
492.501
-299.437
65.8182
83.2136
7.00617
149.884
91.7318
75.6378
86.1561
50.5718
21.0285
58.172
-13.2606
6.13738
-35.7024
40.21
-58.1941
92.2937
-101.991
75.0153
53.4715
-4.16892
100.086
-111.896
-15.2795
-13.0063
19.8626
121.332
-101.843
30.7808
-22.8438
-16.8976
79.7349
-69.7504
-4.29023
9.92368
-22.7473
59.5441
-40.9439
-19.6004
20.9824
-12.9925
23.1706
-13.4153
-29.6529
20.7354
-5.385
8.53203
-1.5437
-18.2022
11.5738
27.3218
-9.16829
39.1556
-2.05782
-17.4075
-1.80264
-15.7577
-22.3048
-7.8919
-21.4201
45.4864
-43.8841
21.974
52.6718
-3.7533
15.5479
68.9319
-2.98229
7.12092
79.7492
11.9162
7.69611
6.88669
3.5784
-630.337
37.115
-2954.42
-100.543
-475.283
-41.0531
232.853
-169.17
242.521
170.329
-270.229
382.082
35.0431
-174.164
384.75
19.5541
24.9657
3.25938
-59.6021
55.2573
-24.3555
70.7497
-7.94234
-0.975715
-18.3057
12.7182
3.30875
11.1968
-13.5268
8.96087
-21.2957
-13.0744
20.1968
18.7392
0.93388
14.2512
-11.1341
-14.3187
16.7058
-6.43806
1.465
14.9617
-5.67184
-14.3282
7.24957
-3.67619
7.38405
14.5659
-1.46918
-12.0568
-0.237122
-8.18689
9.78075
3.75816
5.90094
-1.61811
-8.7738
-9.04794
-5.6263
0.116114
11.4082
1.70194
-12.8752
5.27524
-6.91353
-2.4323
10.189
4.0542
-14.054
9.1566
-4.142
-9.79384
17.9228
-13.0222
14.7122
-5.80696
-3.84883
-5.18946
70.3369
-45.5261
27.4271
-16.0304
-26.9747
-15.1001
-24.621
77.4622
-18.8395
16.0651
79.0627
-12.0747
14.66
83.5217
-1.05861
16.2484
-0.552623
7.53251
2099.17
-801.9
-2807.35
524.208
-472.85
1080.43
1021.57
-500.498
-214.07
868.297
-229.036
244.006
196.669
39.2212
456.088
199.352
152.813
155.918
-113.087
30.96
172.391
-0.861861
107.267
-14.3626
-4.32329
-25.5302
16.2311
7.64487
20.3401
9.31232
-11.4914
7.75518
-7.66337
10.5595
-8.4722
-19.5471
-19.0955
2.32131
-2.91922
16.5849
22.6556
11.0544
-18.12
1.12524
1.40767
19.9133
-15.3806
16.8214
-0.461424
-1.07366
0.820879
5.06461
-21.1718
9.15307
12.128
-5.97576
7.05045
-10.676
-11.6798
8.42024
12.7849
-8.68134
9.70095
-9.35421
-12.8706
-3.42675
17.1845
-12.716
13.6964
-17.581
2.84292
-11.1181
-11.0206
23.2062
39.5684
-26.8848
20.6776
-12.457
-10.5159
-11.4558
104.643
-33.3856
30.3612
-32.0853
-35.919
-30.1714
-33.4385
94.2572
-19.341
20.6423
90.0265
-17.2892
16.397
89.1841
-9.73147
19.5262
-8.04062
9.6708
-585.041
-1417.6
-1107.22
32.162
-888.548
849.427
259.052
-489.657
603.922
141.201
-100.432
249.499
42.5571
209.559
86.2594
35.7819
18.1728
11.2167
-14.8907
-40.9194
61.9208
36.6857
-0.239241
-7.47465
-15.0301
-23.7471
27.0357
13.0739
6.14225
-17.5203
-13.5757
-31.2372
31.0745
12.054
19.2047
7.09006
-12.0717
-22.402
17.6029
11.592
-1.81124
-10.0274
-23.1856
-5.99183
7.7698
21.2047
10.2304
1.2278
-11.3729
-14.2994
17.1005
11.4498
-4.10576
-1.34439
6.01881
-17.9199
20.0815
-3.99796
-2.83806
2.45979
2.66476
-19.7742
19.494
-4.99455
0.150168
2.21808
15.3893
-19.2711
19.0782
-14.8995
-2.51496
-16.5656
3.35459
26.6642
50.4068
-18.774
1.44395
-15.769
-15.4015
-15.3594
112.699
-15.7389
19.3379
-37.0135
-35.3232
-35.8369
-35.8342
100.891
-16.458
15.0862
97.0416
-21.6325
13.4743
95.3318
-17.595
17.661
-14.3139
9.10571
103.543
-2023.14
-979.394
693.59
-751.94
-738.984
730.876
-228.142
318.32
543.239
137.295
257.612
128.323
341.653
200.702
130.211
102.813
108.436
-27.3357
-26.5993
125.506
37.9984
18.7535
-2.50589
-10.5699
-32.6663
32.6187
11.9131
1.21033
-0.0711145
-12.9524
-26.6906
26.2187
14.3382
-0.842889
-0.850415
-9.52356
-25.5005
25.3015
10.6226
-0.0496356
-3.52051
-10.6364
-23.7904
23.9945
10.0122
3.94055
-14.4387
-6.91175
-27.049
29.612
3.39359
15.394
-29.7713
8.9438
-32.4905
32.8635
-9.98876
30.4432
15.062
7.57088
-26.9294
23.8933
-7.1201
-12.4767
-3.86826
10.8992
-13.386
10.3431
-9.15014
5.1621
-7.20768
-1.72759
12.7881
30.4867
-16.3112
1.67209
-5.9161
-7.94419
-5.84009
82.0554
-13.6724
4.48001
-27.1498
-17.0442
-29.9797
-17.0375
89.6976
-28.8837
6.56717
93.6749
-30.8647
8.93562
99.2181
-31.2161
13.8021
-21.0108
7.39338
-38.7788
-1011.61
1842.86
-14.0937
-118.066
-882.402
150.059
-198.319
-669.9
92.3855
140.081
-42.5623
256.879
221.627
-130.06
98.3171
-86.2387
101.663
-23.0209
-0.781969
-22.0672
1.48319
85.2398
86.6932
74.6429
-18.9341
-27.2988
124.051
61.3659
28.4558
-24.8754
-19.6023
-24.8447
-14.622
-32.1348
-118.111
138.586
30.8658
36.4945
-13.6955
-14.1338
-13.2491
-11.7711
-40.4226
-162.727
162.089
40.2576
50.987
-13.2331
-11.8314
-13.3475
-7.75285
-75.4923
-148.389
142.839
24.737
85.236
-6.09031
-8.24584
-6.84174
1.17303
-7.07725
-136.33
110.657
4.80878
23.7222
1.82263
0.234213
0.988523
12.5904
32.2606
-72.51
44.5685
-17.5234
-34.9396
12.2469
11.6333
11.6734
5.0845
6.31314
-35.3555
31.4682
-9.9038
-7.164
2.76463
4.5549
2.23792
3.2512
-4.95136
-28.7817
29.3284
-14.0616
6.91363
2.45279
3.32988
2.51872
78.2752
16.872
23.4338
15.8651
-4.07186
16.1485
-3.58911
-30.8642
-33.503
-29.1676
-29.6955
85.6694
-19.1227
0.737205
86.4011
-29.8434
-3.20621
102.459
-48.9927
-0.148192
110.897
-43.5331
2.78009
-28.3607
2.40307
1763.64
-718.805
-1906.72
1196.66
237.434
36.1497
732.755
84.4466
-41.7379
604.991
153.759
45.2138
571.518
206.87
66.3991
522.279
-89.5174
125.777
547.957
199.974
250.7
-48.3831
-94.1286
-54.211
-96.9195
584.417
-173.62
268.553
10.0449
21.2755
9.77554
18.3371
648.879
38.6881
316.611
-31.5117
-62.2466
-37.5103
-65.8538
710.715
-133.037
240.084
-3.57333
12.4193
-5.83762
6.05736
736.078
-3.54842
231.261
-7.8794
-24.9138
-14.4878
-32.1362
720.62
-80.2601
206.801
10.8134
14.217
7.8706
11.7269
615.74
53.1527
246.333
5.0878
-15.4715
2.6112
-15.6229
435.471
50.3058
219.895
17.3341
6.60053
19.3301
8.14261
282.789
117.522
139.011
209.39
42.913
12.842
170.586
-3.72843
-4.47837
154.218
-47.3414
5.3146
148.177
-46.5523
8.48457
-28.5725
4.67015
196.284
217.829
1294.71
-2.69526
288.004
-365.226
-223.897
219.426
-130.246
-130.907
-13.689
291.377
60.6032
-23.7786
82.7703
119.105
-214.358
140.041
318.553
-9.20646
84.0608
327.86
-222.416
93.7634
398.477
-0.405707
1.37209
422.861
-136.14
-52.3296
448.949
14.8635
-90.8536
455.71
-48.0879
-80.8215
438.417
101.804
4.34242
396.899
114.48
14.2159
363.792
167.195
-20.1315
328.885
81.7654
-43.3738
273.948
24.0218
1.50961
214.378
-23.1785
24.693
172.619
-31.0385
27.0896
-23.2029
11.6328
-446.141
792.587
-354.895
-120.778
-54.7645
326.197
67.7134
-93.587
23.1524
144.206
-214.576
420.048
225.423
-120.412
42.014
125.367
-110.493
-31.0682
114.718
34.5702
-33.111
53.3401
-84.1708
-201.979
108.347
64.3869
-253.547
113.541
-65.7919
-308.159
171.511
36.4747
-318.385
200.278
-17.6444
-294.79
269.104
98.9945
-235.247
345.652
99.5664
-128.075
424.096
126.344
-40.8125
446.144
67.9454
-4.16031
400.292
45.5099
61.219
321.455
12.5747
82.0447
243.816
5.94075
74.2808
-3.37314
34.442
-632.112
231.302
-4105.13
-395.711
-128.861
290.341
-129.094
-471.545
-148.389
-128.585
-347.074
491.902
-140.402
-136.46
-29.4166
-176.156
-13.9924
-48.7423
-95.1635
98.7498
-179.691
-91.0157
54.1838
-210.779
17.5044
113.565
-289.153
32.4456
12.2641
-294.098
121.255
34.4187
-294.575
162.65
-17.5635
-211.629
255.372
42.6136
-144.616
326.471
37.8832
-32.6448
371.822
61.7512
64.6175
364.968
34.1417
115.443
315.853
42.5226
152.425
254.52
26.5053
131.462
196.04
29.105
86.3029
5.84362
30.5959
1122.83
526.553
-3252.68
1133.39
62.638
-753.809
795.254
0.728287
246.877
645.847
-136.035
303.087
389.132
98.6689
-18.6476
250.695
98.3655
-69.7777
150.83
210.596
-44.9815
82.5249
156.454
-81.4122
130.538
173.812
-75.1938
135.679
75.7428
-79.2656
183.017
60.1603
-36.8789
197.153
3.87018
-5.8606
219.68
22.7369
64.7862
219.774
7.43813
107.435
212.65
30.9793
138.009
193.756
22.1303
130.498
176.478
37.1441
101.736
164.641
24.9041
57.904
159.411
24.4298
31.4992
5.14879
9.81199
-380.589
890.743
-328.38
-129.864
78.9722
-51.0362
154.869
-60.6624
-27.0697
43.3904
-64.5452
12.9889
119.711
43.6811
-158.858
85.9713
41.5934
105.224
96.0319
81.8141
197.693
64.7104
86.5283
150.726
80.7593
92.9106
193.676
50.9759
64.5478
130.024
63.7129
43.4099
127.809
56.1552
13.0006
90.8241
75.1255
9.16516
77.1587
81.1951
4.7257
61.9182
100.401
17.3164
43.6805
107.438
14.6447
30.6844
122.502
19.0466
22.7766
132.606
11.3764
12.0337
143.305
11.0309
6.33422
2.27762
1.82021
208.219
1887.33
352.378
-516.839
427.749
-860.345
395.044
-66.1003
429.429
-42.3236
386.028
47.1959
326.744
203.108
265.291
203.011
211.434
322.737
169.034
282.219
152.37
236.481
124.859
160.459
112.293
96.7996
99.7187
57.3259
104.984
36.5053
110.939
22.6502
122.922
14.4379
130.859
7.00975
139.681
3.66383
1.21501
-969.796
437.211
2246.63
13.5406
67.9667
-590.477
470.622
-94.4249
-203.404
505.673
18.2059
345.948
607.987
-88.3896
274.933
663.678
-28.8173
122.613
662.125
-16.3082
66.1613
678.512
-29.6225
-89.0656
654.398
-37.4312
-75.1788
668.002
-82.8262
-155.843
676.771
-95.4702
-148.542
705.742
-103.654
-191.839
746.232
-96.1052
-198.903
852.313
-107.226
-147.564
944.565
-71.1947
15.9466
926.6
-3.21529
124.764
719.535
92.7098
42.98
464.816
130.364
-148.105
316.778
107.141
-166.235
51.4431
-38.1404
930.13
396.904
-2010.51
223.272
312.436
1247.44
104.612
-162.862
-135.901
95.5128
53.5522
247.221
277.917
-168.44
15.2844
264.366
6.20306
21.9576
339.802
-48.1988
13.8989
316.304
-19.3013
-48.7666
308.553
-69.9433
-12.6489
258.597
-94.9484
-59.4286
223.02
-126.58
-52.2899
181.144
-114.835
-87.2026
169.538
-97.6578
-77.833
175.644
-64.0422
8.33685
191.278
-13.5883
166.293
188.405
40.2033
163.314
176.763
109.828
39.5902
173.49
124.31
-56.5857
186.437
115.063
-28.9197
67.1027
33.032
-74.7141
892.636
-761.631
-222.347
601.659
-775.339
-51.3701
-309.43
-172.389
-7.89453
-48.6344
-47.6691
138.426
-285.344
-99.862
168.022
-43.0768
-14.3291
269.146
-111.223
35.2381
261.021
-15.4626
42.3417
247.443
-63.2626
86.5258
178.308
-44.9656
72.4864
132.192
-83.038
89.4924
90.6902
-64.3456
91.5032
79.371
-54.8862
116.42
72.268
-28.4401
127.956
83.5232
2.045
89.8475
91.1548
52.1334
24.0377
111.952
102.036
-8.069
131.019
115.506
-21.8661
149.982
116.694
-0.449407
67.8572
13.7092
618.627
534.108
-1547.17
519.106
622.711
-553.407
316.632
-27.2948
-85.2719
263.66
-4.23461
3.43263
247.73
-191.607
28.7956
254.526
-39.6216
-21.1519
320.181
-137.944
25.756
313.985
1.79924
23.9733
286.034
-36.1894
93.3883
192.395
23.5823
100.917
105.53
-27.9379
138.94
38.3468
-10.4237
123.577
20.1754
-22.9088
93.0226
2.97417
3.39226
72.0853
-1.16764
15.5838
51.5833
5.51932
51.148
30.9159
31.4144
81.1281
12.3472
66.8722
83.8677
4.99243
101.073
86.9151
5.08911
52.3214
9.00255
-990.16
370.788
1717.44
-357.458
386.608
-595.28
-285.449
-81.666
-192.708
-211.555
-69.9152
41.0048
-180.194
-227.634
-166.328
-154.802
-59.0433
66.7765
-3.82196
-296.252
72.6155
14.1076
-28.1676
126.917
74.1256
-112.62
134.706
43.3769
37.3595
143.504
42.8177
-47.8149
143.134
16.4345
3.44632
121.099
14.7678
-25.1345
87.3571
12.504
7.72526
46.6294
22.2152
7.65957
23.253
38.7944
38.0774
7.1866
61.4534
60.6472
3.13667
85.6815
60.6208
1.18451
109.194
64.1757
1.43914
43.1123
2.45435
-51.3451
-600.886
2884.67
-32.2233
8.89958
-30.792
-11.875
-209.4
-44.731
3.67152
-134.209
46.4945
-59.6159
-262.828
-162.067
-94.9437
-14.1336
96.7046
35.7875
-414.042
80.5619
-16.104
42.7656
86.723
17.324
-134.098
93.767
-34.1056
95.0516
77.7366
-35.2043
-45.2042
91.7797
-39.5389
15.1334
75.2371
-25.7677
-27.6332
61.6338
-19.0397
8.48256
46.8737
-4.20685
-0.990959
34.9617
15.7281
21.7503
14.7263
37.3982
40.7119
6.54363
60.0036
38.6016
3.53042
78.1092
46.0947
2.27929
29.8564
1.42928
162.866
395.137
-2620.43
-21.5404
110.324
-395.713
-134.264
-67.8497
-170.85
-64.9852
-184.13
126.856
-55.688
-271.945
-120
-156.473
78.1
158.048
-153.013
-82.7973
66.0406
-107.553
-81.1021
-117.869
-254.586
58.7727
13.5183
55.5749
36.8164
47.0855
-270.69
-22.4901
-40.3033
-32.1571
-14.4415
-24.7701
-315.117
40.9595
-85.3177
20.6066
48.1076
28.1304
-242.308
-14.6105
-14.6419
-46.6309
-11.9263
-43.6443
-171.02
-11.959
28.8205
-21.8555
-9.3286
-17.9993
-112.152
-13.9741
37.1448
-33.3222
-10.0725
-29.9989
-61.5857
-4.95171
35.7353
-19.1838
-2.09657
-17.5553
-16.3787
-46.1795
20.578
17.3962
-13.2767
13.056
45.7004
12.268
6.23064
66.146
17.3903
4.24102
84.3756
27.3126
2.78429
18.8552
0.99292
279.795
-396.367
-924.835
447.884
-239.996
-466.218
379.208
-94.6496
-428.28
418.227
-273.611
-49.209
375.086
-208.077
45.0916
59.792
37.2792
132.197
69.1814
57.8223
65.9642
67.6916
42.8565
70.2853
-73.8043
-5.85622
-33.1986
89.8538
-30.2971
84.0015
-72.1347
73.6521
3.55093
37.6823
69.959
-94.3427
11.059
-46.8476
18.9361
113.55
-92.9501
23.6484
-22.2253
-10.4632
63.0245
-48.4481
-27.9934
9.26968
-21.3345
41.5576
-29.1041
-27.4197
24.3417
-23.6266
17.3868
-11.3384
-21.2098
24.8138
-16.5703
8.56028
-2.58456
-13.958
19.6008
21.8666
-6.33893
45.438
-0.482564
-12.5311
1.26572
-9.47639
-21.1254
-5.37158
-20.2682
42.9397
-42.0961
29.7205
51.6874
-2.95751
22.0257
68.8652
-2.31728
9.65076
79.6477
12.7399
11.4862
7.10983
5.57606
-490.066
-551.821
-1448.98
-173.222
-402.225
-195.669
15.0373
-82.5289
42.1412
-81.8591
-140.875
346.242
-6.96388
-49.3561
234.916
-28.7227
-17.196
-37.8635
-83.4552
22.1166
14.2963
77.3576
-19.5873
-1.9798
-10.5265
6.95202
5.29725
19.8444
-21.0707
18.2366
-23.2351
-17.933
25.3172
18.685
23.7402
4.45384
-13.2892
-3.67874
13.7452
-24.9713
20.5116
9.65963
-6.57456
-9.86038
9.66602
-23.4023
8.00439
7.13985
8.36219
-5.707
-9.12204
-8.67741
3.24548
4.47608
9.71119
-2.9255
-13.3453
-1.16191
-10.1167
4.2626
5.02124
-2.66387
-6.85686
10.3536
-12.7907
0.902173
4.55788
1.08104
-5.66224
11.9119
-2.50231
-16.269
13.8903
-8.32648
15.7262
-3.4844
-2.12097
-3.2523
67.7549
-41.2417
28.1738
-13.7031
-21.7744
-13.2025
-20.676
76.6558
-16.3559
20.5627
78.7788
-10.3488
20.5686
83.5692
-0.0939764
24.2919
-0.147194
11.1163
-350.86
-103.566
-1325.05
40.5748
-682.906
969.678
287.31
-308.484
-234.851
218.864
-118.046
289.622
72.0122
114.137
276.128
74.9299
45.2779
43.1098
-110.787
-3.67147
54.7307
35.5032
96.2364
-34.1788
-12.28
-6.89059
2.25088
17.4786
33.62
-4.12355
-20.8087
13.5513
-11.8285
12.5648
10.6446
-15.3942
-15.7315
2.971
-0.147537
17.9478
10.3544
26.723
-14.3101
-8.54102
9.6093
14.7951
-28.2763
-10.7406
32.3413
7.0464
8.97877
-4.34223
-33.2836
1.02856
13.097
16.7736