/*--------------------------------*- C++ -*----------------------------------*\
  =========                 |
  \\      /  F ield         | OpenFOAM: The Open Source CFD Toolbox
   \\    /   O peration     | Website:  https://openfoam.org
    \\  /    A nd           | Version:  10
     \\/     M anipulation  |
\*---------------------------------------------------------------------------*/
FoamFile
{
    format      ascii;
    class       surfaceScalarField;
    location    "1.1";
    object      phi_0;
}
// * * * * * * * * * * * * * * * * * * * * * * * * * * * * * * * * * * * * * //

dimensions      [0 3 -1 0 0 0 0];

internalField   nonuniform List<scalar> 
38556
(
223.762
1315.84
3475.13
120.578
-274.502
377.686
325.725
-537.498
332.35
362.856
-355.191
318.061
456.293
-337.347
243.91
516.743
-168.449
107.998
544.767
-53.9238
25.8996
602.068
19.0816
-76.3825
633.242
76.57
-107.743
703.029
97.6736
-167.461
759.351
126.936
-183.258
831.091
133.577
-205.318
853.447
161.037
-183.392
778.75
173.25
-98.552
572.003
201.537
5.20962
412.214
207.358
-47.5687
396.908
210.812
-195.506
473.441
177.131
-253.665
492.346
134.594
-153.499
92.4612
-33.0037
-579.089
-145.984
-1354.17
-165.132
-513.138
-175.319
523.598
-807.602
-418.626
423.793
-384.2
128.814
374.881
-462.825
174.389
364.373
-198.756
40.8153
363.693
-116.57
63.3263
400.875
52.1767
-70.2768
443.186
109.038
-74.7789
514.626
162.385
-136.151
587.302
175.281
-121.021
661.051
183.258
-123.431
674.73
176.631
-29.2724
580.549
170.2
97.2304
401.074
165.065
215.947
298.341
151.024
159.067
308.056
162.857
38.2399
350.793
148.323
-13.9291
328.228
134.364
22.7943
88.5072
60.6478
208.966
-242.552
1807.88
608.373
-41.0713
-871.474
478.332
-576.723
-100.838
532.221
-224.92
-213.17
449.553
-372.834
-7.32342
464.317
-166.368
-47.1523
394.796
-118.64
71.5904
385.83
66.012
-4.86835
380.539
106.701
7.62811
406.472
158.085
-21.6324
405.139
143.135
33.4785
384.019
147.415
56.963
322.389
122.282
115.979
247.533
115.536
129.519
193.667
112.714
106.217
179.121
111.698
53.8718
182.431
129.66
29.8875
180.551
128.918
21.2857
147.087
127.079
40.7492
77.7946
32.756
1632.05
1621.07
-3736.06
1522.47
659.601
-591.085
1110.06
-106.47
-57.8419
942.034
-56.7666
-0.132256
578.148
-174.374
165.426
465.534
-78.1854
24.4319
341.927
-80.2965
85.2633
268.33
100.694
38.9149
214.398
97.985
62.6479
155.725
169.798
46.9607
117.956
112.971
67.9333
60.2828
111.045
94.0434
21.0031
69.4733
92.0886
-13.7976
73.4554
76.8815
-28.8885
67.0763
60.7289
-29.6358
74.2701
38.1757
-14.3812
91.0763
23.3291
8.87337
88.8742
16.7888
32.1725
89.3158
14.4634
54.8268
10.1388
-568.403
1268.89
-372.803
-410.629
424.803
77.0228
-395.96
-248.674
127.534
-328.599
-158.61
34.4826
-126.586
-271.967
-104.42
-173.574
-99.5947
68.3974
-45.7043
-259.633
51.4677
-44.2467
6.42425
92.8116
10.9061
-52.7893
95.6216
-8.27368
102.699
86.2788
3.26351
23.8939
77.5398
-23.2321
67.5677
69.973
-32.4999
25.0303
53.7106
-39.9969
46.329
34.6234
-32.7013
39.6853
20.0958
-21.9425
52.9673
10.5443
-5.52251
67.4374
7.21874
15.594
62.775
4.9824
35.3657
65.6135
3.93069
41.8528
3.54911
-1172.58
349.921
866.264
-254.618
188.621
-681.781
-283.119
-195.247
-24.9252
-250.2
-144.146
-47.3836
125.113
-354.395
-292.884
-16.1067
-48.8965
90.5216
72.2179
-423.312
75.354
-13.714
-15.5398
107.896
8.93047
-162.627
87.1927
-30.7063
84.2555
58.0797
-33.9884
-28.3346
55.5108
-58.6562
39.1562
53.0791
-62.5124
-16.5466
45.4327
-70.2501
20.1099
33.957
-63.367
6.60242
26.1999
-48.8947
24.7064
13.7885
-29.2016
41.0686
6.67569
-7.60215
38.1223
3.05334
11.4133
45.0962
1.50196
29.5431
1.28751
-405.672
1216.06
1587.37
-31.0955
287.275
-473.23
-62.0401
-7.53558
-156.767
-101.734
-246.211
141.759
51.6323
-426.845
-80.9165
-46.0074
-20.3203
69.0634
-71.4751
-89.618
50.0705
-135.589
-91.2622
-131.446
-275.512
20.8488
82.1102
27.4758
30.0047
28.058
-314.22
-41.0591
8.87784
-25.9506
-40.7797
-25.0074
-345.386
47.5036
-47.2757
30.6302
51.1756
33.3878
-296.714
-9.83905
10.8553
-37.0365
-4.0967
-36.8898
-228.215
-2.34452
11.6436
-11.6035
-7.42137
-19.6173
-176.56
-7.36306
15.9525
-28.302
-14.0686
-34.4201
-127.252
-1.70053
15.4745
-16.1602
-6.53275
-20.2791
-86.2698
-45.8295
11.4494
-49.8935
-17.5194
5.84955
-21.1262
9.04392
3.25747
-0.324362
15.7532
1.56742
17.6
25.9441
1.22786
18.5481
0.874211
-832.311
2049.63
1148.43
-135.229
183.365
-593.172
427.059
-190.039
-379.784
668.725
-417.796
-70.0801
603.959
-443.895
81.8154
108.743
2.18971
96.3525
112.963
105.28
107.924
44.6886
-23.8064
29.3053
55.5601
-39.1083
2.67288
25.2312
-72.1894
33.6679
34.139
104.658
-131.034
-18.6791
3.99556
133.596
-116.288
36.0774
-5.88189
97.8872
-91.922
-31.2366
15.4323
82.0354
-67.883
-34.3835
17.8866
49.5611
-43.3095
-15.6289
2.01441
35.857
-29.0003
-9.20929
0.652032
-37.2953
-7.60867
14.6793
21.2042
6.74557
13.1746
-1.1374
-22.035
-10.4201
-23.1366
-19.2486
-44.5962
9.03027
-12.4448
-5.15987
7.40003
3.27229
-3.28085
3.31699
13.4564
11.5914
4.1685
7.05805
2.2476
1312.84
1772.89
-4936.97
1166.41
110.859
218.939
898.747
-387.468
465.087
649.745
-529.462
360.669
27.9869
-367.882
424.975
4.23631
63.3895
53.1442
25.1085
-28.4843
33.5522
-0.0984377
-8.78546
4.16086
3.39747
1.32558
-1.63325
-12.7301
-2.49202
14.1239
2.73143
18.2801
-4.85051
-22.7718
9.4974
-0.155176
24.987
-4.55075
-22.8312
3.99687
-1.60195
16.3358
14.4601
-14.6065
-15.63
-0.559427
10.3243
19.819
-8.25202
-22.2824
0.391117
7.38767
9.88332
-7.89827
-15.5158
6.14304
8.14609
2.01367
-6.09192
-2.73483
-1.33301
2.97918
-3.44912
-9.79049
2.82897
1.4504
0.152666
-1.78026
2.71888
-46.1949
12.0151
2.83404
-4.13256
-1.70916
-10.1276
9.47957
-19.833
7.91234
11.2352
-12.6444
7.60771
16.6465
-2.02529
8.20534
-0.128557
3.99302
1005.62
1497.03
-48.1042
1588.08
151.924
-623.526
2007.27
-797.037
-9.61927
1920.1
-591.739
149.447
232.381
-115.113
520.029
252.803
327.618
334.498
48.785
126.816
-6.05375
62.8341
-6.00943
-8.5336
4.09124
11.3728
-0.920975
-16.5435
-9.92086
9.35247
20.4303
-3.31837
-14.3583
0.2453
-0.624555
10.6481
4.08945
-10.2962
4.71633
-7.01314
13.8745
-1.28147
5.12624
15.2446
-13.3183
-2.07309
-4.97943
17.3687
4.5322
-3.19138
-16.6812
-2.0283
19.7642
1.35347
0.437898
-20.9412
-0.614405
13.7442
-1.91399
0.698529
-16.7267
4.19801
-0.128573
18.1316
11.1385
-20.678
1.41128
-0.705588
-4.24162
-4.92754
28.586
-36.3625
12.4118
-8.67378
-10.8165
-13.4876
-17.8524
21.8157
-22.4152
9.35236
21.1677
-19.4627
7.46632
20.197
-10.9361
9.88159
-7.74371
4.82482
2788.99
1164.52
-1139.25
2136.21
-297.49
1102.19
1284.97
-785.471
839.67
843.002
-414.659
264.887
107.105
84.3769
213.59
85.9706
123.76
113.087
-33.1014
96.4976
21.0732
22.6352
-13.2722
-21.4396
20.0811
9.24608
5.38463
-18.9397
-18.3778
17.1447
14.8342
5.33863
-13.2002
-14.018
14.2149
16.2478
-3.24455
-10.1313
-15.2267
14.2151
10.8209
0.322023
-10.6846
-1.05357
0.128384
10.3243
1.28547
19.6045
-2.24704
-3.331
-19.761
5.73444
24.0621
3.19616
1.15172
-22.4908
-5.91919
13.6197
-6.96328
6.34737
-12.7012
-0.302566
-2.05669
19.7315
13.1246
-13.712
-4.26673
-2.30717
-5.74108
-4.77238
32.8112
-21.4344
3.89386
-9.97428
-9.72742
-17.0719
-14.8595
26.2208
-21.5949
5.76999
26.2624
-25.0836
5.57939
25.4879
-18.9686
8.80696
-13.9444
4.44663
2666.68
-967.23
362.778
2964.58
-627.01
31.62
1798.91
-305.097
685.296
1083.37
-26.1653
327.05
166.535
218.316
252.651
161.199
186.274
182.769
-5.25433
147.423
10.223
14.1424
-7.098
-32.839
29.6104
8.59537
1.73125
-9.04803
-19.1794
16.5431
11.0933
0.59094
-10.8665
-12.3052
12.005
9.85799
1.30875
-13.4531
-11.6009
13.1409
10.2713
1.64179
0.140374
-20.934
23.5698
-6.45869
3.68254
13.02
-11.8898
2.07165
-12.9004
9.6986
14.0728
3.2077
1.52443
-12.401
-6.40386
9.45801
-4.85909
4.78475
-8.14169
-1.24199
-0.50803
11.1192
8.21547
-17.5863
1.84535
-0.505537
-1.32337
-1.25674
16.0695
-18.0156
-1.73521
-4.25354
-1.0236
-8.1733
-4.30268
23.1237
-29.8211
1.17204
26.3259
-31.6961
3.41039
30.6401
-29.6981
6.41531
-19.563
3.64156
534.077
-1594.27
1822.35
208.561
-158.629
-142.865
398.477
-8.06395
-486.949
284.339
152.688
-64.7147
419.067
177.555
-93.9671
123.711
-135.684
51.6423
4.85548
26.0016
-7.22548
14.1261
110.75
121.963
108.926
-11.9456
140.593
33.8692
12.4705
-19.2383
-12.1775
-19.8605
-11.9343
-129.241
145.622
11.5537
19.245
-10.6307
-13.1105
-11.5044
-8.8876
-162.464
153.5
24.9855
22.8298
-9.67704
-9.83875
-10.4473
0.197645
-104.531
49.6861
4.82583
48.6264
2.66951
-2.45189
0.976957
8.50806
-28.7521
18.6057
-18.8381
-5.49253
9.3147
7.98969
8.66467
15.3883
-7.00527
2.95464
-33.3334
-22.8275
13.9977
15.7421
15.0834
5.89805
-5.09072
9.1347
-21.276
-3.39853
3.93725
6.48102
4.31423
4.83402
-7.21303
10.1029
-22.4508
2.26229
4.14325
4.40255
3.91881
20.3877
-10.5368
18.3321
17.042
-2.95214
16.5559
-2.43815
-11.384
-9.18201
-13.8083
-22.0162
28.2025
-27.1211
1.2905
25.9826
-23.5326
-4.06858
36.3592
-39.0154
-3.05724
42.5306
-35.1008
-0.768717
-23.8369
0.417199
1138.52
-1736.17
1221.31
772.902
229.209
-22.2174
749.666
258.469
-243.297
747.172
220.939
-65.7578
723.963
175.539
25.2258
653.975
-137.946
72.2501
616.503
58.7153
185.031
-24.0423
-74.5387
-29.8051
-77.8883
610.215
-306.043
192.413
26.4737
39.4801
19.7194
34.2449
648.456
-138.307
222.822
-11.236
-50.0657
-15.0593
-46.3953
705.27
-334.701
179.244
16.1651
33.8054
14.9739
33.6987
725.237
-215.958
174.248
14.9497
-4.90076
13.6426
-1.94963
720.857
-280.149
157.546
34.4209
32.7201
27.8375
32.0044
621.817
-108.02
173.588
17.6418
-0.720785
17.7383
-1.18736
415.275
-16.6753
141.169
27.8933
16.2715
24.2992
13.5841
211.511
107.721
85.507
119.052
62.6588
2.67875
81.5238
31.8705
-17.8748
75.1096
-22.1061
-10.4951
73.6734
-32.1967
-1.46808
-22.0532
0.71856
-385.766
287.353
488.478
-78.6904
333.857
-411.723
10.3582
344.145
-174.725
8.62575
17.5473
205.124
172.07
-42.3887
54.4841
207.807
-252.015
78.3312
378.79
-168.89
56.6222
386.715
-367.137
53.17
446.058
-225.825
28.1745
479.424
-337.584
-30.4827
510.593
-203.15
-43.9767
511.085
-241.084
-39.5566
436.582
-69.6442
36.127
312.855
71.515
35.5373
232.312
193.395
-5.13198
177.199
155.925
-38.153
129.587
102.69
-23.2072
100.347
21.6288
-14.495
83.9741
-14.1433
-1.6806
-16.634
1.89252
-312.921
2438.11
-206.067
-77.2983
-190.885
289.118
444.973
-111.05
-67.0766
372.993
-204.633
294.16
459.453
-141.894
13.0455
395.09
-163.928
-23.7228
307.629
-87.9097
6.4806
212.984
-160.499
-111.993
179.673
-52.9344
-139.58
177.935
-109.188
-226.659
241.816
-21.9973
-245.034
271.799
-38.2809
-232.785
306.972
66.0789
-170.896
324.271
122.007
-67.7914
336.086
186.079
-4.49859
328.924
159.075
4.01156
278.176
118.254
35.1844
220.45
44.3898
34.9653
156.351
14.7652
35.1903
-0.144904
11.9975
350.527
2676.68
-3712.53
-363.269
35.6062
487.306
269.312
-491.168
-252.464
110.701
-422.609
376.588
293.787
-260.828
-64.1527
267.713
-150.616
12.7607
231.369
-22.4053
-29.1602
128.89
-7.97094
-50.0496
114.761
92.5073
-131.312
121.886
75.3997
-191.713
207.9
110.775
-218.787
251.701
86.0605
-168.142
303.562
125.965
-111.747
325.953
125.375
-25.7597
330.914
137.919
43.1994
318.281
97.6225
74.0853
262.777
75.7687
97.9883
190.729
34.3774
82.061
125.707
29.0332
50.7541
4.72677
17.3872
2596.89
156.67
-1209.67
2685.73
541.592
-594.823
1630.03
195.826
368.706
973.785
-132.729
366.365
722.824
8.57131
-18.4379
671.141
-30.1016
-68.8313
632.392
60.0502
-43.7058
603.901
62.6838
-42.1645
514.33
156.69
25.3892
443.419
149.241
-2.92996
364.689
156.667
32.8388
317.981
99.4355
33.3326
280.321
98.1147
65.51
257.851
71.9166
75.9286
231.019
70.3507
94.4002
182.642
45.9795
100.021
137.092
44.9453
76.3726
104.213
24.4523
42.8048
91.304
21.4109
20.5312
3.06011
6.95519
213.285
-93.7582
-287.269
357.527
304.493
92.8567
263.795
136.997
152.561
160.398
-10.7756
-18.5567
311.083
14.7921
-156.906
303.68
-43.5054
20.8069
327.678
-32.8787
68.931
338.46
-9.73185
61.6334
304.653
69.2088
121.288
255.654
98.5863
99.6538
187.177
106.547
118.596
111.905
74.4495
100.258
81.6511
51.9104
76.4584
59.5394
31.8609
62.1676
55.9196
30.0163
43.9543
53.6015
20.6979
27.5997
61.8021
20.3498
16.3949
67.965
11.2037
7.08577
76.2313
9.89175
3.25277
1.54795
1.6205
-1606.97
166.186
-533.609
-768.866
389.891
-786.502
409.766
-30.6511
504.092
-79.5343
509.03
-48.4434
415.374
60.7773
357.518
48.1246
255.901
170.826
173.419
181.068
104.568
175.398
60.7591
118.259
38.7966
73.8732
30.0565
40.6011
36.682
23.3909
44.3233
13.0565
56.855
7.81809
64.6924
3.36624
72.9137
1.67038
1.42506
-344.847
-182.59
3569.81
-229.383
-282.669
544.891
229.216
-280.573
154.324
288.909
-137.322
395.689
451.068
-207.717
289.468
530.274
-117.231
146.023
565.648
-60.3708
50.8963
625.579
-31.8992
-104.415
644.361
10.2798
-136.805
699.506
3.74789
-226.353
736.275
15.2063
-235.234
801.232
-3.22026
-267.055
871.84
0.712613
-254.712
924.588
-3.84181
-147.459
885.391
6.41772
37.9901
707.767
27.258
102.797
481.237
105.173
-74.1479
393.358
109.675
-275.461
349.648
98.2195
-208.007
59.6009
-38.7585
1130.25
-1120.91
-3033.44
142.437
-245.032
774.857
215.544
-428.539
-343.767
66.8922
-120.829
260.973
236.312
-317.75
115.002
226.097
-101.023
34.8221
263.516
-98.569
64.1062
241.485
-13.842
-66.3031
225.458
3.19873
-51.6706
187.734
27.2839
-121.964
179.672
21.6991
-119.451
175.24
19.7366
-141.956
217.906
20.0015
-91.2276
227.098
26.615
57.5819
173.765
35.8488
239.849
101.779
53.7836
204.526
103.842
97.9563
43.3931
169.265
98.9883
-68.6656
197.635
101.919
-9.27485
73.5294
65.1146
806.788
34.4623
-765.742
-141.505
369.114
-537.327
8.51995
-515.668
-163.733
5.60092
-207.621
-123.46
162.83
-405.905
-76.3965
200.84
-153.376
-32.8095
256.005
-161.586
79.4418
233.733
-31.5407
35.103
188.258
-27.9646
84.266
119.896
17.6497
56.3638
91.3116
-6.00396
89.7658
57.2886
8.1258
102.597
41.8333
3.32626
148.109
25.6888
16.7412
155.537
22.9168
31.5137
113.325
27.4852
60.7285
42.3584
53.926
99.2652
2.13772
82.959
105.285
-14.0444
95.0311
110.082
20.5144
71.0656
27.4748
878.115
-510.339
-4345.09
784.59
466.053
-594.499
403.059
-201.872
9.893
348.706
-140.703
-12.6967
283.881
-278.759
103.104
287.163
-117.036
-15.1899
312.138
-167.761
66.4642
297.27
-11.1743
33.4163
245.272
-10.4648
97.1462
149.292
78.1982
82.3915
62.6077
36.2126
112.401
3.59734
46.9505
114.229
-21.6063
20.7018
99.9167
-48.27
38.6677
81.6187
-57.4503
40.8384
60.5845
-52.3105
58.2894
35.4751
-29.1911
81.0395
18.4355
1.78843
81.8654
9.22893
31.5888
85.4061
9.3391
53.4464
11.3226
-1259.58
-1491.02
-1100.42
-726.817
164.062
-153.749
-326.219
-252.851
-222.085
-274.41
-201.02
42.9918
-173.441
-308.195
-175.954
-178.544
-118.041
74.5055
-34.5481
-327.433
67.1434
-25.417
-45.4865
117.993
37.4749
-100.29
122.554
8.73216
64.5166
128.703
6.29023
-2.57942
118.774
-24.6801
43.4567
104.437
-34.5317
5.94912
78.3147
-40.8341
32.2033
47.3901
-32.8067
27.8277
25.0794
-20.8755
46.3231
10.5797
-3.54112
65.5577
5.36606
18.1151
62.9972
2.19433
39.3377
66.2049
1.90937
42.3337
3.12946
158.42
-579.996
2735.57
-163.223
-86.3208
-109.755
-5.26235
-293.749
-141.988
-61.1794
-202.223
9.73635
-49.2864
-351.32
-261.651
-115.44
-67.3208
105.955
-14.6055
-454.041
101.128
-67.2923
13.8543
101.242
-18.5016
-170.199
108.311
-57.5369
84.4136
77.2176
-56.2271
-39.0848
90.7064
-71.6004
29.4761
82.4333
-68.3876
-24.9455
73.1147
-71.2999
14.7322
54.3404
-61.6883
2.71826
41.6979
-44.8679
24.2498
19.0415
-23.307
41.7382
8.93427
-1.20107
39.5282
4.41642
17.6012
46.495
2.40966
30.4353
1.52663
504.041
367.093
-2827.02
195.414
150.299
-401.222
-91.4208
-16.5364
-147.144
-91.0836
-218.325
157.524
-36.0363
-367.482
-119.802
-176.959
2.26945
140.396
-263.794
-93.8293
95.2374
-115.32
-95.0625
-108.161
-417.323
52.9171
68.0125
30.7163
57.8563
39.9911
-385.396
-49.9402
-14.5832
-37.8277
-46.0334
-44.8643
-383.877
41.6692
-88.7183
29.3599
33.1259
20.1823
-305.804
-4.85511
-15.1506
-35.3389
-9.84062
-41.1173
-229.814
-6.35013
22.4783
-19.7374
-9.38662
-21.874
-173.815
-14.4745
35.7861
-35.1836
-16.0963
-35.0244
-123.221
-6.95428
34.2685
-20.5069
-7.22422
-19.97
-81.0153
-49.7173
21.6795
-44.6315
-18.3662
12.0819
-15.4786
9.14364
6.69918
5.03427
16.4845
4.0983
23.1077
26.9714
2.67805
19.2194
1.12187
-140.173
645.208
-23.9114
126.379
-157.309
-552.116
322.938
-81.4732
-511.407
471.804
-339.558
-97.7138
443.329
-330.084
72.8933
71.4123
0.417521
151.06
76.0778
63.9658
70.38
44.0769
12.7921
51.7683
-15.9507
-7.59989
-40.2937
41.4272
-58.6375
106.702
-118.519
69.3584
54.0125
-4.30049
115.124
-128.621
-18.6216
-13.5213
19.6816
136.469
-119.052
27.1502
-22.5791
-16.8341
95.2271
-86.9056
-6.09721
9.75473
-23.2204
74.7879
-57.9962
-20.9594
21.038
-13.0201
38.4908
-30.6573
-30.1009
20.8131
-5.67305
23.5015
-17.9198
-18.7611
11.8982
-29.0496
-10.4539
38.1274
12.5671
-2.69927
12.8952
-1.33537
-23.2926
-9.3032
-22.4936
-13.9086
-46.1333
21.6564
-7.34879
-6.31033
16.2941
8.41637
-3.44529
7.48157
18.9075
12.0264
8.62229
7.33001
4.06213
-862.26
-325.341
-2168.75
-224.362
-645.458
69.1897
166.031
-254.805
248.025
90.9927
-318.371
414.521
21.079
-209.725
376.045
0.751887
10.7364
-13.0026
-60.0749
37.4631
-29.4175
73.5256
-7.98155
0.227593
-14.9177
8.80425
2.6132
11.2542
-13.2933
12.1941
-19.1976
-17.0538
18.7346
18.616
0.809506
17.7344
-9.67895
-18.3026
15.7498
-6.3121
1.63212
18.4589
-4.46103
-18.3137
6.50852
-3.82483
7.39138
18.2531
-0.746311
-16.261
-0.382592
-8.25461
9.80729
7.39882
6.72383
-5.74063
-9.15486
-9.03444
-5.90544
3.31793
12.4036
-1.91262
-13.4229
5.51948
-7.02
0.812392
10.8094
0.303605
-14.2951
9.38967
-0.560663
-9.17849
2.60026
-13.4924
13.7831
-1.78323
-0.360747
-1.46168
9.35881
-47.3109
23.7867
-1.69316
-9.36526
-0.93175
-7.96285
16.0387
-20.4649
15.3869
17.6874
-12.8007
15.3143
22.5474
-2.00017
17.3718
-0.154168
7.76776
2004.52
-1174.68
-3629.51
401.461
-638.926
973.001
992.927
-571.741
-284.149
827.582
-257.753
254.174
184.903
24.4528
461.796
184.086
141.666
140.981
-111.894
39.9545
157.581
-5.21861
104.481
-14.9433
-2.75074
-22.1648
12.4646
6.49361
20.9005
9.73105
-9.93202
10.991
-11.0179
9.09569
-8.86781
-19.2195
-17.8426
5.65649
-6.26053
15.3685
22.2977
11.1142
-17.0275
4.44654
-1.60303
18.8558
-15.786
16.6265
0.42738
1.83945
-2.19696
4.05502
-20.7514
8.77968
12.8793
-1.51172
2.38081
-11.3471
-11.181
8.35351
13.4245
-3.9782
5.02217
-9.93895
-12.883
-3.35112
17.7052
-7.92987
8.82365
-18.0488
2.80086
-6.13548
-10.611
24.0868
21.115
-28.1426
19.6441
-7.61709
-5.56603
-6.77376
34.5721
-37.9435
24.5838
-12.5923
-17.0953
-11.5386
-14.8853
29.0577
-23.0191
17.4209
28.2354
-19.9866
15.4746
26.5156
-11.314
20.9155
-8.03023
9.73839
-442.823
-1505.59
-1271.16
5.18152
-903.278
918.541
231.407
-507.808
549.511
90.6883
-119.161
267.013
32.0078
190.595
76.9648
22.6536
7.07821
-0.567975
-14.9464
-34.1673
48.6869
32.7041
-0.269615
-7.24974
-13.4534
-20.8213
23.7093
11.9793
5.83591
-17.5622
-12.2814
-27.8877
27.6664
10.8602
19.2047
7.02888
-10.8875
-18.5971
13.7209
10.554
-1.81914
-9.51384
-22.4061
-2.04389
3.78764
20.4623
9.71393
0.872719
-10.5547
-9.99563
12.8384
10.7212
-3.88196
-1.15311
6.59122
-13.681
15.6888
-4.52531
-2.92061
2.34217
3.19628
-15.2905
15.1164
-5.53863
0.174289
2.28724
15.7722
-14.8606
14.6039
-15.2218
-2.58092
-11.8663
3.24978
27.8218
31.1027
-20.1084
2.40753
-11.2247
-10.5973
-10.7853
40.3661
-22.7413
15.7356
-17.4102
-16.592
-16.3163
-17.0915
33.9614
-22.7491
11.9048
33.3438
-26.3258
12.5363
31.9116
-20.0994
19.0246
-14.6158
8.94556
214.82
-1719.08
334.009
680.001
-705.445
-631.394
706.443
-225.076
376.122
494.058
123.308
296.966
115.737
327.927
191.799
117.048
89.9289
94.8641
-26.6097
-21.7975
113.358
33.4116
17.3745
-2.20765
-9.63428
-29.6183
29.3998
11.2542
0.806253
-0.171273
-12.0096
-23.3273
22.8405
13.4253
-0.757593
-0.914228
-8.7202
-21.9219
21.653
9.88274
0.0206401
-3.50476
-9.99348
-19.968
20.1644
9.37342
3.92841
-14.522
-6.24509
-23.189
25.7862
2.72793
15.4419
-29.7489
9.40846
-28.6035
28.9787
-10.4642
30.4295
15.1046
8.05151
-22.7457
19.7007
-7.54875
-12.5624
-3.80732
11.0943
-8.96107
5.94628
-9.40774
5.13556
-2.57998
-0.920032
14.7625
13.1614
-18.594
1.20325
-1.97941
-3.08537
-1.96826
23.5514
-20.6235
2.87936
-9.65826
-4.59296
-11.431
-4.60165
30.004
-33.9579
5.92818
33.2837
-35.5822
9.38715
37.0476
-32.3642
14.9162
-20.7892
7.32001
-227.396
-1112.01
1865.22
-69.7194
-158.71
-847.277
96.0641
-205.164
-672.645
54.6082
110.646
-10.5964
222.396
214.604
-148.432
88.5776
-100.478
101.885
-21.9187
4.69025
-20.9095
7.13166
74.7343
76.5968
63.7293
-18.9679
-27.3554
114.184
59.1494
28.1891
-23.5244
-19.607
-23.4899
-14.2692
-31.8363
-105.967
127.412
27.1624
35.9003
-12.5418
-13.7592
-12.1011
-11.6142
-40.614
-149.723
149.431
37.6405
51.1518
-12.2532
-11.6532
-12.3659
-7.4256
-76.6271
-134.054
129.243
21.6406
86.4815
-5.30005
-7.91435
-6.04418
1.87769
-6.10586
-120.38
95.5498
-1.12432
24.3105
2.81582
1.14977
1.90664
12.8296
33.0582
-55.1131
27.2435
-20.2153
-34.9558
12.9405
11.8637
12.3485
5.11895
5.13733
-17.0361
15.1543
-12.7857
-6.51437
3.41356
4.61792
2.89406
3.7894
-4.96169
-11.8914
12.7973
-17.1701
6.78596
3.33977
3.89459
3.41617
21.371
6.86956
15.8396
17.0438
-2.31423
17.2706
-1.93976
-12.9582
-16.5894
-12.1007
-14.1603
30.2571
-26.7094
-1.51003
30.0399
-33.4559
-4.35335
41.4048
-49.9846
-0.0197719
48.0836
-42.3589
2.54712
-27.1833
1.89714
1702.15
-897.375
-990.786
1164.24
162.165
194.823
721.829
44.1136
-50.1656
576.925
134.94
54.8527
538.155
201.331
77.2685
479.083
-92.4967
123.341
501.479
201.235
251.76
-49.508
-91.6293
-55.0137
-94.2092
531.958
-172.472
267.562
11.4675
23.4051
11.2258
20.7451
595.659
36.4341
317.979
-32.92
-59.9399
-38.883
-63.5486
652.094
-134.543
238.532
0.220634
14.9067
-4.6547
8.34638
675.599
-12.454
236.388
-6.94276
-22.513
-14.1656
-29.5694
656.75
-84.387
210.131
11.3992
16.4055
8.69213
14.1548
548.224
47.4379
248.95
6.55967
-12.6441
4.5423
-12.7326
365.009
44.5036
219.77
19.017
9.57879
20.7803
10.7347
210.786
110.816
135.784
132.206
37.42
17.129
94.8458
-9.04474
-4.92565
80.7425
-50.6392
4.26287
78.4902
-47.3213
5.74677
-27.9134
2.7995
129.623
-51.6663
1793.24
-11.2665
211.567
-320.235
-221.62
207.134
-127.391
-147.211
-22.0262
287.681
43.5475
-31.3165
96.3736
74.7285
-190.505
145.159
274.69
-20.2919
78.1883
268.153
-206.87
94.1051
341.744
-13.0459
4.06297
359.799
-131.418
-51.6631
383.661
9.07276
-89.3651
386.763
-50.2408
-76.8047
368.588
98.4213
3.319
326.569
110.69
11.3701
291.047
162.166
-20.9607
256.584
76.7183
-42.9886
205.237
18.6662
0.428731
142.925
-25.7058
22.8835
102.271
-32.8327
24.4848
-22.7815
9.53469
-133.07
943.773
-629.621
-3.39197
67.785
303.222
128.814
-38.3368
46.187
123.243
-150.443
428.148
184.196
-98.1062
18.8826
74.9874
-86.3679
-18.6516
63.1644
42.728
-44.7163
16.705
-75.021
-197.383
51.0575
72.6488
-259.627
56.6372
-59.3546
-304.302
100.882
38.4741
-318.68
124.879
-19.5566
-287.466
198.438
97.0036
-243.037
273.664
97.4011
-129.728
354.239
122.442
-45.3495
376.027
63.4515
-4.51043
330.851
41.1058
57.9209
251.405
9.73894
78.9668
178.077
2.65685
73.0283
-4.03119
31.8802
-473.863
785.296
-2990.04
-366.098
-3.85188
451.178
-175.71
-360.962
-120.227
-159.352
-282.946
492.734
-189.124
-106.29
-26.1962
-221.286
-4.48586
-36.9591
-147.37
123.738
-184.086
-138.479
74.6523
-208.614
-31.6884
120.303
-285.758
-9.48453
11.8972
-285.168
58.6332
38.4121
-286.843
88.6296
-16.3266
-201.368
183.573
44.3168
-154.004
252.365
38.3524
-35.5022
299.582
59.2437
59.181
292.63
30.821
113.668
246.35
38.7464
146.628
186.714
23.7209
127.715
127.891
27.2327
85.0017
4.60802
28.7154
1071.25
1168.97
-2452.85
1050.26
172.189
-749.877
715.031
59.2755
283.7
570.534
-86.2332
314.149
319.234
131.422
-4.85025
163.008
124.013
-41.1043
85.0279
222.497
-64.4839
35.9403
166.185
-84.6092
70.4718
178.896
-67.7354
70.2571
80.3405
-71.1585
110.645
63.1953
-32.3328
118.816
6.20054
2.63429
145.66
24.7863
58.1968
142.239
9.88476
107.817
138.366
29.1612
128.356
119.314
21.5065
128.387
106.255
32.8195
95.3588
96.2922
22.2688
54.2201
92.7136
21.8219
29.5205
3.80037
8.74294
-927.663
1124.72
-2121.97
-260.826
52.8065
-454.598
65.7501
-35.1124
-79.6271
-6.56598
-58.1953
25.7217
60.4978
68.705
-161.253
46.7792
52.5684
105.97
35.8748
94.7984
207.534
24.3886
90.4255
148.878
28.649
98.9312
196.993
9.61674
63.9782
135.048
15.5225
46.2909
129.595
10.9059
17.0369
94.0382
24.6461
12.6868
74.8179
28.782
7.97018
59.9464
42.0441
17.3662
42.4874
49.3868
14.2391
27.5245
62.6245
17.6939
18.2829
71.531
10.3638
10.0842
81.1424
9.99165
5.47142
1.74602
1.5984
-103.488
638.17
227.747
-1047.29
306.841
-900.708
282.317
-64.3233
337.853
-66.3644
301.243
40.7343
257.132
199.687
190.109
205.573
138.655
321.212
98.9886
284.712
85.4653
235.213
62.7099
158.051
50.1772
99.0929
40.7706
57.9781
45.431
36.0968
51.1475
21.579
63.2895
13.3698
70.4402
6.57927
78.6594
3.44272
1.34397
-1159.85
562.731
2761.24
-195.721
54.7037
-473.941
286.155
-132.688
-194.864
352.408
-11.7696
341.206
472.906
-112.019
280.988
549.001
-48.2564
118.184
554.114
-25.1032
70.8865
581.823
-39.529
-92.5944
562.997
-44.0515
-73.9273
582.725
-89.427
-156.655
593.888
-99.2287
-147.168
625.193
-106.3
-192.06
667.166
-97.3453
-199.341
775.227
-108.572
-146.948
868.198
-71.807
16.8266
849.764
-3.5838
124.814
641.288
93.2251
41.1023
385.979
130.325
-150.478
237.022
107.581
-166.631
52.1529
-36.7999
754.91
446.851
-1169.72
7.51709
215.754
1361.2
-66.0104
-241.274
-161.654
-59.4371
-3.19708
245.827
150.137
-212.096
5.50564
136.947
-27.6793
27.4343
232.608
-69.7904
13.1333
218.503
-37.1973
-54.5307
215.163
-82.4056
-9.97629
165.263
-104.605
-56.886
129.464
-131.639
-51.2417
84.9427
-116.314
-87.4204
75.0406
-98.0474
-80.6238
82.1595
-64.5063
6.39691
99.188
-14.5919
165.605
97.6285
40.0865
162.415
88.538
107.723
37.9861
88.1547
121.241
-59.198
103.057
112.324
-28.9206
66.2155
34.9588
-436.68
176.198
165.809
-440.998
346.456
-663.712
-214.182
-462.181
-169.641
-140.629
-146.508
-53.7023
12.4659
-343.03
-98.5579
53.5365
-86.5779
-14.9813
171.553
-138.767
30.4023
163.259
-38.496
44.6961
155.705
-78.0801
87.4945
83.2125
-55.835
80.0863
42.0266
-89.8095
89.1217
6.72725
-67.2294
88.8113
5.55452
-59.2166
110.451
2.71545
-30.8541
124.724
11.7631
1.40122
88.284
18.8026
52.5909
22.8144
33.717
101.659
-6.71337
48.5621
113.159
-20.8069
69.7742
111.903
-0.276171
64.7918
13.174
683.432
352.401
-1493.75
429.973
454.704
-449.288
224.427
-162.046
-84.6965
154.838
-92.2643
2.64865
151.523
-256.045
19.4341
151.692
-85.8734
-16.0629
230.079
-169.379
18.6883
225.77
-25.9601
25.1893
201.109
-54.7141
98.4414
99.4178
15.1934
113.054
21.0452
-37.736
138.701
-27.4385
-21.6213
117.105
-46.6786
-30.0961
90.0364
-64.3388
-0.827329
69.2526
-67.3667
14.4569
50.5568
-58.2219
49.6769
29.2442
-30.6971
79.5973
12.9726
3.03722
82.8276
5.82552
33.1127
85.7909
5.37525
52.1752
8.11608
-956.328
247.435
1480.68
-360.834
278.348
-572.888
-341.822
-157.485
-245.659
-281.696
-146.93
37.5307
-255.832
-286.908
-170.954
-231.256
-104
68.0551
-74.0583
-331.698
72.2658
-57.1631
-56.15
131.287
-1.87103
-130.882
143.431
-21.6823
18.3113
145.397
-19.1029
-61.1887
139.647
-44.1826
-10.3592
118.255
-48.224
-32.9207
85.181
-49.0887
2.02978
45.3977
-36.7964
4.297
22.9468
-22.6017
38.9212
7.14074
-3.04089
62.0715
3.33112
19.3632
61.2446
1.37323
40.1659
65.4418
1.45568
41.9248
2.24787
50.1501
-436.681
3574.66
10.7583
56.0089
151.975
-29.0268
-255.162
-4.52506
-43.3536
-187
64.1336
-114.751
-312.779
-164.383
-159.021
-54.6166
100.841
-25.2473
-447.011
82.6668
-80.4947
16.4671
83.8715
-40.2483
-155.891
93.0729
-97.8124
76.8249
76.2679
-101.042
-57.3734
90.1204
-107.506
6.07717
72.4609
-92.3788
-35.8331
60.9006
-86.0067
3.43074
46.5672
-69.6996
-5.75152
35.4394
-47.7597
20.7152
15.3078
-24.3541
40.4026
7.19773
-1.59679
38.8794
4.02441
17.346
46.523
2.38558
30.3499
1.39764
199.292
456.383
-2753.36
-25.0804
193.561
-314.401
-169.217
-97.689
-160.481
-117.381
-221.856
140.544
-110.926
-316.588
-122.447
-213.564
40.2924
148.124
-214.902
-90.1021
66.8364
-114.494
-88.2475
-124.429
-316.781
50.9386
14.5334
50.4165
28.9077
41.5624
-336.354
-27.4363
-39.1368
-36.5249
-18.848
-28.9544
-381.628
35.3313
-86.1164
17.0854
42.474
24.606
-309.286
-18.0061
-15.9183
-49.3285
-15.226
-46.3873
-237.477
-15.2693
29.1687
-24.1318
-12.7041
-20.3174
-179.793
-16.2712
37.0878
-34.5227
-12.7209
-31.3036
-128.643
-6.99341
36.3634
-20.1319
-4.12872
-18.5603
-83.7402
-49.8059
20.831
-46.0813
-18.3169
13.4552
-15.7804
9.73313
7.06768
4.83607
16.8115
5.54968
22.9912
27.7337
3.31222
19.4878
0.917638
76.5252
-86.3926
-1427.29
417.261
-235.229
-464.062
354.66
-124.189
-422.307
387.07
-302.449
-49.5296
327.136
-241.017
57.2556
47.3904
28.9041
136.19
52.4534
45.4612
49.2479
60.7554
34.7133
63.3718
-74.6125
-20.5128
-37.4565
89.8703
-31.0385
97.982
-88.3359
67.6432
4.68772
38.3206
84.3608
-111.057
8.98408
-48.0447
19.2499
128.544
-110.133
20.3091
-22.6394
-10.0224
78.3954
-65.5208
-29.7334
8.87513
-21.1902
56.6443
-46.021
-29.0809
24.3786
-23.7105
32.5404
-28.364
-21.6979
24.9609
-16.8049
23.5571
-19.1059
-14.2087
19.5691
-33.7389
-7.7408
43.4651
14.5928
1.4826
16.7045
4.12749
-22.2339
-6.89603
-21.4412
-16.1931
-44.9672
30.7608
-8.19527
-5.83691
23.8662
8.31474
-2.9123
10.6953
18.7611
12.9579
12.9517
7.6776
5.88961
-781.98
-1131.34
-892.333
-313.92
-593.041
-41.0592
-85.1862
-173.153
68.2565
-135.173
-191.221
353.279
-18.4763
-88.524
231.539
-43.8906
-27.884
-52.9092
-84.1492
5.1566
11.8386
77.5817
-19.3712
-0.888162
-7.30862
3.36194
4.60728
19.5988
-20.9416
21.5329
-21.1046
-21.8642
23.8446
18.5328
23.808
7.93699
-11.9531
-7.66314
12.8814
-25.0102
20.5371
13.1095
-5.36381
-13.826
8.97679
-23.4335
7.99243
10.7448
9.43487
-9.85232
-9.66146
-8.65833
3.27517
8.05019
10.6598
-7.06038
-13.8132
-1.11165
-10.1827
7.88346
5.83703
-6.76775
-7.19158
10.4215
-13.2456
4.24461
5.02812
-2.46995
-5.74969
12.1925
0.752512
-15.5281
-0.607214
-8.9312
15.5213
-0.084559
1.05426
0.0821329
7.53052
-43.2194
25.3584
0.366997
-6.36656
0.753068
-5.60368
15.4753
-18.4272
20.0322
17.6822
-11.3885
21.5837
22.494
-0.922121
26.4402
0.277457
11.1564
-305.938
-270.259
-2424.91
30.9551
-801.436
844.503
261.214
-382.909
-304.651
160.711
-143.899
307.354
59.9809
86.4545
268.468
58.6806
33.0223
27.3771
-107.305
3.11433
39.3525
30.169
94.6506
-34.0835
-10.5928
-3.92692
-0.655415
16.0501
33.2086
-3.82472
-19.0627
16.6648
-15.066
10.9085
10.3801
-14.8932