/*--------------------------------*- C++ -*----------------------------------*\
  =========                 |
  \\      /  F ield         | OpenFOAM: The Open Source CFD Toolbox
   \\    /   O peration     | Website:  https://openfoam.org
    \\  /    A nd           | Version:  10
     \\/     M anipulation  |
\*---------------------------------------------------------------------------*/
FoamFile
{
    format      ascii;
    class       volScalarField;
    location    "1.1";
    object      turbidity;
}
// * * * * * * * * * * * * * * * * * * * * * * * * * * * * * * * * * * * * * //

dimensions      [0 0 0 0 0 0 0];

internalField   nonuniform List<scalar> 
12920
(
-0.0298841
-0.0872582
-0.0972958
-0.123495
-0.149199
-0.168878
-0.174818
-0.163194
-0.148855
-0.133487
-0.12276
-0.116917
-0.117734
-0.128199
-0.140809
-0.137206
-0.128858
-0.146296
-0.205618
-0.29452
-0.0895815
-0.0524525
-0.0652678
-0.0976858
-0.134935
-0.171808
-0.19136
-0.183422
-0.170071
-0.156442
-0.151641
-0.155615
-0.169846
-0.183204
-0.198172
-0.219022
-0.248131
-0.29209
-0.352186
-0.419332
-0.0317375
-0.0316578
-0.0496596
-0.073841
-0.114662
-0.154028
-0.186384
-0.207559
-0.21612
-0.216967
-0.219959
-0.227746
-0.243018
-0.266085
-0.298252
-0.336557
-0.375449
-0.419169
-0.45991
-0.498235
-0.0123646
-0.0261973
-0.0506246
-0.0864297
-0.133694
-0.186289
-0.22207
-0.244225
-0.260348
-0.273021
-0.290933
-0.31446
-0.34693
-0.382541
-0.417954
-0.449362
-0.47517
-0.498919
-0.517373
-0.532139
-0.0835841
-0.0885382
-0.149417
-0.190986
-0.200629
-0.254303
-0.28573
-0.303104
-0.322022
-0.339228
-0.368533
-0.399521
-0.434254
-0.463378
-0.487798
-0.506178
-0.519766
-0.530409
-0.537577
-0.542344
-0.0528305
-0.0670137
-0.125599
-0.181925
-0.146045
-0.221856
-0.265663
-0.309126
-0.336308
-0.367454
-0.405469
-0.440777
-0.473614
-0.497674
-0.515035
-0.526349
-0.533779
-0.538775
-0.541868
-0.543719
-0.0376378
-0.0559272
-0.0842248
-0.135871
-0.152893
-0.19762
-0.230747
-0.289979
-0.300543
-0.332343
-0.375066
-0.416094
-0.414891
-0.441002
-0.464846
-0.488922
-0.503542
-0.512259
-0.518713
-0.523349
-0.0323981
-0.0500787
-0.0648383
-0.0864031
-0.11725
-0.168905
-0.183823
-0.23553
-0.219598
-0.282304
-0.193656
-0.147078
-0.161251
-0.141288
-0.153037
-0.21329
-0.270996
-0.318558
-0.357514
-0.388552
-0.0343756
-0.0475227
-0.0564092
-0.0723932
-0.105775
-0.135995
-0.174732
-0.20731
-0.165104
-0.132487
-0.109704
-0.0996473
-0.0700851
-0.0267455
-0.0284369
-0.0855908
-0.137013
-0.190853
-0.244863
-0.294745
-0.0250063
-0.0318903
-0.0388122
-0.0471735
-0.063629
-0.0811488
-0.157882
-0.185751
-0.18381
-0.14714
-0.0988892
-0.105226
-0.0888589
-0.0634374
-0.0413183
-0.082259
-0.127907
-0.178949
-0.231808
-0.283392
-0.0256395
-0.0309347
-0.0447028
-0.0707988
-0.0951702
-0.0953
-0.10977
-0.148791
-0.161746
-0.163993
-0.137825
-0.121213
-0.0939922
-0.0653461
-0.0419657
-0.0807977
-0.129031
-0.18101
-0.233531
-0.284424
-0.0195969
-0.0243835
-0.0337572
-0.0684298
-0.104599
-0.106499
-0.108941
-0.120252
-0.133843
-0.143696
-0.133248
-0.108242
-0.0881342
-0.0547527
-0.0375732
-0.105343
-0.162133
-0.216912
-0.26697
-0.311096
-0.0209086
-0.0464298
-0.0487405
-0.0772504
-0.107499
-0.132701
-0.124514
-0.122277
-0.123446
-0.132795
-0.141365
-0.132279
-0.124246
-0.120431
-0.176803
-0.239013
-0.295351
-0.346359
-0.385923
-0.414829
-0.0149564
-0.0371194
-0.0560859
-0.0775503
-0.103496
-0.128495
-0.145981
-0.163179
-0.172451
-0.181206
-0.191906
-0.206438
-0.228158
-0.258615
-0.297321
-0.339733
-0.385435
-0.439397
-0.48349
-0.510926
-0.0239316
-0.0538961
-0.0727572
-0.106421
-0.131275
-0.147336
-0.158426
-0.160621
-0.163989
-0.159983
-0.168394
-0.185905
-0.221022
-0.257674
-0.289644
-0.317207
-0.368871
-0.431491
-0.480247
-0.510632
-0.0206441
-0.0765332
-0.0867348
-0.110861
-0.128889
-0.131632
-0.147275
-0.139897
-0.134323
-0.124301
-0.128551
-0.144464
-0.183313
-0.239058
-0.289715
-0.331774
-0.377647
-0.425817
-0.469774
-0.503176
-0.0794359
-0.0809026
-0.0833479
-0.100052
-0.114391
-0.125612
-0.148478
-0.148855
-0.143817
-0.135325
-0.147831
-0.174021
-0.215099
-0.26816
-0.313796
-0.357635
-0.404453
-0.45359
-0.494946
-0.521483
-0.0772358
-0.0773615
-0.0794841
-0.0843644
-0.0944552
-0.103588
-0.125151
-0.144986
-0.167301
-0.188068
-0.212696
-0.246671
-0.284588
-0.329395
-0.376608
-0.42672
-0.471682
-0.50655
-0.527356
-0.538206
-0.0833345
-0.0686331
-0.0558852
-0.0813923
-0.110796
-0.146871
-0.17401
-0.196476
-0.215278
-0.244093
-0.285186
-0.34066
-0.392387
-0.438507
-0.473862
-0.50143
-0.519258
-0.531099
-0.537979
-0.541987
-0.0381744
-0.0541715
-0.0495923
-0.0895081
-0.114615
-0.137527
-0.166436
-0.200975
-0.238654
-0.285927
-0.34382
-0.406652
-0.458742
-0.494989
-0.516969
-0.53009
-0.537505
-0.541804
-0.544149
-0.5454
-0.0370243
-0.0424673
-0.0575608
-0.0656305
-0.0716852
-0.0646851
-0.0517002
-0.0403623
-0.0320727
-0.0256613
-0.0213985
-0.0186485
-0.0170958
-0.0163578
-0.0158149
-0.0151517
-0.0160654
-0.0229444
-0.0451227
-0.0796998
-0.0132664
-0.0198655
-0.0262667
-0.0392902
-0.0565365
-0.0522306
-0.0436628
-0.0305431
-0.023937
-0.02112
-0.0234343
-0.03332
-0.0552206
-0.0865831
-0.0989531
-0.0796015
-0.0544303
-0.0625807
-0.103843
-0.127905
-0.0111554
-0.00833527
-0.0237228
-0.0328145
-0.0485053
-0.0553304
-0.0653052
-0.0586296
-0.0562392
-0.0618924
-0.0783134
-0.0921408
-0.102616
-0.100289
-0.0830218
-0.0624585
-0.0574882
-0.068478
-0.0919319
-0.08638
-0.0030683
-0.00751901
-0.0331362
-0.0521099
-0.0668031
-0.0751407
-0.0938533
-0.0990697
-0.101537
-0.104244
-0.118532
-0.131352
-0.130469
-0.11346
-0.0878435
-0.0643838
-0.0538141
-0.0521358
-0.0513333
-0.0380981
-0.0321367
-0.0374151
-0.0687546
-0.0746225
-0.0565861
-0.0798884
-0.107305
-0.128824
-0.144504
-0.151287
-0.152906
-0.140051
-0.113748
-0.0825933
-0.055506
-0.0362919
-0.0278615
-0.0228194
-0.0192394
-0.0129532
-0.0109468
-0.0234169
-0.0670797
-0.078837
-0.0585444
-0.0820526
-0.100939
-0.117906
-0.113915
-0.1264
-0.12968
-0.128355
-0.113537
-0.0898185
-0.0648148
-0.0406316
-0.0249951
-0.0153298
-0.00978796
-0.00580028
-0.0322479
-0.0313711
-0.0530342
-0.0767099
-0.0670206
-0.0751698
-0.0912202
-0.0793646
-0.0389429
-0.0430536
-0.0482917
-0.0487952
-0.0444908
-0.0383668
-0.0288515
-0.0200522
-0.0128901
-0.00810151
-0.00553655
-0.00352503
-0.0184256
-0.0152364
-0.0194068
-0.0331411
-0.0581837
-0.0756447
-0.0802697
-0.116756
-0.041441
-0.041027
-0.0794206
-0.0790317
-0.0634599
-0.0443477
-0.0252905
-0.0157519
-0.011354
-0.00793371
-0.0060685
-0.00405499
-0.00990542
-0.0227602
-0.0299412
-0.0371183
-0.0676652
-0.0894371
-0.102779
-0.150777
-0.0346399
-0.0408878
-0.0655562
-0.0644542
-0.0722605
-0.0685503
-0.0390895
-0.0126261
-0.00812147
-0.0073432
-0.00810409
-0.00702378
-0.0214475
-0.0128113
-0.0173959
-0.0232722
-0.040308
-0.0579121
-0.105897
-0.105068
-0.119505
-0.021574
-0.0268895
-0.0430154
-0.0533069
-0.0652261
-0.0385307
-0.011576
-0.00779728
-0.00714517
-0.00833792
-0.00747631
-0.00598152
-0.0175264
-0.0229223
-0.0215865
-0.0372205
-0.0420857
-0.0700338
-0.116579
-0.117145
-0.098924
-0.0669641
-0.0833671
-0.100314
-0.0737304
-0.0265796
-0.00573669
-0.00492162
-0.00574712
-0.00771425
-0.00724582
-0.00463841
-0.00871004
-0.0235452
-0.029903
-0.0404181
-0.0450138
-0.0532232
-0.0649051
-0.0764455
-0.0990917
-0.120301
-0.120481
-0.107903
-0.0627244
-0.0118106
-0.00450818
-0.00549707
-0.0070787
-0.0087507
-0.00769364
-0.00640522
-0.00623448
-0.00803479
-0.0163753
-0.0306032
-0.0478018
-0.0610778
-0.0764897
-0.088062
-0.105531
-0.109976
-0.0892713
-0.0567057
-0.0344628
-0.0240913
-0.0181553
-0.0160684
-0.0146937
-0.0124129
-0.00953628
-0.00837428
-0.00875142
-0.00777964
-0.0130007
-0.0292896
-0.0462675
-0.0707682
-0.0841121
-0.100612
-0.103984
-0.113667
-0.121828
-0.132793
-0.131987
-0.100241
-0.0579693
-0.0429333
-0.0389987
-0.0350668
-0.0293065
-0.00883104
-0.0127368
-0.0150719
-0.0323804
-0.0394243
-0.0329467
-0.0488691
-0.0385044
-0.0429871
-0.0428153
-0.0529172
-0.0667494
-0.0902913
-0.0904757
-0.0726258
-0.061094
-0.0624006
-0.0685928
-0.0677654
-0.0544378
-0.00884548
-0.026711
-0.0166054
-0.0362475
-0.026926
-0.0211759
-0.0239259
-0.0268864
-0.0312785
-0.0326661
-0.0367799
-0.0419119
-0.0535907
-0.0608991
-0.0690066
-0.0858206
-0.116659
-0.139087
-0.134447
-0.104974
-0.023462
-0.031495
-0.0257257
-0.0329388
-0.023902
-0.0225431
-0.0310522
-0.025722
-0.0273717
-0.0319653
-0.0413181
-0.0553708
-0.0712552
-0.0941879
-0.132146
-0.174283
-0.206451
-0.20735
-0.166306
-0.108109
-0.0136739
-0.0225217
-0.032215
-0.0242746
-0.0176547
-0.0217581
-0.0318164
-0.0391278
-0.0579533
-0.0704484
-0.100048
-0.129851
-0.158864
-0.186596
-0.207576
-0.209139
-0.184079
-0.137427
-0.0884086
-0.0494785
-0.0297032
-0.0229772
-0.0187743
-0.0213228
-0.0298117
-0.0391402
-0.0685856
-0.0816259
-0.117003
-0.138926
-0.16365
-0.165074
-0.158155
-0.135767
-0.109098
-0.0774941
-0.0530567
-0.0307538
-0.0164434
-0.00766369
-0.0224948
-0.0128156
-0.0138855
-0.0200622
-0.0264782
-0.0355489
-0.0630687
-0.0986199
-0.151007
-0.192793
-0.222878
-0.219456
-0.184293
-0.133144
-0.0870044
-0.0523421
-0.0301175
-0.0159885
-0.00817877
-0.00417607
-0.0206579
-0.022791
-0.0292081
-0.0359695
-0.0397812
-0.0375771
-0.0331248
-0.0277071
-0.0233533
-0.0200507
-0.0176961
-0.0158812
-0.0149359
-0.0153331
-0.0152378
-0.0141435
-0.0137754
-0.0156749
-0.0247825
-0.0368784
-0.00202969
-0.0112367
-0.0129168
-0.0193187
-0.0250172
-0.0246378
-0.0248263
-0.0238882
-0.0235418
-0.0220359
-0.0196077
-0.016849
-0.0181734
-0.0299433
-0.0389809
-0.0282673
-0.0177615
-0.0188355
-0.0287531
-0.0336191
-0.00239479
-0.0075642
-0.0120058
-0.0158536
-0.0213579
-0.0258782
-0.0334808
-0.0358267
-0.0383828
-0.0396057
-0.0411431
-0.0399332
-0.0366962
-0.028982
-0.0183528
-0.0113102
-0.00969967
-0.0111444
-0.0153645
-0.0138153
-0.00277148
-0.00711753
-0.0156764
-0.0227055
-0.0271069
-0.0289757
-0.0387622
-0.0431315
-0.0489684
-0.0514082
-0.0535317
-0.049337
-0.0381786
-0.0251173
-0.0140956
-0.0080073
-0.00592826
-0.005461
-0.00540438
-0.00377503
-0.00901588
-0.011198
-0.0230375
-0.0361152
-0.03336
-0.0370112
-0.0508009
-0.062105
-0.0718405
-0.0734549
-0.0650009
-0.0481683
-0.0287184
-0.0145759
-0.00676363
-0.00327765
-0.00209665
-0.00157101
-0.00124425
-0.000742569
-0.0056974
-0.0119532
-0.0340183
-0.0503386
-0.0449148
-0.0467382
-0.0490858
-0.0450628
-0.0411541
-0.0412901
-0.0392719
-0.0347247
-0.0260692
-0.0163587
-0.00895676
-0.00401585
-0.00182817
-0.000881961
-0.000455393
-0.000215953
-0.00607442
-0.0187526
-0.0378125
-0.0530174
-0.0497605
-0.0513799
-0.0499011
-0.0285019
-0.0140492
-0.0132846
-0.0159568
-0.0143673
-0.0104627
-0.00633761
-0.00339607
-0.00168702
-0.000808533
-0.000386827
-0.000190188
-8.66721e-05
-0.00789919
-0.00989732
-0.0116067
-0.0193774
-0.0357262
-0.047187
-0.055524
-0.0292425
-0.0163325
-0.0215732
-0.0406487
-0.0526848
-0.043617
-0.0274727
-0.0110623
-0.00457133
-0.00191648
-0.000770927
-0.00032678
-0.000131414
-0.00504598
-0.00996168
-0.0148964
-0.0274619
-0.0529585
-0.0623998
-0.0670065
-0.0515888
-0.0182358
-0.0194968
-0.0267881
-0.0417087
-0.0568522
-0.0538206
-0.0225034
-0.0043338
-0.00170056
-0.000771569
-0.000481655
-0.00027193
-0.00455816
-0.00749535
-0.0119521
-0.0169991
-0.0323964
-0.050437
-0.0767419
-0.0495587
-0.0252789
-0.0144816
-0.0179048
-0.0361893
-0.0352595
-0.0314766
-0.0172389
-0.00316279
-0.00128422
-0.000629516
-0.000473743
-0.000296383
-0.00439906
-0.00757016
-0.00830724
-0.0115153
-0.0226624
-0.0364277
-0.0631762
-0.0874977
-0.0647289
-0.0244549
-0.0305159
-0.0416888
-0.0562927
-0.0287806
-0.00887838
-0.00142308
-0.000618897
-0.000399661
-0.000397022
-0.000277927
-0.00285765
-0.00639403
-0.0123094
-0.0128194
-0.0199243
-0.0242102
-0.0359987
-0.049173
-0.0565431
-0.0593512
-0.0614656
-0.095721
-0.0905292
-0.0333952
-0.0037226
-0.00129826
-0.00114978
-0.00100235
-0.000839331
-0.000520434
-0.00353707
-0.00350434
-0.00537201
-0.00903589
-0.0163782
-0.0272049
-0.033268
-0.0444685
-0.0552326
-0.0721919
-0.0791512
-0.0624391
-0.0323592
-0.0154437
-0.00997681
-0.00820945
-0.00667627
-0.00519288
-0.00357383
-0.00210621
-0.00534269
-0.00653096
-0.00696664
-0.00998103
-0.0186182
-0.0303394
-0.0462891
-0.060414
-0.0724654
-0.0785467
-0.0835328
-0.0868339
-0.0860177
-0.0732798
-0.0463609
-0.0282919
-0.0216974
-0.0176371
-0.0129389
-0.00819654
-0.00536632
-0.011274
-0.0136808
-0.0198988
-0.0255182
-0.0297709
-0.0407509
-0.0452672
-0.0554735
-0.0584854
-0.0629367
-0.0615379
-0.0582521
-0.0470177
-0.0402008
-0.0404902
-0.0419722
-0.0399261
-0.0314816
-0.0204651
-0.00583364
-0.0157984
-0.0146022
-0.019153
-0.0196516
-0.0232758
-0.0330308
-0.033836
-0.0391855
-0.0358355
-0.0374956
-0.0366167
-0.0401425
-0.0466498
-0.0558165
-0.0679205
-0.0765766
-0.0773254
-0.0637198
-0.04191
-0.0254582
-0.0167385
-0.0143368
-0.0169245
-0.0175478
-0.0229022
-0.0274027
-0.0259434
-0.0268098
-0.0272374
-0.0335886
-0.0476679
-0.066172
-0.0882435
-0.107608
-0.121786
-0.123863
-0.102765
-0.0667116
-0.0352027
-0.00872038
-0.0131509
-0.0160972
-0.0143685
-0.0160375
-0.024248
-0.0300436
-0.0359807
-0.0410263
-0.0477605
-0.0569356
-0.0701133
-0.0929487
-0.105285
-0.10679
-0.0894588
-0.0637252
-0.0376968
-0.0195359
-0.008652
-0.0088341
-0.0140835
-0.0168524
-0.0211809
-0.0294276
-0.0446783
-0.0624861
-0.0767331
-0.0940211
-0.0901204
-0.0844143
-0.065158
-0.0476975
-0.0313005
-0.0206663
-0.0128679
-0.00836367
-0.00439099
-0.00214145
-0.000882824
-0.0258877
-0.0138051
-0.0129645
-0.0181489
-0.0267034
-0.0386641
-0.058252
-0.0856108
-0.122594
-0.148615
-0.155201
-0.132071
-0.0922868
-0.0538259
-0.0275565
-0.0128865
-0.00570174
-0.00236365
-0.000938312
-0.000356271
-0.0168541
-0.0124832
-0.0192658
-0.0260356
-0.0293147
-0.0276824
-0.0241444
-0.0205126
-0.018651
-0.0175418
-0.0163167
-0.0147039
-0.0131575
-0.0122429
-0.0121762
-0.0121838
-0.0118665
-0.0113961
-0.011713
-0.0125824
-0.00156954
-0.0101097
-0.0130596
-0.0165791
-0.0178659
-0.0183237
-0.019145
-0.0199767
-0.020737
-0.0197963
-0.0172266
-0.0135838
-0.0103788
-0.00972966
-0.0125713
-0.0106922
-0.00848188
-0.00779983
-0.00793097
-0.00747802
-0.00640742
-0.00927384
-0.0107215
-0.0130342
-0.0161364
-0.0196092
-0.0238557
-0.025807
-0.0268821
-0.0253995
-0.022317
-0.0178381
-0.0135601
-0.0096643
-0.00648333
-0.00500794
-0.00447344
-0.00392558
-0.00342582
-0.00251848
-0.00318337
-0.00830765
-0.0107815
-0.0137785
-0.0158236
-0.0172706
-0.0216507
-0.0245459
-0.0286933
-0.0283937
-0.0249743
-0.0180331
-0.0105773
-0.00575011
-0.00319713
-0.00223887
-0.00183942
-0.00145715
-0.00110014
-0.000650689
-0.0130271
-0.0110248
-0.0153431
-0.0205689
-0.0215538
-0.0236573
-0.0310657
-0.0362497
-0.0388506
-0.0353157
-0.0262863
-0.0159805
-0.00754936
-0.00318655
-0.00145564
-0.00086218
-0.000606923
-0.000417204
-0.000270748
-0.000140686
-0.00797815
-0.0143891
-0.0240133
-0.0297533
-0.0282357
-0.0272969
-0.0271351
-0.0229999
-0.0189741
-0.0153298
-0.0113828
-0.00777993
-0.00478581
-0.00252104
-0.00120205
-0.000534245
-0.000267215
-0.000140106
-7.40757e-05
-3.478e-05
-0.00834514
-0.0173986
-0.0248153
-0.0359818
-0.0352639
-0.0345668
-0.0316245
-0.0213191
-0.0132129
-0.00787292
-0.00569348
-0.00373187
-0.00236849
-0.00119985
-0.000562806
-0.000235915
-0.000106274
-5.00825e-05
-2.39162e-05
-1.06922e-05
-0.0126627
-0.00958454
-0.00891454
-0.0164214
-0.0279819
-0.0335045
-0.0398125
-0.0291958
-0.0150456
-0.00931627
-0.0207486
-0.0277851
-0.0172182
-0.00960461
-0.00381892
-0.00143941
-0.000536234
-0.000188839
-6.67264e-05
-2.31478e-05
-0.00408569
-0.00544646
-0.0125036
-0.0265166
-0.0442309
-0.0451311
-0.0459731
-0.0350313
-0.0222592
-0.0142597
-0.0251497
-0.0383571
-0.0431889
-0.0284395
-0.00755158
-0.00134701
-0.000473461
-0.00016813
-6.5759e-05
-2.40359e-05
-0.00322625
-0.00664686
-0.0119056
-0.0200495
-0.0327324
-0.0446615
-0.053761
-0.037066
-0.0256179
-0.013432
-0.0182545
-0.0276374
-0.0217629
-0.0126689
-0.0047956
-0.000856205
-0.000308236
-0.000111615
-4.98945e-05
-2.03755e-05
-0.00228443
-0.00437353
-0.0090844
-0.0158954
-0.0246436
-0.0350945
-0.0505149
-0.0544944
-0.0524028
-0.0329084
-0.0277677
-0.0391632
-0.0463312
-0.0190924
-0.0038598
-0.000485373
-0.000171076
-7.31941e-05
-4.23236e-05
-2.06529e-05
-0.00338734
-0.00426374
-0.00799677
-0.0119553
-0.0180464
-0.0215802
-0.0288887
-0.0341742
-0.0370779
-0.0336987
-0.0324999
-0.0646696
-0.0673711
-0.0149639
-0.00135367
-0.000573433
-0.000435483
-0.000311844
-0.000204978
-0.000105219
-0.00165051
-0.00239365
-0.00589268
-0.00971161
-0.015203
-0.0221562
-0.0242828
-0.0306701
-0.0377705
-0.0495114
-0.0532956
-0.0341296
-0.0139631
-0.0069235
-0.00466409
-0.00357905
-0.00264371
-0.00187538
-0.0011685
-0.000623671
-0.00526586
-0.00599508
-0.00778985
-0.0113585
-0.0170319
-0.0264293
-0.0355891
-0.0475551
-0.0557339
-0.0600651
-0.0584185
-0.0547618
-0.0472666
-0.0336646
-0.0194091
-0.0118973
-0.00881579
-0.00670601
-0.00446473
-0.00255029
-0.00684006
-0.0131463
-0.0158898
-0.0195363
-0.0238707
-0.0311637
-0.0375447
-0.043452
-0.0495498
-0.0475668
-0.044494
-0.036495
-0.0308784
-0.0232918
-0.0205464
-0.0207393
-0.0199974
-0.01724
-0.0121535
-0.00712594
-0.0141096
-0.0148448
-0.0176457
-0.0205145
-0.0245121
-0.0275386
-0.0343398
-0.0337392
-0.0365486
-0.0305115
-0.0278755
-0.0237573
-0.024403
-0.0283842
-0.0333093
-0.0371244
-0.0387717
-0.0352512
-0.0261094
-0.0154387
-0.00946122
-0.0139159
-0.0151991
-0.0172474
-0.0213714
-0.027021
-0.0299188
-0.0280608
-0.0256042
-0.0211696
-0.0200784
-0.0231476
-0.0322001
-0.0432046
-0.0551105
-0.0590048
-0.0538752
-0.0384553
-0.0217785
-0.0103503
-0.00275203
-0.00878677
-0.0128581
-0.0157879
-0.0218259
-0.0334904
-0.0398348
-0.0434115
-0.040308
-0.0335412
-0.0260472
-0.0229726
-0.0282078
-0.0331013
-0.0324145
-0.0240955
-0.0152536
-0.00816014
-0.00398839
-0.00167562
-0.0249933
-0.0128772
-0.0186629
-0.0309787
-0.0403121
-0.0541274
-0.0657794
-0.0691415
-0.0709613
-0.0615806
-0.0476296
-0.029904
-0.0159213
-0.00780897
-0.00425488
-0.00255499
-0.00164906
-0.000858582
-0.000418247
-0.000174378
-0.0324141
-0.0186697
-0.014824
-0.0225377
-0.0309495
-0.0386
-0.052651
-0.0718396
-0.0948791
-0.108599
-0.105062
-0.0818937
-0.0515973
-0.0270348
-0.0125415
-0.00537283
-0.00219273
-0.000861412
-0.00032631
-0.000120015
-0.0128723
-0.0113358
-0.0142386
-0.0185877
-0.020036
-0.0178366
-0.0165798
-0.0161601
-0.0160352
-0.0154653
-0.0144287
-0.0131791
-0.0119013
-0.0108699
-0.010548
-0.0108312
-0.0106325
-0.00952519
-0.00727695
-0.00462155
-0.00487125
-0.0100643
-0.0133448
-0.0150643
-0.0156788
-0.0163767
-0.0171155
-0.0170687
-0.0161586
-0.0144879
-0.0124595
-0.010353
-0.00842043
-0.00702431
-0.00655696
-0.00626035
-0.00602734
-0.004976
-0.00337797
-0.00193026
-0.001673
-0.010004
-0.0113763
-0.0135288
-0.016046
-0.0178807
-0.0191423
-0.0187123
-0.0175537
-0.0152571
-0.012689
-0.0101191
-0.00803248
-0.00640933
-0.00511878
-0.00413714
-0.00334299
-0.0023814
-0.00144364
-0.000730556
-0.00201143
-0.00914861
-0.0115459
-0.0127035
-0.0141413
-0.0156839
-0.0174094
-0.0178902
-0.0178923
-0.0158053
-0.0125844
-0.00899163
-0.00595798
-0.00391775
-0.00257774
-0.00191145
-0.00141576
-0.000904757
-0.000506402
-0.000235153
-0.00608074
-0.0119606
-0.0131237
-0.0150214
-0.0163327
-0.0173741
-0.0201307
-0.0204488
-0.0191884
-0.015859
-0.0113363
-0.00719887
-0.00415993
-0.00246226
-0.00152728
-0.000987474
-0.000617604
-0.000347869
-0.000178183
-7.90226e-05
-0.00896376
-0.015271
-0.0167416
-0.0183623
-0.0186337
-0.0186032
-0.018464
-0.0166201
-0.0137396
-0.0108449
-0.00726264
-0.00439786
-0.00237338
-0.00126183
-0.000677137
-0.000387463
-0.000217523
-0.000111712
-5.34129e-05
-2.25567e-05
-0.0102058
-0.016653
-0.0206264
-0.0239948
-0.0231195
-0.0224397
-0.0206818
-0.0169367
-0.0118952
-0.00750379
-0.00337355
-0.00162616
-0.000727484
-0.000373446
-0.000187096
-9.92454e-05
-5.30671e-05
-2.60618e-05
-1.21107e-05
-4.95122e-06
-0.00914885
-0.00745724
-0.0115808
-0.0184027
-0.0229343
-0.0228943
-0.0250381
-0.0193101
-0.0118038
-0.00578601
-0.00629254
-0.00667939
-0.00314213
-0.00168957
-0.000590328
-0.000205495
-7.63375e-05
-2.66574e-05
-9.64998e-06
-3.34618e-06
-0.00663239
-0.00808789
-0.0150224
-0.022206
-0.027495
-0.0258731
-0.0257894
-0.0231063
-0.0148424
-0.00815375
-0.0186895
-0.0222203
-0.0144437
-0.00675727
-0.0012471
-0.000166391
-4.90981e-05
-1.66107e-05
-6.4925e-06
-2.09391e-06
-0.0047733
-0.00866366
-0.0146649
-0.0200808
-0.0255252
-0.0264833
-0.0244246
-0.0188235
-0.0129832
-0.01026
-0.0105158
-0.00996687
-0.00928901
-0.00588793
-0.00105567
-0.000112339
-3.42158e-05
-1.12874e-05
-4.70744e-06
-1.59184e-06
-0.00116753
-0.00339361
-0.00967551
-0.0157409
-0.0195837
-0.0238856
-0.0282412
-0.0301467
-0.0280956
-0.025142
-0.0134118
-0.0282071
-0.00812106
-0.00131789
-0.000306409
-5.2497e-05
-1.86587e-05
-8.50166e-06
-4.77123e-06
-2.00272e-06
-0.00111455
-0.0039342
-0.00873667
-0.0126913
-0.0160709
-0.0177212
-0.0199561
-0.021456
-0.0196003
-0.0173684
-0.0296049
-0.0420926
-0.0264479
-0.00142766
-0.00015335
-0.000138219
-9.45863e-05
-6.24595e-05
-3.88462e-05
-1.81315e-05
-0.00368787
-0.00418838
-0.00770367
-0.0117986
-0.0163855
-0.0227631
-0.0231011
-0.0265868
-0.0312699
-0.0364687
-0.0283791
-0.015293
-0.00607031
-0.00252546
-0.00137683
-0.000993311
-0.000664358
-0.000434375
-0.00025239
-0.000126776
-0.00665909
-0.0080302
-0.0113891
-0.0153943
-0.0195863
-0.0260523
-0.0301504
-0.0364902
-0.0365917
-0.0339642
-0.0273051
-0.0224291
-0.0165476
-0.0103997
-0.00568613
-0.00333949
-0.00225241
-0.00157605
-0.000977873
-0.000526607
-0.0146598
-0.0136345
-0.0171328
-0.0201067
-0.0222461
-0.0255136
-0.0296382
-0.0280414
-0.0288475
-0.0222655
-0.0188664
-0.0139447
-0.0109138
-0.00768172
-0.00609664
-0.00555771
-0.00512642
-0.00417815
-0.00275646
-0.00151774
-0.0206879
-0.0140089
-0.0169752
-0.0195313
-0.0206626
-0.0220906
-0.0254812
-0.021588
-0.0204453
-0.014998
-0.0125325
-0.00986104
-0.0089044
-0.00891087
-0.00954382
-0.0102509
-0.0106136
-0.00923033
-0.00639911
-0.003529
-0.0162132
-0.0128474
-0.0176581
-0.0227663
-0.0286826
-0.0327208
-0.0318801
-0.0323533
-0.0253727
-0.0200771
-0.0131996
-0.00992722
-0.00940543
-0.0106749
-0.0133811
-0.0140296
-0.0119875
-0.00774871
-0.00402497
-0.00179839
-0.00145576
-0.00709459
-0.0140352
-0.0239786
-0.0328917
-0.0407092
-0.0453282
-0.0466507
-0.0438889
-0.0359262
-0.0239848
-0.0138337
-0.00764325
-0.00551088
-0.00471534
-0.00337173
-0.00217096
-0.00117071
-0.000586323
-0.000250911
-0.0108989
-0.0125832
-0.0248391
-0.0341039
-0.0403296
-0.04319
-0.0495196
-0.0541143
-0.0569396
-0.0530667
-0.0413598
-0.0257433
-0.0131592
-0.00590777
-0.00248238
-0.0010684
-0.000498272
-0.000228145
-0.000103429
-4.34879e-05
-0.0220736
-0.00723501
-0.0151782
-0.0238261
-0.0290837
-0.034068
-0.0434961
-0.0555048
-0.0681502
-0.0732596
-0.0656347
-0.0467888
-0.0271827
-0.0134627
-0.00607034
-0.00258435
-0.00106263
-0.000428463
-0.000170049
-6.74704e-05
-0.0155477
-0.0199378
-0.0203664
-0.0142754
-0.0160805
-0.0223083
-0.0254461
-0.0318549
-0.0239533
-0.0366242
-0.0183569
-0.0279208
-0.026435
-0.0335126
-0.0248703
-0.056445
-0.0519168
-0.0328365
-0.0331494
-0.0469767
-0.0311149
-0.0385878
-0.0502768
-0.0699184
-0.0314869
-0.0343103
-0.0298449
-0.0473628
-0.197403
-0.179818
-0.187934
-0.158821
-0.168142
-0.161057
-0.110408
-0.199891
-0.191648
-0.191461
-0.196609
-0.162875
-0.129981
-0.164522
-0.129189
-0.183691
-0.146851
-0.10062
-0.0723354
-0.132436
-0.033077
-0.111386
-0.131644
-0.106595
-0.0999608
-0.0964028
-0.0338524
-0.0432207
-0.103319
-0.0971815
-0.102821
-0.0874733
-0.0721661
-0.0371727
-0.0459404
-0.0819673
-0.103444
-0.0917939
-0.0764563
-0.0788823
-0.0506592
-0.0607579
-0.0354044
-0.0881893
-0.0684426
-0.0811113
-0.0769707
-0.0636614
-0.0786745
-0.0106858
-0.0567133
-0.0281003
-0.0727046
-0.0563147
-0.0783661
-0.061861
-0.183955
-0.112806
-0.153576
-0.123201
-0.108881
-0.0976362
-0.12723
-0.18731
-0.162597
-0.16852
-0.108517
-0.157881
-0.133067
-0.128458
-0.160696
-0.167288
-0.168584
-0.150441
-0.0590541
-0.127625
-0.138199
-0.111173
-0.166793
-0.136458
-0.045127
-0.0437506
-0.129953
-0.0913047
-0.106539
-0.122816
-0.124531
-0.0365257
-0.0456057
-0.0674899
-0.0804823
-0.0922108
-0.114904
-0.0955288
-0.0508663
-0.0622378
-0.101592
-0.112913
-0.0728282
-0.0921653
-0.0752233
-0.0653345
-0.0782407
-0.113293
-0.0947059
-0.0322237
-0.0676789
-0.0409642
-0.0794045
-0.0631258
-0.0851317
-0.0601293
-0.138583
-0.107588
-0.119842
-0.10045
-0.12029
-0.101414
-0.111646
-0.161955
-0.124768
-0.138241
-0.127173
-0.133985
-0.115381
-0.123968
-0.1632
-0.142366
-0.150057
-0.130693
-0.136597
-0.125977
-0.130025
-0.147917
-0.151289
-0.150066
-0.136132
-0.115054
-0.131116
-0.136458
-0.133831
-0.147684
-0.130047
-0.100965
-0.108322
-0.137222
-0.133689
-0.0968129
-0.117106
-0.0932871
-0.125458
-0.125634
-0.129264
-0.117286
-0.0732639
-0.0892924
-0.0662022
-0.119353
-0.0929245
-0.109361
-0.0822025
-0.0411445
-0.0570921
-0.0347723
-0.083142
-0.0552687
-0.0704938
-0.0356914
-0.116789
-0.109159
-0.109464
-0.1044
-0.110243
-0.106136
-0.107785
-0.13018
-0.109925
-0.110876
-0.112719
-0.118783
-0.108523
-0.11013
-0.142491
-0.111098
-0.110988
-0.120626
-0.126059
-0.110461
-0.111556
-0.138783
-0.110404
-0.121944
-0.127623
-0.132637
-0.111836
-0.116473
-0.117965
-0.127771
-0.123731
-0.132382
-0.12482
-0.119516
-0.121164
-0.0921949
-0.120769
-0.0934225
-0.120975
-0.11353
-0.114345
-0.08821
-0.0641513
-0.0910276
-0.0753713
-0.108132
-0.0819416
-0.0799843
-0.0627454
-0.0318134
-0.0769222
-0.0632998
-0.0699958
-0.0369317
-0.058837
-0.0477163
-0.110841
-0.115787
-0.0978065
-0.0789111
-0.0745632
-0.0838238
-0.0681928
-0.0980901
-0.127273
-0.13662
-0.0757876
-0.0277451
-0.0849886
-0.0464061
-0.0310087
-0.087714
-0.0194015
-0.01847
-0.0186432
-0.0255111
-0.0156142
-0.0638887
-0.0199742
-0.028843
-0.0219291
-0.0262249
-0.0150571
-0.0165994
-0.0587715
-0.0276904
-0.0388512
-0.0292446
-0.0385309
-0.0187976
-0.0323199
-0.0688412
-0.0429022
-0.0503989
-0.0438203
-0.0533513
-0.0360467
-0.0373391
-0.0711659
-0.052619
-0.0646329
-0.0571395
-0.0575405
-0.0366056
-0.0392273
-0.0536023
-0.0663107
-0.0546336
-0.0569629
-0.0419133
-0.0408158
-0.0360987
-0.0891234
-0.080357
-0.115882
-0.0833615
-0.0586013
-0.0713683
-0.0892161
-0.142077
-0.121983
-0.114251
-0.0663863
-0.0546153
-0.093608
-0.0639897
-0.0260429
-0.112324
-0.0993019
-0.0358758
-0.0148431
-0.0476957
-0.0196582
-0.0280069
-0.0845954
-0.0525425
-0.0141908
-0.0159366
-0.0167041
-0.0182958
-0.038451
-0.0409686
-0.0544596
-0.0182218
-0.0325202
-0.0225108
-0.0365055
-0.0511968
-0.0658723
-0.0898745
-0.0370107
-0.0401336
-0.0409972
-0.0533465
-0.0629842
-0.0928665
-0.0811846
-0.0384302
-0.0357744
-0.0554066
-0.0413896
-0.0546449
-0.0721441
-0.0496143
-0.0369528
-0.0336756
-0.034657
-0.023593
-0.107511
-0.0531302
-0.0720085
-0.0647316
-0.0863081
-0.0483848
-0.0614494
-0.122694
-0.0790476
-0.0919613
-0.0926023
-0.0869095
-0.0646598
-0.0707164
-0.104038
-0.0951893
-0.100655
-0.0702465
-0.0302009
-0.0712531
-0.0658018
-0.0792179
-0.101807
-0.115816
-0.0236022
-0.0229346
-0.0622067
-0.0616583
-0.069752
-0.119477
-0.125897
-0.0281638
-0.0397088
-0.0624708
-0.0842866
-0.100368
-0.125677
-0.116058
-0.0432811
-0.0586643
-0.0935951
-0.0938314
-0.0834066
-0.106792
-0.0768045
-0.0619782
-0.043589
-0.0862519
-0.0521045
-0.0457958
-0.0645917
-0.0298781
-0.0360978
-0.0201869
-0.0413726
-0.0152661
-0.0611531
-0.0583784
-0.066805
-0.0445505
-0.0530517
-0.0419411
-0.0440857
-0.0731288
-0.0690542
-0.0762757
-0.0550226
-0.0603923
-0.044776
-0.0478787
-0.0933593
-0.0778411
-0.086766
-0.0620125
-0.0650415
-0.0494339
-0.0579382
-0.116403
-0.0936299
-0.109759
-0.0651809
-0.0701153
-0.0626343
-0.0811989
-0.122075
-0.113182
-0.111939
-0.0738514
-0.0984766
-0.0873642
-0.0971109
-0.114405
-0.101897
-0.0815172
-0.104383
-0.103684
-0.0927951
-0.076387
-0.0764491
-0.0737711
-0.0498059
-0.096501
-0.0545535
-0.0677561
-0.0326798
-0.0266331
-0.0390719
-0.0198119
-0.0408436
-0.0139241
-0.0225417
-0.00927367
-0.058123
-0.0754584
-0.0524189
-0.0539302
-0.0437427
-0.0600316
-0.0387272
-0.0202397
-0.0619486
-0.0318985
-0.0351677
-0.0255532
-0.0338442
-0.0273682
-0.0171372
-0.0211906
-0.016272
-0.0217868
-0.0155565
-0.025904
-0.0172732
-0.0238078
-0.0152724
-0.0160969
-0.015877
-0.0218236
-0.0148212
-0.0160512
-0.0364929
-0.0183114
-0.0313978
-0.0247708
-0.0341377
-0.0183423
-0.0270162
-0.0529225
-0.034907
-0.0347928
-0.0387417
-0.0464076
-0.0291517
-0.0274519
-0.0552551
-0.0333726
-0.0351151
-0.0492669
-0.0405355
-0.0250532
-0.0226532
-0.0368485
-0.0364774
-0.0303682
-0.0366288
-0.0198124
-0.0223463
-0.0156619
-0.0485224
-0.068903
-0.0826651
-0.0608155
-0.0414487
-0.0584763
-0.058618
-0.0357842
-0.0868611
-0.059943
-0.0368365
-0.0295711
-0.0607901
-0.0564675
-0.0153355
-0.0422285
-0.0212555
-0.0273939
-0.0164736
-0.0474472
-0.0253703
-0.0139484
-0.0140325
-0.0141045
-0.0148205
-0.0136786
-0.0140393
-0.0147616
-0.0220639
-0.0215772
-0.0181238
-0.0179683
-0.0220255
-0.0214174
-0.0184268
-0.0379981
-0.0404561
-0.0512007
-0.0310381
-0.0306089
-0.0381414
-0.0467662
-0.0302776
-0.0510909
-0.0337911
-0.0269539
-0.0178605
-0.0438573
-0.0250091
-0.0277582
-0.0280315
-0.0181608
-0.0171152
-0.0130367
-0.0193244
-0.0080525
-0.0820704
-0.0438133
-0.0580446
-0.0559631
-0.0615497
-0.0417334
-0.0488863
-0.0809061
-0.061221
-0.0666961
-0.0642803
-0.0660989
-0.0494377
-0.051233
-0.02898
-0.0668818
-0.0602582
-0.0588029
-0.0368801
-0.0516688
-0.049501
-0.0354104
-0.0225399
-0.0362392
-0.0293466
-0.0321907
-0.0298671
-0.0379353
-0.0373482
-0.0336734
-0.0370443
-0.0347368
-0.0384667
-0.0346046
-0.038368
-0.0551797
-0.0803465
-0.0858041
-0.0387844
-0.0505674
-0.0560223
-0.0691302
-0.0349763
-0.0790651
-0.0425165
-0.0482862
-0.0269738
-0.0649303
-0.0262869
-0.0153903
-0.0327938
-0.0111173
-0.0212164
-0.00901243
-0.0167603
-0.00542552
-0.0469469
-0.0296428
-0.0339184
-0.0338932
-0.0397849
-0.0236251
-0.0254786
-0.054828
-0.0353063
-0.04069
-0.0403231
-0.0425389
-0.026265
-0.0304449
-0.0595778
-0.0429155
-0.0527161
-0.0434255
-0.0443854
-0.0323437
-0.0397352
-0.0594298
-0.0571931
-0.0736379
-0.0426162
-0.0327251
-0.0429043
-0.0554031
-0.0881769
-0.0796741
-0.0908367
-0.0348085
-0.0623839
-0.0607655
-0.0697273
-0.0977331
-0.0875767
-0.0726973
-0.0712172
-0.0796536