/*--------------------------------*- C++ -*----------------------------------*\
  =========                 |
  \\      /  F ield         | OpenFOAM: The Open Source CFD Toolbox
   \\    /   O peration     | Website:  https://openfoam.org
    \\  /    A nd           | Version:  10
     \\/     M anipulation  |
\*---------------------------------------------------------------------------*/
FoamFile
{
    format      ascii;
    class       volVectorField;
    location    "1.1";
    object      U;
}
// * * * * * * * * * * * * * * * * * * * * * * * * * * * * * * * * * * * * * //

dimensions      [0 1 -1 0 0 0 0];

internalField   nonuniform List<vector> 
12920
(
(176.051 -43.1894 159.108)
(-68.1836 -57.6571 18.9014)
(113.913 -48.767 15.979)
(-10.4206 -40.892 9.71669)
(90.28 -32.3485 7.09029)
(28.1124 -20.1182 2.4623)
(78.6745 -7.50755 0.0103723)
(50.4309 -1.7299 -2.38378)
(74.9679 3.77804 -3.08018)
(66.4441 3.83659 -4.63317)
(81.5003 5.69101 -5.39994)
(82.9786 5.74588 -6.11957)
(92.2559 8.77268 -5.36692)
(90.1127 11.5781 -3.81452)
(76.4019 18.7552 -1.91207)
(50.469 23.6379 -6.39975)
(44.0394 23.6091 -9.30319)
(48.7047 20.3864 -8.56208)
(58.4041 14.9614 -3.78507)
(53.1687 10.3418 -0.942924)
(114.044 249.353 99.1114)
(-162.679 -4.16449 -7.07088)
(142.733 -54.1563 -12.7439)
(1.63783 -25.2581 0.8643)
(86.5309 -31.479 5.62659)
(14.005 -11.2122 1.46198)
(64.8438 -2.4079 1.61315)
(28.3323 6.11961 -2.41671)
(58.1691 11.9007 -2.80524)
(46.1962 15.981 -4.81982)
(64.7469 19.6341 -4.86757)
(65.8817 20.6937 -5.6245)
(75.8452 22.8647 -2.05898)
(71.3446 22.4469 0.844201)
(56.1798 21.1834 4.53196)
(37.9289 17.8098 3.15783)
(35.3503 18.2482 0.338357)
(40.5389 14.7108 0.142137)
(43.7566 11.9759 0.84952)
(36.8517 8.23737 1.934)
(54.5324 -167.901 244.281)
(24.2196 -65.2355 -18.6962)
(119.692 -101.677 -6.64968)
(19.0511 -49.9317 -10.7504)
(84.1464 -62.2961 -0.633948)
(28.2913 -29.5197 -1.79233)
(67.5683 -22.4937 1.59515)
(30.1571 3.23794 -1.1372)
(53.0903 8.44573 -1.49789)
(38.644 15.491 -2.05575)
(51.5144 14.5104 -0.118178)
(43.4146 15.3404 0.572451)
(44.8127 12.1017 2.97563)
(34.1167 11.4927 3.60367)
(30.0969 11.5694 2.99497)
(25.7722 12.0831 1.84448)
(25.7036 14.3823 1.45442)
(25.9496 15.2515 1.37352)
(25.3432 15.1241 1.56103)
(22.0014 9.96995 1.09042)
(212.819 169.319 -183.449)
(110.614 87.9471 -49.8576)
(166.901 3.6758 -10.8211)
(83.0208 13.6329 -2.00312)
(98.0474 -5.49744 6.15818)
(36.1732 0.561089 2.00843)
(61.2825 0.0173777 3.31894)
(23.3867 10.8947 1.4342)
(40.2303 13.7701 1.35644)
(19.0213 16.549 1.21317)
(27.9911 14.0495 2.36673)
(15.6034 13.3648 3.36675)
(15.7319 11.4714 3.56344)
(6.84763 10.6452 3.038)
(6.0741 10.5115 2.32542)
(3.76091 9.91679 1.43258)
(4.85651 11.4623 0.927714)
(7.84972 10.7518 0.800569)
(9.73838 10.6084 0.661884)
(13.9248 5.81865 0.331643)
(41.8463 237.307 -28.323)
(-148.984 78.9022 6.32589)
(44.1096 -14.3908 15.1306)
(-109.778 -17.0968 2.2367)
(41.6927 -30.8876 -1.7431)
(-51.823 -16.9168 2.87246)
(23.4906 -18.662 2.38123)
(-16.5343 7.42923 3.48783)
(21.4367 3.78447 3.48533)
(0.704512 15.6224 3.33917)
(15.2124 6.6042 3.00438)
(3.26151 8.12028 2.66156)
(7.01176 1.72093 1.8514)
(2.07628 3.80558 1.15719)
(4.62701 2.51172 0.671631)
(4.30412 4.69403 0.391426)
(6.16715 6.43822 0.326025)
(8.62881 6.90894 0.259228)
(10.4354 7.20266 0.206919)
(13.7464 5.02245 0.121203)
(-67.9243 -9.76882 -4.15909)
(-159.037 -3.2916 -40.1172)
(62.9687 -43.1433 5.87763)
(-121.637 -16.8326 -2.12073)
(68.4437 -26.9785 -11.2826)
(-29.6165 -4.33672 2.41588)
(39.1689 -32.9864 2.26658)
(-5.74415 -7.49817 3.57918)
(19.6865 -15.9208 2.35311)
(0.865319 4.74961 1.81345)
(7.79459 -1.78593 1.28205)
(0.370118 5.18335 1.30102)
(2.15589 2.8735 0.98473)
(0.114695 4.56338 0.763197)
(0.405972 4.46106 0.586629)
(1.76282 4.80409 0.33379)
(2.99968 6.33749 0.23735)
(6.42746 5.18948 0.0969829)
(7.28674 5.68006 0.044878)
(11.3046 3.43912 0.0396672)
(13.1983 50.5712 104.333)
(-87.7553 34.6635 -31.0812)
(68.5888 -5.75645 -4.38066)
(-69.491 -19.9579 4.4162)
(56.7852 -47.1471 -2.15916)
(-27.1888 -7.9909 0.778845)
(30.9198 -57.64 0.24089)
(-30.6637 3.18724 2.26894)
(-16.2189 -19.3059 0.258117)
(-34.3921 11.7933 -0.835271)
(-25.2264 -4.72882 0.887937)
(-21.8914 1.62003 0.494635)
(-12.235 -6.38036 0.182494)
(-9.14403 -1.66113 0.161383)
(-2.46267 -3.62922 0.160614)
(0.263455 -0.517214 0.0458528)
(4.30578 1.2782 0.0918886)
(6.89566 2.17526 0.0259601)
(8.31305 3.10864 0.0212285)
(11.7472 2.35069 0.0295743)
(-43.8095 98.7889 43.6488)
(-108.3 -24.4968 -22.4381)
(74.7949 -19.6445 -6.68814)
(33.7308 -41.3198 0.175558)
(94.6284 -45.9393 3.85207)
(41.3645 -0.996965 2.43243)
(54.5761 -28.1934 0.17245)
(-15.4623 7.22414 1.34252)
(-42.8178 -17.4759 0.21229)
(-45.6035 20.3116 -0.0108777)
(-32.2163 -6.28475 1.51432)
(-25.0453 -5.26742 1.56075)
(-10.9718 -3.51061 -0.773188)
(-6.01464 -2.6993 -0.297274)
(1.60379 -6.19382 0.0369824)
(6.27322 -3.22398 0.100455)
(5.01315 0.457777 0.0989603)
(7.94139 0.772327 0.0742031)
(8.05313 1.8818 0.0834148)
(11.1789 1.22279 0.0464965)
(238.714 231.588 -285.605)
(84.9169 45.0046 -31.7849)
(157.532 -24.1631 18.1127)
(58.7846 -49.4669 13.0533)
(79.4397 -48.7687 14.8452)
(-2.66108 -3.36171 2.04124)
(17.7747 -0.585598 1.75124)
(6.0427 17.9315 1.81916)
(-29.5432 9.99534 -0.478504)
(-33.7312 4.55417 -0.563322)
(-18.6575 -25.6894 0.542312)
(-8.10741 -36.4555 1.36293)
(-5.89913 -19.2872 2.34762)
(-5.04691 -3.56522 -1.62114)
(5.64665 -4.22485 -0.173719)
(6.68384 -6.55377 0.186479)
(9.43743 -1.70133 0.144835)
(8.65073 -1.50071 0.19403)
(9.16 0.258304 0.195457)
(10.8544 0.144835 0.10302)
(153.982 82.3761 -21.6987)
(60.67 -36.3008 -58.0222)
(239.491 -72.2735 0.449068)
(199.666 -70.263 4.3947)
(184.676 -33.8356 19.134)
(65.0905 -16.5342 5.44649)
(13.4795 11.2282 0.830974)
(24.5883 27.5703 -2.07244)
(6.68268 21.2101 1.25236)
(-2.75133 20.3686 -0.365143)
(-18.0505 -4.51985 -2.03991)
(1.49006 -26.1913 0.0503513)
(6.99999 -32.2557 -0.898399)
(11.8731 -25.9881 2.50579)
(14.1883 -6.89816 -0.374756)
(11.5369 -3.55763 0.211679)
(10.8925 -2.85854 0.192089)
(10.3298 -1.39767 0.211828)
(9.62355 -0.741369 0.247662)
(11.1981 -0.277072 0.113154)
(288.159 249.491 -92.9987)
(219.04 75.2314 -10.6509)
(229.334 -81.2239 27.8761)
(79.902 -57.0819 12.6962)
(95.2034 5.4144 10.7459)
(35.8786 13.8198 3.21761)
(38.5301 17.2577 3.16162)
(36.5377 27.0277 1.58481)
(30.8951 24.2089 -0.945517)
(32.1434 15.0391 0.132781)
(7.12788 18.8754 1.68486)
(6.75679 -32.9579 1.8839)
(6.53087 -38.5062 -1.90989)
(22.2287 -20.7328 -0.342965)
(16.056 -6.80354 -0.4914)
(11.9313 -4.0049 -0.106336)
(11.471 -1.82955 0.138783)
(10.7489 -2.66641 0.200155)
(10.2982 -1.49432 0.246171)
(11.6617 -1.28652 0.118125)
(228.506 -86.4965 -16.1571)
(278.003 -126.913 -1.3545)
(313.478 -73.7922 21.6584)
(107.739 -25.071 13.7122)
(118.48 12.8266 10.1769)
(59.8945 1.0394 0.480931)
(56.2496 10.6592 1.50889)
(36.8382 13.7133 0.370719)
(28.3384 14.9571 0.447962)
(27.8918 19.3275 0.489472)
(42.0628 -2.96669 1.10677)
(18.1955 -18.9532 3.70446)
(6.80255 -21.3742 -2.08508)
(17.5114 -14.4771 -0.440591)
(11.5489 -3.7149 0.431621)
(8.16629 -0.12185 0.00428715)
(10.9184 -2.36338 0.0449719)
(10.2679 -2.30489 0.13471)
(10.6812 -2.29234 0.162076)
(12.2398 -1.524 0.100678)
(182.236 -132.085 5.80674)
(-47.6685 -13.874 5.50629)
(132.598 -1.50299 -13.9084)
(-13.0142 18.1242 -3.10916)
(84.0531 22.8761 -2.86204)
(24.0599 -19.6198 1.04307)
(71.5299 25.391 0.369522)
(61.1337 13.3829 1.42947)
(73.0937 13.9213 1.81202)
(36.0333 2.24493 4.85337)
(21.3421 -11.8204 -1.78913)
(9.16119 -16.3514 -2.87371)
(11.728 -8.36922 -0.879226)
(10.1899 -5.45928 0.0807749)
(9.66919 -2.6712 0.608887)
(11.4547 -2.90855 0.163749)
(10.0005 -3.43042 -0.0985326)
(11.498 -4.00867 -0.111341)
(11.5874 -3.75986 -0.0814259)
(13.7454 -2.48554 -0.014764)
(170.325 -136.923 84.4123)
(44.2049 16.2404 -5.21429)
(128.478 16.8793 -15.6554)
(53.701 23.8404 -6.4161)
(105.182 19.3971 -1.20302)
(61.7269 -3.54616 0.968855)
(81.3081 27.6751 4.70643)
(59.5162 -23.104 4.81081)
(74.5585 1.5272 6.00018)
(70.3456 -25.7564 5.11883)
(81.5731 -12.3877 5.15854)
(77.213 -21.2475 4.79662)
(78.1536 -5.58203 5.07971)
(60.5523 -8.11865 3.40272)
(35.9405 1.91177 1.4701)
(23.4509 -1.77844 -0.57219)
(18.8778 -0.79494 -1.16559)
(16.6187 -3.66171 -0.768919)
(16.4363 -3.39703 -0.300163)
(16.5524 -2.44416 -0.0872876)
(16.9431 -141.053 -76.0346)
(-91.5786 53.5635 -12.4936)
(79.9722 38.2691 -8.22539)
(-49.3016 22.0571 4.86257)
(60.1782 13.808 -0.2083)
(-5.91271 -23.8294 1.79912)
(61.138 -15.456 1.96454)
(31.6083 -40.9081 1.08999)
(59.05 -29.4021 1.94324)
(45.8141 -42.8628 0.243219)
(62.1297 -31.0592 0.351473)
(54.4739 -35.4204 0.526117)
(60.3335 -15.7913 2.41839)
(42.0438 5.14626 1.10367)
(35.4235 20.2375 -1.18516)
(27.0449 14.3487 -2.55948)
(24.6561 7.44885 -2.42582)
(20.0131 -0.187972 -1.6224)
(18.624 -2.84945 -0.435966)
(17.1388 -2.04912 -0.0636716)
(92.7832 191.254 55.4456)
(-162.714 13.227 15.7167)
(112.094 41.0103 -6.70957)
(-2.92318 -4.64579 8.48766)
(82.462 -10.9498 0.76299)
(28.6463 -22.3702 -0.705568)
(63.303 -15.6534 0.198437)
(16.9752 -31.1126 -1.99001)
(40.6668 -15.7758 -2.37176)
(13.2712 -23.9948 -6.39179)
(37.7391 -9.02398 -7.07608)
(27.1428 -12.2603 -7.08095)
(41.8994 1.72656 -5.16064)
(36.062 9.5811 -1.09528)
(43.5239 19.3024 0.126949)
(40.1165 17.149 -0.197205)
(40.3051 13.3462 0.154478)
(31.0183 4.18971 -0.0458334)
(27.0928 -0.018905 0.213257)
(21.8319 -1.01168 0.135809)
(315.785 367.658 -305.202)
(-201.531 -37.587 8.2701)
(120.361 -59.6185 -8.66852)
(-38.3757 -38.1953 10.984)
(69.1135 -19.7825 -2.38365)
(9.50231 -13.7736 0.24371)
(55.9041 -1.84551 0.419755)
(6.31503 -2.64588 1.05526)
(35.3712 4.80739 -1.1572)
(7.63798 0.449695 -4.99907)
(33.727 5.04329 -5.84239)
(23.8411 4.15785 -4.99567)
(40.858 11.5535 -2.92467)
(36.5147 14.7134 0.112306)
(43.4777 18.0197 1.47185)
(39.2594 14.8314 1.90094)
(39.1507 10.6756 2.30057)
(29.3576 5.05472 1.83637)
(24.4461 3.43044 1.00179)
(19.8047 0.617606 0.432487)
(275.821 95.9674 -45.664)
(266.994 55.976 -41.3269)
(251.681 -24.7031 1.82583)
(99.3029 -38.455 12.1022)
(104.04 -22.1638 -0.231035)
(60.4139 -11.9889 -3.81579)
(85.2537 2.13454 -3.76242)
(59.5391 3.55957 -1.73295)
(73.0341 15.2404 1.70515)
(47.2035 14.7798 1.3805)
(54.3849 17.4472 1.98837)
(35.9672 12.2177 1.33091)
(41.8143 12.8562 1.46842)
(31.5348 9.83587 1.53844)
(35.4133 9.20313 2.17636)
(26.4238 5.01684 2.50274)
(26.1215 4.9391 1.76649)
(19.7459 2.32851 0.892948)
(19.3629 2.1636 0.359808)
(18.2886 0.19516 0.1603)
(92.2445 -33.7108 67.2349)
(-13.7545 63.4623 8.61755)
(97.3065 66.3357 12.3148)
(-25.0794 17.8778 -2.67322)
(66.9122 24.3139 -3.92103)
(12.0321 6.67275 0.989377)
(58.8321 9.22406 1.66183)
(26.0692 8.06681 1.59572)
(53.3456 15.043 3.42513)
(25.7446 14.1952 3.09368)
(38.6185 13.4797 3.5695)
(15.5844 7.80267 2.86361)
(24.3885 6.61449 2.35545)
(10.3406 4.42902 1.73298)
(17.5763 5.27315 1.20058)
(11.0015 4.08262 0.671207)
(15.2664 4.07064 0.313564)
(13.7414 2.32481 0.0904411)
(15.8511 2.15327 0.0146249)
(17.1144 0.650331 0.00770114)
(-87.5736 36.0809 6.84519)
(-195.069 -4.71832 -24.0895)
(88.8426 -34.3371 -30.5699)
(6.0411 -17.1793 -2.54903)
(83.6148 -15.4733 -1.08292)
(39.7725 -12.5276 -1.994)
(72.0595 -13.8226 -0.218743)
(32.6657 -8.64132 -0.763014)
(49.9316 -1.04713 3.6961)
(17.3086 6.52776 5.2629)
(31.3687 7.89006 5.38836)
(8.05141 6.586 3.66229)
(18.7388 3.65798 2.19589)
(6.30091 1.74031 1.09396)
(14.8687 0.672458 0.578828)
(9.43525 -0.0214722 0.27889)
(14.5154 0.0367359 0.108326)
(13.3211 -0.108289 0.0593235)
(15.3807 -0.0611173 0.0201671)
(16.726 -0.233817 0.0167635)
(104.781 -84.1656 153.607)
(-142.291 -62.6845 15.2656)
(105.149 -36.8051 9.94152)
(-20.3042 -27.2693 16.099)
(87.7229 -23.7695 11.9015)
(29.3188 -18.3958 6.24929)
(80.0349 -10.6808 2.08726)
(53.1968 -8.23899 -3.7333)
(76.7098 -4.1573 -5.5865)
(66.9125 -5.79707 -8.87299)
(80.3576 -5.41689 -9.34348)
(79.6671 -7.54672 -10.3315)
(89.5172 -8.24709 -9.36862)
(96.0496 -9.39797 -4.20067)
(98.6231 -7.17139 2.39349)
(89.8771 -1.6954 2.64736)
(62.5777 10.4763 -6.10498)
(46.8229 12.9227 -11.796)
(45.1997 11.2411 -8.75324)
(39.3708 6.26321 -1.69088)
(344.316 24.8831 -157.016)
(-65.1614 -1.89908 0.592659)
(118.255 -11.398 -19.6267)
(-43.0324 4.10017 9.95652)
(74.9285 -14.1555 7.38449)
(-2.21703 -2.62639 2.05151)
(57.8912 -0.428143 3.13028)
(15.326 2.53901 -2.88794)
(42.9381 6.32323 -3.21202)
(19.5761 6.36836 -5.91776)
(32.1538 8.3754 -4.88199)
(21.271 7.06756 -4.40236)
(29.1941 8.17046 -0.482335)
(30.318 8.49817 6.61793)
(29.997 8.12454 12.4938)
(21.5863 6.90038 9.65795)
(18.2903 10.0306 2.68244)
(22.1688 8.53594 -1.4402)
(27.5946 8.22947 0.696531)
(27.5583 5.94798 3.09839)
(231.43 -120.593 -43.5694)
(-76.3165 -10.8717 -39.6529)
(90.5847 -70.7966 -4.04627)
(-44.8167 -25.2679 -6.58822)
(59.4158 -50.6357 -0.632462)
(-3.17656 -18.0848 -1.80175)
(53.4148 -20.585 3.51199)
(16.4859 -4.67317 0.956422)
(39.934 -6.2433 2.1233)
(15.4333 -1.6496 0.652551)
(26.3415 -4.87428 2.80096)
(13.2179 -3.88624 3.77375)
(17.4824 -4.86674 6.14689)
(11.513 -3.39541 6.81077)
(13.3213 -1.19882 5.52226)
(10.8705 3.67513 2.68741)
(13.9474 9.71744 0.953034)
(16.5508 11.6962 0.380549)
(19.2925 12.538 1.47821)
(19.8787 8.96421 1.37112)
(147.681 152.694 -178.275)
(34.3102 91.6982 -12.6838)
(96.9853 -12.8473 4.19645)
(3.37163 -7.32912 1.15467)
(65.2233 -23.7743 6.5644)
(9.93333 -8.28136 -0.26945)
(54.5387 -10.3386 3.04377)
(24.1946 0.236498 1.81098)
(44.2448 1.55301 3.57973)
(20.5169 5.02219 2.69311)
(25.4408 3.57808 3.02719)
(7.94069 4.5171 3.69259)
(9.34995 4.65748 3.93003)
(2.22494 5.8498 3.37217)
(2.58001 7.05392 2.64583)
(0.764266 7.90607 1.61953)
(2.76524 9.91958 0.874736)
(6.70462 9.46029 0.534126)
(9.23576 9.80614 0.483995)
(14.2399 5.55117 0.488262)
(-6.25275 -188.812 -4.57097)
(-220.957 38.1484 1.88374)
(37.7704 -16.8035 -4.88184)
(-89.2826 -17.7355 1.02289)
(32.4239 -33.3676 -6.60708)
(-52.1895 -16.7033 2.61641)
(22.7802 -26.9815 1.84498)
(-13.1553 -1.71019 3.90212)
(24.0827 -4.3532 3.48673)
(3.5987 8.84651 3.60662)
(16.1886 1.67456 3.21295)
(3.23351 4.02074 2.96867)
(6.69064 -1.34415 2.52213)
(1.91289 1.45322 1.63109)
(4.58901 0.573958 0.920335)
(4.30631 3.5244 0.451903)
(6.41094 6.0079 0.252203)
(8.83627 6.80018 0.141616)
(10.817 7.20267 0.13474)
(14.3559 5.02717 0.145647)
(141.4 -104.315 56.5173)
(-132.271 -8.79228 -16.1029)
(61.2865 -41.698 -6.59388)
(-56.3358 -25.3114 -1.16604)
(48.7174 -31.6101 -12.3309)
(-44.4056 -8.36409 4.67538)
(29.6757 -38.0303 3.56124)
(-14.5482 -8.61449 4.57362)
(14.215 -17.0941 4.3267)
(-2.87152 3.954 3.34224)
(4.70975 -2.51642 3.25465)
(-1.55189 4.3436 3.01436)
(1.22953 2.01806 2.52441)
(-0.127072 3.98983 1.88649)
(0.421315 4.16559 1.44864)
(2.08067 4.65734 0.692772)
(3.53923 6.4072 0.33507)
(7.13048 5.35112 0.139622)
(8.00626 5.81759 0.077647)
(11.9882 3.52965 0.0732592)
(178.759 -58.6166 -34.6595)
(-46.5324 -17.3704 -13.3281)
(51.1816 -22.7596 -8.08621)
(-58.5556 -21.7684 6.5192)
(47.6929 -41.8424 -4.2962)
(-39.6635 -7.86364 4.93998)
(12.3707 -58.2395 3.39458)
(-52.2336 10.7833 4.31795)
(-24.0944 -19.6465 0.382907)
(-40.8117 12.3162 -2.82517)
(-26.6338 -6.50311 0.106796)
(-22.3869 0.512135 0.529864)
(-12.0541 -7.11506 1.06474)
(-8.78037 -1.96701 1.03666)
(-1.96538 -3.87357 0.671837)
(0.821533 -0.463572 0.39218)
(4.89438 1.35052 0.230574)
(7.47905 2.28843 0.119077)
(8.92702 3.24456 0.0779238)
(12.3794 2.44402 0.0550106)
(48.0889 70.8345 2.60407)
(-59.0843 3.17892 -32.9456)
(77.2784 -5.60498 -23.8108)
(12.2927 -35.1888 -4.85217)
(79.2492 -39.2695 2.82635)
(24.4612 3.63767 5.3363)
(42.6769 -30.2706 4.27261)
(-43.9291 23.128 9.15652)
(-41.611 -22.5158 0.379725)
(-48.5053 16.6435 -4.34044)
(-30.5525 -2.15293 1.90361)
(-21.2387 -6.56043 3.45331)
(-6.05976 -8.12182 2.89757)
(-1.60878 -5.57297 1.45163)
(2.74239 -6.74815 1.12842)
(6.91666 -3.43733 0.657972)
(5.55511 0.350421 0.46982)
(8.50453 0.783126 0.182935)
(8.64275 1.94224 0.265681)
(11.7961 1.25339 0.144911)
(-17.9193 -22.755 -117.985)
(-103.905 -64.8993 27.6686)
(83.2528 -16.7285 18.6022)
(-16.9658 -40.7421 16.7036)
(54.4308 -33.7887 18.432)
(5.99753 -7.0871 10.9929)
(29.8659 -1.69192 6.45423)
(-20.2622 28.0006 10.1783)
(-23.3055 19.2083 -1.95227)
(-24.4936 6.36511 -1.269)
(-22.6231 1.78887 -5.78091)
(-4.06823 -11.8659 -6.45882)
(2.44522 -21.3913 3.46026)
(6.55289 -21.5016 5.088)
(8.4402 -5.40926 2.09373)
(7.48032 -6.63894 0.828203)
(10.1692 -1.8007 0.471412)
(9.39869 -1.52256 0.39254)
(9.83423 0.283812 0.473858)
(11.4866 0.155561 0.204712)
(474.699 -43.0473 -14.2636)
(-63.2079 -70.1622 19.3335)
(183.008 -49.6663 -2.24099)
(62.2529 -34.4602 7.8835)
(108.631 -16.1204 21.0631)
(75.0317 -13.5302 18.0096)
(37.0433 4.07429 11.8461)
(-13.1865 14.63 -6.04782)
(-1.75472 24.8665 13.8249)
(3.36152 28.9048 -8.62962)
(3.3273 5.13197 -11.7803)
(13.4404 -19.6158 -6.41704)
(17.7377 -18.702 -6.55074)
(23.9074 -28.1473 1.8874)
(19.63 -9.8856 2.64915)
(12.3914 -3.65826 0.976296)
(11.7286 -2.90249 0.532548)
(11.1778 -1.42537 0.394593)
(10.3688 -0.751126 0.580662)
(11.8365 -0.301125 0.252831)
(-33.8496 -149.764 27.6162)
(-63.2175 -61.0914 83.8829)
(111.121 -65.6837 37.1504)
(-20.5946 -23.6398 10.2038)
(56.4095 13.199 6.2935)
(12.9485 17.5176 0.372084)
(43.3862 19.8245 4.31165)
(52.3565 17.1297 11.7919)
(34.1677 16.8352 -3.46739)
(13.6259 34.908 6.83196)
(27.3546 16.1772 -1.53123)
(30.5892 -9.74359 -0.322908)
(31.6003 -5.53325 -0.147966)
(32.0766 -25.1738 -1.71246)
(25.1153 -9.94551 -0.127178)
(13.2553 -4.25597 0.487774)
(12.4437 -1.93052 0.294232)
(11.5932 -2.74824 0.28171)
(11.0455 -1.56656 0.482092)
(12.3306 -1.31898 0.212164)
(85.5146 -196.796 -58.2454)
(-2.13468 -118.195 -3.66465)
(170.623 -35.4087 25.0167)
(22.8761 0.507184 12.4509)
(87.7773 27.3627 9.9855)
(45.8165 9.08974 3.36041)
(55.2684 14.9998 1.10436)
(44.8399 19.6684 -0.239886)
(43.0395 14.5844 0.278885)
(39.9265 14.3773 2.23531)
(45.9737 6.93981 9.66304)
(52.3359 -16.183 19.5241)
(41.057 -11.8995 -9.12817)
(20.5037 -16.9459 2.85793)
(14.4622 -4.69579 0.133147)
(9.17937 -0.188722 -0.102099)
(11.6844 -2.45456 0.0774457)
(11.0703 -2.44474 0.162493)
(11.423 -2.45317 0.358617)
(12.9265 -1.61594 0.166692)
(61.3 -160.903 130.097)
(-74.183 -36.3611 -22.6405)
(99.3022 -21.9982 -25.1333)
(-38.2459 17.9878 -1.74475)
(65.8713 28.9924 -5.63014)
(4.77185 -14.7819 3.79688)
(61.2159 35.0486 4.41784)
(53.6296 19.3187 5.44426)
(69.9238 18.9521 7.43866)
(59.1105 10.8786 13.4639)
(52.7503 -1.18158 2.11311)
(23.0921 -13.4136 -6.31181)
(15.8788 -3.76536 -1.26645)
(11.9838 -3.66891 0.876632)
(9.68315 -3.01526 0.894574)
(11.5964 -3.53119 -0.0191811)
(10.3844 -4.09742 -0.224138)
(12.0285 -4.57713 -0.0614239)
(12.1896 -4.07175 0.0461901)
(14.4107 -2.62415 0.0661641)
(231.28 -27.6642 -15.9284)
(111.493 29.9867 -0.600452)
(141.681 -3.2766 -3.14919)
(37.9142 15.6758 0.632023)
(89.2266 21.4633 3.08429)
(41.2056 0.306509 4.55963)
(68.4786 36.584 9.9133)
(49.9801 -13.4367 10.268)
(69.3772 15.0321 11.9924)
(64.989 -10.592 9.16074)
(76.9935 3.61965 8.99204)
(71.8564 -7.37253 7.68206)
(71.3139 4.31637 8.7902)
(52.9809 -2.08564 8.03875)
(34.2188 4.78612 5.56976)
(24.6025 -1.17301 0.624478)
(20.5054 -2.06037 -0.19066)
(17.7165 -5.26541 0.0655853)
(17.2995 -4.49868 0.252847)
(17.1512 -2.95338 0.153137)
(90.8815 -99.7266 48.6758)
(-36.8168 25.709 -26.296)
(57.8417 25.1205 -4.81566)
(-73.8256 16.874 11.7093)
(52.3791 15.8946 3.21755)
(-23.2675 -16.5811 4.71866)
(54.0012 1.50869 3.61789)
(18.5679 -22.8935 3.41655)
(50.2142 -6.7759 0.675147)
(34.5864 -17.4404 -2.69828)
(50.8427 -4.7989 -4.12822)
(41.5721 -9.9212 -3.87754)
(49.6617 5.55058 0.442711)
(39.7471 10.75 1.95488)
(40.3097 18.0966 0.490651)
(34.9594 8.69822 -0.766483)
(31.5525 0.814165 0.0825906)
(24.4558 -4.41163 0.533097)
(21.437 -4.71813 0.56321)
(18.4512 -2.69224 0.290324)
(62.3121 99.2277 -53.7446)
(-92.2552 24.871 8.91789)
(79.0669 29.5484 -0.294229)
(-38.788 -9.40505 15.9639)
(71.3966 -10.9889 0.521717)
(-14.7019 -16.8892 -0.711463)
(45.1938 -0.0661271 -0.206744)
(-12.8823 -17.2206 -7.06476)
(29.5832 7.10198 -9.11854)
(-0.625237 -8.47617 -12.0822)
(26.8526 7.40686 -12.5891)
(13.7952 0.242147 -11.526)
(29.5365 14.0971 -8.83271)
(27.1125 11.9311 -4.10873)
(42.8473 15.0253 -0.456964)
(44.1608 7.08459 0.492524)
(45.1595 3.33382 2.6685)
(36.2685 -0.924139 2.78463)
(29.6847 -2.1075 2.26915)
(22.9985 -1.62202 0.967717)
(93.7598 121.882 -4.88297)
(-152.886 -6.79794 22.481)
(71.869 -32.0627 -8.23446)
(-75.865 -21.5579 18.5134)
(47.0335 -7.73833 -2.06403)
(-64.1869 -1.23958 1.05872)
(28.2181 9.66339 -3.49896)
(-39.83 1.93437 -5.88125)
(22.2114 6.45855 -9.77127)
(-10.7864 -4.43683 -10.7746)
(21.721 -0.416616 -11.0992)
(7.54124 -3.88545 -8.26328)
(27.9472 5.29594 -6.34317)
(26.1261 7.40523 -1.83714)
(39.8899 9.62724 2.05918)
(36.9248 5.81108 4.03302)
(36.5789 5.20654 5.57071)
(28.6143 3.0885 4.77279)
(24.4907 3.00321 2.97869)
(20.2699 0.57307 1.0071)
(170.852 25.6196 -73.1325)
(67.602 12.847 -12.6175)
(124.694 -30.333 22.8843)
(41.3085 -27.8146 15.6034)
(80.8429 -4.9234 -1.5642)
(1.42155 5.48495 -2.14092)
(48.3735 18.9657 0.213413)
(-11.752 14.3428 -1.19166)
(32.2658 19.1009 0.0841441)
(0.0990362 7.9459 -1.49031)
(28.7193 8.33797 0.544067)
(13.3523 1.07123 1.49533)
(28.3288 2.99672 3.58965)
(19.6863 -0.126554 4.83246)
(26.8509 2.04503 5.58379)
(20.1909 0.679624 5.63365)
(22.1025 2.8807 4.20643)
(18.4101 2.01698 2.49945)
(19.09 2.24271 1.26041)
(18.842 0.267674 0.427021)
(9.2489 217.233 -65.9044)
(-139.284 42.3998 6.01125)
(86.3856 50.2313 -0.339742)
(-50.1709 14.6021 -0.402328)
(53.387 29.0632 -8.10838)
(-22.1516 16.3504 1.39762)
(41.3793 22.0788 3.45547)
(-14.526 16.4904 3.44023)
(30.9209 15.9047 6.0963)
(-6.73397 7.42175 4.84885)
(21.1437 4.13947 5.92149)
(-0.712829 0.25551 4.57793)
(16.4661 1.89343 4.08495)
(5.34719 1.98615 3.30506)
(15.4004 4.04842 2.41489)
(10.062 3.44821 1.58702)
(15.1119 3.8092 1.07261)
(14.0938 2.28695 0.559196)
(16.4617 2.20231 0.302108)
(17.8357 0.692106 0.0921335)
(16.4766 -6.21591 -5.62126)
(-37.5854 -22.9168 -31.2406)
(82.9451 -54.0931 -31.4985)
(-8.92091 -21.0219 -0.615071)
(70.6597 -10.8827 -4.57456)
(12.9492 -3.34341 -1.62931)
(57.2694 -1.38745 4.89268)
(10.6027 2.93595 5.02507)
(40.1844 4.03181 10.033)
(7.34045 6.42231 9.39634)
(27.962 4.97825 8.38268)
(7.42211 2.90829 5.76913)
(19.7931 0.280117 3.65655)
(7.66787 -0.583229 2.10738)
(15.9076 -0.645422 1.31458)
(10.3116 -0.679667 0.797282)
(15.2773 -0.271598 0.513193)
(14.0915 -0.212983 0.246756)
(16.1245 -0.104357 0.140727)
(17.4907 -0.249959 0.037905)
(-55.7266 -51.4623 132.664)
(-137.429 -50.7255 28.6618)
(107.34 -31.8239 2.47391)
(-11.5017 -19.4753 16.5555)
(88.403 -17.1113 11.5504)
(32.4247 -13.1906 5.59833)
(80.5851 -6.43461 1.99595)
(50.3427 -5.86607 -4.53886)
(71.0201 -3.99629 -5.3011)
(56.5433 -7.74517 -9.05555)
(67.8575 -8.82847 -9.32399)
(64.0126 -10.8433 -10.9426)
(70.5626 -12.2487 -10.996)
(74.4957 -18.0713 -7.71076)
(90.3288 -16.5384 0.646184)
(94.1758 -6.06829 5.69339)
(85.9109 6.16884 0.323799)
(54.9172 13.4964 -10.1351)
(36.0017 11.1855 -8.36323)
(27.9891 5.17098 -1.14181)
(234.43 122.952 -62.7142)
(-60.7261 59.8826 58.8039)
(80.6454 13.3025 -9.78413)
(-60.5858 21.5028 11.5758)
(66.787 -1.72702 1.78709)
(-10.846 5.70614 1.42228)
(54.034 2.0975 1.79356)
(12.6183 -1.34924 -2.58018)
(41.8849 -4.4814 -0.88095)
(18.5754 -9.70183 -3.95922)
(29.5279 -10.8729 -4.56204)
(15.7927 -10.5086 -6.80877)
(20.5637 -7.48062 -6.63159)
(15.0451 -3.92233 -1.72573)
(21.0189 1.77975 6.97151)
(19.2496 5.19563 6.80049)
(19.7829 11.9004 0.85161)
(17.7911 12.0799 -3.80281)
(19.1479 10.1918 -1.36034)
(21.5789 5.51059 1.8527)
(72.9588 14.4815 8.82476)
(-143.99 12.8737 -11.9662)
(63.6921 -56.5118 -6.43333)
(-67.9656 -15.6457 -3.05557)
(48.7065 -41.1213 -5.04892)
(-17.9086 -9.13593 -0.859912)
(44.7652 -17.0131 2.33494)
(8.53765 -6.23952 1.81624)
(36.99 -13.078 4.43806)
(12.6883 -11.9653 3.81483)
(22.1901 -16.3496 4.26483)
(7.44331 -13.7328 4.35363)
(12.4323 -12.9187 5.66731)
(5.97295 -9.31434 5.94469)
(10.6893 -4.80011 3.90795)
(9.22395 2.71877 0.726344)
(11.6482 9.84496 -0.767137)
(13.0019 12.7114 -1.2487)
(15.6895 12.7415 0.117818)
(18.2875 7.86757 0.647536)
(155.004 61.1897 -96.9107)
(-6.83477 68.1735 -26.8791)
(78.4986 -17.1411 -3.12281)
(-16.1872 -4.81106 -1.78152)
(54.587 -21.7319 1.60869)
(-3.97443 -4.43809 -0.868768)
(46.7188 -9.84504 1.86986)
(16.0164 -0.398581 0.981776)
(40.0157 -2.05876 4.20576)
(16.7285 0.697391 4.35786)
(21.6341 -2.05134 5.86261)
(3.20734 -0.565547 5.35325)
(5.95535 0.477224 4.38055)
(-0.0427577 2.41215 3.56705)
(1.30752 4.76245 2.30506)
(-0.195608 7.14854 1.21035)
(2.50094 10.14 0.483412)
(6.71364 9.88893 0.197872)
(9.47215 9.99823 0.213947)
(14.349 5.40626 0.42647)
(-43.8815 63.7869 5.9158)
(-131.131 47.908 -15.9547)
(24.5159 -5.45259 -8.21474)
(-81.6818 -9.36455 2.93279)
(22.7651 -30.2025 -6.82861)
(-59.3025 -13.5215 3.38399)
(18.323 -27.6895 3.26774)
(-18.4042 -4.27727 5.18466)
(19.8289 -10.7779 5.81707)
(-1.50953 0.765637 6.5184)
(12.0746 -7.42124 6.4749)
(0.205802 -3.89208 5.57192)
(4.94452 -7.21492 3.95177)
(0.513523 -2.63843 2.21437)
(4.09708 -2.33852 1.09518)
(3.91696 2.58039 0.398587)
(6.41113 5.55053 0.170882)
(8.9607 6.58365 0.0358765)
(10.9799 7.09273 0.0399937)
(14.3978 4.95805 0.109803)
(96.5547 -26.107 98.6738)
(-82.272 4.61796 -10.5948)
(48.9971 -31.4511 -3.32295)
(-45.3673 -22.3062 2.23823)
(40.688 -30.3496 -7.83495)
(-51.4542 -9.06188 4.13665)
(26.9624 -38.4592 3.8851)
(-16.7299 -8.38531 3.58884)
(13.0625 -16.2814 4.1259)
(-6.7197 2.65226 3.19582)
(-0.414141 -5.16405 3.9526)
(-6.08619 1.71273 3.44892)
(-1.9681 0.0847451 3.10048)
(-2.03825 2.86862 2.32736)
(-0.795979 3.2891 1.7858)
(1.61912 4.16437 0.779454)
(3.36475 6.14366 0.34178)
(7.07538 5.23353 0.193603)
(7.97017 5.7904 0.110198)
(11.966 3.50972 0.0635932)
(99.1981 -61.0415 -156.641)
(-62.5841 -10.2423 -21.4064)
(34.3275 -26.7578 -4.74252)
(-55.9413 -21.4788 6.89694)
(37.9881 -35.6715 -4.93547)
(-46.3893 -4.30818 6.6023)
(11.2317 -55.8158 4.05884)
(-41.0684 10.8668 0.922953)
(-14.4278 -17.7489 -1.63469)
(-40.4223 11.8224 -4.1806)
(-26.5224 -8.45641 -1.1257)
(-23.2809 -1.20179 1.27363)
(-12.6847 -8.09573 1.88038)
(-9.5213 -2.57495 1.62071)
(-2.31858 -4.28334 0.953988)
(0.600613 -0.597524 0.553156)
(4.83422 1.35966 0.332336)
(7.45698 2.25545 0.237329)
(8.90272 3.27656 0.137234)
(12.371 2.45016 0.05133)
(69.2925 79.5289 -14.7174)
(-20.6368 -3.12318 -22.2992)
(88.6953 -13.5963 -22.054)
(7.78707 -36.5177 -3.51129)
(67.7054 -35.5078 2.59196)
(12.381 7.88627 6.45004)
(35.2858 -29.5408 14.1458)
(-32.3877 22.0689 1.72964)
(-30.5615 -10.8973 -7.77166)
(-45.8556 13.0815 -3.45607)
(-21.5966 -9.29932 2.11799)
(-15.0349 -11.7635 3.59377)
(-4.57689 -8.6757 3.95459)
(-1.76535 -5.15291 2.9726)
(1.98045 -6.34815 1.87306)
(6.62288 -3.32476 0.960119)
(5.38566 0.409733 0.84321)
(8.47946 0.853216 0.570952)
(8.64943 2.04729 0.463886)
(11.7507 1.28301 0.20743)
(-2.13128 -163.098 -132.542)
(-99.2271 -66.8662 -32.1279)
(70.6629 -16.4674 0.335004)
(-49.3431 -31.3603 16.3953)
(32.7413 -19.5075 12.1166)
(-8.53882 7.55033 12.9488)
(19.0775 0.163979 12.6755)
(-31.9594 32.8331 12.3748)
(-3.51024 19.2202 -15.9736)
(-16.6028 9.824 -14.2476)
(-10.855 -15.6557 -5.03886)
(-5.6153 -20.1965 -1.48261)
(-5.46433 -10.0844 6.83882)
(1.348 -9.80064 8.25105)
(6.51708 -3.92403 2.62342)
(7.16598 -6.38923 1.15078)
(10.0366 -1.7354 0.709429)
(9.39482 -1.44942 0.753945)
(9.82485 0.351323 1.01003)
(11.4828 0.171111 0.589783)
(19.4992 -12.1384 -217.965)
(-82.1163 -66.7464 47.8786)
(113.177 -32.3379 -18.3146)
(-20.9746 -17.8244 12.5754)
(70.285 -3.14515 14.9409)
(20.5508 -0.555148 17.1668)
(10.0928 17.9283 21.9752)
(-21.0829 22.8824 4.39162)
(-0.433133 24.902 7.94594)
(17.7799 20.4076 -17.8198)
(19.7066 -10.9268 -20.9108)
(-1.92788 -27.351 -8.30616)
(0.458276 -27.1845 -12.131)
(7.70897 -16.2099 1.32962)
(13.9013 -6.04072 3.70509)
(11.4703 -3.04396 1.35448)
(11.4079 -2.49246 0.860615)
(11.0411 -1.17153 0.779759)
(10.2812 -0.589229 1.16904)
(11.8114 -0.225298 0.766293)
(41.4439 -54.1059 -121.738)
(-153.539 -86.335 6.02912)
(78.7211 -43.253 11.0548)
(-54.936 -16.9425 10.8516)
(31.2583 13.0098 0.496882)
(-18.1918 22.2023 0.799834)
(13.5752 30.5896 5.40512)
(30.1081 22.3131 12.4662)
(19.2605 22.6979 20.3068)
(24.6195 22.9877 -4.46606)
(37.8986 3.26154 -8.99357)
(35.4394 -12.4454 -3.85014)
(20.6868 -30.3601 1.29411)
(23.2655 -20.5082 -4.16893)
(19.708 -6.90822 0.132209)
(12.411 -4.13808 1.01367)
(12.1467 -1.94955 0.695554)
(11.5608 -2.70106 0.715166)
(11.0284 -1.56161 1.13578)
(12.3377 -1.31636 0.754254)
(210.895 -87.5341 65.0821)
(-28.5429 -58.373 -43.0874)
(124.984 -10.8137 5.63901)
(-15.3084 7.74965 10.6385)
(67.7509 29.4946 5.0681)
(15.4993 6.20797 2.75842)
(30.9609 17.2479 0.301727)
(29.3636 20.5272 -2.53567)
(33.8805 19.1118 -1.64835)
(31.6036 25.775 4.86355)
(47.6634 14.3407 6.01445)
(53.6701 -8.88024 20.782)
(47.1377 -12.1066 1.4511)
(20.3936 -17.3587 2.80497)
(16.0757 -5.04886 0.263801)
(9.0767 -0.649087 0.495787)
(11.6836 -2.69841 0.403004)
(11.0855 -2.51271 0.541284)
(11.4579 -2.53915 0.920634)
(12.9874 -1.65101 0.602679)
(264.024 -136.724 -3.55696)
(-66.0614 -33.9476 -33.8508)
(86.92 -23.6549 -28.8103)
(-49.8184 15.4012 -0.486975)
(51.7937 26.4343 -6.25368)
(-12.8845 -18.735 4.5547)
(46.317 35.4033 4.37503)
(35.446 17.0985 5.20263)
(55.4112 20.6688 8.63159)
(49.5317 13.6429 13.3857)
(57.5577 2.8207 6.46729)
(26.8824 -4.22467 -2.70837)
(13.5818 0.834354 -0.343583)
(9.58233 -4.50941 1.34861)
(8.62439 -3.32478 0.675981)
(11.3227 -4.23341 0.109023)
(10.2689 -4.58804 0.0164823)
(11.8666 -4.71369 0.0839391)
(12.0653 -4.15393 0.23166)
(14.3589 -2.64482 0.174957)
(164.976 -71.8531 -123.985)
(43.5601 -2.45629 0.125239)
(115.647 -10.5098 -2.18984)
(9.34475 16.2794 3.69203)
(76.0357 24.3165 2.04144)
(19.5679 2.32924 5.75291)
(51.7763 47.0624 9.89126)
(30.002 -3.77214 11.4662)
(52.463 31.8673 13.0799)
(44.15 5.27264 9.97426)
(52.7452 20.9795 9.64176)
(43.2126 5.0028 8.97076)
(42.3337 13.7882 11.0686)
(28.7247 1.16384 9.52001)
(25.6431 3.11609 5.74839)
(19.9455 -4.56205 0.379136)
(17.5938 -4.07518 -0.185685)
(15.9622 -5.88176 0.360092)
(16.0311 -4.80679 0.431783)
(16.7155 -2.98421 0.218474)