/*--------------------------------*- C++ -*----------------------------------*\
  =========                 |
  \\      /  F ield         | OpenFOAM: The Open Source CFD Toolbox
   \\    /   O peration     | Website:  https://openfoam.org
    \\  /    A nd           | Version:  10
     \\/     M anipulation  |
\*---------------------------------------------------------------------------*/
FoamFile
{
    format      ascii;
    class       volVectorField;
    location    "1.1";
    object      U_0;
}
// * * * * * * * * * * * * * * * * * * * * * * * * * * * * * * * * * * * * * //

dimensions      [0 1 -1 0 0 0 0];

internalField   nonuniform List<vector> 
12920
(
(143.834 -50.4161 173.132)
(-87.7093 -59.8649 18.5842)
(92.6478 -50.4707 15.5833)
(-28.4788 -41.6056 9.46606)
(74.8872 -32.6045 7.04548)
(14.2983 -20.3057 2.38347)
(65.8984 -7.49338 0.0020125)
(38.4712 -1.63655 -2.3931)
(62.9903 3.8011 -3.09198)
(54.85 3.89397 -4.65266)
(69.9478 5.72204 -5.4322)
(71.6848 5.7746 -6.1258)
(80.8405 8.82456 -5.3796)
(78.6943 11.6654 -3.81751)
(64.7372 18.8432 -1.97853)
(38.9482 23.6851 -6.49072)
(32.9095 23.5526 -9.29432)
(37.8984 20.2466 -8.53248)
(47.4922 14.9458 -3.75217)
(42.5311 10.3406 -0.909338)
(97.2855 254.425 100.97)
(-182.306 -6.75901 -9.33979)
(122.943 -59.3551 -11.6326)
(-15.4505 -28.0184 0.615655)
(71.5267 -33.4029 5.65355)
(0.325317 -12.6655 1.32452)
(52.2109 -3.17363 1.62322)
(16.4638 5.63836 -2.43982)
(46.146 11.5197 -2.77651)
(34.6469 15.8453 -4.8281)
(53.1323 19.5659 -4.85182)
(54.5688 20.707 -5.65281)
(64.3515 22.9547 -2.03604)
(59.8147 22.5304 0.859913)
(44.5527 21.161 4.49716)
(26.4228 17.7835 3.09404)
(24.1028 18.1412 0.323117)
(29.7313 14.4814 0.137441)
(32.9021 11.9421 0.787304)
(26.1301 8.35663 2.04892)
(31.4674 -194.254 263.083)
(-12.2957 -77.5381 -19.4717)
(98.7586 -110.336 -7.65891)
(4.65708 -54.5781 -11.0081)
(70.1518 -65.0726 -0.826631)
(15.7937 -31.3133 -1.97003)
(55.7699 -23.1242 1.64431)
(18.6447 2.60039 -1.15202)
(41.341 8.29115 -1.41594)
(27.305 15.2646 -1.98617)
(39.9679 14.4484 -0.0688552)
(32.1313 15.3227 0.529814)
(33.2968 12.1736 2.96469)
(22.5754 11.5799 3.60353)
(18.586 11.6524 3.00764)
(14.3168 12.1203 1.86087)
(14.3923 14.3706 1.41486)
(15.0733 15.1889 1.39362)
(14.6509 15.03 1.55577)
(11.2476 10.0317 1.0706)
(214.791 127.912 -197.301)
(99.3895 66.5744 -52.3996)
(155.232 -4.98091 -10.8877)
(71.0133 7.8615 -2.24583)
(85.5613 -8.40343 5.9978)
(24.1533 -1.6963 1.836)
(49.6721 -0.74091 3.23364)
(11.9244 9.85 1.39372)
(28.5753 13.5603 1.3599)
(7.54149 16.1397 1.25716)
(16.4422 13.9653 2.39115)
(4.33763 13.3371 3.4237)
(4.2549 11.4755 3.52096)
(-4.55929 10.6608 3.00401)
(-5.37086 10.6024 2.35933)
(-7.74406 9.94455 1.44079)
(-6.47498 11.4474 0.929148)
(-3.06606 10.7495 0.80334)
(-0.954831 10.5143 0.660767)
(3.2876 5.77293 0.319763)
(40.8697 192.78 -52.4708)
(-155.443 61.3005 6.13622)
(35.5577 -23.4994 14.4617)
(-119.565 -23.9275 2.18828)
(30.8173 -34.3996 -1.90884)
(-62.2271 -19.2792 2.92065)
(12.4938 -19.3082 2.41746)
(-27.3396 6.20838 3.37186)
(10.2131 3.46873 3.39273)
(-10.4076 15.2418 3.34235)
(4.01068 6.6971 3.01551)
(-7.84315 8.03132 2.66433)
(-4.39471 1.71521 1.8467)
(-9.22464 3.67807 1.15625)
(-6.79681 2.41067 0.685074)
(-7.21357 4.5649 0.390209)
(-5.1325 6.4342 0.322499)
(-2.28492 6.91144 0.2564)
(-0.25991 7.21435 0.196517)
(3.145 5.01028 0.126216)
(-52.2561 -24.385 -8.77422)
(-141.716 -10.1868 -38.1523)
(62.3669 -45.9367 4.84086)
(-127.788 -19.6588 -1.99252)
(60.1997 -27.7522 -11.446)
(-38.5948 -4.96311 2.42129)
(28.4557 -32.9582 2.27373)
(-16.6816 -7.69085 3.55909)
(8.87205 -15.9732 2.41337)
(-10.0612 4.68821 1.79185)
(-3.42565 -1.66274 1.25732)
(-10.9293 5.00621 1.3219)
(-9.32257 2.67728 0.917224)
(-11.353 4.23356 0.707502)
(-11.0167 4.15246 0.543432)
(-9.6238 4.63625 0.312107)
(-8.18152 6.35269 0.235856)
(-4.4581 5.22573 0.095555)
(-3.4106 5.73124 0.0461258)
(0.665652 3.46351 0.0416401)
(24.4228 72.9237 103.508)
(-79.4318 40.5749 -30.5353)
(62.952 -4.7478 -4.98387)
(-77.3327 -18.3308 4.38058)
(47.8283 -46.3216 -2.15172)
(-36.7633 -7.51883 0.80739)
(20.5358 -57.0032 0.156217)
(-41.3394 3.39049 2.3578)
(-27.0594 -19.2012 0.271739)
(-45.3784 11.7702 -0.852735)
(-36.5428 -4.74663 0.880706)
(-33.3463 1.24817 0.478491)
(-23.799 -6.72063 0.180405)
(-20.5716 -1.92192 0.142967)
(-13.7312 -3.74585 0.143247)
(-10.9356 -0.566597 0.0155748)
(-6.79268 1.32146 0.0904053)
(-3.98185 2.23309 0.0197555)
(-2.39374 3.13535 0.02122)
(1.06648 2.39867 0.0319769)
(-36.7687 133.312 47.6591)
(-107.036 -13.5979 -20.0333)
(69.7757 -14.9934 -6.55833)
(28.3375 -37.3479 0.343757)
(85.9197 -43.8828 4.03832)
(31.8426 0.596458 2.40809)
(44.0892 -25.1532 0.337739)
(-26.7068 9.53018 1.3718)
(-53.9776 -15.424 0.288739)
(-56.5915 22.3966 -0.0137858)
(-43.7837 -3.81346 1.56151)
(-36.6664 -3.54372 1.60932)
(-22.4949 -1.65168 -0.852766)
(-17.2108 -0.900021 -0.310273)
(-9.61542 -5.994 0.0392976)
(-4.94649 -3.1046 0.0881833)
(-6.06045 0.463538 0.0872397)
(-2.96105 0.782626 0.0587989)
(-2.65246 1.89948 0.0767471)
(0.463405 1.27717 0.0464943)
(236.018 271.623 -289.495)
(69.085 53.3428 -28.8141)
(144.751 -18.4661 19.3215)
(46.3033 -46.0184 13.4294)
(67.8254 -46.5903 14.6757)
(-13.4292 -0.160276 1.94405)
(6.2009 1.97446 1.74936)
(-4.84056 20.2377 1.83699)
(-41.0809 12.8715 -0.482579)
(-44.5027 6.34509 -0.569158)
(-30.1689 -23.7004 0.523116)
(-19.7358 -34.3641 1.34701)
(-17.4761 -16.8418 2.35251)
(-16.264 -1.35652 -1.5473)
(-5.42611 -2.09652 -0.197646)
(-4.66599 -6.29703 0.173233)
(-1.76596 -1.7229 0.138748)
(-2.21443 -1.50241 0.187758)
(-1.50232 0.231002 0.17983)
(0.100354 0.154886 0.100643)
(144.563 96.9045 -6.82366)
(43.693 -32.87 -57.4938)
(230.184 -71.2862 2.11845)
(190.709 -67.4463 5.26737)
(172.092 -32.2593 19.3442)
(52.4407 -15.5462 5.44833)
(2.51325 11.6223 0.486137)
(13.3166 28.1895 -2.07336)
(-4.65169 21.5807 1.23747)
(-13.8957 20.9309 -0.451752)
(-29.3609 -4.25308 -2.07238)
(-9.84941 -25.9038 0.0505612)
(-4.53587 -31.9943 -0.903064)
(0.679253 -25.5657 2.45501)
(2.99838 -6.3932 -0.379243)
(0.0454633 -3.33451 0.194319)
(-0.440985 -2.81034 0.182368)
(-0.578015 -1.35768 0.200129)
(-1.07035 -0.762254 0.217849)
(0.50006 -0.282373 0.115731)
(288.007 285.427 -102.767)
(186.67 73.3712 -11.2378)
(212.373 -80.6355 27.7357)
(65.8386 -53.2891 12.5459)
(82.4913 8.04129 10.5971)
(24.1117 15.0177 3.26856)
(26.9318 18.0147 3.19098)
(24.8872 27.4454 1.61167)
(19.4248 24.7421 -0.964428)
(20.9245 15.5246 0.11745)
(-4.13311 19.3679 1.7015)
(-4.9469 -32.7397 1.86808)
(-4.8825 -38.2916 -1.87912)
(11.131 -20.1809 -0.367455)
(4.77242 -6.55758 -0.494728)
(0.293684 -3.9051 -0.126306)
(0.0874937 -1.76748 0.117234)
(-0.184035 -2.62803 0.183719)
(-0.409573 -1.47039 0.227279)
(0.935151 -1.26269 0.12567)
(218.36 -100.649 -31.6573)
(255.353 -132.848 -7.51571)
(298.21 -73.6344 23.0638)
(90.9292 -24.7962 14.0732)
(103.89 13.073 9.87312)
(47.1648 2.03218 0.523122)
(43.6756 11.23 1.52178)
(25.279 13.88 0.413111)
(16.8477 15.1811 0.413098)
(16.8478 19.4692 0.4495)
(30.2568 -3.0671 1.19552)
(6.77375 -18.5997 3.63032)
(-4.39713 -20.9661 -2.05811)
(6.28602 -13.9813 -0.406261)
(0.151648 -3.57446 0.387089)
(-3.54929 -0.0524099 0.000983055)
(-0.474452 -2.27586 0.0303112)
(-0.676514 -2.29606 0.121789)
(-0.0278517 -2.23115 0.151443)
(1.49479 -1.50654 0.10944)
(170.229 -150.27 10.3353)
(-75.2332 -22.8241 6.12656)
(119.837 -2.7435 -14.177)
(-23.3095 15.1343 -2.09626)
(72.2506 21.5703 -3.23342)
(12.8337 -20.2754 1.04037)
(60.7769 24.9054 0.393091)
(50.1283 12.9781 1.37851)
(61.1931 13.803 1.7932)
(24.467 1.96467 5.03196)
(9.81946 -12.1109 -1.90722)
(-2.26525 -16.6204 -2.95479)
(0.244187 -8.59159 -0.870162)
(-0.894869 -5.90403 0.107859)
(-1.80174 -3.10738 0.575235)
(-0.153597 -2.8392 0.107991)
(-1.44621 -3.23552 -0.112666)
(0.535658 -3.88633 -0.106747)
(0.886311 -3.57703 -0.0659496)
(2.94132 -2.43236 -0.00562557)
(171.539 -159.194 109.313)
(29.6574 9.7812 -1.61961)
(118.088 13.5566 -15.9251)
(42.4651 20.4879 -6.35415)
(93.8905 17.3335 -0.954676)
(50.277 -4.86361 0.924661)
(70.0297 27.1783 4.71945)
(48.0512 -23.6515 4.77563)
(63.2622 1.33997 6.07446)
(58.9734 -25.8263 5.10716)
(70.2151 -12.3933 5.2337)
(65.8331 -21.2956 4.77432)
(66.8085 -5.62776 5.08642)
(48.88 -8.2827 3.35711)
(24.6009 1.62946 1.5567)
(12.2701 -1.80285 -0.622997)
(7.52646 -0.663658 -1.20131)
(5.6575 -3.47087 -0.765791)
(5.65466 -3.19341 -0.289414)
(5.57173 -2.34459 -0.0828855)
(16.6198 -189.308 -45.7179)
(-98.9361 40.6295 -9.53531)
(71.4433 31.3247 -7.00018)
(-57.6819 19.4623 4.73128)
(50.2673 13.3553 -0.153324)
(-15.5671 -24.2327 1.74139)
(50.6193 -15.4996 1.77745)
(20.764 -40.9948 1.07666)
(48.1177 -29.4142 1.96564)
(34.6892 -42.7177 0.279272)
(50.8534 -30.8956 0.371015)
(43.167 -35.2604 0.521765)
(48.8802 -15.4494 2.42165)
(30.5236 5.42595 1.14007)
(24.1969 20.5067 -1.05975)
(15.8652 14.3437 -2.56182)
(13.4303 7.39469 -2.48715)
(9.11628 -0.220698 -1.65597)
(7.82594 -2.79132 -0.389152)
(6.02819 -1.87422 -0.0566938)
(121.86 176.362 77.8519)
(-138.047 12.6515 18.0746)
(111.937 40.4765 -5.89342)
(-7.49442 -3.60331 8.78051)
(73.292 -10.0349 0.265835)
(17.6831 -21.9584 -0.474522)
(52.3317 -15.5313 -0.137682)
(5.47619 -31.0823 -1.88019)
(29.4277 -15.9268 -2.49804)
(2.07569 -23.9594 -6.39957)
(26.2613 -9.0619 -7.21049)
(15.7571 -12.0948 -7.06984)
(30.4772 1.95217 -5.23786)
(24.7422 9.91809 -1.04609)
(32.2449 19.5871 0.151302)
(28.7325 17.2303 -0.184807)
(28.9419 13.3182 0.164952)
(20.1272 4.12656 0.0105066)
(16.4921 0.0554811 0.183313)
(10.6073 -0.934686 0.106461)
(315.207 398.986 -301.586)
(-200.225 -26.3295 10.0021)
(112.662 -50.9454 -6.77957)
(-46.2557 -33.8849 11.0354)
(58.7631 -17.4165 -2.40329)
(-0.99307 -12.2823 0.327761)
(45.1236 -1.05002 0.262411)
(-4.83697 -2.15161 0.980304)
(24.2184 5.02048 -1.19446)
(-3.48264 0.473187 -5.03172)
(22.3921 5.05499 -5.86247)
(12.6425 4.26002 -4.97442)
(29.4905 11.6714 -3.06532)
(25.1627 14.8524 0.135163)
(32.1339 18.0635 1.45279)
(27.8211 14.9077 1.91498)
(27.7953 10.7647 2.30332)
(18.5194 5.28138 1.89494)
(13.7306 3.50948 0.985216)
(8.52713 0.505282 0.407781)
(277.437 133.832 -33.7912)
(272.146 74.7198 -41.9283)
(240.352 -15.5335 1.97302)
(85.7754 -33.5715 11.9658)
(91.7328 -19.5323 -0.443006)
(47.7945 -10.3547 -3.53781)
(73.4057 2.96689 -3.91046)
(47.4054 4.19641 -1.61285)
(61.4051 15.7193 1.50751)
(35.597 15.0611 1.49865)
(42.9282 17.693 1.94367)
(24.5288 12.4807 1.42204)
(30.3512 12.9509 1.41761)
(20.1175 9.96429 1.58907)
(24.0659 9.20034 2.16187)
(15.0607 5.11693 2.53675)
(14.864 4.96632 1.7052)
(8.84345 2.47846 0.865869)
(8.41515 2.09658 0.332414)
(7.09494 0.107649 0.153144)
(80.8868 7.82429 54.9768)
(-46.3935 83.1122 7.92034)
(74.8407 74.7648 12.0654)
(-40.8326 21.6874 -2.64147)
(52.9445 25.4348 -3.96825)
(-0.117883 7.2137 1.26792)
(47.1088 9.09544 1.53852)
(14.5012 8.26768 1.72855)
(41.8503 15.0857 3.33772)
(14.2898 14.5574 3.27259)
(27.2167 13.6597 3.56063)
(4.15159 8.16418 2.81351)
(12.7829 6.81582 2.34983)
(-1.11374 4.6547 1.70161)
(6.16142 5.33664 1.14751)
(-0.416012 4.1508 0.639707)
(3.94783 4.00282 0.272447)
(2.84528 2.28122 0.0689783)
(4.91269 2.07604 0.0104236)
(5.99479 0.639065 0.00780001)
(-99.1031 44.0549 -0.368543)
(-230.981 0.360635 -26.9278)
(63.6465 -29.3795 -31.3208)
(-12.342 -14.3959 -2.29349)
(68.3731 -13.2606 -1.51366)
(25.8834 -11.4521 -1.84375)
(59.7046 -13.2977 -0.379249)
(20.5868 -8.2476 -0.536749)
(38.343 -0.896891 3.69329)
(5.89643 6.84254 5.44158)
(19.8669 8.00457 5.34532)
(-3.3258 6.74567 3.62058)
(7.09367 3.7603 2.18133)
(-5.22115 1.83757 1.09701)
(3.36753 0.680778 0.563339)
(-2.00677 -0.0168422 0.264401)
(3.17149 0.0128333 0.0977755)
(2.43119 -0.132218 0.0668913)
(4.47077 -0.0802666 0.0214532)
(5.62084 -0.229457 0.0162284)
(94.6892 -88.7864 143.033)
(-162.497 -65.9033 16.125)
(83.2738 -37.8869 9.17008)
(-37.9814 -27.9354 15.7645)
(72.4352 -24.0596 12.0496)
(15.5563 -18.6971 6.126)
(67.3488 -10.7494 2.11968)
(41.2706 -8.22818 -3.7546)
(64.7737 -4.17132 -5.62635)
(55.3506 -5.79327 -8.91899)
(68.8501 -5.41204 -9.38476)
(68.4148 -7.5817 -10.3689)
(78.2407 -8.27608 -9.3779)
(84.8376 -9.41032 -4.16303)
(87.3087 -7.19617 2.36083)
(78.369 -1.58249 2.53672)
(51.1494 10.5097 -6.20754)
(35.8262 12.7902 -11.8404)
(34.2604 11.1971 -8.72683)
(28.7514 6.32214 -1.58719)
(341.791 29.6011 -171.481)
(-92.3025 -5.43632 -2.05312)
(100.337 -16.8855 -18.9938)
(-60.4295 1.32386 9.29885)
(59.7219 -16.112 7.5786)
(-15.7884 -4.23274 1.71099)
(45.2638 -1.23986 3.27575)
(3.43442 2.01357 -3.03565)
(30.8037 5.96868 -3.17135)
(7.96122 6.22565 -5.95894)
(20.3651 8.28941 -4.86167)
(9.87224 7.02736 -4.43827)
(17.6499 8.22201 -0.444472)
(18.8612 8.54805 6.65498)
(18.496 8.09686 12.4624)
(10.1012 6.90796 9.52998)
(7.0082 9.91498 2.61052)
(11.3109 8.34988 -1.45858)
(16.805 8.19569 0.630726)
(16.8696 6.07653 3.27555)
(219.493 -144.577 -77.6335)
(-118.75 -23.3075 -43.974)
(68.9445 -79.3906 -4.51024)
(-58.8243 -29.9738 -7.04984)
(44.9498 -53.3309 -0.580495)
(-15.4919 -19.9696 -2.20096)
(41.5622 -21.3379 3.75549)
(5.04697 -5.45635 0.867253)
(28.1424 -6.48672 2.28556)
(4.07424 -1.91552 0.692105)
(14.6914 -4.95722 2.85496)
(1.95855 -3.89666 3.71142)
(6.00406 -4.80575 6.08038)
(0.0866116 -3.31997 6.81387)
(1.8605 -1.08241 5.57202)
(-0.589659 3.75418 2.69347)
(2.65623 9.72753 0.852576)
(5.71331 11.6532 0.450432)
(8.6054 12.4776 1.47249)
(9.1513 8.98721 1.32564)
(154.088 111.858 -201.697)
(30.1226 73.1364 -15.2986)
(87.4796 -21.7142 4.33732)
(-8.03273 -13.4205 0.88319)
(52.8841 -26.6686 6.15541)
(-1.70086 -10.4946 -0.562639)
(43.0834 -11.1343 2.9509)
(12.8942 -0.909572 1.67389)
(32.7168 1.2303 3.63536)
(9.09419 4.57089 2.80527)
(13.9255 3.47969 3.09383)
(-3.3191 4.50929 3.81921)
(-2.13437 4.67093 3.86553)
(-9.12249 5.86867 3.3607)
(-8.82975 7.14583 2.77983)
(-10.7392 7.92902 1.6188)
(-8.55686 9.9222 0.856772)
(-4.20186 9.45354 0.548402)
(-1.45494 9.71453 0.477889)
(3.60948 5.51597 0.461189)
(-7.37995 -210.487 -16.4371)
(-221.66 23.7504 -2.24244)
(29.6485 -26.3554 -6.58093)
(-98.7366 -24.3887 0.730442)
(21.8247 -36.8758 -6.9758)
(-62.5306 -19.0039 2.74648)
(11.7558 -27.6155 1.83766)
(-23.944 -2.93815 3.71661)
(12.9501 -4.65314 3.36005)
(-7.47647 8.43841 3.61016)
(4.9994 1.74451 3.25847)
(-7.8704 3.9162 2.97979)
(-4.71258 -1.36369 2.51286)
(-9.37657 1.31392 1.6463)
(-6.83227 0.440057 0.96126)
(-7.21546 3.38491 0.45122)
(-4.88649 6.00489 0.240278)
(-2.07587 6.80251 0.136468)
(0.128737 7.21447 0.117827)
(3.75711 5.02043 0.154442)
(165.946 -122.255 87.0579)
(-115.029 -14.5398 -9.63511)
(59.1205 -44.3596 -8.33683)
(-61.0691 -28.25 -1.27633)
(40.4477 -32.4013 -12.5263)
(-53.283 -9.00925 4.70528)
(19.0315 -38.0758 3.51364)
(-25.4289 -8.7484 4.5656)
(3.39632 -17.1046 4.43917)
(-13.8419 3.9013 3.30423)
(-6.49222 -2.39895 3.20885)
(-12.8714 4.15794 2.99427)
(-10.2796 1.82235 2.37424)
(-11.585 3.65339 1.74282)
(-10.9871 3.8443 1.34712)
(-9.28842 4.47834 0.650889)
(-7.63308 6.42331 0.327638)
(-3.75355 5.38518 0.136222)
(-2.6896 5.87233 0.080018)
(1.34805 3.55257 0.0786988)
(192.479 -37.7099 -17.389)
(-35.8813 -12.8812 -9.95261)
(45.5883 -21.4635 -9.58767)
(-66.0657 -20.1575 6.73648)
(39.0024 -40.955 -4.23782)
(-49.3943 -7.29979 4.97346)
(2.22483 -57.8943 3.39513)
(-63.0431 11.1195 4.43121)
(-34.9505 -19.5998 0.389381)
(-51.8374 12.3343 -2.87945)
(-37.9669 -6.50771 0.0928396)
(-33.8409 0.15239 0.481034)
(-23.6236 -7.42624 1.07215)
(-20.2144 -2.1944 0.998533)
(-13.2386 -3.97137 0.64299)
(-10.3706 -0.509161 0.337145)
(-6.194 1.38971 0.222134)
(-3.39766 2.34053 0.105549)
(-1.77619 3.26803 0.0770345)
(1.69774 2.49112 0.0600813)
(52.6522 95.8672 8.23123)
(-58.4613 13.1335 -30.5031)
(71.9026 -0.0873632 -24.7352)
(7.06396 -31.0028 -4.9769)
(70.4119 -37.322 3.18847)
(14.9879 5.12212 5.26561)
(32.0421 -27.1374 4.36219)
(-55.1841 25.6396 9.3199)
(-52.7854 -20.4158 0.407909)
(-59.4633 18.6231 -4.30853)
(-42.0795 0.193225 1.86218)
(-32.8267 -4.8546 3.54707)
(-17.6125 -6.21867 2.96194)
(-12.8082 -3.73066 1.52836)
(-8.48768 -6.54714 1.13532)
(-4.30866 -3.31061 0.605485)
(-5.51966 0.354289 0.441356)
(-2.39569 0.793489 0.159712)
(-2.05657 1.95369 0.246277)
(1.08359 1.30578 0.141775)
(-23.0958 20.1953 -104.515)
(-120.252 -52.4733 32.5026)
(70.7403 -10.077 20.0602)
(-28.6728 -36.9465 17.8017)
(42.8614 -31.5111 18.2661)
(-4.76669 -3.71581 11.0748)
(18.6201 0.699276 6.42168)
(-31.4827 30.2941 10.1048)
(-34.8598 21.9955 -1.69418)
(-35.3081 8.26101 -1.35086)
(-34.1334 3.70459 -5.83286)
(-15.7592 -9.61855 -6.31458)
(-9.07253 -19.1347 3.55895)
(-4.69684 -19.2017 5.09444)
(-2.65224 -3.28308 2.11352)
(-3.86448 -6.38421 0.776172)
(-1.0311 -1.82095 0.449298)
(-1.47042 -1.52262 0.370709)
(-0.826408 0.247378 0.431205)
(0.739849 0.166656 0.19748)
(489.094 -37.603 6.9165)
(-102.684 -66.2174 16.2327)
(170.882 -48.1094 -2.29985)
(51.0805 -31.8392 8.93516)
(96.3196 -14.7975 21.3888)
(62.1695 -12.5701 17.591)
(25.7563 4.59968 12.4286)
(-24.7406 15.0662 -6.23708)
(-13.2502 25.3393 13.6303)
(-7.80574 29.2655 -8.60889)
(-8.07192 5.44565 -11.5864)
(1.98716 -19.2716 -6.2648)
(6.26461 -18.4005 -6.50072)
(12.7292 -27.8126 1.86437)
(8.42059 -9.3733 2.55856)
(0.901179 -3.43737 0.90132)
(0.397696 -2.86039 0.482463)
(0.26203 -1.38927 0.327908)
(-0.319199 -0.773266 0.514508)
(1.14938 -0.302387 0.242407)
(-58.1992 -146.66 14.6219)
(-100.812 -59.385 86.5634)
(94.304 -62.3866 36.0647)
(-32.6746 -19.7063 10.0694)
(43.4751 15.0325 6.15672)
(1.26321 18.7094 0.79446)
(31.9396 20.5683 4.07577)
(40.8725 17.5197 11.844)
(22.8474 17.2854 -3.37597)
(2.45023 35.3725 6.53345)
(16.0221 16.5037 -1.29082)
(19.0229 -9.39736 -0.167803)
(20.2324 -5.35465 0.117634)
(20.9716 -24.6856 -1.8338)
(13.8457 -9.66863 -0.198189)
(1.60499 -4.15029 0.41964)
(1.06168 -1.87084 0.218865)
(0.661603 -2.71047 0.208655)
(0.347549 -1.53477 0.427669)
(1.60866 -1.29262 0.207622)
(75.7977 -203.716 -48.6253)
(-24.0047 -121.969 -7.38332)
(155.724 -35.7978 27.85)
(9.69299 0.298169 13.6948)
(73.4453 27.287 9.47017)
(33.1232 9.95895 3.22124)
(42.9982 15.6738 0.816084)
(33.4495 19.8649 -0.086094)
(31.6119 14.7815 0.31776)
(28.8221 14.6077 2.1187)
(34.4501 6.88328 9.65611)
(41.0036 -15.9281 19.5865)
(29.7061 -11.5723 -9.13439)
(9.14529 -16.4237 2.79016)
(3.03655 -4.55987 0.0946292)
(-2.52071 -0.13325 -0.156817)
(0.288352 -2.36388 0.0380509)
(0.127756 -2.42743 0.125733)
(0.722917 -2.37819 0.325125)
(2.1824 -1.59775 0.170872)
(38.1366 -173.918 137.632)
(-102.211 -42.1483 -20.2775)
(85.9812 -23.6753 -26.1368)
(-48.4982 14.8059 -0.112805)
(53.4476 27.9329 -6.34749)
(-6.27662 -15.3881 3.55761)
(50.3845 34.63 4.33916)
(42.6768 19.0282 5.33409)
(58.203 18.8903 7.36542)
(47.8334 10.5964 13.7004)
(41.0527 -1.50734 1.9168)
(11.8141 -13.6671 -6.51033)
(4.32568 -4.04478 -1.15461)
(0.917576 -4.10208 0.832692)
(-1.7989 -3.40072 0.795065)
(-0.0037406 -3.47913 -0.120067)
(-1.0392 -3.91074 -0.255509)
(1.07757 -4.44781 -0.0606035)
(1.49034 -3.88009 0.0548706)
(3.59692 -2.57252 0.0675554)
(224.472 -33.7476 7.98883)
(88.4583 24.331 5.2734)
(129.546 -6.90082 -3.3811)
(26.5453 11.9222 1.13485)
(77.8572 19.659 3.45896)
(29.6754 -0.960185 4.60576)
(57.2424 36.0942 9.87007)
(38.5113 -13.9528 10.3014)
(58.0498 14.8929 12.0594)
(53.5702 -10.6303 9.11486)
(65.5741 3.63588 9.1177)
(60.3945 -7.43042 7.62513)
(59.9108 4.24742 8.80823)
(41.3486 -2.24548 7.97962)
(22.9119 4.56531 5.80668)
(13.3763 -1.1815 0.541225)
(9.17009 -1.95495 -0.348624)
(6.76962 -5.09085 0.0559756)
(6.51631 -4.28082 0.264833)
(6.16376 -2.85436 0.152077)
(69.1452 -136.677 87.0582)
(-55.2524 11.3422 -21.1108)
(48.8547 18.4245 -3.31007)
(-83.1496 14.3521 11.7492)
(42.596 15.1877 3.54634)
(-32.9042 -16.8036 4.6214)
(43.3849 1.2727 2.95126)
(7.79949 -22.843 3.38822)
(39.2106 -6.8544 0.501308)
(23.3736 -17.2642 -2.67716)
(39.4529 -4.70962 -4.09598)
(30.1913 -9.7288 -3.84749)
(38.233 5.75733 0.492359)
(28.3217 10.9764 2.18082)
(29.099 18.2967 0.725173)
(23.705 8.66657 -0.704826)
(20.2896 0.758873 -0.0140068)
(13.5851 -4.4237 0.457969)
(10.6459 -4.67237 0.564241)
(7.31747 -2.53004 0.254955)
(76.4956 77.2025 -18.3947)
(-80.015 23.1077 14.1936)
(78.2873 29.1198 1.23744)
(-43.6069 -8.20613 16.3866)
(62.0421 -10.1297 -0.260563)
(-25.6135 -16.3884 -0.377213)
(33.9992 0.061859 -0.663662)
(-24.2429 -17.1253 -7.01928)
(18.1764 6.91125 -9.33631)
(-11.8611 -8.39538 -12.1252)
(15.2971 7.36555 -12.8311)
(2.40337 0.494184 -11.5087)
(18.0811 14.275 -8.95456)
(15.8532 12.2091 -4.06071)
(31.5952 15.2168 -0.522649)
(32.7957 7.12055 0.515118)
(33.8129 3.32792 2.67527)
(25.3436 -0.930547 2.92268)
(19.0405 -2.04943 2.27888)
(11.7953 -1.55498 0.837036)
(100.71 134.488 40.4199)
(-151.115 6.28928 30.5098)
(65.7584 -23.7181 -6.74388)
(-84.1365 -17.5041 18.6044)
(36.9948 -5.21093 -2.26115)
(-74.941 0.255608 1.27992)
(17.2931 10.5066 -3.65197)
(-50.9507 2.42381 -6.05395)
(11.0009 6.60916 -9.77256)
(-21.8996 -4.35497 -10.901)
(10.331 -0.387835 -11.0711)
(-3.69491 -3.7368 -8.21448)
(16.5542 5.41528 -6.5813)
(14.8434 7.53199 -1.84786)
(28.5499 9.6287 1.95659)
(25.4826 5.89343 4.06974)
(25.2305 5.27781 5.55477)
(17.7705 3.2948 4.90454)
(13.7433 3.0864 2.90283)
(9.00891 0.470151 0.896928)
(179.482 65.5354 -43.1432)
(65.6454 33.7965 -9.88385)
(114.569 -20.8732 24.4881)
(29.6278 -22.3647 15.6906)
(69.1736 -2.26968 -1.33433)
(-11.3866 7.23253 -1.45209)
(36.2518 19.7845 -0.0558125)
(-23.8634 15.0975 -1.15479)
(20.4403 19.4709 -0.0437398)
(-11.3277 8.30022 -1.32384)
(17.1883 8.55598 0.529001)
(1.96733 1.31271 1.66173)
(16.8227 3.13449 3.53049)
(8.29318 -0.016665 4.8884)
(15.4873 2.04243 5.50395)
(8.83015 0.783745 5.65545)
(10.832 2.9013 4.06893)
(7.53191 2.14019 2.44975)
(8.15311 2.18138 1.19829)
(7.66317 0.189438 0.398707)
(-6.19435 250.787 -70.1329)
(-168.677 60.0189 1.71666)
(64.056 58.662 -0.629936)
(-65.8821 18.775 0.0490086)
(39.2623 30.1218 -8.06542)
(-34.319 16.9561 1.61195)
(29.3897 21.9741 3.4157)
(-26.0588 16.7574 3.46834)
(19.2828 15.9673 6.06045)
(-18.0853 7.78564 5.11011)
(9.59876 4.30999 5.95757)
(-12.0753 0.575558 4.51564)
(4.87051 2.11862 4.0799)
(-6.09744 2.20146 3.26228)
(3.99042 4.11672 2.35485)
(-1.3435 3.49954 1.50771)
(3.80034 3.76252 0.981741)
(3.21359 2.25643 0.507617)
(5.53278 2.13629 0.288869)
(6.71768 0.683293 0.0902991)
(5.47631 -4.22789 -36.6044)
(-65.604 -19.9507 -39.0964)
(59.4673 -50.003 -31.9923)
(-27.2855 -18.2479 -0.0226647)
(55.3372 -8.81905 -5.66383)
(-0.819258 -2.28003 -1.31355)
(44.8852 -0.846826 4.59209)
(-1.37165 3.35439 5.43967)
(28.5388 4.17458 9.97166)
(-4.02476 6.70386 9.66552)
(16.3801 5.06239 8.3724)
(-3.92095 3.05944 5.70172)
(8.1729 0.376185 3.67368)
(-3.85453 -0.472465 2.12298)
(4.40172 -0.622229 1.29359)
(-1.12866 -0.668455 0.760869)
(3.94353 -0.283763 0.488853)
(3.20653 -0.225372 0.253941)
(5.21172 -0.121313 0.141617)
(6.38517 -0.245845 0.0381477)
(-63.0781 -52.0722 133.641)
(-154.111 -55.2675 34.8178)
(85.4666 -33.0711 2.47768)
(-28.8856 -20.2461 16.4033)
(73.2555 -17.4071 11.6822)
(18.6566 -13.5428 5.404)
(67.9475 -6.45979 2.08222)
(38.4008 -5.91703 -4.59848)
(59.0556 -4.01497 -5.34234)
(44.9893 -7.76654 -9.13821)
(56.3206 -8.83717 -9.37866)
(52.7553 -10.8799 -11.0247)
(59.2162 -12.3061 -11.0541)
(63.3548 -18.1256 -7.71929)
(79.2373 -16.4919 0.653591)
(82.9213 -5.95856 5.64756)
(74.6634 6.2154 0.198662)
(43.6586 13.4079 -10.2674)
(24.9688 11.1334 -8.35069)
(17.3415 5.23306 -1.04379)
(240.513 135.667 -56.8932)
(-80.0121 55.5036 58.5595)
(63.3201 8.1459 -10.2314)
(-77.2222 18.6306 11.076)
(51.636 -3.67154 2.18449)
(-24.3398 4.0069 1.07817)
(41.4441 1.31054 2.09863)
(0.768311 -1.97028 -2.80863)
(29.8421 -4.86655 -0.898428)
(7.00138 -9.91385 -4.02275)
(17.78 -10.9695 -4.64122)
(4.4193 -10.5354 -6.8703)
(9.04232 -7.42034 -6.64727)
(3.6741 -3.82268 -1.6941)
(9.6099 1.8335 6.9582)
(7.85272 5.25147 6.70381)
(8.49598 11.7931 0.801068)
(6.87727 11.9238 -3.82259)
(8.3893 10.1621 -1.37227)
(10.8909 5.60328 1.94867)
(59.8986 -3.41452 -32.5429)
(-172.884 1.28198 -16.465)
(44.1211 -64.9183 -6.69636)
(-82.0663 -20.1774 -3.49161)
(34.3099 -43.9409 -4.72951)
(-30.1307 -11.02 -1.00173)
(32.9143 -17.8264 2.8353)
(-2.87385 -7.06 1.68745)
(25.2415 -13.3471 4.53653)
(1.32825 -12.2202 3.75011)
(10.5584 -16.4283 4.28225)
(-3.78954 -13.7098 4.33739)
(1.02527 -12.8582 5.60967)
(-5.35917 -9.22419 5.92094)
(-0.735114 -4.62511 3.95252)
(-2.25558 2.81751 0.69158)
(0.378406 9.86083 -0.834354)
(2.18945 12.6721 -1.18814)
(4.98688 12.6838 0.103907)
(7.578 7.86129 0.588847)
(155.534 19.2565 -124.237)
(-11.0416 50.3603 -28.2756)
(69.1125 -25.9353 -3.20446)
(-27.4506 -10.83 -2.26244)
(42.2587 -24.7024 1.22336)
(-15.4157 -6.52623 -0.935475)
(35.2463 -10.7144 1.98051)
(4.79444 -1.5365 0.764983)
(28.5672 -2.41506 4.27078)
(5.31878 0.259665 4.42306)
(10.1123 -2.14079 5.92702)
(-8.05703 -0.562087 5.40434)
(-5.53748 0.512451 4.34647)
(-11.3331 2.43783 3.59515)
(-10.11 4.85154 2.49363)
(-11.7446 7.17466 1.18531)
(-8.80967 10.1624 0.445256)
(-4.18345 9.8616 0.216668)
(-1.22678 9.90308 0.208276)
(3.72737 5.38323 0.394442)
(-38.8654 42.1426 -46.8387)
(-126.882 35.5756 -20.4483)
(17.7897 -15.1322 -10.5523)
(-90.8725 -16.0027 2.53164)
(12.4934 -33.6618 -7.08334)
(-69.7539 -15.7215 3.56916)
(7.25086 -28.337 3.18929)
(-29.2167 -5.45592 5.13467)
(8.70437 -11.0778 5.8131)
(-12.5483 0.304993 6.57288)
(0.889012 -7.3821 6.54429)
(-10.9088 -4.04598 5.63267)
(-6.45194 -7.25877 3.97017)
(-10.7634 -2.81903 2.25096)
(-7.33195 -2.5329 1.12504)
(-7.6197 2.43631 0.398607)
(-4.88738 5.5522 0.1541)
(-1.95042 6.58006 0.0295428)
(0.294039 7.10663 0.0310019)
(3.79993 4.95892 0.110648)
(115.782 -30.3025 114.765)
(-67.4443 1.27981 -2.30664)
(45.2198 -34.027 -4.46538)
(-49.7625 -25.053 2.00634)
(32.7288 -31.1441 -7.7706)
(-60.4449 -9.72734 4.17842)
(16.3458 -38.5195 3.7609)
(-27.5669 -8.50383 3.68756)
(2.22653 -16.3052 4.19512)
(-17.7133 2.5945 3.15472)
(-11.6053 -5.06505 3.92047)
(-17.4284 1.51446 3.31896)
(-13.4942 -0.104707 2.97744)
(-13.487 2.5162 2.16918)
(-12.1779 2.95055 1.68616)
(-9.72957 3.97495 0.75126)
(-7.80038 6.1603 0.319163)
(-3.80606 5.26594 0.19052)
(-2.72368 5.84765 0.109704)
(1.32407 3.53228 0.0657608)
(112.212 -50.3487 -159.993)
(-54.2799 -6.72573 -17.1224)
(27.8747 -25.6501 -5.55964)
(-63.18 -19.8612 7.38474)
(29.4777 -34.7547 -4.85372)
(-56.1849 -3.72995 6.59043)
(1.03635 -55.4076 4.24447)
(-51.85 11.1763 0.974977)
(-25.3092 -17.7372 -1.65312)
(-51.4392 11.8497 -4.26622)
(-37.8625 -8.437 -1.18529)
(-34.7268 -1.51703 1.26484)
(-24.25 -8.34184 1.90497)
(-20.9636 -2.74788 1.60408)
(-13.5944 -4.35522 0.947506)
(-10.59 -0.650783 0.521077)
(-6.24718 1.39485 0.30203)
(-3.41723 2.30529 0.226814)
(-1.79636 3.2944 0.132725)
(1.68877 2.4946 0.0468076)
(70.4427 113.294 -17.7578)
(-21.2986 8.22262 -21.5551)
(84.3411 -7.8966 -22.4462)
(3.20429 -32.3281 -3.58697)
(58.9467 -33.6664 2.99085)
(3.00235 9.26543 6.40128)
(24.9071 -26.3825 14.1227)
(-43.5355 24.4104 1.99613)
(-41.6853 -8.52971 -8.09548)
(-56.784 15.0182 -3.58143)
(-33.1476 -6.98326 2.10226)
(-26.6184 -10.029 3.72781)
(-16.0984 -6.82337 4.15019)
(-12.9808 -3.32141 3.06247)
(-9.27802 -6.14506 1.87443)
(-4.61129 -3.20383 0.894664)
(-5.67627 0.410155 0.781602)
(-2.41905 0.860324 0.501998)
(-2.04803 2.04827 0.429901)
(1.04443 1.33237 0.183223)
(-12.9886 -143.615 -74.7435)
(-123.631 -56.5718 -24.0389)
(57.2529 -9.60963 1.41265)
(-60.6567 -27.331 17.3803)
(21.2103 -17.3057 12.0014)
(-19.4207 11.0253 12.5336)
(8.3493 2.43579 12.3749)
(-43.0754 34.9842 12.3284)
(-14.9472 21.9071 -15.8419)
(-27.4793 11.8996 -14.1791)
(-22.2227 -13.7146 -4.91307)
(-17.1798 -17.9742 -1.25057)
(-17.0303 -7.86135 6.82052)
(-9.91879 -7.62549 8.19063)
(-4.56993 -1.86995 2.66669)
(-4.1694 -6.14169 1.08059)
(-1.15385 -1.76546 0.685613)
(-1.47817 -1.4684 0.722286)
(-0.831207 0.305309 0.914969)
(0.749213 0.178245 0.491102)
(7.27986 -18.7408 -265.176)
(-102.743 -62.8684 42.4538)
(101.817 -31.4774 -19.9915)
(-31.2031 -15.6457 13.2008)
(58.1364 -2.06289 15.1933)
(8.71338 0.00671256 17.2898)
(-1.08234 18.6805 21.7775)
(-32.3874 22.8966 4.23317)
(-11.9207 25.373 7.66192)
(6.59215 20.8064 -17.5909)
(8.53864 -10.4602 -20.6268)
(-13.5087 -27.1089 -8.26261)
(-11.088 -26.7317 -12.1016)
(-3.5384 -15.8209 1.32617)
(2.74766 -5.56615 3.55048)
(-0.00481335 -2.82783 1.19965)
(0.0785708 -2.46536 0.798454)
(0.127613 -1.15173 0.673498)
(-0.389562 -0.614833 1.07422)
(1.14431 -0.229526 0.626988)
(20.1341 -32.5162 -139.971)
(-183.215 -80.4948 5.89856)
(63.2992 -39.0431 10.1269)
(-66.1321 -13.2136 10.4199)
(18.6558 14.5893 0.503352)
(-29.9024 23.4213 0.783012)
(2.09651 31.339 5.17411)
(18.6109 22.72 12.2875)
(7.88651 23.1086 20.1298)
(13.6665 22.8891 -4.22554)
(26.4614 3.75035 -8.77719)
(23.6275 -12.1445 -3.82678)
(9.21362 -30.1264 1.45218)
(12.0997 -20.0591 -4.18782)
(8.39485 -6.60962 -0.000402127)
(0.783569 -4.03141 0.864869)
(0.762899 -1.88311 0.59946)
(0.637217 -2.65066 0.594617)
(0.348721 -1.52446 1.02955)
(1.63519 -1.28667 0.604278)
(176.895 -136.957 94.7743)
(-64.9023 -60.0875 -41.0608)
(109.962 -11.8761 7.36331)
(-28.1985 7.48037 12.2622)
(53.0503 29.1813 4.51043)
(3.16375 6.87361 2.56038)
(18.9995 17.7631 0.276699)
(18.0528 20.7303 -2.54876)
(22.4279 19.3609 -1.75942)
(20.4977 26.0695 4.76555)
(36.2602 14.3283 5.93543)
(42.2059 -8.67651 20.95)
(35.4626 -11.8996 1.57803)
(8.91055 -16.8005 2.76196)
(4.63596 -4.91205 0.173795)
(-2.61715 -0.591763 0.379549)
(0.299685 -2.59264 0.349451)
(0.144404 -2.47403 0.493825)
(0.766069 -2.4525 0.839677)
(2.25467 -1.63098 0.492807)
(228.708 -143.477 -34.5307)
(-94.6081 -39.0899 -39.0892)
(73.4801 -26.3232 -29.6697)
(-59.8914 12.0277 0.0136192)
(39.0429 25.5971 -6.64764)
(-23.8396 -19.1559 4.00341)
(35.4358 34.866 3.78203)
(24.5258 16.7439 4.85523)
(43.7719 20.6329 8.51055)
(38.3075 13.4491 13.4524)
(45.96 2.3896 6.47336)
(15.6045 -4.48596 -2.64935)
(2.03083 0.617639 -0.375648)
(-1.51276 -4.93209 1.29135)
(-2.84957 -3.63075 0.556662)
(-0.260598 -4.17059 -0.03662)
(-1.13819 -4.4398 -0.0630092)
(0.920214 -4.57907 0.0834578)
(1.36486 -3.95201 0.19506)
(3.55103 -2.59341 0.125069)
(151.979 -73.8246 -127.536)
(20.4958 -9.62452 2.68255)
(103.792 -13.4535 -2.28219)
(-1.74505 12.3793 4.98553)
(64.5462 22.8287 2.2926)
(7.95515 1.17288 6.11903)
(40.5328 46.5014 9.66963)
(18.5389 -4.07517 11.6144)
(41.035 31.689 12.9924)
(32.6603 5.26759 9.9171)