/*--------------------------------*- C++ -*----------------------------------*\
  =========                 |
  \\      /  F ield         | OpenFOAM: The Open Source CFD Toolbox
   \\    /   O peration     | Website:  https://openfoam.org
    \\  /    A nd           | Version:  10
     \\/     M anipulation  |
\*---------------------------------------------------------------------------*/
FoamFile
{
    format      ascii;
    class       volScalarField;
    location    "3.9";
    object      k;
}
// * * * * * * * * * * * * * * * * * * * * * * * * * * * * * * * * * * * * * //

dimensions      [0 2 -2 0 0 0 0];

internalField   nonuniform List<scalar> 
12920
(
12.2336
266.511
555.666
642.229
646.799
638.329
561.771
440.808
349.406
287.204
240.936
202.648
169.977
146.086
131.946
118.647
99.3078
76.1761
60.49
52.2211
1227.48
753.152
1020.24
899.832
861.384
829.053
712.005
599.068
495.733
433.869
360.893
301.281
248.555
210.696
179.22
155.276
136.664
123.213
114.495
111.447
3766.95
3288.5
2360.38
1394.3
993.599
823.437
677.399
632.484
577.46
554.837
508.281
476.64
433.647
378.028
301.415
232.6
177.574
142.219
127.056
123.8
3835.14
2406.02
1985.6
1114.42
774.172
644.027
549.139
530.396
504.207
498.795
478.418
461.897
429.825
368.343
293.586
226.374
179.346
151.801
143.299
134.033
478.203
1500.12
1721.22
1087.51
748.058
590.479
472.213
428.787
393.718
387.349
377.397
363.182
329.749
281.886
238.537
209.384
193.496
171.381
156.488
135.384
578.153
1578.53
1542.63
905.567
653.381
528.303
449.227
388.9
335.769
314.998
298.288
285.907
266.47
245.165
224.258
201.877
177.821
149.149
133.852
118.386
2826.05
3506.68
2897.09
1773.92
1041.7
709.393
577.93
471.397
373.242
300.997
260.889
243.23
230.811
219.528
202.802
177.456
152.541
130.737
121.557
110.717
8609.58
4563.21
3806.24
2266.45
1321.64
932.54
511.558
344.333
302.244
237.761
171.803
131.295
125.685
125.467
186.724
150.77
125.652
111.452
107.304
102.619
13138.6
4315.87
1571.37
1253.92
1016.63
580.03
344.737
254.572
246.3
215.13
146.299
120.35
88.0434
71.4417
110.764
132.761
111.159
102.912
98.7306
93.9418
6394.71
1907.92
1409.55
1155.23
940.254
496.683
246.379
166.729
162.99
151.423
97.0993
104.82
98.5674
74.7643
109.716
126.947
115.686
108.339
99.1069
86.5906
7397.98
3160.64
1841.44
1454.55
1177.34
677.636
382.867
214.001
155.966
161.27
174.325
95.383
69.5357
64.5831
96.0315
143.727
142.291
135.352
113.372
85.7052
4177.63
2770.5
1901.46
1495.89
1244.23
729.959
411.729
256.342
207.9
158.544
188.308
156.767
110.913
64.8741
118.56
221.627
205.116
159.23
113.502
79.0256
3521.38
1853.06
1696.29
1476.26
1252.83
946.553
584.102
374.646
260.74
190.408
182.946
160.485
121.387
121.69
252.466
250.721
234.649
179.482
126.741
84.7931
2330.59
2168.05
1726.86
1438.28
1099.59
900.585
664.368
495.09
375.778
319.586
271.525
240.236
230.106
231.915
241.801
245.559
240.012
209.477
161.577
105.671
1554.04
1873.03
1621.58
1298.65
1003.52
901.134
711.961
556.673
431.506
376.744
336.111
315.9
294.77
278.149
266.198
256.578
236.772
193.266
155.513
106.248
1246.62
1422.53
1254.49
1106.87
861.066
632.851
511.496
423.805
363.367
332.156
314.906
307.123
292.389
278.17
259.014
230.843
195.377
152.476
126.832
96.7968
4523.04
2203.98
1316.08
1080.94
729.4
487.01
369.51
311.46
276.734
264.649
263.057
261.004
254.196
238.239
207.847
171.877
141.969
116.911
106.697
93.5647
1566.96
1414.88
1298.43
1089.59
641.959
392.417
300.114
282.498
264.399
257.43
242.586
234.922
219.382
201.906
176.448
152.013
132.399
117.468
110.795
104.936
1148.05
1711.72
1302.49
862.214
502.447
342.942
261.352
228.033
212.977
210.131
203.353
198.281
186.524
172.645
154.176
137.171
123.923
116.674
115.637
117.488
450.693
1240.32
1224.29
892.605
571.579
378.776
259.539
183.944
134.076
109.783
102.36
99.618
95.2672
89.8378
84.0489
77.9728
74.8205
71.5616
70.4213
67.5589
22.2466
522.366
1082.99
1293.42
1336.91
1295.5
1066.21
803.711
627.319
536.139
472.822
412.266
358.689
327.617
300.945
254.8
199.083
154.988
132.365
119.872
2184.02
3650.84
3356.57
2470.33
2232.12
2054.49
1676.44
1471.13
1194.93
1011.44
826.187
702.832
600.441
528.984
471.872
440.901
420.044
397.951
374.515
365.945
4480.79
7070.12
5909.85
3554.45
2450.98
2053.21
1731.75
1647.34
1477.48
1376.37
1230.13
1131.65
1019.6
917.221
770.155
621.275
501.142
438.394
417.419
413.015
3106.59
6901.02
5547.11
3240.51
2174.44
1757.66
1483.6
1450.68
1363.44
1326.97
1237.45
1170.78
1076.67
949.169
773.754
623.15
534.99
486.082
464.234
435.691
1071.08
3851.86
4268.79
2737.63
2008.82
1545.78
1237.18
1183.64
1093.71
1093.85
1053.87
1003.13
906.007
797.941
692.33
629.165
591.39
526.787
478.52
425.606
6364.29
3993.92
3810.43
2108.74
1664.58
1337.32
1147.32
1032.32
908.187
872.175
829.096
799.947
750.17
697.228
645.759
584.839
505.751
429.164
396.631
366.929
3233.77
6744.32
5884.41
3804.48
2372.87
1751.6
1421.52
1187.98
941.887
798.426
708.864
667.109
632.575
596.919
550.66
484.94
425.396
383.825
368.308
348.675
14292
12591.8
7673.13
4721.18
2950.09
2203.52
1622.36
1394.59
1107.67
863.973
670.355
572.475
523.792
481.81
450.756
390.702
348.146
330.318
329.071
327.384
35441.7
22569.6
6139.58
3282.92
2373.59
1954.36
1655.7
1482.13
1243.03
1006.69
767.77
644.033
496.958
416.457
370.512
325.14
299.705
295.401
292.522
295.07
8436.93
4706.99
3919.93
2890.84
2178.66
1678.19
1315.76
1184.74
1032.27
878.586
670.221
569.573
449.301
374.222
330.01
302.434
292.591
283.515
268.329
266.295
7425.34
5178.52
4615.6
3747.06
2783.79
2197.21
1682.92
1334.9
1066.01
1047.13
887.473
504.793
342.005
280.386
267.12
337.789
342.19
325.832
277.998
244.813
5098.71
6770.69
5319.33
3966.77
3054.79
2281.11
1787.25
1517.42
1218.85
1034.42
905.704
693.121
497.733
351.373
381.402
472.536
449.717
358.746
260.81
214.421
5507.04
6211.08
5169.24
4120.94
3168.96
2356.32
1748.12
1422.01
990.704
785.295
683.28
568.801
487.387
486.952
600.391
590.276
544.598
412.557
292.814
226.894
7852.88
5729.74
4754.53
3971.18
2913.48
2217.87
1541.74
1220.21
988.652
873.931
753.857
690.829
666.203
672.517
686.91
679.827
640.316
523.481
392.642
277.576
7783.79
5577.52
4686.1
3769.77
2899.41
2372.85
1699.78
1371.81
1111.08
1033.54
936.258
886.639
823.944
791.731
754.717
713.585
637.284
512.389
400.927
290.498
2579.21
4011.3
3214.47
2930.18
2535.37
1954.37
1388.45
1125.3
962.651
930.067
883.823
860.687
805.502
757.181
691.563
617.781
519.986
412.37
342.09
279.063
6395.25
6027.41
2945.46
2274.07
1605.3
1360.17
981.765
854.014
766.628
760.615
745.791
725.35
668.964
609.995
533.097
460.734
391.228
335.346
309.919
281.282
4963.29
3590.51
2705.17
2259.96
1162.41
996.789
816.345
791.339
733.518
715.027
665.239
631.94
569.541
525.068
466.158
419.929
378.24
350.357
335.619
323.866
4444.39
4842.51
2766.09
1831.76
979.486
888.112
706.827
647.579
592.226
573.045
532.862
511.209
471.361
444.45
405.444
376.299
355.675
349.413
350.119
357.707
2523.86
2869.51
2063.17
1309.42
837.815
582.973
398.539
303.886
255.537
244.968
236.222
227.196
212.269
198.117
181.469
167.849
163.613
158.313
157.791
156.64
348.032
735.026
1138.06
1477.62
1535.79
1452
1128.67
868.58
712.36
616.435
538.331
466.206
405.254
351.165
299.49
244.196
198.426
169.373
161.806
157.076
11047.3
4929.12
3991.14
3351.06
3029.83
2687.16
2128.71
1834.96
1453.16
1211.47
979.136
837.5
724.143
650.638
603.495
581.711
577.421
574.353
572.422
575.708
2570.59
7661.57
6978.53
4626.82
3317.58
2754.6
2320.54
2149.06
1865.4
1666.26
1439.3
1281.41
1126.25
998.967
879.416
784.906
717.697
678.009
660.437
649.011
2918.37
7976.58
7144.15
4448.21
3085.91
2444.56
2082.11
1957.73
1760.15
1634.93
1465.59
1337.14
1188.2
1048.89
921.225
822.552
758.068
707.367
682.371
649.796
5355.42
5652.51
5452.48
3692.07
2874.61
2202.59
1842.15
1689.25
1515.52
1431.83
1302.33
1198.08
1074.1
969.318
885.298
823.671
773.357
712.009
677.017
629.147
18007.2
5876.89
4812.26
2959.69
2566.58
1980.19
1737.57
1508.94
1308.22
1204.8
1101.63
1023.83
942.101
871.773
808.692
741.298
676.273
620.038
594.509
558.596
4672.22
8210.57
6834.28
4407.81
3053.09
2388.43
1945.79
1590.38
1281.16
1101.14
972.196
893.291
822.546
761.104
697.563
639.311
597.915
567.539
555.228
531.892
8209.31
11065.8
8537.39
5428.23
3575.79
2758.34
2184.72
1809.47
1390.51
1109.65
922.019
809.129
725.69
656.022
598.438
558.815
539.69
530.554
527.848
517.182
23780.4
10449.2
6150.4
4197.71
3145.94
2694.47
2276.42
1906.37
1526.17
1210.96
973.919
808.973
668.585
580.162
513.938
491.021
479.953
480.025
480.473
483.234
6289.4
6966.04
5422.14
3755.97
2969.79
2384.91
2008.95
1700.17
1435.58
1185.45
935.209
737.081
592.399
512.533
461.048
448.722
439.789
436.254
435.894
444.081
7020.35
6959.24
6050.61
5053.3
3577.99
2809.41
2213.66
1772.44
1525.58
1376.66
827.866
515.058
370.535
363.729
395.532
475.885
468.034
438.906
409.944
400.615
4466.19
7514.32
7538.88
5866.67
4104.93
3004.21
2330.62
1875.21
1544.7
1347.6
1098.41
855.264
644.823
530.959
548.09
593.917
521.421
431.748
373.599
350.546
8852.89
9698.71
8493.17
6224.48
4473.83
3232.91
2455.81
1782.2
1315.07
1100.59
953.559
825.188
754.088
729.236
772.332
701.215
590.891
472.181
395.313
349.116
8950.38
8239.18
6784.88
5275.06
3799.4
2834.82
2046.03
1651.07
1371.15
1229.31
1097.35
1030.43
973.337
937.782
880.796
799.795
690.878
567.24
472.449
386.331
15180
8046.42
6321.19
4790.7
3523.97
2720.51
2018.08
1721.02
1482.11
1379.65
1259.77
1176.45
1079.4
999.621
909.622
808.508
691.455
567.473
480.12
391.025
3709.93
6460.43
5141.98
4397.12
3349.7
2462.13
1832.66
1566.96
1389.23
1305.89
1202.83
1117.24
1010.18
914.911
807.152
700.227
595.387
500.357
444.876
386
5312.2
6838.57
4179.47
2957.86
2333.6
1835.88
1451.47
1295.7
1181.53
1110.24
1016.75
929.73
825.325
737.279
646.36
570.928
509.422
462.185
437.324
406.19
6632.75
5089.75
3428.85
2288.73
1670.46
1410.42
1236.49
1134.31
1032.59
953.655
857.023
788.926
707.873
653.732
596.222
556.546
523.342
501.563
489.925
480.411
4566.06
6330.23
4202.41
2130.64
1327.29
1042.95
946.986
862.59
803.481
745.23
686.896
646.033
600.371
574.686
545.375
529.831
521.801
523.034
530.463
548.564
2039.81
2678.5
2321.2
1650.83
1010.21
595.907
437.13
359.669
334.124
310.408
296.898
277.572
261.398
247.287
234.199
226.38
225.706
221.22
220.05
215.164
1710.7
1081.58
1379.21
1701.72
1692.16
1481.47
1108.7
869.87
715.018
598.098
506.77
428.414
364.851
304.067
253.063
214.134
189.912
176.493
170.113
168.838
13303.3
8104.12
5253.29
4432.59
3892.75
3134.23
2544.19
2112.62
1656.98
1343.95
1092.53
943.042
840.457
786.549
767.296
766.855
777.777
791.595
803.701
827.874
4609.27
10336.2
8142.21
5245.87
4107.21
3255.61
2861.28
2521.01
2164.83
1835.91
1564.26
1360.83
1207.27
1095.44
1019.5
966.578
936.45
918.831
909.79
908.201
18586.2
11114.2
8485.42
5184.75
3869.83
2920.68
2610.64
2319.09
2067.79
1812.82
1598.82
1418.15
1269.19
1148.42
1065.12
1001.35
961.897
926.923
908.379
883.45
14484.7
8388.64
6761.77
4444.51
3640.07
2650.62
2352.2
2048.23
1844.77
1647.56
1481.98
1334.35
1213.34
1115.67
1049.21
993.265
951.967
908.388
884.817
847.123
20430.7
8086.31
5629.02
3690.37
3330.93
2437.47
2236.93
1854.86
1628.18
1442.99
1309.19
1193.38
1098.33
1018.7
954.893
895.654
853.231
816.647
797.846
767.532
14459.7
9690.14
7352.46
4618.7
3722.06
2853.79
2384.97
1866.02
1552.6
1325.2
1179.79
1067.12
978.847
906.17
847.555
805.624
783.545
764.314
755.259
736.026
12222.4
11557.7
8979.46
5517.57
4084.72
3140.45
2576.62
2042.76
1577.27
1287.19
1098.46
967.433
868.972
793.951
765.502
746.565
743.454
739.983
737.078
725.506
18796
9731.86
7643.47
4977.88
3865.78
3226.02
2688.35
2140.09
1653.37
1314.8
1079.05
910.245
785.076
708.168
665.057
684.628
685.276
689.848
693.233
699.247
8010.21
8762.63
6946.16
4406.51
3587.06
2852.82
2431.08
2001.53
1645.55
1316.97
1036.73
820.506
693.41
632.428
603.577
624.586
625.688
632.362
643.232
663.398
8860.1
8731.31
7840.78
5626.04
4155.39
3148.62
2488.76
2027.78
1739.78
1452.74
918.469
600.156
503.869
512.442
556.449
627.296
608.112
593.772
590.096
595.293
20326.3
12272.2
10131.3
6869.85
4740.69
3411.13
2626.61
2052.51
1706.64
1448.67
1177.6
946.678
775.791
688.644
687.794
679.061
599.904
546.985
522.043
519.221
13773.9
14387.1
12080.5
7945.55
5497.26
3750.12
2870.31
1958.19
1553.92
1343.19
1193.18
1072.15
993.601
924.387
881.819
754.597
641.504
561.804
517.932
494.803
14533.2
11170.6
8991.27
6163.7
4500.23
3143.6
2395.67
1951.57
1704.64
1540.61
1422.93
1333.94
1237.33
1128.15
996.522
857.673
732.84
630.532
564.377
510.461
16732.9
12453.3
8482.97
5489.32
4085.65
2890.83
2337.92
2019.29
1825.97
1680.48
1555.96
1422.99
1288.85
1145.46
1003.67
859.203
736.679
632.76
567.127
503.505
19719.1
12171.3
7640.96
5436.16
4009.52
2740.84
2222.64
1909.96
1760.55
1603.45
1474.7
1311.99
1170.1
1016.7
886.316
764.394
672.274
597.899
554.905
507.046
6589.04
7098.13
5470.21
3581.47
2963.86
2153.09
1898.31
1638.29
1530.81
1365.87
1235.9
1076.92
954.144
840.141
753.801
683.51
635.364
596.571
574.502
546.579
18380.1
7099.11
4281.44
2627.4
2280.46
1753.7
1641.66
1415.46
1309.88
1143.48
1032.49
920.637
841.356
782.772
739.4
710.773
689.056
676.528
669.317
660.025
12083.8
10413.3
5403.08
2709.45
1660.37
1202.97
1191.77
1064.48
1004.7
888.73
831.392
767.913
736.464
719.815
711.638
714.376
720.398
731.53
752.022
772.422
770.94
2954.55
2992.29
2124.81
1129.68
586.522
457.483
385.771
364.168
326.178
309.503
280.53
264.87
250.213
239.894
234.776
234.579
231.18
229.474
218.769
6441.59
2720.72
1486.89
1640.84
1603.93
1310.21
985.576
757.404
586.238
444.309
347.89
276.261
231.792
202.25
186.936
177.936
174.114
171.769
171.327
172.15
51788.4
21154.2
7181.18
4954.33
4707.57
3167.41
2944.82
2160.2
1832.49
1360.19
1191.04
1027.15
987.55
962.497
978.91
999.6
1038.3
1070.09
1096.46
1141.33
27238
9889.81
9185.22
5362.45
4953.52
3469.37
3372.01
2690.6
2414.3
1880.59
1669.91
1415.17
1321.06
1225.27
1201.01
1177.99
1180.42
1184.96
1189.29
1202.27
24388.2
12075.2
9363.7
5770.03
4486.93
3256.68
3077.44
2519.36
2334.33
1887.09
1719.88
1479.88
1381.77
1274.92
1238.84
1199.38
1189.08
1172.73
1163.47
1150.76
19036
11817.8
8105.62
5393.55
4356.72
3080.52
2862.98
2302.68
2167.57
1793.13
1673.02
1461.37
1380.82
1275.73
1236.65
1187.57
1166.81
1140.73
1127.53
1104.95
13160.5
12602.9
6525.55
4974.63
4022.19
2983.48
2767.73
2130.55
1963.7
1638.63
1533.24
1363.36
1278.72
1185.15
1135.81
1090.01
1069.86
1050.83
1039.09
1021.03
33936.8
12289.1
7934.89
5347.87
4557.18
3290.11
2941.8
2087.56
1878.07
1537.74
1428.38
1259.11
1183.45
1096.52
1053.29
1022.69
1014.64
1003.08
997.932
987.874
18262.4
13592.6
9846.03
6066.5
4944.83
3414.91
2933.38
2234.02
1809.45
1503.43
1329.74
1179.91
1087.76
1018.98
1015.1
992.912
988.36
988.026
986.228
980.672
35163.3
15254
9916.26
6456.17
4801.09
3628.97
3066.24
2339.42
1826.22
1492.65
1271.42
1116.51
1021.52
967.218
945.432
949.203
943.327
946.44
953.208
963.813
16172.3
11431.4
9101.31
5643.94
4529.52
3259.98
2793.77
2304.72
1872.31
1467.7
1170.62
980.582
942.455
919.811
883.846
876.248
874.73
886.455
910.074
933.735
10908.7
10305.1
9709.94
6298.3
5085.68
3429.95
2795.84
2345.07
1965.46
1543.54
1166.67
863.336
807.989
837.533
842.927
848.469
827.875
828.209
838.852
854.278
22465.3
14919.8
12460.7
7303.75
5563.34
3667.69
2929.7
2322.78
1941.64
1610.62
1347.08
1150.81
1059.58
983.724
927.697
839.007
773.645
749.039
748.874
760.878
25336.5
18638.6
15415
8887.08
6788.85
4154.15
3120.39
2164.12
1867.69
1646.68
1535.84
1411.06
1318.96
1177.95
1035.89
873.615
782.733
738.166
720.635
717.363
16135
15712.2
12353.6
7170.92
5627.61
3425.95
2875.51
2324.97
2139.23
1897.07
1819.02
1661.25
1540.16
1323.54
1141.01
963.206
858.813
780.608
742.525
718.642
28620.4
20555.8
12372.1
6520.5
5263.56
3208.27
2938.9
2400.75
2293.61
2029.89
1927.6
1699.32
1546.16
1310.48
1140.41
967.268
866.414
782.364
737.935
698.882
19550.4
12129.5
10759.9
6470.38
5131.42
3059.16
2844.58
2315.92
2253.05
1949.04
1833.51
1539.57
1400.47
1153.14
1040.67
900.925
840.964
776.443
746.317
709.516
10416.9
8312.63
7455.38
4502.83
4081.45
2634.48
2578.77
2058.94
2006.22
1674.98
1557.36
1274.43
1178.32
1010.06
956.244
875.349
848.659
810.638
793.56
763.948
13589.7
9500.06
6250.57
3462.33
3269.46
2230.21
2300.06
1797.65
1750.29
1422.14
1343.16
1134.74
1094.93
1002.71
991.443
959.041
954.517
943.806
936.012
920.216
5396.35
10597.7
8494.75
3618.31
2414.33
1566.29
1766.71
1361.67
1393.03
1132.24
1121.14
993.473
1004.59
970.472
997.145
1007.57
1035.38
1044.86
1056.04
1056.12
471.438
2738.31
2974.83
2130.59
944.645
515.907
440.285
375.565
349.695
304.179
279.555
254.8
242.666
232.784
228.19
224.429
222.784
218.76
213.951
197.059
990.809
1321.25
905.075
1290.04
1078.12
1393.05
881.489
784.885
796.63
590.902
1016.41
848.899
752.293
570.136
952.177
1393.47
1188.25
1438.89
913.205
1457.38
1227.48
583.585
1107.25
876.669
779.938
565.553
1149.15
934.808
250.902
276.144
212.543
1381.42
1342.05
1140.87
1125.49
250.354
210.447
200.227
1309.38
1162.75
1091.01
982.508
221.737
198.176
187.758
1117.75
962.353
953.466
852.679
165.376
180.213
125.331
913.679
722.188
813.404
634.664
122.553
103.881
104.365
679.682
597.921
589.247
550.364
97.4626
116.46
116.534
573.095
462.282
536.593
448.323
72.949
103.738
78.3248
430.557
370.201
416.793
350.422
58.8472
74.2785
55.4608
356.219
331.231
334.376
299.901
171.729
335.255
212.921
1012.4
1012.34
1177.39
1085.16
162.901
190.815
145.045
988.544
903.713
1009.43
844.666
156.377
137.861
138.426
878.508
789.257
825.678
829.241
114.952
142.694
162.842
755.001
605.315
835.335
793.272
93.124
161.547
96.768
557.758
509.543
725.21
472.963
107.344
86.1652
75.2913
497.366
422.015
429.018
336.601
78.2916
72.8249
70.5127
396.844
341.471
317.702
284.196
55.3555
69.858
52.9372
326.483
295.591
276.079
255.354
234.296
396.056
265.981
1305.7
1191.86
1422.42
1348.96
165.29
256.476
221.527
1120.49
914.466
1301.66
1120.99
158.345
205.085
168.143
881.237
876.352
1044.28
923.7
174.768
170.844
200.772
887.514
874.409
921.298
886.756
120.612
199.268
167.015
821.637
508.89
851.155
665.508
73.7021
150
110.266
443.903
331.326
599.136
455.362
65.0148
99.9754
66.8463
305.323
259.834
408.46
287.154
51.0056
62.6921
51.0515
251.203
236.736
268.744
255.41
267.88
482.196
314.522
1429.24
1353.45
1228.16
1202.13
223.582
291.222
223.096
1311.16
1136.16
1180.72
1000.05
157.258
197.389
135.577
1055.12
891.338
900.779
707.365
187.989
130.792
144.485
880.492
835.548
686.722
649.084
168.213
144.924
138.89
808.228
672.043
639.3
582.465
124.049
135.357
111.011
621.981
490.6
562.431
457.311
69.4851
93.7173
65.953
442.498
314.734
418.288
356.035
50.6286
66.0394
67.4858
297.188
279.367
356.535
383.205
1528.07
1435.52
1321.42
2153.84
1909.47
1967.96
1737.52
1299.18
1273.68
1136.35
1829.06
1559.95
1659.66
1455.19
1062.75
1098.41
972.908
1479.89
1242.81
1395.44
1211.94
809.202
925.811
745.574
1177.24
981.18
1148.81
963.402
674.127
702.619
633.831
938.938
816.246
915.371
782.805
527.72
607.284
501.179
778.782
663.434
737.146
615.621
432.068
469.698
401.446
634.978
563.854
585.595
515.942
374.794
384.428
337.884
546.356
498.439
498.163
451.25
1225.38
1536.49
1317.38
1866.57
1675.24
2025.25
1729.62
1066.92
1227.3
1038.96
1602.12
1415.13
1634.6
1441.63
920.706
1013.76
992.231
1360.81
1191.95
1403.82
1299.61
718.101
986.497
879.4
1131.99
944.702
1265.05
951.686
594.688
793.38
543.862
891.478
753.343
845.602
614.335
475.638
491.892
381.064
707.712
591.813
556.698
439.704
390.067
358.674
318.731
563.723
499.528
418.487
387.777
332.112
310.142
281.24
482.942
441.882
383.874
369.964
1426.04
1779.15
1568.08
2121.9
1797.69
2200.6
1894.31
1102.32
1502.81
1288.18
1697.46
1482.48
1804.48
1563.13
1046.34
1209.06
1091.34
1444.56
1362.74
1503.52
1390.73
970.693
1078.28
997.817
1333.71
1023.73
1350.52
1165.46
571.85
945.87
734.462
904.223
619.452
1086.84
852.833
372.212
666.318
509.451
552.216
402.518
785.39
608.857
289.517
457.266
332.977
374.545
341.641
554.765
447.486
260.97
313.299
293.653
340.855
345.427
430.39
420.273
1577.17
1725.87
1514.09
2227.74
1915.01
2263.96
1935.83
1303.65
1440.3
1175.72
1823.3
1563.49
1794.18
1422.96
1056.76
1053.93
856.421
1492.49
1348.76
1318.39
1133.98
946.054
821.569
752.948
1302.81
1132.34
1090.33
972.73
746.444
734.231
659.878
1069.76
883.123
938.448
828.629
548.985
634.624
520.785
826.601
664.601
794.251
681.814
370.134
484.524
428.192
612.865
507.013
657.1
613.845
322.683
427.827
438.667
489.473
462.568
609.297
602.88
1998.32
2100.82
1837.68
2590.71
2211.07
2426.1
2080.75
1613.36
1751.74
1527.63
2088.34
1726.13
1973.03
1690.74
1278.04
1461.39
1261.91
1623.53
1355.73
1606.07
1363.18
1017.26
1195.04
1005.93
1287.27
1098.45
1287.07
1085.99
846.676
955.359
811.584
1052.19
919.869
1029.42
871.759
696.305
764.266
644.21
883.163
779.502
825.609
717.09
597.289
614.847
546.297
754.235
688.037
690.925
631.463
529.402
528.893
480.804
673.071
628.379
616.894
578.017
1780.73
2135.34
1816.28
2335.26
2031.93
2376.83
2031.61
1495.76
1723.11
1530.35
1932.74
1677.92
1938.98
1724.7
1249.72
1487.74
1357.24
1599.22
1365.83
1662.72
1463.69
1166.36
1118.79
1195.69
1227.6
1126.3
1157.86
1241.21
884.741
883.651
913.739
968.724
855.775
914.087
944.736
620.363
534.888
441.395
800.911
691.621
544.236
499.988
528.711
426.081
408.183
666.233
611.244
493.884
493.13
470.475
407.038
396.168
598.028
565.917
495.736
495.355
1869.99
2290.09
1952.57
2420.79
2057.52
2498.67
2105.05
1565.94
1858.09
1618.84
1963.44
1751.45
1999.91
1756.68
1417.78
1563.44
1441.28
1693.8
1510.78
1696.85
1524.17
1358.86
1272.66
1414.29
1397.74
1342.89
1149.35
1443.59
801.65
731.902
972.826
611.914
850.351
546.147
929.285
388.783
810.331
634.031
514.715
457.303
871.971
712.415
360.058
582.755
484.604
453.414
461.892
672.375
597.428
372.453
469.01
456.762
468.327
481.336
584.805
572.157
1974.38
2430.86
2025.18
2559.79
2121.18
2760.77
2200.29
1611.01
1860.91
1477.38
2004.43
1731.21
1996.07
1612.57
1399.03
1375.59
1199.05
1665.94
1490.26
1527.05
1351.6
1163.35
1151.86
1026.69
1425.85
1223
1302.37
1161.95
911.416
988.442
873.093
1157.24
976.427
1120.21
1000.05
693.561
837.851
730.909
922.461
777.135
966.305
876.617
547.627
708.999
666.367
739.326
662.454
858.202
807.985
499.774
660.136
644.785
647.174
614.096
795.907
757.782
2273.35
2523.7
2153.39
2968.86
2443.52
2796.85
2375.31
1759.13
2038.9
1738.21
2283.38
1874.12
2243.7
1898.12
1383.16
1647.86
1391.36
1769.71
1503.73
1794.36
1503.41
1125.93
1312.48
1107.11
1434.07
1251.01
1416.67
1199.41
946.34
1048.96
890.533
1205.33
1078.75
1139.23
989.542
809.305
845.802
743.406
1044.96
959.265
953.528
889.446
722.155
719.293
665.097
939.447
890.322
877.339
844.147
664.506
651.888
613.735
878.604
844.06
834.278
801.574
2105.89
2451.73
2100.28
2692.75
2332.35
2669.57
2325.41
1730.26
2006.6
1779.95
2217.47
1904.48
2229.84
1964.55
1396.5
1710.34
1484.27
1803.72
1508.53
1870.28
1572.1
1099.99
1406.98
1004.96
1418.56
1188.15
1472.51
1182.89
867.496
887.63
664.282
1122.44
958.139
1086.59
852.441
716.6
618.28
543.366
918.593
855.049
796.109
716.657
644.203
534.229
532.035
847.254
823.967
716.803
732.521
600.955
534.737
532.013
815.568
786.734
734.493
723.664
2121.93
2565
2160.37
2700.31
2345.4
2774.97
2366.08
1805.19
2052.93
1803.4
2249.73
1988.17
2254.81
1978.73
1525.65
1738.74
1545.59
1896.52
1602.86
1897.01
1641.66
1043.09
1473.49
1241.55
1505.89
1210.81
1556.4
1324.29
659.719
1164.91
954.462
1109.64
856.647
1253.06
1058.74
512.695
893.267
743.077
793.998
704.422
1005.3
901.49
506.792
706.922
638.949
702.997
718.866
882.991
838.126
520.147
627.066
609.394
722.204
717.548
826.128
793.069
2171.98
2848.76
2237.88
2829.77
2359.76
3056.14
2351.1
1774.65
2033.17
1661.19
2235.09
1944.06
2152.45
1831.61
1516.71
1578.05
1403.04
1866.03
1632.46
1761.82
1588.04
1242.66
1352.43
1210.17
1554.25
1345.81
1534.01
1399.71
999.247
1167.84
1049.77
1284.98
1121.34
1362.63
1260.75
810.01
1016.98
930.809
1076.12
981.281
1229.12
1149.83
703.775
911.693
856.348
959.36
899.408
1127.43
1052.81
650.269
841.491
790.975
882.123
827.982
1026.41
938.456
2508.3
2899.36
2463.26
3634.01
2952.41
3468.02
3002.35
1927.92
2325.61
1966.99
2735.25
2306.49
2832.59
2414.93
1563.79
1859.82
1558.22
2217.08
1943.43
2292.84
1940.05
1315.45
1468.75
1250.73
1846.27
1687.65
1837.73
1613.92
1149.63
1192.01
1051.41
1646.93
1538.15
1558.52
1441.61
1039.37
1019.96
977.831
1499.02
1450
1425.15
1457.64
978.496
971.76
945.552
1435.44
1400.47
1457.67
1428.37
931.732
936.4
899.151
1388.49
1332.1
1418.2
1366.46
2423.3
2761.38
2420.29
3370.47
2981.42
3325.13
3008.28
1978.36
2323.27
2043
2835.44
2444.62
2890.07
2538.23
1560.86
1939.31
1615.7
2313.73
1941.89
2399.23
1995.11
1234.98
1512.49
1235.27
1834.5
1590.89
1874.6
1593.84
1014.89
1144.18
916.79
1529.35
1396.77
1510.49
1297.03
941.558
863.402
808.431
1377.85
1427.81
1261.24
1314.47
927.989
819.032
847.354
1446.9
1423.94
1367.42
1387.82
883.895
847.537
824.256
1412.34
1342.94
1377.69
1316.5
2442.76
2874.17
2462.65
3410.32
3053.03
3535.58
3104.16
2067.08
2347.97
2058.91
2927.83
2570.99
2954.33
2595.29
1644.64
1970.52
1693.04
2431.99
2026.72
2473.67
2113.17
1261.72
1604
1373.89
1906.74
1621.02
2007.48
1770.02
922.498
1305.73
1120.62
1534.11
1304.08
1705.58
1532.6
798.86
1071.87
992.746
1262.78
1309.48
1498.06
1508.55
836.308
983.068
945.608
1362.48
1384.02
1521.43
1475.82
819.141
932.614
886.816
1374.73
1306.23
1457.95
1382.42
2450.68
3143.4
2409.39
3645.37
3093.31
3760.42
2937.62
2023.4
2212.94
1911.29
2926.08
2566.16
2712.77
2456.18
1692.03
1845.33
1671.19
2461.09
2134.09
2362.52
2157.26
1404.86
1614.69
1487.63
2037.41
1828.62
2080.94
1983.59
1192.16
1453.87
1357.19
1774.51
1630.19
1945.22
1849.27
1076.02
1325.08
1248.52
1601.83
1600.98
1808.78
1752.68
1002.36
1225.3
1144.29
1591.89
1522.21
1723.6
1624.14
918.207
1113.26
1009.57
1499.28
1400.46
1575.72
1455.34
1087.14
1052.79
979.248
1026.5
1051.58
1089.96
1011.68
1180.89
1242.26
1215.84
1354.03
1156.2
1286.45
1141.53
1052.87
952.843
1043.78
699.184
1049.8
949.093
865.719
1198.54
1261.38
1215.34
1306.07
1189.07
1276.86
1225.63
1117.31
1054.67
1144.59
1064.91
1119.7
1039.49
1143.79
1208.92
1369.57
1341.72
1252.26
1317.67
1137.26
1243.64
1078.42
660.687
1014.72
1064.18
967.105
840.414
1127.67
828.479
834.115
751.112
809.841
802.543
861.39
774.642
807.758
870.332
701.877
605.187
802.586
870.333
533.023
746.279
692.616
632.965
506.32
743.081
697.479
500.061
908.49
994.862
957.72
994.27
937.888
970.77
929.859
850.019
830.41
901.866
814.149
883.145
794.503
870.357
818.297
560.173
924.387
659.52
884.914
491.448
849.901
756.61
473.504
731.981
606.264
705.051
466.959
787.191
1226.56
1100.7
1105.06
729.089
1231.74
897.042
1077.41
1374.43
1415.02
1334.92
1422.05
1354.83
1443.52
1357.39
1284.96
1177.7
1265.72
1203.65
1273.3
1184.16
1283.61
1365.85
1413.59
1282.51
1466.47
1148.41
1457.98
1373.13
1228.36
701.323
1081.71
1107.44
880.069
1073.23
1247.92
1385.33
1441.61
1473.07
1384.58
1461.08
1372.38
1392.86
1292.53
1215.68
1201.97
1307.13
1191.22
1296.09
1300.38
692.953
637.292
649.824
475.884
738.998
472.311
606.367
979.539
1075.87
1026.76
1122.46
974.136
1080.41
1043.31
886.881
791.055
949.375
897.484
878.129
803.263
968.13
801.876
577.617
681.204
973.832
503.325
925.787
857.889
701.09
441.594
595.362
680.49
437.314
617.47
760.455
990.924
1135.72
1103.66
1073.49
1089.16
1058.4
1009.2
902.167
916.584
846.58
1002.19
822.424
985.411
923.462
387.209
507.18
447.152
958.852
1014.52
1008.22
1102.49
324.34
421.676
398.792
993.989
938.944
1083.23
1027.61
271.045
368.895
337.478
853.136
765.55
940.633
851.281
202.549
296.982
258.296
657.712
560.804
754.98
661.33
144.192
227.488
204.284
462.713
407.746
587.843
531.694
125.782
172.897
145.326
364.857
353.198
461.008
397.072
125.216
129.43
123.477
341.188
334.384
359.116
343.293
113.506
120.227
101.367
315.917
328.176
321.519
335.982
491.496
525.832
454.59
1160.23
1223.09
1035.48
1039.43
615.367
265.987
318.828
601.15
668.246
546.208
272.788
690.753
254.97
255.907
774.679
769.564
696.312
249.841
651.803
239.332
241.423
714.643
686.891
662.125
239.821
562.217
203.498
223.461
597.266
557.237
593.687
214.823
355.386
133.906
143.919
415.284
388.787
382.738
129.596
346.064
116.315
126.296
344.417
325.478
352.3
125.77
231.929
81.5637
98.1458
225.082
200.787
259.082
87.3171
185.091
71.122
71.1993
172.607
166.428
189.761
69.0868
95.4884
112.256
81.8373
258.541
254.959
250.04
250.015
400.72
574.156
477.384
937.096
882.495
1025.66
982.215
405.472
198.79
254.743
402.911
417.525
402.541
203.637
385.295
164.108
152.74
473.158
475.106
390.962
144.631
397.474
162.788
136.746
470.196
465.215
393.102
137.591
385.913
146.175
141.595
417.303
396.791
397.719
140.328
238.119
89.3284
105.343
258.115
244.303
271.908
90.7556
257.311
109.594
90.8239
285.788
288.817
252.16
96.3754
218.2
89.5671
90.6279
247.967
229.857
229.122
85.4081
185.039
71.8507
74.7598
193.168
187.323
190.782
71.938
78.7803
105.292
76.4347
236.866
239.479
219.719
221.869
563.998
687.815
579.419
1212.34
1187.21
1266.02
1250.04
563.266
308.592
383.885
559.748
550.677
565.529
310.354
541.605
196.956
225.627
514.58
489.344
558.58
211.115
452.941
153.517
168.425
411.218
411.048
454.465
165.88
499.177
163.732
177.301
444.563
460.696
491.244
180.982
485.145
169.839
177.1
498.248
471.312
502.484
172.904
225.452
84.1465
115.919
226.413
209.368
270.608
94.485
171.361
66.7561
71.8465
176.017
167.67
183.46
68.0511
144.507
63.6764
61.8875
155.802
152.956
147.582
60.6959
69.6341
98.5264
83.2613
198.165
202.975
215.609
245.05
609.775
788.051
649.298
1302.76
1272.26
1219.2
1116.88
610.284
332.193
414.822
615.918
622.114
612.012
336.101
616.028
245.714
251.592
652.163
646.801
620.972
237.968
455.642
183.844
202.19
554.213
491.42
540.364
170.845
431.417
165.184
142.183
449.425
471.175
410.417
150.393
452.759
186.075
173.069
497.831
489.278
458.244
172.204
370.786
144.553
156.579
398.453
362.475
396.86
147.379
223.698
94.5891
113.62
265.905
222.541
270.535
95.8094
170.263
63.7119
67.9117
157.63
157.04
169.185
67.5546
96.6127
143.774
130.86
272.956
299.258
332.868
384.606
443.839
587.466
446.04
904.683
913.786
892.421
860.592
318.827
376.252
315.897
899.813
829.605
785.866
679.757
212.825
261.82
209.67
690.3
589.726
611.35
535.825
185.79
178.787
161.008
540.3
518.274
479.706
446.334
176.463
148.841
132.011
492.469
455.211
428.014
393.788
137.932