/*--------------------------------*- C++ -*----------------------------------*\
  =========                 |
  \\      /  F ield         | OpenFOAM: The Open Source CFD Toolbox
   \\    /   O peration     | Website:  https://openfoam.org
    \\  /    A nd           | Version:  10
     \\/     M anipulation  |
\*---------------------------------------------------------------------------*/
FoamFile
{
    format      ascii;
    class       volScalarField;
    location    "3.9";
    object      k_0;
}
// * * * * * * * * * * * * * * * * * * * * * * * * * * * * * * * * * * * * * //

dimensions      [0 2 -2 0 0 0 0];

internalField   nonuniform List<scalar> 
12920
(
13.4567
273.179
559.521
646.574
650.752
641.449
561.967
440.39
349.111
287.029
240.781
202.454
169.826
146.07
132.012
118.601
99.0861
75.9317
60.3694
52.2103
1332.35
745.932
1011.37
899.566
864.082
831.551
712.739
599.031
495.924
433.918
360.693
300.972
248.288
210.454
178.986
155.073
136.52
123.115
114.435
111.43
3706.05
3306.08
2344.34
1386.48
992.583
823.773
678.221
633.515
578.704
555.977
509.235
477.476
434.117
377.789
300.739
231.896
176.984
141.88
126.944
123.775
3695.88
2381.54
1975.72
1111.48
773.042
644.486
550.121
531.458
505.446
500.039
479.541
462.82
430.177
367.924
292.863
225.649
178.856
151.582
143.213
133.982
422.481
1500.39
1725.8
1091.85
749.54
591.68
473.092
429.566
394.629
388.176
378.123
363.602
329.606
281.465
238.183
209.226
193.397
171.233
156.325
135.283
581.608
1589.71
1546.95
904.59
653.37
529.089
449.67
389.225
336.126
315.514
298.824
286.251
266.634
245.185
224.205
201.771
177.611
148.945
133.729
118.326
2604.37
3522.38
2915.75
1774.17
1036.89
707.345
577.488
471.019
372.665
300.806
261.045
243.528
231.09
219.719
202.826
177.326
152.37
130.618
121.496
110.68
7602.11
4606.23
3846.64
2285.71
1322.42
931.62
511.727
344.464
302.195
237.339
171.419
131.411
126.084
125.817
186.612
150.574
125.515
111.422
107.325
102.628
10712.8
4175.39
1540.75
1260.67
1022.48
582.555
346.529
254.813
246.281
214.978
145.696
120.368
87.8807
71.6005
110.696
132.483
111.087
102.92
98.7408
93.9551
6337.91
1844.33
1403.21
1156.32
940.809
496.692
246.637
167.658
163.849
151.611
96.3638
105.606
98.13
74.7284
109.535
126.837
115.725
108.344
99.0286
86.5353
7184.62
3095.49
1841.12
1457.68
1178.27
678.974
383.471
213.582
155.658
161.363
174.318
94.4701
69.5009
64.7127
96.0561
143.973
142.532
135.399
113.097
85.5598
4390.57
2806.46
1904.35
1500.9
1246.25
730.578
411.751
256.999
206.637
158.996
188.432
156.297
110.134
64.8419
118.861
222.076
205.225
158.703
113.066
78.8309
3323.33
1833.2
1688.34
1481.51
1256.52
945.701
582.234
374.1
259.531
190.43
183.251
159.928
121.043
122.021
253.22
251.307
234.672
178.727
126.169
84.5321
2512.94
2178.15
1725.87
1440.85
1102.04
901.109
663.012
493.483
375.01
319.258
271.352
240.287
230.453
232.393
242.41
246
240.209
209.005
160.935
105.293
1591.76
1887.37
1623.73
1301.93
1005.21
903.345
712.366
556.142
431.084
376.758
336.277
316.191
295.073
278.437
266.519
256.783
236.638
192.802
154.975
105.922
1237.66
1421.18
1254.15
1109.99
860.934
633.335
512.3
424.324
363.711
332.579
315.387
307.572
292.752
278.426
259.103
230.663
194.967
152.065
126.502
96.6136
4435.49
2162.18
1310.66
1082.24
728.163
486.073
369.712
311.635
277.029
265.093
263.563
261.485
254.541
238.305
207.634
171.546
141.67
116.723
106.588
93.5096
1490.41
1414.63
1303.91
1093.32
640.127
391.249
300.357
283.031
264.839
257.827
242.881
235.181
219.548
201.908
176.308
151.83
132.247
117.378
110.762
104.95
1240.04
1714.45
1283
850.945
496.553
340.99
260.818
228.282
213.435
210.601
203.688
198.548
186.663
172.664
154.111
137.082
123.863
116.689
115.699
117.578
530.643
1272.52
1230.03
870.571
562.546
375.202
257.875
183.108
133.709
109.803
102.566
99.8118
95.3978
89.9215
84.1002
78.0187
74.8708
71.6073
70.4635
67.5909
23.8567
531.903
1092.26
1301.2
1344.03
1299.56
1063.82
801.417
626.475
536.193
473.052
412.289
358.843
327.933
300.915
254.31
198.494
154.626
132.198
119.839
2310.02
3662.46
3353.69
2470.86
2238.02
2057.42
1677.36
1470.64
1194.19
1010.44
825.218
702.003
599.82
528.412
471.423
440.652
419.839
397.591
374.162
365.768
4682.48
7192.74
5917
3539.77
2446.66
2053.04
1733.94
1649.65
1479.65
1378.1
1231.52
1132.76
1020.29
916.901
768.593
619.323
499.748
437.709
417.143
412.87
3181.38
6962.34
5556.95
3239.29
2172.55
1758.17
1486.06
1453.3
1366.23
1329.52
1239.39
1172.26
1077.15
948.007
771.62
621.354
534.108
485.575
463.877
435.437
992.502
3853.38
4285.88
2754.24
2012.69
1548.95
1239.62
1185.99
1096.2
1096.06
1055.36
1003.84
905.691
796.871
691.438
628.877
591.102
526.185
477.921
425.233
6905.46
4017.39
3820
2113.56
1663.54
1338.96
1148.23
1033.44
909.252
873.632
830.461
800.828
750.559
697.323
645.645
584.378
504.987
428.61
396.385
366.764
2974.05
6763.36
5903.89
3806.89
2363.03
1746.83
1420.5
1187.01
941.315
798.419
709.424
667.845
633.151
597.271
550.606
484.523
425.021
383.618
368.18
348.525
14602.9
12495.2
7721
4755.19
2952.48
2201.09
1622.23
1393.78
1106.95
862.729
669.733
572.664
524.156
482.051
450.476
390.308
347.942
330.33
329.095
327.324
37180.1
22634.3
5901.27
3282.59
2381.31
1958.81
1657.85
1483.29
1243.71
1005.53
767.35
643.218
496.31
416.322
370.228
324.784
299.614
295.394
292.484
295.038
8351.99
4726.66
3905.44
2892.07
2176.95
1677.23
1319.01
1187.43
1033.47
877.845
669.109
569.189
448.759
373.995
329.737
302.205
292.474
283.282
268.088
266.141
7247.2
5205.72
4628.9
3753.94
2780.95
2198.13
1683.83
1331.08
1066.27
1049.18
882.713
502.537
341.286
280.485
267.201
338.098
342.286
325.503
277.394
244.504
4811.77
6858.97
5324.89
3971.63
3053.34
2282.44
1789.55
1517.84
1216.32
1035.36
905.034
691.396
495.102
350.825
381.881
472.892
449.468
357.259
259.871
214.055
5305.42
6170.6
5142.55
4125.57
3170.26
2349.76
1743.45
1419.04
988.092
784.94
682.686
567.369
487.174
487.661
601.143
590.703
544.01
410.536
291.543
226.409
7802.25
5730.14
4760.52
3980.73
2909.8
2209.95
1536.16
1217.43
987.097
873.206
753.323
691.036
667.145
673.769
687.923
680.559
640.119
521.688
390.932
276.682
7975.75
5594.68
4709.26
3779.39
2900
2371.12
1695.52
1369.59
1110.19
1033.92
936.632
887.282
824.691
792.544
755.311
713.728
636.496
510.907
399.44
289.681
2740.84
4043.58
3210.02
2944.2
2545.89
1951.71
1385.3
1124.44
962.905
930.999
884.801
861.587
805.995
757.527
691.532
617.185
518.85
411.219
341.275
278.641
6529.3
6040.94
2902.74
2267.96
1611.36
1361.7
980.219
853.779
767.172
761.62
746.869
726.121
669.073
609.861
532.592
460.028
390.522
334.881
309.654
281.136
4703.07
3587.08
2698.06
2253.98
1158.04
996.467
817.175
792.506
734.428
715.947
665.77
632.308
569.625
524.984
465.869
419.583
377.946
350.183
335.561
323.918
4663.2
4799.92
2700.19
1814.48
972.211
887.04
707.511
648.549
593.305
573.899
533.402
511.629
471.576
444.521
405.351
376.204
355.693
349.55
350.302
357.963
2659.98
2904.96
2027.41
1293.91
831.21
579.673
396.651
303.307
255.752
245.466
236.643
227.485
212.433
198.199
181.491
167.922
163.717
158.409
157.895
156.757
329.363
744.154
1146.98
1486.5
1543.63
1454.77
1125.73
867.111
712.213
616.716
538.518
466.229
405.213
350.986
299.105
243.666
198.02
169.234
161.79
157.104
11508.8
4868.62
3980.2
3356.51
3037.39
2688.79
2128.58
1833.31
1451.47
1209.61
977.639
836.255
723.211
649.873
603.028
581.499
577.338
574.18
572.257
575.633
2629.35
7748.47
7003.92
4609.79
3314.48
2754.53
2322.78
2151.07
1866.8
1666.92
1439.56
1281.29
1125.76
998.02
878.276
783.849
716.947
677.532
660.121
648.792
3074.83
8113.21
7187.51
4456.61
3087.37
2446.67
2084.59
1960.2
1762.11
1636.34
1466.42
1337.28
1187.57
1047.67
919.937
821.547
757.371
706.828
681.968
649.473
5415.08
5669.83
5480.06
3712.16
2879.91
2206.97
1844.53
1691.49
1517.37
1433.15
1302.98
1198.07
1073.62
968.662
884.786
823.313
772.894
711.471
676.555
628.771
16734.8
5906.44
4828.6
2964.61
2567.17
1983.29
1737.91
1509.95
1309.13
1205.91
1102.46
1024.28
942.249
871.771
808.532
740.863
675.772
619.651
594.211
558.324
4254.76
8249.68
6874.7
4414.86
3048.05
2387.73
1945.61
1589.75
1281.03
1101.34
972.7
893.75
822.841
761.163
697.374
639.022
597.706
567.369
555.049
531.68
8481.93
11226.2
8601.57
5461.51
3577.61
2756.44
2184.23
1807.63
1389.71
1108.81
922.055
809.299
725.89
656.101
598.256
558.698
539.685
530.563
527.787
516.977
24397.5
10245.3
6158.32
4209.9
3153.38
2695.01
2275.76
1906.72
1526.11
1209.8
973.779
808.384
668.344
580.08
513.73
490.929
479.952
480.01
480.39
483.117
6386.74
6959.27
5413.01
3755.35
2968.38
2382.77
2010.77
1700.94
1435.39
1184
934.495
736.11
592.082
512.436
460.883
448.531
439.598
436.061
435.72
443.958
6995.06
6979.72
6060.81
5061.27
3572.67
2806.43
2211.45
1769.96
1526.42
1375.86
825.746
512.957
369.932
364.034
395.611
475.92
467.851
438.42
409.59
400.397
3955.83
7568.48
7565.95
5861.9
4095.85
2997.66
2325.04
1872.2
1544.64
1347.22
1096.9
853.479
642.784
530.439
548.268
593.654
520.383
430.754
372.987
350.264
8493.1
9676.37
8509.72
6235.52
4472.96
3224.54
2447.74
1776.09
1313
1099.88
952.598
824.32
754.176
729.629
772.319
700.395
589.446
470.829
394.45
348.701
9246.89
8244.56
6799.99
5287.3
3796.21
2828.69
2041.38
1648.37
1369.39
1228.43
1096.88
1030.59
973.819
938.242
880.761
799.183
689.634
565.817
471.252
385.636
15084.2
7810.8
6330.92
4796.61
3520.54
2716.37
2014.36
1719.57
1481.67
1379.87
1259.89
1176.71
1079.5
999.604
909.242
807.624
690.127
566.133
479.01
390.341
3702.4
6519.94
5144.22
4412.04
3351.52
2457.99
1830.17
1566.43
1389.48
1306.33
1203.08
1117.36
1010.01
914.544
806.432
699.202
594.231
499.416
444.2
385.58
5452.01
6845.02
4153.48
2964.24
2339.5
1835.77
1450.81
1296.11
1182.22
1110.75
1016.91
929.571
824.872
736.704
645.648
570.234
508.849
461.786
437.039
406.023
6342.59
5079.1
3410.88
2284.37
1672
1412.2
1237.78
1135.23
1033.19
953.95
857.034
788.837
707.659
653.488
595.933
556.29
523.162
501.46
489.915
480.478
4720.35
6292.67
4124.07
2099.71
1324.28
1042.68
949.09
863.715
804.441
745.725
687.202
646.244
600.507
574.791
545.455
529.954
522.01
523.282
530.826
548.935
2071.67
2687.91
2294.42
1635.65
1000.98
591.745
436.145
359.655
334.568
310.84
297.299
277.856
261.625
247.476
234.382
226.618
225.93
221.381
220.201
215.286
1642.02
1033.7
1393.21
1713.9
1701.13
1481.53
1107.57
869.431
715.034
598.15
506.729
428.281
364.584
303.663
252.656
213.836
189.742
176.438
170.12
168.875
12647.9
7807.75
5254.23
4460.11
3903.23
3140.36
2545.63
2112.61
1655.58
1342.3
1090.98
941.75
839.569
786.03
767.11
766.777
777.813
791.56
803.638
827.969
4510.96
10368.2
8159.08
5245.45
4108.42
3260.44
2866
2525.27
2166.59
1836.64
1564.12
1360.36
1206.63
1094.76
1018.9
966.126
936.122
918.548
909.515
908.019
19548.1
11191.1
8554.58
5207.77
3878.22
2927.79
2615.33
2323.91
2070.04
1814.2
1599.11
1417.9
1268.56
1147.7
1064.51
1000.87
961.496
926.525
907.991
883.119
14239.8
8441.67
6808.25
4466.68
3650.17
2657.65
2355.64
2052.06
1846.73
1648.95
1482.42
1334.37
1213.09
1115.41
1048.98
992.974
951.627
907.979
884.392
846.715
20224.9
8107.42
5659.81
3695.55
3336.15
2442.98
2237.49
1857.25
1629.47
1444.26
1309.89
1193.79
1098.47
1018.71
954.75
895.374
852.948
816.318
797.472
767.163
12794.8
9739.04
7403.27
4623.07
3721.53
2859.65
2386.59
1867.33
1553.19
1325.89
1180.26
1067.4
978.916
906.076
847.357
805.421
783.381
764.084
754.958
735.69
11999.2
11701.6
9029.34
5533.85
4084.44
3143.45
2578.4
2041.52
1577.05
1286.73
1098.54
967.295
868.855
793.753
765.407
746.533
743.434
739.836
736.8
725.108
19642.1
9774.77
7690.13
5005.65
3875.22
3229.72
2689.02
2140.11
1652.45
1313.73
1078.62
909.653
784.699
707.91
664.92
684.574
685.194
689.679
692.962
698.922
8223.57
8814.55
6928.92
4400.97
3584.48
2852.27
2433.31
2001.56
1644.08
1315
1035.76
819.772
693.097
632.155
603.339
624.312
625.443
632.142
642.993
663.121
8815.65
8707.44
7840.96
5626.02
4146.82
3145.39
2486.51
2026.46
1738.83
1450.29
917.202
599.213
503.468
512.345
556.222
626.91
607.658
593.365
589.763
594.975
20487.2
12412
10110.7
6850.87
4721.3
3400.5
2618.69
2049.75
1706.37
1447.05
1175.76
944.744
774.256
687.73
687.261
678.007
598.846
546.216
521.546
518.872
13822.4
14635.3
12115.6
7941.8
5485.18
3736.49
2860.81
1953.15
1552.56
1342.43
1192.2
1071.43
993.177
923.778
880.363
752.897
639.983
560.752
517.24
494.321
14879.2
11092.1
8984.74
6165.04
4493.8
3136.51
2391.67
1949.34
1703.2
1539.82
1422.43
1333.66
1236.78
1127.2
995.095
855.983
731.225
629.266
563.417
509.779
15756.1
12359.1
8439.6
5473.27
4075.18
2883.09
2334.84
2018.12
1825.72
1680.42
1555.69
1422.5
1287.93
1144.22
1002.1
857.45
735.069
631.495
566.146
502.781
20699.8
12187.4
7637.64
5437.52
4004.78
2734.25
2220.74
1909.32
1760.58
1603.05
1474.1
1311.01
1168.89
1015.3
884.839
762.964
671.059
596.979
554.167
506.472
6363.29
7096.93
5459.16
3584.2
2965.65
2150.58
1898.39
1637.96
1531.03
1365.22
1235.03
1075.7
952.935
838.979
752.782
682.663
634.698
596.019
574.041
546.176
17431.7
7071.18
4241.51
2619.76
2283.24
1754.5
1642.86
1415.23
1309.79
1142.6
1031.73
919.78
840.672
782.187
738.935
710.365
688.753
676.273
669.115
659.805
12490.7
10458.4
5292.86
2672.24
1656.28
1202.31
1194.73
1064.73
1005.14
888.491
831.264
767.679
736.432
719.848
711.779
714.538
720.609
731.783
752.378
772.594
898.961
3040.66
3015.85
2096.7
1116.36
581.751
456.967
385.868
364.504
326.421
309.783
280.703
265.098
250.422
240.139
235.084
234.86
231.404
229.639
218.839
6225.27
2471.19
1472.5
1649.47
1609.47
1310.2
985.247
757.152
585.774
443.857
347.467
275.928
231.528
202.088
186.849
177.891
174.091
171.752
171.318
172.127
52653.8
20038.3
7004.17
4975.15
4704.44
3179.4
2951.29
2167.65
1834.84
1362.61
1192.14
1029.05
989.417
964.901
981.445
1002.26
1040.95
1072.46
1098.4
1143.43
25961.3
9832.76
9182.19
5369
4952.94
3483.23
3382.12
2702.15
2420.79
1886.1
1673.33
1418.52
1323.91
1228.31
1203.98
1181.02
1183.4
1187.71
1191.48
1204.55
24522.4
12143.6
9390.28
5781.65
4502.95
3264.77
3090.88
2531.37
2342.62
1893.42
1724.05
1483.58
1384.85
1278.07
1241.9
1202.33
1191.85
1175.16
1165.35
1152.72
19104
12005.7
8192.68
5413.46
4380.4
3088.16
2872.66
2313.1
2174.82
1799.63
1677.58
1465.59
1384.26
1279.08
1239.7
1190.31
1169.34
1142.96
1129.18
1106.65
13033.7
12570.9
6568.7
4973.05
4043.53
2984.41
2774.93
2139.07
1970.22
1644.8
1537.9
1367.59
1282.14
1188.29
1138.58
1092.51
1072.23
1052.83
1040.51
1022.49
34383.6
12212
8003.2
5335.82
4569.3
3297.21
2946.17
2095.83
1883.05
1543.46
1432.26
1262.74
1186.22
1099.12
1055.65
1024.86
1016.7
1004.85
999.184
989.225
18096.3
13675.4
9891.32
6055.27
4948.01
3426.98
2933.83
2234.43
1810.19
1504.51
1330.67
1180.63
1088.32
1019.52
1017.41
994.86
990.253
989.582
987.235
981.79
35650.9
15372.7
9990.06
6467.22
4811.62
3633.56
3069.31
2340.84
1827.53
1494.16
1273
1117.64
1022.54
968.237
945.847
950.894
944.779
947.736
954.002
964.767
16362
11532.9
9097.67
5644.84
4522.96
3255.6
2795.82
2305.99
1872.6
1468.04
1171.15
981.362
943.413
920.475
883.683
877.345
875.838
887.564
910.81
934.57
11072.2
10361.4
9727.65
6298.6
5076.71
3419.21
2793
2345.19
1965.21
1543
1166.48
863.084
808.207
837.704
842.323
848.98
828.577
828.936
839.365
854.823
22744.6
14894.2
12407.2
7283.55
5536.02
3644.77
2919.55
2321.87
1942.2
1610.5
1346.98
1150.4
1059.33
983.437
926.282
838.578
773.678
749.4
749.106
761.23
26844.4
18554.5
15376.8
8860.26
6763.47
4137.79
3103.12
2157.54
1865.03
1645.08
1534.52
1409.79
1317.32
1175.75
1034.31
872.563
782.331
738.178
720.618
717.391
16857.3
15786.6
12319.6
7162.54
5613.35
3420.24
2875.28
2324.22
2140.16
1897.96
1820.2
1661.97
1539.92
1322.35
1139.58
961.954
858.094
780.281
742.188
718.433
30460.2
20928.2
12327.1
6505.43
5247.07
3201.75
2935.43
2401.28
2294.11
2030.66
1928.04
1699.16
1545.34
1309.09
1138.93
966.003
865.633
781.909
737.449
698.528
18795.9
12247.1
10805.1
6481.79
5122.15
3054.25
2842.76
2316.31
2253.28
1948.74
1832.96
1538.45
1399.19
1151.74
1039.55
900.068
840.517
776.184
745.932
709.172
10658
8372.99
7483.78
4513.68
4081.56
2631.69
2577.14
2057.66
2005.28
1673.71
1555.91
1273.08
1177.17
1009.21
955.715
875.051
848.595
810.618
793.345
763.691
13982.1
9429.17
6206.17
3459.19
3271.25
2231
2300.28
1796.11
1749.18
1420.63
1341.86
1133.89
1094.33
1002.53
991.439
959.182
954.787
944.081
935.993
920.089
5658.34
10683.3
8390.88
3580.63
2405.21
1566.54
1768.27
1359.99
1392.4
1130.82
1120.55
993.056
1004.73
970.799
997.806
1008.28
1036.14
1045.51
1056.28
1056.23
604.173
2828.55
3001.61
2110.71
932.891
513.404
440.435
375.79
349.999
304.318
279.73
254.968
242.881
233.008
228.438
224.67
223.004
218.926
214.06
196.998
989.799
1319.31
902.663
1288.1
1077.08
1390.2
879.628
783.962
794.743
589.623
1015.54
848.071
751.376
570.129
949.545
1393.19
1186.13
1436.58
912.369
1455.77
1225.22
581.708
1104.93
874.435
779.539
565.089
1146.93
932.575
251.321
277.945
213.997
1384.05
1344.13
1147.64
1129.71
250.205
211.514
200.861
1310.73
1163.9
1093.92
984.452
221.578
198.883
188.065
1118.53
961.947
955.312
853.463
164.368
180.562
124.125
912.689
720.84
813.666
632.938
122.618
103.29
105.366
679.037
597.83
588.795
551.001
97.0988
117.217
116.264
572.357
461.188
536.696
447.254
73.004
103.074
78.1842
429.705
370.009
415.885
350.044
58.914
74.2294
55.4295
356.09
331.089
334.083
299.589
172.685
334.444
212.144
1015.69
1016.23
1174.63
1079.5
163.818
189.87
144.558
991.763
905.619
1004.13
843.709
156.597
137.717
138.736
880.043
789.289
826.172
830.922
113.751
143.324
162.855
754.537
602.983
836.453
790.52
93.9919
161.288
95.7315
556.323
510.18
719.787
470.843
107.273
85.9923
75.2918
497.498
421.245
427.718
336.075
78.2073
72.876
70.6407
396.227
341.19
317.476
284.331
55.3155
69.9685
52.9652
326.248
295.313
276.212
255.353
234.269
396.249
266.843
1305
1188.89
1424.24
1350.15
164.522
257.028
220.625
1116.51
912.159
1301.77
1117.89
158.707
203.608
168.432
880.963
878.664
1040.77
925.309
174.963
171.558
200.837
889.959
873.591
923.119
886.828
118.527
199.1
166.267
817.673
504.819
850.013
662.589
73.6327
149.178
110.032
441.731
330.447
596.706
453.711
65.1528
99.4843
66.5875
304.709
259.862
406.131
286.134
51.0516
62.6646
51.1972
251.304
236.768
268.242
255.542
268.559
481.25
314.532
1431.49
1355.18
1227.37
1203.78
222.921
290.94
222.418
1311.89
1133.66
1181.92
997.514
157.472
196.093
135.022
1051.73
892.252
897.869
707.1
188.337
130.763
144.957
881.767
835.784
687.159
649.646
167.749
145.198
138.84
807.919
670.195
639.818
581.981
123.629
135.247
109.846
620.281
488.639
561.656
454.708
69.1381
92.3566
65.8852
439.927
313.688
415.722
356.158
50.8077
66.1355
67.9222
296.709
279.648
356.893
383.902
1529.67
1441.78
1325.41
2154.07
1910.3
1971.02
1740.06
1300.18
1276.53
1138.21
1829.86
1560.45
1661.57
1456.24
1062.12
1100.11
973.462
1480.19
1241.88
1396.23
1211.54
808.143
925.785
744.407
1176.09
980.846
1148.02
962.779
673.839
702.37
633.934
938.833
815.805
914.983
782.022
526.828
606.876
500.202
778.127
663.02
736.18
614.998
431.873
468.919
401.093
634.699
563.713
585.124
515.7
374.571
384.138
337.569
546.269
498.268
497.958
451.057
1228.48
1534.12
1312
1868.71
1676.87
2022.08
1725.88
1068.48
1222.4
1038.39
1603.29
1415.58
1631.77
1441.77
920.479
1014.46
993.4
1360.98
1191.01
1404.39
1298.72
716.222
987.078
875.916
1130.71
943.556
1263.41
948.659
594.743
788.302
541.729
890.77
752.473
842.824
612.685
474.902
490.303
380.438
706.722
591.285
554.972
439.139
389.805
358.372
318.87
563.349
499.37
418.275
388.125
331.827
310.299
281.251
482.804
441.712
384.247
370.097
1423.18
1781.28
1568.76
2120.56
1794.68
2197.7
1891.94
1100.78
1502.52
1285.5
1694.62
1482.66
1802.16
1562.04
1048.57
1206.55
1092.98
1445.59
1362.84
1503.6
1391.67
967.957
1079.8
997.296
1333.37
1020.31
1350.75
1163.55
568.307
944.242
731.655
900.694
617.268
1084.56
850.493
371.169
664.006
507.46
549.922
401.386
783.218
606.353
289.512
454.765
331.92
373.842
341.758
552.387
446.531
261.013
312.704
293.745
341.089
345.554
429.775
420.316
1578.36
1724.14
1514.8
2224.11
1912.76
2256.43
1931.19
1301.45
1440.3
1173.15
1821.02
1562.25
1789.91
1420.02
1057.73
1051.21
856.298
1492.12
1349.36
1316.56
1133.73
945.878
821.802
753.29
1302.78
1131.2
1090.25
972.354
744.571
734.487
659.213
1068.36
881.358
938.062
827.45
546.844
633.68
518.423
824.83
662.247
792.973
680.396
369.1
482.424
428.35
610.574
506.171
656.25
613.907
322.937
428.193
439.305
488.931
462.72
609.546
603.264
1998.69
2103.42
1839.73
2590.74
2210.99
2427.99
2081.86
1613.48
1753.23
1528.25
2088.17
1725.39
1973.56
1690.07
1277
1461.74
1261.19
1622.62
1354.5
1605.08
1361.62
1016.96
1194.02
1005.27
1286.12
1098.05
1285.48
1085.1
846.23
954.867
810.729
1051.83
919.38
1028.6
870.889
695.95
763.312
643.678
882.633
779.165
824.792
716.658
597.139
614.443
546.095
753.968
687.842
690.573
631.256
529.226
528.723
480.622
672.929
628.249
616.715
577.906
1781.96
2132.1
1813.03
2336.96
2032.46
2374.29
2029.46
1495.84
1720.76
1530.38
1932.65
1676.92
1937.37
1723.76
1248.54
1487.97
1355.62
1597.91
1363.93
1661.56
1461.44
1164.5
1117.26
1193.76
1225.98
1124.41
1156.27
1239.13
884.154
882.998
912.819
967.984
855.068
913.354
944.051
619.904
533.545
441
800.149
691.287
544.155
500.085
528.594
426.02
408.63
665.99
611.114
494.125
493.536
470.307
407.481
396.297
597.906
565.797
496.067
495.43
1867.03
2285.5
1949.42
2417.98
2055.14
2492.08
2101.45
1566.2
1855.34
1618.17
1961.67
1750.95
1997.1
1756.25
1416.72
1563.8
1441.75
1693.21
1509.62
1696.77
1523.08
1356.16
1271.4
1413.77
1396.52
1340.49
1146.16
1442.07
796.322
729.743
968.035
611.094
845.941
545.31
923.268
387.759
808.155
631.548
513.712
456.747
869.759
710.423
360.216
580.541
483.704
453.109
462.012
670.686
596.52
372.589
468.428
456.758
468.464
481.351
584.12
571.932
1971.04
2421.74
2019.27
2551.56
2116.92
2748.12
2192.89
1610.01
1855.65
1474.79
2001.06
1730.52
1990.03
1610.26
1399.3
1373.82
1198.85
1665.72
1489.31
1525.52
1350.77
1162.01
1151.58
1026.21
1424.44
1221.26
1301.58
1160.73
909.667
987.82
871.91
1155.47
974.59
1119.03
998.663
691.315
836.602
729.817
920.56
775.362
965.058
875.781
546.852
708.437
666.422
737.828
661.59
857.699
807.584
499.845
660.331
645.091
646.485
613.894
795.608
757.384
2273.53
2526.43
2154.66
2973.23
2445.96
2801.9
2378.6
1758.37
2039.51
1737.37
2285.38
1875.29
2246.14
1898.78
1381.98
1646.66
1389.67
1770.73
1504.58
1794.68
1503.24
1125.46
1310.83
1106.14
1434.88
1251.91
1416.48
1199.34
945.772
1048.04
889.655
1206.14
1079.26
1139.12
989.488
808.857
844.995
742.922
1045.34
959.47
953.526
889.472
721.837
718.86
664.761
939.626
890.489
877.312
843.981
664.286
651.576
613.475
878.771
844.299
834.117
801.483
2106.59
2449.9
2098.66
2696.78
2335
2669.4
2326.22
1729.13
2005.33
1778.8
2219.42
1904.92
2230.77
1964.7
1394.5
1708.87
1481.61
1803.8
1508.01
1869.94
1570.77
1098.87
1404.11
1003.31
1418.04
1187.81
1471.04
1182.21
866.666
886.665
664.214
1122.11
957.957
1086.02
851.972
716.231
618.118
543.349
918.53
855.092
795.654
716.455
643.93
534.314
532.2
847.259
823.743
716.616
732.151
600.686
534.831
531.876
815.328
786.529
734.075
723.183
2120.1
2558.87
2157.36
2699.82
2346.13
2770.18
2366
1804.49
2050.74
1803.04
2250.74
1988.61
2255.47
1979.88
1523.56
1738.5
1544.14
1896.43
1601.6
1897.84
1641.06
1041.6
1471.61
1239.32
1504.55
1209.91
1555.55
1323.23
658.948
1162.74
952.224
1108.7
855.616
1251.93
1057.29
512.123
891.084
741.158
793.08
703.814
1003.86
900.166
506.696
705.24
637.872
702.436
718.256
881.716
836.994
519.967
626.184
608.921
721.601
716.988
825.102
792.292
2168.31
2836.55
2230.93
2822.66
2358.98
3042.07
2346.48
1774.13
2027.82
1659.35
2235.25
1945.23
2149.5
1831.26
1515.48
1576.7
1402.3
1867.05
1632.2
1761.83
1588.46
1240.82
1351.63
1208.94
1553.72
1345.01
1534.34
1399.66
997.348
1166.64
1048.44
1284.15
1120.23
1362.57
1260.65
808.267
1015.82
929.945
1075.01
980.155
1229.05
1149.5
702.704
911.085
855.691
958.248
898.309
1127.1
1052.03
649.783
840.91
790.218
881.092
827.161
1025.62
937.344
2509.97
2902.92
2465.72
3679.18
2979.99
3507.74
3035.36
1929.25
2327.4
1967.67
2765.31
2329.81
2862.86
2440.61
1565.26
1860.4
1558.81
2243.65
1963.53
2317.5
1960.88
1317.08
1469.4
1251.55
1869.64
1707.54
1857.65
1631.99
1150.83
1192.83
1052.24
1669.11
1556.94
1576.1
1458.58
1040.38
1020.81
978.84
1519.51
1468.59
1442.39
1477.89
979.504
972.728
946.316
1455.48
1418.88
1477.73
1448.05
932.773
937.17
899.865
1408.1
1348.86
1437.71
1385.42
2425.07
2759.03
2420.13
3408.85
3013.54
3354.82
3039.47
1978.79
2323.42
2042.9
2865.45
2470.51
2920.32
2564.28
1561.1
1938.98
1615.04
2337.93
1962.17
2423.13
2014.62
1235.48
1511.9
1235.3
1853.82
1608.07
1893.08
1609.58
1015.56
1144.28
916.898
1545.92
1412.45
1525.44
1310.09
942.539
863.553
808.919
1393.76
1447.25
1274.38
1331.45
928.673
819.613
847.756
1467.11
1443.66
1386.48
1407.24
884.495
847.896
824.449
1431.85
1360.91
1396.86
1334.72
2442.45
2866.75
2461.36
3444.43
3084.51
3560.89
3135.31
2067.13
2347.62
2059.45
2958.52
2597.44
2985.22
2623.16
1643.97
1970.93
1692.73
2456.23
2046.46
2499.8
2134.27
1261.58
1603.65
1373.59
1925.49
1636.91
2027.65
1787.98
922.141
1305.39
1119.97
1549.05
1316.81
1722.93
1547.91
798.969
1071.23
992.275
1275.58
1326.19
1513.58
1527.38
836.485
982.719
945.313
1381.33
1403.34
1541.47
1494.89
819.274
932.395
886.643
1393.82
1323.44
1476.89
1400.49
2448.61
3125.81
2403.2
3673.73
3123.59
3769.82
2966.66
2023.97
2208.44
1910.02
2956.21
2593.57
2733.05
2481.6
1691.99
1844.66
1671.47
2487.92
2155.92
2383.25
2182.81
1404.75
1614.94
1487.75
2058.3
1847.59
2101.23
2006.41
1191.8
1454.07
1357.46
1793.16
1647.27
1965.03
1871.88
1075.73
1325.38
1248.59
1619.25
1621.38
1828.15
1773.23
1002.04
1225.32
1143.87
1612.12
1541.2
1741.58
1642.75
917.98
1112.8
1008.64
1518.14
1417.14
1591.57
1471.76
1085.67
1051.4
977.943
1025.54
1049.91
1088.62
1010.66
1178.4
1240.01
1212.88
1351.75
1153.68
1283.93
1138.38
1052.15
951.929
1040.56
698.059
1048.12
949.548
863.089
1196.49
1259.58
1213.57
1303.68
1187.37
1274.61
1223.5
1115.87
1053.69
1143.19
1064.02
1118.35
1038.63
1142.26
1206.15
1367.22
1338.82
1248.55
1314.81
1133.81
1240.98
1077.78
660.061
1014.43
1060.89
967.765
837.736
1126.42
827.762
833.333
750.286
808.936
801.758
860.556
773.945
808.337
869.818
700.627
604.784
802.374
870.971
533.115
746.78
692.188
632.075
505.685
742.78
697.488
499.866
908.048
994.079
956.866
993.733
937.107
970.245
929.423
849.502
829.555
901.006
813.645
882.311
793.972
869.901
819.282
560.638
924.68
659.206
885.866
492.372
850.359
757.704
474.089
732.396
606.634
705.392
467.618
787.693
1221.93
1097.43
1100.44
727.159
1227.9
894.023
1071.49
1372.5
1414.82
1333.88
1421.26
1353.42
1442.65
1355.94
1282.1
1174.57
1264.04
1201.41
1270.77
1180.89
1281.66
1362.89
1412.2
1279.12
1464.19
1145.79
1456.35
1370.08
1223.41
700.004
1079.82
1103
877.735
1067.19
1244.01
1383.05
1440.38
1471.14
1382.58
1459.68
1370.61
1390.36
1289.63
1213.41
1199.15
1304.94
1188.09
1293.98
1297.62
688.441
635.462
646.736
475.258
735.298
471.706
603.031
976.179
1072.51
1024.39
1120.17
970.643
1077.06
1041.04
883.766
788.078
947.065
895.294
874.855
800.429
965.914
796.874
577.104
680.871
969.757
502.978
920.051
854.339
696.82
441.292
595.289
677.875
436.971
613.941
757.338
987.857
1133.47
1100.86
1071.29
1086.02
1056.17
1006.48
899.314
914.358
843.975
999.967
819.648
983.202
920.883
387.567
507.578
447.139
957.615
1012.86
1007.41
1101.46
324.431
421.293
398.321
992.239
938.247
1082.37
1027.17
270.725
368.388
336.772
852.12
764.128
940.2
850.234
202.077
296.156
257.655
655.927
559.094
753.649
660.31
143.938
227.097
203.767
460.865
406.579
587.319
530.818
126.048
172.197
144.917
364.354
353.206
459.622
396.198
125.562
129.39
123.599
341.136
334.367
358.969
343.304
113.819
120.372
101.5
315.753
327.927
321.605
335.911
493.598
528.467
457.284
1164.67
1225.35
1040.4
1044.31
618.752
267.296
320.315
603.273
670.342
549.457
274.137
691.54
254.939
256.177
774.636
769.461
697.309
249.935
652.966
239.265
241.874
714.435
686.437
663.53
240.243
561.502
203.104
223.689
596.171
555.63
593.929
214.749
355.3
133.639
142.986
413.717
388.122
380.911
129.371
345.862
116.127
126.518
343.721
324.056
352.717
125.892
230.795
81.5486
97.5378
223.251
199.622
257.544
86.9302
184.86
71.3245
71.1793
172.257
166.09
189.518
69.0966
95.5661
112.104
81.6844
258.191
254.404
249.736
249.548
400.993
573.787
476.609
937.129
883.07
1024.56
979.746
406.341
199.547
254.396
403.987
420.177
403.105
203.654
386.492
165.142
153.116
476.17
477.732
391.667
144.939
399.142
163.541
137.321
471.97
466.609
395.036
138.196
385.089
146.121
141.894
417.345
396.026
397.978
140.381
237.037
89.2358
104.16
256.437
244.444
268.695
90.1449
257.879
109.97
91.5232
286.955
289.35
253.469
96.7949
217.954
89.2818
90.4311
247.203
229.253
228.753
85.2981
184.895
71.8233
74.7523
192.985
187.158
190.664
71.9237
78.5973
105.193
76.3172
236.566
239.047
219.521
221.589
565.105
688.755
580.494
1212.64
1186.63
1267.37
1251.11
563.262
308.879
384.488
559.915
550.594
565.781
310.798
537.472
196.17
225.193
511.961
485.683
555.691
210.148
452.533
153.541
167.837
410.436
410.742
452.882
165.853
499.349
164.096
177.874
445.316
462.711
492.346
180.976
483.524
169.414
176.82
497.73
468.351
502.003
172.54
224.45
83.9161
114.419
225.188
209.335
267.174
93.7644
171.02
66.8005
71.7631
175.836
167.647
183.109
68.0143
144.601
63.7763
61.9653
155.962
153.066
147.619
60.7845
69.5696
98.6506
83.4183
198.18
202.943
215.809
245.434
610.11
787.941
648.458
1305.23
1274.46
1220.53
1117.3
611.785
332.1
414.584
615.916
623.026
612.355
336.025
616.38
245.809
251.764
652.84
646.568
622.204
238.087
451.501
182.304
200.699
550.027
487.634
535.473
169.134
433.369
166.247
142.813
450.77
473.468
412.142
151.416
452.862
185.962
173.222
498.169
489.111
458.621
172.309
369.847
144.217
156.355
396.917
361.224
396.072
147.158
220.827
93.6334
112.662
263.567
219.867
267.683
94.7375
170.647
63.8259
67.9413
157.705
157.288
169.416
67.6796
96.9621
144.28
131.276
273.433
299.85
333.577
385.316
442.821
586.072
444.93
904.082
913.733
890.689
860.313
317.933
375.308
314.8
899.683
827.662
786.513
680.425
212.106
260.491
208.397
687.819
588.507
610.826
535.206
186.125
178.078
160.455
540.368
518.474
479.647
446.717
176.485
148.451
131.497
492.204
454.241
427.866
393.227
137.253
116.915
105.861
405.309
356.441
362.84
338.19
117.283