/*--------------------------------*- C++ -*----------------------------------*\
  =========                 |
  \\      /  F ield         | OpenFOAM: The Open Source CFD Toolbox
   \\    /   O peration     | Website:  https://openfoam.org
    \\  /    A nd           | Version:  10
     \\/     M anipulation  |
\*---------------------------------------------------------------------------*/
FoamFile
{
    format      ascii;
    class       volScalarField;
    location    "3.9";
    object      nut;
}
// * * * * * * * * * * * * * * * * * * * * * * * * * * * * * * * * * * * * * //

dimensions      [0 2 -1 0 0 0 0];

internalField   nonuniform List<scalar> 
12920
(
0.0238654
2.36513
2.19973
5.67186
2.81089
3.36326
2.35969
1.98525
1.47342
1.26399
1.03874
0.897776
0.764317
0.687956
0.630312
0.587493
0.529719
0.44305
0.367092
0.320922
3.22144
4.54695
3.80746
6.73736
4.23661
6.45628
4.1955
4.37173
3.33461
3.29079
2.63907
2.30694
1.86781
1.62318
1.37194
1.18681
1.03025
0.918843
0.839901
0.827717
8.97023
12.8436
9.57851
8.409
5.2868
6.44274
4.34667
4.98334
3.9826
4.13682
3.5484
3.39513
2.97473
2.56003
1.99412
1.55452
1.23374
1.04728
0.949829
0.946244
5.6936
11.0717
9.51656
7.50657
5.46217
5.69694
4.48187
5.16667
3.95212
4.08538
3.50826
3.37079
2.94172
2.46927
1.93582
1.52612
1.28401
1.15743
1.10407
1.05536
1.76722
5.64741
9.30434
7.3909
5.97742
5.45136
4.0119
4.64591
3.28149
3.43661
2.94369
2.84482
2.43076
2.07449
1.74136
1.57146
1.46425
1.30003
1.16801
1.046
1.02097
6.9286
8.80781
6.76144
4.8364
5.15779
3.79237
4.42671
3.30517
3.47383
2.86108
2.75874
2.3905
2.19062
1.95117
1.73082
1.51193
1.27321
1.1368
1.01882
6.00563
9.7016
12.0485
9.4576
5.87733
5.98985
4.00715
4.87767
3.47455
3.39045
2.66204
2.60091
2.29216
2.18422
1.93691
1.65217
1.39615
1.17175
1.04663
0.942506
9.85702
13.9854
13.7816
10.6458
6.69149
6.86108
1.66696
1.43762
1.24695
1.06995
0.733116
0.574931
0.563665
0.57188
1.82999
1.41886
1.14972
0.965662
0.882868
0.831626
11.7784
14.9991
5.49064
7.93074
5.84095
2.69834
0.585929
0.434799
0.416988
0.37129
0.251048
0.207423
0.164056
0.147627
0.48914
1.21704
0.993789
0.883285
0.808701
0.756519
8.66695
9.97665
5.58773
7.62912
4.87622
2.03885
0.486695
0.299008
0.267603
0.240552
0.157936
0.196166
0.199276
0.156875
0.452019
1.08474
0.969923
0.881882
0.781843
0.680203
10.4587
12.7572
7.81626
8.55543
5.32107
1.84353
0.471658
0.259504
0.193806
0.189649
0.212101
0.150845
0.136647
0.12288
0.368877
1.16839
1.13914
1.09246
0.907357
0.706146
5.56071
11.7442
7.27925
8.67101
5.616
1.99098
0.476994
0.294562
0.236326
0.204516
0.256473
0.222659
0.15771
0.107973
0.445295
1.76032
1.61213
1.28378
0.930704
0.692677
5.37916
9.71916
5.48999
6.7935
4.82487
4.35827
1.22297
0.975193
0.755572
0.663928
0.638336
0.557551
0.410381
0.418651
1.88531
1.84989
1.72696
1.35172
0.981531
0.729168
5.27278
10.432
6.28424
6.81459
4.43584
4.62796
3.60044
3.18093
2.58022
2.4982
2.06437
1.86055
1.68345
1.67283
1.67609
1.69853
1.65461
1.46011
1.12396
0.816303
6.08518
9.68191
5.56713
6.2641
4.08587
4.79964
3.6522
3.49314
2.71301
2.61189
2.27865
2.19435
1.99431
1.88979
1.78845
1.74112
1.61842
1.35667
1.0986
0.83849
2.54805
7.39098
4.14868
4.69113
3.48927
3.5683
2.82774
2.82518
2.26862
2.28407
2.1188
2.18203
2.04699
2.00151
1.85494
1.68144
1.44778
1.1855
1.0084
0.828287
8.94739
10.644
4.73442
4.71023
2.98376
2.9003
2.15336
2.29175
1.84386
1.99637
1.92142
2.06705
1.98249
1.93925
1.681
1.42451
1.20025
1.03018
0.936685
0.842436
5.11101
8.44776
4.62007
5.42486
2.70502
2.62418
1.92377
2.3752
1.93229
2.13879
1.88079
1.97247
1.78002
1.70563
1.46524
1.28669
1.12965
1.01838
0.948194
0.905337
2.5468
7.13532
3.9374
3.76603
2.00665
2.15694
1.5653
1.9354
1.59609
1.87105
1.64352
1.73371
1.53935
1.46444
1.2662
1.13009
1.01495
0.955632
0.92467
0.937187
0.713264
2.54344
2.33508
1.99605
1.52302
1.54226
1.11942
1.04286
0.772431
0.782824
0.701999
0.737635
0.670587
0.641073
0.576109
0.528896
0.491783
0.452935
0.429189
0.394322
0.0681527
5.52137
12.6495
20.1304
16.8864
20.1756
13.7167
11.2547
8.21451
7.42543
6.44605
5.87067
5.1753
4.88135
4.40779
3.81607
3.23984
2.79211
2.45505
2.20083
3.63754
25.6981
29.8187
28.9335
30.9142
30.9348
28.0368
26.9837
24.5729
22.6918
20.2073
18.31
16.6282
15.478
14.6352
14.3535
13.9803
13.4716
12.934
13.5235
13.5489
42.3576
39.3229
35.1112
33.1667
32.6292
30.4643
30.2014
28.6141
27.5088
25.6006
24.1177
22.2508
20.3277
17.4062
14.5755
12.9054
12.901
13.3664
14.5827
4.97321
44.0123
47.4082
39.2322
33.61
30.6135
27.8742
28.2303
27.2724
26.7634
25.3263
24.1011
22.2627
19.789
16.4706
14.1554
13.8223
14.5217
14.8972
15.3209
3.33954
32.567
43.5981
36.4252
31.7311
26.6596
23.1225
23.8119
22.9619
23.5051
22.8806
22.0809
20.3032
18.3073
16.5705
16.2421
16.165
15.2167
14.2545
14.1057
23.4755
28.5757
43.0467
27.9177
24.5553
22.1157
21.0037
21.1879
20.3858
20.7338
20.5178
20.4603
19.7456
18.9482
18.0921
16.9004
15.058
13.7934
13.6829
14.1817
8.09501
46.0928
46.4855
39.661
31.9643
26.8116
23.9455
22.2664
20.5195
19.2845
18.5795
18.651
18.4931
18.1021
17.1891
15.7188
14.3153
13.6881
13.5037
13.6545
26.8358
45.4282
49.2722
42.0618
36.865
33.5692
24.0085
22.5604
20.9781
18.1162
14.7441
13.7889
14.3383
14.2268
15.2895
13.6971
12.5524
12.1311
12.2171
12.6636
47.3024
40.902
38.3783
36.3657
32.923
27.4305
24.8049
25.2328
22.8821
19.4279
15.3469
13.8642
12.2343
12.2766
12.7836
12.4732
11.8562
11.8533
11.7824
12.0977
18.1329
35.6565
36.9559
34.3877
28.732
22.3815
18.585
19.8642
19.6933
17.6635
13.3873
14.0642
13.2354
12.4586
12.0959
11.8199
11.421
10.9925
10.4407
10.8151
15.4464
34.8322
36.614
37.2902
33.3397
25.8087
19.3725
16.8962
15.5451
16.3025
14.4774
10.4175
9.69086
8.83717
9.38946
12.497
12.2941
11.7271
10.2859
10.3065
9.92698
40.3668
40.4506
37.0814
35.8413
28.0981
22.2888
20.1572
16.6542
17.1947
16.9796
14.6496
11.2007
9.4573
13.3539
16.3205
14.9583
12.103
9.33117
9.38672
28.1977
33.8306
39.2994
37.3122
34.2556
30.04
23.1684
21.2937
16.8897
16.8287
16.7864
14.8305
13.201
14.6039
18.9465
17.6467
16.113
12.4042
9.43328
9.40734
21.0693
38.2783
43.2109
40.9326
32.2638
26.6517
21.8038
20.9697
20.5801
20.6076
19.3075
18.427
18.0538
18.3458
18.6917
18.3841
17.3275
14.3293
11.0941
9.56081
12.2863
33.0605
42.0172
40.109
34.8451
31.7133
25.8929
24.0735
22.3484
22.7838
21.791
21.1872
20.0818
19.7914
19.2752
18.5643
16.8655
14.1043
11.5605
10.333
22.5943
27.0271
25.7547
28.3416
29.3964
28.2573
23.3258
21.0091
19.6055
20.545
20.8104
21.2145
20.5433
19.8122
18.4895
17.1302
14.9834
13.1312
11.7535
11.61
25.8314
38.1578
24.0657
20.1676
17.6642
20.3693
17.6764
17.5221
17.0372
18.2606
19.2478
19.813
19.0624
18.006
16.38
15.1376
13.7657
13.0847
12.9033
12.6999
17.8538
27.5859
27.5551
20.8845
13.4562
16.3862
16.9364
18.7805
18.6456
19.0772
18.8068
18.504
17.36
16.5576
15.3464
14.6593
14.0729
14.0313
14.1709
14.1071
10.1211
30.9034
33.2436
17.2681
15.3107
13.8039
16.3077
17.1717
16.9243
17.313
16.8211
16.5111
15.6217
15.0962
14.1441
13.6277
13.4695
13.8255
14.1647
14.4118
7.75071
16.4949
11.1018
7.69852
6.16345
6.36259
4.88151
4.78533
4.34952
5.2321
4.8082
5.00503
4.40869
4.18684
3.68308
3.41423
3.2082
2.99028
2.86541
2.75408
0.890634
5.48034
13.3546
21.5162
21.5333
21.3725
17.2393
15.0184
10.8731
9.84101
8.33338
7.4336
6.41581
5.64344
4.94139
4.43887
3.97211
3.58032
3.37683
3.1947
23.2383
31.5012
37.6532
40.0455
44.3358
44.9892
41.1603
38.3257
33.6774
29.8321
26.0198
23.4092
21.4088
20.2668
19.8297
19.9185
20.1188
20.2631
20.4245
20.8608
9.74267
52.3513
52.6553
50.214
49.5834
49.2862
46.6311
45.1549
41.9235
38.8744
35.348
32.3877
29.3602
26.7217
24.3542
22.9021
22.3563
22.6567
23.0041
23.6157
5.63517
48.9199
57.1709
55.2808
51.9095
48.7714
45.7164
44.4571
41.6849
39.2277
36.1411
33.3448
30.2073
27.2893
24.9861
23.9174
23.8234
24.0211
24.0725
24.0495
17.1794
45.1173
54.5972
55.2405
52.3045
46.4756
42.4278
40.9777
38.4865
36.867
34.3833
32.1405
29.6046
27.5217
26.1486
25.5485
24.8537
23.8559
23.2718
23.0871
34.3447
51.8047
61.2552
48.9548
46.9266
42.5177
40.6265
38.5418
35.9448
34.3903
32.6905
31.1551
29.5078
28.0705
26.7678
25.3122
23.8255
22.9628
22.8185
22.5683
14.7979
58.1218
59.1352
53.0857
48.239
45.1028
42.1621
38.7868
35.2216
32.7067
30.7637
29.5789
28.1942
26.8671
25.2978
23.7922
22.7021
22.063
21.8426
21.5701
14.7605
64.2921
63.5392
56.0691
52.0104
49.9688
43.3167
39.7093
35.1078
30.3877
27.0029
25.6889
25.041
23.7608
22.5845
21.3557
20.6786
20.3309
20.2677
20.318
43.6518
44.7698
53.946
55.103
52.1609
48.9552
44.9694
41.3671
35.9776
30.1445
25.589
23.678
22.3808
21.3642
19.971
18.9355
18.6474
18.7278
18.798
19.1319
24.293
45.5455
58.1546
53.8257
49.9954
43.8103
39.3322
36.9444
33.5852
28.6091
23.1593
22.54
20.8497
19.4407
17.811
16.3572
16.1127
16.2017
16.4375
17.3716
38.7635
53.4901
51.728
54.6157
51.1858
45.0155
37.4063
32.2937
29.6538
28.6887
9.60503
8.23685
7.90101
10.2062
13.2227
16.5021
16.6938
16.339
15.9262
16.6323
23.6138
50.3086
53.7288
52.8013
51.0502
47.4903
41.4158
35.55
29.8498
28.7768
26.2749
21.7782
16.9693
16.3823
19.3195
20.7241
18.6092
16.4435
15.3068
15.7375
35.4785
57.5152
57.1865
54.895
51.1578
48.0282
42.4282
36.6128
31.1579
29.4756
27.5449
24.7781
23.6201
24.1839
25.4123
23.2152
20.0972
17.3111
15.8142
15.8373
41.6084
55.6668
63.7465
62.2895
52.7783
45.3165
39.6989
37.9772
36.0723
34.7829
32.5119
31.0227
29.5543
28.5819
27.0906
25.0952
22.285
19.3425
17.0866
16.2899
39.5338
48.3028
60.9293
59.915
52.2986
46.8967
40.9299
39.4444
37.8428
37.1696
35.2414
33.4313
31.3137
29.5953
27.577
25.3213
22.4694
19.7539
17.7805
16.8775
15.0426
41.8854
44.3264
51.6391
49.0086
43.6947
38.1116
36.3216
35.3609
35.432
34.3699
32.9291
30.7358
28.6088
26.1361
23.8802
21.5325
19.701
18.6077
17.7688
19.2057
38.8203
40.5311
37.0593
35.914
35.6754
32.633
32.5125
32.2862
32.5613
31.8399
30.3672
28.1054
25.9802
23.8641
22.2984
21.0685
20.1956
19.7667
18.9515
43.0499
40.3541
40.7632
35.3564
29.8656
31.7146
31.8668
32.3035
31.6006
30.6437
29.1349
27.5504
25.6549
24.2487
22.9367
22.1706
21.6994
21.4596
21.3382
20.9311
13.4543
45.0483
41.9934
31.2336
27.6163
27.4744
27.2857
27.2576
27.0949
26.1683
25.1362
23.9443
22.7175
21.8862
21.0504
20.6464
20.4322
20.4368
20.5143
20.5468
4.93731
15.6913
15.6678
19.0333
11.7529
10.8142
7.64858
8.50503
6.97993
7.75316
6.65183
6.75617
5.92557
5.72757
5.18045
5.00488
4.74657
4.45044
4.22997
3.95451
3.5595
7.40961
20.7446
23.077
23.0333
21.6084
18.0224
14.7542
11.0279
9.0212
7.50156
6.28599
5.42713
4.74497
4.37412
4.22849
4.09298
3.95214
3.73446
3.57775
36.1539
45.6884
47.0043
52.1413
54.0238
51.226
45.9896
40.8187
34.5245
29.4792
25.6572
22.6422
21.2523
20.1904
20.6821
21.416
21.994
22.0822
22.1129
22.3057
31.9025
44.0598
64.3456
62.9913
60.7696
57.6473
53.8287
50.7747
45.9322
41.093
36.8164
33.3324
30.6146
28.664
27.4576
26.7944
26.5614
26.4816
26.4167
26.3564
55.0929
57.8881
66.4023
65.4401
62.0898
57.89
54.1178
51.5332
47.2439
42.9391
38.9962
35.509
32.6561
30.448
29.0564
28.2419
27.8572
27.4221
27.1324
26.5762
40.8462
57.9365
59.6882
63.9759
62.2643
56.6581
52.1235
49.1543
45.3577
41.9162
38.5924
35.6302
33.1513
31.202
29.916
28.8871
28.0244
27.1285
26.662
25.897
74.1562
66.1034
69.9227
62.3626
60.0227
55.1094
51.4493
47.4471
43.5236
40.3258
37.5234
34.9957
32.846
31.0142
29.4885
28.055
26.9903
26.1164
25.6634
24.7238
37.8566
68.7133
67.3881
62.7111
59.131
56.7579
52.1838
47.169
42.0933
38.5897
35.5222
33.2062
30.9834
29.1608
27.5882
26.3196
25.5528
24.8701
24.487
23.7624
53.6495
73.1946
73.1299
66.3279
61.8107
59.3614
53.5754
48.3154
41.6754
36.5691
32.9916
30.6087
28.5546
26.5644
24.1048
23.8105
23.6373
23.374
23.1546
22.7817
37.9454
64.993
72.8559
66.6002
62.8455
59.0525
54.1052
47.5805
40.8096
34.6965
30.6168
27.7741
25.3315
23.3894
21.097
20.6992
21.0988
21.3479
21.4359
21.5817
24.1854
62.6395
73.163
67.7456
62.4576
56.5841
50.9753
44.6064
38.9608
33.2629
28.2802
24.7377
21.7712
20.2066
18.4291
18.1524
18.6988
19.1897
19.5855
20.277
18.8345
68.8875
68.953
69.8468
63.6593
56.1765
48.814
42.0182
37.765
33.8503
14.2811
10.8902
11.7195
13.995
15.8802
18.1721
18.4467
18.5744
18.7405
19.1054
72.1572
72.5928
71.1388
68.317
64.3665
58.2836
51.2816
43.0667
37.535
34.1056
29.9165
24.5986
20.8268
19.8601
20.3048
20.3073
19.0718
18.2821
17.936
17.915
30.8837
77.4093
75.3563
71.3789
65.567
60.0853
53.266
44.946
39.0834
35.4788
32.4498
29.7194
28.2589
27.0671
25.3387
22.9966
20.7133
19.1609
18.181
17.8293
79.8679
75.1198
79.2674
76.0627
65.5628
57.3818
50.4956
47.6934
44.1303
41.8224
38.7888
36.5629
34.0406
31.5067
28.656
25.7677
22.7909
20.5063
18.8081
18.0672
40.8139
69.9117
76.7466
73.6684
63.6486
56.0915
50.3564
48.7689
46.2343
44.3274
41.492
38.5417
35.4212
32.3713
29.2979
26.1902
23.3254
21.1351
19.5564
18.4476
65.4689
64.7055
66.8485
68.5803
61.251
53.3048
47.8595
46.4739
44.5832
43.259
40.5708
37.4335
34.1662
30.9192
27.9915
25.3443
23.237
21.4842
20.4573
18.9994
16.2769
55.9534
57.6073
54.2679
50.2808
46.8417
43.7945
42.8675
41.4011
39.8952
37.1356
33.9619
30.8574
28.1846
26.041
24.3383
23.1155
21.9986
21.2798
20.2308
39.6985
55.526
52.25
46.6756
43.9366
42.4293
41.5839
40.3835
38.3868
35.9301
33.1168
30.6136
28.3092
26.753
25.4946
24.6713
23.9968
23.4884
23.0486
22.3837
29.0705
55.692
45.7367
37.9321
32.9871
32.6349
33.1714
32.5629
31.398
29.2719
27.5312
25.6645
24.4924
23.6746
22.9092
22.4173
21.9
21.6741
21.5745
21.6333
1.6918
25.7854
21.0329
23.0015
13.6591
12.3274
9.09724
10.5377
8.22157
8.57363
7.28881
7.08738
6.26307
6.03221
5.53378
5.40254
5.1679
4.86296
4.51948
3.99577
14.1627
9.96315
5.11884
22.6819
10.0586
17.4769
7.46447
8.0176
4.9557
4.40452
3.18385
2.76092
2.27378
2.10895
1.99493
1.94539
1.84563
1.70965
1.60877
1.50005
79.0614
60.9798
32.7222
57.5383
40.981
48.037
40.7191
35.5562
29.3464
23.9984
21.277
19.7624
19.1974
19.2054
19.3695
19.6149
19.9072
20.1162
20.2167
19.7907
54.0521
66.8253
61.266
70.1287
50.2585
56.8889
52.324
47.9588
41.9325
35.8011
31.8911
28.7279
26.9512
25.6845
25.0879
24.621
24.3889
24.1856
24.0608
24.0212
77.6547
70.0256
68.2379
72.4642
63.0537
58.1452
52.6203
49.5605
43.9476
38.4111
34.5288
31.0998
29.0821
27.4358
26.5456
25.6692
25.1325
24.5767
24.2107
23.7867
84.7688
69.2801
65.7306
69.2142
63.4102
57.9278
50.9361
47.6215
42.6322
38.1093
34.7971
31.6507
29.7239
27.937
26.8578
25.7412
25.0243
24.2556
23.7469
23.0648
28.8321
48.5555
72.6748
42.1703
61.4013
48.6465
50.5671
47.0452
41.6414
37.4064
34.2561
31.3209
29.1723
27.2855
25.9485
24.7357
23.8806
23.0782
22.5403
21.9031
82.3993
45.1663
74.4859
44.5416
60.7304
58.993
45.6132
45.2926
39.6496
35.5734
32.0991
29.2579
27.0888
25.3742
24.2557
23.3479
22.7187
22.1339
21.7229
21.244
59.0143
81.1548
79.5115
62.0812
53.1458
59.4167
53.211
46.2597
38.0556
33.3048
29.0322
26.183
23.8351
22.3634
21.5848
21.7635
21.5888
21.2604
20.888
20.309
87.7437
61.3226
78.9213
53.5644
55.6601
58.6827
50.559
41.6934
34.1238
28.5722
24.3483
21.4045
19.4751
18.3614
18.1766
19.6758
20.0372
20.0666
19.4809
19.3937
42.2203
75.4805
61.9876
60.757
43.8404
57.4934
48.3324
38.184
31.9132
26.6036
21.6769
17.5208
16.3854
16.128
16.394
18.0603
18.6439
18.8514
18.3682
18.5053
18.5404
74.4477
78.5762
77.467
47.1744
55.64
47.1916
37.7508
32.3035
27.4043
20.7895
15.1744
13.4613
14.2834
15.5043
17.6449
17.9412
17.9823
16.8853
17.0874
73.3495
75.3045
71.1234
79.2966
46.6573
58.1001
48.0671
37.8567
32.313
27.5708
23.1729
19.5967
17.9476
17.0215
17.1702
17.477
16.7449
16.615
15.4232
15.6213
42.8027
91.6369
69.1421
82.4748
47.8192
43.3831
51.6761
43.1128
36.3425
32.3217
29.0829
26.7111
24.7416
22.7038
19.0415
16.9511
16.3066
15.7953
14.5851
14.6634
74.6262
89.5974
76.557
84.1405
48.7414
57.2922
44.9503
41.5529
37.9354
37.8758
32.9962
31.4677
26.5769
23.3742
19.9824
17.8984
16.6159
15.8595
14.2834
14.1461
96.8775
87.7451
75.4501
81.06
43.9709
55.3042
35.0907
45.1769
35.6102
37.9862
32.4194
30.8729
26.2869
23.1032
19.9176
17.8662
16.5789
15.6416
14.0474
13.7129
62.2723
78.4859
72.4857
78.0615
45.9608
53.1104
34.5188
42.1486
32.2212
35.0953
28.8745
28.0313
23.5889
21.3294
18.6952
17.4182
16.392
15.6335
14.1289
13.8121
37.3392
68.0024
63.5584
62.9688
39.1162
48.8992
28.7993
38.2589
27.0129
31.1156
24.0958
24.1768
20.3448
19.7929
17.973
17.5863
16.905
16.3724
15.0788
14.8806
35.6932
46.6399
41.7915
50.1775
31.6617
44.9271
26.0098
35.0921
23.3276
27.1586
20.5003
21.8881
18.6431
19.5863
18.1316
18.5523
18.0523
17.9072
16.7322
16.6539
8.94113
36.8132
32.2826
37.0853
17.4215
28.7586
17.3978
24.8593
16.5997
19.9348
15.4734
17.2036
15.2209
16.3308
15.525
16.0039
15.9382
15.6921
15.07
15.3377
0.632726
6.1129
8.3773
11.6963
4.74
5.50299
3.3442
4.86386
3.17703
3.64465
2.71508
2.77404
2.33683
2.27458
2.05412
1.95746
1.79361
1.63883
1.51954
1.36314
24.1167
28.0695
10.8935
32.891
28.6741
32.3605
8.75054
22.733
9.74482
9.13969
27.7503
25.6034
7.39808
7.50843
10.7275
28.791
26.211
32.9912
8.6572
33.7584
29.9453
8.63309
24.9267
20.5226
7.51226
7.21947
28.141
22.831
0.418102
0.52063
0.382205
17.505
20.0665
14.2718
16.8652
0.421598
0.373141
0.335484
20.0365
19.0557
17.0679
16.9084
0.377439
0.328096
0.298179
18.4701
16.5241
16.7307
15.3871
0.28271
0.28218
0.194166
15.7881
12.928
14.6532
11.2193
0.20887
0.164004
0.182034
12.2699
11.4425
10.4282
11.1696
0.17629
0.20943
0.222174
11.0586
9.43635
11.5352
10.7029
0.147939
0.202062
0.161793
9.16441
9.11529
10.2777
9.75423
0.125447
0.155686
0.116679
9.1572
9.55646
9.63629
9.6883
0.316689
0.462878
0.276072
12.0758
14.4971
11.6141
11.9289
0.269503
0.246376
0.187885
14.8111
15.1841
11.5329
10.9573
0.250281
0.178018
0.173117
15.2187
14.4299
11.1136
12.0389
0.183417
0.177254
0.211102
13.8644
11.0926
12.2537
12.1928
0.168894
0.216538
0.15719
10.2179
10.6156
11.3171
8.45555
0.213616
0.1507
0.149394
11.1401
10.7023
8.68531
8.83202
0.163969
0.146987
0.140805
10.3657
9.86627
8.67078
8.37285
0.11641
0.137252
0.100976
9.70616
9.62879
8.26415
8.2624
0.282107
0.473735
0.316844
12.6795
12.997
14.6058
15.5763
0.205058
0.302035
0.252928
12.7122
11.7353
15.4296
13.8812
0.189596
0.235443
0.204291
11.7003
12.4946
13.0711
13.1729
0.206898
0.212152
0.253612
12.6862
12.5474
13.9969
14.2623
0.17482
0.251748
0.229222
11.969
8.24573
13.6359
11.4964
0.141657
0.210688
0.159773
7.98545
8.3338
10.8185
9.28705
0.125688
0.147048
0.111639
8.09652
7.53244
8.53529
6.88706
0.0966101
0.108441
0.0934533
7.40619
7.63101
6.92528
8.06059
0.309712
0.529031
0.363013
14.7094
15.6181
11.6299
13.3001
0.25147
0.340234
0.28007
15.4629
13.9951
13.7844
12.7555
0.195101
0.255374
0.203963
13.0957
12.61
11.7618
11.062
0.256054
0.205673
0.237281
13.5216
14.4292
11.8937
13.3721
0.236607
0.234798
0.217533
13.9829
12.2601
13.3622
12.341
0.17552
0.210554
0.169071
11.7515
9.88559
11.9817
9.9604
0.110754
0.143022
0.104431
8.98072
7.00915
9.11456
8.35597
0.0915222
0.106634
0.115867
7.26292
8.73732
8.98922
11.8427
25.3787
21.3135
22.3767
40.869
39.1665
37.5181
36.3411
23.6473
22.3945
21.7031
38.269
34.7307
35.6399
33.0485
20.3782
21.3333
19.3498
33.4787
29.3778
32.042
28.2698
16.0637
18.3918
14.5032
28.0396
24.1209
26.7903
22.4592
14.2976
13.6657
14.155
23.3908
21.9553
21.6096
21.663
12.4011
14.4684
13.5588
21.5418
20.4904
21.5866
20.4262
12.2564
13.1771
12.6431
20.3603
19.8902
20.0604
19.1233
11.9397
12.4864
11.8147
19.6884
18.9184
18.8008
17.7408
19.7409
17.8962
16.2307
34.504
33.8655
31.8214
28.8377
19.8051
15.661
14.8979
33.3172
31.4718
27.9262
26.478
18.4399
15.0399
15.8053
30.7679
27.7526
26.3417
25.6654
14.35
15.9056
15.0611
26.4234
22.0811
25.4626
16.0891
13.582
13.9181
11.0887
21.0587
20.9517
14.4384
12.0702
13.5606
11.1332
10.847
20.9538
19.9332
11.8142
11.2984
12.6625
10.6049
10.1619
19.5628
18.612
11.3263
12.0184
11.7066
10.0721
9.69089
18.2905
17.3823
12.4112
13.2083
17.4216
21.9723
20.4828
33.0033
29.6884
36.4759
33.0006
15.5975
19.9926
17.5915
28.6872
26.6843
31.7376
27.8467
16.2215
16.6643
16.9427
26.4271
25.7205
26.9706
26.5605
15.3884
17.6201
17.2353
25.5966
16.4808
26.4138
24.3583
10.7606
16.4785
14.3287
14.7677
11.6827
23.3407
19.7267
10.0609
13.5726
11.5074
11.03
9.23832
18.4346
14.9724
8.95005
10.5401
8.72209
9.06019
9.59853
13.9513
12.6627
8.90542
8.76979
9.80586
10.0409
11.6976
12.7932
14.3033
20.6259
21.175
19.9017
37.1283
33.5762
35.0642
34.1328
17.706
19.5763
17.1999
32.2444
27.8857
32.6494
27.7843
16.3642
15.7709
15.1887
26.7607
26.2941
26.5501
25.5598
17.5293
15.8381
16.8847
26.3399
25.0437
25.7653
25.1665
15.2688
16.7072
15.3908
24.3596
21.6892
24.6682
22.6045
12.2808
14.8911
12.4058
20.5681
16.932
21.7821
19.0185
9.15629
11.5395
11.0214
15.7753
14.6065
18.4545
18.9549
10.7553
11.817
14.4295
14.9182
16.1392
19.5743
21.1711
42.4759
41.9949
39.9412
52.9089
48.6336
51.0043
46.6152
37.361
39.0166
35.8384
47.1599
42.2151
45.1463
40.7398
31.5515
34.6507
30.4528
40.5802
35.7408
39.2322
34.5349
26.2973
28.8795
24.611
34.3766
30.9667
32.9947
29.3331
24.0876
23.857
23.5799
30.234
28.2427
28.6161
26.7507
22.5813
23.3408
21.9872
27.6912
25.9973
26.0386
23.9388
21.6394
21.5732
20.4588
25.5396
24.1099
23.3603
21.9258
20.3504
20.0939
18.8641
23.7145
22.5537
21.5263
20.3714
37.7121
36.4135
32.7357
49.27
45.3469
46.5091
41.9458
34.4953
31.7458
29.9828
43.9911
40.071
40.6577
37.7685
30.046
29.6899
28.365
38.717
34.38
36.9634
34.3052
27.8974
27.0336
28.4031
30.4461
26.6217
28.8034
30.2894
21.7987
22.7814
21.5535
25.0363
20.873
24.6111
22.3752
21.2621
9.29592
10.0849
24.8799
22.8109
8.33241
10.9026
19.7812
10.4869
12.1007
22.267
21.015
11.6788
13.918
18.4323
12.7241
13.8675
20.6809
19.8221
14.603
15.698
33.3807
40.6047
36.4138
46.8474
42.0593
48.9181
43.5557
30.0366
34.9948
30.9368
40.6909
37.6054
41.877
37.7871
28.3201
30.0825
29.1446
36.7969
34.3881
36.8261
34.5103
24.8348
18.0787
28.2395
26.5506
25.5815
4.03024
30.3132
9.82036
9.12435
15.3976
2.59132
13.3707
2.41152
11.8733
7.66664
19.0832
15.5594
7.29765
9.09606
21.334
18.1007
9.49153
14.6737
13.7255
9.84639
12.1605
17.5053
16.9511
12.2997
13.9038
15.3724
12.9356
14.6914
17.0669
17.9148
37.0555
40.4302
38.0308
49.832
44.1115
39.7355
45.6752
30.9347
36.2602
31.1815
42.2995
37.712
43.4631
38.2786
28.9903
29.7782
28.6025
36.6605
34.4303
36.9827
34.5918
27.0819
28.4523
27.3975
33.6859
30.9569
33.8862
31.6759
23.0438
26.7635
24.481
29.7669
25.6384
30.8558
28.2496
18.0069
23.607
21.0134
24.2825
20.9088
27.4322
25.5255
16.1077
20.5613
21.0887
20.2368
19.5263
25.2368
24.9452
17.2793
21.5336
22.5171
19.541
19.5584
24.8746
24.4464
49.1007
52.3383
47.1178
52.3918
45.4819
50.5149
42.8728
42.5004
45.4963
40.8861
43.8725
38.3029
40.9894
36.0829
35.9871
39.3511
34.7656
36.4605
31.7376
34.5084
30.454
31.3994
33.3186
29.8283
30.6905
27.2829
29.256
25.7841
28.378
29.0127
26.6463
26.3137
23.6059
24.6389
21.3504
25.858
25.7979
23.435
22.9742
21.1375
20.3181
18.4957
23.7856
22.8175
21.3897
20.7054
19.5972
18.1897
17.5337
22.3324
21.0121
20.0174
19.3679
18.77
17.3635
16.862
46.1394
48.6603
43.5181
50.2349
42.4924
49.3001
41.7203
40.3774
42.1016
38.8287
40.5316
35.7822
39.9037
35.6453
34.6853
37.893
34.9842
34.2829
30.5598
34.5227
31.2364
29.2893
33.3413
15.4836
29.3489
25.7345
30.0713
23.9594
25.6083
13.4251
11.4799
24.5116
21.0264
21.8861
17.4635
22.3661
11.6137
12.6127
19.898
17.6707
16.4081
14.1675
20.5207
13.1016
14.7217
17.4083
16.9537
14.0938
14.58
19.4861
15.2311
16.0298
16.8355
16.4865
14.7454
14.9344
43.4841
50.3728
44.4282
48.938
41.5389
49.3687
41.5127
38.6795
42.7079
38.6897
39.7826
35.693
39.6898
35.6417
35.0682
37.6827
35.0818
34.6162
31.4225
34.4328
31.3241
16.3378
34.2288
30.3784
30.3261
24.3081
30.2571
26.6488
11.3019
28.6385
23.5297
22.1431
17.3664
25.3027
21.4467
11.2552
22.0953
18.93
16.1945
13.8022
20.2614
17.573
13.406
18.3394
17.6522
13.7057
14.207
17.1958
16.6036
15.265
17.6777
18.1995
14.4018
14.7394
16.5055
16.3257
44.9103
44.5072
46.7794
50.1886
41.8324
45.1855
45.3254
38.6045
44.5603
39.5424
39.9086
35.5983
42.9877
37.866
34.9558
38.1188
35.2949
34.3647
31.1069
36.0911
32.3331
31.1428
34.4819
32.0404
30.0827
26.7736
31.4104
28.7358
25.8838
31.164
28.5555
25.6268
22.3809
27.7524
25.4232
21.4525
27.8025
26.0577
21.3574
19.1329
24.8412
23.4203
19.9496
25.7453
25.1096
18.7321
17.9022
22.986
21.8019
19.647
24.9295
24.2931
17.7028
17.0947
21.4643
20.3465
43.3864
48.4486
40.4903
43.7215
37.5926
42.1954
34.9881
35.9531
38.5829
33.685
35.8217
30.9741
33.3855
29.1753
29.5888
32.1139
27.8766
29.2696
25.933
27.8104
22.9917
25.2683
26.6069
22.9904
24.9033
22.362
21.5955
18.406
21.9465
21.8597
18.9648
21.5327
19.93
17.646
16.1853
19.8419
18.286
17.2797
19.3737
18.5432
16.0762
16.891
18.5484
17.1239
16.7046
18.199
17.7849
17.0008
16.8413
17.9633
16.5737
16.2341
17.555
17.5336
16.7504
16.4451
40.1349
47.6069
39.6213
41.3447
34.4304
40.3296
33.7884
33.4343
37.7954
33.4502
32.9479
28.9636
32.5266
28.6666
27.8644
32.1515
28.3917
27.4009
22.08
26.7773
20.596
22.8878
27.1731
22.4259
20.5803
17.2839
18.9041
15.4587
18.4273
20.6308
16.397
16.4997
14.9738
14.5357
12.533
16.446
15.2778
13.6072
14.8737
16.0641
12.3908
13.8376
16.2144
13.7055
14.3801
16.5121
16.5863
14.7822
15.7134
15.899
14.5082
14.6637
16.5073
16.224
15.7105
15.5036
39.5064
47.3314
39.4694
39.5178
33.6814
33.497
33.4642
33.5631
37.6946
33.6137
32.4989
28.7718
32.308
28.9964
28.5884
32.342
28.7221
26.9121
20.729
27.6358
22.6375
22.6355
27.5422
23.922
19.0407
15.6084
21.2045
18.2953
16.3589
22.7037
19.3229
14.6655
12.5403
17.5429
15.7358
13.3832
18.3329
16.7262
12.3645
13.7402
15.5221
16.3882
14.1365
16.5413
16.1398
14.6783
15.6202
16.7695
16.6458
14.5359
16.0339
15.8112
15.6271
15.4668
16.518
16.0454
39.7435
48.7264
43.3884
31.3965
32.1884
28.4027
33.8104
33.5785
41.1391
35.9637
32.1401
28.8272
29.5177
27.5977
28.7065
34.1763
30.577
27.8079
23.5316
27.776
26.3823
24.2291
29.6753
27.1638
22.2537
19.6036
25.7932
23.8907
20.3725
26.2647
24.2694
18.9405
17.3547
23.5075
22.1295
18.2197
23.7465
22.4211
17.1595
17.7267
21.7976
20.6684
17.2269
21.9755
20.7167
17.7339
17.2146
20.3757
19.1387
16.4485
20.3414
19.183
17.0138
16.3159
18.7398
17.5818
25.2054
25.472
22.8223
25.9042
24.4854
27.2147
23.5325
20.5286
27.9743
19.2873
26.846
24.2425
29.4507
5.38367
14.4893
17.5073
13.0004
2.8861
19.5226
13.2787
3.24708
29.2266
31.9049
31.3493
32.9443
30.2729
31.8313
30.7401
26.4136
27.4698
29.8932
26.3311
28.7212
24.6644
28.2311
20.8932
27.4747
32.5608
19.408
30.927
5.27921
26.9177
14.7858
2.79354
17.8382
11.7515
13.4144
3.18621
20.666
21.4367
22.7633
20.6347
24.1046
20.6744
24.3722
21.344
12.8591
16.2884
8.87284
2.6839
15.6171
12.8836
2.5439
12.6875
15.654
8.51473
5.17054
15.2976
14.0569
3.55928
22.8027
26.6089
27.0099
24.9784
26.0436
23.4836
24.0408
22.245
25.0696
26.318
22.6617
25.5715
21.9622
23.2564
12.7231
2.56999
16.4391
6.54323
12.9155
2.43033
15.5159
12.6081
4.64969
15.4437
6.52698
13.8188
3.37545
15.0235
19.2305
12.4114
18.1344
2.96712
21.5607
3.37088
14.9791
29.3339
28.6704
28.2021
30.8798
27.6283
30.8286
30.1562
27.0611
23.7524
27.3435
27.7387
25.9019
24.224
29.1246
25.8636
27.2569
17.0589
33.3538
4.25018
32.0667
29.062
19.4489
2.91871
10.7329
18.5109
3.34662
14.8445
23.1654
30.8529
32.5862
33.8209
32.8222
32.5966
31.7479
32.0912
28.2706
28.9981
26.5841
31.5666
25.0939
30.566
29.6196
8.47139
8.08532
10.4272
3.96803
11.6495
2.52468
7.48589
19.1214
21.6026
23.5241
26.1716
19.5447
21.5506
24.4978
17.0947
15.9474
22.038
21.1664
17.6459
15.4233
22.8029
9.81389
2.6475
6.85026
15.1715
2.5284
11.7387
12.9702
8.59793
3.67186
6.31054
10.3627
2.62072
7.65988
11.4384
19.6391
27.2434
23.7214
26.2897
22.1872
25.4168
21.1961
17.6192
21.9424
17.5641
24.4873
15.9998
23.6247
19.1735
1.38821
1.64666
1.66957
8.72835
11.2497
9.54739
12.5906
1.35333
1.7159
1.60646
12.225
12.5783
13.6536
13.7947
1.15585
1.42302
1.33552
12.1327
11.7209
13.2946
12.6073
0.87107
1.20069
1.0137
10.4141
9.12673
11.6769
10.4918
0.617197
0.863998
0.765989
7.64483
6.97373
9.45642
8.61199
0.551496
0.654351
0.563461
6.51082
6.73949
7.52062
6.70725
0.573122
0.529045
0.527672
6.86298
7.05545
6.69184
7.14584
0.513375
0.534533
0.450137
6.74226
7.55396
7.08067
9.17892
1.71716
2.51018
1.58246
10.1144
13.2682
8.94743
10.8562
4.39841
0.438714
0.545233
3.50693
4.92598
3.20719
0.445107
6.5024
0.430573
0.432386
7.41713
7.57042
6.366
0.418781
6.40025
0.402255
0.394353
7.21765
6.95122
6.47869
0.388897
5.66679
0.348801
0.35881
6.21319
5.87603
5.92559
0.343501
3.98772
0.228114
0.230509
4.78106
4.63344
4.07474
0.210633
4.30705
0.201383
0.214093
4.19346
3.94372
4.3428
0.218831
3.15946
0.155977
0.181966
2.82666
2.57944
3.37485
0.167468
3.00007
0.149273
0.147075
2.45378
2.37121
2.94762
0.145117
0.423492
0.487285
0.350525
6.62313
6.94321
7.05767
8.03888
1.38838
1.92715
1.31313
8.10438
8.75901
8.35337
8.75809
2.8056
0.379978
0.465708
2.51842
3.09668
2.45344
0.358514
3.59499
0.283306
0.246553
4.54534
4.79046
3.41776
0.227274
4.37341
0.265522
0.210514
5.19725
5.23542
4.23986
0.212293
4.48399
0.231532
0.220939
4.76975
4.52827
4.60433
0.219818
2.77495
0.150341
0.169179
3.01431
3.01191
3.13807
0.150414
3.83786
0.210546
0.171114
4.09475
4.17286
3.61562
0.18727
3.51918
0.183721
0.186299
3.73044
3.55742
3.60008
0.177048
3.27137
0.151688
0.155235
3.29852
3.28161
3.32382
0.148318
0.324028
0.415953
0.301667
6.79836
7.87422
6.33914
7.57476
1.3323
1.82402
1.39066
9.10864
10.3424
9.67255
11.2126
3.31529
0.370203
0.467122
2.89729
3.24233
2.91932
0.377934
4.39199
0.240772
0.271547
3.94467
3.97555
4.29447
0.254561
4.3614
0.189911
0.205629
3.81352
3.9662
4.17151
0.202753
5.03865
0.190926
0.208885
4.35566
4.47783
5.01746
0.210192
4.61366
0.21759
0.211056
4.78365
4.3287
4.83503
0.217217
2.36862
0.144985
0.167419
2.23164
2.46125
2.63095
0.146694
2.84549
0.131948
0.132479
2.80996
2.78257
2.87391
0.127314
2.67125
0.120947
0.114515
2.80286
2.79429
2.65338
0.112213
0.269935
0.373258
0.317609
5.90321
7.5915
6.4758
9.14744
1.4067
1.94303
1.38901
9.93218
11.3818
9.16826
9.19468
3.60118
0.382515
0.474878
3.13532
3.68518
3.11048
0.385223
4.96924
0.279053
0.284352
5.05393
5.23451
4.77421
0.268664
4.08507
0.213828
0.232844
4.91879
4.49464
4.77246
0.20532
5.15406
0.219826
0.195166
4.95856
5.42969
4.64437
0.212639
5.29704
0.254315
0.250234
5.64965
5.40291
5.48337
0.249119
4.43742
0.205757
0.226672
4.53998
4.18851
4.686
0.212198
2.74579
0.136763
0.160815
3.23283
2.7585
3.26491
0.137216
2.89032
0.110741
0.110475
2.44348
2.70654
2.6077
0.114464
0.369175