/*--------------------------------*- C++ -*----------------------------------*\
  =========                 |
  \\      /  F ield         | OpenFOAM: The Open Source CFD Toolbox
   \\    /   O peration     | Website:  https://openfoam.org
    \\  /    A nd           | Version:  10
     \\/     M anipulation  |
\*---------------------------------------------------------------------------*/
FoamFile
{
    format      ascii;
    class       volScalarField;
    location    "3.9";
    object      omega_0;
}
// * * * * * * * * * * * * * * * * * * * * * * * * * * * * * * * * * * * * * //

dimensions      [0 0 -1 0 0 0 0];

internalField   nonuniform List<scalar> 
12920
(
17.0311
74.3112
105.639
113.603
113.941
113.057
105.602
93.4265
83.1851
75.4321
69.0853
63.3384
58.0122
53.8223
51.1803
48.4896
44.2814
38.746
34.5687
32.1749
168.52
121.148
140.745
133.552
131.108
128.617
118.971
109.004
99.1991
92.7743
84.5573
77.2217
70.1358
64.5678
59.5404
55.42
52.0052
49.3919
47.6246
47.0045
267.117
256.877
214.883
165.487
140.291
127.875
116.067
112.186
107.248
105.113
100.588
97.3941
92.8361
86.5313
77.1449
67.717
59.1499
52.9833
50.1523
49.5384
263.751
217.016
197.568
148.43
123.799
113.123
104.564
102.776
100.25
99.7093
97.637
95.9005
92.4027
85.375
76.1215
66.7931
59.4785
54.7892
53.2761
51.5363
87.0354
172.542
185.284
147.612
122.091
108.463
96.9691
92.3929
88.5785
87.8396
86.6842
84.9706
80.8386
74.6629
68.6814
64.3918
61.9141
58.248
55.6503
51.7772
107.535
177.992
175.298
133.876
113.822
102.506
94.4797
87.8939
81.6908
79.1712
77.0563
75.3945
72.7422
69.7354
66.6735
63.2412
59.3156
54.313
51.4749
48.4289
218.958
264.815
241.054
187.45
143.027
118.242
106.968
96.6007
85.8959
77.2112
71.9732
69.5378
67.7377
66.039
63.4263
59.2814
54.941
50.8727
49.0733
46.8418
373.326
303.633
277.933
213.883
162.021
135.88
201.594
165.355
154.822
137.103
116.49
102.157
100.178
100.061
60.8181
54.6123
49.8653
47.0003
46.138
45.115
411.266
281.043
173.469
158.602
142.847
215.563
332.855
284.611
279.646
261.13
214.672
195.456
166.886
150.981
93.7033
51.2061
46.9212
45.1781
44.2519
43.1676
350.325
188.127
166.41
151.482
136.621
198.515
279.994
231.393
228.691
219.51
174.245
183.687
176.096
153.949
93.141
50.1311
47.9118
46.3515
44.2967
41.4121
372.355
245.6
191.121
170.196
152.912
232.325
349.133
260.004
221.984
226.281
235.182
172.362
148.469
143.434
87.3011
53.4758
53.2068
51.824
47.3014
41.157
301.916
237.71
194.539
172.827
157.333
240.82
361.471
285.906
255.248
224.945
244.599
222.357
186.243
143.403
97.2076
66.4249
63.808
56.0068
47.2624
39.4907
250.469
189.744
182.598
171.739
158.095
136.883
214.534
172.136
143.147
122.924
120.678
112.457
97.8642
98.5173
70.9663
70.6738
68.218
59.408
49.9082
40.8811
230.212
208.173
184.941
169.205
148.012
133.708
114.53
98.7501
86.14
79.5191
73.325
69.0308
67.65
67.9547
69.4185
69.9052
69.0433
64.3048
56.3803
45.6141
182.812
194.422
179.611
160.906
141.314
134.017
118.889
104.967
92.4127
86.4383
81.6802
79.2189
76.5295
74.3418
72.7406
71.3851
68.4808
61.7589
55.3406
45.7613
154.208
167.658
157.648
148.561
130.641
112.124
100.883
91.796
84.9715
81.2658
79.1445
78.1543
76.2388
74.3375
71.6914
67.6054
62.1141
54.8397
50.0207
43.7296
289.73
204.717
160.818
146.539
120.026
98.0743
85.6488
78.632
74.156
72.564
72.3643
72.0759
71.0949
68.7528
64.1343
58.2685
52.9473
48.0718
45.9507
43.0486
170.954
167.505
161.127
147.479
112.451
87.9321
77.2043
74.987
72.528
71.5575
69.4412
68.3283
66.0064
63.2756
59.1044
54.837
51.1799
48.2261
46.858
45.6224
163.475
184.587
158.122
128.988
98.5951
81.9791
71.8358
67.319
65.1281
64.6979
63.6061
62.789
60.8616
58.5164
55.2686
52.1198
49.5471
48.1057
47.9107
48.3043
108.965
160.459
156.278
129.638
104.769
85.8344
71.2665
60.1122
51.4171
46.6664
45.1452
44.5336
43.5246
42.2475
40.8503
39.345
38.5446
37.6942
37.3912
36.6191
9.00268
41.388
59.0924
64.4315
65.4702
64.3114
58.0449
50.3638
44.5609
41.2518
38.7535
36.1713
33.7517
32.2729
30.8984
28.3803
25.0609
22.1256
20.468
19.4967
183.904
123.705
113.009
85.399
72.2931
66.4956
59.8256
54.509
48.607
44.5539
40.8759
38.3806
36.1062
34.1689
32.2322
30.7123
30.0492
29.5415
28.9482
27.043
130.608
169.43
151.055
100.867
73.7572
62.9121
56.8799
54.58
51.67
50.0662
48.0855
46.9596
45.8657
45.1643
44.2826
42.6298
38.7778
33.9309
31.1931
28.3029
210.402
156.734
117.149
82.6253
64.739
57.4632
53.2643
51.4402
50.0463
49.6344
48.9131
48.6326
48.4149
48.0084
47.0032
43.9766
38.6312
33.4199
31.1338
28.4221
124.056
118.568
98.216
75.2691
63.3548
58.0324
53.5191
49.7429
47.677
46.5903
46.1092
45.4697
44.6536
43.5996
41.7652
38.7074
36.565
34.6117
33.5595
30.1491
285.978
139.93
88.6766
75.4904
67.8527
60.5174
54.6015
48.7171
44.5625
42.0914
40.4387
39.1245
38.0097
36.807
35.6993
34.6092
33.5808
31.0853
28.9574
25.8547
215.938
147.132
126.984
95.8823
74.2062
65.4022
59.4037
53.3398
45.8853
41.398
38.1515
35.7734
34.2174
32.9857
32.0414
30.8518
29.7091
28.0321
27.2686
25.5283
398.353
263.049
156.62
112.692
80.0669
65.6367
67.643
61.8563
52.8153
47.7177
45.4938
41.4846
36.5157
33.8762
29.4867
28.5263
27.738
27.2344
26.9409
25.849
773.445
558.688
153.966
89.9721
72.1133
71.2822
66.7733
58.8352
54.4165
51.8761
50.0711
46.4768
40.5658
33.8956
28.9864
26.0616
25.2771
24.9238
24.8309
24.3898
231.756
132.217
106.245
84.0333
75.9091
74.9591
70.6772
59.5415
52.3812
49.8086
50.1423
40.379
33.919
30.0199
27.2871
25.5905
25.6284
25.8027
25.7082
24.6168
181.691
148.496
126.559
100.547
83.5845
85.3436
87.1231
79.103
68.6027
64.3619
61.1822
48.1311
35.2355
31.7155
28.4325
27.0442
27.8499
27.7955
27.0201
23.7266
224.261
167.446
132.002
107.091
85.151
81.2309
80.3548
75.4885
73.3812
60.0145
53.4332
47.2693
44.4667
36.9759
28.5348
28.9823
30.0791
29.6443
27.9232
22.8019
134.497
167.156
131.728
110.817
92.5999
78.3368
75.2828
66.763
58.6025
46.5762
40.711
38.3666
36.9103
33.2947
31.7221
33.4832
33.8175
33.2653
30.9969
24.0563
204.487
149.233
110.037
97.2766
90.6236
83.3546
70.651
58.0668
47.9543
42.366
39.0365
37.5022
36.9229
36.6879
36.7855
37.0113
36.9812
36.5476
35.3789
28.9628
316.482
167.656
111.309
94.0079
83.2846
74.9373
65.682
56.9663
49.683
45.3516
42.9789
41.8738
41.0533
40.0245
39.1749
38.4591
37.7998
36.3297
34.6559
28.0457
114.004
150.137
124.831
103.186
86.0351
69.0982
59.5632
53.6156
49.1173
45.2698
42.4767
40.5846
39.229
38.238
37.4193
36.0685
34.6932
31.3668
29.0587
23.9976
157.336
159.158
123.005
113.098
90.6345
66.5654
55.5216
48.7684
45.0283
41.6629
38.7497
36.617
35.1046
33.8855
32.5454
30.4241
28.3965
25.6042
23.9977
22.139
188.366
130.837
99.0103
103.029
86.3567
60.6181
48.1386
42.1449
39.3713
37.5051
35.3895
34.1669
32.8202
31.7197
30.3775
28.6391
26.8633
24.9554
23.6748
22.9585
211.338
137.748
82.4063
72.1004
59.3142
49.5498
43.2921
37.6838
35.0008
33.1142
31.6973
30.9803
30.1895
29.4532
28.6738
27.6145
26.4006
25.2695
24.7228
24.8295
94.0745
96.5781
79.3485
63.6633
51.1316
42.7511
35.3834
30.9888
28.4971
27.9349
27.426
26.8829
25.9719
25.0822
23.9983
23.0874
22.7986
22.4255
22.3896
22.3096
32.386
48.8697
60.5278
68.859
70.1526
68.0033
59.7013
52.4163
47.5386
44.2496
41.3463
38.4652
35.8569
33.3645
30.7884
27.7771
25.042
23.1636
22.6552
22.3276
314.645
130.334
106.321
83.8483
68.4252
59.7575
51.7283
47.8716
43.1447
40.6015
37.6232
35.7672
33.8131
32.0867
30.4177
29.1955
28.6984
28.3411
28.0201
27.5938
108.889
147.459
132.895
91.9359
66.8323
55.8859
49.797
47.6256
44.5223
42.8822
40.7358
39.5809
38.3763
37.3951
36.1105
34.2559
32.0763
29.9027
28.693
27.4733
177.89
163.782
125.545
80.6493
59.5093
50.1659
45.5794
44.0762
42.2613
41.7109
40.5818
40.1264
39.3553
38.4441
36.8586
34.3616
31.7873
29.4244
28.3316
27.0101
248.174
126.087
100.421
67.0696
55.0235
47.443
43.4397
41.2556
39.4098
38.8679
37.9014
37.2941
36.2921
35.2206
33.8463
32.2268
31.1072
29.838
29.0814
27.2375
298.969
114.144
78.7964
60.5066
54.716
46.6048
42.7571
39.1593
36.4075
35.0535
33.7179
32.878
31.9369
31.062
30.2131
29.2836
28.3759
26.9886
26.0405
24.7425
160.73
142.764
116.409
83.1904
63.2902
52.9807
46.1495
40.9883
36.3692
33.6673
31.6039
30.205
29.1807
28.3331
27.5759
26.8706
26.3361
25.7214
25.4166
24.6538
152.766
173.269
135.432
97.356
68.8409
55.1982
50.4581
45.5574
39.6067
36.5209
34.1464
31.4831
28.9764
27.6136
26.5013
26.1736
26.107
26.1024
26.0475
25.4501
397.394
227.166
106.413
76.3398
60.3668
55.0289
50.6168
46.1097
42.451
40.1942
38.0638
34.1443
29.8507
27.1528
25.7381
25.9359
25.7444
25.6365
25.5632
25.2581
152.739
132.73
93.198
69.7351
59.3837
54.3746
51.0157
45.9767
42.7408
41.4763
40.3563
32.6325
28.3934
26.3608
25.8898
27.4445
27.3062
26.9334
26.5204
25.5612
147.424
130.713
117.26
92.4678
69.8115
62.4315
59.227
54.9066
51.4759
48.0272
85.939
62.487
46.8588
35.5928
29.9073
28.8455
28.0401
26.8598
25.7307
24.0792
134.218
150.365
140.99
111.339
80.2603
63.1322
56.2433
52.8085
51.8137
46.8278
41.7931
39.2917
38.0014
32.3495
28.366
28.6681
28.0192
26.2391
24.3857
22.2613
131.092
169.074
149.616
113.919
87.5736
67.1856
57.738
48.6131
42.1791
37.3276
34.628
33.3158
31.9172
30.1495
30.4069
30.2141
29.3949
27.2505
24.9638
22.0232
169.311
148.02
106.411
84.8352
72.0946
62.5577
51.467
43.4078
37.9724
35.3324
33.7573
33.2307
32.953
32.8287
32.5262
31.8764
30.9992
29.3114
27.6191
23.6823
386.334
159.882
103.432
79.9118
67.3849
58.0054
49.2747
43.6003
39.1465
37.1188
35.7572
35.2062
34.4828
33.7861
32.9906
31.9294
30.7639
28.708
26.9698
23.1367
126.359
155.611
115.673
85.0435
68.282
56.3151
48.0806
43.1393
39.2806
36.8538
34.9999
33.9375
32.8749
31.9859
30.8815
29.3111
27.6292
25.3733
23.8826
21.7081
155.88
148.742
103.407
79.9293
64.9169
51.4141
44.4814
39.8589
36.5983
34.0938
31.9305
30.6178
29.3671
28.3776
27.0776
25.5916
24.165
22.874
22.1162
21.4304
151.079
126.528
83.9475
64.7864
55.9446
44.4494
38.8049
35.1239
32.6854
31.1278
29.4202
28.6423
27.5971
26.9626
25.9932
25.0987
24.1118
23.3685
22.9608
22.957
139.352
140.538
98.6056
61.3986
47.8915
37.8585
34.6931
31.636
29.6575
28.484
27.3363
26.9914
26.4383
26.2679
25.9155
25.6685
25.5448
25.6005
25.8705
26.7152
82.8748
92.598
84.7263
71.6817
56.0679
43.1633
37.1523
33.7775
32.6013
31.4251
30.7339
29.707
28.824
28.0323
27.2808
26.8287
26.787
26.5121
26.4408
26.1422
69.0864
56.0704
66.8284
73.9854
73.6565
68.5721
59.2608
52.5165
47.6388
43.5714
40.0995
36.8604
34.0016
31.0218
28.2927
26.0309
24.5261
23.657
23.2332
23.1499
314.898
173.186
111.957
85.3325
72.149
61.2497
55.3579
51.7859
48.0058
45.5868
42.5686
40.5255
38.4295
36.8162
35.6565
35.2366
35.3643
35.8535
36.3509
37.1225
139.164
165.647
126.569
83.229
67.5896
56.5283
53.2184
49.7074
47.1638
44.6972
42.4974
40.8303
39.434
38.2108
37.1199
36.0611
35.2434
34.6862
34.4308
34.4526
352.831
193.237
128.72
79.5137
62.4271
50.534
48.29
45.0583
43.8019
42.2456
41.0149
39.9464
38.8662
37.7111
36.6448
35.4405
34.5149
33.7895
33.4679
33.2332
261.463
145.87
114.158
69.7692
58.5723
46.8601
45.1635
41.7127
40.6982
39.3276
38.4116
37.4553
36.5999
35.7527
35.0655
34.3764
33.9612
33.4746
33.1739
32.6998
262.218
115.734
80.9057
59.2206
55.5415
44.2779
43.4757
39.1132
37.4205
35.7993
34.9003
34.1076
33.441
32.8451
32.3782
31.9187
31.6043
31.2594
31.0776
31.0355
283.506
142.128
109.999
73.7592
62.9706
50.339
45.7056
39.5648
36.8798
34.3401
33.2077
32.1323
31.5871
31.069
30.7165
30.6047
30.6592
30.7262
30.835
30.9665
171.064
159.429
123.513
83.425
66.1065
52.9257
48.1019
42.2453
37.8315
35.179
33.2781
31.5847
30.4149
29.8736
31.7452
31.353
31.453
31.6562
31.8264
31.8377
262.873
150.258
105.595
75.1135
61.6335
54.6581
49.6742
44.9489
40.4823
37.859
35.2052
32.7288
30.9531
30.2438
31.495
33.0685
32.4797
32.3128
32.3361
32.3946
163.747
140.447
94.7006
64.9581
57.3827
50.3871
47.6879
44.8347
42.1952
39.5648
36.5959
33.1229
31.8067
31.2552
32.7231
34.4025
33.4611
32.9514
32.8391
32.7118
166.105
126.555
113.816
80.4652
65.1515
56.0167
50.9601
48.233
46.0268
42.8594
64.114
55.0445
42.9469
36.5664
35.016
34.5068
32.9586
31.9601
31.4814
31.151
286.416
170.533
142.52
100.391
73.3791
58.3775
51.1365
47.6386
45.4527
42.4299
39.3311
38.4716
37.2056
34.6235
33.8425
33.4188
31.436
29.9021
29.0949
28.9733
165.82
189.272
161.194
111.485
83.7446
62.2455
53.756
43.5124
39.7457
37.8516
36.7625
36.0631
35.1422
34.1306
34.7761
32.7872
30.9425
29.295
28.1977
27.7384
187.208
148.234
113.319
81.0759
68.6259
54.7272
47.3888
40.8774
38.6074
36.8303
36.6844
36.4861
36.3476
35.7948
34.7555
33.2593
31.7805
30.1945
28.9543
27.7319
232.797
176.988
109.871
74.3268
64.096
51.4508
46.3807
41.3729
39.4808
37.9057
37.4989
36.9183
36.3778
35.3691
34.2349
32.6119
31.185
29.5516
28.3218
27.044
314.501
187.941
113.996
79.1956
65.3842
51.3472
46.41
41.0705
39.4725
37.0498
36.3378
35.0361
34.2323
32.8617
31.6388
30.1328
28.9045
27.8069
27.1064
26.6728
140.528
126.767
94.9187
65.9883
58.9225
45.9124
43.3283
38.1971
36.9605
34.2141
33.2636
31.6913
30.9034
29.788
28.9266
28.0643
27.4704
27.1056
26.987
27.0066
285.779
127.527
81.1194
56.1642
51.8732
41.3073
39.4673
35.0302
34.1098
31.8055
31.1635
30.0579
29.7087
29.247
28.9908
28.7983
28.7054
28.7955
29.0353
29.4815
223.608
187.354
116.395
68.2841
50.056
36.7432
35.9084
32.6632
31.986
30.3475
30.1916
29.916
30.0674
30.4051
31.0675
31.8721
32.8989
33.7559
34.8643
35.709
57.9785
99.7191
98.0881
80.9682
59.1222
42.7702
38.0517
34.9919
34.0215
32.1926
31.3641
29.8516
29.0137
28.1989
27.6165
27.3283
27.3145
27.1092
27.0021
26.354
140.789
84.6862
68.1291
72.5318
71.5848
64.4913
55.916
49.0162
43.1036
37.5156
33.1887
29.5746
27.091
25.3136
24.344
23.7556
23.5017
23.3439
23.315
23.3683
672.989
337.016
132.687
86.2495
85.8568
66.1898
70.2595
61.0163
62.6812
56.8851
56.1603
52.1396
51.6034
50.2789
50.7061
51.131
52.3306
53.3622
54.0597
55.1039
368.64
147.08
122.93
76.5485
78.3787
61.1922
64.6844
56.3257
57.7928
52.7218
52.5412
49.4227
49.1724
47.855
48.0223
47.9959
48.5554
49.1465
49.5711
50.1975
316.13
173.303
126.545
79.6993
71.4459
56.1576
58.7336
51.0385
53.3246
49.3131
49.9822
47.7425
47.6629
46.6146
46.8158
46.8727
47.4629
47.8619
48.1909
48.5184
224.05
172.922
124.555
78.1205
69.0388
53.3031
56.4171
48.5427
51.038
47.2304
48.2493
46.3296
46.6067
45.8115
46.1921
46.2792
46.7707
47.169
47.6113
48.0422
170.548
157.158
90.2671
74.4375
65.8175
51.1006
54.9028
45.4377
47.3173
43.9615
44.9084
43.6739
43.9728
43.5723
43.9079
44.2006
44.938
45.6669
46.2222
46.7437
421.2
160.379
107.443
79.1728
75.266
55.8815
57.4481
46.2523
47.5004
43.373
44.6317
43.167
43.8137
43.3387
43.5517
43.9293
44.7912
45.4446
46.0554
46.6253
220.817
168.531
124.427
84.0643
78.9229
57.6393
55.1345
48.3086
47.5873
45.184
45.8577
45.1123
45.6816
45.6054
47.1468
45.7435
45.9067
46.5959
47.1175
47.4359
404.696
197.51
126.635
89.8862
76.8317
61.954
60.7321
56.1392
53.5814
52.3025
52.2861
52.2028
52.5022
52.7259
52.0278
48.3543
47.1937
47.279
47.5925
47.9285
244.279
152.54
117.37
79.2274
73.2295
56.6359
57.8814
60.4569
58.7458
55.226
54.0726
56.0488
57.568
57.0765
53.9038
48.6107
47.0198
47.1277
47.6269
48.0445
182.046
138.913
123.912
81.3344
80.8432
61.5184
59.2351
62.1958
60.9132
56.3506
56.1463
56.942
60.0476
58.6598
54.3359
48.1597
46.2328
46.15
46.4404
46.6493
258.143
173.301
149.019
91.9092
85.1898
62.8008
60.82
61.4157
60.1742
58.4899
58.2216
58.7969
59.0908
57.8285
53.9785
47.078
44.6625
44.0971
44.3299
44.6647
283.793
203.367
174.744
106.435
99.0592
71.3933
60.1305
50.1215
51.3781
50.9554
52.8223
52.8267
53.2973
51.8509
49.6173
45.6455
44.0015
43.4328
43.474
43.5946
189.301
176.115
139.758
85.1375
84.3217
59.7001
57.9493
49.8149
50.5505
47.9323
50.2091
49.5413
50.7181
49.4801
48.3302
45.739
44.7998
43.7499
43.704
43.8462
313.868
237.669
145.27
80.2672
82.7721
57.3551
59.9048
49.9367
51.6803
48.5249
50.197
48.9266
49.5636
48.1358
47.3233
45.1536
44.3211
43.2464
43.1573
43.1583
255.275
155.215
136.258
82.9408
83.0346
57.4621
60.3271
49.8736
52.7075
47.6779
49.6102
46.6396
47.3795
45.0782
44.9644
43.3544
43.1867
42.7319
42.9035
42.9741
166.711
122.757
113.516
71.5293
76.9832
53.7495
59.2072
46.9494
51.1792
44.7847
47.2674
43.6481
44.7539
42.6588
43.181
42.2639
42.6786
42.6478
42.957
43.0777
202.287
150.956
114.274
68.9376
72.8995
49.5496
57.8539
45.0585
50.3782
43.219
46.4341
42.6043
44.5419
42.8795
44.2413
43.8921
44.7501
45.078
45.5843
46.0065
177.571
197.298
174.401
89.0347
78.8578
47.8017
58.8568
44.0338
51.8826
43.9615
48.867
45.3384
48.495
47.6475
49.9395
50.6114
52.379
53.2513
54.1263
54.4843
48.9138
96.2643
98.0128
81.3501
54.0165
40.2518
37.387
34.5408
33.3385
31.0812
29.8017
28.453
27.7735
27.2045
26.938
26.7149
26.6145
26.367
26.0689
24.9985
41.0977
47.0385
82.9453
39.213
37.5512
43.0106
101.085
34.4383
81.6302
64.5632
36.5639
33.1008
101.96
75.7772
88.5955
48.4206
45.336
43.587
105.26
43.1393
40.9821
67.3632
44.414
42.7394
103.541
77.9847
40.8412
40.9696
282.799
298.26
261.568
78.9726
66.9941
79.9059
66.7411
281.837
259.794
252.927
65.4741
61.1217
63.9347
58.1395
265.154
251.726
244.556
60.6237
58.3073
57.0361
55.5276
227.788
239.676
197.597
57.9323
55.9063
55.6389
56.6933
197.363
180.626
183.715
55.4312
52.2918
56.6083
49.1561
175.252
193.451
191.819
51.8743
48.9717
46.4465
41.8683
152.37
180.299
157.374
46.9307
40.5579
40.5201
35.8811
136.852
153.423
132.555
38.866
34.6462
34.6633
30.9513
234.792
325.238
258.862
83.6854
69.7123
101.533
91.0317
228.722
244.745
213.769
66.6346
59.448
87.5434
77.0489
223.129
208.897
210.005
57.6805
54.746
74.2681
68.9069
189.005
213.701
227.282
54.5285
54.6597
68.1836
64.9524
173.554
225.98
173.428
54.6635
47.8318
63.9761
55.467
184.429
165.053
154.576
44.5283
39.407
48.9949
38.0255
157.449
152.129
149.85
38.2572
34.5767
36.5974
33.9317
132.409
149.117
129.653
33.6115
30.6966
33.404
30.8983
272.585
354.711
291.423
103.305
91.8827
97.6206
86.8186
227.918
285.837
263.974
88.2594
77.949
84.5833
80.9696
224.566
253.202
231.376
75.3335
70.2825
80.0386
69.9004
235.74
233.845
252.457
70.1239
69.7504
65.6908
62.36
192.336
251.214
229.17
68.5988
61.367
62.6002
57.7617
152.781
216.956
186.606
55.1079
39.6162
55.2539
48.9855
143.93
177.185
145.084
37.6417
34.4831
47.8413
41.5531
127.314
140.977
127.589
33.9106
31.0087
38.6528
31.629
292.284
390.1
315.702
97.3563
86.8635
105.438
90.3532
265.515
303.335
265.041
85.0202
81.4386
85.7337
78.5645
223.708
248.341
206.374
80.7845
70.4218
76.7211
63.676
244.658
203.454
214.668
64.8899
58.0347
57.4891
48.5438
230.41
214.719
209.812
57.9428
54.7437
47.8968
47.2502
197.684
207.037
185.683
52.8719
49.6456
46.9821
45.9546
147.762
169.931
144.49
49.3073
44.6912
45.936
42.4093
127.156
144.938
147.188
40.69
31.9016
39.4702
32.2934
60.3135
67.3053
59.0421
52.7023
48.7849
52.4076
47.8022
55.0381
56.8732
52.3879
47.8292
44.9602
46.5647
44.0568
52.2192
51.5328
50.3758
44.2447
42.3364
43.5857
42.9334
50.4304
50.4467
51.5233
42.0136
40.7041
42.9505
42.95
47.1781
51.5122
44.6596
40.152
37.168
42.3742
36.0564
42.5176
41.8933
36.9357
36.1322
32.3463
34.0864
30.1122
35.2094
35.6124
31.7202
31.1561
28.3338
29.1683
26.9691
31.3847
30.7631
28.5992
27.7423
26.3477
26.4909
25.4402
61.9632
85.9742
81.1976
54.0261
49.4089
63.6589
59.9586
53.8121
78.3637
69.6992
48.0335
44.9445
58.5104
54.423
49.978
67.3769
62.7833
44.222
42.9874
53.2716
50.5887
50.1318
62.0128
58.2554
42.8917
42.8276
49.6319
59.0578
43.6255
56.8821
48.7244
42.3432
35.8523
58.4623
50.7427
35.0445
43.8929
35.0563
33.6936
29.6614
46.9844
38.861
30.7811
33.7818
31.3531
28.7937
26.8298
36.9047
32.2283
28.3728
30.7837
29.0104
26.3988
25.4258
30.8938
27.9886
82.0034
81.1901
76.7596
64.3968
60.5949
60.3894
57.4914
70.7022
75.3739
73.4222
59.2047
55.5906
56.9529
56.2251
64.6169
72.6838
64.279
54.6976
53.0107
55.8103
52.3727
63.0588
61.1372
58.0381
52.1243
61.9543
51.1584
47.8569
52.8617
57.5105
51.1505
61.0474
52.8648
46.5443
43.2206
36.8892
48.9897
44.2487
49.9637
43.5339
42.6028
40.6644
32.3343
43.3755
38.0597
41.3052
35.5609
39.7556
35.2805
29.2872
35.6018
29.8958
33.9108
29.5023
33.5835
29.3574
76.6619
81.4264
76.101
60.021
57.1114
62.3874
56.6848
73.8691
73.6465
68.4783
56.6418
56.1825
54.9497
51.2768
64.3914
66.9322
56.2172
55.8611
51.2703
49.6952
44.3384
54.0737
51.719
44.6082
49.452
45.2243
42.2913
38.6728
48.829
43.9956
42.9171
43.9068
40.7129
38.0689
36.686
44.7283
42.657
42.0254
40.1965
39.2725
36.4963
35.875
40.255
42.0347
38.685
38.8586
34.6288
35.6223
32.3173
29.9376
36.0461
30.3544
32.7287
28.6315
31.0667
28.4647
47.0705
49.9765
46.0014
48.949
45.4443
47.5553
44.6183
43.2177
44.8937
42.6452
44.2613
40.873
43.6804
41.4827
40.5315
42.203
41.4886
39.9892
37.9143
40.9218
39.4674
38.7012
41.4348
40.9003
37.4261
35.4513
39.0038
36.991
35.1373
40.0276
34.3533
34.7754
32.5402
35.9276
32.5456
30.8116
32.6913
29.2769
31.8612
29.9592
31.6704
29.9306
27.5936
28.4818
26.6959
29.5089
28.5224
29.5541
28.785
26.0177
26.3184
25.4934
28.3691
27.8529
28.6447
28.3675
47.1722
58.6275
55.4597
47.3807
44.7729
51.0596
48.393
43.3464
54.2559
51.0184
43.8959
41.8421
47.6493
45.6197
41.6247
50.0858
47.8018
41.2775
39.7163
44.9356
42.6156
41.775
41.4263
42.1001
40.3476
42.2992
40.2208
40.9713
40.4043
38.7056
42.295
38.6386
40.8557
37.0598
42.0567
29.1517
57.4417
43.7023
32.1467
30.293
65.1619
45.7853
26.7213
40.5736
33.6816
29.8955
29.0692
42.223
35.3796
25.5291
31.9434
28.5466
28.9025
28.5436
33.9037
31.5431
56.044
56.4053
53.6782
51.6577
48.8983
51.0263
48.3162
52.1637
53.1615
52.3954
48.2352
46.5564
47.7507
46.4944
50.0644
52.0205
49.4728
46.0095
43.9018
46.0779
44.1447
54.817
70.4549
50.121
52.6199
52.5755
284.9
47.637
82.4298
79.9962
63.4279
225.197
63.7811
207.783
79.212
50.6811
42.4906
40.7525
70.4075
50.2266
40.8942
39.3515
37.8922
39.7068
35.2625
46.0064
37.9431
38.3927
35.2141
30.2545
33.688
29.6942
36.1665
32.7503
34.2361
31.9245
53.3241
58.7289
53.1896
51.2833
48.063
54.5247
48.0835
52.1608
51.2861
47.4061
47.3744
45.9156
45.866
42.1267
48.2522
46.2189
41.9038
45.4443
43.2602
41.2892
39.0611
42.9531
40.4734
37.49
42.2984
39.4805
38.4229
36.675
39.5627
36.9531
35.6881
38.8586
38.0918
36.2981
35.3953
38.5341
35.5195
34.7988
37.9958
37.1575
35.2214
34.3271
33.9344
34.4889
31.5493
36.5098
33.8892
33.9843
32.3617
28.9026
30.6154
28.6308
33.0846
31.3848
31.9737
30.9906
46.2731
48.2231
45.6841
56.7503
53.7548
55.4846
55.4934
41.3611
44.7891
42.4813
52.0605
48.9515
54.804
52.6341
38.4007
41.8433
39.9945
48.5614
47.3976
52.0224
49.3699
35.8235
39.3656
37.072
46.7363
45.8788
48.4217
46.5148
33.3047
36.1034
33.3748
45.8323
45.7121
46.2386
46.3679
31.258
32.7435
31.6808
45.4859
45.3665
46.9376
48.0517
30.3258
31.4813
31.0528
45.3498
45.407
48.1921
48.0977
29.724
30.9835
30.623
45.3352
44.9457
48.0017
47.4943
45.6127
50.3398
48.2175
53.6856
54.9682
54.1613
55.7891
42.811
47.6148
45.7861
54.7769
53.2569
55.9309
55.1417
40.2316
45.0769
42.3635
52.6377
49.3567
54.1849
50.2934
37.501
42.1518
65.0121
48.3215
46.15
48.9226
49.3154
33.8235
66.1814
57.7562
45.7743
45.568
49.5949
48.766
31.9982
53.1537
43.0167
46.177
48.3441
48.4811
50.5188
31.3491
40.7125
36.0788
48.6231
48.548
50.7869
50.1637
30.8042
35.0532
33.1598
48.3913
47.673
49.7369
48.3921
48.7711
50.8673
48.6051
55.1999
56.5182
56.2092
57.0643
46.635
48.0525
46.5987
56.6058
55.7343
56.8795
55.5675
43.4498
46.1228
44.0139
54.8
50.974
55.1341
52.399
63.6377
42.997
40.8402
49.6128
49.7617
51.4188
49.6759
58.2443
40.6591
40.5626
50.0664
49.2803
49.5085
49.3529
45.5054
40.4247
39.2264
48.9893
50.9703
49.6115
51.2638
37.7517
38.5098
36.1479
51.2187
50.5208
51.3034
50.4196
34.0467
35.4245
33.4502
50.0705
48.6157
49.9912
48.5165
48.3348
53.8158
47.7572
56.3472
56.4743
57.4615
51.8629
45.9615
45.5726
42.005
56.0731
54.6669
50.0961
48.4386
43.349
41.391
39.7348
54.3504
52.4869
48.8908
49.1833
39.8625
39.2029
37.7522
51.6656
50.2682
48.8965
48.7774
38.5924
37.4559
36.7427
50.1491
50.1123
49.1693
49.644
37.7257
36.5584
35.6895
50.4037
51.2575
49.519
49.1121
35.2242
35.3758
34.0629
51.1796
50.1892
49.0575
48.2782
33.0624
33.718
32.5351
49.7762
48.3773
47.8025
46.1006
57.8521
59.9841
60.9539
84.6056
79.4154
83.4013
87.0306
53.6832
60.3724
58.4704
77.4498
75.3766
85.9969
83.87
52.9173
57.9909
55.9658
76.8959
75.8105
83.5205
85.4802
52.1335
55.2705
54.4827
75.1773
76.4129
86.1896
88.7846
52.4296
54.6187
55.5184
77.5486
78.1157
89.4121
90.1392
52.434
55.8313
56.6422
78.4086
79.1468
89.7042
87.2869
52.8075
56.803
56.653
79.9088
79.6866
86.7231
85.7881
51.9217
56.5483
55.4282
80.1098
76.8641
85.6367
84.0869
60.4825
57.9947
61.1539
82.8005
87.8371
83.5266
90.3325
59.2512
61.5474
61.1509
87.2449
85.5306
90.1176
89.7783
56.0765
60.3861
56.9396
85.5571
89.1108
90.8511
98.1752
54.0225
55.6852
55.0924
90.2997
93.2001
100.458
104.377
55.1679
55.4734
55.9414
93.8306
94.3838
105.175
104.676
57.299
56.5666
59.4339
93.724
89.8946
102.94
96.0433
57.2768
59.7854
58.9497
88.6154
86.8276
93.5191
89.2994
55.6334
58.4425
56.2297
86.5323
83.7054
88.6685
85.9005
61.8946
60.6647
62.4459
87.6136
91.9791
91.3956
94.0267
61.6648
62.3582
61.3346
91.3894
90.6205
92.7595
90.7889
57.5615
61.0104
59.0067
91.647
99.104
90.7947
94.6785
55.766
58.2934
57.4985
101.459
105.149
95.9987
98.0242
56.4188
57.5829
58.0689
105.879
105.179
98.4846
98.5841
59.7118
58.5486
59.3981
103.281
96.3553
97.6738
93.1196
59.1821
59.4787
58.6241
93.8385
89.5827
91.7678
89.669
56.3714
58.1977
56.1028
88.9474
85.3772
89.2704
87.1714
61.6972
61.051
55.4899
96.1407
94.2127
91.1601
85.962
60.3404
53.7832
53.1803
92.3577
90.2975
82.2028
85.1761
59.0178
54.0627
54.7466
89.7726
91.9746
83.3697
83.1142
58.0661
54.4989
54.8628
92.8425
94.5205
81.7521
84.3311
58.6044
55.4452
56.0031
94.9185
95.1062
83.8452
84.7937
59.1115
55.8748
55.7585
94.5043
91.3835
84.059
86.0039
58.2251
55.8254
55.2915
90.8271
89.4487
85.6572
86.008
55.8399
54.7744
52.657
89.1422
86.804
85.1047
83.9105
43.0023
41.3631
42.8317
39.6094
42.887
40.0558
42.8406
57.6995
44.3554
62.9423
50.3738
47.5872
43.6399
211.738
72.2097
54.0891
80.1733
242.036
53.4825
70.8732
266.195
40.9539
39.5462
38.7521
39.6157
39.2805
40.095
39.8154
42.1485
38.3553
38.2576
40.3083
38.9674
41.9736
40.3955
58.0067
49.7935
41.1434
64.3385
42.5614
215.101
46.0804
72.4205
236.448
56.4926
90.9382
71.4543
263.355
54.2375
38.4737
36.5453
36.266
33.5224
38.6608
35.2567
36.156
62.4014
53.1129
79.015
225.38
51.0945
67.065
209.521
58.3323
43.9922
74.3248
97.7367
48.2688
49.2663
140.454
39.6613
37.3255
35.3892
39.6515
35.9363
41.1499
38.5326
38.0477
33.0614
34.2031
35.8218
34.4616
36.0497
37.2923
63.8793
218.105
55.8478
100.975
67.9789
202.437
54.4168
59.483
101.668
47.1171
92.915
50.6755
138.45
52.0313
64.3339
88.7594
61.2295
245.444
57.3597
265.661
72.7905
46.8861
49.3876
47.3541
46.0569
49.0854
46.8379
45.0129
47.5824
49.6558
46.3023
43.3995
49.2174
49.0347
44.0748
52.9317
51.8213
75.3794
43.9523
269.998
45.4712
47.3142
63.7842
239.996
100.647
60.2112
262.58
73.2186
54.1433
44.9181
44.2278
43.5215
42.151
44.8166
43.2115
43.398
45.8196
41.9284
45.3069
41.3846
47.6305
42.395
43.9431
82.4491
78.5922
62.4253
119.644
63.591
183.052
81.5568
51.4135
49.8654
43.6466
42.9034
49.9038
50.3057
42.6161
52.0517
49.671
43.0898
42.4466
49.8273
52.2294
42.4969
82.4634
218.029
99.1521
64.5546
198.95
79.7829
66.4167
82.1545
119.91
93.9215
65.7952
166.731
81.047
66.6977
50.6472
41.708
46.6299
40.8475
49.271
41.6728
47.7199
51.3711
41.8171
48.2695
40.952
51.5402
41.7547
48.25
175.482
200.826
188.316
109.884
90.3586
105.703
87.7274
160.469
182.685
177.607
81.4314
74.734
79.4586
74.5712
146.477
170.789
163.24
70.3732
65.3543
70.7934
67.5393
126.484
153.031
142.769
63.2075
61.5196
64.6697
63.0971
106.783
134.087
126.96
60.6004
58.5089
62.2335
61.8238
100.116
116.626
107.066
56.039
52.3912
61.3577
59.173
99.955
101.298
99.0678
49.7436
47.4378
53.541
47.9718
95.1753
97.7782
89.7813
46.9243
43.537
45.3579
36.604
198.433
205.363
191.107
114.956
92.3082
115.954
95.7966
139.997
292.253
319.735
171.696
135.752
170.493
295.725
106.408
284.571
285.281
104.772
101.859
109.597
281.694
101.989
275.624
277.308
99.2271
98.9866
102.361
276.348
99.25
253.675
266.568
96.2572
94.868
100.291
260.996
88.9042
205.832
212.39
86.8549
83.8658
93.8417
202.485
80.3673
191.831
200.518
82.2931
82.6435
81.122
199.934
73.309
160.939
175.391
79.7258
77.9048
76.6777
165.73
61.6779
150.737
150.27
70.4648
70.3565
64.3027
148.083
87.1226
94.2401
80.42
39.0654
36.7586
35.4319
31.1072
178.415
213.228
194.226
115.656
100.65
122.872
112.309
144.38
252.164
283.961
159.822
134.661
163.934
254.237
106.877
229.755
220.684
104.099
99.1687
114.107
214.696
90.8008
228.393
209.214
90.4962
88.8917
92.6201
209.897
86.0918
215.302
212.407
87.5944
87.7444
86.341
211.066
85.6806
168.213
180.761
85.5793
80.7196
86.6554
168.591
66.9796
187.113
171.074
69.7889
69.2512
69.5327
175.626
61.9662
168.072
169.234
66.4257
64.5739
63.6253
164.425
56.546
150.931
154
58.5012
57.0384
57.3677
151.049
78.8677
91.3082
77.744
34.8422
30.407
34.6593
29.2755
211.932
233.924
214.799
133.346
115.115
131.045
111.702
170.111
313.218
349.615
193.491
170.01
193.989
314.273
123.465
248.916
266.949
130.586
123.173
130.265
257.529
103.685
220.686
230.347
107.789
103.617
108.833
229.339
99.3503
228.438
237.869
102.343
103.046
98.2054
239.549
105.24
231.556
236.678
104.492
109.228
104.113
233.743
94.3224
162.977
189.305
100.403
84.1119
102.562
171.844
60.1356
145.641
150.799
62.5142
60.1879
63.6005
146.857
54.0844
142.361
140.302
55.5818
54.7585
55.6222
138.971
74.2486
88.5086
81.4047
33.5525
26.7365
33.2626
26.8065
220.046
249.888
226.589
131.305
111.893
132.992
121.368
169.444
324.567
362.607
196.69
168.872
196.89
326.478
124.075
279.273
282.701
129.243
123.74
130.219
274.921
111.551
239.522
251.408
112.73
109.169
113.392
230.568
83.5942
230.42
213.387
90.3216
86.7068
88.0179
219.905
85.6657
242.816
234.546
88.4294
90.7677
83.7793
233.9
83.6392
213.66
222.56
87.6948
86.5767
84.6636
215.915
81.4362
171.483
188.244
82.257
80.663
82.8774
172.407
58.6669
142.418
146.853
64.1051
57.7834
64.4591
146.656
87.839
107.147
102.179
34.1827
26.2611
35.5094
30.8022
187.204
215.338
187.583
123.434
102.358
119.275
102.673
158.581
172.246
157.683
88.9226
83.5315
91.2437
86.6681
129.504
143.306
128.108
77.4779
69.5096
79.5367
72.2741
121.628
118.543
112.567
60.5143
54.4906
63.2462
56.4593
118.352
108.321
101.907
51.8756
50.5879
50.9016
46.5326
104.112