/*--------------------------------*- C++ -*----------------------------------*\
  =========                 |
  \\      /  F ield         | OpenFOAM: The Open Source CFD Toolbox
   \\    /   O peration     | Website:  https://openfoam.org
    \\  /    A nd           | Version:  10
     \\/     M anipulation  |
\*---------------------------------------------------------------------------*/
FoamFile
{
    format      ascii;
    class       volScalarField;
    location    "3.9";
    object      omega;
}
// * * * * * * * * * * * * * * * * * * * * * * * * * * * * * * * * * * * * * //

dimensions      [0 0 -1 0 0 0 0];

internalField   nonuniform List<scalar> 
12920
(
16.3352
73.6002
105.333
113.231
113.596
112.781
105.563
93.4489
83.2027
75.4429
69.0981
63.3605
58.0306
53.8191
51.1636
48.4954
44.3263
38.8032
34.599
32.1761
162.542
121.62
141.615
133.559
130.898
128.41
118.883
108.988
99.1661
92.7597
84.5715
77.2536
70.1671
64.6003
59.5752
55.4528
52.0299
49.4096
47.6359
47.0064
271.089
256.042
215.608
165.811
140.294
127.808
115.969
112.082
107.123
104.999
100.488
97.3042
92.781
86.5527
77.2236
67.8112
59.2411
53.0415
50.172
49.5418
270.716
217.312
197.933
148.459
123.81
113.048
104.444
102.657
100.114
99.5766
97.5144
95.7991
92.359
85.4151
76.2057
66.8917
59.5535
54.8251
53.2902
51.5441
91.5291
172.488
184.991
147.142
121.914
108.318
96.8564
92.2933
88.4607
87.7344
86.5909
84.9119
80.845
74.7082
68.7245
64.4115
61.927
58.2706
55.6763
51.7937
107.392
177.547
175.143
133.931
113.824
102.428
94.4283
87.8529
81.6407
79.0978
76.9774
75.3406
72.7132
69.7273
66.6774
63.2536
59.3459
54.3461
51.4954
48.439
227.252
264.286
240.453
187.566
143.391
118.433
107.011
96.644
85.9637
77.2323
71.9471
69.4913
67.6934
66.0069
63.4188
59.2982
54.9674
50.8929
49.0837
46.8479
388.26
302.224
276.183
212.895
161.935
135.917
201.467
165.294
154.821
137.205
116.604
102.094
100.003
99.8976
60.8311
54.6426
49.8888
47.0046
46.1324
45.1117
460.9
287.743
174.792
158.109
142.391
214.958
331.578
284.332
279.532
261.164
215
195.421
166.979
150.721
93.7028
51.255
46.9339
45.1757
44.249
43.1634
354.51
191.238
166.808
151.424
136.586
198.486
279.733
230.636
228.001
219.326
174.86
183.048
176.448
153.978
93.2099
50.1508
47.9036
46.3508
44.3135
41.424
377.448
247.754
191.072
170.015
152.854
232.066
348.804
260.314
222.23
226.285
235.216
173.135
148.495
143.288
87.2867
53.4314
53.1633
51.816
47.3567
41.1899
295.064
235.904
194.325
172.517
157.202
240.724
361.437
285.55
256.047
224.602
244.512
222.686
186.928
143.431
97.0969
66.3599
63.7927
56.098
47.3503
39.537
256.71
190.66
182.972
171.399
157.849
136.941
214.899
172.258
143.476
122.9
120.562
112.628
97.9839
98.379
70.8605
70.5924
68.216
59.5319
50.0186
40.9418
223.227
207.826
184.995
169.031
147.827
133.673
114.661
98.9217
86.2336
79.5658
73.3537
69.0272
67.6
67.8839
69.3316
69.8431
69.0161
64.3775
56.4911
45.6935
177.662
193.457
179.437
160.675
141.183
133.839
118.852
105.014
92.4563
86.4345
81.659
79.1827
76.4927
74.3052
72.6975
71.3573
68.5011
61.8317
55.4352
45.8299
156.659
167.872
157.7
148.359
130.659
112.066
100.79
91.7285
84.9246
81.2088
79.082
78.096
76.1914
74.3036
71.6789
67.6308
62.1778
54.9124
50.0847
43.7698
296.57
207.063
161.213
146.493
120.163
98.1762
85.6224
78.6102
74.1171
72.5028
72.2933
72.0077
71.0452
68.7419
64.1659
58.3237
53.0022
48.1098
45.9738
43.0609
171.913
167.486
160.798
147.241
112.665
88.081
77.1745
74.9156
72.4681
71.5022
69.3989
68.2899
65.9812
63.2751
59.1278
54.8699
51.2093
48.2447
46.8652
45.6192
156.81
184.382
159.503
129.899
99.2289
82.2292
71.9158
67.2809
65.0562
64.6228
63.5533
62.7464
60.8393
58.5135
55.2806
52.137
49.5594
48.1028
47.8984
48.2858
102.579
158.85
156.176
131.389
105.617
86.2558
71.5089
60.2573
51.4915
46.6619
45.0981
44.4884
43.4935
42.2267
40.837
39.3328
38.5311
37.682
37.3799
36.61
8.70004
41.0801
58.8678
64.2522
65.3009
64.2115
58.0965
50.4249
44.5828
41.2454
38.7409
36.1673
33.7417
32.2558
30.8985
28.4052
25.0951
22.1491
20.4799
19.4991
182.935
123.246
112.566
85.3798
72.2038
66.4135
59.7943
54.5194
48.6278
44.573
40.8856
38.3851
36.1098
34.1766
32.2423
30.7174
30.0454
29.54
28.9558
27.06
130.386
166.915
150.29
101.234
73.8991
62.9256
56.8453
54.545
51.6349
50.0336
48.0509
46.9222
45.8231
45.1217
44.2459
42.6246
38.8318
33.9813
31.2289
28.3222
210.671
156.797
117.007
82.5982
64.6962
57.4146
53.2251
51.3873
49.9936
49.5817
48.8603
48.5779
48.3619
47.9646
46.9778
44.0222
38.7049
33.4729
31.1625
28.4377
130.706
118.275
97.9122
75.1578
63.3076
57.9821
53.5052
49.7079
47.6317
46.5368
46.0596
45.4296
44.6239
43.586
41.7809
38.7367
36.5846
34.619
33.5697
30.1726
269.421
139.766
88.5186
75.5342
67.7891
60.4692
54.6246
48.7221
44.5501
42.0653
40.4087
39.0975
37.9917
36.7965
35.6929
34.6051
33.5869
31.1138
28.9874
25.8735
221.294
146.32
126.586
95.925
74.2348
65.3301
59.3648
53.3531
45.902
41.4024
38.153
35.768
34.206
32.9751
32.0354
30.8509
29.7162
28.0408
27.2745
25.5356
388.793
265.923
155.73
112.244
80.0243
65.6411
67.5745
61.8157
52.8011
47.6906
45.4661
41.517
36.5309
33.8664
29.4814
28.5244
27.7353
27.2291
26.9353
25.8524
715.121
551.798
159.975
90.2753
72.095
71.2476
66.7488
58.7383
54.3233
51.8168
50.0277
46.4529
40.6202
33.9229
28.9834
26.0671
25.2783
24.9214
24.827
24.3907
227.669
132.009
106.07
84.0661
75.827
74.9811
70.7967
59.6421
52.4174
49.7403
50.064
40.498
33.9468
30.0372
27.2827
25.5868
25.6187
25.7918
25.7002
24.6225
182.877
148.67
126.061
100.484
83.4979
85.1348
86.8715
79.0064
68.5754
64.2311
61.3004
48.4562
35.2915
31.728
28.449
27.0295
27.8336
27.7846
27.0272
23.7534
237.323
167.729
131.502
106.975
85.2309
81.1839
80.186
75.2794
73.1857
60.1591
53.3406
47.3134
44.4375
37.1536
28.561
28.9535
30.0646
29.6411
27.9505
22.843
132.923
166.306
131.535
110.445
92.5092
78.4393
75.4527
66.781
58.6574
46.6641
40.7045
38.3534
36.9204
33.3439
31.6887
33.4498
33.7987
33.2596
31.0405
24.1189
206.419
149.686
110.031
97.0175
90.3018
83.2168
70.7096
58.1893
48.0392
42.4082
39.0447
37.49
36.901
36.6578
36.7494
36.979
36.9538
36.5322
35.3921
29.0327
316.926
168.706
111.528
93.988
83.2085
74.822
65.6468
56.9842
49.7161
45.363
42.9653
41.8479
41.0294
40.0038
39.1548
38.4386
37.7864
36.3286
34.6807
28.1136
109.817
148.418
124.811
103.388
86.2478
69.1634
59.5242
53.5623
49.1011
45.2698
42.4703
40.5706
39.21
38.2179
37.403
36.0639
34.7042
31.404
29.1053
24.0365
156.142
157.96
122.392
112.758
90.8787
66.7758
55.5411
48.7392
44.9973
41.6532
38.7469
36.6098
35.0934
33.8773
32.5457
30.4363
28.4205
25.6289
24.0185
22.1483
194.031
130.157
98.1731
102.238
86.3851
60.8311
48.2007
42.1361
39.34
37.4807
35.3723
34.1515
32.8076
31.7116
30.3758
28.646
26.8773
24.9697
23.6837
22.9577
204.719
139.218
83.2067
72.221
59.3402
49.6929
43.3432
37.7121
34.9926
33.0991
31.6782
30.9616
30.1734
29.4412
28.6653
27.6129
26.406
25.273
24.7178
24.8205
91.866
96.0031
80.2022
64.0719
51.3536
42.8852
35.4748
31.0211
28.4856
27.9069
27.4007
26.8653
25.9613
25.0765
23.9963
23.0818
22.7909
22.4184
22.382
22.3012
32.3261
48.59
60.3245
68.6749
69.9821
67.9379
59.7631
52.4509
47.5358
44.2342
41.3348
38.4605
35.8556
33.3703
30.8054
27.8044
25.0651
23.1718
22.6564
22.3259
310.793
130.766
105.998
83.6814
68.3381
59.729
51.7175
47.878
43.1493
40.6097
37.6305
35.7765
33.8246
32.1037
30.434
29.2045
28.7006
28.3448
28.0263
27.5977
109.185
146.349
132.532
92.142
66.9091
55.8899
49.7638
47.5931
44.4953
42.8628
40.718
39.5647
38.3597
37.3841
36.1094
34.2722
32.1027
29.9254
28.7095
27.4822
175.217
163.054
124.961
80.4658
59.4478
50.1228
45.544
44.0363
42.2251
41.6779
40.552
40.1005
39.3348
38.4359
36.8696
34.3914
31.8203
29.4477
28.3465
27.0191
245.297
125.285
99.8675
66.8363
54.9591
47.3924
43.4184
41.2238
39.378
38.8377
37.8768
37.2762
36.2816
35.2201
33.8564
32.2395
31.1164
29.8463
29.0918
27.251
324.727
113.443
78.561
60.4575
54.6934
46.5732
42.7694
39.1507
36.3952
35.0333
33.6988
32.8623
31.9272
31.0566
30.2114
29.2862
28.3844
27.0018
26.0538
24.7514
171.216
141.265
115.57
83.032
63.2909
52.9554
46.1502
41.0032
36.3742
33.6672
31.602
30.2003
29.1743
28.3285
27.574
26.8706
26.3374
25.7236
25.4195
24.6587
152.905
172.117
134.364
96.8133
68.7515
55.2011
50.436
45.5679
39.6069
36.5164
34.1452
31.4971
28.98
27.6094
26.4978
26.167
26.099
26.096
26.0438
25.4543
376.248
231.89
106.426
76.1792
60.3123
55.0396
50.6215
46.0843
42.4199
40.1718
38.06
34.1656
29.8732
27.1558
25.7342
25.9312
25.7383
25.6317
25.5597
25.2581
150.051
133.177
93.2366
69.7803
59.4013
54.4372
51.0764
46.0197
42.7444
41.436
40.3815
32.7011
28.4128
26.364
25.8856
27.4327
27.2945
26.9265
26.5182
25.5636
146.75
130.103
116.97
92.5247
69.9021
62.4098
59.1788
54.885
51.4464
47.986
86.1908
62.5309
46.8972
35.6379
29.9131
28.8378
28.0364
26.8624
25.7402
24.0866
138.955
149.364
140.314
111.108
80.4097
63.2595
56.2736
52.7484
51.7491
46.8293
41.8044
39.2716
37.9993
32.4105
28.3697
28.6583
28.0195
26.2564
24.4073
22.2746
132.667
167.467
148.517
113.389
87.4517
67.3128
57.8816
48.6768
42.2064
37.3389
34.6183
33.3031
31.9258
30.1538
30.3921
30.205
29.4016
27.2762
24.9973
22.0439
161.46
148.009
106.435
84.6861
71.9879
62.5561
51.5387
43.4751
38.0112
35.3425
33.7523
33.2153
32.9339
32.8103
32.513
31.8704
31.0019
29.326
27.6503
23.716
383.974
166.583
103.746
79.9583
67.3817
58.0107
49.3059
43.6316
39.165
37.1178
35.7469
35.1899
34.4707
33.7763
32.9848
31.9299
30.7732
28.7272
27.0026
23.1684
127.914
154.241
116.003
85.151
68.3492
56.3484
48.0867
43.1414
39.2873
36.8563
34.9967
33.9287
32.8665
31.98
30.8827
29.3225
27.6506
25.3975
23.9082
21.7235
154.16
148.323
103.118
79.8142
64.9777
51.4606
44.4788
39.8522
36.5956
34.0971
31.9332
30.6163
29.3654
28.3785
27.085
25.604
24.1793
22.8854
22.1242
21.4332
154.071
126.127
84.1164
64.7333
55.9325
44.4722
38.8019
35.114
32.6764
31.1207
29.4157
28.6357
27.5921
26.9595
25.9943
25.1029
24.1178
23.3724
22.96
22.9521
137.816
140.521
100.073
62.0338
48.0618
37.9608
34.7064
31.6458
29.6544
28.4784
27.327
26.9806
26.4277
26.2579
25.908
25.6621
25.5381
25.5928
25.8582
26.6983
81.073
92.347
85.3203
72.0379
56.3543
43.3294
37.199
33.7799
32.5805
31.4039
30.7123
29.691
28.8108
28.0209
27.2695
26.814
26.7733
26.5024
26.4317
26.135
72.178
57.2681
66.4851
73.7409
73.4657
68.56
59.2789
52.521
47.6298
43.5633
40.0962
36.8621
34.0106
31.0393
28.3126
26.0469
24.5357
23.6598
23.2323
23.1472
325.355
177.378
111.762
85.0111
72.0562
61.1843
55.321
51.7563
47.9943
45.5897
42.5819
40.545
38.4517
36.839
35.6723
35.2427
35.3631
35.8476
36.3454
37.1149
144.48
165.883
126.539
83.2792
67.5866
56.4747
53.1553
49.651
47.1309
44.677
42.4882
40.826
39.4345
38.2166
37.1299
36.0739
35.2561
34.6969
34.4399
34.4585
337.36
191.995
127.788
79.229
62.3264
50.4523
48.24
45.0018
43.7685
42.2185
40.9994
39.9376
38.8652
37.7174
36.6569
35.456
34.5295
33.802
33.4795
33.2421
264.179
144.79
113.285
69.4716
58.4616
46.7827
45.1274
41.6693
40.6716
39.306
38.4008
37.4501
36.6002
35.7563
35.0719
34.3843
33.9691
33.4846
33.1864
32.7113
265.142
115.247
80.5035
59.1761
55.4944
44.2298
43.4783
39.0931
37.4092
35.7833
34.8901
34.1007
33.4389
32.8461
32.3819
31.925
31.6125
31.2695
31.0888
31.0443
305.222
141.023
109.106
73.6505
62.946
50.2801
45.7033
39.5604
36.8847
34.3407
33.2128
32.1363
31.5926
31.0749
30.7217
30.6093
30.6638
30.7323
30.8432
30.9744
172.602
157.903
122.788
83.1863
66.0844
52.9039
48.0934
42.2797
37.8465
35.199
33.295
31.6065
30.432
29.8878
31.7573
31.3544
31.4526
31.6584
31.8329
31.846
253.815
149.737
104.912
74.7426
61.5125
54.6297
49.6875
44.9782
40.5143
37.8943
35.2438
32.7732
30.992
30.2773
31.5238
33.075
32.4793
32.3145
32.3399
32.3999
160.655
139.89
94.9409
65.045
57.4319
50.4173
47.6914
44.871
42.2359
39.5928
36.6592
33.1682
31.85
31.2981
32.7512
34.4079
33.4614
32.9532
32.8424
32.7168
168.37
126.747
113.712
80.5482
65.2755
56.0487
50.9846
48.2596
46.0685
42.9165
64.3137
55.1098
42.9941
36.6162
35.0404
34.5198
32.966
31.9672
31.4878
31.1584
281.695
169.055
142.416
100.558
73.6515
58.5264
51.2194
47.6587
45.4679
42.4761
39.3628
38.4851
37.2497
34.6748
33.8735
33.4392
31.4549
29.9191
29.1058
28.9825
165.566
185.857
160.311
111.315
83.8418
62.4133
53.8863
43.5676
39.7592
37.8589
36.7702
36.0757
35.1607
34.1517
34.8012
32.8135
30.9707
29.3203
28.2175
27.7522
181.965
148.704
113.43
81.0345
68.64
54.784
47.4432
40.9191
38.6274
36.8371
36.684
36.4835
36.3487
35.8066
34.7754
33.2848
31.8087
30.2222
28.9822
27.7533
239.852
178.129
110.532
74.514
64.1907
51.5377
46.4276
41.4053
39.4939
37.9106
37.5002
36.9209
36.3864
35.3849
34.2573
32.6398
31.2147
29.5805
28.3504
27.0661
301.199
188.103
114.303
79.2671
65.4605
51.4184
46.441
41.0975
39.4891
37.0663
36.3487
35.0485
34.2474
32.8827
31.6637
30.1604
28.9312
27.8297
27.1251
26.6874
144.251
126.858
94.9568
65.9961
58.9463
45.9652
43.3459
38.2176
36.975
34.2364
33.2807
31.7096
30.9211
29.8085
28.9467
28.0838
27.4864
27.1186
26.9976
27.0172
296.337
127.852
81.9414
56.2906
51.9034
41.3322
39.4782
35.0505
34.1231
31.8252
31.1773
30.0728
29.7202
29.2593
29.0022
28.8098
28.7145
28.8026
29.0393
29.4869
222.479
186.979
118.134
69.1092
50.3339
36.8614
35.9277
32.69
31.9987
30.3613
30.1981
29.9212
30.0691
30.4046
31.0635
31.8672
32.8948
33.7514
34.8569
35.7052
53.4055
98.2199
97.8183
81.5612
59.5138
42.962
38.0766
34.9893
34.0069
32.1814
31.3505
29.8428
29.0014
28.1872
27.6024
27.3104
27.2973
27.0957
26.9922
26.3498
140.538
88.5459
68.3508
72.3415
71.4591
64.474
55.9098
49.0125
43.1103
37.5264
33.2026
29.5878
27.103
25.3213
24.3478
23.7571
23.5019
23.3436
23.314
23.369
655.04
346.905
135.398
86.105
85.727
65.9368
69.9922
60.7545
62.4433
56.6784
55.9777
51.9751
51.4419
50.116
50.5387
50.9614
52.157
53.1955
53.9036
54.938
382.389
147.995
122.884
76.4659
78.2171
60.9849
64.4448
56.1023
57.5758
52.5288
52.3627
49.261
49.0166
47.7047
47.8721
47.8447
48.3998
48.9943
49.4286
50.0504
314.059
172.439
126.009
79.626
71.1604
56.0094
58.4839
50.834
53.1161
49.1287
49.81
47.5851
47.5127
46.4691
46.6686
46.7246
47.3122
47.717
48.056
48.3784
223.854
170.58
123.316
77.9255
68.707
53.1786
56.2072
48.3538
50.8435
47.0524
48.0792
46.1716
46.4547
45.6644
46.0445
46.1351
46.6269
47.0296
47.4811
47.9061
172.951
157.958
89.7911
74.724
65.5066
51.1339
54.7338
45.2874
47.1574
43.8062
44.7582
43.5287
43.8332
43.4351
43.7716
44.0661
44.8003
45.5334
46.099
46.6156
411.858
161.593
106.529
79.5681
75.0396
55.7711
57.3767
46.0905
47.3666
43.2271
44.499
43.035
43.6878
43.2139
43.4246
43.802
44.6609
45.3187
45.9391
46.5013
221.431
167.49
123.831
84.2599
78.8479
57.4739
55.1273
48.2931
47.5475
45.1414
45.8023
45.0639
45.6369
45.5646
47.0285
45.6227
45.781
46.4727
47.006
47.3163
400.75
195.461
125.647
89.8884
76.6802
61.8406
60.6469
56.1101
53.5175
52.2415
52.218
52.1624
52.4525
52.6766
52.0135
48.2421
47.0787
47.165
47.4892
47.8139
242.531
151.449
117.49
79.2015
73.3977
56.7018
57.8032
60.3582
58.669
55.1693
54.0032
55.9669
57.5181
57.032
53.9129
48.518
46.9178
47.0232
47.5295
47.9352
181.701
138.42
123.574
81.303
80.9634
61.6455
59.2445
62.1198
60.8437
56.3247
56.1181
56.8941
60.023
58.6368
54.3672
48.0857
46.1437
46.057
46.3565
46.5523
253.908
173.269
149.381
92.1067
85.5341
63.1272
60.9503
61.3572
60.0885
58.4177
58.1314
58.7246
59.0376
57.793
54.0294
47.0252
44.5941
44.02
44.2593
44.5784
269.058
203.397
174.81
106.702
99.3135
71.6442
60.3836
50.1966
51.3912
50.9467
52.8089
52.8267
53.3097
51.8835
49.5839
45.6052
43.9463
43.3694
43.4164
43.52
182.14
175.364
140.162
85.2255
84.4573
59.7978
57.9115
49.8332
50.4989
47.8911
50.1314
49.4735
50.6493
49.4328
48.2889
45.7054
44.7549
43.6984
43.6582
43.7785
295.429
234.267
145.913
80.4404
82.9761
57.5263
59.9752
49.9716
51.6679
48.4991
50.15
48.8802
49.5144
48.0997
47.2909
45.1263
44.2833
43.2036
43.1194
43.0992
264.701
154.543
135.905
82.8881
83.1494
57.6001
60.3831
49.9215
52.7141
47.6872
49.5924
46.6274
47.3546
45.0604
44.938
43.3275
43.1476
42.6883
42.8671
42.9187
162.448
122.24
113.374
71.509
77.0457
53.8756
59.3156
47.039
51.224
44.8215
47.2751
43.6543
44.7421
42.6452
43.1534
42.2331
42.6356
42.6043
42.9209
43.0222
196.853
151.466
115.424
69.0017
73.0775
49.6407
57.9422
45.1504
50.4273
43.2726
46.4514
42.6205
44.5329
42.8662
44.2108
43.8587
44.7037
45.0318
45.5455
45.9475
181.417
197.154
175.753
89.9571
79.4267
48.0042
59.0023
44.1822
51.9603
44.0404
48.8939
45.3582
48.4812
47.6244
49.8946
50.5616
52.3166
53.1927
54.0814
54.4138
43.7821
94.7321
97.5872
81.8333
54.404
40.3595
37.3815
34.5293
33.3234
31.0727
29.791
28.4419
27.7595
27.1895
26.9215
26.6986
26.5994
26.3551
26.0605
25.0004
41.0839
47.0708
83.084
39.2215
37.5992
43.0477
100.735
34.5262
81.7491
64.6523
36.6271
33.1557
101.688
75.9327
88.7605
48.3995
45.334
43.6145
105.485
43.171
40.9907
67.5986
44.42
42.7172
103.822
78.3372
40.8352
40.9447
282.377
296.958
260.567
78.9159
66.8799
79.9391
66.7343
281.75
259.051
252.443
65.35
61.0187
63.9214
58.1077
265.142
251.197
244.271
60.5168
58.2395
56.989
55.4152
228.362
239.35
198.451
57.8715
55.8625
55.5102
56.569
197.239
181.03
182.839
55.3941
52.2546
56.5051
49.2736
175.518
192.847
192.061
51.8234
48.9895
46.5177
41.8879
152.191
180.838
157.498
46.9814
40.6132
40.553
35.9252
136.718
153.463
132.613
38.9005
34.6605
34.6997
30.955
234.068
325.745
259.437
83.8365
69.8305
101.376
90.969
227.98
245.439
214.159
66.7437
59.5169
87.5263
77.087
222.901
209.031
209.813
57.7254
54.6959
74.2942
68.88
189.982
213.262
227.351
54.4559
54.569
68.1701
65.0606
172.691
226.254
174.293
54.5863
47.9995
64.0808
55.9353
184.485
165.184
154.558
44.6464
39.4322
49.3958
38.1115
157.521
152.058
149.707
38.2843
34.61
36.6405
33.9426
132.476
148.993
129.632
33.6367
30.6987
33.4068
30.9056
272.63
354.568
290.967
102.977
91.7027
97.3876
86.6034
228.47
285.566
264.571
88.1424
77.9244
84.3612
80.7561
224.406
254.163
231.171
75.3172
70.1386
79.8922
70.1212
235.65
233.308
252.439
69.9592
69.6885
65.8218
62.1747
193.937
251.345
229.683
68.647
61.7156
62.42
57.8883
152.845
217.557
186.842
55.5889
39.7569
55.3808
49.032
143.775
177.661
145.349
37.7104
34.4953
47.8554
41.6947
127.268
141.002
127.45
33.9179
31.0229
38.8061
31.6863
291.901
390.752
315.899
97.1648
86.6588
105.604
90.3856
265.944
303.82
265.644
84.7938
81.1826
85.6562
78.4012
223.522
249.429
206.975
80.5702
70.6849
76.5852
63.9455
244.451
203.684
214.454
65.1173
57.9067
57.7384
48.5401
230.701
214.633
209.881
57.8013
54.8153
47.844
47.1975
198.051
207.147
186.684
52.9279
49.6277
46.9406
45.9129
148.107
171.179
144.58
49.2719
44.9033
45.8923
42.6084
126.964
144.855
146.798
40.9186
31.974
39.6626
32.3579
60.2109
67.3524
59.0533
52.7012
48.7525
52.4536
47.8114
54.94
56.8746
52.3589
47.7947
44.9155
46.5674
44.0318
52.1514
51.4879
50.28
44.2038
42.3043
43.5504
42.8704
50.3745
50.3382
51.4076
41.9847
40.6775
42.8817
42.8956
47.1498
51.4147
44.778
40.1413
37.1777
42.3595
36.1356
42.5542
41.973
36.9635
36.1522
32.3778
34.1482
30.1389
35.2523
35.6451
31.7521
31.1871
28.3483
29.1916
26.9798
31.3907
30.7878
28.5986
27.7502
26.3467
26.497
25.4357
62.0731
85.8557
81.1657
54.0971
49.4676
63.6443
59.9778
53.871
78.367
69.7385
48.0868
44.9651
58.533
54.4465
49.9302
67.405
62.7784
44.2283
42.9491
53.2927
50.6368
50.0419
62.0222
58.3889
42.8406
42.7832
49.6829
59.1511
43.7851
57.0036
49.0463
42.333
35.9562
58.5663
50.8967
35.0749
44.1825
35.1307
33.7749
29.6898
47.1212
38.9174
30.8049
33.8215
31.3653
28.8161
26.839
36.9481
32.2652
28.3697
30.7921
29.0211
26.4039
25.4214
30.9296
28.01
81.8545
80.9725
76.5559
64.2936
60.552
60.3301
57.4023
70.6729
75.1681
73.2271
59.1714
55.5564
56.8564
56.1336
64.5034
72.554
64.4138
54.662
52.9826
55.7468
52.3608
63.0794
61.1958
57.8939
52.1049
62.1165
51.1292
47.8466
53.1431
57.4002
51.2582
61.23
53.0231
46.5643
43.2325
36.9958
49.093
44.2716
50.0651
43.5705
42.604
40.6653
32.348
43.3836
38.1763
41.3397
35.5931
39.7644
35.3389
29.3047
35.7249
29.9467
33.9467
29.5297
33.6422
29.3829
76.4657
81.505
76.0784
60.0011
57.0346
62.5349
56.7147
73.6278
73.5738
68.3564
56.5462
56.0679
54.953
51.2146
64.5774
66.8278
56.3855
55.7717
51.295
49.6565
44.3659
53.97
51.8729
44.5935
49.4613
45.2144
42.3177
38.6519
48.8868
43.947
42.8749
43.9154
40.7171
38.0428
36.6576
44.7028
42.6177
41.9792
40.1886
39.2511
36.4634
35.85
40.424
41.9883
38.851
38.8496
34.7115
35.6065
32.3844
30.0024
36.2043
30.4007
32.8104
28.6612
31.1273
28.4765
47.0459
50.0255
46.0096
48.9656
45.4637
47.5666
44.6367
43.1829
44.8974
42.6254
44.2821
40.8889
43.703
41.501
40.5066
42.175
41.4383
40.008
37.9324
40.9376
39.4726
38.6832
41.3803
40.873
37.4461
35.4721
39.0085
37.0226
35.1498
40.0452
34.4185
34.8016
32.5701
35.9733
32.5883
30.8354
32.7438
29.2993
31.8932
29.984
31.7071
29.9552
27.6019
28.5005
26.7023
29.532
28.5375
29.5769
28.8
26.0143
26.3211
25.4878
28.3822
27.8615
28.6577
28.374
47.2191
58.6415
55.4831
47.3971
44.8085
51.1045
48.4342
43.3614
54.2783
51.0408
43.9348
41.8737
47.6902
45.6651
41.5936
50.1092
47.8492
41.3054
39.7275
44.9829
42.6667
41.809
41.385
42.0971
40.3205
42.3076
40.1988
40.9783
40.5869
38.7883
42.3939
38.6928
40.9992
37.1412
42.2224
29.1769
57.5401
43.7678
32.1911
30.3198
65.3155
45.8597
26.728
40.6298
33.7322
29.9202
29.0861
42.2888
35.4311
25.5245
31.9896
28.5681
28.917
28.5498
33.9474
31.5553
56.0201
56.3996
53.6217
51.6739
48.9195
51.0786
48.3301
52.1344
53.0962
52.3274
48.2526
46.5743
47.7567
46.4889
50.0629
51.9716
49.4528
46.0312
43.9333
46.0773
44.1657
54.7159
70.3959
50.082
52.6444
52.4944
285.18
47.6224
81.6314
80.2141
63.1803
225.261
63.598
207.844
78.2665
50.711
42.463
40.7491
70.5316
50.2748
40.8723
39.3585
37.9347
39.7143
35.3068
46.0488
37.9829
38.4097
35.2442
30.2815
33.7326
29.7132
36.2043
32.7631
34.2655
31.9377
53.2818
58.9233
53.251
51.3683
48.0868
54.7159
48.1726
52.0776
51.3211
47.3798
47.3866
45.906
45.9255
42.1273
48.2586
46.1945
41.921
45.4422
43.2833
41.2909
39.0727
42.9568
40.4841
37.4737
42.3279
39.5066
38.4337
36.6824
39.5515
36.9325
35.6641
38.8768
38.0846
36.3046
35.4007
38.5163
35.4916
34.783
37.9887
37.1678
35.2252
34.3428
33.9979
34.4822
31.5983
36.5337
33.9263
34.0059
32.3904
28.9232
30.6561
28.6354
33.1187
31.398
31.9968
30.9977
46.2997
48.2189
45.7022
56.6664
53.7251
55.3668
55.4035
41.391
44.8147
42.5136
52.0458
48.9289
54.7384
52.6044
38.4348
41.8759
40.0211
48.5376
47.3799
51.9977
49.3665
35.8585
39.3918
37.1162
46.7267
45.8534
48.423
46.5176
33.3476
36.1553
33.4206
45.806
45.6985
46.2371
46.3478
31.298
32.7857
31.722
45.4841
45.3822
46.9298
48.0894
30.3611
31.5237
31.0942
45.372
45.4311
48.2327
48.1442
29.7553
31.0244
30.6601
45.3639
44.9685
48.0477
47.5372
45.6418
50.3846
48.2622
53.6032
54.8887
54.1493
55.738
42.8523
47.6607
45.8411
54.7098
53.2244
55.8805
55.1139
40.262
45.136
42.427
52.6129
49.3634
54.1752
50.3291
37.5562
42.1993
64.9048
48.3342
46.1696
48.9675
49.3707
33.8756
66.1172
57.8647
45.7922
45.5683
49.6472
48.8128
32.0396
53.2372
43.0807
46.1652
48.3879
48.5193
50.5846
31.3928
40.7759
36.1395
48.6696
48.601
50.8595
50.2415
30.8402
35.1082
33.189
48.4433
47.7198
49.8118
48.4563
48.7979
50.9204
48.6261
55.1781
56.4627
56.2091
56.9965
46.6704
48.0692
46.6118
56.5506
55.7018
56.8108
55.5173
43.5053
46.1416
44.0566
54.7872
51.0101
55.0931
52.409
63.8454
43.0481
40.8693
49.6566
49.8108
51.4392
49.6941
58.3724
40.6763
40.5642
50.1122
49.328
49.523
49.3664
45.552
40.4279
39.254
49.0289
51.0369
49.6163
51.2997
37.8034
38.5466
36.1965
51.2923
50.5994
51.3493
50.4785
34.0744
35.4722
33.484
50.1469
48.6822
50.0518
48.5781
48.3627
53.991
47.8389
56.3826
56.4098
57.5859
51.8717
45.97
45.6274
42.0104
56.0051
54.6111
50.0714
48.3707
43.3893
41.3982
39.7519
54.3009
52.479
48.8158
49.1151
39.9021
39.2216
37.7702
51.666
50.2664
48.8376
48.7097
38.6051
37.4741
36.7624
50.1423
50.1027
49.0994
49.5906
37.7584
36.5786
35.7211
50.3865
51.2876
49.4793
49.0953
35.2776
35.4121
34.1044
51.2147
50.2402
49.0484
48.2896
33.0977
33.7549
32.5597
49.8297
48.4351
47.8193
46.1237
57.8131
59.844
60.8358
83.1171
78.537
82.1895
85.8106
53.6233
60.2756
58.3936
76.3573
74.4649
84.8451
82.773
52.8506
57.9133
55.897
75.7467
74.9406
82.4451
84.3805
52.0593
55.2018
54.4022
74.1375
75.4695
85.0975
87.6844
52.3832
54.53
55.44
76.485
77.1773
88.3217
89.0693
52.3825
55.778
56.5885
77.3739
78.1959
88.6494
86.2965
52.7536
56.7487
56.6042
78.8749
78.7447
85.7414
84.8137
51.8687
56.4993
55.3865
79.0941
75.9739
84.6664
83.0926
60.3788
58.0037
61.0855
81.5212
86.5925
82.4488
89.0329
59.1717
61.4697
61.076
86.0581
84.4034
88.8524
88.5434
56.0163
60.3178
56.9073
84.4399
87.9479
89.5993
96.8688
53.9581
55.6615
55.0825
89.1389
92.0444
99.1639
103.103
55.0753
55.4595
55.912
92.6894
93.2807
103.916
103.49
57.2514
56.5136
59.4121
92.6368
88.8821
101.788
94.9921
57.2323
59.7596
58.9254
87.6265
85.8502
92.5047
88.3207
55.5942
58.4178
56.2106
85.5583
82.7754
87.6919
84.9162
61.8321
60.7244
62.3939
86.2985
90.6443
90.3436
92.6969
61.588
62.2893
61.252
90.0901
89.358
91.4427
89.5037
57.5283
60.9276
58.9457
90.3679
97.7723
89.5096
93.348
55.7409
58.2379
57.4323
100.14
103.856
94.6723
96.7469
56.3912
57.5117
57.9944
104.606
103.991
97.223
97.3957
59.6911
58.4671
59.3527
102.129
95.3029
96.5114
92.0513
59.1594
59.4311
58.5884
92.8227
88.6042
90.7258
88.6601
56.353
58.1651
56.0878
87.9706
84.4534
88.2642
86.1568
61.6625
61.2557
55.5307
94.8082
92.8802
90.4606
84.474
60.2588
53.7916
53.1452
91.0414
89.0188
81.1718
83.7635
58.9422
53.9944
54.6551
88.5033
90.6905
82.2895
81.7693
57.9826
54.412
54.7652
91.5537
93.2799
80.6777
83.0281
58.5182
55.3546
55.9219
93.6884
93.9335
82.7489
83.5657
59.0581
55.8012
55.6849
93.3491
90.3148
82.9807
84.7999
58.1858
55.7576
55.2354
89.7657
88.4253
84.591
84.8617
55.8233
54.7289
52.6283
88.1213
85.8339
84.0842
82.775
43.131
41.3311
42.9076
39.627
42.9473
40.0503
42.9906
57.5241
44.4074
63.0384
50.437
47.6933
43.6816
212.036
72.6655
54.4256
80.2881
242.259
53.7736
71.4748
266.615
41.0087
39.5356
38.7676
39.6447
39.2783
40.1135
39.8709
42.3007
38.3937
38.2894
40.443
38.985
42.1453
40.5152
57.8618
49.8483
41.2068
64.523
42.6058
215.423
46.2016
72.9363
236.505
56.8848
90.5572
72.0946
263.766
54.5662
38.6477
36.643
36.4004
33.5969
38.8183
35.3431
36.2933
62.8159
53.4326
79.104
225.488
51.3916
67.5533
209.53
58.8199
44.2452
74.3376
97.924
48.575
49.6181
140.495
39.8414
37.3883
35.4581
39.8051
36.0123
41.3381
38.6783
38.2116
33.1243
34.2681
35.9263
34.5362
36.1759
37.4244
64.3157
217.967
56.231
100.794
68.5154
202.215
54.7763
60.0098
101.836
47.3968
92.8859
51.0212
138.34
52.3972
63.7821
88.6846
60.9369
245.723
57.129
266.115
71.9274
46.8546
49.3546
47.334
46.0511
49.0379
46.824
45.0119
47.4835
49.5826
46.2897
43.3922
49.1585
48.8838
44.073
52.8098
51.8619
75.1816
43.9669
270.203
45.4671
47.2485
63.1584
240.285
100.785
59.8264
262.973
72.2982
53.87
44.9013
44.2399
43.555
42.1842
44.8231
43.2274
43.4032
45.7201
41.9226
45.2139
41.4088
47.4706
42.4029
43.9026
81.7992
78.8208
62.32
119.93
63.436
183.085
81.0013
51.2274
49.8031
43.6473
42.8886
49.8414
50.1337
42.5881
51.8806
49.6039
43.0791
42.4014
49.7639
52.0811
42.4565
81.7083
218.174
99.442
64.1884
199.069
78.866
66.1432
81.5416
120.264
94.3439
65.6671
166.868
80.611
66.4828
50.4567
41.688
46.5258
40.8332
49.0896
41.6416
47.6124
51.2037
41.7722
48.1996
40.9269
51.4023
41.7111
48.1635
175.331
200.649
188.325
109.855
90.1821
105.602
87.5648
160.416
182.801
177.747
81.3078
74.6482
79.3368
74.4928
146.538
170.938
163.438
70.3173
65.3147
70.7529
67.5227
126.603
153.266
142.957
63.1559
61.4463
64.6558
63.0329
106.85
134.212
127.131
60.5262
58.4689
62.1633
61.7388
99.9893
116.869
107.212
56.0385
52.4072
61.2992
59.2003
99.7963
101.306
99.0132
49.7143
47.3936
53.6647
48.041
95.0151
97.712
89.7263
46.8563
43.4442
45.4081
36.6037
197.866
204.736
190.449
114.71
92.1818
115.73
95.7451
139.907
291.213
318.79
171.418
135.658
170.307
294.917
106.23
284.403
285.093
104.444
101.654
109.38
281.598
101.84
275.521
277.019
99.0132
98.8159
102.201
276.084
99.2127
253.848
266.402
96.1287
94.8322
100.19
261.024
89.1203
205.912
212.992
86.8602
83.909
93.9294
202.598
80.3483
191.947
200.351
82.132
82.5308
81.1229
199.855
73.4077
160.851
175.915
79.6282
77.841
76.7685
166.074
61.6955
150.43
150.277
70.3432
70.1871
64.3777
148.062
87.0637
94.2966
80.4924
39.0361
36.7206
35.4282
31.1008
178.342
213.334
194.431
115.628
100.753
122.783
112.149
144.523
251.616
284.1
159.986
134.83
164.072
254.192
107.176
228.899
220.407
104.097
99.1775
114.391
214.441
90.8843
227.787
208.73
90.4701
88.8593
92.7157
209.395
86.0646
215.32
212.185
87.4895
87.6253
86.3792
211.055
85.8102
168.268
181.805
85.6301
81.1121
86.6483
169.13
67.0454
186.79
170.409
69.7938
69.2131
69.7419
175.245
62.003
168.305
169.385
66.4712
64.6135
63.6437
164.507
56.5633
150.955
154.002
58.5621
57.0826
57.3983
151.061
78.9567
91.3439
77.8031
34.8416
30.413
34.6606
29.2906
211.714
233.732
214.578
133.098
114.791
130.888
111.486
169.899
313.047
349.266
193.197
169.84
193.72
314.018
123.317
249.478
267.296
130.449
123.088
130.069
258.213
103.852
220.715
230.76
107.832
103.638
108.945
229.393
99.0695
228.202
237.576
102.066
102.884
97.9068
239.646
105.154
231.879
236.888
104.156
108.881
103.926
234
95.1829
163.173
190.538
101.456
85.0657
102.856
172.482
60.222
145.581
150.892
62.6403
60.2573
63.8365
146.898
54.0972
142.248
140.214
55.5869
54.7388
55.6203
138.871
74.284
88.4576
81.3423
33.5689
26.7371
33.2946
26.7889
219.983
249.996
226.791
131.166
111.781
132.98
121.47
169.468
324.601
362.678
196.445
168.815
196.758
326.514
123.968
279.264
282.626
129.041
123.565
130.068
274.842
111.538
240.499
252.341
112.673
109.335
113.226
231.649
83.7043
229.666
212.863
90.6363
86.7776
88.3688
219.181
85.4739
242.904
234.434
88.1172
90.5582
83.5698
233.815
83.5588
213.907
222.727
87.7654
86.5402
84.6906
216.077
81.4695
172.358
189.062
82.2515
80.6747
82.8613
173.371
58.9081
142.303
146.819
64.5103
58.0226
64.8791
146.536
87.6974
106.977
102.042
34.211
26.2274
35.5061
30.7903
187.413
215.606
187.859
123.548
102.667
119.47
102.9
158.801
172.536
158.017
88.9869
83.4782
91.281
86.763
129.707
143.741
128.567
77.5469
69.7076
79.6275
72.4918
121.503
118.848
112.814
60.7046
54.5587
63.4538
56.6828
118.315
108.512
102.128
51.875
50.5847
51.0474
46.6519
104.339
96.2987
91.6334
48.3746
46.915
43.1894
42.1693
96.4504
89.6707