/*--------------------------------*- C++ -*----------------------------------*\
  =========                 |
  \\      /  F ield         | OpenFOAM: The Open Source CFD Toolbox
   \\    /   O peration     | Website:  https://openfoam.org
    \\  /    A nd           | Version:  10
     \\/     M anipulation  |
\*---------------------------------------------------------------------------*/
FoamFile
{
    format      ascii;
    class       volScalarField;
    location    "3.9";
    object      p;
}
// * * * * * * * * * * * * * * * * * * * * * * * * * * * * * * * * * * * * * //

dimensions      [0 2 -2 0 0 0 0];

internalField   nonuniform List<scalar> 
12920
(
1.75705e+06
1.63666e+06
1.37614e+06
1.27421e+06
1.08705e+06
985432
858689
768392
672701
595708
519599
454034
391439
334934
281156
231399
183292
138235
96049.6
48140.5
1.83487e+06
1.62536e+06
1.39405e+06
1.28308e+06
1.07224e+06
978477
845642
758321
663361
588217
513441
448948
387046
331208
278090
228915
181374
136750
95116.7
47592.5
1.68963e+06
1.57372e+06
1.33815e+06
1.22553e+06
1.05287e+06
953181
827004
740315
647486
574140
501375
439093
379002
324746
272768
224510
177772
133980
93340.7
46859.4
2.01463e+06
1.71703e+06
1.32631e+06
1.20804e+06
994494
909268
781455
706239
619290
551795
483606
424193
366773
314673
264623
218090
172956
130374
91019.5
45900
1.53695e+06
1.43381e+06
1.18723e+06
1.08425e+06
929080
855591
741383
671790
590494
526620
461970
406438
352090
302287
254527
210217
166857
125895
88171.5
44642.4
1.24533e+06
1.24772e+06
1.05681e+06
980797
844075
789736
688162
627398
554882
496152
436934
384397
333870
287124
242306
200488
159480
120724
85185.4
43463.6
555108
888782
887752
854064
757555
720415
635343
582548
517341
464454
409883
361933
314319
270685
228481
189573
151269
115091
81673.9
42256.2
520896
868368
779735
764519
680049
651930
609069
555730
499738
447810
398144
352094
307797
265831
212718
177039
142079
108747
78067.4
40955.6
488186
805478
687506
675506
604476
607049
568419
518001
467649
420353
375456
333406
293085
253714
206924
163477
132409
102454
74461.9
39698.7
747164
751797
624664
602436
535824
542026
508859
463928
421010
380043
341448
305004
268923
233422
191716
151490
123492
96293.6
70941.4
38446.3
755255
727027
553673
531306
466545
474036
447218
409123
373558
339093
306179
275156
244265
213228
176069
139724
114904
90361.2
67468.9
37160.9
755965
665202
475505
456464
396261
406375
384713
353979
325171
298274
271293
245329
219316
193276
161238
128655
106750
84650.7
64106.6
35938.7
434818
531237
374533
362059
317498
309670
306211
288019
268995
250506
230847
210968
190309
169285
138646
119288
99142.9
79305.9
60910.4
34798.3
448828
355861
265881
254926
232259
235052
223734
220362
209147
200900
187499
175141
159558
144135
126813
110019
92047.9
74368.4
57731.6
33578.4
-92368.4
130826
98466.6
136625
141027
161557
163609
170605
168892
167358
160100
152420
141323
129399
115439
101157
85119.1
69447.4
54900
32619
-273630
-83517.8
-50487.6
18159.8
52876.2
89711.7
105335
124625
130100
136741
134573
132041
124457
116185
104692
92922.8
79085
65420.3
52591.4
31951.6
-410146
-221633
-174738
-78105.2
-24788.8
29192.1
57271.7
85841.4
98543.9
110924
113637
115018
110327
104713
95754.5
86075.8
74125.1
62012.4
50613.7
31247.1
-778331
-392635
-272813
-150560
-87453.3
-19817.2
16645.9
53152.5
71460.1
89013.8
95606.3
100494
98747.1
95733.1
88730.2
80783.5
70242.1
59427.3
49060.1
30705.7
-798343
-474459
-332616
-205868
-124844
-50977.4
-7144.2
33046.9
55228.2
75419.9
84182.3
91218
91333.9
89763.6
83901.8
77011.3
67401.8
57553.7
47858
30318.7
-520600
-466417
-352811
-226142
-143464
-67151.2
-21665.6
21293.8
45768.1
67891.1
78117.6
86598.2
87492.3
86698.7
81431.4
75197.7
66070.9
56678.7
47300.9
30529.9
1.74728e+06
1.63187e+06
1.37256e+06
1.27386e+06
1.087e+06
985475
858461
768362
672539
595713
519608
454109
391421
334897
281111
231359
183257
138156
95953.3
47996.6
1.80843e+06
1.63489e+06
1.39112e+06
1.28175e+06
1.07209e+06
978537
845456
758232
663009
588089
513348
448949
387011
331183
278053
228890
181351
136668
95013.4
47468.8
1.65201e+06
1.56763e+06
1.34127e+06
1.22592e+06
1.05337e+06
953125
826794
740373
647418
574158
501262
439065
378981
324670
272666
224413
177746
133883
93196.4
46590.9
1.98142e+06
1.70944e+06
1.32083e+06
1.20828e+06
994908
909644
781060
706242
619053
551614
483046
424042
366686
314601
264544
218003
172917
130253
90869.8
45600.7
1.53549e+06
1.44091e+06
1.18709e+06
1.08186e+06
929867
856119
741309
672011
590399
526886
461960
406001
351636
302136
254421
210149
166767
125776
88035.3
44412.9
1.26919e+06
1.25477e+06
1.05671e+06
978549
845136
790324
687816
627639
554792
496191
436886
384425
333524
287008
242242
200394
159420
120644
85011.3
43222.1
674860
904883
888217
853230
758457
721275
635239
582772
517239
464470
409809
361903
314385
270542
228357
189458
151217
114974
81531.1
42045.5
733638
859518
784886
761890
680712
652438
608971
555842
499612
447774
398117
352104
307709
265661
212315
176806
141890
108649
77964.3
40787.6
667409
747147
705987
675228
605499
607631
568986
518130
467686
420340
375563
333535
293132
253570
206546
163393
132464
102366
74351.6
39549.7
644320
733871
621332
601357
535980
542366
509346
463932
420927
379931
341491
304928
268854
233267
191286
151314
123491
96199.9
70778.1
38248.8
741529
701968
551003
530809
466371
474207
447684
409166
373482
338910
306031
275054
244154
213242
175661
139687
114910
90290.5
67343.7
36977.8
676716
669039
473929
456373
396238
406771
385183
353738
325089
298107
271161
245268
219108
193215
160731
128682
106754
84583.7
64011
35822.3
429481
525721
378548
362104
317975
309907
306276
287774
268776
250235
230724
211082
190463
169243
138614
119277
99130.8
79237.5
60828.9
34698.2
362165
338600
263644
254454
232357
235236
223575
220234
209132
200718
187400
175020
159557
144158
126776
109970
92034.9
74313.6
57670.7
33546.2
114586
140614
100239
136481
141110
161776
163535
170622
168885
167267
160107
152404
141381
129387
115376
101155
85158.1
69404.1
54862.3
32573.6
-319968
-88788.8
-51193.2
17936
52777
89846.8
105322
124617
130208
136742
134608
132087
124490
116202
104707
92897.5
79100.2
65369.6
52535.2
31846.2
-519708
-240107
-174183
-78830.4
-25186.9
29252.6
57264.6
85793.4
98671
111007
113695
115062
110345
104722
95752.1
86042.8
74135.3
61952.9
50542.6
31060.5
-719245
-370960
-275871
-150876
-87958.5
-19619.9
16496.6
53036.3
71519.5
89085
95615
100549
98804.5
95761.7
88731.3
80780.9
70251.6
59321
48928.2
30578.2
-767897
-471182
-332376
-204761
-125100
-51346.8
-7683.71
32801.9
55163
75419.7
84191.9
91244.2
91316.3
89753
83887.7
77012.9
67371.7
57479.2
47777.1
30215.1
-748262
-490637
-357443
-226877
-144489
-67943.3
-21962
20967.7
45690.8
67799.7
78126.1
86570.5
87479.7
86693.3
81419.9
75194.7
66060.4
56660
47276.2
30511.2
1.69216e+06
1.61386e+06
1.37808e+06
1.27389e+06
1.08773e+06
985734
858377
768426
672411
595751
519606
454160
391334
334826
281030
231312
183196
138029
95763.3
47716.3
1.80417e+06
1.64381e+06
1.38997e+06
1.27961e+06
1.07249e+06
978543
845142
758216
662677
588057
513316
449052
387047
331218
278035
228880
181323
136434
94667.4
46860.7
1.61835e+06
1.56867e+06
1.3423e+06
1.22673e+06
1.0538e+06
953365
826759
740562
647305
574258
501185
439058
378980
324662
272586
224369
177703
133702
92802.8
45945.3
2.03651e+06
1.75024e+06
1.32727e+06
1.20884e+06
996244
910106
781070
706480
618775
551581
482833
423884
366532
314561
264444
217911
172792
130025
90446.6
44829.9
1.67968e+06
1.45237e+06
1.18749e+06
1.08157e+06
932491
856853
741409
672385
590239
526996
461788
406003
351384
301919
254243
209969
166639
125578
87690.6
43831.2
1.14447e+06
1.26822e+06
1.05645e+06
977917
847886
790775
687612
628093
554595
496309
436782
384339
333476
286753
241935
200242
159335
120434
84651.2
42637.7
766701
940457
890661
854869
760031
722660
635054
583049
517002
464446
409653
361812
314327
270594
228005
189086
151013
114770
81216.4
41397.8
797485
851216
788602
760696
681708
653544
609143
555750
499395
447684
397991
351971
307507
265545
212285
176672
141820
108520
77677.8
40241.9
582313
700905
693946
673036
605226
608814
569670
518339
467711
420401
375628
333537
292942
253235
205942
163316
132469
102215
74069.7
39050.4
566260
723412
625498
599116
536271
542940
509953
463956
420826
379779
341446
304682
268740
233120
190877
151157
123463
95983.7
70444.2
37748.3
713243
702685
552531
531369
466288
474606
448442
409222
373253
337237
305354
275021
244139
213126
175255
139571
114905
90119.3
67071.3
36511.7
703977
643470
477507
456504
396607
407226
386030
353643
324995
297758
270955
245245
219147
193056
160189
128642
106798
84483.6
63777.3
35450.5
561208
530398
384170
362480
318562
310410
306512
287668
268494
249890
230552
211128
190595
169175
138325
119268
99162.1
79161.6
60630.4
34406.3
433320
340740
264013
254951
232894
235635
223637
220128
209005
200593
187280
174790
159565
144036
126706
109964
92042.6
74206.7
57531.2
33292.4
56714.9
149536
97709.5
136092
141308
162052
163642
170756
168807
167229
160079
152385
141293
129379
115354
101191
85287.1
69365.2
54726.2
32317.5
-371426
-88592.6
-50511.2
18644.6
52665.7
89823.4
105302
124681
130243
136752
134622
132123
124619
116260
104819
92983.5
79152.4
65299
52344.5
31430.7
-569006
-248005
-172382
-78081.8
-25077.9
29220.1
57223.6
85840.5
98773.9
111069
113727
115063
110417
104804
95780.4
86051.6
74144.8
61860.5
50310.7
30652.4
-701289
-373178
-276185
-151421
-87676
-19627.9
16355
53006.3
71577.1
89143
95674
100676
98899.9
95827.6
88741.5
80793.8
70238.6
59236.4
48710.7
30248.9
-648612
-456035
-331521
-204198
-124794
-51555.9
-7932.55
32696.7
55134.9
75457.3
84265.9
91313.8
91329
89765.4
83886.7
77032.5
67367.8
57425.3
47702.9
30017.5
-819302
-506318
-359233
-227701
-144754
-67996.3
-22191.6
20878.9
45614.7
67776.4
78116.6
86547.6
87464.7
86685.5
81407.3
75182.5
66041.6
56619.9
47244.9
30471.5
1.76752e+06
1.60467e+06
1.38299e+06
1.27499e+06
1.08863e+06
986021
858134
768452
672148
595730
519552
454196
391285
334762
280943
231219
183119
137870
95562.4
47421.2
1.81172e+06
1.62962e+06
1.39377e+06
1.27604e+06
1.07233e+06
978871
844842
758105
662229
588038
513209
449124
387040
331247
277966
228826
181254
136273
94260.5
45900.1
1.66519e+06
1.58486e+06
1.3436e+06
1.2275e+06
1.05417e+06
953368
827002
740750
646836
574301
500976
439002
378871
324565
272410
224206
177573
133491
92229.3
44343.9
2.11122e+06
1.74058e+06
1.3218e+06
1.20655e+06
997510
910928
781407
706782
618672
551665
482476
423709
366178
314277
264147
217687
172627
129802
89823.6
43251.7
1.65366e+06
1.46486e+06
1.1861e+06
1.08119e+06
934678
857456
742148
672999
590243
527268
461562
405930
351195
301717
253923
209670
166429
125332
87143.4
42327.2
1.27961e+06
1.2854e+06
1.05393e+06
977463
851092
790225
688593
628676
554577
496596
436588
384294
333323
286611
241485
199812
159091
120224
84126.3
41215.7
897867
987512
893098
855575
762977
723820
635216
583480
516976
464583
409445
361730
314253
270782
227934
188886
150886
114569
80668.8
40067.7
667110
843158
790417
759468
683819
654629
608975
555653
499266
447596
397823
351747
307306
265383
212303
176587
141753
108371
77209.5
38964.2
569319
738695
702706
672818
607242
610121
569755
518526
467783
420540
375595
333419
292739
253085
205689
163265
132463
102076
73574.9
37842
478853
706051
625864
597169
537203
543707
510087
464018
420844
379807
341263
304461
268634
233006
190770
151061
123403
95832.3
69946.6
36640.1
731015
704196
554582
530984
466121
474977
448705
409264
373111
337488
305226
274941
244129
212973
175004
139529
114865
89963.2
66571.3
35465.2
616604
623563
472509
456319
396004
407324
386321
353741
324949
297582
270912
245258
219321
192905
159939
128684
106837
84372.4
63365
34387.6
677464
529060
390005
363844
318994
310857
306834
287572
268315
249666
230376
210860
190402
168937
138214
119296
99202
79062.7
60264.4
33368.8
320869
317711
259456
254029
233200
235903
223482
219953
208869
200468
187173
174639
159375
143889
126656
109965
92073.3
74114.1
57238
32472.2
-85468.3
105800
96340.3
134423
141380
162186
163663
170841
168772
167228
160067
152372
141264
129363
115354
101166
85405.1
69343.1
54430.1
31457.8
-294978
-85416.3
-51872.7
19179.6
52656.3
89879.9
105349
124740
130289
136781
134651
132170
124621
116265
104928
93080.4
79224.2
65208.1
52008.7
30585.5
-422742
-237831
-168497
-77453.2
-25169.6
29141.9
57169
85873.1
98857.6
111131
113762
115084
110511
104918
95888.2
86113.5
74151.7
61730.2
49902.3
29908.7
-744556
-362076
-278523
-151238
-87944.6
-19616.5
16271.7
53007
71650.1
89212.5
95752.1
100756
99001.6
95911.8
88773
80818.7
70226.7
59155.9
48414
29636.7
-708956
-442176
-331005
-203891
-125000
-51778.7
-8123.78
32630.4
55172.7
75536
84358
91443.1
91406.4
89829.6
83902
77056.3
67408.6
57395
47631.8
29841.4
-869189
-518872
-359565
-227160
-145450
-68430.5
-22329.1
20780.8
45608.8
67808.4
78159.3
86580.7
87476.1
86705.8
81412.3
75180.8
66042.7
56615
47225.8
30416.8
1.61945e+06
1.58629e+06
1.38536e+06
1.27574e+06
1.08898e+06
986359
857943
768484
671991
595768
519503
454224
391239
334723
280838
231128
183032
137760
95446.1
47134.7
1.87367e+06
1.66733e+06
1.40179e+06
1.27572e+06
1.07304e+06
979061
844898
758175
661340
588046
513048
449171
386972
331218
277856
228725
181134
136118
94060.9
44787.1
1.66026e+06
1.59236e+06
1.34515e+06
1.22739e+06
1.05523e+06
952795
827328
740966
646187
574389
500486
438976
378506
324356
271909
223886
177418
133324
91718.8
42667.5
2.23684e+06
1.76157e+06
1.3233e+06
1.20731e+06
1.00007e+06
911054
783920
706797
618723
551851
481783
423556
365843
314031
263818
217452
172475
129623
89320.7
41593.5
1.61733e+06
1.47167e+06
1.18358e+06
1.08183e+06
936414
856656
745180
673471
590408
527637
461210
405836
350925
301595
253725
209416
166263
125188
86678.4
40775.2
1.35577e+06
1.29831e+06
1.05641e+06
977337
851919
790522
691646
628817
554875
497067
436260
384262
333140
286514
241262
199559
158973
120066
83678.3
39771.6
1.11176e+06
1.01468e+06
894831
855789
765953
722781
637325
583509
517145
464783
409031
361618
314128
270784
227836
188689
150796
114433
80253.1
38730.1
656721
845221
790562
758548
685508
654900
608822
556030
499362
447673
397717
351518
307167
265232
212329
176498
141711
108259
76792.9
37707.4
531178
718612
698483
671130
610767
611165
569713
518675
467960
420671
375570
333329
292658
253061
205726
163217
132473
101983
73201.5
36669.6
561950
704644
621707
595251
538690
544463
509967
464129
420945
379873
341148
304423
268651
232949
190861
150979
123369
95737.3
69602.9
35532.1
735130
704485
558242
530778
465657
475331
448568
409351
373108
338470
305711
274762
244152
212847
174945
139459
114844
89854.9
66219.7
34431.3
561122
613954
478665
456718
395037
407340
386158
353871
324969
297549
271053
245308
219439
192829
160098
128687
106868
84279
63002.4
33405.5
743442
521782
393380
364697
319132
311215
307096
287534
268429
249579
230403
210753
190314
168882
138186
119314
99239.4
79000.5
59973.1
32406.9
275853
316183
259310
254121
233565
236217
223401
220021
208835
200507
187159
174644
159303
143861
126648
109979
92099.8
74048.4
57003.4
31522.7
-105925
103421
94258.6
133587
141397
162338
163652
170939
168763
167263
160074
152405
141267
129374
115377
101172
85433.6
69310.6
54238.4
30595.3
-340498
-91754.7
-54069.8
19605.6
52702.9
89975.8
105343
124813
130323
136836
134681
132214
124633
116292
104929
93111.3
79318.7
65182.3
51723.6
29844.4
-240944
-218666
-167586
-76446.6
-25058.4
29114.1
57146.9
85933.4
98921.7
111195
113796
115132
110577
104996
95937.5
86171.7
74195.2
61656.7
49631.8
29158.2
-596426
-356191
-277952
-151498
-87903.5
-19676.6
16283.3
53044.2
71709.5
89267.1
95777.9
100805
99029.4
95955.8
88804.9
80837.6
70243.3
59089.3
48196.1
28968.7
-703202
-446036
-331490
-203895
-125371
-51889.1
-8181.19
32640.1
55234.7
75592.2
84459.5
91537.1
91478.7
89894.4
83948.9
77095.9
67446.9
57369.6
47657
29757.3
-757110
-507729
-361110
-228068
-145731
-68571.8
-22377.8
20787.2
45647.2
67859.5
78207.8
86621.7
87510.7
86737.5
81434.1
75203.6
66067.7
56631
47227.8
30316
350836
347020
323480
379770
350761
346756
323240
313806
315077
290991
341320
313606
314890
290982
313425
307874
286468
337089
313191
307734
286379
284118
279470
259291
305128
284175
279414
259215
531874
524880
488707
568789
531911
525245
488721
481103
477388
443763
518045
481104
477367
443719
433040
432768
400647
467655
433037
432720
400584
387495
390259
359944
420327
387486
390160
359958
344789
350091
321781
375514
344842
350186
321775
303920
312331
284169
333482
303945
312300
284204
264263
275088
247787
293149
264240
275005
247638
224579
238613
211399
253633
224358
238453
211173
474849
463416
432584
509258
474871
463745
432597
431548
423006
394704
463928
431507
422993
394698
390055
385519
358321
420953
389996
385496
358226
350852
349417
323531
379967
350858
349327
323445
314129
315132
290921
341493
314105
315056
290837
277811
282808
258553
304967
277664
282601
258445
242211
250531
225979
268871
242086
250389
226112
206485
217999
193991
233327
206211
218140
193618
418330
401205
375659
447707
418368
401643
375650
382251
367712
344837
409150
382241
367645
344701
347596
337333
315625
373514
347544
337242
315561
314334
308377
286961
339010
314167
308290
286859
282963
279973
259470
306120
282772
279863
259354
252008
252774
232364
275125
251926
252676
232237
220803
225373
205072
244177
220929
225270
205004
189435
198237
177421
213264
189165
198100
177000
361561
335735
318077
385101
361477
335711
317952
332259
311087
295100
353814
332135
310925
294897
305103
288686
273873
325111
305035
288501
273762
278027
267759
251913
298175
277908
267566
251774
251695
245575
229515
271200
251734
245436
229462
226079
223394
207790
245285
225914
223302
207639
199793
201217
185275
219136
199839
201162
185169
173238
178565
161247
193253
172831
178524
160847
532033
525355
488749
569620
532236
525996
488857
481155
477385
443706
518267
481169
477461
443683
433064
432702
400561
467694
433108
432667
400513
387511
390129
359955
420368
387532
390066
359946
344894
350199
321753
375614
344932
350183
321625
303949
312266
284250
333557
303911
312133
284231
264216
275039
247543
293014
264056
274991
247416
224283
238365
211045
253326
223776
238212
210565
474887
463766
432598
509947
474928
464532
432612
431489
422985
394677
463946
431427
422962
394550
389963
385463
358141
420846
389849
385285
357625
350852
349231
323410
379823
350840
348040
323519
314068
315018
290771
341461
313883
315134
291272
277699
282541
258390
304750
277708
282576
258292
242046
250322
226132
268787
241998
250295
226189
206157
218164
193542
233148
205778
218137
193194
418383
401697
375647
448451
418449
402468
375646
382226
367615
344662
409211
382132
367560
344573
347461
337206
315515
373324
346945
337107
315290
314077
308232
286811
337645
313556
307982
286576
282657
279807
259331
305537
283584
279562
259296
251878
252662
232183
275049
251780
252616
232102
220927
225255
204958
244120
220927
225243
205001
189151
198048
176957
213158
188857
198064
176537
361418
335424
317807
385979
361298
336086
317757
332098
310842
294772
353636
332029
310771
294650
304977
288392
273654
325021
304735
288188
273395
277860
267416
251705
297848
277681
267106
251527
251734
245373
229473
271009
251752
245173
229527
225843
223309
207595
245250
225742
223290
207463
199819
201172
185127
219156
199741
201104
184808
172677
178513
160786
193080
172192
178248
160136
532338
525994
488894
569924
532540
526302
489001
481199
477491
443685
518470
481226
477573
443728
433143
432665
400503
467756
433255
432707
400549
387554
390052
359939
420500
387565
390086
359898
344932
350166
321571
375613
344898
350073
321405
303877
312079
284198
333460
303793
311922
284100
264009
274954
247386
292794
263962
274844
247301
223702
238173
210522
253119
223433
238067
210248
474944
464549
432618
510202
474993
464931
432634
431414
422958
394498
464001
431420
422957
394393
389802
385208
357341
420826
389799
385076
357079
359934
369966
369370
379736
359991
369941
369242
323876
332197
332734
341418
323897
332149
332724
277680
282505
258290
304504
277586
282369
258256
241987
250299
226186
268650
241940
250279
226104
205758
218097
193192
233034
205530
217972
192947
418467
402494
375651
448839
418510
402943
375691
382090
367566
344552
409253
381997
367624
344520
346714
337074
315195
373119
346451
337006
315053
318189
329911
327271
337229
319096
328917
326685
289141
297141
296456
303449
289195
295103
296263
251801
252587
232098
274975
251806
252487
232233
220917
225323
205001
244140
220845
225454
204951
188876
198040
176515
213014
188563
197928
176129
361284
335909
317689
386472
361318
336545
317758
332015
310734
294578
353712
332015
310807
294540
304652
288111
273278
324946
304496
288073
273054
277616
267010
251478
297598
277536
266804
251340
251824
245132
229547
270894
251757
245019
229584
225714
223342
207476
245261
225829
223419
207492
199741
201118
184727
219293
199691
201133
184597
172148
178168
160131
192940
171759
178035
159913
532606
526177
489035
569856
532715
526216
489161
481249
477602
443754
518617
481312
477725
443853
433301
432735
400590
467892
433424
432837
400694
387563
390120
359879
420626
387551
390196
359845
344872
350037
321360
375565
344828
349968
321297
303750
311882
284076
333346
303696
311827
284059
263934
274818
247281
292674
263940
274788
247261
223509
238038
210310
253065
223448
237986
210217
475010
464820
432637
510094
475087
464866
432665
431436
422962
394381
464092
431510
423007
394385
389846
385074
357326
420917
389939
385084
357645
350720
347737
323124
379861
350636
348739
322933
313563
314774
291061
341158
313504
314563
290178
277568
282288
258239
304413
277580
282094
258266
241926
250266
226079
268639
241905
250281
226019
205620
217936
193001
232956
205534
217848
192817
418520
402812
375710
448734
418562
402923
375780
381985
367651
344522
409321
381980
367743
344557
346657
336999
315054
373104
346944
337003
315049
313235
307747
286440
338437
313648
307752
286556
283477
279460
259217
305634
282443
279605
259307
251792
252479
232271
274737
251814
252544
232403
220814
225482
204929
244134
220744
225573
204887
188618
197893
176209
212870
188394
197811
176013
361341
336268
317716
386375
361434
336931
317821
332036
310804
294506
353836
332062
310922
294492
304473
288040
272999
324962
304429
288081
272907
277550
266771
251325
297553
277623
266708
251266
251749
245020
229632
271015
251785
245018
229670
225864
223449
207545
245284
225981
223472
207587
199670
201177
184637
219406
199640
201199
184662
171837
178032
160088
192838
171681
178003
159995
532755
526083
489199
569647
532607
526377
489270
481373
477776
443889
518590
481325
477901
443983
433486
432875
400723
467954
433432
432971
400818
387571
390217
359847
420707
387562
390307
359895
344822
349965
321300
375579
344745
350003
321305
303682
311829
284065
333294
303608
311825
284058
263931
274789
247262
292634
263858
274785
247262
223589
237981
210345
253064
223421
237981
210152
475120
464747
432684
510070
475210
464944
432764
431541
423035
394398
464253
431642
423173
394506
389960
385093
357686
421046
390054
385199
357813
350628
348778
322943
379948
350643
348883
323025
313511
314576
290192
341156
313534
314659
290278
277598
282122
258296
304439
277627
282231
258365
241904
250304
226008
268655
241898
250359
225982
205673
217827
192917
232937
205465
217779
192672
418586
402703
375808
448674
418687
402763
375849
381989
367778
344568
409482
382091
367863
344629
346979
337018
315049
373206
347101
337088
315115
313717
307753
286594
338577
313868
307821
286710
282447
279653
259357
305873
282541
279777
259496
251842
252590
232465
274843
251911
252736
232560
220730
225617
204885
244206
220704
225689
204900
188489
197797
176152
212807
188213
197778
175936
361474
336754
317775
386257
361567
337530
317992
332077
310932
294495
353965
332132
311189
294691
304424
288126
272905
325022
304477
288406
273016
277651
266718
251279
297599
277748
266848
251386
251811
245055
229717
271148
251903
245201
229798
226026
223502
207620
245397
226138
223606
207694
199645
201227
184707
219518
199675
201332
184768
171842
178025
160225
192818
171646
178101
160069
350676
360306
341707
350822
350719
360290
341697
349179
358368
340324
346837
349551
357854
341753
341189
332777
331793
325370
341220
332869
333484
359918
379732
369954
369305
369938
369213
359938
350643
350795
360265
341591
360276
341650
350632
349184
346713
358212
340356
357761
341773
349506
341140
325197
332612
331610
332797
333345
341101
314905
322960
306183
313727
314997
322885
306080
316059
324225
306764
316826
315836
324364
308338
307674
298957
298316
289960
307530
298903
298991
323798
341374
332027
332577
332089
332663
323700
314820
313659
322758
305975
322814
306008
314782
315969
316643
324060
306542
324290
308134
315643
307543
289764
298761
298029
298838
298828
307297
310980
321686
303951
311597
311460
320216
303659
309902
317805
300674
307777
310085
317644
300578
302375
295251
293473
286381
302546
295119
293382
318159
337287
329886
327114
329099
326602
319079
310958
311490
321492
303845
320012
303635
311349
309873
307734
317689
300554
317600
300543
310000
302336
286349
295154
293362
295085
293348
302445
282520
289543
275308
281979
282288
286827
275517
280834
288018
272651
279410
280906
287923
272611
273701
266776
265880
259266
273710
266761
265850
289102
303329
296994
296370
294979
296228
289150
282468
281642
289309
275365
286470
275528
282250
280821
279393
287941
272644
287890
272611
280889
273727
259227
266868
265866
266780
265836
273853
586780
584262
558663
608983
586758
584387
558820
530293
532046
505780
555665
530120
532111
505768
476210
479591
454565
499665
476185
479622
454542
424909
430491
406422
447775
424869
430465
406355
377329
383515
361287
398128
377350
383559
361319
331778
339929
318462
352103
331760
339970
318460
288481
297955
276771
307771
288448
297960
276827
247239
257327
237080
265766
247140
257310
236853
581404
576206
547859
607167
581527
576336
548021
542170
557588
556496
568418
557609
556522
542162
492243
506336
504670
517991
506321
504672
492272
444504
456761
456311
467635
456759
456303
444523
399516
410021
410626
420340
410001
410606
399567
357007
365974
367354
375465
365977
367380
357001
316628
324262
326633
333413
324259
326669
316643
277642
284108
287613
293120
284102
287609
277650
239219
244643
249063
253702
244626
249056
239232
192078
200208
183634
206794
191964
200064
183473
516219
508849
484371
542351
516352
509260
484529
482276
497039
494444
508876
497086
494507
482194
439783
452962
450226
463919
452962
450237
439775
399195
410545
409208
420995
410537
409209
399195
360355
370204
369868
380033
370179
369852
360380
323969
332288
332767
341472
332303
332777
323956
288908
295876
297694
305001
295874
297695
288933
254232
260086
262860
268918
260097
262860
254241
219619
224604
228061
233387
224568
228056
219628
175978
183585
169372
191516
175825
183407
169286
452202
441619
420305
474305
452530
441836
420598
422361
437120
432459
447238
437148
432436
422334
386726
399996
395378
409124
399994
395377
386731
353360
364922
361592
373550
364899
361568
353393
320763
330748
328695
339095
330735
328708
320789
289816
298337
297388
306189
298332
297370
289837
260229
267534
267464
275164
267515
267521
260220
230434
236441
237894
244241
236401
237905
230433
200681
205479
208232
213264
205485
208212
200699
162135
168411
155497
175900
162013
168203
155316
388254
371069
355372
406644
388492
371263
355754
361683
376851
369920
384700
376829
369944
361706
332906
346654
339910
353944
346597
339878
332948
306944
318462
313149
325159
318450
313134
306965
281904
291552
288295
298256
291521
288278
281931
256524
264826
262839
271261
264795
262800
256557
232094
239061
238146
245306
239053
238126
232113
206905
212664
213372
219275
212637
213332
206938
182050
186774
188410
193288
186782
188417
182047
148269
152456
143487
161097
148094
152225
143253
297579
273878
270291
306617
297559
274209
270342
278490
260498
254500
287913
278303
260553
254530
259692
244920
240045
268890
259572
244941
240042
240516
230505
224190
250400
240431
230454
224159
220503
214323
207508
230800
220496
214271
207500
200447
197108
189328
211006
200490
197098
189338
179852
178743
171334
190383
179793
178761
171228
157829
159903
151914
169269
157657
159885
151707
586997
584585
558980
609303
587154
585109
559287
530124
532201
505726
555669
529766
532305
505633
476239
479659
454559
499440
476153
479666
454578
424852
430470
406347
447697
424776
430420
406345
377386
383621
361359
398055
377377
383658
361374
331731
339996
318429
352050
331681
339966
318385
288393
297965
276908
307633
288333
297925
276948
247154
257291
236773
265663
246929
257219
236517
581883
576490
548295
608328
581964
577236
548456
542459
557912
556976
569248
542366
557998
557247
492235
506438
504747
518151
492220
506446
504796
444509
456865
456347
467679
444501
456889
456363
399319
409976
410560
420336
399346
409970
410556
356970
366033
367419
375573
356969
366039
367446
316582
324279
326756
333548
316595
324273
326765
277594
284141
287605
293108
277605
284139
287567
238842
244507
248903
253510
238942
244457
248798
191893
199687
183382
206268
191634
199339
183109
516505
509304
484774
542887
516635
509912
485010
482667
497278
494906
509623
482548
497388
495166
439764
452954
450260
463936
439776
452948
450262
399070
410470
409145
420899
399115
410440
409106
360153
370070
369707
379896
360211
370040
369640
323938
332307
332759
341483
323956
332288
332744
288762
295812
297618
304875
288804
295768
297567
253964
259976
262758
268852
254032
259906
262707
219470
224395
228072
233219
219511
224334
228066
175781
183195
169257
191065
175501
182994
168998
452738
441872
420873
474789
453098
442436
421305
422691
437385
432860
448080
422571
437490
433278
386669
400020
395368
409183
386685
400024
395366
353171
364794
361477
373440
353237
364734
361430
320367
330489
328563
338784
320529
330384
328419
289478
298149
297133
305909
289590
298001
296999
260082
267325
267476
274970
260160
267270
267425
230383
236352
237847
244086
230358
236354
237824
200587
205378
208152
213215
200633
205334
208131
162009
168026
155250
175453
161721
167802
154938
388710
371139
355756
407129
389085
371442
356370
361925
377022