/*--------------------------------*- C++ -*----------------------------------*\
  =========                 |
  \\      /  F ield         | OpenFOAM: The Open Source CFD Toolbox
   \\    /   O peration     | Website:  https://openfoam.org
    \\  /    A nd           | Version:  10
     \\/     M anipulation  |
\*---------------------------------------------------------------------------*/
FoamFile
{
    format      ascii;
    class       volVectorField;
    location    "3.9";
    object      U;
}
// * * * * * * * * * * * * * * * * * * * * * * * * * * * * * * * * * * * * * //

dimensions      [0 1 -1 0 0 0 0];

internalField   nonuniform List<vector> 
12920
(
(163.933 69.2739 158.686)
(-11.125 24.299 7.97372)
(131.567 58.2244 -2.66499)
(70.0196 -1.16572 -0.90347)
(139.635 5.67201 -1.66937)
(124.201 -6.73553 -2.24475)
(151.188 -9.14456 -0.0250053)
(143.173 -13.0501 1.05402)
(149.613 -13.3711 2.61134)
(142.885 -13.8045 2.42506)
(144.619 -11.379 2.2015)
(140.494 -8.55058 1.80543)
(137.773 -5.00105 1.51944)
(130.803 -5.04179 0.770908)
(129.299 -3.00614 -0.150679)
(126.267 2.18965 -0.0772663)
(116.612 6.54365 0.689899)
(105.601 5.4515 0.79598)
(99.4304 -0.0160589 1.03895)
(96.4487 -3.58071 1.15428)
(233.063 56.2662 6.524)
(-70.1151 4.01335 32.2779)
(172.294 -47.5024 -1.37045)
(37.6482 -23.2553 0.797691)
(131.71 -17.4212 0.959988)
(87.6969 -8.07087 -1.60912)
(116.086 -1.42574 -0.360037)
(95.957 -0.231191 -1.10532)
(100.808 1.23591 -0.626364)
(89.0478 0.283236 -1.68804)
(91.3081 1.26685 -1.94824)
(87.6805 1.98663 -2.10432)
(89.6841 4.40682 -1.72245)
(88.061 6.44168 -1.67387)
(88.6779 6.89802 -1.60967)
(89.4384 6.95964 -1.24948)
(91.0655 6.11086 -0.411128)
(91.9765 4.73773 0.0570231)
(93.0076 1.33818 0.527945)
(90.5207 -2.65345 0.430276)
(123.393 27.1539 -173.466)
(45.965 5.07434 -0.201711)
(140.802 -0.370388 -8.98933)
(86.3939 6.98851 -5.93284)
(120.528 4.3789 -3.32474)
(83.844 0.0112281 -2.38649)
(105.546 3.87327 -0.698424)
(89.6635 4.23045 -1.24919)
(100.517 5.63363 -1.01784)
(94.8199 5.91065 -1.70329)
(100.561 5.73814 -1.68742)
(99.7036 6.49054 -1.95797)
(103.335 7.05747 -1.93559)
(105.715 7.25898 -1.67849)
(108.345 6.94225 -0.686956)
(107.267 7.06806 0.260312)
(101.983 6.05067 1.25019)
(94.4759 4.37063 1.39793)
(91.989 0.458719 1.1532)
(88.6989 -2.65103 0.531188)
(307.788 218.24 -318.06)
(-86.6937 93.2818 30.3945)
(128.145 57.3289 -10.3903)
(-9.86655 17.4432 0.112147)
(90.6137 19.0967 -0.762311)
(36.4259 3.80489 -0.509999)
(82.5305 5.56472 0.583447)
(68.7203 4.25748 -0.268681)
(88.9137 5.65196 0.122717)
(87.3319 6.82392 -0.409907)
(96.5069 7.45085 -0.265346)
(98.0602 8.66578 -1.01725)
(104.802 9.07279 -1.12158)
(108.052 9.0758 -0.615833)
(109.573 9.16795 0.106417)
(106.727 10.4163 0.985629)
(98.7163 11.0462 1.71656)
(91.4682 8.46917 0.935448)
(89.6304 2.5569 0.472793)
(86.5591 -2.46775 0.137302)
(-6.44479 -115.237 102.344)
(-166.523 55.0223 7.33742)
(69.7163 8.46022 -10.8061)
(-24.256 -5.41758 2.72596)
(79.3845 -9.20809 2.63888)
(28.4193 -15.0951 2.67235)
(76.2656 -16.6136 3.01578)
(61.6968 -9.6778 1.51779)
(82.7568 -8.16888 1.30671)
(80.8721 -1.05337 0.325198)
(90.9904 -0.0574799 0.37005)
(91.8512 3.59506 -0.0383295)
(97.5338 4.00931 0.0672642)
(98.1806 5.33416 0.190058)
(98.1229 7.3156 0.774448)
(94.2287 10.4761 0.812898)
(92.7146 11.3184 0.54986)
(92.1094 9.55045 0.45467)
(93.4917 3.88524 0.849436)
(88.9716 -0.855428 0.497233)
(61.7275 -7.71635 9.27414)
(-151.001 35.0083 -11.6509)
(90.7932 29.6517 -10.7204)
(-41.2762 -27.8375 4.90973)
(80.9416 -36.7504 3.71462)
(13.4931 -27.9571 2.9993)
(71.0957 -35.0422 3.4714)
(49.1597 -20.4066 2.20369)
(68.0819 -17.0257 1.59502)
(63.7202 -7.49386 0.847856)
(72.8609 -4.39996 0.447062)
(73.3295 1.53582 0.0890957)
(78.9657 4.07847 -0.00757711)
(79.3512 7.06391 -0.180691)
(81.0355 9.2006 -0.202925)
(81.662 10.4508 0.0335454)
(81.7717 9.5521 0.478298)
(80.4422 6.07386 1.0004)
(80.0472 2.1485 0.956548)
(78.1125 -0.992695 0.345919)
(-186.523 108.775 -21.6501)
(-204.411 -85.3106 -21.2795)
(44.4946 -52.669 -14.0533)
(-9.90769 -70.2183 -1.71911)
(95.7848 -70.004 -0.559347)
(46.8415 -44.4711 0.122119)
(80.5927 -59.8307 1.77397)
(61.3517 -25.2415 1.54359)
(71.2696 -27.3775 1.27274)
(62.4748 -11.8702 0.961415)
(67.4617 -11.1871 0.842983)
(65.1 -3.44421 0.475127)
(70.0951 -0.776676 0.0944995)
(69.7727 4.8171 -0.152624)
(72.6832 6.82374 -0.27752)
(73.8918 8.85104 0.00826428)
(74.3997 8.95441 0.38335)
(75.4925 6.77498 0.529558)
(78.6612 1.88622 0.450384)
(79.2626 -1.45984 0.132565)
(204.697 -210.248 167.071)
(-214.939 -170.171 -8.53145)
(133.745 -62.4997 -29.45)
(27.8403 -81.399 -5.53834)
(109.225 -71.6239 -4.9417)
(57.2489 -34.3161 -4.11127)
(85.6855 -45.7945 -1.65054)
(69.643 -38.5701 -0.341349)
(78.5246 -23.0563 0.388121)
(73.2084 -15.189 0.577621)
(77.2437 -10.0152 1.02028)
(75.0875 -5.76412 1.15752)
(72.9418 -0.158647 0.312872)
(70.8694 5.43644 -0.227365)
(69.351 6.81926 0.102702)
(71.4019 7.55912 0.366989)
(72.7771 5.16883 0.820391)
(77.0042 -0.0139835 0.942774)
(81.4724 -2.85753 0.627676)
(82.9187 -3.07961 0.273139)
(253.513 -524.457 26.7088)
(-162.085 -94.4073 -21.6678)
(152.729 -82.923 -31.0342)
(9.22746 -60.7827 -4.98922)
(101.396 -54.573 -2.28215)
(48.5613 -40.428 -1.69593)
(84.5179 -32.8469 -1.0939)
(86.843 -33.499 -0.982967)
(92.0972 -24.1008 -0.161349)
(92.0105 -16.3207 -0.128103)
(92.2376 -16.7758 0.215899)
(92.3316 -13.9058 0.658167)
(86.2242 -0.0862305 0.516579)
(76.566 5.9536 0.0414113)
(72.2951 9.12741 -0.0586423)
(72.1226 2.95708 0.702512)
(73.5499 -0.708011 0.618779)
(76.7976 -5.64428 0.381553)
(80.6287 -6.59714 0.276588)
(82.3409 -5.11226 0.245773)
(185.176 -327.154 -188.077)
(-70.1536 -84.2804 -9.50559)
(122.903 -105.333 0.19114)
(4.80513 -60.35 1.2521)
(105.402 -71.4988 1.38782)
(54.8033 -49.6946 -0.23666)
(67.0754 -35.7111 0.777343)
(81.3496 -27.7516 -0.39374)
(91.9814 -25.828 -0.159716)
(97.1265 -20.7139 0.319847)
(94.6187 -18.5472 0.919287)
(84.5483 -5.68577 -0.408162)
(78.5777 8.19393 -0.181308)
(74.8069 8.64591 0.0485666)
(77.0069 4.74331 0.262779)
(77.512 1.14105 0.152168)
(79.0674 -3.22651 -0.100984)
(81.6267 -7.94755 -0.11622)
(84.1508 -9.18971 -0.0325762)
(84.6286 -7.02545 -0.0654909)
(274.07 -82.6853 -222.238)
(-7.16588 -90.2232 -8.66673)
(125.815 -93.2234 -6.43844)
(49.4753 -77.8236 0.0777339)
(123.663 -87.0017 1.31605)
(87.6545 -65.6968 -1.25675)
(110.03 -55.9054 0.0626407)
(119.225 -45.1536 0.0829371)
(120.264 -37.3768 0.332972)
(131.869 -29.6909 0.498945)
(132.489 -19.4354 -0.0774613)
(99.7741 2.2772 1.75677)
(78.4105 9.89842 0.38351)
(82.1319 4.82691 0.141189)
(82.2979 2.18709 0.0703892)
(81.6083 0.545227 -0.603468)
(83.9264 -3.93321 -0.407638)
(83.1372 -8.43632 0.012005)
(83.4672 -8.8548 0.220747)
(80.4595 -6.32496 -0.037557)
(129.125 -221.885 16.2899)
(-78.1219 -58.4966 7.90085)
(122.03 -104.975 -1.10354)
(46.2174 -84.8713 2.87528)
(121.739 -84.4593 0.561076)
(85.302 -72.0886 -2.13157)
(115.415 -65.3028 -1.12321)
(125.931 -50.9927 -0.721966)
(132.964 -38.1813 -0.0474789)
(117.668 -31.0237 -0.552166)
(116.622 -8.17712 -1.06299)
(112.333 6.89245 -0.187829)
(111.001 15.4454 0.467892)
(94.179 7.77453 0.292588)
(84.3334 5.49474 -0.570248)
(84.2724 2.09241 -1.009)
(86.4177 -2.53844 -0.760203)
(84.7603 -5.85628 -0.27767)
(82.3353 -7.17403 0.557312)
(75.7262 -4.81272 0.351533)
(163.876 -189.222 -263.418)
(-51.6202 -91.6887 -3.96522)
(141.902 -128.806 -7.74006)
(90.1829 -108.229 1.04131)
(142.375 -95.3882 0.972052)
(119.596 -90.9863 1.38247)
(133.068 -70.6652 -1.89174)
(119.243 -40.3135 -1.80375)
(112.013 -23.5367 0.192461)
(93.3973 -12.9372 0.59377)
(92.7572 -0.495286 -0.0543722)
(92.6579 8.27652 -0.0557921)
(94.1135 15.9247 0.134919)
(91.8606 16.4708 0.135786)
(89.7222 9.07996 -0.625691)
(92.0678 3.87653 -0.954148)
(93.7313 -0.198008 -0.889376)
(92.4579 -1.81255 -0.21244)
(88.972 -2.9644 0.898003)
(78.2033 -2.7995 0.6057)
(182.548 -70.6242 10.0397)
(71.7679 -75.2832 0.977747)
(150.899 -101.107 -6.25818)
(100.625 -108.805 -0.365655)
(140.419 -97.8935 1.0211)
(111.637 -85.5128 0.992259)
(123.337 -43.0671 2.24926)
(104.943 -37.4228 2.62692)
(101.194 -9.22222 1.52222)
(87.2834 -8.70503 1.07174)
(88.6209 0.905656 0.84798)
(86.2793 2.49491 1.04233)
(90.8052 7.88466 1.30395)
(93.1238 6.58217 0.746916)
(98.4746 6.75305 -0.0012388)
(100.013 3.82954 -0.574315)
(101.293 2.16623 -0.7682)
(100.81 0.72926 -0.192687)
(101.015 1.50564 0.769068)
(89.6167 1.30491 0.720836)
(125.532 20.75 33.6213)
(-33.1019 -67.3092 -12.3391)
(151.089 -114.365 -8.28406)
(91.521 -118.339 -0.730601)
(134.066 -108.205 -0.0535985)
(105.289 -88.5733 -1.83035)
(128.396 -51.0832 -1.35018)
(109.201 -30.9347 -0.879851)
(110.806 -9.07277 0.572006)
(100.536 -7.29656 0.483897)
(101.88 -3.34076 0.462353)
(99.4864 -2.34745 0.432498)
(101.756 0.870958 0.612515)
(101.846 1.90247 0.352225)
(103.31 3.71681 0.224997)
(102.892 3.78691 -0.171845)
(102.832 2.77296 -0.244409)
(100.59 0.594299 -0.0224919)
(99.7339 2.63708 0.76176)
(87.5818 3.19058 0.641072)
(200.278 -173.636 46.0429)
(83.4563 -105.009 -1.71447)
(167.969 -112.706 -9.34678)
(133.26 -107.001 -1.67778)
(141.809 -99.8652 3.91132)
(100.982 -77.5788 0.289314)
(118.654 -37.7191 -0.837877)
(101.251 -19.5073 -0.519842)
(109.563 -2.97206 0.885545)
(100.695 -4.56214 0.85828)
(102.147 -0.869475 0.72207)
(97.3131 -1.56703 0.250149)
(98.4481 1.92068 0.0352059)
(96.2021 2.7315 -0.323905)
(96.6815 4.96871 -0.379882)
(95.7707 4.58033 -0.237223)
(94.2385 5.54085 0.0797103)
(89.7036 4.80511 0.369304)
(86.2405 9.03026 0.763956)
(78.8578 8.50112 0.240085)
(114.97 -26.4079 -88.7619)
(13.5656 -87.0412 -14.1781)
(160.327 -98.9827 -11.9743)
(139.754 -106.533 -2.8622)
(150.573 -91.151 5.56193)
(102.108 -69.2863 3.62483)
(110.274 -40.6447 1.96249)
(89.6124 -24.2143 0.866744)
(100.281 -10.6849 1.13503)
(90.3538 -7.40928 0.973)
(92.8115 -2.32375 0.754207)
(86.425 -0.993441 0.175759)
(87.3941 2.52649 -0.176538)
(84.1708 3.80839 -0.430055)
(84.5982 6.11206 -0.45251)
(82.854 6.19875 -0.288038)
(80.7909 7.81511 0.255394)
(76.52 7.44946 0.293927)
(75.9054 9.10918 0.226326)
(73.6976 7.75841 0.0136152)
(162.195 -119.344 -2.62423)
(33.042 -103.363 -0.225466)
(155.501 -128.314 -4.77553)
(128.279 -116.83 -4.68823)
(146.69 -95.9859 6.84706)
(94.2401 -63.4656 5.10877)
(101.971 -31.9101 3.03306)
(79.4141 -20.0765 0.630869)
(91.1799 -8.67935 0.312039)
(82.2274 -5.52091 -0.0282857)
(87.3884 0.244571 -0.00998746)
(81.658 1.93637 -0.234202)
(83.7765 5.35715 -0.232929)
(80.8256 6.64876 -0.334158)
(81.689 8.70238 -0.213775)
(80.1735 8.92045 -0.145087)
(78.8375 10.6083 0.17838)
(77.117 9.9896 0.102343)
(77.1729 10.9142 0.0357744)
(76.1618 9.453 -0.0521901)
(207.345 -84.6724 -20.0426)
(129.356 -108.512 -3.85416)
(193.128 -114.145 -4.36535)
(157.459 -93.1878 -3.7952)
(158.064 -85.3461 5.33613)
(106.858 -55.8327 2.49537)
(109.229 -33.2159 3.53207)
(78.9023 -20.7276 1.33256)
(87.7818 -11.363 0.756008)
(75.1461 -5.6632 -0.0149978)
(81.8721 0.239338 -0.085876)
(76.4802 2.89604 -0.318782)
(80.4721 5.594 -0.220539)
(78.6447 7.02794 -0.192885)
(80.9132 8.42213 0.0482344)
(80.4977 9.20273 0.151803)
(80.3816 10.4027 0.382287)
(79.871 10.5004 0.28861)
(81.026 10.535 0.157893)
(80.8425 7.92579 -0.0610919)
(430.945 3.47587 31.8448)
(404.367 12.2081 6.9477)
(388.621 -0.87124 10.5612)
(335.416 -17.6969 14.1035)
(256.056 -48.6676 11.1268)
(169.598 -30.856 0.428117)
(155.957 -18.7437 -0.430235)
(119.305 -11.3747 0.666474)
(111.408 -7.54914 2.63686)
(87.8159 -3.11759 1.81642)
(88.5599 0.663862 1.29483)
(81.011 3.17953 1.11866)
(84.2476 5.05025 1.23831)
(82.7465 6.56313 1.45602)
(85.7579 7.33827 1.66232)
(86.4496 8.40307 1.85471)
(88.8893 10.1343 2.12545)
(91.9457 10.1027 2.15152)
(95.2949 10.7546 2.00517)
(99.1907 10.1148 1.67953)
(142.347 131.853 71.3154)
(-14.8859 56.3635 -9.79278)
(130.104 67.1007 -25.9646)
(59.0197 0.994253 -5.89105)
(123.455 5.8419 -4.12224)
(95.9987 -6.58638 -3.26917)
(122.893 -6.57805 1.08778)
(113.58 -7.95324 1.70115)
(125.499 -6.5527 4.15979)
(122.076 -5.81242 3.59958)
(125.97 -3.90092 3.64852)
(123.077 -3.05679 3.02165)
(122.236 -1.99508 3.00345)
(117.741 -1.52817 1.91504)
(114.444 1.06668 0.605912)
(106.805 4.11249 1.24329)
(98.8821 4.42704 2.61672)
(92.7658 2.02215 2.59416)
(90.982 -1.90688 2.68975)
(91.2505 -3.49252 2.46168)
(-46.0916 85.9477 154.277)
(-122.609 -12.5057 -0.424038)
(150.761 -40.5335 -20.3764)
(20.5944 -17.3044 -6.61924)
(117.381 -15.7528 -5.72891)
(63.4099 -10.1389 -5.50387)
(93.3089 -4.91371 -1.12839)
(72.2105 -3.06143 -2.54063)
(82.3625 0.0138459 -1.29895)
(73.2158 0.504304 -3.12723)
(77.1346 2.20547 -3.14802)
(72.9985 3.03176 -3.63071)
(74.2425 5.08822 -2.96224)
(71.9022 5.86517 -3.11047)
(72.232 5.78797 -2.71857)
(71.5909 4.90795 -1.82816)
(72.4968 2.82012 -0.304101)
(73.7079 0.543519 0.287916)
(75.7649 -2.06551 0.52953)
(76.3093 -2.61621 0.22911)
(161.754 -81.0945 -51.8319)
(137.288 -7.13475 -28.0093)
(156.848 1.11359 -21.028)
(83.7569 11.5196 -7.69552)
(109.143 3.9544 -1.70119)
(64.7765 -3.55508 -2.55682)
(86.7969 -1.48084 -0.0004018)
(67.3787 -1.28623 -1.69396)
(79.2262 0.757181 -0.944792)
(71.4088 2.04281 -2.20633)
(76.7725 2.8788 -1.95976)
(73.9143 3.98713 -2.42338)
(76.6683 4.67242 -2.047)
(76.1667 5.28199 -1.73609)
(77.6829 4.98853 -0.700255)
(76.905 4.61106 0.636834)
(75.5422 2.64289 1.98837)
(73.6607 1.23294 1.80732)
(74.1058 -1.0004 1.29415)
(73.6749 -1.81532 0.609801)
(-8.2032 -50.2215 -70.4865)
(-73.4048 55.0343 -2.09941)
(102.394 47.7101 -28.2003)
(-17.664 10.904 -4.48925)
(78.6168 10.9465 -4.55017)
(19.9056 -4.27931 -1.66037)
(67.2182 -2.33418 1.14253)
(48.396 -3.24788 -0.662985)
(68.5851 -1.1425 0.134065)
(63.8039 0.389117 -0.863262)
(72.3656 1.7239 -0.444997)
(71.6074 3.20114 -1.22088)
(75.5549 3.95164 -0.999875)
(75.7974 4.77295 -0.563427)
(77.1838 5.55023 0.557944)
(75.541 6.60793 1.81322)
(73.2889 6.04964 2.32761)
(71.0142 3.96233 1.34663)
(71.5199 0.253347 0.690268)
(70.9833 -1.4715 0.286442)
(14.6599 -88.0335 51.5057)
(-105.564 22.9765 8.97139)
(50.1484 -1.06087 -15.9656)
(-33.365 -7.23638 1.53445)
(68.3914 -9.60298 0.0787056)
(12.3589 -14.8835 2.2142)
(63.0774 -16.7413 3.66998)
(43.5164 -9.93969 1.37273)
(64.4534 -9.21897 1.49889)
(58.7553 -3.50385 0.111891)
(67.6648 -2.54136 0.332628)
(66.1925 0.671831 -0.0931048)
(70.1425 1.56589 0.254612)
(69.4649 3.71809 0.329423)
(70.7247 5.42835 1.03184)
(69.8963 7.29464 1.10216)
(70.141 6.99297 0.967941)
(70.4627 4.29164 0.952477)
(72.3336 0.517747 1.16474)
(71.5362 -0.996589 0.613035)
(161.269 103.095 119.972)
(-95.8876 62.7022 32.0076)
(59.7269 37.265 -5.26885)
(-65.4081 -18.5081 9.65505)
(68.4656 -22.655 3.37012)
(-7.85976 -16.8559 3.97655)
(58.0075 -26.3076 4.81592)
(33.471 -14.1413 2.75965)
(53.8795 -13.1963 1.97651)
(48.1156 -6.23935 0.917841)
(56.0117 -4.62033 0.59752)
(55.0399 -0.514793 -0.06001)
(58.9091 1.40184 -0.0530167)
(58.7342 4.21427 -0.241258)
(60.3769 5.72612 -0.0917164)
(61.5226 6.37803 0.256469)
(62.6625 4.88487 1.05447)
(63.9882 2.57267 1.61196)
(65.8842 0.785389 1.25702)
(66.1095 -0.463001 0.504312)
(-64.8828 39.0163 69.7397)
(-178.686 -41.1847 -10.9508)
(27.7292 -43.4074 -13.6897)
(-31.9069 -55.6122 0.632393)
(77.4673 -53.5906 0.214284)
(19.3066 -26.1858 -0.0451279)
(59.2273 -47.8616 2.58524)
(38.2871 -12.1876 1.96298)
(52.8105 -20.3089 1.75414)
(45.6667 -6.63997 1.30862)
(52.5795 -8.51037 1.21707)
(50.9168 -2.24481 0.658265)
(54.9458 -1.29294 0.250917)
(54.7529 2.5322 0.0476486)
(56.6253 3.18162 0.0999386)
(58.2965 4.44334 0.392058)
(60.1626 3.63092 0.906503)
(62.4004 2.17947 0.945318)
(65.4255 -0.0125341 0.582728)
(66.4969 -1.19166 0.237232)
(247.479 228.879 -260.652)
(-26.157 -60.0957 -13.511)
(111.663 -69.472 -37.045)
(25.2556 -77.8795 -1.75582)
(93.2004 -61.2129 -3.67287)
(35.0911 -17.651 -3.62089)
(65.8839 -32.8214 -1.43013)
(46.8735 -23.3427 -0.24358)
(55.4772 -15.4634 0.205261)
(51.5399 -10.5842 0.484255)
(57.2152 -7.01893 1.7961)
(56.6408 -3.45021 1.79159)
(57.5464 -0.0949795 0.471324)
(57.1282 3.35791 0.0250845)
(56.797 2.15306 0.00938703)
(59.6328 2.05818 0.551716)
(62.1825 0.27195 1.08104)
(65.8631 -1.34744 1.2841)
(69.3016 -1.87707 0.791156)
(70.1367 -1.70285 0.364168)
(444.082 29.3491 -324.069)
(178.066 17.6641 -25.896)
(148.69 -70.0853 8.30796)
(6.83497 -66.3828 8.79602)
(84.6587 -54.105 3.53065)
(37.9803 -35.824 -3.80081)
(72.0907 -29.0153 -3.31038)
(66.1319 -25.7283 -3.09214)
(67.7622 -18.8482 -1.26381)
(67.4564 -14.8565 -0.713471)
(68.5772 -12.4632 0.890547)
(68.1136 -5.18437 1.23878)
(63.9699 1.68665 1.20801)
(62.0499 2.92595 0.639614)
(62.1061 3.29707 0.439123)
(63.0164 -1.72677 0.807829)
(65.1095 -2.43062 0.729845)
(67.3578 -3.54893 0.62026)
(70.4035 -3.04048 0.432928)
(71.4466 -2.12444 0.351678)
(87.0469 -214.274 -128.719)
(-134.237 -21.1579 24.188)
(115.216 -96.021 -16.9831)
(-13.8769 -61.4662 3.25558)
(86.8897 -68.6586 1.40703)
(39.8292 -49.6561 1.1257)
(62.387 -38.7275 2.50031)
(73.3513 -28.7011 0.654741)
(78.8306 -23.1861 0.577851)
(80.8758 -18.106 1.44068)
(78.299 -12.3129 3.26486)
(69.729 -2.33381 0.695112)
(65.4235 2.91887 0.140792)
(66.2626 1.62606 0.27502)
(68.1987 -0.878905 0.661922)
(67.9836 -2.25822 -0.349142)
(68.6855 -4.46921 -0.295026)
(70.0387 -5.47497 -0.0476761)
(72.3393 -5.08008 0.0782438)
(72.9048 -3.08304 0.06294)
(14.376 72.9396 -231.262)
(-21.7328 -61.6241 31.6136)
(99.7276 -84.4521 0.0726848)
(22.8339 -69.8826 -1.41991)
(95.2865 -77.1858 0.00475039)
(69.0398 -64.0596 -0.675111)
(92.5317 -55.5445 1.53501)
(100.015 -39.0312 2.36857)
(100.22 -27.8133 3.03187)
(103.223 -18.0053 2.43859)
(93.5903 -8.60546 3.43444)
(83.4937 5.67304 5.58195)
(75.915 4.23347 0.585843)
(75.9754 -0.0390815 0.0194614)
(74.2685 -0.991742 0.150057)
(71.1079 -2.62201 -1.28942)
(70.4428 -4.84615 -0.514886)
(69.5564 -5.93655 0.0790374)
(70.8465 -5.31096 0.269802)
(69.7989 -3.46091 0.0396188)
(228.189 -140.051 1.21912)
(-53.867 -85.2705 -3.95856)
(113.666 -103.373 -24.5073)
(39.232 -78.9441 -3.93471)
(101.493 -76.3313 -5.16143)
(70.236 -68.2919 -4.90068)
(94.3541 -62.3611 -2.66617)
(100.969 -44.8936 -1.75814)
(103.352 -30.7788 1.24007)
(98.313 -17.8037 -1.01113)
(92.4657 -0.757331 -1.41545)
(90.3408 9.27404 0.797491)
(90.1408 9.16107 1.67401)
(81.9922 3.93296 0.698413)
(75.0652 1.60568 -1.05169)
(71.915 -1.27735 -1.85981)
(70.8926 -3.70073 -0.949204)
(68.0763 -4.58216 0.0249394)
(68.0456 -4.49323 0.838943)
(65.5644 -2.79955 0.485632)
(154.392 -182.36 -91.1731)
(19.464 -69.3397 -15.3153)
(144.297 -103.942 -24.9035)
(89.2787 -84.6911 -1.59313)
(129.591 -75.3543 -1.14115)
(94.3107 -73.587 -0.242328)
(105.19 -56.1633 -0.359112)
(84.962 -34.8209 -0.198797)
(81.291 -20.4851 1.69681)
(74.0902 -9.16809 1.07442)
(77.698 -0.212123 0.116553)
(77.8905 6.15761 0.444094)
(79.9082 9.58515 1.18618)
(79.3259 8.23576 0.697762)
(76.5223 2.52518 -1.40552)
(75.9847 -0.604805 -1.66192)
(74.3614 -1.81386 -0.969129)
(71.2741 -2.29642 0.253426)
(70.2609 -2.387 1.4032)
(65.7493 -1.73318 0.807045)
(138.672 -74.1917 -51.8708)
(69.2479 -71.1701 -16.789)
(137.16 -79.2163 -8.14028)
(79.4494 -77.3516 3.53522)
(120.547 -62.7384 3.11709)
(83.2381 -53.4968 1.93646)
(94.0798 -21.6254 3.19965)
(76.0113 -26.7166 3.38062)
(77.8651 -8.03954 2.10902)
(69.9519 -9.86985 1.61787)
(73.9629 -0.309164 1.37098)
(73.1935 0.0371541 1.4767)
(77.9088 4.25766 1.71858)
(78.758 3.10488 0.911692)
(80.5445 2.85264 -0.307836)
(79.4572 0.899411 -0.769148)
(78.3634 0.472803 -0.78671)
(76.4397 0.249241 0.0374104)
(76.629 1.29581 1.53071)
(70.6751 1.1853 1.0146)
(161.688 -8.03649 95.1968)
(19.8542 -39.0374 -18.0947)
(138.566 -78.507 -13.7089)
(65.2475 -81.449 -1.1502)
(114.281 -69.2361 -0.697968)
(78.6198 -53.1137 -2.51563)
(98.959 -25.753 -0.925976)
(79.8115 -18.7198 -0.426128)
(84.4949 -8.99661 0.96363)
(77.3652 -8.89204 0.734054)
(80.729 -4.13262 0.855483)
(78.7584 -2.65535 0.723841)
(81.4383 1.04281 0.940348)
(80.7542 1.80634 0.540549)
(81.3549 2.64971 0.160545)
(79.9311 1.57775 -0.271748)
(78.4071 1.10201 -0.177483)
(75.5666 0.598114 0.23907)
(75.1364 3.019 1.44302)
(69.201 3.13871 0.867354)
(257.661 -110.849 -9.22217)
(104.92 -58.3741 -4.77012)
(153.126 -76.3827 -2.64599)
(90.4947 -71.7867 2.97659)
(114.67 -65.2333 5.21122)
(81.5854 -46.5716 -0.665069)
(97.8866 -20.7444 -0.647071)
(80.5186 -16.2755 -0.129154)
(88.2811 -5.60232 1.55332)
(79.1803 -7.83508 1.19786)
(82.3185 -2.51537 1.02583)
(77.3805 -2.40938 0.291102)
(78.8165 1.91178 0.0826945)
(76.1268 2.27987 -0.325826)
(76.0673 4.11509 -0.236526)
(73.9106 3.3648 -0.0531384)
(72.2522 4.51794 0.416939)
(68.8955 4.53149 0.670432)
(68.5667 7.07851 0.986678)
(65.3415 6.1829 0.280791)
(146.808 110.969 -164.794)
(9.345 -37.8178 -42.9683)
(131.509 -57.8131 -16.6016)
(80.0995 -63.847 4.4023)
(111.74 -52.8723 11.1896)
(74.871 -40.0296 4.07029)
(94.5063 -20.58 2.50733)
(74.6939 -14.4553 1.28339)
(84.9555 -5.766 1.79623)
(73.5206 -5.33988 1.2641)
(77.1691 -0.989231 0.969084)
(70.4107 -0.31898 0.107967)
(71.6913 2.72432 -0.32288)
(68.0101 3.20024 -0.522855)
(68.1739 4.70257 -0.365369)
(65.9543 4.46055 -0.195554)
(64.8414 5.63486 0.331053)
(63.4806 5.64318 0.242065)
(64.5139 6.94519 0.196079)
(63.4622 5.50623 -0.0628024)
(116.405 -49.5315 -46.1422)
(-92.7486 -61.6678 -5.18869)
(112.243 -90.5902 -18.4716)
(29.3557 -69.9895 -4.49745)
(99.0594 -54.6644 10.02)
(59.265 -34.2718 4.60858)
(86.1469 -16.1263 3.31429)
(65.4798 -11.7422 0.774919)
(78.2842 -3.59056 0.676096)
(66.8387 -3.08886 0.0264241)
(72.6091 1.67509 0.0659163)
(66.0224 1.9855 -0.426749)
(68.7555 4.54932 -0.245846)
(65.4742 4.82658 -0.417652)
(66.7921 6.1328 -0.21147)
(65.3498 6.15635 -0.190047)
(65.2564 7.35678 0.101796)
(64.9257 7.10983 -0.0631955)
(66.5368 7.94452 -0.22298)
(66.6927 6.52052 -0.251835)
(189.075 -160.53 61.5304)
(21.12 -73.6221 -62.2686)
(128.836 -100.593 -49.2097)
(45.8539 -68.8751 -22.05)
(105.531 -59.7805 -0.977392)
(59.2669 -30.5096 1.06902)
(87.3751 -17.524 3.61433)
(62.1516 -10.3058 1.60048)
(76.9191 -4.26942 1.25233)
(64.0629 -1.95706 0.174029)
(71.6018 1.78173 -0.0279312)
(65.2362 2.7024 -0.416552)
(69.3407 4.36883 -0.228561)
(66.8768 4.83192 -0.284697)
(69.1833 5.6049 0.0263491)
(68.9963 5.94421 0.0638825)
(69.8169 6.84174 0.234543)
(70.4114 6.72595 -0.0148427)
(73.0103 6.67594 -0.449057)
(73.9069 4.64941 -0.727863)
(239.076 91.5645 -33.6427)
(161.017 39.2771 -46.6914)
(205.371 -0.783884 -30.6708)
(163.759 -19.726 -10.6802)
(155.319 -31.6193 4.69276)
(109.252 -14.8809 1.69956)
(109.284 -10.1914 2.38955)
(81.8185 -5.46477 2.47203)
(87.6612 -3.93497 3.87504)
(74.4414 -1.02344 2.64844)
(80.0493 1.51654 2.44328)
(74.6294 3.05265 2.31047)
(79.0765 4.29797 2.75866)
(78.0725 5.23923 3.06035)
(81.6813 5.73483 3.46781)
(82.9029 6.56501 3.68664)
(85.8269 8.45991 4.06632)
(90.2536 7.84632 4.0487)
(94.2708 8.29961 3.72548)
(99.6098 7.42197 3.18853)
(164.986 116.602 -28.3998)
(99.9321 58.5853 -6.81683)
(144.724 74.3047 -24.3262)
(65.4078 5.58865 -5.33318)
(117.181 7.44404 -1.14084)
(81.5053 -4.62485 -1.69936)
(107.823 -2.48037 2.009)
(95.4803 -1.91835 1.41127)
(108.412 0.831757 3.86251)
(104.511 1.7729 3.11398)
(108.913 2.44271 3.40976)
(106.15 2.05559 2.81395)
(105.9 2.28779 2.75571)
(101.831 3.23342 1.88898)
(95.7791 4.81498 1.62438)
(87.412 4.95018 2.32986)
(82.6306 3.10646 3.51379)
(81.3868 0.794391 3.56903)
(82.4894 -1.26585 3.84187)
(85.4867 -1.59935 3.43204)
(-40.1754 126.155 336.424)
(-99.8594 -3.31928 -27.3129)
(152.981 -23.2667 -32.4894)
(25.3985 -11.2689 -6.30604)
(107.847 -11.5574 -1.32829)
(45.2984 -8.38136 -3.46058)
(77.1068 -3.92052 0.67798)
(54.1014 -2.3231 -2.21327)
(68.139 0.930161 -1.22822)
(59.1392 1.39097 -3.39234)
(64.3704 2.91179 -3.30143)
(59.4976 3.41788 -4.00442)
(60.6135 4.65324 -3.49751)
(57.6822 4.98567 -3.66744)
(57.7721 4.5112 -2.7742)
(56.782 3.08012 -1.68552)
(57.7864 1.07635 -0.439969)
(59.4198 -0.459735 -0.183762)
(61.9327 -1.69735 -0.166625)
(63.6376 -1.44431 -0.405911)
(255.101 -10.3677 20.4016)
(131.935 2.26092 -16.8494)
(141.595 8.29159 2.38799)
(61.7934 18.1572 -2.64559)
(94.2773 6.81675 1.3164)
(45.2163 -2.50135 -1.90872)
(70.8207 -1.55028 0.73067)
(48.0738 -1.91439 -1.4727)
(61.9354 -0.152453 -0.41601)
(52.3689 1.13939 -1.88591)
(58.3108 1.95155 -1.56026)
(54.0891 2.9177 -2.23964)
(56.613 3.30947 -1.84736)
(54.969 3.62237 -1.72253)
(56.0537 3.16006 -0.65046)
(55.2724 2.36406 0.344124)
(55.7621 0.930317 1.36788)
(56.3192 0.167256 1.28457)
(58.3167 -0.888095 0.929357)
(59.52 -0.992907 0.409704)
(301.115 -17.0063 -53.9529)
(26.4693 19.7989 -17.6995)
(109.17 34.0981 -17.8666)
(-21.593 10.779 -3.83775)
(66.3177 11.4425 -4.74971)
(2.98975 -3.59296 -1.61091)
(53.2668 -2.78575 1.49303)
(30.1591 -4.38207 -0.60857)
(51.8394 -2.92773 0.399048)
(44.6041 -1.69358 -0.946738)
(53.3319 -0.459225 -0.47666)
(50.8562 0.764412 -1.18484)
(54.042 1.68759 -0.811343)
(52.8895 2.59916 -0.478038)
(53.9729 3.1328 0.40312)
(53.4846 3.60486 1.42133)
(53.95 3.18643 1.75865)
(54.4396 1.79641 1.121)
(56.412 -0.286376 0.603039)
(57.2303 -0.852662 0.252948)
(-31.2215 4.84871 32.5806)
(-68.3325 26.8366 7.54029)
(44.8103 -4.75286 -15.5621)
(-37.6602 -8.61834 -0.247699)
(57.6081 -9.29476 -2.61688)
(-2.79964 -13.7439 1.44549)
(50.3426 -15.9696 3.26821)
(26.3205 -9.10328 1.11918)
(48.5465 -9.60448 1.48767)
(40.3598 -4.09158 0.11223)
(49.5793 -3.78063 0.403965)
(46.8373 -0.612793 -0.254873)
(50.555 0.180606 0.163052)
(49.3781 2.40838 0.281347)
(51.0901 3.39145 0.879683)
(51.5994 4.47841 0.953075)
(52.6847 3.60821 0.894296)
(53.8919 1.48779 0.897342)
(56.2881 -0.297276 0.893991)
(57.1031 -0.724555 0.50148)
(19.3423 113.829 16.9964)
(-138.638 38.6019 33.3688)
(38.1298 34.6686 -0.801019)
(-73.8366 -13.8519 8.60673)
(55.8423 -14.4096 0.529181)
(-23.9241 -11.3276 3.84024)
(46.3965 -22.3146 3.75752)
(18.2273 -10.8892 2.28307)
(40.5353 -12.2605 1.7964)
(33.3326 -6.19154 0.742333)
(41.569 -5.51857 0.644939)
(40.0621 -2.08176 -0.0632549)
(43.6569 -0.737146 -0.0973605)
(43.5203 1.74887 -0.141249)
(45.3005 2.80325 0.135124)
(46.5977 3.18433 0.405155)
(48.2178 2.0459 1.0304)
(50.3223 1.08395 1.3286)
(53.0476 0.355132 0.921384)
(54.3451 -0.182141 0.398967)
(-43.7787 -53.847 16.5969)
(-157.768 -41.6898 -21.3973)
(18.5115 -42.1295 -16.5047)
(-48.2526 -46.9268 -1.56813)
(64.6302 -42.6577 0.118649)
(-2.13 -17.3878 -0.072423)
(42.9986 -43.0052 2.64625)
(19.9992 -5.87871 1.91116)
(38.0215 -18.3667 1.75956)
(31.2321 -5.09136 1.33308)
(39.5931 -8.79904 1.18874)
(38.1424 -2.86768 0.64343)
(42.2695 -2.90738 0.332788)
(42.2231 0.417158 0.0372064)
(44.2124 0.438931 0.309282)
(45.939 1.67614 0.428328)
(48.0124 1.10824 0.778031)
(50.1681 0.613596 0.773305)
(53.2063 -0.396865 0.433245)
(54.5686 -0.824707 0.207488)
(167.213 31.8052 -149.38)
(2.27274 -36.0861 -16.5073)
(87.9833 -53.4579 -26.7607)
(5.39436 -72.131 -1.55893)
(78.6234 -51.7374 -1.18834)
(15.6575 -7.66441 -2.4162)
(48.1364 -27.7247 -0.947855)
(28.4836 -15.0205 0.127819)
(38.7969 -13.9593 0.365227)
(35.8743 -9.36044 0.848468)
(42.3172 -7.0472 1.73143)
(42.6036 -3.8071 1.43988)
(45.0102 -1.59534 0.355375)
(45.4967 1.08315 0.138328)
(45.6452 -0.79034 0.228267)
(48.4453 -0.670905 0.442234)
(50.3577 -1.1139 0.721529)
(53.3189 -1.29992 1.01936)
(56.3907 -1.20354 0.599017)
(57.2898 -1.01765 0.250654)
(-23.305 25.2418 -199.485)
(-175.926 -62.1297 77.1625)
(69.8875 -81.2179 34.1862)
(-40.3636 -64.4935 9.89545)
(67.5214 -48.4722 3.96818)
(19.278 -26.794 -2.79655)
(52.747 -23.0726 -2.09675)
(46.7263 -21.8867 -2.18502)
(49.0971 -17.3026 -0.940103)
(48.5071 -13.8347 -0.0223922)
(50.2606 -9.32935 1.61786)
(50.427 -4.01013 1.46937)
(50.49 -0.950207 0.85762)
(51.2005 -0.390866 0.333944)
(52.007 -0.00658221 0.517489)
(51.8705 -2.99255 0.858113)
(53.6704 -2.26872 0.701953)
(55.4098 -1.99856 0.616194)
(58.2014 -1.34834 0.398397)
(58.9738 -0.996782 0.229537)
(167.162 -93.4832 -152.052)
(-53.6116 -80.1527 1.99601)
(84.1639 -103.652 -22.3317)
(-35.3721 -57.5355 5.62539)
(70.1514 -63.279 1.00192)
(20.2802 -43.4372 1.69422)
(47.3121 -32.8954 2.80772)
(58.5753 -25.3363 1.05681)
(61.9264 -20.8645 0.824031)
(61.7816 -15.4546 1.80887)
(58.952 -8.77617 3.36853)
(56.0835 -3.46957 1.07892)
(55.8041 -1.94411 -0.0235906)
(57.3825 -2.81177 0.0100483)
(57.52 -3.56793 0.648492)
(55.4218 -2.96106 -0.008501)
(55.7264 -3.68985 -0.0265847)
(56.7598 -3.30489 0.123669)
(59.3032 -2.52806 0.200414)
(60.0313 -1.35088 0.113182)
(40.1234 81.8219 -278.762)
(-62.0444 -30.5634 -17.0044)
(86.5117 -83.9481 -6.77166)
(-3.36381 -64.1576 -0.731662)
(77.2923 -71.0797 0.551255)
(42.2231 -54.2257 -0.555606)
(64.1845 -45.1463 2.23157)
(72.4179 -30.3044 3.14141)
(75.2961 -20.4594 3.14738)
(74.7746 -13.1907 2.30122)
(73.3396 -3.58381 3.76567)
(71.361 2.2381 3.70244)
(67.8417 -1.10571 0.263532)
(65.8568 -3.32459 0.047468)
(61.9366 -3.00886 0.0875091)
(57.2196 -3.9471 -0.505259)
(56.2662 -4.33005 -0.136827)
(56.1717 -4.17702 0.188274)
(58.1052 -3.26357 0.249524)
(58.0481 -2.04464 0.0908896)
(213.512 46.4557 -104.992)
(62.1884 -42.8153 22.0731)
(122.327 -108.193 -8.26449)
(42.1897 -81.7626 0.247633)
(89.3804 -74.214 -2.00176)
(50.101 -63.2154 -4.62157)
(69.7184 -55.5054 -2.48338)
(73.1718 -35.6194 -1.34623)
(74.5192 -21.1724 0.867827)
(73.9532 -9.41331 -0.944949)
(71.2374 0.376204 -0.596941)
(72.1427 4.97525 1.34527)
(71.4588 2.71369 1.86475)
(68.0763 0.136889 0.734319)
(62.8759 -1.62899 -0.605124)
(58.0596 -3.07894 -0.956194)
(56.0096 -3.90429 -0.460921)
(54.1354 -3.48243 0.175443)
(55.4716 -2.96648 0.622353)
(54.8596 -1.66576 0.330771)
(221.767 -152.677 -214.187)
(130.809 -77.6196 -31.3333)
(165.958 -98.7775 -22.0152)
(95.9409 -81.2529 -2.45923)
(119.709 -69.3412 -0.742604)
(73.4616 -67.4757 -0.594999)
(82.81 -47.6 -0.478323)
(58.7663 -28.8253 0.581941)
(61.0204 -16.9679 1.37453)
(58.1115 -8.03882 0.719738)
(63.2495 -1.7124 0.33869)
(63.32 2.3597 1.03828)
(66.4471 3.8403 1.40355)
(66.3898 2.54708 0.655368)
(62.3947 -0.887783 -0.659982)
(60.5063 -2.83878 -1.12553)
(57.6936 -2.56234 -0.5489)
(55.2576 -2.23989 0.259383)
(55.9466 -1.82633 0.941629)
(54.3739 -1.06004 0.424709)
(205.973 46.4365 -17.3932)
(99.8353 -72.0416 -8.98789)
(133.243 -69.781 -9.84827)
(62.2502 -61.0287 1.28345)
(102.577 -44.3857 0.631474)
(56.2599 -40.588 0.58618)
(70.5049 -12.4132 2.06623)
(53.2181 -25.8737 2.58505)
(60.3674 -8.07717 1.77473)
(54.5627 -11.8964 1.43464)