/*--------------------------------*- C++ -*----------------------------------*\
  =========                 |
  \\      /  F ield         | OpenFOAM: The Open Source CFD Toolbox
   \\    /   O peration     | Website:  https://openfoam.org
    \\  /    A nd           | Version:  10
     \\/     M anipulation  |
\*---------------------------------------------------------------------------*/
FoamFile
{
    format      ascii;
    class       volScalarField;
    location    "0.7";
    object      omega;
}
// * * * * * * * * * * * * * * * * * * * * * * * * * * * * * * * * * * * * * //

dimensions      [0 0 -1 0 0 0 0];

internalField   nonuniform List<scalar> 
12920
(
8.02489
9.07011
17.7882
11.6582
9.07116
5.53931
3.34688
1.79643
0.916425
0.492666
0.331688
0.27361
0.235667
0.197559
0.166902
0.151923
0.147633
0.146777
0.146617
0.146591
34.1181
22.8846
21.8678
8.71955
4.58512
2.76041
1.62311
0.840037
0.45376
0.292776
0.235084
0.20107
0.175753
0.160342
0.151183
0.147671
0.146822
0.146657
0.146611
0.146599
67.6844
36.9083
25.0824
7.62964
2.91172
1.34818
0.833461
0.676014
0.566663
0.382677
0.244766
0.177532
0.154822
0.148853
0.147185
0.146764
0.146669
0.146652
0.146629
0.146609
21.6724
24.0167
26.6408
14.9177
4.34885
1.18578
0.634616
0.556226
0.386355
0.250889
0.176194
0.152762
0.147867
0.146919
0.146706
0.146663
0.146646
0.146641
0.146629
0.146614
40.0738
30.1894
18.0542
7.56529
2.47734
0.74436
0.436016
0.342445
0.236504
0.179426
0.154886
0.148383
0.146965
0.146702
0.146653
0.146648
0.146645
0.14664
0.146624
0.146607
65.658
35.7942
9.31588
3.35257
1.82758
0.551311
0.822634
0.509102
0.268264
0.178726
0.154225
0.148562
0.147215
0.146811
0.146676
0.146644
0.146634
0.146631
0.146624
0.146609
74.8644
36.1528
4.27424
6.45108
2.96346
0.855195
1.2855
0.674958
0.267226
0.175554
0.173801
0.169055
0.158079
0.150613
0.147332
0.146341
0.146119
0.146138
0.146304
0.146501
45.3589
87.049
41.761
12.0271
4.92071
1.42652
1.29392
0.797489
0.314709
0.393975
0.351171
0.350865
0.321311
0.308563
0.148307
0.142856
0.141224
0.14121
0.142043
0.144677
82.7704
67.2826
44.7883
12.0516
4.05908
2.6461
2.3144
0.791404
0.711525
0.675104
0.758266
0.692056
0.675115
0.667788
0.305657
0.134308
0.134371
0.135604
0.138595
0.14302
108.626
78.7153
66.4634
45.432
21.9771
14.5839
4.42815
0.818452
1.03396
1.16923
0.690031
0.697429
0.683782
0.669098
0.291494
0.129975
0.13086
0.133854
0.137234
0.142373
107.019
59.0981
46.8515
30.6823
22.765
29.5288
33.7538
13.3311
3.15104
2.67552
1.21289
0.694066
0.685476
0.667994
0.291538
0.129909
0.130827
0.133909
0.137266
0.142387
191.946
100.62
67.5416
47.107
35.6096
51.665
68.2528
26.5611
3.31553
2.41084
0.873171
0.684505
0.684828
0.668893
0.302814
0.137634
0.136732
0.137079
0.138811
0.143066
221.895
76.8868
54.5735
37.8626
28.6592
18.9545
19.5065
5.1813
1.3901
0.728149
0.386566
0.325159
0.315509
0.307863
0.150083
0.143691
0.141863
0.141832
0.142629
0.144972
129.46
85.9702
71.5064
66.0991
56.2914
39.6658
20.5877
8.47272
2.84104
0.932615
0.416994
0.269147
0.195221
0.161862
0.150224
0.147272
0.146605
0.146518
0.146534
0.146595
230.559
126.137
87.0264
71.3144
59.1013
42.6915
25.1983
10.825
3.77147
1.35229
0.683967
0.437525
0.282221
0.196609
0.159768
0.149298
0.147098
0.146718
0.146651
0.146635
97.167
93.1841
92.1328
72.8718
47.3179
29.9789
18.8769
9.10883
3.57309
1.38234
0.694552
0.449516
0.303545
0.207954
0.163049
0.149796
0.14714
0.146712
0.146652
0.146638
112.821
102.02
77.4347
41.5673
19.5918
10.0454
7.20136
3.83069
1.90409
0.941157
0.541056
0.330708
0.217457
0.164656
0.150044
0.147139
0.146708
0.146649
0.146637
0.146631
67.8673
65.3627
64.0041
44.1661
22.5986
12.419
7.4907
3.88942
1.81763
0.769607
0.336025
0.188854
0.155213
0.148193
0.146937
0.146695
0.146648
0.14663
0.146627
0.146629
33.359
30.6868
20.9161
18.644
14.1641
8.57527
4.43637
1.73955
0.65256
0.248594
0.163023
0.148712
0.146707
0.146472
0.14652
0.146602
0.146626
0.146626
0.146623
0.146623
14.3148
14.5595
14.0304
11.6159
9.85863
6.62906
3.52844
1.45867
0.522487
0.211765
0.153258
0.147181
0.146643
0.146611
0.146616
0.146627
0.146625
0.146614
0.146606
0.14661
4.73001
15.0527
22.0551
14.3936
9.74997
5.75634
3.46324
1.86412
0.925213
0.433073
0.211612
0.129762
0.100159
0.0800626
0.0662384
0.0597944
0.057777
0.0573156
0.0572161
0.0572012
46.5296
95.9231
76.0391
20.968
29.5145
18.5386
10.2156
8.55823
7.56539
7.74045
7.54857
6.68704
4.75652
3.71045
3.63118
4.10736
5.13677
5.62299
5.92936
6.13106
224.032
145.5
93.3962
42.1482
41.0718
32.1941
30.7634
27.9577
22.7608
14.8667
9.60756
6.97398
5.80811
5.48846
5.57651
5.95462
6.21119
6.2955
6.33225
6.34422
43.2337
99.82
98.7742
41.4271
25.0671
22.2748
25.3259
22.8546
16.1903
10.6614
8.17597
6.95045
6.56676
6.40868
6.38761
6.38171
6.37583
6.35525
6.3525
6.34986
100.453
80.5468
50.5711
39.7959
37.2586
22.3587
24.1725
21.0454
15.6711
10.624
8.36552
7.11631
6.75371
6.51734
6.46834
6.41557
6.39444
6.36319
6.35639
6.35167
131.102
138.501
62.0388
48.0362
38.4198
21.3591
27.9169
21.2451
15.626
10.4095
9.05114
7.63417
7.10878
6.7378
6.54197
6.4451
6.39854
6.36497
6.35832
6.35328
173.001
110.322
52.2806
71.3135
44.9534
28.451
32.6324
20.6061
19.8894
11.9495
10.2792
9.0252
8.01452
7.1092
6.76563
6.54672
6.4468
6.38038
6.36188
6.35367
82.9211
148.07
110.123
58.5264
27.1363
23.2943
32.4649
19.5825
21.0239
28.0129
17.3675
12.9747
11.3161
8.9355
7.46016
6.86917
6.58914
6.44715
6.39922
6.36913
121.014
107.819
60.6776
33.7353
21.4922
24.2523
37.8628
21.3866
32.3026
10.4642
2.94117
7.71695
7.71517
7.28833
6.98969
6.61941
6.51738
6.44801
6.42337
6.38681
149.456
121.622
84.3602
43.1025
32.9113
29.7682
20.922
5.61361
2.61616
9.19575
5.29222
7.21286
7.2134
6.6628
6.52341
6.49685
6.42533
6.37709
6.36484
6.35906
139.96
106.703
74.4169
56.2912
58.0173
48.8365
32.8176
15.5911
6.32152
16.4487
16.9905
9.40517
7.35102
6.53074
6.41893
6.40914
6.38957
6.36681
6.36307
6.35964
116.448
119.479
109.724
88.1973
61.1563
52.9646
35.59
25.3763
18.5775
19.5391
19.072
12.5586
7.92574
6.66661
6.65224
6.64045
6.53928
6.46104
6.42706
6.38755
263.953
157.65
88.1784
55.222
42.797
24.0413
21.9719
27.4011
22.3772
15.7536
12.1249
9.78084
8.6358
7.59448
6.88147
6.58384
6.46605
6.39695
6.37966
6.3648
159.592
119.162
74.8318
97.5052
72.6192
45.6565
25.0359
20.582
19.5694
16.7135
12.428
8.57925
6.76389
6.0603
6.01845
6.11667
6.25041
6.30345
6.33315
6.34714
305.145
130.888
124.124
130.55
107.488
72.1088
29.6398
21.3373
20.2327
18.9738
15.4025
8.22431
4.69236
4.31391
5.17081
5.94176
6.2268
6.30509
6.33629
6.34798
98.4222
149.452
144.015
128.138
114.329
89.4451
39.0666
29.0255
25.473
20.5722
11.2332
4.12387
2.18793
2.82191
4.83953
5.80423
6.16268
6.27907
6.32415
6.34395
164.33
170.824
113.657
77.611
42.6573
41.0596
31.0083
18.3022
9.38682
3.60715
1.63847
1.59621
2.84407
4.83692
5.69547
6.11728
6.27007
6.319
6.33744
6.34679
151.892
153.42
85.8432
89.2318
50.1888
44.1566
23.8142
15.7507
8.12832
6.54188
5.31058
5.46317
5.72099
6.08601
6.22974
6.30485
6.32938
6.33528
6.33966
6.34534
141.93
96.2124
64.6138
69.8231
28.7536
25.2269
10.8678
9.73169
9.02538
7.93442
7.47131
6.84602
6.65538
6.41087
6.33788
6.25842
6.24332
6.22515
6.23071
6.24829
11.0563
7.90308
5.19097
3.77754
3.26649
2.24553
1.24207
0.527289
0.193506
0.0820153
0.0600899
0.0571602
0.0564554
0.056477
0.0565511
0.0567908
0.0569042
0.0570682
0.0571105
0.0571718
8.86714
36.0877
44.9206
32.8343
21.2895
12.44
7.31746
3.98677
2.02398
0.941733
0.404648
0.166318
0.0854188
0.0666101
0.0603894
0.0579569
0.0573395
0.0572174
0.0571958
0.0571958
105.665
132.519
115.696
85.7044
71.5537
50.076
35.251
16.6875
7.98851
4.71654
3.6313
3.2204
3.12274
3.2064
3.91624
4.69698
5.37418
5.71254
5.95713
6.13961
217.921
167.577
109.776
81.1145
50.8711
48.8468
46.3876
43.0611
35.5177
21.9747
12.3481
7.7228
6.25871
6.02256
6.11366
6.26943
6.33426
6.34348
6.34743
6.34809
223.742
147.892
99.3743
77.9736
39.0943
33.2041
34.0954
28.6352
19.7407
12.6268
9.06772
7.33544
6.84455
6.61532
6.52205
6.44445
6.39968
6.36441
6.35574
6.3518
144.288
88.5759
65.9615
78.485
57.1755
28.2801
29.2447
25.092
17.3797
11.5171
8.78344
7.34425
6.90335
6.60654
6.51834
6.4369
6.40138
6.36608
6.35716
6.35261
318.065
177.605
97.7508
84.3871
48.5581
24.949
37.5155
28.6427
19.3065
11.7496
9.58468
7.82651
7.19185
6.77837
6.56596
6.45816
6.40549
6.36843
6.35946
6.35431
174.245
109.81
72.8673
80.0152
60.7609
35.9674
42.9198
29.9744
22.9449
12.4144
10.684
9.11717
8.0608
7.1456
6.78336
6.55457
6.44964
6.38253
6.36296
6.35564
211.865
156.67
74.4129
55.0487
31.6804
32.3018
41.4567
25.2562
23.8506
28.9875
18.3721
13.5143
11.5653
8.97365
7.4471
6.86874
6.58765
6.44666
6.39691
6.36966
101.375
119.802
57.6252
60.9205
30.9908
27.0955
51.9139
34.3018
37.5225
1.89791
7.79646
10.2205
7.88163
7.29981
6.99858
6.63565
6.521
6.44963
6.42081
6.38682
248.168
133.846
69.5414
67.4059
60.6089
36.8005
33.8564
18.9195
3.17895
7.47016
10.1273
8.45731
7.33006
6.82414
6.34081
5.96935
6.03876
6.20293
6.30756
6.34665
153.774
133.051
104.993
85.0954
75.0636
62.9213
39.4662
21.7808
18.8457
21.4471
15.406
11.0708
6.65025
6.0312
6.12953
6.30788
6.33552
6.34883
6.35814
6.35906
97.5233
150.818
139.81
97.12
74.7076
65.1724
52.4591
42.8122
22.0038
22.9108
16.7539
12.5732
8.18115
6.67043
6.65381
6.66927
6.5545
6.46741
6.42617
6.3876
237.604
172.567
90.6839
58.7538
51.4488
27.5284
22.5483
30.5626
26.0845
16.8719
12.8837
10.1515
8.9064
7.74904
6.95925
6.62779
6.48302
6.40279
6.38008
6.3659
271.465
113.734
63.9206
56.1801
54.7648
35.0591
24.7867
22.9074
20.8078
15.6914
11.6916
9.19373
7.86276
7.01774
6.68423
6.49258
6.41165
6.36699
6.35653
6.35482
205.613
99.5766
82.4007
102.315
71.6819
42.6822
26.2499
23.7181
18.417
13.7055
11.1683
9.74916
8.27593
7.24696
6.77371
6.51295
6.40935
6.36257
6.35258
6.35183
144.625
128.98
115.204
83.4546
47.4591
36.1395
29.5723
26.0754
18.831
12.3596
7.82256
6.8078
7.07213
7.13544
6.90198
6.54984
6.41246
6.362
6.35067
6.35027
192.27
128.602
71.6434
48.7029
33.7941
26.0296
22.4389
16.4896
9.4503
6.91698
5.86299
6.17789
6.6223
6.6899
6.56497
6.43559
6.3769
6.35149
6.34714
6.34837
148.715
93.9057
50.6531
33.5299
33.9657
31.1839
22.427
18.1103
12.1589
9.67042
7.9333
7.26549
6.8387
6.6269
6.4787
6.40765
6.36897
6.3479
6.34484
6.34649
124.633
96.4661
55.3943
32.1875
17.5768
16.4494
14.3982
12.397
11.2468
8.91971
8.04824
7.1016
6.7902
6.46212
6.36145
6.26397
6.24473
6.22526
6.23041
6.24856
16.0177
16.146
11.9907
5.91937
3.12448
1.69396
0.844896
0.329689
0.128202
0.0744108
0.0615029
0.0578666
0.056583
0.0564976
0.0565416
0.0567808
0.0569032
0.057068
0.0571102
0.0571712
67.4838
81.2285
74.6268
55.0762
38.8349
23.9242
13.7102
7.30643
3.79429
1.86592
0.845028
0.336315
0.123865
0.0662635
0.0582611
0.0573528
0.0572225
0.0571985
0.0571933
0.0571952
248.737
175.221
122.593
96.4249
95.7471
89.4301
80.1352
51.1465
20.0551
7.07691
5.34139
5.75719
6.01064
4.57198
4.34362
4.77821
5.46798
5.78277
6.01133
6.18899
174.515
147.606
108.105
75.9479
63.3181
63.4317
68.533
67.8527
65.2582
49.7622
29.4876
16.7561
9.73426
6.93725
6.37532
6.35468
6.38617
6.39273
6.39547
6.39591
93.2364
114.09
106.364
83.6712
60.6724
63.1615
62.8791
49.2371
38.0725
25.0782
16.6308
10.947
8.14242
6.91825
6.59483
6.48471
6.43935
6.40547
6.39781
6.3961
158.468
114.932
95.2338
81.0384
63.3949
62.2694
58.1546
38.6405
26.2371
16.5284
11.1268
8.20428
7.15479
6.68022
6.55837
6.47476
6.44269
6.40924
6.40173
6.39912
340.679
235.375
114.657
85.1388
69.3607
65.7052
64.1532
44.306
23.8014
13.7157
10.2483
8.04758
7.25229
6.81108
6.59862
6.49391
6.44509
6.40878
6.40155
6.39875
351.897
139.13
105.94
103.747
95.7752
69.3807
70.3628
55.3015
30.4443
11.9891
10.1548
9.054
8.03071
7.13523
6.8091
6.58956
6.49015
6.42578
6.41013
6.40654
192.85
94.2489
70.347
59.7011
53.6054
50.7359
50.8309
43.9252
26.0632
28.8968
16.7681
13.1605
11.3367
8.91627
7.79772
7.13362
6.73924
6.52841
6.4485
6.41358
150.2
110.371
56.1086
61.2049
48.7835
47.56
50.7868
39.8443
45.0755
13.103
16.1964
11.6799
7.92608
7.30265
7.02006
7.81632
7.29758
6.73887
6.52757
6.43831
284.009
122.306
80.1868
93.1299
64.0585
39.9832
39.1648
38.3848
5.65826
11.7385
18.8833
8.78084
7.22018
6.70544
6.64629
7.8414
7.27923
6.70063
6.48461
6.41475
195.815
182.13
143.564
112.023
90.945
57.4523
36.6575
25.2271
26.6319
17.5755
11.977
9.5
7.4169
6.65549
6.47853
7.89548
7.32306
6.71965
6.49283
6.41775
169.07
155.822
144.162
113.404
86.9467
50.8753
35.5351
24.32
26.5703
28.4192
22.3019
12.8304
7.9053
6.66398
6.65881
8.03477
7.47857
6.81583
6.55219
6.44616
534.657
168.393
96.9164
71.3446
59.3348
34.5764
25.4809
33.7316
31.3725
18.2721
13.8907
10.5886
9.13284
7.84509
7.3046
6.88948
6.63332
6.48906
6.43785
6.41779
168.021
126.627
83.3861
55.5731
57.3676
43.1374
33.9939
30.8048
22.6207
14.6949
10.6491
8.5259
7.53225
6.90632
6.69149
6.5349
6.46461
6.42053
6.41021
6.40862
201.87
98.2866
60.5191
48.5669
49.6013
34.315
31.099
25.9483
19.1181
16.0167
11.585
9.16872
8.02471
7.25036
6.8033
6.56181
6.46634
6.41894
6.40824
6.40657
157.83
166.833
91.0517
60.3504
38.6163
30.453
28.9841
25.7414
17.6237
11.9878
9.7289
8.9515
8.21973
7.42098
6.85549
6.57627
6.46646
6.41874
6.40745
6.40619
197.252
87.8724
65.1434
59.2776
47.3186
33.4816
34.7865
24.1593
13.4193
9.90554
8.43688
7.75599
7.23216
6.84813
6.60209
6.48909
6.4372
6.4097
6.40453
6.40499
188.604
79.8453
38.5175
24.9395
16.0103
14.6697
19.1901
17.7777
15.378
12.7609
9.70108
7.9935
7.11784
6.73245
6.55161
6.46843
6.42996
6.40582
6.40215
6.40344
155.376
66.8263
25.078
8.06145
5.42825
7.48766
15.2062
14.5442
15.8265
15.1492
12.4532
9.33269
7.80639
6.86681
6.53127
6.34486
6.3079
6.28311
6.28837
6.30707
12.7513
11.8914
8.60509
4.43452
2.34368
1.08616
0.470204
0.193046
0.130084
0.118526
0.103685
0.0794126
0.0656078
0.0593237
0.0573867
0.0570314
0.0569945
0.0570573
0.0571077
0.0571731
108.993
102.236
88.352
68.1664
49.6795
31.7302
18.2714
9.72821
5.16647
2.71573
1.36642
0.607676
0.232075
0.0927216
0.0618689
0.058531
0.0588867
0.0597784
0.0605396
0.0605154
365.686
218.251
181.749
145.878
153.19
132.049
126.163
107.878
83.7323
33.1817
16.2097
17.5078
41.0851
51.3323
58.6441
60.6743
63.7426
64.0404
64.585
64.6269
304.784
192.948
187.418
135.365
146.04
135.268
139.089
132.001
130.41
110.02
87.4843
71.3503
70.1934
67.4988
67.6554
66.7524
66.7934
66.005
65.7626
65.2511
191.064
186.181
186.48
135.239
132.496
113.067
113.155
90.8898
83.5167
67.739
67.0318
62.634
63.2592
62.4521
63.3642
63.2346
63.8
63.6295
63.8222
63.9062
192.63
158.245
159.083
122.774
126.493
106.739
109.042
84.7524
78.3357
66.952
66.5437
63.0445
63.4636
62.2432
63.124
62.907
63.5274
63.4564
63.7307
63.7738
290.718
156.403
167.976
130.608
133.232
98.2336
99.34
71.1421
61.3963
57.4337
56.0848
55.9557
56.525
57.9651
59.0167
59.5233
60.7122
61.2109
62.0376
62.5721
186.78
168.279
183.952
157.488
161.523
127.885
117.971
80.9524
55.8006
45.0495
44.5115
45.5748
50.853
52.2958
56.5265
57.6352
60.1878
60.9363
62.0415
62.422
273.118
167.933
158.499
108.961
131.677
112.945
99.4677
70.845
54.5673
39.3393
34.3214
19.8572
20.5111
17.9164
63.5432
60.4057
60.2861
60.4783
60.8342
61.4972
239.614
154.233
147.126
103.982
95.3856
78.8168
89.5417
53.352
60.679
31.5522
26.7884
11.8543
8.31507
7.99511
33.9648
66.364
61.0092
59.1677
59.1182
59.7917
200.753
152.393
145.206
92.3739
90.5452
61.2893
64.6228
40.3174
26.8745
32.3556
28.3132
13.2326
9.98994
8.20238
34.395
66.0239
61.0498
59.5576
59.5855
60.1402
185.709
205.955
179.994
109.08
102.09
48.3556
45.3506
38.7661
42.6669
42.5555
25.9213
17.0529
11.786
9.67842
36.1294
66.413
61.3699
59.6855
59.6357
60.0006
260.013
227.04
199.181
137.294
127.559
69.8819
58.4919
58.9244
47.8519
37.7155
25.566
19.1542
10.948
9.28324
37.4959
66.8048
61.8599
59.9044
59.8597
60.233
358.165
203.143
157.349
117.005
132.109
73.8271
48.2485
51.5745
48.96
35.0606
27.6062
21.6573
19.8329
19.933
66.7682
62.8012
61.8906
61.4599
61.6347
61.7174
268.992
173.197
143.102
115.66
129.642
84.3109
94.8429
77.4009
72.6504
59.8142
59.6511
57.6754
59.8385
59.8314
61.8397
62.0965
63.0338
62.9275
63.1087
62.8194
410.754
157.326
100.634
129.095
107.25
64.7101
89.6664
73.7778
75.6938
67.6378
64.5849
59.0776
59.0593
60.3237
62.8278
62.9489
63.4432
63.098
63.1349
62.7812
530.645
197.227
124.209
103.842
110.739
75.1458
90.9935
75.5894
78.4519
68.1369
65.7797
59.3651
61.0229
61.4684
64.0188
64.0476
64.5918
63.8929
63.8186
63.32
270.379
140.732
81.8355
74.3864
66.7458
43.241
70.7118
52.8486
64.1991
54.5696
59.5107
57.2774
61.336
61.7035
63.742
63.3906
63.8723
63.2912
63.3455
62.9869
176.58
31.3992
8.10489
3.58372
2.23511
2.62909
49.8038
48.4412
64.4347
59.7824
64.7628
61.3532
64.154
62.8372
64.4243
63.6115
64.1914
63.5347
63.6595
63.3157
61.9923
22.7212
4.6521
1.88732
1.58552
1.11957
11.8456
20.0084
51.8173
47.7426
59.3425
56.993
61.8889
60.8317
63.0468
62.39
63.3101
62.8143
63.1697
62.9341
5.76345
5.42297
3.24838
1.56379
0.949153
0.437651
0.199853
0.112058
0.147652
0.169338
0.228551
0.228371
0.254063
0.225054
0.210963
0.159871
0.141966
0.101748
0.0933058
0.0754848
10.2265
21.5183
16.1085
11.6644
12.4504
16.2808
12.4197
8.9052
14.5409
12.7908
12.1338
8.97711
11.3872
10.4385
16.6022
21.787
18.7029
16.9997
13.6806
24.8881
23.0951
13.0314
16.8847
12.3387
11.7178
8.36596
21.3188
14.2182
0.880863
2.27741
0.765555
14.6446
3.72998
7.45616
2.8886
0.712303
0.684218
0.801537
4.39899
11.3351
5.86378
5.98297
0.71989
0.86794
0.927858
22.7454
9.0365
3.45315
4.0542
0.740652
0.912354
0.684533
5.11338
2.75523
5.31596
3.78983
0.723592
0.674109
0.705265
2.64658
4.09905
2.78137
2.61259
0.674584
0.708493
0.6911
5.56849
7.2968
3.46226
6.12995
0.669263
0.678947
0.669393
7.50429
7.4375
6.42568
6.57628
0.671047
0.669188
0.706833
7.38098
7.46475
6.57035
6.47425
0.953503
11.914
4.48635
8.47155
3.00523
12.4898
11.0217
1.01003
4.46437
3.26577
3.20808
2.99715
9.64617
5.17255
1.17507
2.52325
2.35548
2.77973
6.66036
3.90342
5.80237
0.75225
2.34142
1.4547
9.96461
7.28605
11.9314
17.7018
0.68216
1.04723
0.687666
4.33912
2.82313
16.7112
5.22804
0.697469
0.683861
0.687593
3.17381
5.9974
4.4022
5.39971
0.669527
0.685316
0.66908
6.38387
6.6165
5.9567
6.4232
0.706178
0.668451
0.704293
6.61032
6.50472
6.43879
6.43231
14.9934
53.1185
37.0213
22.311
16.1194
27.3849
22.0176
4.77203
26.3789
5.58361
13.7347
9.01061
25.9714
28.7996
2.67129
3.81194
2.78546
6.83851
8.65954
20.7591
18.696
1.72481
2.70564
1.71729
14.399
18.2002
19.2411
19.2077
0.705974
1.25099
0.714648
17.4919
7.02107
18.9094
13.0731
0.690804
0.699642
0.696785
5.61478
5.51139
10.8432
6.98141
0.668598
0.688752
0.66946
6.00293
6.41858
6.68261
6.50798
0.704049
0.668638
0.703012
6.43387
6.42945
6.48481
6.45495
39.3975
72.7571
33.7571
26.9946
26.9215
35.1062
41.9711
4.57085
17.1162
4.22752
42.1883
25.6938
42.7308
31.5515
2.72853
2.97785
1.62146
17.9608
19.4342
24.7577
17.7751
1.07853
1.23782
0.70177
19.4639
18.5009
15.2216
5.59886
0.686982
0.668444
0.646183
17.9156
12.7304
4.75719
5.26777
0.690436
0.646142
0.646786
10.7751
7.17328
5.79262
6.90298
0.669521
0.645906
0.642146
6.81644
6.57055
6.90817
6.7548
0.698964
0.641659
0.636452
6.55642
6.50149
6.67525
6.82085
23.1432
19.8339
7.02136
50.7194
34.4777
36.0526
20.6303
30.1385
17.0299
5.41581
31.392
39.6412
18.6266
4.93266
15.3661
3.21335
3.27764
35.9143
2.69626
3.22944
2.54917
3.16066
4.79692
3.82751
1.96689
2.06518
3.05548
7.91079
6.76618
3.61159
6.45783
3.77861
10.5699
8.59657
8.55469
7.75628
7.01376
7.21368
10.0353
7.8613
8.06567
7.19889
7.33038
7.04493
6.66582
7.79746
7.34097
7.04924
6.6905
7.23432
6.61003
6.47941
7.28123
7.19785
6.62658
6.51382
4.43889
21.5982
12.7943
28.7044
17.0679
26.6127
19.4506
3.08457
10.2141
3.86465
13.5027
5.07467
14.3886
7.07343
5.5953
3.53406
10.801
3.23383
4.42744
8.16363
19.4619
6.91603
14.6628
17.8966
6.52538
9.65306
20.445
16.081
6.58961
16.8747
8.3443
9.60171
8.74734
14.3539
11.8829
7.44911
7.98799
7.61493
8.33668
7.39492
10.8631
8.20102
6.72936
7.22787
6.61031
7.21809
6.78158
7.81572
7.06747
6.51398
6.53327
6.42777
6.70307
6.58022
6.92587
6.80236
20.1254
46.045
28.7315
39.719
28.6972
56.8232
52.7366
6.29736
25.3945
23.271
23.0906
16.7035
48.1035
22.7976
13.7738
19.0511
19.7758
15.0543
20.488
21.2307
23.4332
17.6572
19.6647
17.8226
20.6913
16.0818
21.4528
17.6756
10.0348
17.6133
14.0711
14.7742
13.0722
15.8962
12.5013
7.86703
12.2701
8.68172
11.8374
8.25816
12.2146
9.02016
6.61239
7.90049
6.71269
7.72345
6.82819
8.04657
6.7182
6.43957
6.57484
6.45979
6.69357
6.59229
6.57869
6.45705
24.4375
37.3552
32.7631
49.6871
40.5747
43.523
37.8316
21.2291
33.374
31.6722
39.159
19.6305
37.7073
35.6091
19.9966
26.5405
17.5729
20.8764
24.2945
30.4415
17.8404
19.3086
15.3179
11.2453
22.303
17.7613
15.7406
12.9033
14.5408
10.5376
9.39304
16.5254
13.7464
12.109
10.419
8.70157
9.1264
8.35812
13.2841
9.14406
9.91955
8.75836
6.77983
8.23356
7.57959
8.13117
6.79409
8.53955
7.78645
6.49949
7.37734
7.04658
6.66908
6.49766
7.56097
7.14257
36.6362
43.3465
21.923
53.8748
41.627
42.7835
39.3407
42.9379
16.94
5.38563
41.0369
47.562
31.4609
6.89572
2.60804
3.35737
2.58785
43.2886
11.1695
4.30051
5.78269
2.84658
3.19931
9.27125
11.8116
14.2047
9.41993
12.717
11.08
9.58385
8.70265
14.3179
12.0482
12.7782
9.22343
7.95437
8.13737
7.26234
10.4367
7.94759
8.3058
7.23507
7.34788
7.09333
6.73232
7.86945
7.34831
7.0768
6.7287
7.22036
6.6646
6.54126
7.30123
7.22605
6.6607
6.53516
24.5273
30.8436
18.0842
37.331
41.0481
41.4
16.4235
4.98075
12.4512
9.40046
35.8211
5.49284
16.355
22.0583
4.53729
12.5131
22.2732
4.81913
10.284
22.9621
17.8973
13.3454
9.55612
12.6223
9.30104
12.6632
10.7947
13.456
9.91737
9.88705
10.9683
10.9037
10.2171
10.2575
10.8624
7.53375
11.2127
7.94932
8.33625
7.35849
8.95864
7.11137
6.90093
7.27915
6.32499
7.21629
6.88129
6.73132
6.14347
6.67637
6.26658
6.88401
6.80908
6.66187
6.10604
6.72389
25.9492
53.764
58.5618
40.4111
27.0573
32.0245
21.5849
19.4966
56.3326
22.3987
24.5649
26.2971
21.8596
27.2547
23.653
22.8863
23.3788
27.0394
19.4185
26.5713
24.5251
17.2116
18.9099
20.8254
20.5632
18.0003
0.90763
19.67
11.5664
14.9653
14.4501
0.700533
14.2819
0.655956
11.9723
7.18912
11.8582
9.02097
7.40163
5.89313
12.3257
8.61495
6.03771
8.08431
6.73337
5.82381
5.74296
7.82666
6.7008
6.50688
6.59175
6.4548
5.76638
6.36857
6.57815
6.45839
46.1198
43.8749
39.8374
41.3858
24.3889
41.3197
32.3509
19.4182
37.3327
36.7438
22.3255
25.4248
30.983
37.0881
24.8259
30.4735
18.3168
25.1769
28.0445
35.5277
22.5986
18.1101
16.0536
13.0351
27.3198
22.1611
18.4857
14.6118
13.2689
12.3166
10.5577
20.8501
14.5239
13.6852
11.125
9.16102
10.0179
8.73456
12.6745
8.75616
10.3379
8.83503
6.7993
8.52175
7.75143
7.93609
6.77434
8.59844
7.77843
6.49568
7.52766
7.12613
6.66073
6.49784
7.54308
7.13016
41.0664
41.1552
42.7201
68.9262
40.8562
57.2138
41.2035
47.4737
39.3408
7.95086
40.9959
48.4345
44.1048
24.8953
14.0769
5.13709
8.34812
49.6459
35.8822
20.7739
22.219
15.7675
10.2929
19.3733
32.2369
24.9951
24.4272
21.9553
14.1641
19.9279
11.0109
22.51
13.8855
21.1624
11.2801
8.03996
9.02064
7.21893
11.5844
8.09943
9.18616
7.17268
7.34284
7.05211
6.68892
8.01171
7.42006
6.98172
6.6563
7.22228
6.62466
6.51741
7.33031
7.19618
6.60612
6.42849
42.3094
42.0814
19.1137
50.6177
41.3642
43.7322
34.9545
6.36472
17.7455
21.4584
40.7894
20.5557
29.4287
27.6491
10.6637
21.4114
18.1645
18.2686
23.4552
28.4301
24.7964
18.9961
17.3329
13.876
24.3053
21.972
23.4373
17.0677
10.0673
12.3753
10.3199
21.1631
10.8212
15.3655
12.7173
7.39295
9.55837
7.90451
9.23492
7.45568
11.5665
8.29846
6.78354
7.66219
7.03708
7.19247
6.72246
7.5867
6.64412
6.59735
6.90648
6.80314
6.65831
6.47073
6.54779
6.34347
26.8864
30.9609
24.1466
37.3684
31.8672
53.9267
63.8782
26.8874
25.272
28.9246
30.929
32.4669
60.9537
30.8381
19.3412
27.1782
24.7908
30.7173
23.8264
25.3964
23.0311
13.1179
25.7081
24.8392
23.1348
17.7941
25.9666
27.58
10.3106
23.1174
15.0447
16.9455
13.1748
26.673
18.7383
7.68614
12.7352
8.56981
11.3887
7.96751
15.3255
8.75664
6.77198
7.78273
6.68358
7.38326
6.61861
7.81127
6.66934
6.59177
6.56451
6.46002
6.53666
6.3731
6.55901
6.4015
24.217
39.0696
30.3707
52.6984
67.2212
37.8236
37.8453
27.6532
30.4594
39.0117
66.6295
33.9929
40.3661
44.9715
28.8608
40.1004
27.3623
26.8166
26.0031
42.681
37.2494
23.0773
20.6283
13.7418
29.3454
22.4405
31.5391
16.374
14.9737
13.0907
11.3279
22.1971
17.827
14.1436
11.892
8.70629
10.552
9.01345
14.8101
8.86321
10.9399
9.2253
6.77535
8.73379
7.82988
7.93183
6.76849
8.93753
8.01454
6.50033
7.57995
7.12731
6.66345
6.40863
7.74858
7.15477
46.1763
71.0682
45.9645
173.402
115.203
200.001
167.239
61.8232
42.955
31.0936
119.756
163.56
163.058
181.163
33.7443
28.0429
27.2836
185.633
167.538
187.889
184.217
28.3624
27.8923
32.4873
160.38
165.635
178.766
172.47
14.7878
30.2904
13.446
175.832
183.331
176.317
180.849
8.21535
11.5692
9.34125
181.289
186.348
181.259
184.748
7.98075
8.88147
7.9536
189.763
194.763
186.793
191.458
5.20865
7.83741
3.34339
193.996
198.696
192.547
203.354
40.234
52.6214
38.9292
213.926
216.181
211.296
240.447
27.625
33.9762
34.6839
205.831
197.795
228.632
209.179
29.0341
35.469
38.0469
197.681
188.57
205.165
189.496
32.9983
35.5479
22.6496
181.374
173.913
185.027
179.492
14.3644
20.5158
18.5079
176.27
180.331
178.905
180.069
10.7816
17.7645
13.5296
181.317
184.428
181.315
183.453
8.42607
12.3593
10.166
185.855
190.03
184.099
187.352
3.39356
9.81159
3.66161
191.359
202.731
188.681
198.49
38.6721
56.3801
54.4872
187.19
238.688
149.543
225.595
40.6458
48.9461
44.1438
228.011
210.099
223.613
188.791
44.4271
48.5523
48.0417
201.71
183.261
181.35
178.575
31.0781
41.7697
32.5363
182.626
180.313
178.65
178.821
18.4924
31.2553
22.953
179.685
181.233
179.549
181.722
12.683
20.1994
12.398
182.141
184.029
182.229
183.111
9.94076
10.9547
9.0909
184.497
187.444
183.616
185.836
3.6586
8.93605
3.51996
188.622
198.541
186.827
196.257
66.4359
50.1804
46.906
161.087
239.11
192.746
229.823
47.2399
48.5248
41.4576
232.691
189.91
219.801
185.489
40.065
41.1622
39.2733
185.765
187.355
192.812
216.923
27.6587
35.9022
21.0197
184.128
174.703
208.195
184.813
21.2493
18.3695
14.592
175.142
179.977
184.785
191.025
12.2148
13.2802
10.1245
180.965
183.54
187.203
188.694
9.41246
10.0744
10.0489
184.205
186.125
190.14
191.774
3.65787
9.8661
5.04684
186.846
195.915
190.672
197.048
12.8611
10.2059
11.822
11.1649
12.4099
11.2287
11.8652
15.9693
18.3254
19.9632
20.6991
17.8007
18.4381
0.685448
13.2331
14.2459
17.7242
0.71966
16.2287
11.2172
0.828409
13.4317
11.0159
12.2317
13.7534
11.8189
14.0132
13.2697
12.6604
11.8022
12.472
12.1255
11.9301
11.672
12.7685
14.2455
17.861
14.8155
14.4921
16.6484
0.54763
14.0095
12.0175
0.598416
11.9609
13.4253
10.485
0.666709
12.8755
9.22902
9.38241
9.30298
8.93869
9.70082
9.53433
8.76752
8.3699
12.7587
13.7323
0.644693
11.7987
9.33417
0.602541
6.84998
10.9975
13.0133
3.74285
11.5005
6.1995
0.400473
9.88402
11.3407
10.9693
11.2152
10.3247
10.8247
10.2652
9.23103
8.88722
9.78885
8.9674
9.52741
8.72895
9.54832
7.68709
0.553159
10.7841
11.1916
8.7354
0.523762
10.0202
6.4035
2.06844
8.914
10.511
5.84334
0.358274
9.4781
14.7076
17.0784
14.926
0.763675
15.9701
0.821367
12.89
19.5781
20.6499
20.7065
22.5925
19.3848
20.6947
21.8187
18.4524
17.1453
19.8998
19.8964
18.3758
17.3817
20.9716
16.3309
18.0517
15.799
17.3871
0.755456
18.2587
16.0115
14.264
0.66286
14.5282
14.0019
0.728285
12.6822
14.9947
19.599
23.484
20.0229
24.7039
20.5566
23.1311
19.2826
18.3279
21.4211
17.0216
24.2102
17.1915
22.6202
18.2338
11.5934
13.2782
13.2542
2.98031
13.8998
0.573266
11.3233
14.3624
15.5875
14.7794
18.2164
14.0773
16.009
16.0293
13.1284
12.5401
13.1304
12.7671
13.0322
12.4116
14.0537
11.1461
0.605327
10.687
13.0417
0.559052
11.8259
12.2418
11.1033
1.30428
8.19459
11.2354
0.486956
10.7703
11.718
15.0112
19.6941
16.1207
19.1096
16.23
17.5701
15.287
13.7738
13.4777
12.9324
16.5754
12.7076
15.3295
14.1984
0.517159
1.21734
0.618118
8.89058
4.68242
7.11691
3.67685
0.686863
0.518612
0.445947
1.96286
1.27604
1.03126
1.80445
0.317844
0.354074
0.363024
3.60317
7.49292
6.19479
4.41488
0.375452
0.372289
0.417257
7.87928
5.47964
3.84926
5.04096
0.354727
0.430706
0.444114
5.12199
6.75682
7.30985
8.39508
0.338831
0.444354
0.421219
10.4883
10.4491
9.10179
9.24794
0.312594
0.363217
0.331762
8.77004
7.92586
9.12014
8.762
0.305908
0.31388
0.316422
7.54487
7.49666
7.9935
8.91414
1.83308
2.64683
1.43631
4.44312
5.3405
5.84
6.42661
3.77115
1.89005
2.28585
3.77957
3.54872
3.91213
1.66908
1.62293
0.778773
0.701544
0.742047
0.741072
1.04637
0.71723
4.61172
0.718396
0.779581
2.82975
4.22869
5.33216
0.776568
3.5365
0.66192
0.713402
3.50619
4.0775
3.27437
0.68921
4.42522
0.756838
0.729502
4.80901
4.49487
4.61579
0.733069
3.99048
0.673846
0.705509
4.51904
4.78499
3.96682
0.697083
6.25029
0.67295
0.672826
6.70093
6.94324
5.67254
0.670566
6.99802
0.667924
0.669441
7.03969
7.05413
6.93489
0.669562
0.313824
0.292819
0.302247
6.85917
7.05664
6.46797
7.53985
5.1771
18.5118
9.08723
17.7765
11.6217
17.3539
12.7738
4.30592
2.4304
5.57113
4.13381
3.8169
4.82546
3.43187
3.64972
0.828026
1.3955
2.76764
3.14641
3.56966
1.43788
5.4886
1.06357
1.31992
3.0875
3.49993
4.26795
1.38408
6.86158
1.10839
1.55874
4.40787
4.20786
7.21757
1.49939
3.52201
0.674475
0.755468
3.51216
3.43327
3.85171
0.690826
3.32336
0.703292
0.681435
3.4737
3.54252
3.31591
0.691348
5.09368
0.675236
0.685909
5.11907
5.83353
4.16926
0.676561
6.77242
0.668973
0.66936
6.71717
6.74835
6.61729
0.669003
0.303046
0.290398
0.30149
6.44519
7.46452
6.42263
7.41682
22.1065
33.6958
28.0973
26.6549
24.6287
31.2409
28.6349
23.2906
26.9739
39.9945
20.3839
20.0622
22.3108
35.3595
57.2114
10.7954
20.8963
26.9802
33.0041
49.463
14.6
18.7204
2.62161
3.61219
20.1514
16.0204
26.1555
2.91823
19.9043
2.61598
2.79824
17.4369
18.6373
18.719
2.76087
6.91368
0.898142
1.34114
9.45187
6.49808
10.6662
0.96225
3.85503
0.692919
0.697593
3.8723
3.66127
4.09458
0.696462
4.36496
0.676326
0.684962
3.79468
4.43933
3.8867
0.675788
6.66387
0.66797
0.668181
6.34311
6.62119
6.38088
0.668133
0.302449
0.292041
0.303622
6.38776
7.3845
6.39671
7.46105
41.4382
54.842
42.8853
34.1529
30.4625
38.1714
36.995
47.7154
59.5029
69.8394
41.1704
42.3507
46.2362
62.0991
46.2885
14.7485
28.1252
59.4185
49.6224
50.3451
14.5977
18.1705
2.97508
3.26587
17.1072
16.2536
18.993
2.96598
10.2883
1.87997
1.64205
17.412
15.8861
15.2799
1.20986
2.49967
0.759713
0.711129