/*--------------------------------*- C++ -*----------------------------------*\
  =========                 |
  \\      /  F ield         | OpenFOAM: The Open Source CFD Toolbox
   \\    /   O peration     | Website:  https://openfoam.org
    \\  /    A nd           | Version:  10
     \\/     M anipulation  |
\*---------------------------------------------------------------------------*/
FoamFile
{
    format      ascii;
    class       volScalarField;
    location    "0.7";
    object      omega_0;
}
// * * * * * * * * * * * * * * * * * * * * * * * * * * * * * * * * * * * * * //

dimensions      [0 0 -1 0 0 0 0];

internalField   nonuniform List<scalar> 
12920
(
7.15069
8.8017
17.2455
11.3484
8.80528
5.38654
3.24576
1.74177
0.890219
0.482244
0.328286
0.272303
0.234691
0.196727
0.166402
0.151745
0.147586
0.146762
0.146607
0.146582
31.5552
22.4651
21.4778
8.40898
4.45739
2.68713
1.57619
0.816455
0.443915
0.289686
0.233979
0.20029
0.175273
0.160041
0.151041
0.147625
0.146806
0.146647
0.146602
0.14659
62.892
36.6581
24.5247
7.45681
2.86657
1.32184
0.823037
0.673297
0.563551
0.379322
0.242643
0.17666
0.154568
0.148777
0.147158
0.146751
0.14666
0.146643
0.14662
0.1466
22.0305
23.8889
26.4141
14.5669
4.18156
1.14563
0.629878
0.554216
0.383481
0.248818
0.175279
0.15254
0.147815
0.146901
0.146695
0.146654
0.146637
0.146632
0.14662
0.146605
39.8284
30.1435
17.9735
7.42586
2.4344
0.731075
0.433377
0.340723
0.235196
0.178726
0.154653
0.148321
0.146945
0.146691
0.146644
0.14664
0.146636
0.146631
0.146616
0.146599
67.0576
35.2088
9.08684
3.29388
1.791
0.542362
0.815385
0.503914
0.266117
0.177997
0.154055
0.148518
0.147198
0.1468
0.146666
0.146635
0.146625
0.146622
0.146615
0.1466
76.279
35.5883
4.1397
6.30345
2.8993
0.84275
1.27466
0.666594
0.265867
0.175249
0.173769
0.168991
0.15799
0.150553
0.1473
0.146325
0.146108
0.14613
0.146298
0.146494
46.2722
87.674
41.5895
11.5928
4.73113
1.37393
1.27294
0.790084
0.314564
0.393657
0.350915
0.350554
0.321013
0.308457
0.148185
0.142804
0.141205
0.1412
0.142055
0.14469
78.7801
66.9642
44.6621
11.8549
4.00447
2.5851
2.28342
0.786412
0.709572
0.673367
0.75776
0.69095
0.674881
0.66759
0.305572
0.134296
0.134365
0.135625
0.138635
0.143038
108.963
77.4423
66.2752
45.112
21.575
14.2661
4.34152
0.822387
1.02982
1.15977
0.687746
0.697643
0.68304
0.668905
0.291421
0.129973
0.130874
0.133892
0.137277
0.142395
104.496
57.2207
46.6209
30.4801
22.6306
29.3615
33.5867
13.1004
3.06015
2.66088
1.18765
0.693443
0.684852
0.667799
0.291467
0.129907
0.130841
0.133947
0.13731
0.142409
188.278
98.7253
67.0518
46.8899
35.4676
51.3658
67.5645
25.5458
3.2493
2.38471
0.864618
0.684121
0.68415
0.668695
0.30268
0.137596
0.136718
0.137079
0.13884
0.143088
228.069
76.5386
54.2668
37.6761
28.445
18.614
19.1515
5.05115
1.36875
0.721298
0.384604
0.324867
0.315332
0.30778
0.14994
0.143631
0.141842
0.141822
0.14264
0.144981
133.945
85.9543
71.5279
65.9653
55.9368
39.1114
20.11
8.20716
2.73752
0.903892
0.411151
0.267423
0.1944
0.161532
0.150118
0.147239
0.146591
0.146509
0.146525
0.146586
228.048
123.622
86.3618
70.9723
58.782
42.2443
24.706
10.5168
3.63958
1.31201
0.674107
0.433492
0.280108
0.195565
0.159407
0.149205
0.147073
0.146707
0.146642
0.146626
92.9298
92.5617
91.3907
71.6158
46.4734
29.4526
18.48
8.83691
3.4445
1.3375
0.682438
0.445323
0.301147
0.206631
0.162562
0.149674
0.147111
0.1467
0.146643
0.146629
116.215
101.847
76.9382
40.8273
19.2057
9.9233
7.08792
3.74706
1.85677
0.922131
0.533652
0.327146
0.215742
0.164074
0.149906
0.147108
0.146696
0.14664
0.146628
0.146622
69.8186
65.9577
64.1641
43.1246
22.0042
12.2146
7.37833
3.82264
1.7816
0.752783
0.329632
0.187168
0.154879
0.148127
0.146918
0.146684
0.146639
0.146621
0.146619
0.14662
31.2341
30.9284
20.8374
18.2887
13.9908
8.46913
4.35969
1.70151
0.636838
0.244065
0.162252
0.148602
0.146684
0.146462
0.146513
0.146594
0.146617
0.146618
0.146614
0.146614
13.5871
14.5716
13.982
11.5135
9.78115
6.54991
3.4667
1.42597
0.509197
0.208314
0.152819
0.147134
0.146631
0.146602
0.146608
0.146618
0.146617
0.146605
0.146597
0.146601
4.61615
14.8491
21.4834
14.003
9.45064
5.58464
3.35375
1.80407
0.895053
0.419547
0.206404
0.128254
0.0996152
0.0796982
0.0660348
0.0597185
0.0577567
0.0573102
0.0572139
0.0571998
46.2594
96.0073
75.4642
20.8112
29.3023
18.2855
10.1287
8.56232
7.58955
7.76006
7.55121
6.66217
4.73169
3.70561
3.63729
4.13096
5.15496
5.63403
5.93718
6.13629
225.93
141.63
93.1155
42.0406
40.9498
32.1712
30.7802
27.9731
22.677
14.7646
9.54459
6.94539
5.79964
5.49144
5.58556
5.96598
6.21771
6.29993
6.33587
6.34759
44.9035
101.037
98.1246
40.1223
25.0132
22.3199
25.3893
22.8445
16.1122
10.6096
8.1535
6.94344
6.56719
6.41184
6.39166
6.38525
6.37898
6.35833
6.3557
6.35313
91.7478
79.511
50.4588
39.6878
37.1127
22.3281
24.1923
21.0296
15.6201
10.5844
8.34834
7.1107
6.75384
6.51928
6.47111
6.41844
6.39733
6.36621
6.35956
6.35493
137.092
139.143
61.3091
47.8006
38.2374
21.2854
27.8926
21.1737
15.5866
10.384
9.04236
7.628
7.10713
6.73744
6.54339
6.44734
6.4012
6.36795
6.3615
6.35656
178.75
109.691
52.4605
71.0774
44.6944
28.4058
32.5804
20.4794
19.8704
11.9148
10.2714
9.01711
8.00771
7.10561
6.76542
6.54815
6.44899
6.38314
6.365
6.35694
89.1898
150.075
110.146
57.6209
26.8421
23.277
32.3181
19.4517
20.9669
27.9978
17.3362
12.9537
11.301
8.92063
7.45464
6.86742
6.5899
6.44929
6.40203
6.37226
119.34
107.756
59.8711
33.3777
21.2423
24.1762
37.0724
21.4851
32.1772
10.3109
2.93942
7.75779
7.71725
7.28866
6.993
6.62173
6.52001
6.45096
6.42637
6.38993
149.718
122.058
84.1912
42.7182
33.0155
29.4961
20.8024
5.50301
2.59537
9.18798
5.21745
7.24215
7.20162
6.66254
6.52565
6.4997
6.42826
6.38018
6.3681
6.36237
141.702
106.035
74.2711
56.6048
58.2362
49.0064
32.8254
15.3592
6.31823
16.5444
16.9165
9.3762
7.33091
6.53062
6.4219
6.41266
6.39295
6.3701
6.36639
6.36296
116.064
119.809
110.245
88.0677
60.991
52.7897
35.2232
25.2513
18.3751
19.5191
19.046
12.4577
7.89375
6.66533
6.65541
6.64272
6.54187
6.46387
6.42998
6.39064
268.305
157.816
87.5125
54.8113
42.3324
23.7326
21.7962
27.2218
22.3208
15.6998
12.1043
9.76202
8.6262
7.58827
6.88031
6.5849
6.4683
6.3998
6.38278
6.36803
159.063
118.877
74.4915
97.4817
71.9316
44.834
24.7195
20.5525
19.5718
16.6669
12.3735
8.53752
6.74626
6.05849
6.02155
6.12276
6.25533
6.30752
6.33684
6.3506
297.925
130.699
124.47
130.714
107.305
70.8722
29.1076
21.2792
20.2319
18.9586
15.2966
8.10457
4.6542
4.31398
5.19279
5.95337
6.23284
6.30928
6.33992
6.3514
102.044
151.273
145.015
128.545
114.661
88.6452
38.4978
28.9171
25.4148
20.4082
11.0353
4.02997
2.17565
2.85182
4.87366
5.81883
6.1699
6.28378
6.32798
6.34744
156.76
171.16
113.141
77.1249
42.6473
41.0577
30.8435
18.0349
9.21111
3.52755
1.61951
1.6028
2.88969
4.86456
5.71064
6.12578
6.27522
6.32295
6.341
6.3502
148.748
152.537
85.2873
88.8118
49.9762
43.9629
23.5746
15.6224
8.07334
6.53007
5.31506
5.47448
5.73328
6.09415
6.23545
6.30914
6.33305
6.33873
6.34305
6.3487
138.068
96.4331
64.4862
69.4565
28.6721
24.975
10.8335
9.73072
9.03186
7.93024
7.468
6.84456
6.65579
6.41203
6.34003
6.26097
6.24629
6.22828
6.23405
6.2518
10.9459
7.72906
5.13473
3.74633
3.24167
2.21801
1.22047
0.515388
0.188587
0.080774
0.0599206
0.0571376
0.0564517
0.0564776
0.0565528
0.0567927
0.056905
0.0570681
0.0571098
0.0571709
8.74362
35.5252
43.9948
32.0308
20.6621
12.0418
7.07099
3.85251
1.95596
0.909912
0.390859
0.161281
0.0842279
0.06637
0.0603004
0.0579305
0.0573328
0.0572151
0.0571943
0.0571945
100.056
133.35
116.139
85.5605
71.5001
49.796
34.8631
16.4475
7.90944
4.6949
3.63229
3.22378
3.12694
3.21647
3.93863
4.71499
5.38754
5.72168
5.96431
6.14467
228.75
166.755
109.714
80.8646
50.8729
48.8346
46.3986
43.0341
35.3613
21.7734
12.2229
7.67457
6.25046
6.02652
6.12107
6.27508
6.33827
6.34692
6.3507
6.35137
223.328
144.519
98.9539
77.5589
38.745
33.2776
34.181
28.5813
19.6472
12.5497
9.02997
7.32321
6.8435
6.61691
6.52434
6.44685
6.40233
6.36736
6.35889
6.35506
145.896
87.3476
66.2362
78.6415
56.9517
28.2595
29.2585
25.0551
17.3118
11.4682
8.7609
7.33604
6.9021
6.60741
6.52038
6.43934
6.40411
6.36904
6.3603
6.35587
313.886
173.977
97.3386
83.9606
48.2139
24.8993
37.4924
28.5304
19.237
11.7065
9.56808
7.81701
7.18896
6.77757
6.56712
6.46024
6.40809
6.37136
6.36263
6.35758
175.021
108.806
72.9422
79.9404
60.3992
35.9011
42.8909
29.7758
22.8876
12.3872
10.6736
9.10709
8.05357
7.1418
6.78293
6.55584
6.45176
6.38526
6.36608
6.35891
190.323
156.867
73.4437
54.5814
31.5726
32.2641
41.4586
25.0923
23.7979
28.9795
18.3461
13.486
11.5481
8.95824
7.44163
6.86693
6.58836
6.44878
6.39972
6.37281
100.913
120.549
56.6403
60.7236
30.8397
27.0771
51.7661
34.5027
37.0285
1.87164
8.1023
10.1665
7.88148
7.29966
7.0018
6.63735
6.52326
6.45239
6.42377
6.38995
245.716
131.707
69.3005
67.4224
60.8333
36.8168
33.7023
18.6491
3.10065
7.56378
10.1171
8.43788
7.32305
6.82365
6.34312
5.97401
6.04307
6.20806
6.31179
6.35023
145.312
133.506
105.26
85.4504
75.2
62.8171
39.2506
21.5781
18.6987
21.2292
15.3562
10.9654
6.62735
6.03323
6.13375
6.31135
6.33905
6.35229
6.36152
6.3624
96.0794
153.618
140.723
96.6806
74.6818
65.0762
52.2553
42.1629
22.265
22.799
16.6769
12.5309
8.14028
6.66858
6.65695
6.67106
6.55667
6.47
6.42903
6.3907
226.117
172.748
89.6505
58.4154
51.153
27.2589
22.3683
30.467
25.9901
16.7979
12.8629
10.131
8.89627
7.74168
6.95731
6.62824
6.48492
6.40547
6.38315
6.36913
277.236
112.518
63.6644
55.6512
54.2797
34.5597
24.6791
22.9037
20.783
15.6288
11.651
9.16929
7.85067
7.01284
6.68383
6.49408
6.41412
6.36996
6.35976
6.35813
205.203
99.777
82.6547
101.958
71.1121
42.1552
26.1297
23.6778
18.3462
13.6444
11.1329
9.72328
8.25585
7.23842
6.77124
6.51367
6.41162
6.36551
6.35581
6.35514
143.237
128.349
115.697
83.1004
47.1873
36.0455
29.5107
25.9818
18.7104
12.2342
7.75371
6.79087
7.07285
7.13623
6.89832
6.54948
6.41442
6.36489
6.35389
6.35357
199.247
128.624
71.3772
48.6103
33.7593
25.9825
22.3143
16.4088
9.37525
6.88255
5.86208
6.19133
6.63056
6.69351
6.56553
6.43754
6.37965
6.35461
6.35042
6.3517
141.185
94.3762
50.7612
33.512
33.9369
31.1454
22.347
18.0541
12.1162
9.64775
7.92252
7.26186
6.83817
6.62777
6.48053
6.41023
6.37191
6.35107
6.34813
6.34983
126.566
96.3663
55.2674
32.0549
17.5377
16.3849
14.4052
12.4071
11.2389
8.90591
8.03989
7.09712
6.78903
6.46248
6.36327
6.26636
6.24766
6.22838
6.23375
6.25208
15.9784
16.0472
11.6073
5.72617
3.04939
1.6602
0.826045
0.321058
0.125514
0.0739129
0.0613964
0.0578356
0.0565751
0.0564972
0.0565429
0.0567831
0.056904
0.0570679
0.0571096
0.0571703
64.1428
80.4136
73.7347
54.2065
37.9523
23.2018
13.2221
7.04803
3.66625
1.80475
0.816585
0.32451
0.120098
0.06564
0.0581947
0.0573439
0.0572201
0.0571969
0.0571919
0.0571939
233.241
175.465
122.708
96.7088
96.2572
89.4868
79.8759
50.4841
19.6196
6.97571
5.34415
5.77771
5.99262
4.54833
4.34938
4.796
5.48018
5.79081
6.01763
6.19333
184.067
148.151
107.888
75.6435
63.3762
63.5875
68.6975
67.9609
65.2236
49.3455
29.1554
16.5515
9.63631
6.90916
6.37497
6.35777
6.38938
6.39543
6.39804
6.39851
87.216
114.172
105.876
83.2072
60.5887
63.3226
63.0038
49.1275
37.9577
24.9244
16.5078
10.8681
8.10633
6.90852
6.59465
6.4863
6.44142
6.40784
6.40038
6.39876
159.408
114.604
95.2454
81.1042
63.3917
62.3554
58.2438
38.5142
26.1128
16.4311
11.0644
8.17538
7.14538
6.67877
6.55957
6.47664
6.44486
6.41161
6.40429
6.40177
354.54
233.742
113.194
84.9691
69.3556
65.6251
64.0935
44.0961
23.6771
13.6484
10.2193
8.03233
7.2475
6.80963
6.59939
6.49561
6.44723
6.41123
6.4042
6.40147
337.157
136.963
106.204
104.085
95.8722
69.1299
70.2836
54.9711
30.28
11.9172
10.1413
9.0462
8.0235
7.13132
6.8084
6.5904
6.49177
6.428
6.41274
6.40926
200.102
94.1369
69.9398
59.5454
53.6629
50.7568
50.8157
43.6015
25.9946
28.8784
16.7497
13.1344
11.3209
8.90109
7.78552
7.12606
6.73649
6.52872
6.45032
6.41609
155.344
109.631
55.8346
61.3567
48.5934
47.315
50.957
40.0302
44.9364
13.1592
16.2366
11.5737
7.92293
7.303
7.02385
7.79182
7.27733
6.73287
6.52742
6.44036
290.92
122.364
80.4906
93.5489
63.9157
39.8052
39.2209
37.9247
5.61273
11.8075
18.8995
8.73355
7.21418
6.70531
6.64867
7.81214
7.25683
6.69381
6.4843
6.41685
204.457
183.515
144.069
112.423
91.0485
57.004
36.179
25.1522
26.5261
17.4772
11.9362
9.46276
7.4077
6.65469
6.48159
7.86514
7.29904
6.71217
6.49229
6.41979
159.604
155.532
144.476
113.27
86.5763
50.3175
35.1039
24.3701
26.5775
28.3825
22.2415
12.7285
7.8732
6.66273
6.66186
8.00798
7.45501
6.80798
6.55128
6.44801
524.304
161.028
96.3112
71.0431
58.9291
34.4654
25.5144
33.8376
31.228
18.1688
13.8696
10.5637
9.11986
7.83591
7.29727
6.8832
6.63197
6.48999
6.43992
6.42036
162.79
126.713
83.2253
55.4283
57.1793
43.0037
34.0609
30.8101
22.5349
14.6316
10.6165
8.50587
7.52496
6.9037
6.6914
6.53598
6.46643
6.42283
6.41277
6.41128
198.776
98.3264
60.5972
48.3661
49.414
34.217
31.0833
25.9085
19.0678
15.9511
11.5326
9.14766
8.01329
7.24339
6.80067
6.56199
6.46793
6.42119
6.41078
6.40922
156.704
167.606
89.4152
59.9427
38.3799
30.3228
28.9321
25.6812
17.4924
11.9223
9.70689
8.93982
8.2082
7.41161
6.85088
6.57582
6.46785
6.42092
6.40995
6.40881
187.34
87.4662
65.2305
59.3353
47.3032
33.4109
34.6406
23.9949
13.3459
9.88017
8.42827
7.75177
7.22822
6.84605
6.60194
6.49047
6.43923
6.41209
6.4071
6.40764
196.283
78.3507
38.4678
24.9005
16.0465
14.7323
19.1864
17.7662
15.3626
12.7344
9.67738
7.9802
7.1122
6.73125
6.55237
6.47019
6.43212
6.40824
6.40473
6.40608
154.594
66.2215
24.8957
7.99494
5.41313
7.50916
15.2754
14.5795
15.8526
15.1403
12.407
9.30227
7.79091
6.86009
6.53008
6.34582
6.30994
6.28548
6.291
6.3099
12.5474
11.7321
8.37154
4.29462
2.27672
1.0575
0.457596
0.189238
0.129595
0.11845
0.10343
0.0791341
0.0654475
0.0592652
0.0573707
0.0570278
0.0569932
0.0570571
0.0571071
0.0571722
107.196
100.415
87.4407
67.5391
48.8698
30.9399
17.6785
9.39736
5.00264
2.63523
1.32599
0.588487
0.22452
0.0906633
0.0615824
0.0585025
0.0588916
0.059785
0.0605394
0.06051
387.592
218.587
181.813
146.613
153.696
132.23
126.1
107.707
82.8376
32.3197
16.0551
17.5629
41.2198
51.2868
58.5613
60.5617
63.6098
63.8879
64.4267
64.4978
313.265
194.176
187.623
135.314
146.029
135.583
139.283
132.203
130.403
109.443
87.0282
71.1078
70.0021
67.3355
67.4993
66.5909
66.6333
65.8355
65.5978
65.1197
187.201
184.57
185.186
134.145
132.233
113.117
113.097
90.6682
83.3212
67.6012
66.8796
62.4773
63.1195
62.3078
63.2241
63.0856
63.6513
63.4739
63.6702
63.7798
203.724
159.364
159.766
123.155
126.866
107.099
109.157
84.5247
78.1436
66.8476
66.4274
62.9078
63.3319
62.1016
62.9874
62.7616
63.3853
63.3058
63.5836
63.649
299.239
155.348
167.791
130.434
133.007
97.9288
99.1228
70.9074
61.3098
57.3631
55.9868
55.843
56.4078
57.8447
58.8905
59.3931
60.582
61.0729
61.901
62.4521
194.353
169.694
185.016
158.265
162.041
127.588
117.599
80.7453
55.7917
45.0348
44.5083
45.554
50.7946
52.2251
56.4316
57.5279
60.0732
60.8078
61.9098
62.3029
257.762
168.56
158.57
109.383
131.817
112.861
99.0945
70.7999
54.3512
39.3325
34.2947
19.7246
20.467
17.8378
63.3871
60.2726
60.1561
60.3414
60.6964
61.3772
231.184
155.373
147.553
104.106
95.2396
78.7797
89.5696
53.5522
60.4799
31.4147
26.7121
11.6744
8.27503
7.94058
33.7248
66.1985
60.8586
59.021
58.9757
59.6721
204.183
152.273
145.387
92.5769
90.5065
61.0961
64.3843
40.2409
26.6533
32.2046
27.9369
12.9777
9.78642
8.07361
34.1106
65.8652
60.9064
59.4137
59.4436
60.0162
190.45
209.468
180.621
109.301
102.126
48.3829
45.2084
38.6711
42.1187
41.8565
25.3473
16.7079
11.493
9.4533
35.8115
66.2544
61.2266
59.5407
59.4938
59.8741
267.362
229.369
198.799
137.032
127.065
69.3202
58.5499
58.087
47.3384
37.4885
25.3102
18.8615
10.7193
9.09491
37.1781
66.642
61.7127
59.759
59.7175
60.1043
361.454
202.922
156.733
117.252
131.959
73.8765
48.3395
51.6033
48.8696
34.8749
27.5339
21.5258
19.7238
19.8026
66.621
62.6663
61.7559
61.3212
61.4985
61.5882
271.566
173.34
143.041
115.674
129.436
84.1982
94.8651
77.3487
72.5272
59.6905
59.5475
57.5847
59.7488
59.7362
61.735
61.9769
62.9063
62.7912
62.9723
62.6858
413.073
157.878
100.899
128.865
107.017
64.7769
89.707
73.7963
75.6203
67.4905
64.418
58.9394
58.9501
60.2454
62.7196
62.8288
63.315
62.9622
62.9997
62.6481
523.842
184.255
123.232
103.997
110.734
75.0697
90.9841
75.4942
78.308
67.9326
65.5828
59.2238
60.9273
61.3771
63.9167
63.9197
64.4582
63.7479
63.6771
63.1821
273.914
139.661
82.4215
74.566
66.8918
43.3426
70.7386
52.8663
64.1587
54.4949
59.4618
57.2046
61.2768
61.6079
63.6311
63.2603
63.742
63.1509
63.2092
62.8505
184.636
30.9158
8.03246
3.56605
2.22418
2.6494
49.9655
48.4951
64.449
59.7026
64.6935
61.2388
64.0561
62.7134
64.3055
63.474
64.0579
63.3911
63.5205
63.1759
58.3363
22.5223
4.56017
1.85562
1.55779
1.1216
12.1048
20.2534
51.9626
47.7564
59.3436
56.9094
61.8113
60.7144
62.9343
62.2558
63.1816
62.6734
63.0336
62.7956
5.74062
5.35847
3.14046
1.51479
0.926382
0.426641
0.195293
0.111109
0.148178
0.169696
0.228988
0.228354
0.253632
0.224164
0.210042
0.159027
0.141359
0.101389
0.093116
0.0753543
10.2191
21.3792
16.009
11.6922
12.4529
16.1786
12.3568
8.88344
14.468
12.7395
12.1101
8.94358
11.3516
10.4027
16.5703
21.7083
18.6126
16.8964
13.6052
24.882
23.0139
12.9622
16.7652
12.3084
11.641
8.35049
21.2034
14.0997
0.873014
2.25291
0.762241
14.401
3.73506
7.38756
2.87404
0.709949
0.683859
0.80444
4.51451
11.5876
5.78614
5.76149
0.718437
0.867655
0.922543
22.8489
8.74891
3.37835
4.07556
0.741319
0.90558
0.682771
5.02503
2.74025
5.27638
3.68014
0.722041
0.673661
0.705319
2.64356
4.19548
2.73642
2.63116
0.674276
0.708241
0.690136
5.63635
7.31733
3.53121
6.15451
0.669031
0.678314
0.66919
7.51456
7.43916
6.43885
6.57969
0.67093
0.669002
0.706637
7.38009
7.46718
6.57302
6.47667
0.950061
11.7371
4.44817
8.3883
2.98518
12.4252
10.9815
1.00927
4.46748
3.16313
3.18608
2.96104
9.53635
5.0279
1.16663
2.4718
2.33979
2.76391
6.85444
3.83235
6.01996
0.74553
2.3233
1.4246
9.96043
6.96175
12.351
17.6984
0.682671
1.02785
0.686581
4.18967
2.82121
16.5799
5.12892
0.696673
0.683468
0.68732
3.21381
6.02824
4.37361
5.44511
0.669303
0.684813
0.668836
6.40098
6.61978
5.98237
6.42838
0.705993
0.668254
0.704133
6.61283
6.50675
6.44271
6.43536
14.8677
52.8405
36.2102
22.2741
15.9861
27.1287
21.925
4.58593
25.4413
5.36387
13.5768
8.76263
26.2492
28.0333
2.65916
3.69125
2.77203
6.68902
8.91968
19.9275
18.7316
1.68792
2.695
1.68833
14.6763
18.1982
19.2542
19.2003
0.704101
1.22865
0.712456
17.4146
6.88378
18.8797
12.9329
0.690414
0.698931
0.696241
5.55663
5.54598
10.7208
6.95545
0.668352
0.687957
0.669204
6.02615
6.42358
6.67387
6.51009
0.7039
0.668435
0.702858
6.43771
6.43187
6.48733
6.45745
38.3867
72.0083
32.6302
26.64
27.296
34.8824
41.8675
4.39939
16.418
4.02503
42.4378
24.2381
42.3228
30.6202
2.71128
2.9188
1.59912
17.5549
19.4534
24.4475
17.6476
1.06418
1.22194
0.699146
19.4686
18.4653
15.0502
5.52322
0.686176
0.66735
0.645971
17.8554
12.6073
4.72725
5.2956
0.690015
0.645964
0.646573
10.6664
7.14441
5.81289
6.90766
0.669285
0.645646
0.641964
6.80496
6.57283
6.90962
6.75281
0.698799
0.641494
0.636471
6.55926
6.50443
6.67602
6.82489
23.1081
19.7068
6.95988
50.5223
34.3847
35.6672
20.2123
30.2455
16.6959
5.21656
31.5573
39.602
18.0355
4.78006
15.1789
3.14663
3.3189
35.4758
2.62734
3.14345
2.54126
3.13078
4.77128
3.76583
1.94804
2.09753
3.05473
7.95815
6.85692
3.60024
6.50516
4.00183
10.5888
8.61812
8.53825
7.75562
7.03765
7.21171
9.98877
7.85867
8.0436
7.19306
7.33002
7.0367
6.66561
7.7978
7.33966
7.04451
6.68986
7.23684
6.61036
6.48181
7.28009
7.20043
6.62683
6.51647
4.39644
21.5132
12.6586
28.4669
16.8098
26.5326
19.0416
3.03021
10.062
3.77224
13.2869
4.89465
13.9336
7.01829
5.77
3.50853
11.092
3.14971
4.46128
8.1703
19.5718
6.67473
14.8591
17.8897
6.54766
9.645
20.4315
15.9645
6.64109
16.7358
8.29884
9.59128
8.72816
14.2647
11.8373
7.4445
7.97993
7.59975
8.31729
7.38721
10.8056
8.17924
6.72781
7.21323
6.60825
7.21185
6.77955
7.80211
7.06235
6.5159
6.53332
6.4304
6.70291
6.58307
6.92415
6.80627
19.8469
45.8755
28.3029
39.7623
28.433
56.8917
52.4178
6.22792
25.1281
22.9309
22.8284
16.3769
48.0487
22.1671
13.9807
18.5294
19.7753
14.8384
20.5641
21.0774
23.3236
17.654
19.6487
17.8143
20.6682
16.0027
21.343
17.5812
9.97012
17.6063
13.9591
14.7186
13.0259
15.7932
12.4876
7.84011
12.1803
8.63717
11.7573
8.22593
12.1979
8.96304
6.60985
7.86785
6.70645
7.70286
6.82274
8.00651
6.71159
6.44209
6.57318
6.46225
6.69151
6.59513
6.57688
6.45952
24.3291
37.0474
32.6116
49.5657
40.5499
43.1817
37.786
20.5085
33.361
31.0251
39.1416
19.3932
37.3549
35.3252
19.9857
26.2769
17.4409
21.0074
24.2185
30.1081
17.7227
19.3
15.2137
11.2115
22.1679
17.6991
15.668
12.876
14.4143
10.5159
9.38395
16.453
13.7315
12.0855
10.4004
8.65651
9.11729
8.3529
13.2516
9.08267
9.90195
8.74955
6.7744
8.2303
7.57138
8.08996
6.78772
8.53374
7.77703
6.50193
7.37101
7.04656
6.6674
6.50011
7.55311
7.14099
36.5462
43.1655
21.476
54.1664
41.4962
42.9249
39.1
42.9126
16.504
5.20943
41.2193
47.6576
31.0909
6.65647
2.54214
3.26308
2.58077
43.1126
11.2097
4.20247
5.9536
3.01323
3.21523
9.30444
11.9303
14.2434
9.54737
12.748
11.0843
9.59647
8.67119
14.3434
11.9701
12.7905
9.17046
7.95118
8.11517
7.2557
10.3704
7.94339
8.27229
7.22908
7.34675
7.08792
6.73169
7.86882
7.34721
7.0721
6.72816
7.2228
6.66481
6.54361
7.30105
7.22841
6.66096
6.53767
24.1691
30.6936
17.6061
37.3916
40.9132
40.936
16.1725
4.77937
12.0386
9.39499
35.2432
5.33719
16.1681
22.073
4.57911
12.6302
22.2436
4.7738
10.3621
22.9112
17.7156
13.3049
9.58612
12.5875
9.38634
12.6114
10.8156
13.4282
9.88169
9.86958
10.9213
10.8842
10.1823
10.2229
10.818
7.52489
11.1393
7.91486
8.31062
7.35352
8.9222
7.10008
6.89919
7.25068
6.32174
7.21277
6.88003
6.71937
6.14612
6.67848
6.26731
6.89213
6.80894
6.66436
6.11077
6.73702
25.6986
53.8285
58.3695
39.784
26.7895
31.6273
21.5275
19.2282
55.8849
22.0504
24.406
26.3578
21.8519
27.281
23.6141
22.9249
23.2553
27.0077
19.2289
26.4938
24.5555
17.062
18.7941
20.5847
20.3209
17.8545
0.896342
19.4856
11.555
14.9181
14.4492
0.697822
14.2754
0.653344
11.9361
7.15262
11.8298
8.96914
7.35629
5.89355
12.236
8.57014
6.03775
8.04503
6.72647
5.82517
5.74813
7.79478
6.69539
6.51634
6.58969
6.45725
5.77416
6.38174
6.57684
6.46085
45.891
43.5115
39.6561
40.7538
23.9515
40.8916
31.5825
19.3158
36.5935
36.5088
22.1476
25.4494
30.6487
37.0206
24.751
30.1104
18.2028
25.1917
28.0435
35.5133
22.3412
18.04
15.9765
13.0102
27.2414
22.1082
18.3555
14.5795
13.2322
12.2956
10.5374
20.7585
14.4155
13.6512
11.0925
9.10483
9.99778
8.72497
12.5848
8.70882
10.3089
8.82381
6.79254
8.5159
7.74191
7.90296
6.76887
8.5914
7.76812
6.49812
7.51999
7.12496
6.65943
6.50034
7.53479
7.12891
40.9086
41.2322
42.6929
69.2703
40.6905
57.0257
41.2814
47.5384
39.0192
7.68736
41.1994
48.5579
44.0772
24.6757
14.0481
5.04247
8.49929
49.6877
35.7219
20.748
22.4101
15.84
10.3905
19.4939
32.1478
24.9002
24.4843
21.9205
14.0557
19.9607
10.8769
22.4047
13.7691
21.1156
11.1438
8.03208
8.95075
7.21121
11.4826
8.0934
9.10995
7.16301
7.34213
7.04692
6.68826
8.01093
7.41802
6.97604
6.65636
7.22452
6.62496
6.52005
7.32864
7.19789
6.60647
6.43369
42.2814
41.7309
18.7787
50.5246
41.3929
43.6753
34.5837
6.21162
17.572
21.3987
40.691
20.4176
29.2157
27.7025
10.7098
21.3202
18.0838
18.2949
23.6037
28.4108
24.6811
19.0772
17.2912
13.7859
24.3128
21.9532
23.3561
16.9486
9.98281
12.3111
10.2899
21.1059
10.7118
15.296
12.6644
7.38526
9.52402
7.89392
9.17491
7.44131
11.5109
8.25696
6.78143
7.65476
7.03302
7.18246
6.72089
7.55881
6.64006
6.60011
6.90537
6.80748
6.65812
6.47499
6.54691
6.35344
26.6808
30.7179
24.142
37.2239
31.7477
54.0719
63.6524
26.8455
25.4645
28.8924
30.9269
32.379
60.4336
30.3833
19.2198
27.0499
24.813
30.4814
23.7133
25.1207
23.1
13.0474
25.7552
24.7834
23.032
17.7016
26.1658
27.5888
10.2814
23.0006
14.9001
16.9013
13.0804
26.5968
18.5577
7.67376
12.6257
8.52405
11.3074
7.93317
15.1539
8.69629
6.76838
7.75117
6.6785
7.3611
6.61572
7.77481
6.66459
6.59553
6.56345
6.46253
6.53617
6.38094
6.55796
6.41019
24.095
38.6908
29.9855
52.9875
67.1192
37.7008
37.8736
27.6249
30.3244
39.1921
66.4054
33.3963
40.5809
44.9295
28.8922
40.1909
26.8948
26.4864
26.2913
42.6745
36.9808
23.0635
20.3763
13.7099
29.4154
22.4249
31.2702
16.2419
14.8446
13.0759
11.3011
22.2033
17.6649
14.0789
11.8571
8.65955
10.5249
9.00084
14.6622
8.80535
10.9054
9.2121
6.77004
8.72527
7.81851
7.89562
6.76342
8.92828
8.00238
6.50283
7.57086
7.12601
6.66231
6.41513
7.7375
7.15424
46.0678
70.5968
45.5101
172.291
115.803
200.828
168.042
61.7364
42.7093
30.859
120.477
164.453
164.225
182.238
33.5114
27.8628
27.0747
186.848
168.556
188.908
185.102
28.3186
27.7159
32.3847
161.209
166.575
179.558
173.449
14.5716
30.086
13.1874
176.837
184.311
177.348
181.781
8.15884
11.3566
9.17873
182.147
187.185
182.192
185.666
7.92349
8.73231
7.84452
190.604
195.644
187.722
192.348
5.25433
7.7321
3.40397
194.771
199.51
193.433
204.332
40.1839
52.463
38.6191
214.755
217.173
212.258
241.501
27.3764
33.7739
34.3019
207.119
198.807
229.693
210.14
28.7937
35.0323
37.4802
198.653
189.371
206.145
190.443
32.7682
34.998
22.2041
182.142
174.909
185.978
180.414
14.0821
20.1131
18.1589
177.292
181.264
179.824
180.994
10.5577
17.4081
13.1948
182.251
185.347
182.241
184.376
8.28692
12.046
9.91836
186.782
190.931
185.025
188.264
3.44617
9.57875
3.59253
192.253
203.72
189.592
199.476
38.5766
56.2044
54.1225
188.191
239.682
150.525
226.785
40.1621
48.3774
43.6792
229.026
211.071
224.789
189.555
43.7109
48.1371
47.2392
202.597
184.276
182.124
179.462
30.4123
41.2037
32.2274
183.661
181.203
179.486
179.68
18.1465
30.9427
22.6033
180.577
182.158
180.422
182.589
12.3746
19.8408
12.1158
183.069
184.95
183.095
183.984
9.70488
10.7098
8.91089
185.416
188.358
184.498
186.716
3.60332
8.76173
3.47573
189.523
199.532
187.703
197.216
66.1535
50.0482
47.01
160.7
239.989
192.77
230.646
46.7008
48.5811
41.3356
233.557
190.647
220.261
185.617
39.7678
41.1672
39.1362
186.513
188.196
193.023
217.147
27.3454
35.7715
20.8426
184.844
175.556
208.103
185.004
20.9956
18.2676
14.5043
176.046
180.875
185
191.665
11.9627
13.1834
10.0731
181.869
184.424
187.875
189.445
9.22164
10.0278
9.965
185.092
187.021
190.855
192.537
3.65387
9.76641
5.06669
187.727
196.856
191.397
197.692
12.8145
10.206
11.7689
11.1527
12.3509
11.2241
11.8168
15.8531
18.2539
19.8389
20.4895
17.7008
18.3188
0.67546
13.1536
14.1343
17.6111
0.712885
16.0864
11.1655
0.818409
13.3807
11.0703
12.2469
13.7102
11.826
13.9666
13.2394
12.618
11.7904
12.4801
12.0926
11.9252
11.629
12.7423
14.161
17.6543
14.7328
14.4223
16.4898
0.541012
13.9509
11.962
0.594781
11.919
13.3508
10.4505
0.660851
12.8287
9.20417
9.35944
9.28078
8.91225
9.67662
9.50367
8.74354
8.33523
12.6847
13.6896
0.640474
11.7583
9.29214
0.600022
6.82826
10.9552
12.9904
3.71769
11.4638
6.15394
0.398979
9.84927
11.3024
10.9075
11.1749
10.2811
10.7854
10.229
9.20578
8.85809
9.74402
8.94169
9.49383
8.70088
9.52029
7.66007
0.55096
10.7478
11.1653
8.69895
0.522349
9.99997
6.39431
2.05888
8.88681
10.4979
5.8093
0.357508
9.46073
14.5883
17.0591
14.9027
0.759896
15.8921
0.815153
12.8163
19.5178
20.5411
20.6566
22.5497
19.3253
20.6148
21.7759
18.3961
17.0652
19.8453
19.8144
18.3141
17.3192
20.9166
16.2128
17.8545
15.7273
17.2792
0.747386
18.1225
15.9473
14.1632
0.658932
14.4559
13.9473
0.722418
12.6119
14.9371
19.5405
23.466
19.96
24.6864
20.4956
23.1087
19.2351
18.2675
21.3291
16.9699
24.1745
17.1455
22.5787
18.1744
11.5878
13.2349
13.2098
2.9759
13.8751
0.571249
11.3106
14.2797
15.5013
14.6681
18.0983
14.0083
15.9233
15.9022
13.0743
12.5162
13.0631
12.7084
12.9942
12.3732
13.9585
11.1205
0.602674
10.6184
12.9962
0.557346
11.7777
12.209
11.0888
1.31299
8.15362
11.2045
0.485582
10.7548
11.6928
14.9395
19.5782
16.0781
18.9682
16.1753
17.4377
15.2355
13.705
13.388
12.8621
16.4319
12.6479
15.209
14.1319
0.513045
1.19513
0.610507
8.81008
4.59561
7.02249
3.592
0.67868
0.514053
0.441814
1.91576
1.25968
1.01574
1.83522
0.318246
0.353227
0.362499
3.60034
7.48551
6.16361
4.3419
0.374882
0.372347
0.417176
7.86848
5.46503
3.82623
5.05346
0.354445
0.430389
0.443847
5.12589
6.80352
7.32933
8.42487
0.338463
0.44394
0.419938
10.5177
10.4589
9.11615
9.25548
0.312417
0.362092
0.331139
8.73603
7.91597
9.11889
8.75272
0.305844
0.313635
0.316302
7.54705
7.49894
7.9878
8.90928
1.80222
2.5955
1.42253
4.37127
5.29434
5.76212
6.41215
3.72579
1.86737
2.25819
3.74682
3.49596
3.88496
1.65035
1.64447
0.773987
0.699105
0.730729
0.741514
1.04491
0.715045
4.53377
0.718024
0.776668
2.83857
4.19329
5.26986
0.775546
3.55624
0.661733
0.710902
3.50085
4.11364
3.27497
0.688144
4.40456
0.755928
0.729751
4.77994
4.4777
4.60931
0.73278
3.98927
0.673208
0.70489
4.52089
4.80001
3.96285
0.696393
6.27548
0.672502
0.672493
6.71488
6.95431
5.71105
0.670316
7.00217
0.667829
0.66926
7.03538
7.06385
6.9422
0.669389
0.313712
0.292764
0.302178
6.86111
7.05955
6.47155
7.54378
5.06505
18.155
8.90463
17.4743
11.4528
17.134
12.6779
4.24594
2.3939
5.45839
4.07545
3.78337
4.73358
3.36802
3.64795
0.833995
1.40827
2.77422
3.15954
3.57795
1.44638
5.50055
1.05862
1.30811
3.07467
3.51422
4.2686
1.37865
6.73169
1.09448
1.54674
4.35242
4.15404
7.10677
1.48312
3.49632
0.673864
0.748666
3.49381
3.42289
3.80368
0.688536
3.32007
0.703094
0.681755
3.47297
3.54446
3.31078
0.691314
5.1372
0.67475
0.685216
5.15755
5.86369
4.2156
0.676041
6.77745
0.668788
0.669159
6.72217
6.75109
6.62923
0.668799
0.302964
0.290311
0.301407
6.44761
7.46796
6.42582
7.42062
21.9903
33.5434
27.9826
26.6548
24.5722
31.1618
28.4136
23.3688
26.714
39.7761
20.367
20.0989
22.295
35.0489
56.4668
10.4771
20.306
27.5018
32.613
50.2282
14.0419
18.0661
2.58941
3.50234
19.4579
15.587
24.978
2.86513
19.9079
2.59632
2.7869
17.5822
18.6164
18.8665
2.74722
6.74676
0.88517
1.31254
9.17602
6.35242
10.3372
0.946159
3.84033
0.692555
0.696891
3.84644
3.64866
4.06705
0.69605
4.40829
0.675784
0.684238
3.80783
4.48765
3.89293
0.675267
6.67378
0.667789
0.667987
6.36195
6.6315
6.39942
0.667956
0.302354
0.291972
0.303531
6.39106
7.3885
6.39995
7.46523
41.0828
54.494
42.4891
33.9835
30.1829
37.8755
36.7297
47.3862
58.776
69.0688
40.9349
42.2418
45.856
61.384
45.4115
14.0695
27.0248
59.067
48.4382
49.9341
13.8939
18.0762
2.95099
3.20979
16.6584
16.1416
18.6826
2.94195
10.0016
1.85221
1.61579
17.371
15.7217
15.0525
1.19174
2.49144
0.755081
0.708497