/*--------------------------------*- C++ -*----------------------------------*\
  =========                 |
  \\      /  F ield         | OpenFOAM: The Open Source CFD Toolbox
   \\    /   O peration     | Website:  https://openfoam.org
    \\  /    A nd           | Version:  10
     \\/     M anipulation  |
\*---------------------------------------------------------------------------*/
FoamFile
{
    format      ascii;
    class       surfaceScalarField;
    location    "0.7";
    object      phi;
}
// * * * * * * * * * * * * * * * * * * * * * * * * * * * * * * * * * * * * * //

dimensions      [0 3 -1 0 0 0 0];

internalField   nonuniform List<scalar> 
38556
(
-181.816
-603.268
1712.94
-421.659
-139.943
379.786
290.896
-59.5619
-652.994
512.091
350.595
-571.79
828.928
511.76
-828.598
940.507
536.757
-648.335
1043.37
570.964
-673.83
1134.43
444.021
-535.08
1176.99
360.6
-403.156
1241.76
223.303
-288.075
1332.27
134.39
-224.896
1383.01
91.1081
-141.854
1351.84
78.3267
-47.1514
1219.28
98.596
33.9604
1014.77
98.3379
106.169
875.097
64.7829
74.8951
813.604
34.2368
27.2561
785.057
18.9362
9.61043
772.657
10.1378
2.26174
5.54984
0.8159
-53.6906
-2673.59
165.041
191.513
-820.983
435.836
761.488
-267.433
-362.104
706.685
226.763
178.636
716.658
520.161
-18.3741
766.456
534.674
-47.7153
814.899
494.798
27.7222
851.409
357.18
50.3311
880.656
250.879
80.4741
900.683
162.485
40.7905
936.079
113.727
-14.733
952.36
102.437
-27.6102
935.92
91.1572
3.60974
895.838
102.022
36.6563
843.702
98.3521
52.1227
803.835
73.3521
31.2975
783.36
43.0065
11.7051
771.153
26.7946
4.34834
765.221
15.3084
0.761659
8.58412
0.331846
328.129
-1937.72
-3195.2
-158.883
-230.784
-103.186
531.694
-430.104
-527.907
397.292
207.17
153.995
582.784
310.205
24.463
594.551
441.762
81.1454
691.746
367.379
30.2239
744.696
293.322
10.9077
812.279
236.847
-53.55
840.114
206.037
-71.3873
853.417
169.59
-69.166
845.871
149.438
-39.4553
821.69
121.235
-5.89765
803.085
109.955
10.6708
790.701
93.0498
17.6869
781.095
72.4671
10.491
773.662
45.3693
5.0702
766.359
32.146
1.95123
762.257
18.9759
0.434917
11.1392
0.193317
1223.95
-644.243
607.01
1068.51
236.348
-311.691
1131.22
-51.4782
-441.335
825.739
408.553
104.096
616.795
361.933
157.216
518.187
378.552
161.819
603.29
235.078
47.1973
599.533
241.064
56.0145
658.414
154.369
23.5966
661.033
187.362
16.0557
686.524
136.66
7.43862
696.935
135.984
3.04337
712.038
104.623
1.5088
722.671
95.9342
3.38812
734.53
76.9275
4.26389
742.79
61.7804
2.42633
746.343
41.295
0.521047
746.679
31.4622
0.348011
747.646
17.9452
0.06373
10.684
0.0576001
52.1284
-1186.74
941.632
382.868
-41.6945
-52.6976
181.071
62.1359
88.1831
156.764
346.606
86.2545
340.204
201.093
-22.6008
338.537
259.924
120.296
611.345
-109.407
71.677
652.261
137.886
62.2621
724.589
66.3195
15.721
716.966
185.725
9.26022
716.654
133.144
3.82953
716.983
132.801
2.85326
719.307
100.149
2.15035
725.168
88.5832
1.48981
734.068
66.4367
1.59066
738.866
56.0638
0.918774
742.168
37.6669
0.326303
743.518
29.9046
0.207507
744.497
16.9059
0.0604567
10.2742
0.0457115
-26.6709
-650.47
825.225
240.31
140.152
-448.827
35.622
349.012
-82.1877
169.01
320.303
-107.084
389.68
176.137
-195.714
296.388
318.204
35.0123
716.64
-443.192
-86.4666
637.649
171.381
45.4959
666.039
-10.2151
48.1448
621.299
195.749
34.716
628.4
104.608
21.4342
645.763
105.238
10.1998
670.8
71.475
3.63699
689.493
68.2228
1.66736
699.887
55.2681
0.774371
711.421
44.0621
0.467687
719.918
28.9729
0.196509
726.6
23.0955
0.126946
731.081
12.4129
0.0119556
7.4268
0.0199574
202.102
-290.916
-431.525
-49.3438
345.743
45.8544
-602.089
455.173
446.584
16.908
29.8312
-328.525
431.701
91.2511
-329.908
263.863
436.189
49.8526
454.371
-28.5147
-391.361
-82.7128
-55.2394
-75.8711
229.451
93.2862
-69.0158
127.312
114.319
130.399
333.019
-16.3966
29.1662
-58.8116
-9.57027
-58.1709
403.267
13.7642
-4.80786
51.8955
13.6864
50.9632
472.104
21.854
9.39194
-8.68427
21.786
-8.57605
559.919
-5.17665
3.63888
13.0117
-5.4476
11.3973
617.546
7.713
0.788817
-0.34166
6.38649
-0.698886
651.947
4.156
-0.0269265
13.2577
4.36969
12.0652
684.373
22.0208
0.821731
701.254
26.5343
0.647076
715.374
14.6261
0.226118
723.31
14.9331
0.226289
728.307
7.35751
0.0585061
5.20426
0.0483892
291.875
219.209
2526.65
329.685
311.928
-3.99555
-83.1583
390.807
477.21
217.999
-83.5985
-187.728
768.845
-131.804
-327.791
143.53
85.2655
78.5844
146.007
128.734
138.082
185.639
96.2501
202.942
101.18
48.3498
-34.5146
-29.1472
12.4533
99.7113
10.2688
-5.29435
-14.8661
-4.31876
8.08262
3.21449
47.5893
-33.4135
-3.62614
-93.2953
108.068
8.61963
-1.53846
-123.53
134.389
-15.8778
-0.157991
-148.919
152.523
3.9185
0.19046
-156.73
159.104
1.21073
0.5716
690.143
2.95329
0.814832
-166.199
-169.998
-169.481
-172.052
1.85355
2.59277
1.39256
703.242
12.2195
1.21596
711.616
5.78827
0.46318
718.533
7.81481
0.202188
722.095
3.77101
0.0239155
2.80303
-0.00238576
669.209
-445.415
-3313.15
709.328
73.2864
198.523
343.724
259.203
497.207
149.617
160.812
-50.3032
111.315
-41.9578
-251.284
47.3623
107.558
44.8192
113.217
67.4084
15.9548
-24.6147
-32.6777
27.3396
32.7054
-2.75261
-15.6608
-23.4502
13.051
25.2751
0.784946
-28.6154
-3.73185
31.1474
5.41353
-4.2137
-29.2379
17.1786
26.0415
-18.4377
4.45552
-33.0913
0.641663
35.9349
-1.55406
-1.93122
-38.7028
3.30819
38.4374
-2.72738
-0.315381
-39.9289
-0.00236415
40.2347
-0.304179
0.000711366
-40.8052
-0.258641
40.7936
0.338785
-0.0685141
-42.3967
171.746
2.69303
0.623506
-42.4979
-43.5291
-43.6855
701.352
2.69727
4.75256
-172.936
-172.97
-175.081
-175.595
703.207
1.67133
2.26143
706.288
3.48022
1.2544
709.964
-0.164962
0.259273
-1.19515
0.0363091
2040.72
-2061.54
-221.049
1648.5
-371.888
837.385
1363.17
162.805
381.733
1111.78
245.729
166.471
145.946
246.28
88.4175
184.598
171.224
233.358
-58.4897
143.338
65.6282
-4.52986
-34.2835
-40.6677
41.7598
30.1274
3.06404
-25.4942
-36.5593
38.4443
19.8127
3.79645
16.0331
-52.6347
50.2894
-18.2569
4.56911
18.5709
-47.626
46.6939
-19.9948
2.35604
6.97938
-42.7594
42.5718
-6.87427
0.0824809
2.93455
-42.5037
42.4974
-2.65344
-0.274848
1.13952
-42.196
42.0852
-0.995322
-0.0333875
0.369626
-42.0664
42.0915
-0.452345
0.0576607
-42.5359
-0.0136985
172.631
-0.765599
0.908455
-42.7191
-43.5563
-43.9489
702.17
-5.21551
5.13167
-172.948
-174.641
-175.069
-176.731
704.764
-3.64631
2.7235
709.754
-2.75439
1.2445
713.405
-4.28324
0.467258
-4.69362
0.157762
1357.15
-1713.45
-1971.25
1119.37
-245.086
110.979
701.085
262.166
318.927
640.59
165.929
140.296
185.312
330.581
-231.08
199.073
198.759
204.223
-74.2891
214.465
71.1092
-25.9726
-18.8365
-55.3235
54.9555
17.9037
1.30086
-1.55509
-57.2442
60.0934
-4.80087
3.50677
26.8502
-52.647
51.1822
-27.3587
1.97328
21.7263
-54.5091
54.5498
-18.7465
-3.02054
5.61239
-50.1403
47.6327
-5.27601
2.17116
1.4747
-44.7409
44.5355
-0.801246
-0.467977
0.586758
-43.9458
43.8368
-0.377297
-0.100438
0.399543
-43.6421
43.5729
-0.391603
0.0612668
-43.5166
1.19125
175.466
-2.12941
0.965444
-42.9032
-44.8813
-44.1919
705.525
-12.2047
5.08529
-175.571
-173.957
-177.806
-176.286
705.623
-6.32336
2.57927
709.772
-8.09084
1.18667
712.205
-7.15807
0.441903
-7.26693
0.133244
1127.29
-2800.77
-2005.7
903.097
18.8746
-39.7673
998.865
355.788
-189.391
1181.77
-47.8255
30.8533
271.44
319.455
41.0778
275.862
297.156
307.357
-57.8355
281.276
29.6424
18.3573
-13.141
-72.9486
70.873
8.82878
6.38777
14.0152
-60.7811
54.37
-13.6041
6.00008
12.294
-47.3479
48.9741
-7.16384
-6.75639
4.16725
-50.395
49.1475
-1.12222
-1.79756
0.894756
-46.1714
45.6044
0.168231
-0.496075
-1.87675
-43.4587
43.2202
2.39939
-0.284139
-0.745896
-42.8763
42.9062
0.834265
-0.118285
0.251495
-42.776
42.8249
-0.351476
0.050989
-43.0944
3.63017
175.795
-5.70706
0.741776
-42.9674
-44.231
-44.1667
706.572
-20.6869
5.27841
-175.813
-173.485
-178.297
-175.773
708.198
-10.1934
2.24383
711.216
-12.2505
1.14179
714.021
-10.1922
0.229059
-9.93226
0.0237615
-396.494
-2992.8
1222.51
-317.795
336.727
-396.551
497.401
58.4453
-517.854
470.7
-183.426
162.301
733.763
-120.871
177.263
192.57
-419.282
246.915
6.72529
76.1907
-11.661
40.5095
197.075
203.803
200.918
1.74689
178.107
-22.0223
38.7928
-3.18213
2.10893
-2.98196
-2.03872
-139.149
134.909
25.0032
-12.7963
-1.60877
-2.55322
-1.76699
-2.24359
-165.138
182.414
-1.84673
-4.81086
-2.73455
-2.67179
-2.96848
-3.15024
-172.935
164.756
19.0994
-0.855599
-1.74952
-3.31804
-1.8468
-0.0934905
-167.629
166.05
0.630298
1.37627
-0.359816
0.00772117
0.0188906
-1.39692
-158.992
156.554
6.59633
-0.78309
-0.687036
-0.90574
-0.384724
0.393602
-163.967
169.309
-6.8465
-1.19175
0.875846
0.419947
1.00666
0.84192
-169.182
169.701
-5.47474
-0.283251
1.67443
0.926903
1.79515
706.077
-25.1659
-0.53679
5.07343
3.80421
5.08164
3.80269
-174.209
-171.086
-176.983
-175.858
714.29
-30.1362
1.23605
718.234
-14.7339
0.596255
721.61
-16.0013
0.374891
722.494
-11.1375
0.0611967
-10.8145
0.00731525
140.69
37.2888
1837.82
388.44
419.259
-330.281
1479.59
-526.237
-506.469
1810.53
-497.62
-16.748
1735.28
-525.534
479.915
1548.36
-553.354
320.994
1216.98
15.2603
340.949
25.68
-36.3584
22.7454
-36.8973
996.731
44.0825
127.653
-9.3047
45.2137
-15.2555
27.8599
833.093
215.905
40.8474
1.08061
-37.1389
-14.4036
-42.6521
775.665
137.115
-43.7225
-19.6896
9.08477
-24.886
-0.474194
748.657
151.99
-62.2727
-5.68431
-20.6165
-13.8365
-22.5731
745.677
83.1172
-78.9226
-8.1884
9.04726
-9.41855
7.34562
741.455
45.7596
-48.3632
5.95902
-1.77816
4.80764
-2.16281
740.308
-26.9368
-17.6487
6.91752
16.6367
6.93507
15.2429
742.135
-29.4079
2.4152
738.949
-32.1552
5.20534
736.925
-16.3589
3.64902
735.054
-15.8392
1.70798
732.678
-9.60146
0.840012
-9.65964
0.446488
1320.08
-552.933
-908.615
1291.62
-671.813
1119.53
1671.12
-1097.58
191.847
1987.81
-1007.24
192.925
1880.84
-889.218
470.656
1728.9
-737.73
336.312
1237.99
7.03291
499.138
977.462
182.965
121.648
924.127
300.582
-31.3417
914.143
246.26
-99.1607
929.493
236.093
-99.4525
931.424
156.727
-75.5423
881.659
98.3176
-2.79234
813.094
10.697
30.9304
767.015
-1.10885
17.7804
744.712
-20.6758
10.8232
736.978
-11.3831
2.75808
733.302
-13.3841
1.22062
730.636
-7.37455
0.439679
-8.20617
0.253034
1398.42
-1199.82
-2328.65
1450.35
-504.839
-218.909
1786.47
-579.055
-854.64
2089.52
-497.135
-813.152
2021.29
-404.234
-416.759
1907.27
-276.944
-346.766
1449.84
237.398
227.069
1215.48
318.53
98.792
1134.63
364.303
17.1342
1117.14
258.874
4.87524
1092.68
217.2
43.3516
1061.53
120.037
67.837
975.82
92.9261
91.1044
884.895
30.51
71.1122
814.65
23.7849
45.3504
772.144
0.37179
21.4586
754.443
0.137976
6.18025
744.207
-6.04005
2.89221
738.834
-2.92576
0.923853
-5.28716
0.460226
1871.39
-1261
2015.03
1866.97
-916.715
416.302
1440.63
-393.794
241.078
1152.58
91.0052
-300.097
850.074
238.847
-340.572
914.807
305.94
-647.617
906.282
352.352
-106.429
995.905
288.804
-59.8979
1019.16
223.348
117.7
1030.5
115.027
132.506
990.618
92.6072
164.476
927.055
41.6053
141.995
853.943
52.2206
113.817
797.219
21.9873
65.2457
766.636
23.0715
31.2965
748.878
5.32889
12.8011
741.097
3.68067
4.23817
736.209
-2.76563
1.61325
733.458
-0.7597
0.585377
-3.62494
0.324206
2193.92
-75.9468
5.48484
2288.58
-910.424
-100.953
2044.35
-173.966
24.4075
1757.17
332.021
46.1661
1314.92
415.585
265.509
1205.02
392.788
23.0545
1039.71
292.478
225.185
1000.77
163.759
163.979
914.748
115.841
193.53
860.291
34.3152
135.169
804.856
48.2144
99.8281
771.791
19.657
55.0127
755.665
35.3691
32.9776
747.62
15.7056
14.3265
746.015
16.9347
7.74215
743.445
5.04659
2.85215
741.637
4.27844
1.21007
738.991
-0.611779
0.491795
737.619
0.431137
0.181487
-1.9575
0.115583
1066.74
-179.44
-2541.91
368.648
-285.42
73.0845
794.256
146.12
-745.694
927.999
312.856
-114.578
722.879
258.922
361.783
703.703
278.754
133.209
563.878
95.2933
337.01
586.954
58.9378
81.7453
625.888
8.55976
68.3472
638.087
14.8984
7.21749
672.398
16.6162
-2.71266
686.512
11.8089
-6.26523
710.121
15.2287
-3.46917
719.88
7.66564
-1.71931
729.551
7.81567
-0.551354
732.316
2.47238
-0.190564
734.583
2.09152
-0.0799225
734.37
-0.391535
-0.00802532
734.571
0.236683
-0.0056719
-1.00588
0.0403059
1497.8
-3601.24
1271.29
-58.9105
1360.02
57.3826
1397.51
275.369
1199.13
457.305
1129.85
348.031
900.545
324.601
789.669
169.814
701.375
96.8532
686.039
30.2344
691.917
10.7386
700.947
2.77872
714.915
1.26104
722.098
0.482327
729.518
0.395303
731.802
0.188941
733.808
0.084628
733.384
0.0331871
733.618
0.0024619
0.0541361
-543.419
244.097
3219.72
-171.261
-355.707
363.336
876.805
-490.344
-1210.72
1035.86
-66.6143
-664.227
1178.94
27.1343
-998.812
1268.36
22.0022
-759.761
1269.92
143.765
-819.157
1267.71
120.363
-653.229
1217.08
154.826
-507.358
1191.73
120.687
-383.411
1190.26
89.4776
-312.906
1211.55
39.5104
-202.653
1193.29
29.207
-58.0959
1103.27
53.6782
70.3047
965.289
76.8027
167.345
862.488
60.1375
117.559
813.63
33.038
43.0759
788.742
18.8753
15.6236
777.127
10.2656
3.61118
5.62997
1.32261
358.06
354.405
-383.495
345.944
-610.167
702.411
144.712
-510.242
-140.974
109.119
-5.97048
153.586
430.645
118.737
-431.503
406.551
161.607
-163.225
618.736
189.614
-230.312
657.235
150.245
-18.0495
716.814
121.395
54.3252
735.082
101.166
42.0446
774.808
86.9857
-51.9673
797.202
87.0663
-97.5608
810.825
78.1188
-58.9246
812.152
86.7361
2.27129
808.918
85.1694
46.9902
797.993
70.1972
32.1622
784.669
42.4088
15.6583
774.852
26.746
6.29444
769.47
15.4001
1.00962
8.65387
0.450501
880.686
658.968
-3520.94
514.906
48.7445
-396.317
261.144
-409.317
-375.07
130.912
45.1493
233.107
489.742
-5.45341
-210.177
475.259
176.008
81.2277
646.968
162.434
-114.305
703.191
174.893
-69.964
774.774
169.355
-173.093
796.225
175.286
-166.958
809.262
153.96
-149.177
806.707
137.959
-87.7934
795.547
113.501
-30.1196
787.852
103.819
1.28291
785.228
87.8147
17.6645
782.391
70.3657
13.1603
777.098
45.5974
7.17463
770.732
32.3712
2.69175
766.776
19.1516
0.638912
11.2426
0.295942
3949.19
684.287
1550.97
2763.3
634.08
288.862
1208.17
199.012
505.467
697.523
310.516
349.375
616.151
105.098
128.037
501.128
201.585
251.265
601.241
93.6441
15.874
595.272
161.747
75.1293
654.09
111.442
22.6913
659.077
168.837
17.5179
690.508
130.33
-0.362241
703.126
134.307
-5.92264
717.743
104.265
-3.87247
727.781
96.0084
1.16129
738.932
76.8697
4.05777
746.973
61.9549
2.79605
750.551
41.6634
0.876921
750.991
31.6871
0.59232
752.014
18.0985
0.0929015
10.769
0.0925319
762.709
-1104.23
-963.841
309.301
316.791
717.999
-105.434
159.08
542.85
-20.3545
163.964
147.727
439.625
-5.59633
-371.886
367.5
129.287
264.718
612.474
-202.7
123.047
649.226
89.2499
98.0078
722.069
34.3511
19.9699
716.674
171.66
11.8322
718.948
129.307
2.57783
720.836
133.239
2.033
723.605
101.391
2.25541
729.6
89.4893
2.01463
738.355
67.1685
2.53619
743.17
56.4849
1.57436
746.536
38.0196
0.603747
747.932
30.1314
0.366628
748.978
17.0409
0.0726119
10.3448
0.0700203
1262.83
-1009.39
4947.51
560.877
273.034
296.883
131.604
255.942
250.223
158.104
62.2819
-31.9029
546.044
-48.3736
-540.877
379.951
208.106
122.285
645.587
-444.857
-109.946
572.517
214.146
-6.3293
633.389
-38.985
60.6078
609.01
184.355
46.4008
626.1
101.294
32.3569
647.985
104.964
16.5907
674.155
72.1771
6.68118
693.277
68.6765
3.35819
703.8
55.7821
1.63704
715.426
44.5482
0.778691
724.029
29.3258
0.287118
730.802
23.3168
0.168437
735.342
12.5012
0.0110993
7.45714
0.0431213
641.181
-54.1355
1604.27
206.131
226.361
527.578
-130.309
218.927
820.04
153.829
-69.5979
-480.783
522.895
-116.061
-631.286
361.162
359.462
60.2298
320.58
-91.7832
-489.73
-62.0522
-91.936
-60.1355
111.532
125.372
-176.862
138.996
127.344
139.328
319.119
-15.1086
-63.7927
-63.1504
-10.3215
-65.0327
396.546
10.3647
-10.3301
48.7635
5.794
47.528
473.488
20.6531
10.7279
-9.12514
20.3247
-8.8367
563.281
-5.90603
6.94739
11.5954
-5.58407
11.7568
621.763
6.48416
3.37463
-0.979977
6.55572
-0.950523
656.412
4.00187
1.99523
11.9447
4.03732
12.022
688.552
22.4313
2.03265
705.297
26.8849
1.5653
719.44
14.7922
0.616414
727.538
14.9936
0.451459
732.634
7.36072
0.102521
5.20911
0.0743795
1105.77
-154.944
3575
1409.93
27.4938
-109.282
972.702
146.899
986.46
888.259
35.5184
-208.401
531.681
-86.032
-1.24199
73.0125
138.498
35.0881
80.7397
71.1006
73.5614
178.776
143.502
175.45
51.373
18.9415
-26.7462
-62.339
11.7973
21.4998
-9.99972
135.283
-33.2079
-6.75011
1.01117
-1.0655
2.92643
-11.2306
8.53974
-9.13883
52.7217
-29.9999
-11.7581
0.289967
-95.0028
110.284
4.39512
0.686781
-0.681627
-126.067
136.847
-17.5662
1.56168
-0.483139
-150.998
154.565
2.76169
0.638823
-0.661757
-158.856
161.923
0.923753
0.673047
693.699
2.60325
3.21844
-168.799
-172.231
-168.734
-172.219
1.43171
2.69438
1.58179
707.408
12.331
2.06078
715.973
5.74371
0.946606
722.968
7.69733
0.503383
726.509
3.67669
0.167683
2.75832
0.0822912
1010.13
-404.28
-2941.74
1128.32
245.819
-137.992
866.765
376.556
529.107
581.478
318.066
-47.5633
12.8364
143.978
123.579
-19.1334
6.6047
-23.7022
-26.9004
2.40507
146.908
28.9216
23.0359
-3.73774
-0.036626
-1.5031
6.12187
-23.8803
1.45547
-0.856135
-31.0169
3.78506
32.5568
-5.92423
19.1033
-28.3899
-7.74621
32.2317
7.61625
-22.8152
-3.66535
-39.8699
9.34376
42.403
-9.12431
0.912777
1.51997
-49.7272
4.80835
49.0035
-5.38336
-0.221191
-0.31514
-44.4145
4.62345
42.6459
-3.50478
0.965059
-0.230226
-42.1537
0.62484
42.1761
-0.726491
0.309428
-0.219559
-42.4816
0.0419684
42.4793
-0.0830935
0.262888
-43.6724
-1.38793
174.551
2.37082
2.09748
-43.8536
-43.6581
-43.8435
705.337
2.75587
11.2898
-175.369
-175.825
-175.328
-175.778
707.569
1.52801
4.24524
710.912
3.25795
2.35148
714.542
-0.333157
0.639039
-1.30345
0.239852
852.861
-317.284
-399.658
1140.97
399.851
395.244
1057.74
491.369
350.15
999.78
487.06
55.4366
111.026
353.867
225.393
216.864
108.713
216.312
-5.05231
-122.939
106.263
101.045
31.7091
-13.2712
-27.6747
-34.1707
35.0368
29.6375
10.4422
-13.6099
-26.6557
-30.447
31.608
22.9248
16.1799
-12.7819
9.71787
-53.5864
54.3225
-9.82321
12.1512
-6.93347
15.5089
-48.4198
46.997
-15.6992
8.54661
-4.25322
6.71309
-45.4971
45.8235
-7.47855
4.69226
-0.901736
3.34182
-45.9142
45.661
-3.4256
1.23878
-0.425377
1.53652
-44.5016
44.2475
-1.39666
0.539577
-0.445601
0.536894
-43.5378
43.4899
-0.565378
0.521912
-43.8051
-1.92552
-0.0864385
175.723
-0.971708
2.99075
-44.0521
-43.8085
-44.0647
706.306
-5.30915
12.0309
-175.534
-177.166
-175.616
-176.824
709.009
-3.85958
5.40797
714.218
-2.95576
2.24873
717.88
-4.48633
0.958765
-4.81915
0.347376
962.283
956.714
1441.67
670.299
777.685
25.1293
850.063
737.694
-107.163
814.698
523.742
138.978
198.601
465.351
-312.499
203.86
193.596
188.575
55.869
-85.4373
225.337
69.8969
-67.0637
5.05646
-18.9299
-61.9168
64.8289
16.6355
-5.67423
-6.07357
-12.0903
-72.2104
71.9015
12.034
6.4387
7.51854
-0.897026
-70.9235
69.5713
2.3029
-7.57229
4.11497
15.6315
-59.4043
56.9202
-13.5054
-3.75704
-3.08817
7.38693
-52.3956
51.8208
-7.15661
3.43258
-0.407684
3.16305
-48.7694
47.8585
-2.5227
0.678217
-0.127564
0.948368
-45.9713
45.6601
-0.609931
0.100273
-0.207634
0.565023
-45.1282
45.0657
-0.528039
0.23317
-44.8873
-1.75495
1.46994
178.462
-2.35605
2.61832
-44.2949
-44.9142
-44.3429
710.215
-12.6393
11.5345
-178.111
-176.602
-178.132
-176.488
710.326
-6.72209
5.33021
714.424
-8.20459
2.33772
716.753
-7.26443
0.890875
-7.37108
0.29205
2743.02
897.834
1949.93
1852.94
1067.85
560.144
1436.46
953.156
11.6263
1362.41
413.73
214.91
293.275
613.716
60.9057
306.43
290.043
304.472
-13.8319
-74.0316
304.581
78.3797
-1.82208
-16.0176
-12.1254
-79.5248
80.9094
11.5958
15.1625
-27.3191
-15.174
-81.6609
81.0694
15.3133
27.7713
3.16357
4.71844
-67.0982
60.8061
-4.03782
2.44789
6.02182
4.02983
-52.8373
51.8696
-1.29858
-7.7854
3.41749
2.03211
-49.8276
49.1929
-0.801471
-4.01344
2.62023
-0.461128
-47.1128
46.5433
1.32602
-2.91559
0.365171
-0.637094
-44.8913
44.6674
0.836023
-0.340158
-0.17254
0.279058
-44.2724
44.3254
-0.364093
0.204501
-44.4636
-1.47126
3.78054
178.733
-5.77987
2.40613
-44.3757
-44.4616
-44.368
711.265
-21.3947
11.9321
-178.486
-176.129
-178.465
-176.084
712.953
-10.6628
4.49677
715.96
-12.4431
2.37276
718.598
-10.3062
0.633193
-10.0252
0.169083
627.3
-1061.75
4886.41
313.599
977.87
7.13166
425.738
339.085
-15.9208
371.802
139.142
490.825
681.339
128.117
353.325
186.82
-225.447
482.551
-43.3397
16.937
-44.734
22.1419
176.857
181.121
175.347
-9.30428
-74.9148
204.518
5.63031
95.2765
-12.3072
-9.4397
-12.6381
-14.0554
-13.6374
-179.202
154.592
46.4259
41.0186
-10.3932
-14.2249
-10.5232
-5.33311
6.0784
-165.479
175.462
13.2348
-8.72068
-5.04436
-5.31582
-4.88276
-4.48813
5.25173
-165.667
158.596
23.9229
-7.7977
-2.75925
-4.34553
-2.71316
-0.34527
2.43468
-165.333
166.994
1.37291
-4.10152
-0.31441
-0.364428
-0.342982
-0.891542
2.3672
-161.187
159.39
4.19477
-2.30462
-0.32327
-0.915668
-0.329932
0.488967
2.87679
-166.959
172.108
-8.65028
-2.52905
1.07922
0.497503
1.08763
0.950791
0.251101
-172.049
172.878
-6.7387
0.0394841
1.85184
0.954092
1.86278
710.082
-30.0511
2.8363
5.24468
4.00544
5.39348
4.19351
-176.741
-174.479
-176.687
-174.334
718.738
-31.9731
3.15821
722.748
-15.4779
1.40206
726.145
-16.3128
0.846784
726.989
-11.3435
0.254916
-10.9501
0.0934809
349.043
-381.58
1058.87
295.005
757.116
-55.4895
999.81
-327.102
-545.088
1039.11
-186.127
269.223
1110.6
-304.744
841.289
1034.55
-194.045
365.634
943.602
189.86
404.576
-9.32368
-68.3025
-12.3089
-72.5991
865.603
64.3376
144.79
-29.181
22.6118
-27.9016
30.9942
800.441
166.152
46.9674
-14.2293
-44.5751
-6.9162
-41.3888
780.858
49.2161
-44.4483
-23.9781
6.33191
-21.1862
9.92423
760.467
40.2304
-42.7789
-4.94658
-17.3349
-0.706205
-16.3449
748.641
-39.6607
-56.1574
-1.77548
15.2933
-0.571373
15.7752
737.338
-40.6181
-21.1171
9.05439
2.88719
9.52312
3.21019
734.677
-68.2237
0.356829
8.6298
17.6358
8.77498
17.8381
738.812
-42.1365
10.3661
738.809
-35.5419
8.77726
739.251
-17.0819
4.81105
738.617
-16.2571
2.28572
736.943
-9.8668
1.0376
-9.79407
0.536685
-1267.89
-1059.71
-2783.9
242.462
38.8045
327.485
1201.05
-489.976
-603.872
1353.47
-281.444
135.827
1140.92
-242.835
621.295
1037.34
-4.70354
250.549
957.729
234.197
534.414
935.478
130.112
78.1254
950.128
153.182
-33.0213
961.418
57.1683
-118.403
962.487
37.1947
-97.4852
927.884
-28.5059
-52.0944
864.525
-13.3695
33.3177
809.574
-46.4217
64.0794
770.143
-19.6346
34.7094
750.186
-24.8047
20.0428
742.355
-11.9707
5.47741
738.363
-13.6656
2.62114
735.574
-7.56076
0.92278
-8.28727
0.494202
1928.45
-393.45
-938.454
2014.47
336.934
-603.058
1678.07
55.2057
-1063.41
1569
52.4125
-1037.95
1157.95
75.5509
-324.087
1023.32
101.102
-317.944
1020.25
312.115
152.226
1108.97
147.668
-7.48611
1150.3
160.402
-31.4223
1175.83
55.5109
-18.991
1142.12
53.588
60.6635
1082.24
3.85031
95.3651
976.302
33.9282
149.742
880.227
5.5286
115.236
813.853
14.842
77.2477
775.194
-1.56832
36.8807
758.623
-0.268472
11.0495
748.888
-6.14761
5.11002
743.6
-2.99565
1.64676
-5.30605
0.809313
430.275
-423.674
-334.486
653.717
138.443
391.351
175.825
340.168
434.008
149.214
278.627
-499.701
235.19
208.667
-559.665
317.301
94.5502
-723.177
630.546
146.503
-254.061
785.41
60.1407
-127.235
895.425
57.2601
110.826
922.595
6.45906
154.389
897.483
32.2432
210.932
850.171
13.0285
180.129
812.352
40.3429
145.222
780.839
20.4931
81.7941
762.4
22.6778
41.8989
750.821
5.97407
16.8388
744.644
3.9785
6.16843
740.49
-2.56808
2.18748
738.054
-0.732325
0.758427
-3.62792
0.369987
-161.27
211.307
-1629.36
231.056
-199.967
-154.869
486.389
392.089
-282.846
510.324
424.122
-123.264
712.588
190.36
81.5522
743.377
148.981
-62.1654
795.144
91.2068
228.714
831.912
37.6438
149.708
817.293
52.969
212.44
794.128
17.9113
146.883
766.434
53.6666
106.099
749.302
29.3651
55.8083
745.975
42.3626
34.2856
745.148
19.8671
15.7796
747.603
18.7385
9.22543
746.909
5.90025
3.62036
745.964
4.64025
1.49353
743.666
-0.432718
0.653649
742.409
0.473852
0.233074
-1.93681
0.159335
854.065
-42.8278
-3692.31
186.351
-468.919
1009.75
-114.765
-106.173
53.6839
-0.644111
66.8676
128.555
259.16
-46.5878
338.927
302.407
71.3899
167.553
468.287
-52.3647
314.702
524.796
-5.81573
68.6949
613.893
-26.23
58.4493
633.031
5.83248
0.158588
673.489
14.2743
-3.77787
689.817
12.0754
-5.30388
714.266
15.705
-1.26019
724.492
8.1844
-0.262891
734.223
8.03707
0.419003
737.068
2.6405
0.223503
739.347
2.15441
0.12751
739.183
-0.341085
0.064061
739.378
0.258154
0.0159448
-0.995163
0.0665051
1565.33
-1772.61
1157.71
-120.213
1160.7
-51.7795
1219.46
283.477
1130.64
499.535
1135.37
414.695
934.002
473.604
820.418
277.582
719.529
171.512
697.837
57.7587
699.105
23.7452
706.686
7.27306
719.868
3.78405
726.962
1.57245
734.322
1.07213
736.683
0.468354
738.684
0.238102
738.272
0.10397
738.5
0.0325976
0.0774226
56.2679
210.406
1368.3
1145.56
-97.0411
-628.915
1690.88
-380.858
-1375.18
1901.45
-281.047
-593.746
1807.25
-113.409
-791.207
1791.59
-99.8624
-644.24
1700.35
5.97447
-733.884
1637.96
-29.9778
-560.864
1433.16
82.0614
-384.621
1229.12
136.413
-315.78
1081.82
147.952
-313.565
999.911
126.953
-247.692
943.77
90.6747
-92.6298
886.929
83.1578
43.9874
858.895
70.2673
125.112
830.145
55.2042
91.1043
803.668
31.5683
37.9843
785.947
18.6693
14.6759
776.092
10.2272
3.23866
5.59845
1.17317
609.194
-73.486
-277.486
1099.7
-94.9042
209.769
648.274
-297.318
226.911
480.008
-253.857
294.662
432.015
-139.414
-357.506
408.405
-31.5716
-207.906
579.823
55.336
-451.092
636.348
67.7261
-172.278
733.899
86.7125
-47.8768
757.293
102.783
52.281
782.76
108.213
-37.6952
788.496
111.095
-87.4394
786.421
94.5061
-60.6815
784.093
90.6873
-2.93035
788.753
79.2825
33.315
788.197
63.9426
23.9803
781.764
40.1285
13.5301
774.571
26.3948
5.7624
769.366
15.3622
1.0801
8.63097
0.48081
1982.58
309.841
-1960.23
1260.07
-152.781
384.073
786.983
-526.195
326.897
620.097
-239.506
385.641
664.722
-311.122
-83.095
703.368
-37.9188
48.9293
791.105
16.2795
-162.986
824.018
72.4477
-107.598
838.271
104.102
-204.736
826.434
139.63
-191.966
816.353
142.245
-173.129
803.147
139.041
-102.533
788.229
116.751
-37.4461
781.392
104.992
-6.18604
780.746
86.0184
11.5747
779.434
68.53
9.88528
775.777
44.9171
6.04282
770.327
32.1295
2.4075
766.628
19.1195
0.580059
11.2297
0.274453
2295.84
-631.966
-1017.64
1880.97
-76.8368
627.787
1490.57
-110.233
479.902
1039.45
140.901
420.091
651.119
-23.4145
228.658
535.824
78.3102
250.331
571.245
-0.389874
-2.87792
553.432
83.7343
81.6559
625.02
52.0719
3.13398
638.003
133.158
11.0053
678.389
111.029
-9.53222
697.556
126.024
-12.0724
716.981
100.582
-7.12775
728.856
94.2689
0.00975372
740.009
75.1285
3.79405
747.274
61.0938
2.96731
750.525
41.398
1.14498
750.981
31.5904
0.675414
751.994
18.0734
0.12634
10.7583
0.0956499
826.179
-394.475
-847.899
842.748
-117.274
741.867
841.221
31.736
402.409
696.042
141.395
292.412
310.16
13.3996
-22.8186
299.63
56.6729
296.886
582.926
-221.992
61.353
624.89
35.6686
104.109
705.9
-14.6184
5.65007
705.535
137.908
7.44818
712.296
109.875
-3.02852
717.362
124.399
-1.4082
722.22
97.7517
0.226991
729.098
88.0473
1.35859
738.146
66.4141
2.20218
743.023
56.2974
1.49409
746.415
37.9823
0.626686
747.905
30.1109
0.356131
748.953
17.0329
0.0651773
10.3401
0.0572174
1551.94
-316.512
1186.19
1297.99
136.549
297.008
924.144
310.688
345.115
692.007
224.432
117.196
360.22
41.7411
-237.431
303.379
144.855
90.944
628.435
-379.716
-277.277
538.761
202.855
-83.8419
607.978
-66.9153
43.6874
590.361
168.193
33.7317
615.989
92.5568
24.0474
643.678
101.17
12.1309
672.24
70.9345
4.93601
692.548
68.3285
2.76868
703.483
55.6695
1.44734
715.304
44.5329
0.721456
723.991
29.3223
0.260009
730.794
23.3212
0.155925
735.33
12.4918
0.0163198
7.45426
0.0358315
724.675
305.473
866.187
771.124
182.134
435.543
730.925
382.68
788.247
674.063
49.6651
-249.154
510.823
-43.9059
-382.399
437.184
271.8
6.92306
338.89
-73.2056
-505.229
-62.9666
-55.774
-73.9768
110.722
127.822
-272.018
139.317
120.764
138.277
320.347
-10.9394
-187.256
-67.0387
-9.20161
-65.8977
391.673
3.28788
-15.7896
47.248
4.19232
47.5988
471.499
20.2948
1.05688
-9.30756
20.6105
-9.19651
561.821
-5.86758
5.99318
11.6117
-5.71102
11.7701
621.032
6.56388
3.64924
-0.929924
6.67834
-0.863336
656.046
4.08931
2.82594
12.0729
4.15282
12.1682
688.321
23.0311
2.39664
705.128
27.4028
1.88772
719.335
14.9654
0.766498
727.495
15.0894
0.523405
732.592
7.3792
0.117569
5.21492
0.0607971
-56.155
435.624
-1796.31
76.2707
2.87614
-62.45
819.605
25.6102
600.196
809.521
-33.0865
-115.566
682.301
-118.126
200.198
108.839
109.48
-14.6723
105.85
128.224
127.225
161.089
101.338
161.816
68.6938
45.275
-16.228
-62.107
58.0897
17.0295
-8.9357
137.464
-75.826
31.09
-6.59996
9.92109
0.591632
-45.9422
5.86818
-14.7759
55.1741
-44.3606
1.38206
-2.14598
-95.3447
110.549
4.86954
2.3668
-2.17838
-126.277
136.891
-17.0241
2.72034
-0.784556
-150.915
154.479
2.88395
0.900467
-0.731913
-158.791
161.825
1.03764
0.749865
693.336
2.86803
4.81836
-168.711
-172.208
-168.702
-172.197
1.89742
2.99226
2.15432
707.184
13.2532
2.36314
715.9
6.12628
1.06921
722.942
7.90246
0.648675
726.502
3.72725
0.259653
2.77501
0.124226
1526.37
897.114
-689.606
905.878
407.824
77.5526
501.786
372.717
586.092
249.574
299.24
-127.678
44.4306
103.398
92.9848
-21.4657
54.1747
-18.4955
-30.44
46.5255
121.378
16.4469
23.2263
-5.99534
-6.67868
-1.25812
8.48352
-17.7776
18.8106
1.61142
-29.284
2.50857
26.5662
-20.2128
25.9335
-34.7307
-0.220292
40.5946
-7.07407
-24.5031
4.00544
-45.7692
19.6957
46.0799
-19.7826
-4.2293
-6.93492
-44.3392
5.16518
43.209
-5.07509
7.97505
-1.97731
-42.4634
4.46179
41.7139
-3.53619
1.80124
-0.352553
-42.1183
0.576699
42.1845
-0.674366
0.383985
-0.344101
-42.5163
-0.0054519
42.5103
0.00836878
0.347188
-43.7022
-2.85611
174.582
2.72132
3.61624
-43.8932
-43.7052
-43.8945
704.412
4.41548
17.9417
-175.368
-175.809
-175.314
-175.736
706.807
1.92462
6.05244
710.589
3.37957
3.09194
714.416
-0.352864
0.892146
-1.31698
0.353207
1161.28
1375.22
-2116.6
1000.45
632.824
331.076
842.052
502.164
379.104
841.382
476.602
-121.257
101.123
308.417
264.971
206.718
91.5405
197.405
-58.7674
-105.395
105.422
90.9504
68.9124
-1.73977
-23.8804
-36.1409
38.8148
21.8455
1.10071
-18.6092
-11.3982
-51.4626
60.4455
4.36048
16.664
-10.9576
19.2622
-59.3318
56.6345
-16.8196
11.2124
-11.4866
13.4406
-47.3791
45.4013
-11.6487
11.6726
-44.4596