/*--------------------------------*- C++ -*----------------------------------*\
  =========                 |
  \\      /  F ield         | OpenFOAM: The Open Source CFD Toolbox
   \\    /   O peration     | Website:  https://openfoam.org
    \\  /    A nd           | Version:  10
     \\/     M anipulation  |
\*---------------------------------------------------------------------------*/
FoamFile
{
    format      ascii;
    class       surfaceScalarField;
    location    "0.7";
    object      phi_0;
}
// * * * * * * * * * * * * * * * * * * * * * * * * * * * * * * * * * * * * * //

dimensions      [0 3 -1 0 0 0 0];

internalField   nonuniform List<scalar> 
38556
(
-405.29
-1102.06
1680.42
-599.824
-218.543
413.077
194.127
-94.3648
-699.587
428.547
335.961
-570.38
736.924
508.425
-816.803
848.622
533.184
-644.882
953.636
566.572
-671.586
1046.49
438.532
-531.385
1089.74
355.562
-398.809
1155.34
218.45
-284.055
1246.18
130.614
-221.454
1296.72
88.5938
-139.13
1265.01
76.6214
-44.9134
1131.86
97.2952
35.8513
929.449
96.4336
105.981
793.459
62.7922
73.1973
734.44
32.8093
26.2098
707.158
18.0548
9.22714
695.455
9.5792
2.12374
5.25016
0.845196
125.128
-2436.1
964.703
203.372
-823.232
526.445
683.906
-270.479
-304.42
606.575
230.565
182.728
631.244
518.257
-34.5008
673.139
530.977
-39.6875
727.811
489.452
22.448
764.854
350.084
51.4038
795.366
244.669
80.3817
816.18
157.511
40.1246
852.351
109.499
-15.0575
869.179
99.0496
-27.2837
853.071
88.4024
4.32719
813.687
99.694
36.9852
763.157
95.6917
51.2718
724.93
70.8616
30.1579
705.559
41.0868
11.0927
694.019
25.4498
4.14487
688.532
14.3861
0.680259
8.14474
0.387769
245.279
-2152.54
-2079.22
-236.009
-324.864
-17.0808
453.139
-464.731
-494.896
331.856
199.401
152.447
511.801
318.062
20.2502
514.199
441.511
87.068
612.501
363.657
27.4929
662.906
288.308
11.3717
729.489
232.367
-54.2811
757.353
201.273
-71.6259
771.168
164.116
-68.4315
764.307
144.533
-38.6227
741.418
116.772
-5.48105
724.098
106.302
10.7124
712.562
89.7747
17.4524
703.545
69.7342
10.144
696.63
43.163
4.83957
689.767
30.4653
1.8467
685.99
17.7744
0.389145
10.4968
0.265528
1150.85
-1019.27
87.7605
1006.54
158.312
-338.864
1052.82
-89.0549
-421.95
723.859
404.674
123.684
535.177
347.802
158.942
435.322
376.414
164.952
526.679
225.605
46.695
519.676
236.137
59.1738
578.752
149.779
23.5119
582.565
181.236
16.2241
609.004
130.273
7.40448
619.99
130.47
3.07725
635.445
99.7647
1.55286
646.343
92.0235
3.38009
658.397
73.488
4.2331
666.806
58.9598
2.36579
670.6
38.8877
0.480572
671.184
29.5587
0.322208
672.335
16.5772
0.046971
10.047
0.134783
350.37
-1401.93
1343.38
459.128
-46.625
96.1785
172.549
82.2063
115.318
138.655
341.191
97.3764
293.749
203.418
-10.7096
282.782
262.118
125.264
542.119
-105.518
71.7859
571.756
141.367
65.1336
642.308
63.2347
15.9916
636.945
177.47
9.12984
638.378
125.069
3.77001
640.27
125.808
2.76981
643.293
94.6433
2.09843
649.582
84.2531
1.48154
658.652
62.8293
1.58851
663.713
53.0083
0.890508
667.205
35.0987
0.297395
668.703
27.8694
0.191728
669.83
15.4002
0.0497065
9.51987
0.124976
281.704
-142.805
1538.7
265.687
287.771
-318.378
60.8607
351.318
-64.2853
148.506
338.734
-85.1877
333.782
180.665
-162.523
236.449
322.622
36.828
640.202
-431.419
-77.8512
549.417
183.004
49.148
580.679
-12.5477
44.5201
543.151
180.962
34.0354
553.922
93.5071
20.7913
572.098
97.8293
9.80245
596.69
66.5505
3.50029
615.289
64.0468
1.60777
625.876
51.5154
0.726736
637.611
40.8382
0.434498
646.214
26.3218
0.174128
652.987
20.9808
0.116215
657.509
10.875
0.00266844
6.7249
0.0966702
378.72
172.158
267.046
49.6163
512.614
104.261
-629.961
518.488
512.407
2.97298
60.4462
-354.646
378.644
113.932
-308.937
217.108
438.715
45.4429
386.582
-25.5729
-375.051
-77.3359
-52.6757
-70.2579
176.947
91.5891
-61.0912
123.388
112.633
126.12
282.627
-17.301
26.4001
-59.0572
-9.71902
-58.5507
348.408
8.29486
-2.61911
50.8532
8.61017
50.0423
411.988
18.7214
8.90959
-8.32939
18.7724
-8.14685
493.507
-6.76311
3.4386
14.0339
-6.98547
12.586
546.199
3.70619
0.759923
3.54737
2.63943
3.20556
580.63
0.575877
-0.00107602
14.6764
0.760531
13.6045
612.167
19.2613
0.717503
628.815
23.5891
0.600934
642.678
12.2668
0.191526
650.576
12.8739
0.209405
655.531
5.86995
0.0502493
4.48112
0.135686
205.389
120.16
2087.51
287.428
387.785
42.79
-85.5875
435.859
455.645
179.942
-22.0819
-183.001
688.951
-109.086
-285.991
124.948
84.7642
86.2956
124.148
111.695
117.194
182.637
96.0201
199.963
83.7968
47.6718
-32.0939
-22.0301
4.63698
96.9341
12.0481
-2.34853
-18.4056
-4.26654
7.71969
3.17702
39.5872
-31.66
-2.8094
-83.096
93.3472
9.50006
-1.02983
-109.458
117.932
-15.0956
-0.141372
-133.469
133.059
3.91247
0.204047
-141.046
139.83
1.23109
0.561436
617.756
-0.579817
0.548154
-148.977
-152.021
-152.158
-154.144
4.93901
-0.667101
4.56525
631.634
8.75198
0.959429
640.017
3.50286
0.380748
646.765
5.9641
0.161243
650.272
2.3458
0.0172238
2.1454
0.0863883
556.234
-295.942
-3326.29
597.298
144.38
202.342
245.362
277.626
510.168
107.687
170.103
-54.5092
93.839
-23.2941
-228.074
33.436
90.5872
32.1061
92.6988
68.6162
17.2883
-23.7048
-28.1007
22.6919
32.0106
-2.89704
-11.2411
-22.408
8.45386
24.7378
0.457435
-24.6771
-2.8794
26.7625
5.02883
-4.23477
-25.6323
16.8238
22.2669
-17.9217
4.46326
-29.5137
0.681901
31.4685
-0.769357
-1.86726
-34.6312
3.39401
33.87
-2.43396
-0.198862
-35.909
0.637553
35.4105
0.0011702
-0.140222
-36.8365
0.478212
36.0208
0.338746
-0.00126125
-38.1867
151.738
2.37471
0.493977
-38.2953
-39.2934
-39.4116
630.958
1.40983
4.39444
-156.199
-155.518
-158.325
-157.969
632.179
0.223511
2.05844
635.599
1.36041
1.18407
639.268
-1.56045
0.2375
-1.75223
0.140545
2002.3
-1990.95
-154.563
1467.09
-283.626
963.213
1214.46
159.367
370.886
977.275
230.807
176.484
122.59
232.098
94.6984
155.213
146.841
202.541
-55.9455
118.424
64.2198
-4.10804
-33.0933
-35.4341
36.1254
29.5163
2.88578
-24.6567
-31.1119
33.283
18.7249
3.76063
16.0131
-47.3001
45.0593
-18.2599
4.48758
18.4818
-42.4998
41.5455
-19.9591
2.43158
6.85053
-37.8887
37.7991
-6.8411
0.0801329
2.88442
-37.8468
37.8833
-2.61592
-0.305032
1.01416
-37.6295
37.5989
-0.940509
-0.043083
0.362972
-37.6411
37.6754
-0.469076
0.0718356
-37.923
0.00593113
154.895
-1.07836
1.00596
-38.3905
-38.9352
-39.58
631.997
-7.20793
4.93968
-154.705
-157.405
-156.805
-159.405
635.122
-5.36973
2.468
639.87
-4.46762
1.07983
643.57
-5.67624
0.416016
-5.34268
0.252278
1239.3
-1424.23
-2341.89
930.575
-177.899
202.994
571.466
218.953
299.523
526.975
138.078
137.22
162.112
301.263
-225.762
170.555
175.264
175.642
-69.067
189.437
68.0552
-26.3133
-17.5744
-49.7978
48.9242
17.2004
1.24769
-0.796273
-51.345
54.2478
-5.93821
3.83175
27.1756
-47.1919
45.9798
-27.7334
1.76989
21.9546
-49.3069
49.3564
-19.0808
-2.92328
5.68774
-45.001
42.6311
-5.37008
2.05224
1.44043
-39.9578
39.7789
-0.83332
-0.428227
0.646226
-39.2992
39.223
-0.467704
-0.102376
0.492823
-39.126
39.0677
-0.490048
0.0554925
-38.9138
1.63106
157.914
-2.68853
0.852537
-38.6792
-40.2253
-39.8907
636.813
-14.763
4.64271
-157.522
-157.202
-159.669
-159.506
637.107
-7.99639
2.33256
641.109
-9.57336
1.10364
643.566
-8.55764
0.423823
-7.8333
0.234743
755.841
-3065.86
-2423.68
764.215
-84.0339
-102.239
897.444
291.624
-205.9
1080.87
-71.4445
26.0942
249.522
279.235
46.27
250.078
275.331
281.699
-50.9516
257.23
25.285
17.9593
-11.7611
-67.2855
64.4988
8.23389
6.31399
15.2217
-54.7719
48.5565
-14.7891
5.78273
12.7665
-42.3889
44.0423
-7.75612
-6.66383
4.56439
-45.2995
44.1062
-1.59158
-1.77959
1.08817
-41.2475
40.6843
0.0887371
-0.613712
-1.44532
-38.8171
38.6775
1.93613
-0.351266
-0.460165
-38.454
38.512
0.531789
-0.129586
0.447443
-38.4058
38.4806
-0.572117
0.0499194
-38.6044
4.35202
158.674
-6.58315
0.640358
-38.8315
-39.7191
-39.9285
639.74
-22.8457
4.78967
-157.82
-158.097
-160.189
-160.34
640.783
-11.0259
1.98588
643.849
-13.7109
1.07208
646.391
-11.3203
0.220431
-10.2801
0.112438
-613.731
-3045.88
161.688
-422.995
159.104
-433.874
408.984
2.54901
-542.903
399.704
-236.741
174.577
649.162
-157.189
186.966
175.191
-451.09
252.071
10.4033
82.2456
-8.19655
45.2089
176.683
186.351
180.294
2.15129
159.221
-24.448
38.6935
-1.65634
2.6545
-1.42483
-1.82734
-120.852
118.337
19.5777
-12.2935
-0.331855
-2.17679
-0.433019
-2.08634
-147.536
164.24
-4.32564
-5.05929
-1.24185
-2.44384
-1.54795
-2.92872
-154.717
147.29
15.3658
-0.898816
-0.470393
-3.0745
-0.567077
-0.688111
-149.197
148.998
-1.38237
1.20001
0.665874
-0.586362
0.990902
-1.5314
-141.823
140.392
4.13779
-0.874466
0.326694
-1.25657
0.628705
-0.0266513
-146.637
152.834
-8.47212
-1.33258
1.75722
0.00579758
1.87111
0.50303
-152.099
152.979
-6.66286
-0.305331
2.48638
0.469876
2.62943
640.895
-25.1772
-0.737323
2.80816
6.59814
2.81889
6.57933
-156.796
-156.446
-159.513
-161.03
648.181
-31.2252
1.09403
651.943
-15.3246
0.53671
654.957
-17.0711
0.346072
655.606
-12.0299
0.0602319
-11.03
0.105596
-69.4274
190.641
260.556
284.508
361.085
-555.916
1396.08
-577.35
-531.673
1725.97
-545.689
-20.9443
1647.46
-557.181
478.5
1456.35
-578.644
318.67
1125.77
4.23401
328.723
29.1463
-28.328
25.8638
-29.0638
914.808
31.6013
120.508
-8.61371
49.9563
-14.4284
31.9418
757.972
201.044
37.8698
-1.15423
-31.1603
-13.0563
-36.7073
705.164
126.302
-46.1136
-18.7868
11.4786
-23.7951
3.72231
677.732
142.972
-62.4171
-6.71825
-15.3753
-13.6247
-17.4042
677.815
77.0156
-79.297
-8.8255
11.3328
-9.86618
9.55729
674.079
41.6802
-47.2013
3.81436
1.7626
2.14601
1.53494
672.977
-29.0892
-16.6491
4.046
19.979
4.30786
18.5075
675.866
-30.2719
2.20582
672.693
-33.0542
5.00232
670.842
-16.9777
3.50355
668.842
-16.6954
1.6247
666.298
-10.2771
0.791114
-9.88312
0.526132
1120.82
-522.297
-2652.39
1218.62
-702.823
966.101
1612.91
-1137.36
165.722
1915.97
-1046.22
197.469
1801.68
-920.091
477.2
1641.76
-758.021
339.301
1156.72
1.07967
488.188
904.515
170.374
113.434
853.037
287.665
-35.1424
844.067
235.69
-100.418
859.076
227.723
-99.7596
860.606
149.725
-74.239
811.491
92.757
-1.9617
744.011
7.89245
30.4979
699.488
-2.1996
16.4508
678.506
-22.2739
10.2018
671.13
-12.214
2.61171
667.616
-14.3462
1.16529
664.983
-8.01924
0.375259
-8.38558
0.337703
1006.89
-1406.77
-3766.2
1365.04
-555.938
-505.036
1731.49
-624.931
-878.871
2034.3
-535.269
-813.756
1952.17
-426.184
-411.775
1827.58
-289.488
-343.945
1370.21
230.166
228.279
1141.85
306.059
92.673
1063
351.507
15.0149
1046.05
248.318
4.32154
1021.6
208.431
43.7451
989.726
112.454
69.1403
904.565
87.0642
90.8535
814.79
25.7942
71.8736
747.003
20.1855
45.4016
705.249
-1.37134
20.8511
688.335
-1.12183
5.82214
678.676
-7.36796
2.68083
673.448
-3.61647
0.825143
-5.68902
0.529989
1669.86
-1254.19
752.474
1778.82
-923.486
258.587
1372.08
-395.255
177.068
1090.88
85.3269
-339.399
791.304
230.305
-356.913
859.351
296.026
-653.562
846.392
343.63
-100.506
934.078
278.556
-60.1828
955.049
214.504
116.032
963.863
106.742
132.762
922.533
85.5932
164.168
858.472
35.907
140.608
786.34
47.407
111.789
731.038
18.4609
62.6356
701.143
19.9872
30.0933
684.078
3.50327
12.1906
676.778
2.25789
3.92105
671.779
-3.8106
1.44121
668.977
-1.36028
0.545649
-3.94305
0.430257
2051.99
112.778
-886.316
2176.4
-870.738
-177.149
1953.1
-199.134
27.1776
1670.55
332.512
35.3601
1240.21
407.853
252.795
1139.56
382.213
14.4604
974.723
286.94
221.53
935.568
155.862
161.849
850.909
108.462
190.701
796.481
28.7426
132.427
741.8
42.9989
97.275
709.135
16.1345
52.4375
692.999
32.0009
31.5424
684.904
13.2039
13.352
682.785
14.8609
7.24501
680.012
3.64182
2.63507
677.969
3.17894
1.1212
675.031
-1.31486
0.44257
673.486
0.0263669
0.158477
-2.23704
0.219287
771.406
-721.185
-2899.56
328.128
-358.087
-69.373
757.691
102.772
-731.469
874.079
308.49
-92.366
674.944
261.669
345.319
656.719
280.092
120.346
518.668
92.5421
332.449
539.208
57.9566
77.3654
575.776
6.50428
65.3901
585.241
14.3247
4.95277
616.482
15.6319
-3.87469
628.856
10.464
-6.70304
650.589
13.9733
-3.70557
659.09
6.53838
-1.83529
667.728
6.85708
-0.634609
669.829
1.77733
-0.236107
671.565
1.54334
-0.0998017
670.999
-0.719595
-0.0294902
671.018
0.0176198
-0.0110278
-1.13305
0.144721
1558.93
-2859.21
1242.54
-41.7006
1301
44.3195
1328.47
281.019
1134.94
455.194
1068.41
346.625
839.101
321.852
730.225
166.832
643.966
92.7635
629.303
28.9877
634.701
10.234
642.588
2.57763
655.363
1.19755
661.458
0.443543
667.937
0.378886
669.537
0.176575
671.003
0.0780039
670.258
0.0247943
670.27
0.00589375
0.163422
-869.056
-39.0537
2761.85
-323.231
-481.393
348.645
740.294
-533.248
-1229.86
919.553
-83.7619
-665.877
1075.97
21.6014
-994.82
1168.26
23.7809
-760.957
1174.18
139.874
-817.374
1174.4
117.955
-649.561
1126.46
151.942
-502.811
1103.83
117.88
-379.306
1104.25
85.8336
-307.707
1126.18
36.7882
-197.854
1107.47
27.4899
-53.691
1017.41
52.6806
73.2361
881.461
75.2507
166.675
781.497
58.3339
114.827
734.622
31.6767
41.408
710.804
18.0157
15.0294
699.797
9.71319
3.41747
5.33192
1.27109
472.9
538.999
1020.75
357.02
-642.406
803.337
121.694
-509.08
-93.2622
75.7778
-16.4216
161.304
357.043
118.622
-412.787
341.261
157.993
-158.117
540.308
188.136
-224.862
576.854
146.013
-13.1994
635.793
117.334
56.0509
654.533
97.6234
41.6409
694.579
83.4383
-52.7081
717.115
83.9311
-96.9622
730.865
75.3488
-57.2823
732.597
84.4683
3.46643
730.014
82.7338
46.3712
719.663
67.8681
30.9741
706.921
40.5396
14.9722
697.656
25.414
6.01149
692.657
14.482
0.910098
8.2155
0.455936
703.314
496.543
-3065.82
427.139
-75.2315
-308.08
207.623
-445.001
-339.459
102.589
29.1477
211.912
422.601
5.75581
-186.896
408.176
177.437
82.049
570.443
160.914
-107.552
623.245
171.436
-66.8545
693.259
165.818
-172.78
714.697
171.061
-166.501
728.371
148.642
-147.31
726.519
133.156
-85.9963
716.259
109.079
-28.9508
709.504
100.225
1.71078
707.53
84.6305
17.5292
705.001
67.7004
12.8407
700.031
43.4142
6.93441
694.036
30.6964
2.55966
690.363
17.9515
0.593041
10.6014
0.317754
3875.97
508.023
63.7186
2627.9
606.7
227.275
1093.62
179.481
487.854
601.852
302.814
341.781
534.804
96.2226
135.523
420.939
200.523
255.73
524.669
85.3689
18.5103
515.664
157.712
81.9026
574.688
107.625
22.6813
580.748
163.046
18.1798
612.968
124.142
-0.316061
626.062
128.857
-5.71727
641.042
99.4317
-3.78046
651.34
92.0991
1.20879
662.68
73.4357
4.08744
670.869
59.1335
2.7438
674.689
39.2554
0.819881
675.368
29.7819
0.557029
676.554
16.7299
0.0830066
10.1317
0.125489
776.844
-802.778
-24.6838
336.81
335.153
807.759
-99.4985
169.463
561.645
-7.83995
162.891
145.641
387.733
6.12806
-316.188
310.109
133.585
269.825
543.173
-198.72
122.811
568.473
93.756
103.79
639.816
31.6661
20.6075
636.633
163.418
11.9404
640.609
121.31
2.62582
644.022
126.25
1.96349
647.472
95.8732
2.20743
653.892
85.1437
2.01685
662.816
63.5458
2.55454
667.884
53.4252
1.53056
671.443
35.4491
0.544851
672.984
28.0936
0.339026
674.156
15.534
0.0726602
9.58964
0.102848
1178.25
-755.991
4285.49
527.682
386.169
281.176
128.716
268.892
235.252
137.934
94.3499
-25.864
481.022
-17.2752
-482.209
318.817
212.998
119.62
570.773
-432.804
-95.7233
487.647
225.825
0.204595
550.407
-46.9401
60.3664
531.525
170.318
46.0184
551.832
90.3052
31.4893
574.27
97.5854
16.0289
599.929
67.2621
6.45222
618.938
64.5091
3.23354
629.652
52.0121
1.5462
641.483
41.3095
0.719453
650.192
26.6639
0.250176
657.052
21.1963
0.153433
661.615
10.961
0.0124982
6.75399
0.0713764
718.773
272.72
1403.02
199.443
390.622
619.138
-132.558
270.946
842.354
131.374
-34.7083
-489.52
463.914
-89.9048
-568.848
305.428
363.915
53.0111
264.129
-88.5285
-473.833
-58.6134
-88.6805
-56.901
80.2851
124.373
-170.764
134.22
126.382
134.367
269.734
-15.7088
-54.6105
-63.5744
-10.5778
-65.5172
341.97
5.36029
-6.58855
47.9659
1.84613
46.8785
413.426
17.6962
10.0058
-8.88444
17.3953
-8.45479
496.674
-7.36721
6.5167
12.7856
-7.09505
12.9366
550.222
2.71886
3.21804
2.8643
2.77476
2.89807
584.897
0.477351
1.83116
13.4761
0.505095
13.5432
616.199
19.6249
1.80307
632.726
23.9082
1.47474
646.613
12.4179
0.550474
654.664
12.9265
0.427973
659.698
5.87309
0.104324
4.48938
0.112642
989.652
-257.408
2433.15
1279.81
101.316
41.937
876.478
205.421
924.502
783.271
76.2977
-200.799
453.608
-60.2502
14.0167
61.6835
137.374
30.784
66.049
60.0191
58.9908
175.056
142.194
171.669
48.8315
11.2993
-26.2552
-60.7206
6.53577
34.2052
-15.2368
130.24
-31.3705
-6.67925
2.85159
-3.8534
3.47176
-11.4995
6.47804
-7.41393
43.8523
-28.505
-9.05113
-0.341287
-84.5263
95.3007
5.98275
1.28031
-0.686522
-111.677
120.26
-16.8637
1.6005
-0.458933
-135.376
135.044
2.90248
0.607108
-0.606602
-143.175
142.619
1.04342
0.596412
621.257
-0.660289
2.40663
-151.504
-154.303
-151.442
-154.289
4.61577
-0.662766
4.75525
635.653
8.84341
1.62908
644.206
3.44952
0.795839
651.029
5.84367
0.420468
654.506
2.25199
0.161372
2.10195
0.119075
1047.13
-236.759
-1579.51
978.365
300.72
71.706
735.806
391.088
567.061
470.451
320.844
-33.7016
7.49755
145.598
108.927
-37.6023
0.904288
-43.197
-30.0925
-3.64999
148.105
30.5091
23.5805
-3.01092
-0.0280809
-2.05261
6.0828
-24.5717
1.91524
1.14525
-30.0871
1.47353
31.7166
-6.1636
19.0603
-24.6726
-6.96747
27.6822
7.324
-22.4265
-3.84949
-35.0399
9.15968
37.3104
-8.72561
1.1449
1.25311
-45.1941
4.65295
44.171
-4.90674
0.0238007
-0.384399
-39.9736
4.85801
37.8257
-3.31308
0.987434
-0.218908
-38.0009
1.13519
37.3059
-0.525092
0.303811
-0.204716
-38.4563
0.734554
37.6267
0.0615861
0.238162
-39.4302
-1.23929
154.544
2.08419
1.94825
-39.5805
-39.4152
-39.5718
634.877
1.51028
10.4091
-158.611
-158.21
-158.571
-158.166
636.388
0.0933874
3.90425
640.01
1.19293
2.21294
643.631
-1.73518
0.603402
-1.86539
0.275651
803.097
-297.351
1297.17
986.53
432.847
647.654
916.528
462.245
369.73
874.192
464.692
74.9728
92.1899
336.941
222.187
186.532
90.5667
186.071
-5.92661
-117.522
86.0022
98.7143
30.9217
-12.5562
-26.63
-29.4185
29.8446
28.8979
9.8623
-13.1146
-25.8592
-25.7837
27.1183
22.0145
15.6247
-13.2136
9.56665
-48.4082
49.0764
-9.83998
12.8188
-7.16597
15.4673
-43.2215
41.8855
-15.75
8.78466
-4.22335
6.60437
-40.5626
40.9543
-7.44711
4.67431
-0.894066
3.34449
-41.1367
40.9104
-3.46911
1.24497
-0.401286
1.43825
-39.7802
39.5834
-1.34847
0.508326
-0.415501
0.52808
-39.0311
39.0195
-0.586196
0.485229
-39.1799
-1.8399
0.212426
157.911
-1.32668
2.80176
-39.6888
-39.1869
-39.7028
636.218
-7.3346
11.6071
-157.288
-159.864
-157.36
-159.529
639.345
-5.58079
5.01517
644.198
-4.66017
2.08011
647.87
-5.88957
0.898269
-5.46843
0.385271
682.7
1118.29
1306.66
498.064
781.167
39.3081
718.803
684.222
-143.192
696.504
480.333
143.878
174.506
431.376
-302.102
174.651
169.49
159.763
56.3933
-79.7849
199.872
66.1124
-68.0878
5.33862
-17.6636
-56.3925
58.8339
15.9704
-6.0869
-6.16565
-11.244
-66.1496
65.919
11.277
6.36326
7.38752
-0.482809
-65.3419
63.9286
1.78753
-7.2789
4.06305
15.8384
-53.9671
51.5925
-13.789
-3.73782
-3.07868
7.5684
-47.3154
46.7755
-7.42893
3.47915
-0.348731
3.28558
-43.8387
42.9541
-2.63154
0.579307
-0.0972228
1.00478
-41.2457
40.9771
-0.701688
0.0627049
-0.179004
0.656067
-40.5419
40.5107
-0.636333
0.190488
-40.2469
-1.55914
1.9103
160.81
-2.90771
2.32961
-40.0149
-40.266
-40.0555
641.373
-15.1937
10.6421
-159.976
-159.827
-160
-159.711
641.633
-8.40802
4.89964
645.588
-9.70838
2.19728
647.932
-8.67144
0.861555
-7.93743
0.336077
2352.1
771.832
1912.7
1701.88
914.332
414.816
1327.8
893.606
-41.2047
1257.05
363.075
214.108
270.673
572.053
67.0567
279.904
267.269
277.736
-13.3081
-65.8177
280.252
72.1082
-2.56079
-15.734
-10.8086
-74.0967
74.902
10.9171
14.8202
-26.7276
-14.4043
-76.0226
75.4511
14.4702
27.2333
3.36076
5.27356
-61.2096
55.19
-4.51443
1.89971
6.04011
4.43463
-47.6345
46.7344
-1.74555
-7.82914
3.7068
2.33824
-44.8111
44.2109
-1.11452
-4.33032
2.58986
-0.189427
-42.3375
41.8371
0.974021
-2.87406
0.341883
-0.375679
-40.3597
40.1851
0.528567
-0.320163
-0.1555
0.482718
-39.8237
39.9019
-0.588772
0.183438
-39.9375
-1.26624
4.51337
161.578
-6.65938
2.0177
-40.158
-39.9349
-40.1535
644.358
-23.5514
11.0538
-160.469
-160.698
-160.445
-160.651
645.385
-11.5142
4.06461
648.404
-13.907
2.25188
650.771
-11.4378
0.620097
-10.3733
0.168794
508.199
-1252.64
3967.78
201.849
853.51
-66.7026
336.921
259.728
-44.097
289.291
84.5874
500.693
599.252
83.9532
365.105
169.778
-257.041
488.652
-35.2538
19.2733
-36.7038
25.502
157.228
164.18
155.709
-8.21358
-74.1109
184.522
3.2459
93.9115
-10.4329
-8.34489
-10.7984
-13.007
-12.7507
-157.664
135.264
40.217
38.4571
-8.6101
-13.1646
-8.74144
-4.68678
6.85429
-147.042
157.726
8.9389
-10.1955
-3.56774
-4.63691
-3.38989
-4.09282
5.55723
-147.818
141.419
20.0047
-8.44152
-1.36474
-3.95976
-1.30429
-0.913962
3.05652
-147.175
149.98
-0.541229
-4.90214
0.718102
-0.919496
0.697912
-1.26714
2.77716
-143.95
142.905
2.16091
-2.73571
0.691708
-1.27797
0.696393
0.100479
3.44711
-149.582
155.643
-10.5068
-3.12469
1.94897
0.112302
1.96215
0.486211
0.41818
-154.76
156.086
-8.10515
-0.042583
2.70524
0.492347
2.71984
644.845
-30.2164
2.8839
2.96136
6.73141
3.14187
6.88443
-159.286
-159.784
-159.229
-159.669
652.469
-33.0787
2.99744
656.287
-16.1213
1.326
659.321
-17.393
0.798172
659.922
-12.2387
0.259542
-11.1681
0.14458
401.441
-297.657
366.145
237.024
697.919
-235.908
924.667
-385.756
-573.832
955.377
-236.251
269.184
1028.15
-338.246
827.928
951.536
-218.627
356.869
862.886
165.232
392.611
-6.79549
-60.2022
-9.16043
-64.3121
789.475
48.4407
137.754
-27.8148
26.4884
-26.5443
35.5956
727.534
150.278
43.07
-12.9017
-38.6974
-6.43078
-35.5072
710.67
38.6578
-46.0389
-22.9451
9.10462
-20.3229
12.2944
689.165
32.04
-40.2955
-6.10595
-11.985
-3.55489
-11.0102
680.505
-44.8002
-56.5489
-3.92757
18.7429
-3.357
19.2543
669.99
-43.4266
-21.4912
8.22454
5.5065
8.7481
5.75139
667.337
-70.7273
0.393351
7.02267
20.9597
7.19731
21.1585
672.671
-43.1328
9.78819
672.586
-36.3942
8.40269
673.096
-17.7442
4.61664
672.266
-17.1125
2.17441
670.379
-10.5473
0.986074
-10.0164
0.559925
-1274.01
-1034.89
-2984.74
231.91
-22.3611
180.462
1146.14
-514
-620.262
1275.93
-314.104
145.531
1062.01
-267.701
620.572
961.579
-17.809
238.916
888.34
213.774
512.886
866.316
113.944
69.9546
879.553
137.94
-36.0407
890.366
46.945
-119.519
890.994
29.5718
-97.9202
856.425
-33.0362
-51.4331
794.149
-15.6268
32.5146
740.753
-49.6306
62.797
702.567
-21.6515
33.1555
683.562
-26.311
19.1234
676.184
-12.8743
5.12012
672.488
-14.6467
2.39565
669.726
-8.21266
0.801909
-8.46785
0.499961
1760.35
-240.862
-2156.61
1903.37
329.307
-999.72
1607.92
23.7315
-1121.15
1504.77
22.082
-1046.8
1085.94
55.6525
-316.294
956.542
85.9528
-318.309
954.5
296.02
148.075
1041.02
131.704
-11.6098
1080.31
145.703
-32.0313
1104.46
45.6581
-18.5414
1070.17
45.6718
61.9261
1009.52
0.673245
96.0899
905.049
28.8783
150.815
810.039
3.08619
114.167
746.123
11.4673
76.1986
708.306
-3.33354
35.6909
692.409
-1.54386
10.3887
683.211
-7.47964
4.71139
678.034
-3.68752
1.47702
-5.70163
0.7879
457.706
-303.593
-1139.12
663.442
159.083
223.074
162.588
321.405
380.25
116.805
266.679
-538.213
201.318
198.805
-584.578
276.268
81.3937
-723.954
579.861
131.297
-239.376
730.547
48.6366
-127.802
834.388
49.0839
108.81
857.84
1.15422
153.814
831.272
26.536
209.872
783.976
9.08426
179.493
746.531
36.1367
141.975
715.625
17.3897
79.2383
697.37
19.7734
40.0424
686.114
4.11953
15.9934
680.221
2.54667
5.72358
675.821
-3.56892
1.93054
673.319
-1.33094
0.691267
-3.94743
0.393468
-247.472
426.04
-2696.46
146.445
-158.518
-253.464
436.748
356.834
-298.555
460.469
415.084
-136.766
659.183
174.683
78.2029
692.342
135.949
-73.2541
737.742
86.651
220.776
771.644
31.0508
145.533
756.93
46.9317
207.567
732.708
13.6795
144.124
704.99
49.0471
102.481
687.745
25.8686
52.8986
683.834
39.0623
32.5275
682.628
17.3219
14.6266
684.392
16.6746
8.58033
683.38
4.47298
3.2934
682.155
3.53276
1.35964
679.544
-1.11593
0.600768
678.09
0.0580007
0.222979
-2.21445
0.208856
744.213
-348.817
-3253.12
167.619
-529.114
877.817
-128.283
-102.654
23.9206
13.589
51.4034
129.443
225.211
-34.0794
342.459
256.446
73.8237
151.237
433.166
-53.2553
295.635
482.611
-5.91429
64.8849
564.844
-24.416
54.5051
580.668
4.99308
-2.18497
617.651
13.3664
-5.17686
632.047
10.7266
-5.95667
654.59
14.4435
-1.62987
663.526
7.0407
-0.490214
672.235
7.07247
0.259051
674.41
1.93945
0.122279
676.156
1.60424
0.0826052
675.635
-0.666567
0.0417967
675.638
0.0257851
0.0188462
-1.12179
0.118384
1506.4
-2060.04
1117.86
-182.272
1103.84
-44.3129
1151.23
285.031
1068.54
503.802
1074.42
414.566
871.467
471.552
759.429
272.956
661.502
166.275
640.522
54.9608
641.543
22.5788
648.064
6.783
660.109
3.59639
666.128
1.46528
672.557
1.02224
674.238
0.434972
675.699
0.221291
674.965
0.0925015
674.959
0.0377253
0.133165
-143.076
268.422
1766.97
964.75
-130.57
-628.612
1552.48
-416.66
-1400.93
1778.56
-294.437
-597.527
1694.13
-117.141
-793.25
1685.1
-101.689
-650.231
1599.98
4.39255
-736.646
1539.79
-32.069
-557.302
1335.79
81.4951
-380.313
1135.42
135.103
-314.034
993.503
145.178
-310.969
914.653
124.135
-243.139
859.915
88.2969
-87.2497
804.996
81.3647
46.7899
778.505
68.5904
124.576
750.665
53.5701
89.0965
725.135
30.3184
36.6194
708.176
17.8443
14.1439
698.85
9.68429
3.05976
5.30647
1.10955
492.842
60.4859
-546.261
1052.91
-130.665
243.363
567.506
-303.332
278.816
399.161
-259.785
294.997
357.394
-140.177
-347.984
344.032
-36.9213
-209.522
503.479
57.1773
-437.093
557.3
64.8389
-163.928
652.691
84.0062
-41.8513
676.064
99.9299
53.4398
702.214
104.948
-38.6284
708.479
107.839
-86.9311
707.064
91.4295
-58.9998
705.584
88.1617
-1.85073
710.729
76.8554
32.9616
710.283
61.7592
23.2306
704.172
38.3481
13.0535
697.422
25.0925
5.51276
692.574
14.4519
0.990543
8.19499
0.460447
1643.63
40.6972
-2458.87
1063.24
-274.163
415.812
693.951
-578.058
304.558
533.078
-251.753
364.753
587.951
-306.049
-75.8969
619.973
-34.9182
48.0231
708.532
19.7375
-158.671
740.379
70.4256
-104.289
754.516
101.11
-204.02
743.685
135.816
-191.557
734.934
137.135
-170.745
722.8
134.25
-100.273
709.057
112.269
-36.0478
703.16
101.339
-5.56917
703.09
82.8291
11.6253
702.111
65.9117
9.66776
698.772
42.7631
5.85777
693.661
30.4673
2.29569
690.24
17.925
0.540949
10.5911
0.274107
2359.64
-788.037
-958.604
1807.71
-172.837
677.882
1399.09
-141.001
459.412
932.502
138.939
417.677
563.771
-27.3034
225.507
453.651
79.6939
251.239
494.456
3.25898
-5.81581
476.294
80.5896
89.9001
546.801
49.5614
3.7238
560.57
127.692
12.5354
601.229
105.027
-8.86787
620.701
120.678
-11.6169
640.29
95.7832
-6.88346
652.322
90.3732
0.142343
663.692
71.7125
3.83387
671.161
58.2784
2.90811
674.665
38.9923
1.0873
675.362
29.6876
0.639954
676.546
16.7067
0.117137
10.1232
0.10669
862.795
-225.714
169.518
796.737
-123.794
824.774
776.916
43.6813
396.784
623.671
144.344
293.481
258.132
22.6558
-0.608438
249.642
61.7319
296.277
514.7
-215.457
76.4691
544.971
42.3636
111.745
623.963
-15.1043
6.28076
625.774
129.759
8.06224
634.151
102.11
-2.83338
640.682
117.488
-1.37783
646.128
92.286
0.258892
653.408
83.7118
1.39764
662.655
62.7989
2.22162
667.78
53.2405
1.44299
671.338
35.4146
0.564432
672.96
28.0748
0.330291
674.146
15.5267
0.0664012
9.58644
0.0703007
1668
-182.689
1990.4
1260.07
245.572
319.748
844.281
333.636
361.083
600.572
237.713
124.476
298.137
55.9501
-213.067
242.312
149.451
87.7256
552.868
-367.59
-254.146
455.343
213.585
-73.4921
526.843
-74.3801
48.1424
513.843
154.909
33.867
542.297
81.8275
23.3178
570.191
93.9069
11.7159
598.107
66.0528
4.76956
618.246
64.1595
2.64699
629.35
51.8803
1.36064
641.37
41.2773
0.662579
650.158
26.6545
0.222814
657.046
21.198
0.141665
661.616
10.951
0.0181877
6.75039
0.0462493
802.227
545.77
1417.63
700.962
365.164
600.811
666.136
414.116
796.701
580.371
82.6949
-248.738
443.123
-19.005
-356.645
369.765
275.989
-0.169039
279.919
-70.7531
-498.384
-58.9895
-53.684
-69.766
79.1985
126.176
-268.64
134.1
118.815
133.091
270.566
-11.4655
-165.419
-67.5937
-9.5422
-66.3373
337.485
-0.180383
-12.6965
46.6965
0.529674
47.0519
411.776
17.3336
0.631025
-9.06414
17.5613
-8.91908
495.308
-7.32208
5.6248
12.8182
-7.19223
12.9626
549.525
2.78176
3.46319
2.92492
2.86936
3.01526
584.547
0.537629
2.59343
13.5847
0.579937
13.6728
615.99
20.1133
2.12673
632.573
24.3804
1.78881
646.513
12.5701
0.695252
654.625
13.0132
0.500268
659.671
5.89069
0.11941
4.49476
0.076452
-120.728
350.477
-1225.75
136.034
82.0456
68.294
742.461
106.179
626.012
706.955
23.9382
-106.537
597.478
-102.125
206.614
94.6733
108.693
-23.1673
87.7519
111.557
106.903
158.309
100.533
158.997
69.1915
33.6142
-14.6374
-64.248
59.4844
22.426
-14.1986
132.679
-74.2147
29.0864
-4.07947
3.07271
2.43643
-41.9816
4.05588
-9.49943
45.7787
-43.2152
2.69958
-2.54922
-84.625
95.5228
6.39456
2.5905
-2.19477
-111.842
120.279
-16.33
2.76549
-0.742414
-135.293
134.959
3.00708
0.850982
-0.644357
-143.104
142.518
1.11011
0.658074
620.994
-0.593358
3.84132
-151.405
-154.263
-151.399
-154.252
4.97362
-0.540853
5.16542
635.479
9.64617
1.87795
644.157
3.77545
0.912244
651.008
6.0283
0.554712
654.513
2.2961
0.251085
2.11625
0.136621
1376.63
1074.54
895.697
717.696
456.929
355.753
382.975
385.58
622.382
183.382
302.271
-112.441
32.0622
110.983
81.813
-39.3958
40.4544
-35.733
-29.4925
32.2543
123.156
14.8375
21.533
-4.8879
-5.45164
-2.17423
7.907
-16.9262
18.6719
3.96702
-28.2632
0.244662
25.3258
-19.9462
25.2955
-30.3048
0.299445
35.8383
-7.35764
-23.7708
3.55357
-40.5727
19.2612
40.8229
-19.35
-3.71502
-6.87852
-39.7067
4.97309
38.3756
-4.53808
7.77467
-1.92573
-38.1718
4.69785
36.9837
-3.34228
1.75831
-0.349442
-37.9659
1.1012
37.3125
-0.475022
0.376715
-0.294509
-38.4781
0.704067
37.6609
0.107003
0.300638
-39.4643
-2.66651
154.578
2.33101
3.33627
-39.6238
-39.4658
-39.6187
634.079
2.49188
16.9319
-158.596
-158.193
-158.541
-158.118
635.672
0.49145
5.59547
639.715
1.29053
2.90805
643.527
-1.75413
0.841157
-1.87924
0.353363
896.718
1107.67
-756.815
835.763
579.736
585.802
699.495
459.845
431.734
722.073
451.378
-96.7118
84.8273
294.516
255.297
176.672
76.3002
167.631
-56.4972
-99.3056
84.926
88.9993
66.7049
-1.82408
-22.5237
-31.349
33.3954
21.0147
1.28661
-18.3101
-10.721
-45.8022
54.3807
3.81438
16.6382
-11.7435
19.1861
-53.6745
51.1336
-16.8437
11.9419
-11.6667
13.4008
-42.1645
40.2858
-11.6903
11.8348
-39.5513
-4.9513
4.96496
40.1199
-5.22898
4.64674
-40.637
-1.65444
3.01444
-2.9568