/*--------------------------------*- C++ -*----------------------------------*\
  =========                 |
  \\      /  F ield         | OpenFOAM: The Open Source CFD Toolbox
   \\    /   O peration     | Website:  https://openfoam.org
    \\  /    A nd           | Version:  10
     \\/     M anipulation  |
\*---------------------------------------------------------------------------*/
FoamFile
{
    format      ascii;
    class       volScalarField;
    location    "0.7";
    object      turbidity_0;
}
// * * * * * * * * * * * * * * * * * * * * * * * * * * * * * * * * * * * * * //

dimensions      [0 0 0 0 0 0 0];

internalField   nonuniform List<scalar> 
12920
(
-0.0168513
-0.0485604
-0.0472713
-0.0486852
-0.0443929
-0.0465421
-0.0506395
-0.0612982
-0.0784975
-0.101905
-0.129125
-0.162957
-0.205581
-0.247828
-0.286557
-0.317521
-0.33548
-0.3433
-0.346135
-0.347012
-0.0364848
-0.0657814
-0.0688842
-0.0793063
-0.0800254
-0.0908198
-0.10998
-0.140884
-0.17542
-0.210328
-0.238376
-0.26552
-0.292564
-0.312386
-0.328236
-0.338956
-0.344315
-0.346408
-0.347105
-0.347284
-0.0567786
-0.0682102
-0.101516
-0.118728
-0.121917
-0.13855
-0.15372
-0.172637
-0.186175
-0.209147
-0.243166
-0.282112
-0.314677
-0.332137
-0.340832
-0.344901
-0.346565
-0.347145
-0.347318
-0.347335
-0.033123
-0.08017
-0.110202
-0.145653
-0.16468
-0.182547
-0.18481
-0.205689
-0.239442
-0.271607
-0.302315
-0.323699
-0.336608
-0.342832
-0.345634
-0.346775
-0.347197
-0.347331
-0.347366
-0.347346
-0.0727781
-0.110569
-0.144776
-0.179778
-0.191266
-0.215095
-0.223602
-0.242484
-0.273495
-0.299027
-0.320839
-0.334257
-0.341485
-0.344836
-0.346297
-0.346914
-0.347172
-0.347278
-0.347317
-0.347307
-0.0694791
-0.114088
-0.159833
-0.170789
-0.171692
-0.221451
-0.180121
-0.231905
-0.268144
-0.298176
-0.318225
-0.330916
-0.337462
-0.341273
-0.343471
-0.344876
-0.345747
-0.346343
-0.34674
-0.346977
-0.0522744
-0.147198
-0.148792
-0.120538
-0.129652
-0.193848
-0.133492
-0.220452
-0.199314
-0.274745
-0.264268
-0.279518
-0.284023
-0.295352
-0.305105
-0.314635
-0.323062
-0.330576
-0.33651
-0.340841
-0.0234148
-0.0940745
-0.12731
-0.152315
-0.148325
-0.183835
-0.171264
-0.221838
-0.127288
-0.151014
-0.18154
-0.0885989
-0.1133
-0.0957886
-0.101207
-0.150717
-0.195567
-0.236284
-0.269528
-0.295755
-0.0312631
-0.0689542
-0.0999665
-0.164476
-0.178728
-0.181667
-0.175836
-0.200808
-0.166822
-0.0705376
-0.0382258
-0.00800293
0.00502764
0.00949905
-0.00110401
-0.0599244
-0.121914
-0.180245
-0.228594
-0.266352
-0.0280244
-0.0356298
-0.0590026
-0.103764
-0.139242
-0.155672
-0.169734
-0.154152
-0.118558
-0.071176
-0.0349051
-0.0076992
0.0101491
0.0189946
0.00712966
-0.0554001
-0.117745
-0.176012
-0.224855
-0.263441
-0.0336774
-0.0514303
-0.0931196
-0.127152
-0.123492
-0.126325
-0.135176
-0.119169
-0.0909949
-0.066478
-0.0486635
-0.0196976
0.00486136
0.0172189
0.00679446
-0.0551908
-0.117207
-0.175456
-0.224422
-0.263151
-0.0666945
-0.0654262
-0.086223
-0.110677
-0.126238
-0.123475
-0.121342
-0.113643
-0.0812272
-0.0594227
-0.0467722
-0.0220842
0.00184321
0.0143044
0.00176177
-0.0686428
-0.127783
-0.183664
-0.230334
-0.267145
-0.0790097
-0.0740306
-0.0771291
-0.107387
-0.134369
-0.149256
-0.149677
-0.112868
-0.0860456
-0.0849865
-0.0954378
-0.0913133
-0.095567
-0.0879166
-0.147248
-0.184168
-0.218427
-0.251134
-0.278712
-0.300993
-0.0263736
-0.0539907
-0.0540576
-0.0639116
-0.0745581
-0.0954103
-0.125814
-0.14389
-0.14444
-0.14944
-0.169353
-0.208045
-0.255173
-0.297188
-0.321014
-0.332638
-0.33831
-0.341693
-0.343838
-0.345227
-0.0540003
-0.0481905
-0.050449
-0.0544384
-0.061295
-0.0779973
-0.110957
-0.139659
-0.147174
-0.153524
-0.174724
-0.212531
-0.259365
-0.297712
-0.323644
-0.337566
-0.343715
-0.346101
-0.34694
-0.347195
-0.0231437
-0.0310856
-0.0366578
-0.0406286
-0.0504659
-0.0668872
-0.0972419
-0.13404
-0.159473
-0.179848
-0.202853
-0.233406
-0.267395
-0.300026
-0.324365
-0.338139
-0.344204
-0.346421
-0.347122
-0.347292
-0.0219793
-0.0407667
-0.0499073
-0.0473826
-0.0556272
-0.0754431
-0.116588
-0.153061
-0.180392
-0.208039
-0.237611
-0.272629
-0.30375
-0.326939
-0.339263
-0.344621
-0.346542
-0.347153
-0.347318
-0.347333
-0.0230672
-0.0460804
-0.0606755
-0.0683587
-0.0761107
-0.0963451
-0.129009
-0.172799
-0.215934
-0.260399
-0.294241
-0.31949
-0.333676
-0.341532
-0.345073
-0.346554
-0.347109
-0.347303
-0.347355
-0.347341
-0.0213229
-0.0494665
-0.0607655
-0.0801087
-0.099723
-0.142117
-0.192635
-0.241905
-0.271046
-0.290199
-0.305441
-0.319478
-0.331391
-0.339126
-0.343564
-0.345754
-0.346749
-0.347154
-0.347289
-0.34731
-0.0171961
-0.0463009
-0.0784508
-0.099807
-0.120094
-0.150393
-0.191471
-0.24915
-0.296004
-0.322053
-0.333993
-0.340279
-0.3437
-0.345636
-0.346613
-0.347074
-0.347266
-0.347333
-0.347352
-0.347337
-0.015816
-0.0232209
-0.0182407
-0.0169853
-0.0153116
-0.0127398
-0.0102777
-0.0080502
-0.00661325
-0.0064605
-0.00865382
-0.0154143
-0.0336041
-0.0653929
-0.0887779
-0.0775035
-0.0467185
-0.0226337
-0.0092294
-0.00347504
-0.0117843
-0.0277343
-0.0241675
-0.0227315
-0.0104467
-0.00990239
-0.0153869
-0.0171877
-0.0178082
-0.0122147
-0.0122971
-0.0209487
-0.0408863
-0.0578137
-0.0563655
-0.0387052
-0.0200203
-0.00886534
-0.00335883
-0.00127155
-0.00888583
-0.0176305
-0.0363484
-0.0417823
-0.0204792
-0.0195399
-0.0120275
-0.00786164
-0.00532504
-0.00448768
-0.00640742
-0.0119164
-0.0210481
-0.0277515
-0.0253472
-0.0166485
-0.00868735
-0.00393794
-0.00156839
-0.000637949
-0.00337131
-0.0112404
-0.0277222
-0.0565531
-0.058025
-0.0436896
-0.0146785
-0.0128185
-0.00747164
-0.00624117
-0.00683979
-0.00861205
-0.0102616
-0.0102873
-0.00795179
-0.00476106
-0.00226849
-0.00104051
-0.000452565
-0.000247263
-0.0512692
-0.0450989
-0.0504667
-0.046566
-0.0178657
-0.033941
-0.0210174
-0.0213021
-0.0136964
-0.0102534
-0.00787785
-0.00653596
-0.00525967
-0.0039679
-0.00266068
-0.00154066
-0.000756443
-0.000381806
-0.0001997
-0.00014805
-0.0483619
-0.0512008
-0.0344703
-0.020852
-0.0123387
-0.0168929
-0.0158018
-0.0311069
-0.0402212
-0.0310508
-0.0210057
-0.0120889
-0.00643718
-0.00339583
-0.00177533
-0.000960341
-0.000515298
-0.000298164
-0.000176295
-0.000139713
-0.0341329
-0.0574057
-0.0618843
-0.0264988
-0.0252365
-0.0220822
-0.0169885
-0.0255922
-0.0283601
-0.017235
-0.0106912
-0.0053787
-0.00231242
-0.00102015
-0.000634084
-0.000384088
-0.000210297
-0.000154039
-0.000120144
-0.000135574
-0.0186141
-0.0295516
-0.0602427
-0.0584517
-0.054565
-0.0405132
-0.0334161
-0.0294025
-0.0458354
-0.0237093
-0.00930238
-0.00541223
-0.00189847
-0.000942582
-0.000184958
-0.000206872
-0.000128779
-7.98621e-05
-5.08392e-05
-7.22729e-05
-0.00817469
-0.0331058
-0.0669212
-0.0639096
-0.0603122
-0.054495
-0.0440208
-0.0347513
-0.0387946
-0.0836209
-0.0765971
-0.030688
-0.00438755
-0.000464644
-6.43797e-05
-0.000202631
-0.000249188
-0.000216457
-0.000105713
-7.59362e-05
-0.00425423
-0.0212633
-0.0467187
-0.0588225
-0.0540651
-0.0589898
-0.0856502
-0.118964
-0.125599
-0.0799546
-0.0471853
-0.0184606
-0.00387801
-0.000592948
-3.84081e-05
-0.000201866
-0.000265204
-0.000236038
-0.000157801
-0.000106766
-0.0058011
-0.0357552
-0.0534176
-0.0526188
-0.0402572
-0.0425569
-0.0553575
-0.0948171
-0.090908
-0.0460171
-0.0220972
-0.0130951
-0.00316341
-0.00041159
-2.13614e-05
-0.000201775
-0.000283794
-0.000263594
-0.000177986
-0.000116513
-0.00451437
-0.0221133
-0.035786
-0.0446576
-0.0497372
-0.0540177
-0.075578
-0.100599
-0.0731823
-0.0140565
-0.00355084
-0.00177939
-0.000807112
-0.000320758
-0.000150887
-0.000453256
-0.000335145
-0.000233588
-0.00011002
-6.83042e-05
-0.0109656
-0.0316959
-0.0426875
-0.0635226
-0.0791968
-0.0878501
-0.0970598
-0.0646847
-0.0159105
-0.00909128
-0.0114834
-0.0110308
-0.0102417
-0.00737758
-0.00605721
-0.00344861
-0.00164406
-0.000736249
-0.000300959
-0.000159325
-0.00537004
-0.0268117
-0.0284717
-0.0375039
-0.0581306
-0.0665581
-0.0637842
-0.0402481
-0.0229352
-0.0197239
-0.0230989
-0.0305596
-0.0335591
-0.0318445
-0.0252132
-0.0172003
-0.00989325
-0.00499771
-0.00230052
-0.00102639
-0.0222857
-0.0315695
-0.0218343
-0.0260362
-0.0389751
-0.0534536
-0.058894
-0.0384052
-0.0260196
-0.0277252
-0.0365123
-0.0530884
-0.0695499
-0.0741592
-0.0551031
-0.0325302
-0.0155753
-0.00666115
-0.00258784
-0.000987955
-0.0030027
-0.00575774
-0.00756654
-0.0106302
-0.0176635
-0.0296831
-0.0447459
-0.0399268
-0.0388551
-0.0507384
-0.0732828
-0.0987433
-0.115343
-0.106621
-0.0770103
-0.0440714
-0.0207269
-0.00872903
-0.0033326
-0.0012351
-0.00402818
-0.00909083
-0.0108426
-0.0125346
-0.0223352
-0.0341338
-0.055929
-0.0767352
-0.101369
-0.125497
-0.142733
-0.144039
-0.12481
-0.0873305
-0.0505689
-0.0244185
-0.0103333
-0.00398114
-0.00143153
-0.00054221
-0.00918937
-0.0336514
-0.0245155
-0.0220607
-0.0438295
-0.0593474
-0.0852444
-0.100655
-0.112699
-0.107036
-0.0943549
-0.0699949
-0.0490435
-0.0288677
-0.0156976
-0.00759604
-0.0034643
-0.00152311
-0.000650339
-0.000316591
-0.00712908
-0.0160887
-0.029537
-0.0488269
-0.084509
-0.087613
-0.10129
-0.0609938
-0.0430759
-0.0221632
-0.0168532
-0.0105411
-0.00680281
-0.00347638
-0.00169325
-0.000748205
-0.000343973
-0.000177554
-0.000110629
-0.000120245
-0.0101864
-0.0293051
-0.054854
-0.0735706
-0.0916214
-0.10888
-0.130424
-0.124964
-0.085859
-0.0417599
-0.0171937
-0.0066914
-0.00284934
-0.00139775
-0.00078915
-0.000476997
-0.000276145
-0.000160616
-0.000115218
-0.000143831
-0.0145514
-0.0137253
-0.0157688
-0.017173
-0.0170004
-0.0152048
-0.0128227
-0.0100513
-0.00784587
-0.00663856
-0.00749068
-0.0118277
-0.0219315
-0.0331621
-0.0352471
-0.0238918
-0.0112745
-0.00429503
-0.00139952
-0.000409852
-0.0124959
-0.0209044
-0.0239735
-0.0180443
-0.0121235
-0.00664559
-0.00450768
-0.00334366
-0.00371265
-0.0040204
-0.0051661
-0.00716826
-0.0101003
-0.0121998
-0.0105618
-0.00599111
-0.00250748
-0.000866005
-0.000257778
-6.95955e-05
-0.00876822
-0.0170168
-0.0281085
-0.0326308
-0.0237848
-0.015381
-0.00989909
-0.00644364
-0.00426942
-0.00288368
-0.0023231
-0.00253867
-0.00304185
-0.00320958
-0.00247306
-0.00131225
-0.000524159
-0.000173931
-5.01894e-05
-1.3202e-05
-0.0112056
-0.0140146
-0.0195264
-0.0290738
-0.0225123
-0.0146002
-0.0058421
-0.00345989
-0.00180357
-0.00115419
-0.000839961
-0.00081268
-0.00077886
-0.000661805
-0.000417898
-0.000196783
-7.16755e-05
-2.2542e-05
-6.1867e-06
-1.5711e-06
-0.0276205
-0.0280166
-0.0288481
-0.023689
-0.0143694
-0.0102812
-0.00508206
-0.00415063
-0.00251864
-0.00150493
-0.000829961
-0.000475059
-0.000273005
-0.000155555
-7.63011e-05
-3.12954e-05
-1.06087e-05
-3.24263e-06
-8.9837e-07
-2.48974e-07
-0.0767974
-0.0309774
-0.0200428
-0.0176889
-0.0129336
-0.00662563
-0.00558298
-0.00500231
-0.00655116
-0.00417251
-0.00211153
-0.000882274
-0.000336663
-0.000124157
-4.37228e-05
-1.47138e-05
-4.69654e-06
-1.46272e-06
-4.42304e-07
-1.4151e-07
-0.0125376
-0.0308336
-0.0348437
-0.0246352
-0.0207537
-0.0140438
-0.00871405
-0.00478106
-0.00545971
-0.00242851
-0.000979626
-0.000375274
-0.000139177
-5.25889e-05
-2.0201e-05
-7.75868e-06
-2.87845e-06
-1.06251e-06
-3.80212e-07
-1.45244e-07
-0.0134199
-0.0304453
-0.0524149
-0.038605
-0.0345958
-0.0239078
-0.0156253
-0.00446185
-0.0129517
-0.0115972
-0.00175296
-0.0010165
-0.000203444
-4.34716e-05
-7.65248e-06
-2.32261e-06
-7.04701e-07
-2.18485e-07
-6.6507e-08
-3.1047e-08
-0.00361705
-0.0221449
-0.0506334
-0.0313905
-0.0398021
-0.0267064
-0.0155994
-0.00702507
-0.0290691
-0.0644525
-0.0441875
-0.00996744
-0.000960823
-7.0522e-05
-3.09972e-06
-1.09315e-06
-6.20211e-07
-3.14968e-07
-9.09111e-08
-3.21993e-08
-0.00667427
-0.013867
-0.0302636
-0.0289905
-0.0296255
-0.0349981
-0.0321348
-0.0639366
-0.0869032
-0.0606707
-0.0214095
-0.00450049
-0.000622934
-6.71706e-05
-3.09589e-06
-1.12298e-06
-7.52138e-07
-3.72656e-07
-1.4734e-07
-5.39342e-08
-0.00704961
-0.0169676
-0.0221031
-0.0246427
-0.0251062
-0.0291997
-0.0399573
-0.0585432
-0.0528449
-0.019689
-0.00623409
-0.00136633
-0.000173665
-1.69663e-05
-8.01342e-07
-1.21758e-06
-9.25454e-07
-5.03546e-07
-2.02683e-07
-7.25457e-08
-0.00506796
-0.0145223
-0.020804
-0.0272351
-0.0312138
-0.0358421
-0.0527753
-0.0694628
-0.0382428
-0.00436384
-0.00106043
-0.000441478
-0.000128462
-2.56263e-05
-9.85436e-06
-2.01218e-05
-7.30413e-06
-2.55477e-06
-7.83851e-07
-2.3135e-07
-0.0134626
-0.0231076
-0.0332961
-0.0464673
-0.0524274
-0.0580177
-0.0606446
-0.0290418
-0.00874323
-0.00539064
-0.00488071
-0.00330631
-0.00237342
-0.00130847
-0.000922047
-0.000402196
-0.000149174
-5.10779e-05
-1.5877e-05
-4.6106e-06
-0.0157171
-0.0233705
-0.0288178
-0.0399904
-0.0552502
-0.0481041
-0.0353381
-0.0211015
-0.0145404
-0.0156968
-0.0159646
-0.0164256
-0.0132408
-0.00923417
-0.00520728
-0.00249911
-0.00102195
-0.000372775
-0.000122691
-3.71809e-05
-0.0149955
-0.0184593
-0.0189714
-0.0319225
-0.0424984
-0.0365874
-0.0301909
-0.0218744
-0.0213198
-0.0274012
-0.0329564
-0.0371051
-0.0357385
-0.0278735
-0.0160402
-0.00744184
-0.0028851
-0.000991314
-0.000308394
-8.84936e-05
-0.00162894
-0.00291916
-0.00530982
-0.0121932
-0.0225308
-0.0224528
-0.0242416
-0.0285429
-0.0359458
-0.0475834
-0.0574157
-0.0633208
-0.0612832
-0.0449024
-0.0250554
-0.010909
-0.00392581
-0.00123822
-0.000351029
-9.12491e-05
-0.00503405
-0.00802014
-0.00916116
-0.0118086
-0.0174975
-0.0215859
-0.0365291
-0.0506103
-0.071265
-0.0806582
-0.0841004
-0.0699154
-0.0476557
-0.0250207
-0.0107534
-0.00385365
-0.00121837
-0.000349442
-9.3237e-05
-2.35119e-05
-0.00620944
-0.018722
-0.0149937
-0.0167121
-0.0331252
-0.0333293
-0.0460864
-0.0421972
-0.0429562
-0.0334437
-0.0249477
-0.0150572
-0.00882495
-0.004059
-0.0016634
-0.000581563
-0.00018626
-5.53754e-05
-1.5632e-05
-4.25565e-06
-0.00695519
-0.0121526
-0.0248552
-0.0375876
-0.0608004
-0.0432986
-0.0406068
-0.0161907
-0.00897669
-0.00458444
-0.00347566
-0.00191691
-0.00103465
-0.000431953
-0.000165488
-5.49648e-05
-1.71469e-05
-5.0086e-06
-1.4136e-06
-3.9954e-07
-0.0101701
-0.020942
-0.0342806
-0.0506136
-0.0676647
-0.0839808
-0.0955837
-0.0710335
-0.0348276
-0.0120978
-0.00362599
-0.00103739
-0.000305824
-9.30125e-05
-2.93438e-05
-9.28605e-06
-2.92515e-06
-9.05432e-07
-2.79788e-07
-1.04803e-07
-0.0097932
-0.0106512
-0.0129941
-0.0152721
-0.0162102
-0.0159703
-0.0144426
-0.0117421
-0.00920251
-0.00716868
-0.00602725
-0.00632214
-0.00899826
-0.0114809
-0.0101598
-0.00579362
-0.00240081
-0.00082318
-0.000245073
-6.59643e-05
-0.0100477
-0.018299
-0.0229158
-0.0215645
-0.0174579
-0.0119785
-0.00781809
-0.00456571
-0.00316535
-0.00297377
-0.00306784
-0.00314726
-0.00325742
-0.00297728
-0.00209688
-0.00104156
-0.000394933
-0.000125844
-3.49953e-05
-8.81894e-06
-0.00399355
-0.0193143
-0.0278374
-0.0293216
-0.0233351
-0.0170546
-0.0125548
-0.00907596
-0.00627433
-0.00387442
-0.00222931
-0.00135393
-0.000905998
-0.00062087
-0.000362757
-0.000163984
-5.84245e-05
-1.77103e-05
-4.71654e-06
-1.14348e-06
-0.00190718
-0.00874967
-0.0171467
-0.0230933
-0.0171719
-0.0103117
-0.00680223
-0.00410468
-0.00246404
-0.00140652
-0.000730843
-0.000391472
-0.000211626
-0.000116473
-5.58912e-05
-2.23655e-05
-7.36495e-06
-2.13849e-06
-5.56651e-07
-1.35392e-07
-0.00780136
-0.0156043
-0.0178684
-0.0176965
-0.0139363
-0.0077635
-0.00470316
-0.00286499
-0.00155893
-0.000849118
-0.000420409
-0.000205235
-9.68421e-05
-4.49696e-05
-1.95962e-05
-8.0108e-06
-3.07562e-06
-1.1343e-06
-4.0309e-07
-1.38127e-07
-0.0336764
-0.0190774
-0.0177071
-0.0183091
-0.0151892
-0.0077477
-0.00566426
-0.0029299
-0.00154899
-0.000784814
-0.000341275
-0.000139818
-5.52845e-05
-2.18239e-05
-8.34988e-06
-3.08608e-06
-1.0871e-06
-3.67561e-07
-1.17839e-07
-3.60228e-08
-0.017681
-0.0221357
-0.0251384
-0.022417
-0.0191036
-0.0129811
-0.0088401
-0.00377999
-0.00149924
-0.000501415
-0.000166178
-6.00342e-05
-2.22559e-05
-8.63469e-06
-3.35776e-06
-1.29356e-06
-4.80583e-07
-1.72901e-07
-5.92898e-08
-1.93446e-08
-0.00709316
-0.026205
-0.0345916
-0.020848
-0.0218387
-0.0168619
-0.0131128
-0.00263377
-0.00311295
-0.00324011
-0.000388043
-0.000239082
-4.38919e-05
-8.67283e-06
-1.60693e-06
-4.21427e-07
-1.14106e-07
-3.17177e-08
-8.62873e-09
-2.2885e-09
-0.00759753
-0.0204867
-0.0307612
-0.0168223
-0.0232914
-0.019828
-0.0133249
-0.00452517
-0.0150749
-0.0283675
-0.0119017
-0.00221041
-0.000221929
-1.63263e-05
-6.60389e-07
-3.72643e-08
-8.63546e-09
-2.05553e-09
-4.34195e-10
-9.15193e-11
-0.0108297
-0.0185526
-0.0226983
-0.0207174
-0.0269876
-0.0268362
-0.0177731
-0.0362824
-0.0541849
-0.0292058
-0.00611743
-0.000886263
-9.32764e-05
-7.48977e-06
-2.86516e-07
-1.92471e-08
-4.7946e-09
-1.10363e-09
-2.43414e-10
-5.01151e-11
-0.0084321
-0.0131573
-0.0153605
-0.0171227
-0.0205815
-0.0289989
-0.0382835
-0.0406178
-0.0253613
-0.00676321
-0.00110045
-0.000185685
-3.41532e-05
-4.57693e-06
-2.86816e-07
-5.41488e-08
-1.73573e-08
-5.76636e-09
-1.79948e-09
-5.3256e-10
-0.00691132
-0.00984239
-0.0143464
-0.0201348
-0.0254814
-0.0302865
-0.0445483
-0.0439821
-0.0132069
-0.00243303
-0.000626022
-0.000205868
-5.17994e-05
-8.87841e-06
-1.78497e-06
-3.05591e-06
-9.94768e-07
-3.16364e-07
-9.26302e-08
-2.5743e-08
-0.0459461
-0.0233609
-0.0240189
-0.0317323
-0.0348407
-0.0353027
-0.0347684
-0.0141158
-0.00571428
-0.00329064
-0.00248545
-0.00124667
-0.000687666
-0.000305856
-0.000188986
-7.42736e-05
-2.52333e-05
-8.01564e-06
-2.33291e-06
-6.36452e-07
-0.00588509
-0.0193108
-0.0234846
-0.0297531
-0.0363691
-0.0272066
-0.0183495
-0.0115094
-0.00808753
-0.00837984
-0.00707356
-0.00612921
-0.00420929
-0.00253165
-0.00122837
-0.000515935
-0.000188478
-6.26924e-05
-1.90767e-05
-5.4008e-06
-0.00509184
-0.0141017
-0.0186334
-0.0257194
-0.0303426
-0.0194765
-0.0151602
-0.0129183
-0.0128354
-0.015791
-0.0166117
-0.0160179
-0.0130752
-0.00852844
-0.00424968
-0.00176587
-0.000632398
-0.000204124
-6.04056e-05
-1.66157e-05
-0.00171836
-0.00585036
-0.00847759
-0.0135328
-0.0175119
-0.0131587
-0.012706
-0.0154286
-0.0203308
-0.0264174
-0.0314376
-0.0308531
-0.0253589
-0.0153652
-0.00724187
-0.0027586
-0.000898434
-0.00026072
-6.89897e-05
-1.6884e-05
-0.00459049
-0.00895828
-0.0102182
-0.0117533
-0.0132861
-0.0108936
-0.0139772
-0.019194
-0.0321494
-0.0360857
-0.0342301
-0.0241718
-0.0137177
-0.00609675
-0.00229159
-0.000742216
-0.000217133
-5.84483e-05
-1.47572e-05
-3.5343e-06
-0.00960087
-0.016248
-0.0184382
-0.0170753
-0.0231715
-0.0138245
-0.0148307
-0.0101428
-0.0105168
-0.00776815
-0.00613942
-0.00360493
-0.00199249
-0.000834501
-0.000309655
-9.84262e-05
-2.86724e-05
-7.71025e-06
-1.95441e-06
-4.718e-07
-0.00878414
-0.0181415
-0.0279894
-0.0323492
-0.045579
-0.0307102
-0.0196266
-0.00730367
-0.00305881
-0.00144716
-0.000976394
-0.000502442
-0.000246452
-9.48291e-05
-3.3179e-05
-1.01366e-05
-2.8853e-06
-7.64051e-07
-1.92716e-07
-4.65255e-08
-0.0064404
-0.0244132
-0.0323873
-0.0400119
-0.0529247
-0.0670354
-0.0666387
-0.0381811
-0.0150419
-0.00457376
-0.00123906
-0.0003284
-9.05157e-05
-2.62363e-05
-7.93546e-06
-2.4305e-06
-7.40972e-07
-2.21223e-07
-6.40178e-08
-1.7864e-08
-0.00344717
-0.0067642
-0.00943616
-0.0113505
-0.0125133
-0.0137356
-0.0139746
-0.0124747
-0.0102744
-0.00822975
-0.00628169
-0.00421052
-0.00256898
-0.00181473
-0.00134941
-0.000689558
-0.000262801
-8.37779e-05
-2.3319e-05
-5.88349e-06
-0.0135905
-0.0152404
-0.0185886
-0.0186636
-0.0168358
-0.0141106
-0.0110819
-0.00769397
-0.00457093
-0.00269745
-0.00199096
-0.00135374
-0.000803276
-0.000464755
-0.000255
-0.000111418
-3.88913e-05
-1.16188e-05
-3.05673e-06
-7.31305e-07
-0.0159286
-0.0168166
-0.0203102
-0.0205746
-0.0181928
-0.0157826
-0.013351
-0.010739
-0.00817649
-0.00528123
-0.00273397
-0.00119006
-0.000463111
-0.000174176
-6.43233e-05
-2.20964e-05
-6.71551e-06
-1.83547e-06
-4.54718e-07
-1.04306e-07
-0.00183531
-0.00721073
-0.0116828
-0.014819
-0.0149059
-0.013665
-0.0118609
-0.00894631
-0.00566504
-0.00298002
-0.00130707
-0.000505267
-0.000173132
-5.61588e-05
-1.73642e-05
-5.12809e-06
-1.41198e-06
-3.6738e-07
-9.02634e-08
-2.12969e-08
-0.00806063
-0.0100241
-0.01076
-0.0120299
-0.0119255
-0.0107139
-0.00930449
-0.00642031
-0.00345064
-0.00164006
-0.000654911
-0.000236502
-7.7391e-05
-2.41359e-05
-7.26428e-06
-2.15319e-06
-6.28474e-07
-1.82813e-07
-5.2959e-08
-1.52892e-08
-0.00667385
-0.014274
-0.0185427
-0.0191109
-0.0173968
-0.0137222
-0.00956407
-0.00484571
-0.0015694
-0.000610946
-0.000203989
-6.79264e-05
-2.10714e-05
-6.47026e-06
-1.92785e-06
-5.67268e-07
-1.63419e-07
-4.66455e-08
-1.3001e-08
-3.5506e-09
-0.00758637
-0.0188889
-0.0237677
-0.0249207
-0.0236044
-0.0185821
-0.0119416
-0.00557046
-0.00114839
-0.000238908
-5.21246e-05
-1.44119e-05
-4.2643e-06
-1.37013e-06
-4.48165e-07
-1.4968e-07
-4.96273e-08
-1.64551e-08
-5.32648e-09
-1.67174e-09
-0.00601686
-0.0183148
-0.023094
-0.0192847
-0.0159056
-0.0125989
-0.00940393
-0.00300296
-0.000697498
-0.00043271
-6.01633e-05
-3.81866e-05
-7.19949e-06
-1.36777e-06
-1.99345e-07
-4.90897e-08
-1.23945e-08
-3.22311e-09
-8.29748e-10
-2.10422e-10
-0.00426757
-0.0124084
-0.0157718
-0.0122489
-0.0119784
-0.0108932
-0.0082231
-0.00130795
-0.00114515
-0.00606217
-0.00301583
-0.000623736
-6.11729e-05
-4.11966e-06
-1.33932e-07
-4.25959e-09
-8.5335e-10
-1.77584e-10
-3.61441e-11
-7.27349e-12
-0.00772644
-0.0160841
-0.0154864
-0.0155283
-0.0216789
-0.0147503
-0.00694311
-0.0175944
-0.0262474
-0.0124213
-0.00333777
-0.000515677
-4.3196e-05
-2.42477e-06
-7.20198e-08
-3.24265e-09
-6.0564e-10
-1.13843e-10
-2.16303e-11
-4.14018e-12
-0.00778836
-0.0149127
-0.0149058
-0.0163232
-0.0185042
-0.0170017
-0.0207046
-0.0252995
-0.0130468
-0.00324338
-0.000717558
-0.000116707
-1.68103e-05
-1.98952e-06
-1.13401e-07
-8.93757e-09
-2.28938e-09
-6.90238e-10
-2.05628e-10
-5.95353e-11
-0.00985297
-0.013123
-0.0132362
-0.0160359
-0.0183707
-0.0144889
-0.0131267
-0.0104073
-0.00493756
-0.001434
-0.000333968
-0.000110694
-2.22976e-05
-2.81842e-06
-3.31165e-07
-4.43105e-07
-1.36095e-07
-4.18081e-08
-1.18623e-08
-3.19746e-09
-0.0367863
-0.0218753
-0.0159035
-0.0184703
-0.0176796
-0.0155587
-0.0155029
-0.00782782
-0.0033473
-0.00156241
-0.000847075
-0.00034826
-0.000154503
-5.81427e-05
-3.08319e-05
-1.14627e-05
-3.71035e-06
-1.13199e-06
-3.17705e-07
-8.377e-08
-0.0175297
-0.0150283
-0.0144543
-0.0163357
-0.0150963
-0.0116738
-0.00820136
-0.00535638
-0.00350044
-0.00288932
-0.00208323
-0.00151273
-0.000910146
-0.000486432
-0.000215717
-8.45445e-05
-2.92502e-05
-9.30131e-06
-2.7222e-06
-7.4396e-07
-0.0191674
-0.00936354
-0.0115134
-0.0135316
-0.0124467
-0.00874102
-0.00693226
-0.00583185
-0.00509366
-0.00525562
-0.00470365
-0.00396944
-0.00282802
-0.00162638
-0.00073987
-0.000288172
-9.86893e-05
-3.07994e-05
-8.8798e-06
-2.39123e-06
-0.00811087
-0.00568175
-0.00672634
-0.00915347
-0.00913486
-0.00740333
-0.00647408
-0.00651964
-0.00731693
-0.00832659
-0.00945519
-0.00837984
-0.00600555
-0.00317846
-0.0013453
-0.00047403
-0.000145983
-4.05314e-05
-1.03478e-05
-2.45649e-06
-0.0135577
-0.0104696
-0.0141946
-0.0158637
-0.0157007
-0.0105542
-0.00690107
-0.00555871
-0.00706601
-0.00775695
-0.00697191
-0.00447205
-0.00231752
-0.000952577
-0.000339043
-0.000105568
-2.99392e-05
-7.8363e-06
-1.92345e-06
-4.46884e-07
-0.0208673
-0.0196797
-0.0266982
-0.0300475
-0.0326981
-0.0206712
-0.0101785
-0.00477921
-0.00297317
-0.00186961
-0.00135519
-0.000738221
-0.000369816
-0.000145036
-5.08951e-05
-1.55717e-05
-4.38422e-06
-1.14222e-06
-2.80067e-07
-6.51926e-08
-0.00629611
-0.0235626
-0.0297013
-0.0395494
-0.047717
-0.0353771
-0.0197854
-0.00761919
-0.00264801
-0.000960742
-0.000411432
-0.000175124
-7.42666e-05
-2.7867e-05
-9.8169e-06
-3.19611e-06
-9.89254e-07
-2.91574e-07
-8.21796e-08
-2.21822e-08
-0.0104483
-0.0205481
-0.0259265
-0.039629
-0.0550036
-0.0552783
-0.0404876
-0.019359
-0.00721258
-0.00235884
-0.000770117
-0.000271008
-0.00010161
-3.93687e-05
-1.50241e-05
-5.53617e-06
-1.93353e-06
-6.37722e-07
-1.97765e-07
-5.78052e-08
-0.0291816
-0.0264716
-0.0122522
-0.0356727
-0.0122551
-0.0114598
-0.00316362
-0.00695036
-0.00889495
-0.00271682
-0.00796165
-0.00196098
-0.00197144
-0.000502222
-0.00836328
-0.00801853
-0.00199874
-0.00827084
-0.00221089
-0.00405681
-0.00126365
-0.00213357
-0.00138438
-0.000591426
-0.001414
-0.000404698
-0.000903081
-0.000359274
-0.173276
-0.174579
-0.15622
-0.118761
-0.162109
-0.153701
-0.149022
-0.192115
-0.158762
-0.137321
-0.176218
-0.130961
-0.140592
-0.125171
-0.0914388
-0.125252
-0.0844791
-0.0955122
-0.104419
-0.127275
-0.102687
-0.0416599
-0.072334
-0.0387455
-0.105128
-0.0957784
-0.0914107
-0.0669381
-0.0150823
-0.0296212
-0.0100797
-0.0895259
-0.0586196
-0.0608304
-0.0403697
0.00417727
-0.0047432
0.00830972
-0.046087
-0.0186338
-0.0333551
-0.0160666
0.00905251
0.011621
0.0181997
-0.0138271
-0.00586895
-0.0119522
-0.00430484
0.00800918
0.0194589
0.0214755
-0.00454447
-0.00285278
-0.00292964
-0.000825385
-0.156751
-0.151708
-0.140865
-0.1555
-0.149631
-0.141308
-0.141771
-0.13299
-0.128761
-0.0977843
-0.145097
-0.137111
-0.138973
-0.116821
-0.0801385
-0.0903902
-0.0724837
-0.129847
-0.0921719
-0.108541
-0.0789777
-0.0439447
-0.0676254
-0.0540185
-0.0805496
-0.0589966
-0.0662893
-0.0429011
-0.0134166
-0.0473755
-0.0240509
-0.0540411
-0.0382532
-0.0410217
-0.0357634
0.00647103
-0.0167796
0.00133223
-0.0326086
-0.0170728
-0.0322809
-0.0191239
0.0175428
0.00587167
0.0154868
-0.0129755
-0.00486096
-0.0149888
-0.00610686
0.0213336
0.0174451
0.0206789
-0.00333111
-0.00094613
-0.00431359
-0.00133534
-0.127655
-0.12129
-0.116587
-0.113906
-0.12758
-0.105374
-0.112392
-0.0979219
-0.113471
-0.094895
-0.127714
-0.115024
-0.113902
-0.110981
-0.0719637
-0.0873234
-0.0654261
-0.108603
-0.0771379
-0.102565
-0.0469739
-0.0541418
-0.0601777
-0.0502444
-0.0606404
-0.0333956
-0.0313484
-0.0114177
-0.0270787
-0.0470306
-0.0303892
-0.0321456
-0.0316934
-0.0100613
-0.011875
-0.000153701
-0.023407
-0.00307176
-0.0299284
-0.0193141
-0.0133938
-0.0145098
0.0151476
0.00251439
0.0139148
-0.0153556
-0.00636539
-0.0130822
-0.00695424
0.0206274
0.0161645
0.0198855
-0.00449765
-0.00138421
-0.0052018
-0.00188176
-0.117212
-0.12935
-0.122416
-0.115311
-0.114856
-0.122483
-0.120643
-0.0899358
-0.110985
-0.0755218
-0.114889
-0.102252
-0.119269
-0.0760248
-0.0625429
-0.0698658
-0.0659856
-0.0854602
-0.0306553
-0.0487562
-0.0219988
-0.0510099
-0.0661177
-0.062088
-0.0223308
-0.0162735
-0.0256949
-0.0409763
-0.0288493
-0.0602498
-0.0469561
-0.0155606
-0.0143987
-0.0426073
-0.0390496
-0.0032532
-0.0433053
-0.0362749
-0.0147503
-0.0142901
-0.0374663
-0.0332756
0.0122439
-0.0380597
-0.0362486
-0.0130249
-0.00772223
-0.0338585
-0.0326884
0.0179406
-0.0357549
-0.0317013
-0.00609913
-0.00270424
-0.0321578
-0.0272926
-0.050852
-0.0748436
-0.112261
-0.0192902
-0.0181758
-0.0307959
-0.0619248
-0.0328797
-0.0963943
-0.113817
-0.0172859
-0.0200349
-0.0661685
-0.09071
-0.07585
-0.120281
-0.103169
-0.0336404
-0.0710057
-0.0956309
-0.0901872
-0.0827288
-0.0927719
-0.0650251
-0.0739921
-0.0652033
-0.0818888
-0.0474329
-0.0431078
-0.0559372
-0.0277997
-0.0558891
-0.0223265
-0.0363973
-0.0126968
-0.0076191
-0.0200968
-0.00603702
-0.0140702
-0.00271364
-0.00821442
-0.00189201
-0.000802062
-0.00379891
-0.000867643
-0.00149751
-0.000254477
-0.00112423
-0.000229184
-0.000133806
-0.00052067
-0.000110795
-0.000142657
-2.88169e-05
-0.000132992
-2.4603e-05
-0.121238
-0.0755694
-0.112571
-0.0431228
-0.0667513
-0.0534214
-0.0674385
-0.129188
-0.118456
-0.110283
-0.0748349
-0.0941815
-0.0736975
-0.0725304
-0.0919009
-0.0993649
-0.0644778
-0.0966411
-0.0789806
-0.0658641
-0.0418295
-0.0545023
-0.0531212
-0.0345614
-0.0680292
-0.0355957
-0.0344604
-0.0183405
-0.024834
-0.0321033
-0.0213696
-0.0269305
-0.00955821
-0.0142481
-0.0048972
-0.00599698
-0.0165728
-0.00563048
-0.00636062
-0.00164797
-0.00306678
-0.000681628
-0.000959708
-0.00355812
-0.000814786
-0.00102194
-0.000230843
-0.000404133
-8.54406e-05
-0.000133426
-0.000498676
-0.00011662
-0.000137325
-2.67881e-05
-5.10047e-05
-1.04358e-05
-0.0849338
-0.0475435
-0.0795582
-0.0460225
-0.0582378
-0.0411313
-0.0508228
-0.0969232
-0.0884938
-0.0944482
-0.0626455
-0.0635342
-0.056253
-0.0665314
-0.0595973
-0.0870404
-0.0369426
-0.0603212
-0.0362173
-0.0588005
-0.018598
-0.023978
-0.0233144
-0.00568713
-0.0275509
-0.0127197
-0.0108244
-0.00252346
-0.0161415
-0.00389408
-0.0021141
-0.00992996
-0.00380296
-0.00172844
-0.0007798
-0.00491599
-0.00191855
-0.00118823
-0.0025111
-0.000579175
-0.000632149
-0.00029308
-0.000696083
-0.000908808
-0.000339265
-0.00033626
-6.13588e-05
-0.000210197
-6.49181e-05
-8.57384e-05
-0.000242143
-9.88772e-05
-3.43689e-05
-5.91047e-06
-4.23729e-05
-1.16712e-05
-0.0967819
-0.0860831
-0.106104
-0.0572688
-0.0668063
-0.0678957
-0.0812818
-0.0898129
-0.106347
-0.0599868
-0.0713941
-0.06318
-0.0818683
-0.0316914
-0.0222494
-0.0354435
-0.0090221
-0.0466705
-0.0102219
-0.0169618
-0.00482242
-0.00458956
-0.00786774
-0.00846821
-0.00589674
-0.00182147
-0.00418394
-0.00407263
-0.00206213
-0.00850615
-0.00726066
-0.00140262
-0.000770862
-0.0043271
-0.00405364
-0.00102179
-0.00670867
-0.00508672
-0.000640686
-0.000320116
-0.00389819
-0.00319766
-0.000390123
-0.00489584
-0.00384343
-0.000242302
-0.000100096
-0.00321358
-0.00264828
-0.00017593
-0.00350663
-0.00247121
-7.51788e-05
-3.18323e-05
-0.0024309
-0.00156237
-0.00970928
-0.0222428
-0.0531113
-0.0146598
-0.00760369
-0.0144136
-0.0276124
-0.0116959
-0.0605602
-0.0817069
-0.00566159
-0.00863334
-0.0384793
-0.0599131
-0.0628627
-0.0865461
-0.0820311
-0.0197184
-0.0374029
-0.0620121
-0.0520714
-0.0534615
-0.0738112
-0.0389081
-0.0356131
-0.0221483
-0.0440426
-0.0161261
-0.016083
-0.0287281
-0.00903597
-0.0164156
-0.00489796
-0.0102942
-0.0023817
-0.00180951
-0.00566084
-0.00116882
-0.00296746
-0.000555825
-0.00140193
-0.000265792
-0.000136252
-0.000662428
-0.000113367
-0.000308826
-5.19547e-05
-0.000150534
-2.68769e-05
-1.08895e-05
-6.16303e-05
-9.48432e-06
-2.88418e-05
-5.39019e-06
-1.48897e-05
-2.38611e-06
-0.0547971
-0.0411703
-0.0588274
-0.0224581
-0.0311012
-0.0354948
-0.0477745
-0.0841014
-0.0652196
-0.0628655
-0.0417213
-0.0614641
-0.0492358
-0.041822
-0.0714601
-0.0570649
-0.035031
-0.0617105
-0.0451492
-0.0364922
-0.0173158
-0.0304092
-0.049325
-0.0466555
-0.0521129
-0.0374567
-0.0412068
-0.0391804
-0.00784413
-0.0151929
-0.0157182
-0.0161329
-0.0109863
-0.0110735
-0.011487
-0.00105099
-0.00166909
-0.000362789