/*--------------------------------*- C++ -*----------------------------------*\
  =========                 |
  \\      /  F ield         | OpenFOAM: The Open Source CFD Toolbox
   \\    /   O peration     | Website:  https://openfoam.org
    \\  /    A nd           | Version:  10
     \\/     M anipulation  |
\*---------------------------------------------------------------------------*/
FoamFile
{
    format      ascii;
    class       volVectorField;
    location    "0.7";
    object      U;
}
// * * * * * * * * * * * * * * * * * * * * * * * * * * * * * * * * * * * * * //

dimensions      [0 1 -1 0 0 0 0];

internalField   nonuniform List<vector> 
12920
(
(112.654 -125.367 78.5432)
(-196.693 3.62136 14.9583)
(76.5501 -28.5737 -4.17003)
(-22.3151 26.9219 -14.0285)
(96.4867 41.0906 -24.2253)
(63.5661 47.531 -20.5487)
(102.61 55.9551 -21.0258)
(96.933 49.4682 -16.5134)
(114.321 45.7626 -13.209)
(110.783 32.3713 -9.47657)
(124.607 20.1413 -7.23897)
(131.122 12.503 -5.55184)
(133.495 9.38538 -2.2025)
(126.06 10.9255 0.0474221)
(106.378 10.1356 1.87676)
(85.3584 6.29847 1.49502)
(78.0898 3.1541 0.583162)
(73.4917 1.79304 0.199036)
(72.6915 0.948849 0.0407218)
(70.2569 0.577383 0.0158261)
(140.365 -134.819 18.6421)
(-111.589 -57.472 14.5325)
(123.253 6.13592 -7.21092)
(22.3463 37.1448 6.00336)
(90.2042 61.7454 2.51898)
(45.6159 58.9392 -3.91483)
(86.4396 57.1855 -0.23649)
(67.2735 38.585 -0.201357)
(87.2309 25.5075 1.6364)
(78.7224 11.9422 0.979582)
(88.1505 6.41974 0.314465)
(88.0446 5.46221 0.776629)
(90.4226 6.14886 1.71958)
(85.6087 8.59133 2.21743)
(82.0027 9.37393 1.87943)
(75.4081 6.4712 0.97747)
(73.8218 3.55693 0.303257)
(71.7506 1.90692 0.106423)
(71.6771 1.01549 0.0222521)
(69.8613 0.497956 0.0120269)
(243.218 -338.826 -131.193)
(-192.411 -102.129 1.69729)
(134.986 -61.6436 -22.7605)
(-34.1876 5.05475 2.92518)
(87.6905 34.1562 7.72292)
(23.5132 45.3422 4.96496)
(73.801 39.8948 5.6294)
(54.8237 31.9187 2.78919)
(78.811 24.5917 0.561268)
(73.3468 20.3559 -0.650942)
(81.4692 16.0903 -0.989188)
(78.2569 14.7802 -0.497062)
(78.8729 11.7261 0.34459)
(74.3388 11.5916 0.583815)
(74.7188 10.008 0.61407)
(72.2146 7.97371 0.293108)
(72.5224 4.86416 0.121251)
(71.1611 3.31272 0.0511401)
(71.3338 1.93796 0.00993927)
(69.6906 1.15436 0.00713533)
(251.22 -82.6408 50.4042)
(16.8183 43.8471 -18.0379)
(178.072 -21.0759 -31.0472)
(38.5567 36.1926 0.450362)
(102.061 35.5931 12.6656)
(11.4096 45.1493 7.75443)
(71.7282 34.168 4.83524)
(38.5931 26.2258 2.88141)
(66.7174 22.148 1.39647)
(54.2464 20.0442 0.854228)
(64.6873 17.1631 0.548026)
(61.4872 14.4426 0.395275)
(65.9728 12.1172 0.264796)
(65.187 9.97763 0.22932)
(67.8293 8.36437 0.196998)
(67.8234 6.3147 0.10009)
(69.2565 4.03864 0.0198678)
(68.9852 2.97191 0.00985684)
(69.5857 1.72691 0.00215974)
(68.6409 0.999892 0.00501046)
(52.7384 -31.3506 28.5462)
(-39.5967 2.86128 -19.885)
(94.922 3.33612 -3.07347)
(-65.9313 37.0611 9.83037)
(85.1403 25.5046 15.7653)
(-21.9343 26.9448 5.03311)
(69.6952 8.93433 3.77959)
(43.3901 20.6616 2.40552)
(72.7629 8.10112 0.801898)
(61.3902 17.3442 0.325589)
(68.6206 9.54716 0.113926)
(63.9706 12.4883 0.0781542)
(67.535 8.31682 0.0542834)
(65.4511 9.04286 0.0356854)
(68.1257 6.79351 0.0321149)
(67.5863 5.90292 0.016976)
(68.7725 4.05069 0.004641)
(68.6815 3.16425 0.00329504)
(69.2726 1.71789 0.000779301)
(68.4277 1.04657 0.00445725)
(88.2053 -181.721 27.7699)
(-68.3723 -1.92884 -32.1924)
(104.085 15.1175 -1.42436)
(-98.1555 36.8237 -1.16932)
(119.454 18.0032 6.06711)
(-46.2709 27.2738 0.305797)
(87.4431 -30.0865 -3.33181)
(47.0266 7.70351 1.84715)
(65.6303 4.69229 1.24275)
(55.2135 18.4369 0.833393)
(56.694 16.0546 0.440917)
(57.6073 12.8448 0.19081)
(60.2888 11.312 0.0596422)
(62.6842 8.23764 0.0276809)
(63.8843 6.30768 0.0118611)
(64.795 5.04279 0.0120913)
(66.0933 3.28251 0.00597256)
(66.8736 2.6352 0.00402009)
(67.6962 1.4951 0.00033184)
(67.4585 0.91568 0.00389703)
(120.23 39.2177 -68.1735)
(-31.1931 24.0243 1.81613)
(-5.22621 37.0045 23.994)
(-125.756 18.4879 -2.01375)
(117.947 11.7865 -1.19625)
(-35.7619 35.2713 1.37195)
(72.8832 -57.5314 -12.4296)
(9.10064 29.1444 -1.41996)
(25.1392 -10.0798 1.60071)
(30.0749 18.7356 0.152761)
(39.1005 2.90226 0.207854)
(44.4869 7.13868 0.0602699)
(56.5555 2.20141 -0.0275587)
(56.2599 5.04208 -0.0390734)
(62.6953 4.22549 0.00205464)
(63.1152 3.46375 0.000154405)
(65.7329 2.15744 -0.00276737)
(66.4234 1.74545 0.00198844)
(67.4828 0.77337 0.000372785)
(67.2526 0.460779 0.0047655)
(105.301 -4.24191 154.017)
(-55.0177 61.2636 25.5973)
(75.176 63.4418 13.0338)
(-99.3931 -15.3664 -4.07422)
(126.2 5.50077 -11.4571)
(24.3887 54.0753 1.92855)
(62.4149 13.0329 -2.81199)
(9.41759 41.4301 2.44202)
(0.372327 -5.45813 0.798637)
(5.74412 -3.8282 -0.727024)
(35.848 10.7051 -0.309369)
(45.1196 -8.11137 -0.0566618)
(55.5325 1.89919 0.00263223)
(57.4788 -1.52983 0.0546904)
(62.6478 -0.35068 -0.0330882)
(64.3332 1.29929 0.0118857)
(65.2395 0.308879 -0.000784745)
(66.2329 0.911851 -0.00352275)
(66.8445 0.437618 -0.00543505)
(66.8118 0.443068 0.000548851)
(141.336 19.1216 -134.773)
(-24.8581 8.59035 29.7485)
(118.25 15.3828 25.0822)
(-61.5794 -3.8498 -5.19828)
(80.1601 -36.5903 -15.9036)
(23.3703 24.9713 0.512051)
(43.933 47.3207 -0.201783)
(16.3911 37.5063 -0.418784)
(41.3158 8.89871 -0.872043)
(37.6371 -27.046 1.67987)
(49.589 -0.912717 -0.927318)
(56.1625 -5.24754 -0.0798343)
(58.5354 -1.34013 -0.102999)
(59.9305 -1.06654 -0.0595627)
(63.5909 0.120982 0.00674815)
(64.4987 0.003602 0.0337278)
(64.7861 -0.00313271 0.0305599)
(65.0852 0.142095 0.0139767)
(65.5468 -0.0830993 -0.00310071)
(65.9159 -0.0715697 -0.00130047)
(305.309 -158.08 -75.226)
(108.473 -22.8512 31.0874)
(187.601 30.6607 24.1076)
(86.8768 31.5739 6.97028)
(107.949 23.7275 -3.77061)
(28.8199 18.9824 -0.543627)
(56.6974 50.6041 1.41314)
(49.8 38.636 0.696618)
(76.8527 -27.5384 1.51536)
(69.8374 -29.5646 0.694002)
(62.0763 -10.2444 -0.459134)
(62.1498 -4.41087 -0.334555)
(61.7365 -2.31285 -0.0885843)
(61.8717 -1.44821 -0.0320704)
(63.6786 -0.909831 0.0843644)
(64.5198 -0.600502 0.031621)
(64.8426 -0.553761 0.0264931)
(65.4248 -0.200165 0.0113793)
(65.9937 -0.465015 -0.00132722)
(66.3758 -0.395144 0.00138134)
(208.494 -252.312 -136.413)
(60.3218 -67.4336 3.3315)
(125.514 -16.0659 26.0197)
(11.6973 11.0962 8.80974)
(92.7306 21.2886 -6.69356)
(60.0152 26.6491 -2.2233)
(78.5523 26.5399 0.531813)
(87.5707 -5.89616 1.48443)
(75.9967 -43.572 2.26868)
(81.2493 -32.6401 -0.915032)
(71.7605 -8.68921 0.998672)
(65.2431 -3.01573 -0.285446)
(64.166 -1.85658 -0.0350497)
(64.0059 -1.55627 -0.0121238)
(64.7974 -1.4558 0.0490407)
(65.0483 -1.85438 0.0532571)
(65.0528 -1.29137 0.0285148)
(65.4975 -1.18353 0.0107189)
(65.9818 -0.838133 0.000444144)
(66.3526 -0.687766 0.0018276)
(200.516 -92.0751 -191.513)
(8.5683 6.63323 -29.8708)
(119.631 52.5705 -14.3832)
(82.6683 14.0326 -3.73854)
(126.589 45.1243 -1.02573)
(93.4659 13.8866 2.72527)
(108.906 15.7593 3.59969)
(86.2979 -23.9102 2.47638)
(70.8339 -14.1109 -1.53908)
(73.5628 -5.06547 -0.342801)
(67.1358 -1.16185 -0.42649)
(63.0389 2.92243 0.100066)
(62.6342 0.395464 -0.000947692)
(62.6622 -1.44917 0.0167145)
(65.0191 -2.15122 0.0398044)
(64.9176 -2.03343 0.0514855)
(65.4547 -1.19195 0.0226854)
(65.5982 -1.09133 0.00828087)
(66.173 -0.928581 -0.00613929)
(66.7281 -0.849161 -0.00196824)
(131.432 -448.149 -153.311)
(-229.825 -22.783 -25.9545)
(138.954 16.662 -27.8071)
(-33.3936 -31.278 -3.42394)
(105.618 9.97658 1.97594)
(41.1536 -39.0375 4.86009)
(81.1959 -0.69541 3.39522)
(45.1594 8.95944 -3.36775)
(68.4499 7.76521 -0.68143)
(60.0479 5.8225 0.229107)
(61.728 1.85839 0.733417)
(56.1189 0.235604 0.192863)
(61.7469 -1.53506 0.0711784)
(61.3239 -2.60787 -0.0349608)
(64.7688 -2.05217 -0.107903)
(65.6426 -2.82159 -0.0141933)
(66.372 -1.60103 -0.00590273)
(66.7045 -1.74272 -0.00309854)
(67.1868 -1.31582 -0.00649485)
(67.5361 -1.18484 0.000184422)
(93.4721 -114.397 58.4609)
(-86.9001 78.3012 -31.7218)
(154.646 -18.0094 -24.5532)
(144.477 -13.3235 -11.6084)
(189.392 -35.5596 4.57404)
(153.098 -46.1505 8.53375)
(136.917 0.760922 10.0377)
(97.017 -7.49999 3.38732)
(86.8521 19.2703 0.159734)
(69.5925 4.2596 -2.75543)
(72.1699 9.85763 -3.67078)
(66.801 -0.384061 -3.99694)
(70.5255 0.735646 -2.59547)
(66.9966 -4.67675 -1.1672)
(69.6649 -3.33186 -0.181602)
(68.0635 -3.2945 0.0666924)
(68.7404 -1.61073 0.0868956)
(68.0589 -1.56152 0.045226)
(68.4266 -1.01462 0.0233712)
(68.4187 -0.982387 0.0158238)
(217.729 101.664 -55.6184)
(44.4674 -10.2215 30.2853)
(165.67 -90.7612 14.0061)
(162.07 -90.9721 2.82366)
(206.931 -78.0725 5.96822)
(168.595 -67.3797 7.13186)
(154.007 -3.93471 15.7953)
(86.7753 12.0853 3.36513)
(92.7283 23.1312 -2.75523)
(82.2265 21.7115 -5.13286)
(87.7262 20.452 -5.50616)
(87.08 16.3598 -4.66476)
(87.5406 7.9916 -1.59162)
(77.6883 -1.21109 0.11284)
(73.5306 -2.54301 0.215656)
(68.9384 -3.04428 0.158773)
(68.8255 -1.74145 0.0450191)
(67.8414 -1.65465 0.0219271)
(68.1857 -0.978659 0.00714768)
(68.3097 -0.962504 0.00814309)
(177.604 -155.613 -155.189)
(65.3523 -112.141 6.01282)
(172.42 -129.624 -10.9344)
(177.425 -110.299 -19.5663)
(214.194 -96.2381 -19.6303)
(186.103 -80.2305 -17.7898)
(173.673 1.69174 6.88673)
(110.672 24.1752 4.58088)
(115.462 37.2176 0.880378)
(102.859 28.0141 -0.290162)
(106.98 26.7844 0.306394)
(101.306 15.3485 1.3322)
(98.7911 11.5337 1.80355)
(85.5783 2.43125 1.49527)
(79.9057 1.44371 0.870209)
(72.0196 -1.32196 0.405014)
(71.07 -0.792786 0.120891)
(68.9461 -1.11368 0.0517259)
(69.1458 -0.602336 0.0150681)
(69.0519 -0.693035 0.011311)
(189.648 -172.77 25.5473)
(177.874 -37.4855 -27.1568)
(181.112 4.87498 -11.058)
(99.9448 6.96364 -10.4495)
(108.512 11.0906 -10.1159)
(59.782 23.2904 -21.4017)
(101.198 40.9599 -3.02739)
(77.995 38.1286 -0.882362)
(103.689 34.4615 3.40919)
(92.359 23.389 3.68637)
(99.9844 16.6164 4.48986)
(88.0489 8.52592 4.16773)
(85.2462 7.21131 3.14568)
(74.6847 3.21328 1.78064)
(73.2451 2.90236 0.825017)
(69.1948 0.660495 0.331676)
(69.334 0.25897 0.102261)
(68.084 -0.368847 0.0431581)
(68.4709 -0.197108 0.0138598)
(68.7543 -0.417215 0.0105069)
(205.758 -61.8016 14.4031)
(205.989 -134.52 -37.0489)
(239.513 -78.6702 -7.15436)
(171.672 10.8478 3.02011)
(154.84 38.1973 7.20443)
(104.703 38.9749 -0.271277)
(115.967 34.1811 5.69567)
(86.8908 20.7717 4.22293)
(97.2771 11.6758 4.76469)
(77.1003 -0.40688 3.08565)
(81.5958 1.94699 2.2749)
(69.3805 -0.693072 1.1917)
(72.9156 2.79496 0.714957)
(67.7575 0.58714 0.268512)
(70.3952 1.24315 0.140482)
(68.1778 -0.166276 0.0431878)
(69.414 -1.5768e-06 0.0209678)
(68.2874 -0.517959 0.00852986)
(68.9188 -0.202357 0.00274768)
(69.266 -0.359271 0.00579967)
(231.474 59.0736 -81.2985)
(-46.2739 -49.0944 -37.1604)
(104.901 21.1137 -36.04)
(71.0196 47.2094 -9.6313)
(94.4958 40.8342 10.3436)
(46.7302 38.1324 3.74441)
(77.2906 20.9059 10.0595)
(32.1193 11.7546 2.21941)
(70.7697 10.2706 1.41949)
(46.967 6.53242 -0.402895)
(67.4434 6.87859 -0.635643)
(57.6147 3.91886 -0.571645)
(67.6941 3.89559 -0.355638)
(64.058 2.17695 -0.186646)
(68.5567 1.88221 -0.0848948)
(66.7743 0.880689 -0.032748)
(68.5922 0.620352 -0.0136888)
(67.7212 0.150198 -0.00476571)
(68.5691 0.143366 -0.002235)
(69.0941 -0.0843323 0.00422899)
(223.298 -142.637 -125.463)
(76.6318 -18.9358 -0.864077)
(154.128 9.71869 24.6287)
(124.34 21.9608 17.8716)
(135.325 15.203 16.2503)
(99.6176 20.1476 12.0029)
(107.806 0.760208 10.384)
(66.4171 0.820024 4.64293)
(76.3588 -8.56728 1.97178)
(55.3912 -3.63964 0.513794)
(68.7866 -3.43138 0.111546)
(59.9435 -1.65919 0.00406847)
(68.2953 -0.865442 -0.011828)
(64.4079 -0.738755 -0.0100927)
(68.6446 -0.378874 -0.00352331)
(66.6926 -0.491497 -0.00119527)
(68.5588 -0.286683 -0.00136392)
(67.6051 -0.32129 -0.00100572)
(68.4901 -0.153245 -0.000898864)
(69.0168 -0.139529 0.00499598)
(26.005 -113.06 44.3055)
(-188.895 -59.6555 14.3457)
(128.234 -84.6102 -50.6694)
(43.4746 -42.5667 -30.0468)
(128.828 -25.9849 -41.71)
(102.344 -16.6625 -30.824)
(129.076 2.95197 -32.6065)
(116.103 9.50719 -25.9542)
(121.757 20.8783 -18.971)
(111.379 19.6828 -13.4763)
(114.08 14.1178 -10.6261)
(113.147 3.25072 -5.73077)
(117.13 0.780951 -1.56228)
(110.546 3.83671 2.61613)
(98.6202 7.48692 6.57817)
(83.149 5.58072 4.41153)
(77.7919 3.05355 1.54625)
(73.8085 1.82028 0.550497)
(73.1198 0.977109 0.133132)
(70.7271 0.592092 0.0511745)
(159.433 92.1616 45.1109)
(-68.0275 -44.1604 27.0287)
(102.863 -22.3102 -17.6531)
(-76.7776 24.4679 8.05331)
(88.3794 30.2615 -5.84501)
(-8.72757 19.7706 -0.0400894)
(70.4579 24.1582 1.36549)
(43.9052 13.5639 3.93648)
(71.7418 9.09423 4.65465)
(61.1144 4.00282 2.2312)
(72.6166 3.43054 -1.38754)
(71.2043 4.3503 -2.95502)
(76.172 4.85641 -1.43377)
(74.7 6.68355 0.635493)
(76.1483 7.70594 2.23205)
(74.3502 6.27043 1.46128)
(73.7561 3.42375 0.600164)
(72.0894 1.87083 0.229491)
(72.0836 1.01389 0.0340502)
(70.3083 0.500073 0.0184109)
(219.095 38.0363 -127.87)
(-47.314 -76.2082 -7.59201)
(120.995 -86.0587 -20.6139)
(-75.269 -26.2123 9.0198)
(89.2805 -12.6388 -6.96518)
(3.87887 10.1743 1.79856)
(70.1879 12.4284 -3.00138)
(49.5375 15.7595 -1.64356)
(75.7176 15.1129 -4.77284)
(68.8769 16.0358 -4.99289)
(77.1518 13.7042 -4.48464)
(73.7126 12.7995 -2.61546)
(75.6054 10.3988 -0.816069)
(72.3746 10.4412 0.257557)
(73.6408 9.05332 0.784869)
(72.2352 7.55971 0.532486)
(72.7925 4.88607 0.271775)
(71.5915 3.34109 0.0985249)
(71.7824 1.95879 0.0222071)
(70.1466 1.16672 0.0138593)
(486.317 50.4529 1.4949)
(320.313 72.2387 -8.57223)
(220.36 9.00553 1.89122)
(9.388 35.3047 8.65626)
(105.782 14.8932 0.422391)
(7.67772 26.618 5.55636)
(72.1651 20.1987 -0.982579)
(37.9308 18.5975 1.98327)
(66.3622 18.057 0.585873)
(53.7299 18.1688 0.462324)
(64.8163 16.3859 0.0640309)
(62.1675 14.1031 -0.142655)
(66.5551 11.8922 -0.134045)
(65.765 9.89533 0.0387616)
(68.2895 8.27294 0.139863)
(68.2495 6.31015 0.0904042)
(69.6705 4.06674 0.0196705)
(69.416 2.99077 0.0160725)
(70.0201 1.74199 0.00156197)
(69.0796 1.00867 0.00681503)
(196.329 80.7331 -6.71188)
(-43.7234 56.1207 21.2575)
(88.2639 22.0369 15.0797)
(-112.285 18.6278 -1.67296)
(99.2937 -2.25316 -16.8148)
(-17.7558 10.4547 5.70125)
(70.5097 -5.55007 2.16136)
(42.9993 12.3148 2.95)
(72.3798 3.47876 0.463894)
(61.2436 15.4685 0.411617)
(68.7158 9.04617 0.193396)
(64.3332 12.4864 0.146775)
(67.9458 8.46378 0.114955)
(65.9054 9.1404 0.0830498)
(68.5611 6.8735 0.0949539)
(68.0094 5.94348 0.0552878)
(69.2095 4.09645 0.0197752)
(69.1206 3.19087 0.0123474)
(69.7189 1.73396 0.00319019)
(68.8769 1.05518 0.0069476)
(277.411 -275.233 93.4452)
(-28.9609 9.73152 -4.0369)
(127.451 16.4451 -1.97042)
(-108.325 18.2191 -5.41953)
(128.389 1.5993 -20.6813)
(-25.1852 16.6906 2.787)
(81.07 -33.2081 -2.27085)
(38.5321 5.84815 1.85197)
(60.9621 2.46228 2.34027)
(53.3689 17.4746 1.86242)
(56.0876 15.752 1.22768)
(57.7586 12.9248 0.600952)
(60.5931 11.4178 0.224368)
(63.0547 8.32229 0.102825)
(64.273 6.37506 0.0479677)
(65.1914 5.08637 0.0222011)
(66.5003 3.30855 0.00801181)
(67.2916 2.65458 0.00521121)
(68.1206 1.50635 0.000216436)
(67.8858 0.921345 0.00530578)
(217.796 31.4284 59.5992)
(-42.9155 31.722 -0.545796)
(55.0745 19.8456 17.2162)
(-89.4799 -12.57 -25.2313)
(107.036 -14.5306 -24.7307)
(-7.60109 23.1089 2.20787)
(62.0758 -54.2637 -16.8753)
(-6.53963 39.8213 -3.70658)
(24.2175 -13.7 0.555034)
(28.6976 17.3827 -0.357246)
(39.0972 2.49579 0.464079)
(44.7759 7.00968 0.212461)
(56.9425 2.23834 0.0814068)
(56.7239 5.05151 0.0390331)
(63.1251 4.2617 0.0546045)
(63.5269 3.52086 0.0458253)
(66.1324 2.20356 0.0173245)
(66.8414 1.77137 0.0144116)
(67.9125 0.780294 0.00338907)
(67.6875 0.4613 0.00712414)
(128.922 15.4619 90.8214)
(112.957 23.134 -30.1793)
(139.113 26.7706 21.5187)
(46.8349 -3.67988 -11.0724)
(105.407 -9.62101 -12.7754)
(-4.49287 51.0417 4.75766)
(37.6186 -24.3576 -7.58215)
(-1.69248 55.9097 -3.54861)
(3.9578 -2.85581 0.27323)
(8.67479 -5.68982 -1.6608)
(36.6081 10.1284 0.115311)
(46.1693 -8.41302 0.206909)
(56.2795 1.13809 0.0886039)
(58.3264 -1.62423 0.0882477)
(62.9684 -0.310155 0.0750871)
(64.7407 1.30976 0.071798)
(65.6666 0.298164 0.0334438)
(66.673 0.898573 0.0183179)
(67.2894 0.431324 0.00667383)
(67.2464 0.443963 0.00761385)
(171.704 -80.8911 -196.583)
(58.6038 -21.3893 -26.6421)
(129.806 3.70027 16.0714)
(36.9714 6.81622 0.482344)
(53.1734 -13.2582 -1.67702)
(-16.8023 58.6938 4.73997)
(-7.56454 4.37575 -16.2542)
(3.06624 49.4693 -2.38131)
(45.3314 18.5139 -14.0922)
(58.9098 -11.7704 0.820646)
(73.7158 -6.95271 -0.265966)
(63.7955 -7.24518 0.54339)
(61.8288 -2.54297 0.192182)
(62.5882 -1.72547 0.158916)
(64.5642 -0.101755 0.240996)
(64.8904 0.0144318 0.331127)
(65.2052 -0.00520174 0.140152)
(65.5397 0.130865 0.0821376)
(66.0095 -0.0968716 0.0228333)
(66.3605 -0.0820277 0.0122691)
(124.557 -17.459 61.6029)
(51.0007 46.7443 28.9405)
(141.853 68.5934 7.78021)
(69.6057 56.8466 7.66669)
(102.811 39.923 11.8832)
(9.62084 40.6167 2.47393)
(45.4688 46.124 8.79663)
(39.6437 39.5038 8.96675)
(82.0237 -16.2035 8.3879)
(70.1462 -24.0819 5.0126)
(67.2182 -10.6601 2.92934)
(67.5718 -5.2973 0.734957)
(65.0931 -2.81966 0.300229)
(64.1221 -1.64115 0.254383)
(64.8114 -0.997271 0.354766)
(64.9747 -0.595067 0.362563)
(65.276 -0.578729 0.174635)
(65.8719 -0.234465 0.0762951)
(66.4448 -0.488625 0.0351931)
(66.8194 -0.406921 0.0184291)
(213.732 -55.7695 19.8239)
(-26.2599 16.502 13.5253)
(126.637 24.6173 -0.82845)
(42.9331 36.8819 3.22076)
(95.1486 27.8541 -11.2231)
(66.627 28.3798 -10.9539)
(93.7261 26.364 -3.97967)
(109.334 18.3295 3.84331)
(107.41 2.81238 -4.34295)
(87.4315 -23.4016 -2.59542)
(78.3675 -11.9764 1.77349)
(71.2899 -5.34527 0.248964)
(67.2016 -2.32836 0.190641)
(66.3557 -1.85858 0.124802)
(65.94 -1.57014 0.287162)
(65.5287 -1.88059 0.31959)
(65.5223 -1.30615 0.165537)
(65.9661 -1.18783 0.0790448)
(66.4417 -0.848627 0.0332317)
(66.8005 -0.700341 0.0159862)
(412.53 244.728 36.7413)
(134.241 135.114 25.0205)
(175.012 118.23 0.272506)
(116.087 66.0478 5.85466)
(129.508 66.4238 4.30753)
(105.066 30.4421 1.17913)
(121.728 17.5922 10.0952)
(124.48 22.9085 17.6354)
(95.1802 -8.00602 -0.158771)
(77.2423 -5.83009 -4.72224)
(72.9921 -3.26228 -2.64846)
(68.7234 0.927751 -1.83319)
(65.6232 0.446667 -0.210104)
(64.9963 -1.47306 0.114748)
(66.0529 -2.20031 0.245524)
(65.4015 -2.07504 0.33979)
(65.9282 -1.23229 0.138296)
(66.0759 -1.1072 0.0768146)
(66.642 -0.936345 0.0246495)
(67.1699 -0.855329 0.010303)
(233.996 -87.5476 208.706)
(-103.981 82.5718 -7.30934)
(145.452 73.7786 -17.5888)
(-51.7914 16.7639 15.6717)
(108.496 48.6444 12.3662)
(27.4305 -26.4617 15.7199)
(84.3038 11.3803 14.2597)
(57.8614 18.3054 5.0356)
(65.7438 13.5126 -1.42206)
(57.0061 6.94758 -1.24908)
(61.8716 1.76144 -0.688897)
(57.2023 -0.312169 -0.451012)
(62.9958 -1.99911 -0.559324)
(62.4975 -2.90547 -0.0466256)
(65.1342 -2.23861 0.0413725)
(66.0896 -2.8944 0.10302)
(66.821 -1.62978 0.0524765)
(67.1591 -1.75966 0.0317123)
(67.6383 -1.32958 0.00984951)
(67.9794 -1.19796 0.0079883)
(155.716 -97.4238 15.0932)
(-100.63 102.777 -11.3616)
(150.725 -13.6716 -18.1539)
(50.1351 1.4744 10.4278)
(131.759 -26.6925 33.1557)
(85.4979 -21.4366 16.5849)
(102.116 23.6059 16.7051)
(77.2297 0.786975 6.71185)
(80.735 21.4468 3.0674)
(69.1602 3.62168 -0.889388)
(73.6831 7.5729 -1.42)
(67.5969 -3.62286 -2.39708)
(70.3573 -2.04023 -1.20321)
(66.3146 -6.374 -0.191004)
(69.1897 -4.04378 0.345672)
(67.8878 -3.56624 0.334005)
(68.8911 -1.71832 0.196238)
(68.3861 -1.60379 0.0886639)
(68.8308 -1.0409 0.040665)
(68.8782 -0.99701 0.0253126)
(-109.671 -17.8236 -152.29)
(-108.815 35.2889 41.8184)
(136.962 -56.1651 -1.55658)
(95.9608 -44.6965 12.6593)
(147.436 -42.5081 30.7503)
(79.1387 -21.7767 18.126)
(106.788 10.2605 23.5241)
(78.0338 8.14321 6.03291)
(93.2382 10.6757 0.239841)
(86.874 3.94405 -2.90742)
(92.5232 -0.941383 -2.5623)
(88.9066 -5.3934 -1.42741)
(84.9628 -6.64539 1.40682)
(76.8498 -7.37322 2.33888)
(73.6213 -4.22844 1.14161)
(69.4321 -3.42211 0.665779)
(69.3363 -1.76091 0.172665)
(68.3504 -1.68888 0.07732)
(68.6832 -1.00219 0.0243407)
(68.7968 -0.973804 0.0187344)
(201.335 -120.904 -89.8978)
(178.323 -29.3389 -44.6115)
(187.452 -43.513 -57.1591)
(139.809 -14.1432 -45.7811)
(149.151 -6.22557 -13.6976)
(77.938 15.4269 -10.0731)
(106.706 36.9967 10.3024)
(91.9125 16.8177 2.86748)
(113.172 19.4509 0.419366)
(108.208 6.36451 0.617762)
(113.319 7.08103 3.17437)
(104.886 -1.06791 4.06601)
(99.4235 2.86686 5.54241)
(85.0606 -2.08688 4.13802)
(79.5063 -0.133204 2.73304)
(72.2571 -1.71153 1.2702)
(71.4445 -0.883923 0.353358)
(69.4141 -1.13785 0.167125)
(69.6174 -0.614614 0.0523621)
(69.5309 -0.698012 0.0309203)
(105.635 -28.0326 19.5084)
(18.9038 56.59 46.8494)
(80.4033 41.0798 27.3972)
(-42.1741 14.6757 -16.353)
(72.9444 14.2426 -18.4058)
(-20.9619 1.49788 -30.7206)
(75.128 20.7307 -6.32938)
(48.8054 10.7735 -4.24637)
(91.3166 10.8269 5.49646)
(80.1025 3.26198 6.83601)
(90.7145 2.69338 8.67962)
(78.7621 0.358695 7.26829)
(79.3444 3.40355 5.9207)
(72.4027 2.12748 3.38904)
(72.3358 2.47862 1.6473)
(69.3462 0.654002 0.67387)
(69.6553 0.267429 0.227722)
(68.532 -0.360534 0.0812604)
(68.935 -0.197224 0.0265601)
(69.2372 -0.417752 0.0170812)
(48.1703 -24.5153 -36.1061)
(-65.9846 -29.7409 27.4251)
(109.278 32.689 6.25683)
(-8.77013 45.3652 -0.375547)
(97.9256 28.4022 11.7459)
(41.7976 15.907 1.2904)
(89.6425 10.865 11.4085)
(64.5047 0.499157 8.77868)
(86.3205 0.669322 10.6253)
(68.6274 -3.59285 7.77182)
(76.9577 3.02897 5.66569)
(66.3504 1.22201 3.12287)
(71.5123 4.12747 1.86221)
(67.2406 1.37011 0.835208)
(70.4299 1.58118 0.450627)
(68.4675 -0.0131156 0.171763)
(69.8187 0.0663516 0.0705047)
(68.748 -0.491999 0.0286455)
(69.3911 -0.196336 0.00972093)
(69.7473 -0.357049 0.00989057)
(173.577 73.3338 -140.089)
(-32.2675 -18.21 34.8627)
(67.0611 23.4551 -20.3702)
(-69.6256 32.5723 2.39003)
(71.7273 5.95829 16.874)
(-14.5171 12.1766 6.33338)
(69.2768 3.5082 15.8733)
(21.8178 5.72251 4.07073)
(69.3714 8.36176 3.77135)
(46.0525 6.17123 0.875395)
(67.3806 6.9202 0.344425)
(57.9094 4.10883 0.0290888)
(68.0554 4.02485 0.0564906)
(64.5226 2.28558 0.0326026)
(69.0099 1.925 0.0312952)
(67.2545 0.911215 0.0141924)
(69.0599 0.631415 0.00615539)
(68.2044 0.15702 0.00262165)
(69.0457 0.145415 0.000681409)
(69.5746 -0.0827069 0.00629456)
(221.587 -112.18 -92.2979)
(72.7316 -77.4139 -1.10801)
(138.143 -40.6339 -22.0482)
(100.976 -19.1736 3.24131)
(123.948 -13.6245 19.9268)
(97.5287 3.93301 15.7703)
(110.828 -12.2354 15.5651)
(70.1909 -7.36841 9.01481)
(78.5097 -12.8471 5.67724)
(56.9176 -5.26463 1.87911)
(69.564 -3.94282 0.73997)
(60.5957 -1.78097 0.205752)
(68.7801 -0.88728 0.10748)
(64.9095 -0.733168 0.0433865)
(69.1112 -0.371645 0.0328996)
(67.1847 -0.485043 0.0154041)
(69.0395 -0.283723 0.00763535)
(68.0978 -0.319145 0.00298734)
(68.9722 -0.153156 0.000664134)
(69.5066 -0.13894 0.00678999)
(-6.73085 -51.7248 181.116)
(-7.30435 -45.4697 11.4732)
(190.082 -86.4081 -49.0639)
(148.289 -59.9514 -23.1181)
(195.668 -37.5448 -37.0701)
(161.874 -30.5597 -29.487)
(174.389 -17.3779 -33.0353)
(157.2 -17.1254 -26.4773)
(154.945 4.88364 -21.4035)
(121.451 18.0233 -17.0257)
(111.351 20.2362 -14.3323)
(94.0092 16.6395 -10.3821)
(93.8428 10.6765 -2.92882)
(83.5919 9.40349 3.00471)
(82.1491 7.24173 6.70444)
(78.3222 5.64954 4.84036)
(76.1957 3.1324 1.8298)
(73.4219 1.8195 0.669842)
(72.9561 0.974945 0.146844)
(70.6956 0.59035 0.0537096)
(75.6858 59.058 -11.0045)
(44.2379 12.0162 27.03)
(133.537 2.7933 5.30533)
(-13.661 -2.43613 3.42906)
(84.6128 14.3363 -25.607)
(-5.48794 9.573 -12.1836)
(67.5688 17.2506 -19.1395)
(38.9927 10.2193 -4.97836)
(72.3245 10.4839 -0.23814)
(63.9976 8.75703 1.31998)
(74.1753 8.92357 -2.73461)
(71.281 8.47247 -4.74847)
(74.3443 7.27056 -3.19865)
(71.6727 7.05571 -0.392174)
(73.5785 6.65583 1.47253)
(72.9239 5.24948 1.05247)
(73.2231 3.06503 0.614368)
(72.0507 1.83603 0.25791)
(72.0697 1.00984 0.0411422)
(70.3055 0.496705 0.0196014)
(279.214 -26.7672 -87.1311)
(89.3985 -21.3772 -13.2259)
(144.976 -65.1241 -3.67096)
(2.97143 -52.3619 8.37104)
(91.7171 -48.2539 -6.81852)
(35.5753 -18.0437 4.76177)
(83.3679 -7.70191 -5.18629)
(65.4419 2.39786 -3.39132)
(83.8211 6.80037 -8.81893)
(73.5296 11.6416 -8.23308)
(78.573 12.5484 -7.36797)
(73.6764 13.4889 -4.36831)
(74.9189 11.2656 -1.55781)
(71.5829 10.8197 -0.159975)
(73.1181 8.93506 0.604898)
(71.8344 7.34035 0.499689)
(72.5874 4.79925 0.290385)
(71.534 3.30887 0.1096)
(71.7609 1.95645 0.0261895)
(70.1428 1.16606 0.013387)
(352.178 3.02936 71.7363)
(137.493 -19.6256 38.9919)
(213.468 -39.8985 31.3632)
(78.4468 5.58021 17.3219)
(104.289 -7.13818 9.99688)
(15.9603 11.4646 14.1767)
(71.0824 10.9054 3.22232)
(32.556 11.3919 4.69194)
(63.1676 13.2135 1.46875)
(51.0235 15.4033 1.09132)
(63.2687 15.1297 -0.058247)
(61.2615 13.6134 -0.312303)
(66.3307 11.6723 -0.178704)
(65.8168 9.7654 0.0560235)
(68.4346 8.0436 0.189061)
(68.3161 6.17059 0.134345)
(69.6663 4.02012 0.0470345)
(69.4161 2.9767 0.0289746)
(70.0185 1.73878 0.00522474)
(69.079 1.00725 0.00494092)
(116.187 -69.3876 -32.8982)
(28.8304 6.39612 35.0236)
(126.26 14.4486 25.019)
(32.3037 16.1829 13.2871)
(80.7799 -2.61953 -9.14981)
(-26.0218 0.928813 15.0702)
(67.6912 -14.0288 8.47367)
(39.8204 3.60759 5.49691)
(70.4282 -3.85028 1.28468)
(59.883 10.9637 0.545257)
(67.853 6.38783 0.0179862)
(63.8465 11.2949 0.00838952)
(67.7349 7.9405 0.0603756)
(65.8335 8.92064 0.07821)
(68.5312 6.74997 0.110693)
(68.0105 5.9068 0.0686506)
(69.1911 4.0883 0.0244159)
(69.1178 3.18546 0.0153234)
(69.717 1.73235 0.00268595)
(68.8758 1.05462 0.00336769)
(271.483 -40.2508 187.343)
(73.1884 -29.6741 18.7267)
(163.956 -7.387 15.592)
(12.3862 16.0411 2.3329)
(101.663 5.47007 -18.0705)
(-37.6373 11.0092 6.21436)
(81.4539 -28.0861 -4.93749)
(34.2522 3.52138 -1.99861)
(58.1438 -0.684989 2.48456)
(51.0711 15.1444 1.78691)
(54.6418 14.4036 1.29474)
(57.1856 12.318 0.693024)
(60.3117 11.1976 0.297403)
(62.9528 8.24806 0.159389)
(64.2287 6.34248 0.0777647)
(65.1724 5.08339 0.0353001)
(66.4953 3.30961 0.0120006)
(67.29 2.65608 0.00694794)
(68.1207 1.50621 0.00112212)
(67.8853 0.921198 0.0024859)
(140.321 11.081 79.223)
(22.5188 51.0122 39.946)
(115.141 57.1817 48.586)
(21.9884 19.0168 -13.6327)
(90.033 -2.54417 -21.5784)
(4.29433 15.6511 1.98212)
(65.7103 -46.3671 -20.5356)
(-7.46099 39.6928 -9.85444)
(25.1337 -15.4212 -5.17966)
(27.8562 16.4926 -0.392507)
(38.9214 2.00075 0.30344)
(44.5831 6.84042 0.323667)
(56.8506 2.20734 0.179166)
(56.6696 5.05633 0.11272)
(63.1021 4.26847 0.0935038)
(63.5076 3.52107 0.0682463)
(66.1178 2.20073 0.026107)
(66.8369 1.77074 0.0191888)
(67.9092 0.778536 0.00472345)
(67.6846 0.460627 0.00366774)
(179.039 25.8606 37.0505)
(-163.622 -4.67686 22.2465)
(136.158 18.416 47.2324)
(23.9393 -10.1425 -4.50026)
(112.183 -8.81069 12.6254)
(18.6429 40.4868 -2.76666)
(45.8354 -17.8965 -8.60055)
(-1.30371 57.3268 -12.0165)
(9.40471 -0.00699006 -5.74141)
(9.93704 -9.34479 0.0363556)
(36.6404 10.2266 0.53636)
(46.2373 -8.29031 0.409572)
(56.2399 1.20401 0.133469)
(58.2903 -1.57805 0.114478)
(62.9297 -0.205951 0.136251)
(64.7184 1.41318 0.0769632)
(65.6552 0.337413 0.036751)
(66.6699 0.917762 0.0174648)
(67.2893 0.436622 0.00638502)
(67.2471 0.445712 0.00332941)
(273.222 88.1869 -1.59883)
(32.122 -1.65692 18.4945)
(120.138 -10.4226 26.2339)
(-29.5558 0.335822 -3.61239)
(61.125 -20.7263 9.73668)
(-5.80753 46.5881 4.48339)
(-2.191 9.98198 -12.2386)
(-1.95727 45.2253 -12.9641)
(57.3867 0.635311 -16.1573)
(67.3318 -32.2818 -2.75597)
(63.645 -7.9497 5.17081)
(61.6736 -7.05816 1.24994)
(61.8352 -2.48149 0.249222)
(62.6263 -1.6577 0.213434)
(64.5898 0.0124854 0.475448)
(64.8231 0.118345 0.520507)
(65.0975 0.0382043 0.181862)
(65.4966 0.153514 0.0989664)
(65.9893 -0.0920355 0.0270473)
(66.3586 -0.0803895 0.0115956)
(160.496 108.755 -4.91502)
(36.8911 81.9407 19.2367)
(125.625 82.0516 22.3222)
(43.2257 59.4027 -2.81729)
(97.2624 38.814 6.38387)
(6.24421 33.6219 10.3932)
(49.6089 35.2007 0.728753)
(82.1276 13.7598 10.9518)
(87.1294 -28.2053 7.27589)
(67.5458 -19.2937 7.6008)
(65.3498 -7.83415 3.23484)
(66.5722 -4.69804 1.31003)
(64.9458 -2.67512 0.523984)
(64.341 -1.46485 0.486904)
(64.9862 -0.646166 0.69477)
(64.8129 -0.416716 0.558925)
(65.144 -0.540721 0.237704)
(65.8138 -0.235469 0.0897646)
(66.4231 -0.499025 0.0370946)
(66.8151 -0.411518 0.0137147)
(109.133 77.2655 25.2108)
(-16.4416 22.4385 -19.5083)
(124.473 11.6763 -9.26519)
(53.1322 31.9635 8.46541)
(97.0983 20.3511 -12.1315)
(55.7836 27.5037 -11.229)
(72.1872 23.2703 -5.38796)
(89.4887 10.2795 -0.73874)
(88.6527 -27.4454 1.94203)
(78.0679 -10.9335 -2.35616)
(73.127 -4.67636 -0.203907)
(69.5044 -5.05361 1.66423)
(66.9744 -2.67641 0.611292)
(66.3787 -1.57547 0.199718)
(65.9091 -1.38512 0.563439)
(65.3739 -1.83354 0.545188)
(65.3961 -1.29205 0.239382)
(65.9237 -1.18566 0.0979247)
(66.4258 -0.847094 0.0356681)
(66.7993 -0.699728 0.011826)
(257.194 200.984 75.2802)
(109.216 105.292 8.44486)
(176.458 94.0333 -3.16163)
(115.378 55.3162 10.7811)
(124.127 65.6166 0.737987)
(80.3206 21.4032 -4.44385)
(98.8604 5.73605 8.13607)
(98.7373 0.769564 19.1447)
(85.9288 -11.123 5.01553)
(70.4393 -7.66502 -9.33455)
(75.7553 -0.333038 -3.01085)
(72.0457 1.1611 -1.03166)
(66.0109 0.21775 -0.0482817)
(65.1034 -1.56288 0.164449)
(66.0915 -2.2377 0.53426)
(65.3442 -2.17011 0.561641)
(65.8425 -1.28059 0.189338)
(66.0484 -1.12931 0.0969163)
(66.6352 -0.944837 0.0287675)
(67.168 -0.857695 0.0091218)
(194.912 51.2497 203.719)
(-51.3138 60.366 -4.00243)
(126.058 69.8494 14.8791)
(-56.6199 35.2464 23.3766)
(106.534 68.3171 16.5824)
(8.23446 -21.4422 22.4138)
(72.5986 16.2319 19.9039)
(38.5158 18.3872 8.60914)
(65.1376 3.75022 -2.61139)
(54.1709 2.29907 -1.5684)
(60.5794 0.24566 -0.902667)
(56.8643 -0.601039 -0.437584)
(63.0494 -2.07634 -0.412583)
(62.5536 -2.93244 0.0519513)
(65.1084 -2.27275 0.163934)
(66.0706 -2.95447 0.135238)
(66.8038 -1.65035 0.0567595)
(67.1538 -1.77156 0.0331725)
(67.6384 -1.33273 0.0109245)
(67.9803 -1.19742 0.00475134)
(151.629 25.9616 76.2841)
(-114.958 107.456 2.44971)
(120.284 30.8287 -24.0581)
(-63.3386 41.2659 11.4971)
(119.928 21.0399 31.8347)
(62.1054 14.2954 12.7275)
(91.1365 48.171 14.809)
(67.4761 1.90011 4.51357)