/*--------------------------------*- C++ -*----------------------------------*\
  =========                 |
  \\      /  F ield         | OpenFOAM: The Open Source CFD Toolbox
   \\    /   O peration     | Website:  https://openfoam.org
    \\  /    A nd           | Version:  10
     \\/     M anipulation  |
\*---------------------------------------------------------------------------*/
FoamFile
{
    format      ascii;
    class       volScalarField;
    location    "4.4";
    object      k;
}
// * * * * * * * * * * * * * * * * * * * * * * * * * * * * * * * * * * * * * //

dimensions      [0 2 -2 0 0 0 0];

internalField   nonuniform List<scalar> 
12920
(
545.164
1145.47
1023.38
750.435
536.678
449.137
388.284
353.772
311.452
261.336
206.166
164.358
138.313
126.572
122.521
116.423
112.612
104.019
98.8917
86.2267
5313.23
2637.22
1895.08
1627.27
1038.66
699.819
454.638
339.434
280.469
262.134
250.918
246.958
239.339
229.552
217.162
205.319
194.581
179.102
171.546
157.378
1632.42
2180.94
2145.12
1861.65
1134.13
744.119
524.775
420.518
336.223
296.928
265.244
250.762
236.156
226.471
218.133
210.161
203.888
193.779
188.404
174.992
731.71
1702.9
1347.46
911.975
630.142
457.832
368.597
309.222
266.397
241.238
219.255
206.037
195.647
192.796
193.538
194.72
194.624
192.713
190.965
183.995
542.317
1455.32
1156.11
866.03
669.406
577.016
445.241
363.735
303.136
262.942
230.283
204.393
186.383
176.245
172.606
172.574
174.533
177.386
178.913
175.918
1134.74
1180.67
873.461
788.463
640.228
556.538
467.99
418.832
387.504
346.438
303.549
256.554
217.066
185.914
167.373
157.223
155.008
155.674
156.751
153.956
657.357
1405.02
984.327
688.593
597.878
534.225
519.379
484.402
464.192
421.734
370.17
316.013
263.353
211.778
172.725
147.913
135.203
131.515
131.023
127.432
1282.7
1804.94
1087.07
846.468
803.803
696.67
426.938
320.223
305.398
271.069
237.598
199.478
170.852
149.161
218.856
174.575
144.328
127.348
121.909
111.109
1860.99
1571.2
1275.26
1071.84
960.488
586.671
350.957
187.561
205.796
172.485
157.138
124.036
101.583
87.7653
156.01
205.815
163.373
134.076
119.588
103.166
1382.57
2357.67
1309.12
910.243
807.425
505.985
267.394
207.029
204.374
151.15
120.873
103.129
105.422
104.814
164.297
213.504
171.269
134.656
114.489
100.406
2241.7
3384.64
1747.59
1028.19
754.451
432.697
213.706
139.21
149.196
135.912
128.257
118.962
116.897
114.037
178.624
220.44
180.958
141.327
116.478
102.591
2943.39
2179.98
1696.27
1138.57
742.011
391.163
204.401
136.005
171.641
146.19
120.396
110.916
109.952
111.685
186.25
234.752
194.133
154.157
127.765
114.267
1821.13
1722.1
1655.23
1150
614.381
514.23
316.418
258.25
270.869
248.515
217.419
180.494
153.885
138.02
207.948
190.753
175.375
151.328
136.553
127.289
2581.58
3221.3
2476.21
1413.99
772.08
609.728
530.113
514.658
478.149
406.97
337.224
280.511
237.309
200.028
178.125
160.871
148.973
139.342
134.744
130.991
5563.85
5447.11
2884.57
1774.4
1172.6
968.702
724.646
596.031
489.733
394.75
323.409
275.787
243.57
213.452
189.652
169.95
154.81
143.016
138.695
135.969
2877.49
2711.79
2159.47
1501
1157.71
1050.29
845.188
615.92
421.259
295.404
237.134
212.162
198.982
186.568
175.329
164.483
156.818
147.79
144.397
137.737
12488.1
1891.07
1209.49
1120.71
1060.6
892.843
625.227
407.43
287.507
234.821
200.331
176.226
159.619
150.259
146.64
143.138
141.376
137.331
134.955
127.038
1741.99
2487.52
1813.8
1145.85
801.484
527.239
374.941
303.01
254.291
237.162
202.667
171.508
140.262
123.98
116.515
114.536
115.314
117.031
117.359
113.595
8347.34
5745.93
2008.65
752.592
461.096
363.747
290.072
281.006
260.954
253.94
240.843
228.589
193.022
146.117
113.408
99.3986
93.2955
92.68
96.7411
97.7324
85.6169
470.826
752.086
743.471
585.353
442.671
355.628
321.674
299.875
256.091
210.339
186.787
171.202
149.468
135.98
126.989
104.589
65.9759
47.8281
44.9485
982.765
1854.24
1903.29
1570.48
1162.42
991.742
785.382
712.424
637.073
562.652
472.384
402.601
354.761
329.014
311.997
290.841
275.276
244.026
228.801
193.695
13575.2
4654.58
4122.19
3361.79
2104.93
1646.86
931.701
817.858
732.075
739.852
727.765
721.906
696.806
667.832
625.222
588.97
551.173
514.451
488.586
455.955
1068.77
4905.98
4537.73
3827.41
2417.8
1888.73
1208.19
1064.95
876.289
837.728
767.455
743.32
701.503
674.138
643.598
615.771
590.417
562.696
544.963
515.386
1040.98
4872.11
3115.71
2214.71
1625.85
1207.33
1005.73
847.642
763.247
702.022
652.515
626.897
604.837
599.554
598.939
595.664
587.027
574.232
568.08
551.4
997.952
5920.08
3491.07
2611.16
1943.56
1570.82
1165.29
988.571
826.62
744.176
653.97
602.55
562.687
545.883
543.927
542.311
543.998
543.951
543.966
533.861
19170.9
8542.77
3494.08
2562.32
1876.75
1565.32
1252.78
1119.03
1021.55
926.38
803.965
692.598
598.323
539.939
503.23
482.395
473.335
472.85
473.144
463.624
2083.82
5651.51
3173.69
1982.57
1656.77
1478.2
1420.44
1317.74
1218.95
1098.94
932.073
803.309
669.3
552.069
472.718
426.384
404.364
398.553
394.912
381.311
5953.8
6275.47
2946.6
2037.18
2073.48
1747.26
1484.36
1427.56
1252.11
1093.29
909.945
766.386
645.809
547.871
500.014
428.293
382.08
364.277
355.019
333.207
5874.22
5233.57
3268.24
2771.1
2281.88
1981.57
1685.26
1500.99
1239.43
1018.71
846.107
694.391
593.998
527.5
495.587
461.103
388.77
346.04
324.917
304.553
10047.9
7706.45
3653.3
2335.45
1978.95
1798.02
1526.92
1368.99
1135.64
885.444
714.485
594.376
549.808
517.775
499.175
488.425
405.248
332.396
308.016
299.067
10967.7
7612.6
3255.1
2505.64
1751.81
1515.29
1168.97
1076.47
949.558
830.565
694.847
598.742
533.197
476.208
445.505
460.415
416.219
344.457
319.008
314.067
8027.27
4507.95
2926.62
2668.72
1790.04
1525.22
1177.65
1081.73
1016.97
865.836
738.167
657.422
602.455
553.71
516.892
494.276
431.833
376.261
361.235
353.81
2542.26
4418.79
3799.93
2333.42
1408.64
1416.01
1172.43
1147.45
1085.76
924.406
798.863
672.951
585.565
521.773
515.215
478.07
440.79
410.821
400.077
386.719
12964.9
8093.35
4097.71
2591.43
1787.76
1759.73
1569.01
1497
1339.72
1137.26
953.498
792.362
673.175
567.719
520.125
472.181
439.708
415.422
411.454
401.852
15488.9
7561.78
4939.14
3672.75
2662.27
2421.22
1885.83
1668.11
1353.89
1106.6
927.687
788.784
696.345
609.39
551.296
498.845
461.335
431.688
425.748
414.946
8211.47
8652.93
5254.21
3747.75
2862.69
2583.34
1962.04
1453.9
1035.84
828.097
712.55
650.946
598.911
553.828
517.941
487.561
465.031
440.448
431.128
412.697
13407.2
4046.38
3312.39
2712.36
2463.91
2001.42
1320.68
969.028
733.015
645.461
572.64
530.573
492.22
463.511
444.164
426.702
417.595
402.072
394.169
370.822
2512.84
2900.49
2767.71
2519.35
1709.57
1203.12
901.345
779.39
647.022
602.604
525.284
472.698
406.421
374.004
348.971
342.825
343.168
345.14
344.61
332.928
13848.2
4766.58
2715.51
1681.58
978.656
897.676
736.774
718.292
643.733
635.436
601.533
574.731
499.509
431.558
359.749
308.389
277.577
276.402
286.636
286.808
482.932
1254.57
1270.2
1107.24
859.679
790.879
691.602
617.077
527.116
459.487
382.051
297.946
253.609
239.443
211.31
163.89
112.709
89.4512
89.099
98.8104
365.959
1902.71
2213.24
1803.8
1391.21
1164.89
972.555
861.763
750.355
640.771
533.683
460.302
411.751
382.022
355.285
326.162
301.493
263.412
244.536
207.288
7472.28
5583.24
4798.25
3517.97
2400.64
1896.67
1372.87
1271.01
1143.34
1128.17
1091.42
1068.43
1009.72
948.717
874.925
814.096
752.519
704.546
663.185
624.64
4233.73
6358.97
5741.87
4353.59
2816.4
2157.37
1616.07
1454.86
1267.49
1208.38
1133.49
1088.84
1027.34
972.644
916.123
865.552
819.517
777.325
746.128
712.542
3712.57
7178
4454.8
3059.73
2227.15
1636.57
1395.92
1200.67
1118.47
1052.36
1005.94
971.091
938.13
908.072
881.476
850.671
823.999
795.313
776.373
743.86
5344.48
8404.77
4802.64
3794.72
2673.95
2063.86
1551.3
1320.72
1162.88
1073.06
986.683
929.012
877.715
843.67
820.006
794.201
778.155
759.606
746.763
718.197
32069
11543.8
5115.34
3771.61
2582.63
2074.05
1669.76
1449.23
1316.13
1178.73
1048.62
935.329
847.794
784.605
738.695
704.396
684.487
670.096
659.504
634.953
26716.5
11918
4195.6
2778.21
2474.33
2045.56
1934.95
1701.94
1540.28
1352.37
1154.8
1000.51
858.483
749.263
671.599
624.297
597.987
582.567
570.83
550.567
14679.4
11718.6
3911.26
2878.83
2866.92
2357.93
2153.76
1986
1663.18
1437.37
1190.17
1017.52
863.105
742.955
652.811
586.81
550.718
532.938
518.866
501.922
6752.96
6468.84
4059.27
3526.07
3063.89
2748.6
2498.87
2126.87
1717.45
1421.72
1171.8
987.567
854.662
756.395
674.111
594.525
531.944
501.396
484.833
474.306
10636.5
7135.78
4364.35
3258.75
2894.38
2642.36
2340.41
1962.66
1589.48
1293.18
1046.53
880.443
803.622
746.443
700.062
633.542
543.443
494.335
476.019
468.945
15674.6
7647.76
3843.9
2910.1
2460.01
2182.49
1934.92
1665.92
1416.9
1249.07
771.959
651.675
647.172
608.933
600.674
611.72
551.409
509.346
494.366
482.024
12922.8
7262.1
3527.65
3038.45
2286.72
2021.1
1845.68
1634.89
1438.83
1239.92
1071.17
939.427
832.393
741.217
677.89
631.648
577.094
549.646
539.451
514.603
11522.5
8032.18
4457.78
2727.81
2130.24
2046.57
1795.49
1662.47
1479.54
1249.92
1076.65
917.073
808.938
727.895
694.391
651.886
622.984
600.358
586.32
553.581
14402.4
8829.34
5227.85
3135.42
2482.06
2387.44
2105.08
1956.37
1680.78
1406.67
1177.35
993.8
867.794
777.879
726.104
681.271
654.956
629.834
616.361
583.829
13778.8
10034.9
6532.2
4292.83
3211.8
2862.53
2353.53
2084.99
1725.64
1414.4
1183.66
1008.77
899.865
813.964
760.04
711.814
679.392
647.621
631.842
596.281
19925.7
11960.2
6521.42
4537.99
3482.28
2975.95
2292.31
1776.84
1383.7
1133.06
984.757
887.732
819.359
765.778
726.321
690.461
664.796
633.252
615.411
575.765
12418
6982.11
4891.8
3776.15
3106.93
2378.35
1695
1270.1
1021.19
885.044
804.218
745.841
701.033
662.876
635.027
607.487
590.131
565.615
550.362
514.398
6872.37
5353.27
5103.28
3847.86
2571.44
1780.57
1295.1
1014.57
845.595
762.115
689.489
638.405
585.014
550.53
523.6
510.306
506.564
502.508
498.076
482.334
11005.6
4679.14
3914.39
2239.54
1706.92
1251.84
977.19
837.812
724.504
697.06
651.484
622.743
554.265
500.447
445.255
406.443
397.65
408.835
425.795
428.519
1985.69
2177.35
1490.05
1194.17
1028.91
865.554
738.464
635.965
546.188
423.61
302.991
229.686
202.349
175.664
155.878
134.204
118.564
118.445
124.619
136.116
234.852
1288.08
2152.62
1802.82
1414.68
1152.53
989.47
854.521
728.011
610.45
522.098
460.771
416.954
379.183
341.918
302.267
271.992
238.43
223.07
193.035
17206.7
5635.76
5352.37
3575.36
2706.92
1954.76
1666.33
1499.12
1427.03
1398.21
1372.9
1332
1256.94
1165.96
1073.06
992.162
917.516
862.109
816.066
788.692
7147.5
8578.95
7175.74
4648.12
3152.6
2254.78
1900.25
1676.01
1564.71
1483.03
1427.77
1357.47
1288.6
1206.43
1134.97
1066.41
1009.84
959.3
922.761
894.145
9734.23
10036.2
6073.7
3715.8
2707.05
1925.12
1705.09
1454.76
1406.79
1319.9
1291.3
1240.16
1202.62
1148.67
1105.32
1055.44
1016.45
976.238
946.015
912.524
11077.6
9929.06
5847.03
4041.78
3113.76
2228.36
1831.29
1534.42
1426.92
1313.75
1247.92
1178.47
1130.22
1079.06
1041.92
999.588
970.564
938.504
914.029
883.054
15893.2
8707.14
5994.69
3920.27
3094.48
2287.05
1967.84
1649.04
1520.32
1345.48
1233.16
1120.09
1044.74
981.448
933.438
892.422
865.679
841.533
821.491
796.991
35297.7
16660.7
6097.63
3627.38
3090.77
2376.33
2271.71
1890.59
1723.57
1470.49
1289.42
1127.66
1005.81
911.736
845.381
801.357
774.521
753.986
737.248
723.29
55639.7
23223.7
4956.56
3644.84
3504.54
2764.61
2528.02
2235.64
1848.3
1585.4
1328.61
1151.68
997.543
880.608
790.925
740.62
717.29
702.218
689.39
683.561
17182.6
8715.19
5104.67
4036.72
3651.48
3176.25
2924.09
2386.9
1931.19
1613.47
1346.42
1163.11
1018.84
906.739
803.379
718.922
683.102
670.485
663.05
663.071
18389.4
7369.77
5152.07
3872.86
3528.97
3133.91
2763.35
2251.44
1835.97
1533.38
1274.57
1092.53
990.338
919.637
846.479
748.036
688.377
666.339
657.495
655.149
16440
8302.77
4574.54
3406.12
2991.81
2618.85
2351.67
1994.68
1710.52
1496.42
1079.93
894.977
821.516
788.18
779.235
750.449
706.992
685.778
673.318
658.381
23166.5
6705.87
4340.35
3214.24
2802.64
2431.16
2254.42
1943.49
1693.27
1465.05
1265.87
1099.92
968.081
870.974
812.438
773.162
747.768
729.803
710.961
671.689
17892.7
9604.39
5059.11
3178.45
2773.92
2535.72
2213.43
1962.61
1692.61
1417.31
1221.5
1055.18
951.13
875.422
849.77
819.926
807.312
785.48
760.387
707.436
11859
12185
6856.56
3705.62
3141.84
2824.71
2472.25
2208.44
1848.18
1534.12
1296.08
1122.93
1015.89
946.13
904.411
869.961
852.495
823.269
798.869
745.745
24889
11951.7
7602.76
4757.62
3746.19
3127.59
2700.63
2297.01
1905.04
1553.45
1324.56
1151.01
1053.96
979.002
935.052
892.136
866.602
832.275
807.2
753.255
11699.8
10614.1
7644.49
5170.33
4037.7
3148.54
2515.24
1925.93
1586.95
1308.87
1170.04
1054.18
990.397
932.484
898.404
859.506
835.286
798.004
772.169
719.809
11856.6
7990.87
6276.01
4393.35
3573.43
2501.45
1918.38
1426.66
1228.72
1060.59
990.705
912.995
870.458
823.167
796.238
762.696
743.536
714.614
694.375
657.566
5409.98
7201.14
6930.13
4590.69
3208.86
2076.49
1558.96
1162.39
1018.5
900.067
844.519
779.732
736.511
699.462
680.148
667.054
665.15
661.028
655.833
644.058
5042.54
6195.06
4334.73
2624.69
2198.21
1385.75
1129.29
888.663
809.136
753.269
727.602
682.662
628.899
581.752
549.105
530.391
537.645
561.604
584.02
595.949
2472.39
2462.02
1722.35
1234.19
1072.68
829.234
700.578
559.851
447.173
310.344
241.237
207.661
191.406
163.573
148.65
141.418
141.547
144.233
146.243
149.476
165.578
515.026
1876.94
1702.35
1299.38
1025.81
860.046
708.61
589.778
505.479
452.063
403.734
357.039
307.935
264.101
226.695
198.785
178.916
167.795
159.584
14408.4
7612.12
5819.04
4310.92
3156.07
2075.77
2009.32
1656.42
1736.47
1623.11
1667.8
1561.96
1494.72
1340.6
1245.38
1135.5
1064.88
1003.91
975.396
964.649
24683.1
9380.51
8604.38
4939.41
3681.77
2418.59
2280.09
1888.59
1914.96
1746.31
1748.29
1618.07
1564.15
1434
1363
1269.01
1211.82
1150.06
1116.86
1093.87
30738.4
13101.4
7601.35
4554.62
3274.15
2321.89
2091.13
1727.23
1744.03
1585.68
1604.56
1504.82
1484.45
1390.6
1344.51
1269.33
1225.15
1170.25
1134.67
1104.34
22690.3
14403.4
7782.23
4430.25
3750.08
2425.68
2219.36
1760.34
1749.31
1557
1542.24
1429.02
1402.54
1319.51
1282
1217.42
1182.23
1135.38
1104.09
1077.84
14349.7
10543.6
7203.84
4638.19
3766.56
2608.01
2382.24
1879.89
1800.38
1547.57
1472.67
1326.59
1274.05
1194.67
1150.22
1099.06
1069.07
1035.05
1008.42
992.672
22609.8
17396.6
8264.42
4815.42
3946.99
2805.29
2737.63
2115.68
1995.05
1624.15
1494.9
1293.5
1205.32
1107.3
1052.43
1004.21
979.834
953.57
937.641
934.575
37589.5
13201.9
6022.69
5069.94
4283.51
3335.62
2938.51
2446.08
2091.61
1751.95
1517.02
1314.94
1172.64
1055.55
980.831
937.581
919.86
908.074
900.044
905.858
30201.6
13107.6
6674.33
5097.21
4451.1
3539.38
3297.48
2626.52
2157.3
1798.66
1527.58
1332.08
1182.33
1059.94
965.23
899.704
884.005
882.671
883.524
892.928
14978.3
10777.7
6351.67
4972.81
4305.05
3599.74
3171.18
2567.03
2115.8
1756.1
1470.27
1261.22
1167.23
1086.49
995.197
907.805
881.872
876.961
874.17
877.964
5109.67
9020.44
6264.32
4249.06
3809.99
3081.5
2776.6
2368.7
2042.47
1728.41
1396.43
1122.39
1013.36
984.631
956.763
918.859
899.868
889.217
877.07
866.942
36351.3
9741.68
5521.77
4095.31
3635.92
3016.86
2763.04
2319.24
2020.81
1716.74
1456.89
1248.03
1129.2
1037
986.289
970.981
953.572
930.256
898.424
859.184
16969.5
9560.37
6476.08
3861.35
3753.24
3208.68
2695.28
2322.99
2001.63
1664.41
1444.53
1254.7
1157.25
1076.91
1071.97
1043.52
1030.04
995.001
950.974
890.004
14827.9
15179.5
9458.03
4432.57
4230.82
3297.75
3022.67
2565.48
2127.39
1758.31
1512.23
1334.03
1245.92
1175.77
1142.9
1105.13
1087.3
1043.26
1001.8
935.999
16067.3
12311.4
8592.31
4980.23
4550.31
3474.39
3234
2596.19
2195.48
1775.18
1561.56
1372.49
1291.37
1210.13
1172.45
1121.37
1095.85
1048.02
1007.76
942.742
43327.6
13406.9
9747.41
5633.67
5023.47
3437.67
3025.88
2200.21
1939.29
1564.88
1454.48
1291.56
1241.7
1161.17
1133.66
1077.75
1052.47
999.113
961.161
905.137
16995.4
11157.1
7541.04
5047.26
4197.12
2738.11
2315.16
1673.59
1562.7
1312.99
1272.68
1147.13
1116.02
1042.37
1018.96
968.267
948.272
908.975
883.567
853.77
9805.58
10702.7
9665.1
5090.08
4146.96
2412.32
2059.77
1413.22
1351.04
1131.71
1108.01
991.538
964.615
907.621
900.425
879.777
883.884
875.87
870.831
869.211
12120
8425.37
5071.89
3582.28
2893.09
1639.92
1456.8
1028.48
1044.44
913.052
925.29
830.095
803.174
745.454
741.777
731.291
760.371
786.524
815.81
839.875
488.284
2026.68
1831.6
1218.25
974.033
711.239
553.115
387.738
289.991
233.466
218.906
197.55
184.63
163.304
155.874
152.866
151.921
151.267
151.621
152.763
1106.31
1246.16
828.034
1487.4
1292.22
1443.85
1027.28
909.789
730.897
588.621
1229.89
1084.43
917.926
767.894
858.911
1248.86
1121.44
1441.3
998.027
1434.17
1288.38
658.442
1081.11
974.65
903.13
804.434
1241.29
1111.99
185.675
295.425
199.068
1314.32
1270.68
1289.58
1215.62
208.78
205.577
213.951
1255.46
1125.85
1189.89
1060.03
173.977
206.897
164.593
1067.61
912.636
999.868
822.541
160.889
154.638
137.375
878.759
771.343
777.694
676.445
130.283
132.819
114.343
736.66
628.954
646.266
559.119
105.331
108.468
103.66
600.659
531.088
536.321
495.508
89.3774
103.388
102.157
510.82
465.335
486.172
463.098
71.215
100.401
71.762
452.332
429.422
452.342
431.934
198.297
231.877
141.179
1199.81
1175.59
944.501
936.056
211.765
147.287
157.431
1153.56
1033.46
930.471
857.376
163.367
153.493
136.082
977.681
800.866
821.043
722.562
127.935
131.421
119.539
753.169
641.615
693.918
600.297
105.053
118.061
115.796
607.701
524.425
569.902
509.184
103.822
115.32
113.477
506.909
480.744
495.665
459.734
105.749
112.053
109.598
474.938
458.152
449.43
423.723
79.0374
108.837
88.1136
449.694
429.748
414.787
388.825
130.985
209.082
130.974
843.657
865.983
882.363
864.396
151.93
135.033
167.542
873.082
826.181
868.801
871.715
137.362
170.363
159.56
799.06
723.074
857.868
775.372
131.04
152.155
132.421
701.763
632.331
745.592
663.858
120.21
126.541
117.411
607.152
548.025
639.823
585.282
117.59
115.848
114.785
534.125
493.959
571.599
539.181
115.047
115.037
116.975
481.217
445.514
529.916
501.992
90.562
117.009
102.337
432.887
395.727
490.731
461.545
132.56
241.046
158.095
871.178
874.576
801.878
880.009
170.093
157.782
156.086
882.601
893.131
888.467
859.256
156.358
152.493
142.595
871.796
775.058
828.847
747.874
125.352
141.026
129.677
740.329
652.336
714.098
643.066
112.135
128.703
114.151
628.032
575.753
617.632
561.069
109.89
113.298
103.448
562.577
531.655
539.966
496.771
111.617
103.01
97.8365
522.821
498.009
483.789
456.393
100.522
98.3391
75.3161
488.165
462.658
446.124
428.74
1536.67
1650.72
1466.86
2336.98
2094.41
2330.24
2009.61
1310.56
1418.48
1235.25
2016.67
1722.54
1916.63
1629.5
1059.34
1163.35
964.436
1629.45
1402.25
1536.92
1301.59
887.527
913.609
792.605
1343.73
1161.92
1239.51
1074.52
724.848
755.959
654.954
1106.19
962.039
1023.52
894.759
616.26
629.302
579.511
925.424
827.952
862.926
791.869
541.907
567.442
537
798.762
728.97
772.614
722.737
487.05
524.898
493.267
706.904
643.013
706.671
662.432
1410.86
1260.56
1165.86
2175.56
1933.92
1876.83
1683.9
1202.6
1139.21
1019.56
1850.33
1586.27
1617.33
1410.81
938.086
974.459
857.156
1499
1269.06
1348.02
1189.88
754.992
824.378
695.994
1207.57
1030.36
1151.95
847.214
615.789
653.087
568.975
973.617
842.398
763.052
620.226
558.142
550.901
507.111
814.237
759.058
597.409
579.412
527.462
495.712
468.389
744.816
706.459
579.529
576.854
488.448
459.478
425.767
693.668
659.269
573.949
560.511
1093.18
1184.76
1075.7
1777.83
1609.42
1724.85
1553.8
983.97
1063.31
1025.79
1549.57
1370.21
1508.66
1385.82
856.271
1002.32
903.798
1318.66
1186.01
1342.58
1210.71
730.274
870.287
777.396
1153.71
890.094
1169.29
1049
616.944
749.634
683.382
819.967
698.253
1011.39
914.063
548.714
665.583
620.481
673.294
634.463
885.296
806.646
490.564
607.052
567.384
621.852
584.071
782.314
712.864
429.86
552.809
507.3
572.088
545.601
690.183
631.504
1088.95
1149.52
1097.78
1707.2
1568.2
1657.11
1567.56
1049.23
1091.45
1033.96
1527.73
1403.61
1530.13
1403.63
903.967
995.699
891.599
1353.4
1207.65
1347.05
1197.31
766.391
853.418
766.602
1162.33
1038.76
1147.55
1027.16
674.411
736.765
665.426
1001.67
908.347
987.911
887.78
615.065
640.3
586.262
880.979
807.575
855.035
779.568
566.784
570.091
532.859
784.943
721.792
757.318
702.473
512.691
519.95
487.489
701.37
644.026
684.535
641.745
2216.26
2492.44
2132.26
2835.52
2451.85
2828.45
2377.43
1815.22
2030
1724.03
2338.74
1994.14
2256.6
1920.65
1483.49
1628.5
1388.34
1892.61
1647.57
1822.38
1578.71
1229.97
1324.26
1150.44
1579.08
1373.97
1511.2
1324.56
1024.9
1096.7
962.86
1314.12
1168.63
1267.43
1126.98
885.446
929.634
852.808
1129.49
1020.14
1090.66
1001.66
780.237
831.537
776.575
986.589
904.277
976.78
912.878
684.018
759.143
706.892
876.038
795.641
892.478
829.511
2055.86
2030.6
1806.97
2677.1
2306.12
2349.12
2071.72
1679.88
1733
1511.9
2194.49
1879.82
1984.71
1742.22
1356.13
1446.17
1281.09
1786.63
1552.35
1672.55
1498.48
1277.34
1232.86
1265.64
1368.4
1201.28
1306.86
1343.18
956.746
993.115
956.23
1114.59
892.577
1059.91
1020.98
819.912
574.846
603.693
1050.77
973.759
759.672
776.085
760.344
612.47
620.519
952.932
900.228
777.284
773.982
704.985
619.66
607.466
883.899
832.698
771.963
762.068
1733.36
1863.37
1670.26
2262.68
2004.45
2171.09
1933.9
1471.96
1618.41
1478.14
1925.11
1708.73
1867.87
1693.64
1276.75
1430.92
1292.19
1647.97
1493.99
1638.52
1483.28
1258.84
1127.85
1245.13
1312.54
1189.23
1047.1
1322.7
1017.55
715.269
1012.03
667.634
968.34
619.107
1064.75
653.666
942.803
854.971
800.205
786.223
1072.2
964.149
618.485
827.722
751.098
776.982
751.853
931.762
847.601
587.43
726.943
664.768
745.624
737.931
823.925
771.053
1683.16
1809.17
1683.6
2156.88
1941.05
2132.82
1941.58
1492.36
1638.41
1494.17
1876.08
1696.91
1876.87
1693.17
1286.99
1433.06
1272.97
1637.59
1470.86
1622.64
1437.71
1110.6
1220.42
1092.27
1419.03
1273.85
1378.07
1234.13
969.718
1050.83
944.769
1228.86
1107.48
1188.39
1070.6
857.646
910.62
830.596
1070.63
971.421
1033.74
947.957
763.069
807.059
748.873
942.011
865.582
923.475
863.578
679.494
730.403
683.367
843.205
786.255
845.237
798.942
2508.72
2910.15
2436.67
3192.1
2692.93
3174.74
2649.15
2034.11
2310.94
1968.17
2549.32
2179.64
2509.06
2145.07
1683.66
1869.56
1623.93
2077.14
1810.08
2042.9
1773.5
1406.03
1554.87
1365.1
1730.59
1516.72
1694.59
1486.59
1202.74
1307.66
1166.25
1458.3
1311.44
1426.25
1274.59
1052.49
1129.18
1038.11
1267.64
1152.52
1234.37
1144.05
935.543
1012.88
947.746
1118.91
1030.27
1119.63
1048.92
824.77
926.647
860.264
999.642
914.626
1024.59
946.439
2368.21
2436.59
2141.25
3049.07
2591.71
2728.53
2390.91
1929.75
2051.13
1803.88
2461.41
2116.83
2292.5
2027.11
1600.06
1732.9
1550.52
2018.49
1755.48
1945.91
1720.33
1336.88
1497.85
1169.89
1678.39
1466.31
1646.98
1392.34
1127.75
1069.49
890.325
1401.91
1241.57
1306.73
1100.52
1011.77
864.203
833.472
1200.93
1117.87
1052.12
968.453
936.649
828.436
818.807
1098.9
1041.86
959.828
944.381
864.207
815.927
802.437
1021.47
952.025
937.847
909.778
2076.99
2264.74
2007.97
2649.66
2336.19
2595.94
2279.1
1773.46
1937.96
1754.52
2247.03
2006.78
2197.44
1985.88
1546.28
1697.04
1533.67
1932.1
1718.34
1918.25
1710.21
1168.42
1481.46
1327.62
1645.79
1396.24
1642.72
1451.7
927.602
1278.22
1142.17
1314.96
1115.1
1391.86
1226.76
835.241
1100.52
988.676
1060.47
956.818
1178.38
1066.36
794.113
956.03
873.772
942.924
917.937
1038.78
966.464
778.556
851.376
800.979
910.55
889.32
946.525
898.461
2013.61
2240.68
2016.72
2606.04
2281.46
2601.76
2274.45
1754.84
1946.03
1749.88
2197.13
1978.85
2187.46
1965.31
1519.69
1676.25
1481.99
1909.23
1695.85
1881.91
1650.25
1313.02
1419.86
1270.16
1627.55
1441.17
1579.01
1408.29
1138.55
1223.05
1101.76
1384.8
1231.26
1355.78
1216.12
997.745
1064.31
978.222
1187.43
1086.47
1176.56
1088.13
892.655
953.933
894.84
1059.54
987.56
1065.24
1004.86
815.695
877.027
830.198
967.179
912.802
987.307
938.393
2778.54
3285.3
2754.08
3719.22
3105.38
3676.21
3150.31
2258.38
2609.68
2240.04
2933.67
2584.06
2992.5
2614.79
1883.25
2136.58
1854.77
2499.85
2203.85
2510.56
2213.56
1585.65
1771.31
1555.59
2103.94
1910.1
2123.91
1903.88
1377.89
1493.88
1337.15
1858.48
1704.29
1841.07
1675.86
1216.04
1296.24
1210.35
1655.79
1549.69
1635.38
1574.6
1090.86
1187.11
1113.49
1521.49
1428.15
1556.24
1478.69
970.907
1087.85
1001.96
1402.4
1292.76
1453.69
1352.54
2701.72
2856.65
2511.64
3570.88
3111.57
3284.15
2954
2216.72
2411.22
2139.53
2965.14
2605.36
2845.38
2561.14
1838.25
2053.53
1808.01
2500.9
2209.39
2471.21
2202.92
1536.36
1728.52
1475.79
2120.57
1895.31
2113.85
1865.6
1303.28
1390.56
1172.37
1827.84
1649.04
1781.14
1542.12
1183.18
1119.06
1035.64
1605.08
1552.37
1482.97
1425.14
1108.51
1031.56
1019.03
1546.75
1484.04
1441.88
1435.01
1007.94
1010.55
971.726
1461.17
1359.29
1421.91
1347.35
2459.98
2742.46
2407.3
3219.93
2909.06
3212.08
2864.75
2122.5
2322.29
2102.81
2810.97
2552.32
2771.21
2538.72
1807.69
2031.4
1803.97
2467.76
2207.26
2460.98
2209.49
1479.03
1730.02
1523.96
2117.65
1868.69
2127.62
1900.12
1181.43
1459.89
1282.89
1785.28
1545.29
1830.33
1633.36
1021.74
1232.75
1128.21
1481.58
1412.73
1582.26
1517.68
993.441
1105.5
1036.31
1427.68
1418.53
1511.82
1451.25
952.942
1016.32
962.516
1405.7
1333.68
1431.97
1355.29
2408.28
2757.88
2388.07
3262.33
2859.52
3216.35
2791.76
2093.55
2297.98
2073.41
2761.58
2525.28
2690.88
2486.92
1790.95
1987.73
1742.19
2448.24
2192.9
2387.13
2119.15
1517.02
1668.85
1492.09
2113.18
1894.79
2044.66
1876.65
1293.07
1437.9
1290.44
1830.2
1650.66
1819.11
1662.77
1153.83
1250.33
1161.51
1607.9
1551.26
1624.97
1549.41
1057.57
1139.14
1076.67
1534.89
1467.7
1529.21
1467.2
977.219
1059.02
1004.71
1448.16
1367.9
1449.96
1375.21
1191.22
1170.32
1032.47
1176.13
1119.66
1242.37
1099.27
1232.95
1245.98
1129.51
1314.14
1162.89
1325.69
1110.59
1067.76
905.727
968.343
672.367
1036.79
905.303
842.58
1345.73
1433.06
1424.54
1466.86
1370.98
1410.34
1403.21
1261.46
1238.84
1359.11
1237.12
1305.79
1170.83
1323.37
1309.51
1377.19
1454.99
1348.71
1395.68
1175.39
1381.39
1147.76
729.59
1124.68
1186.69
989.244
904.207
1255.58
905.792
947.437
809.025
973.935
842.665
1012.88
872.725
718.808
805.926
651.517
573.296
727.951
797.306
487.868
659.587
647.401
603.544
521.151
673.23
661.228
482.115
1030.17
1176.53
1174.5
1161.15
1121.32
1093.16
1099.17
978.233
1032.91
1126.05
1005.26
1073.32
940.726
1047.23
813.551
627.124
1025.68
849.151
885.115
558.207
954.051
749.892
579.93
866.732
803.898
747.823
544.393
896.805
1185.47
979.03
1063.64
738.778
1124.31
855.627
1119.96
1278.29
1250.97
1206.4
1319.41
1207.44
1324.28
1275.1
1228.16
1114.19
1163.55
1185.96
1160.14
1179.12
1230.34
1328.15
1372.36
1320.01
1448.67
1109.45
1392.67
1386.19
1250.12
774.634
1143.15
1238.24
899.217
1180.61
1309.54
1341.27
1381.08
1443.03
1385.44
1388.59
1334.76
1393.42
1288.92
1241.85
1285.1
1336.81
1237.04
1288.21
1339.38
978.225
676.882
892.6
604.259
930.487
614.383
937.208
1089.78
1071.17
1043.37
1143.15
1031.26
1132.95
1102.74
1050.13
960.904
1008.01
1028.2
994.958
1012.57
1064.49
1070.04
700.161
842.487
1175.66
653.467
1121.44
1119.45
1027.31
651.619
804.705
1029.83
642.323
985.947
1071.1
1141.93
1196.82
1233.51
1196.22
1187.94
1154
1184.85
1098.74
1074.28
1094.73
1153.11
1057.62
1113.18
1138.6
338.032
461.302
374.378
794.264
920.706
845.039
952.717
317.54
358.807
354.422
961.78
950.158
989.893
976.182
282.125
338.872
321.705
913.331
860.484
919.691
855.701
253.574
298.315
275.779
814.038
748.293
790.195
723.629
214.34
250.38
226.544
689.494
630.435
653.305
591.27
184.908
203.17
186.821
579.332
536.388
535.051
495.418
157.949
170.558
160.194
488.141
461.477
454.993
431.701
118.566
152.426
129.561
406.004
411.768
396.153
405.817
516.429
590.26
488.223
1114.77
1106.8
1120.44
1174.06
533.668
266.24
332.29
549.55
550.985
533.231
266.884
613.735
197.192
200.396
609.698
646.427
584.37
207.859
543.897
192.958
206.496
621.109
585.427
580.848
192.608
450.08
168.722
164.071
517.5
500.479
466.151
159.947
394.075
148.308
150.483
448.128
425.459
410.773
145.803
316.735
116.374
123.668
359.577
341.802
333.101
117.598
273.44
96.898
103.614
296.208
284.619
281.374
100.902
244.509
85.9974
92.0681
254.204
250.853
250.587
89.2377
124.222
153.779
122.619
363.44
377.288
364.888
376.541
435.57
456.45
379.094
971.662
1020.53
855.751
839.056
475.022
210.251
260.855
470.056
495.675
453.315
205.224
580.377
213.223
196.656
606.229
612.151
576.356
201.203
506.046
192.287
194.497
562.234
527.706
536.779
184.217
375.636
142.869
144.241
420.51
397.363
401.473
133.831
299.13
114.266
112.49
335.542
317.113
312.744
108.432
276.279
102.7
102.76
280.375
277.316
277.165
102.944
276.392
106.184
106.367
279.346
279.245
276.986
106.929
265.878
102.59
106.163
271.37
265.558
269.771
104.651
124.5
166.758
123.032
365.38
387.615
343.308
357.177
342.194
421.412
329.477
770.616
735.295
809.604
776.015
312.523
159.696
212.025
318.394
315.194
316.014
158.26
433.651
149.19
136.859
413.781
439.764
406.495
147.53
433.025
144.641
153.464
430.814
416.278
440.291
152.297
397.949
134.626
148.768
382.34
374.931
409.775
144.399
348.726
125.653
131.011
348.355
340.566
359.418
127.268
323.396
118.587
119.814
318.762
316.15
326.097
119.484
312.072
116.363
118.684
304.466
299.906
314.712
118.725
294.79
112.224
117.816
284.548
279.14
299.693
116.553
130.079
191.295
150.896
351.565
354.069
388.469
402.558
310.099
388.775
324.935
744.455
712.352
690.658
631.235
326.457
163.79
208.552
318.245
326.473
317.947
168.313
457.31
146.961
143.098
404.194
445.469
416.614
154.836
463.098
170.451
167.025
486.866
479.866
479.115
162.806
374.231
138.806
135.758
411.615
392.815
390.857
129.76
320.276
117.15
115.305
344.062
333.473
330.06
111.825
296.299
110.36
105.398
314.425
311.146
300.471
104.05
286.59
110.282
102.393
304.726
303.196
288.278
102.429
281.558
111.705
103.683
298.504
295.979
283.566
103.768
149.543
162.517
139.113
399.297
411.919
372.78
389.297
264.886
333.972
268.824
591.314
693.795
614.063
691.215
265.442
278.181
289.291
733.119
741.457
713.545
706.841
263.237
311.783
297.556
733.748
697.498
698.609
673.894
233.567
288.08
264.058
640.186
595.923
610.532
559.921
196.872
245.412
215.534
553.608
515.894
511.899
472.496
165.61
197.752
175.555
471.507
438.56
419.177