/*--------------------------------*- C++ -*----------------------------------*\
  =========                 |
  \\      /  F ield         | OpenFOAM: The Open Source CFD Toolbox
   \\    /   O peration     | Website:  https://openfoam.org
    \\  /    A nd           | Version:  10
     \\/     M anipulation  |
\*---------------------------------------------------------------------------*/
FoamFile
{
    format      ascii;
    class       volScalarField;
    location    "4.4";
    object      omega_0;
}
// * * * * * * * * * * * * * * * * * * * * * * * * * * * * * * * * * * * * * //

dimensions      [0 0 -1 0 0 0 0];

internalField   nonuniform List<scalar> 
12920
(
106.167
151.407
142.701
121.733
103.26
94.5784
88.0656
84.0653
78.7987
72.0431
63.9047
57.0506
52.3901
50.1664
49.3706
48.1176
47.314
45.4515
44.3076
41.3613
320.832
231.786
195.472
180.334
143.652
117.62
94.8292
82.0527
74.6587
72.1949
70.6363
70.0713
68.967
67.5243
65.6664
63.8415
62.1358
59.6039
58.3296
55.8649
175.133
210.116
207.985
192.353
149.371
121.184
102.033
91.41
81.7354
76.7993
72.5879
70.573
68.4842
67.0613
65.8187
64.5957
63.6159
62.0165
61.144
58.9218
135.372
185.977
164.112
134.976
111.992
95.4306
85.5802
78.3856
72.7227
69.1972
65.9693
63.9484
62.3302
61.889
62.0124
62.1934
62.1711
61.8636
61.5751
60.4297
113.98
170.745
151.108
131.016
115.34
107.025
94.0133
84.9209
77.5372
72.2023
67.5676
63.6581
60.8018
59.1399
58.5392
58.5383
58.8756
59.3588
59.6004
59.088
137.364
145.654
130.995
125.287
112.922
105.205
96.4837
91.2676
87.7541
82.9316
77.5901
71.3038
65.5809
60.6992
57.6113
55.8582
55.475
55.5974
55.7788
55.2669
111.057
162.053
138.558
117.04
109.19
103.188
101.704
98.1988
96.0499
91.5156
85.724
79.1671
72.2402
64.755
58.4911
54.1478
51.7915
51.0965
50.9953
50.2785
160.155
186.062
147.619
130.478
126.86
118.071
185.038
159.66
155.667
146.621
137.282
125.819
116.458
108.829
65.8778
58.8295
53.4981
50.2669
49.1813
46.9413
183.713
176.52
159.826
146.482
138.731
216.654
334.835
245.033
255.481
234.094
223.27
198.138
179.431
167.017
111.415
63.8914
56.9135
51.5669
48.7013
45.225
162.356
214.415
160.182
134.937
127.217
201.855
292.639
257.235
254.357
218.593
195.852
181.134
183.339
182.625
114.161
65.0796
58.2452
51.6488
47.6379
44.6181
241.159
262.261
182.81
142.313
122.461
185.841
261.047
211.31
217.223
207.363
201.749
194.635
192.968
190.582
119.095
66.1389
59.8848
52.899
48.0323
45.0947
233.441
207.754
185.267
150.236
121.331
176.354
255.395
208.421
233.556
215.349
195.518
187.853
187.148
188.663
121.735
68.2858
62.0476
55.2616
50.3124
47.5972
179.1
186.363
182.02
150.054
109.768
100.91
158.976
143.405
146.698
140.412
131.251
119.612
110.49
104.731
64.2767
61.5699
58.9907
54.7711
52.0369
50.26
229.79
251.534
222.765
166.934
122.928
109.601
102.521
101.073
97.4386
89.8402
81.7521
74.556
68.5664
62.9624
59.4292
56.484
54.3564
52.5799
51.7061
50.9968
362.302
335.594
236.713
186.942
152.256
138.365
119.698
108.595
98.5111
88.4518
80.0654
73.9576
69.4918
65.0522
61.3226
58.0538
55.4121
53.2734
52.4741
51.9659
194.184
227.438
205.381
171.687
151.647
144.518
129.525
110.356
91.1989
76.4429
68.552
64.8939
62.8436
60.8457
58.9868
57.1357
55.7915
54.1666
53.5435
52.2956
474.182
166.112
154.9
149.964
145.841
133.383
111.319
89.8115
75.4788
68.2354
63.0254
59.1061
56.2702
54.6109
53.9571
53.3125
52.9817
52.2186
51.756
50.2016
196.5
223.646
186.908
149.908
125.682
102.01
86.1314
77.555
71.0906
68.6305
63.3932
58.2654
52.6949
49.5809
48.0967
47.7047
47.8803
48.2265
48.277
47.4701
421.38
342.02
193.618
120.616
95.511
85.035
75.9543
74.7619
72.0402
71.0541
69.2583
67.4266
61.8176
53.7162
47.3565
44.3781
43.026
42.9268
43.8616
44.0537
41.3592
97.1171
123.465
122.368
107.688
93.5613
84.0749
80.0846
77.3027
71.2716
64.6028
60.952
58.317
54.4732
52.0163
50.235
45.3698
35.9689
30.7555
29.8864
58.0154
77.1716
77.705
70.655
60.8922
56.2087
50.0727
47.6997
45.0829
42.3092
38.7259
35.7405
33.5653
32.339
31.4951
30.4006
29.5642
27.8266
26.9388
24.7813
381.177
117.01
96.694
90.2678
84.586
80.5087
68.1402
53.7401
44.8758
40.3571
38.3361
36.957
35.8539
34.7372
33.8309
33.0479
32.3634
31.3751
30.8177
29.5958
111.938
118.826
105.686
90.6561
76.4713
73.7856
67.6162
54.805
45.0081
39.56
36.9053
35.1981
34.1761
33.2665
32.7294
32.2454
31.9104
31.4322
31.1518
30.5909
148.669
128.748
95.4528
72.7575
56.9239
47.1406
42.2523
38.9214
37.0709
35.6838
34.7975
33.6045
32.9068
32.0509
31.6029
31.4827
31.5141
31.5616
31.6805
31.8174
134.44
159.01
132.03
105.364
78.0919
58.5928
46.8078
41.9073
40.331
39.0394
37.8828
35.8791
34.1295
32.271
30.9065
30.2295
30.2514
30.5164
30.9833
31.3407
498.478
249.009
126.514
112.145
87.3982
59.847
48.6637
45.1352
44.1606
43.0623
41.5191
39.1272
36.4033
33.0154
30.1648
28.4606
27.9998
28.0614
28.3815
28.6468
201.764
138.688
97.0459
83.0697
68.6878
57.8666
54.2867
51.4022
47.8976
45.6791
42.6889
40.1738
37.1842
33.4728
30.354
28.0863
26.7411
25.9738
25.7718
25.6153
239.631
122.158
82.5802
72.8577
69.9379
62.601
67.419
61.2283
53.0792
47.601
42.7235
39.6401
37.3358
34.9786
30.1382
29.0813
27.9794
26.3714
25.3095
24.3592
246.518
185.462
115.242
85.3542
76.7741
79.4819
79.6121
68.2233
53.5113
45.806
41.7421
38.6473
36.4969
35.3598
32.5844
30.6286
29.7158
27.6648
25.6122
23.7907
363.282
275.952
109.289
84.4932
77.2242
75.7835
71.7204
60.0271
50.9521
43.7956
39.8469
38.5215
37.8554
37.5489
35.7736
34.7041
34.2793
31.1801
26.5635
23.9479
309.304
196.859
111.196
93.0488
81.6466
80.4846
76.261
56.4951
45.6955
42.5789
42.1285
41.3055
39.495
38.2148
35.7046
34.3751
34.257
33.0623
28.979
25.3474
221.672
180.443
147.48
99.9492
77.4194
74.6823
68.7226
56.3312
48.641
43.6358
40.1708
37.6266
35.5183
33.88
31.9949
31.4794
31.5635
30.8476
28.8263
26.4983
110.833
146.686
129.443
88.9639
67.5244
56.098
57.2969
51.1064
48.4408
45.5328
43.016
39.7143
36.8741
34.1634
30.0299
29.3373
28.9285
28.3575
27.9179
26.9651
416.587
188.682
110.804
82.2498
64.8085
60.1178
56.5597
55.2534
51.7306
46.4065
42.075
38.1586
35.7969
33.0053
30.4808
28.7533
27.9622
27.5995
27.2255
27.151
340.43
167.373
123.328
93.3975
76.392
72.5246
66.1937
60.1835
54.4919
47.0623
41.3
36.8185
34.3191
32.0554
30.6671
29.6252
28.8735
28.4245
27.9957
28.0411
201.96
204.663
144.67
100.88
82.8778
77.3311
71.9714
61.8361
50.9152
40.9726
35.7842
32.6467
31.0563
29.9216
29.4356
29.0246
28.7772
28.4342
28.2112
27.9942
268.415
149.645
110.246
89.1936
79.003
72.3706
64.6939
50.4498
41.1055
35.5161
32.6584
30.4848
28.9265
27.7086
27.0707
26.6307
26.5627
26.43
26.3374
25.9376
164.82
173.628
150.628
109.102
85.4836
65.9341
49.8585
39.8001
34.6772
33.1772
31.5687
30.0524
28.4801
26.8165
25.8891
25.1566
24.8327
24.4866
24.3662
23.9847
446.663
244.63
122.853
90.1142
70.2704
54.4312
44.6365
40.8498
37.8203
37.4584
36.3146
35.9915
34.9412
32.6954
29.4165
26.254
24.2347
23.2596
23.0989
22.8623
34.8911
62.5578
63.446
59.3592
52.3424
50.228
46.9604
44.3213
40.9446
38.2143
34.8017
30.7173
28.3816
27.5679
25.8471
22.7124
18.8203
16.8488
16.8464
17.7504
29.757
79.0946
84.4879
75.9044
66.6671
60.9738
55.7381
52.4403
48.8929
45.1251
41.1568
38.2218
36.164
34.8388
33.5941
32.1788
30.9251
28.8973
27.8432
25.6389
201.594
112.023
88.8812
72.0608
63.9289
57.9484
49.2325
43.1633
38.7448
37.0633
35.59
34.9781
34.0788
33.5215
32.8493
32.2962
31.7441
31.1373
30.7327
29.8745
180.827
129.794
100.558
77.0949
61.7842
54.8743
47.7203
41.536
36.7479
34.6142
33.124
32.4027
31.7206
31.3006
30.9019
30.5174
30.201
29.7838
29.5098
29.0577
204.236
129.059
87.969
63.6015
49.0589
39.5734
36.2529
33.4091
32.5353
31.6215
31.1189
30.5917
30.2014
29.8624
29.7077
29.6029
29.5727
29.497
29.4505
29.3129
214.741
165.634
112.732
90.7247
66.3616
49.4784
39.5674
35.7288
34.2782
33.2784
32.2459
31.1226
30.123
29.2638
28.7312
28.4569
28.4621
28.5458
28.6523
28.6282
586.826
228.929
114.091
95.1295
66.6035
48.7566
40.8121
37.7096
36.7138
35.4823
34.0654
32.1506
30.3583
28.6476
27.3541
26.6019
26.3673
26.374
26.4168
26.3825
636.53
234.53
85.2214
64.6727
55.7039
47.0956
45.1516
41.9312
39.8965
37.9036
35.4785
33.2858
30.8294
28.5268
26.8458
25.7041
25.0223
24.6478
24.4786
24.3732
329.87
197.04
74.1231
59.0494
57.6693
50.7228
51.6263
48.8514
43.3902
39.9827
36.2894
34.0632
31.7036
29.6166
27.9381
26.6785
25.6107
24.692
24.0672
23.7538
187.088
135.405
81.9479
68.8427
62.6371
61.3384
59.9909
53.2507
45.0671
40.2343
36.662
34.1172
32.254
30.8109
29.5232
28.8922
27.1396
25.5481
24.4135
23.7915
271.776
164.014
82.967
69.5306
62.8345
60.3789
56.5845
49.2399
43.0222
38.5662
39.0073
38.207
35.6198
33.8336
33.2634
33.1023
30.2181
27.3482
25.3329
24.3009
247.479
128.693
80.77
67.4259
60.3979
58.7143
54.8939
45.1871
39.7175
38.0102
101.97
72.5009
47.5404
41.5153
37.9589
35.7949
33.1045
29.963
27.2915
25.3414
282.833
180.986
97.5906
68.348
55.3098
52.7436
51.0283
44.6533
40.1728
37.2315
35.196
33.6144
32.4358
31.8818
32.0664
32.3252
31.1252
29.1569
27.5764
25.7342
242.574
157.413
93.2755
60.8408
51.5044
46.5967
45.2477
41.8631
39.2156
36.6754
34.6743
32.58
31.0239
29.8366
28.8856
28.3449
27.9974
27.3648
26.8543
25.8773
230.666
142.638
95.4609
64.0774
53.9514
52.183
48.1945
46.237
42.2309
37.8924
34.6569
31.8557
30.1126
28.5437
27.5429
26.8383
26.6271
26.459
26.3392
26.09
206.985
156.304
114.049
78.7771
64.3528
59.6387
54.1858
49.5592
44.2198
38.5568
34.4343
31.2667
29.4791
28.1183
27.4201
26.9452
26.7042
26.5852
26.5299
26.432
319.794
207.86
120.354
85.3193
69.4514
61.8063
54.8921
46.4989
39.4238
33.8758
30.7179
28.7319
27.6098
26.9524
26.6468
26.4414
26.3592
26.2306
26.1593
25.9332
190.804
141.825
101.16
80.3564
67.7422
56.8374
47.4729
38.1015
32.8898
29.7009
27.8773
26.5865
25.7558
25.1848
24.8943
24.6567
24.6199
24.5188
24.4232
24.0742
201.416
154.743
121.913
89.9752
68.5831
50.9743
39.1993
33.0711
29.5603
27.9984
26.4932
25.5027
24.5522
23.8822
23.4736
23.3129
23.3186
23.3213
23.3003
23.18
280.128
124.409
85.2146
63.5971
53.5749
42.6006
36.8136
34.7687
32.3574
31.3444
29.1646
28.1592
26.7226
25.609
24.4235
23.466
23.0724
23.1044
23.237
23.4507
79.1738
82.4629
68.8497
61.6774
57.2586
52.5268
48.507
45.0095
41.68
36.6386
30.9487
26.9715
25.3159
23.58
22.2133
20.605
19.4041
19.4184
19.9334
20.8133
23.7576
67.0675
83.8479
75.9108
67.2403
60.6683
56.2051
52.1918
48.135
44.0439
40.7263
38.2604
36.3963
34.6996
32.9398
30.9625
29.3691
27.4958
26.5961
24.7409
311.979
113.213
92.1667
65.5992
58.696
49.5205
46.5174
43.0067
41.9205
40.9166
40.424
40.1561
39.8284
39.6558
39.3714
39.0091
38.5876
38.0521
37.4568
36.7759
162.006
149.175
109.273
72.293
57.6167
47.4134
43.9624
39.9024
38.3918
37.15
36.759
36.4204
36.2443
36.0681
35.8846
35.5381
35.2691
34.7857
34.4477
34.0692
227.739
161.052
93.161
61.1893
48.8277
39.2647
37.5806
34.5729
34.7491
33.999
34.1793
34.0208
34.1079
34.0961
34.1318
34.0585
33.9834
33.7605
33.5708
33.3005
213.017
151.849
98.4602
72.9735
58.9848
44.3455
39.3955
35.739
35.4618
34.4474
34.2017
33.6086
33.3416
33.0863
33.0012
32.881
32.8611
32.776
32.6789
32.5347
253.21
151.395
104.214
72.7367
57.885
44.1232
40.4505
37.0016
36.5203
35.0737
34.3399
33.2124
32.475
31.7892
31.3156
30.9877
30.874
30.834
30.7483
30.7338
477.419
254.478
99.0221
61.3397
53.0748
44.3407
43.9691
39.8039
39.0594
36.7867
35.5468
33.8609
32.5973
31.4675
30.6881
30.0769
29.7479
29.6085
29.5491
29.6571
642.436
320.009
85.6901
59.5332
56.6825
48.5138
48.057
45.2632
41.1867
39.0527
36.6522
35.2323
33.5936
32.4308
33.0721
31.3552
30.3256
29.8444
29.6129
29.6986
266.966
148.897
78.8486
63.5351
59.2818
55.5587
54.1525
48.6098
43.5282
40.7585
38.3342
36.8797
35.5825
34.65
34.7596
34.2874
32.0291
30.8999
30.3764
30.3477
282.4
116.599
77.9486
63.9628
59.1904
55.6298
52.0104
46.765
42.9076
40.7486
41.9491
40.8131
39.0041
38.1321
38.4499
37.1217
33.9718
32.2532
31.3265
30.963
278.751
123.239
71.7786
59.3716
53.5701
50.3432
47.6747
43.3186
40.938
40.9653
70.6596
59.7593
47.6386
44.0638
42.4024
39.3541
36.0952
33.7792
32.303
31.3544
388.089
121.106
77.2046
56.3737
50.5839
47.1344
46.0944
42.327
40.151
38.8045
37.9847
37.5432
37.583
38.1678
38.9715
37.5636
35.3624
33.5652
32.3008
31.1469
274.503
152.153
82.2391
54.8164
49.8774
45.719
43.1999
40.6181
38.4263
36.444
35.2848
34.3508
34.0785
34.0843
34.456
33.5452
33.0603
32.3428
31.8823
31.1651
166.83
169.186
104.825
61.5152
54.8989
50.5556
46.1875
43.577
40.0171
36.6204
34.4559
32.6691
31.9666
31.3664
31.289
31.1816
31.345
31.4322
31.5163
31.3714
297.975
167.888
116.09
74.461
62.5767
54.8589
50.9559
45.8836
41.5929
37.1186
34.4231
32.2891
31.3519
30.7236
30.6305
30.629
30.8578
31.0918
31.3109
31.2921
198.791
160.688
114.583
80.0226
66.1842
54.8723
49.195
41.6646
37.7929
33.8901
32.1108
30.661
30.1412
29.8399
29.8962
30.0197
30.2927
30.4458
30.5703
30.4975
173.296
126.961
101.329
74.0751
62.8707
48.9308
42.8021
35.7813
33.3844
30.7776
29.8781
28.8696
28.6078
28.4057
28.5008
28.6122
28.8396
28.9398
28.9948
28.9858
136.987
127.653
115.156
80.5533
63.0355
46.2864
39.3263
33.6453
31.5689
29.5307
28.5483
27.6654
27.3263
27.2417
27.4021
27.7816
28.2378
28.6159
28.7939
29.1003
137.067
108.251
74.7027
57.3676
51.9568
41.001
38.9528
35.5892
33.6791
31.115
29.614
28.616
28.0243
27.9099
27.9205
28.0545
28.6516
29.6589
30.3335
31.2415
93.0545
89.0109
74.0636
62.6863
58.4145
51.3858
47.2293
42.2095
37.668
31.3446
27.6512
25.6733
24.6282
22.7659
21.7224
21.2003
21.2228
21.4215
21.5645
21.7976
15.1581
43.2101
78.9367
73.7403
64.401
57.1982
52.3481
47.4823
43.2949
40.0793
37.8989
35.8053
33.6597
31.247
28.9299
26.8
25.0973
23.8119
23.0641
22.4978
318.224
172.797
103.068
75.9369
68.0768
52.412
57.0794
48.5286
52.7328
48.8231
51.8646
50.4295
52.207
51.2999
51.653
50.5223
50.0426
48.7171
48.1715
47.4282
347.844
154.001
120.67
71.4359
64.8353
49.0731
51.5662
44.7603
47.5759
44.4789
46.5521
45.2751
46.4568
45.7166
46.0051
45.2041
44.9505
44.086
43.836
43.4016
357.969
180.071
105.903
67.5125
57.3086
46.7133
46.3714
40.9385
43.5146
41.0237
43.3939
42.4032
43.8416
43.3658
43.8694
43.4011
43.3539
42.8124
42.6113
42.3055
277.592
193.942
111.562
69.229
64.2851
46.3355
47.3861
40.8194
43.4758
40.883
42.8961
41.8434
42.9739
42.5099
42.903
42.507
42.5042
42.1351
42.0364
41.9448
202.68
157.591
110.819
73.4406
64.5239
48.4408
48.7628
42.0353
43.3595
40.7933
41.8666
40.7803
41.4064
40.9237
41.0116
40.7073
40.7093
40.5707
40.5176
40.6523
284.788
235.958
126.639
76.5912
63.6325
49.8035
51.5307
43.5204
45.4871
41.7879
43.0395
41.3262
41.7233
40.9884
40.7152
40.2107
40.153
40.0403
40.0781
40.371
402.182
203.984
94.2212
78.0287
66.8209
55.5186
54.8182
49.3713
48.1498
45.6649
45.4876
44.3332
44.347
43.7899
43.3857
41.2308
40.5499
40.4261
40.3463
40.6844
328.933
189.242
95.9553
72.9252
66.2129
57.2772
58.9288
55.1744
53.1866
51.896
51.4524
50.7435
50.2261
49.6531
48.3773
43.7917
41.8197
41.3821
41.2558
41.4932
206.036
146.434
89.5569
72.754
68.2121
60.507
59.1195
57.5906
56.2425
54.6406
54.635
54.5032
54.3776
53.4864
50.5185
45.341
43.0705
42.3812
41.9912
41.9376
173.649
142.138
86.0234
66.6432
61.8413
54.173
55.4069
56.9435
56.3102
54.2493
56.68
56.3867
56.5223
55.3773
51.612
46.1051
43.9035
43.0081
42.4921
42.1356
448.914
155.401
85.6848
67.2326
63.0622
56.0819
58.4894
56.4573
55.7987
54.4304
54.169
54.154
54.4177
54.0441
50.9282
45.7531
43.7992
43.0163
42.517
41.8887
233.946
136.652
97.1455
63.2421
64.0196
55.5311
52.9548
50.3286
49.9424
47.8548
47.9816
47.0713
47.6023
47.2648
44.9249
43.2189
43.0046
42.7583
42.6754
42.1972
216.014
189.875
128.618
70.5684
72.5982
57.1063
55.5092
50.6376
48.007
44.7973
43.5345
41.9378
41.9629
41.5013
41.6574
41.6112
42.1664
42.4222
42.7338
42.6054
208.361
158.769
120.303
73.2865
74.074
59.0536
59.9156
52.1905
49.8129
44.9375
43.7072
41.4393
41.2681
40.6506
40.9521
41.0629
41.7409
42.1478
42.5604
42.5862
519.128
173.659
133.57
81.172
80.1013
60.0042
59.3319
48.9095
48.3699
43.0172
42.7693
40.3354
40.6329
39.8788
40.4907
40.5093
41.2308
41.4686
41.8273
41.8759
211.078
152.393
109.592
75.5492
70.9891
53.1883
53.0797
44.1537
45.0864
40.6015
41.2805
39.1104
39.7077
38.9391
39.5489
39.47
40.0642
40.2236
40.5184
40.6906
155.538
150.403
136.445
83.3764
78.8891
55.2216
56.0475
44.5906
45.4261
39.9823
40.8042
38.286
38.9999
38.1843
39.0365
39.1557
40.1387
40.5139
40.8526
41.3031
212.022
136.602
89.4147
79.9063
71.7023
53.1069
56.3492
44.7259
46.9021
40.88
42.6118
39.7609
40.8465
39.8007
40.8178
40.7288
42.1984
43.2811
44.2105
45.2955
42.5719
81.0153
76.5677
62.285
55.6353
47.5434
41.9073
35.046
30.3111
27.2128
26.3668
25.0427
24.1914
22.758
22.2493
22.0362
21.9672
21.9175
21.9421
22.0257
38.6721
39.1627
82.5687
39.7314
41.0714
41.2967
97.2029
38.7841
82.5073
74.9386
41.413
40.8238
96.1483
78.2813
99.3658
37.5216
36.3007
40.2484
113.863
38.3401
37.9533
85.821
35.9257
34.8346
112.835
87.5203
37.8356
37.4593
243.67
307.323
252.456
94.1881
79.6441
88.0212
73.9149
257.625
256.301
260.576
75.3637
61.5475
69.2439
59.1733
235.044
255.663
227.927
58.3764
50.9059
56.8657
50.4412
226.023
221.104
208.834
49.6714
46.5014
48.5723
45.0006
203.087
205.423
190.498
45.7595
43.2445
44.322
42.4724
182.777
185.616
181.636
42.553
40.6667
41.9678
40.8881
168.513
181.386
180.128
40.3206
39.6767
40.822
41.1982
150.535
178.431
150.534
39.4328
36.7439
41.3608
40.2786
252.029
272.562
212.946
83.0104
70.1474
85.7828
69.123
259.358
217.345
223.644
66.3686
58.2829
63.3985
52.6894
227.091
220.511
207.611
56.2945
50.1804
51.0567
47.7567
201.44
203.999
194.599
48.2556
44.1098
46.7417
45.2607
182.716
193.52
191.918
43.4447
42.1888
45.2478
44.8205
181.954
191.607
190.085
41.9204
41.4159
44.5707
43.4457
183.5
188.911
186.909
41.3568
41.4598
43.0935
41.9802
157.997
186.244
167.153
41.4755
39.9141
41.6937
39.178
204.951
258.057
204.624
88.1913
69.438
81.1134
65.3328
219.447
207.796
230.873
62.3002
51.344
60.5907
53.9725
208.454
232.606
224.889
50.1647
47.8217
52.896
49.6227
203.828
219.649
204.991
47.0882
45.8927
48.4993
45.5023
195.55
200.443
193.24
45.6555
44.7799
44.6851
42.3956
193.527
191.991
191.202
44.4081
42.8511
41.7362
39.993
191.446
191.442
193.08
42.4604
41.3685
39.5242
38.2789
169.424
193.09
180.229
41.0654
38.9272
37.9386
35.8378
205.656
277.562
224.697
78.836
65.838
81.3929
66.7046
232.66
224.544
222.67
62.0999
55.4641
62.6205
56.2736
222.648
220.096
212.721
53.9579
49.8815
55.1327
52.9498
199.424
211.489
202.804
48.5931
45.3675
52.0878
50.3839
188.835
201.939
190.373
44.5661
42.422
49.6161
47.3785
187.066
189.634
181.433
41.7721
39.996
46.365
43.8786
188.615
181.022
176.612
39.4825
38.0571
43.0005
40.4893
178.704
176.96
154.749
37.6561
35.5201
39.576
36.0308
71.5744
76.2544
66.2587
63.2179
57.6522
62.1116
54.8173
56.4486
62.5088
53.6166
55.5823
48.2737
52.4319
46.1623
47.0774
51.4744
45.7698
46.2635
41.7725
44.4998
40.4007
42.6197
44.1676
40.973
40.7993
37.8842
39.3118
37.276
39.3413
40.3356
38.7151
37.0393
34.8433
36.8703
35.677
36.9085
38.2177
37.1687
34.2893
32.7897
35.2323
34.046
35.6758
37.0306
37.0757
32.3519
31.2836
33.7231
33.0179
33.6898
37.0858
36.919
30.9066
29.4743
32.7741
32.0549
63.1143
73.5718
62.194
58.9346
52.8937
58.0728
50.6016
52.8063
57.5195
48.2174
50.8436
45.4976
48.0443
42.3645
45.4688
46.6076
43.3402
44.0005
39.9938
41.1383
38.5163
40.3739
42.3726
41.6973
38.8846
37.9281
38.4951
53.5558
38.7705
41.9301
41.8588
38.0357
37.7469
55.041
55.3588
37.9873
41.6904
40.6367
37.3743
35.903
54.3268
47.3633
37.6322
40.2949
39.2319
35.4131
34.1683
45.524
41.3033
36.8851
38.8719
37.3119
33.8116
32.6533
40.0363
37.3765
62.341
70.5897
58.7808
58.5747
49.8026
55.0449
47.7206
46.9068
54.8764
48.9146
46.8744
41.2795
45.6544
41.8312
43.2932
47.7954
44.6101
40.3129
38.3914
40.9369
38.6398
42.0956
43.6257
41.0672
38.1307
56.0453
38.0177
36.4584
41.6153
40.3412
38.3149
57.7897
56.7037
35.9907
34.6582
39.8788
37.7132
36.1158
53.675
45.3331
34.2504
33.1842
38.5239
35.6778
34.5772
43.7868
40.786
32.913
32.3929
36.9777
34.3013
33.3515
39.9041
37.8025
32.3075
32.0494
59.5023
66.946
59.17
54.0904
48.3384
51.6973
47.314
50.1865
55.7715
49.8521
46.5028
42.389
45.484
41.7315
44.7481
48.5587
46.2952
41.2445
38.5121
40.6372
38.4002
40.9038
45.3519
43.6988
37.7875
35.968
37.739
36.1821
38.2231
42.8805
41.0361
35.4279
34.0132
35.6012
34.0828
35.9997
40.1186
38.0764
33.5867
32.4693
33.5074
32.1346
34.237
37.3331
35.3907
32.1511
31.456
31.6895
30.5927
32.908
34.6947
32.7929
31.3045
31.191
30.2686
29.4336
55.1069
59.6064
52.7386
54.9524
50.4747
54.8846
49.189
46.855
50.6163
45.0172
49.0447
44.5966
47.6659
43.7594
41.1341
43.5177
39.8869
43.3947
40.8487
42.7417
40.444
37.4801
38.9286
37.3028
40.1786
38.0816
39.8634
39.0654
34.6292
36.9827
35.8958
37.457
36.0879
38.8693
37.9893
32.6958
35.4379
34.1624
35.7062
34.6168
37.5806
36.5026
31.1915
33.8061
32.9996
34.2324
33.4488
36.2231
35.6197
29.4394
32.7325
31.9797
33.1045
32.1448
35.4122
34.8075
51.0893
54.9129
48.4775
52.5251
48.103
49.4124
45.2412
44.3887
46.3581
41.5599
46.7481
43.2743
44.0267
41.242
39.4756
40.4801
38.4027
42.3441
40.1584
40.5956
39.7354
40.5401
38.1082
38.4719
38.6443
39.1866
38.4894
38.8159
51.913
39.1004
46.306
40.1764
47.0909
40.2807
51.3282
36.2091
70.6132
52.7216
40.106
38.1644
69.9184
51.9665
34.2109
49.3055
42.8361
37.6903
36.7209
48.943
43.8041
32.6576
41.2271
38.1339
36.4713
35.6457
42.7213
40.8158
47.52
51.8102
45.6932
48.4672
44.2109
46.6458
42.8161
40.5699
44.0131
40.7859
43.0218
40.5454
41.9137
40.0877
38.2129
39.9985
38.0467
40.0492
39.4599
39.6377
38.6034
47.4112
69.1846
38.0494
45.6993
41.8186
273.118
38.3098
51.8303
99.6685
45.8261
235.591
45.7536
221.486
52.283
50.4216
34.4949
33.6056
72.5891
51.7455
37.3243
37.0715
42.7137
33.3952
33.0818
48.9438
44.5384
37.0891
37.4439
38.8089
33.0673
32.9338
43.6357
41.7731
37.6218
38.1135
46.1858
48.7
45.2192
46.3318
42.962
44.9312
42.0878
41.1523
43.6691
40.441
42.0739
40.0418
41.087
38.9257
37.8442
39.4217
37.3705
39.4756
38.1862
38.1751
36.7238
35.6698
36.7636
35.2945
37.8533
37.0283
36.2292
35.1898
33.9777
34.7677
33.427
36.7885
36.2256
34.8593
34.1576
32.6872
32.931
31.7742
36.0723
35.8079
33.9375
33.4572
31.961
31.4056
30.5824
35.7975
36.0361
33.3659
33.3317
31.9339
30.3408
29.6974
36.163
36.8319
33.3044
33.3088
49.9627
54.1857
48.9279
56.2752
53.0299
56.5847
53.696
44.5783
47.5611
44.1129
51.8903
49.1247
52.7678
50.6365
41.3641
43.2442
41.3119
48.7259
47.4163
50.2442
48.8532
38.8757
40.8279
40.1243
46.9754
45.8636
48.4744
47.8111
37.2148
39.941
39.153
45.7432
45.1488
47.6603
47.0864
35.9152
38.8062
37.9576
44.9109
44.2804
47.0029
47.136
34.9502
37.7457
37.2965
44.1896
43.7769
47.0349
46.5815
33.7651
37.1236
36.5095
43.5929
42.6366
46.3979
45.4729
47.9847
48.6941
45.2325
55.4106
53.3628
52.2414
51.7566
43.6975
44.2276
41.9421
52.5457
50.7143
51.3656
50.4721
41.0983
41.4091
40.6287
50.3608
48.8055
49.8577
48.3253
41.7104
41.4308
66.7537
48.4658
48.3511
48.2532
52.346
41.379
67.4925
62.2614
48.3462
47.86
52.9405
52.1459
39.3463
58.6845
49.3128
47.6698
47.8816
51.5584
50.61
38.3254
47.3889
44.0018
47.825
47.3382
50.4446
49.5619
37.3493
43.2721
41.7833
47.1349
46.0696
49.2431
47.9308
44.2665
46.2404
43.0058
51.3135
51.2618
51.9531
50.8891
41.3464
42.2652
40.7673
50.9768
50.3061
50.5086
49.7952
40.3941
40.4043
39.5507
49.735
48.207
49.6195
47.9765
69.5662
39.3403
39.0842
48.074
51.9235
47.633
47.2583
64.91
39.0273
38.8461
52.5776
52.2576
47.2122
47.0972
49.4319
38.7824
38.778
51.6622
50.7721
47.1658
48.1536
44.6847
38.8721
39.3857
50.6241
49.8052
48.2839
48.2863
42.5959
39.5793
39.9425
49.5018
48.2008
48.2247
47.5911
43.0804
44.8727
42.1497
52.8673
50.8711
51.4011
48.2516
40.6172
41.2325
39.2731
50.3606
49.4147
47.5352
46.5963
39.0848
38.5995
37.299
49.2087
47.8231
46.3086
45.1395
38.1583
36.8512
35.9319
47.3946
46.7848
44.7954
44.3372
37.6263
35.6898
35.205
46.682
46.4506
44.2996
43.9927
37.5226
35.0539
34.7882
46.6212
47.4091
43.9155
43.9554
38.0102
34.7823
34.9558
47.4847
47.5088
44.1329
44.2948
38.7287
34.9873
35.0032
47.4848
47.0197
44.3153
43.8462
56.2246
59.775
58.1961
71.5501
69.1656
73.3685
74.3172
53.1808
57.4634
55.9897
68.2539
68.6343
73.863
73.7912
52.244
55.852
54.8575
69.7496
69.3468
74.2913
77.8782
51.35
54.5853
54.2728
69.2838
70.5924
79.1976
81.6839
50.9339
54.2603
53.9554
71.5049
71.5833
82.1839
81.894
50.216
53.9359
53.7176
71.8221
72.5247
81.3316
78.7543
49.7681
53.5801
52.9865
73.2462
73.2365
78.5294
78.161
48.2271
52.7966
51.4186
73.7007
70.9299
78.2379
76.5366
58.2257
56.2048
57.3212
73.4296
75.0996
71.2155
75.4552
56.38
57.1614
56.7964
74.7314
74.7995
75.5549
76.8273
54.939
56.3081
54.609
75.6161
81.065
78.7538
87.3633
54.5855
54.3702
56.6714
82.8061
85.9255
89.6642
94.9337
54.4409
57.0982
56.4691
86.4405
85.8983
95.9479
95.5566
54.5019
56.3631
56.5785
84.9713
80.8777
93.6006
86.3205
53.7157
56.3771
55.5083
80.0385
79.1774
84.2782
81.7217
51.925
55.1757
53.3459
79.1374
76.9187
81.392
78.4515
57.0127
57.0876
56.9476
70.9526
75.3623
73.7685
75.5967
56.7656
56.6745
56.3116
75.5479
76.9823
75.4747
76.108
54.5624
56.2568
54.7997
78.925
87.5362
76.997
82.5537
56.2349
54.4266
54.237
89.7659
94.8568
84.3207
87.2563
56.4778
54.2519
54.2789
95.9894
96.2121
87.8164
88.2437
56.6974
54.5473
55.064
94.249
86.8848
87.5311
83.5998
55.7011
55.0831
54.7429
84.8027
82.1751
82.6555
81.8185
53.5202
54.5939
53.3082
81.8119
78.5459
81.6748
79.2656
56.9106
56.4884
53.0714
76.0402
75.5089
72.0735
70.0013
55.8739
52.5301
52.3917
75.1507
75.5665
69.3195
71.3062
54.757
52.2704
51.203
75.991
79.7747
71.2517
71.3363
54.1787
50.9334
50.8629
81.1713
83.6448
71.3883
73.764
53.9934
50.8958
50.5343
84.1782
84.6698
74.07
74.6641
54.4143
50.459
50.5708
84.3033
81.7658
74.6733
76.0641
54.1343
50.783
50.7397
81.4891
81.1355
76.3196
76.5673
52.9174
50.7543
49.6907
81.1066
78.9745
76.5542
74.4579
45.4658
38.2272
44.6962
39.7419
41.7792
38.932
49.6016
56.8006
38.9231
60.652
45.5993
44.5582
40.1333
209.726
87.1816
63.7794
78.6048
238.133
56.7828
99.2323
264.051
41.3722
39.0419
39.7826
39.9619
39.0697
39.3318
41.3917
46.7012
40.551
40.2919
48.4486
39.6504
50.7745
45.2405
59.1415
47.348
40.7715
69.4311
40.8592
219.658
48.7668
89.3535
249.243
71.2341
93.2201
100.093
274.791
64.0139
51.8519
39.0447
46.784
39.8018
47.2226
40.2088
50.1129
97.9348
66.2062
81.7873
219.789
67.1215
99.4129
200.652
94.1146
64.3571
79.9141
112.511
67.0531
79.7152
138.163
52.4935
40.9704
41.4266
49.6699
41.0294
52.234
49.8322
52.2392
40.4277
41.278
48.2418
40.915
50.1965
49.5293
96.5653
231.032
72.084
94.3363
98.936
215.771
71.5147
92.4391
111.922
64.8259
88.1929
77.7148
149.547
70.2133
51.5266
91.2039
45.6152
247.968
44.6065
260.886
52.4088
38.1936
37.6795
37.0652
37.4437
37.7742
37.7218
37.0938
38.6526
37.9494
36.6784
36.5527
37.9441
38.8145
36.8241
48.3845
47.3166
80.3977
39.4764
266.522
38.8402
44.5181
53.1807
253.166
107.533
50.3622
266.795
54.3857
48.6405
38.7
37.7239
38.7747
38.1483
38.1023
37.4643
39.2061
39.3451
37.1219
40.2866
38.0474
39.6536
37.295
39.8734
51.0322
99.899
44.9338
146.013
45.7268
208.858
49.5717
38.6304
37.8376
35.5506
36.2664
37.6087
38.776
35.9769
38.4182
37.0784
35.1852
35.4189
37.3547
38.1935
35.6886
54.0537
240.586
109.371
50.8962
227.075
54.41
51.0067
53.0505
137.985
105.571
50.0408
202.309
51.5031
50.9259
39.6569
36.9231
40.4567
37.7096
39.7126
36.718
40.4965
39.5069
36.3168
40.3602
37.5778
39.3389
36.5087
40.4543
164.324
192.351
172.94
104.036
86.2951
104.452
90.2503
158.866
169.08
167.871
77.4965
72.1137
80.7956
74.0846
149.649
163.898
159.713
67.1741
62.7126
67.8632
63.9523
141.845
153.774
147.805
60.4598
57.2412
61.0057
57.8503
130.447
140.775
133.898
54.8092
51.6734
54.8747
52.2887
121.185
126.859
121.666
50.5764
49.1326
50.6404
48.636
112.006
116.287
112.746
48.3316
46.4768
47.4063
46.2905
96.9368
110.018
101.401
45.8871
38.9263
45.4954
39.5292
203.167
217.302
197.385
118.661
107.7
115.149
102.657
160.638
291.897
326.231
181.3
156.496
182.805
292.025
107.981
251.236
253.155
110.824
102.219
116.05
257.614
91.8291
246.924
255.451
91.008
86.1057
95.4692
246.514
81.3997
231.589
228.008
78.6574
76.9798
82.8617
225.316
78.1545
216.739
218.649
75.359
73.688
78.9907
215.104
73.2495
192.003
197.948
70.2304
68.722
74.5829
193.081
70.5562
175.283
181.343
67.0881
66.6126
70.6648
178.98
70.8039
165.431
170.896
66.7362
65.9453
70.8424
168.328
99.3464
110.507
98.7312
42.7093
36.7515
46.1975
41.5096
186.878
191.642
174.34
110.699
96.8093
112.429
99.3276
139.137
259.59
289.451
167.003
141.382
165.835
256.586
98.6189
260.667
250.829
104.908
101.065
102.519
253.409
88.7999
246.422
248.493
93.6482
90.5641
91.6119
241.561
76.994
212.693
213.58
81.0277
77.9319
80.0103
205.765
72.729
190.427
188.795
73.0331
71.8132
73.0328
185.449
71.6286
180.834
180.842
70.6626
70.3218
72.1146
181.039
70.1867
183.944
184.217
69.2867
69.3393
70.4498
184.672
69.3257
180.528
183.926
70.0216
70.0655
69.71
182.488
99.42
115.081
98.8161
45.5305
41.3521
43.7777
38.5987
165.165
183.051
161.878
111.083
99.553
107.525
92.6185
134.097
225.311
260.007
152.603
135.163
151.993
224.272
86.2183
217.995
209.427
92.5495
86.967
91.3534
216.838
81.9788
213.882
220.321
82.3568
81.9887
82.0709
219.434
80.5103
206.442
217.018
79.8902
79.298
81.2777
213.886
77.704
199.74
203.947
78.0521
77.1996
78.6119
201.038
73.2222
194.358
195.322
75.7089
74.2712
74.7791
195.09
70.2969
192.525
194.459
71.7344
71.1533
70.7356
194.508
68.9137
189.008
193.731
69.6675
69.0348
69.2325
192.625
101.582
123.305
109.461
42.9211
36.7982
42.0796
36.5582
157.019
175.723
160.746
105.824
88.8882
105.386
91.3935
124.195
228.049
257.99
141.066
122.839
141.575
231.331
90.9249
216.838
213.892
92.5196
89.4912
93.5909
222.448
87.9926
232.671
230.568
87.8517
87.287
89.0662
227.522
79.7846
209.84
207.599
82.5744
79.9732
81.8359
202.96
75.2208
192.915
191.37
75.2382
74.0338
76.4923
188.5
71.4285
187.418
183.138
71.0189
70.2265
72.5144
181.996
68.3153
187.492
180.641
68.7586
68.2654
69.2134
180.695
66.0014
188.657
181.793
66.9808
66.4994
66.4847
181.846
108.985
113.7
105.141
41.1699
35.3966
41.6682
35.426
145.385
163.195
146.337
88.5212
75.5299
91.9566
77.8255
145.4
148.885
152.03
66.3186
64.1294
74.1992
75.7395
144.589
157.489
153.886
63.8023
62.7458
76.2961
74.9299
136.133
151.213
144.777
60.7009
59.5855
71.9091
70.862
124.921
139.451
130.719
57.7149
55.6368
68.0851
64.92
114.639
125.141
117.99
53.0373