/*--------------------------------*- C++ -*----------------------------------*\
  =========                 |
  \\      /  F ield         | OpenFOAM: The Open Source CFD Toolbox
   \\    /   O peration     | Website:  https://openfoam.org
    \\  /    A nd           | Version:  10
     \\/     M anipulation  |
\*---------------------------------------------------------------------------*/
FoamFile
{
    format      ascii;
    class       surfaceScalarField;
    location    "4.4";
    object      phi_0;
}
// * * * * * * * * * * * * * * * * * * * * * * * * * * * * * * * * * * * * * //

dimensions      [0 3 -1 0 0 0 0];

internalField   nonuniform List<scalar> 
38556
(
-353.486
1927.45
-924.939
296.747
132.367
-782.6
688.83
200.478
-592.561
933.01
-35.6636
-208.516
874.558
14.5374
43.9144
915.823
-39.6963
-1.56893
881.852
-66.1671
100.138
930.568
-98.1297
49.414
936.385
-58.9637
53.1463
956.577
-32.6242
12.4326
948.682
-3.19007
11.0853
955.308
-4.09982
-2.52575
956.558
-4.29354
3.04255
975.231
-22.2696
3.59724
998.517
-32.0676
8.78118
1028.83
-41.0217
10.7082
1057.02
-44.4103
16.2183
1074.18
-45.8579
28.7036
1094.59
-43.8071
23.3977
-30.7197
23.3197
8.50627
1017.73
-1694.59
9.89113
-24.2401
155.223
646.602
-174.793
-261.44
850.305
-99.4036
-139.963
920.845
-87.8745
31.8721
950.737
-71.739
2.15009
758.754
-61.4414
187.257
649.934
-82.9368
93.628
583.754
-75.2728
82.4891
594.316
-71.5324
28.3464
622.154
-59.9461
28.9181
658.147
-55.3591
15.2664
687.328
-51.1362
17.6617
710.347
-46.3642
1.07542
722.397
-40.6612
-3.45661
725.13
-34.1307
-9.62428
718.402
-22.9098
-14.7723
704.587
-17.2304
-14.8128
685.301
0.682259
-25.2032
19.7844
-35.3033
538.585
-876.667
865.854
862.61
3.34811
-351.613
912.978
80.8142
-305.975
1069.12
14.2401
-269.781
1003.67
37.265
-59.696
996.52
-56.5524
-8.03446
810.45
-24.4336
149.062
698.223
-41.2117
70.5025
600.262
-52.2696
74.9572
575.891
-66.9336
19.7732
572.949
-78.6153
21.6112
587.832
-76.089
5.84672
605.011
-78.0147
9.70012
624.595
-66.5073
0.558737
639.101
-55.2181
0.0511184
650.011
-34.5675
-10.4737
655.883
-10.7511
-18.0301
654.338
2.53558
-18.2207
657.441
21.9353
-24.3567
37.724
-20.6777
793.592
951.429
2483.11
531.268
37.6313
228.04
319.414
134.999
157.669
255.342
54.0751
24.2369
233.596
42.3202
16.6902
196.009
-35.0692
16.1039
281.517
-108.283
-1.659
301.195
-73.413
12.5228
380.268
-141.39
10.0469
417.812
-122.7
18.2227
469.513
-152.493
22.1769
504.392
-130.393
19.4241
536.692
-131.077
20.7625
562.946
-104.721
11.9601
588.156
-87.3955
6.96757
608.486
-52.2117
-2.68559
624.756
-16.3473
-10.6742
633.29
3.62498
-9.62335
648.959
24.7986
-18.5316
43.7822
-17.6192
904.901
1839
2590.69
1115.78
-195.953
22.7053
945.686
164.065
141.028
797.87
205.062
-3.17143
591.413
247.7
1.07729
500.036
115.377
-59.0691
463.341
-61.554
-10.033
466.543
-53.6321
-22.9833
491.953
-180.827
14.0265
513.227
-154.902
10.9274
532.734
-202.171
30.1715
546.091
-169.793
26.0437
553.873
-169.627
30.7676
562.91
-135.303
21.5446
569.71
-106.575
12.3799
580.369
-64.3352
1.46483
599.737
-28.7001
-7.01564
616.077
-7.1445
-5.5702
638.026
19.2534
-16.4036
41.6072
-13.9012
557.56
-115.098
-591.777
877.443
62.5825
-578.419
692.713
352.36
-3.56504
599.648
282.958
15.1696
448.901
343.702
54.7445
396.338
187.541
-19.6017
469.304
-130.522
-3.99694
477.13
-48.9143
-12.5439
526.447
-226.452
-3.69124
555.461
-181.998
-1.91771
573.75
-228.655
8.19529
575.426
-184.736
13.2673
564.433
-178.672
20.0376
542.889
-129.697
15.9383
523.155
-96.8142
9.97359
512.234
-52.4949
-0.919327
520.469
-28.3111
-8.62428
536.976
-10.3179
-13.3333
559.113
17.5588
-20.4425
41.299
-17.232
-619.078
-130.418
-955.148
11.1688
532.22
-1099.88
415.017
405.736
-457.225
415.137
285.845
-3.00635
513.071
195.357
50.4105
430.332
232.83
37.4501
502.171
-22.3024
12.8878
-85.3421
-24.3347
-83.2704
527.766
-31.2404
13.0178
-17.9827
-27.2724
-11.0305
574.388
-56.2629
3.92976
-86.9235
-52.0306
-81.7878
593.687
-50.8163
-7.97175
-51.8293
-45.453
-45.2259
605.105
-53.0972
-3.09667
-71.2582
-47.8206
-64.8015
603.925
-44.1505
-8.70801
-50.1159
-38.0055
-42.5756
586.95
-37.4578
0.640613
-49.7129
-31.7959
-43.372
556.673
-25.5094
3.39348
-30.3067
-21.8417
-25.1558
522.869
-77.0057
13.9963
500.676
-37.6544
7.35257
493.324
-23.3386
2.3794
493.159
-8.54788
-1.60495
503.591
19.4104
-12.2835
40.0062
-13.6188
-2161.43
344.825
1198.33
-586.813
108.175
-1150.57
7.08529
-38.2557
-149.906
129.595
29.3991
133.936
471.89
-176.798
29.8591
131.83
8.55307
49.5397
137.76
125.187
130.777
51.2179
14.7834
55.0721
125.48
-17.9573
2.00506
-102.713
127.303
-55.8111
-0.019104
-154.988
162.109
-64.3577
0.974128
-152.19
160.496
-61.024
1.90184
-160.484
161.018
-53.5171
-0.114435
-150.918
156.763
-50.5938
0.59833
-154.765
157.9
-41.8209
1.2276
-150.517
152.527
-29.976
2.4563
551.898
-15.4269
-2.89063
-146.118
-148.34
-133.379
-137.809
-18.2398
-11.9259
-14.7726
538.529
-29.1122
4.82662
522.508
-15.4675
8.1501
510.842
-2.56569
5.68339
504.793
28.5316
-3.07172
41.1739
-7.70998
714.288
658.483
-1542.03
657.207
280.333
-115.077
621.095
-116.656
114.512
692.274
-56.1953
14.4151
150.624
-158.393
66.2866
153.395
150.409
153.155
179.694
-17.6144
-2.9028
4.00208
-52.8286
49.4077
-1.18386
0.602736
-44.0293
16.1702
44.6469
-16.9957
0.208034
-43.6433
16.9492
44.1987
-17.9178
0.41314
-41.9915
14.6569
43.82
-16.684
0.198628
-43.866
11.3857
45.1288
-12.5623
-0.0861142
-42.7709
11.5885
43.8843
-13.1098
0.407934
-42.1576
10.0383
43.4118
-12.1687
0.876167
-41.6418
6.83393
42.6558
-9.22224
1.37429
-41.6288
165.045
-15.8399
1.93047
-43.0931
-40.3992
-41.4417
605.05
-17.5448
20.2366
-158.72
-171.22
-147.988
-158.927
575.061
-6.06283
20.5852
544.56
17.2341
10.7011
528.585
40.712
3.79469
45.1296
-4.12015
-1111.63
493.219
1878.24
-543.502
227.257
-515.051
208.067
-402.594
-465.63
355.611
-271.873
68.1329
98.587
-351.443
127.24
107.904
102.448
112.482
10.8722
129.772
-34.8229
-7.23442
7.07319
-34.2076
35.7093
-10.3321
1.75714
14.3564
-40.1124
41.8547
-15.7115
-0.387227
16.8365
-45.4592
45.7333
-16.5543
-0.556217
17.1678
-43.2504
42.4427
-16.4071
0.0468721
13.9547
-41.6583
41.7481
-14.2099
0.165355
13.8441
-43.2546
44.2121
-15.4109
0.609397
14.807
-47.2665
48.0305
-15.6092
0.0382039
13.3882
-48.896
49.1072
-13.5927
-0.00677859
-50.1648
20.3654
200.517
-25.6777
1.59394
-49.8849
-48.3393
-48.4096
752.822
-19.1078
12.9738
-198.001
-197.222
-181.872
-187.137
689.162
26.8246
30.7721
611.746
57.0867
37.5637
567.6
72.3532
12.5047
58.7773
-3.43561
1840.59
2585.84
1746.02
1319.63
1078.03
-329.803
982.023
-32.1662
-32.8255
981.189
-263.185
-7.85389
180.349
-328.091
175.095
197.049
198.078
207.265
72.8357
177.586
-80.3513
10.2785
15.5393
-40.111
38.6959
-16.0512
1.92702
15.0975
-36.2611
35.8238
-13.8525
-0.807668
16.7401
-35.7695
36.5604
-17.8833
0.352319
18.3165
-40.3974
41.6044
-19.9872
0.463702
18.6209
-44.1406
44.5597
-19.562
0.521996
19.3848
-44.7743
44.3002
-19.4911
0.580335
16.5862
-43.7623
43.8514
-16.6147
-0.060543
12.8715
-44.5687
45.0045
-12.7301
-0.577127
-46.5101
27.9149
188.232
-27.6273
-7.04881
-44.7005
-46.0824
-44.1781
759.83
-28.2171
-27.893
-190.4
-177.946
-183.639
-170.841
742.677
44.851
-0.873398
688.183
92.6207
18.9595
634.691
113.731
12.1144
86.9736
-6.33095
129.982
2023.16
-559.155
570.052
551.445
86.5116
762.92
-376.124
151.09
896.802
-348.367
-48.7009
159.015
-311.686
201.714
158.773
181.526
179.369
65.9714
164.11
-73.1485
2.08197
15.584
-42.0095
43.3481
-17.1199
0.197247
12.8666
-43.218
43.1958
-12.5259
-0.318495
17.9454
-42.3326
41.961
-16.9896
-0.584196
19.9605
-37.7816
36.5146
-19.0181
0.324644
19.9897
-35.6856
35.8334
-20.2722
0.134685
19.166
-35.8427
35.9776
-19.2694
-0.0314273
16.6773
-36.0002
36.3516
-16.6656
-0.363146
12.4986
-37.0797
37.7242
-12.4743
-0.668903
-39.0969
27.0903
159.612
-27.0479
-6.2456
-38.3075
-38.5365
-37.4677
637.022
-16.4026
-41.5269
-160.498
-149.863
-153.752
-143.197
657.953
59.9373
-36.017
652.987
108.765
-11.1787
635.583
136.113
-4.97724
111.304
-14.5232
1530.95
949.415
-2257.22
1441.57
258.786
382.038
1277.53
-67.5196
-144.559
1079.25
-140.767
-9.3171
763.16
-166.099
170.498
138.472
-230.779
49.2136
86.0441
103.236
87.9162
98.5644
149.438
133.416
147.639
14.7878
126.969
-51.6804
8.69035
10.9472
17.1442
11.6131
8.11952
-113.537
108.76
-31.2794
0.372608
9.52625
8.27916
9.75971
18.6603
-128.43
140.945
-77.9684
-3.36204
15.9344
18.2793
15.9418
20.5262
-138.91
141.637
-77.2564
-1.37403
17.806
19.9994
17.5723
22.4495
-147.606
149.431
-81.2687
-2.00697
18.8564
21.7466
18.399
19.8952
-145.07
144.058
-68.9936
-0.852032
16.2397
19.1019
15.6207
17.3112
-144.904
145.171
-58.8424
-1.20136
13.415
16.3518
12.6988
12.293
-142.556
142.026
-39.7217
-0.527684
8.98692
11.2425
8.25726
534.972
-37.8685
-18.6926
23.3755
13.9108
16.2707
7.1026
-140.827
-138.026
-130.426
-129.792
551.734
-7.36829
-25.7962
575.22
65.8747
-29.423
597.22
100.938
-14.1722
609.179
132.311
-8.15735
113.385
-6.41739
-234.467
-278.381
2405.86
629.103
268.022
-872.806
973.066
57.7234
-469.207
1003.59
-46.8524
-124.44
902.936
-128.318
62.875
845.526
-160.098
-13.2715
824.945
-129.085
32.5071
46.2324
14.766
40.9138
15.2468
807.334
-249.059
21.393
48.4079
71.1698
55.2399
70.4591
753.342
-219.221
13.0669
81.8466
54.4256
74.4551
49.4189
702.741
-275.824
16.1856
83.9014
76.1124
78.9276
71.2989
643.553
-209.615
11.9697
79.6241
55.2582
72.8363
49.115
603.535
-208.734
6.08322
71.3646
56.08
64.7977
50.4258
564.318
-142.677
10.627
56.8951
34.6098
49.8304
29.932
533.023
-108.629
11.5662
41.2676
27.5862
34.2503
25.253
521.006
-27.2489
1.39797
515.073
1.14662
-2.58146
531.958
52.5839
-3.59485
553.971
76.9398
1.98575
581.621
109.622
-4.96098
98.2336
-1.45592
1959.5
553.09
992.995
1690.2
578.302
-40.9818
1229.48
373.293
145.151
1204.2
151.032
-172.602
1063.98
72.1855
-60.288
1065.38
-69.8339
-91.6589
1006.62
-76.3855
6.05501
936.516
-172.314
-6.63797
817.308
-133.473
33.4606
721.792
-202.519
22.211
642.373
-144.532
14.3355
589.056
-152.812
-2.60434
554.301
-95.7301
-12.1917
526.172
-70.0075
-10.4926
519.334
-19.7729
-0.637598
519.44
-1.5708
2.61116
533.824
34.6385
3.56161
554.71
46.4562
9.59781
587.961
75.0295
1.3412
72.351
2.31175
1170.45
-1041.01
-2611.66
1939.09
476.781
-667.114
1613.86
466.051
232.469
1569.17
247.22
-51.4917
1368.96
265.855
6.54032
1285.62
74.1248
-60.6209
1076.5
102.401
30.3378
920.052
-60.99
45.1202
737.467
-34.0607
83.1716
620.559
-115.935
30.3244
557.997
-95.4741
13.5043
518.47
-112.73
-0.555116
492.809
-65.897
-4.17261
480.067
-48.657
-8.60796
483.435
-19.2161
-3.92541
500.159
-14.6596
-3.63495
527.538
5.81221
1.44697
554.736
15.7276
3.53064
587.176
43.1521
-0.562384
50.5131
-2.54222
1280.5
-1104.69
-6122.62
278.343
-42.198
1521.13
672.416
-154.127
226.105
700.982
78.0513
140.602
769.096
173.373
24.3683
762.903
73.985
6.33294
655.557
109.73
100.016
575.135
-28.7202
48.1525
518.97
-37.4079
59.5119
497.084
-108.427
14.378
484.951
-101.813
18.4728
468.485
-105.027
8.76338
450.302
-58.85
11.136
433.951
-38.4938
6.18823
431.112
-15.6724
-0.704563
442.099
-20.1831
-5.46422
471.3
-14.2751
-9.11375
503.597
-8.59434
-7.97514
532.542
26.2962
-12.0887
43.0696
-13.0784
3047.14
-541.58
476.264
2627.2
-657.224
1034.97
1815.75
-107.689
765.007
1305.26
200.159
388.387
900.826
290.285
287.521
718.405
111.718
144.687
584.242
143.833
100.061
525.936
16.71
12.8763
516.425
-25.6607
-2.23639
520.192
-86.1633
-26.0308
515.759
-92.714
-4.66695
492.99
-86.9219
4.66447
453.668
-43.7511
24.223
412.17
-15.9452
18.949
393.265
-11.9481
15.1809
403.924
-41.3962
10.5538
441.419
-54.159
2.38873
478.632
-44.3683
-1.43872
506.023
7.94424
-9.03952
38.9883
-14.3439
2579.57
-1217.1
-1371.06
1918.44
-1111.6
1115.51
871.439
-32.7112
972.02
587.765
131.332
352.501
492.097
104.045
281.908
476.227
43.0973
84.491
524.962
43.0399
52.0573
565.162
20.6355
-44.1256
619.614
-39.395
-40.7183
660.461
-79.0342
-47.9756
685.012
-105.754
-11.5113
688.76
-63.0477
-27.6221
669.478
-22.7296
-1.73943
618.697
41.9257
-7.09039
536.055
64.3996
6.29447
485.111
30.1894
-20.6413
482.902
-37.7282
-14.2216
499.047
-61.6776
1.16359
520.472
-10.4928
-2.98755
28.3933
-4.91773
1060.91
-719.937
679.986
-730.674
739.85
-92.5752
1110.31
-239.131
1258.78
-44.4199
1425.79
-123.917
1460.32
8.50667
1511.56
-30.5964
1439.1
33.0615
1339.24
20.8249
1219.22
14.2652
1199.59
-43.4132
1258.24
-81.3849
1324.77
-24.6025
1321.7
67.4684
1220.04
131.851
984.517
197.794
768.775
154.065
676.515
81.7675
47.7593
261.845
802.523
430.388
184.896
274.196
-979.847
442.973
408.349
-1258.99
555.877
46.126
-367.546
578.371
13.7189
7.70098
656.528
-80.1765
0.451421
696.665
-94.2825
154.283
776.71
-110.784
80.1533
811.825
-70.8321
88.8635
848.7
-54.0541
29.6122
856.733
-27.3806
30.433
869.445
-24.7371
9.49868
874.619
-20.173
18.0424
887.398
-24.2849
15.1028
900.001
-24.2329
20.4107
923.153
-31.1095
18.666
949.217
-31.1147
21.2696
975.546
-30.1895
32.5638
1004.37
-25.2216
19.7962
-11.7354
23.6086
-317.587
-504.694
-2009.52
-549.806
-61.0267
722.665
249.285
-181.219
-470.963
313.843
-150.479
-7.91745
457.343
-177.771
79.8627
493.675
-135.126
20.7665
475.357
-92.0757
203.368
468.762
-77.6519
67.0917
470.271
-55.4325
65.5796
491.496
-48.2421
1.30949
519.921
-39.9077
13.0207
548.761
-38.2828
-0.0278932
572.58
-36.1965
9.86676
588.367
-33.5163
-5.48099
596.33
-28.4666
-7.18561
597.165
-23.484
-18.0842
590.976
-13.5775
-26.1215
580.881
-5.31927
-29.5881
567.778
8.56625
-45.8884
19.0118
-56.4406
287.717
-478.231
-497.726
561.71
-237.45
-449.182
642.196
-171.824
-395.856
661.043
-173.976
-265.13
550.351
-98.7153
-28.06
540.874
-106.883
-26.801
481.117
-33.9125
150.655
456.064
-32.8478
50.751
436.242
-35.1252
74.4724
437.415
-42.3999
12.7575
449.601
-54.3844
23.9019
465.374
-52.1155
3.90712
482.085
-54.2868
11.0794
495.828
-45.2417
-1.45956
504.952
-36.3275
-1.21186
507.805
-23.4995
-13.3113
505.959
-7.2737
-22.487
500.483
4.09944
-22.1638
496.248
19.7442
-31.2999
27.4238
-31.7488
630.718
1113.02
3678.01
333.592
-264.165
551.882
239.852
-162.801
242.388
171.935
-171.724
89.9014
173.968
-94.2773
10.2181
145.076
-69.5087
7.62205
219.808
-112.075
1.77112
230.714
-48.2786
17.0475
298.041
-108.175
15.7703
325.726
-74.7754
22.914
372.478
-103.884
24.9243
399.414
-79.4045
19.7773
427.257
-83.3768
22.0099
444.545
-61.2925
10.723
458.584
-49.9894
6.59076
466.7
-29.3036
-4.99724
473.068
-9.56252
-14.754
474.217
6.18218
-12.8549
476.192
22.5572
-23.319
31.4351
-29.2429
789.102
1424.34
1984.36
939.682
-183.003
-209.037
948.28
-55.6646
25.2932
827.401
-45.0117
-9.0042
556.204
90.4598
87.5371
412.547
53.3368
-38.2577
347.905
-80.9307
23.4645
331.326
-43.2863
-11.3964
356.751
-144.109
24.5358
371.533
-91.3685
12.7384
397.688
-134.647
34.7788
412.292
-93.684
25.7196
426.868
-99.6815
32.4959
436.441
-69.1786
19.8577
442.577
-55.5917
11.8464
446.428
-30.3678
-1.32169
453.385
-12.9545
-10.5811
458.389
4.15775
-8.54946
464.191
20.7571
-20.4051
30.1792
-24.2119
2070
-650.423
-2880.05
1268.69
279.384
-239.491
940.363
260.896
8.20005
739.709
142.328
28.4836
433.988
244.316
206.609
308.842
138.106
20.7748
343.484
-154.95
35.381
319.278
-25.5211
-6.10257
357.778
-187.449
1.14778
372.517
-109.13
1.1054
392.761
-158.517
11.8195
399.439
-102.09
14.9955
404.107
-104.969
20.6575
400.119
-61.9601
12.7082
397.195
-51.0715
8.37698
393.728
-26.1695
-1.65075
397.883
-14.588
-11.1453
404.81
-1.66493
-14.4381
411.023
17.809
-23.7077
28.0983
-28.1916
-33.179
-408.757
1251.04
134.429
620.703
-1608.81
387.126
331.075
-780.1
351.277
232.893
-57.7218
408.141
197.073
40.7895
287.283
241.761
54.653
351.714
-26.6697
9.66078
-80.9509
-28.5327
-80.0008
348.911
-18.5851
18.9692
-0.738874
-12.7566
3.4122
393.083
-44.9532
1.86277
-72.4955
-43.4446
-68.6608
404.582
-34.2911
-5.25081
-32.1323
-30.0379
-26.8889
418.518
-38.0762
-0.31818
-53.3283
-34.8501
-48.9767
418.428
-27.1914
-5.964
-29.2429
-23.8399
-24.469
415.014
-23.2217
4.18417
-32.1625
-21.2122
-28.5026
405.324
-15.5453
8.12878
-16.0207
-12.7922
-12.6476
394.632
-40.0681
13.6846
386.237
-18.8858
8.4638
382.293
-11.6815
3.41723
381.688
1.00316
-3.66822
385.758
17.1789
-15.7233
25.338
-24.7584
-2106.25
-710.566
176.261
-663.071
264.847
-2237.89
-213.254
37.8605
-306.51
13.8272
79.6588
60.0892
329.246
-106.07
17.5832
89.3405
34.8627
64.5945
94.7654
78.0197
82.4077
67.0979
40.2228
69.2352
-5.57639
88.8174
-18.9987
-1.57141
2.04409
-70.5716
92.4997
-37.2554
-5.3018
-0.595876
-116.474
119.839
-49.0688
1.34616
-0.397323
-110.088
118.896
-44.2909
1.58834
2.27012
-121.926
122.575
-39.8414
-1.15404
1.47608
-114.64
119.539
-33.8998
0.333544
0.358529
-119.072
120.217
-25.5012
0.776399
-0.48007
-114.654
115.639
-16.515
0.464385
421.678
-6.87418
4.99325
-112.272
-118.296
-102.081
-107.946
-9.67478
-5.14128
-7.3444
411.158
-14.7
11.1612
398.22
-0.0309777
9.43718
391.895
10.1191
2.89211
390.787
21.2826
-6.06733
24.2552
-18.4765
943.899
525.284
-1680.91
547.864
714.608
-168.803
420.514
38.5505
241.172
442.887
43.1143
28.5864
112.148
-122.457
95.3928
116.153
98.8111
103.055
0.262792
137.457
12.6725
-3.38236
-2.92464
3.23252
-41.965
39.2749
0.129347
2.2529
-0.0990092
-36.3843
11.9007
37.0525
-12.587
0.117168
-0.39944
-37.5828
12.8959
38.0339
-13.4784
0.530843
0.274973
-35.6418
11.1032
36.6973
-12.2921
-0.141557
0.195709
-36.0929
9.23319
36.8313
-10.161
-0.00625486
-0.657651
-34.8454
8.29333
35.7864
-9.53552
0.958855
-1.58578
-34.967
6.17217
35.8191
-7.33614
1.89766
-1.9557
-34.5368
4.43179
34.9108
-4.69738
1.84728
-33.9459
-1.41874
132.842
-6.19096
2.99766
-34.8585
-32.7005
-33.5989
465.568
14.1658
28.9014
-126.585
-136.859
-115.931
-123.725
441.442
22.4712
22.2089
423.18
26.0694
13.013
417.715
28.5141
2.02808
25.2808
-13.8806
821.82
2183.27
-1700.51
146.715
679.054
195.608
114.297
-278.69
-115.972
211.489
-151.623
165.678
73.316
-223.832
155.646
80.6521
62.7706
67.7202
14.6424
-7.46646
109.9
-26.3663
-17.3939
-1.2161
3.87638
-34.1115
36.7027
-6.07663
0.825121
-0.0514561
10.055
-38.6442
38.9454
-10.4579
0.153221
0.463089
12.4674
-39.0275
38.7617
-12.3654
-0.299225
-0.395715
12.3751
-37.62
37.4396
-12.2943
0.495333
-0.932131
10.8564
-37.5165
37.7858
-11.259
1.06544
-1.15877
10.4655
-38.9456
39.4872
-11.1051
1.25673
-0.586172
8.68673
-40.6104
40.9487
-9.29482
0.855928
-0.927268
5.03608
-41.3601
41.4969
-5.50836
1.26277
-41.245
-3.65284
3.78302
161.274
-2.93306
4.8887
-41.975
-39.6581
-40.482
569.247
42.7643
25.1079
-156.325
-163.371
-141.909
-148.375
516.263
64.212
42.016
475.878
67.1188
36.8986
453.568
55.1616
8.16759
34.9572
-13.1841
551.604
2642.98
2007.86
748.054
710.931
-558.13
598.333
-209.668
47.8732
560.233
-193.046
71.6689
137.225
-198.008
191.942
140.891
117.924
121.524
-26.9521
53.5354
142.484
-53.9679
22.1255
-8.38133
11.2252
-36.4801
38.1553
-12.7728
8.2537
-1.71696
11.006
-36.7239
35.5914
-10.4253
2.26882
-0.802637
12.5562
-34.1448
34.3427
-12.8901
0.938738
-1.4233
13.1424
-35.759
36.2002
-13.8702
1.70986
-1.18812
13.7488
-37.8215
38.384
-14.1186
0.995414
-0.657686
12.8871
-39.7799
40.1544
-12.991
0.387157
0.463178
9.89134
-40.7846
40.968
-9.83052
-0.707403
1.81733
5.93278
-41.496
41.7582
-5.90146
-2.11089
-42.1429
9.92867
4.60834
167.211
-7.15671
-11.0167
-40.7401
-40.9443
-39.7476
602.407
46.2151
-19.2848
-164.944
-154.572
-151.352
-143.597
564.555
90.9583
10.2319
525.345
100.392
24.8966
493.275
89.4395
9.90728
52.3198
-14.9513
35.5922
1589.43
-1071.44
512.728
458.098
-137.792
362.535
-396.54
488.155
383.462
-223.911
-38.7626
100.496
-231.962
252.431
101.244
81.616
83.3434
-7.37953
45.4974
124.178
-63.9523
2.15315
-3.44069
14.3687
-35.6755
37.6551
-16.3183
3.41074
-1.30837
9.43205
-35.8276
35.2765
-9.3275
1.7549
-0.139598
13.9366
-33.4772
33.1914
-13.8905
0.379291
-0.518831
14.872
-31.7553
31.6363
-14.7273
0.493122
-0.248458
14.5092
-31.3539
31.5101
-14.6002
0.183358
0.582044
12.7048
-31.5741
31.8127
-12.6273
-0.898267
1.65553
9.63665
-32.3114
32.7323
-9.60979
-2.10332
2.5848
5.94022
-33.6238
34.1485
-5.95523
-3.09459
-34.9573
9.94996
8.25103
138.965
-7.34212
-14.083
-33.797
-34.0758
-32.9107
517.076
43.0683
-42.9121
-138.532
-127.257
-128.377
-118.379
512.806
86.637
-27.4254
503.402
100.853
-2.23491
489.027
101.814
-2.97707
66.2018
-22.3717
2019.73
2123.72
-1938.13
1688.07
607.74
564.056
989.35
137.665
19.9528
699.639
-33.7423
90.2244
533.294
-112.367
217.247
97.5574
-218.26
51.359
82.5293
97.9969
81.0326
97.7023
108.442
87.3039
96.8452
13.6492
-19.6429
92.9984
-41.51
18.5755
10.3174
13.1042
10.0656
8.16721
-1.54035
-86.1083
90.8511
-38.7846
0.258569
9.53291
8.19543
9.42808
14.984
3.05137
-105.351
109.069
-60.1378
-2.76043
13.4306
14.5951
13.1189
15.7271
1.07527
-106.26
108.724
-60.4839
-1.78698
14.1547
15.143
13.7067
16.0334
0.931272
-113.691
113.636
-57.5972
-0.98695
13.5314
15.2549
12.8886
13.1415
-0.461153
-110.187
110.343
-45.5147
-0.454092
10.7308
12.2878
10.1132
10.1362
0.13754
-113.053
112.934
-33.5074
-1.1343
7.86114
9.28968
7.33598
5.93396
1.3494
-112.033
112.118
-18.7846
-3.77454
5.23983
5.23924
4.71187
427.159
2.49335
-23.6299
6.7198
-0.668079
2.40884
-5.12721
-112.893
-109.814
-104.316
-101.025
442.002
31.2698
-28.8413
453.709
71.9382
-26.4308
466.301
82.7475
-8.65855
473.692
93.5609
-7.29527
67.8546
-14.6535
1852.33
1782.35
-1102.86
730.136
667.824
189.305
657.075
134.689
-393.17
628.793
-28.7764
-101.124
637.55
-119.359
61.109
586.192
-157.964
-22.2095
592.725
-103.45
43.2191
32.8623
11.8602
29.5646
11.9181
569.461
-218.558
17.1433
56.1924
66.4886
58.221
65.1696
531.661
-171.651
23.8859
62.5621
40.6584
57.7539
37.6583
495.329
-215.125
21.4843
67.25
59.7642
63.3515
55.7927
454.157
-139.456
18.3294
56.4212
35.6425
50.3449
31.8597
425.363
-133.421
9.39263
48.0858
36.0932
42.4848
32.2416
405.499
-59.1428
1.58912
31.4985
17.8038
25.3909
13.3521
393.946
-40.9792
4.56434
19.8773
13.2067
15.7542
10.6961
394.404
9.56344
-6.1299
402.233
24.4782
-3.61824
421.673
53.2682
-4.36494
442.022
61.7869
2.59753
462.385
75.8938
-7.65666
59.7611
-8.97567
655.77
327.634
313.614
416.489
578.743
287.38
718.684
278.457
-300.811
761.909
26.6759
-271.28
695.328
-40.7769
-72.2884
692.931
-143.526
-103.7
680.814
-103.373
18.0948
636.226
-171.02
-9.58737
576.888
-118.999
40.1452
517.41
-156.878
23.4421
462.962
-90.3317
19.6603
422.21
-95.4648
0.190858
399.484
-38.635
-9.97263
383.717
-28.7339
-6.97114
385.46
10.3868
-3.2042
394.805
15.0133
2.73138
414.652
34.9338
2.04904
438.922
38.3027
8.81187
464.564
54.1554
-2.56227
47.8258
-5.96384
641.385
-844.962
-939.215
1113.41
487.323
-1047.72
1123.98
428.675
71.6738
1141.23
138.086
-180.147
973.088
129.418
4.48595
891.078
-57.8651
-64.2712
739.94
18.2179
59.8856
645.825
-85.6763
53.8918
549.566
-33.4358
93.8681
473.504
-81.9525
31.4609
424.919
-46.961
18.7186
390.772
-57.3522
-4.52079
373.303
-24.7307
-0.607704
363.732
-22.5635
-5.20769
367.365
2.87051
-0.0423933
381.351
-3.19584
0.588413
404.684
12.8679
0.179684
429.554
15.1882
1.77525
453.179
34.9534
-4.98476
36.9168
-12.4276
-826.666
-268.473
-3595.13
56.1075
485.077
640.604
570.027
93.3321
47.5289
569.308
146.747
132.66
555.643
120.506
46.9456
512.812
-11.7357
3.03489
450.392
74.3622
106.292
407.544
-40.396
45.7199
384.739
-12.8033
61.6851
367.777
-62.5558
11.9425
362.742
-39.6633
16.2098
351.894
-43.3096
5.56929
344.658
-15.4662
9.10781
335.684
-9.52612
2.1243
336.48
3.86529
-2.49567
344.673
-12.3268
-4.52577
366.659
-10.8781
-7.3538
390.525
-8.21175
-8.4412
409.667
19.9741
-16.2512
30.3169
-24.7389
1229.8
111.794
-1450.66
1452.65
328.672
968.518
1246.08
388.745
676.167
1038.51
324.8
417.903
744.313
346.046
356.181
585.752
131.365
160.148
474.414
166.057
119.704
411.257
28.1287
7.50858
392.459
9.64714
-5.88926
380.314
-48.0335
-28.4078
373.95
-36.7275
-1.23886
358.305
-26.7394
3.73924
339.919
10.4584
16.6843
318.089
22.3093
8.9435
313.316
17.1674
6.65168
324.902
-21.0468
7.68762
355.231
-43.5064
4.68804
382.972
-36.5037
-0.887557
402.475
3.29999
-11.869
25.0335
-26.6224
-663.639
-369.032
-892.573
331.984
-318.95
767.509
380.704
258.843
1053.2
379.788
258.035
420.182
422.215
270.793
314.734
360.17
174.834
103.067
397.238
145.583
35.4631
382.915
78.634
-80.3081
416.441
8.90987
-73.5065
430.902
-35.2987
-75.1714
445.376
-49.1749
-13.5372
438.016
-29.9823
-17.0193
426.966
7.31296
12.4558
409.212
49.4099
-16.4367
394.836
45.8174
-7.9793
388.275
-3.16262
-31.9641
401.159
-62.8305
-7.7818
419.666
-60.1773
6.32923
436.225
-10.3114
-5.93395
19.5032
-13.0707
244.479
-2204.48
208.674
-1013.82
350.157
24.7851
435.593
-66.5321
567.674
94.2918
682.428
-63.8369
795.754
40.7635
872.225
-28.4331
880.213
33.9831
870.998
-5.25845
847.384
-11.2955
843.514
-69.5258
868.31
-98.8677
958.403
-65.2852
1024.35
47.3382
963.765
189.274
806.414
292.315
675.772
224.529
625.459
121.769
72.7966
782.782
-272.354
-1540.02
549.857
294.219
-1041.14
376.726
445.591
-1531.45
403.842
-17.393
-377.268
418.355
-41.9855
35.1737
497.217
-105.075
26.6646
579.766
-89.3659
161.099
673.81
-87.945
74.0535
723.215
-47.1373
86.5963
761.932
-34.8132
25.7081
769.549
-13.0959
35.9114
778.111
-13.8604
14.7968
780.865
-11.0923
26.3816
790.711
-15.5211
20.7771
801.811
-15.0814
24.3919
821.08
-18.6983
18.096
844.024
-16.7364
15.0615
868.613
-12.2477
20.2223
882.041
-1.77867
8.14755
5.21068
13.6332
-1153.81
-1298.42
2793.68
-569.643
-149.964
582.679
9.13746
-111.066
-493.088
86.749
-157.836
54.9143
235.278
-179.341
68.6893
239.595
-117.383
28.7558
302.09
-74.7381
126.246
321.525
-52.2836
11.9955
355.156
-34.0537
18.8651
377.134
-29.5957
-25.8863
407.174
-25.3594
-4.75498
430.617
-25.2072
-12.1245
452.439
-24.9069
1.85977
465.305
-22.4486
-11.4199
472.661
-18.2832
-11.3387
472.716
-13.5787
-23.259
467.286
-5.68759
-31.7409
460.064
1.67782
-36.2915
449.116
11.901
-48.6199
15.261
-65.3757
339.785
-1054.29
1609.61
489.755
-328.133
-420.983
478.379
-153.743
-341.804
428.521
-188.195
-184.913
317.559
-93.1657
-3.27277
287.903
-86.583
-27.9448
291.081
-27.6185
100.357
291.141
-23.7933
22.2001
307.252
-24.6956
49.003
315.388
-27.5071
2.53331
334.531
-38.2785
17.6776
348.006
-34.8924
0.117788
364.353
-37.9834
7.80938
374.035
-29.9498
-3.64058
380.804
-23.7039
-2.56073
380.452
-14.3235
-12.2136
376.303
-4.7638
-19.2616
369.665
4.95977
-18.808
359.881
15.5735
-25.1884
19.4346
-43.3644
-372.08
229.682
3195.42
-163.867
-308.31
323.846
60.0349
-94.4775
-40.7794
67.3141
-170.49
64.9181
84.5352
-86.6001
-13.5685
70.1079
-71.2002
6.66681
159.503
-106.207
-9.03511
167.539
-35.7016
20.9192
221.92
-85.9873
22.6804
237.349
-43.3696
23.3479
276.25
-73.3615
21.1064
294.614
-47.1013
13.6225
318.71
-55.448
15.3787
330.569
-35.8322
4.74661
341.095
-30.6565
3.01676
343.878
-16.5645
-5.53891
344.669
-7.07424
-13.2345
342.289
6.39553
-11.9099
336.802
17.3221
-19.5809
21.8201
-41.7576
788.001
1006.76
2697.63
611.962
-141.196
-200.112
695.486
23.1833
-175.892
533.361
-23.661
6.29105
371.38
88.089
74.8288
256.315
27.2271
-21.6204
241.763
-92.2477
24.058
220.527
-22.4296
-3.43245
250.793
-115.374
23.6559
255.703
-47.2711
11.7297
283.317
-92.798
26.6013
294.629
-48.3944
15.7009
311.635
-61.8668
21.9096
320.254
-34.6825
10.0882
326.868
-31.9088
6.48526
328.537
-16.3025
-3.2529
330.108
-9.46611
-9.75964
330.672
5.66967
-8.3882
328.486
16.3313
-17.2278
20.378
-36.5723
1208.53
-2340.05
-2737.14
633.015
-12.2037
207.032
496.435
240.846
-72.8832
323.571
127.64
50.0462
243.639
200.442
174.188
163.033
98.82
29.7876
238.604
-175.673
43.2358
205.496
12.5929
-8.01757
242.879
-159.436
7.82822
247.265
-56.2966
5.74424
268.379
-114.094
12.0014
275.864
-52.3989
11.5147
287.321
-65.808
13.1425
289.216
-29.2789
5.40995
292.65
-30.3019
3.33611
292.994
-16.2474
-2.05032
293.803
-10.993
-10.4275
296.75
0.0321775
-11.7478
296.009
13.2725
-19.9082
18.4109
-39.7922
1256.74
-2730.4
-739.926
262.879
246.084
-873.234
266.002
265.354
-807.731
198.614
184.588
-47.2811
286.555
162.309
-9.01851
168.097
220.314
51.6172
237.005
-33.6871
-3.09266
-79.9619
-38.4795
-79.6996
219.53
-3.45309
25.2783
10.3359
4.22742
12.6489
262.113
-40.2713
1.28181
-62.303
-39.7272
-59.1363
266.24
-23.0156
7.66255
-16.6903
-21.4457
-12.1857
284.635
-28.7916
1.37177
-40.9943
-26.7542
-37.6392
286.541
-19.3279
2.05562
-15.3356
-15.8787
-11.7823
294.06
-17.7164
5.39424
-21.7519
-15.7176
-19.3508
292.891
-8.2171
8.36696
-7.96451
-6.54014
-5.62649
291.716
-24.3792
8.93696
288.916
-11.6336
6.65013
286.425
-6.93643
1.85196
286.242
1.62106
-5.07434
286.96
11.5243
-14.6938
15.859
-36.667
-649.087
-1195.72
1707.58
-521.224
162.722
-2282.39
-305.727
-8.62403
-248.03
-97.8669
62.5178
-25.7008
197.385
-105.073
-10.2863
52.3925
42.1561
66.7367
54.5892
44.6434
44.5948
67.9829
42.8355
66.3617
2.29286
55.5604
-30.6938
-8.45394
7.01602
-42.4327
58.1276
-22.8526
-3.31146
-0.455895
-79.966
81.2616
-41.2788
0.167746
-0.945186
-73.2577
81.0475
-31.4966
1.6365
1.91234
-87.2123
87.8509
-30.1023
-1.24021
-0.199797
-82.298
85.7217
-22.251
-0.300833
0.139438
-87.9763
87.7827
-16.5969
-1.06538
0.626886
-84.3268
85.2748
-9.16588
-0.626056
310.318
-2.72881
7.84133
-83.56
-89.0094
-73.7285
-78.1503
-5.14845
-1.77448
-3.44569
304.319
-3.41414
8.94052
295.888
5.04287
5.88902
293.935
7.99458
-1.52813
293.185
13.5949
-7.38802
14.7919
-32.4963
164.788
-686.289
-171.944
-9.62105
128.848
39.4794
176.675
-181.947
228.199
200.146
16.7404
50.8925
72.1751
-127.444
45.9307
75.2079
61.7019
62.8951
-0.234339
89.789
23.9677
0.80897
-1.98889
6.01713
-29.5713
27.0087
-2.48332
1.01767
0.388087
-23.8752
10.0717
24.8395
-10.9864
-0.437713
-0.168746
-27.5761
10.3555
28.1418
-10.8868
0.134271
0.171969
-26.2364
8.55017
27.116
-9.55899
-0.0427797
-0.0745653
-27.3988
7.16632
28.0456
-7.93799
0.199409
-1.16753
-26.7532
5.82062
27.4957
-6.70064
1.30501
-1.7444
-27.481
4.38166
27.8538
-4.51556
1.50555
-1.22416
-26.9192
2.53604
27.0844
-2.58918
1.11217
-26.2437
-3.37726
100.664
-0.117289
3.66738
-27.0447
-24.7747
-25.503
339.206
28.1429
24.0217
-94.6181
-100.955
-83.0383
-87.2719
325.238
25.2529
15.9664
317.184
21.078
7.98436
315.319
18.1475
-0.660441
14.7634
-29.0688
-41.8221
258.078
1687.73
-227.819
-132.439
642.892
-162.428
-443.056
79.7465
-7.17578
-146.137
173.303
42.0494
-213.643
95.4174
40.0183
27.666
29.5175
12.9394
-12.5162
69.9733
-22.7719
-5.57496
-1.5375
3.25008
-26.1395
28.7764
-5.58321
1.23372
-0.286844
9.47323
-30.2385
30.2992
-9.52288