/*--------------------------------*- C++ -*----------------------------------*\
  =========                 |
  \\      /  F ield         | OpenFOAM: The Open Source CFD Toolbox
   \\    /   O peration     | Website:  https://openfoam.org
    \\  /    A nd           | Version:  10
     \\/     M anipulation  |
\*---------------------------------------------------------------------------*/
FoamFile
{
    format      ascii;
    class       volScalarField;
    location    "4.4";
    object      turbidity_0;
}
// * * * * * * * * * * * * * * * * * * * * * * * * * * * * * * * * * * * * * //

dimensions      [0 0 0 0 0 0 0];

internalField   nonuniform List<scalar> 
12920
(
-0.0164556
-0.0414475
-0.0538863
-0.0709003
-0.0899923
-0.111472
-0.135417
-0.161561
-0.184764
-0.20566
-0.225292
-0.243801
-0.262014
-0.278966
-0.293579
-0.306107
-0.317218
-0.327755
-0.338472
-0.350121
-0.0386599
-0.0397012
-0.0456023
-0.0561662
-0.0723051
-0.0936469
-0.128006
-0.178576
-0.224463
-0.255518
-0.27516
-0.289413
-0.300548
-0.308275
-0.313191
-0.316469
-0.319803
-0.324205
-0.327741
-0.332237
-0.020916
-0.0274246
-0.0351857
-0.0476309
-0.0691978
-0.0981851
-0.132666
-0.178859
-0.226015
-0.264451
-0.293203
-0.314545
-0.33056
-0.340328
-0.343857
-0.341699
-0.338846
-0.339343
-0.344152
-0.355814
-0.025161
-0.041705
-0.0664446
-0.105899
-0.156094
-0.206301
-0.240171
-0.269708
-0.29089
-0.310347
-0.327603
-0.34578
-0.363402
-0.379623
-0.391252
-0.395342
-0.392686
-0.388985
-0.386848
-0.391941
-0.0252463
-0.046319
-0.0617862
-0.0869521
-0.11996
-0.156947
-0.201581
-0.237328
-0.259488
-0.277505
-0.292711
-0.312685
-0.336208
-0.364585
-0.392902
-0.416081
-0.42885
-0.434625
-0.436779
-0.442966
-0.0290126
-0.0412994
-0.060372
-0.0919906
-0.129869
-0.168609
-0.197039
-0.215097
-0.223373
-0.234725
-0.245095
-0.262051
-0.28503
-0.3198
-0.36161
-0.402712
-0.433915
-0.453899
-0.467604
-0.482815
-0.0335284
-0.0636054
-0.0871704
-0.122638
-0.152819
-0.176201
-0.177485
-0.185102
-0.182694
-0.188088
-0.192387
-0.203502
-0.219477
-0.249856
-0.293103
-0.347584
-0.402798
-0.449824
-0.484295
-0.512095
-0.0609089
-0.0656997
-0.0929858
-0.122003
-0.136323
-0.151097
-0.139864
-0.11973
-0.11545
-0.116577
-0.11907
-0.119317
-0.117767
-0.114713
-0.129035
-0.170358
-0.222314
-0.285557
-0.355383
-0.419796
-0.0257244
-0.0490892
-0.0745759
-0.0938786
-0.111097
-0.106771
-0.105933
-0.0926291
-0.0904224
-0.0951074
-0.0994483
-0.10124
-0.100635
-0.0958732
-0.0914198
-0.115842
-0.153669
-0.203976
-0.26631
-0.32825
-0.0226011
-0.0599643
-0.0785713
-0.0987606
-0.113316
-0.106545
-0.0966368
-0.0882868
-0.0907518
-0.0984009
-0.104965
-0.109536
-0.111934
-0.110019
-0.10637
-0.121246
-0.147189
-0.183464
-0.230679
-0.279032
-0.0178249
-0.0538285
-0.0732729
-0.0869882
-0.1007
-0.0964363
-0.0927574
-0.0956259
-0.103512
-0.111751
-0.119829
-0.127695
-0.130773
-0.126433
-0.116931
-0.118093
-0.142008
-0.170562
-0.206335
-0.244629
-0.0227586
-0.0471428
-0.0602212
-0.0772579
-0.0957412
-0.095267
-0.0983372
-0.0987099
-0.111958
-0.13074
-0.149186
-0.162006
-0.166636
-0.158388
-0.138048
-0.127991
-0.146134
-0.17068
-0.200019
-0.230894
-0.0244809
-0.0387356
-0.052224
-0.0779373
-0.109828
-0.142458
-0.144798
-0.146949
-0.159837
-0.176768
-0.199355
-0.217931
-0.231011
-0.225426
-0.214431
-0.204383
-0.201088
-0.209581
-0.227545
-0.251584
-0.0267304
-0.0306917
-0.0478659
-0.0734193
-0.103957
-0.128126
-0.15209
-0.17177
-0.196198
-0.225333
-0.258098
-0.290933
-0.321029
-0.344936
-0.35493
-0.349889
-0.331673
-0.31928
-0.317715
-0.32944
-0.0233629
-0.039225
-0.0458854
-0.0521526
-0.0676838
-0.0879649
-0.115067
-0.144797
-0.178067
-0.216603
-0.255186
-0.290084
-0.320118
-0.349232
-0.37454
-0.391695
-0.398546
-0.401171
-0.404341
-0.414689
-0.0164811
-0.0293473
-0.0430776
-0.0557103
-0.0698407
-0.0879226
-0.113879
-0.150246
-0.192499
-0.236557
-0.278295
-0.315873
-0.349642
-0.379156
-0.404773
-0.424705
-0.438964
-0.450959
-0.461649
-0.474035
-0.0424227
-0.0486443
-0.0602078
-0.0740622
-0.0910519
-0.116614
-0.146803
-0.182653
-0.215893
-0.244969
-0.280629
-0.322256
-0.366886
-0.40622
-0.436721
-0.457568
-0.472896
-0.4855
-0.497772
-0.512118
-0.0162844
-0.0384244
-0.0590006
-0.0883725
-0.118311
-0.151137
-0.177601
-0.192502
-0.201313
-0.212173
-0.241958
-0.285379
-0.340082
-0.39214
-0.432887
-0.462799
-0.486775
-0.505038
-0.519896
-0.535552
-0.0316354
-0.0497607
-0.0823579
-0.10743
-0.131055
-0.153676
-0.169104
-0.167566
-0.166608
-0.166312
-0.175606
-0.193773
-0.23092
-0.281251
-0.342177
-0.397958
-0.447767
-0.49522
-0.534086
-0.560967
-0.00752638
-0.0290153
-0.0577597
-0.0669388
-0.076342
-0.0829972
-0.0928122
-0.102741
-0.114846
-0.129432
-0.142386
-0.148189
-0.156005
-0.17724
-0.201329
-0.226491
-0.272976
-0.356929
-0.453189
-0.528528
-0.00414823
-0.0077323
-0.0127409
-0.0189248
-0.0330109
-0.0439651
-0.0584231
-0.0607759
-0.0568347
-0.0457987
-0.035502
-0.0267268
-0.0222316
-0.0221368
-0.0261206
-0.0333968
-0.0441076
-0.0569059
-0.0671763
-0.0753937
-0.00647374
-0.00962395
-0.0115275
-0.0179174
-0.0329866
-0.0508262
-0.0740707
-0.0772181
-0.0694495
-0.052654
-0.0415783
-0.0306629
-0.0235679
-0.0169935
-0.0146688
-0.0148435
-0.0167554
-0.0202637
-0.0254193
-0.0324544
-0.00485174
-0.00299009
-0.00459675
-0.00977173
-0.0215881
-0.0366846
-0.0550966
-0.0540837
-0.0506311
-0.0416826
-0.0409107
-0.0367942
-0.0343092
-0.028467
-0.0242197
-0.022392
-0.0233412
-0.0273704
-0.0344605
-0.0452583
-0.0106289
-0.0083422
-0.0114338
-0.0170275
-0.0248495
-0.0333721
-0.0436662
-0.0564335
-0.0684308
-0.0787839
-0.0866016
-0.0866589
-0.0827599
-0.0709151
-0.0569399
-0.0457291
-0.0406149
-0.0413785
-0.04748
-0.0593219
-0.0170165
-0.0136527
-0.0211564
-0.0190285
-0.0193963
-0.0259212
-0.0376833
-0.052339
-0.0688522
-0.0846664
-0.097958
-0.106864
-0.110286
-0.104929
-0.0923763
-0.0780834
-0.0684423
-0.0646986
-0.0667679
-0.0759052
-0.0280405
-0.0160315
-0.0189034
-0.0228643
-0.0249925
-0.0263982
-0.0306059
-0.0352142
-0.0405887
-0.0505137
-0.0624861
-0.0754606
-0.0853392
-0.0876402
-0.0814943
-0.0719016
-0.0653535
-0.0627238
-0.0650203
-0.0734585
-0.0145648
-0.0159086
-0.0212265
-0.0356972
-0.0403988
-0.0399947
-0.0350903
-0.0330691
-0.0302632
-0.0314603
-0.035553
-0.0425356
-0.0522546
-0.0625544
-0.0697392
-0.0720238
-0.0698264
-0.0654435
-0.0652231
-0.0722586
-0.0482612
-0.0105922
-0.0143588
-0.0289095
-0.0284944
-0.0316457
-0.0326008
-0.0277358
-0.025604
-0.0267358
-0.0290928
-0.0323064
-0.0327965
-0.0334088
-0.0372691
-0.0482649
-0.0589127
-0.064431
-0.0690438
-0.0784872
-0.0133081
-0.0273569
-0.0200447
-0.0160521
-0.0212653
-0.0221745
-0.0292288
-0.026978
-0.0203254
-0.02289
-0.032474
-0.0529105
-0.066624
-0.0612833
-0.0375029
-0.0427397
-0.0528303
-0.0623064
-0.0698991
-0.0773674
-0.0409706
-0.0367973
-0.0214507
-0.0249185
-0.0300909
-0.024729
-0.0244829
-0.0172424
-0.0186895
-0.0345853
-0.0520622
-0.0644292
-0.0637065
-0.0659345
-0.0601512
-0.0514763
-0.0611494
-0.0685096
-0.0691442
-0.0679379
-0.0233241
-0.0273201
-0.0247541
-0.0272334
-0.038953
-0.0442031
-0.0549297
-0.0503367
-0.0405323
-0.0522842
-0.0636148
-0.0618842
-0.0478358
-0.0360218
-0.0299234
-0.0369299
-0.0476786
-0.0585299
-0.0627033
-0.0620261
-0.0138598
-0.0189953
-0.0243972
-0.0202856
-0.0312281
-0.0341347
-0.0437151
-0.0432198
-0.0310785
-0.0392209
-0.0478846
-0.0441606
-0.0378913
-0.0335699
-0.0314347
-0.0359822
-0.0428669
-0.0497475
-0.0542613
-0.0569274
-0.00472512
-0.00980309
-0.0182999
-0.0258246
-0.0384722
-0.0318627
-0.0367414
-0.0313275
-0.0281626
-0.0343542
-0.0419359
-0.0505784
-0.0542219
-0.0529981
-0.0505728
-0.0493975
-0.0510425
-0.0542129
-0.0573973
-0.0604331
-0.0101891
-0.00710725
-0.0128438
-0.0162412
-0.02186
-0.0193497
-0.0243545
-0.0252157
-0.0279194
-0.0326744
-0.0396489
-0.0483583
-0.061838
-0.0731835
-0.0745781
-0.0746239
-0.0743193
-0.0743087
-0.0719069
-0.0717608
-0.00508305
-0.00557021
-0.00398185
-0.00415442
-0.00651549
-0.00985048
-0.0160565
-0.0214057
-0.0296038
-0.0350088
-0.0372235
-0.0391084
-0.0421114
-0.0479561
-0.0569519
-0.0675469
-0.0759199
-0.0805516
-0.0781668
-0.075766
-0.00414664
-0.00586084
-0.00772293
-0.0052316
-0.00662611
-0.011643
-0.0238906
-0.0369836
-0.0500516
-0.0538304
-0.0557862
-0.0548115
-0.0542443
-0.0551835
-0.0581928
-0.0614229
-0.0646486
-0.065715
-0.0639195
-0.0629802
-0.00671794
-0.0131202
-0.00689327
-0.0103602
-0.0166242
-0.0293047
-0.0482659
-0.0553381
-0.0620317
-0.0642344
-0.071988
-0.0760367
-0.0767989
-0.0721536
-0.0647325
-0.0577018
-0.052317
-0.048955
-0.0486023
-0.0525341
-0.0106773
-0.0198089
-0.0260782
-0.0368231
-0.0510085
-0.0563363
-0.0507173
-0.0377411
-0.0388011
-0.0467204
-0.062451
-0.0774467
-0.0905332
-0.0895801
-0.0840703
-0.0722511
-0.0599777
-0.0496363
-0.0467558
-0.0501169
-0.0195234
-0.0453228
-0.0397113
-0.0508313
-0.0637175
-0.0511744
-0.0408963
-0.0268035
-0.0230956
-0.0262593
-0.0366851
-0.0521751
-0.0703499
-0.0834004
-0.0929522
-0.096276
-0.0948554
-0.0795874
-0.0623059
-0.0583108
-0.00277117
-0.0161648
-0.0207677
-0.0228697
-0.0309452
-0.0292871
-0.0293081
-0.0285435
-0.0316192
-0.029898
-0.0264053
-0.028447
-0.0382839
-0.0566855
-0.0876132
-0.128864
-0.177692
-0.21482
-0.22945
-0.231352
-0.00128403
-0.00509953
-0.0100465
-0.0165161
-0.0248748
-0.0293498
-0.0336778
-0.0314812
-0.0280295
-0.02301
-0.0184536
-0.0144552
-0.0119059
-0.0109229
-0.0115093
-0.0134181
-0.0164637
-0.0203029
-0.0237955
-0.0274811
-0.00220653
-0.00644299
-0.009704
-0.0152054
-0.0255933
-0.0308942
-0.0355555
-0.0240448
-0.0155575
-0.00985156
-0.00838525
-0.00808405
-0.00879473
-0.0101905
-0.0122937
-0.0150634
-0.0183337
-0.0220527
-0.0260672
-0.0302846
-0.00268663
-0.00272522
-0.00429732
-0.00792604
-0.014046
-0.0170536
-0.0208683
-0.0157665
-0.0138009
-0.0121245
-0.0128283
-0.013085
-0.013988
-0.0152582
-0.0176382
-0.0212476
-0.0259816
-0.0317994
-0.0384527
-0.0459108
-0.00953804
-0.00587381
-0.00798323
-0.0106873
-0.0121588
-0.0139394
-0.0174654
-0.0204471
-0.0248491
-0.0271655
-0.0291205
-0.0281662
-0.0271194
-0.0255356
-0.0258289
-0.028361
-0.0328326
-0.03875
-0.0455906
-0.0526266
-0.0171431
-0.00770801
-0.0106015
-0.00990301
-0.0123589
-0.0161856
-0.0218725
-0.0273441
-0.0333456
-0.0384567
-0.0420922
-0.042792
-0.0412934
-0.0375966
-0.0344971
-0.0337185
-0.0356499
-0.0393879
-0.044285
-0.0495385
-0.0187703
-0.00909377
-0.0113461
-0.0144861
-0.0163062
-0.0163701
-0.0169781
-0.0193955
-0.0216478
-0.026317
-0.0302701
-0.0336314
-0.0347005
-0.0332208
-0.0311717
-0.0302256
-0.0310344
-0.0330887
-0.0361797
-0.0395918
-0.0335108
-0.0108333
-0.0107857
-0.0161869
-0.0169002
-0.0163766
-0.0136741
-0.0143675
-0.0143812
-0.0165696
-0.0189711
-0.0222465
-0.0254664
-0.0281081
-0.0296125
-0.030228
-0.0306908
-0.031542
-0.0333106
-0.0356989
-0.0174561
-0.00545161
-0.0072029
-0.010681
-0.0108611
-0.0124959
-0.0120555
-0.0118347
-0.0117769
-0.0119818
-0.0125984
-0.0139631
-0.016454
-0.0203821
-0.0255704
-0.0297687
-0.0332824
-0.0359276
-0.0387855
-0.0421378
-0.0023852
-0.00408164
-0.00651778
-0.00739649
-0.00885336
-0.00979398
-0.0111006
-0.0101378
-0.0103065
-0.012068
-0.0153565
-0.0176385
-0.0169489
-0.0163344
-0.022267
-0.0307571
-0.0353469
-0.0391107
-0.0423038
-0.0449869
-0.00637448
-0.0127063
-0.00745264
-0.00985724
-0.0102385
-0.00832778
-0.00808336
-0.00748803
-0.00965702
-0.013812
-0.0175972
-0.0197768
-0.0212936
-0.0232772
-0.0245324
-0.0322769
-0.0373484
-0.0393464
-0.039421
-0.0397763
-0.0084581
-0.0095661
-0.00992591
-0.0121706
-0.0149936
-0.0161575
-0.0183814
-0.0140349
-0.0142734
-0.0179029
-0.0182816
-0.0169274
-0.0155944
-0.016658
-0.0208223
-0.0290444
-0.0343612
-0.0374011
-0.0378744
-0.038041
-0.0105281
-0.012229
-0.0143858
-0.00877634
-0.0118192
-0.0117207
-0.0133547
-0.0116456
-0.0110394
-0.0130489
-0.0141657
-0.0139475
-0.0152884
-0.0176925
-0.02149
-0.0286294
-0.0326311
-0.0350746
-0.0364545
-0.0378483
-0.00389282
-0.0055212
-0.00947716
-0.00903308
-0.0120519
-0.00891745
-0.00969189
-0.00924442
-0.0108608
-0.0138499
-0.0167334
-0.0198241
-0.0230537
-0.0260597
-0.0304466
-0.0328225
-0.0349188
-0.0363816
-0.0376952
-0.0394746
-0.0013902
-0.00236592
-0.00417312
-0.00516751
-0.00630917
-0.00654873
-0.0083965
-0.0101512
-0.0127777
-0.0155962
-0.0189793
-0.0225539
-0.0269023
-0.0306318
-0.0328203
-0.0347164
-0.0360399
-0.0368799
-0.0375157
-0.0394846
-0.00084457
-0.00136155
-0.00193845
-0.0027096
-0.00404689
-0.00605114
-0.00824639
-0.0110666
-0.013921
-0.0162704
-0.0171495
-0.0178709
-0.0191791
-0.0211487
-0.0238662
-0.0266813
-0.029214
-0.0310765
-0.0322774
-0.0343407
-0.00346577
-0.00233905
-0.00232915
-0.00294625
-0.00483655
-0.00838819
-0.0131961
-0.0181688
-0.0222548
-0.0234134
-0.023004
-0.0218985
-0.0209595
-0.0204756
-0.0207411
-0.0212675
-0.0224312
-0.0238418
-0.0257993
-0.0285325
-0.00314759
-0.00386592
-0.00429904
-0.006655
-0.0106415
-0.0164552
-0.0237992
-0.0266518
-0.029668
-0.0298707
-0.029868
-0.0279763
-0.0257152
-0.023028
-0.0210792
-0.0201773
-0.0204402
-0.0217661
-0.0239982
-0.0267261
-0.00733172
-0.0111767
-0.0129881
-0.0189682
-0.0256157
-0.0247457
-0.0225991
-0.0211882
-0.0235593
-0.0253785
-0.0276414
-0.027779
-0.0278585
-0.0256638
-0.0244983
-0.0236736
-0.0227798
-0.0225282
-0.0235334
-0.0251185
-0.0178079
-0.02512
-0.0170895
-0.0251555
-0.0263734
-0.0169514
-0.013342
-0.0120596
-0.0146166
-0.0190154
-0.0256239
-0.0309379
-0.035195
-0.0380376
-0.0415717
-0.0445433
-0.0415752
-0.0330274
-0.0258505
-0.0238886
-0.0085726
-0.0101405
-0.0102153
-0.0117851
-0.0150816
-0.0129873
-0.0133784
-0.0132187
-0.0139002
-0.0152222
-0.0213742
-0.0336951
-0.0504697
-0.0711891
-0.0950811
-0.120916
-0.141584
-0.143063
-0.135573
-0.13037
-0.000655294
-0.00352405
-0.00868062
-0.0149491
-0.0196567
-0.0211844
-0.0223278
-0.0207295
-0.0183186
-0.0147841
-0.0115243
-0.00892054
-0.00741795
-0.00687166
-0.00710283
-0.00795288
-0.00946864
-0.0118276
-0.015226
-0.0203784
-0.0076848
-0.00598993
-0.00848429
-0.0107959
-0.0141603
-0.0127035
-0.0118797
-0.00843645
-0.00770553
-0.00788351
-0.00855158
-0.00994809
-0.0119198
-0.014385
-0.0170006
-0.0196605
-0.0221204
-0.0244917
-0.0266944
-0.0288338
-0.00238843
-0.00333311
-0.00478215
-0.00661827
-0.00819804
-0.00808292
-0.00861152
-0.00780521
-0.00834769
-0.00930644
-0.0109492
-0.012965
-0.015484
-0.0183443
-0.0213756
-0.0243012
-0.0269081
-0.0290745
-0.0306682
-0.0315736
-0.0070974
-0.00616458
-0.00665717
-0.00773002
-0.00825685
-0.0086939
-0.0100815
-0.011012
-0.0127972
-0.0139183
-0.0154866
-0.0167697
-0.0185799
-0.020648
-0.0230238
-0.0253688
-0.0274312
-0.0290353
-0.0301283
-0.0306605
-0.00891521
-0.00446459
-0.00587254
-0.00790622
-0.0107126
-0.011776
-0.0134889
-0.0148417
-0.016912
-0.0183094
-0.0195088
-0.0199089
-0.0202849
-0.0206301
-0.0213898
-0.0225192
-0.0237869
-0.02497
-0.0260617
-0.0269948
-0.00377228
-0.00465453
-0.00717038
-0.0101465
-0.0116492
-0.0111789
-0.0109167
-0.0122328
-0.013454
-0.0153854
-0.0167537
-0.017651
-0.0179483
-0.0178661
-0.0179349
-0.0182874
-0.0188675
-0.0195859
-0.0204571
-0.021419
-0.00945626
-0.00588127
-0.00707483
-0.00969948
-0.00967233
-0.00945753
-0.00834622
-0.00965326
-0.0104582
-0.0123962
-0.0139567
-0.015392
-0.0164239
-0.0170056
-0.0172923
-0.0173996
-0.0175622
-0.0179362
-0.0186331
-0.0196302
-0.0132178
-0.00626791
-0.00488435
-0.00669115
-0.0069099
-0.0075979
-0.00726624
-0.00763302
-0.0079285
-0.00903015
-0.0107882
-0.0129928
-0.0151463
-0.0169331
-0.0183646
-0.0192253
-0.0197907
-0.0201123
-0.0206898
-0.0215532
-0.00276672
-0.00274617
-0.00400771
-0.00507649
-0.0054677
-0.00652236
-0.00673489
-0.00667305
-0.00708016
-0.00783729
-0.00879297
-0.0104364
-0.0133301
-0.0167324
-0.0202854
-0.0217429
-0.0224663
-0.0224366
-0.0220569
-0.0217673
-0.00588115
-0.00530571
-0.00436598
-0.00514201
-0.00512362
-0.0050213
-0.00534716
-0.00578947
-0.00686143
-0.00804761
-0.00942743
-0.0110063
-0.013262
-0.0170532
-0.0219041
-0.0229851
-0.0229677
-0.0215201
-0.0198822
-0.0191197
-0.00348253
-0.00391682
-0.00478144
-0.00601721
-0.00635442
-0.00671137
-0.00697808
-0.00722939
-0.00805955
-0.00884764
-0.0100936
-0.0117961
-0.0140602
-0.0170366
-0.0212866
-0.0224639
-0.0229233
-0.0222268
-0.0212771
-0.021052
-0.0139014
-0.00795139
-0.00704277
-0.00497802
-0.00560035
-0.00569491
-0.00583773
-0.00603163
-0.00669585
-0.00777295
-0.00944132
-0.0122806
-0.0152839
-0.0175726
-0.020589
-0.0215848
-0.0220322
-0.0221331
-0.0225141
-0.0232826
-0.00675116
-0.00418261
-0.00451959
-0.00446357
-0.00518266
-0.00527969
-0.00553925
-0.00647947
-0.00772519
-0.009657
-0.0120698
-0.0151864
-0.0180361
-0.0203022
-0.0201289
-0.0210373
-0.0219153
-0.0230097
-0.0243932
-0.0259092
-0.000902299
-0.0022156
-0.00309103
-0.00375037
-0.00447662
-0.00537103
-0.00639173
-0.00765779
-0.0088612
-0.01001
-0.0116519
-0.0132331
-0.0151489
-0.0168291
-0.0184394
-0.0200313
-0.021682
-0.0235039
-0.0254892
-0.0277753
-0.00142876
-0.00168893
-0.00254113
-0.00367302
-0.00484044
-0.00628341
-0.00736617
-0.00871266
-0.0094256
-0.00973785
-0.00998241
-0.0106145
-0.0118449
-0.0133041
-0.015156
-0.0171051
-0.0191644
-0.0212063
-0.0232679
-0.0253641
-0.000647114
-0.00155679
-0.00266316
-0.00419507
-0.00595292
-0.00823111
-0.0101624
-0.0116326
-0.0121378
-0.0115282
-0.0109657
-0.0109499
-0.0114986
-0.0125171
-0.0139269
-0.0155165
-0.0172891
-0.0190923
-0.0209849
-0.0228105
-0.00230335
-0.00489898
-0.00669993
-0.00889133
-0.0105017
-0.0123207
-0.0144583
-0.014556
-0.0144668
-0.0133284
-0.0127135
-0.0123772
-0.0126809
-0.013428
-0.0145399
-0.0158757
-0.0172853
-0.0187542
-0.0203106
-0.0219101
-0.00192549
-0.00554074
-0.00870835
-0.0131112
-0.0151069
-0.0139054
-0.0133248
-0.0126774
-0.0127902
-0.0128232
-0.0130381
-0.0132683
-0.0139271
-0.0145932
-0.0155225
-0.0165578
-0.0172245
-0.0179487
-0.0189974
-0.0203824
-0.00396847
-0.0114061
-0.00989206
-0.012874
-0.0112955
-0.00897344
-0.00941888
-0.0103104
-0.0121917
-0.0143401
-0.0159827
-0.017493
-0.019336
-0.0217407
-0.0248385
-0.0275813
-0.0264152
-0.0236909
-0.0212615
-0.0207166
-0.0068685
-0.00582465
-0.00646846
-0.00773205
-0.00860512
-0.00814742
-0.00836432
-0.00839213
-0.010156
-0.0150661
-0.0234697
-0.0336188
-0.0454778
-0.0605487
-0.0771232
-0.0897516
-0.0930793
-0.0869704
-0.0832732
-0.0840604
-0.000290826
-0.00203324
-0.00743573
-0.0141715
-0.0161481
-0.0155025
-0.0141222
-0.0110045
-0.00855434
-0.0067956
-0.00660752
-0.00759545
-0.00964986
-0.0127516
-0.0168114
-0.0217023
-0.0270437
-0.0323515
-0.0372863
-0.0419247
-0.00407948
-0.00413444
-0.00728018
-0.00786196
-0.00807557
-0.00782447
-0.00811182
-0.00905973
-0.010884
-0.0135115
-0.0162444
-0.0189035
-0.021143
-0.0230682
-0.0246769
-0.0259937
-0.0269674
-0.0274923
-0.0275742
-0.0270931
-0.00284873
-0.00277132
-0.00517327
-0.00626049
-0.00667752
-0.00736273
-0.00852787
-0.0102255
-0.0120743
-0.013925
-0.0153641
-0.0164828
-0.0171947
-0.0176606
-0.017971
-0.0182198
-0.0184499
-0.0185665
-0.0186761
-0.0186707
-0.00774715
-0.00545745
-0.0063116
-0.00708542
-0.00773877
-0.00867186
-0.00979858
-0.0108985
-0.0119989
-0.0129506
-0.0137939
-0.0145263
-0.0152246
-0.0158648
-0.0165625
-0.0172891
-0.0180063
-0.0186579
-0.0192388
-0.0197186
-0.00576241
-0.00472376
-0.0062875
-0.00820733
-0.00893957
-0.00944164
-0.0102843
-0.0110568
-0.0118955
-0.0125614
-0.0132598
-0.0138965
-0.0146775
-0.0154914
-0.0164759
-0.0175382
-0.018647
-0.0197433
-0.0208011
-0.0217023
-0.00221915
-0.00353792
-0.00684357
-0.00897239
-0.00918439
-0.00936141
-0.00969106
-0.0105321
-0.0113263
-0.0120971
-0.0129214
-0.0137615
-0.0147969
-0.0159437
-0.0172513
-0.0185753
-0.0198685
-0.0210796
-0.0221744
-0.0230371
-0.00450678
-0.00459403
-0.00569415
-0.00746415
-0.0075402
-0.00822436
-0.00867359
-0.0100004
-0.0110087
-0.0120181
-0.0130194
-0.0140489
-0.0152155
-0.0164405
-0.0177104
-0.0189705
-0.0201155
-0.021081
-0.0218198
-0.0222882
-0.00317267
-0.00231549
-0.0034004
-0.00530667
-0.00593121
-0.00689716
-0.00713456
-0.00877557
-0.0097753
-0.0110341
-0.0119782
-0.0128825
-0.013675
-0.0146605
-0.0167074
-0.0176784
-0.0184989
-0.0190963
-0.0194331
-0.0195355
-0.0031829
-0.00234833
-0.00309047
-0.00434183
-0.00524233
-0.00616471
-0.00651673
-0.00732356
-0.00852249
-0.0099357
-0.0113284
-0.0123553
-0.0127911
-0.013057
-0.0138449
-0.0155702
-0.0163591
-0.0168605
-0.017119
-0.0171365
-0.00196541
-0.00316797
-0.00341662
-0.0040559
-0.005078
-0.00559848
-0.00627315
-0.00732312
-0.00858658
-0.0100373
-0.0115807
-0.0129766
-0.0135601
-0.013264
-0.0129895
-0.0148467
-0.015676
-0.0163388
-0.0169231
-0.0172607
-0.000209467
-0.00223936
-0.00377783
-0.00477078
-0.00576627
-0.00623675
-0.00679294
-0.00786892
-0.00917044
-0.0106717
-0.0122036
-0.0135471
-0.0140085
-0.0136651
-0.0133532
-0.0153617
-0.0164632
-0.0174575
-0.0184457
-0.0192145
-0.0145513
-0.00451036
-0.00412503
-0.00458611
-0.00534218
-0.00563525
-0.00595895
-0.00674107
-0.00792722
-0.00990606
-0.0121572
-0.0135795
-0.0140033
-0.0138287
-0.0139916
-0.0169519
-0.018218
-0.0194026
-0.020432
-0.0211564
-0.00270783
-0.00199393
-0.00306751
-0.00422207
-0.00491403
-0.00557494
-0.00601775
-0.007482
-0.0089419
-0.0106304
-0.0119641
-0.013048
-0.0138932
-0.0148643
-0.0187843
-0.0202886
-0.0217089
-0.0230737
-0.0242245
-0.0250755
-0.000955004
-0.00202801
-0.00311344
-0.00418907
-0.00493333
-0.00574407
-0.00682571
-0.00823751
-0.0100574
-0.011974
-0.0139474
-0.0158854
-0.0176815
-0.0194995
-0.0212321
-0.0230608
-0.0248555
-0.026751
-0.0286126
-0.0302665
-0.000912749
-0.00192639
-0.0035816
-0.00501322
-0.00579561
-0.00645056
-0.00711784
-0.00826715
-0.00979324
-0.011827
-0.0139834
-0.0162419
-0.0183295
-0.0203832
-0.0222967
-0.0241779
-0.0259687
-0.0276933
-0.0292965
-0.0305327
-0.00484004
-0.00288296
-0.00399381
-0.00559364
-0.00658546
-0.00737208
-0.00810072
-0.00914805
-0.0105493
-0.0125337
-0.014729
-0.0170831
-0.0192797
-0.0214373
-0.0233656
-0.0252029
-0.0267479
-0.0280271
-0.0289073
-0.029336
-0.00674107
-0.00628122
-0.00696579
-0.00774545
-0.00810946
-0.00868289
-0.00939664
-0.0102348
-0.0115073
-0.0132383
-0.015285
-0.0175044
-0.0198255
-0.0221987
-0.024575
-0.0269047
-0.0291258
-0.0311586
-0.0327925
-0.0339881
-0.00346566
-0.00687131
-0.00824842
-0.00936383
-0.00927126
-0.00925161
-0.00978536
-0.0107869
-0.0119403
-0.0133294
-0.0147852
-0.0164312
-0.0182238
-0.0202085
-0.0224086
-0.0248783
-0.0275729
-0.0305472
-0.0336648
-0.0361532
-0.00706029
-0.00749393
-0.00702768
-0.00755966
-0.00758785
-0.00873495
-0.010534
-0.0124482
-0.0141095
-0.0155996
-0.0169263
-0.0186344
-0.0204282
-0.0224233
-0.0244672
-0.0264186
-0.0272056
-0.0276818
-0.0280637
-0.0290285
-0.00104537
-0.00291321
-0.00458045
-0.00504597
-0.00521635
-0.00554243
-0.00728583
-0.0106438
-0.0148615
-0.0195069
-0.0241601
-0.0288953
-0.0342888
-0.0404397
-0.0472931
-0.0517088
-0.0527555
-0.0520271
-0.0533869
-0.0554677
-0.0167164
-0.0183603
-0.0206683
-0.0088207
-0.00967703
-0.0101277
-0.0106148
-0.0194198
-0.0207034
-0.0193401
-0.010012
-0.0111467
-0.0107978
-0.0115878
-0.0186111
-0.0138155
-0.0149106
-0.0101225
-0.0106971
-0.00890322
-0.00976551
-0.0173801
-0.0148257
-0.0139757
-0.0108665
-0.0115367
-0.0100994
-0.0114068
-0.0952896
-0.0967824
-0.0894908
-0.10415
-0.0938789
-0.0931833
-0.0857354
-0.0899331
-0.0883178
-0.0884377
-0.0910131
-0.0863961
-0.0827433
-0.0779658
-0.0937714
-0.0894452
-0.0945002
-0.0865293
-0.0896519
-0.0800763
-0.0911375
-0.0985916
-0.096427
-0.100864
-0.090771
-0.0956664
-0.0944995
-0.101394
-0.101
-0.101888
-0.104566
-0.0977302
-0.103138
-0.102906
-0.106358
-0.101088
-0.10542
-0.107438
-0.104224
-0.104732
-0.107142
-0.107781
-0.0976635
-0.107718
-0.106917
-0.103908
-0.0978962
-0.107335
-0.104504
-0.0885587
-0.105953
-0.100737
-0.0943615
-0.0805521
-0.103216
-0.098579
-0.0890433
-0.0958113
-0.0932536
-0.0932496
-0.0828393
-0.0930034
-0.0896898
-0.0895211
-0.0944705
-0.0996838
-0.0797181
-0.0768343
-0.090745
-0.0967647
-0.0962813
-0.101528
-0.107034
-0.0795927
-0.0923569
-0.0992032
-0.106737
-0.103657
-0.108832
-0.114054
-0.0962007
-0.10442
-0.109149
-0.115739
-0.108483
-0.115813
-0.121033
-0.106269
-0.110127
-0.117658
-0.121689
-0.111689
-0.12255
-0.125196
-0.110832
-0.110639
-0.12208
-0.118591
-0.110996
-0.125314
-0.123371
-0.109746
-0.105415
-0.115281
-0.100454
-0.10483
-0.121961
-0.115818
-0.103778
-0.0991362
-0.0954932
-0.0851573
-0.0938362
-0.0941485
-0.0941536
-0.089753
-0.090734
-0.0899117
-0.0902323
-0.101526
-0.0956805
-0.103602
-0.0928468
-0.100536
-0.0921489
-0.101051
-0.109693
-0.107049
-0.119151
-0.103049
-0.110223
-0.105331
-0.119165
-0.117784
-0.123492
-0.135902
-0.112496
-0.118977
-0.123403
-0.134009
-0.125937
-0.139624
-0.149096
-0.120957
-0.125033
-0.136755
-0.139664
-0.130695
-0.151481
-0.155431
-0.12512
-0.118742
-0.137203
-0.118654
-0.128158
-0.155345
-0.150517
-0.113983
-0.0952044
-0.110083
-0.084365
-0.119416
-0.147505
-0.136278
-0.0890794
-0.0763258
-0.0770369
-0.06136
-0.0971874
-0.122299
-0.125427
-0.0927672
-0.0908587
-0.11781
-0.119449
-0.10788
-0.128791
-0.141141
-0.0928132
-0.104406
-0.122876
-0.133196
-0.125727
-0.146757
-0.157245
-0.109545
-0.125031
-0.138117
-0.148905
-0.145026
-0.163296
-0.177873
-0.129744
-0.141427
-0.154954
-0.168145
-0.159437
-0.184381
-0.195809
-0.14442
-0.147424
-0.173987
-0.182388
-0.166553
-0.200692
-0.20919
-0.14503
-0.127194
-0.185035
-0.183267
-0.16163
-0.211447
-0.208305
-0.118717
-0.0918032
-0.180101
-0.158398
-0.145416
-0.205148
-0.190506
-0.0837846
-0.0653921
-0.148796
-0.120398
-0.0299013
-0.0255765
-0.0227245
-0.0212013
-0.0172137
-0.0170604
-0.0146563
-0.0205903
-0.0197834
-0.0170915
-0.0164276
-0.0163458
-0.0142123
-0.0150115
-0.0218331
-0.0184938
-0.0275687
-0.0168857
-0.0193959
-0.0159273
-0.0192856
-0.0289398
-0.0304908
-0.039841
-0.0203644
-0.0229072
-0.0203601
-0.0230932
-0.0476585
-0.0436328
-0.0557558
-0.0235096
-0.0245341
-0.023851
-0.0256081
-0.0646728
-0.0590609
-0.0653153
-0.0245919
-0.0237676
-0.0260185
-0.0271487
-0.0648694
-0.0667574
-0.0716907
-0.0230761
-0.0206561
-0.0276083
-0.0289299
-0.0460918
-0.0734394
-0.0757847
-0.0199671
-0.020563
-0.0291016
-0.0284868
-0.0193677
-0.0426526
-0.0442902
-0.0165193
-0.0133805
-0.0220488
-0.0189052
-0.0168751
-0.0413051
-0.034783
-0.0131616
-0.0148326
-0.0181616
-0.0190851
-0.0302262
-0.0364073
-0.0482016
-0.0159889
-0.0199187
-0.0201894
-0.0241409
-0.0476333
-0.0529724
-0.066601
-0.021145
-0.0242032
-0.0254371
-0.0286092
-0.0626552
-0.0696071
-0.070907
-0.0249908
-0.0263411
-0.029101
-0.0280282
-0.0643347
-0.0688351
-0.0585159
-0.0264466
-0.0265104
-0.02703
-0.0244067
-0.0644017
-0.0543909
-0.0435644
-0.0266968
-0.0281478
-0.0236124
-0.0222733
-0.0716753
-0.0410757
-0.0383171
-0.0287829
-0.0300586
-0.0223624
-0.0241892
-0.0550151
-0.0459974
-0.0453089
-0.0318195
-0.0237309
-0.0274722
-0.020927
-0.0396577
-0.040653
-0.0303703
-0.0216398
-0.0205784
-0.0194925
-0.0186288
-0.0489156
-0.0299314
-0.036294
-0.0213387
-0.0243502
-0.0190861
-0.0213893
-0.0615646
-0.0395279
-0.048539
-0.0253396
-0.0273987
-0.0222792
-0.0246173
-0.0640671
-0.0501099
-0.047261
-0.0275274
-0.02617
-0.0250821
-0.0242335
-0.0514654
-0.0450719
-0.0387046
-0.0254433
-0.0229924
-0.0233504
-0.0204514
-0.0383686
-0.0369248
-0.0327388
-0.0221729
-0.0205853
-0.0197271
-0.018861
-0.0322674
-0.031722
-0.0299453
-0.0205309
-0.0219555
-0.0189708
-0.0201473
-0.0465503
-0.0435377
-0.0453511
-0.0258977
-0.0206631
-0.0269742
-0.0213385
-0.0322349
-0.0408069
-0.0308861
-0.0193409
-0.0184223
-0.0202161
-0.0201646
-0.03622
-0.0301398
-0.0336959
-0.0188823
-0.0213411
-0.0210819
-0.0240713
-0.0466511
-0.0360643
-0.0408167
-0.0223307
-0.0249872
-0.0257683
-0.029377
-0.0457763
-0.0431232
-0.0471257
-0.0255097
-0.0249143
-0.0307606
-0.0327127
-0.0392894
-0.0482158
-0.0487172
-0.024121
-0.021445
-0.0332275
-0.0330614
-0.0344407
-0.0486962
-0.0472025
-0.0207627
-0.0199391
-0.0327188
-0.0307553
-0.0319151
-0.0467388
-0.0453664
-0.0200476
-0.0210926
-0.0303962
-0.0294654
-0.0103601
-0.00911262
-0.00845718
-0.00978061
-0.0091868
-0.00817681
-0.00784732
-0.0101493
-0.0082466
-0.00883145
-0.00924467
-0.00952021
-0.00787631
-0.00816717
-0.0114233
-0.00946729
-0.0118523
-0.00956168
-0.00959397
-0.00829811
-0.00873982
-0.0145299
-0.0126661
-0.0154296
-0.00960011
-0.00964581
-0.00891668
-0.00961442
-0.017356
-0.0164212
-0.019027
-0.00969469
-0.0101413
-0.00991008
-0.0109462
-0.0173496
-0.019704
-0.021399
-0.0104349
-0.0119803
-0.0113257
-0.0126149
-0.0161996
-0.0218753
-0.0226924
-0.0127604
-0.0157241
-0.013159
-0.0155064
-0.0188632
-0.0227089
-0.0227977
-0.0168724
-0.0201925
-0.0165778
-0.0203641
-0.00754708
-0.0124988
-0.0122135
-0.0070354
-0.0069923
-0.00764094
-0.00751994
-0.0087437
-0.0118002
-0.012648
-0.00710886
-0.00767779
-0.00773055
-0.00868263
-0.0128114
-0.0136315
-0.0172792
-0.00789725
-0.00857657
-0.00900123
-0.00973675
-0.0123148
-0.0147871
-0.0156009
-0.0105458
-0.0167269
-0.011122
-0.0116495
-0.0146625
-0.0183448
-0.0194731
-0.0130304
-0.0199053
-0.0136384
-0.014237
-0.0208269
-0.0187089
-0.017198
-0.0115535
-0.0128836
-0.0119593
-0.0132579
-0.0228519
-0.0169484
-0.0174724
-0.0134117
-0.0155734
-0.0137675
-0.0156877
-0.0241398
-0.0180609
-0.020654
-0.0165636
-0.0202608
-0.0165123
-0.0196523
-0.0152671
-0.0141806
-0.0123266
-0.00938029
-0.008198
-0.00810811
-0.00718949
-0.0135445
-0.0114868
-0.0109836
-0.00828163
-0.00899932
-0.00720738
-0.0076702
-0.0172632
-0.0113556
-0.0131749
-0.00924284
-0.00976461
-0.00789288
-0.00863776
-0.0130431
-0.0187474
-0.0168896
-0.0132373
-0.0177155
-0.0134537
-0.0124978
-0.0132159
-0.0179205
-0.0184989
-0.013821
-0.0181308
-0.0137213
-0.0133974
-0.0157742
-0.0137797
-0.0140648
-0.0119039
-0.0133449
-0.0119702
-0.0138765
-0.0161213
-0.0144365
-0.0160216
-0.013895
-0.0158335
-0.0145191
-0.0163755
-0.0191204
-0.0166333
-0.0185995
-0.0166212
-0.0195329
-0.0170091
-0.0191725
-0.0123841
-0.0121968
-0.0115786
-0.00764828
-0.00678826
-0.00779315
-0.00715621
-0.0108493
-0.0108187
-0.0101361
-0.00682255
-0.00745647
-0.00752901
-0.00873872
-0.0124696
-0.0105582
-0.012215
-0.00774986
-0.0087247
-0.00928712
-0.0107094
-0.014147
-0.0131568
-0.0150482
-0.00909005
-0.0102093
-0.0115686
-0.0134144
-0.0139203
-0.0157275
-0.0170826
-0.0105944
-0.0119775
-0.0140974
-0.0157088
-0.0147883
-0.017799
-0.0197439
-0.0125691
-0.0145517
-0.016496
-0.018433
-0.0170663
-0.0205406
-0.0224743