/*--------------------------------*- C++ -*----------------------------------*\
  =========                 |
  \\      /  F ield         | OpenFOAM: The Open Source CFD Toolbox
   \\    /   O peration     | Website:  https://openfoam.org
    \\  /    A nd           | Version:  10
     \\/     M anipulation  |
\*---------------------------------------------------------------------------*/
FoamFile
{
    format      ascii;
    class       volScalarField;
    location    "4.4";
    object      turbidity;
}
// * * * * * * * * * * * * * * * * * * * * * * * * * * * * * * * * * * * * * //

dimensions      [0 0 0 0 0 0 0];

internalField   nonuniform List<scalar> 
12920
(
-0.0164582
-0.0415106
-0.0538292
-0.0709382
-0.0901314
-0.111573
-0.135457
-0.16162
-0.184867
-0.20579
-0.225408
-0.24393
-0.262155
-0.279139
-0.293793
-0.306352
-0.31748
-0.328018
-0.33872
-0.350342
-0.0386686
-0.0401896
-0.0459122
-0.0564083
-0.0725247
-0.0937545
-0.127849
-0.178285
-0.224341
-0.255647
-0.275433
-0.289753
-0.300923
-0.308691
-0.31362
-0.316876
-0.320168
-0.324548
-0.32803
-0.332445
-0.0215169
-0.027761
-0.0353735
-0.0476993
-0.0691749
-0.098253
-0.132558
-0.178689
-0.225911
-0.264532
-0.293409
-0.314833
-0.330911
-0.340755
-0.344362
-0.342199
-0.339287
-0.339724
-0.344433
-0.355993
-0.0232826
-0.0419216
-0.0666614
-0.10617
-0.156315
-0.206503
-0.240414
-0.269964
-0.291149
-0.310594
-0.327829
-0.346001
-0.363632
-0.379899
-0.391611
-0.395791
-0.393161
-0.389465
-0.387233
-0.392205
-0.023926
-0.0464616
-0.0619729
-0.0869892
-0.11994
-0.156839
-0.201565
-0.237355
-0.259617
-0.277664
-0.292835
-0.31277
-0.336246
-0.364616
-0.392985
-0.416274
-0.429143
-0.435005
-0.437105
-0.443213
-0.0298685
-0.0414693
-0.0605358
-0.0920379
-0.129863
-0.168663
-0.197214
-0.215308
-0.22357
-0.234903
-0.245211
-0.262107
-0.284995
-0.31968
-0.361472
-0.402669
-0.433985
-0.454076
-0.467772
-0.482932
-0.0345739
-0.0631947
-0.0869176
-0.122686
-0.152913
-0.176419
-0.177728
-0.185346
-0.182786
-0.188171
-0.192412
-0.203476
-0.219371
-0.249636
-0.2928
-0.347299
-0.402579
-0.449759
-0.484314
-0.512122
-0.0604081
-0.0653049
-0.0931878
-0.122441
-0.136691
-0.151507
-0.140164
-0.119842
-0.115413
-0.116504
-0.11903
-0.119316
-0.117801
-0.114764
-0.129079
-0.170317
-0.222169
-0.285319
-0.35512
-0.419589
-0.0263489
-0.0491749
-0.0746981
-0.0941221
-0.11134
-0.106967
-0.106168
-0.0927325
-0.0903463
-0.0949932
-0.0993586
-0.101195
-0.10065
-0.0959806
-0.0915832
-0.115954
-0.153669
-0.203844
-0.266112
-0.328075
-0.0235679
-0.0603547
-0.0784731
-0.0990704
-0.113591
-0.106708
-0.0968085
-0.0883384
-0.0907128
-0.0983102
-0.104929
-0.109536
-0.111977
-0.110125
-0.106551
-0.121396
-0.147269
-0.183429
-0.230577
-0.278949
-0.0165231
-0.0528462
-0.0731655
-0.087128
-0.100874
-0.0966195
-0.092826
-0.0954986
-0.10339
-0.111679
-0.119809
-0.127724
-0.130885
-0.126601
-0.117107
-0.118222
-0.142117
-0.170618
-0.206336
-0.244608
-0.0235498
-0.0476978
-0.0604938
-0.0774029
-0.0959866
-0.0954747
-0.0984969
-0.0987136
-0.111891
-0.130692
-0.149239
-0.162146
-0.166891
-0.158742
-0.138411
-0.128268
-0.146303
-0.1708
-0.200098
-0.230927
-0.0251956
-0.0389448
-0.0522075
-0.0777189
-0.109574
-0.142335
-0.144802
-0.146998
-0.159879
-0.176796
-0.199418
-0.218074
-0.231298
-0.225907
-0.215101
-0.204966
-0.201481
-0.209848
-0.227705
-0.251683
-0.02697
-0.0307388
-0.0477789
-0.0731852
-0.103675
-0.127953
-0.152029
-0.171763
-0.196178
-0.225298
-0.258076
-0.290958
-0.321119
-0.345141
-0.35532
-0.350439
-0.33221
-0.31971
-0.317968
-0.329594
-0.0225313
-0.0389641
-0.0461401
-0.0523254
-0.0677103
-0.0878519
-0.114942
-0.144651
-0.177935
-0.216501
-0.255143
-0.290149
-0.32021
-0.349351
-0.374745
-0.391993
-0.398899
-0.401516
-0.404612
-0.414882
-0.0179534
-0.02931
-0.0430408
-0.0557199
-0.0698672
-0.0878092
-0.113665
-0.149949
-0.192173
-0.236358
-0.278214
-0.315907
-0.349742
-0.379301
-0.404985
-0.424983
-0.439276
-0.45127
-0.461917
-0.474253
-0.0418941
-0.0487749
-0.0604737
-0.0742731
-0.0911824
-0.11664
-0.146735
-0.18262
-0.215936
-0.245037
-0.28063
-0.322204
-0.366864
-0.406293
-0.436903
-0.457824
-0.473178
-0.485801
-0.497994
-0.512274
-0.0157845
-0.037732
-0.0584336
-0.0877198
-0.117876
-0.150933
-0.177607
-0.192794
-0.201664
-0.212374
-0.241949
-0.285194
-0.339853
-0.392045
-0.432964
-0.462962
-0.487002
-0.505338
-0.520137
-0.535693
-0.0310525
-0.0488115
-0.081476
-0.107341
-0.131143
-0.153895
-0.169446
-0.167972
-0.166959
-0.166623
-0.175861
-0.193857
-0.230806
-0.280973
-0.341832
-0.397659
-0.447492
-0.495024
-0.53409
-0.561065
-0.00766901
-0.0287748
-0.0577046
-0.0671631
-0.0766777
-0.0832385
-0.0930649
-0.102905
-0.114957
-0.129486
-0.142515
-0.148431
-0.156113
-0.177198
-0.201331
-0.226391
-0.272285
-0.355669
-0.452081
-0.527925
-0.00415746
-0.00767186
-0.0126554
-0.0188526
-0.0329001
-0.0438488
-0.0584151
-0.0608818
-0.0570535
-0.0460333
-0.0357303
-0.0268859
-0.0223292
-0.022155
-0.0260881
-0.033307
-0.0439717
-0.0567832
-0.0670705
-0.0753386
-0.00648392
-0.00983699
-0.0114967
-0.0178624
-0.0328721
-0.0506225
-0.0739954
-0.0773395
-0.0697573
-0.0529274
-0.0418267
-0.0308689
-0.0237562
-0.01709
-0.0147041
-0.0148455
-0.016734
-0.0202215
-0.0253557
-0.032366
-0.00534415
-0.00302344
-0.00460283
-0.00972572
-0.0214369
-0.0364981
-0.0551058
-0.0542765
-0.0509448
-0.0418979
-0.0410867
-0.0369298
-0.0344516
-0.0285757
-0.0242923
-0.0224244
-0.0233357
-0.0273283
-0.0343846
-0.04514
-0.0107178
-0.00861233
-0.0116458
-0.0170603
-0.0248792
-0.0333657
-0.0436351
-0.0564308
-0.0684214
-0.07882
-0.0866832
-0.0868
-0.0829628
-0.0711476
-0.0571615
-0.0458621
-0.0406728
-0.0413699
-0.0474113
-0.059193
-0.0171607
-0.0137397
-0.0211432
-0.01908
-0.0193924
-0.0258393
-0.0375651
-0.0521987
-0.0686979
-0.0845174
-0.0978635
-0.10683
-0.110339
-0.105065
-0.0925563
-0.0782275
-0.0685301
-0.0647308
-0.0667305
-0.075798
-0.0289377
-0.0164848
-0.0188444
-0.02281
-0.0250705
-0.0263857
-0.0305951
-0.0351742
-0.040507
-0.0503863
-0.0623267
-0.0753243
-0.0852559
-0.0876573
-0.0815895
-0.0719854
-0.0654064
-0.0627403
-0.0649879
-0.0733718
-0.0150114
-0.0157636
-0.0210393
-0.0355406
-0.0404162
-0.0400732
-0.0351217
-0.0331211
-0.0302703
-0.0314302
-0.0354819
-0.0424347
-0.0521173
-0.0624336
-0.0697031
-0.0720321
-0.0698666
-0.0654804
-0.0652161
-0.0721932
-0.0488954
-0.0104743
-0.0144036
-0.0291329
-0.0285799
-0.0317801
-0.0326849
-0.02777
-0.0256136
-0.0267302
-0.0290777
-0.0323226
-0.0328301
-0.0334001
-0.0371991
-0.0481718
-0.058841
-0.064408
-0.0690004
-0.0784014
-0.0124991
-0.0269143
-0.0202538
-0.0161255
-0.0213732
-0.022177
-0.0294152
-0.0271616
-0.0203804
-0.022868
-0.0323174
-0.0527126
-0.0666237
-0.0615995
-0.0376943
-0.0427086
-0.0527652
-0.0622461
-0.069841
-0.0772999
-0.0401262
-0.0367199
-0.0214745
-0.0250094
-0.0303065
-0.0248542
-0.0246571
-0.0174172
-0.0186413
-0.0345028
-0.0520611
-0.0644817
-0.0637377
-0.0658097
-0.0600812
-0.0514055
-0.0610801
-0.0685085
-0.0691778
-0.067956
-0.0236215
-0.0271595
-0.0247845
-0.0271689
-0.0389776
-0.0442102
-0.054982
-0.0506237
-0.0404727
-0.0521336
-0.0635116
-0.061951
-0.0479433
-0.0361082
-0.0298817
-0.03683
-0.0475533
-0.0584505
-0.0626956
-0.0620365
-0.0144595
-0.0190847
-0.0243744
-0.0203407
-0.0314224
-0.0341606
-0.0437547
-0.0435167
-0.031188
-0.0391532
-0.0478338
-0.0442332
-0.0379721
-0.0336208
-0.031432
-0.0359285
-0.0427906
-0.0496856
-0.0542244
-0.0568974
-0.00478852
-0.0098641
-0.0180151
-0.0256485
-0.038458
-0.0319719
-0.0369467
-0.0314152
-0.0281406
-0.0342627
-0.0418217
-0.050533
-0.0542574
-0.053085
-0.0506055
-0.0493909
-0.0510049
-0.0541692
-0.0573549
-0.0603969
-0.0104837
-0.00724475
-0.0126811
-0.0161474
-0.0218269
-0.0193409
-0.0243433
-0.0252424
-0.0279266
-0.0326846
-0.0396047
-0.0482618
-0.061727
-0.0731171
-0.0745613
-0.0746113
-0.07429
-0.0742963
-0.0718999
-0.0717533
-0.00545186
-0.005583
-0.0040974
-0.00414855
-0.00647213
-0.00979635
-0.0159877
-0.0213831
-0.0296383
-0.0350808
-0.0372932
-0.0391223
-0.0420891
-0.0479033
-0.056871
-0.0674747
-0.0758771
-0.0805731
-0.0781874
-0.0758063
-0.00405766
-0.0057573
-0.00780716
-0.00528511
-0.00660935
-0.0115622
-0.0237216
-0.0369033
-0.0501039
-0.0539129
-0.0558451
-0.0548484
-0.0542624
-0.0551812
-0.0581682
-0.0613971
-0.0646523
-0.0657588
-0.0639541
-0.0630144
-0.00644088
-0.0141269
-0.00712927
-0.0104728
-0.0165508
-0.029176
-0.0482139
-0.0553714
-0.0621327
-0.0642431
-0.0719831
-0.0760457
-0.0768553
-0.0722325
-0.0647914
-0.0577594
-0.0523616
-0.0489854
-0.0486086
-0.0525084
-0.0107459
-0.0199037
-0.026348
-0.0368728
-0.051002
-0.0565059
-0.0510376
-0.0379335
-0.0387892
-0.046612
-0.0622842
-0.0773165
-0.0905351
-0.0896953
-0.0842168
-0.0724379
-0.0601423
-0.0497524
-0.0467775
-0.0500885
-0.0193494
-0.0451044
-0.0404584
-0.0510485
-0.0638973
-0.0514966
-0.0411536
-0.0269202
-0.0231195
-0.0262205
-0.0365653
-0.0519908
-0.070166
-0.0832577
-0.0928853
-0.0962161
-0.0949678
-0.0799233
-0.0625048
-0.0583542
-0.00306378
-0.0159622
-0.0208141
-0.0229682
-0.0310279
-0.0293656
-0.0293536
-0.0285469
-0.0316131
-0.0299701
-0.0265022
-0.0284177
-0.0381315
-0.0563846
-0.0871371
-0.128223
-0.177063
-0.214606
-0.229598
-0.231543
-0.00137259
-0.00501851
-0.00995314
-0.016456
-0.0248083
-0.0293161
-0.0337139
-0.0315423
-0.0281165
-0.0230894
-0.018533
-0.0145199
-0.0119504
-0.0109424
-0.0115059
-0.0133941
-0.0164236
-0.0202588
-0.0237486
-0.0274361
-0.00225927
-0.00652459
-0.00968584
-0.0151807
-0.0255471
-0.0308435
-0.0356632
-0.0241836
-0.0156856
-0.00989891
-0.00840875
-0.00809064
-0.00879414
-0.0101804
-0.0122758
-0.0150391
-0.0183037
-0.0220168
-0.0260274
-0.0302408
-0.00277447
-0.00274627
-0.00429826
-0.00789994
-0.0139893
-0.0170227
-0.0209455
-0.0158443
-0.0138775
-0.0121563
-0.0128527
-0.0130986
-0.0139975
-0.0152556
-0.0176234
-0.0212206
-0.0259431
-0.0317496
-0.0383914
-0.0458335
-0.00974411
-0.00593157
-0.00800964
-0.0106937
-0.0121649
-0.0139428
-0.0174772
-0.0204583
-0.0248659
-0.0271936
-0.0291624
-0.0282138
-0.0271695
-0.0255676
-0.0258374
-0.0283438
-0.0327975
-0.0387018
-0.0455303
-0.0525527
-0.0166174
-0.00780314
-0.010568
-0.00992063
-0.0123452
-0.0161547
-0.0218367
-0.0273056
-0.0333032
-0.038426
-0.0420853
-0.0428105
-0.0413387
-0.0376458
-0.0345304
-0.0337221
-0.0356324
-0.039358
-0.0442433
-0.0494857
-0.0195069
-0.00932206
-0.011314
-0.0144601
-0.0163275
-0.0163734
-0.0169725
-0.0193784
-0.0216121
-0.0262777
-0.0302268
-0.0336094
-0.0347009
-0.0332407
-0.0311924
-0.0302313
-0.0310267
-0.0330724
-0.0361558
-0.03956
-0.0326622
-0.0112898
-0.0107293
-0.0161485
-0.0169112
-0.0164047
-0.0136771
-0.0143718
-0.0143685
-0.0165472
-0.0189373
-0.0222132
-0.0254347
-0.0280898
-0.0296107
-0.0302308
-0.0306915
-0.0315358
-0.033296
-0.035675
-0.0166314
-0.00551448
-0.00721927
-0.0107091
-0.0108663
-0.0125271
-0.0120611
-0.0118318
-0.0117778
-0.0119836
-0.0125944
-0.0139502
-0.016426
-0.0203425
-0.0255378
-0.0297426
-0.033263
-0.035912
-0.0387633
-0.0421026
-0.00235191
-0.00408099
-0.00658847
-0.00740434
-0.00887538
-0.00979472
-0.0111363
-0.0101405
-0.0102983
-0.0120447
-0.0153316
-0.0176516
-0.016995
-0.0163434
-0.0222117
-0.0307202
-0.0353189
-0.0390889
-0.0422808
-0.0449559
-0.00593933
-0.01271
-0.00748144
-0.00990761
-0.0103245
-0.00835794
-0.00811561
-0.00750158
-0.0096362
-0.013803
-0.0175932
-0.0197738
-0.0212725
-0.023266
-0.0244992
-0.0322248
-0.0373218
-0.0393514
-0.0394265
-0.0397654
-0.00816409
-0.00946299
-0.00995135
-0.0121564
-0.0150476
-0.0161861
-0.0184689
-0.0141023
-0.0142428
-0.0178753
-0.0182552
-0.0169304
-0.0155932
-0.0166291
-0.0207756
-0.0289903
-0.034317
-0.0373865
-0.0378763
-0.0380321
-0.0103632
-0.0121825
-0.0144134
-0.00879177
-0.011905
-0.0117385
-0.013407
-0.0117038
-0.0110386
-0.0130301
-0.0141653
-0.0139542
-0.0152795
-0.0176733
-0.0214631
-0.0285888
-0.032597
-0.0350572
-0.0364437
-0.0378276
-0.00382423
-0.00550648
-0.00937731
-0.00905098
-0.0121116
-0.00895187
-0.00973309
-0.009248
-0.0108506
-0.0138331
-0.0167189
-0.0198126
-0.0230399
-0.0260409
-0.0304244
-0.0327966
-0.0348956
-0.0363678
-0.0376813
-0.0394525
-0.00140005
-0.00236467
-0.00414241
-0.00515088
-0.00630624
-0.00654363
-0.00839119
-0.0101433
-0.0127637
-0.0155813
-0.0189545
-0.0225205
-0.0268664
-0.0306048
-0.0328031
-0.0347015
-0.0360288
-0.0368777
-0.0375091
-0.0394658
-0.000835384
-0.00136248
-0.00193437
-0.00270333
-0.00403184
-0.00603782
-0.00823857
-0.0110639
-0.0139242
-0.0162783
-0.0171581
-0.0178715
-0.0191692
-0.0211336
-0.0238491
-0.0266677
-0.0292062
-0.0310794
-0.0322731
-0.0343274
-0.00331713
-0.0023262
-0.00233301
-0.00293843
-0.00480434
-0.00835307
-0.0131478
-0.0181488
-0.0222684
-0.0234328
-0.0230244
-0.0219118
-0.0209665
-0.0204791
-0.02074
-0.0212661
-0.0224291
-0.0238393
-0.0257889
-0.0285141
-0.00321859
-0.00398325
-0.00432423
-0.00664607
-0.010606
-0.0164145
-0.0237861
-0.0266525
-0.0296834
-0.0298737
-0.0298794
-0.0279948
-0.0257378
-0.0230472
-0.0210915
-0.0201841
-0.0204394
-0.0217575
-0.0239822
-0.0267049
-0.00728672
-0.0112515
-0.0131163
-0.0189905
-0.0256664
-0.0248588
-0.0226889
-0.0212053
-0.0235392
-0.025354
-0.027624
-0.0277828
-0.0278786
-0.025689
-0.0245137
-0.0236969
-0.0228051
-0.0225379
-0.0235254
-0.025105
-0.0179498
-0.0251839
-0.0175202
-0.0253127
-0.0266015
-0.0171068
-0.0134127
-0.0120695
-0.0145951
-0.0189719
-0.0255694
-0.030896
-0.0351687
-0.0380063
-0.0415401
-0.0445688
-0.0417177
-0.0332064
-0.0259257
-0.0239056
-0.00840976
-0.0101571
-0.0102281
-0.0118465
-0.0151513
-0.0130211
-0.0133874
-0.0132183
-0.0139015
-0.0152034
-0.0212926
-0.0335461
-0.0502643
-0.0709239
-0.0947822
-0.120636
-0.14155
-0.143367
-0.135894
-0.130562
-0.000643087
-0.00338912
-0.0085105
-0.0148936
-0.0196301
-0.0211689
-0.0223459
-0.0207517
-0.0183613
-0.0148317
-0.0115715
-0.00895632
-0.00744056
-0.00688169
-0.00710286
-0.00794394
-0.00944914
-0.0117968
-0.0151775
-0.0203076
-0.00797002
-0.00601746
-0.00848935
-0.0107998
-0.0141532
-0.0127054
-0.0119386
-0.00845446
-0.00771267
-0.00788559
-0.00855042
-0.00994205
-0.0119086
-0.0143709
-0.016985
-0.0196446
-0.0221051
-0.0244748
-0.0266763
-0.0288145
-0.00248563
-0.00334549
-0.00477963
-0.00661298
-0.00819151
-0.00808418
-0.00863641
-0.00781446
-0.0083541
-0.00930545
-0.010946
-0.0129575
-0.015473
-0.0183299
-0.0213594
-0.0242841
-0.0268918
-0.0290599
-0.0306548
-0.0315612
-0.00695027
-0.00615819
-0.00665739
-0.00773563
-0.00826291
-0.00870176
-0.0100903
-0.0110174
-0.0128078
-0.0139248
-0.0154922
-0.0167699
-0.018576
-0.0206384
-0.0230112
-0.0253553
-0.0274187
-0.0290254
-0.0301196
-0.0306535
-0.00939129
-0.0045157
-0.00586244
-0.00789619
-0.0106999
-0.0117703
-0.0134822
-0.014835
-0.0169069
-0.0183072
-0.0195115
-0.0199131
-0.0202899
-0.0206306
-0.0213858
-0.0225118
-0.0237789
-0.0249634
-0.0260557
-0.0269898
-0.00382515
-0.00466713
-0.00716364
-0.0101434
-0.0116649
-0.0111811
-0.0109121
-0.0122275
-0.0134433
-0.0153771
-0.0167463
-0.0176495
-0.0179497
-0.017868
-0.0179351
-0.0182854
-0.0188644
-0.0195826
-0.0204544
-0.0214168
-0.00955236
-0.005982
-0.00704851
-0.00968471
-0.00967417
-0.00946542
-0.00834224
-0.00965171
-0.0104481
-0.0123864
-0.0139455
-0.015384
-0.016419
-0.0170039
-0.0172937
-0.0174009
-0.0175625
-0.0179349
-0.0186307
-0.0196273
-0.0134764
-0.00644509
-0.00489174
-0.00669204
-0.00690699
-0.00760754
-0.00726693
-0.00763258
-0.00792502
-0.00902036
-0.0107743
-0.0129771
-0.0151336
-0.0169243
-0.01836
-0.0192232
-0.0197899
-0.0201113
-0.020687
-0.0215494
-0.00276611
-0.0027686
-0.00401971
-0.00507898
-0.00546922
-0.00652219
-0.00674262
-0.00666926
-0.0070767
-0.00783296
-0.00878704
-0.0104222
-0.0133064
-0.0167109
-0.0202714
-0.0217391
-0.0224667
-0.0224399
-0.0220587
-0.0217687
-0.00599601
-0.00535167
-0.00437593
-0.00516073
-0.00513786
-0.00502658
-0.00534992
-0.00578737
-0.00685708
-0.0080424
-0.00941959
-0.0109957
-0.013241
-0.0170187
-0.0218797
-0.0229814
-0.0229772
-0.021537
-0.0198925
-0.0191248
-0.00365137
-0.00389411
-0.00479347
-0.00601549
-0.0063682
-0.00671823
-0.00699004
-0.00722676
-0.00805073
-0.00883679
-0.0100828
-0.0117801
-0.014042
-0.0170113
-0.02126
-0.0224548
-0.0229241
-0.0222366
-0.0212833
-0.0210532
-0.0141368
-0.00790882
-0.00707288
-0.00497981
-0.00561812
-0.00570215
-0.00584406
-0.0060312
-0.00669188
-0.0077682
-0.00943355
-0.0122654
-0.0152701
-0.0175578
-0.0205691
-0.0215772
-0.0220305
-0.0221337
-0.0225112
-0.0232775
-0.00671716
-0.00423107
-0.00451889
-0.00446813
-0.00519423
-0.00528169
-0.00554082
-0.00647862
-0.00772114
-0.00964672
-0.0120532
-0.0151658
-0.0180164
-0.0202864
-0.0201224
-0.0210327
-0.0219105
-0.0230032
-0.0243843
-0.0259003
-0.000848753
-0.00218944
-0.00307848
-0.00374518
-0.00447349
-0.00536759
-0.00638845
-0.00765429
-0.00885632
-0.0100039
-0.0116414
-0.0132206
-0.0151371
-0.0168189
-0.0184314
-0.020023
-0.0216733
-0.023495
-0.025478
-0.0277633
-0.00144738
-0.00168904
-0.00253576
-0.00366487
-0.00483376
-0.00628023
-0.00736555
-0.00871344
-0.00942861
-0.00974217
-0.00998381
-0.0106119
-0.0118388
-0.0132964
-0.015147
-0.0170958
-0.0191549
-0.0211975
-0.0232584
-0.025355
-0.000656467
-0.00154534
-0.00264115
-0.00417632
-0.00593076
-0.0082175
-0.01015
-0.0116319
-0.0121491
-0.0115399
-0.0109741
-0.010952
-0.0114964
-0.0125126
-0.0139201
-0.015509
-0.0172805
-0.019083
-0.0209765
-0.0228031
-0.00238393
-0.00488522
-0.00670537
-0.00888455
-0.0104942
-0.0123143
-0.0144578
-0.0145618
-0.0144773
-0.0133371
-0.0127198
-0.0123803
-0.0126802
-0.0134249
-0.0145349
-0.0158697
-0.0172784
-0.0187463
-0.0203052
-0.0219054
-0.0018088
-0.00550124
-0.00867335
-0.0130799
-0.0151384
-0.0139448
-0.0133471
-0.012682
-0.0127896
-0.0128243
-0.0130377
-0.0132682
-0.0139252
-0.0145904
-0.0155187
-0.0165601
-0.0172296
-0.0179487
-0.018995
-0.0203799
-0.00399917
-0.01149
-0.00995036
-0.0129566
-0.0113726
-0.00900036
-0.00942568
-0.0103054
-0.0121798
-0.0143278
-0.0159766
-0.0174846
-0.019326
-0.0217257
-0.0248227
-0.0276242
-0.026501
-0.023765
-0.0212962
-0.0207286
-0.00655558
-0.00579673
-0.00646066
-0.00774654
-0.00862682
-0.00815432
-0.0083683
-0.00839273
-0.0101394
-0.0150182
-0.0233962
-0.0335348
-0.0453686
-0.0604163
-0.0770208
-0.0897596
-0.0932729
-0.08722
-0.0834185
-0.084115
-0.000321609
-0.00194338
-0.00721927
-0.0141153
-0.0161441
-0.0155044
-0.0141429
-0.011028
-0.00857912
-0.0068085
-0.00661125
-0.00758933
-0.00963486
-0.0127277
-0.0167784
-0.0216633
-0.0270026
-0.0323105
-0.0372494
-0.0418918
-0.00422193
-0.00418074
-0.00728524
-0.00786388
-0.00807809
-0.00782508
-0.00811675
-0.00906012
-0.0108811
-0.0135049
-0.0162357
-0.0188951
-0.0211348
-0.0230603
-0.0246692
-0.0259873
-0.0269635
-0.027492
-0.0275771
-0.0270984
-0.00325791
-0.00279154
-0.00517832
-0.00626302
-0.00667942
-0.00736526
-0.0085288
-0.0102248
-0.0120709
-0.0139216
-0.01536
-0.0164795
-0.0171921
-0.0176589
-0.0179698
-0.018219
-0.0184493
-0.0185664
-0.0186763
-0.0186711
-0.0079996
-0.00546201
-0.00631467
-0.00709216
-0.00774376
-0.00867539
-0.0098004
-0.0108992
-0.011999
-0.0129501
-0.0137931
-0.0145253
-0.0152237
-0.0158636
-0.0165611
-0.0172875
-0.0180048
-0.0186566
-0.0192377
-0.0197178
-0.00571126
-0.00473481
-0.00627581
-0.00820239
-0.00893861
-0.00944072
-0.0102835
-0.0110559
-0.0118957
-0.0125613
-0.0132604
-0.0138965
-0.0146775
-0.0154904
-0.0164744
-0.0175361
-0.0186449
-0.0197411
-0.020799
-0.0217006
-0.00215364
-0.00352237
-0.00683134
-0.0089703
-0.00918669
-0.00936114
-0.00968818
-0.0105314
-0.011326
-0.0120966
-0.0129212
-0.0137609
-0.0147961
-0.015942
-0.0172492
-0.0185729
-0.0198662
-0.0210773
-0.0221723
-0.0230356
-0.00451089
-0.00458678
-0.00568349
-0.00745471
-0.00753933
-0.00822353
-0.00866974
-0.00999909
-0.0110069
-0.0120167
-0.0130179
-0.0140472
-0.0152135
-0.016438
-0.0177074
-0.0189676
-0.0201128
-0.0210789
-0.0218182
-0.0222874
-0.00316586
-0.00234358
-0.00341446
-0.00530982
-0.00593062
-0.00689973
-0.00713267
-0.00877574
-0.00977028
-0.0110301
-0.0119744
-0.0128795
-0.0136713
-0.014657
-0.0167046
-0.0176759
-0.0184969
-0.0190947
-0.0194322
-0.0195354
-0.00315171
-0.00235517
-0.00309264
-0.0043418
-0.00524089
-0.00616405
-0.00651616
-0.00731921
-0.00851637
-0.00992928
-0.0113233
-0.0123532
-0.012791
-0.0130573
-0.0138425
-0.0155688
-0.016358
-0.0168598
-0.0171185
-0.0171366
-0.00204444
-0.00316577
-0.00342381
-0.00406421
-0.00508294
-0.00559821
-0.00626907
-0.00731876
-0.00858227
-0.0100323
-0.0115747
-0.0129714
-0.0135594
-0.0132663
-0.0129888
-0.014846
-0.0156763
-0.0163383
-0.0169218
-0.01726
-0.000201872
-0.00216936
-0.00376114
-0.00476652
-0.00576168
-0.00623233
-0.00678701
-0.00786124
-0.00916119
-0.0106627
-0.0121956
-0.0135422
-0.0140066
-0.0136658
-0.0133518
-0.015359
-0.0164614
-0.0174558
-0.0184433
-0.0192127
-0.0142276
-0.00450031
-0.00412231
-0.0045874
-0.00534072
-0.00563335
-0.00595417
-0.00673537
-0.00792071
-0.00989631
-0.0121474
-0.0135736
-0.0140008
-0.0138293
-0.01399
-0.0169489
-0.0182145
-0.0193995
-0.0204292
-0.0211547
-0.00287827
-0.00201285
-0.00305492
-0.0042162
-0.00491126
-0.00557299
-0.00601539
-0.00747995
-0.00893784
-0.0106267
-0.0119614
-0.013047
-0.0138927
-0.0148629
-0.0187809
-0.0202854
-0.0217047
-0.0230701
-0.0242208
-0.0250734
-0.000920457
-0.00200228
-0.00309677
-0.00418388
-0.00493162
-0.0057421
-0.00682212
-0.00823198
-0.0100508
-0.011967
-0.0139413
-0.0158801
-0.0176768
-0.0194953
-0.0212278
-0.0230563
-0.0248504
-0.0267454
-0.0286065
-0.0302619
-0.000879936
-0.00190896
-0.0035657
-0.00500688
-0.00579356
-0.00645094
-0.00711713
-0.00826512
-0.00978906
-0.0118214
-0.0139772
-0.016236
-0.0183241
-0.0203783
-0.0222921
-0.0241729
-0.0259631
-0.0276876
-0.0292917
-0.030529
-0.00488288
-0.00292706
-0.00398352
-0.00557914
-0.00657833
-0.00736977
-0.00809804
-0.00914553
-0.0105438
-0.0125261
-0.0147208
-0.0170756
-0.0192732
-0.0214318
-0.0233607
-0.0251981
-0.0267431
-0.028023
-0.0289047
-0.0293346
-0.00655693
-0.00626505
-0.0069708
-0.00774868
-0.00811029
-0.0086839
-0.00939695
-0.0102349
-0.0115044
-0.0132332
-0.0152789
-0.0174974
-0.0198191
-0.0221921
-0.0245691
-0.0268986
-0.02912
-0.0311529
-0.0327878
-0.0339847
-0.00344029
-0.00683285
-0.00823268
-0.00936484
-0.00928624
-0.00925773
-0.00978487
-0.010783
-0.0119353
-0.0133253
-0.0147804
-0.0164265
-0.0182186
-0.0202034
-0.0224037
-0.0248729
-0.0275654
-0.030537
-0.0336552
-0.0361454
-0.0070908
-0.0075255
-0.0070372
-0.00758236
-0.00759586
-0.00873275
-0.0105274
-0.0124395
-0.0141044
-0.015597
-0.0169235
-0.0186293
-0.0204223
-0.0224174
-0.0244646
-0.0264315
-0.0272285
-0.0276988
-0.0280708
-0.0290305
-0.00097367
-0.00286895
-0.00456476
-0.00505029
-0.00522363
-0.00554352
-0.00727414
-0.0106182
-0.0148326
-0.0194788
-0.0241353
-0.0288698
-0.0342576
-0.040408
-0.0472791
-0.0517476
-0.0528293
-0.0520865
-0.0534097
-0.0554718
-0.0167121
-0.0183307
-0.0206472
-0.00881726
-0.00967085
-0.0101218
-0.0106094
-0.019419
-0.0206901
-0.0193408
-0.0100046
-0.0111368
-0.0107917
-0.0115774
-0.0185752
-0.0137893
-0.0148985
-0.0101121
-0.0106913
-0.00889773
-0.00976097
-0.017376
-0.0148192
-0.0139828
-0.0108603
-0.0115254
-0.0100941
-0.0113954
-0.0954338
-0.0969515
-0.0895583
-0.104379
-0.0940332
-0.0933249
-0.0858509
-0.0898902
-0.0883541
-0.0883985
-0.0911445
-0.0864104
-0.0828672
-0.0779035
-0.0936566
-0.0893832
-0.0943955
-0.0865056
-0.0896141
-0.0799291
-0.0909561
-0.0984929
-0.0963279
-0.100816
-0.0907367
-0.0955793
-0.0943495
-0.101346
-0.100944
-0.101854
-0.104555
-0.0976339
-0.103062
-0.10288
-0.106367
-0.101085
-0.105414
-0.10746
-0.104168
-0.104756
-0.10716
-0.107834
-0.0977449
-0.107752
-0.106999
-0.103966
-0.0980752
-0.107397
-0.104586
-0.0887209
-0.106055
-0.100893
-0.0945911
-0.0808654
-0.103302
-0.0986904
-0.0891265
-0.0959022
-0.0932121
-0.093451
-0.0830463
-0.0931222
-0.0897038
-0.0895026
-0.0944012
-0.0996001
-0.0799369
-0.076844
-0.090725
-0.0967183
-0.0961914
-0.101447
-0.106969
-0.079505
-0.092194
-0.0991534
-0.106679
-0.103607
-0.108773
-0.114012
-0.0960585
-0.104367
-0.109091
-0.115696
-0.108474
-0.115777
-0.121024
-0.106239
-0.110147
-0.117624
-0.121705
-0.111721
-0.122556
-0.12526
-0.110866
-0.110719
-0.12212
-0.118719
-0.111083
-0.125395
-0.123495
-0.109836
-0.105514
-0.115437
-0.100626
-0.104988
-0.122099
-0.115987
-0.103874
-0.0992269
-0.0956322
-0.0851639
-0.0937334
-0.094277
-0.0941387
-0.0898434
-0.0906643
-0.0900523
-0.0901844
-0.101398
-0.0956201
-0.103488
-0.0927374
-0.100413
-0.0920584
-0.10093
-0.109606
-0.106938
-0.119051
-0.102936
-0.110148
-0.105201
-0.11907
-0.117753
-0.123416
-0.135906
-0.112433
-0.118944
-0.123336
-0.134017
-0.125949
-0.139657
-0.149188
-0.120936
-0.125068
-0.136789
-0.139821
-0.130787
-0.151598
-0.155622
-0.125183
-0.118904
-0.137421
-0.11903
-0.128315
-0.155571
-0.150806
-0.114166
-0.0954001
-0.110479
-0.0846991
-0.1196
-0.147811
-0.136574
-0.0892437
-0.076357
-0.0773233
-0.0614913
-0.0972464
-0.122436
-0.125612
-0.0929746
-0.090907
-0.118018
-0.119707
-0.107804
-0.128825
-0.141156
-0.0927862
-0.104309
-0.12294
-0.133201
-0.125659
-0.146786
-0.157277
-0.10945
-0.124954
-0.138105
-0.148893
-0.145045
-0.163324
-0.177903
-0.129692
-0.141449
-0.154942
-0.168168
-0.159547
-0.184444
-0.195925
-0.144473
-0.147608
-0.17404
-0.182555
-0.166764
-0.200838
-0.209409
-0.145282
-0.127619
-0.185237
-0.183656
-0.161957
-0.211717
-0.208719
-0.119175
-0.0922164
-0.18055
-0.15904
-0.145765
-0.205581
-0.191043
-0.084154
-0.0655862
-0.149393
-0.12101
-0.0300353
-0.0256145
-0.0228735
-0.0212658
-0.0172488
-0.0171003
-0.0146715
-0.0206682
-0.0199167
-0.0170768
-0.0164492
-0.0163272
-0.0142175
-0.0149795
-0.0218358
-0.0184237
-0.0274795
-0.0168569
-0.0193543
-0.0158872
-0.0192459
-0.0288317
-0.0304287
-0.0398373
-0.020322
-0.0228757
-0.0203251
-0.0230729
-0.0474438
-0.043626
-0.0557313
-0.0234848
-0.0245368
-0.0238345
-0.0256019
-0.0646064
-0.0590407
-0.0652917
-0.0246059
-0.0238203
-0.0260129
-0.0271372
-0.0650958
-0.0667105
-0.0715973
-0.0231429
-0.0207241
-0.0275934
-0.0289308
-0.0464488
-0.0733565
-0.0758237
-0.0200217
-0.0205434
-0.0291168
-0.0285381
-0.0195931
-0.0430316
-0.0446978
-0.0166086
-0.0134149
-0.022268
-0.0190396
-0.0168785
-0.0417112
-0.0349391
-0.01318
-0.0148052
-0.0182563
-0.0190769
-0.0301204
-0.0364591
-0.048108
-0.0159523
-0.0198816
-0.0201622
-0.0240894
-0.0476222
-0.0528533
-0.066503
-0.0211134
-0.0241911
-0.025385
-0.0285745
-0.0626911
-0.0695356
-0.0709476
-0.0249847
-0.0263513
-0.0290779
-0.0280309
-0.0643976
-0.0689023
-0.0586415
-0.0264582
-0.0265094
-0.0270573
-0.0244308
-0.0643083
-0.0545293
-0.0436774
-0.0266863
-0.0281187
-0.0236337
-0.0222664
-0.0715723
-0.0411589
-0.0382812
-0.0287569
-0.0300646
-0.0223423
-0.0241384
-0.0552515
-0.0459855
-0.0455917
-0.0319327
-0.0238632
-0.027549
-0.0210174
-0.0396992
-0.0409945
-0.0305118
-0.0217355
-0.020558
-0.0195556
-0.0186197
-0.048765
-0.0299838
-0.0362188
-0.021299
-0.0242909
-0.0190648
-0.0213543
-0.0614383
-0.0394342
-0.048451
-0.0252828
-0.0273551
-0.0222449
-0.0245969
-0.0640977
-0.050049
-0.0473141
-0.0274907
-0.0261702
-0.0250701
-0.0242532
-0.0515675
-0.0451467
-0.0387898
-0.0254585
-0.0230138
-0.0233774
-0.0204784
-0.0384701
-0.0370046
-0.0327954
-0.0221918
-0.0205828
-0.0197475
-0.0188569
-0.0322823
-0.0317693
-0.0299601
-0.020517
-0.02191
-0.0189595
-0.0201181
-0.0467819
-0.0436589
-0.045528
-0.0259794
-0.0207541
-0.0270552
-0.0214204
-0.0324251
-0.0410106
-0.0309561
-0.0194082
-0.0184231
-0.020266
-0.0201719
-0.0361778
-0.0301477
-0.0336199
-0.0188713
-0.0213152
-0.0210758
-0.0240483
-0.0465658
-0.0359445
-0.0407067
-0.0223054
-0.0249756
-0.0257434
-0.0293578
-0.0458299
-0.0430091
-0.0470988
-0.0255063
-0.024944
-0.030746
-0.0327261
-0.0393738
-0.0482079
-0.048782
-0.0241572
-0.0214805
-0.0332469
-0.0331135
-0.0344997
-0.0487648
-0.0472901
-0.0207912
-0.0199401
-0.0327676
-0.0308172
-0.0319332
-0.0467999
-0.0454206
-0.0200413
-0.021069
-0.0304268
-0.0294979
-0.0103683
-0.00912585
-0.0084611
-0.00979512
-0.00918152
-0.00817777
-0.00783645
-0.0101426
-0.00824651
-0.00881296
-0.00923745
-0.00951335
-0.00786426
-0.00815629
-0.011407
-0.00944512
-0.0118383
-0.00955549
-0.0095909
-0.00828826
-0.00873273
-0.0145021
-0.0126528
-0.0154134
-0.00959796
-0.00964546
-0.00890995
-0.00960702
-0.0173573
-0.0164032
-0.019012
-0.00969441
-0.0101381
-0.0099021
-0.0109378
-0.0173902
-0.0196888
-0.021386
-0.0104288
-0.0119616
-0.0113169
-0.0126032
-0.0162243
-0.0218644
-0.0227043
-0.0127361
-0.0156908
-0.013144
-0.015476
-0.0188227
-0.0227282
-0.0228123
-0.0168373
-0.0201604
-0.0165418
-0.0203187
-0.00756757
-0.0126354
-0.0123089
-0.00704211
-0.00698839
-0.0076794
-0.00752825
-0.00872893
-0.0118712
-0.0126442
-0.00710369
-0.00767257
-0.00773237
-0.00867674
-0.0127984
-0.0136121
-0.0172427
-0.00789274
-0.00857346
-0.00899485
-0.00973105
-0.0123112
-0.0147813
-0.0155861
-0.0105421
-0.0167161
-0.0111188
-0.0116442
-0.0146704
-0.0183423
-0.0194768
-0.0130246
-0.0199154
-0.0136324
-0.0142415
-0.0208105
-0.0187162
-0.0172043
-0.0115427
-0.0128697
-0.0119476
-0.013242
-0.0228341
-0.0169487
-0.0174462
-0.0133954
-0.0155448
-0.0137503
-0.0156629
-0.024141
-0.0180264
-0.0206064
-0.0165295
-0.0202146
-0.016484
-0.0196122
-0.0153589
-0.0142305
-0.0123971
-0.00941592
-0.00820295
-0.00812868
-0.00718906
-0.0135297
-0.011543
-0.0109844
-0.00827862
-0.00898759
-0.00720255
-0.00766144
-0.0172173
-0.0113437
-0.0131485
-0.00923096
-0.00975509
-0.00788429
-0.00863131
-0.0130196
-0.018698
-0.0168444
-0.0132137
-0.0176763
-0.0134356
-0.0124704
-0.0132116
-0.017902
-0.0184821
-0.0138135
-0.0181242
-0.0137174
-0.0133883
-0.0157776
-0.013786
-0.0140598
-0.0118904
-0.013327
-0.0119567
-0.0138591
-0.0160997
-0.0144274
-0.0160025
-0.0138763
-0.0158095
-0.0145017
-0.0163569
-0.0190756
-0.0166124
-0.0185714
-0.0165946
-0.0194968
-0.0169896
-0.0191465
-0.0124537
-0.0122414
-0.0116061
-0.00767219
-0.00679381
-0.0078125
-0.0071621
-0.0108605
-0.0108435
-0.0101342
-0.00682328
-0.00745208
-0.00753018
-0.00873813
-0.0124532
-0.0105523
-0.0122013
-0.00774558
-0.00872124
-0.00928586
-0.0107058
-0.0141407
-0.0131386
-0.0150369
-0.00908752
-0.010208
-0.0115648
-0.0134122
-0.0139287
-0.0157196
-0.0170825
-0.0105927
-0.0119692
-0.0140945
-0.0157062
-0.0147829
-0.0177972
-0.0197405
-0.0125587
-0.0145364
-0.0164893
-0.0184277
-0.0170483
-0.0205308
-0.0224636