/*--------------------------------*- C++ -*----------------------------------*\
  =========                 |
  \\      /  F ield         | OpenFOAM: The Open Source CFD Toolbox
   \\    /   O peration     | Website:  https://openfoam.org
    \\  /    A nd           | Version:  10
     \\/     M anipulation  |
\*---------------------------------------------------------------------------*/
FoamFile
{
    format      ascii;
    class       volVectorField;
    location    "4.4";
    object      U;
}
// * * * * * * * * * * * * * * * * * * * * * * * * * * * * * * * * * * * * * //

dimensions      [0 1 -1 0 0 0 0];

internalField   nonuniform List<vector> 
12920
(
(7.23233 55.1016 5.99028)
(-45.5732 39.2196 -22.6454)
(94.6779 76.4924 -5.0617)
(62.9337 26.5407 -2.48812)
(106.699 20.6946 2.85165)
(80.3 -1.39574 0.397522)
(98.9912 -6.09136 2.44127)
(87.3287 -7.94399 1.07747)
(100.77 -1.30736 0.914435)
(96.2308 2.52885 -0.186732)
(101.672 5.88516 -0.272758)
(98.5251 4.83618 -0.519775)
(101.793 3.75191 -0.302635)
(100.871 -0.279812 -0.105362)
(105.174 -2.8623 0.102022)
(106.777 -4.93976 0.210227)
(111.537 -6.44899 0.373493)
(112.461 -6.85029 0.864631)
(113.36 -7.7076 0.848687)
(108.997 -7.25145 0.746936)
(177.692 335.249 27.3402)
(-118.775 -0.0955437 1.08674)
(115.485 -34.381 -4.62938)
(36.07 -30.0389 -6.9212)
(112.89 -17.8123 -1.17689)
(84.7689 -8.22508 -0.747344)
(99.2807 -9.835 5.48499)
(62.8659 -13.7109 3.82265)
(68.6001 -12.5807 3.17109)
(56.825 -10.6277 1.54346)
(67.5697 -7.65674 1.34484)
(66.3817 -6.60882 0.874086)
(73.8873 -5.44194 0.796091)
(74.5463 -4.78002 0.144636)
(78.1525 -4.01563 -0.0920993)
(78.0902 -3.61743 -0.230918)
(79.1088 -2.67857 -0.373101)
(76.8698 -2.48761 -0.31318)
(74.9312 -1.1646 -0.55753)
(65.4296 1.40483 -0.919915)
(93.7808 -103.744 -43.9862)
(10.9333 21.5742 -24.8319)
(116.117 2.51512 -14.8674)
(78.8962 9.93105 -11.7965)
(117.86 1.24685 -4.25075)
(92.7786 -8.35599 -0.403097)
(102.081 -4.26103 4.60115)
(70.0767 -5.4613 3.02893)
(71.7864 -5.13722 2.63104)
(57.1891 -6.22768 0.852371)
(63.9428 -6.46054 0.704486)
(60.1783 -6.31667 0.246738)
(65.953 -6.32795 0.290171)
(65.7805 -5.74509 0.0407792)
(69.6498 -5.12735 0.0082333)
(69.9163 -4.01923 -0.331343)
(72.3111 -2.5919 -0.55703)
(71.0936 -1.44217 -0.568525)
(70.7884 0.775204 -0.76949)
(64.3437 2.4543 -0.78604)
(165.119 51.9968 23.2361)
(-18.2905 12.6497 -16.2154)
(89.2876 14.7847 -3.80503)
(-33.3434 -3.85267 -2.45509)
(61.159 1.75556 0.191085)
(-21.3626 -8.10609 0.564358)
(45.0288 -5.43929 0.315456)
(11.429 -8.00066 0.461994)
(45.7797 -9.92402 0.255889)
(35.8697 -10.983 0.58961)
(52.4271 -12.3183 0.723728)
(50.3237 -11.4714 0.688978)
(58.9146 -11.3183 0.705251)
(58.9965 -9.28844 0.444925)
(64.1157 -7.31434 0.240604)
(65.2109 -4.0904 -0.0448857)
(68.9195 -0.889131 -0.277376)
(68.5066 0.681169 -0.289654)
(69.3636 3.09323 -0.597487)
(64.4842 4.85014 -0.709972)
(106.829 122.506 98.9626)
(83.6294 -6.36286 8.86587)
(123.894 12.7189 4.90012)
(58.806 9.71588 -0.456301)
(90.0816 2.1889 -2.66189)
(32.4897 -4.1557 -2.77037)
(63.0415 -22.6056 -1.495)
(36.6277 -12.9843 -0.9444)
(58.1354 -23.5738 0.109638)
(48.9318 -17.7587 0.360543)
(60.2559 -21.91 0.930424)
(56.6448 -17.6814 0.92393)
(61.8465 -17.6593 1.04304)
(60.1403 -13.9274 0.80342)
(63.2672 -12.1703 0.463653)
(62.5299 -7.97973 0.112068)
(66.1694 -4.06818 -0.154389)
(66.5589 -1.3627 -0.190134)
(68.1232 1.31282 -0.529432)
(64.005 3.66803 -0.594338)
(104.991 128.66 -9.75338)
(3.07987 -55.6633 -31.6134)
(107.745 -3.35702 0.82373)
(24.1739 13.5729 1.72453)
(80.3236 28.316 -2.46368)
(11.3992 15.7557 -2.41626)
(61.6374 -0.0255559 -1.4405)
(39.1473 -6.82482 -0.585095)
(59.236 -19.4277 -0.398148)
(55.0524 -19.3961 -0.220107)
(63.9409 -23.113 0.100199)
(61.4705 -20.3478 0.33874)
(63.916 -19.3942 0.621975)
(60.5418 -15.9189 0.602749)
(59.5101 -11.4192 0.369701)
(57.0165 -6.94942 -0.0167657)
(58.1051 -3.362 -0.228394)
(58.6882 -1.1326 -0.389409)
(60.2076 1.93457 -0.64672)
(56.3734 4.5102 -0.730315)
(5.63803 -140.787 -82.4732)
(-130.31 43.1693 -18.7445)
(103.009 57.137 -10.2696)
(-21.0575 30.5846 1.12304)
(88.2843 33.3691 1.20903)
(19.4878 11.8149 0.757035)
(65.7328 -35.4684 0.434909)
(43.9225 -11.1136 0.425632)
(66.4253 -32.7885 0.0578882)
(59.6627 -22.2862 -0.308694)
(68.0086 -27.9651 -0.23413)
(64.8992 -20.7307 -0.377757)
(66.9223 -20.1994 -0.0552772)
(62.9177 -13.1371 0.100683)
(60.5027 -10.9268 0.456363)
(56.5052 -5.93103 0.27605)
(56.579 -4.34259 0.137834)
(55.1066 -2.24401 -0.0746405)
(55.1426 0.668477 -0.442581)
(50.633 3.61825 -0.585203)
(-152.768 -30.589 121.177)
(-199.388 -1.31416 -14.6046)
(62.0297 -5.53977 -2.07253)
(-74.8249 3.26829 3.99444)
(82.1173 -16.4856 1.73445)
(22.5244 21.2504 1.2954)
(68.815 -2.73045 -0.529598)
(46.3158 -21.873 0.0642677)
(70.8239 -25.5688 0.343078)
(66.8775 -27.4417 0.673456)
(70.7246 -24.8791 0.44111)
(66.9094 -22.8109 0.585232)
(69.0152 -18.3257 0.612121)
(66.6293 -13.5269 0.731383)
(61.5162 -7.68706 -0.0536361)
(61.6201 -4.7163 0.134641)
(60.0554 -2.69974 0.207392)
(58.2133 -0.686176 0.176556)
(56.3898 2.08628 -0.161659)
(50.1391 4.13875 -0.327802)
(144.572 136.451 -66.3941)
(21.2251 6.86775 5.6385)
(106.049 -25.1492 2.11674)
(38.1916 -21.5076 -0.773483)
(97.1781 -37.9581 1.03477)
(59.1643 -17.5139 -0.79947)
(92.127 -8.03399 0.258107)
(75.8781 -33.989 0.254431)
(75.6068 -33.0116 0.38061)
(73.8772 -29.9802 0.301021)
(76.9249 -22.8867 0.0974463)
(75.114 -23.4378 0.311718)
(74.5123 -20.7334 0.517408)
(73.8353 -15.0841 0.729203)
(72.8432 -7.56316 0.659374)
(68.536 -4.79769 0.553154)
(67.2822 -2.95862 0.554287)
(62.5039 -1.0174 0.336252)
(59.6425 2.52784 0.0962845)
(52.2252 3.8258 -0.189074)
(-18.2684 -38.7406 203.086)
(-219.4 4.08792 -37.046)
(74.3817 -40.1671 -26.2152)
(-15.9607 -20.365 -0.141911)
(75.3251 -25.2121 3.23171)
(37.4693 -15.2019 -0.852941)
(60.1061 -23.4136 1.07294)
(71.4823 -32.0152 -0.282204)
(79.3845 -32.661 -0.274352)
(75.306 -31.6661 -0.0242711)
(73.5593 -26.3343 0.00744096)
(77.0055 -25.8127 0.268849)
(83.6144 -27.0099 0.00507342)
(85.8115 -23.8039 -0.081109)
(87.5052 -11.3972 -0.0365546)
(84.4181 -1.59248 0.490495)
(81.9885 -0.00423213 0.942462)
(71.8212 2.67299 1.33058)
(64.7097 4.69456 0.516014)
(55.5606 4.89455 -0.140371)
(322.151 48.246 8.86966)
(87.0296 -5.91429 -27.2047)
(152.632 -55.2026 -8.94236)
(82.4362 -61.6158 -2.3843)
(122.495 -62.983 4.91353)
(69.2903 -46.8761 -0.278963)
(69.4993 -35.8289 1.15512)
(64.8894 -30.826 -0.644425)
(64.8195 -33.698 0.140289)
(73.0084 -36.0919 0.138257)
(78.6818 -34.6637 0.175666)
(78.7826 -34.6869 0.280613)
(77.7726 -29.3827 -0.0289402)
(79.2045 -22.8607 -0.236802)
(81.4292 -13.0569 -0.818902)
(83.164 -4.17773 -0.773669)
(85.2886 3.11732 -0.190902)
(79.6904 7.23806 0.497731)
(72.8391 8.94277 0.444166)
(61.5739 6.54452 -0.277769)
(113.118 311.711 -46.2785)
(-65.3373 132.45 1.33095)
(139.755 1.13852 -3.68966)
(59.3636 -31.7796 -3.22945)
(112.066 -35.309 4.75128)
(61.0823 -37.2815 -0.856937)
(76.522 -35.2988 0.686157)
(77.2115 -28.3758 -0.280115)
(75.7555 -34.058 -0.394559)
(67.3058 -36.0241 0.118154)
(64.6611 -36.1566 0.00894799)
(65.0948 -34.2106 -0.0350989)
(65.7264 -29.5002 -0.135464)
(67.5604 -22.4074 -0.221352)
(70.7043 -13.0958 -0.56896)
(69.6387 -3.34463 -1.14732)
(74.4867 3.68016 -1.4087)
(73.8708 9.94494 -0.642581)
(71.7687 13.0223 -0.368125)
(63.2186 10.6197 -0.661917)
(225.561 92.1061 -108.335)
(100.977 -54.9075 7.58371)
(199.648 -82.5529 -10.0594)
(109.535 -56.6726 -3.03691)
(124.717 -43.0851 4.20096)
(57.7425 -48.5024 1.66347)
(70.4244 -23.5118 0.00945448)
(51.2317 -18.6119 -0.349147)
(65.7373 -33.2466 -0.715526)
(64.0102 -34.6271 -0.424652)
(68.966 -35.988 -0.619745)
(65.7525 -30.9616 -0.492633)
(66.6695 -26.477 -0.509453)
(64.421 -18.1554 -0.326228)
(61.1749 -5.83226 -0.198902)
(62.3236 -1.95215 -0.717848)
(65.0688 6.10295 -1.087)
(66.7754 10.4869 -0.64742)
(67.8755 13.5581 -0.460266)
(62.2594 11.5486 -0.310092)
(-16.7807 32.9408 63.8838)
(-30.8993 60.4771 -62.4478)
(179.914 37.6324 -17.3746)
(84.3566 8.64156 -4.62513)
(127.215 -5.58171 2.1758)
(86.5556 -16.982 0.00965969)
(100.432 -6.87395 1.01642)
(89.514 -29.2771 0.826736)
(91.6763 -24.8441 0.191334)
(81.0431 -32.2591 0.286725)
(78.5865 -25.8432 0.0866876)
(69.6979 -26.1375 0.00455269)
(68.97 -18.1869 0.238294)
(61.8737 -14.4148 0.455644)
(62.2178 -4.8345 0.0759227)
(58.9096 -1.10067 -0.0273239)
(61.3197 4.96256 -0.117269)
(62.1195 8.50675 0.0384786)
(64.0152 12.2685 -0.264978)
(60.9869 10.9738 -0.123594)
(226.187 -27.6551 5.73484)
(160.186 -5.77508 -24.3039)
(201.251 -28.3929 7.74243)
(115.715 -21.233 -3.5415)
(143.782 -24.4089 -1.788)
(109.639 -25.2718 -3.05547)
(123.493 -25.0021 -0.337958)
(106.475 -32.4618 -0.334096)
(102.256 -28.1656 0.927731)
(84.4824 -30.8712 0.653149)
(80.2254 -22.3239 0.253883)
(68.5685 -20.8976 -0.215915)
(67.9385 -14.3127 -0.47986)
(61.4263 -10.5174 -0.45784)
(61.5292 -2.99529 -0.0825236)
(59.8072 -0.57934 0.0694744)
(61.7478 3.62614 0.147221)
(62.4826 5.58868 0.359098)
(64.2035 9.01354 0.0362121)
(62.5775 8.44054 0.0491346)
(177.836 141.98 -177.906)
(130.305 94.6601 -37.1075)
(226.165 77.7509 3.95535)
(156.289 37.8131 -0.260991)
(172.785 30.6677 0.180333)
(141.406 7.6365 -1.78505)
(139.016 6.79296 0.64799)
(108.969 -10.0379 1.03293)
(97.8138 -4.96579 2.51853)
(73.9589 -15.4815 0.993222)
(71.0663 -11.7582 0.490589)
(61.2156 -13.8137 0.0893439)
(60.9901 -8.64595 -0.0830247)
(56.0135 -6.69592 -0.264485)
(57.2906 -2.45788 -0.169186)
(57.0219 -1.14428 -0.115458)
(60.7639 1.54148 0.0521868)
(62.5395 2.5892 0.125775)
(64.4678 5.37821 -0.0453517)
(62.7604 5.81191 -0.110816)
(347.85 -241.919 -308.858)
(-77.0542 16.8875 42.4432)
(142.057 13.5635 6.51009)
(36.9679 11.3598 3.67896)
(117.889 11.7855 -0.340656)
(77.1438 2.25264 0.326445)
(98.0619 4.57109 2.61114)
(64.6946 -6.22161 1.72201)
(71.3079 -6.34042 1.86651)
(56.6462 -14.5917 0.532164)
(62.0419 -12.9844 0.609802)
(55.1417 -13.3029 0.375016)
(56.572 -8.55511 0.397255)
(51.5969 -6.4534 0.261045)
(52.0542 -3.40949 0.00174777)
(51.0794 -3.51846 -0.119494)
(54.6397 -1.97712 -0.284835)
(57.0853 -0.543676 -0.308986)
(59.5257 2.79414 -0.447933)
(56.9255 4.17255 -0.542853)
(370.498 -38.0897 -53.4193)
(279.05 -23.8324 7.5155)
(269.732 -42.3339 17.5856)
(152.258 1.62385 11.7378)
(137.204 14.4732 8.11518)
(81.854 5.76248 4.55099)
(87.7227 10.9009 3.09986)
(57.6432 -1.68402 0.664561)
(69.5103 -2.46066 -0.217765)
(58.335 -11.3278 -0.89562)
(65.8229 -10.9326 -0.383216)
(58.6164 -10.7692 0.13514)
(58.857 -6.22317 0.810913)
(50.6945 -3.82312 0.711705)
(48.6334 -1.26671 0.672295)
(46.5481 -1.8557 0.397708)
(50.9676 -1.87656 0.0160555)
(54.5284 -1.91057 -0.19348)
(57.0072 2.162 -0.383469)
(54.1461 4.4247 -0.586474)
(303.364 -72.8481 -161.456)
(232.011 -117.196 -28.0195)
(177.685 26.2305 24.2622)
(47.3057 36.7298 11.3909)
(89.8777 37.6492 9.74432)
(35.7362 15.3236 3.72449)
(77.8169 14.4048 2.52492)
(54.3316 3.43294 -0.512418)
(79.1567 -3.21431 -0.426268)
(71.4001 -8.91871 -0.83207)
(81.992 -10.4874 -0.372328)
(78.1326 -8.99531 -1.44791)
(80.3973 -4.36798 -0.81896)
(74.8041 -0.517072 -0.292964)
(68.7603 -1.75748 0.597651)
(58.1048 -7.42787 -0.306596)
(57.5841 -10.0177 -0.789579)
(57.2416 -7.83869 -0.239339)
(58.4974 -0.935093 -0.270959)
(55.5338 3.07482 -0.209444)
(146.464 -155.331 -91.1101)
(34.9388 -95.9423 -36.6883)
(101.772 -28.1115 -15.3731)
(94.1395 -8.36036 -13.4967)
(147.767 -15.6637 -6.63039)
(141.661 -8.09163 -5.60596)
(165.749 -7.33131 -1.23987)
(158.933 -1.74202 -1.46389)
(165.197 -5.7695 0.658605)
(151.442 -8.03395 1.01422)
(139.675 -11.6694 1.1953)
(129.254 -4.59334 -1.18716)
(132.472 -1.09328 -2.46604)
(141.408 8.27774 0.381663)
(144.149 14.3986 3.26207)
(141.182 13.3855 4.24811)
(124.139 2.54162 5.21471)
(93.818 -4.94598 3.97364)
(77.9811 -1.60257 1.98248)
(68.2916 2.17937 1.18996)
(106.008 242.089 43.8965)
(-40.6967 71.5901 -22.2179)
(85.6626 88.5367 -39.9646)
(17.7371 28.694 -12.917)
(77.3447 20.3415 0.481777)
(48.104 -3.71955 -0.53876)
(78.8317 -7.50374 5.48642)
(69.4775 -10.5725 2.99277)
(87.5227 -5.97867 3.40184)
(84.1764 -4.07713 1.24898)
(91.8663 -1.08544 1.12455)
(89.6755 -0.89018 0.251073)
(93.2559 -0.70203 0.479279)
(92.81 -1.6481 0.375728)
(95.4885 -2.16524 0.597991)
(96.6061 -3.82435 0.644564)
(100.473 -4.59643 0.903384)
(101.888 -4.95197 1.4423)
(104.147 -5.30172 1.02052)
(100.287 -3.91104 1.01723)
(165.164 -33.0284 -73.3721)
(-197.805 0.165595 26.7705)
(85.9937 -8.39833 -15.4051)
(-29.4922 -16.8828 -2.45317)
(72.0765 -17.4598 3.61606)
(27.641 -14.2176 1.07835)
(64.4572 -14.1877 9.25605)
(37.9825 -13.5343 3.91575)
(55.6921 -10.2028 3.47526)
(45.5757 -8.1669 0.818554)
(57.348 -5.75323 0.983037)
(55.216 -5.13675 0.394235)
(62.3962 -4.22384 0.615247)
(62.2091 -3.86413 -0.0107109)
(65.3934 -3.19588 -0.169135)
(64.9601 -2.77679 -0.528936)
(66.0531 -1.9001 -0.814827)
(63.878 -1.27796 -0.88253)
(62.5777 0.225241 -1.4468)
(53.9507 1.70479 -2.28747)
(98.0552 -56.3289 54.5263)
(-40.0678 7.05432 -2.36544)
(98.2233 -23.9753 -9.94876)
(36.8538 -14.4589 -10.12)
(77.9476 -17.0381 -1.06723)
(38.1619 -15.2778 -0.404999)
(64.5582 -5.81334 6.96668)
(38.4599 -4.61144 2.8189)
(52.9189 -3.73664 3.4763)
(41.0402 -4.21462 0.853038)
(50.8471 -4.66678 1.036)
(47.111 -4.58242 0.260335)
(53.384 -4.70625 0.471209)
(52.6295 -4.18273 0.0365906)
(56.0055 -3.59761 0.0253916)
(55.5727 -2.77985 -0.488657)
(57.1384 -1.59162 -0.864446)
(55.3584 -0.580126 -0.862086)
(54.6226 1.17907 -1.18087)
(47.8278 2.00855 -1.96645)
(140.258 101.69 180.638)
(-40.9647 -14.4149 38.1205)
(73.5287 -8.95162 18.233)
(-41.2542 -22.6695 2.89844)
(50.3133 -9.88438 1.68222)
(-27.1518 -12.5209 -0.111969)
(36.6259 -7.23888 0.549292)
(2.66061 -7.16637 0.692095)
(36.6621 -8.15592 0.643787)
(25.5825 -8.51381 0.969943)
(42.1967 -9.53379 1.12512)
(39.1971 -8.64546 0.916896)
(47.5757 -8.37414 0.966085)
(47.0312 -6.74369 0.530684)
(51.1479 -5.1811 0.316549)
(50.9373 -3.25337 -0.154403)
(53.4966 -1.16421 -0.551816)
(52.3653 0.220121 -0.514671)
(52.402 2.29083 -1.02196)
(46.4118 3.1991 -1.91217)
(101.304 121.747 100.946)
(53.0068 -42.9943 -1.79074)
(115.108 -24.373 6.23172)
(63.8282 -19.3553 0.910951)
(89.9353 -13.0578 3.04433)
(24.4901 -8.79764 -1.85424)
(52.0655 -21.5161 0.6164)
(20.7391 -8.656 -0.775168)
(44.0958 -18.9177 1.01291)
(32.91 -11.0815 0.613263)
(45.8766 -15.2129 1.52491)
(41.9104 -10.538 1.19747)
(48.19 -11.2062 1.42593)
(46.8208 -7.94546 0.943222)
(49.9023 -6.96784 0.527595)
(48.9939 -4.42185 0.0252505)
(51.4148 -2.3421 -0.388466)
(50.7091 -0.359637 -0.400831)
(51.059 1.66593 -0.994818)
(45.7622 2.80763 -1.69916)
(395.169 108.86 -22.7477)
(73.4836 -12.1506 -17.4364)
(131.934 -8.15403 -3.13786)
(49.8274 -5.04865 -1.20524)
(84.0425 13.6928 6.72986)
(3.93045 7.91253 0.347249)
(49.8936 -5.30216 1.13188)
(21.5893 -7.08924 -0.468532)
(42.2218 -16.9054 0.0559209)
(35.093 -13.627 0.102025)
(44.9066 -16.494 0.575339)
(41.9567 -12.5186 0.764325)
(46.203 -12.0684 0.987452)
(44.1726 -8.89698 0.700165)
(45.3804 -6.62293 0.438529)
(44.0443 -3.91066 -0.0647592)
(45.4684 -1.93937 -0.424271)
(45.1998 -0.145002 -0.616769)
(45.5116 1.85793 -1.15407)
(40.6566 3.12718 -1.86403)
(64.7478 -212.398 59.2072)
(-99.9477 46.7247 -71.7093)
(97.4654 41.661 -28.7234)
(-27.467 19.5979 -2.25695)
(81.344 26.9793 2.61308)
(2.41663 8.9098 1.76722)
(51.0319 -34.8128 0.646409)
(24.1228 -4.2851 0.695478)
(47.8927 -27.6558 0.212323)
(39.2085 -14.1729 -0.308996)
(48.6828 -20.7383 -0.0828445)
(44.9163 -12.3853 -0.309512)
(48.0252 -12.9173 0.12418)
(45.479 -6.86609 0.214202)
(45.6144 -6.80599 0.643002)
(43.7303 -3.82911 0.370007)
(44.4805 -2.82776 0.118157)
(43.1688 -1.0556 -0.246473)
(42.9662 0.833657 -0.903351)
(38.3159 2.32995 -1.62808)
(-169.928 -47.6593 -56.7828)
(-176.696 20.1812 -71.9625)
(33.915 -2.1346 -11.8031)
(-88.608 3.15778 4.97019)
(69.7289 -10.3105 1.4884)
(1.81582 25.8682 2.58576)
(52.1605 -5.72502 0.0060384)
(31.8327 -14.2912 -0.677422)
(53.5508 -21.0417 0.274134)
(48.8613 -20.7949 0.235231)
(54.4329 -19.0542 -0.184762)
(51.2616 -15.757 0.0238613)
(53.4779 -12.0061 0.154464)
(51.0166 -7.88299 0.197943)
(47.6188 -4.82761 -0.22369)
(47.9333 -2.75801 0.285127)
(46.5713 -1.00245 0.355712)
(45.1446 0.283486 0.129855)
(43.9284 1.51849 -0.52193)
(38.8414 2.4656 -1.30212)
(180.235 -94.9446 -25.341)
(22.2061 16.8577 -9.18896)
(90.7922 -14.0591 7.5411)
(6.14148 -12.1691 1.35066)
(78.636 -29.9771 4.72647)
(42.8667 -4.85319 -0.718587)
(72.3788 -6.35427 1.99421)
(61.422 -26.0967 0.0317241)
(63.9998 -26.2403 0.312599)
(61.179 -23.6325 -0.0696946)
(62.3428 -19.3812 -0.0782109)
(60.6577 -17.782 0.530349)
(61.238 -13.559 1.13526)
(60.3461 -8.96322 1.29499)
(59.058 -3.50122 0.436343)
(53.9224 -2.80482 0.820623)
(52.8365 -0.75769 0.842114)
(49.0116 0.149128 0.550559)
(47.3828 1.598 -0.110536)
(41.5792 2.08846 -1.07898)
(197.929 144.856 -114.128)
(-66.8685 81.0961 -11.7222)
(61.2939 -23.0465 -15.6133)
(-28.5515 -14.7356 4.7861)
(59.1503 -20.9019 6.70928)
(28.4827 -10.0838 -2.54713)
(60.6962 -14.4477 0.745654)
(66.2359 -23.6372 0.0650293)
(66.7599 -25.6166 -0.259604)
(64.7676 -24.6233 0.26098)
(65.5596 -21.6502 0.651274)
(68.399 -20.4725 0.803693)
(71.102 -17.1841 0.472737)
(72.2421 -10.878 0.716182)
(71.7109 -2.44524 0.640965)
(66.7253 2.20745 0.546619)
(62.3299 2.64424 1.60136)
(55.9357 3.39331 1.71547)
(52.207 3.12083 0.334986)
(44.7607 2.65569 -1.0737)
(149.161 234.184 47.1846)
(-22.7191 6.77932 -5.19723)
(125.55 -55.6173 3.71274)
(27.8541 -42.5666 2.20951)
(92.3421 -43.9983 8.71458)
(57.1127 -37.2218 4.02364)
(66.7017 -29.3281 5.43122)
(63.3767 -24.6044 1.34643)
(59.9944 -26.2178 0.552678)
(63.4116 -26.5975 0.97839)
(67.8039 -26.8765 0.651211)
(70.4199 -24.3454 0.403806)
(71.7434 -18.6394 -0.344263)
(72.8809 -11.9151 -1.25446)
(72.567 -3.4874 -1.75863)
(69.2697 3.34409 -1.38773)
(67.1666 8.10326 0.0959967)
(61.5019 8.61255 1.01034)
(57.4174 7.08725 0.383084)
(48.3128 4.04817 -1.24711)
(84.416 181.045 -93.3759)
(-56.0452 58.5547 2.26987)
(112.014 -32.1086 10.5711)
(-0.864851 -27.2718 -2.97601)
(73.6828 -26.8761 10.3811)
(43.2469 -31.4599 0.155039)
(66.5674 -33.0205 2.29757)
(63.2992 -21.8747 0.981631)
(59.5031 -28.0366 0.171253)
(56.4737 -28.4254 0.265794)
(56.1349 -27.1983 0.0677522)
(56.7656 -23.5934 -0.469919)
(58.0798 -18.1664 -1.20383)
(60.2292 -11.887 -1.81334)
(61.7301 -4.86652 -1.92741)
(58.8614 3.18766 -2.1955)
(60.4119 8.17115 -1.525)
(57.9937 10.2173 -0.36184)
(56.7022 10.0862 -0.488538)
(48.5241 6.2582 -1.66825)
(262.266 86.4588 -105.494)
(145.707 -20.3992 31.9993)
(184.559 -56.3493 -3.52897)
(61.3269 -38.0971 1.83093)
(99.2646 -35.744 8.50806)
(35.4619 -47.4057 1.96366)
(55.46 -21.0719 2.82705)
(41.6821 -18.9758 0.011947)
(52.5323 -27.3647 -0.54427)
(49.8582 -27.5712 -0.224698)
(53.9624 -26.3618 -0.214223)
(50.9814 -20.8842 0.00512121)
(53.0142 -15.7975 -0.126391)
(51.1636 -9.29207 -0.48148)
(49.1447 -0.941357 -1.1049)
(51.2251 1.95647 -1.3074)
(52.8845 7.13735 -1.25559)
(53.3815 8.66652 -0.572125)
(53.9029 9.62845 -0.647027)
(48.5187 6.84045 -1.16959)
(351.847 232.322 57.7313)
(19.9572 92.8507 -1.26928)
(162.69 45.6868 -18.4263)
(37.1785 11.9408 -5.80061)
(102.248 -2.04527 2.4005)
(57.3454 -15.143 -1.11932)
(77.8678 -3.4469 1.45875)
(64.4869 -27.0722 0.897034)
(68.3132 -19.7772 0.730764)
(58.7576 -26.4946 0.907814)
(57.7914 -17.6866 0.718656)
(50.649 -17.3799 0.419485)
(50.2494 -8.48521 0.395076)
(46.4228 -6.57769 0.441548)
(47.3123 -0.437372 -0.180309)
(46.3238 1.31836 -0.13835)
(49.319 5.25031 -0.171724)
(50.4957 6.73012 0.0864118)
(51.9601 8.4528 -0.561064)
(48.5574 6.56736 -0.826794)
(182.241 124.021 41.8049)
(-9.77103 36.2625 24.2369)
(151.195 -25.3927 2.30473)
(61.5212 -21.6137 -8.75226)
(109.563 -25.8551 -2.46342)
(68.4107 -26.0557 -4.3784)
(90.7599 -22.5922 0.447989)
(72.8816 -28.4622 -0.321041)
(74.9037 -23.5819 1.62152)
(62.1662 -24.4656 1.1026)
(60.1095 -16.4095 0.8776)
(50.7097 -14.5791 0.0022664)
(50.1619 -7.36307 -0.468075)
(45.557 -4.78218 -0.336751)
(46.1168 -0.147905 -0.0647164)
(45.8848 0.816051 0.189543)
(48.4583 3.46867 0.193025)
(50.1705 4.30001 0.467202)
(51.9657 6.03611 -0.253572)
(49.493 5.12132 -0.632585)
(99.0179 -45.7018 -46.3033)
(58.2346 62.9263 -29.0886)
(173.52 62.1356 12.354)
(107.45 22.6437 -4.06645)
(136.404 15.2871 0.876252)
(98.269 -5.5673 -2.30157)
(102.883 -0.643739 2.26363)
(75.8009 -14.0234 2.39532)
(74.9048 -6.85602 4.02871)
(57.4349 -13.0436 1.53565)
(56.3037 -7.18897 0.812707)
(46.9465 -9.04483 -0.0679721)
(47.1755 -3.89311 -0.135157)
(42.9493 -3.58018 -0.306734)
(44.2512 -0.214466 -0.0631808)
(43.9645 -0.11787 0.00539206)
(47.5452 1.75997 0.0960798)
(49.2675 2.21344 0.17375)
(51.1211 4.20328 -0.393101)
(48.5418 4.22379 -0.932484)
(-33.387 -35.1654 -130.409)
(-103.878 50.9773 60.2379)
(116.395 18.4556 11.8329)
(26.8514 7.69333 7.35059)
(99.9514 3.84773 1.94196)
(48.2983 -6.08661 0.760099)
(74.8016 0.00677401 4.6187)
(42.9767 -8.35291 2.45432)
(56.1387 -4.22534 2.87839)
(41.1253 -10.0526 0.720595)
(48.2583 -6.4933 0.802845)
(41.0885 -7.18706 0.322604)
(43.8968 -3.21782 0.385787)
(39.7306 -2.69501 0.124651)
(40.9286 -0.809117 -0.0934159)
(39.9437 -1.81396 -0.183724)
(43.3542 -1.02292 -0.294055)
(45.1042 -0.318935 -0.383636)
(46.8887 2.29764 -0.837172)
(43.9043 3.13118 -1.60524)
(162.368 -22.1482 45.0632)
(115.041 43.187 66.2369)
(188.731 1.45941 39.2123)
(112.29 15.8196 19.5185)
(119.945 13.4219 14.3695)
(65.41 2.50979 6.70947)
(76.2228 8.74871 4.73097)
(44.2498 -2.27786 0.613758)
(56.9742 -0.0482125 -0.272483)
(42.3285 -7.03428 -1.15444)
(50.3382 -4.72645 -0.122584)
(42.0993 -5.0017 0.202925)
(44.6512 -1.58729 0.863121)
(38.1207 -0.685521 0.514577)
(38.4618 0.275423 0.471163)
(36.8746 -1.18844 0.475458)
(41.6426 -1.86289 0.253067)
(44.3271 -1.96747 0.0133007)
(46.1517 1.44795 -0.672324)
(43.2206 2.98515 -1.66186)
(-45.1884 32.8734 -2.42877)
(-27.4537 3.2429 78.6948)
(93.9743 68.0966 52.266)
(-8.61336 46.8794 17.8335)
(79.0307 49.8929 14.5616)
(15.5793 22.5817 4.21513)
(65.4737 20.9127 2.04232)
(33.6585 6.31277 -2.72698)
(58.8316 -0.0438829 -2.58688)
(46.2852 -5.39038 -2.84955)
(58.1252 -5.32542 -0.640165)
(51.0699 -2.57857 -0.785752)
(54.6087 1.9277 0.619088)
(48.9849 3.80796 -0.183713)
(49.5868 2.00782 -0.0350619)
(46.0832 -3.90107 -1.2391)
(48.1192 -7.71597 -0.467835)
(48.7297 -6.14253 0.299516)
(49.8376 -0.842574 -0.306781)
(46.5668 1.70479 -0.90437)
(84.3574 -56.6706 -81.6951)
(-77.8395 -48.5954 -38.6991)
(77.7295 -18.7694 2.81112)
(5.6969 6.0143 -3.91401)
(83.6504 5.18398 3.95164)
(58.0463 11.0233 -3.34147)
(99.9707 7.18771 1.77945)
(89.8122 7.25982 -0.81544)
(106.606 0.555273 1.82627)
(97.2454 -3.13613 0.731331)
(99.1804 -5.64568 -0.012029)
(94.2594 -4.47297 -2.23922)
(95.9373 -1.42275 -4.0429)
(99.6915 5.60572 -2.46726)
(112.502 6.98425 1.99318)
(113.435 3.38391 6.17854)
(100.661 -4.97274 10.6341)
(81.2535 -6.38663 8.61105)
(71.468 -1.63262 4.74609)
(64.4375 1.59859 2.71451)
(171.331 146.292 18.0709)
(-6.05509 75.6956 -48.0728)
(84.3109 82.3011 -63.9588)
(1.82655 15.4461 -16.4561)
(62.3832 9.4099 0.0573907)
(27.798 -9.02582 0.509541)
(66.4291 -8.12797 6.71309)
(57.5146 -9.49465 3.47582)
(78.584 -4.49971 3.76018)
(75.0674 -2.76338 1.1979)
(83.3901 -0.00405252 1.32004)
(80.4898 -0.0483303 0.489658)
(84.0015 -0.0319693 0.942197)
(83.1379 -0.881335 0.824796)
(85.6857 -1.27879 1.02929)
(86.6062 -2.30495 0.869015)
(89.9265 -2.59354 0.79088)
(91.3055 -2.38853 1.17634)
(93.198 -1.59023 0.445136)
(87.1816 -0.108663 0.380879)
(-22.4151 -149.15 0.477448)
(-193.555 -3.17396 34.4198)
(60.5239 4.54791 -19.4308)
(-59.5272 -15.9944 3.43087)
(51.4547 -19.0078 3.49246)
(-6.28308 -14.1991 0.766783)
(43.8912 -12.5894 7.20732)
(18.5407 -9.97538 1.65205)
(43.1385 -6.8334 1.85673)
(32.5958 -5.60784 -0.605386)
(45.7725 -4.00742 0.104722)
(42.6234 -3.8418 -0.321967)
(50.0554 -3.19733 0.195523)
(49.319 -2.94665 -0.356977)
(52.6276 -2.30692 -0.378598)
(51.91 -1.85103 -0.894637)
(53.1698 -1.06313 -1.27833)
(51.0308 -0.264183 -1.45407)
(50.0241 0.933977 -2.22539)
(42.4662 1.46389 -3.56078)
(78.801 -123.474 -19.0874)
(-15.1889 -12.0382 -23.6488)
(86.5865 -22.6808 -18.3814)
(10.9432 -16.4245 -10.1407)
(56.3999 -15.7726 -0.710296)
(6.3909 -11.6587 -1.62541)
(42.3784 -3.68917 5.32249)
(16.5137 -3.08997 1.4798)
(38.0761 -2.89636 2.61472)
(26.3873 -3.11452 0.347638)
(38.2521 -3.69976 0.896172)
(34.0503 -3.47265 0.128013)
(40.8269 -3.63521 0.426675)
(39.5693 -3.04047 -0.0747491)
(42.8775 -2.58508 -0.0642563)
(41.9745 -1.84467 -0.549346)
(43.3618 -0.958578 -0.8915)
(41.3447 -0.109433 -0.897758)
(40.2128 1.1111 -1.44495)
(34.0104 1.39079 -2.7628)
(15.6213 3.31853 141.335)
(-106.247 -21.4874 19.6646)
(47.6455 -6.79752 4.27972)
(-56.3289 -25.0641 2.67883)
(39.602 -9.5532 0.470363)
(-36.0299 -12.2202 -0.0975426)
(28.3169 -6.73996 0.352662)
(-7.12215 -6.21461 0.652607)
(27.2894 -6.7874 1.17709)
(14.495 -6.68368 1.04726)
(31.2466 -7.49819 0.98108)
(27.1488 -6.53056 0.738827)
(35.6287 -6.38531 0.786264)
(34.5098 -4.99245 0.369742)
(38.3486 -3.83966 0.217833)
(37.6942 -2.51225 -0.20823)
(39.6387 -1.03681 -0.590062)
(38.1713 0.0237974 -0.622247)
(37.555 1.5453 -1.30203)
(32.0473 2.06202 -2.73604)
(145.913 51.8563 126.944)
(-3.74308 -44.0038 -2.69276)
(101.029 -14.9317 -2.13196)
(22.559 -16.2767 -0.367137)
(70.4858 -12.1276 4.05804)
(1.43657 -8.94948 -1.23666)
(39.717 -20.467 1.52864)
(5.55449 -5.69419 -0.491084)
(31.8166 -15.7849 1.34954)
(18.5865 -6.831 0.608564)
(32.7613 -11.3388 1.29022)
(28.123 -6.45553 0.90591)
(35.1403 -7.77091 1.16128)
(33.756 -4.81173 0.664509)
(36.9601 -4.60165 0.409662)
(36.0126 -2.73409 -0.0792192)
(37.9732 -1.60768 -0.419117)
(36.8418 -0.150548 -0.499186)
(36.512 1.27152 -1.2317)
(31.7354 1.94879 -2.48898)
(299.535 47.2091 -227.144)
(-21.3432 -8.50753 -3.41243)
(97.0399 0.911784 1.81633)
(-14.5059 -1.59446 1.817)
(61.1319 12.3231 9.6269)
(-20.5404 2.96381 0.647108)
(38.0316 -8.93168 2.20272)
(5.96332 -6.13854 -0.497774)
(28.7809 -14.5333 0.430288)
(19.508 -9.30101 0.186534)
(30.3047 -12.2338 0.509571)
(27.0343 -7.93455 0.5584)
(32.2814 -8.20582 0.694917)
(30.8992 -5.39391 0.355936)
(32.7449 -4.44937 0.229573)
(32.1277 -2.73016 -0.109568)
(33.6209 -1.41958 -0.457574)
(32.9486 -0.055029 -0.602262)
(32.6563 1.29219 -1.30363)
(28.4803 2.05186 -2.6313)
(310.442 -482.634 47.1793)
(-53.7252 -31.0037 -45.06)
(87.9223 28.5566 -36.1875)
(-50.5214 12.857 -3.01936)
(70.0365 19.1269 0.727797)
(-15.4277 5.07685 1.96268)
(38.2236 -35.4213 0.458365)
(7.19631 0.491066 0.916589)
(32.8991 -24.5246 0.228567)
(22.4281 -8.43631 -0.00219295)
(33.3431 -16.2478 0.0663618)
(29.2294 -7.3115 -0.147019)
(33.4943 -9.05473 0.180454)
(31.8867 -3.87327 0.217561)
(33.1813 -4.85014 0.396961)
(31.9544 -2.6427 0.269874)
(33.1212 -2.15565 0.0616752)
(31.9185 -0.816798 -0.304622)
(31.5532 0.451828 -1.06813)
(27.7941 1.41341 -2.43452)
(23.1371 -109.333 108.103)
(-114.267 15.8075 -105.003)
(22.9208 -1.18098 -15.4247)
(-93.3538 -0.43082 -1.87202)
(54.9791 -10.6158 0.461519)
(-17.3461 25.0304 2.52218)
(36.1651 -12.3999 -0.71999)
(16.3361 -7.34983 -0.743383)
(37.0647 -19.5235 0.121789)
(31.8866 -14.9974 0.221665)
(39.3931 -15.1121 -0.229955)
(36.5444 -10.6318 -0.0106116)
(39.5166 -8.3845 -0.0675414)
(37.6107 -4.64832 -0.103337)
(34.9958 -3.38041 0.494083)
(35.3058 -1.60818 0.463864)
(34.4343 -0.543579 0.351957)
(33.4647 0.194583 -0.0354334)
(32.4969 0.831021 -0.752577)
(28.7187 1.46292 -2.19085)
(96.2013 -123.801 -59.6499)
(-76.0274 -7.79241 6.09823)
(67.7219 -25.9854 13.1027)
(-31.0956 -13.1803 1.31225)
(63.7243 -29.0879 3.27174)
(21.9511 0.853588 -0.0195116)
(49.8633 -10.3657 1.09809)
(39.8951 -22.7493 -0.183088)
(47.0118 -21.824 0.218026)
(44.6397 -18.9941 0.0588099)
(47.258 -15.6629 0.181146)
(46.3602 -13.0687 0.86244)
(47.771 -8.91969 1.15375)
(46.7901 -5.45876 0.881753)
(45.4621 -1.42772 0.685496)
(39.5179 -1.50065 1.36199)
(39.1448 -0.209972 0.892227)
(36.6069 0.00663738 0.488811)
(35.5782 0.781996 -0.441902)
(31.3152 1.14163 -1.98487)
(100.346 -66.6108 -25.1358)
(-101.267 -21.9798 22.13)
(38.76 -50.4956 2.46616)
(-59.1593 -17.2728 6.82211)
(42.2581 -24.4568 5.38905)
(9.0052 -9.47842 -1.29299)
(46.5038 -13.0803 0.887819)
(51.1801 -21.8359 0.208013)
(51.1223 -22.2281 0.0835836)
(50.9278 -20.5566 0.310723)
(53.2367 -17.4114 0.791704)
(55.5169 -14.772 1.09351)
(57.029 -10.1432 0.987369)
(57.1501 -4.61132 1.16091)
(54.4722 0.730484 0.923092)
(47.6035 3.60338 1.4078)
(44.7356 2.79663 1.72809)
(41.2622 2.49709 1.31104)
(39.1916 1.787 -0.216068)
(33.6714 1.49368 -1.96376)
(184.156 38.29 117.667)
(13.1239 -51.3262 -29.2213)
(107.399 -55.9602 4.30515)
(-6.19552 -34.7993 3.46971)
(72.6715 -38.1856 6.31471)
(30.9868 -32.1891 3.64384)
(45.964 -25.2908 4.85381)
(48.7879 -22.1046 1.72033)
(48.6398 -22.4689 0.693803)
(50.9779 -22.1969 2.32904)
(57.9822 -22.4942 -3.07812)
(60.94 -16.9303 -0.764726)
(60.537 -10.859 -0.918827)
(60.0393 -4.61707 -1.56301)
(56.8899 1.71611 -1.46361)
(50.1171 5.92084 -0.182697)
(47.9209 7.72367 0.713485)
(44.3194 6.25331 1.03327)
(42.1458 4.25002 -0.0746387)
(35.7201 2.26757 -2.01644)
(67.9007 134.916 -23.246)
(-139.171 5.36709 -11.8374)
(87.6932 -42.0594 22.1679)
(-49.6303 -14.7935 0.0828588)
(53.5585 -23.1475 8.6859)
(16.7231 -30.4661 1.09575)
(46.0551 -30.0192 2.95034)
(46.0779 -20.5415 1.42841)
(45.3672 -23.6494 0.390433)
(44.7365 -22.7444 0.139527)
(46.2922 -20.7028 -0.301974)
(47.3662 -16.3577 -1.16056)
(48.7833 -11.0474 -2.02206)
(50.1858 -5.57076 -2.58464)
(49.9322 -0.466946 -2.28158)
(44.0593 5.13274 -1.25927)
(44.6698 7.50399 -0.658775)
(42.8258 7.50536 -0.0134016)
(42.0357 6.33873 -0.533043)
(35.7444 3.34322 -2.30799)
(158.677 -57.9032 -3.18742)
(106.16 -71.59 28.958)
(130.625 -69.3535 8.12684)
(18.1217 -31.7013 4.65449)
(80.9649 -36.4607 7.70507)
(16.8211 -47.0329 1.66954)
(40.9035 -17.6084 2.89438)
(29.2386 -19.7934 0.027514)
(39.1982 -22.9432 -0.124768)
(36.0689 -22.9022 -0.284365)
(40.5932 -19.6847 -0.100776)
(38.2739 -14.9364 -0.308378)
(40.9902 -9.85506 -0.551151)
(39.5236 -5.55674 -0.925673)
(37.3014 1.02656 -0.862653)
(39.087 2.40955 -0.94236)
(40.2687 5.75098 -0.791247)
(40.4553 5.93027 -0.308074)
(40.819 6.1904 -0.694052)
(36.456 3.71774 -1.9996)
(96.0887 11.1469 -185.321)
(-12.0928 30.8785 7.07216)
(131.171 37.7863 -19.96)