/*--------------------------------*- C++ -*----------------------------------*\
  =========                 |
  \\      /  F ield         | OpenFOAM: The Open Source CFD Toolbox
   \\    /   O peration     | Website:  https://openfoam.org
    \\  /    A nd           | Version:  10
     \\/     M anipulation  |
\*---------------------------------------------------------------------------*/
FoamFile
{
    format      ascii;
    class       volScalarField;
    location    "1.4";
    object      k;
}
// * * * * * * * * * * * * * * * * * * * * * * * * * * * * * * * * * * * * * //

dimensions      [0 2 -2 0 0 0 0];

internalField   nonuniform List<scalar> 
12920
(
494.556
1298.23
1133.02
699.186
432.669
310.168
249.109
210.87
174.316
145.818
119.373
111.253
110.566
112.442
115.118
114.965
111.949
104.252
93.7206
64.7054
3058.94
2637.34
1441.38
904.926
710.656
573.288
424.886
330.183
252.251
204.967
163.165
132.702
109.632
94.3146
81.6319
75.6377
75.0875
74.1858
71.9294
53.7971
2753.82
3323.12
2696.95
1323.83
886.509
697.155
472.547
359.041
263.938
214.302
165.99
122.196
86.7933
64.5199
55.1272
49.4706
44.1717
33.4399
29.1338
17.8099
2575.02
2946.47
1839.18
1057.68
657.361
464.446
298.398
205.184
123.643
113.822
102.09
84.3629
59.3653
39.627
25.8468
15.0605
8.681
4.74002
4.24576
2.4808
2266.2
2954.32
2080.4
1216.25
736.789
475.548
313.652
173.767
82.724
45.6614
30.6287
26.6799
16.9709
9.47148
4.3873
1.79091
0.796742
0.363316
0.323092
0.183617
270.3
693.044
1132.37
1268.86
1067.96
739.949
451.156
243.791
95.4006
32.5731
9.77825
5.25111
2.39312
1.01102
0.338703
0.0987442
0.0275878
0.00979096
0.0100801
0.00779497
310.45
1217.13
1288.63
971.868
717.082
520.112
378.492
199.341
78.5067
11.8883
2.15743
2.184
2.88295
1.75282
1.58899
0.751046
0.182717
0.0321887
0.00541691
0.00172155
1351.62
3444.02
2023.05
1115.08
851.419
631.006
355.96
215.007
102.106
14.8376
1.63009
7.59776
13.7167
9.61161
13.5783
6.71116
2.05258
0.458141
0.0789802
0.0110273
3833.99
4379.77
2224.59
1307.31
949.94
515.104
319.342
204.895
127.866
79.5312
10.1569
9.751
47.698
12.7964
19.48
17.0249
7.06967
2.15726
0.494803
0.0776459
529.515
1259.89
1558.41
1234.35
877.938
511.699
347.775
317.936
409.254
399.474
112.006
36.9696
52.0923
36.4731
19.4069
19.6635
9.75134
3.18752
0.843788
0.151837
324.918
1137.34
1310.54
1073.19
844.957
471.351
275.282
167.444
136.208
157.299
91.0782
43.7108
6.53657
12.9472
21.3733
35.1266
12.6652
3.50023
0.777833
0.122063
1231.9
2743.91
2659.16
1833.23
1190.98
629.593
319.465
191.279
197.284
149.656
59.7518
46.2464
24.2904
19.3573
39.3806
39.8834
13.5207
3.77235
0.918267
0.157425
5755.62
4385.77
3552.13
2254.92
1458.92
1020.94
558.197
306.245
215.539
177.479
133.219
92.7609
72.7715
47.5645
56.685
50.8679
33.9476
16.1842
6.13479
1.51392
6224.73
4388.06
2628.34
2185.27
1565.37
1038.71
659.91
402.811
270.201
187.54
141.234
109.413
89.6057
80.1369
74.2237
68.8874
64.1355
53.2344
28.439
8.76543
4626.06
2114.1
2136.98
2042.87
1622.99
935.168
465.154
265.146
187.432
144.704
114.408
90.7675
81.0875
80.2898
78.4331
70.2439
53.8819
35.8585
19.3742
6.58542
66.0655
1160.39
1450.9
1381.19
1105.5
625.236
356.161
258.404
199.243
153.859
113.522
74.4701
47.1157
31.3285
25.04
24.1852
24.6297
23.8489
19.1876
8.68762
3902.64
3350.07
2308.67
1171.62
763.335
632.638
544.804
465.73
335.247
223.2
127.399
63.6415
30.5378
16.4074
12.2746
12.0802
13.6005
15.1527
14.8912
9.80679
3451.82
2041.89
1246.59
900.125
684.464
632.392
568.054
531.349
444.932
344.678
246.333
169.453
113.631
73.0312
45.4437
27.6446
18.3872
13.4974
10.4815
4.72319
345.512
1374.6
1476.87
1309.11
856.256
653.123
490.801
361.412
260.339
180.001
129.005
99.6698
78.5107
55.9428
34.4141
17.8121
8.74394
3.94625
1.77501
0.506071
305.659
806.293
809.881
684.974
534.177
403.67
316.922
258.015
200.836
148.999
107.612
73.9611
46.579
25.0195
11.2019
4.16619
1.40261
0.414017
0.117
0.0253861
540.04
2347.31
2033.79
1416.27
939.029
650.205
478.817
393.282
330.151
301.291
278.022
261.473
244.428
227.24
210.422
182.71
154.011
140.569
138.763
128.632
5152.28
7492.6
3810.93
2138.47
1628.1
1289.18
926.032
755.499
587.297
505.494
416.398
345.793
265.016
185.646
114.104
74.9121
69.1495
71.0116
72.9835
60.8988
1949.81
6089.94
5962.9
3647.51
2062.21
1573.78
1055.88
844.815
628.199
519.227
392.692
280.207
171.784
92.1361
52.4188
35.7033
29.4577
19.0528
16.6271
11.0619
6540.36
5752.62
3925.13
2404.78
1479.56
1127.57
675.568
504.474
321.31
295.134
238.286
184.775
113.876
59.2209
25.2105
9.35281
3.46401
1.33975
1.32745
1.09272
8392.55
7424.62
4324.71
2609.46
1445.98
1081.69
587.684
346.685
141.767
80.8772
51.6331
46.2138
29.6392
13.3947
4.49424
1.26532
0.337565
0.0970337
0.085183
0.0696382
11140
7020.3
3574.81
3347.36
2086.82
1595.74
806.458
407.096
122.861
44.0345
13.6564
6.9407
2.99086
1.10548
0.379729
0.111729
0.0247204
0.00574284
0.00406258
0.00332997
3990.19
4185.71
3635.04
2320.64
1697.49
1262.99
939.016
376.985
114.853
24.2703
7.57777
4.20857
4.2768
2.35754
2.75304
1.34146
0.28745
0.0466756
0.00674492
0.00127773
7261.02
9740.59
5614.28
2786.23
2150.65
1569.38
1219.79
910.221
368.026
61.7447
12.4012
34.2623
34.7261
18.2449
26.1191
10.8219
2.87758
0.59461
0.10054
0.0132508
9252.94
11896.8
5837.25
3332.77
2245.07
1802.16
1412.07
1266.16
889.119
405.62
151.696
161.713
206.351
95.1479
71.6279
30.8964
10.0897
2.64818
0.598623
0.106068
2153.81
5018.66
4804.7
3583
2213.61
1780.7
1569.06
1579.33
1610.05
1447.09
584.774
234.31
240.847
216.094
41.3626
35.6081
14.8073
4.32524
1.05544
0.199915
1736.02
3252.97
3522.82
2684.78
1959.26
1470.99
1107.7
948.505
913.878
856.472
345.634
263.611
58.8263
94.131
28.1428
50.7369
24.6151
5.95657
1.2567
0.215198
4915.85
6254.78
5716.61
3752.79
2554.28
1860.73
1441.14
1224.72
1157
831.624
397.202
210.078
101.555
45.8089
67.32
83.0193
27.9064
6.58538
1.3566
0.223941
3402.79
8215.77
7200.8
4713.59
2994.94
2154.77
1561.01
1145.23
839.124
662.649
471.273
319.835
225.921
124.848
116.474
76.9061
42.3097
18.2773
6.70379
1.56992
7570.16
5680.91
5528.45
4761.86
3095.37
2089.57
1396.35
910.293
639.832
436.892
309.068
221.849
170.471
146.946
133.008
118.403
106.769
82.9718
42.3544
12.2629
9102.72
6227.23
5495.83
4927.29
2726.73
1459.18
812.638
573.093
435.13
347.03
296.307
272.131
261.822
238.928
209.196
164.618
111.12
66.2765
33.7828
10.9965
3056.98
4635.94
4168.72
3265.9
1817.69
1224.59
743.547
554.012
416.157
329.928
269.693
189.543
127.616
76.9215
47.5165
35.2358
32.8659
26.3926
19.0982
8.42169
5424.78
7358.83
6151.8
3439.61
2004.49
1653.1
1242.24
932.823
539.042
282.895
133.252
61.3662
27.975
13.378
7.64795
7.00735
9.29425
11.8831
11.7808
7.95118
6489.01
4863.87
3654.59
2511.93
1760.37
1605.99
1283.38
1138.85
870.153
627.958
356.431
177.291
88.7678
48.5859
28.9872
18.491
12.9202
9.04671
6.20312
2.35483
739.731
3878.19
3663.16
2990.89
1835.91
1430.84
908.667
713.719
504.928
357.299
218.841
131.945
79.0176
45.1563
22.1453
9.02175
3.40387
1.21094
0.47499
0.126013
458.931
1790.59
1956.69
1776.21
1260.63
857.041
626.921
507.741
383.561
271.04
173.945
101.812
53.8207
24.9472
9.6772
3.10558
0.85512
0.208444
0.0502279
0.0105243
1302.84
3884.19
2667.43
1656.68
1097.5
757.393
575.578
478.218
412.975
370.772
334.275
308.525
279.231
246.849
212.727
174.178
138.037
114.162
112.294
111.021
16734.1
9047.29
4774.87
2524.12
1960.44
1495.7
1128.73
939.524
768.857
696.822
585.161
480.953
340.866
211.929
112.16
56.9233
35.8811
35.6804
54.0166
60.9612
6026.84
7756.07
5896.31
3519.45
2433.72
1834.11
1287
1037.45
804.885
688.383
523.604
364.662
205.894
94.8253
35.2838
12.6721
7.49862
6.48394
9.93897
12.1693
9990.16
6159.52
4334.94
2813.1
1937.58
1386.21
950.989
714.968
495.977
444.64
333.388
236.503
127.559
55.4776
17.7009
4.41503
1.15048
0.63222
1.11401
1.45063
11558.8
7096.74
4941.88
2853.36
1859.96
1250.98
841.634
514.551
258.214
164.723
89.3572
55.2955
25.5074
9.46927
2.63194
0.591847
0.138466
0.0638873
0.0977632
0.119565
13405.2
6409.01
4883.19
3439.56
2228.44
1508.53
981.49
527.158
214.197
116.562
38.9307
13.1392
3.62086
0.917369
0.252519
0.0787256
0.0233777
0.00733014
0.00610735
0.00667302
4163.18
5863.56
4582.96
2863.17
2279.66
1530.72
1161.29
455.765
203.658
102.141
29.4483
9.51673
4.42002
1.26809
1.44486
0.914873
0.417917
0.157902
0.0404176
0.00558313
11931.7
10691
7221.02
3840.08
2787.86
1992.65
1667.76
1022.52
378.51
185.993
61.9566
71.6512
45.6179
17.7616
20.8646
10.2022
4.91113
2.82733
1.5317
0.439052
47884.8
21731.7
7628.76
4435.38
2858.8
2338.13
1911.17
1568.83
1019.77
654.152
286.208
293.2
222.788
138.802
154.431
59.7204
18.9388
9.83746
7.85424
4.61791
5343.68
7705.33
6943.21
5220.7
3123.56
2473.35
2096.25
1936.24
1784.95
1440.4
969.22
346.024
350.74
322.469
218.799
130.663
48.6672
18.7239
11.4654
6.15627
4263.99
6789.5
5739.64
3817.82
2721.46
2186.64
1870.66
1729.42
1738.32
1525.91
893.052
224.024
97.0146
239.629
74.9472
132.091
57.1581
22.2422
12.7687
6.66196
8514.21
9272.8
7156.25
4346.81
3028.29
2362.47
1985.66
1713.41
1522.28
1144.85
690.901
273.252
111.566
47.1368
66.4665
134.022
44.898
14.8882
8.00264
4.33891
7214
8046.78
8095.43
5773.21
3563.57
2544.84
2010.13
1469.38
1118.04
834.523
635.731
484.353
356.696
249.899
197.886
89.7182
35.2509
13.5433
5.15655
1.23736
8951.12
7423.66
6893.93
5436.69
3525.62
2301.91
1640.96
1167.42
925.518
708.522
561.707
440.418
346.72
286.397
244.874
207.983
158.846
90.4215
36.5713
8.6906
9242.36
8159.61
6013.19
4291.43
2489.06
1559.49
1073.4
816.613
705.402
592.739
508.822
426.128
349.954
275.097
210.418
151.546
96.3536
45.2603
16.6944
4.08171
5803.4
7112.8
5568.45
3813.2
2150.36
1464.23
902.457
640.269
515.315
424.907
370.883
271.113
191.254
111.024
60.8092
30.872
16.7326
7.84761
4.54271
2.01934
4835.94
7574.04
7159.51
4948.3
2969.65
2106.13
1296.27
769.339
393.074
210.108
129.335
70.1216
35.4602
15.2614
6.75778
3.20806
2.21276
2.40754
3.30677
2.5294
4993.36
7634.78
5637.65
3731.63
2492.8
1952.17
1384.99
1043.33
648.762
317.349
119.906
39.9728
14.0647
5.64803
3.04573
2.48757
2.34176
1.90948
1.16001
0.362163
6860.56
5621.77
5017.71
3555.31
2197.3
1627.13
1045.35
751.333
466.989
259.799
131.423
67.0634
32.8131
13.7542
5.17159
1.69664
0.505173
0.140067
0.0399769
0.00968749
1011.03
2539.57
2467.44
1949.28
1282.56
897.488
690.236
518.469
369.732
245.859
155.521
89.3836
45.3708
19.3105
6.95152
2.19199
0.598412
0.14455
0.0331939
0.00692275
8396.07
6784.4
3246.4
1722.27
1114.17
763.395
592.453
495.098
429.927
380.886
344.124
327.775
309.375
283.506
245.447
207.475
174.433
138.916
125.975
113.641
14573.4
11943
6262.02
2856.78
2196.17
1543.68
1289.24
1069.67
953.192
880.924
775.691
657.892
516.354
389.959
270.948
171.91
112.881
96.1709
110.654
127.211
9714.47
7261.28
5376.29
3492.23
2746.7
1896.06
1482.32
1165.87
991.565
858.322
697.61
521.884
346.241
202.879
104.984
49.1364
33.6106
34.5598
53.4629
58.15
13999.1
7991.45
4760.96
3188.71
2341.26
1548.84
1223.52
895.694
707.978
619.981
470.074
322.001
171.128
75.6056
27.7409
8.82526
3.90582
3.54737
6.0765
7.14493
10849.7
8247.91
5257.62
3123.85
2216.13
1368.22
1122.2
673.536
463.446
338.096
211.484
123.85
58.3908
21.807
6.88131
2.06707
0.866684
0.616212
0.767335
0.828255
16405.2
8375.96
5859.66
3573.62
2497.44
1497.81
1212.31
678.6
434.098
291.055
139.537
71.049
24.7944
8.39062
2.80064
1.30732
0.628652
0.255508
0.136454
0.141366
9251.24
7293.56
5165.69
3404.44
2748.43
1660.58
1308.54
611.265
452.838
245.216
86.1485
21.0045
12.7574
7.9869
11.4797
12.6975
11.4471
6.43916
2.27213
0.573219
19119.9
11546.9
8046.34
4458.39
3328.58
2187.24
1821.26
937.554
496.113
388.135
150.374
75.4879
26.9438
16.842
73.1774
71.6674
69.1741
61.8046
48.0874
23.1374
66692.3
17844
8400.48
5060.55
3291.56
2532.5
2075.52
1498.69
859.272
493.991
420.315
387.96
196.685
169.2
180.167
144.522
114.117
109.369
102.736
82.4578
38931.7
14501.2
9494.65
6336.28
3828.38
2825.14
2217.84
1880.56
1524.5
1166.15
864.385
516.815
483.142
480.097
467.962
296.194
172.524
134.642
121.077
94.4986
21147.1
10769.4
7998.19
4658.01
3368.41
2640.64
2214.27
1976.84
1800
1457.79
508.328
276.918
415.311
604.616
479.554
357.926
197.766
144.841
127.051
98.5631
14266.7
12287.4
9030.84
4802.45
3515.9
2699.11
2282.45
1877.71
1498.7
1060.59
624.476
315.441
367.617
512.132
492.447
254.797
137.425
108.997
100.617
83.7678
5082.29
9185.4
9542.33
6309.97
4123.99
2891.24
2294.66
1571.81
1237.36
964.88
843.1
746.86
636.777
531.75
232.415
111.386
65.0849
41.639
29.3299
15.4705
14042.4
9235.67
8401.65
5647.15
3894.25
2433.92
1837.4
1341.32
1147.62
954.751
857.279
750.929
617.104
449.162
315.073
209.875
121.997
51.0016
14.7368
3.37411
9279.4
9384.31
7137.14
4168.09
2733.67
1658.9
1370
1098.16
991.487
841.256
749.989
615.689
491.299
346.262
214.696
109.452
43.6868
12.8709
3.78421
1.63395
11201.4
9093.88
7053.83
4088.85
2524.99
1556.89
1066.28
757.756
684.567
570.205
507.403
368.479
260.513
144.463
74.6803
35.3855
17.7904
9.54979
4.11829
2.24534
7553.69
9907.48
8604
5250.26
3313.47
2040.17
1194.78
646.793
396.167
254.272
197.544
127.214
85.3295
44.7951
26.2099
14.0211
7.14927
2.8346
1.80631
1.44944
9872.15
9905
7069.99
4145.16
2892.4
1930.79
1334.69
817.851
427.886
195.759
104.391
61.6315
38.9868
21.2923
12.1582
5.12599
2.01485
1.28485
1.11759
0.916134
2656.47
8471.31
6910.13
3559.62
2283.96
1519.93
1020.34
633.667
347.628
180.275
101.536
58.8922
33.5966
18.3284
9.27966
3.68689
1.41712
0.75842
0.607676
0.57998
4435.41
3432.6
2634.52
1507.5
1080.28
802.869
639.322
457.243
314.313
206.257
131.785
76.3981
39.0409
17.2281
6.61218
2.18546
0.610513
0.148355
0.0357443
0.00990124
5609.57
4900.44
2311.31
1458.11
1001.81
704.502
556.332
461.428
394.405
349.725
330.679
329.539
331.946
327.06
306.578
271.602
262.752
256.45
237.722
166.818
26403.8
11056.8
5816.07
3147.05
2691.81
1672.27
1633.67
1210.18
1240.03
1036.5
1017.39
856.794
815.272
702.639
642.89
545.167
517.182
483.724
507.044
496.258
16092.7
8229.12
6038.09
3906.1
3345.7
2059.89
1843.75
1308
1285.24
1017.91
954.437
742.964
691.788
571.883
490.562
362.843
341.03
339.328
381.53
370.853
12112.4
11014.6
5778.13
4197.49
2917.62
1948.34
1628.95
1107.99
1050.46
803.373
724.343
515.239
431.747
312.47
227.924
138.256
102.556
94.7898
110.583
107.992
29435.8
10493.3
6306.24
4135.9
2778.97
1815.22
1555.69
886.298
831.935
572.894
514.539
358.505
302.476
185.553
117.895
65.6398
47.9969
40.4133
42.2842
42.6416
20293.9
12046.9
7332.79
4565.64
3072.73
1941.11
1656.23
926.927
799.979
523.777
378.47
274.795
177.241
112.527
64.6007
40.585
26.321
19.971
18.9508
21.0041
41446.2
10227.1
5920.06
4716.96
3260.99
2107.1
1760.68
961.842
843.526
428.715
228.017
108.923
119.085
102.166
122.974
135.519
131.587
96.1365
57.9851
37.7252
24349.3
12259.2
8420.69
5236.67
4109.25
2503.36
1964.02
1071.59
827.376
579.744
320.385
163.607
181.727
206.146
318.052
321.635
317.422
316.349
299.97
238.212
39671
13417.8
9404.06
5913.81
3669.25
2648.08
2208.93
1353.3
891.77
732.318
649.249
457.597
315.314
326.168
373.347
383.128
373.169
380.849
380.138
370.484
45270.9
15692.8
12910.5
6677.66
4464.43
2901.37
2267.63
1711.04
1208.96
910.12
813.35
698.09
602.444
634.716
600.582
465.578
413.875
410.512
406.412
393.55
24330.6
16624.5
10157.4
5514.74
4062.3
2874.63
2389.02
1908.23
1418.79
1018.89
757.976
736.237
916.389
971.182
845.748
523.383
439.125
425.069
418.473
406.09
12441.7
13318.4
10850.2
5222.56
4272.51
2994.28
2607.13
1935.67
1372.42
1010.8
883.36
874.242
1056.46
1005.81
830.941
458.726
408.866
404.345
406.503
405.601
20341.9
12556.6
11484.8
5906.51
4967.12
3304.74
2569.78
1673.78
1421.74
1204.34
1184.77
1131.09
1003.92
768.806
418.25
371.267
356.723
328.022
307.821
246.134
16659
11032.7
9867.07
5634.68
4677.08
2620.15
2137.85
1571.35
1415.97
1174.24
1172.21
1027.33
892.159
664.744
520.72
349.377
236.569
145.494
110.793
85.1729
12836.7
10352.5
8731.17
4496.34
3507.37
1884.24
1874.94
1422.22
1339.42
1073.82
1017.13
793.919
695.135
497.15
364.889
216.553
137.698
95.3666
83.5799
80.4554
24782.6
10928
8670.38
4173.24
3332.99
1642.9
1481.9
967.726
972.305
728.348
694.829
521.542
471.767
325.659
247.29
156.779
119.482
99.1776
98.3626
98.3726
15569.2
12614.1
9957.94
4957.35
3817.22
1794.52
1385.4
697.307
644.396
463.987
459.823
374.09
327.519
208.018
149.753
101.214
84.6673
79.2193
80.0393
83.7944
16738.5
12319.3
8477.46
4267.68
3591
1836.99
1540.95
724.102
605.282
414.726
427.574
345.521
299.786
202.775
152.654
98.7594
83.6687
76.1586
77.0901
77.19
11297.5
14166.1
10005.8
3660.68
2873.87
1425.63
1221.45
632.973
501.569
326.771
306.699
257.303
248.977
222.008
195.946
131.607
85.7589
64.5812
60.8401
60.5763
2091.89
3825.79
2483.92
1143.27
918.608
672.198
487.796
318.981
209.191
136.506
88.151
52.8601
28.7754
13.9021
5.92075
2.07545
0.641211
0.242317
0.187371
0.250846
1054.84
1627.55
1038.22
1253.9
1077.88
1570.12
809.403
451.333
978.37
480.972
970.79
483.31
610.61
249.409
944.268
1236.29
918.684
1569.42
787.205
1245.98
901.537
446.777
802.827
366.127
549.904
174.836
709.071
257.453
211.675
328.409
286.909
1128.1
1110.4
1367.7
1355.78
174.152
305.489
366.723
1096.88
899.333
1369.1
1386.7
59.1471
368.486
313.171
770.254
336.977
1368.8
1229.59
22.6761
207.194
113.542
331.112
192.254
1043.45
458.193
10.3842
120.236
45.2375
104.637
107.132
449.944
245.573
45.1425
38.9935
42.8473
123.456
188.947
194.148
213.753
20.7985
63.2442
51.5701
186.982
117.001
232.352
214.455
6.90758
27.0474
10.263
84.5104
58.2434
172.182
43.8006
300.045
296.081
202.805
1277.41
1374.24
796.326
781.492
403.2
187.05
182.719
1404.38
1475.46
779.285
835.43
427.705
193.492
260.199
1479.14
1436.35
890.139
1013.1
109.836
272.223
166.813
1361.27
585.168
1005.21
573.913
53.1909
106.844
72.9218
480.669
301.767
413.993
371.761
33.2134
36.8862
6.51486
204.276
189.091
221.085
71.0225
58.6762
6.31831
27.2003
217.61
222.345
76.5707
128.283
10.047
27.9288
9.15616
197.23
53.2356
128.198
41.1911
184.069
290.481
196.2
772.513
726.703
1106.51
1031.19
137.158
184.774
184.064
698.215
653.169
1004.83
975.989
152.249
186.832
174.03
654.653
659.379
958.502
820.964
113.152
143.814
61.7002
634.509
302.336
682.044
247.849
80.8426
62.9323
72.8165
276.99
339.993
239.136
258.804
8.33182
60.4232
28.3757
236.415
55.5431
219.695
104.374
11.6898
25.757
19.4821
47.8024
75.4597
84.4907
43.6031
9.11383
18.6589
9.55694
80.9498
24.9929
31.5037
35.8465
206.552
438.627
249.114
1163.92
1054.87
1146.99
1021.62
190.638
228.351
155.514
1026.76
1008.53
959.563
808.84
186.219
155.761
144.972
997.118
851.313
767.113
679.797
61.139
136.777
77.3505
708.051
334.03
624.903
425.015
53.6586
71.6763
52.0002
292.06
217.602
381.868
251.29
25.9462
44.5389
24.6944
173.9
92.424
219.737
136.946
21.3891
24.639
22.708
80.1724
53.2155
126.287
96.8438
10.7925
23.8926
24.2587
42.1515
37.3929
80.4478
80.1043
1294.55
1630.25
1537.69
1828.96
1607.84
2050.26
1845.43
1018.77
1538.29
1518.13
1536.06
1170.61
1813.2
1680.7
438.777
1486.63
1327.24
1027.06
684.73
1614.38
1375.73
241.731
1153.85
569.449
630.35
328.927
1248.21
858.228
149.078
527.628
292.131
261.337
253.938
797.175
386.107
209.354
224.635
244.011
264.872
255.245
320.953
334.336
127.089
259.025
233.15
229.476
140.86
333.306
286.521
66.6553
191.35
57.4851
127.429
128.052
260.205
180.008
1563.66
1134.57
1029.72
2006.67
1902.01
1732.6
1656.53
1614.55
1023.18
1075.59
1890.52
1830.7
1655.26
1714.03
1533.69
1128.4
1205.04
1788.46
1588.97
1737.99
1669.05
727.047
1180.88
670.875
1475.81
1001.99
1575.05
978.562
352.885
501.461
436.597
891.954
443.062
904.973
479.74
213.143
250.603
80.9339
316.949
302.779
258.083
110.456
241.57
88.4203
135.579
318.617
306.65
115.003
208.786
62.2633
135.764
60.4482
287.261
166.086
223.88
137.258
980.458
1385.25
1238.49
1710.25
1607.18
1858.31
1669
910.905
1206.11
1154.76
1582.41
1579.95
1629.55
1544.1
902.367
1128.6
961.394
1590.38
1516.76
1505.93
1287.6
387.661
815.847
367.906
1413.7
828.68
1159.03
820.045
403.442
342.339
308.687
793.394
458.562
735.616
380.147
64.8749
244.387
125.773
248.047
79.334
282.763
148.606
89.204
103.378
50.9899
82.4746
153.481
104.413
43.7077
36.5703
35.5241
35.381
173.942
100.468
37.3062
25.9982
1257.57
1486.71
1255.12
1881.76
1669.41
1912.61
1636.75
1180.69
1161.75
962.558
1628.15
1521.31
1513.55
1243.79
972.686
910.968
788.299
1469.64
1217.14
1175.09
962.872
459.388
719.06
495.344
1099.15
773.574
872.422
617.26
263.816
443.536
288.984
660.291
350.807
555.273
369.548
118.006
254.926
161.761
275.357
157.227
336.441
231.434
60.4827
148.247
107.944
124.234
48.8711
210.553
132.246
36.9645
92.6364
88.5374
39.4774
26.5471
117.377
125.341
1656.44
2120.15
1887.11
2050.27
1674.45
2199.13
1883.47
1166.5
1843.62
1677.82
1537.02
1042.83
1807.79
1539.15
715.201
1600.32
1342.32
903.725
631.4
1432.44
1155.84
336.051
1231.49
922.264
536.57
377.92
1091.42
942.127
286.884
863.909
405.486
378.707
385.913
828.056
490.781
256.673
357.073
363.856
370.076
239.233
484.52
440.161
146.149
357.882
308.834
197.284
161.935
417.815
385.797
138.474
288.954
226.365
159.366
138.925
384.986
383.227
1956.77
1891.18
1804.39
2208.81
1977.46
2166.01
2032.39
1841.49
1804.09
1849.84
1923.46
1712.73
2013.96
1953.96
1551.08
1857.57
1734.01
1618.45
1331.78
1905.23
1646.67
1422.18
1318.08
1579.6
1390.81
1444.3
1289.3
1540.68
962.331
883.657
1037.05
1019.3
948.156
892.783
1084.39
340.112
247.097
128.877
464.113
454.086
229.659
314.788
338.808
137.307
277.434
452.25
449.588
357.301
525.777
217.048
287.829
175.367
440.56
402.884
521.174
385.584
1751.76
1972.66
1765.06
2156.74
1992.06
2204.51
1944.23
1734.4
1723.23
1625.21
1963.93
1903.83
1882.09
1700.71
1625.47
1581.32
1352.95
1865.03
1630.54
1625.84
1347.74
1326.67
1317.78
1397.93
1565.24
1224.82
1204.39
1477.19
747.771
841.389
903.683
790.409
799.15
714.631
929.715
90.9865
267.502
119.967
172.916
252.651
190.391
123.252
220.157
81.0426
52.8789
299.068
509.217
149.742
383.407
143.335
53.5454
27.7745
508.166
368.406
388.539
271.724
1759.48
2015.32
1717.76
2215.47
1931.25
2262.92
1865.38
1583.28
1586.13
1297.88
1858.58
1627.54
1705.04
1376.87
1255.9
1224.17
988.52
1534.41
1219.64
1287.93
1014.1
817.213
894.012
638.676
1110.5
769.293
926.042
719.294
348.873
577.8
396.136
638.643
325.048
673.546
547.645
148.812
363.806
263.188
266.749
187.756
526.408
469.098
52.5393
240.656
157.27
202.139
357.316
453.809
398.855
26.763
141.423
150.406
358.797
257.474
375.708
338.269
1654.07
2199.67
1853.5
2163.36
1568.71
2210.13
1762.95
989.772
1765.35
1462.71
1370.29
910.434
1633.22
1243.63
582.36
1348.69
1073.62
836.839
662.86
1128.6
885.1
416.929
1016.49
864.286
628.27
598.348
832.691
742.231
413.767
738.592
535.818
579.362
485.938
720.796
677.087
236.735
528.902
456.415
428.555
278.322
628.522
489.567
171.913
430.244
412.605
260.442
267.188
475.688
494.906
145.741
416.38
421.367
265.408
266.703
501.07
492.987
1948.24
2217.75
2045.64
2240.51
1847.85
2320.49
2007.13
1629.6
2013.83
1891.77
1734.22
1371.24
1915.87
1594.79
1233.93
1819.1
1529.99
1250.75
975.113
1474.93
1157.47
1001.58
1452.28
841.883
914.988
779.908
1071.08
729.755
522.765
606.377
298.289
736.222
692.879
647.17
641.714
485.679
317.985
404.503
655.777
561.264
638.134
673.336
485.088
452.94
608.835
560.973
588.519
741.416
841.999
454.487
601.239
470.314
589.636
567.22
825.563
736.157
2016.06
2267.44
1976.38
2339.42
2015.29
2466.94
2054.38
1862.13
1901.28
1674.22
1919.88
1603.69
1922.9
1535.6
1525.27
1585.12
1284.36
1486.99
1166.91
1414.05
1089.27
789.596
1181.47
818.536
1081.14
717.68
1000.41
788.062
251.675
634.25
277.155
639.22
617.348
731.738
638.544
352.812
221.951
226.757
620.381
699.243
643.271
798.906
610.515
309.704
536.748
784.881
897.149
874.251
937.914
458.348
532.807
412.373
876.718
769.373
906.62
820.822
1964.73
2338.78
1890.77
2509.6
2054.12
2587.91
1950.9
1602.94
1722.92
1385.69
1911.32
1501.48
1762.76
1426.49
1169.59
1293.9
1021.73
1378.2
1059.87
1342.56
1114.44
738.131
942.139
765.365
977.279
816.499
1062.36
977.137
361.997
727.45
625.44
781.072
714.534
960.982
928.206
309.408
610.512
571.209
721.114
843.187
926.046
912.336
520.126
559.104
508.747
893.412
920.903
896.752
831.627
410.8
483.35
412.358
885.808
811.078
788.253
623.707
1560.06
2236.23
1758.56
2556.31
1836.78
2550.86
1995.59
942.433
1615.12
1213.86
1591.78
1312.18
1815.85
1439.1
765.254
1107.98
898.796
1308.33
1278.45
1378.4
1263.01
676.363
858.403
813.654
1207.11
1118.15
1249.58
1240.98
522.591
806.784
724.889
1068.91
906.255
1223.32
1033.47
325.41
659.743
520.919
807.746
744.196
948.716
875.259
326.844
513.042
535.808
736.341
751.256
874.018
884.386
330.397
540.105
521.488
740.304
707.452
885.008
827.366
1839.67
2362.57
2005.6
2563.76
2068.57
2675.11
2227.15
1325.67
1893.96
1528.82
1899.2
1501.86
2068.33
1631.13
958.513
1403.42
1085.86
1412.33
1259.87
1503.02
1271.41
826.723
1005.45
786.485
1243.98
1236.05
1235.99
1211.45
750.985
757.01
744.617
1226.16
1065.3
1208.54
1142.15
597.972
730.275
777.576
986.631
935.582
1127.88
1227.82
633.899
849.255
926.837
952.162
969.157
1292.44
1302.98
602.289
905.923
809.626
967.116
894.534
1276.81
1140.6
2024.28
2552.55
2094.72
2706.61
2256.63
2983.49
2383.86
1542.61
1941.8
1512.01
2092.16
1648.01
2178.21
1690.98
1098.83
1387.54
1079.03
1518.97
1283.78
1573.86
1341.84
790.292
1005.91
869.585
1247.46
1217.38
1303.89
1270.78
735.025
840.424
795.781
1213.01
1175.88
1271.26
1310.21
832.359
809.11
980.252
1183.44
1333.18
1353.44
1553.82
998.264
1045.09
1067.8
1401.22
1401.83
1593.23
1530.37
856.394
1027.69
917.156
1366.09
1211.44
1482.43
1289.2
2098.31
2684.99
1981.29
3059.4
2398.29
3127.46
2248.65
1493.99
1789.67
1466.52
2187.68
1710.39
2077.72
1768.08
1078.04
1389.46
1182.39
1605.49
1379.58
1716.37
1534.74
903.282
1136.85
1076.36
1338.54
1309.45
1504.72
1486.89
858.206
1067.5
1053.93
1312.77
1365.18
1501.96
1515.14
1015.57
1054.16
1038.7
1407.76
1575.66
1520.89
1490.34
1048.19
1019.1
928.819
1593.84
1510.41
1476.81
1290.4
899.068
873.201
679.973
1461.17
1268.75
1235.91
1008.18
1282
1185.23
1134.2
1093.18
1285.05
1188.41
1163.3
1476.11
1638.47
1445.17
1640.52
1489.87
1624.63
1366.08
1284.21
1143.7
1203.58
928.603
1306.25
1133.65
1071.57
1385.11
1328.7
1195.24
1397.74
1249.59
1479.23
1327.12
1268.52
1102.67
1144.06
1149.58
1177.27
1171.22
1236.52
1454.04
1618.07
1508.12
1389.29
1581.81
1316.23
1411.34
1261.92
769.877
1100.44
1092.71
1116.72
975.135
1241.46
714.07
677.261
475.598
455.179
741.544
654.015
465.982
961.758
1047.02
900.549
871.069
959.616
1055.12
769.842
716.663
471.953
728.276
387.255
756.585
442.774
593.908
925.068
1018.64
775.498
1036.34
857.815
1085.22
824.737
658.705
462.616
576.84
456.504
615.914
454.837
593.187
901.258
663.092
974.394
480.095
1038.24
580.727
767.531
622.417
306.43
401.844
350.01
410.18
461.922
536.882
1177.75
1089.6
956.769
849.204
1053.01
967.399
1065.02
1257.45
1306.36
1117.91
1278.98
1162.94
1378.12
1172.98
1145.22
951.491
1014.95
964.056
1032.7
1045.89
1074.78
1381.01
1586.34
1354.16
1478.81
1215.31
1509.94
1365.45
1222.53
731.9
1039.86
990.4
917.795
1057.4
1205.49
1296.01
1281.4
1370.09
1147.46
1399.82
1181.06
1276.41
1190.24
955.916
996.75
1041.91
1055.16
1080.18
1167.74
516.212
688.937
389.078
335.856
611.779
546.882
299.821
718.279
873.972
657.465
817.133
739.422
906.997
643.747
501.064
380.893
502.409
328.159
557.69
311.685
470.979
573.449
604.679
339.21
682.903
449.011
854.455
392.051
317.26
183.348
214.545
148.789
274.741
175.216
225.057
624.207
788.539
750.213
511.337
869.056
589.655
481.343
389.485
282.195
179.335
360.16
219.414
411.456
284.217
269.115
350.948
304.311
679.688
724.582
678.358
769.87
145.36
262.507
184.015
632.079
378.4
721.412
540.408
59.3449
117.012
103.77
250.921
169.733
318.116
273.363
2.96321
69.7219
17.672
43.4032
6.2851
188.161
49.9767
3.03518
5.52382
5.82128
2.79042
6.39592
15.8513
20.748
12.6473
13.112
36.8836
17.3259
24.902
50.5762
92.8312
12.6791
40.5217
31.6635
25.5837
22.5069
94.8264
74.9821
5.27953
17.969
15.5513
13.9732
11.7504
38.7677
32.6471
481.057
521.006
495.25
1085.33
1051.84
1117.86
1226.52
548.036
255.765
303.705
497.266
510.529
516.858
255.431
654.314
199.448
228.779
576.337
573.101
642.67
230.262
482.941
76.4522
212.529
361.398
221.805
592.99
178.553
227.307
78.402
68.5012
223.211
222.043
190.938
84.4326
95.1384
8.17355
37.8174
38.4724
27.9966
139.331
26.5722
100.924
12.7608
25.7487
42.0868
62.6117
93.9066
25.7628
149.643
46.0217
59.0674
132.265
127.386
153.018
57.9441
40.4854
9.65717
17.2418
48.9126
36.42
61.1471
11.7779
17.9757
21.2632
20.5013
44.8642
31.2028
33.8779
27.8008
471.26
502.63
421.57
937.784
992.246
814.303
728.399
569.644
300.168
330.319
548.551
634.993
514.024
284.134
819.929
347.923
286.659
846.273
908.786
758.142
309.312
1002.46
419.942
390.117
1011.23
1022.58
979.983
401.236
904.088
313.407
429.474
956.848
717.109
1018.57
387.8
325.464
113.88
108.507
326.637
323.522
324.446
112.955
104.054
28.4511
37.2666
127.666
118.009
123.85
24.0483
157.718
64.3562
31.3851
158.993
173.703
131.101
52.083
99.7082
16.9752
44.223
142.132
87.831
146.431
20.5863
20.2408
17.0741
21.4781
26.9011
20.1245
23.3815
23.2574
398.033
504.389
432.135
795.117
720.996
963.716
978.349
363.588
231.071
275.563
362.752
336.594
381.014
229.677
257.714
153.79
159.499
269.98
246.496
281.959
145.505
205.573
137.054
124.984
221.707
225.836
222.936
119.793
129.905
156.816
111.937
260.516
251.385
158.852
108.393
221.432
94.4186
77.8391
189.541
240.454
169.337
90.5135
96.4194
22.8568
58.3828
136.058
69.2924
156.319
35.3336
17.5915
6.39801
14.3929
13.9514
14.069
25.4792
9.82024
9.57866
11.2943
7.83607
35.5216
31.0185
10.8745
8.42351
28.897
31.2968
37.9789
26.1201
46.5983
52.9796
84.0469
512.658
743.352
605.351
1146.38
1080.52
1160.03
1071.55
525.218
259.028
331.283
517.157
519.472
527.421
270.341
490.777
183.826
191.625
503.371
506.917
492.862
176.135
537.51
199.175
185.141
554.738
554.353
536.689
188.904
252.303
98.5895
136.441
384.098
229.613
378.006
93.4371
131.308
60.0941
58.3258
133.139
139.236
136.59
56.7252
52.084
37.1643
36.7033
93.2743
69.0921
69.7789
30.3153
38.2783
23.0993
21.9648
41.6822
38.8938
38.49
21.5656
21.8524
15.3041
17.2961
29.4321
21.6701
25.7228
16.1215
40.1618
41.5588
35.8531
76.5999
94.4595
84.3404
88.0667
405.787
564.914
431.796
910.539
883.28
926.088
869.274
253.741
316.187
280.076
786.437
647.592
722.826
578.941
198.576
216.591
178.828
576.633
555.634