/*--------------------------------*- C++ -*----------------------------------*\
  =========                 |
  \\      /  F ield         | OpenFOAM: The Open Source CFD Toolbox
   \\    /   O peration     | Website:  https://openfoam.org
    \\  /    A nd           | Version:  10
     \\/     M anipulation  |
\*---------------------------------------------------------------------------*/
FoamFile
{
    format      ascii;
    class       volScalarField;
    location    "1.4";
    object      k_0;
}
// * * * * * * * * * * * * * * * * * * * * * * * * * * * * * * * * * * * * * //

dimensions      [0 2 -2 0 0 0 0];

internalField   nonuniform List<scalar> 
12920
(
495.833
1307.72
1137.87
700.11
432.714
310.738
249.55
211.212
174.536
145.938
119.47
111.43
110.784
112.666
115.327
115.156
112.124
104.365
93.7639
64.5522
3108.39
2641.89
1446.56
911.608
713.401
575.059
425.943
330.693
252.579
205.079
163.165
132.627
109.608
94.2784
81.6275
75.7323
75.2029
74.3039
72.0002
53.6684
2720.36
3380.1
2707.3
1322.41
889.198
699.584
473.958
359.75
264.474
214.507
166.028
122.101
86.6949
64.4774
55.1392
49.485
44.1471
33.4026
29.0795
17.7069
2540.28
2962.55
1864.62
1066.83
661.246
466.272
299.336
205.641
124.004
114.117
102.311
84.3898
59.3247
39.5599
25.785
15.0132
8.65525
4.73132
4.22845
2.46268
2422.33
3013.4
2085.77
1218.86
738.597
476.549
314.099
173.966
82.7854
45.7544
30.7292
26.7134
16.969
9.45065
4.37629
1.78635
0.794473
0.362164
0.321023
0.181849
265.894
694.462
1146.13
1279.31
1073.17
741.788
452.233
244.114
95.5726
32.7048
9.84189
5.26368
2.39482
1.01108
0.337922
0.098282
0.0274883
0.00977693
0.0100148
0.00771456
294.735
1203.3
1293.29
978.566
719.788
521.796
379.404
200.225
78.8868
11.9839
2.15168
2.15656
2.84531
1.73763
1.57143
0.743053
0.180511
0.0318206
0.00537389
0.00171703
1336.95
3408.86
2032.2
1119.01
853.665
632.71
357.993
215.198
102.453
14.928
1.61533
7.54189
13.6069
9.59982
13.5148
6.66506
2.03714
0.454239
0.0782577
0.0109399
3760.73
4377
2241.06
1314.36
954.908
519.513
322.179
205.144
126.295
79.7985
9.95854
9.61294
47.3234
12.7282
19.4961
16.9926
7.03629
2.14401
0.490923
0.0769405
542.727
1250.12
1562.69
1237.05
880.008
515.221
352.386
320.173
411.223
399.922
112.8
36.6081
51.9458
35.7498
19.4777
19.6137
9.69774
3.16957
0.838201
0.150588
277.386
1120.86
1304.46
1074.69
846.992
475.162
278.509
169.215
138.103
159.315
91.2936
42.869
6.53996
12.8744
21.4678
35.0214
12.5988
3.47628
0.771086
0.120753
1186.7
2734.54
2653.71
1831.76
1190.52
630.891
321.44
191.685
197.408
147.456
60.2012
45.7721
24.3086
19.3259
39.5308
39.7145
13.4364
3.74137
0.908305
0.155382
5782.13
4437.02
3566.91
2260.12
1458.72
1020.38
559.355
306.226
215.633
177.515
133.272
92.8605
72.7761
47.5042
56.739
50.847
33.7894
16.0611
6.07419
1.49808
6320.13
4386.99
2632.24
2198.84
1569.16
1038.84
660.2
403.229
270.503
187.742
141.395
109.508
89.7124
80.2528
74.3144
68.9885
64.2138
53.1567
28.255
8.69213
4462.07
2103.34
2144.58
2048.18
1626.56
932.984
463.349
264.63
187.415
144.748
114.443
90.845
81.2297
80.4254
78.5206
70.2011
53.7961
35.7383
19.2672
6.53885
73.8139
1204.6
1461.27
1390.22
1108.45
623.164
355.256
258.122
199.195
153.757
113.415
74.349
47.0547
31.3135
25.0768
24.2256
24.658
23.854
19.1363
8.64757
3834.91
3383.61
2288.9
1159.92
761.674
633.764
546.253
466.084
334.978
222.647
126.871
63.3133
30.4099
16.365
12.2796
12.097
13.6326
15.1668
14.8875
9.76972
3604.45
1980.41
1237.61
899.195
685.779
634.675
570.639
533.515
446.08
344.966
246.236
169.189
113.36
72.8305
45.294
27.5523
18.3454
13.471
10.4433
4.69185
369.531
1391.56
1486.79
1310.52
855.409
653.881
491.312
361.611
260.307
179.836
128.963
99.7027
78.4627
55.8127
34.2691
17.7133
8.68947
3.91791
1.76017
0.500584
334.656
816.02
811.137
683.063
533.424
403.321
317.199
258.255
200.82
148.862
107.455
73.7938
46.4165
24.89
11.1255
4.1337
1.39061
0.409975
0.115597
0.0250652
507.173
2327.76
2030.29
1419.51
940.145
650.984
479.502
393.788
330.668
301.801
278.529
261.906
244.811
227.575
210.678
182.813
154.121
140.841
139.002
128.757
5699.76
7554.73
3823.57
2151.34
1633.9
1293.22
928.234
756.439
587.981
505.697
416.425
345.519
264.599
185.069
113.65
74.7162
69.1041
70.9836
72.9026
60.72
1919.45
6190
6067.19
3644.93
2065.02
1578.01
1059.03
846.267
629.236
519.497
392.626
279.756
171.261
91.7181
52.2163
35.5979
29.3513
18.9666
16.5443
10.9961
5814.34
5808.78
3975.94
2425.69
1486.11
1131.96
677.459
505.76
322.406
295.684
238.66
184.759
113.736
59.0425
25.1092
9.30328
3.44364
1.33402
1.32081
1.08434
8762.7
7495.13
4322.21
2610.48
1450.45
1083.34
589.284
347.336
142.117
81.0327
51.8177
46.3037
29.6585
13.3765
4.48439
1.26138
0.336368
0.0967422
0.0846553
0.0690404
11662.3
6938.1
3600.64
3358.41
2095.59
1596.97
808.843
407.869
123.381
44.1982
13.7114
6.95272
2.99165
1.10467
0.37775
0.110782
0.0245556
0.00572324
0.00404705
0.00330272
3942.8
4167.56
3651.88
2337.74
1700.9
1267.12
941.878
379.295
115.226
24.3678
7.53627
4.15237
4.21113
2.32918
2.71078
1.3263
0.28404
0.04616
0.00668294
0.00127275
7187.74
9841.72
5664.68
2799.77
2155.62
1573.41
1221.68
911.608
368.749
61.9211
12.1795
33.9336
34.4101
18.1152
25.8978
10.7187
2.85201
0.588919
0.0995581
0.0131361
9200.68
11575.6
5881.06
3352.11
2253.8
1809.41
1415.29
1267.83
886.895
404.987
149.977
160.903
206.002
94.5713
71.4573
30.7861
10.0285
2.62805
0.593273
0.105002
2015.11
5023.89
4838.07
3600.67
2215.7
1785.54
1577.18
1587.57
1616.21
1446.55
583.057
231.397
241.052
215.378
41.1027
35.4609
14.696
4.28948
1.04587
0.197944
1600.48
3216.47
3505.03
2692.97
1962.18
1475.04
1111.37
950.8
917.879
857.369
349.445
256.733
58.7115
94.075
28.0488
50.5872
24.386
5.8972
1.2433
0.212701
5003.38
6220.93
5710.74
3747.57
2554.34
1863.53
1443.99
1227.25
1158.22
826.334
397.385
208.199
101.047
45.4351
67.8743
82.7339
27.6974
6.52187
1.34056
0.220993
3658.53
8344.03
7267.45
4714.14
2994.47
2154.51
1561.29
1146.77
840.361
662.798
470.88
319.818
225.412
124.686
116.404
76.6808
42.0704
18.1171
6.62623
1.54971
7371.93
5666.4
5581.89
4774.06
3097.35
2089.03
1398.62
911.861
640.502
437.266
309.086
221.825
170.449
146.955
133.004
118.466
106.822
82.7405
42.0457
12.1372
8858.82
6282.27
5544.82
4955.97
2721.73
1454
812.08
573.019
435.259
347.168
296.589
272.514
262.113
239.084
209.234
164.427
110.836
66.0042
33.5625
10.904
3094.06
4659.06
4166.57
3260.08
1810.64
1220.08
741.651
552.908
415.885
329.843
269.714
189.429
127.449
76.7906
47.4392
35.2566
32.8517
26.3194
19.0085
8.37125
5446.4
7431.18
6181
3415.67
1996.42
1653.88
1243.23
931.269
536.838
281.078
132.417
60.9942
27.8073
13.2978
7.61941
7.01014
9.3198
11.8752
11.7649
7.91114
6296.34
4894.29
3664.92
2514.18
1763.71
1609.94
1287.47
1141.83
871.386
626.801
354.683
176.11
88.1695
48.2909
28.827
18.4003
12.8638
9.00106
6.15756
2.33106
808.588
3899.97
3677.33
2992.64
1834.33
1429.71
908.175
713.911
504.748
356.709
218.193
131.445
78.6977
44.885
21.9632
8.93529
3.36904
1.19822
0.46946
0.124449
491.792
1813.03
1969
1780.59
1258.44
855.137
626.719
507.767
383.175
270.492
173.399
101.378
53.5328
24.7774
9.59368
3.07529
0.846089
0.20605
0.0496174
0.010402
1387.82
3826.22
2635.92
1656.95
1099.12
758.597
576.538
479.006
413.742
371.403
334.85
308.99
279.562
247.07
212.859
174.198
138.015
114.265
112.474
111.188
15797.4
9186.66
4809.01
2539.18
1967.12
1500.31
1130.99
940.9
769.794
697.301
585.369
480.623
340.238
211.183
111.674
56.6581
35.7932
35.6536
53.9849
60.8619
6055.75
7858.25
5935.1
3521.54
2441.78
1839.18
1290.5
1039.32
806.151
688.861
523.596
364.088
205.297
94.3968
35.1033
12.6164
7.47108
6.46928
9.92121
12.1299
9770.23
6214.62
4374.22
2834.17
1945.54
1391.3
953.251
716.88
497.074
445.298
333.83
236.483
127.462
55.3498
17.6425
4.40128
1.14721
0.632045
1.11276
1.44415
11558.1
6996.55
4966.81
2857.35
1865.89
1253.55
843.475
515.774
258.71
164.862
89.508
55.3168
25.5071
9.45543
2.62696
0.590945
0.138268
0.0638888
0.0975248
0.118931
13110.6
6423.31
4905.52
3452.98
2236
1511.07
983.704
528.769
214.896
116.78
39.0508
13.1624
3.62523
0.917716
0.251562
0.0780802
0.0231662
0.00728288
0.00609595
0.00663253
4236
5850.36
4614
2874.48
2284.72
1535.75
1164.67
458.04
204.094
102.52
29.4463
9.47435
4.37594
1.25186
1.4166
0.901529
0.412171
0.155651
0.039791
0.00555165
12484.1
10833.2
7308.26
3862.78
2794.29
1997.93
1670.14
1026.34
377.969
186.485
61.4103
71.1849
45.3967
17.623
20.5527
10.0708
4.86401
2.80152
1.51593
0.434376
49708.7
21150.2
7626.94
4456.52
2867.02
2344.83
1913.59
1570.24
1018.46
653.333
284.814
292.416
222.535
137.994
153.588
59.1639
18.7644
9.76781
7.80598
4.58697
5298.74
7649.03
7001.04
5260.51
3129.32
2477.45
2102.98
1942.37
1786.79
1437.86
969.607
343.019
350.518
321.668
218.362
130.136
48.3057
18.5852
11.3935
6.11484
4151.84
6771.09
5757.21
3838.01
2726.75
2192.13
1876.16
1735.27
1743.73
1524.23
898.761
217.866
96.774
239.214
74.4999
131.568
56.7508
22.0855
12.688
6.61645
8634.02
9333.11
7161.28
4341.81
3027.56
2365.13
1989.51
1717.41
1524.74
1144.31
688.016
271.223
110.453
46.8213
66.6656
133.398
44.5708
14.7742
7.95117
4.30767
7216.55
8141.96
8160.78
5775.19
3563.07
2545.23
2010.7
1471.69
1119.37
834.657
635.447
484.156
355.793
249.496
196.983
89.0933
34.9462
13.4088
5.09063
1.2203
8926.12
7478.04
6951.04
5459.27
3532.63
2304.25
1643.66
1169.08
926.272
709.063
561.829
440.249
346.506
286.235
244.685
207.757
158.322
89.8268
36.2081
8.58694
9349.52
8222.32
6040.3
4299.68
2489.5
1557.17
1074.37
817.704
706.164
593.302
509.037
426.072
349.634
274.708
210.038
151.154
95.8767
44.9041
16.5259
4.03683
6293.26
7131.67
5545.33
3796.76
2142.5
1458.69
900.598
639.268
515.722
425.485
371.226
271.142
191.057
110.782
60.5895
30.7452
16.6332
7.78778
4.51169
2.00507
5110.09
7638.33
7188.77
4934.68
2964.01
2104.71
1294.13
765.966
391.156
209.273
129.072
69.9649
35.3312
15.1885
6.717
3.18705
2.20509
2.40549
3.29625
2.51364
5580.54
7700.87
5620.24
3735.03
2495.38
1954.92
1387.09
1043.5
647.423
315.479
118.892
39.5935
13.9269
5.59351
3.02254
2.47575
2.33142
1.89692
1.14862
0.357911
6607.16
5647.4
5021.72
3557.74
2195.54
1626.23
1044.96
750.628
465.867
258.527
130.659
66.6082
32.5233
13.6099
5.11117
1.67513
0.498474
0.138146
0.0394297
0.00957267
1139.25
2552.09
2471.86
1950.19
1279.79
896.761
690.33
518.172
369.153
245.24
154.994
88.978
45.0915
19.1555
6.89061
2.17135
0.592286
0.142951
0.0328214
0.0068523
8530.32
6799.77
3209.16
1719.99
1115.99
765.033
593.694
496.117
430.753
381.551
344.747
328.36
309.827
283.789
245.632
207.582
174.388
138.836
126.012
113.719
14701.7
12256
6348.24
2874.04
2202.67
1548.43
1290.95
1071.66
954.31
882.051
776.32
658.1
516.262
389.702
270.519
171.401
112.439
95.9271
110.507
127.02
9283.14
7311.94
5391.33
3505.17
2754.67
1901.62
1485.28
1168.41
992.895
859.427
697.996
521.791
345.866
202.486
104.751
49.0057
33.5175
34.4768
53.3155
57.9271
14207.3
8024.43
4798.71
3209.4
2349.73
1554.21
1225.57
898.36
709.012
620.97
470.54
322.016
170.991
75.4724
27.6673
8.79666
3.88935
3.53137
6.04923
7.0961
11360.9
8186.79
5253.47
3131.66
2222.55
1371.16
1123.9
675.459
463.753
338.41
211.588
123.818
58.3492
21.7783
6.86469
2.05963
0.862134
0.613138
0.762556
0.821692
16100.4
8494.68
5902.61
3593.41
2506.63
1500.83
1214.46
680.951
434.778
291.706
139.93
71.1586
24.8437
8.38434
2.79035
1.29766
0.622029
0.252681
0.13547
0.140154
9588.75
7319.2
5199.35
3415.1
2757.76
1665.51
1312.57
613.34
453.751
246.329
86.4749
21.0186
12.7088
7.9454
11.3878
12.6059
11.3606
6.38221
2.24692
0.568593
19822.2
11716.4
8147.34
4482.93
3336.15
2193.87
1823.2
942.617
496.179
388.926
149.95
75.2832
26.7025
16.7757
72.8824
71.4551
68.9913
61.5954
47.881
23.0067
68261.8
17423.1
8449.89
5084.17
3302
2538.67
2078.23
1499.69
858.711
491.852
420.115
387.247
196.217
168.215
179.551
144.098
113.869
109.144
102.517
82.2454
37741.4
14363.5
9559.45
6391.42
3839.3
2828.55
2221.16
1881.69
1522.13
1165.1
857.256
516.022
482.428
479.37
467.825
295.603
172.124
134.359
120.82
94.2631
21233.2
10911.5
8063.71
4691.75
3377.16
2646.62
2217.53
1980.02
1799.8
1456.09
503.987
277.705
415.238
604.085
478.888
357.305
197.386
144.535
126.779
98.3099
13740.7
12443.9
9075.1
4805.95
3514.97
2701.02
2284.65
1880.24
1498.97
1059.11
621.038
313.876
367.381
511.669
492.035
254.095
137.117
108.777
100.385
83.5355
4979.69
9216.85
9584.78
6324.64
4125.57
2894.12
2296.03
1573.92
1238.33
965.462
843.372
746.841
636.014
531.09
230.776
110.565
64.6701
41.3579
29.1171
15.3414
14327.2
9324.65
8466.44
5676.63
3904.45
2439.19
1839.98
1343.13
1148.51
955.715
857.662
750.561
615.87
447.669
313.741
208.784
121.065
50.4347
14.5322
3.32803
9364.02
9468.87
7156.08
4174.01
2736.51
1658.82
1371.56
1099.53
992.246
841.908
750.033
615.233
490.154
344.902
213.429
108.554
43.2002
12.7041
3.73634
1.61428
10857.2
8998.29
7048.44
4073.86
2518.29
1552.07
1065
757.797
685.392
571.151
507.799
368.364
259.927
143.893
74.2604
35.1553
17.6493
9.45812
4.06941
2.21944
7773.15
9904.75
8589.99
5234.69
3306.74
2036.59
1191.21
644.128
395.237
253.912
197.389
126.938
84.9691
44.5681
26.0405
13.9156
7.07342
2.79434
1.78779
1.43219
10044.6
9977.07
7052.11
4149.02
2892.26
1931.99
1334.41
816.018
425.844
194.624
103.774
61.2207
38.6949
21.1078
12.0371
5.06609
1.99305
1.27059
1.10386
0.904588
2500.68
8581.74
6890.55
3550.78
2279.45
1519.68
1019.5
631.851
345.935
179.247
100.94
58.4979
33.3105
18.1352
9.1501
3.62695
1.39469
0.748349
0.600133
0.573022
4454.95
3451.83
2620.96
1504.73
1078.91
803.347
639.56
456.798
313.661
205.727
131.346
76.0588
38.8154
17.1076
6.5595
2.16602
0.60443
0.146747
0.0353759
0.0098217
5572.63
4873.59
2315.24
1463.54
1004.83
706.698
557.486
462.307
394.979
350.254
331.254
330.159
332.523
327.636
307.008
271.894
262.978
256.607
237.722
166.714
25392
11204.4
5885.74
3138.59
2718.34
1668.95
1645.94
1212.03
1248.6
1040.79
1023.9
861.112
820.385
706.846
646.977
548.37
520.236
486.589
510.528
499.527
16198.9
8215.17
6101.39
3908.91
3376.93
2058.31
1858.06
1308.27
1293.66
1021.25
960.424
746.468
696.054
575.271
493.713
364.929
343.044
341.167
383.812
372.99
11958.4
10928.8
5852.8
4186.58
2947.73
1941.83
1642.04
1106.55
1057.39
805.648
728.751
517.598
434.332
314.352
229.436
139.136
103.12
95.2093
110.982
108.326
28821.4
10616.9
6335.71
4141.74
2802.56
1809.86
1565.48
884.112
835.918
573.771
517.426
359.997
304.233
186.668
118.656
66.0019
48.2487
40.6065
42.456
42.8089
20102.8
12072.3
7427.35
4564.16
3105.1
1932.66
1668.07
925.322
803.651
525.086
380.506
275.837
178.159
113.057
64.8583
40.7094
26.3876
20.0351
19.0265
21.0931
40401.7
10225.2
5968.12
4709.14
3292.23
2099.29
1767.87
958.438
845.088
428.992
228.393
108.198
118.894
102.033
122.991
135.691
131.912
96.3893
58.1407
37.881
23176.3
12329
8525.01
5229.6
4151.4
2498.36
1968.42
1076.27
828.711
582.214
320.094
163.573
181.009
206.306
318.586
322.799
318.673
317.79
301.577
239.507
37319.6
13330.9
9505.29
5909.99
3695.1
2653.09
2214.93
1355.1
892.625
733.964
649.173
457.305
314.841
325.931
373.81
384.092
374.544
382.456
381.971
372.455
43639.4
15846.2
13157.6
6720.06
4502.85
2907.9
2270.9
1710.08
1207.23
909.725
813.243
697.365
600.878
634.025
600.803
467.044
415.471
412.35
408.419
395.642
23747.4
16675.4
10342.8
5503.65
4100.16
2883.6
2392.04
1906.95
1416.5
1017.29
758.574
735.834
915.523
970.99
846.476
525.692
441.096
427.068
420.58
408.277
12035.6
13346
10925.4
5203.21
4286.62
2996.36
2611.34
1937.8
1371.68
1010.65
883.133
873.703
1056.68
1005.81
831.963
460.964
410.782
406.29
408.585
407.9
19954
12745.2
11603.6
5908.95
4991.31
3305.95
2575.31
1676.07
1424.12
1206.49
1186.37
1132.31
1003.58
767.938
420.261
373.413
358.814
329.933
309.568
247.481
16946.1
11046.4
9971.78
5636.38
4702.27
2620.56
2150.85
1572.09
1423.89
1179.01
1179.11
1033.09
896.51
667.806
522.975
350.722
237.365
146.016
111.19
85.4818
12404.1
10342.4
8785.95
4485.41
3524.63
1881.08
1884.71
1427.05
1347.27
1079.45
1022.93
797.976
698.416
499.268
366.195
217.229
138.109
95.7063
83.8962
80.7844
24585.5
10807.1
8672.92
4158.35
3341.24
1640.37
1489.05
970.509
978.068
731.384
698.614
524.066
474.221
327.319
248.404
157.403
119.944
99.5949
98.7718
98.8026
15625.2
12618.8
9980.83
4964.32
3827.19
1793.76
1388.88
697.981
646.902
465.603
461.684
375.551
328.687
208.56
150.125
101.496
84.9574
79.5319
80.3767
84.1809
17137.2
12498.3
8498.83
4283.62
3606.54
1839.67
1545.68
724.755
606.965
416.2
429.312
346.643
300.634
203.107
152.815
98.8963
83.9322
76.4737
77.4269
77.5309
11505.5
14466.6
10004.4
3658.38
2878.67
1429.05
1223.97
633.799
502.296
327.714
307.675
258.299
249.871
222.783
196.557
131.899
85.9672
64.8113
61.0736
60.827
2056.08
3848.08
2464.53
1142.9
919.555
672.791
487.585
318.447
208.689
136.113
87.841
52.6253
28.6119
13.8021
5.86568
2.05193
0.633187
0.239629
0.185987
0.249997
1052.82
1626.71
1041.95
1252.61
1077.16
1567.24
811.947
443.998
984.497
469.56
965.882
480.424
611.022
244.716
948.329
1234.79
918.547
1567.35
788.64
1245.33
896.594
436.023
800.39
361.72
545.568
172.76
702.01
255.262
212.467
332.109
288.261
1128.73
1111.84
1371.46
1360.97
173.416
306.9
367.747
1098.34
897.665
1374.43
1390.55
59.5474
369.319
312.145
767.236
335.591
1371.9
1228.42
22.2676
203.141
114.589
330.899
189.534
1035.53
456.323
10.1858
120.379
44.7878
103.029
105.737
450.116
242.035
44.7605
38.7199
42.7069
122.443
188.282
192.839
213.907
20.608
63.0382
50.9555
186.593
116.243
232.261
214.018
6.92139
26.5819
10.2624
83.9824
58.0281
171.037
43.5174
302.278
299.909
205.377
1283.3
1382.05
800.276
786.874
405.224
189.269
185.86
1412.34
1482.18
785.249
845.977
429.437
196.536
264.119
1485.34
1439.82
901.837
1020.66
109.92
274.806
162.419
1361.2
577.523
1011.75
561.619
52.4218
106.18
71.6247
479.779
296.358
413.109
368.739
33.0313
36.1412
6.48855
202.001
189.359
215.023
70.7295
58.2026
6.31574
27.0358
217.784
222.048
76.4861
128.143
10.0794
27.6838
9.15482
196.493
52.6457
128.045
40.5691
186.17
292.548
196.509
772.912
727.783
1104.95
1031.54
138.847
185.001
184.206
699.308
656.083
1005.57
976.001
154.914
186.647
172.902
657.67
662.633
957.446
816.692
111.269
141.329
62.1326
636.552
300.448
672.825
247.597
80.0113
63.4887
72.5815
279.517
338.955
240.885
258.893
8.30573
59.7738
28.3024
230.82
55.0273
216.94
103.519
11.6913
25.7659
19.5406
47.6256
75.4904
83.8619
43.159
9.12948
18.6966
9.54683
80.8253
24.8233
31.2848
36.0524
207.122
439.885
249.473
1163.84
1056.16
1145.67
1022
191.111
228.319
155.783
1028.48
1009.94
960.729
810.565
185.368
155.77
144.94
997.858
847.866
769.073
679.777
61.453
136.427
77.1155
701.665
333.07
624.333
424.503
53.2958
71.6286
52.1342
292.633
216.335
381.595
251.198
25.8944
44.5338
24.8535
172.054
91.8205
219.469
137.109
21.4394
24.7713
22.8353
79.791
52.9289
126.444
96.5626
10.7431
23.9973
24.306
41.849
37.6943
80.1471
80.3407
1296.65
1635.99
1543.28
1831.3
1609.84
2055.83
1850.48
1017.72
1543.75
1521.82
1537.62
1169.71
1817.61
1682.6
436.598
1489.55
1326.01
1025.68
682.854
1615.46
1373.46
238.834
1147.21
566.087
629.716
325.87
1244.83
856.763
147.907
528.181
287.781
259.703
252.717
797.94
380.987
208.756
222.934
244.184
264.177
254.826
319.03
334.115
126.323
258.925
232.67
229.275
140.065
333.015
285.738
66.3056
190.193
57.1332
126.681
127.006
259.256
179.661
1571.79
1141.47
1035.77
2013.35
1909.49
1739.29
1664.32
1621.15
1029.97
1086.24
1897.6
1834.9
1663.62
1723
1536.49
1139.59
1212.15
1791.63
1588.33
1745.89
1670.9
718.712
1186.02
660.112
1473.29
998.071
1574.04
978.765
346.346
501.431
431.928
891.855
435.235
910.913
468.518
213.473
243.494
80.6636
313.493
302.924
250.725
109.998
241.278
88.5014
135.484
318.553
306.072
114.797
208.627
61.577
135.614
59.4031
286.512
165.505
223.367
136.003
982.734
1387.33
1240.03
1714.5
1612.4
1861.52
1672.68
914.518
1207.86
1155.51
1587.74
1586.21
1633.24
1546.99
905.177
1128.42
957.487
1596.06
1517.61
1508.2
1285.86
384.799
807.946
367.329
1410.91
831.026
1155.88
820.861
401.511
344.337
307.125
799.435
446.95
735.376
376.018
64.3882
241.564
124.929
240.964
79.122
279.898
147.35
89.268
102.695
50.4437
82.419
153.526
103.065
43.3776
36.035
35.1663
35.5446
173.647
99.1841
37.0677
25.9505
1259.8
1487.78
1255.94
1885.16
1673.19
1912.73
1638.44
1182.64
1163.49
964.656
1632.04
1524.43
1516.52
1246.36
969.693
913.133
788.192
1472.07
1216.22
1177.26
962.656
458.437
718.581
494.868
1097.77
772.515
872.283
616.737
262.145
443.119
288.756
658.323
347.889
554.515
368.975
117.377
254.493
161.807
273.254
156.193
335.603
231.052
60.0438
148.201
107.761
123.257
48.4002
209.878
131.79
37.1501
92.327
88.7773
39.1924
26.4408
116.926
125.645
1658.21
2125.19
1891.53
2052.69
1675.68
2202.99
1885.63
1165.55
1847.32
1678.92
1538
1042.04
1809.07
1537.8
713.431
1600.54
1339.95
902.811
628.776
1430.37
1153.99
333.236
1228.78
922.046
534.021
376.916
1090.64
940.831
285.617
864.08
401.07
378.237
384.49
822.174
489.202
256.244
355.461
363.471
369.281
238.682
483.641
439.463
145.303
357.509
307.946
196.85
160.851
416.889
384.856
137.077
288.076
225.723
158.372
136.642
384.207
383.092
1963.58
1898.7
1812.36
2213.04
1980.9
2171.23
2037.86
1844.44
1812.31
1857.56
1925.95
1712.04
2019.24
1956.52
1549.52
1864.06
1733.49
1616.83
1329.51
1906.35
1645.05
1419.84
1315.05
1577.18
1388.51
1441.15
1287.31
1537.97
956.904
880.628
1038.78
1018.88
946.139
886.785
1085.57
340.062
240.775
128.247
463.011
453.558
227.767
314.27
338.132
136.945
277.115
451.646
448.706
357.026
525.12
216.328
287.203
173.904
439.747
402.704
520.5
384.779
1757.41
1976.6
1768.94
2160.8
1996.65
2206.98
1947.28
1740.64
1727.14
1628.41
1968.54
1906.67
1885.2
1702.79
1624.08
1583.89
1352.05
1866.68
1629.66
1627.15
1347.19
1324.35
1316.11
1393.64
1563.95
1219.63
1205.09
1474.05
740.826
842.194
906.022
793.944
795.904
713.138
926.431
90.5665
264.814
118.588
172.296
252.24
189.071
122.782
220.116
80.1489
52.7428
298.824
508.749
149.443
383.364
141.845
53.3489
27.6475
507.574
367.539
388.075
270.681
1763.37
2015.93
1719.74
2218.04
1934.4
2262.85
1867.77
1586.46
1589.33
1300.33
1861.78
1629.49
1708.27
1378.56
1255.53
1226.16
988.242
1535.52
1218.88
1289.13
1013.89
815.201
893.816
638.066
1109.48
765.684
925.852
718.956
345.878
576.892
395.552
634.635
322.977
672.882
547.374
147.715
362.851
262.669
265.182
187.004
525.616
468.609
52.1989
239.761
156.546
201.431
356.968
452.943
397.931
26.6058
140.682
150.518
358.218
256.426
374.663
337.661
1655.18
2202.8
1854.67
2167.32
1570.49
2212.89
1762.66
989.158
1765.63
1460.72
1371.32
910.381
1631.96
1241.25
579.629
1346.15
1071.94
837.031
663.221
1126.33
883.924
416.46
1015.7
860.496
629.012
598.607
831.537
740.231
412.455
731.829
534.796
579.389
484.943
719.898
676.588
236.17
528.207
455.598
428.205
277.922
627.907
488.435
170.827
429.238
411.662
259.977
266.706
474.445
494.061
143.503
415.634
421.059
265.063
266.237
500.368
492.857
1950.28
2221.95
2049.5
2242.78
1847.08
2322.56
2006.47
1627.83
2017.41
1892.21
1732.52
1368.32
1914.36
1591.34
1231.79
1818.3
1527.87
1248
973.683
1471.59
1155.19
998.484
1450.52
841.489
913.647
777.195
1068.51
727.059
521.198
603.172
296.679
733.906
692.477
646.418
641.824
485.035
318.016
404.051
655.125
560.074
637.931
672.253
484.207
452.695
608.217
559.704
587.62
740.45
841.129
454.005
600.649
469.342
588.95
566.673
825.019
736.357
2019.36
2269.36
1978.67
2341.49
2014.66
2468.63
2055.24
1863.04
1903.57
1675.26
1918.48
1600.43
1923.04
1533.72
1523.31
1585.39
1283.22
1483.7
1164.44
1411.85
1087.43
787.685
1180.1
813.069
1078.59
715.509
998.735
786.845
251.89
628.685
275.332
639.161
617.344
730.943
637.808
352.39
220.579
226.038
620.148
698.408
642.573
798.765
610.026
309.837
536.524
784.176
896.328
874.211
937.485
457.249
532.409
410.9
876.219
769.401
906.156
821.036
1967.26
2338.76
1893.05
2512.2
2055.96
2590.71
1954.11
1604
1725.9
1387.04
1912.48
1500.34
1765.74
1427.41
1168.34
1294.78
1021.59
1376.62
1058.53
1343.19
1115.08
734.866
942.035
765.378
976.181
815.813
1062.9
977.698
360.26
727.016
625.402
780.436
713.942
961.061
928.3
308.633
609.871
570.899
720.499
842.956
925.88
912.016
519.691
558.422
507.944
893.34
920.524
896.202
830.728
409.571
482.29
411.146
885.321
811.454
787.489
622.393
1562.85
2239.78
1759.17
2548.58
1825.34
2548.82
1992.47
943.053
1614.74
1212.38
1579.02
1301.69
1809.42
1428.92
766.804
1106.75
898.677
1296.82
1265.69
1367.33
1253.24
676.764
858.279
813.503
1196.19
1108.14
1240.78
1238.43
521.804
806.861
724.467
1060.62
892.392
1222.83
1031.24
325.014
659.074
519.563
795.637
730.078
944.275
864.176
326.539
511.738
534.96
723.012
736.474
862.343
870.616
329.814
539.4
521.14
726.662
698.371
871.02
817.384
1839.57
2365.39
2005.05
2559.3
2067.72
2672.96
2229.35
1323.75
1892.52
1526.26
1894.75
1492.9
2067.7
1626.09
958.104
1401.16
1084.46
1402.86
1251.03
1497.06
1264.36
825.804
1003.86
785.968
1236.07
1234.42
1229.33
1211.79
750.5
757.419
744.61
1227.12
1066.65
1212.42
1150.82
596.451
729.72
776.123
985.518
926.827
1135.15
1228.25
633.024
848.05
926.255
941.717
956.204
1290.06
1294.37
601.519
905.611
809.699
953.758
884.574
1266.86
1132.03
2023.86
2555.35
2096.55
2698.38
2259.16
2978.07
2387.4
1540.07
1942.68
1510.71
2092
1643.52
2178.76
1686.18
1097.26
1386.09
1078.1
1513.57
1277.21
1567.92
1334.84
790.19
1005.25
869.395
1241.21
1218.31
1296.98
1268.17
734.852
840.282
795.352
1217.53
1184.47
1271.25
1316.63
831.305
808.493
980.115
1191.46
1336.5
1360.83
1561.37
997.911
1045.23
1068
1401.66
1395.13
1599.5
1528.41
856.139
1027.72
917.191
1357.92
1203.57
1478.86
1285.84
2101.33
2689.77
1985.44
3056.58
2400.73
3123.97
2240.98
1493.51
1793.32
1468.11
2187.11
1705.3
2069.38
1762.63
1077.68
1390.87
1184.05
1598.8
1371.63
1709.97
1525
903.203
1138.26
1077.46
1330.61
1304.57
1496.09
1479.15
857.805
1067.99
1054.55
1310.27
1368.59
1497
1512.51
1015.6
1054.38
1038.71
1412.65
1582.48
1520.5
1494.43
1048.31
1018.86
928.073
1599.29
1509.15
1478.05
1289.54
899.13
872.6
678.426
1458.45
1266.04
1231.99
1007.06
1280.77
1181.89
1133.1
1092.94
1281.85
1186.77
1164.15
1474.41
1636.9
1442.92
1638.57
1486.98
1622.7
1365.49
1283.91
1144.22
1201.4
932.89
1303.69
1136.76
1072.32
1383.62
1326.89
1194.97
1395.81
1248.63
1476.74
1326.44
1268.72
1102.73
1144.1
1150.68
1176.7
1172.92
1237.58
1452.8
1615.73
1504.87
1390
1578.55
1317.46
1410.97
1263.83
773.194
1104.99
1096.79
1121.88
978.809
1244.47
701.778
666.628
466.007
448.98
730.507
643.28
457.275
958.271
1050.31
901.184
874.401
958.016
1059.07
765.72
703.038
461.175
717.67
376.471
744.851
432.906
584.566
916.491
1016.79
765.721
1032.43
848.922
1085.05
813.713
647.084
457.984
569.433
451.691
606.306
447.91
583.477
893.181
664.266
972.157
476.5
1041.31
578.122
757.39
610.934
297.602
396.693
343.622
402.84
453.566
527.885
1178.86
1088.26
960.829
852.827
1052.26
968.089
1066
1257.18
1303.4
1117.37
1278.43
1160.71
1376.8
1173.11
1146.47
954.169
1015.53
962.126
1033.61
1045.85
1074.87
1380.01
1585.33
1355
1477.68
1218.36
1508.64
1364.84
1221.55
734.432
1044.76
983.476
921.04
1054.72
1203.88
1296.32
1281.05
1369.16
1146.36
1399.17
1180.78
1275.87
1190.17
952.682
991.186
1039.57
1052.5
1079.12
1166.23
506.422
679.003
380.517
325.514
603.317
537.251
291.764
711.229
873.909
652.888
812.754
734.773
903.32
637.94
492.605
374.727
497.193
323.933
550.68
305.321
465.083
561.475
603.524
334.31
671.51
442.209
846.447
384.137
308.954
177.574
211.214
146.792
267.989
170.359
221.216
614.584
782.803
740.845
505.302
862.663
582.588
472.629
381.657
278.964
177.199
356.289
215.058
406.016
279.452
269.936
352.844
305.091
679.258
723.079
678.061
768.674
145.595
262.589
183.281
632.46
378.994
721.205
539.208
59.6668
116.905
103.961
251.661
170.065
317.539
273.06
2.96644
69.8554
17.5551
43.5488
6.28812
188.15
49.522
2.98925
5.45355
5.69994
2.73712
6.23454
15.5659
20.2202
12.5271
12.9083
36.528
17.0907
24.5967
49.8852
92.087
12.569
40.1668
31.3875
25.3138
22.2182
94.1767
74.3585
5.2259
17.9183
15.5242
13.8807
11.6497
38.5374
32.4966
483.703
525.734
498.527
1086.16
1053.89
1118.99
1229.57
548.459
258.198
306.866
498.342
510.716
517.981
257.657
653.839
199.519
229.038
575.827
571.873
642.827
230.214
475.889
75.4818
211.668
356.296
219.047
590.938
176.102
228.321
78.3743
68.982
223.684
222.256
191.896
84.8845
93.2034
7.99169
36.9228
37.7354
27.3019
136.729
25.9889
100.116
12.5261
25.4083
41.3822
61.6573
93.2094
25.4399
149.167
45.7046
58.7129
131.768
126.839
152.668
57.6238
40.1521
9.66384
17.0941
48.5187
36.2268
60.5782
11.7358
17.9883
21.3123
20.5647
44.8219
31.1912
33.907
27.8457
475.108
506.486
425.089
938.87
998.372
816.306
731.79
574.427
303.215
334.882
552.104
638.399
518.397
287.643
827.283
350.495
289.459
851.539
914.661
764.941
312.348
1008.81
422.492
392.479
1015.95
1027.65
986.052
404.199
898.503
309.033
430.903
956.225
702.422
1021.24
386.944
325.62
113.782
109.042
327.296
323.348
325.559
113.257
103.377
28.2567
36.7796
126.578
117.556
122.316
23.7584
157.529
64.0509
31.2423
158.995
173.449
130.983
51.8394
98.0286
16.7195
43.5352
141.145
86.4434
145.78
20.1795
20.3041
17.1314
21.5153
26.7553
20.0913
23.2328
23.1221
400.745
506.756
433.335
795.942
721.127
960.931
976.615
363.936
233.858
278.676
364.798
338.578
382.118
232.173
256.588
155.342
160.68
270.973
247.353
280.899
146.486
204.257
139.106
125.67
223.799
228.971
222.021
120.523
129.747
158.549
112.886
264.198
253.816
158.012
109.388
223.513
95.2086
78.4053
192.788
242.945
173.663
91.4474
94.9497
22.506
57.4888
132.568
67.7795
153.424
35.0376
17.4498
6.41298
14.3663
13.8171
13.9749
25.2427
9.80359
9.53494
11.2487
7.85244
35.1946
30.5785
10.7774
8.46974
28.9031
31.3781
37.9744
26.2034
46.3559
53.255
84.1079
513.11
742.895
605.447
1145.51
1080.83
1158.76
1071.27
525.23
260.22
333.128
516.816
519.037
527.181
271.75
491.991
184.331
192.136
503.535
507.24
493.594
176.741
538.332
199.048
185.994
554.327
553.611
537.988
189.49
248.222
97.1684
134.792
376.348
224.301
372.507
92.3955
131.887
60.4134
58.6777
134.205
139.993
137.279
57.0186
51.615
36.8096
36.5494
91.4863
67.8577
69.0582
30.2025
38.2875
23.1362
22.0175
41.4879
38.789
38.5058
21.6336
21.8501
15.3073
17.2673
29.2002
21.5868
25.454
16.1712
40.1545
41.6392
35.7754
76.9537
94.5868
84.708
88.0496
405.999
565.939
431.328
909.173
881.901
925.129
869.731
253.664
315.914
279.638
787.201
648.229
724.796
579.776
198.774
216.567
178.58
577.536
556.147