/*--------------------------------*- C++ -*----------------------------------*\
  =========                 |
  \\      /  F ield         | OpenFOAM: The Open Source CFD Toolbox
   \\    /   O peration     | Website:  https://openfoam.org
    \\  /    A nd           | Version:  10
     \\/     M anipulation  |
\*---------------------------------------------------------------------------*/
FoamFile
{
    format      ascii;
    class       volScalarField;
    location    "1.4";
    object      nut;
}
// * * * * * * * * * * * * * * * * * * * * * * * * * * * * * * * * * * * * * //

dimensions      [0 2 -1 0 0 0 0];

internalField   nonuniform List<scalar> 
12920
(
0.9283
5.20761
6.62658
5.93409
4.16339
3.95134
2.89623
3.25837
2.06321
2.11849
1.35217
1.32183
1.15109
1.15852
1.09663
1.02733
0.874173
0.765177
0.662248
0.540012
4.35073
8.80906
8.36632
6.7306
5.97499
5.3686
4.62319
4.07743
3.56434
3.21417
2.86851
2.58766
1.9015
1.66193
1.23398
1.00931
0.822066
0.769375
0.740082
0.744288
4.03507
12.8359
11.6399
8.1751
6.67618
5.91908
4.87439
4.25097
3.64465
3.28587
2.89291
2.48337
1.54779
1.1985
0.889442
0.775713
0.654293
0.584495
0.55703
0.412387
11.4732
7.56885
9.56472
7.27194
5.74072
4.83014
3.87311
3.21316
2.49343
2.39275
2.26655
2.0623
1.4091
1.04504
0.67166
0.498058
0.349859
0.29444
0.259695
0.153366
3.68107
12.0858
10.2296
7.82329
6.08813
4.89199
3.97429
2.95856
1.40401
1.51592
1.0844
1.15921
0.866799
0.661065
0.280231
0.178183
0.0992848
0.0780142
0.0656776
0.0173494
0.436818
5.90583
5.74662
7.96654
7.32091
6.10108
4.7642
3.50401
1.77414
0.919428
0.323902
0.269895
0.139082
0.0756326
0.0274638
0.00990456
0.00434585
0.0020337
0.00184812
0.000998178
0.970203
4.14498
8.04682
6.97681
6.00221
5.11318
4.36365
3.16361
1.14006
0.153173
0.0393529
0.0386148
0.0738874
0.052105
0.0621949
0.0320322
0.0105128
0.0026727
0.000660515
0.00016931
2.45899
9.36749
10.0779
7.48571
6.54401
5.63346
2.11241
1.64569
1.13267
0.126822
0.0231461
0.0771028
0.22058
0.171498
0.355932
0.195642
0.0814624
0.0287499
0.00668431
0.000906865
10.1872
12.2827
10.5528
8.09776
6.90335
2.53753
0.998832
0.65553
0.39662
0.499833
0.180696
0.101196
0.389266
0.131682
0.364198
0.350577
0.191598
0.0880199
0.0248369
0.00436641
1.55636
4.59289
8.85298
7.88112
6.64607
2.53124
0.903382
0.73025
0.794718
0.635545
0.520437
0.273429
0.405772
0.282754
0.231377
0.36875
0.220214
0.11349
0.0359582
0.00739146
0.907435
3.61914
8.14854
7.35156
6.51988
2.42794
0.591319
0.263366
0.173554
0.173544
0.22935
0.141181
0.0488908
0.0804366
0.215315
0.651376
0.33204
0.128287
0.0311165
0.00533976
1.63376
10.5165
11.1219
9.61896
7.75139
2.59208
0.578709
0.356073
0.37077
0.280779
0.194897
0.123311
0.0714142
0.0656681
0.334564
0.922842
0.426753
0.170668
0.0396059
0.0066047
9.35698
14.7858
13.3563
10.6515
8.57811
7.17736
2.01576
1.69555
1.39131
1.4957
0.8874
0.536628
0.369003
0.263568
0.719496
0.737675
0.619294
0.397998
0.175395
0.0525861
13.4588
14.8776
10.3106
10.4653
8.87416
7.23707
5.76755
4.50474
3.58151
2.70239
1.82325
1.28501
0.940786
0.802249
0.713883
0.660291
0.618462
0.600733
0.40938
0.184954
9.9458
10.3518
8.9506
10.1368
8.08106
6.87538
4.3316
3.52437
2.41022
2.07643
1.61536
1.34243
1.15654
1.16996
1.09621
0.980413
0.755938
0.561778
0.305751
0.129941
0.13565
5.2315
5.83167
8.31872
6.64085
5.62454
3.71636
3.61186
2.74421
2.65393
2.06326
1.66002
1.04375
0.745896
0.527814
0.497426
0.441624
0.400534
0.278671
0.133404
7.41639
12.9333
9.96204
7.72532
4.50627
5.64334
4.71172
4.84447
3.81695
3.29789
1.94778
1.36639
0.644651
0.379779
0.260192
0.243585
0.232367
0.236121
0.210578
0.149882
6.7878
10.3038
5.47471
6.74094
4.99896
5.63709
4.9046
5.16596
4.0083
3.62869
2.49495
1.97635
1.33687
0.999156
0.635972
0.43136
0.29541
0.228961
0.174343
0.0901089
0.760364
8.27501
7.51791
8.1208
5.0725
5.34015
3.48674
3.43371
2.40616
2.10435
1.47867
1.32493
1.04407
0.850206
0.561301
0.365078
0.201674
0.109524
0.0482036
0.0143463
0.696962
6.33851
3.89499
5.19828
2.56627
2.47423
1.731
1.81921
1.45226
1.35426
1.00125
0.836337
0.566822
0.403028
0.203308
0.100519
0.0373107
0.0127482
0.00337386
0.000720797
2.30062
19.1654
25.3404
21.1038
17.1936
14.307
12.2761
11.1265
10.193
9.73665
9.3525
9.07065
8.25368
7.3951
6.23033
4.97659
3.47514
2.8567
2.93961
3.43636
8.38048
38.4745
39.772
29.8058
26.3011
23.6198
19.366
17.9854
15.9002
15.3113
14.1917
12.4533
9.67254
6.62359
3.39968
1.79758
1.43978
1.47413
1.57055
1.70372
8.21607
37.159
35.5322
31.6336
28.7971
26.7938
22.4617
20.5151
17.5422
15.6911
13.3667
10.4662
6.84677
3.23931
1.54775
0.924308
0.779342
0.55923
0.573597
0.526871
14.6821
39.379
35.5426
31.2726
25.878
22.6491
15.9521
14.4231
11.2477
10.9879
9.34442
7.54436
5.1596
3.10764
1.31768
0.519968
0.231623
0.123103
0.158657
0.173305
31.4974
32.3328
35.9639
29.065
21.6591
19.4
12.2415
9.74189
5.25504
3.82544
2.83388
2.70438
2.08135
1.2366
0.423186
0.161147
0.0659256
0.0204728
0.0182263
0.0152746
28.1266
24.5841
28.5838
33.1068
28.9151
20.5877
13.7839
8.85118
3.9547
2.26948
0.964114
0.614094
0.292017
0.146264
0.0670575
0.0229131
0.00539881
0.00126148
0.000879093
0.00071003
6.6407
34.8533
40.4835
30.6137
27.2279
23.4868
19.5507
8.77435
3.40546
1.45692
0.559397
0.392121
0.382057
0.215181
0.256978
0.151083
0.0415665
0.00793736
0.00123086
0.000252592
14.7928
54.4237
51.2317
35.9628
33.2528
27.5992
20.8571
15.0961
6.81897
1.0615
0.683465
0.986928
1.68007
0.885327
1.17423
0.57976
0.253219
0.0799915
0.0167066
0.00251634
10.8267
55.1831
47.9802
39.4791
32.8735
25.8349
20.7439
20.6935
15.0385
5.8099
3.44406
5.24914
6.81191
3.33889
2.45326
1.29532
0.632739
0.284004
0.0987161
0.0216798
7.08793
33.8838
38.6344
39.3335
29.1991
22.842
20.6508
23.1398
24.3562
21.0157
6.41188
5.07669
7.41967
6.42816
1.46542
1.43031
0.856935
0.399897
0.15257
0.039415
3.34219
26.3267
32.2134
30.3939
25.5889
18.4319
13.1011
11.5562
11.1079
10.4412
3.47645
4.65284
1.8041
2.92918
0.76179
1.83805
1.42609
0.564281
0.17859
0.0413248
18.4893
38.5103
49.4018
43.0717
36.618
26.7794
21.0631
19.7879
20.1307
14.1005
6.07189
4.22768
2.84643
1.52646
1.83407
3.07817
1.8279
0.727873
0.2063
0.0421853
7.38798
47.9968
54.3869
48.666
39.5605
35.1115
24.8253
20.4422
18.8087
15.4366
10.9813
8.78423
7.36714
4.06985
3.9102
2.70402
1.84533
1.2246
0.633466
0.256285
25.9635
29.9415
41.1495
44.1812
35.9204
30.2396
24.9942
19.0678
14.5815
10.6317
7.76756
5.95875
4.8802
4.4346
4.19646
3.86661
3.572
2.93649
1.93003
1.15921
33.7136
45.6378
43.6141
39.7372
24.3649
17.9994
14.6144
13.4845
11.5425
10.1076
8.98918
8.70806
8.50286
7.85897
6.95084
5.59107
4.00503
2.87501
1.88802
1.04202
15.1653
32.3272
31.257
29.0592
19.8896
17.9047
14.6286
13.3358
11.6311
10.4923
9.49149
7.57767
5.57685
3.74788
2.53863
1.99354
1.86362
1.50572
1.13039
0.631663
18.0269
45.0888
43.9926
32.4336
24.1203
23.9123
21.5919
17.6604
12.2714
6.87123
4.37411
2.76498
1.50529
0.831057
0.521969
0.459875
0.494414
0.638007
0.726785
0.604316
15.0771
36.3043
32.1618
28.3084
24.6683
24.7666
21.6596
19.794
15.9139
12.0181
7.24882
3.43841
1.96992
1.24827
0.892504
0.720434
0.61599
0.470807
0.353084
0.193606
2.90705
29.2071
35.1643
34.7233
23.3712
19.1137
13.8946
13.1097
11.0371
8.46835
5.53785
3.54275
2.37339
1.5783
0.930282
0.538762
0.284593
0.160369
0.0923115
0.0273354
1.12201
10.3999
21.2592
23.6318
17.1408
14.3034
9.32178
9.22743
7.65004
6.78925
4.62013
3.18172
1.86195
1.09965
0.455381
0.179253
0.0552955
0.0159759
0.00369991
0.000772746
2.052
35.2533
29.1683
22.8491
18.5853
15.4383
13.4578
12.2671
11.3984
10.8011
10.2556
9.85377
9.37582
8.51896
6.84452
5.57675
4.36481
3.29605
3.06065
3.52967
37.6745
53.7702
50.3374
40.0615
36.7249
33.1309
28.8485
26.2226
23.6741
22.4433
20.0348
16.7548
12.2604
7.88044
4.55519
2.67077
1.77702
1.66898
2.33245
2.8961
23.506
46.8395
46.9877
45.1966
42.7606
39.0686
33.3904
29.5693
25.4757
22.9235
18.8712
13.9309
8.89908
4.95796
2.10113
0.875408
0.594038
0.515479
0.808126
1.19529
41.8255
47.4176
47.5579
46.7344
42.0605
35.3686
27.2257
23.5316
18.3344
17.0963
13.5204
10.1079
6.41407
3.70372
1.49435
0.500881
0.170251
0.107891
0.193539
0.264745
43.2187
42.9793
53.0259
46.1109
38.5146
31.4608
23.369
17.8554
10.2531
7.49736
4.68022
3.31972
1.92163
0.927057
0.331245
0.0902707
0.0236815
0.011818
0.0185153
0.0238756
25.9181
49.9533
55.0217
52.1392
42.6681
33.0609
24.4621
16.1069
7.99687
5.23985
2.24991
0.975057
0.351473
0.113222
0.0367414
0.0130198
0.00419107
0.00139843
0.00118594
0.00134259
10.2831
53.6479
62.7494
50.2964
45.6545
36.5755
29.4034
14.0481
6.72224
4.44333
1.80269
0.774356
0.380972
0.12447
0.146137
0.10491
0.0556353
0.0246416
0.00697708
0.00107566
33.6764
56.7764
62.4079
55.3434
50.8669
43.2265
34.9726
15.5244
8.59759
4.15191
2.92766
2.78919
2.13985
0.948333
1.06935
0.628668
0.39809
0.280095
0.176601
0.0670421
57.8084
56.858
57.3985
55.7937
49.2625
43.4161
37.7499
31.5378
20.4326
10.3523
6.57659
8.9715
7.2866
4.81493
4.93526
2.39423
1.12422
0.740446
0.641913
0.450514
12.4857
42.0088
48.9557
55.2553
47.2742
39.9967
35.2965
33.526
30.4701
23.1945
12.6705
7.56434
9.27311
8.93125
6.49323
4.23234
2.29546
1.21102
0.843328
0.560359
16.6957
50.7835
53.6901
49.1606
43.2936
35.4332
29.3237
26.4152
24.7388
20.6782
8.76539
4.43513
2.16084
6.50286
2.4738
4.13813
2.57937
1.37411
0.901922
0.58541
32.9535
60.7848
67.8887
59.9189
52.5171
44.628
39.0184
34.4386
29.2002
19.4021
10.8139
6.29285
3.11963
1.59797
2.2826
4.66241
2.48493
1.11392
0.661545
0.424713
33.8746
59.223
67.5865
67.3657
55.7418
49.7374
42.468
34.3034
28.5618
21.5623
17.3091
14.9588
12.4176
8.94377
6.32478
3.4984
1.83236
1.11747
0.588119
0.193947
61.8781
59.0991
64.1775
61.7648
52.3818
44.0047
37.6143
30.5302
25.2829
20.1086
16.2803
13.1711
10.6877
8.94091
7.695
6.64175
4.96992
3.11911
1.85146
0.920286
29.0574
61.0896
58.6876
51.7347
37.2802
30.7001
26.6258
23.5521
21.3764
18.687
16.2128
13.8777
11.5118
9.25938
7.31878
5.52324
3.82558
2.23928
1.01139
0.388274
13.9093
46.4491
44.486
41.4139
32.7326
28.948
23.1644
19.2953
17.1467
15.0878
13.468
10.0498
7.30183
4.60927
2.86146
1.67966
0.995883
0.485991
0.288034
0.148772
14.3901
54.122
54.8631
46.5924
38.4175
35.5498
28.5866
20.691
13.4409
8.39757
5.58735
3.21201
1.74188
0.88254
0.471226
0.262359
0.18611
0.193973
0.256337
0.232113
9.83745
44.013
50.8803
44.7223
39.7515
36.04
29.637
24.0855
17.3423
9.88399
4.76281
1.93644
0.890361
0.43183
0.260368
0.222883
0.224361
0.212315
0.152684
0.0630347
15.9863
34.8402
48.9607
46.6768
35.1532
28.4174
21.6621
18.0952
13.4614
8.54661
4.94087
2.97624
1.85906
1.10716
0.59744
0.261884
0.0893957
0.0265116
0.00771245
0.00196836
2.69803
14.6756
24.9244
24.781
18.3655
13.5782
11.2149
11.004
9.77655
8.81403
6.13233
4.49896
2.27487
1.13335
0.401471
0.147575
0.0437339
0.0123213
0.00264084
0.000528627
14.0506
37.6003
27.8669
23.3143
18.7243
15.4951
13.6508
12.4791
11.6296
10.9472
10.3648
9.08605
8.90674
8.06568
7.19485
6.16742
5.401
4.4584
3.75258
3.5306
63.9169
62.399
53.7042
45.8942
40.9057
35.8571
31.5301
28.4231
25.692
24.1335
21.3447
18.067
14.0856
10.5832
7.37312
4.83517
3.49512
3.26968
3.77865
4.33269
29.9064
55.359
58.5386
54.6268
50.5213
43.8536
37.1352
32.3395
27.9291
24.9733
20.5682
15.4778
10.2605
6.20011
3.57465
2.03147
1.487
1.50724
2.10651
2.2213
55.1878
57.0331
59.7692
57.0994
50.1513
40.4477
32.5638
27.0997
21.552
19.4585
15.0479
10.7753
6.28368
3.28441
1.48613
0.585788
0.281081
0.25255
0.397543
0.464687
18.45
60.5264
66.052
56.6125
47.7431
36.4566
29.8458
21.4308
14.5387
11.373
7.44784
4.89299
2.67327
1.26029
0.497661
0.18249
0.0820069
0.0588494
0.0713883
0.077795
50.7003
69.9831
69.5802
60.9657
50.4056
37.4264
30.6803
20.6748
13.6006
9.74894
5.25833
3.02003
1.35937
0.57678
0.240928
0.132795
0.0725613
0.031681
0.0171459
0.0173152
39.7638
69.8327
73.2494
61.312
54.4603
41.3632
32.424
18.8902
13.413
8.5073
3.6661
1.3165
0.811031
0.559446
0.761425
0.820293
0.744166
0.468674
0.204404
0.0601799
45.9845
71.7222
70.92
65.9472
58.6297
48.5945
40.5454
16.5365
13.2975
10.6724
5.34135
2.91078
1.35069
0.905386
2.80728
2.8165
2.7531
2.46965
1.98505
1.09072
97.887
69.62
66.3853
65.2196
56.7909
50.4113
41.5945
29.016
19.0429
9.67567
10.7468
10.249
6.25594
5.27443
5.33456
4.69551
4.0188
3.84964
3.62833
2.9672
68.6437
59.3015
61.5062
62.2553
56.384
48.8875
41.7413
35.6537
27.8273
19.1182
12.2833
9.75833
11.013
11.9806
11.2198
7.97241
5.45121
4.48449
4.1086
3.30916
55.771
61.1319
64.4019
61.0026
54.6676
46.3204
39.634
34.3476
24.6055
19.7085
4.59177
5.45263
8.83459
13.1996
9.55801
8.75198
5.93308
4.68825
4.23061
3.39225
23.5239
68.5713
73.8948
68.1078
60.2012
52.4091
46.6814
38.6963
29.5493
19.9221
12.2469
7.31006
7.43944
10.7133
8.73285
6.95908
4.44889
3.65611
3.41508
2.88731
25.9195
68.5848
76.5494
74.434
63.7612
56.2245
49.1121
37.9231
30.6509
23.9092
20.8999
18.6899
16.0874
11.2613
5.55168
3.77235
2.55567
1.75342
1.28316
0.746904
53.8589
73.4886
76.03
69.728
60.2713
49.6043
42.6102
34.9998
30.0251
25.2603
22.3104
18.9809
14.0732
9.68224
7.06472
5.03005
3.51826
2.19087
0.949978
0.260869
32.1044
68.3155
71.3624
60.471
47.0782
37.0674
33.2592
29.558
27.0233
23.1861
20.3787
16.5348
13.2316
9.69936
6.76724
4.05032
2.24228
0.820647
0.258345
0.120593
42.1234
49.1378
61.1339
53.5129
42.4011
33.85
26.9874
21.8005
19.9561
16.9215
14.7737
10.7311
7.66596
4.56289
2.58268
1.39458
0.802015
0.500985
0.243724
0.146901
23.1659
59.6454
67.9835
57.6354
48.087
39.7381
28.7792
19.0891
12.5398
8.35969
6.27906
4.06067
2.72177
1.49311
0.95662
0.630878
0.412713
0.204977
0.137624
0.114935
35.7131
66.1823
64.2266
55.5962
48.0248
39.5586
30.6364
22.23
13.5153
7.25504
4.00323
2.58817
1.71948
1.0582
0.667499
0.343558
0.155856
0.107059
0.0975153
0.0795387
11.6804
53.474
58.8109
51.886
39.3559
30.1853
23.322
17.463
11.2736
6.86731
4.34143
3.03491
1.9927
1.23384
0.681956
0.307928
0.125674
0.0680933
0.0541053
0.0509748
7.81176
25.54
26.4487
21.1378
17.2225
12.7865
13.1577
12.0107
9.9636
8.07325
5.19224
3.48927
1.662
0.798727
0.322767
0.129485
0.0428385
0.0127218
0.00288898
0.00076421
8.00684
36.392
14.1751
21.3979
13.5117
14.8782
10.923
12.0482
8.77657
10.4911
9.24822
10.1819
10.2198
10.1442
9.36688
7.7935
6.3398
5.17628
3.45106
2.18922
52.9399
62.3457
55.9988
28.4795
39.0536
23.3615
28.6508
26.6153
23.7549
22.4647
20.2127
17.9031
16.0036
13.7959
11.9789
10.1494
9.54613
9.18823
9.40995
9.05305
51.434
58.167
63.2552
51.4161
50.5263
33.5415
35.0593
29.2233
26.375
23.4524
19.9933
16.3208
14.1493
11.7462
9.68934
7.2352
6.78744
6.88342
7.65864
7.12966
48.2929
33.0905
65.0393
27.3674
49.708
18.2099
31.5771
18.1988
22.0598
19.2051
15.8303
11.9025
9.47279
6.90937
4.89125
2.9521
2.17532
2.04319
2.39605
2.22271
53.0571
68.9415
69.1953
42.307
46.9426
17.7004
28.7609
12.7461
17.6028
14.3646
11.6718
8.78359
7.01236
4.42465
2.70183
1.477
1.02377
0.831887
0.852598
0.816736
90.98
49.4627
74.3115
33.2951
48.9585
16.1008
30.2802
12.941
17.8636
13.4492
9.64896
7.24924
4.71088
2.94768
1.64952
0.973426
0.595378
0.424289
0.391285
0.408594
82.9383
53.8143
74.0521
32.0616
52.7821
18.2675
27.9824
9.8723
14.9807
6.64593
5.78581
3.19599
3.54665
3.07455
3.41065
3.53297
3.12824
2.09348
1.19734
0.71729
58.2201
80.3962
76.5202
46.1831
56.2247
27.9498
36.398
22.8812
17.2557
13.1286
7.75977
4.50613
4.66086
5.22474
7.94133
7.9884
7.7151
7.34176
6.74884
4.92954
81.1899
63.7287
73.8835
44.0617
55.1565
48.1975
38.1959
25.9834
17.3427
13.8873
12.4629
9.61665
7.14966
7.37917
8.49448
9.44584
9.18446
9.15528
8.9226
8.21826
88.2341
73.166
75.6607
69.2519
55.6823
47.689
38.3148
29.02
21.3451
15.3874
13.1211
11.7534
11.566
12.6549
12.6184
10.8672
9.93042
9.71158
9.44668
8.73776
62.6341
58.3417
72.8225
41.5435
55.1256
46.7917
39.2228
30.9797
23.5853
17.0043
12.3185
11.2645
14.2725
16.5165
15.1103
11.5082
10.2013
9.8611
9.5753
8.90402
38.87
78.1158
81.4113
51.2822
59.2919
50.7715
42.8052
32.7321
23.8084
17.2037
14.0483
13.3307
16.1877
16.4106
14.5022
10.1261
9.34975
9.15853
8.96739
8.48627
48.9619
77.4717
83.7684
77.1735
62.6286
39.0673
45.5519
34.6722
28.0162
23.4877
21.335
19.7909
17.2431
13.2633
8.39397
7.65604
7.19652
6.28541
5.71965
4.37144
76.1829
74.0737
83.2942
73.5294
59.984
35.9179
40.5874
29.09
29.2548
24.5977
21.7834
18.4448
14.9931
11.292
8.95257
6.26067
4.25337
2.57511
1.85899
1.37538
42.3733
71.5562
76.7119
48.2087
48.5666
25.1844
32.9275
29.9238
26.5362
22.4544
19.4247
15.1816
12.6824
9.08594
6.53032
3.87146
2.40012
1.61453
1.3968
1.32705
52.1956
61.3873
65.9367
56.3688
43.4346
30.9661
26.1406
21.6719
20.0534
16.7958
14.5201
11.1264
9.2717
6.26484
4.44906
2.77633
2.04437
1.66199
1.61086
1.59625
40.362
74.6985
75.1093
62.9558
49.2
33.936
24.2647
15.6591
12.8872
10.1478
9.03794
7.34532
5.99698
3.75708
2.59739
1.75466
1.45737
1.36363
1.38746
1.42189
75.307
72.4343
71.0846
57.8017
47.8005
35.7266
26.3019
15.8187
11.5642
8.50951
7.96211
6.56529
5.43785
3.7156
2.71459
1.75435
1.4589
1.32761
1.32709
1.26122
48.06
64.4338
63.1327
51.0976
37.7689
26.6896
19.8797
12.8201
9.30299
6.62927
5.96216
5.27897
5.08268
4.72287
4.11182
2.71418
1.61791
1.14652
1.02216
0.966919
5.82922
13.6323
15.6284
16.4984
7.54638
14.5493
5.51299
6.96801
2.80636
2.45044
1.3103
0.943383
0.483495
0.264932
0.115782
0.048846
0.016834
0.0075419
0.00549033
0.00714024
14.4782
21.988
10.5368
20.4216
14.7647
19.9613
4.51979
7.06407
9.505
6.47273
13.2069
7.57267
3.49423
3.24503
9.59378
19.3636
12.728
17.0183
4.34012
20.2276
13.6626
6.31313
11.0864
6.70312
3.2953
2.44558
10.773
5.4287
0.695451
1.01172
0.80902
13.7416
15.8632
16.8154
19.1279
0.502617
0.830062
0.846946
16.0758
13.9175
19.9282
21.0062
0.398643
0.812307
0.605717
11.8555
4.49443
20.7214
17.6062
0.189318
0.424299
0.595473
4.16348
3.27069
14.0675
4.5363
0.0522839
0.615227
0.375866
2.55369
2.95644
4.30128
4.70376
0.261771
0.350318
0.368094
3.37113
6.09225
5.08446
6.50911
0.109918
0.447202
0.399798
6.09955
4.13674
6.92783
6.3383
0.0389514
0.200636
0.0617428
2.99435
1.91053
5.24243
1.46232
0.70145
0.630111
0.35199
14.5865
17.8539
7.78885
8.14266
0.81555
0.304757
0.252212
18.8138
20.6794
8.21958
9.21055
0.710437
0.252693
0.311763
20.7369
19.7585
9.90867
11.6542
0.403929
0.316978
0.256257
18.2804
5.65717
11.5947
5.26425
0.329795
0.258458
0.251101
4.50958
4.45755
3.54283
4.51013
0.324441
0.144882
0.0591834
4.59335
5.78355
3.99617
2.16326
0.431793
0.0651651
0.204521
6.57459
6.46744
2.32911
3.86634
0.056282
0.176658
0.0499723
5.80071
1.74134
3.84518
1.01983
0.306289
0.550625
0.359481
7.67186
7.77103
13.1323
13.8613
0.184037
0.330592
0.303388
7.59408
7.20854
13.8365
14.4791
0.170644
0.304116
0.270265
7.23582
7.43715
14.472
12.3285
0.186232
0.22768
0.172605
7.15311
2.70825
10.0957
3.08343
0.235647
0.194438
0.18614
2.39729
4.50842
2.95073
4.12683
0.046438
0.152823
0.0823467
4.1375
1.55757
4.06315
2.60295
0.0895297
0.0754882
0.0626052
1.36962
2.3709
2.28534
1.34552
0.0473001
0.0618955
0.052541
2.54366
0.527647
1.00218
0.636035
0.384775
0.763951
0.563004
14.01
14.5953
12.3995
13.0823
0.357831
0.497533
0.463139
14.7585
16.075
13.455
14.0982
0.336275
0.419787
0.519041
16.2139
13.8456
14.1222
13.2247
0.184027
0.445092
0.26854
11.3784
4.8445
12.1903
8.15888
0.146384
0.235251
0.148023
4.2077
3.70325
7.36229
5.69838
0.0757854
0.136015
0.0756461
3.28932
2.31052
5.21291
3.94514
0.0666377
0.0817433
0.0738114
2.19106
1.7758
3.88657
3.48176
0.0511099
0.0811407
0.1033
1.38286
0.733681
2.85725
2.2986
20.794
23.2079
24.0716
34.4786
31.461
35.5221
33.6462
17.2623
24.6141
24.9272
30.0182
22.9252
33.1922
30.6546
6.67175
24.3761
20.6661
20.0598
11.7686
29.2925
23.6597
3.86592
17.2771
6.70845
9.94959
5.47859
20.7025
12.094
4.81323
5.79514
5.25582
5.75757
8.03717
10.4118
6.70122
6.83524
5.78744
7.5522
8.37603
8.03009
7.92121
9.37512
4.4541
7.77355
6.94317
7.44067
4.97854
9.10404
8.12221
2.33957
5.87463
1.97455
4.51155
4.3429
7.60612
5.19053
22.4046
13.248
12.0606
32.2285
31.838
25.5354
23.8836
24.4268
12.059
12.9738
31.7681
30.6695
23.6746
23.8113
22.6769
13.6737
14.8205
29.8328
25.6512
23.8575
22.312
8.38332
14.5664
7.18741
23.4526
13.7209
20.975
11.6114
4.93187
5.00779
5.29816
11.5756
6.5592
9.97166
6.5526
6.68657
4.4696
2.59725
6.79342
8.73541
5.05701
3.17033
7.09125
2.84483
4.13416
8.87667
8.37793
3.25579
5.72586
2.15719
4.11274
1.71031
8.08178
5.1105
6.20445
4.39903
11.8148
19.4504
18.5765
25.4527
23.7069
32.6286
30.2844
11.1191
18.3533
18.4173
23.2159
22.3049
29.5824
27.4468
10.9821
18.117
15.1544
22.0443
20.1787
26.314
20.9521
4.07142
12.7558
5.11495
18.7531
9.74992
18.411
11.4225
5.43624
4.62899
5.08645
8.70642
6.69719
10.133
6.76269
1.88125
4.68556
3.12811
4.87403
2.27132
5.63964
3.4175
2.80206
2.69454
1.50476
1.96828
4.19264
2.57592
1.39623
0.90437
1.13175
0.748369
4.89898
3.22932
1.25754
0.851294
19.801
21.5342
19.7158
35.4019
32.4984
37.2026
33.8778
20.3522
19.3481
19.0807
31.7449
29.2051
32.2977
28.8323
16.6727
18.8065
16.6506
27.8588
21.5757
27.5811
22.0493
7.08469
15.0658
9.8906
18.7629
11.8886
19.6911
13.8004
4.75221
8.88437
6.95575
10.1698
7.00917
12.8725
10.35
3.05853
6.48644
4.97967
6.10157
4.04758
9.86281
7.8845
1.96022
4.89534
4.16446
3.30236
1.6133
7.53529
5.31073
0.812385
3.57361
2.94879
1.39251
0.908948
4.77231
4.99028
33.411
38.1622
35.4205
39.9723
35.3855
42.5139
37.5142
23.4538
34.6368
31.2712
31.6107
22.6299
35.9278
30.2588
12.2608
29.6577
23.3957
19.5478
11.5352
27.9872
20.4359
5.94422
20.5642
13.0359
9.60904
8.76489
18.1939
13.4524
8.81714
11.4658
6.97924
9.74003
10.5096
11.7607
8.39635
8.02068
8.39931
9.75077
10.1284
7.42478
9.91759
10.4653
5.10579
9.44105
8.67816
6.43338
5.27252
10.2597
10.3424
4.55299
8.34792
6.70155
5.09667
4.28129
10.3853
10.0013
33.8698
29.4304
27.2083
40.8209
37.0315
37.6456
34.266
31.5886
26.9103
26.4941
35.8831
31.4501
33.4648
27.9277
25.5136
26.2088
23.5824
29.5728
22.8227
25.7217
21.8931
20.7763
20.3614
23.8249
22.546
21.2372
19.86
23.536
11.6027
11.2795
12.6574
13.3374
11.4595
11.6068
12.9023
9.31693
4.89192
3.39936
8.97485
10.4403
3.95353
7.26739
9.02631
3.62705
7.27696
10.5915
11.3227
8.18884
11.8878
6.4579
7.68013
5.57813
11.3698
10.38
12.1179
9.83628
26.978
36.1823
33.2199
37.6968
34.1548
43.2329
38.7483
25.2071
32.3645
29.4046
33.2148
27.8476
37.2565
31.8515
21.3048
27.9861
21.9469
25.4346
21.7371
29.7412
22.5666
16.7343
14.6222
19.2074
19.8426
16.3189
4.11871
19.3753
6.38565
8.26287
9.55667
2.69316
8.7836
2.66869
9.2659
2.31394
5.46663
2.97387
3.03086
5.89901
4.51451
3.25894
5.84104
2.18619
1.6002
6.86726
11.4029
3.71568
8.3717
4.54208
1.63641
0.936961
11.6604
9.3086
8.73329
4.45263
35.4255
41.1838
37.0524
45.6641
40.3416
47.0442
41.811
30.8667
35.1572
30.6792
38.5845
32.4501
39.163
32.7214
22.217
29.0613
22.9131
30.132
22.4528
30.5949
23.946
12.6811
20.572
14.9374
20.0508
13.8151
21.994
17.7111
7.25878
14.1369
11.3307
11.8169
7.62164
16.8683
14.2424
3.94173
10.7977
8.83412
6.65447
4.84046
13.7298
12.2101
1.7198
8.37048
5.91644
4.93528
6.91408
11.8376
10.4428
0.958016
5.39527
5.75969
7.73993
4.1656
9.91843
8.4603
33.0161
42.969
37.2022
38.8816
30.8531
40.5892
32.8088
21.9892
35.3501
29.074
27.867
19.7017
30.6006
23.9158
11.3428
26.6812
19.1241
17.8019
13.5629
21.7421
16.1596
10.0643
17.0555
12.7768
13.0256
12.7421
14.8548
12.8354
10.8132
11.0202
9.34426
12.4218
10.7697
12.6637
12.83
7.22495
10.7125
10.7152
9.8719
7.12372
12.1858
10.5912
5.42542
10.4802
10.7774
6.73697
6.82948
10.593
11.2959
4.41366
10.8851
10.6513
6.78391
6.71287
11.4185
11.2629
37.0862
39.5164
35.5104
40.4355
33.4349
40.5182
34.6084
30.4821
34.4797
27.0671
31.4826
25.3315
32.9667
26.7801
21.3953
24.6554
21.9815
23.2064
17.4134
24.7628
19.7607
14.1964
21.4692
7.18082
15.9494
13.0083
18.1501
12.2267
8.33781
5.33435
4.74121
11.981
12.4598
11.141
11.0775
10.6683
5.96991
8.8777
12.1381
11.34
11.3225
11.8315
11.9128
9.76618
13.1328
11.6481
12.7187
13.1159
15.6963
11.2253
13.395
11.1378
12.7936
12.3971
15.7245
14.3508
35.4976
44.555
39.3929
40.831
34.8519
43.8815
36.8057
27.2688
37.6507
31.5895
33.1418
27.2819
34.6313
27.8138
21.8138
29.3395
22.2587
25.0678
19.9734
25.574
19.6795
6.71078
20.108
13.4957
18.4264
12.0743
18.1337
14.0668
4.30226
10.615
6.21212
11.1247
11.1573
12.6995
10.4744
7.78134
5.28927
5.02979
11.0696
11.9213
10.3141
13.0298
12.9235
6.40419
11.0731
13.4192
16.1748
14.3939
16.3203
10.7623
11.3724
7.16746
16.1866
14.5785
16.1171
14.603
40.696
49.1237
42.0588
44.9824
37.4748
45.7593
39.2543
31.9746
39.2845
32.4978
35.1242
27.9188
36.3724
29.6029
22.1274
30.3312
23.8154
25.6157
19.672
27.543
22.3462
14.1021
22.0698
18.2453
18.1335
14.7252
21.2515
19.009
8.08849
17.4544
15.1274
13.8932
12.0429
18.4826
17.3189
6.68393
14.7236
13.6593
12.2246
14.0562
17.2042
16.8584
9.7493
13.3844
12.2087
14.9969
16.1482
16.61
14.91
6.50393
11.1911
8.06559
15.7958
14.1549
13.8529
10.8494
28.8269
38.2344
30.2262
14.0267
8.71862
16.5687
14.0833
18.8484
28.1708
22.0151
7.76884
7.76983
12.1303
9.22096
14.3635
20.1173
15.6949
7.85414
7.25089
8.69924
6.92585
12.9493
14.7473
13.4698
7.63047
8.60603
6.94932
8.8654
10.5355
13.4342
12.479
9.19203
6.8448
9.70841
8.91327
7.34224
11.7309
10.3774
6.81344
6.27191
8.13453
7.92378
7.38285
10.4516
11.1436
6.32859
5.90806
7.4588
6.59773
7.4983
11.2363
11.0671
5.97864
5.62743
6.5325
6.0404
30.8731
38.8595
32.4061
16.659
15.8403
17.7937
18.9614
23.2798
30.7422
25.3762
13.7442
10.1083
17.2077
12.3107
16.4739
23.4106
18.1242
8.91466
6.80167
10.2577
7.04133
13.3307
16.7634
12.8669
6.78735
8.59462
6.74365
8.50308
12.3813
12.3486
11.7139
9.67665
9.87704
9.62758
10.3359
11.2031
11.3272
12.3474
9.04246
8.41947
10.5782
12.4543
12.5928
13.7316
15.9879
8.36672
7.07744
12.8035
10.0053
12.2925
15.9172
14.7491
6.94709
6.31835
9.32914
8.10257
32.7053
41.8525
34.3905
16.3982
19.4001
17.3902
19.5422
25.5483
32.2541
25.754
17.7079
12.8115
17.7472
13.4036
18.3231
23.6777
18.2692
10.6827
7.27606
11.5494
8.11566
12.8894
16.9571
13.9487
6.9579
8.73283
7.75628
8.97429
11.4852
13.2068
12.0253
9.81767
10.6317
9.94608
12.6276
12.7617
12.0623
14.5688
11.0359
13.9608
13.7249
17.0167
16.63
15.7479
17.0522
14.3956
11.1961
17.7547
13.7905
15.1189
16.7303
15.4086
10.3753
8.84676
12.7369
11.1418
35.0247
45.4862
37.161
18.6707
18.6227
16.9687
13.545
25.8996
34.3733
28.0234
16.7704
13.0281
11.2233
11.9481
18.504
26.1168
21.6871
11.9189
8.50215
10.8918
9.86459
14.6133
20.7993
18.9926
8.12942
9.16545
9.5288
10.9983
13.2062
18.5391
17.7232
10.0102
12.6041
11.6477
13.2776
15.4102
17.6592
17.2826
13.7989
17.6955
13.6795
15.7978
16.8245
16.9892
15.7358
17.3015
13.9854
14.2436
13.2344
15.1165
14.9636
12.2547
13.0506
11.2695
11.0963
10.6018
16.8702
17.1733
14.4613
14.8881
17.7275
17.0999
14.1403
17.6213
22.9669
16.6396
20.9581
20.0235
22.9141
5.88257
11.7366
12.9402
12.6291
3.31575
16.1365
9.39283
3.60582
20.1025
21.5971
18.2495
21.8451
19.1392
22.8675
19.3115
16.3757
14.955
16.3409
14.4107
16.8055
14.1736
16.2404
17.2032
20.6604
20.9107
12.8818
22.6695
5.66817
18.3221
11.0112
3.00766
10.546
6.51873
9.12864
3.42019
12.551
9.06968
8.8443
6.87104
7.26565
9.17836
8.83034
7.24562
9.0956
11.3862
8.70936
3.21273
10.5529
8.82819
3.06571
8.44591
6.81665
7.45517
4.55311
8.82158
6.9619
3.90903
11.3877
13.4763
10.7029
13.0481
11.4171
13.0427
10.7439
8.76073
7.28376
7.95158
6.63723
8.66856
6.78019
8.31518
9.00651
2.79482
9.81593
2.97456
8.86097
2.65031
8.95094
8.05286
3.55736
6.64916
3.06323
7.00016
3.39037
7.82527
13.9627
11.4175
11.3814
2.99331
13.5697
3.49344
11.9146
17.5733
19.0748
16.7594
19.9059
16.5233
19.9661
17.4615
15.2545
12.2532
14.5043
13.4489
14.0725
13.2399
15.349
16.9958
20.0145
11.0019
19.1588
4.36176
19.2922
17.7995
13.1804
2.97372
5.87505
9.02372
3.40704
9.84612
13.2334
18.1598
20.1502
20.3932
18.1199
20.3697
17.853
18.4518
15.7323
13.6929
12.4104
16.0565
12.9981
15.7798
15.761
4.42607
7.14255
5.67925
3.62
7.06043
2.66176
3.40655
8.65321
10.9342
9.27786
11.3986
9.29861
11.0552
9.21927
6.27504
6.12539
7.87147
6.121
7.48772
4.67733
7.50634
4.58715
2.7102
2.51528
5.71044
2.40555
6.93569
3.42555
2.7947
2.26592
2.1935
2.20801
2.10241
2.19297
2.45381
7.33276
11.2964
8.99263
8.09613
10.2078
8.71046
5.86308
4.89809
5.502
3.12875
6.52156
3.4012
6.82253
3.91826
1.83917
2.09781
1.95622
7.51443
9.6692
7.31416
9.86252
1.35265
1.81894
1.52619
8.94011
6.12439
9.85096
8.06958
0.340621
1.21515
1.14275
4.14689
2.98144
4.90554
3.86786
0.0380889
0.900326
0.329005
0.85604
0.288494
3.02646
1.65373
0.0205751
0.106512
0.0786649
0.167525
0.360755
0.84867
0.772567
0.144114
0.181658
0.455507
0.553778
0.944538
1.93571
3.28698
0.111477
0.531826
0.386187
1.12696
1.02507
3.39144
2.83826
0.0722862
0.249453
0.202061
0.635754
0.514692
1.53924
1.24221
2.45596
2.55137
2.49054
10.0474
10.836
10.2953
12.9114
3.82692
0.893611
0.973333
2.95888
3.62067
3.05648
0.741631
6.16806
0.586466
0.617875
5.28347
5.5449
5.81423
0.603519
4.48055
0.299281
0.505972
3.38553
1.92337
5.81513
0.426942
1.9679
0.497192
0.463036
2.10551
2.46662
1.41049
0.514493
2.12364
0.0530578
0.349405
1.24857
1.01374
2.48385
0.230792
2.02667
0.0823179
0.248508
1.00369
1.38079
2.32423
0.23321
3.29823
0.266792
0.432778
3.22634
3.19773
3.37226
0.417849
0.927232
0.0576273
0.127427
1.51656
1.10211
1.48638
0.0814744
0.171314
0.309626
0.223763
1.43576
1.05863
1.01437
0.922485
2.10483
2.50772
1.71454
8.08553
9.86406
6.80462
6.55428
3.73014
0.735055
0.831744
3.21978
4.32317
2.94376
0.680304
6.59388
0.769761
0.595581
7.01325
7.633
5.99471
0.608853
8.00639
0.790927
0.673659
8.41112
8.44113
7.88515
0.672206
6.38016
0.505517
0.625467
7.56839
4.50783
8.00944
0.555476
2.14673
0.56467
0.390072
1.93331
2.38362
1.80853
0.441713
1.91677
0.276697
0.213796
2.32752
1.91145
2.40862
0.190039
2.61665
0.451453
0.315237
2.64076
3.13472
2.00012
0.406117
1.45581
0.114891
0.346312
2.57822
1.28855
2.75424
0.144583
0.20889
0.185773
0.207387
0.737146
0.632158
0.606328
0.63935
1.59073
2.3085
1.61406
6.82199
6.5866
8.62284
9.89412
2.27334
0.443768
0.564847
2.07926
1.98685
2.23439
0.43647
1.83264
0.230196
0.268606
1.78516
1.67356
1.96482
0.234663
1.55269
0.167612
0.175144
1.57731
1.6673
1.66822
0.159496
0.931228
0.174102
0.135274
1.92684
1.79585
1.17577
0.132884
1.68873
0.274918
0.214169
1.05861
1.71172
1.02854
0.262582
1.74189
0.0823088
0.155792
2.1786
1.50858
2.3318
0.102179
0.270047
0.0565708
0.0548342
0.247249
0.231587
0.543495
0.0483207
0.241076
0.0618043
0.0489152
0.970626
0.8241
0.281232
0.0445404
0.290049
0.292847
0.374959
0.612196
1.22377