/*--------------------------------*- C++ -*----------------------------------*\
  =========                 |
  \\      /  F ield         | OpenFOAM: The Open Source CFD Toolbox
   \\    /   O peration     | Website:  https://openfoam.org
    \\  /    A nd           | Version:  10
     \\/     M anipulation  |
\*---------------------------------------------------------------------------*/
FoamFile
{
    format      ascii;
    class       volScalarField;
    location    "1.4";
    object      omega;
}
// * * * * * * * * * * * * * * * * * * * * * * * * * * * * * * * * * * * * * //

dimensions      [0 0 -1 0 0 0 0];

internalField   nonuniform List<scalar> 
12920
(
99.1569
161.032
150.211
117.825
92.6309
78.4969
70.3451
64.7165
58.8299
53.7946
48.6727
47.0063
46.87
47.2664
47.8212
47.7857
47.1525
45.4918
43.1195
35.7776
248.27
228.883
169.365
134.45
118.938
106.785
91.9033
80.9782
70.7708
63.77
56.8812
51.2828
46.6205
43.2376
40.2322
38.7522
38.6165
38.385
37.7853
32.6223
232.257
258.893
231.699
161.934
132.787
117.781
96.945
84.461
72.4181
65.2193
57.3781
49.2057
41.4622
35.7569
33.0663
31.3251
29.5874
25.7363
24.0131
18.7382
224.438
242.375
192.287
145.446
114.508
96.1558
77.0434
63.8573
49.5876
47.5698
45.0419
40.9073
34.2984
28.0081
22.612
17.2541
13.1007
9.68605
9.15685
6.98811
219.166
244.446
203.371
155.465
121.021
97.2096
78.9203
58.7338
40.5166
30.1212
24.6849
23.0155
18.3436
13.6895
9.31555
5.95166
3.96913
2.67984
2.52304
1.89894
72.6123
117.349
150.755
159.273
145.878
121.282
94.6971
69.5747
43.5334
25.466
13.9699
10.2165
6.89116
4.47764
2.58859
1.39602
0.738294
0.440308
0.445632
0.391121
76.4489
154.469
160.141
139.3
119.47
101.72
86.7374
63.0107
39.551
15.4154
6.53197
6.53938
7.51139
5.86995
5.58217
3.83853
1.89194
0.794345
0.326437
0.18452
162.822
259.992
200.742
148.961
130.107
112.01
168.509
130.649
90.1462
34.4101
11.3192
24.4583
32.8522
27.5941
16.3704
11.4963
6.35574
3.00122
1.24572
0.465761
273.081
294.608
210.806
161.44
137.606
202.994
319.716
255.12
200.175
159.116
56.21
55.226
122.533
63.5475
39.3241
18.3563
11.8121
6.52032
3.12006
1.23519
103.74
157.446
176.032
156.621
132.099
202.154
334.368
318.719
361.205
356.215
189.186
107.773
128.378
106.501
39.3056
19.7213
13.8673
7.92786
4.07689
1.72803
74.1647
149.084
160.831
145.981
129.597
194.136
297.259
231.704
209.324
224.844
170.222
116.63
45.5516
63.9116
41.2647
26.3525
15.8059
8.30258
3.91027
1.54741
153.4
232.861
229.394
190.585
153.647
223.698
319.349
246.609
250.263
216.297
138.206
120.509
87.8203
78.3042
55.9955
28.0628
16.3229
8.61333
4.24396
1.75532
338.61
296.62
265.951
211.7
170.075
142.245
210.634
155.85
130.781
118.66
102.815
85.8225
75.9766
61.3835
33.5426
31.7532
25.8849
17.8461
10.9749
5.45034
354.012
294.944
228.464
208.81
176.396
143.526
114.418
89.4194
73.2389
61.0149
52.9508
46.5991
42.1776
39.892
38.3877
36.9866
35.6837
32.4664
23.6703
13.1286
297.457
204.225
206.218
201.53
179.594
136.017
95.8538
72.4395
60.9617
53.575
47.6376
42.443
40.134
39.9349
39.4591
37.3102
32.6611
26.6209
19.5463
11.3869
38.2582
154.553
170.224
166.034
148.256
111.162
83.9317
71.5432
62.8485
55.2171
47.4231
38.3966
30.5462
24.9185
22.2993
21.9176
22.1123
21.7489
19.4798
13.0949
275.761
259.027
213.044
151.659
122.897
112.104
104.076
96.1363
81.5012
66.4453
50.1575
35.4326
24.5563
18.0142
15.6044
15.488
16.4416
17.3422
17.1817
13.9186
267.347
198.168
156.656
133.531
116.613
112.184
106.374
102.856
94.0507
82.7073
69.8766
57.9217
47.4117
38.0025
29.9692
23.3741
19.073
16.3439
14.3904
9.64556
85.6014
166.114
171.704
161.205
130.239
113.869
98.7039
84.6791
71.8453
59.7165
50.5694
44.464
39.4446
33.2676
26.0679
18.7415
13.1266
8.8142
5.9079
3.1506
81.462
127.205
126.824
116.382
102.847
89.4296
79.3088
71.5616
63.1043
54.331
46.1604
38.253
30.3383
22.2161
14.853
9.05368
5.2512
2.85124
1.51401
0.705003
40.1138
85.9379
80.2591
67.1095
54.6151
45.4465
39.0041
35.3465
32.3901
30.944
29.727
28.8263
27.8696
26.8707
25.8538
24.0834
22.1129
21.1388
21.0003
20.2116
272.569
194.742
95.8194
71.7468
61.9024
54.5804
47.8175
42.0063
36.9365
33.0144
29.3408
27.7672
27.3988
27.7708
28.2115
29.6064
33.6361
36.0876
35.9226
28.2689
95.8602
163.889
167.817
115.305
71.6116
58.7368
47.008
41.1802
35.8107
33.0906
29.3784
26.7727
25.0898
25.3078
26.3838
26.8302
26.2377
22.4047
19.9772
13.4733
290.713
146.083
110.435
76.8973
57.1744
49.7842
42.3499
34.9767
28.5668
26.86
25.5004
24.4918
22.0706
19.0566
15.6487
11.537
8.57301
6.46034
6.12988
5.30949
261.483
229.632
120.252
89.7803
66.7608
55.7575
48.0077
35.587
26.9774
21.1419
18.2199
17.0885
14.2404
10.8318
7.90102
5.98353
5.1204
4.73963
4.67364
4.5591
331.538
231.807
125.064
97.2084
72.1706
70.2556
58.5071
45.9934
31.067
19.4029
14.1647
11.3023
8.97244
6.91027
5.66274
4.8762
4.57887
4.55245
4.62133
4.68989
271.82
120.095
89.7908
75.8041
62.3439
53.7745
48.0298
42.9645
33.7262
16.6586
13.5463
10.7328
11.1942
10.9561
10.7131
8.87895
6.91543
5.88049
5.47985
5.05846
342.624
178.977
109.586
77.4752
64.6757
56.8632
58.4831
58.3919
53.9708
37.0965
18.1446
23.2233
20.6694
20.6081
22.2436
18.6662
11.364
7.43342
6.01796
5.26592
410.053
215.589
121.66
84.4186
68.294
69.7566
68.0716
61.1863
59.123
69.8152
44.0457
30.8076
30.2927
28.4969
29.1971
23.8524
15.946
9.32445
6.06409
4.89249
191.573
148.114
124.363
91.0928
75.8107
77.9572
75.9807
68.2518
66.1042
68.8577
91.2016
46.1541
32.4607
33.6169
28.2258
24.8954
17.2794
10.8159
6.91779
5.07206
148.543
123.562
109.359
88.3328
76.5668
79.8065
84.5501
82.0778
82.2726
82.028
99.4215
56.656
32.6071
32.1356
36.943
27.6036
17.2605
10.556
7.0368
5.20747
205.572
159.365
115.717
87.1288
69.7546
69.4835
68.42
61.8925
57.4743
58.9782
65.4165
49.691
35.6779
30.0099
36.7053
26.9703
15.267
9.04744
6.57587
5.30851
108.654
158.852
132.399
96.856
75.7053
61.3694
62.8801
56.0228
44.6135
42.9271
42.9161
36.4102
30.6661
30.6763
29.7873
28.4414
22.9279
14.2292
9.17644
6.1257
174.921
171.404
134.35
107.78
86.1731
69.1004
55.8669
47.7399
43.8796
41.0933
39.7896
37.2308
34.9311
33.1363
31.6952
30.622
29.8905
28.2554
21.945
10.5787
176.298
136.449
126.01
123.997
111.912
81.0686
55.6053
42.5002
37.6982
34.3337
32.9626
31.2505
30.7922
30.402
30.0965
29.443
27.745
23.0526
17.8932
10.553
129.247
143.407
133.369
112.388
91.389
68.395
50.8282
41.5432
35.7796
31.4448
28.4142
25.0133
22.8832
20.524
18.7174
17.675
17.6356
17.5282
16.8952
13.3326
162.609
163.207
139.837
106.051
83.1038
69.132
57.5326
52.8201
43.9266
35.7164
27.3984
22.1941
18.5844
16.0975
14.6521
14.5531
15.5183
16.385
16.2095
13.1573
176.209
133.975
113.631
88.7345
71.362
64.8448
59.2521
57.5349
54.6788
52.2512
46.5664
41.2132
35.5616
30.3239
25.173
20.4935
17.515
15.1111
12.7605
7.57978
94.966
126.564
104.173
86.1347
78.5544
74.8596
65.3971
54.4422
45.7481
42.1923
39.5173
37.2435
33.2932
27.345
19.9096
12.7677
8.49738
6.14599
5.14552
4.60988
39.5008
75.8433
79.0384
75.162
63.1876
52.0875
44.5915
40.1373
34.8669
29.295
23.4552
17.9344
13.0324
8.86632
5.51707
3.12362
1.63841
0.808541
0.396764
0.181666
66.3563
110.179
91.4496
72.5054
59.0524
49.0593
42.7691
38.9839
36.231
34.3272
32.5942
31.3103
29.7821
27.9979
25.9873
23.5091
20.9256
19.0402
18.8904
18.7821
405.321
168.258
94.8572
63.0061
53.3817
45.1451
39.126
35.8288
32.4767
31.0481
29.2072
28.7053
27.8022
26.893
24.6225
21.3134
20.1918
21.3786
23.1588
19.7226
149.011
165.588
125.486
77.8697
56.9149
46.9459
38.5438
35.0853
31.5943
30.0296
27.7461
26.1765
23.1365
19.1259
15.562
13.2178
12.6231
10.8525
11.0557
10.1811
231.112
129.899
91.1509
60.1934
46.0664
39.1931
34.9298
30.3833
27.0516
26.0079
24.6581
23.3979
19.8874
14.9789
10.8969
8.22654
6.75755
5.85981
5.756
5.47934
267.449
165.12
93.1973
61.8804
48.2923
39.7632
36.0149
28.8176
25.184
21.9708
19.0925
16.6567
13.2739
10.2143
7.9456
6.55635
5.84703
5.40592
5.28014
5.00784
235.669
128.3
88.7502
65.9688
52.2273
45.6286
40.1228
32.7287
26.7851
22.2453
17.3032
13.4753
10.302
8.10243
6.87288
6.04662
5.57796
5.24169
5.14978
4.97028
148.718
109.297
73.0359
56.926
49.9329
41.8509
39.495
32.4432
30.2961
22.9874
16.3358
12.2899
11.602
10.1879
9.88704
8.72052
7.51173
6.40793
5.79292
5.19044
253.656
188.3
115.707
69.3863
54.807
46.0979
46.3039
49.3747
44.0251
35.7992
21.1625
23.4552
21.3183
18.7293
19.5114
16.2283
12.3368
10.0942
8.67323
6.5489
828.337
382.21
132.909
79.4961
58.032
53.854
50.6273
49.7445
49.9089
62.8871
43.5192
32.6813
30.5751
28.8275
31.2915
24.9434
16.8462
13.2859
12.2357
10.2503
221.117
183.422
141.826
94.4833
66.0733
61.8388
59.3899
57.7533
58.5803
62.1009
76.494
45.7442
37.8234
36.1057
33.6964
30.8724
21.2015
15.4612
13.5954
10.9863
164.231
133.695
106.903
77.6601
62.8607
61.7115
63.7933
65.4706
70.2669
73.793
101.884
50.5113
39.7467
36.8497
30.2964
31.9203
22.1597
16.1867
14.1572
11.38
183.223
152.551
105.412
72.5448
57.663
52.937
50.8904
49.7526
52.1324
59.0065
63.8898
43.4225
35.7626
29.498
29.1187
28.7452
18.0681
13.3655
12.0969
10.2161
164.739
135.873
119.779
85.6995
63.93
51.1656
47.3329
42.8347
39.1446
38.7029
36.7281
32.3792
28.725
27.9411
30.0233
25.6455
17.2774
11.7108
8.76787
6.37989
144.657
125.614
107.42
88.0225
67.3062
52.3107
43.6258
38.2381
36.6065
35.2348
34.5022
33.4382
32.4412
32.0322
31.8224
31.3145
30.4595
27.4334
18.0602
9.20049
170.505
133.568
102.461
82.9507
66.7663
50.7976
40.3142
34.6726
32.9991
31.7193
31.3839
30.706
30.3996
29.7101
28.7504
27.4379
25.1867
19.9688
16.3469
10.5125
143.012
153.131
125.173
92.0753
65.6945
50.5813
38.9588
33.1826
30.0532
28.1623
27.538
26.9768
26.1927
24.0872
21.2511
18.3799
16.8017
16.1477
15.7714
13.5734
116.579
139.944
130.498
106.204
77.2995
59.2444
45.3454
37.1823
29.2447
25.02
23.1478
21.831
20.3574
17.2926
14.3409
12.2277
11.8895
12.4117
12.9001
10.8973
140.849
147.967
110.802
83.4399
62.7096
54.1669
46.7318
43.3175
37.4091
32.1074
25.1754
19.9226
15.7966
13.0793
11.6978
11.1609
10.4375
8.99363
7.59745
5.74546
277.912
161.359
102.484
76.1687
62.5064
57.2583
48.2571
41.521
34.691
30.3978
26.5993
22.5329
17.6503
12.4229
8.65624
6.47858
5.65097
5.28324
5.18342
4.92159
60.1209
89.9836
88.5579
78.6601
63.7215
53.3401
46.7998
40.5464
34.2231
27.894
22.1755
16.8018
11.9609
7.79582
4.67568
2.62471
1.37082
0.673455
0.322696
0.147446
164.512
146.88
100.905
73.8717
59.504
49.267
43.4007
39.6741
36.9683
34.793
33.0724
32.2768
31.3527
30.0063
27.9163
25.6632
23.522
20.9878
19.995
18.9947
228.005
191.397
116.602
62.247
53.6887
43.0508
40.8891
37.6339
37.1008
36.5021
36.3412
36.4141
36.6581
36.847
36.7481
35.5541
32.2968
29.413
29.2839
29.3607
187
131.167
91.8417
63.9288
54.3671
43.2361
39.9168
36.0508
35.503
34.3696
33.9169
33.7181
33.745
32.7219
29.3691
24.1876
22.603
22.9292
25.3799
26.1783
253.664
140.119
79.6557
55.8449
46.6839
38.2924
37.573
33.0518
32.8498
31.8617
31.2385
29.8833
27.2337
23.0195
18.6665
15.0656
13.8957
14.0462
15.2852
15.3758
178.005
136.27
79.5983
55.1795
46.4179
37.5302
37.5999
31.4284
31.8768
29.728
28.3953
25.3117
21.8424
17.3032
13.8273
11.3271
10.5684
10.471
10.7487
10.6466
215.173
119.685
84.2145
58.6169
49.5469
40.02
39.5144
32.8226
31.9175
29.8551
26.5365
23.526
18.2396
14.5474
11.6244
9.84462
8.66374
8.06502
7.95839
8.16427
182.692
104.443
70.5219
55.5266
50.4667
40.1463
40.3573
32.3588
33.761
28.8242
23.4987
15.9548
15.7299
14.2764
15.0766
15.4793
15.3825
13.7391
11.1159
9.5251
261.285
160.994
113.456
67.6055
56.7729
45.01
44.8201
42.6482
37.3088
35.9546
28.1529
24.2536
19.9481
18.602
26.067
25.4455
25.1259
25.0256
24.2247
21.2129
681.319
256.305
126.541
77.5925
57.9594
50.2368
47.8622
46.9841
45.123
51.0549
39.1106
37.8536
31.4397
32.0792
33.7735
30.7787
28.3958
28.4103
28.3151
27.7897
567.156
244.534
154.369
101.779
67.8983
57.7886
53.1329
52.7451
53.6778
60.9969
70.3706
45.8241
43.8702
40.0729
41.7087
37.1523
31.6487
30.0239
29.4692
28.5567
360.28
176.167
124.192
76.3575
61.6162
57.0083
55.8679
57.554
62.5908
68.4239
110.704
50.786
47.0096
45.8055
46.8788
40.8966
33.3328
30.8946
30.0313
29.0554
220.479
179.191
122.212
70.5125
58.4024
51.5008
48.8942
48.5243
50.7187
53.2367
50.9904
42.6576
48.075
46.8429
49.4443
36.6136
30.8898
29.8122
29.4625
29.0124
124.256
133.928
124.656
84.7727
64.6787
51.4232
46.723
41.4473
40.3693
40.3559
40.34
39.9605
39.5823
40.1421
35.4707
28.7758
25.4669
23.7473
22.8575
20.7128
201.445
125.675
110.505
80.9883
64.6121
49.0667
43.1212
38.3236
38.2222
37.7964
38.4251
39.1277
39.8482
39.5195
37.8409
34.63
29.0768
20.6402
15.5128
12.9341
172.454
137.367
100.013
68.927
58.0667
44.7536
41.1917
37.1527
36.69
36.2828
36.8026
37.236
37.1308
35.6994
31.7258
25.5258
19.4832
15.6839
14.6479
13.5493
208.795
146.979
115.383
76.4086
59.5502
45.9937
39.5104
34.7587
34.3037
33.697
34.3451
34.3375
33.9831
31.6604
28.9158
25.3735
22.1821
19.062
16.8973
15.2847
126.975
147.763
126.56
91.0944
68.9058
51.3404
41.5154
33.8828
31.5928
30.4164
31.4608
31.3282
31.3508
30.0012
27.3984
22.2248
17.3226
13.8289
13.125
12.6109
151.803
149.662
110.079
74.5582
60.2272
48.8083
43.5654
36.7904
31.6593
26.9825
26.0766
23.8128
22.6736
20.1212
18.2146
14.9203
12.9276
12.0013
11.4607
11.5181
112.467
158.419
117.498
68.6045
58.0334
50.3534
43.7501
36.2862
30.8356
26.2512
23.3877
19.4049
16.8598
14.8548
13.6074
11.9732
11.2762
11.1379
11.2314
11.3778
118.888
104.65
91.1897
69.0947
58.5071
50.4856
45.046
38.0695
31.5461
25.5482
20.4138
15.5343
11.0973
7.36732
4.56195
2.62148
1.3848
0.682339
0.335019
0.176526
132.968
124.348
85.7065
68.1426
56.4628
47.3514
42.0564
38.2984
35.3999
33.3355
32.4187
32.3651
32.4808
32.2412
31.2098
29.3708
28.8852
28.5332
27.4631
22.9986
336.352
177.347
103.861
67.8398
68.926
49.4809
57.0201
45.4695
52.2013
46.1393
50.3343
47.8573
50.9429
50.9311
53.6686
53.7142
54.1772
52.646
53.8838
54.8167
243.009
137.802
95.4561
67.1684
66.217
48.2292
52.5894
42.7347
48.7294
43.4031
47.7379
45.5224
48.8921
48.6867
50.629
50.1497
50.2443
49.2964
49.8169
52.0154
194.394
175.908
88.8406
70.5336
58.6952
49.7546
51.5863
41.1848
47.6189
41.8312
45.7568
43.2883
45.5776
45.2241
46.5982
46.833
47.145
46.3931
46.152
48.586
314.645
152.206
91.1369
71.2639
59.1995
52.0055
54.0905
40.5236
47.2615
39.8822
44.084
40.8153
43.1346
41.9363
43.6353
44.4414
46.8824
48.5803
49.5946
52.2098
223.059
146.254
98.6764
73.139
62.7619
54.9134
54.6968
41.3427
44.7826
38.839
39.2239
37.9067
37.6238
38.1748
39.1633
41.6929
44.2088
47.0694
48.4323
51.4058
427.619
134.948
79.9446
77.9059
61.782
53.2129
56.2363
44.0299
47.0563
36.7201
35.5202
30.7527
33.5768
33.2297
36.0558
38.3583
42.0643
45.922
48.4282
52.594
262.62
152.485
110.045
75.5625
73.0862
54.8582
53.9597
46.8325
47.948
44.1588
41.2879
36.3077
38.9901
39.4557
40.0503
40.2627
41.1429
43.089
44.4476
48.3233
410.765
179.673
127.282
84.1707
66.5244
54.9422
57.8316
52.0833
51.4204
52.7329
52.0947
47.5839
44.102
44.2012
43.9517
40.5605
40.6305
41.5988
42.604
45.0806
513.077
214.482
170.636
96.4257
80.1768
60.8394
59.1843
58.9609
56.6387
59.1473
61.9879
59.395
52.0874
50.1558
47.5956
42.8426
41.6775
42.2704
43.0217
45.0401
283.37
209.769
139.482
81.4589
73.6917
61.4347
60.909
61.5962
60.1555
59.9194
61.5316
65.3588
64.2068
58.8008
55.9717
45.4792
43.046
43.1057
43.7034
45.6075
181.962
170.496
133.276
73.267
72.0588
58.9756
60.9068
59.1368
57.6444
58.755
62.8801
65.5812
65.2632
61.2901
57.2977
45.3014
43.7302
44.1495
45.3312
47.7949
303.578
162.079
137.101
76.5354
79.3107
62.0692
56.4142
48.2744
50.7472
51.2755
55.5316
57.1519
58.2216
56.3793
49.8275
48.4934
49.5688
52.1877
53.8181
56.305
218.671
134.247
118.46
76.6316
77.9722
55.2195
52.6729
46.5167
48.4014
47.7378
53.8123
55.6976
59.5047
58.8685
58.1643
55.8051
55.6193
56.5001
59.5983
61.927
221.992
144.677
113.818
70.522
72.2178
52.5267
56.9416
47.528
50.4753
47.8223
52.3627
52.2946
54.8108
54.7165
55.8762
55.9356
57.3714
59.0678
59.8366
60.6271
347.526
146.033
122.277
73.8034
76.736
53.0546
56.6896
44.6534
48.4859
43.3648
47.853
46.8744
50.8825
51.982
55.5826
56.4699
58.4447
59.674
61.0621
61.6272
234.544
168.867
132.579
78.7433
77.5859
52.8796
57.0955
44.5303
50.0027
45.7229
50.877
50.929
54.614
55.367
57.6551
57.683
58.0961
58.0944
57.6876
58.9318
200.731
170.075
119.259
73.8331
75.1249
51.418
58.587
45.7751
52.3408
48.7368
53.7011
52.6284
55.1296
54.574
56.2348
56.2939
57.3506
57.3651
58.0895
61.2028
200.64
219.855
158.488
71.6408
76.0908
53.4151
61.4422
49.3735
53.9148
49.2922
51.441
48.7412
48.9853
47.0071
47.6544
48.4885
53.0061
56.3278
59.5208
62.6488
80.7672
110.494
88.4266
60.217
54.0137
46.2014
39.3315
31.7859
25.7315
20.781
16.6941
12.9215
9.52772
6.6174
4.31395
2.55151
1.41736
0.871937
0.768168
0.8906
72.857
74.02
98.5322
61.4005
73.0036
71.3482
179.08
63.8914
102.932
74.3074
73.5063
52.1015
174.748
76.8586
98.4251
63.8464
72.1781
72.4999
181.379
61.5979
65.9859
70.7695
72.4153
54.6203
166.875
71.4906
65.8195
47.4245
259.634
324.605
302.419
82.094
69.9984
81.3361
70.8801
234.563
312.043
341.578
68.232
64.6189
68.7014
66.0141
137.451
342.308
314.699
64.9704
74.9766
66.0572
69.8388
84.0529
253.874
190.675
77.9034
58.781
74.1749
101.006
56.8477
195.433
119.206
40.9748
31.4806
104.607
52.2078
119.169
110.837
116.403
31.6782
31.0144
38.1846
32.8391
80.8599
141.422
127.148
30.655
28.2834
33.539
33.8348
46.8611
91.8351
57.061
28.2233
30.4526
32.844
29.9528
309.684
308.468
255.265
87.5747
76.9713
102.239
95.975
358.561
245.05
242.834
74.6462
71.3492
94.8084
90.7036
369.122
249.711
289.493
71.3286
72.6953
89.8343
86.9307
186.755
295.302
227.046
74.466
103.438
86.6953
109.021
128.968
183.577
150.76
106.588
67.6979
116.854
82.4281
102.371
107.088
45.3723
44.472
32.6945
55.3241
32.8313
135.89
44.7639
92.6158
33.0986
34.3792
32.8756
33.1795
56.5499
93.7191
53.894
34.001
30.5716
33.3401
36.6664
243.036
304.659
249.693
100.694
93.5144
84.2584
74.3938
209.886
242.272
241.751
91.9421
90.6105
72.6217
67.4069
221.709
243.347
234.218
90.474
88.6602
66.2316
66.5905
187.924
211.759
140.409
88.7039
111.635
67.558
80.3808
159.342
141.933
151.753
115.543
75.4129
81.0429
62.7125
51.3341
137.713
94.7604
57.1394
35.6601
54.0701
40.0983
60.9041
90.4146
78.7379
34.902
31.8274
36.9707
32.4061
53.8194
77.0187
55.0358
31.8241
37.4524
31.4352
50.2788
256.347
373.581
281.337
83.0781
72.2751
92.5031
78.0913
246.24
269.145
222.318
69.5707
62.739
71.3166
57.3719
242.513
222.309
214.442
61.4977
61.4862
54.3195
51.4038
139.635
208.049
156.418
62.2275
68.9504
51.2623
52.0923
130.037
150.75
128.611
69.4108
58.7598
51.8681
44.0985
90.6397
118.867
88.7992
52.8682
40.0014
42.1523
34.7125
82.4749
88.6524
85.1176
36.5906
29.9671
32.4933
27.8146
58.3822
87.2564
87.8158
30.4814
49.7851
28.1557
34.8492
62.2562
70.2455
63.8798
53.0461
51.1057
57.7179
54.8481
59.0169
62.496
60.9023
51.171
51.0622
54.6275
54.8271
65.7663
60.9873
64.2231
51.2
58.1826
55.1123
58.1467
62.5286
66.785
84.8853
63.3543
60.0386
60.2928
70.9631
30.9725
91.0466
55.5823
45.3902
31.5955
76.5643
55.757
30.6286
38.8143
32.3099
31.6226
31.786
40.5182
35.662
28.5331
33.3213
33.5798
30.8407
28.2935
36.6108
35.2763
28.4904
32.5723
29.1131
28.245
29.4854
34.2099
33.0243
69.7919
85.6414
85.3792
62.2639
59.7404
67.8511
69.3585
66.0974
84.8479
82.9043
59.5101
59.6913
69.9168
71.9841
67.6324
82.5232
81.3092
59.9492
61.9453
72.8488
74.8053
86.7255
81.0688
93.3404
62.9275
73.0266
75.0919
84.2761
71.5519
100.136
82.4053
77.055
67.5481
90.7544
73.2137
31.8762
56.0682
31.1614
46.6553
34.6611
51.0348
34.8406
34.0659
31.0811
32.7948
35.8938
36.6022
35.3226
36.4637
28.8632
33.0107
35.3433
35.5442
32.4989
36.0838
31.2018
82.9855
71.2194
66.6694
67.1932
67.7937
56.9535
55.111
81.9229
65.7162
62.6995
68.1603
70.8342
55.0851
56.258
82.1671
62.2954
63.4401
72.1448
75.1668
57.229
61.4547
95.2154
63.9588
71.9275
75.385
84.9935
62.9532
71.792
74.2135
73.9554
60.6882
91.1275
68.4708
72.5958
56.2125
34.4851
52.1575
40.2073
50.8915
34.9286
50.1384
43.4839
31.8352
38.3656
33.8858
36.233
36.6072
40.5343
31.304
35.5435
31.3887
45.4685
35.5057
31.1112
29.6661
30.5396
63.5107
69.0394
63.6605
53.1542
51.369
51.4107
48.3135
58.0127
60.0446
50.4466
51.2886
52.0907
46.8625
43.1387
58.3401
48.439
47.3435
52.753
56.4124
42.6051
43.6691
64.8424
47.728
50.0823
58.5812
65.0683
44.3054
44.7276
55.5143
49.9231
41.546
64.9266
50.0497
43.1365
35.705
38.5826
39.3014
32.4843
45.1288
38.8447
34.1121
29.353
30.855
30.2833
25.9203
37.6196
30.2925
27.9423
24.9016
45.5012
25.9223
30.025
28.3499
29.2064
24.5955
25.117
49.5777
55.5564
53.2775
47.8516
47.3202
51.7274
50.2068
49.7362
53.2273
53.6538
47.2306
46.0818
50.3174
50.8663
58.3321
53.9599
57.3746
46.2315
54.7368
51.1822
56.559
56.5341
59.8851
70.7478
55.8401
43.1175
59.9882
70.0342
32.5371
75.3466
53.1868
38.8815
36.72
70.4087
46.6252
32.0014
40.7371
37.3156
36.5384
32.2209
42.8844
41.6159
28.6242
37.907
35.5875
30.6657
30.713
40.724
37.3025
30.4138
34.6139
33.7779
31.2686
32.4493
37.0702
38.3178
57.7733
64.2592
66.3176
54.1097
53.3994
57.5368
59.3122
58.296
67.0411
69.8208
53.6036
54.4588
60.1814
63.824
60.7942
70.8759
73.5297
54.7278
58.3531
64.9795
68.1532
68.4519
64.7344
66.3003
61.6878
68.0083
64.9194
65.4607
82.9402
78.342
81.9324
76.4242
82.74
76.9189
84.0462
36.5047
50.5113
37.9122
44.7084
42.6568
58.0895
43.3151
37.5356
37.8565
38.125
42.6992
39.7068
43.6327
44.2281
33.6096
37.4771
31.4382
38.7483
38.8133
43.0085
39.2002
64.9327
54.5199
53.1325
57.2126
58.3245
50.9916
50.1759
68.806
53.2445
55.2707
59.1282
63.3481
50.5171
53.3951
74.177
56.5038
61.6467
64.9237
69.1259
54.6663
59.7229
79.2783
90.1217
72.7807
78.883
74.998
292.419
72.5015
117.102
101.828
89.4954
256.76
90.982
237.685
100.337
39.0032
48.9336
40.3404
57.0518
42.8294
42.1731
37.8198
37.6914
37.0703
33.0452
43.5498
44.6568
40.3001
45.6163
31.5571
32.7211
29.6431
43.5803
39.577
44.4894
45.3696
49.667
48.9348
46.3602
48.5166
47.8724
47.0981
44.6145
51.2941
45.1153
42.3051
48.1691
50.155
43.5371
42.0787
56.5287
42.1238
43.1421
50.923
54.3202
42.0962
42.3493
64.4434
43.4577
42.7569
55.384
55.6847
42.1044
40.6127
48.0622
40.8717
34.9612
54.0449
42.648
39.9297
38.4518
37.7529
33.693
29.7922
40.0857
38.7888
38.3406
38.419
30.5497
28.7505
26.5819
40.958
45.4781
38.3363
38.1943
27.9358
26.2124
26.1135
44.482
45.9602
37.8798
37.2773
47.3256
51.192
49.8224
53.4168
50.8443
54.4512
53.7342
45.0118
49.9391
50.3096
49.1724
46.211
53.3723
52.0002
51.3418
50.5481
56.1398
47.0085
48.873
51.9085
54.7723
41.4264
59.5992
67.6451
48.2335
46.9585
56.0554
57.8268
38.265
67.0219
46.394
46.6409
45.1207
56.4986
52.7739
32.7663
44.404
42.5012
43.4116
39.0697
51.5781
46.2238
31.6866
41.0531
38.2842
38.6586
39.1227
44.9057
43.8131
33.0205
38.2525
39.5604
39.1232
39.7301
43.8822
43.7708
52.5328
56.1223
57.6068
55.4095
55.2672
57.2703
57.9955
53.4607
58.4062
61.6219
55.0851
54.132
58.1152
58.1443
57.6728
62.5247
65.3289
53.8969
55.9979
58.0364
58.5741
70.5518
67.6446
117.241
57.3683
59.9548
59.012
59.6856
50.0411
113.674
62.9141
59.3383
54.7108
58.0891
56.1935
44.3737
53.2646
45.5639
54.0265
49.4943
56.3598
56.9105
40.7198
46.3784
46.36
48.1601
46.2719
56.5279
53.6431
40.4879
44.8854
42.227
46.0882
45.7544
52.5018
51.2974
56.7943
50.8908
50.1711
57.295
57.8245
56.2183
55.8168
61.3259
50.498
52.9993
57.9291
58.1788
55.5248
55.2099
65.9816
54.027
57.7014
58.1848
58.423
55.2926
55.3508
117.661
58.7561
60.6515
58.6734
59.4387
55.1687
56.0228
58.4983
59.7503
44.6152
57.4596
55.3312
56.3214
58.26
45.3408
41.9625
45.0828
56.0436
58.6549
59.6104
61.3139
47.2405
48.3596
48.4732
58.4895
55.4658
60.7375
57.4691
42.5883
46.851
47.6671
54.1631
52.7747
56.2519
55.8664
48.2783
47.61
44.9554
55.7907
54.8133
54.3094
49.6991
50.1316
43.8575
42.6396
54.416
53.7803
48.4642
48.1876
52.857
42.6591
42.902
53.8029
53.877
48.7443
49.8715
52.3418
42.6891
41.9485
53.8937
55.4492
49.99
51.4039
43.6017
41.6771
41.3448
56.2196
58.1602
51.9939
53.595
46.2913
41.4649
41.8184
58.989
59.9868
53.8268
54.1177
48.3759
41.7729
41.6709
59.5731
57.0283
53.9886
53.6898
48.3955
41.5876
41.3075
56.0787
55.9344
53.5112
52.0594
54.1182
58.4873
58.18
76.9407
75.2959
77.8244
79.6002
50.0006
57.3332
55.1373
72.1382
72.6773
77.8288
75.6381
53.2777
55.0759
57.2667
74.8467
78.4178
76.4989
81.529
52.2318
58.2073
60.4057
76.7981
80.4714
83.4219
90.2779
49.6028
60.0546
58.0887
80.6224
79.541
91.9076
89.1575
44.3203
56.2399
50.1977
76.8621
76.4807
85.7835
77.8923
44.2707
49.0874
48.0821
75.8305
75.5748
76.5396
74.9651
44.0629
48.0679
47.1204
74.6996
70.2047
74.9535
71.666
59.588
60.7977
61.8898
78.1579
81.4104
79.9151
83.7636
56.9452
61.608
60.2461
79.6941
76.408
82.6869
78.9877
58.1837
59.9479
59.9123
77.1104
83.3141
79.658
88.7941
62.0163
59.9787
61.1246
85.85
94.1392
92.8872
104.401
60.6546
61.3033
63.5672
96.5218
95.4698
107.963
110.503
53.3756
64.4707
62.975
91.4159
79.7331
106.623
90.2727
50.3384
61.8467
57.971
77.3067
74.8772
85.3468
78.3688
48.9965
56.9145
54.8934
74.7999
71.7783
77.7773
74.7749
61.8947
60.9892
60.9098
79.5325
83.5627
81.5005
81.9455
60.3802
60.2033
58.7096
82.6237
79.3445
80.7321
78.4036
59.9697
58.6011
59.0627
80.1115
89.5951
78.9095
85.5489
61.3133
59.321
62.3415
93.9212
105.518
88.3846
95.7708
63.9975
63.6356
66.1755
108.728
110.602
97.5918
99.5097
65.2233
67.0778
67.2842
107.235
92.4293
98.6067
91.3115
60.0278
66.3636
62.6193
87.6185
80.1549
88.7858
83.8085
56.6438
61.427
59.5222
79.3578
76.3298
82.9424
79.1865
59.9094
59.0287
53.3163
81.1415
80.1916
77.5106
69.8899
57.6842
52.0656
52.3319
78.9978
77.3773
70.3321
70.8334
58.2598
53.2017
54.5203
77.6994
82.6443
72.5338
73.3031
61.8124
54.6581
56.6727
84.6723
90.3944
73.8264
77.1271
64.9853
57.5809
59.4659
91.7716
93.7667
78.8963
81.1912
65.9022
59.6945
60.1011
93.3513
89.0429
81.6578
83.1818
62.3015
59.9849
59.0258
87.6885
84.0003
83.636
81.2484
59.476
58.3552
55.4866
83.2039
79.6524
80.8386
77.0755
75.9916
69.0158
78.4302
73.4267
72.489
69.4978
82.2679
83.7686
71.3407
86.8511
78.2763
74.4061
70.9009
232.225
109.419
88.3841
95.3021
280.058
80.9504
120.693
297.179
68.9025
61.5224
65.4942
63.9842
65.2895
64.6871
68.7219
77.4635
73.7322
70.0121
79.7729
70.053
82.6334
76.1389
84.5215
78.3176
67.7522
107.849
69.777
232.215
77.0292
114.603
255.972
104.346
167.626
122.332
285.111
98.9127
78.7316
76.576
69.2177
59.7653
80.7927
74.0645
64.3123
105.739
91.9558
103.4
271.13
90.9336
119.517
251.114
84.8532
69.2353
97.6873
85.0529
85.7653
63.5996
151.933
81.2338
75.5877
72.4569
79.425
75.1344
83.2055
76.763
75.1884
55.6159
66.0837
54.8987
70.8333
59.3274
69.3373
100.067
237.257
99.2665
161.4
117.17
219.117
85.7487
77.2914
86.1397
54.7487
114.262
58.5958
136.245
68.6088
84.3498
95.4328
83.2937
266.111
77.6004
276.919
89.3879
71.5544
68.4861
66.7032
64.2513
70.3823
69.0231
67.1755
75.0744
77.6523
69.9755
71.6828
73.3842
78.9954
70.0232
81.2352
79.2593
123.084
70.4717
278.628
72.2587
76.7125
92.7535
246.123
176.995
109.755
269.382
107.393
91.0945
71.3669
63.5924
66.8122
63.3261
68.7206
66.1548
69.1754
75.6561
69.8112
80.3157
64.89
81.1776
68.4533
74.0906
116.63
96.4553
68.5087
92.7777
86.649
195.391
88.0133
83.0073
79.9304
70.8639
71.6873
79.5196
82.0425
69.8263
79.8504
62.1828
63.8265
53.612
74.4806
66.6374
62.7442
125.012
223.112
134.86
119.589
186.656
123.197
114.449
113.522
80.9155
97.8091
67.3858
130.679
79.8989
91.7176
85.1259
69.8044
83.4254
63.1582
85.1363
67.695
82.0973
79.5177
51.2896
57.3182
55.2261
64.5107
60.3085
72.5366
146.324
167.293
155.561
90.451
74.9371
92.7458
78.0601
107.463
144.319
120.571
70.7015
61.7858
73.2327
66.9686
68.7942
96.2945
90.8075
60.5082
56.9301
64.8484
70.6756
15.3392
74.4364
37.3154
33.9527
14.1271
62.172
30.2206
15.3981
20.7982
21.2628
12.5497
17.7293
18.6778
20.4202
31.5217
31.9977
53.8268
22.7796
23.5195
26.128
28.2421
31.5744
56.4442
49.8958
22.7015
21.9564
27.9605
26.4183
20.3594
37.6993
35.0906
21.9789
22.83
25.1863
26.2814
195.873
204.206
198.852
108.021
97.0687
108.579
94.9951
143.205
286.215
312.025
168.059
141.004
169.102
285.915
106.081
251.598
269.569
109.083
103.356
110.534
270.26
107.786
154.752
259.145
106.748
115.321
101.974
236.373
115.508
157.689
147.939
103.066
90.0191
131.244
164.108
44.7998
50.3541
108.234
30.8133
27.6171
56.0948
90.8051
42.0555
63.0409
89.7849
33.8094
37.2474
40.4033
89.8407
45.3707
120.419
136.484
40.9952
39.8363
45.3756
135.212
41.4437
55.372
73.6442
32.2523
33.0457
41.1383
61.02
37.773
41.115
40.3875
31.2478
29.4746
33.3979
30.1369
194.125
200.433
183.622
115.983
100.592
119.669
111.133
152.714
310.164
325.958
170.369
146.881
174.615
302.094
124.347
333.47
303.046
120.668
119.06
126.468
314.8
125.208
366.122
352.878
120.225
121.143
124.282
358.109
141.703
313.134
369.763
126.427
159.081
127.171
350.402
151.609
190.007
186.016
166.284
135.727
177.735
189.576
46.5978
94.6844
108.026
49.4068
47.3181
51.4194
86.8218
50.6213
142.554
99.5606
49.0027
48.8701
51.142
128.246
50.5181
72.8327
117.526
48.9183
52.6699
48.0909
80.0149
40.1308
36.8622
41.3103
36.4936
31.8347
38.5624
36.3766
178.287
200.486
185.395
116.552
109.464
111.763
98.8819
159.936
272.39
297.348
174.463
169.41
170.523
271.407
140.625
222.004
225.786
151.236
147.289
143.504
215.582
132.398
210.084
199.679
140.561
135.45
133.637
195.548
139.499
224.313
189.263
135.204
139.981
135.105
186.313
131.123
173.83
157.743
167.869
140.475
155.891
170.356
55.3534
84.5037
135.059
62.4522
45.9323
67.0381
105.437
49.2112
45.1072
67.5131
42.2899
44.4078
46.8803
55.771
37.6334
59.7403
49.9135
36.5966
35.8915
37.2863
51.8383
47.8804
49.8883
54.8821
42.6663
38.0778
45.7825
37.3161
201.739
242.744
219.141
118.122
98.7997
121.813
112.194
148.357
287.333
325.103
172.583
145.197
174.572
293.63
103.733
241.833
246.899
109.509
103.614
110.105
236.802
89.7329
251.301
242.921
93.146
91.8137
91.4115
245.193
92.5225
175.583
206.799
96.6877
106.063
87.9771
171.215
86.401
138.449
136.444
107.516
99.0682
89.1425
134.501
68.7224
108.068
107.685
75.3619
69.5979
74.7302
97.8897
42.7525
85.6765
83.5794
47.1652
41.8522
49.0113
82.8476
63.1493
69.689
74.0164
46.1585
61.9785
50.1937
71.6286
56.4356
57.4694
53.2694
47.1204
38.5573
42.3255
36.1118
179.452
211.87
184.965
116.175
96.1622
113.98
95.0178
141.845
158.296
148.93
78.7618
63.8848
77.9934
71.2963
125.564
131.063
119.015
56.762
53.4462
64.106
56.7768
110.696
106.842
100.386
51.527
51.2567
51.5962
50.8406
93.736
92.5295
85.3897
50.7125
49.1838
50.591
50.0393