/*--------------------------------*- C++ -*----------------------------------*\
  =========                 |
  \\      /  F ield         | OpenFOAM: The Open Source CFD Toolbox
   \\    /   O peration     | Website:  https://openfoam.org
    \\  /    A nd           | Version:  10
     \\/     M anipulation  |
\*---------------------------------------------------------------------------*/
FoamFile
{
    format      ascii;
    class       volScalarField;
    location    "1.4";
    object      p;
}
// * * * * * * * * * * * * * * * * * * * * * * * * * * * * * * * * * * * * * //

dimensions      [0 2 -2 0 0 0 0];

internalField   nonuniform List<scalar> 
12920
(
-619881
-253223
-258715
-190116
-218460
-177136
-200822
-178492
-183145
-164238
-157752
-140240
-128209
-110756
-94677.8
-75069.2
-55304
-33431.1
-7364.88
16979.8
-162893
-132184
-220505
-173208
-218019
-172911
-200809
-177045
-183504
-164439
-158690
-140948
-128780
-111079
-95044.2
-75814.4
-56026.2
-34430.4
-8447.36
14888.6
-261614
-89172.6
-223362
-155300
-189825
-163663
-192507
-174613
-183702
-166026
-160504
-142170
-129685
-111432
-95273.4
-75781.5
-56210.2
-34880.4
-10026.3
12122.2
-335320
-104167
-196452
-144624
-190607
-164179
-197991
-176938
-187388
-169406
-162871
-143999
-130239
-112168
-95372.7
-76303.6
-57061.8
-36414.9
-12754
6878.03
-98857.8
-11326.1
-120891
-111267
-163090
-155511
-187276
-172920
-187833
-170703
-167214
-145851
-133012
-114244
-99344.7
-81400.1
-63697.2
-42315.6
-16678.9
5722.81
-340628
-114044
-162798
-129862
-192620
-174343
-196055
-181571
-186531
-175449
-167749
-151592
-137076
-121581
-107131
-91040.1
-71666.4
-48472.4
-19648.5
4644.63
-132977
-43580.7
-142089
-137246
-201106
-184702
-211132
-195997
-200854
-184027
-174219
-157701
-142136
-126062
-112286
-94394.5
-75744.2
-51513.1
-22051.8
5386.5
144827
18059.3
-149888
-180865
-247973
-221232
-222942
-216512
-208165
-198365
-187071
-170759
-154990
-139096
-119579
-99884.6
-76601
-50621
-20475.6
6089.55
-224333
-82181.6
-204071
-210126
-270546
-243104
-246869
-240821
-228787
-212589
-199955
-181900
-164895
-147183
-129668
-102386
-77288.7
-49910.2
-19511.3
7381.34
-431568
-228324
-314184
-283258
-316216
-284804
-278946
-269097
-255110
-238193
-218148
-196383
-175263
-153828
-132386
-103765
-77346.8
-49407.1
-18644.5
8237.65
-670188
-369100
-396932
-345176
-374443
-331081
-316818
-300776
-282228
-260633
-236839
-212228
-187510
-163308
-136781
-106041
-78110.4
-49574.9
-18274.9
8645.4
-637340
-444286
-452457
-393700
-408087
-367836
-350854
-329627
-307498
-283741
-256579
-228231
-200403
-172752
-142038
-109210
-80381.6
-50709.7
-18709.5
8647.88
-689680
-520829
-524077
-457839
-456784
-414401
-387589
-358288
-331674
-302796
-272445
-241353
-210927
-180601
-146239
-114765
-83241
-52123.5
-19147.7
8971.32
-826263
-634262
-582659
-516647
-500450
-451799
-424904
-386583
-356665
-321873
-290226
-255633
-223097
-188700
-155501
-121411
-88191.8
-54751.7
-19943
9433.63
-839675
-631762
-666165
-590313
-558228
-496190
-459085
-414379
-378242
-338984
-303383
-266400
-231358
-195790
-161065
-125908
-91290.8
-57168.6
-21517
8935.32
-743094
-696750
-703741
-634390
-600538
-534639
-491467
-438355
-397993
-353484
-316111
-275918
-239725
-201956
-166276
-129614
-94313.6
-59197.2
-22793.1
8638.04
-1.3649e+06
-938902
-806110
-698031
-640717
-568398
-518162
-459790
-414777
-367200
-326043
-283730
-245516
-206795
-170081
-132779
-96147.2
-60317.3
-23476.4
8388.31
-729080
-830225
-825589
-731199
-672160
-593831
-541221
-478704
-430307
-378648
-335750
-291566
-251756
-210765
-172825
-134379
-97287.5
-60824.4
-23802.5
8010.75
-1.00944e+06
-915677
-879294
-772724
-697922
-613639
-556228
-490515
-439554
-386474
-341652
-295747
-254377
-212895
-174186
-135263
-97698.3
-61030.6
-23937
7538.38
-1.19191e+06
-957301
-899173
-787990
-712153
-622156
-564150
-496265
-444216
-389873
-344197
-297388
-255658
-213638
-174791
-135782
-98130
-61254.6
-24042.7
7346.11
-542809
-262621
-253931
-189868
-217472
-176960
-201038
-178322
-183216
-164030
-157644
-140112
-128173
-110743
-94733.1
-75134
-55447.1
-33766.8
-7640.16
16818.1
-166031
-128496
-219340
-171758
-216588
-172783
-201192
-176751
-183805
-164221
-158825
-140777
-128695
-110922
-95030.5
-75855
-56264.4
-34855.3
-8759.13
14002.6
-242037
-104626
-219191
-155481
-188657
-163248
-192851
-174429
-184171
-166013
-160800
-142050
-129645
-111295
-95341
-75844.2
-56370.5
-35209.7
-10351.2
11018.1
-343663
-97809.3
-204034
-145001
-189581
-164631
-196011
-177102
-188090
-169387
-163035
-143749
-130124
-111992
-95370.2
-76318.5
-57122.9
-36564.8
-13111.1
5910.54
31866.1
10224.5
-116700
-109022
-162808
-155498
-187562
-173979
-187538
-170690
-167145
-145729
-133155
-114384
-99698.5
-81720.6
-64081.9
-42683.4
-16871.9
5476.27
-216805
-76722.3
-163118
-127829
-192534
-173689
-197088
-182448
-187473
-175631
-167708
-151521
-136968
-121423
-106805
-90604.2
-71454.8
-48503.5
-19757.4
4610.27
-60901.1
-32041
-138987
-134266
-197555
-186240
-210832
-197802
-200576
-184048
-174014
-157683
-142109
-125914
-112108
-94241.8
-75755.2
-51502.6
-22147.2
5313.68
121752
14179
-154558
-180960
-247012
-221274
-222942
-217053
-209558
-198228
-187248
-170579
-154781
-138760
-119414
-99893.1
-76679.3
-50738.3
-20624.7
5873.47
-106450
-86224
-201154
-208794
-268250
-243077
-246883
-240942
-229546
-213258
-199844
-181729
-164200
-147110
-129834
-102533
-77539.1
-50203.3
-19753.9
7122.85
-544078
-215507
-315407
-281166
-314335
-283945
-278451
-269140
-255261
-238705
-217996
-196063
-174616
-154163
-132309
-103730
-77450
-49637.6
-18901.6
7942.77
-476445
-335944
-394558
-343775
-374805
-330725
-316243
-300063
-281611
-261287
-236774
-212232
-187530
-163248
-137080
-105817
-78086
-49730
-18597.1
8343.66
-640958
-419777
-456951
-394553
-409122
-367722
-350719
-329651
-307558
-283831
-257013
-228370
-200430
-172860
-142189
-109090
-80319.7
-50883
-18967.8
8405.25
-634471
-512820
-522179
-459816
-457534
-414513
-387691
-358422
-331878
-302886
-272655
-241572
-211080
-180610
-146142
-114671
-83258.1
-52362
-19404.8
8761.18
-854208
-654355
-590225
-519928
-501786
-452011
-425497
-386664
-356854
-321966
-290126
-255480
-223129
-188729
-155675
-121585
-88284.6
-54938.2
-20063.2
9292.72
-866991
-641311
-666070
-591229
-558390
-496227
-459794
-414367
-378243
-339039
-303408
-266490
-231424
-195899
-161143
-125984
-91462
-57196.7
-21579.6
8857.87
-762924
-704167
-706200
-634950
-600422
-534087
-491339
-438189
-398160
-353585
-316456
-276252
-240115
-202337
-166576
-129889
-94463.4
-59359.5
-22890.1
8572.69
-1.28871e+06
-924577
-804802
-697943
-640102
-567276
-517340
-459711
-414934
-367299
-326401
-284166
-245922
-207026
-170209
-132828
-96216.6
-60430.6
-23517.6
8263.03
-1.00122e+06
-872392
-836035
-733787
-672432
-593871
-541631
-478413
-430275
-378542
-336000
-291594
-251798
-210807
-172852
-134439
-97374.6
-60873
-23831.4
7876.81
-1.02285e+06
-927869
-887263
-775021
-698335
-613773
-556280
-490343
-439549
-386367
-341528
-295596
-254348
-212891
-174222
-135309
-97769.5
-61099.8
-23972
7470.48
-1.21864e+06
-956430
-908174
-789832
-712597
-622115
-564222
-496132
-444152
-389894
-344200
-297385
-255629
-213646
-174821
-135829
-98156.3
-61275.1
-24054.7
7354.43
-379066
-218167
-243664
-188084
-215784
-176534
-201208
-177976
-183287
-163609
-157488
-139838
-128213
-110799
-94924.1
-75282.2
-55608
-34196.3
-7995.61
16308.5
-371620
-114180
-228769
-170723
-214552
-172175
-201418
-176227
-184147
-163789
-158988
-140598
-128735
-110842
-95031.8
-75712.1
-56200.3
-35125.4
-9217.06
12539.5
-302450
-104402
-217745
-153306
-189364
-162547
-193150
-174108
-184850
-165816
-161136
-141783
-129605
-110944
-95161.8
-75711.7
-56485.8
-35741.1
-10987.8
9346.36
-270991
-92561
-202866
-142947
-189522
-163859
-194331
-176847
-187842
-169219
-163104
-143391
-130027
-111816
-95597.9
-76743.9
-57646.1
-37188.3
-13669.7
4843.24
77432.4
42857.4
-120125
-107125
-163821
-156599
-187583
-174804
-186898
-170654
-166790
-145333
-133082
-114441
-100117
-81955.5
-64393.5
-43142.3
-17204.1
5117.28
-100321
-59866.8
-161976
-127993
-191173
-174992
-196147
-184457
-187417
-175958
-167626
-151419
-136804
-121207
-106257
-89580
-71047.3
-48529.5
-19972.9
4421.58
-67680.4
-7606.47
-136205
-131558
-195113
-188308
-210193
-199217
-199292
-184124
-174247
-157710
-142151
-125628
-111887
-93984
-75451.3
-51560.3
-22412.4
5053.1
288853
21358.2
-161117
-179790
-244127
-221897
-224249
-218120
-211322
-197807
-187328
-170529
-154473
-138519
-118263
-99962.8
-76962.5
-51042.5
-20990.2
5212.32
-127170
-30691.6
-193907
-203965
-265848
-242593
-246556
-241009
-230038
-213950
-200299
-181260
-164031
-147117
-129217
-102676
-78069.9
-50787.4
-20263.7
6336.36
-369401
-190468
-313093
-278619
-311984
-282381
-277865
-269128
-255323
-239014
-218240
-195435
-173659
-154315
-132222
-103760
-77799.5
-50174.6
-19423.7
7040.87
-337549
-293313
-387301
-343091
-372319
-329317
-315491
-299435
-281091
-261429
-237678
-212313
-187420
-163042
-137148
-105685
-78192.6
-50130.3
-19119.4
7385.93
-458997
-386905
-460227
-394905
-409679
-367008
-350437
-329517
-307347
-283881
-257349
-228561
-200353
-172782
-141917
-109103
-80399
-51226.4
-19437.7
7513.63
-665061
-516093
-521279
-460411
-457630
-413675
-386975
-358473
-331811
-303047
-273009
-241933
-211278
-180572
-146027
-114694
-83375.7
-52874.6
-19914.7
8185.09
-770586
-605748
-584930
-518055
-502049
-451489
-425742
-386373
-356980
-321897
-290008
-255242
-223099
-188687
-155714
-121779
-88654.9
-55203
-20267.6
8966.51
-753796
-626538
-663414
-588811
-557737
-495522
-460394
-414114
-378289
-339019
-303395
-266525
-231425
-195928
-161199
-126070
-91447.1
-57226.3
-21648.7
8611.41
-652327
-674524
-698168
-630936
-599646
-533149
-491201
-437773
-398505
-353769
-317041
-276804
-240753
-202922
-166996
-130169
-94579.6
-59513.6
-22898.5
8291.48
-1.14063e+06
-898444
-801168
-697648
-640097
-566903
-517080
-459378
-415300
-367435
-327208
-284841
-246520
-207367
-170375
-132825
-96281.6
-60511.7
-23538.2
7957.48
-984704
-860616
-831520
-734600
-672566
-593892
-541744
-478085
-430258
-378391
-335872
-291199
-251554
-210725
-172919
-134484
-97431.8
-60987.4
-23873.6
7639.84
-1.15804e+06
-954516
-897355
-778006
-699060
-613629
-556364
-490087
-439501
-386115
-341315
-295412
-254286
-212804
-174218
-135367
-97835.3
-61160.3
-24006
7392.02
-1.17095e+06
-960874
-917349
-793849
-713427
-622085
-564370
-495935
-444182
-389801
-344128
-297313
-255603
-213686
-174846
-135830
-98141.6
-61282.1
-24067.4
7349.98
-408407
-202400
-241406
-187576
-214635
-176300
-201337
-177494
-183384
-163076
-157423
-139467
-128385
-110931
-95297.3
-75534.3
-55852.1
-34556.8
-8384.63
15733.2
-276003
-125645
-227708
-170954
-212594
-172775
-199314
-175732
-184120
-163227
-158981
-140351
-128771
-110793
-95215.1
-75806.7
-56198.8
-35507.7
-9752.04
10975.4
-337095
-124974
-213527
-151911
-189549
-162628
-191563
-173863
-184500
-165389
-161413
-141437
-129567
-110801
-95334.3
-75852.3
-56653.6
-36195.3
-11644.8
7918.01
-206862
-83232.9
-205412
-142459
-188589
-163559
-193267
-176069
-186347
-168953
-163055
-142956
-129969
-111926
-96108.5
-77182.3
-58144.9
-37875
-14162.4
4080.03
220576
65923
-113256
-104302
-164602
-157010
-187510
-175217
-186476
-170850
-165919
-144905
-132696
-114537
-100439
-82041.2
-64550.3
-43520.6
-17528.6
4733.04
-41388.1
-34572.2
-161293
-126440
-190172
-175338
-195600
-185794
-187443
-176595
-167615
-151431
-136445
-120902
-106037
-88930.3
-70407.2
-48576.3
-20204.5
4155.49
-33702.4
-7999.24
-138700
-130398
-193829
-188918
-209858
-199553
-198565
-184054
-174423
-157755
-142036
-125589
-111779
-93777.5
-74976.8
-51522.5
-22743.7
4672.17
211199
6481.79
-169505
-178819
-241122
-223522
-225717
-217580
-211803
-197920
-187464
-170378
-154299
-137734
-117058
-99053.9
-77235
-51359.5
-21568.9
4195.2
-28239.7
-20259.8
-199928
-201851
-263813
-240425
-245944
-240435
-229770
-213998
-200678
-181538
-164323
-146758
-128113
-101817
-78577.5
-51499.2
-20958.8
4721.74
-320931
-143076
-310895
-276641
-309319
-280960
-277294
-268905
-255057
-238628
-218666
-194610
-173317
-154440
-131605
-103799
-78465.4
-50862.3
-20140
5181.74
-291298
-245310
-387379
-344281
-367048
-327304
-314814
-298968
-280536
-261715
-238754
-212369
-186513
-162857
-136906
-105562
-78497.7
-50622.5
-19842.5
5415.91
-532187
-356523
-463983
-397314
-407739
-366131
-350223
-329109
-306776
-283420
-257522
-228748
-200233
-172445
-141495
-109116
-80619.1
-51679.3
-20241.4
5687.02
-672533
-491881
-517459
-460968
-457616
-412849
-385739
-358298
-331275
-303057
-273584
-242332
-211338
-180145
-145679
-114840
-83616.9
-53620.4
-20611.3
7274.81
-757047
-615558
-588441
-520248
-502982
-450449
-426272
-385991
-357254
-321860
-290090
-255246
-223397
-188700
-155855
-122106
-88977.5
-55487.3
-20596.2
8494
-615073
-608125
-663000
-587922
-558155
-494678
-461111
-413648
-378306
-338954
-303302
-266522
-231663
-196150
-161448
-126265
-91581
-57345.6
-21720.1
8284.42
-746448
-667472
-701615
-631339
-599965
-532124
-491239
-437129
-398863
-353925
-317646
-277312
-241395
-203536
-167470
-130466
-94745.1
-59680.7
-22890.3
7886.72
-1.13747e+06
-888720
-799206
-697758
-639817
-566382
-516993
-458781
-416034
-367619
-327981
-285355
-247025
-207680
-170557
-132857
-96280
-60514.2
-23489.1
7603.04
-1.23221e+06
-931027
-847359
-738301
-673097
-593624
-541872
-477741
-430410
-378310
-335989
-291182
-251558
-210704
-172958
-134522
-97482.6
-61043.3
-23886.6
7442.42
-1.39083e+06
-1.01789e+06
-903127
-780678
-699701
-613552
-556505
-489884
-439468
-385943
-341258
-295313
-254220
-212736
-174174
-135375
-97860.3
-61181.8
-24004.3
7329.11
-1.28044e+06
-960504
-926742
-796212
-713963
-621918
-564518
-495743
-444188
-389626
-344017
-297207
-255537
-213623
-174814
-135798
-98105.7
-61277.4
-24073.3
7336.87
-278472
-179152
-246703
-188827
-214825
-176253
-201348
-176957
-183619
-162356
-157589
-139028
-128985
-111218
-95865.9
-75848.1
-56157.3
-35020.9
-8687.16
15248.9
-266353
-117926
-234331
-171756
-211613
-172095
-198708
-175409
-182930
-163089
-158287
-140142
-128319
-110471
-95133.5
-75825.7
-56218.3
-35652
-10173.4
9080.54
-207873
-120476
-206893
-150533
-189820
-162174
-191011
-173421
-183813
-165006
-160181
-141041
-128963
-110424
-95320.4
-75946.8
-56755.3
-36415.5
-11996.7
6359.1
-127396
-75751.5
-207915
-141715
-188534
-163166
-193059
-174564
-186536
-168700
-161686
-142334
-129243
-111923
-96275.3
-77290.7
-58506.9
-38482.5
-14584.1
3564.05
231997
70399.1
-118838
-102664
-165686
-156971
-187184
-174945
-186535
-171085
-164900
-144554
-132110
-114569
-100270
-81792.7
-64421
-43776.7
-17821.9
4252.32
10735.1
-26309
-156919
-125380
-189334
-175303
-195316
-186448
-187194
-176886
-167419
-151767
-135871
-120531
-105984
-88624.6
-69779.7
-48589.8
-20362.9
3830.85
-134087
3848.61
-141687
-129437
-193420
-189084
-209858
-199464
-198903
-183899
-174215
-157544
-141668
-125871
-111687
-93451.4
-74310.3
-51165.1
-23205.8
4183.92
16459.7
-3038.86
-176948
-178161
-239546
-224030
-225625
-217375
-211518
-197565
-187631
-169425
-154190
-136782
-116297
-98596.2
-76462.8
-50778.1
-21725.5
2738.16
-217349
-34405.8
-199581
-201218
-262262
-240115
-245524
-240140
-229378
-213995
-200496
-181698
-164117
-146020
-126851
-101030
-78170.6
-51265.8
-21085.6
2415.91
-220842
-121105
-311401
-278706
-308629
-280210
-276425
-268679
-254929
-237587
-218696
-194610
-174303
-154643
-131010
-103026
-78307.8
-50858
-20367.7
2545.84
-231086
-236844
-381253
-345352
-363974
-326222
-313721
-298448
-280340
-260631
-238846
-212213
-186297
-162878
-136213
-105432
-78551.6
-50725.6
-20155.7
2550.03
-583127
-348459
-466092
-400027
-405872
-365365
-349467
-328520
-306324
-282729
-257556
-228948
-200000
-172164
-140547
-109336
-80685.2
-51776.2
-20877.3
2918.74
-601934
-482723
-521110
-461862
-457368
-413026
-385244
-357692
-330596
-302265
-273396
-242660
-210911
-179085
-145264
-114791
-83810
-54607.7
-21395.6
5982.33
-881342
-607003
-583865
-517959
-502854
-450822
-425698
-385764
-356715
-321302
-289794
-255135
-223738
-188483
-156109
-122561
-89422.9
-55876
-20887.3
8119.81
-587630
-599151
-663387
-587702
-557861
-493527
-461174
-413074
-378095
-338777
-303121
-266552
-231968
-196557
-161915
-126643
-91917.1
-57613.6
-21754.7
7886.08
-617489
-646722
-697148
-629035
-600752
-530351
-491468
-436284
-398956
-353959
-317904
-277559
-242321
-204548
-168211
-130906
-94944.6
-59801.5
-22853.2
7542.88
-1.13987e+06
-876321
-799695
-696666
-639367
-565565
-516934
-457591
-416781
-367383
-328705
-285708
-247410
-207923
-170714
-132908
-96296.4
-60521.2
-23434.8
7335.16
-1.28648e+06
-938331
-847590
-738663
-673278
-593055
-542174
-477258
-430665
-378190
-336100
-291126
-251588
-210713
-173000
-134545
-97510.3
-61091.7
-23876.6
7290.04
-1.47494e+06
-1.05026e+06
-908525
-781347
-700243
-613293
-556603
-489698
-439467
-385813
-341187
-295219
-254139
-212653
-174114
-135352
-97859
-61183.8
-23973.8
7280.37
-1.34734e+06
-983739
-929276
-799141
-714175
-621821
-564594
-495534
-444172
-389471
-343920
-297114
-255480
-213576
-174778
-135769
-98093.9
-61279.6
-24075.6
7328.42
-223775
-256075
-238579
-238807
-224066
-256044
-238772
-200897
-232647
-215706
-218550
-200673
-233122
-215923
-243841
-278439
-259833
-261294
-244544
-278308
-259860
-219173
-252855
-231663
-238467
-219409
-252965
-231887
-243477
-271535
-264970
-246746
-243483
-271370
-265072
-234020
-261949
-252296
-240889
-234385
-262064
-252546
-216748
-248568
-236659
-229314
-217441
-248854
-236988
-204841
-231842
-218557
-213023
-204744
-232476
-218524
-186055
-213019
-196389
-199784
-186271
-212907
-196416
-169427
-191156
-176181
-181882
-169220
-191249
-176164
-151011
-171105
-156619
-164361
-150916
-170959
-156818
-135964
-151813
-138640
-147129
-135949
-152116
-138393
-272071
-306816
-297005
-278516
-272110
-306321
-296697
-259002
-292777
-279141
-269109
-259053
-292552
-279465
-242504
-274422
-260093
-255214
-242968
-274815
-260490
-223063
-255033
-237589
-238526
-223472
-255422
-237978
-201758
-231771
-214180
-217978
-201425
-232084
-214189
-180452
-208113
-190163
-196173
-180225
-208113
-190242
-158895
-184202
-167160
-174870
-159028
-184301
-166982
-139829
-161243
-143568
-154089
-139754
-161078
-143809
-305091
-342702
-327918
-316334
-304627
-342325
-327851
-287108
-322545
-306708
-300246
-286576
-322503
-306681
-266096
-301335
-284346
-281807
-266623
-301307
-284377
-242744
-278286
-258513
-261198
-242821
-278335
-258972
-218431
-252002
-231188
-236865
-218455
-252303
-231198
-193728
-224414
-204106
-212211
-193730
-224457
-204105
-169479
-197198
-177004
-187531
-169394
-197186
-176939
-144950
-170059
-149772
-163235
-145241
-170252
-150105
-335241
-377048
-357600
-350692
-335244
-377150
-357645
-313124
-351188
-332456
-329654
-313195
-351228
-332670
-289988
-325895
-305950
-307563
-290045
-326089
-306065
-263589
-299013
-277664
-283810
-263989
-299036
-277819
-235272
-269600
-247425
-256901
-235362
-269880
-247568
-207472
-239305
-217583
-228321
-207500
-239444
-217657
-179747
-209499
-188211
-200422
-179771
-209584
-188220
-151939
-179938
-159220
-172813
-152257
-179964
-159213
-243528
-271377
-265091
-246521
-243594
-270928
-265074
-234524
-262091
-252608
-241047
-234860
-262092
-252727
-217722
-248928
-237200
-230020
-218388
-249067
-237473
-204839
-232668
-218535
-213863
-205328
-233051
-218698
-186268
-212942
-196341
-200159
-186098
-213143
-196037
-169091
-191177
-176012
-181340
-168671
-190811
-175632
-150818
-170843
-156858
-163935
-151003
-170584
-156916
-135932
-152186
-138359
-147145
-135781
-152331
-138462
-272143
-306172
-296480
-277868
-272172
-305342
-295970
-259084
-292344
-279362
-269153
-259120
-291849
-279042
-243143
-274770
-260613
-255334
-243409
-274554
-260979
-223505
-255540
-238137
-238997
-223704
-256208
-238345
-201214
-232127
-214285
-218161
-200961
-232281
-214300
-180036
-208154
-190264
-195636
-179155
-208249
-190179
-159066
-184322
-166905
-173817
-159101
-184107
-166491
-139749
-161017
-143886
-154296
-139831
-160795
-144027
-304460
-342325
-327807
-315552
-304000
-341841
-327644
-286370
-322465
-306648
-299569
-285923
-322308
-306455
-266652
-301268
-284362
-281189
-266837
-301049
-284250
-242952
-278363
-259149
-261825
-243450
-278399
-259707
-218514
-252416
-231248
-237149
-218251
-252763
-231533
-193727
-224506
-204090
-212249
-193725
-224652
-204001
-169378
-197178
-176946
-187528
-169093
-197107
-176977
-145360
-170307
-150229
-163073
-145570
-170299
-150229
-335226
-377289
-357705
-350387
-335130
-376864
-357488
-313198
-351290
-332803
-329574
-313104
-351234
-332972
-290043
-326214
-306173
-307434
-289959
-326284
-306211
-264171
-299085
-277893
-283865
-264526
-299044
-278081
-235423
-269991
-247656
-257281
-235671
-270225
-247933
-207505
-239511
-217691
-228520
-207497
-239710
-217809
-179757
-209615
-188224
-200374
-179713
-209679
-188194
-152366
-179994
-159308
-172850
-152192
-179969
-159281
-243633
-270815
-265040
-245792
-243603
-269964
-264898
-234845
-262059
-252733
-240611
-234678
-261877
-252634
-218474
-249077
-237476
-229843
-218630
-248961
-237222
-205519
-233100
-218772
-214018
-205976
-232953
-218933
-186044
-213195
-195969
-200658
-186161
-213278
-195888
-168647
-190656
-175532
-181465
-169013
-190381
-175312
-151090
-170496
-156937
-164282
-151393
-170408
-157224
-135464
-152363
-138405
-146968
-135288
-152440
-138117
-272160
-305282
-295853
-277279
-272076
-304663
-295591
-259100
-291729
-278962
-268978
-258942
-291425
-278670
-243432
-274494
-261174
-255153
-243239
-274150
-261040
-239718
-234421
-244606
-238995
-239825
-234416
-244556
-217573
-212421
-223108
-218331
-217432
-212459
-223193
-178926
-208307
-190052
-194771
-178477
-208231
-189335
-159095
-183859
-166397
-173330
-159161
-183204
-166166
-139812
-160753
-144002
-154369
-139738
-160618
-143988
-303875
-341925
-327586
-314871
-303578
-341627
-327334
-285816
-322241
-306357
-299084
-285484
-321935
-305956
-266953
-300940
-284210
-280705
-266815
-300502
-283945
-263379
-255692
-267978
-260449
-262731
-254613
-268430
-236640
-232245
-243211
-238170
-236643
-233109
-243568
-193693
-224686
-203968
-212365
-193111
-224764
-203901
-168996
-197077
-176966
-186689
-168767
-196971
-176596
-145607
-170276
-150170
-162917
-145697
-169980
-150168
-335079
-376920
-357427
-350153
-334841
-376258
-357003
-313028
-351222
-333043
-329236
-312666
-350938
-333020
-289915
-326310
-306218
-306946
-289564
-326062
-305853
-264564
-298989
-278194
-283623
-264585
-298715
-278531
-235751
-270314
-248041
-257482
-235957
-270577
-248424
-207481
-239767
-217849
-228701
-207406
-240036
-218089
-179691
-209685
-188172
-200276
-179411
-209745
-188205
-152118
-179940
-159224
-172511
-151909
-179875
-159064
-243632
-269782
-264849
-245539
-243799
-268521
-264735
-234519
-261794
-252567
-240198
-233829
-261615
-252419
-218654
-248877
-237028
-229485
-218954
-248681
-236369
-205912
-232766
-218948
-214033
-205521
-232028
-218700
-186464
-213377
-195936
-200534
-187043
-213406
-196227
-169103
-190392
-175353
-181730
-169512
-190619
-176178
-151560
-170595
-157351
-164184
-151877
-171510
-157612
-135133
-152469
-137920
-146243
-134737
-152555
-137620
-272035
-304649
-295519
-276361
-271902
-303932
-295311
-258863
-291323
-278529
-268655
-258756
-290970
-278231
-243016
-273997
-260554
-254902
-242355
-273683
-260061
-224159
-256030
-239393
-237850
-224191
-255132
-239732
-200575
-233641
-214463
-218860
-200457
-234068
-214786
-178397
-208180
-189152
-194542
-178858
-207901
-188870
-159310
-183058
-166098
-174041
-159684
-182818
-166168
-139438
-160569
-143814
-154618
-139062
-160646
-143642
-303495
-341694
-327244
-313888
-303252
-341031
-326947
-285324
-321805
-305798
-298578
-284978
-321347
-305347
-266333
-300329
-283748
-280260
-265840
-299866
-283162
-244918
-278107
-259820
-260761
-244892
-277495
-259732
-218621
-252978
-231927
-238880
-219184
-253078
-232046
-192888
-224799
-203839
-212266
-192535
-224871
-203410
-168688
-196798
-176502
-186248
-168586
-196415
-176322
-145565
-169930
-150109
-162724
-145517
-169717
-150056
-334740
-376316
-356946
-349471
-334387
-375661
-356951
-312509
-350863
-333015
-328661
-312062
-350481
-332605
-289374
-325964
-305725
-306293
-288868
-325539
-305654
-264579
-298627
-278634
-282876
-264485
-298374
-278768
-236028
-270626
-248512
-257616
-236210
-270808
-248964
-207362
-240063
-218153
-228904
-207233
-240494
-218652
-179317
-209714
-188185
-199995
-179124
-209804
-187770
-151779
-179754
-158789
-172223
-151646
-179455
-158495
-243834
-268294
-264703
-245280
-243911
-268083
-264677
-233683
-261583
-252425
-240135
-233666
-261591
-252470
-219077
-248655
-236241
-229475
-219501
-248697
-235889
-205361
-231826
-218321
-213931
-205146
-231324
-217913
-187174
-213196
-196353
-200215
-187762
-212884
-196833
-169594
-190899
-176436
-181629
-169877
-191386
-176738
-151916
-171629
-157690
-164084
-152040
-171932
-157744
-134323
-152584
-137413
-145809
-133690
-152577
-136826
-271889
-303864
-295231
-276236
-271815
-303678
-294918
-258775
-290839
-278318
-268692
-258796
-290699
-278338
-242178
-273787
-259964
-254929
-241856
-273873
-259742
-223770
-255007
-239584
-237096
-223209
-254602
-239094
-200507
-234053
-214707
-217997
-200792
-233408
-214512
-179101
-207796
-188917
-195126
-179557
-207879
-189479
-159755
-182872
-166348
-174627
-159940
-183503
-166579
-138909
-160714
-143396
-154699
-138478
-160862
-143011
-303153
-340884
-326837
-313288
-302782
-340444
-326453
-285003
-321192
-305304
-298247
-284971
-320948
-305200
-265798
-299884
-283051
-280333
-265612
-299807
-282934
-244774
-277351
-259552
-260328
-244212
-277081
-258989
-219157
-253037
-232085
-238274
-219051
-252533
-232012
-192545
-224893
-203324
-212273
-193000
-224860
-203600
-168774
-196435
-176298
-186824
-168933
-196732
-176479
-145071
-169663
-149745
-162993
-144641
-169774
-149315
-334250
-375958
-357032
-349390
-333939
-375968
-357070
-312048
-350401
-332426
-328265
-311984
-349888
-332179
-288775
-325475
-305688
-306315
-288699
-325257
-305854
-264186
-298337
-278574
-282519
-263701
-298060
-278200
-236255
-270558
-248972
-257057
-236203
-270135
-248914
-207205
-240575
-218623
-228935
-207337
-240346
-218471
-179094
-209748
-187651
-200144
-179237
-209659
-187597
-151289
-179374
-158054
-172213
-150944
-179245
-157772
-234401
-229200
-228719
-223859
-234439
-229238
-228775
-246523
-251040
-250296
-255743
-246201
-251267
-249301
-239941
-233513
-244615
-237370
-239841
-233570
-243395
-239641
-238928
-234295
-244355
-234376
-244470
-239611
-234446
-223963
-229276
-229095
-229269
-228945
-234488
-246463
-255594
-250798
-250091
-251215
-249224
-245937
-239967
-238301
-233950
-244515
-233758
-244134
-239858
-211886
-206447
-206208
-200846
-211716
-206498
-206293
-221335
-227493
-226911
-231736
-221401
-227491
-226353
-215044
-209592
-221456
-216703
-215198
-209572
-221557
-217792
-218446
-212684
-223603
-212554
-223407
-217883
-211988
-200775
-206637
-206092
-206576
-206274
-211948
-221760
-232819
-228032
-227528
-227755
-227506
-222012
-215125
-216923
-209642
-221583
-209634
-221488
-215422
-256719
-249828
-249704
-244089
-256213
-249688
-250173
-267024
-272620
-272639
-278476
-267034
-272550
-272699
-261252
-254991
-266387
-259888
-261125
-255163
-266470
-263515
-260370
-255614
-268035
-255035
-268465
-263000
-256953
-245529
-250144
-250325
-250808
-250382
-256757
-267052
-278439
-272509
-272531
-272509
-272678
-267102
-261347
-259887
-255116
-266357
-255224
-266448
-261298
-229121
-225899
-222690
-221269
-229299
-228309
-222614
-241379
-248283
-245732
-252919
-241261
-248349
-245819
-234391
-227452
-238578
-231760
-234226
-227607
-238692
-236583
-239696
-232311
-243596
-234016
-243526
-236765
-229118
-221754
-225951
-222914
-229099
-222691
-229514
-241487
-252953
-248360
-245942
-248422
-245887
-241478
-234545
-231839
-227748
-238850
-227734
-238792
-234516
-215925
-235483
-232679
-222740
-215800
-235440
-232636
-215976
-228514
-227343
-216820
-216042
-228640
-227653
-203247
-216899
-209545
-208638
-203315
-217275
-209654
-193172
-202098
-202499
-198336
-192966
-202199
-202369
-176239
-190903
-183725
-187193
-176302
-190741
-183730
-162716
-173514
-168421
-170645
-162910
-173434
-168599
-145026
-157859
-150412
-154930
-145020
-157613
-150357
-131183
-141387
-135881
-138908
-131337
-141340
-135891
-251816
-261791
-274746
-242997
-251963
-261760
-274944
-255315
-246457
-252632
-246913
-246432
-252643
-255354
-246379
-239744
-247526
-240841
-239777
-247490
-246332
-232390
-224616
-235396
-228907
-225000
-235439
-232314
-216811
-210510
-217890
-212561
-210418
-218157
-216814
-199855
-195178
-203563
-199878
-195159
-203478
-199882
-180781
-177528
-183557
-181935
-177714
-183640
-180677
-162546
-159811
-166262
-164722
-159749
-166160
-162595
-145368
-143206
-148109
-147191
-143248
-148176
-145346
-118336
-130110
-121377
-129769
-118394
-130017
-121381
-288249
-306686
-310037
-284384
-288294
-306152
-309624
-286001
-277181
-287252
-278950
-277163
-287332
-286043
-273039
-266034
-276500
-269098
-266022
-276491
-273037
-257498
-251106
-261572
-255136
-251139
-261627
-257421
-239284
-233490
-243933
-238226
-233636
-244068
-239252
-217108
-212495
-222772
-218107
-212357
-222829
-217169
-194663
-190980
-200206
-196359
-190988
-200202
-194633
-173018
-169897
-178240
-175180
-169815
-178207
-173103
-150976
-149196
-155936
-153902
-149278
-156001
-150916
-122135
-134779
-123237
-132390
-122061
-134862
-123110
-329287
-350692
-348623
-330847
-329122
-350415
-348577
-321862
-313234
-325154
-316697
-313134
-325065
-321946
-303306
-296388
-308077
-300627
-296229
-308006
-303369
-283720
-277055
-288816
-282179
-277106
-288740
-283828
-261295
-255164
-267268
-260813
-255289
-267280
-261237
-235982
-230956
-242290
-236919
-230995
-242384
-235916
-210134
-206152
-216361
-212216
-206142
-216367
-210148
-184386
-181416
-190738
-187532
-181434
-190751
-184352
-159427
-157214
-165463
-163252
-157276
-165460
-159480
-125112
-139615
-127671
-136966
-124987
-139764
-127488
-364370
-387806
-382751
-367805
-364473
-387965
-382913
-354491