/*--------------------------------*- C++ -*----------------------------------*\
  =========                 |
  \\      /  F ield         | OpenFOAM: The Open Source CFD Toolbox
   \\    /   O peration     | Website:  https://openfoam.org
    \\  /    A nd           | Version:  10
     \\/     M anipulation  |
\*---------------------------------------------------------------------------*/
FoamFile
{
    format      ascii;
    class       surfaceScalarField;
    location    "1.4";
    object      phi_0;
}
// * * * * * * * * * * * * * * * * * * * * * * * * * * * * * * * * * * * * * //

dimensions      [0 3 -1 0 0 0 0];

internalField   nonuniform List<scalar> 
38556
(
-204.306
-76.3468
4382.7
119.272
184.936
-508.513
409.692
403.651
-694.071
423.982
197.549
-211.839
490.184
75.258
-141.46
518.89
-51.0126
22.3068
519.785
-108.528
107.633
553.398
-129.347
95.7334
578.376
-118.666
93.6885
618.211
-85.5159
45.6812
649.648
-48.2578
16.8204
687.824
-8.21557
-29.9604
718.392
23.3608
-53.9283
751.239
65.4864
-98.3339
790.473
79.7366
-118.97
870.652
96.1454
-176.325
948.619
104.882
-182.85
968.278
101.983
-121.641
864.888
110.657
-7.26699
115.627
-15.1871
-1325.49
-2091.98
2205.94
-540.573
121.37
-721.355
128.14
254.446
-519.509
160.407
183.789
-18.5069
402.558
-69.4641
-97.4292
449.681
-73.4234
-24.7122
458.635
-146.288
28.8061
474.776
-133.723
-11.7659
479.245
-135.82
12.6853
493.41
-80.7513
-18.9305
507.645
-43.8966
-18.5957
531.932
11.0631
-43.5658
564.626
49.1138
-58.4466
612.318
101.176
-83.3818
688.189
116.832
-112.967
798.177
108.239
-122.082
867.87
80.2587
-45.0696
857.371
46.867
65.6149
738.501
82.5662
146.961
105.868
117.338
-215.412
-1772.78
-1912.69
117.164
66.2301
-277.436
605.746
188.32
-422.456
628.429
212.19
-51.0847
544.044
35.1429
-20.2217
519.463
-22.4619
-26.3806
463.084
-97.3717
7.46298
476.15
-108.375
-38.4147
481.628
-130.141
-11.1568
503.382
-70.7803
-31.7255
516.269
-40.0708
-16.7127
537.835
11.902
-22.4048
564.74
42.0157
-19.8072
604.66
81.5703
-20.3139
645.097
79.1716
-2.77659
662.131
54.4737
36.7315
618.62
32.5866
91.1825
549.367
13.6254
102.495
472.459
65.0088
94.4648
95.8842
64.8263
-1961.33
-965.437
119.342
-537.272
-573.694
-784.135
-150.353
-165.909
-32.6898
25.1466
-18.6249
55.3147
120.938
-67.0455
6.39667
131.582
-59.9519
26.8465
243.962
-211.078
1.32628
272.146
-135.253
-1.30576
345.698
-215.316
11.6224
383.343
-82.7223
-25.703
412.309
-57.01
-12.0267
418.734
17.6311
-12.1545
419.891
28.0455
12.8138
407.102
56.4649
37.8944
365.934
35.7959
84.5434
302.882
19.245
98.2811
236.602
18.994
79.8719
185.321
18.346
46.5608
163.257
46.8646
40.2085
65.9002
37.4709
1218.04
-365.548
1403.94
994.524
-272.856
-77.3251
762.936
37.5284
28.1509
643.97
16.4414
83.9002
445.076
19.6164
112.232
343.727
0.0776214
41.3188
228.835
-178.687
82.5013
148.796
-109.272
54.0591
166.318
-306.063
73.2256
174.51
-134.835
43.9201
200.391
-131.647
48.7563
204.423
-28.3251
41.9243
200.825
-27.9215
59.5651
187.843
4.55062
64.8956
169.245
-9.8392
64.2335
146.529
-7.75261
49.713
137.053
-8.02816
36.4982
135.182
-2.88414
23.1009
147.323
19.4319
15.2923
42.2818
13.1464
2213.14
-1257.14
4029.85
1694.99
-26.5272
271.814
895.236
387.934
449.352
798.506
37.822
75.3501
659.318
113.078
45.7266
603.957
77.7236
-22.2847
430.823
-172.979
167.426
245.154
-31.8641
108.261
110.691
-312.063
140.462
30.4519
-117.787
63.1917
35.3928
-176.805
40.217
41.8623
-63.4906
28.6961
68.9123
-100.78
45.8087
78.7568
-53.063
47.769
86.3781
-63.0051
45.5446
97.8809
-59.1367
39.8812
106.95
-46.138
29.041
110.457
-25.3951
19.0036
119.746
0.0168521
10.1266
23.0082
5.42103
-669.452
-727.43
462.723
-249.041
-55.7567
-391.182
-31.7043
287.087
-116.49
18.3501
-135.615
123.383
233.308
-66.7707
-35.1096
133.604
149.459
27.9686
105.687
-22.5428
53.1729
-73.1522
-26.4354
-76.1049
-48.946
-5.1773
124.503
3.99003
-4.77243
4.22541
-149.639
-53.0651
89.2645
-98.3855
-51.5629
-97.6209
-212.31
-25.5559
-4.79191
-2.16612
-23.2286
0.626259
-175.235
-36.9686
-5.17279
-71.3405
-36.5357
-63.8623
-136.702
-40.9543
27.1733
-34.125
-29.4208
-24.6962
-81.4297
-48.9155
39.7558
-55.428
-39.0523
-52.4131
-44.3071
-36.7089
44.8261
-25.4718
-36.2352
-36.5958
6.63237
-150.24
36.2957
58.9097
-142.946
31.5319
102.448
-108.818
19.1419
128.175
-63.7762
12.6538
149.918
-29.238
7.51215
1.72871
3.48936
-1447.83
-49.36
2688.05
-592.858
-270.182
-640.551
125.19
-98.67
-332.292
232.57
-296.502
53.5074
434.334
-269.099
0.563725
110.263
6.85317
32.3463
114.57
103.107
107.456
56.2397
3.91704
49.0417
89.5199
-2.94942
1.1494
-60.5291
57.3669
-5.46818
3.45312
-58.3938
5.03819
-26.0914
26.382
37.6319
-39.3432
-26.7402
2.89564
24.6842
-28.197
-31.6661
-1.78974
30.7797
-25.8347
-49.8939
3.9946
7.42557
-4.85691
-53.3639
1.8797
-3.49393
0.879045
-48.6899
14.5959
144.997
-53.3842
40.4303
-16.2902
-33.6527
-30.9935
-36.3239
-59.6555
-48.424
-56.9432
164.827
-215.724
52.9475
170.223
-153.151
38.9372
172.988
-87.4688
20.928
174.05
-45.3071
15.0065
-13.4719
8.31516
-1977.97
-1103.56
1653.73
-496.29
-402.35
-1349.51
142.945
-371.416
-366.49
136.391
-277.869
-12.0796
53.8775
-311.335
-40.4803
53.0603
53.934
58.2358
86.674
-15.0142
-10.9292
-3.63745
-34.7995
34.3754
5.14481
-1.08326
-38.0323
1.72281
39.9303
-2.16541
-1.45533
-38.6928
3.37981
29.211
-1.31533
7.41729
0.11246
4.40899
-0.807047
-1.8647
-1.8497
-4.5619
8.60096
4.86824
-7.23304
-1.67426
-4.36247
12.7334
2.34951
-10.4317
-0.288723
-6.62012
12.8877
7.63598
-10.187
-3.71656
-9.2827
13.8821
8.01054
-12.9725
0.362542
-9.94349
44.2407
-52.9404
0.711796
-9.24615
-13.1492
-13.0574
236.693
-250.684
26.7512
-51.8689
-56.2634
-60.1577
-60.1949
228.721
-186.593
41.4146
217.597
-101.545
25.2006
212.298
-56.6347
16.6262
-23.0356
8.91396
-681.73
-1181.73
902.295
-205.878
-739.216
-138.986
369.333
-654.171
-292.456
536.626
-428.766
-16.3953
161.013
-439.34
-10.5076
170.881
166.821
176.423
32.6571
182.101
-46.7699
-6.97533
4.94093
-44.3809
46.1314
-3.75573
-2.93571
-0.454012
-50.289
51.5402
3.08638
-3.88363
0.135872
-57.5712
59.2906
3.38623
-5.24147
-2.87481
-68.2408
66.2407
5.36723
-0.49231
0.0580903
-21.584
20.4806
2.77934
-1.73399
0.196911
-18.8363
15.5131
4.81434
-1.68809
0.609185
-11.4931
12.6752
2.06047
-3.85178
11.6892
-14.941
12.6574
-8.53923
-0.866367
-10.6475
60.0636
59.0726
-63.3334
-0.0266891
-10.79
-16.9561
-17.3825
291.394
-235.539
-14.3131
-63.0732
-64.5546
-77.9019
-86.6949
269.847
-160.153
-4.89404
248.356
-88.7256
8.67153
234.565
-54.0041
11.16
-27.1402
7.99415
-767.354
-1755.99
-121.654
-387.336
-1251.34
132.105
68.5232
-1140.44
30.4063
265.364
-673.889
48.2814
103.73
-682.956
76.5366
106.659
111.257
110.798
81.7813
141.437
-141.556
22.0674
14.1463
-43.1618
49.1314
-26.0489
5.93303
8.35265
-64.726
68.6276
-17.7153
5.46104
1.71824
-80.9703
84.7729
-10.9731
5.4522
-5.07117
-94.6109
94.5316
-2.70669
7.85716
-9.59703
-46.167
35.4113
14.0197
6.33302
-17.3032
-30.7868
28.9566
20.7578
-1.62443
-2.65816
-18.5972
15.4073
4.16461
1.68344
-3.0123
-18.7814
22.6458
3.92948
-4.78161
-14.9322
64.8017
52.673
-69.1663
19.7882
-15.1974
-18.9444
-19.0226
292.537
-178.295
-63.8244
-60.0965
-58.5705
-85.2635
-82.0262
269.042
-112.177
-24.4815
254.54
-69.9305
-4.29239
245.584
-49.6704
4.62189
-29.7527
4.54734
930.341
-1375.41
3676.47
313.296
-1129.12
494.824
382.933
-1028.66
-181.412
469.507
-638.791
-121.672
119.103
-662.152
-70.2282
136
122.376
141.451
161.671
142.235
-170.74
-14.0643
39.4762
-38.6091
40.9605
-40.493
-1.33464
35.2476
-44.0388
44.7503
-34.6944
-1.26476
31.1966
-46.7732
49.0134
-30.6077
-2.82909
17.2868
-55.4547
51.9788
-17.3107
3.49967
-14.0329
-32.6426
31.3193
10.7993
4.55693
-21.1273
-36.7707
37.7723
17.3973
2.72843
-7.90669
-37.7305
38.0739
8.032
-0.468662
-0.0698428
-35.5278
29.5342
1.78926
4.27425
-11.3971
76.4032
56.2199
-70.0248
-0.312841
-13.3773
-17.2487
-20.2623
286.174
-93.2417
-36.6949
-62.6128
-79.0104
-89.0373
-103.872
255.405
-75.3237
-6.08411
243.575
-60.9956
2.89445
247.015
-57.8178
4.70726
-35.9274
1.25053
75.493
-851.123
-2580.83
203.266
-759.847
-497.044
639.976
-716.391
-748.98
774.853
-476.075
-297.593
764.832
-494.257
-157.873
183.468
-537.776
-107.526
163.29
183.325
160.467
176.538
189.004
173.415
180.627
36.1357
186.52
-131.586
-12.72
33.4047
37.2971
34.4166
27.9345
-155.517
126.395
-87.8258
4.75673
27.5201
28.5853
28.1517
24.4875
-114.781
109.47
-86.1497
-5.35992
24.0623
24.5112
23.7599
15.3914
-99.718
111.066
-48.3652
-15.5697
11.6344
14.4826
11.0787
-2.19733
-131.955
155.208
-5.8998
-0.849101
-6.01264
-2.22644
-6.06753
-8.51248
-158.829
169.105
18.0768
6.18968
-8.4249
-8.8882
-8.71713
-6.21936
-175.023
179.168
6.26862
14.8713
-6.40048
-6.41308
-6.25223
2.73013
-165.858
142.096
-13.1105
23.0192
5.3602
1.84954
3.9134
560.916
-135.95
44.584
44.6977
32.7202
37.7089
32.8347
-128.201
-153.443
-162.511
-173.357
499.399
-115.408
83.6827
409.368
-78.4574
93.1652
338.398
-59.0642
69.0379
296.208
-47.5828
31.9553
-28.5941
7.4769
2658.99
-919.914
-3478.24
2067.79
-821.328
652.677
1371.21
-584.522
564.711
1175.18
-362.77
82.7314
998.336
-303.46
-13.9575
832.881
-310.983
-61.3381
702.254
-206.179
11.7292
100.649
62.1533
101.932
60.3423
622.914
-296.398
44.2467
77.141
88.9818
78.001
87.3672
569.468
-232.481
72.0919
67.8983
44.5113
63.1465
38.2788
565.166
-267.726
101.796
47.965
42.7829
42.4361
37.0484
596.912
-213.879
145.694
22.2181
0.229972
17.8521
-3.86076
641.951
-229.445
164.751
8.59976
5.51736
4.16906
1.3695
679.772
-223.035
145.923
12.7288
9.57436
10.6168
6.37069
711.927
-244.536
118.792
21.5134
24.5582
21.255
26.263
729.195
-238.454
85.2358
742.609
-211.341
82.5195
709.319
-123.794
78.6261
598.169
-8.19684
60.2831
459.952
43.7957
46.8379
26.6011
10.6696
469.849
-2095.14
-2884.63
1037.16
-927.304
-461.329
1491.59
-613.417
-425.536
1620.28
-272.479
-218.987
1293.05
-118.748
142.522
947.391
-127.461
162.135
689.766
-126.411
177.857
569.702
-251.953
75.6199
527.366
-250.721
60.5756
500.674
-297.024
55.9894
488.87
-257.013
54.9376
485.877
-259.698
33.2462
492.068
-226.406
-2.81967
501.784
-205.489
-48.7629
523.646
-186.963
-73.3533
547.731
-151.184
-84.2413
533.719
-52.9843
-56.7975
485.007
73.2857
-32.7705
422.477
121.779
-15.4537
86.8391
-22.481
2467.68
388.873
1448.92
1544.33
-339.471
335.522
1323.7
-392.966
0.181273
1251.71
-132.171
-68.3172
985.503
47.0608
100.394
793.651
-10.8988
75.2887
642.478
-54.132
78.8941
565.802
-168.956
-6.32118
507.038
-181.067
-10.8895
453.767
-209.796
-33.9575
403.02
-165.296
-40.9701
373.729
-139.822
-90.5853
369.519
-101.461
-120.735
384.933
-68.9211
-151.983
415.022
-50.3607
-166.691
454.631
-19.7134
-171.079
484.665
51.1798
-134.198
497.96
106.545
-46.5545
493.378
125.182
1.17874
99.6699
-1.3241
857.498
-167.183
-1315.24
902.189
-308.974
-75.1881
1187.85
-284.865
-393.765
1145.13
-51.0967
-38.352
1012
164.444
15.7481
917.657
84.629
-1.18584
837.993
46.4051
-20.8733
790.635
-53.3436
-68.2542
731.312
-75.6941
-46.0491
658.185
-97.6407
-39.0285
542.078
-58.3796
9.19051
457.519
-30.5308
-24.7316
432.802
5.78055
-82.5247
432.529
33.6475
-102.296
457.14
38.3114
-113.283
496.353
38.2304
-97.1562
525.622
69.0813
-47.1703
535.78
85.8901
10.4965
523.336
91.2541
46.3717
66.9757
46.9553
2271.88
-451.154
-1080.42
1616.13
148.413
198.358
1098.48
27.6166
205.176
888.181
19.6528
139.546
823.4
144.542
84.6824
842.556
59.229
6.24468
874.849
-1.48101
15.5934
913.468
-68.0051
-23.9583
922.921
-73.8792
-11.2673
919.719
-62.868
-31.5707
887.191
-24.5227
-1.32881
839.727
2.89376
14.0394
759.274
46.2471
39.986
689.903
63.3798
39.6387
627.795
55.6483
44.7715
572.239
36.9579
56.8281
536.016
43.6357
61.6685
512.247
42.3402
67.3188
476.163
48.528
78.8102
34.6215
57.8161
1328.05
-309.189
1410.2
1165.78
343.71
-33.0263
1152.06
284.52
-243.184
1199.95
112.247
-140.484
1158.9
166.978
18.621
1099.08
79.2416
39.8009
969.374
20.4682
107.759
878.07
-36.8873
60.1858
795.444
-61.4058
70.1522
745.553
-59.3326
46.3558
705.175
-41.5069
57.3621
674.245
-22.6195
56.4435
639.36
8.25844
72.8741
593.047
32.4176
77.275
517.305
36.2058
95.1844
442.203
23.8652
88.195
389.094
23.3093
73.4349
354.944
17.2725
59.2181
338.741
20.2586
44.4731
15.1672
25.072
1288.51
3058.25
1063.4
568.82
1058.98
288.937
1142.85
28.3759
1154.89
154.934
1137.59
96.5431
1045.44
112.625
967.763
40.7853
876.737
29.6205
808.393
9.01144
730.492
36.3939
653.921
53.9513
549.392
112.788
456.006
125.804
388.181
104.03
337.272
74.7744
314.013
46.5682
304.034
27.2516
306.204
18.0893
9.94934
-159.435
-27.6713
4317.68
432.857
30.8881
-1131.69
424.378
277.836
-963.428
418.675
121.165
-327.301
418.478
41.3216
-182.584
445.793
-43.9833
38.9741
470.75
-72.2109
154.888
516.24
-77.2746
127.518
550.146
-63.7917
123.573
591.594
-44.4067
48.6403
620.072
-22.073
10.4155
650.502
-9.62915
-50.7611
672.72
-0.940066
-75.2069
696.386
0.372717
-122.373
716.679
4.43892
-143.702
745.581
-6.10436
-199.122
801.997
-8.31653
-230.95
869.934
-23.8502
-165.728
872.493
-0.114739
-9.71118
4.71177
8.53863
1031.67
-860.705
5278.72
63.0106
-396.235
674.424
139.742
-32.5424
-285.861
94.8083
44.7622
102.829
264.622
-108.248
-117.673
275.781
-68.6757
-11.1792
320.024
-119.083
31.4354
341.545
-85.3976
-25.1644
369.439
-86.8694
7.86918
387.288
-43.6132
-37.5732
399.371
-28.3798
-24.3717
404.189
-9.32269
-48.6898
406.05
-6.87919
-54.369
406.751
-8.15588
-75.5547
414.516
-15.5282
-100.765
450.396
-37.1417
-126.924
518.193
-37.3881
-83.7955
551.772
-40.2903
48.4772
493.008
14.6407
190.969
43.7249
142.221
1317.1
-513.353
-2885.42
1549.88
-423.815
-482.641
928.374
-0.30799
166.817
628.288
114.561
179.203
391.451
6.39715
101.969
326.543
-29.1795
-0.96903
298.517
-110.467
26.8731
312.674
-98.936
-39.033
342.703
-124.248
-3.80623
367.963
-69.0335
-31.565
381.817
-54.349
-4.59815
386.363
-24.1703
-12.1028
381.154
-22.8817
1.40397
375.567
-21.4
-1.48226
370.003
-33.7155
20.9746
365
-49.007
53.6003
347.724
-41.2244
112.294
321.105
-38.0027
126.827
297.212
15.8022
117.196
56.3721
75.1235
-1027.26
-314.969
-2320.83
-571.895
-548.424
-1114.89
-304.824
-161.799
-138.269
-170.467
-30.8337
66.3521
-61.671
-70.5436
-25.4584
-26.6681
-55.5657
18.2297
102.419
-231.772
-6.45604
138.664
-135.659
-0.828191
257.376
-233.894
2.55642
294.785
-100.894
-31.2514
324.664
-89.8658
-6.3883
323.788
-26.6898
-8.75933
310.818
-23.6395
26.5418
283.131
-5.50784
49.6888
246.15
-11.73
99.5395
201.803
-11.3921
105.013
158.933
-3.18358
84.7015
121.226
0.225153
46.0403
108.28
31.8853
37.0714
52.214
35.5387
1721.26
-239.501
1628.13
1014.52
80.5744
0.414762
461.709
219.834
199.328
262.093
56.9827
195.699
133.947
28.8634
140.971
41.2797
9.27937
69.1417
54.2175
-233.972
71.7637
29.6183
-115.327
58.3269
112.887
-322.571
78.6337
141.587
-128.374
42.7004
182.55
-140.81
58.7374
190.281
-42.2043
49.7076
186.653
-40.504
80.0579
172.919
-16.2659
89.3874
156.658
-20.8178
89.5826
138.266
-18.5949
75.3076
131.254
-16.1054
56.4315
129.583
-8.23812
33.2361
141.943
16.4788
18.3388
40.5745
13.6966
941.338
-275.704
2370.36
238.395
463.152
592.179
237.91
380.83
288.843
182.039
7.108
181.095
156.852
67.5979
32.179
79.9898
47.6562
16.2013
130.51
-268.101
151.035
0.183116
-23.1094
146.369
-11.9444
-329.676
159.694
-28.4066
-78.7047
29.9841
-0.949566
-162.032
33.9819
12.72
-54.0579
26.8801
45.302
-94.0166
66.7393
66.7748
-56.9493
66.9794
83.7596
-74.5998
82.3417
98.2884
-67.1927
73.9501
109.216
-49.2406
51.2486
115.766
-26.3342
30.5497
127.813
0.66923
13.8895
24.5235
7.57836
-1120.6
1806.66
-214.434
-555.14
251.323
-744.812
-278.451
164.169
-176.518
-129.622
-183.401
165.063
24.749
-75.5365
-46.3461
-82.0995
117.85
64.6228
-88.656
-38.8715
53.0835
-87.5146
-44.4044
-90.6643
-167.537
-0.928037
155.748
9.31783
1.01663
15.121
-232.775
-51.6455
123.021
-96.9996
-52.5104
-97.0396
-258.024
-16.4365
-35.2552
5.89373
-15.7174
3.26779
-185.098
-38.5994
-42.7918
-61.8672
-33.8802
-62.9912
-145.286
-24.5539
30.5814
-21.3493
-28.6168
-22.759
-82.9893
-34.0828
52.1409
-49.8885
-36.226
-48.5008
-36.864
-36.2519
82.3924
-37.1472
-34.1817
-33.0601
19.7921
-176.701
81.7409
70.952
-160.932
74.111
110.354
-116.802
47.3006
134.672
-67.2477
29.2497
156.909
-30.2577
16.2017
2.77356
7.8516
-435.524
2022.46
-172.703
-481.416
19.1486
-362.484
-64.5732
-78.672
-506.293
26.4592
-306.565
85.6386
278.826
-248.622
-78.718
65.3789
12.3301
45.635
69.2606
52.8285
56.175
53.9648
16.7956
56.6544
-5.92497
43.6018
-9.24625
-1.92327
-3.99499
-5.72833
12.9129
-6.82857
2.7109
-42.5842
-34.0026
-2.95535
-24.5275
52.4242
-12.3586
40.3901
-47.9277
-26.1933
29.653
5.4968
30.6462
-34.2932
-30.2501
-10.1991
1.22617
33.611
-25.5584
-31.5747
-2.25792
-1.5337
9.40577
-4.95583
-40.168
3.16898
-14.222
-7.05684
15.6165
-47.3628
16.7733
158.382
-62.0494
83.9954
-30.0754
-31.0483
-26.1272
-25.812
-69.0266
-64.0961
-70.4133
183.263
-245.814
112.948
183.703
-162.909
84.6043
182.457
-92.7521
47.679
182.073
-48.2175
33.3499
-14.2781
20.3672
-1024.39
-314.951
4997.23
-331.402
-219.509
-1803.85
-31.6416
-258.194
-486.727
-48.9901
-233.644
-67.6515
21.5086
-278.837
-122.387
23.8282
10.2322
7.56258
18.6373
52.9535
-12.2884
-25.4636
0.655977
-0.984734
-25.5893
24.7022
2.53625
-1.32044
4.10872
-25.4195
2.96932
26.8556
-3.49176
-5.02245
-6.84364
-31.8063
4.49337
31.8809
-3.19886
5.47452
-10.0269
-28.1533
6.47379
22.5704
-3.97773
13.1138
-1.47443
-9.87774
7.32085
8.13704
-6.87373
2.76801
9.40461
-9.65596
7.2697
9.78333
-4.89979
-11.9019
10.8472
-11.3384
11.1046
10.1105
-8.74183
-11.9821
3.19589
-8.85163
12.8695
7.36308
-10.5705
-4.00628
-8.85834
14.4645
41.7779
-54.0171
-27.5314
-9.87181
-8.34383
-9.66945
236.817
-268.61
30.4819
-55.8404
-58.1217
-48.8603
-54.9293
235.182
-195.915
76.0548
226.552
-107.558
48.6361
221.61
-60.0961
33.4471
-24.3382
19.6192
-758.641
-1887.25
255.497
-10.5484
-583.517
-523.071
307.391
-426.547
-442.042
392.655
-259.526
-75.7782
123.362
-296.094
-92.5979
137.436
108.057
123.147
10.228
35.9262
148.1
-51.0172
-19.8748
3.64145
6.93472
-37.4918
39.3312
-8.44458
-3.97097
8.95651
5.11201
-41.9309
43.5669
-6.00138
-9.70319
13.4019
5.91656
-48.9139
50.7309
-6.45926
-14.6762
1.68226
2.20481
-55.7176
56.992
-4.2297
-0.931806
-19.1526
14.5198
-56.0547
53.0586
-15.7035
23.3325
5.56213
-0.875035
-32.941
29.0308
4.3232
-5.10015
15.0216
1.61593
-24.7565
23.8782
1.53545
-17.2947
6.6317
6.51619
-21.4094
21.2089
-4.73999
-8.20739
-20.5402
-12.3379
40.2539
81.4347
-36.2403
11.9881
-22.1516
-20.3968
-22.01
328.402
-237.368
-18.9749
-80.9839
-96.7852
-79.1745
-98.0385
292.889
-172.63
7.33433
264.211
-96.5219
26.3139
246.992
-57.618
25.9005
-28.4949
18.7027
-823.722
-2030.57
1672.68
-386.202
-1067.69
178.761
36.647
-813.981
-5.00879
143.153
-386.471
68.7201
84.7339
-455.205
71.0288
80.473
73.481
69.0845
-32.9417
65.6797
126.496
-101.254
26.7543
-14.757
16.2524
-40.8769
47.5341
-22.7322
14.5795
-13.5767
15.4371
-59.3983
62.6064
-18.9494
13.881
-11.4942
10.8413
-72.4137
75.5204
-13.1806
10.7268
-14.5016
10.2824
-81.7345
82.4183
-11.6037
15.1391
-31.1265
9.45016
-75.951
67.6116
-4.60284
34.6186
-4.13505
-13.4212
-40.3942
35.5533
15.2829
7.1143
-6.78056
-8.59315
-28.4423
28.1355
7.79476
7.88578
3.79594
-1.02671
-31.25
30.8861
3.19162
-5.59695
-27.5157
-40.051
49.3927
109.914
-60.9453
54.9835
-27.9585
-28.5888
-29.2309
375.572
-177.933
-41.3815
-106.723
-106.491
-118.049
-126.188
309.126
-118.959
-11.7066
276.238
-73.6588
5.73248
259.872
-51.366
14.7362
-31.1262
13.1249
520.862
-1929.64
1401.73
180.67
-696.167
463.489
259.478
-767.839
-306.361
283.848
-402.182
-130.33
86.4501
-505.361
-88.7369
100.795
75.2685
89.9986
19.7721
119.49
109.956
-136.357
-26.4108
1.42555
31.7383
-31.9364
34.8975
-34.1012
-2.02373
1.14057
26.8755
-38.2932
39.8511
-28.1737
-1.40029
6.59526
19.3736
-45.0992
46.8404
-20.3402
-7.3698
-4.636
11.7959
-49.7831
49.7615
-10.9254
3.78719
-11.4225
-3.5208
-46.4959
43.7864
5.41223
12.2406
-7.65104
-14.246
-43.06
43.9191
12.801
8.23687
-1.11124
-5.48267
-43.2941
42.4831
5.99467
1.41019
-10.3728
-1.70611
-38.9292
37.7657
2.34413
10.8983
-32.9101
0.686561
62.9791
126.786
-50.7026
3.32874
-36.4583
-35.5399
-38.1692
338.656
-69.7994
-9.21401
-111.072
-115.008
-127.187
-121.004
274.286
-68.4221
7.74979
254.859
-60.7693
9.43181
256.662
-58.7391
10.2771
-38.4057
4.74851
1695.87
-1147.22
-118.2
903.393
-454.324
53.5872
575.691
-503.374
-685.744
582.853
-364.299
-342.638
530.929
-448.474
-162.837
123.25
-523.197
-111.383
138.921
157.38
134.558
152.387
126.683
110.286
114.52
31.8238
9.29989
122.448
-114.923
-14.1482
29.2987
31.0217
28.4296
24.4341
-5.37586
-94.6287
85.9947
-79.2249
-0.714051
23.4619
23.5428
22.51
18.7757
11.9013
-89.334
92.3256
-66.5835
-18.1616
17.3448
17.67
16.0618
7.33404
24.812
-86.1874
94.9429
-24.9045
-29.2559
4.19789
6.09149
2.96945
-5.52634
3.67083
-110.222
131.886
8.35887
-5.02584
-8.15908
-6.34393
-8.63848
-9.98454
-8.38956
-140.331
153.51
26.3655
8.43367
-9.63815
-10.17
-9.79648
-7.6053
-20.5045
-160.98
171.423
17.2199
22.6095
-7.11753
-7.76535
-7.27965
-0.941388
-29.6847
-173.982
177.044
-2.41536
31.7559
-0.035342
-1.20795
-0.532856
570.439
-29.561
80.7275
26.5596
24.3393
21.3807
21.6538
-165.157
-175.005
-161.649
-169.144
470.094
-24.5468
138.775
380.028
-26.2153
141.024
324.492
-28.7645
92.5693
293.723
-38.2166
42.2016
-31.7069
11.5808
-46.3305
-847.1
-3097.42
363.47
-798.15
586.702
632.442
-520.243
312.607
702.618
-334.877
-16.8678
611.9
-344.099
-27.6144
480.383
-371.389
-81.629
431.562
-231.494
17.0731
89.9097
52.3519
85.2405
47.4696
412.55
-299.964
47.2544
75.4915
84.3831
73.8926
82.2012
431.409
-184.089
85.0829
53.9732
26.8864
50.0114
21.3681
483.246
-189.296
134.835
31.1855
25.0753
26.9841
21.1747
564.904
-105.743
191.455
7.55936
-16.8137
4.90967
-17.3318
654.349
-115.762
210.71
-4.56397
-5.80479
-4.07221
-5.202
714.778
-78.4308
185.172
-2.54655
-6.62995
-2.99083
-9.07919
754.007
-80.9811
139.65
7.59
6.58933
4.73684
1.97711
772.009
-63.1027
100.775
768.768
-43.6389
104.853
713.318
-1.20574
109.067
599.584
48.2683
96.9843
471.888
56.1405
80.1768
24.7153
17.0368
-227.227
-1631.47
-3204.07
405.273
-1052.11
-839.87
637.876
-729.858
-448.524
682.681
-421.85
-176.819
595.019
-278.178
164.263
510.005
-269.82
145.581
482.267
-205.681
179.782
443.363
-263.495
78.0551
441.073
-193.888
72.665
446.583
-201.633
62.8168
464.475
-133.929
65.2317
478.49
-126.802
30.271
492.611
-86.2437
-9.12812
504.059
-73.1844
-68.0068
518.314
-53.7807
-96.93
533.169
-22.5469
-120.188
528.71
38.7837
-92.3281
512.068
98.3722
-66.2327
479.126
101.773
-28.1441
56.8444
-26.6782
688.063
-428.288
-817.1
976.445
-658.452
-346.516
940.7
-602.843
-91.0894
814.682
-394.216
30.0663
629.014
-212.808
220.692
520.988
-193.049
106.544
438.173
-144.924
100.953
376.762
-198.98
-9.42542
335.572
-147.325
-16.263
308.154
-143.316
-64.8577
304.082
-94.3614
-76.4658
306.624
-89.4539
-130.475
321.045
-64.8087
-156.59
336.446
-61.3139
-179.254
354.405
-50.5595
-187.872
377.847
-20.5288
-196.54
424.875
36.2252
-178.668
496.023
83.7509
-103.081
536.535
76.3833
-13.9443
47.5583
7.45946
1012.99
-722.027
-1808.31
1223.65
-483.84
-460.456
1161.36
-324.321
-610.001
1047.21
-184.215
-134.207
844.114
-17.2304
23.2696
701.419
-70.558
19.0177
567.662
-54.9393
22.8999
465.174
-114.113
-50.6332
377.933
-84.5449
-21.5881
317.812
-67.9327
-54.2911
305.383
-26.0703
-46.6718
306.193
-18.0639
-96.9318
319.192
-16.336
-143.996
330.41
-23.2281
-151.6
347.956
-29.6037
-151.784
385.48
-26.3866
-128.822
451.995
3.88947
-81.3498
509.789
30.6458
5.80688
521.413
37.4465
73.6853
28.1725
75.1637
706.655
-778.905
-3198.09
743.574
-185.76
-136.642
768.465
10.6694
-154.705
696.801
9.26853
17.7262
633.758
101.462
29.0334
616.261
-38.4964
-8.31898
619.607
-68.9737
26.2817
606.144
-110.623
-13.9861
564.77
-75.8061
21.3686
511.562
-33.6625
-12.6338
462.041
16.0889
6.03346
433.464
37.2394
-12.6873
428.452
29.0821
-0.419438
432.411
12.5616
-0.110413
440.34
-6.76767
14.0062
444.297
-15.2513
41.736
445.918
-7.02616
70.9635
446.069
1.14099
96.6725
429.908
17.0362
115.381
16.6193
82.4697
1015.89
-332.587
2553.75
1003.71
-98.9763
-107.631
900.611
232.53
-361.944
858.749
107.056
-196.409
826.293
163.618
-11.0796
787.95
44.2754
-4.62762
727.053
-18.6314
118.313
668.157
-58.3715
66.8312
607.916
-51.502
106.088
559.916
-18.5049
79.1977
519.889
9.43434
104.044
485.66
22.5334
105.379
451.525
17.4437
118.648
414.828
15.0513
111.483
380.32
3.83025
119.095
351.807
-3.0141
104.471
332.123
-0.59312
86.6857
321.478
3.4798
67.5237
322.225
11.4525
49.3098
11.0043
26.8387
340.087
4508.51
600.871
209.06
917.668
204.67
1015.33
37.772
1097.36
236.516
1110.93
127.253
1000.89
204.035
873.961
109.34
739.127
112.953
654.038
75.5946
589.908
109.958
534.678
131.715
476.281
188.629
423.968
193.168
376.676
155.153
338.889
109.547
320.303
64.5608
312.085
38.9491
314.665
26.9625
15.4154
1344.74
445.116
1628.86
1279.79
295.787
-1362.53
789.611
296.692
-769.94
576.373
141.333
-255.396
406.947
76.9941
-90.1519
405.587
-15.2273
55.5617
431.463
-28.0254
157.037
481.743
-29.0513
106.29
516.273
-20.0655
109.109
550.467
-14.3808
28.8273
562.098
-8.24566
7.02967
568.257
-14.4036
-42.5163
564.718
-27.2706
-44.397
565.23
-48.7405
-74.1448
568.511
-65.8177
-81.1644
574.904
-80.2475
-125.269
592.518
-92.8086
-155.755
652.766
-113.053
-112.923
716.044
-66.4309
-6.55877
-26.1707
21.3472
221.637
-604.439
1511.8
-366.342
84.388
1473.8
-97.6717
-10.9616
-246.878
-27.4332
44.1649
129.759
106.645
-74.8104
-99.9459
113.418
-44.7831
11.6029
210.521
-80.8334
-12.8589
232.497
-42.6645
-33.528
276.24
-50.9174
-5.02086
293.492
-22.3461
-46.8602
309.411
-27.8093
-20.7272
312.556
-28.3657
-37.8721
312.409
-55.4686
-26.0248
305.007
-78.1434
-38.7493
295.824
-110.109
-47.2902
288.15
-126.715
-72.7833
289.359
-126.316
-51.4967
297.832
-107.752
34.7027
296.456
-18.9221
144.837
30.7525
104.09
473.643
67.3188
-1233.85
278.246
-157.726
-45.129
285.595
-22.3149
170.822
230.62
80.6153
197.728
175.843
-0.197441
82.1333
121.923
-13.0766
21.2442
163.66
-99.7649
4.06834
180.965
-68.5734
-30.4294
237.361
-102.558
-8.56121
263.36
-54.2055
-25.7049
286.326
-59.154
3.78123
293.35
-40.8742
-6.61885
285.349
-59.6473
13.5842
261.46
-64.8818
9.14492
231.27
-86.547
27.6016
208.786
-92.4089
41.779
195.948
-78.1128
76.9287
190.105
-60.7333
85.6523
197.977
6.86664
83.5352
53.842
56.5664
-808.704
-468.071
-250.19
-501.204
-486.141
-1093.98
-388.763
-162.445
-110.581
-225.268
-53.5063
36.9792
-134.256
-66.6643
-50.0041
-128.417
-46.5904
45.9054
9.96893
-226.247
-18.3598
41.7478
-109.157
7.97684
178.619
-214.04
-22.8328
210.659
-92.7217
-24.7757
245.818
-106.696
5.99549
245.309
-49.3864
0.261976
231.463
-58.5366
39.2769
200.937
-41.9277
57.2609
172.334
-49.1306
90.7253
144.961
-47.6273
87.6043
121.5
-32.5267
62.5763
95.5456
-17.8864
29.148
89.7867
26.3186
23.3783
48.9676
29.9761
1450.58
-444.594
-411.229
409.308
250.101
305.444
36.2022
241.157
168.832
-32.3508
52.0191
158.727
-61.8527
20.7513
83.0574
-112.215
6.1302
66.7835
-29.9139
-267.794
31.0091
-31.2893
-94.0699
44.615
66.6804
-289.331
55.9548
94.9114
-103.26
25.0077
138.186
-142.391
51.1574
141.268
-55.8113
53.0512
142.336
-72.2501
92.7026
132.56
-40.6016
97.8381
126.453
-50.114
96.673
118.071
-43.9872
80.0495
119.829
-34.1956
56.3421
124.18
-19.7865
30.7849
140.39
13.5031
14.9444
39.1746
12.2025
-498.838
463.466
1324.57
-307.062
297.034
353.471
-188.607
287.352
124.193
-130.081
-14.6094
189.198
-101.541
41.29
-16.8989
-148.363
30.1313
39.0222
-43.7763
-316.182
94.8363
-99.934
-5.56442
114.021
-31.1059
-303.865
105.4
-43.9406
-64.3517
3.91045
-32.5203
-150.641
30.811
-32.8714
-55.6563
27.0762
-8.67314
-99.1808
69.4717
10.6071
-59.489
66.5866
48.5298
-76.5315
70.8364
81.0112
-71.9353
69.4168
100.247
-50.2423
48.0596
111.585
-28.1351
27.5603
126.367
-0.26188
12.8718
23.6974
7.89542
244.629
2171.81
2382.84
-443.866
220.863
19.8537
-396.957
123.72
-59.7965
-211.637
-181.686
146.819
-85.3013
-76.4432
-54.9482
-186.031
117.101
78.3823
-179.184
-51.3058
27.6989
-94.8252
-56.5202
-94.9933
-242.275
12.612
121.977
26.0438
22.8769
29.7654
-200.865
-52.7068
69.2498
-93.5882
-53.9635
-91.245
-213.356
-17.5777
-42.5585
-0.810359
-20.5913
-5.57831
-170.805
-32.1327
-51.4016
-60.5413
-34.2442
-57.6642
-140.363
-29.6129
46.111
-24.399
-25.4507
-22.1651
-87.7303
-36.9435
57.2114
-45.6789
-33.2753
-40.9861
-47.7259
-27.7552
78.3394
-26.5964
-21.6177
-19.4714
7.09509
-124.941
75.3298
62.5418
-124.336
71.0647
105.367
-102.33
56.5631
132.064
-63.9433
38.361
155.673
-29.0014
21.3321
3.17793
10.9134
18.9183
919.364
1152.8
-177.548
-27.4732
82.318
-106.83
-46.4827
-406.809
-33.461
-288.705
119.289
132.002
-223.933
-96.6916
19.0282
25.697
63.3558
18.9014
3.47936
4.08601
62.3339
32.0501
65.8065
0.695124
-8.34575
-20.2272
-4.39978
-3.7371
38.5607
-32.2669
-0.928953
10.9842
-53.0808
17.9012
-35.2206
-27.5758
45.2693
-34.2634
54.2048
-42.7898
-22.2363
27.5071
16.8984
25.4705
-28.1491
-24.258
-22.0943
0.929841
27.9213
-22.2823
-34.7802
-1.40148
-8.08337
7.74952
-8.65895
-41.075
13.1243
-21.5906
1.65432
1.72192
-35.8513
26.3105
102.993
-50.1923
78.2699
-15.2855
-12.366
-7.93608
-4.11476
-54.8254
-38.8653
-38.623
149.65
-168.012
109.968
167.896
-119.433
83.4609
175.419
-78.8705
55.0827
180.131
-43.9157
43.5528
-13.7357
32.4836
2141.63
-956.244
244.835
414.62
-86.2712
-18.038
67.2397
-163.203
-22.6269
-104.493
-205.164
20.5405
-13.9064
-255.708
-112.063
-16.6722
-26.3651
-26.0993
23.6278
5.87674
-3.96004
-13.7538
1.34226
1.28523
-13.9862
12.7189
1.07546
-2.43567
6.63283
-12.4084
3.95884
13.5991
-5.04383
-6.73851
-2.41031
-18.4214
4.66784
18.3126
-4.21534
2.0666
-18.6588
-16.1542
5.91727
13.541
-4.69754
20.0522
-6.08195
-10.9069
7.40837
10.4123
-7.09775
6.26588
16.0424
-9.05378
8.3467
7.46245
-6.61571
-16.1821
12.369
-5.16669
11.4174
3.0147
-10.1975
-11.4369
5.99879
-0.749239
12.2004
0.272669
-11.8537
-5.86896
-4.84672
31.1081
22.826
-61.5434
-22.9733
-6.14164
-3.6924
-4.92893
166.206
-226.331
47.8478
-32.6121
-40.3486
-22.4476
-29.8445
196.779
-141.76
67.8092
207.193
-85.6656
45.017
214.051
-52.1301
34.804
-22.6756
26.8669
-88.1429
-1430.03
3434.13
351.66
-301.919
-747.226
352.324
-276.348
-329.561
336.2
-175.948
-88.8706
79.0093
-224.428
-97.6163
93.3319
61.8911
75.7069
20.9671
31.0588
96.5796
-46.4501
-23.1462
2.44962
7.84261
-25.1356
27.336
-9.97111
-2.5215
10.1558