/*--------------------------------*- C++ -*----------------------------------*\
  =========                 |
  \\      /  F ield         | OpenFOAM: The Open Source CFD Toolbox
   \\    /   O peration     | Website:  https://openfoam.org
    \\  /    A nd           | Version:  10
     \\/     M anipulation  |
\*---------------------------------------------------------------------------*/
FoamFile
{
    format      ascii;
    class       volScalarField;
    location    "1.4";
    object      turbidity_0;
}
// * * * * * * * * * * * * * * * * * * * * * * * * * * * * * * * * * * * * * //

dimensions      [0 0 0 0 0 0 0];

internalField   nonuniform List<scalar> 
12920
(
-0.0377914
-0.0360063
-0.04837
-0.0922761
-0.1385
-0.176478
-0.204002
-0.230224
-0.254557
-0.272556
-0.28041
-0.269056
-0.248654
-0.223155
-0.199261
-0.177089
-0.167914
-0.177001
-0.201313
-0.219417
-0.0892229
-0.0555369
-0.0666695
-0.107083
-0.131811
-0.155199
-0.184235
-0.215017
-0.247448
-0.266981
-0.27377
-0.263484
-0.247272
-0.228482
-0.212554
-0.209699
-0.223933
-0.241954
-0.259544
-0.279411
-0.0578587
-0.06981
-0.0841009
-0.109315
-0.131011
-0.153316
-0.189178
-0.219388
-0.253997
-0.275254
-0.292905
-0.300785
-0.303556
-0.302366
-0.305017
-0.312348
-0.327303
-0.350041
-0.370482
-0.396918
-0.0915592
-0.064602
-0.0768822
-0.118012
-0.16323
-0.207034
-0.249852
-0.286447
-0.324025
-0.340515
-0.357455
-0.367053
-0.377132
-0.387063
-0.405725
-0.43779
-0.475732
-0.511831
-0.529114
-0.550901
-0.066262
-0.0965761
-0.0960209
-0.118635
-0.157312
-0.207649
-0.245693
-0.304395
-0.348774
-0.39867
-0.431569
-0.447803
-0.467736
-0.492248
-0.528355
-0.566143
-0.596337
-0.618992
-0.6313
-0.643277
-0.00955317
-0.0261672
-0.0536551
-0.0870431
-0.108949
-0.136334
-0.18029
-0.242234
-0.29721
-0.375686
-0.425355
-0.477845
-0.50946
-0.54896
-0.579854
-0.608224
-0.635941
-0.65737
-0.670098
-0.677253
-0.0207421
-0.0711124
-0.0914271
-0.126284
-0.152493
-0.184891
-0.207266
-0.247528
-0.257594
-0.355425
-0.352308
-0.383161
-0.351123
-0.38189
-0.400001
-0.439694
-0.497959
-0.55964
-0.611491
-0.645318
-0.0423034
-0.0697467
-0.0807631
-0.114246
-0.135092
-0.163866
-0.161079
-0.151583
-0.153269
-0.230762
-0.238562
-0.129151
-0.0997127
-0.100736
-0.128218
-0.174831
-0.230115
-0.29501
-0.362967
-0.42902
-0.0702669
-0.0459379
-0.0593845
-0.0868703
-0.103084
-0.101613
-0.112173
-0.101162
-0.0984422
-0.129911
-0.139437
-0.0923459
-0.0602268
-0.08175
-0.0904842
-0.128302
-0.164504
-0.205054
-0.252048
-0.303194
-0.0342947
-0.0495826
-0.0647122
-0.0857186
-0.102624
-0.0995469
-0.0917788
-0.0782202
-0.0678417
-0.0654373
-0.102541
-0.107538
-0.0670538
-0.08454
-0.107257
-0.134702
-0.164764
-0.200001
-0.242404
-0.290151
-0.0171488
-0.0428571
-0.0614407
-0.0776034
-0.0932569
-0.0902983
-0.0879458
-0.0833736
-0.0779979
-0.0714285
-0.0850248
-0.127698
-0.131325
-0.108032
-0.11474
-0.136677
-0.166613
-0.20391
-0.247457
-0.294871
-0.0171499
-0.0373549
-0.0485842
-0.0625971
-0.0808589
-0.0843933
-0.0893369
-0.0954235
-0.100213
-0.091078
-0.0897201
-0.12063
-0.13836
-0.137861
-0.13087
-0.158336
-0.199106
-0.245627
-0.295397
-0.343171
-0.0444896
-0.0358166
-0.0380942
-0.0513326
-0.0689149
-0.0911505
-0.0980855
-0.115505
-0.136539
-0.128357
-0.113857
-0.114265
-0.122982
-0.138598
-0.207203
-0.246843
-0.288243
-0.338325
-0.394843
-0.449543
-0.0161535
-0.0291805
-0.0418991
-0.0541757
-0.0691792
-0.0928677
-0.128837
-0.173636
-0.209897
-0.236712
-0.249211
-0.258659
-0.266034
-0.271019
-0.27879
-0.29531
-0.323401
-0.362785
-0.41713
-0.482665
-0.016311
-0.0251674
-0.0338421
-0.0464928
-0.0686025
-0.1104
-0.166628
-0.213449
-0.242816
-0.255893
-0.258504
-0.251731
-0.241455
-0.229939
-0.229759
-0.24894
-0.292917
-0.345373
-0.399026
-0.453192
-0.00721574
-0.0288837
-0.0492822
-0.069814
-0.0974972
-0.138973
-0.181661
-0.207844
-0.22822
-0.23387
-0.227298
-0.204688
-0.184948
-0.174314
-0.175886
-0.192986
-0.239197
-0.312212
-0.384028
-0.446174
-0.0243856
-0.0461412
-0.05814
-0.0805693
-0.10529
-0.132576
-0.156472
-0.172685
-0.195197
-0.216483
-0.232206
-0.223659
-0.20612
-0.202777
-0.214556
-0.244841
-0.293354
-0.350554
-0.406406
-0.463596
-0.0213494
-0.0332065
-0.0601246
-0.0914235
-0.116822
-0.135653
-0.150675
-0.160987
-0.176087
-0.191073
-0.212057
-0.234399
-0.256226
-0.278856
-0.305849
-0.339276
-0.377737
-0.423119
-0.47423
-0.531252
-0.013958
-0.031241
-0.0453715
-0.0637695
-0.0872113
-0.109875
-0.137189
-0.171351
-0.207248
-0.241976
-0.271761
-0.296573
-0.320503
-0.350903
-0.392862
-0.446792
-0.5021
-0.553787
-0.596369
-0.6316
-0.0173818
-0.0435253
-0.0571896
-0.0711702
-0.0864129
-0.105777
-0.130044
-0.160451
-0.194201
-0.2299
-0.267002
-0.308421
-0.356674
-0.415114
-0.481855
-0.547306
-0.599561
-0.636428
-0.659838
-0.674616
-0.033181
-0.0103766
-0.00801645
-0.0187186
-0.0388205
-0.0666884
-0.0932033
-0.107331
-0.112005
-0.101217
-0.0830005
-0.064264
-0.0499861
-0.039232
-0.0316925
-0.0269599
-0.0247467
-0.0253815
-0.0271945
-0.0266743
-0.0620814
-0.0299062
-0.0155986
-0.0222255
-0.0306335
-0.0390811
-0.0536227
-0.0585352
-0.0616036
-0.0553705
-0.0471943
-0.0389202
-0.0337022
-0.0327009
-0.0381713
-0.0527302
-0.0775677
-0.115548
-0.1436
-0.143336
-0.00559033
-0.0187254
-0.0276746
-0.0254315
-0.0270778
-0.0348729
-0.0524874
-0.0627922
-0.0730513
-0.0738802
-0.0736744
-0.0717772
-0.0761841
-0.0891313
-0.114194
-0.147136
-0.173933
-0.182705
-0.176523
-0.160342
-0.0336908
-0.0205888
-0.0158252
-0.0315123
-0.0542867
-0.0684116
-0.0975926
-0.104767
-0.120507
-0.120735
-0.125961
-0.129898
-0.148104
-0.175063
-0.205851
-0.219134
-0.209529
-0.184516
-0.163543
-0.141959
-0.0540823
-0.0558709
-0.0311422
-0.049508
-0.0786687
-0.0957228
-0.121116
-0.141124
-0.162503
-0.175101
-0.191133
-0.206612
-0.221649
-0.227316
-0.217901
-0.191003
-0.154288
-0.11796
-0.0953102
-0.0795937
-0.0231836
-0.0268764
-0.0296934
-0.0324769
-0.0495803
-0.0758571
-0.104717
-0.140648
-0.154012
-0.155926
-0.159255
-0.188778
-0.202541
-0.206235
-0.191084
-0.1669
-0.136462
-0.103563
-0.0728194
-0.0502632
-0.0136952
-0.0194986
-0.022538
-0.0364038
-0.048595
-0.0606464
-0.073276
-0.124769
-0.126663
-0.0685768
-0.0691556
-0.101218
-0.102601
-0.101008
-0.0913591
-0.0822433
-0.0663055
-0.0504127
-0.0367083
-0.0253307
-0.0359436
-0.0203175
-0.0166637
-0.0254477
-0.0264214
-0.0385297
-0.042302
-0.0705778
-0.113094
-0.0899511
-0.0579306
-0.0593729
-0.0592873
-0.0598852
-0.0572019
-0.0616018
-0.0564506
-0.0459563
-0.0374914
-0.0282585
-0.056251
-0.0248924
-0.0127464
-0.0154442
-0.019921
-0.0228969
-0.0287406
-0.0345252
-0.0608894
-0.0817036
-0.0842154
-0.0303311
-0.0215347
-0.0298738
-0.0440409
-0.0542546
-0.0506277
-0.0409112
-0.032362
-0.0251506
-0.013379
-0.0174285
-0.0174912
-0.0208433
-0.0275245
-0.0297228
-0.0292798
-0.0267276
-0.0287144
-0.0374282
-0.0597887
-0.06268
-0.0298162
-0.0250787
-0.0565201
-0.063972
-0.0502986
-0.0377956
-0.0297447
-0.0239749
-0.00970686
-0.0159642
-0.0143402
-0.0193541
-0.0269442
-0.0366449
-0.0521713
-0.0652374
-0.0696045
-0.0707182
-0.0721073
-0.0867579
-0.0816679
-0.052234
-0.106836
-0.0815269
-0.0557271
-0.0337906
-0.0227779
-0.0178781
-0.0107155
-0.0121239
-0.00654184
-0.00606477
-0.0086062
-0.0110537
-0.0152425
-0.0222232
-0.0320952
-0.0586303
-0.0774834
-0.0925717
-0.108425
-0.123089
-0.112174
-0.0759884
-0.05402
-0.0354828
-0.0245013
-0.0178784
-0.00189297
-0.00566607
-0.00563453
-0.00611434
-0.00813189
-0.0127405
-0.0144471
-0.0242066
-0.0400717
-0.0514524
-0.0662591
-0.0788091
-0.0905474
-0.102925
-0.114924
-0.121773
-0.120726
-0.10179
-0.0727244
-0.0446532
-0.00121904
-0.0110168
-0.0102119
-0.0103604
-0.0146985
-0.0226016
-0.0302102
-0.0495203
-0.073767
-0.0985235
-0.119987
-0.133685
-0.142344
-0.147019
-0.152177
-0.162094
-0.17341
-0.173451
-0.151587
-0.108313
-0.00254161
-0.00665138
-0.0110283
-0.0193572
-0.039539
-0.0571478
-0.0699646
-0.0699018
-0.0759608
-0.0779251
-0.0770596
-0.0676381
-0.0588774
-0.0575081
-0.0609102
-0.0669956
-0.075672
-0.082555
-0.0815562
-0.0757723
-0.00465004
-0.00767165
-0.0118158
-0.0220996
-0.0447351
-0.056051
-0.0593117
-0.0478425
-0.0401571
-0.0357829
-0.0351076
-0.0362066
-0.0380191
-0.0401444
-0.0432668
-0.0481598
-0.0564463
-0.0662945
-0.0803625
-0.0982833
-0.0019067
-0.00583772
-0.00988177
-0.0165164
-0.0256981
-0.0293281
-0.0323297
-0.0341729
-0.035285
-0.0335527
-0.0325591
-0.0327604
-0.0367885
-0.0447628
-0.0563147
-0.0690601
-0.0836421
-0.110732
-0.15427
-0.197054
-0.00525955
-0.0114705
-0.0212623
-0.0257709
-0.0296123
-0.0292951
-0.0340318
-0.0368974
-0.0393604
-0.0409607
-0.0482792
-0.0609167
-0.08347
-0.110166
-0.141789
-0.17531
-0.204465
-0.233035
-0.259102
-0.260916
-0.00444393
-0.00578075
-0.00984743
-0.0172406
-0.0319581
-0.0447272
-0.0593741
-0.064268
-0.0738306
-0.0837992
-0.102408
-0.127634
-0.161767
-0.196537
-0.227277
-0.241928
-0.237437
-0.217067
-0.186476
-0.143103
-0.016443
-0.0116178
-0.0154144
-0.017181
-0.028804
-0.0353421
-0.0425082
-0.0432136
-0.0488547
-0.0634792
-0.100371
-0.151727
-0.212002
-0.261782
-0.283983
-0.270468
-0.228306
-0.174753
-0.125909
-0.0842144
-0.0328841
-0.0110763
-0.00555963
-0.00975228
-0.0218079
-0.0400777
-0.0567413
-0.063791
-0.0633533
-0.0548849
-0.0450953
-0.0365868
-0.0304585
-0.0262053
-0.0236365
-0.0225512
-0.0236248
-0.0271476
-0.0272428
-0.0241604
-0.0515732
-0.0135116
-0.0111296
-0.0152563
-0.0204814
-0.0242193
-0.0286589
-0.0288984
-0.0288083
-0.0277489
-0.0276006
-0.0279801
-0.0297543
-0.0319524
-0.0355009
-0.040813
-0.0513996
-0.0689389
-0.0822831
-0.0697249
-0.0032132
-0.0121349
-0.0134998
-0.0132743
-0.0164218
-0.0206791
-0.0287884
-0.032005
-0.0365841
-0.0383357
-0.0416285
-0.0446987
-0.0501262
-0.0563559
-0.0655837
-0.074905
-0.0825103
-0.0769132
-0.0646368
-0.0478033
-0.0206908
-0.0105429
-0.011144
-0.0186539
-0.0279144
-0.0347624
-0.0501012
-0.0513758
-0.0580423
-0.0579952
-0.0628114
-0.0666636
-0.0760083
-0.084975
-0.0927021
-0.0855502
-0.0675213
-0.0470359
-0.0348445
-0.0257896
-0.0129509
-0.0176272
-0.0151502
-0.0351258
-0.0460923
-0.0528969
-0.0679229
-0.0741614
-0.0811958
-0.0833863
-0.0910237
-0.101512
-0.107979
-0.103896
-0.0870449
-0.0632931
-0.0402816
-0.0230483
-0.0140109
-0.00943087
-0.00871221
-0.0139582
-0.0147409
-0.0252737
-0.0398846
-0.0540978
-0.067986
-0.0829218
-0.0788795
-0.0636194
-0.0610035
-0.0721961
-0.0798038
-0.0780438
-0.0662741
-0.0494074
-0.0325317
-0.0188563
-0.00993026
-0.00520283
-0.00230188
-0.0141346
-0.0156187
-0.0237742
-0.030849
-0.0417549
-0.0515766
-0.078003
-0.0688671
-0.02937
-0.0235908
-0.032513
-0.0399528
-0.0412309
-0.0362341
-0.027663
-0.0173677
-0.00962086
-0.00491385
-0.0024219
-0.0174976
-0.0274279
-0.0167491
-0.0144783
-0.0183083
-0.027988
-0.0325163
-0.0669521
-0.0954956
-0.0491077
-0.0241679
-0.0293895
-0.0388404
-0.0478302
-0.0445521
-0.0386714
-0.0283503
-0.017834
-0.0104024
-0.00546267
-0.104736
-0.0429043
-0.0118489
-0.0104234
-0.0155998
-0.0211915
-0.0273464
-0.0386086
-0.0531522
-0.0726981
-0.0588243
-0.0212045
-0.0214046
-0.0316829
-0.0375165
-0.0337993
-0.0262345
-0.0172349
-0.010361
-0.00577675
-0.0112884
-0.0185939
-0.0152651
-0.0134473
-0.0150486
-0.0167545
-0.0199683
-0.0250411
-0.0331278
-0.0410123
-0.055952
-0.0571099
-0.0274141
-0.0296923
-0.0460769
-0.0426655
-0.0277321
-0.0163974
-0.00939756
-0.00524237
-0.007696
-0.0100638
-0.0110742
-0.0129403
-0.0156796
-0.0189291
-0.0259334
-0.033373
-0.0384071
-0.0493765
-0.0640442
-0.0797765
-0.0575919
-0.0435729
-0.0762237
-0.0604982
-0.0364557
-0.018329
-0.00869075
-0.00420571
-0.00451585
-0.00534906
-0.00444712
-0.00531078
-0.00783736
-0.00971184
-0.0123723
-0.0171743
-0.0272794
-0.044998
-0.0644274
-0.0797107
-0.0808925
-0.0837998
-0.0896603
-0.0549839
-0.0335523
-0.0177604
-0.00938604
-0.00518209
-0.001283
-0.0018869
-0.00315404
-0.00493035
-0.00732654
-0.0110971
-0.0123888
-0.0194188
-0.0289023
-0.0390255
-0.0493388
-0.055846
-0.0627993
-0.0715528
-0.0766353
-0.0718323
-0.0591408
-0.0415199
-0.0272496
-0.0171274
-0.00119512
-0.00512411
-0.00676801
-0.00903062
-0.0124612
-0.0167993
-0.0199281
-0.0299019
-0.0442561
-0.0615119
-0.0773309
-0.0895784
-0.0972282
-0.102088
-0.105444
-0.109482
-0.111571
-0.1025
-0.0785895
-0.0515865
-0.00186302
-0.00930993
-0.0144431
-0.018669
-0.0279931
-0.0317285
-0.0352969
-0.036726
-0.0432031
-0.0485297
-0.0548569
-0.0592267
-0.0645866
-0.0678759
-0.0699885
-0.0700497
-0.0673343
-0.0593079
-0.0517111
-0.0478945
-0.0030097
-0.00854823
-0.0151775
-0.0221741
-0.0328959
-0.0332444
-0.032229
-0.0301406
-0.0320832
-0.0345335
-0.0379471
-0.0394047
-0.0407877
-0.0409391
-0.0421275
-0.0450325
-0.0497456
-0.0571458
-0.0668787
-0.0759197
-0.00198909
-0.00449762
-0.00882389
-0.013358
-0.0182979
-0.0206203
-0.0231781
-0.0258523
-0.0282265
-0.030086
-0.0314343
-0.0334833
-0.0367226
-0.042745
-0.0526052
-0.0675762
-0.0861263
-0.106614
-0.126755
-0.139364
-0.00351431
-0.0078612
-0.00974407
-0.0122779
-0.0162125
-0.0191679
-0.0232094
-0.0263242
-0.0298208
-0.0345425
-0.042746
-0.0536175
-0.0644873
-0.0741858
-0.0867099
-0.104489
-0.123543
-0.138466
-0.145531
-0.12803
-0.0127116
-0.00664125
-0.00776693
-0.0127892
-0.0216685
-0.0278885
-0.035404
-0.0406052
-0.0518219
-0.0668598
-0.0866971
-0.105718
-0.122334
-0.129311
-0.126475
-0.111865
-0.0904417
-0.0671939
-0.0466747
-0.0298235
-0.015595
-0.0101984
-0.0114708
-0.0152613
-0.0215687
-0.0251524
-0.0288797
-0.0312726
-0.0389863
-0.055929
-0.0855149
-0.124921
-0.165895
-0.191321
-0.186533
-0.154003
-0.109339
-0.0690058
-0.0401162
-0.0216952
-0.0102817
-0.00664141
-0.00436992
-0.00704326
-0.0148084
-0.0263427
-0.0363613
-0.0391467
-0.0377811
-0.0326969
-0.0279629
-0.0241677
-0.021549
-0.019475
-0.0177039
-0.0162108
-0.0158118
-0.0169615
-0.0171864
-0.0158752
-0.0180816
-0.0212961
-0.0145724
-0.0143872
-0.0176615
-0.0196511
-0.0207793
-0.0208065
-0.0208983
-0.0208438
-0.0214912
-0.0220011
-0.0223436
-0.0215659
-0.0203897
-0.0193945
-0.0209192
-0.0275928
-0.03402
-0.0265008
-0.00474633
-0.00548223
-0.00713659
-0.0104795
-0.0138657
-0.016442
-0.019954
-0.021466
-0.0241349
-0.0256597
-0.0279735
-0.0291896
-0.0304368
-0.0297709
-0.0289779
-0.0275659
-0.026913
-0.0224153
-0.0175074
-0.0124353
-0.0199794
-0.00656339
-0.00807976
-0.0146625
-0.0183184
-0.0213264
-0.028337
-0.0278894
-0.0312762
-0.0317442
-0.0352451
-0.037218
-0.0397937
-0.0388341
-0.035109
-0.0262667
-0.0168077
-0.00967835
-0.00655193
-0.00491442
-0.00289696
-0.0098407
-0.0122311
-0.0241982
-0.0265401
-0.0316086
-0.0398353
-0.040414
-0.042009
-0.0439561
-0.0474265
-0.0513015
-0.0503907
-0.0434279
-0.0311921
-0.0189648
-0.00995985
-0.00478074
-0.00256354
-0.00166466
-0.00425845
-0.00726916
-0.0112011
-0.0211845
-0.0283488
-0.0358907
-0.0441585
-0.0444455
-0.0382691
-0.0293693
-0.0274356
-0.0286693
-0.0287072
-0.0248237
-0.0184063
-0.0117256
-0.00641983
-0.00310589
-0.00145299
-0.000730725
-0.0039962
-0.0111611
-0.0139753
-0.0201074
-0.0256559
-0.0337409
-0.0407507
-0.0439218
-0.0352185
-0.0188213
-0.0139496
-0.0141504
-0.0164278
-0.0152343
-0.0129103
-0.0090317
-0.00509772
-0.00244003
-0.00103229
-0.000420735
-0.00811368
-0.0120887
-0.0111
-0.012592
-0.0196744
-0.0274901
-0.0334368
-0.0558688
-0.0618871
-0.0329326
-0.0166077
-0.0262715
-0.0351086
-0.0403249
-0.0282786
-0.0204761
-0.0127339
-0.00696079
-0.00356498
-0.00164639
-0.024847
-0.0085176
-0.00642579
-0.00981415
-0.0186433
-0.0257698
-0.0307233
-0.0486657
-0.0686887
-0.080777
-0.038957
-0.0163301
-0.0230654
-0.0275078
-0.0250822
-0.0154904
-0.0105553
-0.00598037
-0.00312946
-0.00150722
-0.024617
-0.0122773
-0.00895974
-0.00962835
-0.0143507
-0.0186474
-0.0255141
-0.035733
-0.0495512
-0.054348
-0.0650492
-0.0391136
-0.020154
-0.0324151
-0.0383352
-0.0172201
-0.00950769
-0.00494908
-0.0025095
-0.00120283
-0.0118577
-0.00767818
-0.00753155
-0.00860741
-0.0126586
-0.015276
-0.0194378
-0.0254221
-0.0375952
-0.0510354
-0.0679522
-0.0614555
-0.0451899
-0.0404966
-0.0576976
-0.0277431
-0.0133118
-0.00576707
-0.00248923
-0.00107525
-0.00394636
-0.0057603
-0.00456062
-0.00580919
-0.00965734
-0.0121034
-0.0146649
-0.0195248
-0.0338025
-0.0524095
-0.0658184
-0.0697308
-0.0627006
-0.056173
-0.057954
-0.0261279
-0.0135566
-0.00661526
-0.00346294
-0.00188192
-0.000385637
-0.000837505
-0.00228191
-0.00476064
-0.00820937
-0.0128785
-0.0147036
-0.0207505
-0.0264927
-0.0331618
-0.0371992
-0.0399852
-0.0465374
-0.0528903
-0.0462772
-0.0366092
-0.026256
-0.0177553
-0.0117652
-0.00739229
-0.00163065
-0.00394509
-0.00659827
-0.00888051
-0.0120539
-0.0167253
-0.0201589
-0.0278388
-0.0367047
-0.0476961
-0.0573005
-0.0652695
-0.0697089
-0.0717529
-0.0707341
-0.0698687
-0.0668134
-0.0544107
-0.0368302
-0.022615
-0.0014702
-0.00695754
-0.0123395
-0.0168213
-0.0212324
-0.0236862
-0.0267327
-0.0304048
-0.0365744
-0.0422802
-0.0485415
-0.0520773
-0.0544856
-0.0538524
-0.0505221
-0.0440742
-0.0362353
-0.029478
-0.0265212
-0.0248471
-0.00266442
-0.00856744
-0.016097
-0.0214943
-0.0258095
-0.0254176
-0.0271337
-0.0292944
-0.0325126
-0.0341633
-0.0362959
-0.0359801
-0.0355444
-0.0330937
-0.030708
-0.0297452
-0.0317783
-0.0366396
-0.0422168
-0.0444831
-0.00184998
-0.00705844
-0.0131083
-0.0171488
-0.0191175
-0.0213267
-0.0251061
-0.0294088
-0.0325529
-0.0349481
-0.0353373
-0.034122
-0.03119
-0.0286602
-0.0287787
-0.0334075
-0.0425856
-0.0549283
-0.0691835
-0.0725097
-0.00407616
-0.010461
-0.0136096
-0.014838
-0.0176075
-0.0219944
-0.0271332
-0.0335291
-0.0400185
-0.0475513
-0.0530979
-0.0546783
-0.0513271
-0.0444074
-0.0380907
-0.0375871
-0.0452725
-0.0521183
-0.0538595
-0.0428937
-0.00290476
-0.00668312
-0.0121143
-0.0168342
-0.0217355
-0.0268382
-0.0335434
-0.0422395
-0.0532403
-0.0648122
-0.0764233
-0.0844195
-0.0862853
-0.0784525
-0.0631693
-0.0444755
-0.0278965
-0.0161536
-0.00921018
-0.00539588
-0.0209066
-0.0138192
-0.0159068
-0.0188963
-0.0218071
-0.0231496
-0.025347
-0.0291314
-0.037783
-0.0528922
-0.0758271
-0.103312
-0.127631
-0.136547
-0.122813
-0.092977
-0.0602263
-0.0346875
-0.0183911
-0.00917186
-0.00282403
-0.00357396
-0.00362603
-0.0075496
-0.012708
-0.0179111
-0.0218156
-0.0215945
-0.0203637
-0.0181867
-0.0167696
-0.015632
-0.0144614
-0.0132034
-0.0119445
-0.0108535
-0.0102012
-0.0101543
-0.0104703
-0.0105466
-0.014786
-0.0125023
-0.0108436
-0.0139035
-0.0156059
-0.0166569
-0.0172663
-0.017355
-0.0171212
-0.0163938
-0.0152534
-0.0137102
-0.0120023
-0.0102817
-0.00885185
-0.00796365
-0.0082194
-0.0099186
-0.0110006
-0.00859739
-0.00352571
-0.00366642
-0.00771388
-0.0120516
-0.0144815
-0.0161969
-0.0175501
-0.0181761
-0.018492
-0.0177863
-0.0168912
-0.0151554
-0.013526
-0.0113763
-0.00967058
-0.00806208
-0.00702946
-0.00578872
-0.00522843
-0.00440932
-0.00614957
-0.00446788
-0.00737432
-0.0126752
-0.0148983
-0.0164973
-0.0181363
-0.0184948
-0.0193467
-0.0188302
-0.0189129
-0.0177435
-0.016529
-0.0138493
-0.010576
-0.00699801
-0.00437147
-0.0028522
-0.00230315
-0.00192565
-0.00853811
-0.00443814
-0.0081528
-0.015664
-0.017547
-0.0198364
-0.021798
-0.0223589
-0.0221462
-0.0223543
-0.0221215
-0.0214616
-0.0187075
-0.0145198
-0.00943437
-0.00548077
-0.00305333
-0.00178076
-0.00119949
-0.000866677
-0.00421358
-0.00515691
-0.00898697
-0.0164992
-0.0199074
-0.022337
-0.0244832
-0.0218547
-0.0181378
-0.0156247
-0.0131464
-0.0116777
-0.00955438
-0.00701013
-0.00445888
-0.00259025
-0.00141809
-0.000784396
-0.000485869
-0.000320848
-0.0126763
-0.00873236
-0.0136561
-0.0190328
-0.021841
-0.0242235
-0.0251188
-0.0214178
-0.0158904
-0.0110203
-0.00690866
-0.00529734
-0.00390245
-0.00302076
-0.00230251
-0.00152036
-0.000826318
-0.000397514
-0.000191668
-0.000102449
-0.00508486
-0.00577026
-0.0104472
-0.0159382
-0.0210822
-0.0237192
-0.0273389
-0.0314583
-0.0284078
-0.0146405
-0.00894807
-0.010466
-0.0111823
-0.0117579
-0.00611502
-0.00397936
-0.00210912
-0.000994759
-0.000490064
-0.00020757
-0.00419033
-0.00400189
-0.00748227
-0.0155736
-0.0223428
-0.0248106
-0.0260374
-0.0430941
-0.0542985
-0.0389057
-0.0133272
-0.0108646
-0.0155772
-0.0128224
-0.00573616
-0.00231114
-0.00131883
-0.000568522
-0.000266311
-0.000111451
-0.0186889
-0.00682943
-0.00610255
-0.0123035
-0.0191559
-0.023815
-0.0292457
-0.0363293
-0.0526929
-0.058406
-0.0388816
-0.0121801
-0.00776089
-0.00980446
-0.0032397
-0.00119068
-0.000771073
-0.000361588
-0.000182973
-8.09686e-05
-0.00821533
-0.0104555
-0.00793784
-0.0111933
-0.0162101
-0.0192095
-0.0231855
-0.031672
-0.0423825
-0.0534503
-0.046375
-0.0306583
-0.0216509
-0.0330098
-0.0142101
-0.00173634
-0.000751183
-0.000298599
-0.000148641
-6.72655e-05
-0.00141355
-0.00436163
-0.00496055
-0.00907192
-0.0137601
-0.0166221
-0.0185921
-0.0224463
-0.0311691
-0.0383541
-0.039465
-0.0316584
-0.0294547
-0.0359007
-0.0160155
-0.00266862
-0.00132706
-0.000696841
-0.000445884
-0.000258406
-0.000958703
-0.00219693
-0.00409294
-0.0081642
-0.0128389
-0.0180759
-0.0195606
-0.0230067
-0.0245268
-0.0255587
-0.0295087
-0.0337369
-0.0341817
-0.0257385
-0.0136511
-0.00953291
-0.00656309
-0.00433172
-0.0028216
-0.00168668
-0.00229631
-0.00369548
-0.00681957
-0.0107337
-0.015418
-0.0206456
-0.0242706
-0.0292809
-0.0339585
-0.0387488
-0.0412985
-0.0419528
-0.0393495
-0.0367293
-0.0328903
-0.0301963
-0.0259335
-0.0182712
-0.010983
-0.00617472
-0.00156444
-0.00467008
-0.010354
-0.0167231
-0.0204626
-0.0234547
-0.0260972
-0.0279774
-0.0308752
-0.0304314
-0.0306045
-0.0275997
-0.0253151
-0.0216202
-0.0184978
-0.0150595
-0.0119157
-0.0090219
-0.00773221
-0.0068311
-0.00561915
-0.0124026
-0.0171448
-0.0205779
-0.0230735
-0.0245292
-0.0262165
-0.0276032
-0.0272848
-0.026298
-0.023663
-0.0206475
-0.0173239
-0.0143114
-0.0121238
-0.0108486
-0.0105059
-0.0109608
-0.0120447
-0.012457
-0.00492291
-0.00882511
-0.0147241
-0.0191454
-0.0230383
-0.0282631
-0.032037
-0.0361554
-0.0383177
-0.0397845
-0.0386582
-0.0355473
-0.0296134
-0.0227979
-0.0168714
-0.0134234
-0.0128488
-0.014522
-0.0185863
-0.0189844
-0.0131863
-0.013825
-0.015478
-0.0195212
-0.0251334
-0.0312795
-0.0364252
-0.041921
-0.0467554
-0.0509992
-0.0538099
-0.0534862
-0.0482714
-0.038501
-0.0270127
-0.017302
-0.0118755
-0.00993309
-0.00917396
-0.00670496
-0.00627952
-0.0116969
-0.0151523
-0.0212106
-0.0266305
-0.0315161
-0.0366437
-0.0417571
-0.0481033
-0.0546123
-0.0618538
-0.0671609
-0.0673157
-0.0596485
-0.0455235
-0.0297424
-0.0168117
-0.00859414
-0.00411757
-0.00194822
-0.00412617
-0.014153
-0.0176629
-0.0188227
-0.0205598
-0.0216624
-0.0248684
-0.0297308
-0.0376011
-0.0486591
-0.0634778
-0.0787954
-0.089145
-0.0880428
-0.0737
-0.0522971
-0.0320291
-0.0176253
-0.00902043
-0.0044065
-0.0512843
-0.0460759
-0.0574557
-0.0491103
-0.0579983
-0.0476469
-0.0598736
-0.0634284
-0.0612358
-0.0747061
-0.0619958
-0.0566555
-0.0653375
-0.0710487
-0.0607091
-0.0466319
-0.0607452
-0.0478975
-0.0606862
-0.0485352
-0.0615151
-0.0776741
-0.0649463
-0.0780238
-0.0661504
-0.0701482
-0.0658005
-0.0733862
-0.102745
-0.0878067
-0.079657
-0.0995763
-0.0790211
-0.0680234
-0.0476179
-0.0993329
-0.0772498
-0.0715415
-0.076035
-0.0825311
-0.043004
-0.0367533
-0.116768
-0.0705734
-0.0717296
-0.0862412
-0.0884779
-0.0368857
-0.0463694
-0.145748
-0.0752487
-0.10984
-0.0888786
-0.11501
-0.0532223
-0.0643985
-0.103122
-0.115154
-0.104292
-0.11882
-0.0676101
-0.0680317
-0.0688887
-0.0630086
-0.0960186
-0.0663126
-0.0514363
-0.026543
-0.0582744
-0.0302032
-0.0752537
-0.0589721
-0.0747851
-0.0245874
-0.0279091
-0.0256386
-0.0236578
-0.0895258
-0.0854535
-0.0996933
-0.0310746
-0.0408569
-0.0265729
-0.049089
-0.0814448
-0.0927089
-0.0858241
-0.0795312
-0.0537244
-0.0904829
-0.0846556
-0.0698382
-0.0836375
-0.0772662
-0.0468447
-0.03535
-0.0829625
-0.0780445
-0.0646502
-0.075267
-0.0698365
-0.034129
-0.036862
-0.0763408
-0.0719718
-0.0911264
-0.0685261
-0.0727135
-0.0410241
-0.0592272
-0.0708532
-0.069649
-0.113135
-0.0841798
-0.120164
-0.0635088
-0.0714785
-0.0706385
-0.0820644
-0.076282
-0.127154
-0.125262
-0.0644581
-0.0358325
-0.0854521
-0.0724117
-0.0733984
-0.116792
-0.0928936
-0.0298773
-0.0241059
-0.0637737
-0.0421756
-0.101929
-0.0932241
-0.108297
-0.0263452
-0.0530126
-0.0404655
-0.0842927
-0.0844872
-0.0887801
-0.0905358
-0.0857696
-0.0836138
-0.0827996
-0.0836552
-0.0795908
-0.0915849
-0.0942056
-0.0828751
-0.0804522
-0.083543
-0.0793721
-0.0728244
-0.0940453
-0.0894794
-0.0795075
-0.0765079
-0.0782905
-0.0804026
-0.0750684
-0.0863237
-0.0835068
-0.0754651
-0.0730749
-0.0814095
-0.079898
-0.119195
-0.089897
-0.115295
-0.0734187
-0.0844793
-0.0795442
-0.0883017
-0.136121
-0.123416
-0.139383
-0.0904604
-0.0963468
-0.0943198
-0.110991
-0.109055
-0.141786
-0.142434
-0.0917336
-0.0657803
-0.115529
-0.12603
-0.113698
-0.140506
-0.122266
-0.0618011
-0.10244
-0.129909
-0.129076
-0.093576
-0.0941658
-0.103022
-0.0799405
-0.0829475
-0.0864032
-0.0940724
-0.0999821
-0.108307
-0.120569
-0.082485
-0.0724114
-0.0968027
-0.0923986
-0.095077
-0.124838
-0.121989
-0.0699727
-0.0764741
-0.0906408
-0.081125
-0.0847889
-0.115964
-0.0942305
-0.0799791
-0.0820576
-0.0793339
-0.0830039
-0.113208
-0.0914861
-0.0969988
-0.082231
-0.0913924
-0.0853008
-0.0937835
-0.135795
-0.101431
-0.115785
-0.0969342
-0.111612
-0.0974071
-0.108088
-0.140269
-0.119306
-0.124297
-0.11552
-0.126264
-0.111187
-0.118989
-0.127097
-0.126567
-0.142292
-0.129861
-0.128
-0.120814
-0.123869
-0.0320963
-0.0245582
-0.0266965
-0.0296248
-0.0344414
-0.0249197
-0.0276508
-0.0503308
-0.0276142
-0.0307128
-0.0374774
-0.0475945
-0.0288933
-0.0334821
-0.0790992
-0.0320331
-0.040479
-0.0511712
-0.0645425
-0.0349898
-0.039809
-0.0960173
-0.0465837
-0.05966
-0.0711085
-0.0763415
-0.0423832
-0.0535326
-0.0378418
-0.0639572
-0.0659484
-0.0628018
-0.02753
-0.058719
-0.0607638
-0.0216277
-0.0561742
-0.0292421
-0.022403
-0.0196986
-0.0511661
-0.026333
-0.0267035
-0.025019
-0.0233821
-0.0210635
-0.0286895
-0.0235526
-0.0260966
-0.03863
-0.0252211
-0.0405666
-0.0313905
-0.0367014
-0.0283497
-0.0364165
-0.0270048
-0.053815
-0.0634566
-0.0266549
-0.0252438
-0.0338903
-0.03702
-0.0277599
-0.0644903
-0.0636992
-0.0257052
-0.0296225
-0.0378655
-0.0395829
-0.0338713
-0.0623854
-0.0598008
-0.0313858
-0.0371451
-0.04019
-0.0447702
-0.0549018
-0.0607962
-0.0670218
-0.0395843
-0.0507521
-0.0477356
-0.0589493
-0.068677
-0.0685241
-0.0789036
-0.0555731
-0.0644475
-0.0621887
-0.0752224
-0.0356183
-0.0815762
-0.0656069
-0.058928
-0.0333783
-0.0770622
-0.0601819
-0.0240535
-0.0569665
-0.0386842
-0.0285421
-0.0267496
-0.0524773
-0.0388688
-0.0427681
-0.0362567
-0.0696055
-0.0282185
-0.0357078
-0.0374999
-0.0486413
-0.063096
-0.025169
-0.0292811
-0.034996
-0.0386509
-0.0227326
-0.0238112
-0.0691476
-0.0315794
-0.0383654
-0.0397657
-0.0428913
-0.0248191
-0.0296683
-0.0702816
-0.0417486
-0.0596314
-0.0439102
-0.0493574
-0.0322443
-0.0438389
-0.0717463
-0.0667829
-0.0758759
-0.0526742
-0.0633227
-0.0489378
-0.0630152
-0.0816647
-0.0764995
-0.0851129
-0.0658385
-0.0786593
-0.0666527
-0.0792828
-0.0876762
-0.0904702
-0.105096
-0.0821364
-0.0725294
-0.0834027
-0.0890216
-0.0565366
-0.108947
-0.117588
-0.0645562
-0.0458952
-0.0887547
-0.0865781
-0.0903432
-0.122014
-0.127432
-0.0435445
-0.0620996
-0.0895259
-0.110494
-0.0203991
-0.0137621
-0.0174637
-0.0147701
-0.0190722
-0.0137153
-0.0172734
-0.0290018
-0.0208453
-0.03063
-0.0205005
-0.0261239
-0.0201422
-0.0273939
-0.0491372
-0.0350438
-0.044786
-0.0289675
-0.0411507
-0.0303555
-0.0392641
-0.0753737
-0.0492309
-0.0655085
-0.0462557
-0.0615908
-0.0432959
-0.0548623
-0.0875535
-0.0706661
-0.0841133
-0.0659975
-0.0785995
-0.0580648
-0.0659813
-0.105341
-0.087661
-0.0944947
-0.0823203
-0.0875049
-0.0676549
-0.0702727
-0.118185
-0.0958803
-0.104143
-0.0875545
-0.0895502
-0.070664
-0.0752112
-0.125833
-0.107708
-0.109066
-0.0944994
-0.11005
-0.077895
-0.0829022
-0.0348381
-0.0241877
-0.0281646
-0.0293269
-0.0408636
-0.0273419
-0.0342135
-0.0498409
-0.0298865
-0.0357532
-0.0465274
-0.0619001
-0.0373686
-0.0475854
-0.0657447
-0.0373607
-0.0413325
-0.0655115
-0.0787478
-0.049723
-0.0517948
-0.0729478
-0.0434287
-0.0538823
-0.0825515
-0.0585666
-0.0531009
-0.0622211
-0.0257824
-0.0590784
-0.0587352
-0.0448169
-0.0199925
-0.06554
-0.0472678
-0.0196912
-0.0484331
-0.0248196
-0.017512
-0.0203506
-0.035373
-0.019107
-0.0292651
-0.0227072
-0.0270773
-0.0225659
-0.0279057
-0.01912
-0.0277991
-0.0360475
-0.0297612
-0.0377902
-0.0291212
-0.0305451
-0.0313001
-0.0382421
-0.0234836
-0.0251767
-0.0309005
-0.0214151
-0.0285551
-0.0203008
-0.0239684
-0.0310635
-0.0320991
-0.0346288
-0.0317075
-0.0420373
-0.0253353
-0.0317465
-0.0387311
-0.0355515
-0.0418219
-0.044563
-0.0477381
-0.0348819
-0.0439738
-0.0454815
-0.0438002
-0.0409767
-0.0429716
-0.0440985
-0.0454827
-0.0425814
-0.0619935
-0.0609135
-0.0561975
-0.0571619
-0.0609897
-0.061798
-0.0573345
-0.0315723
-0.0757457
-0.0571078
-0.0456723
-0.0239037
-0.0661877
-0.0464295
-0.0276278
-0.0499489
-0.0389663
-0.0222612
-0.0288937
-0.0418938
-0.0369307
-0.0373733
-0.0384022
-0.0476502
-0.0326535
-0.0418774
-0.0384401
-0.0492505
-0.0319145
-0.0160242
-0.0185511
-0.0205409
-0.023978
-0.0158619
-0.0185624
-0.0371357
-0.019901
-0.0263146
-0.0253277
-0.0309284
-0.0202339
-0.0284658
-0.0451219
-0.0294161
-0.0417299
-0.0337204
-0.043538
-0.0322192
-0.0443917
-0.0520062
-0.053468
-0.0500839
-0.046619
-0.0544945
-0.0514537
-0.0474243
-0.0691455
-0.0680728
-0.0652424
-0.0632344
-0.0692423
-0.0679496
-0.0643064
-0.0653212
-0.0812302
-0.0825094
-0.0661561
-0.0518282
-0.07369
-0.0697818
-0.0447048
-0.0805462
-0.0757942
-0.048324
-0.0418221
-0.0672763
-0.0594654
-0.0579045
-0.0783693
-0.100854
-0.0425168
-0.0538281
-0.0592516
-0.0716579
-0.0156677
-0.0119444
-0.0150864
-0.0129099
-0.0167579
-0.0123346
-0.0161215
-0.0240107
-0.01757
-0.0244944
-0.0185625
-0.0271277
-0.0185145
-0.0247272
-0.0400095
-0.0274094
-0.0376559
-0.0311889
-0.0447159
-0.02747
-0.038847
-0.0599079
-0.0418975
-0.053488
-0.0491643
-0.0617083
-0.0429843
-0.052811
-0.0767398
-0.056635
-0.0638595
-0.0654166
-0.0721633
-0.0547429
-0.0573124
-0.0819818
-0.0651518
-0.0666904
-0.0727483
-0.0698888
-0.0569731
-0.0551673
-0.0798136
-0.0667505
-0.0699973
-0.0677289
-0.0622182
-0.0545578
-0.0560542
-0.101151
-0.0721849
-0.0757628
-0.0629242
-0.0731664
-0.0575682
-0.0611723
-0.042536
-0.0310879
-0.037286
-0.0304407
-0.0422555
-0.0325082
-0.0385854
-0.0648609
-0.0405189
-0.0521047
-0.0484328
-0.0616422