/*--------------------------------*- C++ -*----------------------------------*\
  =========                 |
  \\      /  F ield         | OpenFOAM: The Open Source CFD Toolbox
   \\    /   O peration     | Website:  https://openfoam.org
    \\  /    A nd           | Version:  10
     \\/     M anipulation  |
\*---------------------------------------------------------------------------*/
FoamFile
{
    format      ascii;
    class       volVectorField;
    location    "1.4";
    object      U_0;
}
// * * * * * * * * * * * * * * * * * * * * * * * * * * * * * * * * * * * * * //

dimensions      [0 1 -1 0 0 0 0];

internalField   nonuniform List<vector> 
12920
(
(62.1604 133.201 229.574)
(-85.0522 60.291 -9.19179)
(74.8547 69.5841 -17.5976)
(-17.0347 22.4591 -5.67131)
(60.1319 12.2807 -3.50425)
(14.5528 -5.53592 0.698184)
(49.6247 -9.86519 2.93307)
(29.0437 -12.8394 2.74788)
(49.5079 -11.8984 2.62732)
(42.1884 -9.55801 1.45148)
(54.1586 -7.25313 0.694372)
(53.0275 -3.86906 -0.561017)
(60.3979 -2.11224 -1.10766)
(61.7474 1.89725 -2.51411)
(66.8999 2.52052 -3.43704)
(71.3702 4.31387 -5.47553)
(83.2021 6.67052 -4.63536)
(87.7428 8.96416 -2.49205)
(88.5431 10.5534 -0.837968)
(65.4851 11.8656 -1.76444)
(-43.0048 -115.306 87.6824)
(-238.969 -3.03232 -67.2134)
(66.7126 22.4609 -23.2297)
(-50.8993 18.2219 -3.61298)
(55.8593 -1.67547 -3.03958)
(4.11968 -6.07438 -1.04604)
(46.2368 -14.4182 0.392269)
(21.1536 -14.6669 -0.348778)
(41.9832 -13.5747 0.267982)
(30.2688 -8.92683 -0.443021)
(41.4649 -3.67704 -0.628623)
(37.5127 1.7688 -1.40741)
(44.9103 5.90484 -1.89269)
(46.5156 10.2811 -3.08404)
(54.4082 12.6145 -4.63362)
(63.3569 14.1359 -4.73447)
(76.8819 13.7086 -1.00325)
(78.0063 10.9705 1.6712)
(76.2973 11.4577 3.27048)
(52.378 11.0632 2.83737)
(54.002 -324.26 -89.7461)
(-118.87 32.8201 -13.3487)
(88.2983 18.473 -27.5677)
(14.2966 17.7719 -9.7043)
(64.5675 -5.71009 -3.55707)
(18.1802 -8.54721 -1.54497)
(45.6094 -16.0636 -0.453531)
(22.1405 -14.7273 -1.49981)
(41.3311 -16.5024 -0.837347)
(31.5335 -9.88571 -1.29254)
(42.4325 -7.33506 -1.14761)
(38.5908 0.0347321 -1.34628)
(45.2718 2.17616 -1.55851)
(46.4547 8.33846 -1.60951)
(53.1156 9.31795 -1.15895)
(56.2308 6.45098 0.369352)
(56.8898 1.51661 2.35316)
(48.4068 -1.97486 2.91923)
(44.1632 4.94216 2.6503)
(31.3152 9.98256 1.80328)
(-201.557 -61.2341 90.5882)
(-196.674 -32.531 -22.7781)
(25.4042 12.4235 -4.26808)
(-58.9922 16.2485 1.33553)
(37.6019 9.49927 0.984662)
(-27.117 2.34854 0.936766)
(29.7774 -10.8906 0.822237)
(-2.0789 -12.4106 -0.0840465)
(27.7092 -14.4992 0.153808)
(18.8881 -8.02356 -0.749562)
(32.1582 -3.18396 -0.503338)
(28.4114 2.058 -0.419073)
(32.4748 4.60772 0.273092)
(30.3209 5.98247 1.28252)
(30.1325 4.89519 2.86953)
(23.18 2.99043 3.39928)
(18.0219 3.89598 2.81302)
(10.775 4.01434 1.82306)
(9.10807 7.82832 1.64489)
(5.79934 8.57746 1.35011)
(162.22 -63.7847 3.74353)
(29.2415 -81.0008 -5.99502)
(104.946 -39.3831 0.943381)
(22.8563 -17.6203 1.88767)
(62.9077 -21.3611 3.07464)
(0.645496 -12.3721 1.30841)
(34.0899 -34.6589 2.74036)
(-9.49994 -18.3541 1.46131)
(15.5377 -34.3351 2.13544)
(-1.59036 -12.3662 1.65813)
(13.6481 -11.929 1.89241)
(6.50369 1.3089 1.80911)
(12.4497 -0.356468 2.13466)
(7.56011 3.02812 2.32048)
(9.31191 0.125564 2.11423)
(5.05759 -0.534473 1.58047)
(5.56621 -1.72802 1.00747)
(4.26046 -1.75197 0.588947)
(6.32366 0.774973 0.496289)
(6.10164 4.50098 0.464249)
(316.654 -140.905 232.382)
(152.669 -28.9702 16.0574)
(131.354 30.4085 16.5941)
(33.1625 12.3151 2.6986)
(78.2348 16.0327 -0.196953)
(33.1564 6.90907 -1.06845)
(52.0154 -11.6615 4.51373)
(11.7557 -10.789 3.43762)
(11.0949 -31.6743 3.92384)
(-6.72031 -19.2494 2.51532)
(-1.41792 -18.3045 1.83854)
(-4.29691 -7.97351 1.59677)
(-1.80016 -6.94554 1.5225)
(-1.31975 -3.98674 1.2019)
(-0.82768 -4.2287 0.950069)
(0.254068 -3.64183 0.793292)
(1.95839 -1.9765 0.577029)
(2.50398 -0.109277 0.452888)
(3.95913 2.31419 0.296435)
(3.84414 3.63068 0.183898)
(26.522 -139.675 113.434)
(-140.472 23.0778 4.1862)
(47.0314 34.7836 -2.413)
(-71.1545 -9.34637 2.44134)
(51.0928 3.28844 0.109385)
(-20.93 5.44495 0.276071)
(24.7558 -35.3503 1.82297)
(-19.5244 -1.20978 2.10918)
(-7.1746 -41.6978 2.27745)
(-40.7391 -10.6538 0.616484)
(-23.9334 -23.3232 0.638018)
(-31.1117 -7.22745 1.42938)
(-14.9257 -15.4318 1.49183)
(-15.6139 -8.61754 0.819714)
(-6.87814 -11.0933 0.241451)
(-4.73848 -11.1858 0.204774)
(0.937128 -9.55476 0.163865)
(3.14796 -6.46594 0.143206)
(6.70993 -2.92066 0.105727)
(7.18363 0.723668 0.0567501)
(-101.326 84.6602 119.75)
(-230.651 -26.5971 -30.576)
(56.5213 9.55502 -7.21636)
(-48.6366 -34.7472 1.65017)
(62.8799 -27.43 1.79354)
(10.635 14.6522 0.94241)
(41.4708 0.476758 -1.19441)
(10.9895 -5.78206 0.20419)
(12.2745 -10.5028 2.2887)
(-30.0667 -11.6283 0.572767)
(-14.6307 -10.1915 0.463785)
(-22.0452 -19.5316 1.03708)
(-7.57076 -19.8443 0.321937)
(-6.0925 -15.3921 1.98198)
(3.2976 -22.1466 0.949558)
(7.36796 -19.0371 0.574707)
(8.27079 -13.4441 0.249622)
(9.18519 -7.38729 0.190768)
(9.88178 -3.56221 0.223945)
(8.58847 -0.428271 0.210022)
(-165.131 -112.786 31.4501)
(-217.02 -52.1208 -32.5873)
(59.4331 -43.9303 -5.70605)
(-50.2779 -40.5683 0.529116)
(51.0259 -39.5223 0.605553)
(-2.10722 -3.34951 -1.44943)
(45.3894 9.62232 -0.421951)
(51.4143 -5.7875 -0.709861)
(49.2896 -1.97205 3.72191)
(-8.35101 -6.22457 -1.68998)
(-0.170778 -11.4705 -0.535609)
(-3.07955 -18.3126 0.482876)
(2.72361 -16.4435 -1.1874)
(4.28847 -18.6476 0.779329)
(10.2839 -17.7922 1.18008)
(14.7811 -26.4065 1.41926)
(15.8956 -18.9012 0.687096)
(13.8597 -11.2595 0.26742)
(14.4794 -6.31683 0.197566)
(11.7256 -2.46238 0.202913)
(46.7591 -162.197 65.5358)
(-144.878 -68.2166 2.85796)
(63.9401 -61.7446 -6.48167)
(-4.90667 -40.1307 0.565473)
(80.0157 -42.0251 1.54909)
(51.1388 -23.4705 -1.073)
(61.6892 -10.4752 -1.31661)
(71.3845 -0.162235 -1.6009)
(84.4058 -0.251155 -2.03417)
(100.872 4.74016 0.278362)
(23.497 1.01341 -2.6404)
(19.042 0.782492 -0.255292)
(10.1602 0.969176 -1.26644)
(13.4106 -19.024 -0.0684501)
(15.2645 -27.1385 -1.57055)
(21.5728 -26.244 -0.376157)
(20.9778 -20.1992 -0.0925489)
(17.6185 -10.3155 0.027457)
(17.4005 -5.79054 0.130222)
(13.4947 -2.41891 0.187027)
(57.8625 -135.773 5.86861)
(-151.862 -122.882 5.83119)
(44.5848 -103.31 -0.650677)
(-36.7951 -71.2404 0.737939)
(60.5631 -69.841 1.79593)
(29.5994 -57.8528 2.34453)
(65.0837 -43.6128 2.9788)
(98.4481 -28.1339 2.33434)
(125.067 -13.8206 2.18917)
(144.545 -0.0201116 3.08937)
(51.9038 14.6755 1.04762)
(39.4347 27.4122 -1.20087)
(18.0928 2.45396 0.569226)
(25.7432 5.27461 -2.87305)
(13.3551 -27.9944 1.08782)
(22.72 -23.331 -2.57305)
(20.6594 -13.6334 -0.623297)
(18.2669 -8.70888 -0.198802)
(18.5298 -5.78494 0.0315659)
(14.8517 -3.30556 0.136777)
(200.104 -153.636 112.329)
(-39.4849 -145.683 17.2293)
(83.6717 -146.641 -9.15843)
(-1.77369 -85.7123 -5.2204)
(71.186 -85.5781 -3.0113)
(35.6055 -76.8886 -1.91513)
(56.792 -73.1966 -0.611835)
(63.5648 -64.9872 -0.910988)
(69.228 -57.3909 -1.28361)
(81.4059 -34.8256 1.6339)
(42.9097 16.7878 1.53029)
(53.1147 29.0843 0.828467)
(53.9499 10.3414 -0.429624)
(47.1744 1.52603 1.61571)
(14.1881 -33.3923 0.12305)
(22.5934 -14.7165 -1.46898)
(19.9182 -10.7817 -0.274591)
(16.8441 -6.62259 0.0100275)
(18.1849 -5.03146 0.110403)
(15.7854 -3.0342 0.0974785)
(95.0618 -223.85 -206.057)
(-66.2421 -129.447 -28.8562)
(98.447 -98.1406 -27.6977)
(42.7842 -70.7811 -11.5994)
(92.2113 -70.9363 -6.39491)
(58.548 -77.1862 -4.66673)
(74.7153 -61.5313 -3.1009)
(48.1246 -46.9461 -0.0314691)
(39.6082 -42.3969 -0.564619)
(33.0023 -24.7057 -1.65123)
(53.5604 3.70587 0.0524387)
(58.8538 9.95551 0.588823)
(66.0412 7.13531 1.71395)
(58.0557 -6.90871 2.66079)
(51.3569 -9.37277 0.836025)
(47.7216 -6.58082 2.01988)
(39.167 -5.92064 2.16858)
(29.4543 -6.79033 1.64109)
(25.3509 -7.46785 0.796529)
(18.7968 -4.55142 0.214583)
(364.363 -16.9412 -174.82)
(236.059 -81.5282 -36.5399)
(191.638 -78.2596 12.4546)
(100.479 -49.2884 2.32975)
(123.688 -47.4193 -0.973102)
(78.5624 -46.9489 -2.21679)
(77.4283 -30.0345 -0.210159)
(56.9292 -39.0435 1.06281)
(56.9389 -25.0019 1.9829)
(47.9225 -27.4762 2.73613)
(53.7795 -18.3582 4.05999)
(55.3579 -19.5225 4.6356)
(61.289 -17.9786 3.76112)
(63.668 -22.723 3.38025)
(66.8536 -21.5625 2.36273)
(67.4471 -19.1287 2.22623)
(69.095 -11.804 2.21896)
(60.7115 -6.41161 1.41225)
(47.1953 -2.94448 0.747699)
(30.1694 -1.56843 0.153866)
(149.793 -192.815 -56.5041)
(22.3731 -107.695 -16.8321)
(171.095 -74.0124 -20.3321)
(153.027 -48.4473 -14.6697)
(165.46 -32.9931 1.73614)
(99.8181 -30.8844 5.11688)
(82.1954 -22.9955 5.61847)
(51.7053 -31.1841 2.36884)
(53.6204 -29.8742 1.73602)
(44.0783 -33.4772 1.64669)
(46.111 -29.9389 1.74702)
(42.0512 -31.1476 1.08979)
(44.3869 -30.2651 -0.100772)
(43.2605 -29.5621 -1.15713)
(45.699 -28.6285 -1.79535)
(47.6652 -25.2124 -1.55518)
(50.2308 -14.3815 -0.715244)
(44.5307 3.90764 -0.471646)
(40.8794 10.8602 -0.614648)
(29.3944 6.52754 -0.888624)
(367.697 -123.937 56.8003)
(156.519 -81.4694 21.611)
(173.994 -55.9825 0.182659)
(117.098 -15.5483 -7.93208)
(128.849 1.15666 -0.777203)
(76.6327 -4.27273 1.65832)
(76.373 -11.3815 2.12048)
(50.5504 -27.7201 -0.361492)
(54.8919 -27.6674 -0.500064)
(40.3303 -31.88 -0.660698)
(40.913 -26.7911 -0.616621)
(31.0579 -25.054 -2.23971)
(33.1521 -18.7802 -3.2596)
(30.5559 -14.4226 -4.79313)
(35.1852 -11.1977 -5.5226)
(36.9089 -6.79414 -5.40725)
(42.5945 2.42108 -3.43274)
(42.7452 9.80828 -0.60416)
(45.6256 12.8891 -0.210781)
(39.223 10.5724 -0.660415)
(211.995 64.4032 -34.6079)
(58.0202 -36.5489 7.71746)
(156.804 -37.9741 -6.36917)
(105.443 -15.9552 3.01114)
(123.166 3.7424 2.01181)
(86.7859 -1.38817 0.507815)
(92.4766 -3.95394 -1.041)
(75.0443 -12.5854 -3.16238)
(76.5966 -14.1561 -2.92321)
(64.5877 -15.2434 -2.0498)
(59.0349 -10.1871 1.38879)
(41.7102 -6.25746 0.746739)
(40.2127 -4.08764 -1.4547)
(36.6787 -1.71033 -2.37143)
(39.2227 -0.783807 -2.98262)
(41.778 1.40783 -2.21388)
(46.7713 6.75938 -0.0191436)
(47.2131 10.7669 1.04954)
(49.1355 11.765 1.35882)
(42.0501 9.26315 1.26743)
(288.214 36.3547 -69.5855)
(148.439 14.7791 -5.7968)
(166.963 -1.11629 7.10765)
(73.3561 10.4038 7.20304)
(101.022 25.9877 4.64389)
(70.3621 15.163 1.05459)
(92.2867 10.2966 0.199856)
(82.9705 -2.11802 -1.02016)
(93.6032 -5.34271 -1.32944)
(87.1118 -8.0338 -1.96695)
(89.2312 -4.74994 -0.949078)
(81.5443 -2.33485 0.367821)
(77.5814 4.19449 2.22779)
(66.1566 6.6639 2.28029)
(62.0948 6.93856 2.27289)
(53.8576 5.08153 2.03866)
(50.2781 6.05777 1.67455)
(46.233 5.82287 1.58682)
(45.6199 6.17691 2.0267)
(36.2841 4.00435 1.33943)
(154.72 -93.298 -70.7594)
(67.1175 32.2955 -7.15777)
(135.061 13.9688 -7.82637)
(103.493 -4.39002 -2.95734)
(131.921 2.09749 1.67722)
(104.603 -5.48651 2.29454)
(109.235 -11.2334 3.72814)
(85.2699 -14.13 2.19524)
(84.4897 -11.9891 2.09933)
(70.8298 -7.03289 1.55358)
(70.9486 -1.8693 1.82538)
(63.5753 2.42784 1.75342)
(62.8343 3.8409 2.08535)
(56.6713 4.69722 2.15771)
(52.2815 3.09286 2.66677)
(41.5466 1.45335 2.51778)
(36.5736 2.06029 1.92617)
(30.4267 2.23882 1.48626)
(29.7847 3.35326 1.1086)
(24.5597 2.86223 0.6148)
(180.223 56.1192 8.2719)
(54.3754 49.8063 20.6939)
(124.194 53.2268 13.4617)
(88.6668 31.0599 4.6868)
(132.177 31.4429 6.30763)
(104.177 20.9905 4.05241)
(115.922 14.4955 2.95408)
(94.2061 5.47422 0.417073)
(93.4828 -1.62226 -0.379708)
(78.4989 -5.92785 -0.858164)
(76.0231 -7.3173 0.100912)
(63.8946 -7.57361 0.726922)
(58.3798 -2.71547 2.84234)
(43.1399 1.21384 3.51627)
(38.1641 3.56298 3.01946)
(29.547 2.7908 2.05813)
(27.3583 2.15865 1.19599)
(24.5306 0.972349 0.650463)
(25.4342 0.620962 0.402809)
(22.4132 0.15547 0.20166)
(14.2199 104.376 116.333)
(-33.3612 49.2288 -45.9776)
(68.7365 64.5883 -34.3191)
(-11.3137 24.064 -10.7923)
(53.9986 14.5627 -7.18009)
(6.37627 -2.92783 1.33175)
(44.5453 -6.16851 5.45949)
(24.6867 -8.62829 4.91528)
(46.6846 -7.71341 4.77103)
(39.5373 -6.20597 2.24696)
(51.5834 -4.60808 0.674095)
(49.7091 -3.15196 -1.88967)
(56.3441 -2.61911 -3.16975)
(56.6778 -2.44039 -5.33435)
(61.0146 -2.03918 -6.10897)
(62.4393 -2.90627 -8.69592)
(67.0178 -4.35407 -10.0728)
(74.4471 -7.08766 -7.3439)
(82.1056 -5.44559 0.153656)
(73.4805 -3.74147 0.540633)
(261.459 -45.6529 135.792)
(-92.5329 -24.5173 15.3319)
(72.4019 -1.45426 -17.1579)
(-54.3298 1.19794 3.16447)
(46.5008 -9.6075 -3.61318)
(-12.7685 -7.06733 -0.590773)
(34.5122 -10.8608 1.29199)
(6.62357 -8.33945 -0.548185)
(31.5646 -6.78605 0.438396)
(19.3245 -3.96211 -1.05134)
(31.6905 -1.01813 -1.00387)
(25.8714 0.557636 -2.0895)
(31.2825 2.24793 -2.77886)
(28.5116 2.33949 -3.56457)
(31.2886 2.66342 -4.51225)
(31.5294 1.0921 -5.14468)
(38.8384 2.13067 -2.78176)
(45.7339 1.83607 3.36421)
(47.1462 5.25816 8.47283)
(32.3107 4.38819 6.30574)
(188.54 -166.152 -114.249)
(71.5184 -56.0629 -19.169)
(138.068 -6.2427 -1.47508)
(25.1444 7.49086 6.00176)
(54.7922 -7.31146 2.83855)
(-1.4797 -6.4426 -0.177113)
(31.8621 -14.1259 0.801548)
(4.68168 -11.1159 -1.57174)
(28.2931 -13.3294 -0.456774)
(17.4617 -7.1751 -1.40142)
(30.0625 -6.62818 -0.529942)
(24.3315 -2.81126 -0.610158)
(29.495 -3.99784 -0.210593)
(25.5481 -4.30702 -0.170132)
(28.2086 -6.88257 0.779072)
(25.8685 -9.56125 2.39876)
(27.5476 -10.4114 4.80535)
(23.2059 -10.2451 5.20513)
(23.478 -2.4453 4.97574)
(17.1604 4.22775 3.13668)
(-29.2213 44.7732 -60.2838)
(-191.776 -48.1732 -39.3812)
(8.96313 4.60932 -3.73415)
(-86.5503 9.41793 2.9709)
(25.9146 5.42499 -0.11022)
(-48.6441 -1.01445 1.32893)
(20.5755 -14.5516 0.661859)
(-15.0487 -14.001 -0.046472)
(20.1773 -16.5596 0.103757)
(9.7814 -10.3313 -1.45543)
(24.2452 -7.05153 -0.673275)
(19.1427 -3.06609 -0.534113)
(22.9125 -1.68442 0.627472)
(18.1758 -1.22793 1.75798)
(17.4499 -1.35016 3.76445)
(11.8284 -1.79368 4.21833)
(9.3127 0.971613 3.46923)
(4.15914 1.89226 1.91702)
(3.39104 5.41381 1.67992)
(1.86201 6.44218 1.37384)
(239.407 -45.8071 153.474)
(43.3168 -58.0068 1.84216)
(94.8016 -25.5189 1.71729)
(-23.3753 -13.0191 6.34969)
(46.5796 -19.1904 6.13508)
(-34.801 -8.87273 2.4413)
(21.9627 -35.9769 3.65552)
(-23.1231 -17.0685 2.36637)
(10.5872 -35.7583 3.46373)
(-5.10411 -13.8395 1.82823)
(11.9066 -15.2328 2.00422)
(4.98701 -2.86286 1.49383)
(11.251 -4.21325 2.27169)
(6.09162 -0.465753 2.56181)
(7.88747 -2.64227 2.60397)
(4.17437 -2.67105 2.21086)
(4.89717 -3.32589 1.75468)
(3.80527 -2.98535 1.08829)
(5.76125 0.117212 0.714369)
(5.67092 4.00702 0.529292)
(249.586 -71.9397 171.8)
(-55.42 42.0111 14.4913)
(70.6142 48.9683 16.9092)
(-35.2188 15.9984 5.08435)
(44.4 15.3466 2.88679)
(-28.7673 5.50723 0.218351)
(24.7055 -22.2332 7.72621)
(-15.9245 -12.8204 5.71855)
(-0.698701 -33.8872 6.76113)
(-14.1813 -16.6682 1.92428)
(-5.47468 -16.8647 1.46248)
(-7.06338 -7.4627 1.17829)
(-3.61337 -6.88965 2.6929)
(-2.49988 -4.48157 2.6431)
(-1.31271 -4.7486 2.82665)
(0.279754 -4.21659 2.45294)
(2.0206 -2.19664 1.7683)
(2.88959 -0.195257 1.09244)
(4.5632 2.40414 0.469827)
(4.66322 3.77784 0.239482)
(-50.1327 11.8313 -56.7131)
(-176.863 35.4819 -31.679)
(18.1671 16.7539 -6.02292)
(-94.8664 -19.6412 7.0527)
(40.1198 -3.73023 -0.768844)
(-44.8807 0.24113 1.53918)
(10.6225 -43.8366 2.95172)
(-40.1919 2.33067 5.7282)
(-17.0938 -42.3732 5.42135)
(-48.9258 -4.67645 -0.716013)
(-24.8 -21.7209 -0.94981)
(-32.4034 -5.11067 0.942692)
(-15.6552 -14.2763 1.82435)
(-15.1339 -8.97444 2.91098)
(-5.91836 -12.9898 2.73314)
(-3.69435 -12.2008 2.37684)
(1.75744 -9.96196 1.38403)
(3.80663 -6.6164 0.814444)
(7.32983 -2.8869 0.419972)
(7.86529 0.866701 0.180895)
(98.4797 349.301 2.08732)
(-194.428 17.7328 -30.7355)
(40.2622 9.67788 -22.821)
(-69.7396 -37.8029 3.46964)
(50.6998 -24.9969 -1.61923)
(-8.75095 16.3348 1.68896)
(25.2934 -5.85975 -0.173724)
(-5.46814 -3.93196 0.125293)
(6.08077 -10.096 7.21583)
(-32.9078 -8.94613 3.67126)
(-19.3985 -11.7135 -0.900823)
(-23.6884 -10.8361 -0.485936)
(-8.68179 -11.5627 0.340169)
(-4.34559 -15.0748 2.44492)
(3.81565 -25.6174 2.25384)
(9.45889 -21.7026 3.63175)
(9.90938 -14.6685 2.83913)
(10.2628 -7.94055 1.4081)
(10.7213 -3.813 0.869115)
(9.26341 -0.450427 0.393959)
(-44.0349 16.8783 72.3802)
(-160.148 -22.6089 -95.8097)
(46.4969 -37.2426 -21.8987)
(-66.5449 -39.3974 -1.73797)
(34.133 -37.1588 -2.90582)
(-13.7838 -0.445371 -3.6846)
(31.143 4.70294 -0.425748)
(31.9294 -6.88905 -3.1336)
(43.0383 -5.63486 3.68584)
(31.1705 -10.2907 7.29394)
(5.15762 -9.36476 1.368)
(6.20131 -8.43486 -6.79437)
(8.49044 -13.7551 -7.25255)
(3.54031 -16.7011 -2.31552)
(6.01261 -21.452 -3.86573)
(14.4624 -29.8295 0.594932)
(16.2883 -19.6243 2.61075)
(14.749 -11.7671 1.68845)
(15.4052 -6.66793 1.01074)
(12.609 -2.60734 0.429976)
(2.05749 -175.899 -17.3471)
(-107.151 -54.3632 -8.93571)
(61.7184 -44.8484 -16.6396)
(-13.7534 -30.7727 -1.21805)
(61.2295 -37.156 -1.63477)
(37.4052 -25.472 -2.50376)
(52.2417 -18.4361 -2.12405)
(59.7751 -13.1962 -6.13283)
(71.6527 -13.9883 -9.23675)
(82.5175 -7.55105 -1.00215)
(80.051 -29.0752 13.8077)
(40.3097 2.01712 -3.17822)
(30.7466 -1.38385 -10.0263)
(25.4297 -11.0542 -4.89034)
(24.9033 -14.0344 2.34184)
(26.3407 -26.363 -0.824776)
(23.7994 -21.3203 -0.287767)
(19.466 -11.0109 0.61857)
(18.7804 -6.14145 0.60722)
(14.5598 -2.54348 0.346989)
(39.2255 -176.058 39.3948)
(-158.428 -102.495 17.653)
(47.075 -70.2284 3.04173)
(-45.0514 -44.0076 3.48014)
(47.2206 -44.847 3.91529)
(24.6726 -42.7844 5.27647)
(62.595 -39.3923 10.1042)
(89.4977 -34.3276 9.30551)
(110.655 -24.4066 7.59186)
(124.913 -22.249 9.40598)
(112.082 -15.6326 21.3201)
(53.0422 19.9469 3.54661)
(37.2425 10.55 4.91132)
(42.2712 2.1807 -2.78039)
(37.0869 -24.3443 7.66025)
(34.1761 -23.5237 -2.5259)
(26.141 -15.0266 -1.3184)
(20.9508 -9.58476 -0.242918)
(20.2607 -6.17193 0.108479)
(15.9591 -3.4568 0.112819)
(167.994 -247.422 155.568)
(-66.2189 -131.251 32.8905)
(77.3499 -116.858 -6.82728)
(-20.0577 -54.786 -5.21088)
(53.2651 -64.2177 -3.25109)
(24.4463 -60.426 -3.91565)
(47.6182 -59.9098 -0.893314)
(55.6134 -50.6922 -0.826027)
(66.848 -37.1903 -4.58143)
(73.0826 -23.0082 2.70112)
(65.4765 5.56057 7.4876)
(62.5546 18.5502 5.07036)
(61.7514 6.69631 0.823072)
(54.6734 1.91237 7.01225)
(46.1586 -25.6573 0.0660346)
(30.7825 -14.4699 -1.44406)
(22.4692 -10.7314 -0.176219)
(18.1219 -6.48509 0.128349)
(19.213 -4.96352 0.0857599)
(16.6946 -3.1349 -0.0648766)
(294.43 -197.059 17.9456)
(63.5312 -51.871 -2.60944)
(99.1922 -69.7943 -29.7752)
(27.0078 -51.3017 -13.735)
(70.9957 -59.8087 -6.94764)
(32.4078 -70.2209 -4.35175)
(51.3499 -53.1649 -2.17288)
(27.5538 -39.9863 0.264836)
(31.4906 -32.0612 -2.72308)
(28.0604 -11.5493 -4.64251)
(43.3972 7.96529 -0.776947)
(52.5494 11.4051 1.27274)
(60.6171 9.15869 3.4686)
(65.3911 0.11065 4.75088)
(55.3695 -2.86475 2.66681)
(45.637 -2.0952 4.64494)
(35.334 -4.59035 5.29191)
(27.2999 -6.87976 3.87797)
(24.6846 -7.69052 1.74438)
(18.9772 -4.92337 0.381178)
(35.3932 -92.8536 -60.2061)
(-13.4326 -77.459 79.6864)
(95.7211 -63.4703 28.1365)
(42.7072 -44.8619 3.09739)
(86.8557 -49.2563 -0.633759)
(37.2436 -50.7963 -3.11065)
(47.9394 -28.152 0.966151)
(31.8682 -38.4216 2.24394)
(39.646 -20.0753 3.65866)
(37.2683 -20.9626 5.24446)
(48.0606 -8.60581 7.70102)
(54.6392 -11.468 8.69696)
(64.4422 -5.68444 7.91617)
(67.4875 -8.58753 5.9502)
(71.5053 -6.27629 4.34101)
(71.3881 -5.19688 4.27406)
(70.4426 -2.5048 4.08169)
(60.1618 -0.17326 3.38303)
(48.0749 -0.799874 3.05365)
(31.6845 -1.80495 0.710968)
(36.6406 -131.818 -166.564)
(-29.6313 -103.8 -20.9187)
(101.036 -71.7658 -13.3179)
(45.5969 -45.6149 -3.58609)
(85.474 -39.4826 8.98023)
(38.5682 -39.4182 7.41433)
(55.5332 -30.0167 8.02118)
(36.5407 -32.3716 3.55545)
(43.3078 -24.856 3.08388)
(36.8904 -24.0371 2.73156)
(42.3953 -17.7329 2.61905)
(40.8202 -16.3164 1.50464)
(44.1874 -13.3463 -0.167528)
(43.5404 -10.6721 -2.80172)
(45.8935 -8.68374 -4.11288)
(46.3793 -5.42625 -5.25653)
(48.5318 1.71806 -3.99543)
(45.299 8.77163 -2.13443)
(45.5989 11.1693 -0.552277)
(36.0579 6.38135 -0.870361)
(128.408 -134.279 13.5381)
(64.1588 -115.69 0.611536)
(143.207 -83.766 -0.421686)
(68.0065 -50.178 2.31674)
(90.5659 -28.7311 9.26473)
(42.2275 -26.3709 5.00855)
(55.836 -21.193 4.25512)
(29.5193 -28.7698 -0.193485)
(37.6824 -21.2164 -0.505604)
(22.6908 -22.1708 -2.21168)
(28.9636 -14.2471 -2.84829)
(22.8428 -13.2611 -5.2212)
(27.7188 -7.59759 -6.57493)
(26.1014 -6.86019 -7.55772)
(29.7954 -4.46478 -7.96722)
(29.9505 -0.737976 -8.43993)
(33.9967 4.75711 -7.40387)
(39.2403 9.92159 -3.16241)
(48.7905 8.60106 0.257684)
(44.7528 4.75419 0.547724)
(187.762 -56.5143 -60.8115)
(114.134 -54.9521 -6.95999)
(156.123 -50.0859 -23.8801)
(98.8026 -38.9569 -5.02053)
(110.564 -20.6925 -0.579652)
(65.2936 -19.6565 -0.320277)
(70.2878 -14.3509 -0.0772945)
(42.1727 -17.7223 -2.51929)
(44.0066 -13.749 -0.98272)
(25.6182 -11.4999 -1.2608)
(29.1178 -8.30187 -0.801082)
(23.4534 -7.8363 -2.98154)
(27.7009 -7.84912 -5.44486)
(26.1253 -7.67931 -5.97276)
(29.0283 -7.51536 -6.17424)
(29.7783 -4.76234 -5.59643)
(36.3112 1.50292 -3.74812)
(42.7657 6.10528 -0.229815)
(48.3693 6.27551 2.41823)
(42.4132 4.62179 2.52778)
(149.732 -1.33114 -143.665)
(8.28246 3.12745 4.57287)
(123.074 -0.123118 2.98609)
(48.8431 6.13688 2.36222)
(87.0023 18.0372 1.63644)
(45.7496 3.21476 -0.568944)
(71.1997 -0.607402 0.712352)
(52.6746 -10.0873 -0.699065)
(62.0151 -7.55014 0.405644)
(46.5205 -5.57061 -0.552135)
(47.6033 0.668642 0.718076)
(37.4534 2.36982 0.581982)
(39.8484 2.91315 0.985598)
(36.9738 1.37136 0.878587)
(39.3034 0.132872 1.36601)
(38.7018 -1.64343 2.50437)
(39.5472 -1.04757 3.20199)
(38.7961 -0.52253 3.84363)
(39.6875 0.912025 4.34599)
(32.8982 0.888037 3.30546)
(114.867 -73.6935 179.519)
(41.4092 -22.473 -2.97103)
(121.803 5.81159 -15.976)
(65.5835 -3.4223 -9.42657)
(101.564 1.93147 -0.518807)
(67.5738 -10.7313 0.567267)
(83.9843 -15.3879 4.97345)
(61.5121 -14.9255 2.73357)
(65.954 -10.1798 3.51005)
(51.4872 -3.26851 2.19353)
(52.8861 1.43354 2.83006)
(44.2186 3.59235 2.93781)
(44.0488 1.7939 3.77447)
(37.4616 0.350169 4.00341)
(35.4528 -2.0247 4.93804)
(30.5927 -2.16277 4.56475)
(29.1387 -0.788235 3.95158)
(26.2622 0.613505 3.24922)
(27.1558 2.31372 2.4874)
(23.8622 2.37764 1.41008)
(80.7301 9.29587 178.133)
(-39.4342 17.9609 20.7908)
(113.659 49.9458 4.18857)
(71.2161 28.965 -2.94248)
(124.243 30.9663 5.81978)
(100.452 19.5037 3.6225)
(114.231 11.1622 6.01285)
(86.9449 1.90458 2.94335)
(81.8799 -1.41525 2.81452)
(62.3231 -1.38077 1.5257)
(61.1617 -0.157168 2.78293)
(50.3832 0.220671 3.60334)
(47.853 1.05547 6.24677)
(38.8459 2.15224 6.59191)
(35.9556 2.55411 5.31099)
(29.4074 1.33528 3.90309)
(27.83 0.554893 2.50606)
(25.3464 -0.0960181 1.52537)
(26.2645 -0.111503 1.05036)
(23.2919 -0.190567 0.601261)
(181.276 186.063 302.018)
(81.1695 77.7895 -16.8621)
(113.11 60.1233 -37.2835)
(14.5489 27.0107 -13.9122)
(55.114 18.3166 -6.15378)
(2.61669 1.14494 2.30621)
(41.0418 -1.32845 6.73121)
(20.7321 -3.61189 5.32437)
(43.8658 -2.97057 4.96152)
(35.8172 -2.30519 1.75531)
(47.1102 -1.62577 0.185565)
(42.5845 -1.47302 -2.2324)
(47.0391 -2.19748 -3.03201)
(44.4458 -3.38208 -4.62969)
(47.0294 -4.2766 -5.53906)
(46.7037 -5.24685 -7.29867)
(48.522 -7.80126 -8.41769)
(50.8419 -13.8633 -6.00381)
(62.1748 -12.8807 -0.975747)
(62.0864 -7.44228 0.0160158)
(215.891 -82.8231 151.184)
(-165.023 6.67726 46.6969)
(45.6883 0.0562716 -11.3455)
(-68.9967 1.94093 6.45019)
(36.8863 -6.387 -3.69837)
(-26.8132 -3.55236 0.260175)
(26.4703 -6.17083 0.550082)
(-4.46497 -3.27176 -1.26101)
(23.7121 -2.54782 -0.270958)
(9.67002 -1.49241 -1.84976)
(23.3841 -0.946806 -1.22336)
(16.5985 -2.3891 -2.03493)
(22.6035 -4.24927 -1.84492)
(18.6383 -7.27385 -2.65385)
(20.9941 -9.68599 -3.6128)
(18.1271 -11.5374 -5.00543)
(19.7489 -11.3663 -3.92735)
(18.8694 -9.18143 0.537802)
(22.9547 -0.496441 6.81861)
(17.4262 1.76387 4.68212)
(123.437 -18.4424 -121.915)
(-59.8764 7.82286 -9.55318)
(64.7879 -1.14946 13.3672)
(-21.6889 6.75096 10.3371)
(38.2842 -5.53104 4.35736)
(-20.6179 -2.55444 0.420789)
(22.2682 -10.94 0.810144)
(-8.1922 -6.69388 -1.3482)
(19.4412 -10.0387 -0.430486)
(6.63119 -4.73003 -1.24733)
(21.0935 -6.59507 -0.156846)
(14.7369 -5.01238 -0.457508)
(20.8477 -8.71534 0.232095)
(15.2652 -9.92071 0.0523872)
(15.8525 -13.7668 0.830774)
(10.5852 -14.9012 1.85007)
(11.7103 -14.7459 4.07937)
(8.66239 -12.7635 4.80759)
(11.883 -3.39717 4.39363)
(9.41372 4.21502 2.38547)
(-15.9758 6.23491 -83.3367)
(-169.157 -49.5017 -54.9757)
(5.0142 -6.16485 -7.4501)
(-100.59 4.32922 0.833754)
(16.2258 3.25442 -1.61139)
(-61.7249 -0.887808 1.69731)
(13.7423 -14.0822 0.0698783)
(-23.9401 -11.3531 0.619652)
(14.3873 -15.1283 0.0309533)
(1.43315 -9.42035 -1.09363)
(17.1217 -8.09032 -0.062473)
(11.1119 -5.38289 -0.258713)
(15.611 -5.26085 1.17512)
(9.93612 -5.12369 1.94664)
(9.56834 -5.35478 3.79703)
(5.32266 -5.37235 3.81853)
(4.95769 -2.20964 3.01583)
(1.47625 -0.148645 1.59575)
(1.46488 4.59875 1.26442)
(0.703303 6.05323 1.14505)
(262.183 -66.3502 -52.0482)
(-26.6207 -31.1891 -0.579001)
(65.1963 -21.2954 8.3004)
(-61.9186 -11.9585 8.11342)
(32.4914 -17.3479 4.43493)
(-56.7749 -7.43148 2.53691)
(13.8793 -35.9706 2.26778)
(-32.1548 -14.0654 2.47425)
(7.8258 -32.7496 3.49271)
(-8.50578 -12.835 1.77076)
(8.74026 -17.5442 2.71795)
(0.391322 -6.98401 2.65472)
(7.10517 -9.59357 4.11833)
(1.98978 -5.83309 4.44247)
(4.5715 -7.45708 4.33682)
(1.90104 -6.78531 3.58141)
(3.50412 -6.66194 2.63452)
(3.0396 -5.05366 1.48952)
(5.50711 -0.218395 0.71099)
(5.60256 3.85953 0.478891)
(34.5325 -84.8016 42.4043)
(-136.62 44.6625 33.727)
(26.4886 47.8037 8.88438)
(-77.5958 14.0246 8.18573)
(26.478 12.7273 0.588341)
(-61.7181 3.64119 0.810023)
(11.4002 -28.8419 5.26713)
(-32.1371 -11.3295 5.54976)
(-3.78099 -30.6077 5.95597)
(-15.2696 -12.4576 0.444933)
(-7.28 -14.8316 1.43148)
(-11.5162 -7.40473 1.4334)
(-8.16413 -8.37571 3.40955)
(-6.77002 -5.79737 3.47148)
(-4.55247 -6.22208 3.79823)
(-1.49464 -5.50977 3.27318)
(0.92126 -2.61845 2.23631)
(2.35762 -0.550371 1.30251)
(4.29735 2.18312 0.569401)
(4.67816 3.62703 0.309328)
(173.683 186.043 25.4795)
(-139.768 9.96795 -15.0279)
(4.82664 0.976133 -7.53217)
(-103.429 -21.7582 6.99445)
(27.772 -6.3475 -2.23459)
(-61.6844 -1.73904 2.84861)
(-2.36052 -47.0007 1.89477)
(-54.0705 6.63586 6.24567)
(-18.3307 -40.0945 4.66942)
(-41.9582 -5.33176 -2.01428)
(-22.706 -21.5299 -2.51556)
(-31.3839 -6.49763 1.71148)
(-15.473 -14.4401 2.50401)
(-16.017 -8.36704 4.11822)
(-7.19743 -11.7355 4.14101)
(-4.48506 -11.6601 3.62593)
(1.11912 -9.75165 2.26401)
(3.49791 -6.68796 1.3774)
(7.14988 -2.87842 0.716418)
(7.80907 0.840226 0.322148)
(67.9737 249.655 54.5616)
(-108.277 31.1854 5.5039)
(30.6501 15.0123 -22.4492)
(-69.0259 -35.2365 4.08002)
(38.9562 -21.9649 -3.31169)
(-26.494 18.3267 2.27524)
(10.2529 -12.2536 -0.873275)
(-25.6576 4.03403 1.19286)
(-11.8993 -12.8571 8.15977)
(-32.6516 -9.1999 4.96126)
(-16.8593 -7.8353 -3.25449)
(-18.8467 -13.118 -0.135492)
(-8.78328 -13.1475 1.98001)
(-8.02788 -10.1221 4.35232)
(-2.43231 -16.5595 4.31368)
(5.01379 -14.9974 5.24477)
(7.64585 -11.9406 3.86828)
(9.26964 -7.18497 2.27297)
(10.2969 -3.58417 1.58108)
(9.23221 -0.425482 0.927847)
(488.563 -116.562 281.629)
(-41.2202 -32.7588 -20.9539)
(69.3541 -28.2143 -11.51)
(-67.9159 -36.8724 -1.96314)
(21.3893 -34.576 -4.72347)
(-28.7125 5.78272 -2.80617)
(12.5963 1.88063 -0.97479)
(11.7374 -8.77917 -4.49823)
(21.8357 -6.97175 1.30831)
(14.2286 -10.1236 12.3315)
(8.53538 -10.2037 4.14934)
(4.31563 -11.0255 -10.2679)
(-1.21449 -15.1285 -7.50658)
(-5.83632 -17.255 -3.83609)
(0.323445 -19.0722 -4.94058)
(5.44168 -20.9804 1.60871)
(11.0146 -13.5815 3.44326)
(12.0771 -9.70741 2.11081)
(14.113 -6.04236 1.429)
(12.3259 -2.53419 0.753935)
(34.4403 -136.725 142.586)
(-53.4901 -7.12318 -23.472)
(68.1977 -31.5651 -14.9263)
(-10.6327 -26.7091 -3.30129)
(47.7207 -34.908 -4.60427)
(16.8107 -23.6025 -3.48149)
(33.1266 -19.8492 -1.37405)
(41.8377 -20.7184 -6.48208)
(48.9534 -20.5906 -9.88218)
(54.6441 -16.313 2.13962)
(60.4874 -24.0326 20.5297)
(42.1545 -1.41653 -1.32595)
(26.0174 -12.0097 -13.0365)
(15.6996 -18.4821 -6.87711)
(19.8563 -26.0146 -1.75617)
(19.5793 -26.6564 -0.715996)
(18.0383 -16.4794 0.891304)
(16.4869 -8.66791 1.37651)
(17.1016 -5.16127 1.19604)
(14.0999 -2.2906 0.703655)
(-28.7015 -148.908 186.904)
(-168.046 -81.8705 15.2227)
(35.7129 -48.6391 -1.77172)
(-60.3394 -28.2444 2.65023)
(33.8957 -31.3931 2.02167)
(7.15653 -31.6232 3.13343)
(42.3999 -30.9629 8.22953)
(62.6682 -28.4082 6.72132)
(75.8324 -22.6065 2.41861)
(81.6824 -25.4268 7.33813)
(76.0073 -15.3378 17.9752)
(43.0608 17.1621 9.68777)
(44.4355 1.5324 -2.92924)
(42.2297 -13.7012 -6.95082)
(40.8659 -17.5145 7.46963)
(32.281 -22.3048 -0.746407)
(22.8832 -14.4101 0.414966)
(18.8987 -9.10491 0.553469)
(18.9333 -5.97067 0.732434)
(15.5739 -3.48379 0.477777)
(54.5595 -212.344 55.474)
(-100.191 -99.334 22.4107)
(66.1291 -103.044 -17.1074)
(-38.7032 -40.9615 -5.43595)
(40.8398 -56.0739 -4.28374)
(8.68556 -52.5208 -3.82625)
(32.4289 -50.0467 -0.735195)
(41.0166 -36.8959 -1.81604)
(49.1116 -21.6935 -6.06084)
(49.9801 -8.57653 -0.448121)
(46.8441 15.0128 7.17136)
(53.7303 18.3989 5.24906)
(49.5367 10.247 3.18612)
(46.2236 5.72038 6.8992)
(53.6189 -12.152 0.740476)
(29.6644 -11.6275 0.746524)
(20.5433 -9.45747 0.82157)
(17.2239 -6.16726 0.515924)
(18.575 -4.99554 0.428578)
(16.5305 -3.3155 0.117343)
(150.043 -120.354 6.64446)
(86.361 -67.3052 7.08092)
(105.243 -69.3116 -24.1836)
(17.4624 -45.2314 -13.9218)
(57.4268 -54.8859 -6.23681)
(13.8744 -66.5695 -4.28068)
(34.2056 -45.9048 -1.47468)
(12.0215 -33.3157 -1.16224)
(20.4462 -22.4751 -3.63968)
(17.1625 -3.20301 -4.65178)
(31.3915 8.89212 -0.942047)
(41.3764 9.63833 1.32634)
(50.7953 7.09552 3.96286)
(56.9472 0.450843 5.23609)
(43.4909 -0.795059 3.8144)
(33.9091 -0.882014 6.46522)
(26.8256 -4.35823 6.0808)
(23.4557 -7.16107 3.49631)
(23.1361 -7.79522 1.56968)
(18.8247 -5.42635 0.355058)
(43.9046 -199.107 -103.305)
(-31.801 -82.1699 0.213643)
(91.0136 -60.5591 3.93941)
(18.1565 -45.2767 -2.50404)
(68.0541 -50.3405 -1.33022)
(12.6515 -50.7362 -3.43486)
(30.6909 -23.0628 0.535592)
(14.1001 -36.5453 1.54153)
(25.3819 -14.3492 3.12634)
(24.9568 -15.6524 5.50112)
(37.5383 -1.86087 7.97551)
(45.7384 -4.1461 8.60946)
(56.571 2.95937 7.25203)