/*--------------------------------*- C++ -*----------------------------------*\
  =========                 |
  \\      /  F ield         | OpenFOAM: The Open Source CFD Toolbox
   \\    /   O peration     | Website:  https://openfoam.org
    \\  /    A nd           | Version:  10
     \\/     M anipulation  |
\*---------------------------------------------------------------------------*/
FoamFile
{
    format      ascii;
    class       volScalarField;
    location    "3.3";
    object      k;
}
// * * * * * * * * * * * * * * * * * * * * * * * * * * * * * * * * * * * * * //

dimensions      [0 2 -2 0 0 0 0];

internalField   nonuniform List<scalar> 
12920
(
822.598
2033.58
1573.45
1274.42
755.217
434.7
277.207
210.39
184.054
150.677
120.147
102.31
93.8099
88.3598
85.3465
81.0092
78.7783
74.6642
73.2445
71.048
2240.51
5140.67
2548.97
1122.82
656.101
611.889
547.12
516.269
407.513
276.217
198.438
164.13
146.482
137.865
134
133.41
133.969
135.136
138.701
140.211
11514.9
3822.37
2323.49
1716.61
1059.74
690.886
478.344
367.778
285.639
239.985
206.735
181.234
158.628
143.89
134.364
127.07
121.827
116.41
112.049
109.504
1023.39
2526.59
2298.75
1517.71
1055.47
750.322
577.183
434.614
353.296
296.895
251.308
218.272
186.59
159.752
140.065
127.24
120.078
112.857
109.297
104.49
8348.83
5956.96
4349.1
2718.88
1844.05
1576.07
1218.95
913.025
601.948
393.135
281.669
233.571
200.857
173.714
150.469
132.729
122.237
113.127
109.628
104.163
3822.67
8955.42
5986.67
2934.73
1658.56
1180.41
771.53
544.582
372.962
290.834
244.609
217.409
192.076
169.348
147.647
130.537
120.938
111.426
107.839
100.442
2615.81
2326.26
2091.11
1841.8
1565.88
1253.55
849.678
574.335
397.049
301.51
254.574
222.115
187.834
161.828
142.146
128.029
120.562
112.048
108.365
99.6909
6622.07
2960.98
2364.55
1523.04
1056.77
838.976
523.322
335.087
234.244
158.017
130.353
129.914
122.339
97.1703
155.265
137.977
127.232
116.336
111.584
101.515
3445.64
3971.5
2668.79
1744.36
1078.01
534.867
298.862
153.974
79.3379
82.1945
92.2078
86.2726
95.2197
75.5695
103.367
143.89
123.338
110.759
106.961
101.578
595.869
1629.73
1517.52
1321.47
1135.14
643.367
287.414
165.258
134.572
91.6616
86.739
74.734
56.3386
68.332
99.3805
119.028
100.996
93.6447
94.1992
99.0035
794.411
1423.39
1397.41
1152.01
882.793
503.212
239.487
125.744
118.634
127.471
106.234
72.087
65.5488
44.3084
73.1638
109.199
92.944
85.586
86.6784
93.1768
2042.01
2522.94
2301.39
1416.28
852.426
404.768
192.497
137.527
129.662
111.613
106.102
77.3342
47.3773
48.118
75.8516
95.2787
77.9538
72.8598
74.0371
82.1615
569.885
3228.64
3583.99
3017.17
1565.3
926.856
578.868
380.909
337.291
271.84
179.65
99.9719
71.6311
66.0212
97.2682
81.5493
71.1639
66.2226
65.9191
71.0727
859.116
1305.66
1634.09
1666.17
1460.62
1153.77
908.159
732.19
569.14
417.463
278.63
187.938
138.162
112.164
95.7078
83.427
73.5762
66.041
62.4905
62.8722
397.307
1161.4
1660.68
1656.15
1296.37
946.542
756.115
655.998
554.209
448.788
314.815
216.119
157.299
124.823
105.063
89.7596
77.8744
69.1238
63.2379
57.2525
915.35
1917.78
1907.62
1583.88
1094.01
880.137
700.871
519.145
369.446
280.146
215.691
174.542
146.353
128.423
111.091
94.8293
81.9958
71.552
67.0469
59.0327
3552.87
2311.11
1986.64
1720.67
1275.52
1107.37
863.508
583.053
349.047
231.169
186.197
165.431
150.709
138.754
124.957
107.667
93.3041
80.2418
74.9331
66.104
1559.76
2092.28
2204.01
1766.46
1301.2
1124.23
851.948
562.465
339.782
237.579
196.415
177.633
163.309
151.88
141.489
127.248
113.21
97.6761
90.4529
81.3007
2204.18
2022.83
1526.31
1163.49
1002.3
832.695
616.373
415.448
283.734
229.383
206.663
198.568
187.835
173.253
156.112
136.74
120.763
106.36
97.3126
90.4657
33.3188
816.748
886.498
586.986
468.449
426.12
354.746
288.339
239.559
210.368
188.421
169.449
152.021
133.444
115.884
98.3239
83.8303
69.9987
64.1236
57.2543
9113.84
7948.87
4105.18
2320.71
1405.64
862.599
580.032
456.652
336.276
253.266
212.917
200.968
195.165
192.835
190.931
188.67
188.433
187.571
186.974
181.702
14112.5
9979.01
5698.59
2871.92
1540.52
1535.19
1264.32
1097.85
675.689
511.156
428.235
407.771
390.986
384.738
383.901
385.069
389.86
397.835
408.619
416.221
11253.6
6935.18
5010.69
3540.35
2079.52
1560.32
923.681
751.273
593.91
571.41
513.956
472.808
427.485
405.382
388.505
374.129
363.392
351.756
343.947
340.76
2345.89
6641.81
5580.15
3599.43
2069.45
1585.96
1141.85
991.82
803.164
743.172
633.135
571.81
491.995
439.381
397.427
369.644
352.276
334.458
325.462
314.207
15146.3
16332.3
10613.6
6189.59
3896.58
3240.01
2439.54
1881.59
1165.21
846.793
686.962
618.309
539.844
480.247
421.985
377.5
351.148
327.947
319.256
304.215
23756.6
21171.2
13051.4
6706.62
3570.19
2432.14
1614.3
1239.06
911.916
749.026
637.207
574.876
513.045
458.104
405.869
363.755
339.419
315.561
305.674
286.305
12201.6
9040.07
5613.39
4370.89
3446.69
2700.65
1854.89
1341.4
951.52
753.56
633.885
556.579
475.35
416.93
371.521
339.957
321.608
305.902
299.136
280.419
26694.3
8429.97
5782.63
3435.59
2334.19
1846.14
1466.97
1125.3
837.767
658.88
601.144
549.873
448.567
362.524
343.501
316.697
307.045
302.703
300.23
287.278
9020.05
8398.61
5453.74
3722.6
2282.42
1568.99
1087.93
818.643
595.081
589.494
569.654
531.19
471.123
363.026
312.328
284.928
278.139
280.819
292.055
296.058
3808.79
5451.08
4117.08
3148.69
2406.15
1822.62
1228.06
931.54
705.11
526.288
451.772
377.696
327.664
310.994
264.795
242.351
241.239
247.922
274.477
300.362
1470.24
2706.62
3413.32
3014.44
1729.66
1351.91
1021.25
829.71
703.837
651.366
532.347
378.785
272.72
209.515
220.935
240.579
225.166
226.293
239.683
265.223
12338.2
6582.75
4155.32
2451.39
1298.48
991.661
928.007
978.617
934.758
798.571
640.254
380.664
277.86
242.797
235.24
213.835
199.957
199.894
208.164
236.535
2330.9
7065.43
6528.7
4501.45
2356.32
1918.07
1570.4
1412.28
1199.57
942.581
587.189
351.568
275.556
244.089
231.313
205.454
192.548
189.675
192.516
211.782
2776.85
3846.55
4094.09
4082.41
3305.62
2613.26
2158.91
1816.47
1366.82
917.222
586.84
418.879
339.043
289.021
254.038
225.727
203.699
188.735
184.71
187.983
4840.4
3793.81
4461.2
4254.98
2965.28
2294.63
1875.12
1699.25
1347.76
1017.79
692.465
487.328
382.512
321.881
276.778
241.313
213.424
193.115
179.988
167.109
4473.37
4882.69
4699.43
3938.64
2652.78
2207.12
1646.14
1237.42
883.297
681.642
528.447
442.113
378.347
335.232
294.629
258.265
226.466
201.952
188.243
168.628
27114.2
7573.01
5850.51
4102.32
2878.35
2512.55
1836.97
1175.65
715.028
554.298
481.671
438.446
401.265
373.469
343.282
305.206
264.287
228.989
212.539
186.954
8525.76
7012.01
6088.89
3989.18
2803.02
2415.17
1695.33
1072.8
708.325
588.011
525.24
488.869
455.241
425.702
397.147
364.037
329.628
288.522
265.797
235.346
2800.91
5108.3
3679.38
2605.99
2097.33
1669.38
1131.27
816.349
650.058
604.315
565.742
545.904
515.653
477.53
429.001
377.899
343.41
313.304
294.743
277.903
70.335
2358.1
2531.61
1429.35
879.978
717.091
570.48
489.851
447.711
425.927
398.225
369.157
335.505
289.077
251.689
225.924
205.253
175.505
160.832
142.358
1684.42
4745.99
3252.41
1806.83
1168.72
761.244
559.073
434.508
350.664
302.527
275.693
262.614
253.001
245.881
240.612
232.769
229.353
221.737
216.451
201.546
9060.67
8002.29
4545.11
2586.13
1589.31
1355.04
1085.52
938.266
740.273
667.257
604.624
583.321
564.982
562.696
564.315
570.931
580.238
589.877
598.171
599.32
7021.1
7870.1
5780.27
3867.78
2209.15
1664.03
1146.28
1013.23
853.562
791.325
702.884
657.759
611.738
590.265
570.921
559.133
549.348
539.184
533.902
526.095
1843.23
7797.93
6802.04
3927.11
2454.69
1814.35
1435.65
1223.63
1035.09
931.051
803.6
727.552
649.083
601.877
563.943
537.281
516.982
496.016
485.44
467.847
8916.98
13071.4
10429.2
6953.11
4296.01
3192.25
2194.16
1716.43
1256.42
1057.51
883.021
784.835
688.515
623.396
568.392
528.127
499.74
472.709
459.911
434.46
21570.7
21346.6
11844.5
6781.06
3906.13
2606.25
1803.08
1411.45
1117.58
957.62
823.604
735.401
654.055
590.783
539.262
499.204
472.684
444.665
430.321
399.148
10761.2
9879.56
7356.83
5607.67
4168.8
3050.28
2057.48
1535.42
1171.85
985.194
825.343
716.518
616.05
549.688
501.525
469.328
450.455
429.464
416.341
381.359
30889.3
12504.5
7088.17
4169.47
2937.26
2292.79
1906.77
1450.33
1155.25
958.306
836.025
705.576
582.303
492.503
452.817
431.307
426.007
421.203
412.876
380.934
19865.3
10185.6
6474.94
4259.59
2691.89
2110.29
1672.31
1329.84
1034.54
910.234
818.394
711.348
586.778
478.575
415.865
387.318
389.219
399.862
406.524
392.943
14010.8
7746.15
5809.67
4050.94
2744.92
2112.05
1605.52
1242.61
934.647
750.231
635.125
529.08
466.572
412.087
345.096
346.586
352.565
374.495
399.649
396.559
16723.1
10112.2
6216.93
3761.72
2170.96
1714
1380.62
1153.28
964.383
833.462
550.154
402.155
296.099
285.735
320.822
335.106
330.717
336.193
359.495
370.35
13061.9
8766.88
5500.48
3094.78
1998.09
1620.42
1537.15
1494.33
1273.79
1025.58
737.562
501.508
397.269
348.799
326.316
295.768
290.58
295.303
314.636
347.045
9623.17
10270.8
7352.75
4867.75
2992.61
2550.84
2085.16
1808.46
1410.57
1048.4
674.615
477.766
392.658
343.561
313.824
289.255
281.325
281.978
290.341
321.694
5528.63
6299.65
5965.07
5693.25
4399.29
3246.53
2440.53
1918.19
1385.18
975.938
694.411
545.476
448.155
386.239
341.058
308.569
286.42
275.991
275.305
286.02
4213.86
5267.87
5984.71
5633.18
3934.82
3022.87
2311.32
1859.01
1360.22
996.637
726.031
578.337
480.137
412.068
360.329
320.929
291.426
271.769
259.26
253.939
5902.83
8198.8
6842.15
5165.8
3491.2
2716.38
1904.67
1365.44
1001.3
793.017
643.484
556.027
485.329
433.75
386.565
345.203
310.608
283.474
265.106
247.083
14921.1
10459.3
7794.48
5147.98
3514.25
2738.33
1807.5
1220.86
878.481
736.969
645.142
589.944
540.209
499.669
456.598
410.279
365.905
325.432
300.049
267.976
7831.58
8803.82
7816.69
4894.11
3307.37
2513.91
1666.36
1186.56
909.332
798.999
721.362
676.711
631.586
592.036
551.084
505.903
461.528
410.37
379.447
339.072
11872.4
6440.07
4737.34
3050.52
2463.52
1814.74
1359.36
1093.43
931.857
865.703
793.69
750.809
701.11
648.787
590.574
537.101
500.817
464.231
446.274
416.374
1725.01
3344.39
3344.76
2127.98
1255.3
935.485
779.15
699.534
635.675
582.97
523.358
461.311
403.115
353.111
318.592
284.717
252.727
213.696
194.995
173.466
7003.4
2937.3
2306.83
1325.48
938.884
614.131
477.84
378.459
337.205
306.754
288.823
275.773
265.292
254.883
246.024
234.471
228.112
216.56
210.651
196.553
9950.17
7328.18
4188.17
2138.62
1602.55
1153.45
1118.69
926.938
878.205
818.04
787.869
777.451
769.655
774.583
780.401
793.816
804.096
810.505
812.191
806.055
12860.8
8982.5
6073.35
3349.34
2343.6
1620.61
1419.89
1195.02
1085.19
985.731
909.588
861.827
822.874
803.522
787.337
778.459
769.789
759.808
752.819
736.924
9866.92
10980.2
7515.27
3869.04
2810.02
1840.04
1698.69
1363.79
1241.81
1086.99
978.201
895.556
830.436
787.872
754.812
728.483
708.303
684.616
671.704
645.328
16231.2
12955
10921.9
6851.13
4447.69
2916.54
2168.82
1715.36
1419.58
1229.58
1071.25
952.844
860.769
792.852
742.918
702.226
673.681
642.65
625.136
588.264
14521.2
13523.9
10338.7
6264.62
4094.41
2577.78
2031.84
1578.9
1338.43
1136.91
1003.12
891.299
810.165
743.322
696.919
655.904
629.395
596.203
576.109
530.909
18406.3
10686.5
8890.41
6288.22
4780.84
3192.35
2264.52
1707.78
1389.58
1167.82
999.071
869.31
770.569
702.04
658.027
625.25
605.582
575.654
552.886
496.91
8609.39
13632.8
8964.95
4684.45
3523.02
2594.95
2172.57
1667.51
1358.49
1134.37
966.316
805.605
690.821
610.022
593.513
580.323
575.962
564.353
543.06
482.211
13477.8
14061.8
7695.4
4448.17
3065.59
2475.71
2082.08
1613.26
1265.9
1081
932.325
784.545
658.272
570.811
523.979
535.809
542.142
545.608
538.504
492.34
31627.5
10187.1
6990.64
4243.26
2899.16
2215.24
1851.65
1419.47
1081.86
893.168
756.02
632.259
554.609
498.705
466.999
505.253
514.212
528.143
528.788
503.387
17995.8
10135.9
7110.53
3942.58
2574.14
1968.2
1625.77
1340.34
1074.79
882.835
627.832
452.621
397.335
406.519
450.382
468.158
468.565
478.439
496.07
495.608
7841.51
9604.49
6689.42
3571.88
2698.27
2151.36
1983.26
1717.47
1311.67
996.96
726.721
565.272
483.595
446.826
423.765
410.338
412.162
424.387
452.854
483.871
12873.7
10240.7
8331.17
5538.8
3827.63
3097.83
2464.38
1892.33
1389.19
996.558
710.514
565.657
485.778
434.481
413.941
398.236
396.775
402.436
421.121
462.638
8305.09
9094.26
9020.1
7844.05
5373.76
3691.98
2626.75
1911.72
1374.4
1005.92
779.423
642.989
552.245
488.581
441.736
410.633
392.869
389.021
392.249
414.87
6911.01
8315.25
8839.9
7189.69
4884.44
3435.14
2522.43
1861.04
1369.62
1021.53
803.717
670.537
578.668
509.78
457.381
417.65
389.837
373.435
365.352
367.453
27321.6
15301.2
9342.44
6245.5
4328.05
2974.27
2072.66
1442.59
1133.6
915.383
777.997
676.213
602.614
541.438
490.871
445.653
410.263
382.987
362.885
351.228
17574.3
12002.9
9682.65
5885.22
4105.45
2719.05
1834.98
1294.52
1056.27
910.551
818.236
744.219
685.522
628.315
576.197
522.155
475.5
432.913
402.393
371.084
8321.49
10168.7
9260.49
5565.04
3803.83
2472.3
1774.28
1344.4
1137.5
1025.01
944.047
881.248
826.524
772.831
720.508
661.053
606.036
548.288
510.654
467.075
8828.16
7678.73
5612.55
3336.7
2810.05
1932.37
1621.66
1385.12
1240.79
1163.16
1059.64
981.035
914.357
854.452
793.715
733.036
691.977
647.267
622.245
577.735
2629.87
3118.25
2784.85
1771.99
1289.49
1032.93
897.444
805.221
729.339
655.374
579.305
499.235
432.543
377.005
333.602
287.227
250.693
213.815
198.866
174.387
14849.7
2336.51
1622.62
914.103
650.43
470.835
389.368
341.814
316.868
297.399
281.891
266.722
251.859
234.461
218.824
203.81
195.269
187.172
183.357
174.17
16186.6
11588.8
4730.99
2824.68
2003.47
1328.39
1453.09
1060.38
1216.17
1079.24
1163.77
1115.6
1151.57
1139.83
1162.43
1166.84
1182.82
1185.85
1186.92
1170.37
19300.4
11092.6
6858.81
3744.09
2936.46
1784.71
1889.06
1436.16
1490.31
1295.07
1308.1
1214.73
1216.53
1176.21
1177.75
1160.32
1157.34
1141.72
1130.41
1098.34
25706.6
14352
8353.79
4511.82
3381.97
2063.03
2140.11
1555.57
1591.98
1326.54
1313.73
1188.59
1173.27
1113.69
1102.21
1068.42
1055.95
1025.43
1008.91
966.322
18549.4
13634.5
11967.4
6690.69
4886.77
2764.38
2503.32
1870.49
1794.23
1516.95
1446.07
1259.86
1212.61
1113.57
1085.32
1030.12
1009.95
968.919
946.37
889.837
19131.5
13524.2
10954
6284.18
4604.36
2649.45
2464.55
1818.11
1694.65
1389.3
1322.15
1165.64
1121.41
1036.19
1006.94
958.091
939.101
896.739
869.394
803.334
13078.4
11912.7
9999.49
7018.07
5469.56
3248.1
2721.9
1943.7
1791.4
1448.32
1357.12
1164.89
1110.35
1016.64
989.489
940.885
921.336
874.63
837.99
753.024
6282.88
13366.5
10833.5
5621.74
4445.75
2872.68
2497.36
1937.72
1678.29
1408.28
1253.79
1071.11
987.731
909.44
940.163
908.402
893.19
855.004
811.821
712.948
32632.6
20756.3
9704.17
5031.71
3807.87
2884.84
2588.08
1940.09
1591.03
1371.09
1186.26
1031.19
934.627
872.648
872.032
879.832
868.557
843.518
806.34
714.101
48258.7
13943.3
8187.82
4855.03
3366.57
2442.36
2229.8
1768.12
1420.62
1155.5
964.463
833.244
833.769
839.968
851.648
860.757
845.663
826.103
799.411
735.344
11748.3
13731.7
9143.3
4522.21
3425.47
2368.17
2043.1
1680.85
1339.9
1033.32
823.654
674.191
693.663
789.884
836.497
801.677
783.087
779.176
776.398
761.423
7852.46
9670.5
8395.12
4325.29
3689.41
2769.68
2575.38
2012.38
1477.52
1098.02
864.507
761.097
773.102
768.775
756.774
721.558
711.082
719.528
744.933
772.875
13096
10823.7
10626
6122.38
5203.29
3705.35
2981.61
2082.66
1571.43
1140.57
952.039
823.997
766.174
702.26
706.482
678.447
677.325
690.346
718.348
764.534
8101.81
13106.9
12781.1
8707.79
6466.14
3868.35
2973.66
2051.93
1620.7
1209.45
1067.41
899.256
831.727
747.833
701.905
667.504
659.795
661.187
671.05
711.349
16738.9
12884.8
12098.4
7637.23
5984.88
3627.22
3006.26
2010.06
1671.87
1241.92
1091.37
919.767
844.804
756.967
704.706
661.686
640.729
631.663
629.962
644.351
33705.2
15389
12376.5
6599.39
5470.22
3115.31
2554.45
1671.84
1531.71
1216.34
1124.56
950.591
895
793.232
747.915
689.535
660.711
634.81
618.188
618.252
16371.1
13974.9
10892.8
6188.61
4888.56
2726.87
2270.79
1551.6
1489.49
1261.22
1195.13
1049.91
998.161
891.734
841.015
771.134
731.661
689.52
657.898
633.227
19890.4
12417
10939.8
5618.2
4620.14
2547.49
2327.2
1718.37
1667.19
1451.99
1397.15
1251.77
1204.19
1099.35
1044.14
956.29
903.047
843.189
803.991
761.912
11244.9
9171.69
6679.76
3629.69
3474.88
2220.09
2247.17
1909.73
1890.43
1706.42
1598.65
1375.86
1300.37
1203.31
1168.24
1109.81
1078.95
1027.98
990.316
919.04
2154.66
3115.65
2281.38
1548.28
1240.93
1033.79
906.426
795.774
691.586
587.815
499.462
411.785
337.252
275.725
240.272
211.333
194.659
173.402
163.469
140.582
662.908
778.455
582.992
859.137
761.668
844.378
636.341
552.402
528.191
408.042
728.457
633.832
560.589
409.054
614.081
994.16
798.795
871.575
608.259
983.427
785.5
440.488
728.734
551.135
537.78
421.592
725.331
588.177
170.809
234.797
136.564
792.812
682.516
858.583
742.954
91.9299
127.966
135.423
628.909
468.486
715.73
652.93
78.2548
133.42
111.573
448.742
467.276
622.207
522.187
92.2986
102.752
92.3555
482.423
488.717
489.717
426.883
86.1951
91.3355
83.3996
482.278
456.214
413.468
375.519
93.9087
80.259
74.4724
453.157
436.167
363.75
334.219
85.4961
74.7372
76.6233
421.336
350.109
327.805
312.463
46.1671
76.5154
50.5804
320.405
275.459
300.345
261.174
174.707
301.106
181.241
1025.9
844.806
1020.84
843.135
146.263
163.197
116.187
802.886
667.097
772.969
589.165
96.2533
109.082
115.715
615.105
475.525
554.855
514.067
87.4596
116.355
105.382
448.082
401.867
503.4
457.506
78.6928
100.869
81.8917
389.163
343.501
434.548
350.556
58.1734
76.9259
69.8784
327.27
280.879
329.735
262.043
65.3906
64.1478
44.9437
277.058
277.9
231.018
188.661
54.2811
44.7717
41.0664
274.681
253.897
185.942
186.038
133.713
189.991
128.618
834.701
742.935
672.7
772.528
115.457
130.32
128.495
706.219
610.69
780.575
756.973
128.499
124.968
113.023
600.993
584.861
735.641
669.44
112.338
110.414
107.376
572.499
506.047
652.481
579.85
80.5318
106.342
90.0695
472.989
357.248
545.232
385.421
67.095
74.8481
52.3374
331.866
274.676
331.85
260.669
46.5055
52.6194
52.1012
248.09
188.786
248.079
216.341
39.0391
49.4262
35.4659
182.217
180.706
208.535
198.883
138.947
320.395
243.02
669.54
780.338
796.671
897.389
132.33
227.473
197.711
792.86
789.864
911.758
918.615
115.572
196.39
175.94
773.058
688.377
900.884
789.402
107.048
172.708
144.58
665.202
591.999
741.647
613.306
92.14
137.488
92.7737
558.979
392.449
549.956
364.508
48.2994
79.94
50.197
331.554
245.834
307.365
226.445
48.4646
48.4334
45.6601
235.18
214.777
216.702
204.012
36.8275
46.3316
36.5149
208.545
200.353
198.963
191.463
886.542
1090.48
905.534
1544.73
1323.62
1475.41
1257.63
622.334
867.618
759.985
1230.43
996.679
1190.33
985.769
583.29
720.897
605.331
951.838
865.195
928.016
788.801
577.734
570.634
498.318
849.763
791.856
752.404
666.203
536.907
481.781
435.665
773.899
705.948
642.344
573.743
491.408
422.038
386.935
683.098
596.235
554.124
502.765
390.856
378.547
352.892
566.251
479.309
487.954
438.535
311.777
338.302
291.605
454.87
405.901
420.699
371.588
985.711
1199.14
955.407
1534.9
1265.24
1423.7
1165.32
763.6
878.2
688.348
1186.23
956.399
1089.97
900.674
557.209
651.042
592.531
890.791
740.249
857.116
756.326
468.453
576.982
517.172
705.369
622.811
736.888
596.675
395.992
487.89
392.739
597.396
520.03
547.821
426.93
333.002
368.312
284.785
497.631
449.219
392.029
301.544
318.862
256.204
216.745
438.849
405.08
285.116
268.473
280.549
212.941
204.658
391.102
355.814
266.857
264.84
873.831
898.082
942.229
1307.36
1144.06
1308.66
1333.06
720.293
945.113
909.892
1090.67
953.02
1319.46
1210.69
668.546
884.988
804.849
919.321
827.392
1165.79
1026.9
571.808
779.142
671.069
801.366
649.944
975.167
791.558
406.186
623.12
437.209
592.082
459.085
722.004
532.311
302.359
385.436
305.61
422.605
321.894
489.515
398.397
216.358
288.46
250.744
298.386
269.242
376.345
333.172
201.023
242.402
226.809
266.813
268.948
324.25
309.06
971.886
1138.48
1167.8
1393.35
1410.98
1649.09
1653.15
961.368
1171.61
1135.43
1398.46
1283.75
1626.6
1461.34
829.922
1093.25
938.573
1228.81
1063.08
1372.49
1145.03
688.488
884.039
714.822
1006.43
810.627
1062.39
821.341
440.158
636.05
421.638
734.354
526.004
725.174
507.692
292.148
361.893
275.466
479.344
392.298
458.426
378.287
250.055
262.795
241.56
372.968
334.298
361.246
326.451
228.214
235.247
217.195
325.392
308.313
316.441
292.079
1431.12
1570.36
1340.86
1981.91
1674.42
1809.37
1535.38
1083.69
1263.94
1036.95
1551.43
1277.92
1430.96
1157.72
929.952
975.82
833.883
1216.08
1073.47
1091.18
943.563
840.011
797.421
708.42
1042.33
939.802
905.708
806.61
737.904
682.61
608.281
907.036
799.126
775.642
686.716
617.286
586.934
530.592
765.824
666.405
661.095
593.901
501.34
513.881
459.963
637.32
562.624
573.911
517.897
428.746
441.937
390.715
543.761
499.977
501.809
456.502
1328.91
1473.83
1217.44
1786.72
1480.22
1609.39
1349.48
1000.49
1140.85
949.677
1375.41
1109.5
1265.84
1058.88
785.788
903.654
793.485
1043.67
896.514
1004.88
870.317
735.833
718.904
730.712
789.727
699.566
758.136
768.498
574.175
606.048
589.718
669.018
550.64
638.177
615.038
478.671
368.325
292.001
608.356
549.507
368.038
349.557
426.895
284.092
283.986
533.08
486.314
353.855
363.965
373.275
284.399
284.174
472.35
438.474
365.851
375.889
1209.58
1433.76
1432.58
1562.67
1367.68
1731.89
1651.08
1003.52
1406.7
1264.64
1297.15
1104.54
1580.77
1335.12
859.635
1211.42
1051.84
1050.64
907.379
1259.14
1051.36
865.048
770.807
893.912
847.389
855.278
698.062
909.348
627.674
502.738
679.995
466.367
622.984
421.105
682.064
311.484
510.683
420.487
390.858
356.529
554.056
476.786
285.434
398.782
356.422
356.601
365.339
458.855
424.909
290.082
347.696
330.361
368.691
381.892
418.295
402.759
1520.22
1820.11
1768.62
1874.42
1753.84
2180.37
1984.88
1337.85
1721.31
1504.54
1676.78
1398.94
1864.42
1525.95
1088.71
1405.81
1163.07
1312.34
1082.98
1412.3
1141.27
814.821
1075.86
822.062
1009.12
793.072
1047.47
797.383
544.205
727.912
526.411
727.595
583.519
722.551
572.425
416.768
481.776
404.771
550.093
477.764
538.357
471.3
357.823
387.239
349.79
460.54
426.053
453.676
414.264
329.065
339.461
311.306
418.059
398.28
403.067
371.671
1743.83
1891.89
1594.6
2434.3
1980.12
2202.11
1839.52
1331.42
1482
1198.28
1831.39
1539.11
1707.94
1407.29
1115.05
1130.63
979.671
1472.44
1308.05
1337.97
1160.65
968.006
940.193
835.374
1260.24
1118.74
1108.4
971.19
818.495
802.542
709.3
1078.12
957.231
931.758
827.799
685.909
682.652
614.17
920.952
832.068
801.182
752.457
587.964
594.46
542.178
810.27
757.027
744.24
720.116
526.95
527.672
484.06
741.834
697.337
709.837
670.487
1529.51
1662.65
1394.08
2104.55
1754.79
1900.29
1609.05
1148.02
1307.3
1092.7
1635.19
1356.36
1515.31
1279.09
932.166
1035.86
892.937
1286.42
1103.85
1207.83
1013.5
790.625
858.773
699.795
1051.11
917.173
958.403
815.178
658.535
634.216
476.922
877.348
771.716
764.776
629.818
571.278
438.632
397.777
745.188
701.492
598.519
559
510.939
396.523
400.709
698.282
691.626
564.459
610.396
466.313
403.575
413.175
685.913
658.52
621.246
628.612
1416.88
1832.68
1708.65
1895
1640.12
2202.76
1943.1
1132.98
1622.83
1344.99
1546.79
1300.09
1809.47
1446.77
921.27
1262.85
1043.56
1224.51
1017.08
1347.9
1085.35
689.939
974.157
781.197
957.433
804.325
1008.55
824.384
489.289
725.358
598.952
755.692
629.251
778.516
677.376
400.507
567.209
496.726
597.624
557.336
654.548
623.261
402.04
480.989
453.403
563.097
611.362
625.994
634.792
418.755
448.259
431.339
622.955
630.186
633.679
609.797
1813.36
2300.7
2032.05
2381.78
2047.31
2691.03
2214.41
1403.85
1890.49
1520.04
1893.46
1487.43
2015.05
1574.74
1072.11
1404.16
1127.71
1382.15
1108.06
1457.31
1162.81
786.816
1033.6
793.674
1026.88
832.553
1067.76
864.269
595.919
725.506
590.288
785.668
687.521
816.157
715.649
498.95
558.958
495.011
666.155
636.278
689.249
636.176
453.97
478.109
439.613
634.389
628.64
622.328
588.634
425.382
428.704
394.168
623.293
594.292
575.752
531.784
2094.18
2346.97
1974.19
3229.05
2664.89
2965.46
2627.84
1653.44
1839.64
1540.6
2483.75
2233.16
2499.56
2232.47
1424.56
1472.01
1277.14
2190.69
2041.21
2165.64
1907.31
1225.02
1217.91
1067.05
1945.21
1826.87
1824.46
1662.77
1067.38
1025.95
921.483
1800.82
1706.67
1625.39
1547.07
951.828
898.298
879.396
1660.26
1633.35
1547
1649.25
888.079
881.33
868.843
1624.49
1595.51
1660.01
1640.69
822.082
858.717
811.931
1567.36
1507.57
1628.46
1575.52
1887.42
2033.25
1743.33
2843.25
2558.77
2706.66
2467.57
1493.02
1649.86
1409.87
2455.1
2209.1
2382.99
2135.5
1215.4
1329.16
1104.99
2121.69
1833.19
2016.76
1685.43
1006.13
1039.76
884.981
1749.94
1584.14
1595.97
1424.76
857.264
835.941
706.067
1544.51
1462.17
1381.98
1276.67
821.071
677.564
668.155
1465.38
1603.27
1285.06
1476.26
844.838
694.553
777.545
1644.13
1639.33
1569.34
1633.88
802.09
788.189
780.332
1628.52
1564.09
1629.86
1580.05
1776.93
2385.74
2081.74
2770.64
2508.32
3168.02
2768.79
1425.15
1934.33
1551.85
2410.58
2140.56
2597.95
2211.21
1102.22
1447.26
1159.56
2016.94
1673.45
2095.96
1731.34
870.858
1076.95
891.432
1581.16
1407.81
1638.38
1480.63
702.183
848.414
755.496
1369.55
1278.12
1453.86
1402.2
666.149
737.771
743.687
1288.21
1482.41
1417.26
1580.88
778.645
763.43
787.536
1575.93
1639.88
1627.65
1625.29
780.782
785.778
749.241
1635.19
1575.16
1616.25
1556.17
2184.02
2890.17
2322.55
3412.16
2850.03
3665.4
2862.05
1584.54
2107.04
1656.69
2648.93
2219.94
2624.43
2220.82
1183.65
1542.62
1239.4
2122.26
1768.77
2127.32
1809.18
907.158
1144.13
955.761
1678.73
1531.46
1729.37
1633.47
776.507
916.543
827.386
1509.59
1462.69
1628.69
1562.87
764.89
802.907
756.05
1477.17
1605.97
1543.1
1529.09
774.978
745.253
711.918
1620.04
1598.48
1526.25
1483.48
728.116
697.866
643.856
1587.99
1527.8
1464.03
1396.03
696.75
690.939
626.259
698.879
664.054
728.808
654.716
726.12
731.835
729.648
807.617
696.246
768.639
695.934
648.229
591.325
652.617
475.683
648.094
568.286
564.866
768.924
825.442
825.86
831.527
793.367
801.381
799.002
730.42
731.625
794.278
722.385
762.979
687.951
762.991
759.47
827.122
829.003
794.964
800.715
711.269
791.701
679.762
486.525
670.785
720.945
597.702
581.193
735.245
538.199
578.775
483.635
581.748
515.667
609.239
506.356
456.598
542.536
474.579
417.97
492.728
510.163
365.422
412.431
419.448
432.827
342.088
452.95
390.257
338.014
604.774
699.933
694.966
680.143
667.655
646.307
638.16
567.498
608.633
663.406
564.655
637.2
534.057
600.011
477.944
415.087
608.496
498.112
533.747
357.068
550.487
426.017
317.405
461.557
453.657
401.883
324.715
500.382
802.784
688.127
739.918
520.312
800.582
595.414
740.638
899.819
949.48
932.952
998.475
894.862
956.508
933.76
838.943
774.406
867.319
797.607
835.982
776.947
866.212
859.735
854.908
798.39
911.312
703.727
912.807
856.544
795.595
513.299
696.071
738.058
591.956
735.054
795.622
896.529
993.246
949.126
915.887
954.774
926.507
889.791
835.285
792.015
771.037
849.459
774.345
858.862
829.728
580.844
464.189
525.655
381.605
571.173
407.185
535.803
657.972
711.332
660.62
729.521
650.408
715.513
665.923
607.612
550.264
600.352
565.86
596.259
564.1
611.195
628.237
456.23
481.632
684.087
408.765
679.04
634.358
586.55
360.987
443.678
556.541
393.902
545.508
593.111
662.132
727.529
715.793
672.319
715.716
669.336
665.767
615.412
577.785
582.617
626.981
574.229
619.693
621.584
389.381
469.802
352.828
832.662
806.566
712.055
659.158
277.052
277.362
219.396
738.374
615.174
566.907
471.098
190.001
176.217
151.053
534.236
457.135
409.962
374.922
136.953
145.164
143.379
415.608
393.858
374.881
378.928
128.314
142.796
143.66
397.574
402.335
388.221
403.762
128.629
146.334
148.493
401.199
386.879
410.368
403.397
104.989
145.759
131.659
342.309
302.279
373.612
319.737
72.3005
115.137
84.1981
263.12
272.916
263.406
265.523
410.304
530.19
379.08
881.062
774.187
949.766
806.781
332.658
232.013
266.696
394.488
356.123
365.377
212.843
210.88
131.474
130.343
257.356
224.965
248.768
111.457
226.287
73.5913
86.6914
156.367
158.963
199.321
90.2403
276.324
87.4719
108.286
218.067
239.318
278.329
107.537
260.112
91.1274
102.629
253.85
250.486
265.011
100.211
247.097
86.9634
96.6035
246.149
251.597
248.736
95.9783
240.576
94.3355
96.2152
265.113
259.579
245.954
94.9017
175.513
64.403
82.1966
193.36
170.038
199.979
71.4873
91.8522
102.741
87.8031
235.195
251.189
225.849
232.366
483.26
621.404
498.725
1150.77
1046.81
1121.75
1047.25
490.627
229.432
293.054
477.971
460.514
495.698
237.306
436.619
159.412
174.406
428.1
421.076
455.073
165.892
283.116
117.801
113.719
354.262
311.533
308.412
103.882
236.792
89.2907
90.4572
247.472
239.346
242.561
88.944
220.74
85.3385
87.4198
225.905
220.033
226.237
86.3763
175.448
69.3648
75.8998
190.71
175.422
190.697
71.2594
115.873
56.6349
50.9757
142.411
144.952
118.555
48.8619
146.086
68.6316
58.3684
166.617
166.003
142.512
61.5147
81.7965
86.843
67.2317
202.431
211.006
173.072
180.617
384.286
460.913
313.613
800.922
761.111
685.277
615
344.856
188.42
229.996
383.245
376.788
360.571
172.925
362.544
118.647
120.348
357.254
347.547
348.77
122.67
362.297
125.026
130.186
334.679
342.31
366.847
130.729
332.724
124.342
127.322
339.448
329.375
344.189
123.552
260.738
99.7577
108.524
275.319
255.252
283.327
102.602
161.265
68.5076
70.9135
177.514
172.113
169.631
64.8317
148.253
60.6146
62.7714
158.977
137.666
158.771
61.3448
101.877
44.0221
45.8207
101.147
101.189
106.322
43.7548
59.1337
70.8649
57.0295
161.328
174.541
166.392
180.266
289.598
451.179
350.368
575.951
525.801
637.641
594.666
297.004
160.491
198.231
292.817
300.351
292.313
168.67
358.661
136.666
144.56
351.918
360.895
344.19
143.758
366.75
126.107
140.381
351.553
338.207
370.2
139.183
302.754
109.014
123.78
296.954
292.105
317.163
118.14
276.389
104.204
109.407
285.61
276.858
285.979
106.619
141.232
62.7882
77.6845
177.672
142.861
177.241
63.1789
114.194
47.585
45.0212
121.47
122.789
113.102
44.9764
116.177
46.9698
46.4145
119.622
116.832
116.982
46.4036
63.0639
71.5152
58.6812
168.675
178.331
157.053
159.118
450.721
602.394
474.072
853.465
847.668
914.67
948.506
353.383
440.542
427.457
851.296
846.895
938.796
912.287
307.339
404.032
358.075
820.268
755.248
817.855
738.577
224.795
304.923
242.541
676.948
549.798
582.108
465.259
135.241
192.408
138.171
423.367
308.455
352.799
274.867
79.8215