/*--------------------------------*- C++ -*----------------------------------*\
  =========                 |
  \\      /  F ield         | OpenFOAM: The Open Source CFD Toolbox
   \\    /   O peration     | Website:  https://openfoam.org
    \\  /    A nd           | Version:  10
     \\/     M anipulation  |
\*---------------------------------------------------------------------------*/
FoamFile
{
    format      ascii;
    class       volScalarField;
    location    "3.3";
    object      nut;
}
// * * * * * * * * * * * * * * * * * * * * * * * * * * * * * * * * * * * * * //

dimensions      [0 2 -1 0 0 0 0];

internalField   nonuniform List<scalar> 
12920
(
2.41043
10.1906
5.7512
7.98688
3.68791
3.63742
1.91573
2.51447
1.58793
1.53986
0.995947
0.862584
0.703591
0.644814
0.572358
0.524427
0.479911
0.436665
0.421258
0.363027
8.41026
16.0074
11.3745
7.54347
5.46043
5.54689
4.13237
5.09381
2.97596
2.5936
1.7464
1.63925
1.35328
1.29108
1.18723
1.17034
1.12395
1.11721
1.1389
1.03629
16.8328
13.8748
10.7918
9.267
7.29891
5.90281
3.52033
3.77681
2.41774
2.43498
1.84589
1.71615
1.41369
1.31396
1.19953
1.14791
1.07895
1.03176
0.999855
0.891877
2.66991
11.2644
10.7651
8.74957
7.2445
6.14749
4.36735
4.68286
3.01167
3.09621
2.22975
2.05443
1.6487
1.46231
1.26163
1.18735
1.11229
1.06156
1.04768
0.924868
16.756
17.2766
14.8953
11.7163
9.6367
8.90588
6.39136
5.27131
3.36007
2.84199
2.15605
2.00292
1.69074
1.52601
1.32212
1.22041
1.12996
1.07234
1.06562
0.93964
10.7583
21.03
17.4034
12.2046
9.15406
7.71483
6.22921
5.24388
3.5635
3.30272
2.43406
2.25497
1.88591
1.7085
1.46905
1.3196
1.20314
1.1125
1.09181
0.932885
6.40675
10.843
10.2907
9.62545
8.86044
7.94333
6.20201
5.05043
3.17247
2.68699
2.13875
2.01716
1.71224
1.58973
1.39258
1.28004
1.17824
1.08582
1.04654
0.885707
12.6587
7.09858
10.9269
8.74177
7.28689
6.50149
1.98198
1.54514
0.970568
0.649842
0.489318
0.504086
0.497518
0.429583
1.55735
1.3585
1.20572
1.06314
1.00936
0.860424
13.0333
14.1198
11.5634
9.36241
7.13967
2.47106
0.529381
0.286138
0.14754
0.140134
0.143689
0.134047
0.157804
0.139473
0.454332
1.29052
1.03663
0.922844
0.893868
0.81348
1.47822
4.69222
7.3907
8.13123
7.53974
2.83647
0.723051
0.337726
0.240478
0.188195
0.179895
0.148502
0.106014
0.127066
0.387258
0.954895
0.798928
0.757405
0.780184
0.802598
2.25362
6.10347
4.29439
7.62315
4.65308
1.84508
0.493452
0.284122
0.239044
0.20555
0.160673
0.115082
0.114026
0.0856338
0.282682
0.930899
0.808633
0.793095
0.835966
0.862106
4.43405
11.2663
8.56447
8.47443
5.13113
1.96229
0.42072
0.20963
0.170053
0.145366
0.145912
0.123654
0.0986769
0.107666
0.34218
0.955053
0.778128
0.752547
0.794213
0.813535
0.749344
9.44552
9.08189
10.3182
5.39277
4.08767
1.14043
0.900491
0.847453
0.729011
0.539085
0.375554
0.317968
0.316382
1.0092
0.834168
0.738844
0.694018
0.718362
0.712084
2.29446
4.14839
4.75607
6.50264
5.423
5.09343
4.08537
3.65821
2.98272
2.48743
1.82922
1.45842
1.17493
1.04996
0.920702
0.83836
0.745289
0.681139
0.672813
0.63074
0.747155
7.6035
6.36078
9.10778
5.36246
4.33603
3.31468
3.27027
2.98594
2.79997
2.07241
1.63219
1.29754
1.14574
1.01675
0.898311
0.786766
0.709763
0.671912
0.573322
1.78413
6.33028
6.19205
7.41719
4.51931
4.5922
3.65874
3.39768
2.56004
2.31987
1.80644
1.58373
1.31781
1.20813
1.02828
0.900948
0.781237
0.700205
0.676308
0.562689
8.45654
9.52178
9.35094
9.30202
6.38397
6.57407
4.43719
3.55976
2.33249
2.01919
1.63576
1.53169
1.34685
1.2508
1.08471
0.929263
0.805217
0.720248
0.705072
0.598784
2.80189
10.2447
9.71005
9.44031
6.16295
6.39052
4.25937
3.34588
2.13847
1.86747
1.53051
1.44545
1.27203
1.18906
1.06687
0.961468
0.851613
0.760186
0.744313
0.647855
4.20942
10.0539
7.74969
7.64789
6.31437
6.47833
3.73032
2.94466
1.89164
1.695
1.47307
1.47177
1.3495
1.26156
1.1243
0.974753
0.841611
0.751119
0.697922
0.609545
0.0582593
6.31265
3.6965
4.26344
2.24683
2.66912
1.84488
1.5908
1.19411
1.05209
0.891624
0.799959
0.690698
0.597595
0.508381
0.444672
0.392221
0.341819
0.321261
0.267567
15.0478
49.8238
31.9854
27.0934
17.3223
15.3981
11.3143
11.9967
8.30218
7.29586
4.76323
4.71245
4.12656
4.07323
3.76543
3.65038
3.46667
3.37419
3.28689
2.8671
25.4989
37.2766
35.3206
30.376
22.106
22.2488
19.155
16.4891
10.6407
10.1216
11.1886
12.8478
13.7603
14.3923
14.7279
14.8903
15.0538
15.2289
15.4385
15.4046
29.2814
43.1036
41.8447
30.8623
22.6912
20.6448
13.4096
12.2552
11.5064
13.2299
13.5746
13.6907
13.4381
13.7952
14.2055
14.3726
14.3969
14.1628
13.9687
13.8273
14.6817
42.9572
49.7096
38.1196
24.1857
20.8324
16.655
17.1614
15.7361
16.8864
15.9182
15.6537
14.5165
14.0722
13.7489
13.7985
13.9664
13.8097
13.8106
13.4687
45.7676
46.5249
47.7773
49.2303
42.6376
37.9286
29.4628
22.5348
15.3705
14.9531
15.6421
16.493
15.9134
15.3837
14.5142
13.9855
13.9077
13.6917
13.7845
13.3549
56.8525
52.5876
46.6462
46.3777
40.8483
34.4489
26.4399
22.9548
19.2328
17.8409
16.9901
16.8035
16.4804
15.8621
14.976
14.2996
14.1077
13.6582
13.4567
12.8048
37.1783
49.2197
46.8012
43.4217
40.4517
36.5538
28.5857
22.6812
17.7462
15.6876
15.3714
15.4623
15.3144
15.29
14.8416
14.2737
13.8202
13.352
13.0936
12.3805
72.9908
59.8504
55.39
38.2968
31.1083
28.2083
21.1621
17.1667
14.0271
12.5012
12.8032
13.53
12.6658
12.1891
14.4942
13.6527
13.2193
12.8946
12.6365
12.1499
39.3372
53.786
44.8633
37.8154
29.0982
20.946
15.5096
12.0479
9.51207
11.2787
11.8234
11.7707
12.1617
10.755
12.264
12.2548
11.8154
11.8004
11.9557
12.0395
12.7215
34.8129
36.7819
33.4941
30.3045
23.6005
18.1591
16.3849
13.9559
13.3768
13.215
11.2092
9.95277
10.5996
10.046
9.86256
10.109
10.4459
11.4131
12.2334
6.3806
20.5647
26.3973
29.541
21.3791
17.5254
15.1374
15.0615
14.9162
13.7814
11.3391
9.25385
7.96876
7.41444
8.72161
10.2241
9.91437
10.6006
11.2766
12.2624
34.1116
40.4854
35.1283
24.6337
14.9731
12.3238
13.4452
16.4528
15.4121
13.1614
11.7146
8.35402
9.67852
10.0109
10.4642
10.3753
10.1962
10.4985
10.9175
12.0002
6.85437
44.672
42.1065
34.241
23.6031
24.1479
19.9429
19.3078
17.9755
15.2076
10.666
8.62913
9.68257
10.201
11.0113
10.2108
10.0464
10.2639
10.5621
11.4054
9.86411
28.0824
31.9418
39.291
38.7755
33.0304
29.1644
26.7604
22.1574
16.0429
12.0989
10.9125
11.2954
11.4799
11.347
10.8505
10.3834
10.0672
10.3171
10.5415
8.42652
24.6546
33.5149
41.1415
34.3922
27.7229
23.9271
25.0284
23.3898
20.2601
15.0665
12.5809
12.264
12.5454
12.2422
11.5521
10.8715
10.376
10.1681
9.72998
16.0016
34.6084
36.6671
40.1678
32.8462
29.5084
24.1627
22.2884
19.9193
18.5923
16.1538
15.0296
14.1428
13.5215
12.6202
11.7949
10.986
10.5084
10.2676
9.68938
42.1251
51.6139
49.4444
43.4624
36.2359
32.7237
24.8558
17.5997
14.9471
16.0254
16.4864
15.9296
15.0968
14.3475
13.4071
12.1846
11.0117
10.608
10.7529
10.3381
19.5631
43.3084
53.0773
44.1633
36.2751
31.7472
22.755
16.0728
14.9832
16.7145
17.1646
16.8284
16.1296
15.4321
14.6534
13.7357
12.7827
11.9305
11.8264
11.4448
7.35839
33.5764
36.2791
34.7833
30.7103
25.077
17.452
14.6934
15.0544
16.486
16.6863
16.6329
16.2523
15.7152
14.857
13.8779
13.2189
12.5896
12.1196
11.81
0.181436
20.1762
28.2022
21.3723
14.0703
15.0318
8.73458
8.02536
6.43522
6.31433
5.61703
5.30702
4.67627
3.94704
3.33065
3.08652
2.9479
2.67762
2.52999
2.06582
4.56768
27.2075
32.0484
16.6245
18.2766
14.8419
13.2709
11.7028
10.0963
9.76346
6.75096
6.76421
5.70917
5.56255
5.03921
4.77118
4.44865
4.16693
3.99775
3.34452
32.4947
51.279
49.2382
39.1559
30.5587
27.9749
23.0999
21.3011
18.9364
20.0901
20.8067
21.5301
21.566
21.7042
21.7413
21.8424
21.9455
22.0212
22.1458
21.9684
28.5735
60.5116
58.9797
44.3459
34.6431
30.4527
23.7339
23.7108
23.2517
24.2817
23.5999
23.4377
23.0564
23.1546
23.1019
23.0307
22.8306
22.4577
22.2254
21.7928
5.67134
59.5229
67.3168
54.169
39.5417
34.0064
30.0024
29.6745
27.9449
27.4504
25.663
24.7255
23.5595
23.1163
22.7813
22.5523
22.297
21.7692
21.5008
20.7618
21.0955
53.8669
67.3185
70.5926
59.9104
50.483
38.1734
32.0005
27.6554
27.5104
26.7726
26.0867
24.741
23.8215
22.9802
22.3489
21.9179
21.2679
20.9751
19.9508
35.8322
62.9247
70.3914
68.9823
59.142
48.8801
39.0958
34.7989
30.9514
29.095
27.3933
26.2334
25.0629
23.9127
22.8829
22.0385
21.4729
20.623
20.1144
18.8751
41.2586
70.9057
68.8596
66.0285
60.3003
52.6579
40.934
34.1492
29.1964
27.2145
25.9225
25.0564
23.839
22.9626
21.9889
21.2275
20.6626
19.9047
19.3908
18.0384
86.1821
82.7115
75.6067
59.8601
50.2635
43.8293
36.5693
29.2432
25.9411
23.6345
23.2258
22.6836
21.3719
20.2035
19.213
18.7672
18.668
18.6439
18.4114
17.4836
48.7423
72.3588
63.342
54.185
45.2121
38.7331
32.3814
26.158
22.3545
21.8287
20.5872
20.1418
19.6007
18.3516
17.1943
15.2163
15.6872
16.5802
17.0771
17.2291
47.7009
59.436
55.3898
49.5761
44.2114
39.4984
33.4294
28.2879
24.2329
22.4588
19.5721
16.4241
15.7548
15.5137
12.8743
12.9584
13.8521
15.2666
16.5373
17.2191
29.9511
28.004
46.9188
40.4206
37.7329
33.0373
29.509
26.9638
24.4391
18.2606
6.52778
7.08762
7.45567
9.55534
12.7079
14.0335
14.5156
15.3772
16.5975
17.4798
52.9209
61.092
57.6903
43.9121
33.7019
29.381
29.1456
29.8301
25.9423
22.2197
18.6797
16.4936
16.4762
15.7939
15.1449
13.978
14.4628
15.1141
16.1139
17.6019
31.5113
60.9612
57.9146
53.0477
43.7952
42.67
36.2531
33.1147
28.406
23.1509
18.7215
17.2757
17.1559
16.3726
15.4756
14.9703
15.1235
15.365
15.7891
17.1136
29.1405
44.9778
47.3936
56.1972
57.1493
49.4304
42.6784
37.3292
30.3508
24.2833
20.9131
19.8697
19.1547
18.3351
17.2971
16.3717
15.7161
15.4562
15.5149
15.9174
11.1853
37.7928
48.15
58.7501
51.9325
44.3934
39.2287
37.4907
32.2881
27.3939
22.851
21.0469
20.142
19.2662
18.1237
16.9794
16.0215
15.3625
14.9624
14.6848
22.823
52.0317
53.9458
57.321
49.3364
44.6849
37.9466
34.1041
30.1289
27.2155
24.3471
22.6919
21.1392
19.8785
18.5692
17.4162
16.3802
15.5552
14.9897
14.2318
31.8744
70.7803
65.4955
60.1854
51.6274
45.3108
34.6614
29.1709
27.024
26.437
25.0905
23.6823
22.1785
20.8737
19.5703
18.2779
17.1843
16.3215
15.8252
14.7946
23.7866
62.832
68.1145
60.8549
50.7177
42.6386
32.05
27.9382
26.7132
26.3246
25.1957
24.1823
23.0483
21.9836
20.9056
19.8152
18.8179
17.7918
17.263
16.1868
45.1132
49.4584
53.3405
47.6686
42.6769
35.2766
28.7362
26.3756
25.0403
24.2489
22.8558
22.0053
21.1548
20.285
19.2908
18.468
18.1082
17.5398
17.2995
16.3661
2.86885
32.1162
29.5042
26.0408
19.925
17.1673
12.7216
12.1002
9.28841
8.63149
7.27599
6.52748
5.54555
4.82339
4.31324
4.04678
3.80015
3.4055
3.18406
2.61433
13.2234
15.5727
23.4214
13.3763
17.2016
13.6652
12.2711
10.9181
10.3064
9.8283
7.592
7.38004
6.07633
5.68256
4.96147
4.52657
4.12534
3.75236
3.59766
3.09695
28.0315
57.736
53.6586
38.6768
32.5428
27.9389
27.1123
25.6656
25.0302
25.0759
24.0312
23.7507
22.9458
22.8069
22.5551
22.6877
22.7572
22.8518
22.8546
21.7742
31.0054
74.141
67.1985
52.0669
43.1546
37.131
33.8279
32.4079
30.7818
30.0484
28.396
27.7155
26.5762
26.1939
25.4448
25.1121
24.6653
24.2618
23.9519
23.4634
39.615
73.1587
80.2652
62.2091
50.78
42.7528
40.1215
37.2534
34.7797
32.6986
30.233
28.8944
27.4816
26.7082
25.7824
25.0411
24.2492
23.4408
22.9649
22.1304
41.3406
72.5963
85.2797
80.8511
66.8339
54.7344
45.1913
40.5931
36.4682
34.5099
31.9525
30.0179
28.2171
26.901
25.6934
24.6563
23.6595
22.6465
22.0336
20.8384
36.8826
72.7362
88.5753
81.729
67.4195
54.8827
46.5398
42.2743
37.8749
34.9161
32.0289
29.8491
27.9455
26.404
25.1547
23.9629
22.9411
21.7683
21.0316
19.5042
71.0722
82.2033
83.4623
79.5288
70.0838
59.262
47.8662
42.0506
36.6563
33.8271
30.6698
28.5637
26.2821
24.7577
23.3577
22.5095
21.8272
20.9007
20.1838
18.4411
47.7969
64.1765
86.5791
72.4086
60.7573
52.5313
45.6971
38.4153
34.6145
30.8529
28.7838
25.9479
23.5013
21.2801
18.6249
19.237
19.6556
19.8905
19.4906
17.9924
28.2255
76.2795
77.3615
66.1983
56.0676
49.9843
43.6601
36.0322
31.2191
28.0543
25.4815
23.4285
21.2107
18.931
16.1846
15.647
16.9751
18.1889
18.6259
18.0836
77.0736
72.5912
71.1816
62.1725
53.7997
47.8369
42.0679
34.9476
29.3532
26.0465
22.4118
18.8556
17.1159
15.3789
13.1527
14.2296
15.6522
17.2813
18.1199
18.5345
56.4934
71.2815
67.2131
60.4854
49.6656
43.6173
38.5077
33.4008
28.6728
25.214
11.409
9.05031
10.123
11.8108
13.3357
14.119
15.3352
16.6012
17.7917
18.5955
15.0029
64.8385
71.1706
57.9333
48.8361
43.0769
40.5483
36.6854
30.8484
26.0908
21.8111
19.0167
16.8222
15.3723
13.9082
13.5171
14.7202
15.8021
17.0943
18.4348
39.2948
71.531
70.6177
67.8327
57.8121
53.3498
46.673
39.7828
33.345
27.2456
22.8503
19.9187
17.8701
16.2059
14.7382
15.1427
15.5559
15.7819
16.4071
17.7818
26.3446
61.5991
65.8215
72.206
66.3373
57.9792
49.1272
42.2225
34.5848
29.2819
25.4424
23.3014
21.0996
19.3763
17.782
16.8069
16.0698
15.8364
15.8122
16.3126
23.6517
60.9298
68.1014
72.7823
63.0375
55.3906
47.7494
42.4422
35.7509
30.6571
26.6206
24.2043
22.1928
20.3267
18.578
17.2327
16.1239
15.3935
14.9886
14.8421
79.129
74.701
72.7912
71.1311
61.0496
53.9453
45.1546
38.9044
33.7454
30.195
27.0109
24.6881
22.5074
20.8716
19.1986
17.8063
16.5369
15.5162
14.7419
14.1739
61.9572
81.0558
78.091
70.5576
60.5115
51.4941
40.983
35.4027
31.8413
29.6544
27.2181
25.4278
23.6055
22.157
20.7307
19.3278
17.9203
16.5559
15.6424
14.4999
43.1367
72.1538
75.7016
68.8741
57.5319
47.6597
38.5515
34.0549
30.7333
28.778
26.6171
25.4118
24.1344
23.1075
22.0595
20.9391
19.7304
18.3027
17.3315
16.0494
36.1165
57.2914
58.3855
51.1421
46.4762
39.0661
33.7121
30.5139
26.8182
25.218
23.0459
21.8802
21.0118
20.1137
18.5803
17.4354
17.1829
16.9595
17.3566
15.6724
6.77778
20.6755
22.1229
23.6875
20.1573
18.0268
14.6689
13.9435
10.5495
9.49594
7.7503
6.63454
5.46589
4.64792
4.16705
3.8701
3.64967
3.31358
3.15733
2.58617
43.4283
8.98922
9.14924
8.38316
5.11077
10.0149
4.47571
10.374
4.14688
5.26889
3.14301
3.07639
2.45565
2.27455
1.99788
1.85785
1.75217
1.71407
1.72483
1.53265
26.2874
56.4314
49.727
20.0248
29.5397
17.6627
25.206
25.5052
23.3923
22.8585
21.4849
21.0883
20.5154
20.3741
20.189
20.1962
20.1406
20.1528
20.0487
18.257
67.5186
75.8727
69.107
30.9598
43.0313
34.9236
34.6353
33.2138
29.4711
27.994
25.7177
24.8055
23.7334
23.26
22.7685
22.4889
22.1608
21.8197
21.4866
19.8639
86.7393
84.074
81.5746
55.4782
51.0828
38.0635
39.819
37.6644
32.6729
30.6739
27.4295
25.9464
24.3243
23.4015
22.603
21.9381
21.4006
20.7518
20.3102
19.0096
59.3962
72.3148
93.9259
83.8932
63.1853
51.5649
44.076
40.4328
35.1598
31.9935
28.6138
26.0575
24.4554
23.034
22.2159
21.2769
20.6833
19.8522
19.2961
17.4504
36.5645
94.0258
95.8633
86.5349
65.0651
53.4316
45.3194
42.4092
36.539
32.6178
29.015
26.2402
24.349
22.6834
21.7447
20.6414
19.944
18.9552
18.2
16.2146
33.6389
68.9426
88.8761
79.6333
69.0535
56.4401
46.6145
41.1566
35.4584
31.309
27.4985
24.5951
22.7354
21.2657
20.5699
19.7639
18.9287
18.064
17.3183
14.5225
13.6391
70.9189
80.7813
49.4808
56.0665
51.6455
46.3672
40.3373
33.9448
29.4788
25.1161
21.8287
19.6316
18.1521
17.6513
18.1708
17.8461
17.163
16.4703
13.707
85.6263
87.9746
78.2995
64.7404
52.8679
49.4886
42.6888
34.4095
28.2569
24.3682
21.1663
18.4781
16.5728
15.3334
14.6396
16.1971
16.1478
16.0927
15.6022
13.3855
101.396
42.7389
70.976
38.9652
48.3383
46.9872
39.2591
29.4297
23.8172
19.7349
16.708
14.303
13.5577
13.5202
13.6297
15.3806
15.2477
15.4971
15.5593
14.1397
23.3257
38.892
49.9996
52.3051
33.0114
41.6712
35.1144
27.7433
22.5633
18.9293
15.4875
11.8852
11.1092
12.4837
13.458
14.7561
14.5057
14.964
15.5594
15.0244
17.3849
56.543
48.6137
57.1632
45.1151
44.9142
38.37
31.6294
24.9306
19.6217
15.5354
13.3947
12.9045
12.86
12.6774
14.0387
13.959
14.5344
15.5383
15.2994
38.1111
75.539
50.7871
69.9719
37.3882
39.8345
44.6841
37.8447
29.1068
23.1193
18.6267
16.1891
14.65
13.649
14.0711
13.4441
13.6303
13.8436
14.8303
14.6929
15.5902
46.7928
53.9908
79.1497
49.4091
53.7347
41.5659
32.3977
27.1358
23.3142
19.3807
17.023
14.9835
14.1802
13.2973
13.2339
12.9913
13.1634
13.7226
13.4302
66.1918
78.1393
78.4574
77.4128
55.5406
52.5764
35.0261
31.6826
24.7218
22.71
19.4624
17.6099
15.3423
14.3644
13.6202
13.1138
12.6137
12.5168
12.7041
12.0406
103.512
87.843
59.5904
75.4081
43.3632
49.5879
31.2001
32.8379
23.1934
23.3393
18.8932
17.9859
15.5493
14.7655
13.6249
13.034
12.3003
12.1082
11.942
11.1712
42.4615
89.4227
84.6247
73.9607
55.376
46.5011
31.2168
31.1599
22.1654
22.9894
18.9504
18.8664
16.8297
16.056
14.8307
13.9764
12.9755
12.4537
11.9612
10.8655
74.5674
78.9341
75.4393
69.4009
43.4952
42.6916
27.939
30.6693
21.3687
22.423
19.1103
19.1114
17.4277
16.8834
15.9039
15.0427
14.0902
13.6236
13.1613
11.5871
67.5677
63.2098
60.5531
50.0368
37.365
35.8974
23.6583
25.5109
18.3883
18.0292
15.6407
14.5145
13.7068
13.6552
13.637
13.5552
13.1621
12.7585
12.3374
10.4461
6.42745
31.223
11.3214
19.5206
7.72362
9.30945
5.53895
4.98017
3.66618
3.11832
2.55567
2.18332
1.83349
1.62975
1.48881
1.38941
1.30533
1.17695
1.10872
0.862263
20.4536
22.0344
8.72824
25.8668
23.0349
24.8376
8.56714
17.0218
7.89136
6.973
21.9419
19.0764
7.37017
6.19235
7.28053
22.1146
19.6674
24.9823
6.30238
25.5587
22.5675
6.55263
18.7129
16.6694
5.54121
5.52703
21.5861
19.449
0.312759
0.564186
0.298549
9.12064
8.75132
11.3161
11.5156
0.171321
0.273447
0.255618
8.17262
6.47866
11.3724
11.2289
0.134712
0.243384
0.202534
6.47737
7.96365
11.0331
10.5187
0.144186
0.195103
0.187006
8.49472
9.31773
10.5234
10.8166
0.131705
0.186333
0.166501
9.29409
9.21387
10.7928
10.0766
0.151615
0.157715
0.135356
9.37155
9.98882
9.744
8.94857
0.151501
0.133756
0.136798
9.84356
8.77315
8.81872
8.86764
0.0943652
0.139132
0.0993384
8.22574
8.75348
8.63656
8.3604
0.371837
0.694879
0.357448
12.7987
12.8417
11.9829
11.771
0.264975
0.317333
0.238699
12.6658
11.4247
11.3112
10.8122
0.19309
0.225773
0.219895
10.9101
10.3648
10.9175
11.1753
0.181451
0.21186
0.175872
10.4484
10.6087
10.8821
9.63493
0.158706
0.165761
0.13312
10.5068
9.41457
9.18522
7.9053
0.110376
0.125416
0.118229
8.91807
7.65916
7.64329
6.58387
0.122014
0.111539
0.0851601
7.64217
8.4614
5.93195
5.7415
0.104596
0.0860028
0.0771464
8.49057
8.38114
6.00906
6.67856
0.296209
0.451636
0.262019
10.3352
11.3625
8.82746
12.3683
0.245144
0.237727
0.183959
11.4714
11.5268
12.6862
12.1768
0.216294
0.172467
0.149133
11.7952
11.5839
11.6868
10.5247
0.170508
0.145718
0.146044
11.1964
9.74019
10.3483
9.78262
0.126532
0.147484
0.137149
9.17702
7.6116
9.47693
7.10429
0.113501
0.120197
0.101317
7.37895
7.027
6.47989
7.27144
0.0883503
0.105862
0.110206
6.55893
5.7674
7.60957
7.648
0.075462
0.104058
0.0737387
5.89769
6.51728
7.50996
7.57783
0.231046
0.469204
0.314878
8.43973
11.8625
8.6923
10.8766
0.176321
0.29082
0.245736
12.3268
12.2464
11.4266
12.0698
0.150062
0.244468
0.22147
11.843
10.4337
12.0023
10.9046
0.144204
0.220702
0.194152
10.1504
9.59383
10.5031
9.11461
0.139732
0.190854
0.146824
9.35114
6.97479
8.42841
6.14777
0.0959869
0.133261
0.101759
6.22945
6.86373
5.60328
5.80226
0.108043
0.102255
0.106442
7.31018
7.84397
6.24422
7.19819
0.0841765
0.107613
0.0856638
7.77376
7.82829
7.25819
7.74165
12.952
17.1275
15.6853
28.2858
24.5469
29.6843
26.4189
9.57914
15.2482
14.3816
22.9698
19.6762
25.267
22.7848
10.8454
14.122
13.4902
19.3592
19.4985
22.2172
20.957
11.8845
13.4688
13.6357
19.5049
18.9821
20.7023
20.0143
11.5856
13.5574
12.6319
18.6802
18.2925
19.5919
17.9428
12.2827
12.2481
11.3352
18.3609
18.3632
17.4765
16.6126
11.1677
11.205
11.1885
18.1474
17.3018
16.5131
16.1867
11.1084
10.9463
10.3118
17.0328
16.9535
15.9395
14.901
16.8665
16.7987
15.2884
30.144
26.8478
27.5392
24.9089
14.5412
14.7011
13.9846
25.7105
22.7047
24.0773
22.2773
13.3543
14.0496
13.9171
21.9768
20.7946
21.9559
20.4111
13.4112
13.508
11.947
20.5892
19.3445
20.0926
12.8954
11.7711
11.3347
9.65745
18.6571
16.2956
11.6462
9.51114
9.96489
9.29701
7.91071
15.6639
14.7667
9.07397
8.01144
10.655
7.34538
7.25229
14.7969
14.9641
7.96298
8.75812
10.1213
7.46948
7.68546
14.7986
14.1246
9.07234
9.7988
15.1649
13.7911
16.4045
26.1141
24.9543
25.3051
26.7778
14.8084
16.6259
15.7608
24.3756
22.9058
26.6033
24.3246
14.2792
15.1421
13.6326
22.4654
20.5871
23.402
21.0037
12.0154
13.298
12.3082
20.1308
12.9847
20.3194
18.1491
9.51735
11.8104
9.10324
11.8378
10.0392
17.2356
14.9907
8.49045
8.67799
9.57965
9.84399
8.69554
14.8817
15.0122
7.29526
9.83518
9.77585
8.50482
9.02155
14.9169
14.5008
7.60836
9.64703
9.31092
9.37033
10.255
14.361
14.1707
16.0678
14.8666
16.1235
25.0595
27.1145
26.9077
28.5005
16.0128
16.5466
16.6019
27.0318
24.8522
28.4063
26.2199
13.5826
16.2536
14.4911
23.822
21.0903
25.0676
22.0361
12.1752
13.9518
11.8698
20.3678
18.1495
20.9669
17.7794
8.88196
10.9673
8.25307
17.1755
14.8225
16.6634
14.4056
9.26043
7.78376
8.30859
14.7186
15.2484
14.2779
14.8958
10.0947
8.81822
9.66764
15.2983
15.0292
15.0888
15.1382
9.61328
9.73077
9.56029
14.8734
14.4194
14.9877
14.497
27.854
33.2188
29.3476
41.5142
36.0235
40.921
35.9849
22.7483
28.0285
25.1695
34.2167
30.5281
34.3567
30.4227
21.9493
24.489
22.9433
29.7455
27.7527
29.3749
26.8371
20.9193
22.5866
21.4854
27.1884
25.3658
26.1834
24.2578
20.1302
20.9289
19.123
24.8993
23.7246
23.5014
21.3589
19.8578
18.658
17.8118
23.377
22.0329
20.8073
19.5159
18.6372
17.6872
17.1591
21.5601
19.9692
19.138
17.7749
17.8678
16.8547
15.5044
19.5022
18.2418
17.255
15.4315
29.5723
30.6907
27.6446
40.6367
35.6643
37.698
33.7292
25.0141
26.6872
24.5331
34.0573
29.9625
32.4212
29.0563
22.7531
24.041
22.1077
28.8914
26.4561
28.1122
25.5254
21.9402
21.9834
22.23
23.9871
21.2092
23.3467
23.6299
13.2772
18.6264
15.6578
20.2336
14.3328
19.2064
14.4786
15.7165
6.66147
6.6667
18.444
17.4666
5.88936
7.538
15.7378
7.00301
8.68063
17.2576
16.2956
8.35946
10.3619
14.6008
9.14388
10.1713
15.846
14.474
10.7642
11.7741
27.668
29.1176
29.666
36.954
33.6982
37.5704
35.9698
25.0298
29.2441
26.5026
32.5524
29.3303
34.8394
31.001
22.2234
25.4992
22.8896
28.3471
25.5333
29.7855
26.5569
17.7495
13.0672
21.8193
15.8402
19.7264
3.13593
23.3364
14.6604
6.20153
16.1123
2.14175
15.203
2.15206
15.498
7.24633
16.5076
16.1681
6.00437
7.75738
18.9188
17.4177
9.00829
15.9734
15.4357
8.5565
10.7238
16.9923
16.0518
10.7663
15.2836
15.0024
11.2593
12.4161
15.8347
15.3607
30.1835
31.8939
32.0163
38.4276
36.8665
41.6632
39.3038
27.0571
31.5962
28.5631
35.7164
31.6081
37.737
33.2799
23.0248
27.2789
23.9828
30.2894
26.8646
31.7986
27.9775
19.6873
22.8385
19.4851
25.8205
22.6923
26.6479
23.1098
16.6097
18.4082
16.4032
21.7049
19.6558
22.1519
20.0418
16.569
16.2805
16.5074
19.2051
17.8916
19.5864
18.4352
15.9797
16.5439
16.2338
17.4693
16.4298
18.043
16.9182
15.2216
16.0358
15.3345
16.1558
15.4171
16.5863
15.5947
37.8258
42.4966
37.1683
44.4277
38.0178
41.9426
34.6985
32.1494
35.4542
31.142
36.2228
31.4385
32.6416
27.5884
28.7209
29.9741
27.1693
29.9632
26.518
26.3022
23.325
26.0112
26.4427
24.4317
25.7943
23.3829
22.5821
20.4063
23.9009
23.6594
21.4191
22.572
20.1958
19.6412
17.483
21.7583
20.8123
19.2208
19.6108
17.9129
16.8657
15.4842
19.4328
18.7292
17.154
17.4329
16.1317
15.166
14.4108
17.7007
16.628
14.9963
15.8398
14.9902
14.1795
13.3913
36.6688
39.1492
34.7161
41.3036
33.5802
37.9802
31.3385
30.5325
33.2602
29.4837
31.4902
26.5894
29.535
25.2794
26.69
28.427
25.7641
25.362
22.667
24.1858
22.2509
23.4579
25.1205
14.3671
22.0499
19.9487
21.7022
18.7753
19.5401
12.4393
9.42208
19.1218
16.7118
17.3784
13.9716
17.4908
8.88256
9.45256
15.9838
14.4665
13.096
11.4541
15.8422
9.95045
11.1477
14.1833
13.6872
11.3368
11.8165
14.1487
11.3997
12.149
13.5366
13.0226
12.0212
12.3451
34.7098
39.5011
37.0556
37.2282
31.5318
38.9042
34.5238
29.7581
35.7515
31.5911
29.8466
25.6308
32.9183
28.1152
25.7821
30.2947
26.8506
24.5208
22.3872
26.6794
23.0981
13.0405
25.7876
22.6872
21.7264
18.7539
22.0426
18.7887
9.2725
21.7044
19.4286
17.4327
14.1302
17.8215
15.4381
9.61414
18.7996
16.9956
13.1945
11.4888
14.7068
13.3508
11.4648
16.489
15.3718
11.3746
11.9145
13.1611
13.0411
12.6828
15.1407
14.7364
12.1481
12.4844
13.0263
12.6866
38.0445
44.2359
40.7078
40.185
35.8071
44.343
40.0969
32.237
38.9543
34.1596
34.1181
28.9351
38.1329
32.1839
27.2122
32.6091
28.5258
27.3882
23.4142
30.1971
25.4509
22.8102
27.1454
23.5197
22.2032
18.7254
24.0258
20.1236
19.5943
22.4966
20.1267
17.6976
15.3234
18.97
16.5396
17.3274
19.5183
17.9859
14.7383
13.629
15.9815
14.6632
15.6519
17.5039
16.228
13.4297
13.1345
14.2984
13.4464
14.7579
15.8699
14.962
13.0413
12.5617
13.2236
12.4357
36.2338
40.026
32.5688
28.0546
24.8325
35.1836
26.1706
29.6832
30.5679
25.9189
25.8895
26.151
26.5061
23.5711
25.0895
24.75
21.6219
25.0262
22.6984
22.6561
18.9171
21.9653
20.7145
18.3268
21.8284
19.8983
17.8325
15.5994
19.003
17.6162
15.8224
19.3419
18.0995
15.1093
14.2978
16.9964
15.3826
14.6015
17.709
17.0972
14.4054
15.9715
15.567
14.4929
14.1576
16.9115
16.5321
16.2126
16.2105
14.6207
14.0055
13.369
16.3188
15.953
16.1151
15.768
31.3948
35.7945
29.163
32.8152
25.8657
21.7707
22.6574
24.9773
27.4969
23.5684
26.0514
22.8911
23.2311
21.3472
20.6156
22.3934
19.5438
21.7064
17.5314
19.7115
15.0085
17.4527
18.9221
16.5157
16.4154
14.1867
13.789
11.5711
14.7612
15.4506
12.6711
13.6981
12.8703
11.0803
10.1327
13.5659
11.8579
10.9667
12.9946
15.0134
10.2953
12.8292
13.5816
11.1098
12.1907
15.6953
16.0268
14.1403
15.6061
13.1043
12.4157
12.6142
15.9709
15.6339
15.6709
15.5452
29.3468
37.1781
32.1919
20.3114
22.4061
22.7406
22.9326
23.7825
30.5031
25.7038
23.0623
21.34
22.59
22.5368
19.6304
24.2972
20.4251
19.6738
14.8836
21.1121
16.3299
16.49
19.289
16.1639
13.6451
11.4425
15.0981
12.9605
12.7648
15.318
13.4236
10.9665
10.0461
12.5668
11.938
10.9559
13.015
12.4663
10.2228
12.8126
12.1495
14.4252
12.2405
12.5791
12.8979
14.1374
15.6234
15.1854
15.6037
12.6901
12.9186
12.5635
15.687
15.5114
15.5713
15.2381
33.4058
42.3649
37.8476
22.3464
23.5389
25.0854
22.3523
26.4359
35.8425
29.625
22.6779
22.8935
23.2075
20.4665
20.8712
27.7206
23.1726
21.718
17.2516
22.5691
19.8685
16.3547
21.855
18.4143
16.0525
13.9655
18.9805
17.1053
13.7835
17.4597
15.4571
13.6055
13.0314
16.8212
15.9149
12.8897
15.0061
13.9305
13.2304
15.0882
15.7378
15.3142
12.9171
13.6465
12.9884
15.3801
15.4565
15.2651
14.8681
12.3899
12.8106
12.0654
15.3917
15.0086
14.7509
14.3068
18.687
21.3142
17.1578
21.2612
19.304
22.3734
15.9613
15.1282
21.6594
14.884
20.7637
18.6062
22.5854
4.19787
8.35394
11.1432
10.4082
2.24794
13.8893
6.28221
2.61586
22.9002
25.1439
25.1071
25.411
24.4015
24.6986
24.0893
19.566
22.1534
24.1372
19.3698
23.347
16.8345
21.7765
15.7044
21.1541
24.8395
15.7782
23.6207
4.16905
21.0189
8.90401
2.39288
12.2212
10.7224
6.79165
2.64123
15.3862
12.4609
17.7838
12.666
17.6031
13.3779
18.3332
12.1746
5.10225
9.81841
7.22474
1.93484
8.83914
5.61022
1.72714
4.87627
8.00937
6.78811
3.70641
8.16814
5.57461
2.7166
14.1117
21.0684
20.8453
17.6881
19.9969
15.3315
16.245
13.2584
18.3281
19.9034
14.491
19.0872
12.9156
15.2297
5.60053
2.21129
10.6359
6.59868
6.11681
2.07267
9.4647
5.27862
3.37625
8.44952
6.26255
5.90252
2.57254
8.69052
17.7356
8.87643
17.1793
2.38606
18.461
2.74101
16.4672
22.5201
21.9848
21.3396
23.6282
21.2128
23.4454
22.7759
21.4707
19.3414
20.5457
20.9658
20.31
20.4094
21.9065
20.5362
20.0855
12.6864
25.1443
3.32198
24.4685
22.5922
18.1654
2.49439
7.89821
18.5596
2.7393
16.7796
20.2455
23.585
24.8081
25.2912
24.5732
24.5852
23.8883
24.3119
22.437
21.9643
21.9886
23.5845
21.3153
22.9547
23.1486
14.1047
5.76342
13.8906
3.19151
14.3797
2.39776
13.4859
18.4873
18.3519
17.7709
19.9852
17.4267
19.406
19.0912
17.7661
16.2059
17.0627
18.0264
16.6952
17.214
18.4414
14.8333
2.35307
5.10042
17.2275
2.28039
15.7258
16.0729
14.287
3.11176
4.82896
14.4499
2.49005
13.6171
15.133
19.324
20.9791
20.9045
20.7292
20.2729
20.1181
19.9097
18.5633
18.9743
18.3405
20.0303
17.9182
19.4638
19.0668
1.86767
1.84776
1.56365
7.46374
8.52498
6.24605
6.69566
1.19494
1.20583
0.912549
8.7434
7.76137
6.3423
5.65723
0.79549
0.665701
0.538687
7.17195
6.55314
5.31714
5.19562
0.526993
0.500428
0.46669
6.47012
6.48256
5.54329
5.90635
0.481742
0.453647
0.457397
6.96122
7.51173
6.31659
6.93118
0.50377
0.479101
0.503857
7.81295
7.82592
7.38121
7.547
0.441385
0.520953
0.492895
7.215
7.01856
7.26188
6.67993
0.328353
0.467456
0.35522
6.52689
8.54214
5.86352
7.71604
1.4559
2.58165
1.55876
7.42889
7.73254
7.97432
8.75376
2.2898
0.418509
0.493551
2.38424
2.40568
2.22389
0.372409
1.85504
0.243064
0.235081
2.0155
1.81814
2.1037
0.202154
2.59915
0.133678
0.158227
1.53372
1.69687
2.17372
0.160325
3.30421
0.14269
0.180855
2.61093
2.91375
3.26951
0.174933
3.4948
0.139092
0.165194
3.24611
3.28799
3.40915
0.161007
3.7081
0.135104
0.156318
3.6915
3.88758
3.68718
0.154702
3.52689
0.157389
0.157311
4.0663
3.91347
3.67081
0.156065
2.55677
0.120923
0.144901
2.8485
2.5917
2.87532
0.13002
0.41032
0.423325
0.361497
7.0087
9.87251
6.66842
9.39851
2.38045
2.78624
2.12417
9.36863
10.7153
9.00016
10.3184
3.52792
0.538257
0.785143
2.90597
3.34653
3.00043
0.530136
4.47502
0.311078
0.34029
4.23978
4.41892
4.4038
0.312149
3.54975
0.215103
0.216182
4.02108
3.6173
3.50861
0.207461
3.72617
0.184713
0.187735
3.66575
3.71986
3.7012
0.183458
3.63383
0.17588
0.176835
3.73538
3.67802
3.70455
0.172271
2.73207
0.13533
0.1431
3.15919
2.86587
3.05502
0.132092
1.92598
0.105918
0.0952852
2.41356
2.56375
1.84739
0.0916828
2.86267
0.128679
0.110671
3.10039
3.065
2.79678
0.116429
0.324622
0.329587
0.252743
6.12265
7.98223
5.46379
6.75529
1.3939
1.81144
1.21314
6.75315
7.88602
5.74879
6.43183
2.64318
0.396024
0.524488
2.49583
2.88345
2.3292
0.386917
4.32441
0.267208
0.281247
3.78996
3.96719
3.97197
0.270809
4.45247
0.23614
0.225809
4.36121
4.50242
4.49549
0.212063
4.12918
0.19482
0.184833
4.38599
4.22563
4.2702
0.177307
3.24477
0.152034
0.156676
3.51396
3.29991
3.50941
0.150994
2.36273
0.111205
0.112348
2.57734
2.62605
2.3007
0.105464
2.63596
0.108774
0.112204
2.6017
2.27943
2.78566
0.113051
2.09959
0.0854271
0.0896665
1.9798
2.11184
2.11742
0.0860751
0.229132
0.287851
0.236067
5.09271
6.16054
5.29756
6.61507
1.14009
1.82097
1.06086
5.02162
5.5828
5.35714
5.83812
2.26147
0.326505
0.428353
2.11856
2.47618
2.03849
0.301695
3.65783
0.194448
0.20162
3.62994
3.86398
3.37172
0.191836
3.7217
0.163911
0.179928
3.82446
3.64135
3.78995
0.178643
3.18715
0.143059
0.160236
3.24464
3.25981
3.26529
0.154159
3.18288
0.147175
0.14998
3.35688
3.26136
3.23949
0.150447
1.75965
0.107901
0.123773
2.12147
1.80409
2.09952
0.108416
2.28056
0.102762
0.0948605
2.29342
2.50344
2.07269
0.0990348
2.60293
0.104736
0.106836
2.64272