/*--------------------------------*- C++ -*----------------------------------*\
  =========                 |
  \\      /  F ield         | OpenFOAM: The Open Source CFD Toolbox
   \\    /   O peration     | Website:  https://openfoam.org
    \\  /    A nd           | Version:  10
     \\/     M anipulation  |
\*---------------------------------------------------------------------------*/
FoamFile
{
    format      ascii;
    class       volScalarField;
    location    "3.3";
    object      omega;
}
// * * * * * * * * * * * * * * * * * * * * * * * * * * * * * * * * * * * * * //

dimensions      [0 0 -1 0 0 0 0];

internalField   nonuniform List<scalar> 
12920
(
129.417
199.554
176.204
159.024
122.141
92.5884
74.0795
64.616
60.4425
54.6498
48.7929
45.044
43.1443
41.8757
41.1533
40.0935
39.5355
38.4899
38.1257
37.553
212.379
321.144
224.096
148.846
114.069
110.312
104.458
101.352
89.9254
73.9742
62.7064
57.0477
53.903
52.302
51.57
51.4588
51.5666
51.7924
52.4747
52.754
474.243
275.491
215.302
185.239
145.192
117.044
97.425
85.4401
75.2968
69.0116
64.0414
59.9459
56.0815
53.4182
51.6231
50.2028
49.1555
48.049
47.1409
46.6066
143.165
224.299
213.536
173.461
144.753
122.053
106.943
92.8095
83.6552
76.7171
70.5933
65.7858
60.8116
56.2626
52.6885
50.2288
48.7981
47.3095
46.5587
45.5261
391.776
344.8
291.978
232.06
191.357
176.97
155.614
134.443
109.082
88.1555
74.6954
68.0563
63.1086
58.6795
54.6104
51.2967
49.2328
47.3676
46.6321
45.4585
276.445
425.841
343.994
240.46
181.183
153.005
123.678
103.851
85.9629
75.9481
69.6692
65.6828
61.7327
57.9508
54.1063
50.8783
48.9738
47.0118
46.2512
44.6392
225.648
214.54
203.204
191.347
176.727
157.811
129.765
106.621
88.6745
77.3212
71.0744
66.3725
61.0259
56.6465
53.0913
50.3932
48.904
47.1461
46.3657
44.4689
359.275
242.049
216.396
174.225
145.024
129.044
203.926
162.941
136.292
111.949
101.785
101.626
98.496
87.7615
55.5117
52.327
50.2476
48.0424
47.0515
44.8735
264.372
281.273
230.798
186.315
146.331
206.266
308.371
221.573
158.847
161.941
171.262
165.522
174.003
154.435
90.6414
53.4334
49.4667
46.8806
46.0739
44.8924
108.061
180.143
173.962
162.518
150.554
226.82
303.293
229.218
206.675
170.627
166.023
153.938
134.019
147.581
88.813
48.5921
44.757
43.114
43.2465
44.3362
128.465
169.007
166.731
151.12
132.499
200.281
276.47
199.888
194.15
201.169
183.405
151.139
144.288
118.646
76.2724
46.5534
42.9386
41.2172
41.4858
43.014
186.366
223.937
213.963
167.124
129.835
179.501
248.039
209.199
202.722
188.068
183.563
156.004
122.784
123.652
77.6086
43.4636
39.3174
38.0271
38.3384
40.3962
118.538
258.249
269.67
244.786
174.871
134.972
213.935
173.822
163.546
146.596
119.074
88.8251
75.3735
72.3976
43.9172
40.2069
37.5623
36.2429
36.1667
37.565
131.733
162.401
181.166
182.373
170.09
151.12
134.095
120.441
106.145
90.8386
74.1746
60.945
52.2936
47.1401
43.5527
40.6636
38.1878
36.1837
35.2049
35.3187
88.8754
152.746
182.476
181.839
160.045
136.847
122.449
114.106
104.865
94.2689
78.894
65.3648
55.7935
49.7238
45.627
42.1737
39.2848
37.0153
35.4047
33.6929
138.568
196.666
195.377
176.9
147.099
132.079
117.878
101.364
85.5026
74.4928
65.3631
58.8116
53.8642
50.4564
46.9201
43.3445
40.3062
37.6574
36.4553
34.2099
268.947
212.562
198.444
184.978
159.243
148.329
130.916
107.36
82.9887
67.6212
60.7511
57.2815
54.6776
52.4573
49.763
46.1814
42.9898
39.8736
38.5376
36.2007
179.04
204.23
209.063
187.119
160.733
149.394
129.974
105.412
81.879
68.564
62.3949
59.3502
56.9079
54.8763
52.9571
50.2098
47.3503
43.985
42.3381
40.148
208.994
201.198
174.352
152.133
141.229
128.535
110.466
90.5961
74.9014
67.4274
64.0369
62.7688
61.0315
58.5954
55.6046
52.0342
48.902
45.8978
43.913
42.3511
27.8484
129.383
132.567
107.431
96.4638
92.0274
83.9022
75.632
68.9622
64.6387
61.1682
57.9942
54.9141
51.4322
47.9167
44.1276
40.7384
37.2347
35.6518
33.6982
171.14
159.54
113.283
85.6561
66.6924
52.2655
42.9029
38.065
32.6422
28.3292
25.9973
25.2652
24.9003
24.7502
24.6264
24.4798
24.4638
24.4073
24.3688
24.0212
357.734
267.701
161.339
94.5456
69.6878
67.631
66.0049
66.5805
63.5002
50.5015
38.2742
31.7386
28.414
26.7322
26.0662
25.8604
25.8978
26.1237
26.4676
27.0193
198.329
160.896
119.745
114.714
91.6446
75.5791
68.8821
61.3023
51.6158
43.1907
37.8616
34.535
31.8113
29.3857
27.3489
26.0307
25.2409
24.8366
24.6227
24.644
148.706
154.615
112.255
94.4247
85.565
76.1295
68.559
57.7938
51.0397
44.0102
39.7742
36.5288
33.8922
31.2234
28.9061
26.7888
25.2231
24.2191
23.5662
23.3286
305.259
351.045
222.148
125.727
91.3883
85.4237
82.8009
83.0717
75.8083
56.6298
43.9175
37.4893
33.924
31.218
29.074
26.9923
25.2483
23.9522
23.1605
22.7793
417.863
402.59
279.796
144.609
87.4013
70.6016
61.0554
53.9783
47.4145
41.9837
37.5045
34.2117
31.1306
28.8803
27.1013
25.4381
24.0592
23.1041
22.7153
22.3592
275.356
183.668
119.941
100.661
85.2049
73.8814
64.8888
59.1415
53.6182
48.0354
41.2379
35.9959
31.0395
27.2682
25.0324
23.817
23.2708
22.9105
22.846
22.65
365.722
140.851
104.398
89.7095
75.0345
65.4466
69.3206
65.5516
59.7247
52.7052
46.9526
40.6412
35.4157
29.7416
23.6992
23.1966
23.227
23.4752
23.7588
23.6446
229.301
156.148
121.564
98.4416
78.4386
74.9061
70.1453
67.9489
62.5606
52.266
48.1802
45.1283
38.7382
33.7542
25.467
23.2503
23.5404
23.7974
24.4281
24.5905
271.942
152.899
111.932
94.0072
79.3993
77.2281
67.6278
56.8535
50.5242
39.3434
34.1863
33.6953
32.9219
29.3402
26.3582
24.5728
23.8638
23.734
24.0493
24.5526
81.386
117.813
126.556
102.042
80.9046
77.14
67.4654
55.0883
47.186
47.2643
46.948
40.9328
34.2236
28.2577
25.3319
23.5306
22.711
21.3472
21.2548
21.6291
245.091
162.596
118.29
99.5137
86.7208
80.4669
69.0217
59.4801
60.6511
60.6752
54.6545
45.5666
28.7089
24.2532
22.4804
20.6101
19.6109
19.0403
19.0671
19.7109
122.071
158.163
155.052
131.464
99.831
79.43
78.7445
73.1457
66.7334
61.9807
55.0526
40.742
28.459
23.9281
21.007
20.1212
19.1659
18.4798
18.227
18.5685
101.066
136.974
128.173
103.902
85.2503
79.1167
74.0255
67.879
61.687
57.1732
48.5034
38.3853
30.0159
25.1762
22.3881
20.8034
19.6178
18.7476
17.9033
17.8326
289.705
153.879
133.111
103.423
86.2194
82.7701
78.368
67.8928
57.622
50.236
45.9606
38.7357
31.1899
25.6573
22.6086
20.8891
19.6316
18.6117
17.7013
17.1746
129.032
141.084
128.164
98.0545
80.7637
74.7964
68.1272
55.5187
44.3437
36.6627
32.7135
29.4162
26.7519
24.7925
23.3458
21.8963
20.6141
19.2181
18.3337
17.4034
476.859
146.724
118.325
94.3876
79.4338
76.7807
73.9051
66.7994
47.8374
34.5887
29.2162
27.5239
26.5796
26.0303
25.6045
25.0484
24.0007
21.5864
19.7658
18.084
266.967
161.909
114.718
90.328
77.2713
76.0749
74.5039
66.7463
47.2747
35.1797
30.6002
29.0502
28.2239
27.5855
27.1028
26.5029
25.7871
24.1835
22.4749
20.5637
126.551
152.139
101.419
74.9207
68.294
66.5703
64.8215
55.5589
43.1805
36.6564
33.9045
32.8208
31.728
30.3866
28.8753
27.2303
25.9788
24.886
24.3195
23.5312
16.0284
88.0059
89.7662
66.8786
52.7758
47.7049
42.5572
39.4653
37.7486
36.8097
35.5804
34.2416
32.6231
30.2644
28.2477
26.7698
25.5093
23.5865
22.5855
21.2555
71.2362
121.898
101.18
75.6465
60.8468
49.148
42.1278
37.1286
33.3516
30.9856
29.5874
28.8794
28.3473
27.9447
27.6422
27.1871
26.9857
26.5317
26.2132
25.292
240.506
156.054
92.3086
65.7754
52.0084
48.4377
46.9923
44.0477
39.0925
33.2131
29.0591
27.0933
26.1978
25.9256
25.956
26.1387
26.44
26.7868
27.0105
27.281
164.732
130.059
98.0042
87.2186
63.769
54.643
48.2973
42.7329
36.7097
32.5894
29.7834
28.0641
26.5322
25.4924
24.7132
24.2777
24.0619
24.0089
24.0222
24.1408
132.18
131.007
101.045
72.4974
62.0785
53.3534
47.8513
41.235
37.0402
33.9176
31.3135
29.4252
27.5508
26.037
24.7546
23.8238
23.1862
22.7852
22.5778
22.534
198.342
242.662
154.924
98.4963
71.7073
63.2341
57.4788
53.6377
45.4314
38.4403
32.9822
30.0856
27.8289
26.1694
24.734
23.631
22.8006
22.2264
21.9265
21.7766
305.548
294.824
168.266
98.3014
66.0466
53.3192
46.1196
40.56
36.1075
32.9135
30.0659
28.033
26.0966
24.7058
23.5661
22.6514
22.0131
21.5616
21.3936
21.1468
173.72
139.334
106.838
84.9281
69.134
57.9263
50.2633
44.9622
40.1369
36.201
31.8389
28.5962
25.8421
23.9384
22.8081
22.1094
21.8005
21.5761
21.4711
21.1415
358.42
149.669
93.7505
69.6536
58.4372
52.3118
52.1414
49.5956
44.5336
40.5469
35.9955
31.1051
27.2462
24.3771
23.5682
22.982
22.8202
22.592
22.425
21.7881
331.947
140.765
102.222
78.6121
59.5391
54.4827
51.6441
50.8389
46.2791
41.699
39.7525
35.3171
29.9365
26.0781
24.1862
25.4541
24.8113
24.1168
23.8052
22.807
257.695
130.328
104.887
81.7115
62.0861
53.4716
48.0273
43.9271
38.5693
33.4048
32.4505
32.2136
29.6146
26.5628
26.8049
26.7461
25.4521
24.5304
24.1666
23.0301
304.198
197.982
118.855
77.9451
57.5349
51.8807
46.7862
42.7715
39.4606
37.1489
84.2789
56.7405
39.7146
29.9032
25.2459
23.879
22.7835
21.8631
21.6596
21.1873
207.994
143.503
95.345
70.4767
59.2872
55.1519
52.7404
50.0949
49.1008
46.1565
39.4846
30.4063
24.1116
22.0844
21.5462
21.1595
20.0915
19.5383
19.5257
19.7163
170.951
168.48
126.958
91.7618
68.332
59.7808
57.5167
54.6118
49.6574
45.2856
36.0343
27.6555
22.8876
20.9838
20.2786
19.3219
18.6019
18.352
18.3887
18.7976
136.343
140.061
125.862
101.308
76.979
65.6788
57.1843
51.3856
45.6389
40.1897
33.2046
27.4527
23.3966
21.0655
19.7176
18.8477
18.2246
17.8563
17.7446
17.9691
154.258
139.388
124.293
95.8837
75.768
68.0927
58.919
49.5858
42.1275
36.3816
31.7723
27.4785
23.8376
21.3881
19.8816
18.9011
18.1897
17.6905
17.3274
17.2926
144.19
157.573
126.834
90.1205
70.7631
60.7896
50.1934
40.0375
33.2339
29.1384
26.4296
24.5034
22.9588
21.8201
20.8175
19.8208
18.9624
18.2237
17.6859
17.3613
213.235
147.771
119.008
85.5353
68.0695
60.4344
52.1474
41.8522
32.5074
27.8765
25.7126
24.9108
24.3574
23.9378
23.3312
22.4468
21.2929
19.9389
18.9602
18.1132
185.392
140.117
114.758
80.4226
65.2115
58.9586
51.9924
42.4709
34.0406
30.3517
28.6303
27.9838
27.4027
26.9308
26.3605
25.5311
24.526
23.0651
21.9804
20.9475
260.775
130.212
88.8131
63.9944
57.7249
51.4433
47.3049
41.456
37.2143
35.7008
34.726
34.1195
33.1418
31.9836
30.6143
29.0828
27.6569
26.4673
25.797
25.4412
74.856
104.134
103.579
81.7171
63.001
54.4921
49.7743
47.174
44.9635
43.0432
40.7647
38.2553
35.753
33.4633
31.7898
30.0484
28.301
26.0231
24.8667
23.4622
147.997
96.4896
85.4468
64.8515
54.5813
44.16
38.9404
34.6634
32.718
31.2113
30.2884
29.595
29.0283
28.4501
27.9495
27.2834
26.9094
26.2164
25.855
24.9728
227.723
126.926
78.0522
55.2947
49.2443
41.2846
41.2612
36.116
35.0859
32.6225
32.7853
32.7338
33.5423
33.9627
34.5998
34.9888
35.3337
35.4679
35.5373
35.4452
219.164
121.154
90.3793
64.3276
54.307
43.6458
41.9739
36.8742
35.2545
32.8047
32.0322
31.0955
30.9628
30.6759
30.943
30.9993
31.2094
31.3171
31.4304
31.4075
213.586
150.088
93.6305
62.1942
55.3371
43.0389
42.3385
36.6085
35.7051
33.2426
32.3555
30.9941
30.2178
29.4993
29.2762
29.0915
29.2093
29.2062
29.2492
29.1602
287.519
178.452
128.071
84.7376
66.5485
53.2854
47.9921
42.2573
38.9264
35.6297
33.5262
31.7425
30.5052
29.473
28.9148
28.4806
28.474
28.3774
28.3719
28.2298
231.434
164.047
116.722
76.6512
60.7303
46.9689
43.658
37.3489
35.3381
32.561
31.3191
29.8601
28.9909
28.1519
27.7053
27.3716
27.4353
27.3886
27.3925
27.2202
258.981
130.001
106.52
79.0685
68.216
53.8684
47.3094
40.6126
37.9083
34.5231
32.575
30.4341
29.3192
28.3565
28.1717
27.7771
27.7444
27.5423
27.3926
26.9458
153.358
160.449
103.546
64.6947
57.9852
49.3982
47.5429
43.4074
39.2462
36.767
33.5716
31.047
29.395
28.6664
31.8667
30.167
29.3027
28.373
27.8627
26.8008
217.548
170.425
99.4732
67.1946
54.6767
49.5297
47.6882
44.7727
40.5488
38.5324
36.5883
33.4868
31.0349
30.1521
32.3751
34.2436
31.9375
29.9968
28.9115
27.0865
388.085
132.545
98.2085
68.2497
53.8881
46.3081
44.0158
40.6171
36.8564
34.2913
33.7332
33.5316
32.4031
32.4278
35.5061
35.5071
32.8523
30.5616
29.1827
27.1594
259.922
142.195
100.958
65.1822
51.8293
45.1244
42.2192
40.129
37.4847
35.0137
55.0293
50.0117
39.2506
34.4192
33.7726
33.158
30.5549
28.8195
27.8822
26.6521
154.704
133.999
93.9913
61.655
55.2515
49.9423
48.911
46.8162
42.5197
38.2112
33.3188
29.725
28.7475
29.0669
30.4687
30.3569
27.9998
26.8564
26.4915
26.2477
182.668
143.164
117.976
81.6538
66.2081
57.9261
52.8011
47.5665
41.6611
36.5769
31.0943
28.3984
27.1838
26.81
28.0863
26.2988
25.5063
25.4999
25.6671
26.0175
170.473
147.636
137.039
108.634
81.0066
63.6777
53.4684
45.2773
39.74
34.353
30.6348
27.5944
26.1732
25.2154
24.8417
24.4324
24.4476
24.5649
24.8068
25.4325
162.929
136.473
129.805
98.7835
77.4847
62.0167
52.8265
43.8489
38.3103
33.3212
30.1916
27.7032
26.0745
25.0793
24.6195
24.2359
24.1776
24.2593
24.3753
24.7574
345.279
204.832
128.346
87.8027
70.894
55.1349
45.9014
37.0803
33.5926
30.3157
28.8031
27.3903
26.774
25.9413
25.568
25.0278
24.809
24.683
24.6159
24.7799
227.557
148.082
123.992
83.4101
67.8458
52.8031
44.7743
36.5656
33.1728
30.7054
30.0622
29.2679
29.0408
28.3574
27.7944
27.0157
26.5342
26.1486
25.7244
25.5921
158.217
140.931
122.329
80.8002
66.1169
51.8739
46.0236
39.4776
37.0121
35.6178
35.4677
34.6786
34.2468
33.4451
32.662
31.5704
30.7159
29.9567
29.4639
29.1023
153.82
134.029
96.1292
65.2437
60.4623
49.4641
48.1031
45.3929
46.2668
46.1243
45.9796
44.8367
43.5164
41.7531
39.9094
37.9929
36.9071
36.1617
35.8506
35.6659
94.7204
99.89
94.0005
74.8069
63.9713
57.2998
53.4321
50.611
48.156
45.6299
42.8786
39.7901
37.0341
34.577
32.522
30.1715
28.1849
26.033
25.1111
23.5189
216.104
86.0346
71.8408
53.9048
45.428
38.6747
35.1567
32.9491
31.7211
30.7311
29.9169
29.0987
28.2718
27.2738
26.3451
25.4238
24.8853
24.3635
24.1135
23.5002
237.016
186.993
95.1392
83.8918
67.8229
50.1399
56.8117
41.575
51.9901
47.214
54.1667
52.9011
56.1321
55.945
57.5773
57.7751
58.6121
58.843
59.2019
59.1329
285.853
146.2
99.2492
72.5676
68.2402
48.5169
54.5415
43.24
50.5686
46.2624
50.8638
48.9702
51.2581
50.5681
51.7272
51.5952
52.2246
52.3255
52.6102
52.4898
296.366
170.707
102.407
72.8292
66.2056
46.857
53.7459
41.3008
48.7248
43.2464
47.8947
45.8096
48.2343
47.5907
48.7638
48.7018
49.3422
49.4142
49.6749
49.4237
257.022
151.598
127.413
79.7525
77.3403
53.6098
56.7955
46.2617
51.0308
47.4145
50.5374
48.3492
49.5845
48.3447
48.8532
48.415
48.8292
48.8067
49.0446
48.7817
257.051
143.835
114.267
72.6202
70.7654
49.5857
54.3819
42.8708
46.3791
42.5934
45.5676
44.4219
46.0556
45.6808
46.3074
46.416
47.087
47.3082
47.7691
47.6451
193.843
139.176
112.511
81.6408
79.2075
57.5495
58.3917
47.227
50.5213
46.2589
49.3524
47.3628
48.8379
47.8063
48.1038
47.6063
48.0176
48.0636
48.3874
48.1554
158.803
167.348
119.703
72.6831
74.592
55.623
53.8606
48.0379
49.4416
47.7727
49.9195
49.069
50.3135
50.101
53.2631
49.9924
49.3292
48.7549
48.7534
47.9139
342.099
235.935
117.909
71.0125
70.4367
58.2929
60.6267
56.3825
56.3059
56.2654
56.0449
55.8062
56.3952
56.9115
59.5667
54.3204
51.566
50.0047
49.5323
47.7686
475.943
170.956
104.492
73.8076
63.8945
51.9793
56.7969
60.0795
59.6466
58.5512
57.7246
58.2567
61.4978
62.1271
62.4849
55.9638
52.4329
50.173
49.1309
46.6986
206.24
176.425
121.109
72.6262
71.7479
56.8299
58.1841
60.5858
59.3841
54.5883
53.1818
56.7255
62.4406
63.2732
62.156
54.3286
50.5344
48.498
47.4336
45.6038
200.034
139.686
112.306
70.9572
73.0066
61.666
67.1197
63.6238
59.2652
55.9592
55.6476
56.8207
59.9097
59.7803
59.6948
51.3977
47.5817
46.2946
45.7703
45.3094
192.617
143.286
135.96
85.582
90.2806
73.3187
66.7265
55.0318
53.9884
49.3339
51.1114
50.8983
52.2984
51.4512
50.2081
46.4209
45.2381
45.2969
45.2723
45.6013
200.97
192.76
162.535
107.439
99.2567
71.9899
66.3552
55.3013
53.1666
47.3088
48.1071
46.3134
46.9413
45.8651
45.4453
44.5479
44.5329
44.6542
44.6997
45.3813
244.68
164.896
149.953
98.6559
94.246
68.9895
68.525
56.1559
54.7197
48.0747
47.8201
45.8195
46.2
45.2769
44.8786
44.3504
44.3884
44.5687
44.541
45.0337
325.617
175.187
147.625
87.5156
88.8421
62.824
63.5392
50.8939
53.2444
47.2866
48.9893
46.4831
47.4455
46.201
46.2857
45.6384
45.7094
45.6198
45.5178
45.6971
207.742
156.279
128.719
83.6744
83.1232
58.6408
61.3366
49.7946
53.9731
48.9933
50.9424
48.5599
49.4633
48.2182
48.3472
47.7828
47.8873
47.7683
47.5515
47.1266
266.744
157.308
134.52
80.9528
83.8146
59.672
66.1454
56.029
61.3829
56.6862
58.5418
55.782
56.3616
54.8088
54.6938
53.7601
53.494
52.8926
52.6258
51.9357
166.424
145.099
110.313
72.5405
80.9915
61.8454
75.1256
69.3426
76.4881
73.5951
74.6704
71.1907
69.6942
66.4372
65.6798
64.6165
64.7286
64.6589
64.7906
64.1651
84.6534
99.787
85.0608
70.1176
62.795
57.334
53.6797
50.2801
46.8479
43.1726
39.7858
36.1164
32.6828
29.5548
27.5946
25.8808
24.8389
23.4429
22.7607
21.1048
32.4104
35.3291
66.7937
33.2139
33.0659
33.996
74.2769
32.4527
66.9328
58.5174
33.1994
33.226
76.0619
66.0579
84.3456
44.9549
40.6151
34.8877
96.5125
38.4772
34.8067
67.223
38.9428
33.0626
97.0511
76.2782
33.6017
30.2421
233.593
273.656
208.336
86.925
77.9901
75.8727
64.5169
171.075
201.713
207.474
76.9532
72.3121
62.9357
58.1472
157.948
205.958
188.379
69.2784
58.6761
56.3945
49.6435
171.403
180.8
171.496
56.7909
52.4502
46.5362
39.4655
165.457
170.521
162.882
51.8909
49.5139
38.3095
37.2663
172.958
159.805
154.253
48.3546
43.6655
37.3307
37.3488
164.519
154.498
156.231
42.8032
39.9069
37.1715
35.2364
121.092
156.047
126.526
38.9515
31.4685
34.776
31.2394
235.685
310.528
240.318
80.1565
65.7859
85.192
71.628
215.537
227.761
191.894
63.3901
58.3909
68.3365
54.4908
174.832
186.041
191.488
56.3794
45.8788
50.8223
46.0002
166.727
191.951
182.614
42.8853
37.8809
46.2593
47.4841
158.011
178.79
161.109
37.0391
36.4861
47.3095
44.3445
135.927
156.344
148.907
36.6974
36.6723
43.1404
39.8008
144.612
142.334
119.5
36.2538
32.8433
38.9446
32.8592
131.111
119.366
114.406
32.3512
30.2939
30.9437
27.8561
206.245
245.991
202.261
80.7629
65.385
76.2054
62.4605
191.46
203.493
201.85
61.5635
52.9801
61.5292
62.1654
202.01
199.054
189.351
50.9522
50.4892
62.9461
63.6066
188.669
187.223
184.719
51.1324
51.9546
63.0519
59.2735
159.488
183.801
168.454
51.5406
46.9346
57.5325
54.2519
146.121
153.403
129.092
44.9747
39.0887
51.2123
35.8483
121.346
129.512
128.546
37.8247
32.7333
32.6009
28.2873
111.544
125.195
106.012
30.8964
27.7273
27.7678
26.2454
210.422
317.742
277.398
79.3319
65.7821
91.6525
82.5065
204.885
268.351
250.714
64.3201
64.4978
79.7928
76.1083
191.273
249.772
236.172
65.2753
65.9761
75.0591
72.3914
184.395
233.829
214.043
65.5343
61.7062
70.6123
67.2882
170.561
208.573
171.246
59.7766
56.2668
65.2503
59.291
123.832
158.838
126.154
53.2236
35.8163
54.8545
39.0271
124.147
123.926
120.499
32.1716
27.3812
34.7044
28.3421
108.066
121.284
107.705
26.8267
25.5934
27.4123
24.7316
68.4485
63.6684
57.7314
54.6115
53.9221
49.7033
47.6035
64.9676
56.8999
52.8441
53.5672
50.6539
47.1102
43.2643
53.7821
51.0477
44.8721
49.1673
44.3725
41.7701
37.639
48.6125
42.3673
36.5452
43.5668
41.7159
36.344
33.2864
46.3425
35.5363
34.4892
41.4288
38.5921
32.7862
31.9762
40.008
34.4574
34.1358
37.2038
32.469
31.7068
30.2641
34.9987
33.7836
31.5406
31.2029
27.7028
29.5494
27.0924
28.0668
30.9056
28.2787
26.7056
23.942
26.3935
24.937
58.4418
71.3829
62.4923
50.919
47.1263
51.6974
46.7831
52.513
59.7372
49.2219
46.1378
42.1235
45.2696
40.4302
41.725
46.339
42.5757
40.5333
35.5982
39.0381
37.0546
34.9299
42.7142
43.2889
34.2592
32.1959
36.6746
46.2702
33.641
43.0439
40.667
32.0197
31.9123
47.0386
44.8874
33.4175
39.6162
35.9999
31.7694
30.4212
43.2037
37.6392
29.9261
34.8796
29.8865
29.6581
27.0701
35.8052
30.6542
27.7187
28.5082
26.6292
26.4283
25.1911
29.4143
27.0278
57.6218
65.1202
57.4371
50.0633
45.846
51.7155
49.7823
48.6408
56.8458
57.7313
44.7444
41.6061
49.5978
49.7722
46.8196
58.4454
59.0386
40.9216
40.1899
49.8158
48.8915
47.5897
58.5911
54.5222
39.8079
50.0547
47.992
43.6141
42.6785
52.7604
48.0279
50.0163
45.7292
41.8902
35.5095
35.6116
44.4153
31.902
42.9302
37.0182
32.8938
26.5381
29.6573
29.3294
25.6493
35.0844
29.8443
25.2294
22.9761
26.4214
25.1272
24.3595
28.4743
26.226
22.5785
21.8098
60.4865
76.5798
72.4287
55.6014
52.0376
61.2871
58.0042
60.0376
70.807
68.3918
51.7337
51.6556
57.2618
55.734
61.1019
67.262
64.7687
51.5829
50.4063
54.7515
51.9614
56.5484
63.3637
60.2219
49.4125
44.6638
50.6697
46.1962
49.5564
57.9952
51.0886
42.756
35.4869
43.5189
35.2425
31.5479
46.4934
33.1544
32.5672
25.7271
32.1075
25.3956
24.7709
29.8014
24.9864
24.3797
22.2432
23.9413
21.5647
23.7394
24.1756
22.7184
21.8774
21.3818
21.1134
20.1475
51.3792
47.2733
45.689
47.7406
46.4813
44.2161
42.6673
47.6382
45.0949
41.1987
45.3411
41.8605
41.6502
38.0544
42.3681
39.8473
36.3453
40.883
38.6798
37.1467
35.1589
40.1547
35.305
32.9721
38.3372
37.05
34.5909
33.2516
36.6566
32.6157
31.8088
36.4281
33.6834
33.004
32.1513
31.0853
31.4576
29.7888
32.7598
30.2459
31.7723
30.4317
26.9
29.0538
26.8058
29.5601
28.1745
29.988
29.1365
23.9955
26.2204
25.2003
27.8821
27.4083
29.082
29.5825
44.9378
48.0221
44.039
43.9683
41.5043
42.6916
40.0093
39.9971
42.7489
38.71
40.3852
37.0297
39.0437
36.4423
34.5354
37.5881
35.8918
36.1238
33.8868
35.7454
34.0961
33.5381
32.7022
32.8705
32.923
32.9841
32.4729
32.5223
43.2453
32.5371
37.6628
33.0647
38.4181
33.2273
42.4792
30.4566
55.2918
43.8
32.9839
31.4605
62.4921
46.3727
27.1255
40.5671
32.715
30.8897
29.8432
42.3298
35.1253
25.5653
31.1026
27.9387
29.8088
30.294
33.9878
31.9252
43.7175
49.2402
48.2902
42.287
40.5862
46.0972
45.9019
40.0929
48.102
47.7176
39.848
37.6587
45.373
43.0669
38.6816
47.5081
45.9528
37.0634
35.537
42.2735
39.589
43.7434
58.9878
40.9688
41.2331
42.6004
222.601
38.967
42.8143
81.0667
42.2036
196.632
40.9778
182.406
44.0099
42.985
30.9363
26.0072
65.0956
45.96
29.2861
27.3736
31.6857
24.9654
23.0908
41.676
34.0679
27.0036
26.471
26.9435
22.7497
22.0205
32.7455
30.7579
26.4164
26.2201
50.366
57.0677
55.2413
48.7779
47.5726
52.3333
50.5012
49.4456
54.4783
52.6743
46.9472
44.2587
49.4055
45.852
47.2843
51.5346
48.4962
43.3266
40.3123
44.4139
40.7923
41.3881
47.1073
42.1892
39.0822
34.9489
39.3079
34.504
32.7642
39.5427
32.092
33.5222
29.6869
32.618
28.5616
25.1535
29.5923
24.5205
28.6431
26.7032
27.4863
25.5651
22.3924
23.4067
21.547
26.3628
25.9317
25.1441
24.4863
21.6184
21.169
20.301
25.8768
25.8337
24.3011
23.8331
46.1015
44.5186
42.9022
54.7923
52.084
52.5029
53.0144
41.4136
41.8004
38.4779
50.5592
48.9563
52.3241
51.0101
38.8237
37.7203
36.058
49.1417
49.3268
50.8692
49.7599
37.2149
35.5559
34.1922
48.8573
47.8443
49.0832
47.5928
34.2453
33.9206
33.1153
47.7636
47.3976
47.439
47.3488
31.524
32.8004
31.9535
46.9616
46.4509
47.5038
48.595
30.2562
31.7397
31.6065
46.4794
46.9278
49.0729
49.9704
29.77
31.7339
32.2787
46.8334
46.5196
50.0607
50.0688
41.7114
42.4695
40.1565
50.9531
52.2566
50.0337
51.3442
37.6
39.3054
37.0611
51.927
51.0112
51.3055
50.598
34.9257
36.4392
34.6582
50.7225
48.6987
49.9396
45.5488
33.704
34.1861
48.7081
47.6697
45.9765
44.1616
43.4175
33.7018
50.9849
50.6175
45.882
46.178
44.0072
45.0785
32.6617
49.3812
42.0814
46.6216
48.4907
45.7023
48.8033
32.2519
39.8498
35.9454
49.2326
50.5308
49.7902
51.6562
32.958
35.4022
34.0091
50.6711
50.5675
51.6792
50.92
40.8207
46.3957
46.1105
50.9023
52.0146
56.6201
56.2828
38.0729
45.3918
42.5749
51.8248
50.7238
54.9684
51.4587
35.7329
41.6856
38.8654
49.9374
45.4312
50.5221
46.9888
52.9073
37.7762
34.4333
44.0678
42.8884
45.7545
43.8767
52.7678
33.4199
30.8283
43.3492
44.5324
43.6841
43.877
41.6581
30.1713
29.2266
45.2936
48.5111
44.5065
46.6834
35.0672
29.1704
29.4959
49.5048
51.3126
47.5639
48.6762
33.0176
29.6063
29.2703
51.2801
50.4777
48.646
48.0661
47.6641
52.0098
49.9181
59.2705
57.1762
60.6868
55.2264
43.5478
48.5309
44.4983
55.4973
51.4055
52.8427
48.9293
39.3983
43.0604
39.533
50.4652
47.3245
48.26
45.6883
34.494
38.0766
33.7451
46.2492
44.4612
44.4422
42.948
30.4129
32.2496
29.3286
44.3941
44.8674
43.0236
43.2687
28.7954
28.6376
27.5221
45.1989
46.6856
43.1279
43.3859
29.0042
27.3145
27.0898
47.2379
47.8618
43.5245
43.7764
28.824
27.0136
26.3446
47.7938
47.3099
43.5397
42.7626
57.7963
58.6363
60.6162
85.2105
84.3878
84.2851
91.1902
55.7028
60.1821
59.4393
83.2847
85.395
92.2508
94.7122
56.7789
59.4751
59.0668
87.5361
89.9276
95.5873
100.825
55.7706
58.7948
58.2237
89.1138
91.8103
102.311
106.592
56.1689
58.2391
58.2391
93.1043
94.2942
107.575
108.204
56.0017
58.3972
60.2264
93.7519
95.5334
107.39
103.262
57.0489
60.8113
61.3693
96.0583
96.5101
102.39
101.212
56.2273
61.3127
60.7326
96.0458
94.5005
101.052
99.9187
60.119
56.8035
59.7789
84.1262
92.3718
87.375
95.8489
59.7749
60.0016
59.8204
93.8592
96.5046
97.0912
100.037
58.9555
59.3553
56.5391
97.745
104.566
102.314
112.299
57.6491
54.9495
53.5842
106.604
111.664
115.742
123.131
58.0755
54.1042
55.7227
112.754
113.608
124.724
125.995
60.5245
57.1405
60.9259
112.769
106.789
124.819
115.07
62.2045
62.5171
63.782
104.753
102.287
110.983
104.695
61.208
63.4834
61.8614
101.968
100.045
104.005
101.642
60.5492
64.1706
64.6666
90.0347
97.0184
94.9323
97.9699
59.9243
63.4143
60.3743
97.897
100.307
97.6398
98.1154
56.1484
59.5648
56.7714
102.519
112.435
99.2776
106.022
52.8112
55.8322
55.1495
115.878
123.034
108.515
114.242
55.0095
55.3868
56.2812
124.885
127.225
115.691
117.456
60.8026
56.6862
59.6558
126.013
115.7
116.652
109.592
63.6122
60.6905
61.0591
111.473
104.963
107.185
104.161
61.5268
60.8255
59.6365
104.238
101.549
103.797
102.124
65.3782
68.2209
61.3659
98.6844
97.6826
96.9002
88.1618
59.9388
58.786
55.922
96.8006
96.9681
87.1095
89.9639
56.7122
55.6489
53.4855
97.719
102.528
91.1369
91.0576
55.4676
52.3508
51.9032
104.577
109.66
91.1134
95.4949
56.3359
52.4948
53.528
110.954
112.243
96.8238
98.2014
59.3413
53.5053
54.2729
111.65
106.439
98.0509
99.8479
59.9962
54.6115
54.8118
105.333
103.418
99.9832
99.7758
58.7667
54.4755
53.364
103.171
101.795
99.2504
97.5783
37.2853
32.4168
36.5
32.871
34.3998
32.5748
41.0189
47.9977
33.7884
49.0222
38.8956
37.4201
34.0326
165.783
77.5955
53.0659
62.7021
200.181
46.6614
90.4595
215.939
33.5772
32.8287
32.8935
32.7231
32.513
32.4464
33.1683
37.3312
33.0254
32.9068
37.2945
32.6799
40.8656
35.0373
48.3603
39.0999
33.3744
50.3837
33.8989
170.607
37.6662
76.3434
203.322
54.8868
67.2376
88.0054
220.046
47.786
43.1909
32.5451
38.1836
33.0481
38.5463
33.2314
41.591
89.4896
55.257
65.688
187.565
55.7438
90.9346
173.504
84.5793
52.3697
63.7625
92.2962
55.4532
70.0062
115.494
42.8562
33.222
33.3392
38.4521
33.388
42.1554
39.2836
42.8029
33.2077
33.3314
38.9658
33.3836
41.3497
39.3975
85.339
187.713
57.2115
75.4866
87.259
172.275
58.1621
80.7061
94.0111
54.6252
72.4397
68.0867
115.224
57.5778
45.2639
77.5229
43.0703
207.788
43.3661
217.224
44.9766
39.9563
43.188
43.7193
42.2578
42.185
40.7972
40.9978
39.0739
40.0388
42.2141
38.0432
41.1611
38.0681
39.5413
41.8644
40.8739
62.9325
36.2433
211.84
37.3054
37.9132
43.7972
205.781
88.1302
39.767
216.098
43.8065
39.2987
38.0126
40.0371
37.528
37.2718
38.8354
38.785
36.5991
37.228
36.0593
35.0653
36.0176
36.3282
37.4155
35.8436
41.181
80.5405
37.8423
119.569
39.7207
169.819
39.7305
35.5906
38.7608
37.1742
36.503
37.3226
36.8708
34.8811
34.2006
33.9545
35.1851
31.3907
35.7144
32.7699
33.1426
42.353
193.887
94.4299
39.7091
179.252
43.18
39.4677
41.0548
116.008
91.8786
38.5152
158.19
40.0604
39.1933
34.2647
34.6787
34.2412
32.4335
35.304
33.2704
33.4393
33.152
30.4509
31.7667
31.3017
32.0472
31.8383
32.6003
176.117
193.401
167.608
111.561
94.6121
114.001
98.4455
148.204
148.479
132.011
84.4493
79.261
89.385
83.2735
122.848
118.324
109.66
74.4897
69.7581
77.102
72.1611
104.297
107.475
106.755
64.2349
60.7566
67.6278
64.1562
101.046
106.515
106.827
57.1128
53.5608
61.4606
58.253
101.106
107.845
108.597
51.3506
49.4356
55.5963
53.4514
91.1936
107.56
102.042
47.4441
43.0686
51.4484
47.8653
75.7345
95.4495
81.6078
40.3132
31.9494
44.9228
34.4119
180.521
205.369
173.542
118.599
100.121
119.103
92.1639
145.279
272.204
291.555
165.457
148.034
164.296
260.587
113.679
204.683
203.655
127.689
123.733
118.253
188.294
87.0619
153.216
166.23
101.953
93.6805
91.6958
169.626
83.628
167.016
185.686
83.5211
82.134
85.1289
185.059
74.4284
170.16
180.654
78.2014
76.182
77.7354
178.484
66.637
166.257
175.17
66.68
64.7181
67.4597
174.669
68.212
173.149
174.926
65.1976
66.3296
67.0028
173.661
68.6464
142.744
161.259
67.8815
65.6086
69.5503
150.336
85.4644
90.3431
83.5266
33.5576
25.4433
33.8685
24.7237
196.258
223.026
199.504
122.833
97.6936
124.637
101.493
139.07
270.654
306.159
164.479
137.609
165.209
275.226
97.5681
225.017
235.408
100.972
95.2893
103.336
229.494
79.7565
193.328
189.86
88.101
86.123
87.9015
181.52
63.5483
168.428
169.432
67.5092
64.3428
65.5359
168.03
60.7457
164.628
166.616
60.4771
59.8236
61.0701
165.585
64.2179
148.218
155.093
60.3667
61.2107
62.4209
150.134
60.1629
134.488
127.095
59.0044
56.5391
64.1745
124.659
51.0312
147.809
136.669
53.7408
54.1609
50.9558
140.042
80.6122
83.0963
73.0527
33.0626
26.4345
31.6763
26.7371
174.92
191.342
157.785
118.6
96.514
119.204
95.6183
130.47
245.075
270.855
153.554
130.673
154.805
234.65
83.8367
193.988
195.458
94.2631
87.6053
87.8077
197.334
81.3699
199.314
203.373
76.7399
76.0279
81.6033
203.837
80.5787
198.585
201.172
77.3936
77.9469
80.6025
198.099
80.3563
177.672
185.516
78.35
77.3511
80.7336
180.18
68.2538
147.617
149.688
68.8751
65.5405
73.7304
143.444
56.2423
138.376
141.304
61.1051
60.3947
56.996
139.545
48.5224
118.34
120.482
51.0893
47.915
50.2128
117.875
68.5326
74.9943
67.3049
31.6782
28.3321
31.4092
27.2508
151.849
188.947
166.697
114.694
94.1823
119.027
101.859
131.333
226.378
251.575
138.215
121.296
143.397
232.017
98.0531
208.375
214.508
96.9488
93.3999
102.081
213.753
98.5437
199.833
211.008
91.9222
92.8796
97.6792
210.035
94.9922
185.984
197.831
91.5214
89.608
97.1318
193.38
86.836
181.875
186.314
85.0822
84.8904
88.2792
183.925
80.2612
140.58
156.417
83.7495
79.1876
84.4197
141.028
50.0729
123.075
119.635
52.9645
49.0483
54.5678
119.614
44.6333
122.121
121.494
45.2649
45.1889
45.0379
121.464
70.7522
75.3183
68.2155
29.1688
25.5766
29.0606
25.593
188.991
218.212
193.956
122.65
107.932
121.004
104.843
167.518
186.951
184.208
96.5375
89.3506
95.6023
92.7666
155.995
178.914
168.301
84.6981
79.498
88.3224
85.9584
133.265
155.155
138.319
76.0633
74.467
80.891
78.2769
103.287
123.086
104.34
70.373
65.2866
71.4328
65.569
79.4918
91.747
81.2469
56.3013