/*--------------------------------*- C++ -*----------------------------------*\
  =========                 |
  \\      /  F ield         | OpenFOAM: The Open Source CFD Toolbox
   \\    /   O peration     | Website:  https://openfoam.org
    \\  /    A nd           | Version:  10
     \\/     M anipulation  |
\*---------------------------------------------------------------------------*/
FoamFile
{
    format      ascii;
    class       volScalarField;
    location    "3.3";
    object      omega_0;
}
// * * * * * * * * * * * * * * * * * * * * * * * * * * * * * * * * * * * * * //

dimensions      [0 0 -1 0 0 0 0];

internalField   nonuniform List<scalar> 
12920
(
130.677
198.083
175.846
159.109
121.93
92.3491
74.0282
64.6476
60.4753
54.6422
48.7784
45.0472
43.1588
41.8924
41.168
40.1073
39.5473
38.5022
38.1414
37.5718
208.143
322.653
223.425
148.518
114.098
110.461
104.765
101.527
89.9708
73.9512
62.6919
57.0501
53.9136
52.3198
51.5934
51.4844
51.5923
51.8202
52.5065
52.78
470.198
275.625
216.002
186.011
145.441
117.056
97.4692
85.492
75.3402
69.0436
64.0593
59.9468
56.0814
53.4229
51.6307
50.2102
49.1621
48.0543
47.1465
46.6162
146.438
224.997
213.601
173.49
144.865
122.16
106.919
92.8019
83.6185
76.7136
70.5987
65.7861
60.7999
56.2458
52.6791
50.2291
48.8015
47.314
46.5644
45.5346
370.098
345.167
290.387
231.961
191.515
177.158
155.761
134.336
108.926
88.0325
74.6652
68.0613
63.1109
58.6715
54.6012
51.2938
49.2347
47.3737
46.6408
45.4706
275.657
429.855
343.56
239.818
181.098
153.05
123.685
103.802
85.9424
75.9644
69.6977
65.7101
61.7529
57.9556
54.1069
50.8818
48.9788
47.0195
46.2609
44.651
226.765
214.276
202.795
191.573
177.249
157.972
129.755
106.542
88.6294
77.3266
71.1032
66.3826
61.0257
56.6494
53.0943
50.4025
48.9151
47.1576
46.3775
44.4783
352.874
241.883
216.284
174.691
145.29
129.113
204.168
162.875
136.273
111.94
101.9
101.748
98.4986
87.7513
55.5402
52.3498
50.2687
48.0573
47.0673
44.8828
268.694
281.633
231.638
186.659
146.484
206.599
308.949
222.119
159.106
162.454
171.558
165.677
174.252
154.12
90.7462
53.4561
49.4837
46.9002
46.097
44.9065
108.189
180.731
174.527
163.16
151.079
227.875
304.873
229.476
206.79
170.76
166.184
153.948
134.409
147.955
88.8622
48.6076
44.7673
43.1392
43.2757
44.3645
129.939
169.965
166.986
151.162
132.707
200.812
277.408
200.032
194.311
201.269
183.266
151.148
144.422
118.794
76.3784
46.578
42.951
41.2403
41.5145
43.0431
178.472
224.538
214.382
166.784
129.748
179.935
249.13
209.589
202.709
188.06
183.73
155.481
123.014
123.787
77.6685
43.4675
39.3223
38.0458
38.3616
40.4273
130.315
263.249
272.685
244.772
173.694
134.441
213.71
173.873
163.547
146.382
118.814
88.6379
75.385
72.4399
43.9215
40.2048
37.5623
36.2497
36.18
37.5877
132.08
163.803
182.239
182.9
170.01
151.025
134.023
120.395
106.067
90.7071
74.0346
60.8568
52.255
47.1246
43.5451
40.6573
38.182
36.1819
35.2093
35.3291
86.6328
153.568
183.469
182.429
159.757
136.706
122.459
114.16
104.905
94.2115
78.7911
65.2792
55.7468
49.7021
45.6138
42.1625
39.2765
37.0105
35.4004
33.6935
141.6
198.297
196.206
176.623
146.942
132.061
117.883
101.282
85.426
74.4586
65.3362
58.7984
53.8616
50.4539
46.9089
43.3288
40.2933
37.6503
36.4508
34.2084
273.302
211.447
198.412
185.287
159.486
148.497
131
107.218
82.8047
67.5506
60.7436
57.2905
54.6902
52.4623
49.7525
46.1608
42.9701
39.8613
38.5309
36.1987
182.462
204.758
209.023
187.108
160.87
149.505
129.997
105.24
81.6978
68.5029
62.3863
59.3525
56.9109
54.8756
52.9493
50.1913
47.325
43.9646
42.3284
40.1471
209.273
202.031
174.71
152.404
141.499
128.59
110.393
90.4462
74.8091
67.4188
64.0606
62.789
61.0345
58.5805
55.575
52.0015
48.8741
45.8764
43.9022
42.3513
29.8259
131.142
132.52
107.025
96.5621
92.1382
83.9373
75.6543
69.0059
64.691
61.2118
58.0223
54.9251
51.4266
47.9006
44.1033
40.709
37.2163
35.6476
33.7039
172.289
160.075
112.44
85.5308
66.6167
52.2267
42.9137
38.0711
32.6256
28.3153
26.0053
25.2803
24.9171
24.7659
24.6409
24.4938
24.4773
24.4205
24.3823
24.0329
342.427
274.585
162.457
94.336
69.7606
67.7767
66.2156
66.7909
63.6236
50.4312
38.2014
31.701
28.3981
26.7311
26.072
25.8704
25.9092
26.1381
26.4826
27.0307
202.259
162.255
120.677
115.381
91.7704
75.6825
68.9757
61.3442
51.5855
43.1577
37.8448
34.5286
31.7998
29.372
27.3373
26.026
25.241
24.8405
24.6273
24.6447
153.642
154.436
111.736
94.502
85.7195
76.2333
68.5639
57.7854
50.9563
43.9768
39.7563
36.5293
33.8913
31.2183
28.8948
26.7784
25.2174
24.2178
23.5661
23.328
315.219
357.258
219.868
125.242
91.3846
85.6286
83.1089
83.3243
75.7689
56.4418
43.8288
37.4648
33.9226
31.2171
29.068
26.9841
25.2417
23.9493
23.1597
22.7781
450.626
419.082
280.569
143.686
87.1612
70.6545
61.1223
54.0254
47.4194
41.9927
37.5048
34.211
31.1281
28.8841
27.1049
25.4384
24.0597
23.1064
22.7175
22.3587
267.817
186.307
120.518
101.018
85.372
73.9591
64.9374
59.2029
53.6388
48.0294
41.2097
35.9673
31.0079
27.2542
25.0288
23.8187
23.2753
22.9169
22.8515
22.6487
360.262
141.995
104.616
89.8678
75.1012
65.536
69.3912
65.6678
59.8008
52.7432
46.9395
40.6013
35.3692
29.694
23.6857
23.1987
23.2353
23.4873
23.7677
23.6434
236.935
157.675
122.5
98.8353
78.5553
74.8806
70.1537
68.0884
62.6154
52.3194
48.2757
45.1539
38.7175
33.6915
25.4266
23.2493
23.55
23.8098
24.4438
24.594
277.789
153.779
112.324
94.3572
79.6883
77.4613
67.7292
56.9481
50.5608
39.3529
34.1988
33.7285
32.9178
29.3442
26.3593
24.5758
23.8708
23.7456
24.0681
24.5619
77.6983
119.054
127.067
101.611
80.8078
77.099
67.4601
55.1794
47.18
47.2855
46.899
40.8509
34.2031
28.2289
25.351
23.5338
22.7034
21.3503
21.2651
21.6388
240.165
163.287
118.372
99.6542
86.6919
80.4362
68.9791
59.5755
60.7971
60.7322
54.614
45.3487
28.6295
24.2609
22.4908
20.6092
19.6075
19.0445
19.074
19.7205
121.205
159.407
155.914
130.901
99.2108
79.1767
78.5844
73.1468
66.7899
62.0344
54.969
40.5896
28.3892
23.9124
21.0038
20.1195
19.165
18.48
18.2313
18.5723
103.981
138.329
128.472
103.648
85.1703
79.2164
74.0838
67.8819
61.6708
57.159
48.4088
38.2795
29.9474
25.1409
22.3734
20.7967
19.6147
18.745
17.9022
17.8305
274.722
153.13
133.677
103.489
86.342
82.9764
78.4448
67.7897
57.5481
50.2343
45.9418
38.6687
31.1226
25.6203
22.5943
20.8822
19.6271
18.6076
17.6967
17.1696
128.909
142.561
128.302
97.8508
80.7717
74.8833
68.11
55.4042
44.231
36.6258
32.7054
29.407
26.7427
24.7878
23.3413
21.8899
20.6061
19.2101
18.3268
17.3955
455.734
144.468
118.507
94.5637
79.5716
76.9646
74.0816
66.7834
47.5929
34.4753
29.1969
27.5274
26.5882
26.0418
25.6148
25.0543
23.9923
21.5635
19.7485
18.0725
264.087
163.096
114.776
90.4232
77.4121
76.2885
74.7111
66.6827
47.024
35.0837
30.5847
29.054
28.2303
27.5929
27.1085
26.5069
25.7865
24.168
22.4553
20.5508
126.997
153.317
101.654
75.019
68.445
66.7525
64.9158
55.4333
43.0685
36.6303
33.9132
32.8321
31.73
30.3788
28.8614
27.2166
25.9685
24.8806
24.3158
23.5262
17.0117
89.241
89.8923
66.4635
52.7338
47.7199
42.5766
39.5117
37.8089
36.8593
35.6166
34.2613
32.6221
30.2467
28.2394
26.7686
25.502
23.5779
22.5837
21.26
70.6211
121.207
100.815
75.5998
60.8121
49.1597
42.1449
37.1316
33.3514
30.9922
29.6013
28.8949
28.3637
27.9599
27.6558
27.1995
26.9969
26.5408
26.2219
25.2975
245
158.512
92.6066
65.7695
52.0638
48.5123
47.0716
44.1132
39.0938
33.1897
29.0394
27.0868
26.196
25.9275
25.9585
26.1427
26.4437
26.7916
27.0154
27.2837
163.468
130.751
98.5816
87.527
63.8268
54.6749
48.3244
42.73
36.6897
32.573
29.7743
28.0573
26.5244
25.4858
24.7071
24.2741
24.0598
24.0086
24.023
24.1404
126.173
131.35
100.943
72.4783
62.1395
53.3692
47.8422
41.2249
37.0141
33.9103
31.3094
29.4222
27.5457
26.0311
24.7474
23.818
23.1814
22.7827
22.5774
22.533
208.943
245.153
154.365
98.3783
71.7195
63.3126
57.5858
53.6773
45.3792
38.3877
32.9567
30.0758
27.8239
26.1643
24.7276
23.6249
22.7948
22.2228
21.9253
21.7753
315.653
296.412
166.569
97.8875
65.9788
53.3296
46.1358
40.5741
36.109
32.919
30.0664
28.0334
26.0953
24.7064
23.5661
22.6501
22.0111
21.5606
21.3938
21.1455
174.818
139.988
107.361
85.3101
69.2835
57.98
50.3074
44.9932
40.1445
36.192
31.8205
28.5789
25.8288
23.9306
22.8034
22.1069
21.7991
21.5758
21.4712
21.1389
356.443
150.864
94.0097
69.8372
58.4857
52.3751
52.2126
49.6708
44.5782
40.5639
35.9695
31.073
27.2227
24.3619
23.5627
22.9818
22.821
22.5933
22.4262
21.7846
332.159
139.326
102.816
78.8889
59.6005
54.5035
51.6872
50.9226
46.3277
41.7443
39.8029
35.2932
29.9023
26.0484
24.1821
25.4549
24.8136
24.1199
23.8089
22.8036
254.443
131.061
105.499
82.177
62.3216
53.5641
48.0736
43.9866
38.6013
33.4276
32.434
32.2012
29.5913
26.5555
26.8223
26.7463
25.4544
24.535
24.1728
23.0275
283.189
195.365
118.86
77.6293
57.4441
51.7837
46.8005
42.8072
39.4579
37.0429
83.8498
56.7746
39.7417
29.9086
25.2551
23.8764
22.7811
21.8642
21.663
21.188
218.133
143.48
95.0574
70.3848
59.2489
55.1545
52.7687
50.1622
49.1666
46.1582
39.4315
30.3334
24.0951
22.0905
21.5541
21.1576
20.0894
19.5383
19.5274
19.7177
178.243
169.731
126.31
91.1559
67.9869
59.6547
57.4792
54.6626
49.7005
45.2888
35.9619
27.6001
22.8692
20.9826
20.2747
19.3172
18.5978
18.3503
18.3886
18.7982
141.677
140.532
125.932
101.073
76.7418
65.5825
57.1621
51.3821
45.6188
40.1507
33.1475
27.4037
23.3676
21.0497
19.7077
18.8407
18.2185
17.8518
17.7429
17.9677
152.866
140.161
124.859
95.8833
75.7666
68.1365
58.8825
49.5168
42.0785
36.358
31.7432
27.4467
23.8112
21.3724
19.8718
18.8935
18.1826
17.6843
17.3234
17.2891
146.874
158.552
126.328
89.8301
70.6843
60.7445
50.1124
39.9496
33.19
29.1218
26.4223
24.4986
22.9543
21.8162
20.8107
19.8121
18.9526
18.2148
17.6792
17.3559
205.686
148.844
119.597
85.7376
68.1422
60.496
52.1381
41.7571
32.4319
27.8488
25.7096
24.9163
24.3637
23.9432
23.3314
22.4406
21.2793
19.9235
18.9483
18.1042
172.183
140.736
115.277
80.4637
65.2504
59.0298
51.9871
42.3805
33.974
30.3357
28.6313
27.9904
27.407
26.9337
26.3589
25.5248
24.5123
23.0467
21.9657
20.936
263.994
130.395
88.8956
64.0212
57.7984
51.4972
47.3077
41.4327
37.2087
35.7188
34.7381
34.1279
33.1387
31.9735
30.5974
29.0623
27.6372
26.453
25.7883
25.4366
75.0743
105.213
104.122
81.3019
62.9203
54.5156
49.8366
47.2421
45.0211
43.0822
40.7834
38.2563
35.7465
33.4583
31.7891
30.0439
28.288
26.0104
24.8626
23.4661
146.946
96.4982
85.3591
64.8712
54.5935
44.1862
38.9483
34.6779
32.7296
31.2274
30.3069
29.6116
29.0453
28.464
27.9613
27.2929
26.9172
26.2212
25.8587
24.9742
235.699
125.709
78.3237
55.3132
49.2455
41.3189
41.2541
36.1213
35.0665
32.607
32.7644
32.7078
33.5047
33.922
34.5535
34.9413
35.2823
35.4171
35.4907
35.4023
216.16
121.938
90.7727
64.4367
54.305
43.6666
41.9614
36.87
35.2274
32.7792
32.0007
31.0629
30.9257
30.6371
30.8985
30.9523
31.159
31.2665
31.3826
31.3639
217.918
150.443
93.7565
62.2285
55.3529
43.0507
42.314
36.6124
35.6807
33.2266
32.3282
30.9648
30.1839
29.4651
29.2387
29.0515
29.164
29.1596
29.2046
29.1188
278.894
179.809
128.687
84.9869
66.598
53.3215
47.9976
42.2434
38.8953
35.5939
33.4877
31.7045
30.4662
29.4346
28.8749
28.4393
28.4275
28.3294
28.3263
28.1879
223.5
163.001
116.613
76.6452
60.7399
46.9775
43.6449
37.3519
35.3245
32.5482
31.2949
29.8348
28.9606
28.1207
27.672
27.336
27.3937
27.3448
27.3501
27.1807
267.615
130.261
107.102
79.474
68.368
53.9418
47.3299
40.6133
37.8839
34.491
32.5308
30.3905
29.2769
28.3155
28.1272
27.7317
27.696
27.4938
27.3471
26.905
149.878
159.928
103.765
64.8282
57.9961
49.4473
47.5802
43.414
39.2435
36.7423
33.5355
31.0091
29.3537
28.6318
31.8202
30.1239
29.2559
28.3266
27.8206
26.7639
216.737
167.852
99.444
67.332
54.6784
49.5274
47.7024
44.7778
40.5514
38.5216
36.5674
33.4456
30.9988
30.1261
32.3524
34.2047
31.8955
29.951
28.8699
27.0498
368.522
131.974
98.7368
68.5479
53.9616
46.3234
44.0177
40.6173
36.8473
34.2982
33.7173
33.5142
32.3762
32.4145
35.497
35.4684
32.8104
30.5163
29.1428
27.1239
255.21
143.267
100.914
65.1501
51.7286
45.0343
42.2041
40.0987
37.4519
34.9808
54.9723
50.0731
39.2579
34.4112
33.749
33.1198
30.5123
28.7706
27.8374
26.6126
156.034
133.857
94.0231
61.5773
55.1941
49.9249
48.9024
46.8055
42.504
38.182
33.29
29.7066
28.729
29.0488
30.4489
30.3195
27.9554
26.8065
26.4432
26.2038
177.027
143.192
117.651
81.1893
65.9318
57.7571
52.7276
47.5594
41.632
36.5387
31.0472
28.3675
27.165
26.7979
28.0452
26.2526
25.4576
25.45
25.6187
25.9706
164.24
146.977
137.469
108.534
80.745
63.5284
53.3905
45.2066
39.6698
34.288
30.5757
27.5446
26.1293
25.1703
24.7912
24.3828
24.3969
24.5137
24.7588
25.3868
154.93
136.645
130.363
98.8058
77.3999
61.917
52.7189
43.752
38.229
33.2593
30.1372
27.6574
26.0335
25.0382
24.573
24.1879
24.1275
24.2089
24.3276
24.7127
364.925
202.651
127.975
87.5267
70.7441
54.9892
45.778
36.9881
33.5306
30.2687
28.761
27.3555
26.7336
25.9025
25.5211
24.9789
24.7565
24.631
24.5673
24.7349
230.311
148.988
124.745
83.6526
67.8483
52.7471
44.683
36.4876
33.1142
30.6646
30.0223
29.2362
29.0053
28.3225
27.7544
26.9716
26.4823
26.0939
25.6712
25.5435
154.516
141.645
123.011
80.8925
66.0807
51.8073
45.9442
39.4103
36.9629
35.5796
35.4226
34.6349
34.1987
33.3982
32.6105
31.5173
30.6566
29.8956
29.4061
29.0472
157.413
134.836
96.278
65.337
60.4809
49.457
48.0822
45.384
46.2502
46.0942
45.9319
44.7763
43.4492
41.6789
39.8273
37.914
36.8324
36.0924
35.7882
35.617
97.4271
100.257
94.0121
74.6736
63.9982
57.362
53.5097
50.6819
48.2127
45.6645
42.8899
39.7857
37.027
34.5723
32.5135
30.1583
28.17
26.0225
25.1056
23.5172
215.349
86.047
71.9485
53.9683
45.4357
38.7065
35.1679
32.9709
31.7353
30.7443
29.9279
29.107
28.2758
27.2736
26.3415
25.4187
24.88
24.3577
24.1074
23.4925
253.31
187.089
95.6686
83.7284
68.1885
50.0096
57.0361
41.6447
52.1949
47.418
54.4027
53.1352
56.3783
56.1855
57.8234
58.0179
58.8538
59.0868
59.4522
59.3549
284.767
146.824
99.9983
72.2034
68.6628
48.5081
54.801
43.3716
50.7983
46.4662
51.0839
49.1747
51.4684
50.7702
51.9341
51.7974
52.4268
52.5265
52.8175
52.6754
307.627
172.125
102.974
72.9086
66.537
46.7928
53.972
41.3765
48.9132
43.4024
48.0797
45.9877
48.4216
47.7736
48.9514
48.8874
49.5279
49.5989
49.8657
49.5956
255.885
151.176
128.85
79.9796
77.8852
53.7517
57.064
46.42
51.2629
47.6294
50.7595
48.548
49.7813
48.5289
49.0387
48.5965
49.0101
48.9856
49.2293
48.9481
230.05
144.459
115.138
72.6616
71.126
49.5997
54.595
42.9798
46.5473
42.7439
45.7349
44.5886
46.2259
45.8486
46.4753
46.5841
47.2548
47.476
47.9436
47.8028
176.693
139.256
113.675
81.6791
79.8173
57.7289
58.634
47.3931
50.6888
46.4304
49.5171
47.5265
48.9978
47.9673
48.2707
47.7734
48.1834
48.229
48.5582
48.3088
165.136
168.106
119.928
72.35
74.9585
55.7455
53.903
48.0222
49.4347
47.7309
49.8615
48.9976
50.2341
50.0134
53.4461
50.1579
49.4906
48.9148
48.9179
48.0568
360.847
236.931
117.894
70.9339
70.7765
58.4354
60.6568
56.2983
56.1785
56.1131
55.8682
55.6119
56.185
56.6953
59.5
54.5006
51.721
50.158
49.6889
47.8993
471.936
167.933
105.216
73.4408
64.0553
51.9725
56.7557
59.9434
59.4585
58.3588
57.4972
58.0302
61.2296
61.8769
62.4041
56.1422
52.5857
50.3199
49.2791
46.822
194.762
173.961
121.759
72.6235
71.8578
56.8704
58.009
60.3728
59.1679
54.4326
52.9959
56.4571
62.1169
62.9899
62.0653
54.4992
50.6799
48.6386
47.5759
45.728
204.036
138.116
112.023
70.9183
73.2062
61.7599
66.9805
63.4298
59.0306
55.723
55.4172
56.5559
59.6094
59.4961
59.5986
51.5583
47.7132
46.4277
45.9091
45.4385
196.219
142.709
135.414
85.4425
90.2798
73.3759
66.7533
54.9595
53.9086
49.2339
51.0047
50.789
52.1597
51.3145
50.3593
46.5471
45.3625
45.425
45.4069
45.7315
207.877
191.776
161.945
107.475
99.4545
72.1481
66.559
55.397
53.3059
47.42
48.2437
46.4367
47.0651
45.9838
45.5664
44.6687
44.6522
44.7765
44.8267
45.5048
250.626
166.611
151.022
99.1793
94.622
69.164
68.7244
56.2768
54.8642
48.187
47.9502
45.9425
46.3237
45.3949
44.9982
44.469
44.5051
44.6873
44.6614
45.1469
319.271
175.928
147.533
87.4898
88.9773
62.9248
63.7205
51.0159
53.4061
47.4009
49.1258
46.603
47.5723
46.3191
46.4065
45.7567
45.8258
45.7378
45.6362
45.8042
212.732
157.199
129.64
84.0344
83.488
58.8328
61.5369
49.9318
54.1418
49.1135
51.0784
48.6823
49.5929
48.34
48.4708
47.9052
48.0107
47.8928
47.6732
47.228
271.602
158.419
135.168
81.2193
84.073
59.8226
66.3634
56.1821
61.572
56.8236
58.6927
55.9142
56.5001
54.9409
54.8297
53.8931
53.6264
53.029
52.762
52.0376
168.254
146.862
111.024
72.8341
81.3547
62.0751
75.4397
69.6008
76.7722
73.8198
74.8934
71.3754
69.8784
66.6109
65.8628
64.804
64.9187
64.8562
64.9923
64.3066
86.3511
100.118
85.0956
70.1758
62.853
57.4021
53.7363
50.3162
46.8561
43.1627
39.7662
36.0905
32.657
29.5348
27.5807
25.8685
24.8271
23.4311
22.7485
21.0904
32.3984
35.2808
66.5862
33.2297
33.049
33.9301
74.0461
32.4352
66.753
58.3863
33.1771
33.2063
75.9228
66.0981
83.8033
44.9419
40.5712
34.8704
96.1902
38.4532
34.7789
67.3311
38.8962
32.9987
96.8333
76.4483
33.576
30.2227
234.375
274.604
208.65
87.0082
78.2152
75.9242
64.6419
171.463
202.017
207.708
77.148
72.4153
63.0587
58.2186
158.347
206.228
188.677
69.3321
58.7539
56.4454
49.6715
171.72
181.103
171.85
56.8483
52.555
46.5684
39.5148
165.593
170.85
163.148
51.9844
49.5941
38.3625
37.3378
173.34
160.094
154.841
48.3878
43.6821
37.3992
37.4081
164.395
155.052
156.592
42.8075
39.8904
37.2215
35.2585
121.173
156.33
126.39
38.9029
31.3777
34.7942
31.1966
236.027
312.098
240.799
80.3509
65.8947
85.4719
71.8412
215.71
227.959
191.829
63.4967
58.4531
68.5086
54.4834
174.961
186.077
191.386
56.4219
45.8737
50.7868
46.0051
166.903
191.79
182.421
42.8858
37.8815
46.2722
47.438
158.062
178.733
161.112
37.0497
36.5237
47.2379
44.2552
136.083
156.532
148.981
36.741
36.6941
43.0617
39.8021
145.203
142.07
119.66
36.2564
32.8442
38.9364
32.7793
131.008
119.604
114.668
32.3702
30.2841
30.8921
27.8763
206.51
246.649
202.564
80.7985
65.5166
76.0265
62.5406
191.54
203.705
201.865
61.6733
52.9627
61.6507
62.3466
202.14
199.074
189.434
50.9364
50.5009
63.1077
63.681
188.586
187.365
184.938
51.1655
51.9584
63.0644
59.215
159.223
183.991
167.943
51.5153
46.8338
57.4861
54.1682
146.397
152.826
129.382
44.8648
39.0666
50.9902
35.6955
121.309
129.863
128.573
37.8206
32.6733
32.5183
28.2969
111.799
125.223
105.974
30.8479
27.7406
27.7864
26.2676
210.97
317.104
277.32
79.2933
65.8328
91.4849
82.4111
204.955
268.249
251.062
64.4226
64.6737
79.7346
76.1704
191.167
250.056
236.159
65.446
66.087
75.1404
72.4492
184.579
233.689
214.013
65.5877
61.6543
70.6495
67.2787
170.232
208.393
171.041
59.7341
56.1935
65.2221
59.1957
123.946
158.53
126.197
52.9939
35.6315
54.6932
38.835
124.33
123.947
120.714
32.0636
27.3781
34.5614
28.3111
108.037
121.355
107.815
26.8368
25.6152
27.3857
24.734
68.5828
63.666
57.8424
54.6698
54.0225
49.7326
47.6917
65.0586
57.009
52.9044
53.6685
50.7289
47.194
43.3116
53.846
51.0919
44.9117
49.2231
44.4378
41.8134
37.6925
48.7105
42.4111
36.6014
43.6218
41.7972
36.3993
33.3367
46.4079
35.5936
34.5564
41.4993
38.6012
32.8296
32.0099
39.9924
34.5193
34.1819
37.1885
32.4372
31.733
30.267
34.9559
33.8148
31.544
31.1671
27.6662
29.5422
27.0766
27.9959
30.9055
28.2471
26.6679
23.9169
26.3802
24.9305
58.5331
71.5621
62.6634
50.9759
47.1949
51.7766
46.8556
52.5657
59.8701
49.2204
46.2047
42.1631
45.3226
40.4326
41.7354
46.3173
42.5796
40.5661
35.6241
39.0338
37.0512
34.9338
42.7219
43.2408
34.2819
32.1965
36.6483
46.1242
33.6735
42.9653
40.5956
32.019
31.9141
46.9161
44.8425
33.4359
39.5505
35.9811
31.772
30.41
43.1672
37.6185
29.9182
34.8518
29.8353
29.64
27.0537
35.783
30.6381
27.7099
28.4764
26.6515
26.4186
25.1929
29.4094
27.0417
57.7297
64.9927
57.5112
50.0741
45.904
51.7143
49.848
48.6366
56.955
57.888
44.7905
41.6106
49.6747
49.8565
46.8303
58.5845
59.1083
40.9211
40.1992
49.8915
48.9071
47.5795
58.6074
54.4652
39.7911
49.9426
47.9857
43.5666
42.5995
52.7141
47.9055
49.9216
45.7008
41.8403
35.4228
35.5832
44.226
31.7928
42.9204
37.0318
32.8075
26.502
29.6169
29.2712
25.6543
35.0842
29.839
25.2099
22.9787
26.4419
25.1389
24.3815
28.4758
26.2399
22.5849
21.8195
60.5326
76.4883
72.3733
55.6186
52.0954
61.2536
58.0299
60.1915
70.7987
68.4658
51.8088
51.7455
57.3088
55.8054
61.2038
67.3621
64.8367
51.669
50.4433
54.8268
52.0003
56.4986
63.4218
60.2172
49.4275
44.6161
50.6962
46.147
49.4256
57.9698
50.9597
42.7032
35.3803
43.4593
35.134
31.4147
46.339
33.0112
32.4651
25.6808
32.0074
25.3406
24.7685
29.7034
24.9621
24.3535
22.2448
23.9046
21.5558
23.7612
24.1603
22.7236
21.883
21.3925
21.1067
20.1485
51.4637
47.3048
45.7692
47.7719
46.519
44.2366
42.7101
47.7004
45.1699
41.2425
45.375
41.8924
41.682
38.0718
42.4212
39.8886
36.3976
40.9075
38.7002
37.1642
35.1886
40.2174
35.3591
33.0107
38.3502
37.0646
34.6226
33.2679
36.6495
32.6466
31.8328
36.4293
33.6582
33.0152
32.1531
31.0526
31.4741
29.7841
32.7294
30.2199
31.7689
30.4186
26.8689
29.0421
26.7922
29.5351
28.1577
29.974
29.1321
23.9786
26.2109
25.1993
27.8694
27.4028
29.0819
29.5965
45.0009
48.0836
44.0931
43.9849
41.5343
42.7116
40.0155
40.0334
42.7863
38.7118
40.4095
37.0425
39.0431
36.4291
34.563
37.5846
35.8644
36.136
33.9075
35.7315
34.0931
33.4699
32.7172
32.8681
32.944
32.9511
32.4841
32.5163
43.0402
32.5176
37.5256
33.0302
38.2926
33.1903
42.2556
30.4365
55.2202
43.7921
32.9664
31.438
62.5327
46.3825
27.1108
40.5478
32.7008
30.8692
29.8401
42.3228
35.1255
25.5714
31.1011
27.951
29.8115
30.3127
33.995
31.9359
43.7648
49.265
48.35
42.2898
40.5912
46.1036
45.9218
40.0947
48.1674
47.7821
39.8439
37.641
45.3872
43.0713
38.6587
47.5637
45.9576
37.0454
35.5291
42.2737
39.569
43.7159
57.9627
40.9463
41.1682
42.5315
222.799
38.931
42.8235
80.7893
42.1682
196.531
40.9465
182.194
44.0029
43.051
30.8764
25.9847
65.2622
46.024
29.273
27.3706
31.685
24.954
23.0947
41.701
34.0738
27.0026
26.4718
26.9562
22.7565
22.0291
32.7529
30.7683
26.4184
26.2234
50.4219
57.0696
55.2764
48.7975
47.5956
52.3236
50.5219
49.5167
54.5395
52.7424
46.9676
44.2689
49.4358
45.8683
47.3038
51.6027
48.5228
43.3339
40.2951
44.4289
40.7764
41.3412
47.1238
42.1357
39.0603
34.9141
39.2885
34.4581
32.6821
39.485
32.0072
33.4896
29.6597
32.5789
28.526
25.1233
29.519
24.4836
28.6225
26.6964
27.4603
25.558
22.3953
23.3828
21.5412
26.3588
25.932
25.1402
24.4846
21.6275
21.1648
20.3021
25.8781
25.8395
24.3001
23.8358
46.1105
44.5277
42.9215
54.771
51.9951
52.4707
52.9075
41.4218
41.807
38.4729
50.4592
48.8192
52.1859
50.8391
38.82
37.7157
36.0683
49.003
49.1696
50.6999
49.6069
37.2055
35.568
34.1993
48.6999
47.6717
48.9263
47.4333
34.2071
33.9207
33.1062
47.5954
47.2167
47.2722
47.179
31.4872
32.7865
31.9294
46.7939
46.2847
47.3285
48.4252
30.2294
31.7145
31.5872
46.3145
46.7569
48.8944
49.7929
29.7441
31.7162
32.27
46.6686
46.3525
49.8847
49.9053
41.7188
42.4682
40.137
50.898
52.1302
49.8894
51.144
37.5908
39.28
37.0304
51.773
50.8344
51.0986
50.3965
34.9321
36.4106
34.6378
50.553
48.5435
49.7467
45.4253
33.6899
34.1509
48.5676
47.5231
45.8354
44.0654
43.3113
33.6859
50.9051
50.6437
45.7364
46.0125
43.9077
44.9767
32.6342
49.3981
42.0798
46.4449
48.3164
45.5786
48.6237
32.2348
39.8399
35.9399
49.0481
50.3472
49.6009
51.4566
32.9538
35.3969
33.9983
50.49
50.3956
51.4839
50.7389
40.7978
46.3813
46.0995
50.7251
51.7933
56.4121
56.059
38.0374
45.375
42.5543
51.5983
50.5123
54.7477
51.2505
35.7025
41.6641
38.8365
49.7374
45.3086
50.3185
46.8219
52.7908
37.7472
34.4072
43.9714
42.7889
45.5945
43.7283
52.8512
33.3977
30.8136
43.2605
44.4447
43.536
43.7139
41.684
30.1604
29.2144
45.1791
48.333
44.3282
46.4962
35.0624
29.1569
29.4763
49.3147
51.1098
47.363
48.4801
33.0037
29.5881
29.251
51.0807
50.295
48.4522
47.8853
47.6579
51.978
49.9189
59.0893
56.9837
60.616
55.1179
43.5326
48.5423
44.4923
55.2983
51.2066
52.7405
48.7735
39.3698
43.0534
39.5023
50.2653
47.154
48.0981
45.5303
34.4619
38.0479
33.7009
46.0845
44.3052
44.2989
42.7817
30.3906
32.214
29.2945
44.2234
44.6975
42.8619
43.1264
28.7814
28.6112
27.5075
45.0319
46.4981
42.9864
43.2272
28.985
27.2981
27.0718
47.0422
47.6736
43.3662
43.6132
28.8085
26.9953
26.3275
47.6068
47.1409
43.3841
42.6076
57.7298
58.6272
60.5301
86.3987
85.1087
85.4468
92.302
55.5555
60.0627
59.2674
84.1481
86.4544
93.3798
95.8112
56.6242
59.2983
58.8925
88.6971
90.9988
96.7296
102.071
55.5893
58.6163
58.0333
90.3072
92.9925
103.641
107.979
55.9664
58.0407
58.0264
94.3829
95.4499
109.007
109.588
55.7866
58.1724
59.9798
94.9986
96.7279
108.768
104.457
56.8275
60.5631
61.1301
97.3367
97.6884
103.592
102.384
56
61.0721
60.5011
97.2942
95.7306
102.24
101.188
60.012
56.6474
59.5933
85.2492
93.5064
88.1284
96.9486
59.5901
59.8024
59.6026
95.0072
97.6285
98.2059
101.208
58.7736
59.1403
56.3443
98.9138
105.896
103.557
113.76
57.4281
54.795
53.4025
108.005
113.156
117.256
124.823
57.8558
53.9135
55.4879
114.282
115.109
126.441
127.718
60.2567
56.8711
60.6236
114.25
108.048
126.509
116.468
61.9533
62.1993
63.4962
105.967
103.463
112.268
105.879
60.9613
63.2061
61.5941
103.153
101.281
105.189
102.893
60.3436
63.9815
64.4672
90.9305
98.1466
95.8899
99.0917
59.7027
63.2043
60.1497
99.0424
101.495
98.7561
99.2902
55.9534
59.3371
56.5357
103.773
113.903
100.459
107.41
52.6313
55.5957
54.9018
117.401
124.733
109.93
115.791
54.7754
55.1325
56.0409
126.617
128.987
117.243
119.031
60.4958
56.4336
59.3464
127.739
117.111
118.176
110.891
63.3197
60.3786
60.7671
112.766
106.148
108.404
105.359
61.2545
60.5373
59.3567
105.423
102.806
104.985
103.388
65.204
68.1829
61.3057
99.748
98.834
98.282
89.2265
59.7129
58.7072
55.7411
97.9171
98.1515
88.2988
91.224
56.4782
55.4639
53.2912
98.8679
103.85
92.4776
92.3543
55.2321
52.1655
51.6931
105.899
111.099
92.3937
96.7981
56.0888
52.2824
53.2987
112.381
113.692
98.1377
99.4988
59.0434
53.2789
54.0085
113.051
107.665
99.3424
101.138
59.7107
54.3551
54.5417
106.526
104.608
101.291
101.044
58.4957
54.2177
53.0919
104.346
103.097
100.535
98.8567
37.1201
32.42
36.3706
32.8451
34.3177
32.5714
40.7976
47.4021
33.765
48.8426
38.8694
37.251
33.9785
165.87
76.9201
52.7765
62.4262
200.454
46.3814
89.7767
216.304
33.512
32.8478
32.9019
32.7217
32.5224
32.4415
33.1371
37.1752
32.998
32.9021
37.1693
32.6748
40.6577
34.9524
47.762
39.0256
33.3395
50.0978
33.8387
170.713
37.4718
75.707
203.683
54.6133
66.9159
87.38
220.516
47.5038
43.0146
32.5251
38.0775
33.0182
38.4372
33.1949
41.4602
88.8575
54.9871
65.524
187.729
55.4772
90.2833
173.572
84.192
52.1862
63.598
92.1956
55.1838
69.7775
115.467
42.669
33.188
33.316
38.327
33.3523
41.9518
39.1695
42.6397
33.1798
33.3091
38.8871
33.3492
41.2343
39.2981
84.8115
187.945
56.9721
75.4105
86.7039
172.4
57.9504
80.3628
94.0237
54.5018
72.4345
67.909
115.182
57.3982
45.2165
76.8847
43.0135
207.786
43.2911
217.364
44.9477
39.9286
43.1734
43.6888
42.2398
42.1649
40.7821
40.9675
39.0406
40.0051
42.1748
38.0052
41.1329
38.0357
39.5059
41.8402
40.8159
62.1258
36.2076
212.091
37.2682
37.8507
43.78
205.873
87.5438
39.7641
216.326
43.8121
39.2607
37.9732
40.0157
37.5055
37.2448
38.8153
38.7567
36.5622
37.1896
36.0266
35.0401
35.9902
36.2988
37.3843
35.8079
41.2162
80.65
37.8427
119.979
39.7049
169.593
39.7761
35.5637
38.7239
37.1197
36.463
37.2818
36.8414
34.8362
34.1698
33.8974
35.1247
31.346
35.6637
32.7383
33.0976
42.4031
193.845
94.2516
39.736
179.081
43.2112
39.5151
41.1039
116.34
91.891
38.5583
158.034
40.0952
39.2387
34.2489
34.6458
34.227
32.4095
35.2832
33.2365
33.4314
33.1394
30.4207
31.7761
31.2802
32.0411
31.8061
32.5996
176.491
193.827
167.951
111.762
94.8413
114.218
98.6292
148.182
148.652
132.128
84.5199
79.3844
89.5617
83.3792
122.945
118.432
109.879
74.5615
69.8084
77.2072
72.2341
104.381
107.658
106.877
64.2744
60.7787
67.6856
64.2015
101.21
106.617
106.917
57.1169
53.5463
61.5066
58.2563
101.206
107.965
108.674
51.3412
49.4168
55.613
53.4407
91.1467
107.609
101.911
47.4026
42.9939
51.4383
47.7819
75.7323
95.3632
81.497
40.2346
31.8945
44.8312
34.2757
180.675
205.78
173.726
118.695
100.184
119.337
92.1509
145.591
273.104
292.395
165.637
148.568
164.45
261.411
113.944
205.155
203.999
128.058
124.134
118.604
188.621
87.1402
153.685
166.674
101.989
93.7615
91.737
170.07
83.6663
167.459
186.073
83.6044
82.2156
85.2092
185.467
74.46
170.319
180.92
78.2667
76.2278
77.8306
178.718
66.6973
166.448
175.328
66.6156
64.7476
67.5193
174.895
68.3453
173.343
175.189
65.3092
66.4792
67.1124
173.865
68.5906
142.618
161.105
67.8774
65.4694
69.5883
150.152
85.5672
90.4294
83.5909
33.4634
25.3844
33.7973
24.6689
196.8
224.107
200.114
123.619
97.9873
125.348
101.814
139.646
271.649
307.654
165.227
138.251
166.027
276.178
97.6604
225.183
235.608
101.122
95.4099
103.495
229.609
79.6182
193.407
189.84
88.197
86.1494
87.8374
181.544
63.5138
168.577
169.486
67.4589
64.3123
65.4846
168.103
60.7223
164.743
166.717
60.478
59.8314
61.0349
165.658
64.3213
148.153
155.06
60.4464
61.2107
62.5051
149.967
59.8442
134.986
127.103
58.9209
56.4614
64.0436
124.879
51.0982
148.099
137.262
53.8188
54.2545
51.0049
140.413
80.6791
83.2088
73.0862
33.0589
26.3966
31.6984
26.7362
175.25
191.547
157.881
118.74
96.5416
119.343
95.4638
130.873
245.678
271.689
153.932
131.081
155.149
235.088
83.885
193.973
195.526
94.4027
87.7174
87.8646
197.403
81.3531
199.481
203.554
76.6759
75.9985
81.5925
204.064
80.601
198.592
201.409
77.4208
77.9562
80.6005
198.254
80.3186
177.494
185.522
78.3117
77.1873
80.744
179.992
67.9092
147.88
149.485
68.6338
65.3409
73.4229
143.558
56.3117
138.141
141.539
61.1533
60.4175
57.0552
139.635
48.5008
118.554
120.469
50.9563
47.8547
50.1647
117.992
68.581
75.0326
67.3533
31.7182
28.3544
31.4376
27.2589
152.203
188.946
166.794
114.79
94.18
118.868
101.571
131.413
227.232
252.565
138.499
121.575
143.649
232.83
98.1722
208.599
214.941
97.1111
93.5554
102.144
214.028
98.726
199.734
211.059
92.1775
93.0779
97.9181
210.015
94.9184
186.087
197.598
91.428
89.5091
97.0791
193.262
86.8239
182.002
186.403
85.0816
84.9218
88.2054
184.013
79.9367
140.138
155.954
83.6373
78.7339
84.3523
140.593
49.9243
123.32
119.81
52.7332
48.932
54.3096
119.813
44.646
122.215
121.674
45.2881
45.2227
45.0356
121.628
70.7756
75.3308
68.2202
29.1768
25.57
29.0336
25.5835
188.978
217.975
194.174
122.29
107.783
120.696
104.797
167.648
187.035
184.29
96.4906
89.3686
95.5812
92.8267
155.882
178.857
168.09
84.7505
79.4776
88.3236
85.9505
133.034
154.84
137.964
76.113
74.459
80.842
78.2007
103.042
122.683
104.032
70.3376
65.1449
71.3033
65.3857
79.4388
91.4462
81.1714
56.1204
46.0823
54.9772
47.0307
73.549