/*--------------------------------*- C++ -*----------------------------------*\
  =========                 |
  \\      /  F ield         | OpenFOAM: The Open Source CFD Toolbox
   \\    /   O peration     | Website:  https://openfoam.org
    \\  /    A nd           | Version:  10
     \\/     M anipulation  |
\*---------------------------------------------------------------------------*/
FoamFile
{
    format      ascii;
    class       volScalarField;
    location    "3.3";
    object      p;
}
// * * * * * * * * * * * * * * * * * * * * * * * * * * * * * * * * * * * * * //

dimensions      [0 2 -2 0 0 0 0];

internalField   nonuniform List<scalar> 
12920
(
790852
896659
835370
854017
807157
786265
727825
700451
643024
602585
545339
495209
437378
381854
323268
265276
205974
145489
82902.8
32253.3
1.06263e+06
941493
844654
864456
818322
794871
732721
705093
645026
604405
546344
496042
437771
382290
323537
265543
206264
145875
82912.2
31193.3
738000
907513
862433
888915
822507
798833
739653
708137
650166
607004
548764
497572
439287
383442
324491
266322
206999
146568
83365.4
30656.2
619015
935697
912990
916503
855694
826201
756200
721351
657102
611890
552103
499893
441144
384834
325708
267193
207730
147170
83654
30203.6
969488
1.10163e+06
922266
928743
850185
823212
761545
722994
662798
615601
557298
503649
444648
387599
327861
268695
208826
147882
83974.4
29849.2
1.3382e+06
1.17625e+06
1.02446e+06
985720
885506
850288
780439
735482
674311
623367
562778
507753
448644
390559
330265
270099
209740
148195
83990.9
29415.8
1.02614e+06
1.15734e+06
990069
981634
875912
845945
780932
737266
678087
627287
567293
511827
452388
394069
333188
272078
210861
148733
84008.4
29027
975788
1.09908e+06
953556
967505
875788
856998
803731
754450
697312
639946
585068
529059
470728
411811
336540
273327
211517
148730
83660.6
28531.4
991776
1.10944e+06
983795
974690
886074
868962
818393
763760
704130
649657
594096
536559
478057
418703
352388
274583
211781
148805
83347.6
28045.6
867156
1.04359e+06
918239
973724
884297
867451
819087
763671
710272
655204
598641
540452
480644
420258
351758
275505
212273
148648
82985
27158.5
1.11983e+06
1.07854e+06
955463
991250
907609
876025
824050
770561
717205
663037
605843
546542
485778
423868
354524
276873
212701
148851
83003.7
26121
977474
1.10016e+06
1.00204e+06
1.03502e+06
932302
895081
838303
782351
727873
671498
613035
552960
491421
428725
359144
277440
212509
148830
82859
25099.6
1.10673e+06
1.13977e+06
1.05244e+06
1.03975e+06
961106
908751
854126
794012
732314
671919
611439
550010
486367
421579
337709
274607
212305
148490
82445
24499.5
1.47841e+06
1.30389e+06
1.13593e+06
1.08623e+06
984317
927020
853736
791793
723159
659788
594214
530444
464377
399466
335906
273992
211391
147836
81909.9
23682
1.54538e+06
1.33773e+06
1.10758e+06
1.08773e+06
984461
928123
852040
794791
729217
661935
594542
527822
461147
399430
336579
273179
210505
146854
81214.4
23008.2
1.50221e+06
1.37399e+06
1.20586e+06
1.13459e+06
1.02438e+06
955226
866199
798242
725687
661459
589292
524163
459512
396765
334426
272366
209685
145926
80399.3
22543.3
1.29796e+06
1.30898e+06
1.16068e+06
1.13163e+06
1.0157e+06
957819
870605
803623
728431
659790
590762
525821
460296
396781
333268
271721
208912
144925
79470.7
22263.8
1.25035e+06
1.28104e+06
1.18086e+06
1.15682e+06
1.04397e+06
978993
885959
815203
736192
666398
595184
529168
462489
398630
334570
271940
208425
143984
78537
22610.2
1.32344e+06
1.35141e+06
1.19264e+06
1.15981e+06
1.04248e+06
981991
890565
820605
741307
671026
598840
531757
464304
399894
335189
271832
208050
143239
77624.8
23367.5
1.5786e+06
1.43316e+06
1.22746e+06
1.17185e+06
1.05652e+06
989346
897051
824578
744522
673431
600814
533241
465499
400603
335708
272152
207953
142960
77511.9
24900.7
765031
891226
836034
853882
805956
785327
727502
700132
643135
602786
545379
495260
437396
381843
323248
265255
205965
145536
82981.6
32162.6
932618
931080
844898
863900
818543
793216
734065
705115
645332
604641
546373
496098
437807
382282
323516
265519
206259
145956
83038.9
30961.5
825505
898234
860991
889468
822570
798659
739806
707968
650228
607026
548854
497633
439319
383458
324501
266319
207021
146694
83571.6
30468.7
684092
943117
916556
917384
855270
825094
755923
721297
657264
611969
552200
499945
441182
384870
325732
267214
207774
147332
83902.7
29976.9
943586
1.07834e+06
929275
926321
850030
822381
761264
722633
662562
615556
557156
503616
444678
387660
327892
268721
208867
148053
84262.7
29601.6
1.33371e+06
1.17007e+06
1.02329e+06
985878
886932
850575
779436
735794
673628
622824
562881
507859
448766
390668
330315
270156
209808
148429
84317.4
29168.4
1.07869e+06
1.17052e+06
991382
979173
874852
845578
782248
737235
678587
627068
567480
512225
452730
394443
333196
272106
210889
148908
84356.8
28793.2
980844
1.10812e+06
954391
961479
873374
855744
803111
753748
696482
640707
585372
529076
470702
411589
336422
273230
211513
148895
84106.8
28276.3
1.12209e+06
1.11788e+06
985529
974373
884524
866402
817086
762819
705098
650000
594134
536633
477937
418511
352431
274540
211740
148976
83815.7
27762.5
951773
1.07454e+06
921457
975769
883776
865768
817869
763752
710454
655338
598609
540343
480559
420193
351767
275542
212244
148804
83327.4
26906.3
1.1026e+06
1.08343e+06
962902
995541
908825
876214
823432
770676
717967
663228
606083
546701
485908
423972
355089
276881
212678
148995
83367.9
25947.8
1.06031e+06
1.11716e+06
1.00569e+06
1.0368e+06
932991
895340
837816
783036
728420
671787
613355
553275
491615
428793
359368
277430
212519
149066
83253.7
25121.5
1.04644e+06
1.13823e+06
1.04928e+06
1.03991e+06
960404
907648
853389
793756
732190
672003
611501
550037
486277
421472
337655
274594
212348
148689
82946.3
24466.6
1.40501e+06
1.29069e+06
1.13186e+06
1.08477e+06
985558
929891
854903
790910
722718
659716
594440
530667
464508
399369
335943
273971
211412
148018
82260.7
23708.6
1.30218e+06
1.32045e+06
1.10139e+06
1.08615e+06
983868
927061
851430
794228
728701
661930
593065
527207
461518
399295
336206
273063
210487
147043
81550
23069.7
1.50589e+06
1.37081e+06
1.20462e+06
1.13521e+06
1.02394e+06
954288
865481
799050
725509
660911
589685
524842
459760
397031
334277
272314
209682
146082
80745.4
22614.5
1.288e+06
1.33989e+06
1.15685e+06
1.13218e+06
1.01598e+06
957569
870355
803078
728015
659748
590686
525617
460146
396612
333546
271713
208945
145056
79780.6
22264.6
1.13124e+06
1.29129e+06
1.17803e+06
1.15591e+06
1.04414e+06
978882
886084
815242
736149
666411
595038
528851
462199
398555
334623
271929
208469
144089
78733.2
22431.9
1.34311e+06
1.34231e+06
1.19273e+06
1.16159e+06
1.0431e+06
982516
890868
820800
741291
670975
598758
531667
464168
399824
335118
271834
208073
143312
77788.9
23228.2
1.60438e+06
1.4301e+06
1.22973e+06
1.1719e+06
1.0567e+06
989697
897177
824723
744541
673370
600810
533244
465482
400603
335722
272143
207969
143001
77602.4
24884.8
713609
852333
837571
855145
805634
784049
727425
700089
643224
602940
545412
495307
437404
381857
323235
265222
205945
145617
83208.9
32055.3
1.0127e+06
928927
855426
870123
819696
791333
735486
704849
646006
604797
546527
496245
437836
382292
323504
265503
206277
146119
83347.6
30564.2
740538
893740
862850
891672
822367
798123
740068
707293
650449
606949
548961
497738
439386
383499
324508
266304
207057
146939
84036
30211.8
724015
956883
917760
919848
854463
822446
755730
721097
657548
611776
552438
499990
441271
384951
325796
267257
207854
147657
84491.8
29719.3
1.14763e+06
1.09608e+06
926513
924559
849487
821648
761303
722173
662741
615477
557088
503654
444716
387751
327990
268806
208960
148408
84922.3
29364.8
1.40356e+06
1.19234e+06
1.03079e+06
984762
889437
851777
779047
735352
673350
622151
562872
507914
448900
390830
330421
270223
209927
148899
85047.1
28917.8
1.22083e+06
1.17361e+06
994632
976484
873236
845883
783163
736968
678634
626673
567775
512886
453318
394817
333070
272039
210927
149343
85095.6
28585.5
988726
1.11297e+06
951510
960107
871809
853241
803658
751573
696427
641191
585516
528879
470522
411097
336169
273022
211506
149230
84837.9
28094.6
1.15686e+06
1.12614e+06
981674
975776
882988
864830
815578
762446
705989
650589
594203
536644
477736
418133
351893
274395
211677
149328
84553.8
27512.9
1.06182e+06
1.07183e+06
930060
978338
882888
863556
815545
764289
710863
655583
598415
540224
480548
420156
351682
275320
212115
149132
84230.6
26936.8
1.00512e+06
1.0907e+06
954717
998840
908791
875637
822720
771510
718814
662599
606676
546931
486137
424193
355495
276832
212635
149390
84132.4
26226.5
1.23189e+06
1.15605e+06
1.01319e+06
1.04071e+06
932807
896679
839017
784270
729257
672490
614114
553938
491957
428966
359560
277319
212537
149532
84080.4
25597.3
1.17092e+06
1.14623e+06
1.05198e+06
1.04546e+06
960795
906908
852447
793294
732137
672258
611720
550079
486229
421316
337623
274560
212422
149170
83933.4
24818.2
1.34354e+06
1.28354e+06
1.12695e+06
1.08421e+06
988039
930802
854977
789753
722367
659674
594809
530877
464627
399393
335997
273967
211460
148396
83224.5
24170.1
1.26306e+06
1.29717e+06
1.10175e+06
1.086e+06
983429
928088
851748
793386
727255
661304
592428
527038
461846
399007
335878
272870
210476
147378
82300.4
23560.2
1.52713e+06
1.37298e+06
1.20373e+06
1.13615e+06
1.02408e+06
952829
864547
800389
725830
660314
590464
525767
460189
397293
334134
272101
209703
146408
81414.9
23137.4
1.41991e+06
1.33023e+06
1.15891e+06
1.13284e+06
1.01664e+06
957443
870216
802614
727647
660164
590883
525679
459845
396602
333659
271685
209022
145313
80352.7
22735.3
1.16587e+06
1.32123e+06
1.17887e+06
1.15457e+06
1.04467e+06
979005
886659
815641
736252
666399
594632
528399
462012
398554
334654
271922
208542
144270
79135.9
22669.4
1.37198e+06
1.3693e+06
1.19135e+06
1.16121e+06
1.04378e+06
983433
891689
821222
741335
670925
598691
531565
464279
399793
335127
271866
208141
143451
78099.6
23113.1
1.55217e+06
1.42058e+06
1.23343e+06
1.17072e+06
1.05749e+06
990148
897292
824873
744552
673372
600825
533239
465472
400620
335700
272128
207995
143085
77763.4
24855.5
732371
833711
840028
858040
805476
782622
727649
699578
643404
603030
545499
495354
437470
381867
323228
265178
205928
145813
83522.4
31715.4
1.10801e+06
931569
865334
869420
819598
789289
735108
704472
646586
604677
546673
496355
437851
382298
323485
265488
206298
146337
83878.8
30306.2
785449
887739
866234
891173
822571
796396
739807
706423
650728
606695
548930
497862
439458
383602
324524
266302
207100
147283
84828.7
30038.2
954493
988092
922729
921690
853540
820477
755205
720055
657816
611467
552619
499944
441218
385010
325807
267315
207934
148073
85406.6
29484
999187
1.09151e+06
920007
921253
848551
820148
760761
720966
662990
615366
556927
503657
444721
387962
328131
268928
209058
148845
85847.3
29150.9
1.29988e+06
1.19297e+06
1.02444e+06
981867
888933
851977
778190
734473
672955
621887
562683
507735
448837
390875
330445
270148
209931
149349
85981.3
28625.2
1.26852e+06
1.18951e+06
1.00071e+06
979271
873433
846857
782840
736511
678234
626022
567834
513405
453763
394744
332758
271884
210887
149703
85950.4
28406.8
1.02081e+06
1.1223e+06
954119
960987
870975
851270
803318
750234
695782
641067
585305
528505
470157
410159
335561
272492
211461
149658
85654.7
27953.1
1.10814e+06
1.11255e+06
988473
980527
881694
864025
814543
761948
706097
650764
594165
536501
477447
417444
351027
273782
211504
149826
85426.3
27406.1
1.00412e+06
1.09969e+06
930437
978039
882453
858472
812415
764462
711216
655715
598616
540401
480791
420099
351357
274903
212034
149737
85528.9
26746.5
1.1221e+06
1.12407e+06
958492
1.00332e+06
907455
875343
821457
772119
719246
664980
607062
547165
486399
424375
355561
276766
212630
149989
85427.7
26131.8
1.4053e+06
1.19668e+06
1.01604e+06
1.04496e+06
932238
898119
839361
785378
729968
673166
614902
554556
492126
429095
359446
277210
212512
150149
85416
25666.4
1.03962e+06
1.13573e+06
1.05119e+06
1.04693e+06
960448
905582
851250
792600
731916
672688
611958
550060
486112
420959
337670
274450
212437
149818
85165.9
25204.3
1.116e+06
1.26591e+06
1.11918e+06
1.08414e+06
991024
929614
854096
788224
721918
659547
595028
530910
464885
399501
336023
274026
211483
148897
84380.6
24803.3
1.34635e+06
1.29009e+06
1.09221e+06
1.08577e+06
981719
929143
851943
792500
725546
659524
592239
527232
462001
398873
335667
272688
210409
147739
83371.4
24276.1
1.54319e+06
1.38334e+06
1.19594e+06
1.13665e+06
1.02259e+06
952600
863563
801091
726357
660399
591063
526131
460417
397472
334019
271883
209698
146744
82264.9
23940.3
1.46649e+06
1.34477e+06
1.15025e+06
1.13547e+06
1.01566e+06
957445
869709
802928
727653
661095
591449
525750
459729
396619
333611
271604
209121
145618
80943.6
23516.1
1.34458e+06
1.35786e+06
1.18116e+06
1.15505e+06
1.04404e+06
979197
886574
816026
736236
666110
594182
528273
461919
398521
334619
271880
208631
144477
79573.1
23369.4
1.37623e+06
1.36075e+06
1.19295e+06
1.15897e+06
1.0432e+06
984267
892323
821568
741161
670805
598658
531620
464304
399814
335222
271938
208234
143590
78487.5
23554.6
1.64843e+06
1.42102e+06
1.2418e+06
1.17006e+06
1.05777e+06
990732
897553
825070
744651
673377
600795
533248
465476
400563
335674
272119
208030
143178
77967.5
24856.1
769822
834398
839536
858542
805853
780857
728326
699008
643766
603087
545639
495461
437498
381904
323238
265189
205967
145975
83823.7
31078.7
1.15204e+06
942216
871338
870040
817000
788786
734574
703470
646822
604353
546761
496669
437937
382390
323514
265481
206283
146556
84635.8
29401.4
808142
891943
870789
892414
822636
795385
740038
705992
650932
606533
548808
498241
439590
383843
324631
266437
207205
147778
85792.2
29660.9
1.00921e+06
993853
927111
923209
853283
819894
755301
719161
658357
611719
552648
499843
441105
385115
325806
267405
208058
148635
86385.6
29216.4
1.03194e+06
1.08777e+06
919677
917325
848424
818509
760343
720674
663656
615506
556785
503717
444637
388199
328219
269037
209158
149385
86736.9
28943.1
1.13322e+06
1.19627e+06
1.02074e+06
979361
888546
851558
778029
734108
672801
621936
562729
507607
448176
390962
330507
270118
209858
149790
86830.3
28503
976977
1.1661e+06
1.00177e+06
982534
874971
847636
783042
736703
678174
625675
567467
513615
453765
394394
332571
271919
210875
150052
86599.7
28301.9
1.10794e+06
1.12911e+06
955303
960766
870725
850166
802788
750300
695276
640645
585097
528105
469727
409888
335186
271968
211369
149981
86205.3
27949.9
1.0808e+06
1.09808e+06
991232
984476
881128
861137
814333
761103
705298
650443
593756
536108
477175
416891
350253
273288
211332
150238
86022.7
27506.7
1.0482e+06
1.10829e+06
927745
977291
881297
855287
809420
764034
711205
655583
598809
540803
481059
420052
350626
274867
211946
150288
86294.4
26957.9
1.13603e+06
1.12867e+06
957767
1.00167e+06
906104
875709
820829
772303
719267
663800
606713
547565
486644
424408
355316
276974
212647
150566
86454.2
26487.2
1.54353e+06
1.217e+06
1.01818e+06
1.04902e+06
932051
896509
838049
786233
730474
673613
615194
554673
492191
429074
358686
277365
212386
150650
86398.9
26151.9
1.12089e+06
1.14439e+06
1.0558e+06
1.04882e+06
960312
904225
850726
792701
732120
672982
612108
549961
486001
420669
337964
274296
212350
150154
85929.8
25857.5
1.15138e+06
1.27353e+06
1.12461e+06
1.0872e+06
991909
927235
853362
788031
722083
659588
595693
531174
465086
399679
336005
274072
211464
149248
84985.2
25561.4
1.44307e+06
1.2944e+06
1.08687e+06
1.08863e+06
980774
930532
851845
792052
724835
659057
592687
527731
462252
398876
335607
272572
210295
147952
83873.4
25150.1
1.49293e+06
1.37894e+06
1.19301e+06
1.13813e+06
1.02026e+06
953418
863243
801576
726963
660727
591611
526483
460618
397701
333993
271771
209605
146905
82553.2
24866.7
1.50405e+06
1.35471e+06
1.15076e+06
1.13463e+06
1.01323e+06
956711
869511
803930
728648
661997
591684
525978
459756
396686
333390
271496
209231
145838
81235.4
24506.9
1.56356e+06
1.38575e+06
1.18118e+06
1.15626e+06
1.04339e+06
979922
886363
817347
736370
666494
594068
528357
461854
398430
334485
271903
208759
144675
79778.7
24271
1.26996e+06
1.3677e+06
1.18942e+06
1.1562e+06
1.04191e+06
985217
892644
822271
741305
670974
598740
531769
464390
399862
335214
271962
208302
143675
78602
23768.7
1.50536e+06
1.4149e+06
1.23744e+06
1.16865e+06
1.05868e+06
991301
897762
825319
744728
673476
600833
533310
465655
400606
335649
272086
208039
143234
78088.2
24643.9
612688
659875
618342
655705
612736
659993
618410
554867
604054
561797
598480
554917
604131
561400
620941
670192
626842
662571
621350
670616
627313
562932
612271
567304
607131
563444
612800
567793
776989
820390
777130
817861
776959
819837
777330
718876
763293
721694
763052
719170
763425
721884
662745
708576
667216
704778
663054
708734
667320
607492
653554
611128
649859
607591
653668
611158
550282
597085
553574
594105
550364
597091
553456
492010
539118
494278
536594
492096
538984
494239
432867
479534
434577
477968
432838
479544
434541
374080
419903
374014
418571
374091
419823
373924
777503
821456
781500
818367
777407
820892
781322
723594
768696
729265
763584
723654
768463
729192
669045
715685
674829
710379
669148
715803
674888
612873
660995
618446
655291
612852
661040
618502
555096
603934
559842
598628
555016
604004
559914
495607
544959
499707
540379
495524
545054
499753
435270
484448
438310
480581
435234
484494
438338
374265
422818
376630
420206
374235
422856
376691
783945
834016
791318
823765
783768
834363
792058
730443
778338
738471
770543
730977
779061
738967
676886
725090
683479
717712
676978
725459
683595
620367
669356
625919
663107
620515
669497
626067
561486
611275
566370
605983
561570
611436
566532
501085
551327
505253
546652
501173
551496
505383
439463
489927
443044
485863
439525
490037
443074
377164
427408
379895
423934
377374
427459
380149
795061
849891
808658
837845
795768
850060
808663
741431
794761
749673
782779
741855
794801
749767
685622
735709
690716
728218
685781
735766
690984
627639
676582
631358
671672
627809
676748
631625
567895
616854
571296
613232
568082
617085
571779
506623
556357
510038
553157
506771
556638
510339
444248
494359
447315
491543
444263
494444
447293
381013
430866
383854
428759
381174
430752
383873
777087
819452
777254
816092
776756
818716
776929
719291
763381
722028
762498
719792
763821
722524
663212
708843
667376
705823
663781
709240
667595
607648
653725
611169
650453
607830
653955
611152
550441
597088
553388
594172
550574
597056
553277
492135
538944
494225
536638
492164
538895
494208
432845
479545
434520
477770
432758
479574
434446
374115
419795
373886
418241
373879
419703
373593
777218
820323
781275
816334
777285
819283
781565
723745
768499
729283
764153
724104
768894
729713
669197
715920
674990
710750
669398
716364
675474
612855
661152
618525
655515
612759
662217
618425
554978
604035
559958
598493
554884
603969
559338
495491
545091
499774
540243
495427
545022
499842
435220
484515
438357
480534
435201
484588
438442
374263
422881
376790
420164
374139
422997
376998
783802
834214
792430
823081
784203
834541
793492
731230
779365
739227
771292
731957
780384
739985
677091
725669
683693
718630
677784
726322
684129
620611
669595
626159
664858
621242
670013
626624
561618
611543
566635
606717
560545
612043
567095
501221
551599
505465
546651
501400
552036
505773
439557
490104
443104
486074
439676
490358
443249
377526
427502
380313
424130
377825
427681
380591
796106
850047
808708
838826
797133
850351
808882
742088
794801
749808
783953
742777
794870
750205
685890
735752
691092
729052
686351
736009
691798
627912
676795
631745
672284
628397
677288
632512
568194
617177
572046
613893
568651
617764
573041
506861
556777
510459
553755
507184
557347
510872
444282
494468
447259
491874
444373
494575
447126
381277
430705
383917
428922
381449
430603
383905
776599
818111
776962
814989
776360
816611
776701
719898
763933
722681
762151
720007
763993
723031
663954
709381
667674
706188
664328
709741
667825
607914
654040
611139
650769
608073
654215
611183
550637
597040
553254
594178
550724
597125
553323
492197
538900
494221
536544
492210
539034
494333
432724
479601
434419
477539
432530
479732
434331
373825
419668
373552
417657
373277
419527
373066
777352
818600
781689
813327
777150
816922
781776
724231
769063
729876
764488
724547
769430
730287
669480
716525
675608
711155
669601
716866
675805
643592
641289
657766
655647
643557
641296
657921
585058
583891
599958
598349
585315
583835
599682
495430
545133
499876
540304
495558
545203
500028
435200
484624
438479
480686
435204
484778
438600
374162
423047
377113
420114
373849
423181
377119
784354
834520
793833
821912
784600
834771
794701
732170
780728
740213
772029
732650
781622
740729
677965
726527
684306
719187
678205
727023
684699
652998
648830
666478
660917
652436
645980
666976
594109
592415
608602
607768
593678
594157
609067
501470
552217
505878
547350
501674
552670
506129
439723
490442
443304
486320
439856
490641
443457
377957
427745
380711
424345
378051
427905
380791
797462
850161
808950
839610
798301
849942
809430
742986
794867
750290
785127
743486
795053
750748
686525
736031
692057
729806
686971
736352
693128
628601
677453
632811
673027
629127
678184
633840
568827
617971
573333
614739
569325
618682
574046
507288
557502
511011
554432
507502
557890
511142
444406
494598
447053
492126
444479
494646
446766
381524
430559
383933
429074
381511
430423
383687
776208
815741
776512
814468
775697
813921
775797
719900
763930
723089
761328
719179
763609
723002
664403
709818
667831
705468
664367
709853
667699
608135
654235
611226
650477
608071
654189
611236
550764
597206
553404
593893
550786
597377
553695
492225
539131
494402
536191
492197
539513
494618
432460
479798
434299
477147
432275
479999
434193
373248
419471
373040
416937
372701
419352
372469
776922
816240
781657
810494
776083
815334
781319
724610
769472
730372
764132
724587
769431
730450
669585
716917
675761
711226
669435
716917
675481
612842
662321
618437
655645
612951
661582
618806
554995
604009
559185
598826
555278
604381
560423
495671
545172
500110
540784
495969
545628
500380
435216
484873
438645
481022
435206
485084
438694
373883
423215
377219
420056
373420
423244
376966
784582
834475
794906
821098
784394
833630
795146
732752
781865
740858
772232
732875
782380
741123
678138
727153
684769
719283
677778
727440
684938
621471
670705
627369
663806
621195
670943
627436
560931
612883
567869
606773
562427
613012
567987
501747
552765
506181
547536
501968
552933
506273
439897
490671
443492
486590
439939
490795
443497
378137
427941
380867
424412
377983
427977
380687
798515
849402
809608
838517
798901
848657
810711
743615
795065
750897
786019
743904
795517
751450
687078
736407
693473
730366
687339
736760
694480
629242
678390
634123
673518
629399
678937
634790
569455
618839
574133
615162
569624
619148
573895
507526
557941
511069
554734
507464
557806
510667
444488
494611
446623
492158
444393
494309
446286
381532
430340
383648
429079
381255
430039
383145
775533
813249
775601
813400
774601
813458
775313
718961
763520
722928
760148
718082
763283
722767
664294
709854
667616
704651
663947
709702
667484
607999
654136
611168
650096
607649
654053
611089
550820
597373
553707
593722
550660
597401
553707
492180
539566
494607
536322
492004
539654
494614
432235
480031
434156
477400
431994
480097
434111
372835
419344
372532
417041
372245
419360
371968
775883
814800
781245
809293
775685
815418
781126
724546
769455
730448
763857
724427
769396
730379
669355
716890
675399
711072
669232
716770
675233
612911
661517
618810
655484
612884
661398
618776
555266
604372
560421
598808
555254
604346
560427
495995
545644
500422
540824
496083
545657
500536
435195
485136
438698
481140
435198
485285
438711
373565
423242
377100
420032
372885
423234
376559
784375
833006
795183
820398
784316
832718
795521
732881
782540
741167
772338
732837
782935
741264
677722
727503
684956
719167
677610
727517
684913
621145
671005
627429
663755
621079
671010
627354
562431
613016
567956
606613
562432
612917
567828
502002
552896
506293
547592
502067
552844
506361
439940
490835
443465
486788
439936
490929
443415
378131
427975
380795
424378
377486
427932
380253
798952
847925
810940
837398
799305
848634
812249
743934
795663
751514
786681
744026
796139
752158
687364
736908
694565
730562
687301
737343
694387
629376
679076
634791
673606
629228
679092
634221
569567
619245
573572
615121
569363
619169
573054
507436
557737
510416
554653
507434
557589
510031
444333
494227
446133
492294
444251
494299
445834
381284
429958
383175
429060
380461
429952
382540
628932
627133
614473
612623
629085
627108
614221
646132
659951
646476
658944
645912
660397
644754
630998
616511
632596
617465
631201
616134
631208
643613
655687
641371
657869
641324
657954
643614
628922
612637
627222
614469
627136
614188
629107
646189
658854
660095
646403
660479
644851
645989
630951
617471
616548
632610
616085
631214
631276
570585
569552
556156
554866
570732
569540
556114
586978
602036
589866
603447
587334
601669
589873
572341
557920
576023
564351
572558
557983
577102
585006
598366
583937
599959
583842
599633
585311
570555
554878
569616
556156
569555
556106
570728
586918
603511
602096
590027
601582
589949
587333
572270
564836
557845
576182
557976
577164
572507
638377
634936
623182
621871
637815
635064
623665
654829
668417
655801
670371
654383
668745
655984
640310
625200
641518
627060
639934
625515
641734
653228
660721
648571
666786
646140
667118
652667
638515
621852
635224
623519
634964
623785
638103
654962
670513
668785
656210
668872
656123
654750
640447
627221
625614
641982
625658
641891
640333
578875
578121
563400
567473
578454
582656
563797
595636
610465
597307
612504
595399
610751
597537
580430
565246
582475
567523
580272
565382
582717
594224
607712
592949
608986
594140
609192
594082
578951
568219
578964
563794
582608
563927
578853
595794
612685
610929
597831
610908
597716
595870
580581
567692
565696
583013
565532
582901
580746
780930
812052
784107
803700
781155
811958
784035
725188
758568
727094
754262
725126
757926
726451
667256
697855
667715
696906
667406
697737
667986
611801
641605
612455
640249
611997
642059
612615
555872
586389
555878
585201
555947
586537
555978
498700
529481
498413
529067
498728
529625
498532
439756
471180
439346
470708
439756
471246
439449
380794
412146
381134
411711
380731
412118
381092
836869
870675
838416
868061
836851
869704
837301
804747
805139
820776
818211
805056
820470
804865
747996
748452
763325
763604
748417
763322
747814
691171
690149
705327
704140
690213
705399
691116
636331
635349
650970
649672
635379
650980
636315
579894
579214
594929
594093
579216
594924
579911
521658
521376
537080
536563
521394
537052
521662
462716
462722
478206
478038
462714
478192
462703
403450
403433
418979
418673
403424
418941
403439
319974
350750
319531
352470
319942
350608
319371
836406
872388
836814
866793
835642
871646
835855
805550
805407
820793
818911
805313
820632
805641
751991
750232
765291
763528
750206
765206
752024
698575
696653
712227
710286
696673
712236
698560
643071
641147
657097
655222
641159
657116
643051
585885
584223
600359
598640
584218
600361
585888
527019
525544
541910
540438
525528
541910
527020
466671
465483
481906
480630
465471
481891
466684
405695
405072
420980
420245
405046
420968
405701
321010
353465
322254
351781
320966
353447
322202
844047
883423
850532
876169
844477
884082
850947
812923
810882
827213
823895
810744
827143
812910
759014
757111
772529
770505
757111
772535
758932
706245
704014
719541
717318
704047
719611
706227
650968
648986
665038
663042
649001
665047
650946
592951
591155
607603
605872
591166
607641
592924
533011
531491
548139
546568
531505
548165
532986
471704
470399
487112
485792
470413
487135
471684
409294
408275
425013
423881
408293
425024
409268
322966
356227
325198
354810
323076
356471
325268
861201
904863
865478
895398
860800
905209
865668
825768
822350
841007
838041
822363
841130
825548
772566
768855
786537
782424
768894
786536
772552
716290
713865
730584
727924
713905
730616
716245
658769
656963
673392
671525
656993
673426
658738
599569
598005
614601
613074
598034
614648
599519
539000
537473
554487
552995
537505
554526
538955
477059
475610
492863
491444
475630
492886
477036
413991
412715
430004
428729
412719
429999
413984
326132
359480
326987
359247
326207
359548
327013
824070
862023
832417
854183
823874
861982
832131
761085
800118
764978
793869
760995
799901
764869
700081
735055
702241
732198
700116
735013
702392
639667
672967
640432
671906
639728
673057
640605
579308
610865
579590
611442
579523
611011
579913
516928
548883
516107
550027
516947
548960
516248
452869
484489
451620
486323
452927
484517
451542
386974
419624
387369
421527
387025
419613
387407
780759
810969
783957
803685
780718
810718
783664
724449
756634
726093
752781
724233
755760
725882
667614
698110
668344
696585
667976
698551
668710
612219
642612
612850
641020
612465
643145
613185
556035
586743
556128
585465
556116
586994
556321
498770
529802
498690
528970
498721
529990
498861
439798
471326
439562
470590
439721
471392
439606
380787
412052
381108
411337
380484
411942
380914
835972
867910
836111
865955
835369
866402
835269
803634
804380
818907
816790
803902
804230
818653
748473
748060
763222
762746
748412
748130
763170
691821
690792
706103
705389
691625
691060
706380
636516
635592
651116
650156
636454
635697
651205
579866
579279
594917
594138
579868
579296
594915
521773
521522
537018
536634
521744
521529
537075
462697
462664
478167
477871
462714
462615
478151
403314
403347
418850
418428
403383
403282
418806
319973
350468
319274
352211
319807
350451
319070
833952
869780
834732
865082
832351
869016
833256
803872
804618
819158
817453
804256
804290
818755
751956
750325
765136
763888
751912
750436
765177
698727
696799
712302
710542
698669
696864
712355
643298
641217
657278
655389
643216
641238
657367
585757
584130
600342
598597
585810
584095
600322
526886
525416
541839
540307
526938
525374
541784
466595
465411
481808
480541
466607
465398
481788
405700
404986
420954
420184
405690
404975
420961
321023
353546
322278
351748
320798
353717
322139
843670
885013
851249
876548
842958
885629
851207
812847
810091
827056
823425
812858
809980
827056
760242
757523
773064
770860
759890
757754
773383
707025
704490
720323
718217
706772
704731
720608
651295
649290
665283
663219
651164
649401
665402
593269
591301
607905
606231
593160