/*--------------------------------*- C++ -*----------------------------------*\
  =========                 |
  \\      /  F ield         | OpenFOAM: The Open Source CFD Toolbox
   \\    /   O peration     | Website:  https://openfoam.org
    \\  /    A nd           | Version:  10
     \\/     M anipulation  |
\*---------------------------------------------------------------------------*/
FoamFile
{
    format      ascii;
    class       volVectorField;
    location    "3.3";
    object      U;
}
// * * * * * * * * * * * * * * * * * * * * * * * * * * * * * * * * * * * * * //

dimensions      [0 1 -1 0 0 0 0];

internalField   nonuniform List<vector> 
12920
(
(94.316 -118.009 171.889)
(20.4266 -48.8103 -6.2608)
(143.414 -17.433 -16.8967)
(91.3216 13.2353 -14.2626)
(121.951 33.0505 -9.6687)
(74.8588 25.4233 -5.67366)
(85.5409 20.3617 -0.168488)
(51.2635 3.58925 -1.20495)
(67.7095 -5.48939 0.964254)
(56.4404 -11.5162 1.76184)
(68.8994 -13.0291 3.02557)
(68.1426 -12.152 2.75042)
(76.4105 -11.1682 2.6172)
(78.897 -9.86968 1.97921)
(85.9612 -9.00692 1.74403)
(89.5715 -7.80979 1.09998)
(95.2933 -7.86303 0.640842)
(100.219 -6.01353 0.244469)
(101.962 -6.48222 0.29183)
(115.417 -6.14921 0.557058)
(75.5918 47.8516 117.046)
(-56.441 -31.2072 -13.8683)
(116.164 16.0464 -19.9295)
(32.132 19.1849 -2.02123)
(84.0526 12.5919 1.7605)
(53.8204 13.0665 -1.88698)
(98.1535 5.21672 -0.446458)
(85.5446 4.34224 -3.1025)
(102.416 -5.589 1.79206)
(79.8072 -10.9318 2.55296)
(77.1439 -18.0466 3.22266)
(65.9335 -17.8001 1.34924)
(70.0313 -16.9865 0.684906)
(69.0033 -14.4256 0.350894)
(72.7506 -12.8895 0.171194)
(73.5959 -9.4481 -0.0429493)
(76.9852 -7.59708 -0.342213)
(78.3242 -5.06258 -0.154373)
(79.073 -3.39298 -0.335805)
(88.0264 -2.08452 -0.266867)
(208.062 -118.803 -58.9193)
(-92.0705 35.5688 23.4697)
(119.441 -11.2558 2.6544)
(35.3055 3.54129 2.82872)
(96.4414 3.69624 1.62697)
(71.3971 8.48094 0.0691949)
(96.863 -1.66222 3.43058)
(74.7751 -1.69385 2.95412)
(82.8667 -6.91817 4.34875)
(70.8826 -7.3256 2.39842)
(76.7162 -12.4518 1.6877)
(72.1218 -14.1649 0.948946)
(75.1991 -15.3949 0.878024)
(73.2614 -14.0153 0.769699)
(74.5088 -12.6813 0.589864)
(73.2296 -10.6007 0.495683)
(74.266 -9.81929 0.429822)
(74.0295 -8.13949 0.48001)
(73.3645 -7.45248 0.644126)
(80.4386 -5.84909 0.877168)
(54.0254 13.6572 -56.3761)
(-59.98 -7.37313 -11.0026)
(96.4471 -35.1287 -14.8892)
(43.814 -15.0893 -1.8147)
(96.2645 -21.242 1.58281)
(60.6988 -4.98925 1.16563)
(92.203 -13.4496 4.35052)
(65.2065 -10.0093 2.00893)
(80.4501 -21.9293 2.96464)
(66.4085 -23.4205 0.833479)
(74.5195 -26.75 1.13407)
(71.3523 -24.3784 0.392702)
(75.6872 -22.2132 0.577991)
(73.664 -19.0087 0.4823)
(74.7387 -15.5581 0.762842)
(71.7369 -11.9872 0.619842)
(71.7307 -10.6185 0.374337)
(70.2873 -8.93146 0.327278)
(68.7018 -8.39009 0.410245)
(74.3058 -6.99528 0.598687)
(60.8565 194.522 -185.736)
(-153.549 -23.6473 -43.9467)
(119.638 -11.5802 -48.4747)
(66.796 -25.5551 -17.7756)
(122.977 -30.6607 -10.5776)
(114.904 -20.3092 -8.15043)
(141.91 -25.0516 -4.59081)
(139.162 -14.2067 -3.01974)
(136.455 -19.1343 3.46623)
(101.724 -12.2869 4.41177)
(90.4717 -21.246 2.57891)
(79.5512 -19.8713 0.700291)
(80.1615 -20.0302 0.141277)
(77.468 -16.5291 -0.0471047)
(77.2339 -14.0748 0.304668)
(73.3142 -10.6594 0.470598)
(72.2446 -10.1495 0.307831)
(69.8414 -9.00306 0.262117)
(67.8415 -9.1646 0.250001)
(72.9928 -8.11832 0.444352)
(72.206 -45.3603 134.619)
(-9.19185 -95.3774 -29.868)
(137.152 -33.5032 -41.7727)
(59.4627 -4.24303 -19.9057)
(103.901 -5.06117 -10.0901)
(59.6429 -0.439492 -7.30267)
(87.026 -8.69818 -3.3786)
(66.4041 -1.5904 -2.76538)
(74.0851 -4.70524 -0.522192)
(62.0886 -8.68678 -0.132713)
(67.455 -19.1666 0.169386)
(64.4224 -20.9956 0.10609)
(67.5698 -20.7438 0.031437)
(66.4727 -17.0975 -0.366455)
(67.5693 -12.8977 -0.10882)
(66.2321 -9.50829 0.0445202)
(66.9176 -8.82009 -0.118037)
(66.3326 -8.33528 -0.0171704)
(65.0816 -8.89896 0.160374)
(71.0294 -8.06146 0.392207)
(112.461 91.4501 163.677)
(-69.04 14.1284 44.2845)
(81.9581 42.9925 10.1153)
(31.7219 26.7146 -1.64331)
(106.026 12.8997 -0.61514)
(81.6405 7.6661 -3.32283)
(99.4489 -13.0887 -1.19827)
(87.558 3.1246 -0.610864)
(90.2732 -12.204 1.43355)
(80.3122 -10.919 2.2998)
(79.841 -24.3603 1.51025)
(73.5866 -22.6129 0.991128)
(71.9252 -22.5833 0.700386)
(67.4059 -15.8821 -0.00949279)
(67.0909 -13.2444 -0.190056)
(65.734 -10.0387 -0.213015)
(67.0473 -9.73769 -0.273449)
(67.6941 -9.38095 -0.205178)
(67.9406 -10.7952 0.0170618)
(74.3635 -9.57582 0.411129)
(-21.2363 -290.591 -7.14604)
(-233.097 -103.533 -8.19876)
(88.4993 -54.2186 -10.7548)
(1.26603 -31.9837 1.51327)
(91.3764 -19.0108 2.09996)
(52.9495 12.556 -0.479041)
(82.5997 7.07941 -1.26094)
(69.4289 9.44704 -1.47947)
(77.7034 4.81372 -0.448522)
(77.9475 -8.54362 -0.178569)
(84.6489 -18.733 0.392997)
(81.5317 -22.2113 0.586408)
(77.9338 -20.2295 0.871573)
(71.5639 -15.5155 0.906454)
(64.7996 -10.2635 -0.258742)
(65.5758 -8.67627 -0.539163)
(67.9683 -9.83172 -0.634626)
(71.4917 -11.1723 -0.611456)
(72.7492 -12.1363 -0.228376)
(78.5892 -10.1098 0.376682)
(-23.8303 -43.827 -83.5023)
(-71.5404 -29.9733 -29.8271)
(111.725 -15.9904 -9.09253)
(35.7357 -13.3343 -4.14811)
(97.0848 -27.3631 -0.166476)
(63.0567 -6.64018 -0.34591)
(86.1947 2.14991 0.0142107)
(82.3615 -3.68405 0.905129)
(80.8012 -18.5584 0.644631)
(86.799 -29.2622 0.552456)
(96.2387 -30.3412 0.706989)
(99.0205 -24.6659 0.316853)
(94.7083 -18.306 0.198524)
(85.5187 -13.5328 0.877606)
(72.0353 -5.62701 0.362405)
(71.2445 -9.48625 -0.902257)
(76.5678 -12.7206 -0.809617)
(78.3027 -13.7252 -0.577181)
(78.7854 -13.0694 -0.216201)
(83.7111 -10.1103 0.409408)
(34.6775 -122.6 91.8708)
(-198.258 -68.8432 -4.52642)
(76.6185 -60.5155 -0.694723)
(-11.5478 -20.2627 -1.9335)
(80.6739 -17.8154 -4.13978)
(36.9012 -7.34701 -0.750693)
(60.5183 -6.90942 -0.808134)
(75.4585 -16.1092 -0.582442)
(83.7275 -30.172 0.0202895)
(67.8026 -32.1433 0.0709576)
(67.0004 -32.7258 -0.0614844)
(72.2996 -30.4525 0.140069)
(80.2822 -21.3097 0.349293)
(84.1747 -10.7619 -0.324413)
(80.8365 -0.77466 0.0185065)
(80.8885 -8.73344 -0.257436)
(82.1019 -12.5024 -0.0927827)
(80.9585 -13.1617 -0.17028)
(79.5807 -12.2203 -0.17129)
(83.21 -8.76731 -0.0540999)
(170.119 -55.7805 54.3667)
(19.5547 -87.6454 -15.2285)
(143.336 -89.3953 -30.4532)
(72.451 -36.3823 -12.2893)
(120.253 -29.6624 1.39542)
(73.3372 -16.2896 -0.38961)
(70.431 -17.1137 0.548236)
(65.0769 -16.3753 -0.302368)
(71.7036 -23.7654 -0.219946)
(90.5894 -36.7455 -0.490428)
(97.794 -38.8062 0.263323)
(91.7637 -37.8273 0.406696)
(86.9555 -28.6013 0.254467)
(79.991 -12.0778 0.256886)
(81.5152 -4.33284 0.267993)
(76.1915 -10.1553 0.89067)
(73.9885 -11.6713 0.962002)
(69.3312 -11.3667 0.410222)
(66.8672 -9.22511 -0.345174)
(71.2554 -4.031 -0.479788)
(147.614 -99.1677 -3.94386)
(62.424 -20.2805 -31.9972)
(169.525 -52.6093 -13.4456)
(84.1128 -23.7349 -2.82747)
(112.378 -17.0021 10.4365)
(51.4284 -3.56318 3.31434)
(68.8348 -8.56957 0.172117)
(96.2294 -30.1483 -0.422088)
(110.56 -43.8391 0.20569)
(112.893 -42.022 0.464147)
(108.446 -40.2489 0.196052)
(94.7884 -32.1204 0.847509)
(72.0087 -22.5057 0.286563)
(68.174 -13.3052 -0.0066874)
(68.7656 -9.69129 0.367111)
(63.9503 -10.2077 0.358572)
(64.4679 -9.84107 0.201676)
(62.5267 -9.0496 0.0919721)
(60.3111 -6.98517 -0.310397)
(66.1182 -2.159 -0.115023)
(293.985 26.6268 -6.58942)
(253.072 -40.4368 -23.5355)
(272.95 -49.1577 -14.6193)
(218.447 -27.344 -7.01968)
(204.329 -32.7588 5.98882)
(156.86 -35.4304 2.70898)
(155.625 -35.2627 -1.43874)
(131.094 -36.2319 -1.00653)
(121.799 -44.5943 -0.464303)
(114.905 -43.0536 -0.445542)
(104.9 -33.0904 0.127427)
(84.9239 -20.3968 1.2654)
(71.0028 -14.0899 0.559414)
(65.1931 -12.2801 0.0679977)
(62.4183 -11.4263 0.104856)
(63.3337 -11.3358 0.146942)
(62.6636 -10.3022 0.0683629)
(62.0547 -9.23918 0.168885)
(59.7005 -6.97204 0.0891949)
(65.1669 -2.09469 0.354604)
(201.952 144.017 -19.0626)
(165.561 13.4112 14.526)
(206.557 29.5388 4.99884)
(160.324 21.7167 -2.29494)
(178.326 21.0353 -3.78482)
(159.668 12.3714 -4.71884)
(160.152 4.00837 -1.92793)
(143.577 -22.0461 -0.458296)
(134.842 -27.8196 0.694895)
(115.66 -33.0549 1.30285)
(107.416 -17.2479 2.55771)
(88.1057 -13.2401 2.92755)
(80.3123 -7.14991 1.249)
(71.4627 -10.1779 0.747359)
(69.3241 -8.65078 0.257501)
(65.8654 -10.1827 0.189503)
(65.1721 -9.39433 0.106158)
(63.7684 -8.84074 0.198872)
(60.8881 -7.00645 0.265728)
(65.1337 -2.70626 0.57609)
(167.316 -89.9379 93.93)
(42.4368 -56.2698 -1.45687)
(162.092 -32.647 0.953654)
(113.332 -12.0773 -1.47475)
(162.617 3.82362 -0.488579)
(154.347 1.46385 0.368823)
(161.006 -1.20391 2.1564)
(144.031 -10.4103 1.38147)
(132.279 -16.0714 -0.0160673)
(114.552 -20.2532 -1.76401)
(109.801 -12.5674 -0.650018)
(93.8549 -6.31967 1.4308)
(84.2202 -2.31189 1.41579)
(74.1568 -4.56044 0.360252)
(69.3653 -6.52489 -0.207321)
(66.4178 -8.76501 -0.178796)
(65.4044 -8.72675 -0.0437381)
(64.1421 -8.04189 0.0146733)
(61.745 -6.48257 0.225872)
(65.1669 -3.27564 0.657194)
(252.331 -152.95 -12.1041)
(188.449 -39.8561 -12.3482)
(194.698 8.63815 -4.26179)
(142.26 0.583106 -3.36795)
(160.179 11.61 -0.483977)
(134.02 7.60509 -0.580346)
(132.766 11.6347 1.18165)
(109.246 0.280615 0.57524)
(101.032 -0.792735 1.25435)
(83.5825 -3.44562 -0.467855)
(81.6099 3.96995 -0.7662)
(74.7391 4.9597 -0.292056)
(74.6843 5.97871 -0.00127071)
(71.4612 3.21583 -0.394734)
(72.4936 -0.624562 -0.392188)
(70.2183 -5.0744 -0.275473)
(69.4952 -6.97564 -0.000930936)
(67.2757 -7.15714 0.0945739)
(65.0596 -6.04058 0.241096)
(68.7089 -3.57934 0.642468)
(26.0384 106.299 176.78)
(-46.6886 16.0979 -32.6964)
(120.151 24.7191 -0.129181)
(69.037 6.29331 -3.73243)
(134.478 17.1803 -1.55615)
(123.274 18.0728 -2.64063)
(138.28 21.1483 -0.552601)
(121.481 14.592 0.474274)
(104.805 6.8138 4.14427)
(76.6412 0.928783 2.2208)
(75.59 1.9909 -0.0624393)
(71.2739 1.74617 -0.185122)
(73.7576 1.58002 -0.337476)
(73.3714 -0.534942 -0.458045)
(76.8082 -2.64576 -0.470265)
(77.7076 -4.54869 -0.125415)
(77.3551 -5.78831 0.373334)
(73.6245 -5.88723 0.543961)
(69.6317 -5.60695 0.3355)
(71.9162 -3.87682 0.409848)
(133.457 90.0523 139.207)
(-32.0463 13.8398 3.23289)
(138.593 -24.0957 -5.84956)
(88.9663 -11.0492 -4.73846)
(142.996 5.35334 -3.2635)
(127.751 14.8698 -3.81509)
(139.699 25.9387 -0.580427)
(119.895 26.5523 1.15489)
(107.483 26.9699 3.95678)
(83.286 16.7803 1.35818)
(83.3584 12.4131 -0.262569)
(79.6264 7.82403 -0.40047)
(83.4232 6.22124 -0.370631)
(83.4291 2.21733 -0.476118)
(87.3751 -2.11501 -0.35377)
(87.5989 -4.63718 -0.165033)
(88.1095 -4.74061 -0.151653)
(85.2523 -3.80997 0.103451)
(79.8557 -1.70141 0.362892)
(81.5772 -0.663483 0.337349)
(133.544 -112.937 -187.208)
(51.7434 -10.6546 -21.8525)
(139.136 -20.9518 5.44211)
(53.3488 -3.23886 -1.11031)
(105.645 11.9709 -0.529797)
(85.5787 21.1507 -2.47134)
(108.477 28.801 1.16364)
(91.9228 28.9357 2.01127)
(95.5102 25.2261 2.6672)
(84.8822 18.011 1.05166)
(87.4384 9.44995 0.185673)
(83.0516 4.17926 -0.464227)
(85.7983 1.02967 -0.762142)
(84.299 -1.61761 -1.06825)
(85.1611 -3.78822 -1.49711)
(86.2735 -4.33995 -1.66909)
(89.3489 -3.03917 -1.16623)
(89.1185 -0.10401 -0.574421)
(88.1883 1.86497 0.0771804)
(93.8375 1.46144 0.317641)
(294.836 -20.1464 61.2655)
(14.0991 -0.650226 29.2844)
(139.446 3.93749 3.69502)
(93.959 10.6789 3.757)
(128.833 9.37962 7.97879)
(98.0345 15.4155 6.84278)
(112.249 20.0038 7.2576)
(104.145 22.9161 6.48436)
(114.583 22.6158 5.70497)
(114.619 19.9196 4.20462)
(121.183 18.0069 3.06203)
(122.044 15.8282 1.85355)
(127.039 14.7931 1.27976)
(129.08 13.2529 1.07214)
(132.081 8.05655 0.940524)
(128.07 1.55454 0.768632)
(123.792 -1.61402 0.554312)
(119.102 -1.70242 0.473942)
(116.423 0.210129 0.44119)
(125.21 1.88204 0.577229)
(307.559 -128.925 19.5464)
(108.405 -61.5584 22.9393)
(159.788 -47.5788 0.0188114)
(86.9248 -25.3187 -4.00784)
(109.935 -3.6099 5.02884)
(55.9532 4.06656 -0.972892)
(75.3284 12.9739 5.77988)
(41.2782 3.03845 0.52851)
(60.0843 -3.26318 4.94153)
(49.9235 -8.53114 4.76089)
(65.1664 -9.12518 6.32387)
(65.8004 -8.05025 5.24138)
(75.925 -6.90731 4.83623)
(78.8524 -5.84861 3.40756)
(86.5711 -4.99685 2.81794)
(90.0011 -4.49563 1.85239)
(95.6388 -4.11089 1.07246)
(98.9809 -3.75887 0.617805)
(100.511 -3.27954 0.289592)
(112.74 -1.88531 0.716708)
(167.959 -76.2831 -167.296)
(28.9086 -98.1875 -54.0573)
(108.734 -29.9044 -7.40217)
(-13.3966 -1.68848 2.45864)
(62.2827 -6.76181 4.39298)
(5.41352 -0.215673 -5.55629)
(65.024 -8.99445 1.11973)
(35.9472 -9.41142 -3.77904)
(63.5885 -16.0228 5.15727)
(48.0251 -15.217 3.39728)
(59.437 -15.4003 4.26985)
(54.941 -13.2694 1.49124)
(61.2825 -11.7045 0.644434)
(61.3212 -9.44789 -0.109679)
(65.6529 -8.05418 -0.301283)
(66.9727 -6.10458 -0.635195)
(70.1119 -5.18683 -0.818289)
(71.1404 -3.65133 -0.71557)
(71.407 -2.79327 -0.715882)
(79.0597 -1.73409 0.035227)
(93.9766 -60.1012 -153.352)
(-83.2789 -6.97832 -29.5026)
(99.8774 -25.0437 -17.8169)
(10.1706 -4.58315 1.97639)
(77.0593 -5.28981 6.9159)
(34.8845 1.60203 0.896211)
(69.0495 -8.39794 7.86605)
(44.1223 -5.1103 4.12109)
(61.2899 -9.85976 7.19142)
(50.6611 -7.28463 3.38304)
(60.4821 -9.96034 2.93433)
(56.8654 -9.25396 1.4675)
(61.6545 -9.57153 1.38393)
(60.7372 -8.23515 0.972293)
(62.9913 -7.70116 0.733495)
(63.054 -6.43207 0.577082)
(64.8591 -6.06554 0.470163)
(65.1578 -4.86218 0.55033)
(64.8334 -4.30933 0.864592)
(71.288 -2.96332 1.44498)
(96.8887 59.4402 29.3617)
(30.4535 -30.6828 -6.4443)
(91.5117 -47.5509 -9.32434)
(12.1713 -13.0241 4.29352)
(74.6785 -20.1524 7.95786)
(22.2469 -1.05676 2.63327)
(66.0454 -14.3679 8.01184)
(34.5342 -9.47941 1.69479)
(57.4725 -20.8039 4.2278)
(44.9995 -19.2879 0.830096)
(56.8851 -20.8517 2.03567)
(53.7712 -16.9943 0.699911)
(59.4018 -14.959 1.15776)
(58.0585 -11.5889 0.757601)
(60.4017 -9.836 0.954234)
(59.7731 -7.8254 0.787297)
(61.0745 -6.97753 0.501586)
(60.69 -5.63127 0.470741)
(59.8147 -4.82866 0.71017)
(65.2387 -3.21528 1.25913)
(161.304 -6.66084 -86.256)
(81.4852 -67.7391 14.192)
(146.724 -27.9903 -9.56506)
(71.5079 -25.9445 -3.59335)
(97.8998 -26.7578 -2.73141)
(65.7652 -10.8379 -7.17036)
(87.2845 -18.3956 -2.1785)
(70.8987 -7.34412 -1.88077)
(77.9876 -16.0571 6.34998)
(65.4476 -12.4575 5.85091)
(67.3155 -17.1544 4.40511)
(61.7838 -14.0165 1.53277)
(63.5289 -13.3968 0.685359)
(61.0392 -9.93664 0.113677)
(61.7487 -8.65405 0.514063)
(60.3167 -6.90968 0.590823)
(60.8632 -6.70345 0.444076)
(60.1113 -5.76646 0.431913)
(58.7789 -5.44738 0.592529)
(63.8037 -3.86519 1.15514)
(286.228 -216.49 -45.6668)
(240.164 -238.918 -20.0808)
(212.977 -122.451 -6.95665)
(68.7538 -28.7638 0.375328)
(92.8518 -13.9968 -1.38443)
(31.7043 -3.42032 -5.98602)
(61.6276 -15.8824 -1.23973)
(37.0782 -8.37047 -2.62105)
(51.2666 -14.2116 0.580989)
(43.3159 -13.5785 0.0595633)
(51.0588 -17.4151 0.683658)
(49.3708 -15.7919 0.208208)
(53.8836 -14.6628 0.170234)
(53.1853 -11.2035 -0.388759)
(54.8973 -9.08561 -0.0358578)
(55.2667 -7.03752 0.163382)
(56.729 -6.78067 -0.0423086)
(56.8991 -5.93928 0.0599778)
(56.3017 -5.7784 0.463941)
(61.7642 -4.10637 1.13853)
(90.3226 6.06271 -14.7927)
(-66.0375 -15.309 -41.2302)
(78.0891 12.9607 -27.5415)
(6.38196 0.781471 -11.7343)
(81.4574 -3.67211 -1.90228)
(45.9132 -2.74341 -5.17473)
(64.7827 -24.9928 -0.355965)
(52.2116 -4.79934 -0.691215)
(59.6068 -22.2715 2.85918)
(55.6465 -16.9686 3.33004)
(60.049 -23.9713 2.69063)
(56.7233 -18.7171 1.54086)
(58.3744 -17.7178 1.07451)
(56.0356 -12.0361 -0.138878)
(57.2111 -10.8747 -0.248871)
(56.8399 -8.80559 -0.182192)
(58.4519 -8.65017 -0.226379)
(58.939 -7.76556 -0.101846)
(58.734 -7.76187 0.400426)
(64.1223 -5.41346 1.26466)
(-16.1831 -181.433 -21.9064)
(-204.274 -101.806 -48.9253)
(65.9278 -70.0769 -33.2541)
(-26.1407 -44.6645 2.17034)
(75.8367 -29.3929 1.40447)
(29.0708 4.61037 -0.135365)
(63.2165 -4.4821 -1.08266)
(47.2008 -4.04381 -0.513809)
(58.6359 -8.4326 1.83437)
(60.233 -16.6565 2.2534)
(66.1236 -19.5148 2.12948)
(63.3797 -18.8007 1.6046)
(62.747 -15.2436 1.35824)
(60.23 -11.8688 0.767804)
(57.6601 -9.96367 -0.952549)
(59.1916 -8.90048 -0.881454)
(61.3153 -9.6666 -0.850777)
(62.3408 -9.40833 -0.563819)
(62.1564 -8.85501 0.270615)
(66.4851 -5.67251 1.29858)
(110.778 -122.976 30.9724)
(-17.9469 -48.1876 -62.5515)
(105.093 -28.9293 -18.0721)
(16.0217 -27.3643 -5.14346)
(76.544 -35.0398 2.89405)
(53.4613 -15.8742 1.61779)
(77.6923 -4.96323 3.7287)
(69.5113 -9.25975 5.08432)
(70.132 -19.7368 6.14709)
(74.9731 -24.8814 5.11933)
(80.8579 -23.9538 2.99795)
(79.2688 -19.4703 1.12272)
(74.2574 -14.9779 1.18089)
(68.8322 -9.82018 1.84305)
(64.9843 -7.34303 -0.44055)
(65.39 -11.9506 -1.53869)
(68.5317 -12.6822 -1.0216)
(68.0126 -11.9821 -0.594363)
(67.2944 -10.079 0.246849)
(69.9989 -5.45271 1.22824)
(193.254 -216.526 121.109)
(-168.02 -67.2258 -11.2023)
(87.985 -82.7986 -13.7659)
(-13.244 -44.1678 -0.295496)
(65.3058 -37.2966 -2.80899)
(27.7526 -17.583 -5.96127)
(51.2476 -8.04837 -2.3261)
(62.088 -14.5354 -0.702615)
(66.9319 -27.8483 1.73711)
(64.8793 -30.3251 1.02724)
(65.3993 -27.8152 0.116599)
(69.1553 -23.1499 0.88079)
(74.0624 -15.9924 1.01894)
(74.4361 -7.87054 0.279084)
(74.6719 -5.65525 -0.32115)
(72.5081 -12.1849 -0.495357)
(72.6084 -13.0502 -0.242403)
(70.3205 -11.9726 -0.486463)
(68.5439 -8.82315 -0.138203)
(69.1243 -3.0047 0.406372)
(389.543 -109.635 -19.9705)
(276.1 27.8748 -5.79062)
(232.766 -32.5687 23.8214)
(71.7902 -36.7286 6.45029)
(99.2668 -38.2811 10.5336)
(71.6154 -27.7595 2.14535)
(65.6693 -25.2336 1.23415)
(61.6072 -25.2623 1.29663)
(69.4458 -30.1557 0.878451)
(74.6081 -34.6762 0.216018)
(77.3148 -34.068 1.16998)
(75.9462 -30.1401 2.49507)
(75.0676 -17.2987 1.54639)
(74.8306 -9.23266 0.580673)
(74.3032 -8.55305 0.954662)
(67.482 -11.2528 1.06424)
(66.7114 -10.5563 1.04013)
(63.1605 -9.40794 0.0799125)
(61.0906 -5.32585 -0.722214)
(62.5985 0.154664 -0.166063)
(160.033 -110.238 -106.676)
(7.69766 -3.37495 -9.48305)
(136.319 -36.3175 4.09415)
(30.0737 -11.2926 0.135807)
(80.8595 -18.9754 13.3088)
(57.6867 -11.1609 5.29758)
(74.0443 -18.4342 0.8904)
(88.5188 -37.5202 -1.89599)
(91.4256 -38.9328 0.84907)
(90.1761 -36.2758 2.07622)
(82.7759 -31.8894 2.72973)
(71.115 -26.0696 4.12032)
(65.5776 -16.8448 0.814433)
(64.9769 -11.1532 0.379089)
(64.5213 -9.20107 0.720882)
(58.1791 -9.00039 0.570657)
(58.4554 -7.96116 0.173652)
(56.6298 -6.76961 -0.188475)
(54.8489 -3.76416 -0.572897)
(58.9814 0.785884 0.41527)
(226.783 -47.7154 111.599)
(167.334 -48.4462 19.1406)
(194.986 -64.5344 17.6042)
(126.239 -30.9349 8.20082)
(140.125 -34.4512 12.3348)
(110.963 -36.8338 3.83485)
(118.101 -35.8177 2.75293)
(97.9675 -35.7452 0.745562)
(92.9712 -35.1231 -0.494703)
(85.3418 -30.1594 0.678862)
(76.7117 -22.9798 2.79805)
(64.7708 -16.0636 4.23068)
(61.2588 -12.5611 1.5606)
(58.3528 -11.1414 0.421582)
(55.2309 -10.0591 0.23088)
(56.0726 -9.55069 0.24238)
(55.3107 -8.17 0.071454)
(55.1133 -7.01769 0.123157)
(53.416 -4.32643 0.00269321)
(58.4113 -0.0329083 1.0801)
(189.485 100.111 -54.6332)
(192.474 -16.6448 -7.02698)
(221.207 13.8069 -6.09819)
(154.641 12.4507 -8.38826)
(153.762 10.3652 -6.85735)
(118.791 -3.95629 -7.22367)
(113.025 -9.61538 -2.07158)
(98.1418 -26.8315 -0.588317)
(94.7398 -22.3848 1.26324)
(83.0467 -21.5924 2.9768)
(77.0966 -8.77236 4.3609)
(68.859 -9.67751 4.67286)
(64.96 -6.68202 2.38637)
(59.7066 -8.96339 1.51498)
(58.6824 -7.33216 0.609113)
(56.1498 -8.2372 0.422005)
(56.0702 -7.28564 0.227693)
(55.3631 -6.48637 0.295071)
(53.508 -4.49334 0.376526)
(58.2235 -0.93872 1.49039)
(196.783 19.7103 -106.429)
(1.78908 9.46351 33.638)
(157.853 15.026 5.25998)
(94.7208 7.23359 -3.12281)
(135.165 7.85729 -1.63883)
(114.978 -5.61438 -0.801052)
(120.71 -8.06213 2.98433)
(102.591 -15.4772 1.4429)
(95.4896 -13.2142 0.744145)
(80.2394 -11.6644 -1.37042)
(75.6154 -4.06837 0.932649)
(68.1379 -2.41684 2.46321)
(65.7462 -2.31463 2.29683)
(60.7446 -4.6257 0.786676)
(58.1635 -6.21761 0.0231982)
(56.2624 -7.50579 -0.0110679)
(56.1867 -7.14234 0.0153204)
(55.6096 -6.30382 0.118858)
(54.1042 -4.68352 0.452643)
(58.2942 -1.87596 1.62426)
(234.118 -100.377 -37.8708)
(164.467 -43.1789 -16.3177)
(180.54 17.5555 0.868275)
(119.229 11.3659 -2.18922)
(137.024 19.7946 0.0610588)
(101.401 9.55826 -1.14759)
(102.192 11.1787 2.52347)
(78.2583 -1.44175 1.38228)
(76.7569 -0.62209 2.43472)
(65.3819 -3.7743 -0.0722984)
(65.5733 1.86665 0.0481549)
(61.1212 1.23888 0.16155)
(62.7706 1.74669 0.446796)
(60.4333 -1.29252 -0.332188)
(61.3276 -3.65368 -0.269289)
(59.6258 -5.97177 -0.132102)
(59.7374 -6.51345 0.0419413)
(58.5539 -6.21473 0.202355)
(57.0703 -4.92462 0.505288)
(60.968 -2.44958 1.62835)
(267.901 -71.7844 -102.407)
(-138.364 16.4134 -18.7002)
(113.33 32.7333 -19.7785)
(40.4923 12.9938 -8.3644)
(107.828 21.7138 -4.42554)
(82.2618 16.2142 -4.65518)
(98.7434 16.8313 1.46128)
(77.0791 7.01504 2.29666)
(76.7557 2.67333 5.96519)
(65.3654 -0.749118 2.94871)
(66.3919 -0.425099 0.163077)
(62.7351 -1.35524 -0.319207)
(65.0685 -2.17205 -0.525471)
(64.1104 -3.81804 -0.731999)
(65.6036 -5.01642 -0.534875)
(65.1283 -5.97571 -0.136849)
(65.3793 -5.95646 0.496667)
(63.7871 -5.42998 0.740264)
(61.614 -4.50921 0.693111)
(64.6145 -2.81576 1.29693)
(128.442 -94.2316 157.188)
(-56.0315 7.65695 12.673)
(129.329 -15.8416 -28.4578)
(63.3375 -0.242771 -10.1467)
(116.354 14.8243 -6.02601)
(86.6034 16.1667 -5.01783)
(101.052 23.3278 2.31816)
(80.2707 18.5107 3.40768)
(82.6477 16.8796 5.28103)
(72.9319 10.2292 1.46705)
(75.291 6.2379 -0.525972)
(72.419 2.55193 -1.08889)
(75.6096 0.792903 -0.989009)
(74.9131 -1.33917 -1.09894)
(76.7988 -3.86075 -0.749322)
(76.0675 -5.38014 -0.30698)
(76.2021 -5.05273 -0.0439422)
(73.3827 -3.92022 0.358471)
(70.3535 -2.35305 0.666529)
(73.7123 -1.50948 0.994377)
(49.1753 -137.292 49.9374)
(-62.3738 14.0514 16.3477)
(93.9745 -14.3804 1.92872)
(13.0168 1.31759 -6.46612)
(88.6083 12.3444 -3.587)
(57.9649 15.0501 -3.55509)
(87.5747 20.1216 3.37389)
(74.8183 18.2211 3.24261)
(86.2051 14.283 3.29402)
(81.419 8.54306 0.207059)
(86.2941 2.83112 -1.3117)
(83.8834 -0.147724 -2.46445)
(86.2219 -2.2221 -2.95849)
(85.2211 -3.50119 -3.17988)
(86.0195 -4.65304 -3.25675)
(86.3633 -5.14267 -2.6011)
(87.2357 -4.07704 -1.45769)
(85.2654 -1.73523 -0.399329)
(83.6421 -0.184657 0.442443)
(89.2439 -0.595667 0.800821)
(168.013 -179.346 170.999)
(24.294 -37.2894 25.8632)
(141.68 -15.407 -28.6788)
(64.8845 -4.96394 -9.7517)
(110.494 -0.561996 5.03507)
(83.5912 9.02948 8.76748)
(105.002 13.6868 12.0793)
(100.784 16.6454 11.0519)
(114.589 16.3208 9.82743)
(116.732 14.3982 7.239)
(125.032 12.793 5.24197)
(125.952 11.2921 3.32696)
(130.771 10.6056 2.3469)
(132.521 8.9209 1.31747)
(135.153 3.62534 1.33292)
(131.147 -2.61589 1.37594)
(126.678 -4.33366 1.13595)
(120.972 -3.4468 1.33344)
(117.567 -0.557815 1.5268)
(125.33 1.00335 1.71246)
(142.866 74.1144 -108.454)
(49.1029 0.481502 74.0126)
(110.892 -22.8524 39.9077)
(18.58 -9.41997 3.2046)
(80.299 5.69315 13.6615)
(20.2991 7.03042 0.64725)
(60.0152 12.6799 10.2185)
(26.5956 3.05091 3.39881)
(53.1434 0.00925364 8.45562)
(45.0597 -3.15077 6.99957)
(62.9413 -2.58987 7.87924)
(64.5238 -2.27676 5.84655)
(76.0013 -1.14356 5.24347)
(78.7887 -1.16795 3.34037)
(85.9778 -0.872594 2.59195)
(88.6991 -0.866012 1.50852)
(93.4759 -0.95119 0.573879)
(95.8561 -0.63156 0.351322)
(96.6793 0.223752 -0.133197)
(105.43 0.985107 0.68109)
(58.5277 66.0036 -211.004)
(-100.198 -20.3708 -36.6346)
(66.0041 -13.299 2.9938)
(-73.837 -0.918786 -1.52338)
(54.3583 -15.0479 -1.40159)
(-28.086 -3.94633 -6.36246)
(49.0963 -15.508 -0.840633)
(7.72975 -11.7115 -4.85139)
(44.3743 -16.2791 2.9716)
(30.6531 -12.4368 1.21954)
(48.4926 -11.4067 2.59325)
(45.6075 -9.20315 0.207067)
(53.6317 -7.74812 -0.0576093)
(53.8495 -6.19556 -0.859924)
(58.127 -5.10184 -0.822626)
(59.2342 -3.9649 -1.1263)
(61.9885 -3.46256 -1.21927)
(62.6316 -2.42423 -1.08161)
(62.5227 -1.87152 -0.836462)
(68.9806 -0.917077 0.53028)
(157.298 94.7864 -123.795)
(-53.9709 -24.2306 -12.1646)
(81.7563 -39.6478 -21.1072)
(-33.3019 -8.00804 2.04555)
(56.2454 -12.026 7.62468)
(-1.64896 -0.602181 -0.508521)
(47.3734 -11.3659 6.82984)
(18.7278 -3.90098 2.40061)
(44.769 -8.68528 6.38396)
(34.9384 -4.36478 2.73104)
(48.3513 -6.48157 2.73635)
(45.1075 -5.13305 1.15161)
(51.1637 -5.61841 1.15148)
(50.4817 -4.7201 0.697904)
(53.3516 -4.67454 0.557415)
(53.6503 -3.91918 0.362591)
(55.6045 -3.8194 0.292554)
(55.9192 -2.90931 0.35487)
(55.5759 -2.45849 0.808502)
(61.0176 -1.35555 1.89506)
(195.833 -3.15491 6.68719)
(45.0978 -2.26862 -5.89963)
(77.5065 -29.0813 4.65667)
(-27.3056 -4.16331 5.47251)
(58.2176 -19.0596 7.2781)
(-9.51714 0.897963 2.6751)
(47.8226 -17.1828 5.95852)
(12.0831 -8.63637 1.00965)
(42.12 -18.824 3.04929)
(29.3044 -14.486 0.385529)
(44.0362 -15.7247 1.80499)
(40.765 -11.7152 0.53102)
(47.4159 -10.3471 1.11889)
(46.6344 -7.64543 0.603281)
(49.4891 -6.84904 0.760303)
(49.6847 -5.30693 0.628184)
(51.5976 -4.82578 0.389257)
(51.6332 -3.6479 0.360136)
(51.1288 -2.85626 0.759121)
(55.7829 -1.35111 1.79196)
(142.847 104.079 -7.65887)
(12.3325 61.8459 27.2884)
(96.9084 27.9654 16.6809)
(21.8769 -8.13701 0.165956)
(68.4329 -19.09 0.930751)
(26.6165 -3.8008 -6.76887)
(54.3261 -17.9858 -1.2088)
(32.632 -5.13397 -2.51352)
(47.9365 -16.3058 5.32382)
(41.5128 -10.1774 4.54982)
(50.4539 -13.7364 3.81174)
(47.4718 -9.50914 1.24161)
(51.1125 -9.36838 0.814074)
(49.3368 -6.33934 0.131827)
(50.7391 -6.03416 0.454213)
(50.1469 -4.83181 0.507858)
(51.3697 -4.78235 0.382213)
(51.2122 -3.81258 0.352901)
(50.4713 -3.33155 0.708799)
(54.8487 -1.67764 1.73011)
(167.22 -89.4734 58.5068)
(40.878 -56.4066 -13.2747)
(102.762 -24.4434 15.2759)
(14.7044 -11.854 6.08718)
(67.9153 -11.1201 2.20643)
(4.29877 -1.97195 -4.31974)
(45.1456 -19.9687 -1.10394)
(18.0881 -9.71464 -1.83395)
(37.1467 -16.7087 0.282515)
(29.6115 -12.6234 -0.133022)
(39.6018 -14.7062 0.523999)
(38.2851 -11.7472 0.0113485)
(43.6711 -10.8787 0.116937)
(43.3502 -8.08589 -0.415308)
(45.4949 -7.03392 -0.0700012)
(46.2857 -5.42012 0.217334)
(48.2388 -5.31565 0.0823928)
(48.7092 -4.2999 0.10497)
(48.472 -3.80112 0.625808)
(53.1151 -1.90456 1.74453)
(74.1907 18.5986 30.1533)
(-64.4182 -5.56051 -35.7635)
(62.0652 0.762921 -25.7631)
(-17.7239 -6.68746 -8.57758)
(62.5577 -9.22392 -1.87564)
(19.1916 -5.55585 -4.53464)
(41.8653 -31.4576 -0.137231)
(28.3591 -6.06682 -0.849345)
(40.1389 -25.2745 1.98621)
(38.0908 -15.7295 2.45469)
(45.9038 -21.7122 2.63589)
(44.3656 -14.8978 1.23289)
(47.7938 -14.5921 0.902649)
(46.7406 -9.54739 -0.197297)
(48.7584 -9.21267 -0.11165)
(48.7037 -7.45639 -0.0327845)
(50.4791 -7.28108 -0.0230303)
(50.8024 -6.09794 0.0609277)
(50.6123 -5.53252 0.658323)
(55.0758 -2.82499 1.92932)
(51.9897 -66.6107 -83.4559)
(-176.026 -90.1466 -63.2186)
(50.2675 -67.0454 -45.8769)
(-45.3684 -48.7602 3.27754)
(62.3206 -33.4845 -2.30912)
(8.72302 2.50422 0.373904)
(44.3635 -12.9404 -0.387032)
(25.5584 -11.5726 -1.0948)
(40.5096 -15.1814 1.44074)
(42.4027 -18.2279 2.56902)
(50.3031 -17.5805 2.22302)
(49.6285 -15.4525 1.73665)
(51.7653 -12.2671 1.2578)
(51.1961 -9.8346 0.488912)
(49.983 -9.29767 -0.742631)
(51.6096 -8.04718 -0.494655)
(53.1186 -8.08231 -0.458766)
(53.2844 -7.20047 -0.154296)
(52.8176 -6.11918 0.747584)
(56.223 -2.69469 1.97936)
(161.186 -222.693 15.0623)
(-69.0456 -36.7609 -52.4106)
(93.3527 -31.2944 -19.3733)
(-17.4819 -30.8653 -1.82595)
(58.2248 -38.1925 2.17888)
(33.3878 -14.245 1.15139)
(56.3358 -7.24302 4.04822)
(46.7338 -17.348 4.40842)
(51.6803 -23.5415 5.66753)
(57.5481 -23.4388 4.53838)
(62.029 -19.8459 2.92179)
(60.9655 -16.1783 1.48387)
(59.6352 -12.3188 1.65987)
(58.424 -9.26168 1.17972)
(57.0611 -8.51167 -1.0175)
(56.2522 -11.5823 -0.851927)
(58.4929 -10.9675 -0.37413)
(57.4817 -9.37592 -0.0695415)
(56.5105 -6.74639 0.835402)
(58.1828 -2.03153 1.80286)
(-25.0212 19.428 -60.5512)
(-110.283 -52.1841 -17.0905)
(64.3155 -77.1901 -24.9655)
(-36.7028 -48.0396 2.39537)
(45.9606 -41.9718 -2.96015)
(8.40966 -22.3411 -4.36904)
(36.9517 -11.7305 -1.73785)
(49.0837 -18.6718 1.00125)
(53.9666 -27.0517 2.47743)
(55.9011 -26.6629 1.34126)
(58.1287 -22.15 0.759437)
(61.4753 -17.6834 1.22447)
(64.438 -12.7105 0.985432)
(65.5156 -8.26784 0.326498)
(65.9882 -8.74681 -0.84362)
(61.3728 -12.332 0.105861)
(61.6791 -11.5547 0.150081)
(59.0104 -9.30704 -0.307662)
(57.0757 -4.74963 0.300243)
(56.7912 0.235837 1.25073)
(98.1531 -191.205 13.4291)
(-70.2235 -62.4985 10.7732)
(127.424 -73.2733 43.5556)
(13.6114 -46.2201 10.2648)
(74.7241 -42.6523 9.37824)
(47.6903 -34.1724 2.58745)
(48.9567 -32.1042 2.25884)
(51.8919 -29.8102 1.69695)
(57.5851 -29.6335 1.4161)
(58.4212 -30.0523 -2.10387)
(62.966 -29.6934 -2.91407)
(66.1227 -21.5331 1.6758)
(67.1899 -12.8243 1.02249)
(67.7384 -9.04958 0.427865)
(65.5716 -10.1489 0.989527)
(57.94 -10.9606 1.15302)
(57.7826 -8.97366 0.945234)
(54.848 -7.2428 -0.207639)
(52.6943 -2.18966 -0.57517)
(53.1703 1.72579 0.819408)
(100.5 -251.3 -201.659)
(-31.8383 -59.8359 -2.16752)
(115.474 -67.6858 2.91929)
(-7.0805 -23.6402 3.6578)
(61.4678 -31.0832 9.03912)
(38.1066 -24.4518 2.30205)
(61.4044 -35.1338 1.20013)
(69.4262 -37.3621 -1.29382)
(67.8938 -31.7963 0.849091)
(65.3634 -29.1072 2.26498)
(61.0464 -25.04 3.49826)
(58.385 -19.4361 2.96037)
(58.7693 -13.205 0.433454)
(59.4191 -10.1773 0.38174)
(58.5001 -9.00662 0.512343)
(51.3504 -7.90437 0.659304)
(51.7313 -6.46774 0.213805)
(50.0001 -5.07327 -0.307782)
(48.4341 -1.5731 -0.446227)
(51.2416 1.6342 1.22836)
(193.024 -144.859 44.3055)
(134.472 -45.6613 7.98349)
(167.938 -65.4369 8.78308)
(93.7648 -31.6437 1.94009)
(116.305 -39.7137 9.19316)
(83.5392 -42.649 1.92259)
(90.6213 -38.5723 2.18929)
(68.7301 -31.9644 0.149067)
(66.741 -27.97 -0.794685)
(58.5839 -22.0281 1.59415)
(55.8889 -17.7654 3.27932)
(52.2045 -13.3312 3.48347)
(53.2875 -11.1322 1.25059)
(51.9467 -10.1025 0.36)
(48.4214 -8.87431 0.39054)
(49.3017 -8.23456 0.251922)
(48.648 -6.68706 0.026287)
(48.6789 -5.52452 -0.0401131)
(47.4981 -2.56254 -0.0387228)
(51.4303 0.580869 1.70007)
(180.582 43.8251 94.5807)
(190.848 19.3621 -14.3081)
(223.49 29.8245 -8.40418)
(144.823 17.3353 -6.26052)
(137.482 5.39518 -1.64065)
(90.483 -12.1454 -4.99457)
(83.9301 -11.7937 -0.580998)
(69.4141 -25.357 -0.265521)