/*--------------------------------*- C++ -*----------------------------------*\
  =========                 |
  \\      /  F ield         | OpenFOAM: The Open Source CFD Toolbox
   \\    /   O peration     | Website:  https://openfoam.org
    \\  /    A nd           | Version:  10
     \\/     M anipulation  |
\*---------------------------------------------------------------------------*/
FoamFile
{
    format      ascii;
    class       volVectorField;
    location    "3.3";
    object      U_0;
}
// * * * * * * * * * * * * * * * * * * * * * * * * * * * * * * * * * * * * * //

dimensions      [0 1 -1 0 0 0 0];

internalField   nonuniform List<vector> 
12920
(
(101.616 -111.07 159.647)
(27.7913 -43.7623 -9.19319)
(145.374 -15.0885 -16.9974)
(90.7168 15.5632 -14.2196)
(118.747 34.9544 -9.79148)
(68.2541 26.4022 -5.79282)
(78.6064 20.8464 -0.171527)
(43.5062 3.94526 -1.22521)
(58.9733 -5.28378 0.980713)
(47.1955 -11.2956 1.79292)
(58.8641 -12.827 3.02043)
(57.8086 -11.9487 2.74675)
(65.6011 -11.0124 2.60917)
(67.8596 -9.73897 1.96993)
(74.6648 -8.90465 1.73489)
(78.1121 -7.7333 1.09099)
(83.5725 -7.7955 0.637666)
(88.265 -5.9643 0.251245)
(90.9056 -6.50949 0.296482)
(103.23 -6.25797 0.522268)
(70.8318 51.5821 101.808)
(-65.3915 -23.4561 -15.028)
(114.531 21.9346 -20.1651)
(31.2546 23.9238 -1.77585)
(80.2927 14.9256 2.04043)
(46.8594 14.8911 -2.13162)
(91.2548 6.71332 -0.120407)
(77.8679 5.49058 -3.04646)
(93.6495 -4.69358 1.90853)
(70.3129 -10.2955 2.61577)
(66.8595 -17.4767 3.19414)
(55.4175 -17.3139 1.32936)
(59.0757 -16.577 0.672765)
(57.8548 -14.0643 0.338773)
(61.3598 -12.5918 0.160223)
(62.0576 -9.20252 -0.04937)
(65.1801 -7.39387 -0.340575)
(66.2539 -4.90883 -0.139298)
(67.8356 -3.36894 -0.335388)
(75.8768 -2.2419 -0.354496)
(194.516 -119.57 -40.584)
(-87.3885 42.7827 24.2776)
(118.642 -1.1104 2.36837)
(32.1543 10.9363 3.16187)
(90.7027 8.76147 1.77804)
(64.475 12.4928 0.12063)
(89.5032 1.34973 3.54751)
(66.5707 0.58971 2.96941)
(73.7908 -5.18972 4.35366)
(61.2796 -6.03368 2.37756)
(66.4181 -11.4483 1.67499)
(61.5431 -13.3758 0.94466)
(64.1696 -14.7298 0.871659)
(62.0206 -13.4668 0.765166)
(63.0206 -12.2239 0.582318)
(61.6079 -10.2412 0.489973)
(62.3891 -9.53902 0.432073)
(61.8538 -7.93254 0.500935)
(61.955 -7.37692 0.654904)
(68.3077 -5.93079 0.783893)
(76.9945 33.3346 -42.9102)
(-38.1001 8.60841 -8.49366)
(95.9788 -27.5132 -14.2185)
(38.19 -8.91008 -1.49134)
(89.4051 -16.8873 1.5709)
(51.6624 -0.958218 0.991054)
(83.289 -10.1528 4.30372)
(55.7686 -7.45804 1.98099)
(70.3557 -20.0037 2.9846)
(56.2655 -21.9107 0.823687)
(63.8723 -25.3515 1.13441)
(60.5498 -23.2398 0.389478)
(64.4972 -21.241 0.577786)
(62.2841 -18.2061 0.485473)
(63.1077 -14.9158 0.760673)
(59.9915 -11.4986 0.614444)
(59.741 -10.2534 0.378057)
(57.9846 -8.67912 0.351786)
(57.1377 -8.27799 0.423902)
(62.1401 -7.03024 0.489005)
(47.3488 238.052 -181.869)
(-153.591 -2.08748 -48.643)
(107.266 0.318127 -47.8248)
(60.4206 -17.0141 -17.9644)
(115.507 -25.7126 -10.5355)
(107.408 -15.7359 -8.21795)
(133.821 -21.2051 -4.5432)
(130.188 -11.0339 -2.95187)
(126.411 -16.4127 3.6212)
(90.9934 -10.1126 4.4459)
(79.5777 -19.4704 2.51811)
(68.4975 -18.4468 0.675586)
(68.7786 -18.804 0.134422)
(65.8969 -15.5186 -0.0412892)
(65.4335 -13.2763 0.307569)
(61.4085 -10.0706 0.469472)
(60.1175 -9.72997 0.311331)
(57.3987 -8.74102 0.288061)
(56.1291 -9.03918 0.269973)
(60.763 -8.12886 0.325108)
(59.6951 -39.5427 140.057)
(-32.0555 -83.8862 -32.374)
(124.696 -21.4453 -42.9636)
(46.639 5.15843 -19.9023)
(92.8272 0.734782 -9.84575)
(49.5023 4.71174 -7.24322)
(76.6886 -4.3929 -3.41538)
(56.0116 2.04436 -2.66504)
(63.2307 -1.5298 -0.546952)
(51.0381 -6.26006 -0.189401)
(56.0639 -17.2985 0.190966)
(53.0152 -19.4522 0.131394)
(55.8956 -19.4093 0.0554678)
(54.6521 -15.9645 -0.342369)
(55.5528 -11.9554 -0.0978067)
(54.1438 -8.82 0.0548997)
(54.6423 -8.34662 -0.104422)
(53.7592 -8.04569 0.0239576)
(53.2385 -8.7527 0.187876)
(58.7399 -8.04202 0.267627)
(124.781 66.3965 168.274)
(-71.7166 14.2034 47.2749)
(69.1601 43.8013 11.1593)
(21.7822 30.6597 -1.69823)
(94.8779 16.433 -0.628432)
(72.4159 11.7105 -3.35088)
(89.2215 -8.95509 -0.992642)
(77.076 6.22013 -0.601526)
(79.183 -9.44694 1.51237)
(68.9054 -8.89795 2.29028)
(68.1472 -22.3737 1.52863)
(61.8137 -20.9048 1.04884)
(59.9782 -21.0289 0.742935)
(55.3444 -14.5029 0.0537813)
(54.8535 -12.1654 -0.180826)
(53.4113 -9.29995 -0.202332)
(54.5677 -9.22881 -0.263132)
(54.9557 -9.07021 -0.169812)
(55.9659 -10.6355 0.0487987)
(61.9581 -9.52222 0.289846)
(-4.82693 -283.131 -0.452458)
(-230.586 -98.3478 -4.62508)
(79.9883 -46.6695 -10.1669)
(-7.27581 -25.8494 0.803611)
(80.5905 -12.9966 1.78265)
(43.1766 17.3022 -0.581415)
(70.8653 14.1715 -1.30651)
(58.0415 15.334 -1.54555)
(65.9945 9.8041 -0.527938)
(66.4721 -4.37677 -0.129537)
(72.9444 -14.4981 0.424055)
(69.6155 -18.3525 0.589165)
(65.7725 -16.4677 0.869897)
(59.441 -11.9658 0.873869)
(52.2674 -9.24426 -0.270389)
(52.9379 -7.90559 -0.542231)
(55.2998 -9.36054 -0.623354)
(58.6009 -10.8669 -0.573757)
(60.6534 -11.9585 -0.183613)
(66.059 -10.042 0.243955)
(-16.3916 -30.913 -53.4992)
(-75.2229 -20.0373 -25.5323)
(99.5345 -9.81492 -8.50145)
(23.7092 -6.26832 -4.20259)
(85.0413 -22.0874 -0.325747)
(51.1913 0.166885 -0.493079)
(74.624 8.06992 0.0147788)
(70.4315 1.20025 0.826337)
(68.8077 -13.9183 0.644395)
(75.3142 -24.4967 0.533976)
(84.5204 -25.9864 0.687724)
(87.0631 -20.6944 0.302375)
(82.5621 -14.8343 0.188421)
(73.2472 -10.2526 0.863468)
(59.4956 -2.70793 0.347173)
(58.5508 -8.74032 -0.897172)
(63.6813 -12.2521 -0.804282)
(65.2576 -13.3983 -0.539843)
(66.5569 -12.8843 -0.170506)
(71.0664 -10.0737 0.26456)
(52.4298 -114.761 116.447)
(-201.003 -61.8597 3.10167)
(64.685 -56.2798 0.0489917)
(-20.3139 -13.9409 -1.66425)
(67.3798 -11.7623 -4.14244)
(24.7633 -3.07512 -0.891947)
(48.0109 -3.45143 -0.872351)
(63.1444 -13.1038 -0.643089)
(71.5663 -27.2468 0.0567139)
(55.5032 -29.4268 0.0767232)
(54.6354 -30.3098 -0.0690363)
(59.813 -28.3407 0.130913)
(67.7061 -19.4105 0.319547)
(71.5805 -9.39635 -0.330482)
(68.0794 0.269589 0.0011094)
(68.0158 -8.06388 -0.247197)
(68.9797 -12.0119 -0.0927727)
(67.7279 -12.8347 -0.143105)
(67.176 -12.0545 -0.140207)
(70.5056 -8.81622 -0.198249)
(166.629 -39.1418 48.3668)
(0.590383 -76.6015 -13.2395)
(130.334 -79.0936 -29.1784)
(62.1552 -27.3068 -11.4153)
(106.12 -22.5375 1.71021)
(58.9674 -11.3905 -0.416972)
(56.7604 -12.7292 0.528171)
(52.286 -12.9363 -0.354666)
(59.3924 -20.6284 -0.137267)
(77.8838 -34.0455 -0.481426)
(84.8642 -36.2981 0.279059)
(78.7782 -35.768 0.40472)
(73.9129 -26.6316 0.263125)
(66.8845 -10.4327 0.257254)
(68.537 -3.24057 0.326804)
(63.024 -9.51215 0.888061)
(60.6347 -11.2485 0.953519)
(55.8961 -11.0483 0.427049)
(54.2132 -9.07921 -0.309222)
(58.5206 -4.11108 -0.603765)
(147.297 -87.0185 8.1379)
(50.8441 -8.69146 -29.7443)
(155.953 -41.4911 -12.5612)
(70.3262 -16.5454 -2.29764)
(95.0534 -10.2273 10.6473)
(35.8812 2.04483 3.2782)
(53.8248 -4.23245 0.0101171)
(83.4533 -26.0743 -0.3701)
(97.5021 -40.6225 0.228758)
(99.812 -39.2969 0.463784)
(95.2486 -37.9282 0.223933)
(81.2257 -30.1266 0.863509)
(58.6567 -20.5635 0.283483)
(54.9106 -11.7063 -0.00439236)
(55.5337 -8.63893 0.390177)
(50.4294 -9.83012 0.357423)
(50.9774 -9.45227 0.201663)
(48.9691 -8.77129 0.13323)
(47.4417 -6.85686 -0.266752)
(53.3793 -2.19685 -0.217436)
(266.201 18.0214 5.35394)
(236.037 -23.9879 -24.3776)
(256.416 -36.8349 -15.1054)
(201.821 -20.9264 -6.51268)
(187.045 -26.952 6.07758)
(140.927 -30.1986 2.50703)
(139.306 -30.6462 -1.45649)
(116.1 -32.8785 -1.02249)
(107.707 -42.1326 -0.469477)
(101.183 -40.9732 -0.427298)
(91.2507 -31.3014 0.150946)
(71.1282 -18.9725 1.28158)
(57.2326 -13.2314 0.533599)
(51.395 -11.7897 0.0421301)
(48.7974 -11.3104 0.083599)
(49.906 -11.0559 0.143324)
(49.1983 -9.95656 0.0777507)
(48.3604 -9.00198 0.203727)
(46.6831 -6.8428 0.143461)
(52.3775 -2.08982 0.238468)
(183.479 168.807 -34.7877)
(125.835 22.0663 13.7783)
(180.92 33.1991 4.22364)
(140.098 25.2686 -2.65922)
(160.154 23.4455 -3.70366)
(143.567 14.5909 -4.29567)
(144.435 5.68654 -1.7072)
(128.279 -20.2263 -0.506305)
(119.864 -25.97 0.679359)
(101.222 -31.525 1.3275)
(93.0726 -16.0194 2.61141)
(73.8923 -12.5447 2.92)
(66.2006 -6.77649 1.23086)
(57.576 -9.82963 0.711416)
(55.7041 -8.22178 0.261093)
(52.3902 -9.82913 0.180972)
(51.5907 -9.15221 0.108765)
(49.9939 -8.66952 0.229874)
(47.7481 -6.89384 0.303739)
(52.2927 -2.68886 0.478072)
(151.812 -102.978 58.1197)
(3.11041 -56.3927 -5.84478)
(136.879 -29.3779 -0.214997)
(96.9201 -9.11945 -1.74716)
(145.828 6.86764 -0.437535)
(139.049 3.9833 0.353349)
(145.926 0.404389 2.08922)
(129.175 -9.24503 1.27678)
(117.224 -15.061 -0.101099)
(99.7266 -19.2846 -1.73445)
(95.2021 -11.9895 -0.845752)
(79.3423 -5.95225 1.34028)
(70.1488 -2.03473 1.43596)
(60.4151 -4.27794 0.314719)
(55.6336 -6.1963 -0.272837)
(52.7599 -8.49896 -0.19312)
(51.7294 -8.52489 -0.0432821)
(50.3081 -7.91302 0.0466783)
(48.542 -6.38542 0.259144)
(52.2702 -3.22061 0.562956)
(241.58 -170.68 -3.38309)
(162.91 -42.1995 -11.0812)
(171.097 10.6285 -4.15412)
(121.526 2.09948 -3.27206)
(141.71 13.2287 -0.53474)
(116.579 9.48797 -0.69638)
(115.877 13.0405 1.07494)
(93.2789 1.15127 0.637719)
(85.68 -0.232673 1.17131)
(68.5492 -2.87813 -0.577734)
(66.7415 4.39571 -0.757044)
(60.4681 5.35092 -0.236296)
(60.7171 6.3376 -0.000181678)
(57.7158 3.38695 -0.369117)
(58.8609 -0.52873 -0.412894)
(56.5972 -4.88331 -0.273487)
(55.7449 -6.82656 0.00287538)
(53.3823 -7.05797 0.119225)
(51.827 -5.952 0.273735)
(55.7435 -3.46882 0.546753)
(18.9213 92.4133 175.202)
(-62.2608 7.55726 -27.6631)
(101.218 19.6763 -0.331016)
(53.1243 5.77894 -3.71011)
(117.759 17.3886 -1.51237)
(107.979 18.9231 -2.66377)
(122.536 22.0731 -0.579957)
(105.889 15.3956 0.442631)
(89.0936 7.47368 4.025)
(61.4675 1.44841 2.10541)
(60.8679 2.633 -0.123559)
(56.9264 2.35374 -0.240013)
(59.6881 2.05673 -0.368902)
(59.5331 -0.168477 -0.473507)
(63.1716 -2.40273 -0.417756)
(64.0968 -4.36092 -0.122545)
(63.5565 -5.67847 0.379542)
(59.6731 -5.82787 0.560141)
(56.4069 -5.52741 0.35654)
(58.8394 -3.67517 0.303068)
(122.746 79.7789 122.503)
(-47.2762 14.0802 3.44163)
(124.249 -24.3235 -6.08083)
(73.9864 -10.6214 -4.83631)
(126.275 6.27572 -3.22561)
(111.54 15.9164 -3.81202)
(123.328 26.9841 -0.523057)
(103.846 27.3857 1.22047)
(91.6434 27.5796 3.90417)
(68.057 17.3383 1.30047)
(68.5669 12.9666 -0.304865)
(65.2304 8.35118 -0.44702)
(69.2936 6.65332 -0.4079)
(69.5245 2.57421 -0.472931)
(73.5965 -1.86351 -0.337537)
(73.8609 -4.50425 -0.162555)
(74.2568 -4.6605 -0.142057)
(71.2901 -3.73731 0.123617)
(66.729 -1.60117 0.369414)
(68.3356 -0.362452 0.205523)
(126.31 -86.3492 -176.468)
(36.7789 -3.80453 -22.3157)
(121.453 -20.0722 6.00439)
(37.57 -3.39112 -1.00311)
(88.9289 12.177 -0.519342)
(70.0797 21.4247 -2.39241)
(92.4128 29.3102 1.20548)
(76.2073 29.2947 2.03913)
(79.9993 25.5327 2.63574)
(69.7583 18.2266 1.0119)
(72.623 9.71844 0.172615)
(68.5804 4.45031 -0.465781)
(71.5599 1.27304 -0.767131)
(70.2513 -1.41913 -1.08304)
(71.2225 -3.63425 -1.50679)
(72.4515 -4.23518 -1.65829)
(75.4741 -2.94413 -1.14844)
(75.2174 -0.00305165 -0.555379)
(75.2299 1.99397 0.0804685)
(80.4485 1.81928 0.235633)
(264.073 -27.3136 52.7156)
(-12.6727 2.53654 27.8522)
(119.565 5.84065 4.31814)
(77.7682 11.3908 3.90287)
(112.041 10.3512 8.07145)
(81.783 15.9095 6.90774)
(95.9699 20.4201 7.27193)
(88.4891 23.1113 6.49942)
(99.2582 22.7294 5.68344)
(99.7059 20.0018 4.1841)
(106.548 18.0952 3.04529)
(107.677 15.9247 1.85269)
(112.901 14.8837 1.28106)
(115.11 13.2749 1.07887)
(118.163 8.01405 0.948367)
(114.107 1.49784 0.765002)
(109.77 -1.61151 0.55264)
(105.168 -1.65038 0.471112)
(103.614 0.297819 0.445928)
(111.646 2.11366 0.55831)
(311.581 -116.568 -10.4658)
(115.942 -54.9874 15.5596)
(162.689 -46.1259 0.00672625)
(86.1532 -23.7136 -3.44358)
(106.568 -1.75914 5.10152)
(49.4513 5.15696 -1.32558)
(68.5204 13.7958 5.77742)
(33.5944 3.53819 0.513217)
(51.3683 -2.97145 4.95011)
(40.7234 -8.2634 4.79675)
(55.1572 -8.89842 6.29352)
(55.4932 -7.84264 5.22981)
(65.1413 -6.7455 4.81088)
(67.8314 -5.71615 3.3898)
(75.2815 -4.90153 2.79775)
(78.5463 -4.4208 1.83523)
(83.9152 -4.04875 1.06966)
(87.0192 -3.711 0.637938)
(89.4344 -3.29267 0.303727)
(100.552 -1.99287 0.616907)
(158.113 -65.3642 -162.6)
(31.476 -94.7463 -53.844)
(108.165 -24.5427 -4.66743)
(-14.2033 3.13678 4.12873)
(58.3175 -4.28047 5.09148)
(-1.60328 1.71872 -6.13358)
(57.9227 -7.44331 1.8389)
(27.9729 -8.31059 -3.68212)
(54.6258 -15.095 5.37169)
(38.6225 -14.494 3.44045)
(49.2489 -14.7792 4.22389)
(44.4955 -12.7598 1.46514)
(50.3452 -11.2754 0.605229)
(50.193 -9.09645 -0.13193)
(54.2731 -7.76592 -0.321964)
(55.451 -5.87299 -0.64706)
(58.322 -4.99638 -0.811514)
(59.0744 -3.50663 -0.672978)
(60.1216 -2.77509 -0.700379)
(66.9362 -1.91794 -0.226362)
(90.4674 -86.47 -152.063)
(-87.9049 0.849427 -29.5159)
(98.9887 -14.2501 -17.7629)
(7.54919 2.87578 3.19748)
(71.0295 -0.361002 7.34392)
(27.8273 5.62201 0.966997)
(61.511 -5.52875 8.13171)
(35.8993 -2.85037 4.05809)
(52.183 -8.13549 7.24083)
(41.0774 -5.98692 3.32835)
(50.1834 -8.91689 2.90999)
(46.2967 -8.43901 1.45962)
(50.6295 -8.89428 1.3702)
(49.5116 -7.68417 0.961496)
(51.5167 -7.24979 0.715376)
(51.4568 -6.08187 0.56254)
(53.0124 -5.78632 0.478611)
(52.9991 -4.65567 0.614633)
(53.3832 -4.22838 0.916203)
(59.1791 -3.05622 1.18784)
(114.294 65.7811 50.6692)
(46.9972 -17.1766 -0.811938)
(89.7692 -39.7546 -8.77936)
(5.89468 -7.08296 5.0638)
(67.4841 -15.88 7.82799)
(13.1242 2.87794 2.02157)
(57.0924 -11.1224 7.94112)
(25.2192 -6.93448 1.63006)
(47.4384 -18.8297 4.3005)
(34.9224 -17.731 0.784139)
(46.2358 -19.4303 2.07076)
(42.9606 -15.8412 0.690789)
(48.1975 -13.9798 1.15582)
(46.686 -10.7912 0.760174)
(48.7934 -9.20148 0.951272)
(48.0586 -7.34819 0.781309)
(49.124 -6.61674 0.516424)
(48.4125 -5.37216 0.551119)
(48.2035 -4.70639 0.783029)
(53.1053 -3.25369 0.971865)
(175.074 39.9644 -45.6394)
(81.8442 -46.5314 16.5448)
(137.728 -15.4293 -9.25672)
(64.5936 -17.5399 -4.22806)
(90.0835 -21.6903 -2.81669)
(57.9006 -6.12267 -7.44589)
(78.7293 -14.46 -2.11304)
(61.5816 -4.18845 -1.83615)
(67.8675 -13.3223 6.54519)
(55.1713 -10.3241 5.91874)
(56.5385 -15.3444 4.34332)
(50.7428 -12.5505 1.497)
(52.1378 -12.1395 0.677428)
(49.4601 -8.92306 0.127619)
(49.9524 -7.85708 0.525647)
(48.4446 -6.32471 0.595844)
(48.7868 -6.28085 0.460206)
(47.7007 -5.48965 0.518803)
(47.0136 -5.30886 0.684467)
(51.6082 -3.87087 0.860449)
(291.111 -221.171 -34.5597)
(229.243 -236.794 -14.6409)
(200.741 -110.217 -5.02221)
(56.4716 -19.1963 0.176029)
(81.7856 -8.13056 -0.809505)
(21.3551 1.7921 -5.81482)
(51.1731 -11.5083 -1.26372)
(26.6726 -4.81335 -2.55278)
(40.3143 -11.0392 0.556724)
(32.3333 -11.1411 -0.0793587)
(39.7103 -15.4321 0.713793)
(37.9675 -14.1861 0.2576)
(42.2028 -13.2913 0.233009)
(41.3539 -10.0558 -0.321384)
(42.8761 -8.15396 -0.00245122)
(43.1904 -6.35207 0.182064)
(44.4721 -6.3035 -0.00486916)
(44.3392 -5.64082 0.185385)
(44.3966 -5.61943 0.577253)
(49.5036 -4.07618 0.831383)
(88.4948 -15.6151 2.72646)
(-69.9765 -14.5326 -39.2044)
(64.8722 14.0427 -26.1767)
(-3.8403 4.39331 -12.0283)
(70.0553 -0.283969 -1.95519)
(36.678 1.26289 -5.15018)
(54.4481 -20.8454 0.0117988)
(41.6709 -1.87401 -0.688841)
(48.4783 -19.4944 2.96653)
(44.2632 -14.8845 3.26532)
(48.4058 -21.8876 2.77573)
(45.0047 -16.9986 1.72375)
(46.4592 -16.1721 1.21969)
(43.989 -10.7085 0.0236136)
(44.9677 -9.81125 -0.247441)
(44.5263 -8.07633 -0.177584)
(45.9879 -8.14342 -0.198799)
(46.2144 -7.45433 0.0182801)
(46.6903 -7.58093 0.519261)
(51.7442 -5.35077 0.96295)
(-13.5629 -165.391 -4.88117)
(-206.005 -96.337 -43.9499)
(56.3981 -63.0133 -33.5098)
(-34.9241 -38.7079 1.12189)
(65.1266 -23.5537 0.96424)
(19.4271 9.19843 -0.533341)
(51.5539 2.48488 -1.17323)
(35.7212 1.57185 -0.86573)
(47.0361 -3.41264 1.71263)
(48.7151 -12.3235 2.40273)
(54.4031 -15.2096 2.17985)
(51.5023 -14.9203 1.57678)
(50.6648 -11.488 1.32454)
(48.1855 -8.39223 0.660658)
(45.1694 -8.9762 -0.954533)
(46.5809 -8.13143 -0.902805)
(48.6419 -9.18508 -0.825211)
(49.4534 -9.0893 -0.455916)
(49.9838 -8.6654 0.398137)
(53.9851 -5.60018 0.983346)
(102.659 -108.668 56.7054)
(-31.0415 -37.0943 -56.8013)
(91.9847 -22.5292 -18.0491)
(3.97848 -19.9009 -5.15808)
(64.2277 -29.5398 2.69057)
(42.0391 -9.38706 1.12204)
(66.2681 0.916372 3.34598)
(57.5721 -4.22429 4.93751)
(58.3428 -14.9701 6.39154)
(63.5215 -20.2984 5.15414)
(69.1419 -19.7701 2.9172)
(67.3602 -15.7353 1.10951)
(62.1726 -11.6004 1.11841)
(56.7446 -6.62479 1.76029)
(52.5527 -4.48495 -0.540801)
(52.7144 -11.1977 -1.52786)
(55.6437 -12.1868 -1.01613)
(54.9852 -11.6449 -0.482502)
(54.986 -9.88839 0.374728)
(57.3669 -5.4082 0.873718)
(190.003 -207.16 161.937)
(-178.369 -60.9013 -2.61548)
(73.2969 -79.2521 -11.7905)
(-22.378 -37.7495 0.311127)
(51.5993 -31.2602 -2.75481)
(15.6414 -13.2786 -6.61397)
(39.1793 -4.68173 -2.72371)
(49.962 -11.5715 -0.630699)
(54.9859 -24.8844 1.81829)
(52.7864 -27.5953 1.03312)
(53.1924 -25.4173 0.0435958)
(56.8234 -21.0418 0.802471)
(61.5896 -14.221 0.926237)
(61.9227 -6.58413 0.268404)
(61.9714 -4.59941 -0.332682)
(59.6287 -11.4947 -0.49275)
(59.5114 -12.5476 -0.254096)
(57.0905 -11.6279 -0.39821)
(56.0623 -8.62577 -0.00278323)
(56.4135 -3.0406 0.0799084)
(396.404 -88.536 -41.4739)
(257.244 46.473 -0.235155)
(217.13 -24.0035 25.4827)
(59.6935 -28.4526 7.57692)
(84.6329 -31.4528 10.7083)
(57.2186 -22.4206 2.07852)
(52.1973 -20.644 1.0114)
(49.1892 -21.6443 1.4845)
(57.1408 -26.9405 1.09009)
(62.1147 -31.924 0.215707)
(64.5539 -31.6059 1.28341)
(63.1858 -27.965 2.49656)
(62.1731 -15.382 1.5807)
(61.8967 -7.69999 0.626811)
(61.3209 -7.44967 1.12106)
(54.2958 -10.6008 1.0649)
(53.3924 -10.1194 1.02147)
(49.7557 -9.07065 0.16721)
(48.383 -5.13992 -0.594309)
(49.8566 0.078353 -0.437024)
(158.643 -88.5361 -58.7067)
(-10.8491 8.49517 1.94108)
(121.264 -25.0782 6.46525)
(16.3076 -4.36703 0.804571)
(63.2584 -12.4719 13.3396)
(42.0519 -5.66551 5.15485)
(59.6321 -14.1473 0.770182)
(75.6394 -33.619 -1.63465)
(78.5705 -35.7954 1.07034)
(77.268 -33.6763 2.21668)
(69.6925 -29.5945 2.89626)
(57.9378 -24.0126 4.23566)
(52.4668 -14.983 0.869669)
(51.8701 -9.62411 0.421173)
(51.3092 -8.2029 0.808398)
(44.6479 -8.62165 0.563632)
(44.9815 -7.55849 0.17333)
(43.1052 -6.48241 -0.0575565)
(41.9323 -3.61856 -0.42274)
(46.2452 0.744455 0.202175)
(225.63 -25.8875 117.559)
(152.485 -33.2354 19.8748)
(177.422 -53.3618 17.9442)
(109.712 -24.7237 9.20779)
(123.244 -28.624 12.4134)
(95.3373 -31.5687 3.4758)
(102.259 -31.3849 2.49182)
(83.2825 -32.3617 0.704342)
(79.0683 -32.6207 -0.485471)
(71.626 -28.0806 0.785123)
(63.1624 -21.2977 2.86527)
(51.0572 -14.7814 4.2236)
(47.6047 -11.7478 1.49086)
(44.6035 -10.6588 0.351335)
(41.6091 -9.9503 0.200682)
(42.6575 -9.27048 0.230083)
(41.8689 -7.82232 0.0959174)
(41.4512 -6.78644 0.249505)
(40.3482 -4.19613 0.191443)
(45.6408 -0.033948 0.848483)
(166.488 110.164 -67.1987)
(159.682 -7.93555 -8.81483)
(196.41 17.5312 -7.42167)
(134.214 15.918 -8.81855)
(135.305 12.7861 -6.51698)
(102.369 -1.76081 -6.65581)
(96.9459 -7.89045 -1.85178)
(82.9199 -24.7308 -0.840694)
(79.9458 -20.3765 1.23897)
(68.6605 -19.9759 3.00894)
(62.8605 -7.78492 4.43423)
(54.7412 -9.08139 4.65057)
(50.8905 -6.30156 2.3454)
(45.8613 -8.63126 1.45636)
(45.0958 -6.91304 0.614912)
(42.6934 -7.88588 0.406376)
(42.5219 -7.04155 0.235736)
(41.6183 -6.31534 0.392478)
(40.3245 -4.38749 0.5414)
(45.4083 -0.920873 1.29767)
(174.016 6.33497 -114.414)
(-22.8747 11.3506 30.9733)
(133.61 19.0068 4.02286)
(78.2838 10.0475 -3.50941)
(118.053 10.5613 -1.61598)
(99.4091 -3.51178 -0.607752)
(105.489 -6.58561 2.96914)
(87.8744 -14.1075 1.22553)
(80.5557 -12.0725 0.465857)
(65.3462 -10.6557 -1.41003)
(60.9703 -3.51824 0.602526)
(53.8396 -2.09161 2.3)
(51.786 -2.05508 2.33295)
(47.0121 -4.31616 0.676962)
(44.4627 -5.88948 -0.110794)
(42.6481 -7.2292 -0.064625)
(42.552 -6.93805 0.0143954)
(41.8044 -6.17586 0.209803)
(40.8559 -4.5876 0.584501)
(45.426 -1.82535 1.44228)
(218.969 -111.236 -41.872)
(136.875 -43.7752 -11.8552)
(156.725 19.9067 1.24154)
(98.4143 13.0642 -2.0166)
(118.472 21.3817 0.0479333)
(83.8856 11.3517 -1.55517)
(85.3651 12.6087 2.23456)
(62.4086 -0.516364 1.5657)
(61.4494 -0.0655889 2.33144)
(50.3932 -3.28702 -0.354355)
(50.8152 2.33781 0.10106)
(46.8541 1.6315 0.303774)
(48.8102 2.07103 0.486431)
(46.6898 -1.10649 -0.284661)
(47.6873 -3.49348 -0.318953)
(46.0251 -5.75692 -0.168716)
(46.0224 -6.35482 0.0499033)
(44.6925 -6.11896 0.282666)
(43.795 -4.83966 0.618473)
(48.026 -2.34473 1.44448)
(235.741 -79.5133 -88.7937)
(-159.017 8.1571 -14.8053)
(92.0542 27.6419 -19.639)
(24.2191 12.4196 -8.36686)
(90.7084 21.9322 -4.29786)
(66.6662 17.0435 -4.71109)
(82.7574 17.7289 1.39573)
(61.5138 7.79777 2.11816)
(61.2876 3.37827 5.66641)
(50.333 -0.208751 2.79103)
(51.7299 0.187859 0.0447064)
(48.4072 -0.803483 -0.396117)
(51.0157 -1.7247 -0.604019)
(50.2951 -3.46267 -0.745872)
(51.9472 -4.75141 -0.460266)
(51.4961 -5.78056 -0.139691)
(51.6026 -5.83773 0.512877)
(49.8825 -5.36612 0.794986)
(48.3538 -4.43738 0.76995)
(51.5768 -2.62784 1.09097)
(125.638 -89.4786 124.527)
(-61.1143 5.81788 16.363)
(115.095 -15.6007 -29.3018)
(48.3141 0.321463 -10.3716)
(99.5077 15.7259 -5.88265)
(70.1624 17.1228 -4.98231)
(84.528 24.2789 2.4541)
(64.3411 19.2808 3.46219)
(67.0358 17.5263 5.18162)
(57.8364 10.8165 1.35901)
(60.5322 6.80297 -0.667024)
(58.0331 3.09358 -1.21693)
(61.4915 1.23613 -1.04893)
(61.0166 -0.957485 -1.08324)
(63.0054 -3.61787 -0.720597)
(62.3259 -5.2369 -0.304196)
(62.3601 -4.96707 -0.0173526)
(59.4411 -3.85628 0.405688)
(57.1853 -2.26886 0.700167)
(60.5369 -1.20417 0.745372)
(40.5842 -126.128 59.259)
(-81.3133 19.7197 18.3359)
(75.4745 -12.7643 2.31672)
(-2.71047 1.21745 -6.50687)
(71.7347 12.4498 -3.42031)
(42.3659 15.2163 -3.34275)
(71.4889 20.5261 3.46363)
(59.2397 18.5265 3.27555)
(70.8194 14.5944 3.21939)
(66.4077 8.80164 0.138462)
(71.5434 3.13059 -1.33963)
(69.4416 0.161901 -2.47918)
(72.0133 -1.94479 -2.95364)
(71.1972 -3.29006 -3.19982)
(72.1026 -4.4975 -3.25376)
(72.5362 -5.04021 -2.57442)
(73.3449 -3.99775 -1.42126)
(71.3421 -1.64595 -0.359378)
(70.6455 -0.0607382 0.455169)
(75.8962 -0.196991 0.581539)
(144.976 -178.517 166.417)
(-2.79485 -33.224 20.7392)
(121.482 -13.2338 -28.1093)
(47.5967 -4.346 -9.66551)
(93.5837 0.436864 5.32194)
(67.3969 9.50179 8.9721)
(88.7859 14.0668 12.1272)
(85.2125 16.8209 11.0962)
(99.3318 16.4318 9.80042)
(101.851 14.4826 7.20758)
(110.388 12.8929 5.22827)
(111.572 11.3925 3.33169)
(116.613 10.6979 2.35274)
(118.535 8.94344 1.33417)
(121.224 3.58129 1.34762)
(117.195 -2.65464 1.37724)
(112.658 -4.31128 1.13833)
(107.033 -3.38072 1.33691)
(104.749 -0.459637 1.53066)
(111.759 1.25788 1.63926)
(157.469 100.012 -101.243)
(58.3577 8.95142 68.8751)
(115.158 -20.8223 41.1318)
(17.4406 -7.42796 4.50964)
(76.5547 7.63876 14.0838)
(13.8774 7.99024 0.337632)
(53.2784 13.619 10.3463)
(18.9756 3.58562 3.34542)
(44.4448 0.398321 8.44646)
(35.9067 -2.85111 6.99981)
(52.959 -2.34858 7.82881)
(54.2455 -2.06374 5.8204)
(65.2261 -0.989343 5.21122)
(67.7701 -1.04467 3.31963)
(74.6803 -0.783478 2.57104)
(77.2391 -0.794592 1.4892)
(81.7504 -0.889385 0.579201)
(83.8897 -0.572159 0.407703)
(85.5539 0.217361 -0.0997091)
(93.2099 0.825852 0.463667)
(53.2127 83.8247 -169.418)
(-110.022 -10.6977 -34.0178)
(64.2675 -8.26141 7.44492)
(-75.2143 3.85315 0.00240122)
(49.5097 -12.5413 -0.848812)
(-35.1815 -1.99357 -7.04744)
(41.9187 -13.8969 -0.361645)
(-0.383936 -10.6513 -4.87506)
(35.3393 -15.2878 3.23282)
(21.2727 -11.7022 1.1681)
(38.3395 -10.7684 2.5397)
(35.193 -8.68837 0.174876)
(42.7086 -7.32027 -0.105836)
(42.7361 -5.8469 -0.881524)
(46.7534 -4.82168 -0.842552)
(47.7219 -3.74274 -1.13866)
(50.2169 -3.27617 -1.20881)
(50.5729 -2.27467 -1.01409)
(51.15 -1.84578 -0.774321)
(56.9053 -1.14224 0.137708)
(173.554 85.1124 -123.97)
(-52.1621 -17.0102 -11.1993)
(81.4761 -30.4325 -19.9438)
(-36.0995 -1.08479 2.97011)
(49.6081 -7.39285 8.04033)
(-8.75516 3.35549 -0.753396)
(39.6981 -8.61107 7.06566)
(10.5327 -1.6428 2.25171)
(35.6845 -6.95418 6.51944)
(25.3765 -3.07368 2.62151)
(38.0771 -5.40537 2.68691)
(34.5585 -4.31416 1.14694)
(40.1468 -4.93299 1.14451)
(39.2666 -4.16862 0.700075)
(41.8853 -4.22364 0.539435)
(42.0668 -3.57001 0.347357)
(43.7855 -3.54041 0.308411)
(43.7825 -2.69357 0.465721)
(44.0441 -2.35969 0.945071)
(48.9452 -1.45137 1.51325)
(213.013 15.3871 57.0976)
(57.2912 13.8543 3.79306)
(74.5161 -21.5893 5.56946)
(-33.7172 1.24584 6.28425)
(50.6207 -14.9324 7.09076)
(-18.5747 4.71219 1.92122)
(38.97 -13.964 5.998)
(2.87942 -6.06854 0.826764)
(32.1049 -16.7833 3.22087)
(19.2678 -12.8814 0.297634)
(33.4056 -14.2905 1.88915)
(29.9519 -10.5596 0.509278)
(36.2128 -9.36765 1.09879)
(35.273 -6.85207 0.60809)
(37.8943 -6.21343 0.75793)
(37.9853 -4.82726 0.632396)
(39.682 -4.46295 0.413893)
(39.386 -3.38372 0.494061)
(39.4293 -2.72008 0.933341)
(43.6863 -1.39555 1.38128)
(126.501 143.361 27.7998)
(-2.52229 84.2243 32.6523)
(85.8941 40.319 15.4442)
(15.1399 -0.010167 -0.929989)
(60.5611 -13.7987 0.758198)
(18.7049 1.12364 -7.24233)
(45.5784 -14.0386 -1.17447)
(23.2818 -2.026 -2.63009)
(37.8681 -13.5686 5.61717)
(31.2993 -8.04906 4.62413)
(39.7033 -11.9078 3.76966)
(36.4584 -8.0233 1.22801)
(39.7285 -8.09338 0.818453)
(37.7724 -5.31953 0.185954)
(38.9609 -5.2337 0.491943)
(38.2878 -4.2445 0.532651)
(39.3221 -4.35383 0.410867)
(38.8377 -3.52239 0.494267)
(38.6175 -3.17961 0.897764)
(42.6865 -1.68472 1.32197)
(134.099 -72.9095 34.3354)
(12.9898 -45.2287 -8.9441)
(88.1782 -13.2399 17.058)
(1.87745 -2.81528 5.39543)
(56.9275 -5.383 2.57546)
(-6.16731 3.29727 -4.28684)
(34.5886 -15.5331 -1.0994)
(7.72031 -6.1824 -1.9614)
(26.1765 -13.549 0.362738)
(18.6559 -10.1995 -0.177691)
(28.2999 -12.6686 0.5559)
(26.9018 -10.0803 0.0446551)
(31.9985 -9.46541 0.181112)
(31.5184 -6.91603 -0.346421)
(33.4722 -6.11636 -0.0338732)
(34.2157 -4.74175 0.209931)
(36.0157 -4.83596 0.108502)
(36.1781 -3.98927 0.277097)
(36.4647 -3.63272 0.830161)
(40.8831 -1.87512 1.31338)
(71.8167 -4.89834 68.6568)
(-77.5841 -5.6782 -32.8601)
(48.7735 0.673465 -23.4707)
(-28.173 -3.14337 -8.34919)
(51.0683 -6.03008 -1.56169)
(10.0808 -1.7311 -4.39204)
(31.4427 -27.2831 0.0660847)
(17.7733 -3.24488 -0.839562)
(28.9814 -22.4407 2.04513)
(26.7416 -13.5682 2.34474)
(34.3475 -19.6094 2.75908)
(32.6903 -13.2155 1.46605)
(35.8844 -13.0936 1.09558)
(34.6681 -8.29779 -0.090394)
(36.4937 -8.16281 -0.158824)
(36.4099 -6.73701 -0.0634512)
(38.0583 -6.77959 -0.00549933)
(38.1108 -5.7889 0.220342)
(38.4638 -5.34876 0.852955)
(42.7254 -2.76097 1.51643)
(46.2854 -47.6561 -69.7754)
(-180.869 -83.4387 -59.019)
(39.8484 -60.5911 -46.8248)
(-53.9595 -42.8468 3.10098)
(51.515 -27.7459 -2.36762)
(-0.790191 6.96424 -0.245937)
(32.7808 -6.06825 -0.222612)
(13.9749 -6.13111 -1.45351)
(29.0376 -10.0632 1.28786)
(30.8346 -13.788 2.58367)
(38.6143 -13.2527 2.1734)
(37.7751 -11.5888 1.65217)
(39.7373 -8.55116 1.17736)
(39.1705 -6.42617 0.286209)
(37.522 -8.33628 -0.780658)
(39.0047 -7.27021 -0.588263)
(40.4836 -7.60273 -0.439947)
(40.4311 -6.87919 0.00940488)
(40.546 -5.92911 0.929716)
(43.7537 -2.63312 1.55732)
(155.048 -204.48 16.9378)
(-91.0884 -24.8497 -50.2894)
(78.4977 -24.1684 -18.3987)
(-29.3857 -23.1532 -1.10907)
(45.5591 -32.6161 2.09923)
(22.0688 -8.02367 0.913851)
(45.3325 -1.56087 3.86524)
(34.9337 -12.2333 4.37017)
(40.0797 -18.7647 5.78123)
(46.0309 -19.0263 4.55236)
(50.3119 -15.8325 2.85487)
(49.1054 -12.5734 1.45129)
(47.6154 -9.0101 1.61917)
(46.4028 -6.13656 1.03592)
(44.7112 -5.63961 -1.19754)
(43.5955 -10.8172 -0.897874)
(45.6205 -10.469 -0.387933)
(44.4821 -9.03109 0.105502)
(44.0826 -6.53959 1.02192)
(45.5865 -1.99039 1.35902)
(-31.252 21.8528 -50.4998)
(-126.032 -46.1823 -9.20745)
(50.1137 -73.6622 -23.9889)
(-46.4554 -41.4967 2.56253)
(31.7477 -35.9734 -2.88509)
(-3.95643 -17.8854 -5.33037)
(25.3531 -8.67312 -2.4827)
(37.1935 -15.7672 1.07872)
(42.1124 -24.0892 2.56377)
(43.8685 -23.8846 1.33774)
(45.9995 -19.8366 0.582432)
(49.1806 -15.6616 1.14265)
(52.0526 -11.0161 0.960365)
(53.0959 -7.00824 0.316712)
(53.2967 -7.66366 -0.848903)
(48.5049 -11.628 0.0700836)
(48.617 -11.0444 0.132414)
(45.8229 -8.9485 -0.129581)
(44.4845 -4.54225 0.565933)
(44.1009 0.223107 0.788598)
(80.4964 -152.961 29.0671)
(-81.9978 -49.7185 19.6521)
(111.219 -63.5087 44.6828)
(3.13699 -37.8005 11.4122)
(59.8533 -35.8385 9.12094)
(33.407 -28.7542 2.22107)
(36.0452 -27.3342 1.9477)
(39.7083 -26.0179 1.9456)
(45.3292 -26.3798 1.52887)
(46.1414 -27.9388 -2.59699)
(50.2542 -26.8275 -2.1515)
(53.4269 -19.3828 2.29029)
(54.328 -10.9271 1.06824)
(54.8979 -7.53627 0.517316)
(52.5371 -9.04084 1.11341)
(44.7504 -10.3001 1.16875)
(44.5027 -8.51808 0.932199)
(41.4924 -6.88957 -0.0242204)
(39.8904 -2.00086 -0.309231)
(40.4446 1.67048 0.399628)
(88.0247 -237.027 -145.792)
(-62.7847 -49.9464 14.581)
(97.2739 -56.0667 4.81428)
(-21.3856 -16.7064 4.58312)
(43.6242 -24.5734 8.90965)
(22.6916 -19.062 2.40706)
(47.4609 -30.5742 1.37992)
(56.638 -33.5223 -0.997109)
(55.104 -28.6707 1.07732)
(52.5549 -26.466 2.5111)
(48.117 -22.7694 3.76772)
(45.4367 -17.3691 3.14439)
(45.7432 -11.4182 0.500815)
(46.4464 -8.7274 0.433351)
(45.309 -8.04785 0.599054)
(37.8236 -7.52689 0.659362)
(38.2979 -6.05132 0.217791)
(36.5251 -4.77891 -0.101641)
(35.4384 -1.40479 -0.146546)
(38.4959 1.59109 0.891284)
(181.547 -137.239 36.0186)
(112.04 -31.7082 7.31499)
(150.394 -55.0059 9.33124)
(77.4641 -25.7744 3.0778)
(99.3564 -33.8915 9.28614)
(67.9869 -37.422 1.56572)
(75.0093 -34.3008 1.88291)
(54.1743 -28.6073 -0.00422459)
(52.9636 -25.4777 -0.850308)
(44.8774 -19.9877 1.74767)
(42.4973 -16.2366 3.36046)
(38.5406 -12.2052 3.44332)
(39.7034 -10.3545 1.17792)
(38.2517 -9.62563 0.259151)
(34.8118 -8.75844 0.400939)
(35.898 -7.95272 0.231408)
(35.2524 -6.33997 0.0488942)
(35.0737 -5.30468 0.179566)
(34.3535 -2.42068 0.280528)
(38.6444 0.573288 1.42647)
(166.492 55.7961 47.4453)
(163.079 28.9753 -19.9106)
(199.869 33.1994 -10.0587)
(125.046 20.1905 -6.32326)
(119.162 7.67642 -0.921474)
(74.0212 -9.76849 -5.04032)
(67.7526 -9.86182 -0.703884)