/*--------------------------------*- C++ -*----------------------------------*\
  =========                 |
  \\      /  F ield         | OpenFOAM: The Open Source CFD Toolbox
   \\    /   O peration     | Website:  https://openfoam.org
    \\  /    A nd           | Version:  10
     \\/     M anipulation  |
\*---------------------------------------------------------------------------*/
FoamFile
{
    format      ascii;
    class       volScalarField;
    location    "7";
    object      nut;
}
// * * * * * * * * * * * * * * * * * * * * * * * * * * * * * * * * * * * * * //

dimensions      [0 2 -1 0 0 0 0];

internalField   nonuniform List<scalar> 
12920
(
2.87643
8.49593
5.78185
6.46
6.41698
6.40777
6.02477
5.00538
3.42225
2.49871
1.87708
1.61114
1.31496
1.07377
0.816584
0.678747
0.621384
0.590219
0.580448
0.5179
6.33607
11.9077
9.69513
7.09294
6.45143
6.41979
6.32607
6.01558
4.48134
3.42519
2.59982
2.19138
1.92998
1.80957
1.6945
1.67571
1.74896
1.85877
1.93273
1.79943
5.8085
9.20152
7.63056
7.11693
5.99013
5.74044
5.13252
4.63459
4.21657
3.91824
3.42801
3.28184
2.88519
2.5185
2.15889
2.06373
2.1032
2.09652
2.04779
1.73471
11.6997
12.7699
11.7917
10.4028
8.38411
6.585
5.38047
4.86311
4.49176
4.17233
3.85763
3.57173
3.28859
2.97771
2.68601
2.43078
2.24311
2.0753
1.98118
1.82113
13.0906
19.5699
15.3233
12.5507
9.79973
7.88023
5.73795
5.3366
4.81819
4.42051
4.01209
3.6169
3.25099
2.92337
2.66178
2.45445
2.2907
2.12553
1.98519
1.67908
2.60618
11.705
10.95
10.687
9.23787
8.04581
6.72157
5.85517
4.84247
4.60375
4.07345
3.65946
3.33702
3.07005
2.87935
2.77831
2.63145
2.34227
1.97585
1.48788
7.85137
8.95952
8.23619
9.92378
9.85376
9.81215
8.12582
5.77738
4.01062
3.59724
3.67567
3.864
3.45639
3.16905
2.94305
2.61176
2.3833
2.11295
1.89865
1.45938
3.55241
9.11109
8.02048
9.30282
8.50178
7.28801
2.61373
2.07527
1.91025
1.87093
1.55671
1.33861
1.13986
1.0306
3.01636
2.84586
2.71384
2.41128
2.14317
1.58551
3.66511
7.59708
7.21765
7.53036
6.47869
2.27812
0.917063
0.82316
0.784605
0.673691
0.532422
0.409936
0.330661
0.320762
1.14838
3.20544
3.05353
2.82682
2.36732
1.68299
3.25315
3.65456
8.10325
5.53688
6.41405
2.08373
0.732958
0.844493
0.814604
0.73629
0.543754
0.39126
0.328998
0.333993
1.22947
3.33811
2.79178
2.51607
2.25505
1.68861
5.35267
9.83395
9.34648
8.45942
7.43005
2.4781
0.811827
0.628781
0.574439
0.491339
0.355386
0.283385
0.265477
0.253707
0.794933
2.24845
1.91372
1.8557
1.83347
1.58484
9.64812
15.6524
12.8343
9.4807
6.93115
2.7502
0.812919
0.516307
0.40239
0.395793
0.37224
0.305862
0.24506
0.167592
0.545141
2.16183
1.91398
1.90439
1.84099
1.55922
2.64363
9.6754
9.78554
9.06874
7.70091
6.95848
2.07682
1.66785
1.48496
1.65084
1.5281
1.34708
1.20109
1.16615
2.80573
2.61965
2.50799
2.21999
2.00861
1.5947
0.12833
4.62782
8.43825
9.4536
8.61256
7.03266
5.81016
4.84575
4.2488
3.69528
3.24903
2.87613
2.62747
2.4648
2.37368
2.31151
2.27098
2.19084
2.04586
1.63432
0.0911035
5.46672
8.51921
9.47282
7.58493
5.80843
4.88164
4.25613
3.81998
3.4267
3.07785
2.78683
2.54469
2.35891
2.2202
2.12356
2.0605
2.00523
1.986
1.81883
6.81628
14.8977
12.4288
9.12272
6.69805
5.06815
4.26305
3.7439
3.39949
3.1209
2.86961
2.67878
2.49361
2.35775
2.23224
2.1447
2.0746
2.02192
1.99359
1.97616
4.34924
11.2923
9.03043
9.64161
7.36514
5.80107
4.58682
3.83182
3.32594
2.97191
2.70378
2.53394
2.40158
2.32139
2.24841
2.20185
2.16281
2.13698
2.11807
2.10838
6.29992
13.0675
7.37381
7.88277
6.60095
5.61482
4.73315
4.12502
3.55852
3.16028
2.8298
2.62826
2.47931
2.39818
2.34678
2.32592
2.32065
2.32371
2.33101
2.34825
5.42534
11.7962
5.61416
6.03737
5.77072
5.51436
4.79011
4.30813
3.81553
3.43244
2.78401
2.71832
2.43073
2.46767
2.37425
2.34469
2.30247
2.20832
2.19547
1.87047
3.7156
7.83893
1.98273
4.29902
2.94208
4.05606
2.61339
2.46265
1.83812
1.6738
1.37476
1.21106
1.01113
0.885638
0.777158
0.71349
0.659575
0.602389
0.541739
0.444095
1.27721
12.9138
23.3929
23.5663
23.6294
23.3104
21.5453
19.1375
13.5793
8.57146
5.57929
4.02492
3.14583
3.19135
3.44054
3.6766
3.78467
3.77237
3.77226
3.44921
22.6175
36.6288
22.3627
18.8573
20.8481
25.7064
27.8015
27.6648
25.0612
21.1025
15.6328
11.3666
10.1921
10.9449
11.9322
12.9261
13.9435
14.3538
14.4597
14.4812
6.46513
28.1591
19.3677
14.6243
14.0984
18.5381
20.5177
21.1197
19.5645
18.6324
17.0309
15.9851
15.3162
14.8517
14.098
13.7394
14.0228
13.9157
13.7356
13.1996
29.5071
46.0618
33.9129
28.7521
17.8688
18.0111
18.014
21.0535
20.9418
20.7841
19.4997
18.3543
16.9053
15.3682
14.2389
13.6668
13.1812
12.3978
11.8172
11.3494
60.012
58.4019
49.6767
45.0505
32.2249
25.6498
20.0196
20.3159
20.5304
21.2109
20.6513
19.577
17.9374
16.336
15.0955
14.2043
13.2933
12.3611
11.396
10.728
42.6223
45.3626
41.3439
43.1829
37.2581
34.5994
28.1217
25.0772
21.1834
20.343
20.0713
19.54
18.5527
17.4207
16.468
15.73
15.0236
13.909
12.0352
9.69999
22.4913
32.9138
42.1875
43.0983
42.4596
40.9683
35.2859
25.3964
18.3923
15.6113
18.1572
18.6482
18.3532
17.3048
16.0382
15.1275
14.4416
13.5682
12.444
10.3461
8.72428
38.5396
41.9408
41.1554
39.2704
37.0943
27.8413
24.0828
20.97
19.2964
17.8739
16.3693
15.1497
14.3116
15.9376
15.0962
14.5639
13.814
12.5917
10.5928
10.0199
28.7018
40.3875
39.6843
34.444
26.9422
24.3962
22.3111
20.6777
19.609
17.2886
14.8964
13.7566
13.7508
15.3149
16.3972
15.2277
14.2117
12.3729
10.5163
14.9106
39.3902
37.9225
38.7464
35.1084
24.2983
22.4507
24.2793
21.8512
20.1264
17.6854
15.4613
14.572
14.9037
15.9624
14.5989
13.9572
13.5776
12.4472
10.8848
6.78615
35.2346
32.751
35.3842
33.7162
23.9121
19.0859
18.176
16.8496
15.4466
13.5634
11.9391
10.9567
10.7208
11.1522
10.9442
10.9629
11.6929
11.7205
11.3923
32.7179
55.8397
41.9143
32.9873
25.4744
21.6811
16.3819
17.9012
16.2449
15.8647
15.0512
13.7588
11.9142
10.4432
11.7892
11.6453
11.2307
11.6029
11.5923
11.3643
9.76904
41.8196
40.0298
38.6137
30.2389
29.7188
22.0287
21.6012
19.7342
19.1112
16.7932
15.0078
14.3328
14.0491
14.328
13.2625
12.5722
12.2223
12.085
11.7034
5.19547
34.44
40.432
46.9043
39.5343
33.5891
28.2453
23.4731
20.4048
18.1962
16.598
15.2474
14.2889
13.6283
12.9324
12.6596
12.3447
11.8967
11.7675
11.4062
0.722263
25.7933
43.6239
46.6432
37.0186
29.5652
24.2644
21.9196
19.7636
18.2956
16.5198
15.2386
13.9849
13.1474
12.4184
12.0188
11.663
11.3747
11.2254
11.1211
6.87745
39.2842
47.004
40.0162
31.9344
25.6168
21.6421
19.6999
18.2945
17.2965
15.9617
15.0723
14.0372
13.5047
12.8475
12.5707
12.212
11.9945
11.8814
11.9101
14.2304
41.2585
40.1476
34.9361
25.1985
21.3198
18.3961
18.921
18.1422
16.9816
15.6118
14.7811
14.0978
13.7864
13.4905
13.4057
13.3278
13.3008
13.3664
13.4005
20.4111
31.5626
25.109
29.7904
24.1793
25.1075
22.9386
21.5904
19.1664
17.441
15.9106
15.1147
14.4935
14.2551
14.1226
14.1191
14.1773
14.2402
14.3674
14.6537
28.4147
33.6043
17.3891
19.8056
20.8312
23.0843
21.543
20.0363
17.8515
16.6923
15.5126
15.0433
14.4985
14.2663
14.0572
13.9843
13.9618
14.0371
14.1781
14.3563
11.7261
27.7951
18.7552
17.863
16.1301
16.9238
14.6154
14.3878
11.5371
11.4448
9.81074
9.13622
7.73306
6.91148
6.00383
5.48181
5.05415
4.52271
3.98561
3.0656
1.18106
14.7129
23.7082
25.8497
25.8616
24.9408
22.0581
18.9755
16.4963
12.6675
8.90943
6.20928
5.21576
5.30795
5.49467
5.64022
5.47797
5.21389
5.07959
4.39597
15.8221
36.4007
35.6626
37.6215
40.1809
43.5774
42.7323
39.608
34.8354
30.2205
25.59
21.7058
20.9407
20.6984
20.9404
20.683
20.2655
19.8205
19.6747
19.2746
25.8088
45.1887
34.372
32.5699
34.7859
40.1467
39.011
38.0051
34.9431
32.3171
29.595
27.4063
25.7526
24.3269
22.8698
21.782
21.0368
20.1807
19.6012
18.7711
39.7869
54.6573
45.2834
40.1916
33.7716
38.0029
37.7992
38.7095
36.4627
34.2207
31.4617
28.9569
26.6575
24.5495
22.6513
20.974
19.4544
18.145
17.2806
16.5466
63.9339
64.6768
59.1291
56.8837
44.3127
41.6251
38.4224
38.8416
37.2721
35.5673
32.9861
30.2071
27.4278
24.9484
22.8216
21.063
19.448
18.0046
16.8543
15.9651
50.4407
61.3962
57.3767
58.6253
51.6719
49.5275
43.5359
41.1309
37.6283
35.689
33.4057
30.9953
28.6336
26.3553
24.3748
22.6874
21.0671
19.211
17.3956
15.9227
53.5231
52.5919
59.3233
59.5332
56.1661
54.4294
46.4189
39.9576
33.813
31.4427
32.4694
31.1575
29.0122
26.7746
24.6199
22.9571
21.4822
19.8709
18.4242
16.5964
24.9637
49.3221
57.5956
61.3703
56.7031
53.3899
46.1764
40.8353
36.782
34.114
31.522
28.7889
26.6323
24.7076
23.4554
22.2793
21.1341
19.6823
18.1707
16.7968
47.4598
56.9889
60.5632
61.7894
56.5137
50.8255
45.9027
40.8548
37.2462
33.8894
29.9407
26.7268
24.8307
23.6686
22.7418
21.4884
20.5728
19.064
17.3493
16.4653
14.6197
66.0159
61.8054
60.159
55.6271
46.6035
42.7371
40.048
35.7178
32.1595
28.3987
25.4166
23.6978
22.7785
21.0807
18.496
18.6943
18.3647
17.0993
16.4207
21.2135
58.29
56.632
57.8414
54.8348
46.4744
38.7906
33.9206
30.2185
28.3069
8.76868
8.06451
8.4498
10.7262
13.2648
14.3897
15.4645
16.5679
16.4685
16.3935
53.22
51.7245
56.8062
48.5601
45.3938
42.2865
37.9111
35.0709
30.7292
28.1848
25.9048
23.294
20.1017
17.6927
17.1201
15.9544
15.6933
16.118
16.2799
16.5449
26.0806
47.3135
62.7938
60.5161
52.8863
50.8584
43.1751
39.5581
34.7813
31.2517
27.0428
23.8696
21.801
20.2675
18.9443
18.0286
17.5538
17.3937
17.3366
17.2142
46.5903
43.0061
64.4975
70.0426
60.6275
52.7071
45.8566
39.7752
34.4096
29.9537
26.1802
23.553
21.523
20.3167
19.3721
18.8035
18.3118
17.9084
17.745
17.4782
15.4844
46.1458
61.8615
66.7956
57.1097
48.0328
41.609
37.3957
33.0995
29.5664
26.0831
23.7035
21.6618
20.3796
19.3505
18.7124
18.1488
17.8021
17.6418
17.4591
30.5329
58.8093
61.2441
56.7344
49.6434
42.4874
37.2788
33.5663
30.218
27.6824
24.9637
23.3162
21.6385
20.7284
19.7968
19.3503
18.8588
18.5703
18.4659
18.3704
29.8617
55.7399
53.9089
48.9508
41.6587
37.9387
34.0184
32.2138
28.8413
26.4821
24.1162
22.8504
21.7399
21.2108
20.7314
20.5742
20.371
20.3212
20.299
20.3015
18.7778
38.0224
46.4643
47.0712
41.8936
39.0228
34.8969
31.8846
28.3922
26.2862
23.9358
22.7385
21.7164
21.3161
21.0598
21.0223
21.0279
21.1311
21.3319
21.7414
76.5077
56.6208
36.4019
36.1638
35.1222
33.7037
29.425
27.6428
25.1102
24.149
22.3551
21.3974
20.1818
19.6044
19.1319
18.9738
18.9219
19.0372
19.2203
19.6976
5.07428
38.0105
20.3025
20.9226
19.5366
18.9349
17.6704
16.1007
14.5002
13.4747
11.9827
11.1531
9.62128
8.71474
7.73554
7.0928
6.43014
5.70559
5.168
4.14711
0.634864
15.0899
26.4623
26.9342
26.464
24.0157
20.6471
17.6303
15.5901
12.7582
10.5541
8.50407
7.0657
6.45546
6.28541
6.08767
5.65066
5.00291
4.57275
3.54397
10.5063
39.6861
47.8601
52.5315
53.5734
52.9045
48.3537
43.2327
38.7061
33.9475
30.2955
27.1381
24.3279
22.1301
21.5552
20.7814
20.0523
19.4197
19.1635
18.279
14.7416
60.8025
56.683
54.0805
54.0821
54.1435
49.4911
45.9401
41.859
38.0385
35.0276
31.8894
29.3918
26.4028
24.1842
22.3224
20.7368
19.5809
18.7768
18.0517
66.4991
62.6254
60.2879
55.3873
53.0618
53.3936
49.874
47.4763
43.2973
39.2089
35.6274
32.1949
29.3104
26.1732
22.9133
20.411
18.5542
17.2632
16.3881
15.7679
41.9781
73.1198
72.0173
66.5694
57.2094
55.7687
51.8635
49.2285
45.0893
40.5496
36.5766
32.6521
28.9669
25.6061
22.6773
20.4865
18.7148
17.3425
16.2911
15.4251
61.8423
72.8706
71.7466
70.5835
63.0089
60.7835
55.0513
51.0748
46.0848
41.4785
37.6099
33.8622
30.5742
27.409
24.7549
22.6938
20.9738
19.4308
18.0325
16.6365
82.3744
72.0541
73.4976
70.5785
66.1695
63.2837
56.7561
51.608
46.3451
41.7929
37.3007
34.5187
31.146
28.1907
25.656
23.7748
22.1271
20.5377
18.7074
17.7808
45.1254
57.3989
67.5935
72.3487
67.137
63.1186
57.3152
51.9126
46.6566
41.5378
36.5258
31.9518
28.6671
26.1633
22.8576
22.4278
21.4142
20.2291
18.6851
17.5779
57.5691
67.3733
72.4333
72.7656
65.7479
61.8821
56.6851
50.0888
44.3419
38.6996
33.4337
29.1242
26.0705
23.8872
21.3037
20.4667
20.2493
19.1973
17.9577
16.889
49.8324
76.1415
76.3952
70.5051
63.4876
56.7274
51.7369
45.0633
39.1233
35.0543
31.2261
27.4268
23.8471
21.8279
19.5895
18.831
19.137
18.5648
17.5812
16.7322
36.8057
73.019
73.9875
71.836
65.9886
57.0629
47.7846
39.0138
33.3288
31.6703
16.35
13.0134
12.7898
14.6079
15.6448
16.3568
17.3326
17.4903
17.2362
16.8606
27.3558
73.9523
64.2781
68.3426
65.5089
58.6693
50.8061
42.0297
35.189
30.6202
27.5726
24.1141
20.7668
18.9085
17.6026
16.6179
16.7897
17.0576
17.1828
17.1208
32.8711
68.2886
80.2979
74.8508
67.4979
61.7102
55.0013
48.2924
40.8754
34.0832
27.9823
23.8427
21.3144
19.5521
17.982
17.8552
17.6931
17.6794
17.6388
17.5154
25.0342
65.9122
83.6502
82.6291
71.5857
61.5472
53.8036
46.9258
39.609
33.579
28.1046
24.6825
21.7391
20.2523
19.2923
18.7256
18.2956
18.0205
17.8247
17.6043
10.3039
62.9148
77.3262
76.5499
66.6772
56.0773
48.7861
43.8643
37.8737
32.9407
27.9015
24.8176
22.0145
20.3913
19.2767
18.5482
18.0065
17.6713
17.4864
17.2901
45.9166
72.6232
73.4259
68.0344
58.7033
50.1485
43.4348
38.8726
33.5865
30.26
26.1091
24.0409
21.7853
20.6416
19.5457
19.0193
18.5282
18.2299
18.0743
17.9451
31.482
67.4846
65.6254
62.4111
53.7131
47.5088
40.6929
36.9778
30.8902
27.9745
24.5685
23.1062
21.6577
21.0316
20.4347
20.227
20.0041
19.8265
19.7753
19.7678
23.6768
60.3299
60.8027
56.1306
50.5479
43.706
38.3725
35.1113
30.2382
28.1552
24.3803
22.9434
21.5495
21.1414
20.817
20.7962
20.7683
20.9223
21.1225
21.4576
59.2327
51.7251
48.3019
43.6892
38.4112
35.5806
31.3247
30.6159
27.7414
26.4726
23.1895
21.6532
19.8776
19.2367
18.7151
18.5728
18.5282
18.5882
18.7747
19.3902
13.9115
21.3282
24.8234
23.1575
20.4276
19.1438
15.5122
13.6706
12.0403
10.9161
9.81249
8.7556
7.67137
6.77784
5.97157
5.32051
4.70862
4.16136
3.90427
3.5758
0.247654
7.45339
16.4002
22.4464
24.4276
20.5037
17.6563
15.2383
13.8641
12.3262
11.1579
10.2356
8.18897
5.27099
3.97332
3.36285
2.96669
2.58242
2.46088
1.96697
10.0082
22.2452
52.9184
42.7093
55.0588
51.3538
43.3491
37.0525
33.4465
29.7669
27.6262
25.1791
23.6155
22.1084
21.1551
20.023
19.4174
18.7372
18.3821
17.672
40.0615
62.2457
68.573
48.0386
59.0644
54.2307
46.2848
41.1821
37.3996
33.5725
30.9469
27.6178
25.5758
23.2842
21.8352
20.3024
19.3128
18.3869
17.811
17.2692
99.601
38.8717
70.5459
27.8744
58.3569
40.0682
47.7948
43.8118
38.6927
34.0043
30.643
26.575
23.929
21.1845
19.4435
17.8019
16.8461
16.0744
15.6632
15.3594
76.4075
45.2639
77.0393
34.309
60.5373
43.7411
51.084
45.7763
39.8939
33.8075
30.1643
26.0467
23.5287
20.8863
19.2041
17.5854
16.6266
15.8472
15.3702
15.1502
63.624
62.6509
79.2855
59.7868
64.8799
58.8577
54.1044
47.8612
41.3024
35.1542
31.4282
27.5731
25.1164
22.5675
20.7736
18.9527
17.7732
16.7941
16.1847
15.7975
21.7838
75.5313
81.3936
76.196
68.1262
64.9772
57.1551
49.6101
42.1825
35.7878
31.44
27.762
25.4858
23.3013
21.6581
19.9975
18.7996
17.7667
17.0717
16.6415
20.3218
71.6745
79.053
70.8757
68.3694
63.7691
58.4446
50.6198
42.2511
35.2413
29.8391
26.136
23.5711
21.6616
20.2499
19.3696
18.3215
17.4441
16.8734
16.5979
71.0616
68.4501
79.6334
76.5798
64.441
62.0002
55.5813
45.9589
37.2347
30.6911
25.9104
22.6941
20.6017
19.1266
18.2141
18.2552
17.5071
16.7528
16.3498
16.2113
101.191
69.2733
81.7296
27.2943
60.5859
55.1554
47.565
37.315
30.8367
26.1765
22.2799
19.2709
18.4741
17.971
17.4695
17.7737
17.2345
16.5963
16.261
16.082
53.3205
83.6403
84.3332
69.8433
64.7707
54.6155
42.222
31.5166
26.4845
23.824
20.9765
16.4765
15.2629
16.0064
16.0544
16.8191
16.7791
16.498
16.3525
16.2192
25.191
29.1185
83.3486
39.1991
67.2464
57.8942
46.6847
35.0661
27.9057
22.9671
19.7564
17.867
17.461
16.8567
16.0909
16.4574
16.5995
16.5659
16.5233
16.4354
47.2657
40.8633
74.9606
51.7284
69.1586
53.2408
52.6869
44.2053
34.0395
27.1244
22.2717
19.6209
17.9256
16.9074
17.0991
17.0815
17.0086
16.8851
16.7639
16.5804
32.1063
46.9565
74.5497
47.9949
71.8559
45.9233
50.1595
40.9816
34.7208
27.4051
23.7912
20.6038
19.3091
18.2637
17.751
17.3478
17.0729
16.8354
16.6527
16.5123
67.1421
86.4039
60.6674
68.9195
65.7234
40.107
44.1954
39.5162
33.4381
26.8763
23.7767
20.6427
19.3123
18.0352
17.4752
16.9731
16.7082
16.5401
16.4786
16.4974
27.7313
84.7776
79.836
66.5237
56.2238
33.7268
38.8233
34.9706
29.7719
25.7998
23.192
20.7836
19.5365
18.4329
17.8819
17.5303
17.3244
17.2137
17.1783
17.2787
71.5501
76.2017
72.8766
67.6377
53.0931
44.8287
36.5584
32.2201
27.5892
24.1462
22.276
20.7542
19.9237
19.2953
18.9938
18.8505
18.7601
18.7521
18.8018
18.943
43.7813
68.0962
62.7519
43.6859
47.7467
41.8207
35.0277
31.7099
27.1196
23.9155
22.0609
20.8385
20.1911
19.8923
19.7581
19.8002
19.8788
20.1404
20.4094
20.7313
53.9703
38.4553
53.0782
43.4214
36.5563
33.6999
30.3371
28.7607
26.1159
22.4877
20.5616
18.7408
18.0614
17.5603
17.4643
17.5183
17.627
18.0019
18.3665
19.0559
35.0303
13.4413
13.6943
24.623
10.4186
12.463
7.13958
8.22372
6.19787
6.28852
4.97888
4.53259
3.71248
3.28148
2.84461
2.61253
2.47504
2.43424
2.51294
2.35361
29.3306
27.7794
9.50781
35.5586
32.5885
31.0123
9.46115
26.0196
8.75619
9.44749
31.5845
28.8108
8.6406
9.75708
9.58832
27.4694
25.6653
31.6707
10.0892
31.2898
28.9962
8.31208
25.0034
22.7465
9.22505
8.71454
28.096
25.1738
0.795117
0.802922
0.845153
16.6701
17.0934
16.9414
19.1763
0.791788
0.854687
0.829456
16.4365
15.5579
19.1448
17.6269
0.737228
0.816981
0.764496
15.4195
15.1032
17.1803
16.3733
0.593886
0.733181
0.60399
14.7885
13.6033
16.0851
14.6672
0.460672
0.5584
0.441815
13.0078
11.4732
14.1159
12.4356
0.362232
0.408869
0.350882
10.9793
10.1651
12.0168
11.2415
0.33261
0.332389
0.343883
9.99937
10.0863
11.1072
11.3812
0.284043
0.350809
0.369841
10.1073
10.8575
11.5829
12.5355
0.818449
0.75319
0.665412
15.903
18.7831
13.6652
14.5737
0.829166
0.655117
0.649236
18.8994
17.5856
14.6045
14.3279
0.780072
0.647506
0.641218
17.1341
16.1974
14.103
13.3705
0.593113
0.60327
0.447556
15.8783
14.4808
12.9929
11.8532
0.423569
0.403461
0.317275
13.9269
12.3685
11.3821
10.3052
0.344444
0.301808
0.283973
11.9982
11.4138
10.1288
9.94195
0.326901
0.282168
0.2722
11.2542
11.404
9.90584
9.90813
0.345054
0.271122
0.239661
11.6259
12.7225
10.0081
10.6578
0.660372
0.782545
0.61211
12.9655
13.6519
10.7877
12.6
0.58523
0.554226
0.450723
13.4751
13.0175
12.6825
11.871
0.536358
0.423166
0.401274
12.7875
12.0165
11.648
11.3667
0.385828
0.39037
0.365962
11.7312
10.8793
11.3614
11.0646
0.295999
0.350811
0.31011
10.5618
9.7567
10.9222
10.3695
0.268244
0.293519
0.238639
9.56443
9.20824
10.0895
8.92875
0.257344
0.218245
0.174045
9.12232
8.99698
8.50998
7.57402
0.225727
0.166203
0.125093
9.02459
9.77408
7.40654
7.84885
0.562081
0.83357
0.591097
9.89784
12.5345
10.1433
12.6421
0.433254
0.569615
0.570895
12.9743
12.282
13.2383
13.1177
0.400145
0.525247
0.589928
12.031
11.9255
12.9216
13.459
0.389554
0.532099
0.554526
11.9897
11.6506
13.4419
12.6776
0.321938
0.477504
0.471608
11.4171
10.6537
12.1947
11.1217
0.264819
0.399063
0.390177
10.3931
9.32792
10.7414
10.1949
0.180773
0.345377
0.360004
8.92369
7.8835
10.1013
10.3158
0.114451
0.349413
0.284796
7.7136
8.06693
10.4069
11.0027
23.2065
23.8196
24.9832
41.4651
38.2858
40.1776
38.8338
20.8782
24.7475
22.6332
36.9242
34.3849
37.9585
34.6589
19.948
22.0616
20.8619
33.7159
31.6935
33.7514
31.3036
17.9381
20.4373
18.6334
30.9219
28.2249
30.5012
27.833
15.3975
17.9552
16.0126
27.3245
24.9411
26.9412
24.5973
13.8862
15.5377
14.6673
24.3172
22.9541
24.0186
22.789
13.702
14.5372
14.7824
22.673
22.0782
22.538
22.1158
13.8206
14.9504
15.3785
21.8622
21.3049
22.0036
21.4602
24.3562
19.6384
19.5399
38.6442
37.7238
34.9597
32.4216
22.4097
19.3784
18.6091
36.9806
33.8789
31.6331
29.4037
20.572
18.27
17.2132
33.0054
30.6247
28.7002
26.6591
18.3536
16.7726
15.1247
29.8365
27.2251
25.9122
15.5817
15.8821
14.459
12.9713
26.3435
24.1077
14.3062
12.9564
14.7298
12.697
12.2157
23.5566
22.3698
12.8635
12.9019
14.7255
12.1101
12.0829
22.1097
21.6861
13.0063
14.0057
15.4598
12.2117
12.4569
21.5773
21.2041
14.5318
15.3656
18.5286
17.0936
17.6457
34.6409
31.5654
33.6741
31.6065
17.2006
17.525
16.1305
30.6227
28.1536
30.683
27.6928
15.7689
15.7643
15.2034
27.4284
25.3934
26.929
25.2956
14.0976
15.1284
14.6791
25.2606
15.0211
24.9132
23.5441
12.2773
14.4915
13.7287
13.6792
11.749
23.0364
21.2022
11.1513
13.3472
11.852
11.2759
10.3554
20.4396
17.7799
10.6922
11.3182
10.0797
10.1601
10.6355
16.9296
14.9748
11.2169
9.83714
9.75506
11.1036
12.9537
14.5748
14.1396
17.6486
17.5225
18.6718
32.6672
32.0786
34.0293
34.5545
16.6248
19.1493
18.017
31.4019
28.4
33.7279
30.7036
15.8803
17.7859
17.7092
27.6348
26.0812
29.8099
28.3066
15.3287
17.7064
16.5166
25.6854
24.2964
27.6982
25.5896
14.1059
16.0372
14.5681
23.8164
22.1826
24.7226
22.6171
12.4096
14.1917
13.3665
21.5709
19.4026
22.0141
20.5659
10.6642
13.2647
13.1743
18.6846
16.8594
20.1897
19.2591
10.1932
13.2543
13.0489
16.4616
15.4358
19.0176
18.0507
42.2254
44.3017
42.2146
54.9591
50.3449
52.3405
48.0531
38.0281
41.1626
37.6216
48.8888
45.0572
46.5456
42.276
34.7537
36.6111
33.8111
43.8185
39.9892
40.969
37.404
30.8781
32.9137
30.0492
38.7948
35.0815
36.3676
33.2505
27.3715
29.114
26.6643
33.9457
30.8318
32.2411
29.4582
25.1611
26.0389
24.6189
29.9888
27.8281
28.6323
26.4052
23.9391
24.2859
23.5459
27.2421
25.6497
25.7855
24.2559
22.8144
23.3244
22.4522
25.2086
23.9583
23.8269
22.5603
41.0043
38.9776
35.8068
50.7095
46.5907
46.9723
41.684
36.6913
34.8398
32.2026
45.1066
40.9518
40.1892
36.3699
33.0282
31.3901
29.0077
39.6959
36.4748
35.2931
32.9998
31.5852
31.2495
31.1116
33.9708
30.0518
33.0129
32.9139
26.6022
27.5229
26.4665
30.0173
25.5311
29.0955
27.5933
24.0318
10.0843
11.5193
27.9908
25.7138
10.4629
12.6564
22.9911
11.9865
13.8368
25.0864
23.6049
13.3226
15.3955
22.1024
14.5747
15.71
23.1979
22.1226
16.0462
16.8191
35.0359
38.5432
35.4107
46.8972
40.9889
48.4643
42.2776
31.0535
34.2472
30.851
39.3808
35.374
40.5188
36.0216
27.913
29.9655
27.9555
34.2742
32.1646
34.71
31.8773
20.2908
14.1995
26.726
24.4326
22.4091
3.27195
28.5173
11.3803
8.32976
15.2438
2.4455
14.0623
2.42825
12.3881
8.30425
21.8518
18.8372
8.54633
9.89103
24.0506
20.6432
9.91997
17.9239
15.8936
10.4595
12.6285
19.7579
17.9729
13.1759
15.4956
15.0116
13.409
15.1439
17.654
17.0556
36.0619
39.8892
38.8632
49.0101
43.5383
51.6618
47.6381
31.6229
37.874
34.1443
41.7898
37.1427
45.8576
40.9634
28.7197
33.2317
31.024
35.7774
32.3671
39.4416
35.2507
26.4778
30.3075
27.7395
31.588
29.3251
33.9975
30.4073
24.0021
26.8315
24.4242
28.5567
26.1226
29.2305
26.1406
20.8841
23.77
22.0693
25.2389
22.4885
25.3293
23.2753
18.143
21.6311
20.4259
21.6915
19.8638
22.7479
21.2397
16.4356
19.6617
18.9291
19.436
18.1623
20.8684
19.6418
51.622
53.4328
48.3203
56.9481
50.1128
51.5151
43.89
45.7559
46.6449
41.9934
48.168
41.8258
41.7134
35.8911
39.991
40.5608
36.8208
39.9011
34.2605
34.2205
30.2586
34.7141
35.7881
32.6674
32.8315
28.5282
29.1885
25.7992
30.0674
31.6327
28.6917
27.4218
24.4428
24.7272
22.0488
26.7349
27.7432
25.1108
23.7648
21.8234
21.3705
19.8918
24.3466
24.4057
22.7836
21.3624
19.954
19.5712
18.7125
22.6797
22.364
21.2366
19.6607
18.5163
18.4325
17.4459
46.7374
47.9146
41.6374
49.5615
41.8664
44.9716
35.9272
40.4993
39.9042
35.5765
39.7083
34.1515
33.8729
29.5345
35.9208
34.4496
32.8197
32.6533
29.568
28.4983
27.2566
32.2278
31.9025
17.6104
28.7476
25.8871
27.0909
24.6138
28.3595
16.1511
14.693
24.8592
21.7906
23.4022
19.8771
24.6008
14.455
14.6484
20.8707
19.2744
18.5193
15.8236
22.228
14.9228
16.1122
18.9954
18.3715
15.6741
15.9535
20.8602
16.4952
16.8707
18.1321
17.2525
16.0248
15.6307
40.8539
49.7718
42.4718
44.5283
35.0406
47.136
37.4552
34.4915
40.4978
35.4423
33.022
28.7298
35.1382
29.6498
31.9817
33.9155
31.1227
27.6761
26.4369
28.1984
24.8653
17.9607
30.6429
28.586
26.4092
24.0956
24.1468
21.9378
13.7203
27.7211
24.8947
22.9076
19.3582
21.199
19.1418
12.5774
23.7586
20.2948
17.9254
15.1787
18.5023
17.1711
14.1022
19.477
17.9319
15.0141
15.3305
16.9578
16.5785
15.6511
17.6567
17.1073
15.4332
15.1889
16.4028
15.588
44.0092
54.0943
48.8332
49.022
39.5175
54.1108
46.4828
36.8031
46.9925
41.5577
37.0482
30.8543
44.2889
36.9496
31.3474
39.7837
34.6828
29.2039
25.2997
34.3562
28.5189
28.3719
33.305
29.4154
24.3068
21.7725
27.1879
23.5452
25.0832
28.1305
24.8083
21.0596
19.2667
22.5117
20.0515
21.4777
23.9959
22.0655
18.7918
17.7603
19.5459
18.2461
19.2517
21.5675
20.1803
17.5512
16.9851
17.903
16.8771
17.9136
19.8449
18.8295
16.7644
15.7897
16.6572
15.707
48.1681
49.5443
41.4471
24.3608
17.3199
18.4557
18.0073
39.1825
39.2396
33.6542
16.5107
14.4972
17.1772
15.9691
31.9719
32.1357
28.1134
14.6198
13.2388
15.8495
13.3283
26.8809
26.9282
23.6839
13.3514
13.5707
12.9396
12.2703
23.2719
22.7653
20.5311
13.8487
13.7883
12.2727
12.4792
20.9844
20.0145
19.1825
14.0271
14.1938
13.0575
16.6402
19.3798
19.0432
18.4332
14.4566
14.3232
16.5859
16.0997
18.1115
18.1786
17.2939
14.5225
13.2162
16.0289
14.3864
39.438
42.7464
34.0539
15.9034
17.0048
12.6422
15.5176
32.2145
32.238
28.2884
16.6768
16.2049
15.7058
15.7634
27.1849
27.1889
24.8248
15.546
13.1027
14.6317
12.5246
23.219
24.4571
22.4588
12.6786
11.8699
12.0823
11.7298
19.8695
21.4726
18.2418
11.8049
11.8383
11.5505
10.7268
18.4895
16.9285
15.5477
12.338
16.1953
10.9249
14.8569
18.1868
15.7252
16.3928
17.2698
16.4925
17.0126
16.9561
17.1581
16.4273
15.9393
16.3619
14.6155
16.5915
14.9334
33.3223
44.8484
35.572
14.3639
15.7404
16.0989
17.3808
27.5857
33.4337
28.4071
15.8786
15.9055
17.0653
17.3808
24.1113
27.0229
23.4499
14.7117
12.5547
16.3617
13.6386
21.923
22.5077
20.159
12.16
11.8084
13.0496
12.8159
17.8219
19.5033
17.8023
11.5997
10.7551
12.763
12.93
15.0931
17.3533
16.8404
10.9395
14.923
13.4027
17.7454
15.956
16.916
16.8476
17.0765
16.9638
18.8939
17.4519
15.5778
16.6523
15.7558
16.5904
14.4949
16.991
15.1463
37.4264
52.1136
44.2881
19.0508
18.3946
22.9982
18.9886
29.4314
42.0042
34.5259
17.6048
17.5331
16.6339
17.1947
24.0287
32.2763
27.1078
17.4267
14.3936
16.1741
16.1259
20.4119
25.8283
22.4284
13.7297
13.6073
14.6513
16.1458
18.2131
21.5007
19.4646
13.5825
13.9217
15.3487
16.0247
17.4802
19.0127
17.8968
14.4394
18.8535
14.8731
15.7695
17.0962
17.5857
16.7097
18.3657
17.1937
14.9633
15.0794
15.8464
16.4792
15.6026
16.7638
14.0742
14.3067
13.7745
30.077
30.3057
27.5364
30.9884
28.7605
32.0145
28.723
25.427
29.5177
15.6283
25.3611
26.8013
31.0418
4.69577
21.2852
21.6196
11.2844
2.72157
23.6071
19.4414
2.9396
32.76
35.1559
34.6127
34.6331
34.1853
34.1381
33.4909
31.2037
32.1236
33.621
30.6797
33.1692
29.7826
32.0743
26.1588
25.7265
33.273
16.0576
32.3075
4.73309
29.7179
21.8735
2.80394
23.4938
11.3143
19.9197
3.02423
25.8494
25.7353
26.7266
24.1279
27.4846
24.7349
28.2468
25.1312
17.8046
20.3577
8.2075
2.60303
19.5147
18.4487
2.53894
17.374
18.8869
8.35869
5.69009
18.9149
18.089
3.66494
27.5666
31.125
30.613
29.4756
30.1705
28.6054
28.3965
26.6274
28.4563
29.6879
26.6051
29.2763
25.9532
27.4247
18.1835
2.68093
22.1162
8.11528
18.9212
2.61955
21.0449
17.6736
5.58163
20.4064
8.65884
18.4661
3.6999
20.4311
15.9733
10.9682
16.785
2.59067
19.0134
2.83285
13.7291
27.5919
27.0622
26.923
29.5054
25.9867
29.1216
28.8559
25.8319
23.3925
26.3258
27.3322
24.6964
24.2217
28.1285
21.381
24.7605
15.5882
31.0164
3.61803
29.9823
25.9573
16.8271
2.73409
11.5792
19.3128
2.9842
14.5835
21.8628
28.9661
30.8603
31.1969
30.6394
30.5695
30.1673
29.9828
27.0989
28.4984
26.8223
29.8703
25.3945
29.3742
28.4166
10.6558
7.7194
12.2797
3.97948
13.0405
2.47068
10.1207
21.6299
22.2417
24.3022
26.5359
21.1473
22.8737
25.7045
20.6476
19.1149
23.5804
23.9089
20.1934
19.4081
24.8702
12.1051
2.58372
8.771
17.535
2.56354
13.2167
16.0412
11.2727
4.16443
8.10343
13.7875
2.73727
10.6611
14.773
22.6153
27.6133
25.3908
27.1791
23.9552
26.7099
24.0117
21.5333
24.7487
21.3891
26.2367
20.1798
25.7958
22.7743
2.16028
2.68445
2.38089
9.81414
11.5914
9.49032
10.8375
1.97561
2.19417
2.09203
12.196
12.1354
11.1026
11.2805
2.06283
2.05597
2.01272
11.4294
10.9523
11.5504
11.4339
1.87522
1.94963
1.85334
10.034
9.25763
11.2208
10.4654
1.60729
1.68876
1.5239
8.61892
8.07885
9.79295
9.05904
1.32728
1.33097
1.24283
7.51123
7.09609
8.35093
7.84604
1.14734
1.13223
1.10743
6.72039
6.68043
7.57222
7.65745
0.92032
1.05627
0.837567
6.11412
7.13568
7.34329
9.68109
2.15715
2.16832
2.10728
9.49983
12.3338
9.26364
11.8857
4.13396
0.816511
0.847678
3.32979
4.1358
3.21207
0.806704
5.39881
0.813596
0.794185
4.58715
4.66638
5.32239
0.794139
5.30482
0.744761
0.779564
4.20532
4.30085
5.29536
0.75323
5.09965
0.626182
0.699235
3.93832
3.91104
5.16336
0.633844
4.35284
0.491077
0.543704
3.38314
3.28681
4.59231
0.488656
3.4324
0.376914
0.406526
2.71448
2.64049
3.6239
0.368111
3.10717
0.31519
0.328664
2.33038
2.37007
3.11562
0.312098
3.35385
0.319773
0.333122
2.36835
2.46948
3.25582
0.326202
1.02162
1.28176
1.10718
7.86112
9.70854
9.44258
11.9846
1.95553
2.21618
2.00732
8.84244
10.7894
8.90936
10.4223
3.94836
0.723817
0.729836
3.16792
4.28699
3.05806
0.69775
5.93556
0.846425
0.776732
6.41701
6.41726
5.79698
0.796148
5.66098
0.800885
0.789646
5.99648
5.86465
5.76405
0.778149
5.26094
0.691848
0.718339
5.58346
5.459
5.37477
0.662229
4.52848
0.502255
0.50841
4.94885
4.73551
4.71571
0.467717
3.89676
0.370919
0.366693
4.08831
3.99121
3.98816
0.345916
3.701
0.318062
0.315869
3.77799
3.64612
3.79716
0.306562
3.93665
0.350196
0.312145
3.85388
3.97306
3.82109
0.320784
1.14902
1.02165
0.886081
9.6326
12.1385
8.81976
10.9882
2.15289
2.52919
2.10803
8.35826
9.63405
8.06936
8.36813
3.03907
0.742062
0.798638
2.86389
3.4031
2.63005
0.719579
3.65251
0.609635
0.58629
4.04717
4.14436
3.53818
0.565422
3.60442
0.567631
0.530753
4.16468
4.09157
3.689
0.514281
3.31576
0.453929
0.42722
3.7375
3.63475
3.36794
0.404664
3.16218
0.332285
0.342488
3.28713
3.19102
3.1863
0.329085
2.97148
0.273884
0.290262
3.03113
3.05791
3.02587
0.278182
2.97838
0.263049
0.252511
3.25515
3.29763
2.96032
0.247249
3.15556
0.252866
0.235561
3.40858
3.45329
3.08074
0.233631
0.724751
0.598964
0.529024
7.50465
9.36477
6.52036
8.12912
1.8914
2.82203
1.92111
7.74444
7.95248
7.85851
8.12833
2.68645
0.644226
0.849155
2.45183
2.73791
2.4406
0.718214
3.86628
0.487306
0.487239
3.74341
3.84928
3.74798
0.478985
3.8207
0.395794
0.424631
3.60473
3.55595
3.82234
0.433286
4.06037
0.396324
0.433819
3.67666
3.6959
4.06672
0.44392
3.66137
0.355589
0.410164
3.5025
3.37227
3.80732
0.398111
3.28149
0.291403
0.340689
3.12553
3.0463
3.36133
0.329613
2.86874
0.220526
0.279259
2.61236
2.3964
3.00011
0.261197
2.72312
0.156943
0.213955
2.04573
2.06245
2.66775
0.207253
0.463601
0.907283
0.619255
6.786
7.91856
7.98291
9.58313
1.92678