/*--------------------------------*- C++ -*----------------------------------*\
  =========                 |
  \\      /  F ield         | OpenFOAM: The Open Source CFD Toolbox
   \\    /   O peration     | Website:  https://openfoam.org
    \\  /    A nd           | Version:  10
     \\/     M anipulation  |
\*---------------------------------------------------------------------------*/
FoamFile
{
    format      ascii;
    class       volScalarField;
    location    "7";
    object      omega_0;
}
// * * * * * * * * * * * * * * * * * * * * * * * * * * * * * * * * * * * * * //

dimensions      [0 0 -1 0 0 0 0];

internalField   nonuniform List<scalar> 
12920
(
193.171
170.698
135.058
128.875
128.222
127.941
123.031
113.767
105.895
98.151
92.0582
86.6209
75.3385
59.2536
46.4848
40.2726
37.9238
36.9282
36.5655
36.5237
215.709
239.488
196.075
141.933
129.316
128.697
126.671
119.998
110.345
99.7764
90.5606
80.9937
71.2448
62.426
55.9705
51.826
50.5351
50.6617
51.1116
52.0178
160.402
183.668
169.904
141.342
124.608
114.488
102.11
92.0591
83.7189
77.791
73.3791
70.5571
67.9802
63.7502
58.4785
53.2299
49.9039
47.3404
45.8451
43.7503
289.961
254.158
234.884
206.29
165.772
130.052
106.748
96.6975
89.3014
82.9024
76.6331
70.9412
65.2707
59.0463
53.2411
48.1793
44.4682
41.1481
39.2968
37.4792
274.676
382.819
304.68
249.233
195.861
155.611
124.112
105.936
95.7659
87.8283
79.6628
71.7839
64.496
57.9821
52.7922
48.6866
45.4374
42.1538
39.6819
36.9311
181.33
236.463
228.664
213.418
183.644
158.807
132.677
115.973
103.789
91.2236
80.8154
72.6401
66.2388
60.9431
57.1779
55.1981
54.12
52.0469
48.4304
41.5399
162.822
178.978
191.973
199.377
197.775
196.314
184.583
157.094
131.037
107.928
89.3359
76.5543
68.5596
62.8869
58.5564
55.7233
54.1388
52.2703
50.6022
45.3454
200.208
180.456
192.7
187.186
170.868
145.007
221.212
183.215
181.808
167.439
143.424
122.909
110.258
102.475
59.9401
56.5497
54.9552
53.0331
50.8342
44.6674
213.097
191.114
162.749
149.877
129.188
183.485
298.043
262.631
252.691
246.433
230.479
197.662
168.636
158.477
102.063
63.7898
60.7465
57.3205
53.0854
45.108
175.62
172.106
162.105
148.71
128.01
168.485
238.365
267.435
258.844
245.514
225.756
195.989
179.685
171.898
117.681
66.381
60.6169
56.9882
53.4521
45.8926
165.292
198.507
186.744
168.223
148.136
199.999
264.064
200.264
182.542
173.344
165.735
162.592
168.947
172.208
109.758
60.1498
53.5954
50.5121
49.3278
46.1323
275.058
315.186
258.05
186.682
150.309
220.23
272.498
200.608
178.8
169.295
169.399
162.232
150.838
132.469
90.1941
55.0912
50.9239
49.0243
48.1218
45.454
132.367
197.511
198.533
179.527
153.024
138.428
218.491
178.995
154.771
142.426
125.784
107.096
95.4972
92.7018
55.7489
52.0553
49.8372
47.6212
46.6727
44.1169
34.3424
136.972
184.869
189.05
172.202
139.882
115.389
96.2731
84.474
73.4814
64.5919
57.1617
52.1986
48.9524
47.147
45.9005
45.0807
43.4838
42.9467
41.7709
27.4621
156.779
199.908
188.742
151.009
115.696
97.1482
84.6939
75.9678
68.1269
61.1699
55.3696
50.5477
46.8479
44.0858
42.1586
40.9001
39.7982
39.4144
38.966
362.431
297.773
248.531
181.925
133.308
100.826
84.8674
74.4892
67.6111
62.0519
57.0356
53.229
49.5339
46.8245
44.3249
42.5787
41.1817
40.1317
39.5668
39.2176
214.453
226.287
218.04
191.899
148.97
114.922
91.0145
76.1218
66.086
59.0404
53.7033
50.3246
47.6903
46.0933
44.6374
43.7084
42.9274
42.4123
42.0312
41.8405
334.34
259.384
188.001
156.443
131.355
111.806
94.2064
82.0055
70.6981
62.7489
56.1778
52.1728
49.2153
47.6028
46.5805
46.1658
46.061
46.1207
46.2639
46.6149
227.489
237.139
152.627
119.236
116.044
110.056
95.3358
85.6334
75.7554
68.0926
60.8171
56.3281
53.1273
51.5123
50.4277
49.6796
49.1493
49.0262
49.0667
49.2246
184.582
152.41
104.409
97.6557
96.8665
95.1163
87.4844
80.1275
73.7488
68.3476
63.0788
57.8057
52.6248
48.1212
44.616
42.1438
40.3335
38.6195
36.3408
33.9811
37.442
75.0429
75.0502
75.4513
75.7172
74.5821
68.6878
60.8873
54.5727
48.8908
42.9213
36.6038
30.2099
24.7296
21.924
21.1172
21.039
21.0569
21.1318
21.3821
241.498
155.802
122.159
97.8696
86.5624
76.3157
67.8119
61.975
61.0906
62.8975
65.406
64.4108
54.9169
42.754
34.8609
29.6305
26.8251
25.9799
25.8594
26.085
148.625
156.742
135.212
114.118
95.9791
77.4464
63.7764
54.2806
49.1825
45.8707
44.2077
43.2902
41.4961
38.2736
34.2971
29.6399
25.8057
23.5742
22.2938
21.5273
216.343
187.3
163.301
146.943
121.84
91.9705
70.3858
56.3397
48.9856
43.6691
40.1824
37.2563
34.75
31.6293
28.0381
24.2516
21.5567
19.8539
19.0083
18.3141
538.326
327.157
187.087
139.497
119.37
103.434
84.4719
67.3682
56.2705
47.1523
40.3692
35.0185
31.4269
28.3816
25.8994
23.7144
22.2513
20.9053
20.1769
18.8301
199.481
227.34
179.397
126.721
103.264
87.8103
79.4953
72.8582
66.1309
53.5042
43.1081
36.3435
32.2979
29.6392
27.8883
27.0699
26.9231
26.873
26.9349
25.5303
413.005
167.864
128.566
120.94
109.116
105.988
108.096
112.853
109.106
82.6388
55.3842
41.389
34.8608
31.7388
29.9376
29.0096
28.7799
28.842
29.1362
28.2421
159.507
124.825
113.99
104.234
86.7755
74.7222
80.4943
78.0495
75.9506
62.6038
49.3612
40.7765
36.0754
32.9018
28.0035
27.4591
27.4351
27.4873
27.5206
26.3188
124.862
133.477
108.786
81.3236
63.3047
64.2337
65.4216
64.1717
59.3317
52.7476
47.4228
41.5097
35.8335
31.5618
27.7817
26.4802
27.2589
27.4203
27.3132
25.3381
269.546
107.206
95.7047
71.9098
59.3516
56.6508
53.3911
52.0036
50.3638
46.0294
43.423
39.9656
36.011
32.1423
29.5856
29.4756
28.8667
28.3593
27.7116
25.0811
118.806
135.611
131.929
116.495
86.5553
74.6702
58.7476
47.1614
41.7027
39.0928
38.5007
38.011
36.8307
35.4121
33.5868
32.5678
30.5559
28.2539
27.2492
25.0291
198.602
191.895
182.544
171.349
136.08
106.036
79.1155
54.255
46.9743
37.8422
34.5784
33.1637
32.5096
32.4129
31.1728
30.1212
28.391
26.1853
25.5087
24.3557
115.15
171.581
145.309
121.575
101.303
81.7503
80.1088
70.2526
59.3008
47.2223
39.9849
33.4559
28.8041
26.2979
24.303
24.3145
23.978
23.4056
23.3041
23.1262
191.28
159.173
120.929
99.1924
85.5791
69.9431
59.3292
51.2793
44.0193
37.1729
31.4179
27.375
24.7142
23.1229
22.6268
22.1028
21.9082
21.8295
21.9226
22.2721
82.056
141.745
120.908
90.9983
71.004
55.8143
48.9874
42.6055
37.6394
32.962
29.3668
26.4648
24.3039
22.6731
21.61
20.8207
20.4022
20.1779
20.2075
20.3584
151.294
184.994
140.467
97.383
67.0628
50.2519
42.7053
36.9522
32.8067
29.3965
26.8428
24.9771
23.4304
22.1928
21.2487
20.5093
20.0348
19.7087
19.5562
19.4804
139.89
128.717
129.958
121.56
94.6765
70.0584
51.4452
38.1467
31.1228
27.3337
24.9811
23.5113
22.3611
21.61
20.9946
20.5881
20.2735
20.0906
19.9662
19.9884
129.619
149.259
124.639
96.2035
77.5793
58.016
46.2336
38.7208
33.4828
29.9073
26.9536
25.0426
23.6227
22.8029
22.2568
21.9961
21.8501
21.8411
21.8743
22.0064
243.058
182.423
113.346
90.6388
75.0908
61.1147
52.3013
47.9259
42.7738
38.7982
34.2861
31.2707
28.9009
27.6639
26.7361
26.1452
25.6412
25.2179
24.8952
24.725
160.835
135.651
79.349
56.4944
54.809
54.1601
50.375
45.7876
41.9568
39.1388
36.3946
33.6985
30.8735
28.4078
26.4307
25.1782
24.2991
23.2992
21.6701
19.5568
37.4477
60.2393
76.2161
82.8153
82.8657
79.7255
70.1881
60.2205
52.2545
45.5072
39.4084
33.9619
29.8231
27.1697
25.8554
25.08
24.6694
24.1955
24.042
23.6917
192.55
116.777
100.82
87.2475
77.6217
69.2453
59.3918
54.6548
51.9742
51.2511
50.0134
46.4562
40.8171
35.8507
32.4742
30.3279
29.6178
29.3111
29.2591
29.2902
275.729
142.408
110.777
97.6817
79.6348
64.6341
52.5075
46.2445
42.3496
40.5556
39.2048
37.9121
35.9514
33.3865
30.6475
27.8515
25.829
24.4787
23.6004
23.0064
341.236
151.473
125.885
101.509
82.0432
64.3192
51.8719
45.0804
40.3747
37.4232
35.1025
33.0255
30.7582
28.0658
25.5485
23.206
21.6577
20.5457
19.9241
19.5108
354.638
221.527
156.049
110.922
86.207
71.8279
59.3708
50.4156
43.2157
37.914
33.7947
30.4901
28.0719
25.9208
24.3141
22.873
21.8367
20.8895
20.2397
19.4661
278.143
233.473
149.967
110.204
85.2312
70.7121
61.9769
54.5095
47.1459
39.9197
34.4676
30.8155
28.5352
26.9065
25.9333
25.2915
25.0254
24.6712
24.2532
22.5676
361.71
170.785
130.712
114.575
96.5336
88.2853
83.5225
78.5469
67.3814
50.9443
39.1095
32.7411
29.7196
28.0798
27.194
26.7307
26.5914
26.4661
26.2717
24.9441
230.278
142.976
116.158
95.7184
76.9222
68.3281
67.4732
62.7601
55.4004
45.1473
37.0393
31.9623
29.1217
27.3636
26.7012
26.31
26.1032
25.841
25.4186
23.8153
176.416
145.163
107.553
71.5505
53.2909
51.8842
53.6796
51.4739
45.6559
40.4185
35.961
31.9882
28.8988
26.7954
25.876
26.8647
26.5371
25.9503
25.1309
23.1016
183.855
107.629
86.0272
61.5783
50.1401
43.7253
43.0993
43.3236
40.622
37.5726
35.6083
33.3332
30.9221
29.0505
28.8211
30.0222
28.5195
26.7523
25.4581
23.3769
217.255
127.512
114.682
94.993
67.7477
52.1698
42.396
38.1095
34.9599
32.6825
71.4423
62.8301
52.3432
43.1883
37.2992
33.5441
30.2159
27.27
25.9039
24.1549
619.566
168.892
156.348
146.438
97.9763
71.9969
53.1449
43.7176
37.7074
32.3082
29.8796
29.036
29.4178
30.7242
31.0774
29.6279
27.8525
26.004
25.1895
23.9006
207.106
146.212
117.252
96.4721
78.6431
65.116
59.1918
52.6458
43.9725
36.3985
31.4735
27.9844
26.1653
25.1315
24.7383
24.3764
23.8436
23.369
23.2333
22.8913
738.617
225.254
109.636
85.4508
70.7994
57.0625
48.5922
40.924
35.1509
29.817
26.2888
23.7127
22.4616
21.6902
21.4977
21.3275
21.3444
21.3794
21.5324
21.6889
202.745
142.024
113.198
79.6054
59.9915
45.9274
40.118
34.9163
31.1639
27.4712
24.9856
22.8859
21.5716
20.5944
20.0613
19.7404
19.678
19.7183
19.8443
20.1
131.002
142.917
127.6
86.9212
56.7265
41.2471
35.2921
30.6874
27.9687
25.2679
23.6385
22.1636
21.1796
20.3991
19.9008
19.597
19.4567
19.4711
19.5324
19.7531
157.875
130.881
127.766
106.056
70.0028
49.1847
37.7857
30.7019
27.053
24.3725
22.9011
21.7934
21.0675
20.6058
20.3009
20.1634
20.1548
20.2174
20.3316
20.6138
170.461
131.547
97.445
68.6788
57.2499
45.5079
39.0568
34.194
30.3682
27.3364
25.2977
24.0001
23.1566
22.7398
22.5125
22.4837
22.5157
22.6606
22.8055
23.0688
473.891
214.17
103.835
75.1796
61.1398
54.0795
48.2917
45.2726
40.7555
37.0579
33.2769
30.9921
29.3581
28.6444
28.0947
27.7605
27.3964
27.1064
26.8814
26.8141
95.5315
118.747
82.5188
66.5139
62.4303
60.4627
56.3104
51.2252
46.5715
42.8433
39.5509
36.6228
33.9681
31.7281
29.9433
28.5686
27.324
25.943
24.4467
22.518
40.087
73.9278
85.0051
86.3693
84.7823
76.6203
65.6593
55.9579
49.4226
43.3909
38.3476
33.82
31.3239
29.6995
28.7116
27.7441
27.2638
26.4889
26.0876
25.0524
133.015
114.871
103.527
87.6664
81.5036
71.3056
62.7704
58.0266
54.5448
52.5095
50.4149
47.8319
46.7009
46.0871
46.1433
45.9824
45.954
45.5743
45.3339
44.6416
170.939
127.567
108.889
87.9765
76.2612
62.5967
54.6224
49.8202
47.2869
46.0844
44.9841
43.7934
42.5039
41.0086
40.1752
39.0634
38.3692
37.2965
36.7282
35.913
253.877
131.718
98.6066
75.066
70.1284
56.482
51.3797
46.6012
43.9471
41.9506
40.452
38.6334
36.898
35.1373
34.5142
33.4783
32.8773
32.0416
31.7632
31.5276
265.246
168.181
116.716
81.1159
72.0262
60.4119
54.9929
49.0985
44.9409
41.3313
38.762
36.3293
35.0854
33.8871
33.4769
32.5632
32.045
31.3783
31.0895
31.0634
167.634
167.524
126.182
89.0305
75.212
62.5106
57.1999
50.5481
45.5475
41.1272
38.3015
36.1852
35.2627
34.567
34.4181
33.7504
33.2513
32.3949
31.871
31.7187
235.793
156.702
129.045
100.767
88.2079
77.1026
69.7289
61.0882
53.4708
45.7367
40.593
37.3244
36.2873
35.6277
35.407
34.9093
34.5736
33.9021
33.3668
33.1613
358.694
189.806
128.059
93.0031
76.4102
67.2143
63.7142
55.2114
48.3291
42.0294
38.0417
35.8312
34.6852
33.8264
37.4313
35.6153
34.5515
33.524
32.9515
32.9498
242.938
154.984
108.181
69.7334
56.7742
54.7902
54.7237
50.1025
44.5516
40.8358
37.8949
36.1247
35.0586
34.3183
36.0821
37.6486
35.198
33.6358
33.0068
33.0511
361.076
150.466
85.6655
61.8298
53.1826
45.4088
45.2245
45.892
43.3334
40.297
38.3374
37.3232
37.8933
37.7357
39.0169
39.8305
36.7018
34.491
33.732
33.5577
206.907
120.071
111.278
87.087
65.8001
50.727
43.121
42.0218
40.5474
37.2618
59.2109
58.8924
51.7077
45.4941
42.8149
40.7751
37.4964
35.4099
34.65
34.2221
363.039
135.355
127.309
100.63
76.1348
60.981
50.6043
46.2888
41.477
38.1019
36.1655
36.554
38.4377
39.2495
39.1002
38.6018
36.5356
35.0911
34.488
34.0137
232.382
122.849
105.092
81.5803
73.3911
63.1291
57.3642
50.4951
43.3542
38.8777
36.1213
35.0128
34.2374
33.8323
35.4085
34.0702
33.6737
33.3573
33.33
33.1517
298.315
145.631
112.256
82.2952
71.8865
57.2319
50.7949
42.2007
38.0602
32.645
31.1733
29.2038
29.7732
29.7011
30.1195
30.3169
30.7028
31.011
31.4027
31.7316
159.418
159.291
117.138
75.8541
61.6367
46.6724
43.763
38.085
35.6661
31.4422
30.4263
28.5363
28.5512
28.1785
28.2921
28.4473
28.8282
29.3701
29.8012
30.5018
205.538
158.973
125.24
75.9753
57.2029
42.3128
39.5249
34.4361
33.5498
30.3623
30.3054
28.6915
28.7358
28.2351
28.4549
28.5763
28.9079
29.4315
29.8396
30.6071
242.658
152.971
127.65
82.1006
61.8317
45.3694
40.4004
34.4312
33.6663
30.7747
30.8234
29.7167
29.7318
29.408
29.5807
29.73
30.0833
30.6303
31.0814
31.8767
180.021
127.896
91.0137
59.942
57.1443
46.3783
44.0791
38.894
37.1797
33.6095
33.7955
32.9471
33.1358
32.9822
33.2056
33.355
33.6687
34.1509
34.5141
35.1425
333.715
144.684
101.653
74.4367
66.0426
59.8894
55.9057
52.5326
48.8032
44.5261
42.6697
41.0881
40.8279
40.5901
40.602
40.6187
40.597
40.719
40.7876
41.1586
103.841
100.079
85.6092
73.8749
67.0639
61.7986
56.186
50.7898
46.2441
42.4723
39.21
36.3307
33.8914
31.8748
30.2675
28.7857
27.3144
25.82
24.5892
23.6573
23.71
69.9764
84.1281
83.7335
78.0064
65.2981
56.0965
48.3787
43.9508
39.0602
35.3258
32.4487
30.9692
29.72
28.8845
27.8617
26.9407
25.3608
24.3616
22.1933
197.052
137.808
116.662
93.6941
96.3237
78.4257
80.6499
71.9445
72.5957
68.7712
69.642
69.7964
72.0815
73.224
74.5808
74.4716
74.1627
73.0776
72.7966
71.985
318.327
138.844
116.519
84.5718
85.7814
69.5032
71.3673
64.8244
66.0959
63.3955
64.1438
63.7116
64.7655
64.5125
64.3127
63.5724
63.038
61.8253
61.4531
60.5673
367.139
169.427
96.27
83.5431
78.5473
62.014
65.9627
58.741
60.5278
57.7932
58.6379
57.8879
58.6172
58.1672
58.0967
57.3474
56.9189
55.9499
56.0074
55.6801
220.666
160.993
110.005
77.1613
78.1801
64.0404
66.386
60.338
61.3906
58.7268
58.925
57.6922
57.7892
57.1341
57.0643
56.454
56.1792
55.4017
55.4412
55.3738
223.612
147.073
122.099
78.6083
81.1187
64.5244
66.1594
58.6313
58.4039
56.0005
56.3554
56.0696
56.8911
57.1351
57.6081
57.3519
57.1078
56.0299
55.7895
55.6054
193.798
170.562
133.578
90.0885
90.1203
73.4106
69.7199
63.445
62.7631
60.5047
60.409
59.3046
59.466
59.0798
58.9191
58.6758
58.5427
57.7976
57.5575
57.2896
218.926
167.43
132.034
85.5884
82.7071
70.7291
67.546
60.1416
59.3785
57.9599
59.4414
59.4047
60.8435
61.3443
62.3411
59.1051
58.1705
57.028
56.78
56.7667
280.595
158.172
111.757
72.8408
67.1699
63.5168
65.1729
61.9002
62.234
63.3053
64.783
66.3492
67.8191
68.6842
69.3717
61.6415
58.6135
57.2046
56.997
57.1194
620.731
259.329
96.1221
79.1539
64.3017
54.8601
59.8696
67.0964
69.2055
68.9415
70.3619
73.2379
76.5351
75.8594
72.8884
62.9749
59.5722
57.9551
57.7617
57.7007
186.702
128.477
113.997
87.6762
75.0229
58.9542
60.0293
68.7906
71.681
68.0752
68.5211
75.2236
81.6658
79.463
73.9174
62.6443
59.6138
58.485
58.4934
58.3889
222.752
177.812
116.811
93.9738
81.1697
70.1248
68.0568
70.3554
71.4281
72.3418
74.2355
76.5963
78.8119
77.078
72.3622
61.4524
58.7498
57.8926
58.0334
58.083
293.578
146.918
104.756
84.8305
79.9563
71.9165
69.3745
62.1116
63.4655
62.0239
63.7245
63.9387
64.9355
64.1106
59.3538
56.5367
56.3408
56.4627
56.9245
57.2188
238.427
191.4
120.815
91.3803
82.3103
66.1893
63.4788
54.9352
54.9562
50.5863
51.6305
49.8514
51.1919
51.0715
52.1172
52.4022
53.2773
53.9698
54.8162
55.5352
418.529
222.662
130.116
75.898
72.8127
56.1982
60.2528
53.0445
54.43
50.6613
50.919
49.3287
49.6778
49.4016
49.8569
50.2605
51.1153
52.0102
52.7482
53.824
186.955
157.353
127.099
75.4449
72.1125
54.1744
58.1352
50.1189
53.3585
49.347
50.7921
48.803
49.7764
49.1239
50.0726
50.2
50.9557
51.6594
52.355
53.4189
165.383
143.715
120.893
75.4002
75.3378
55.7529
60.5368
51.982
54.7091
50.697
51.9252
50.16
50.8941
50.2989
50.8888
51.0138
51.6247
52.3405
53.0067
54.1927
177.13
127.749
97.6895
71.6052
74.5745
56.1197
63.5547
54.2941
58.1573
53.9929
55.8023
54.1137
55.2065
54.5477
55.2053
55.1172
55.6148
56.0351
56.5052
57.5274
280.763
141.464
111.966
80.3932
91.3012
75.1857
80.7228
72.5174
73.8188
69.4548
69.5497
67.5953
67.7511
66.9355
67.0488
66.7499
66.7989
66.8403
66.8687
67.6395
128.762
92.4884
87.2065
78.8214
68.8253
58.7333
51.4846
46.1612
42.219
38.4346
35.4188
32.6142
30.2997
28.1505
26.4228
25.0338
24.0766
23.5247
23.3104
23.2621
36.0789
35.3102
77.934
38.1654
36.7073
37.1825
96.1054
33.9494
78.3846
64.0917
36.3365
35.2436
97.3879
76.31
71.1928
31.8076
30.4903
34.9809
87.5941
34.1676
33.1896
65.0899
30.294
30.1829
88.6629
79.9348
33.1825
33.6035
255.345
260.982
267.78
75.7074
71.173
64.6039
60.1714
253.449
270.756
263.309
71.6164
69.2088
59.9798
59.824
244.537
259.568
250.642
67.1606
61.8419
58.9185
54.5926
232.896
248.32
234.373
60.3763
56.4159
53.402
50.585
203.532
228.034
203.394
54.8813
50.1261
49.5753
46.0843
171.619
195.353
177.36
48.2445
43.0611
44.7775
40.8082
156.415
171.587
166.277
41.3931
37.2332
39.5369
35.7
140.732
166.771
165.257
36.1224
32.2264
34.6473
31.6624
259.313
244.188
211.595
61.6065
58.009
65.2589
55.5671
263.288
208.195
206.199
57.8792
57.4495
53.7865
49.3332
248.29
205.848
204.059
56.4106
52.5456
48.2501
46.0268
231.961
201.756
193.415
51.542
49.3978
45.797
45.3324
203.122
189.333
178.814
48.6974
45.9158
45.2947
44.2839
183.975
176.707
176.004
44.765
41.2604
43.5741
41.1537
171.594
176.559
175.624
40.267
36.8371
40.5074
38.8492
168.031
175.738
165.715
35.7224
32.1929
38.2767
35.9488
210.759
254.408
195.745
70.7599
55.6284
84.775
59.5696
185.86
188.106
171.375
53.0422
47.2948
56.8758
51.3334
175.814
167.122
160.917
45.9641
43.5365
48.6595
41.9901
167.558
160.702
159.883
43.1209
42.2248
40.5932
38.3347
162.561
159.28
157.072
42.0639
41.4958
37.866
36.9027
167.405
156.14
148.285
41.2039
39.979
36.8146
37.0022
171.739
144.759
138.391
39.5775
38.4019
37.1191
37.1036
164.164
138.588
126.444
38.0162
35.9602
37.0038
34.8202
204.619
333.444
264.475
97.456
64.2315
100.176
79.6082
186.13
269.242
240.215
60.5569
55.4933
75.9548
69.8417
169.161
234.606
213.99
52.2611
43.477
65.74
52.9947
170.216
217.362
205.398
41.7321
39.0641
50.6041
45.6855
163.458
202.304
182.029
38.6089
37.5657
44.5316
40.5574
155.005
177.931
159.452
37.3118
36.7081
39.4677
35.3648
134.945
157.432
152.569
36.5459
36.1437
34.1282
31.2765
116.857
154.634
146.621
36.0226
34.4789
30.6831
28.572
63.7776
55.9115
53.7937
54.8372
53.7712
46.2317
45.7895
61.3735
53.7813
53.4399
53.323
49.422
45.7496
44.247
54.3344
52.5054
48.6602
47.7622
43.5135
43.287
40.3884
48.9739
47.6086
44.9712
42.2397
38.768
39.5841
37.3158
43.1767
44.0657
40.9881
37.533
34.196
36.5769
34.2205
37.264
39.8707
36.4084
33.0932
30.3264
33.421
31.0796
32.515
35.2868
32.0507
29.4919
27.4761
30.3581
28.476
29.2385
31.1714
29.1909
26.9706
25.6212
27.9732
26.8855
52.0335
55.1668
49.302
44.0849
44.3599
42.9972
40.7253
51.3912
48.0919
44.5679
44.321
42.826
40.1719
37.83
46.9135
43.5778
41.4853
41.8897
39.302
37.0649
35.5028
44.0616
41.2025
40.9501
38.6405
37.0189
35.5443
48.41
40.9623
41.0093
40.3252
36.5039
34.6391
49.6107
47.8856
36.9398
39.7885
37.8706
33.9418
31.8255
46.5056
42.5441
33.0302
37.3402
35.8372
31.1647
29.3717
41.3991
37.6511
29.7958
35.2568
33.8983
28.8971
27.5988
36.2886
33.8694
48.9726
69.5066
52.86
44.28
39.9671
51.0482
43.5115
42.8401
50.8738
46.2879
39.1473
36.5421
42.4473
38.7489
39.535
44.0225
38.2195
35.7327
34.1956
37.1282
33.1736
38.512
36.9545
34.6596
33.6101
45.6471
32.2787
30.6219
38.2003
34.1487
33.1195
46.9145
47.1817
30.306
29.8851
37.1463
32.9968
33.0567
46.714
44.6494
29.9197
30.5736
35.7689
33.1775
33.3886
44.0406
40.9981
30.8906
31.8784
34.2311
33.3927
32.8085
39.7406
36.2329
32.1972
32.5964
56.9784
82.0679
69.3951
57.1034
46.4299
62.8733
55.0965
49.7098
66.7956
61.2695
45.0587
40.9053
53.709
48.1791
39.4181
57.6245
47.1869
38.9444
33.9458
45.6833
38.6405
35.115
44.9264
40.2441
32.8381
30.6015
37.0035
33.1199
33.4213
39.0189
35.6689
30.1237
29.1977
32.2169
29.777
32.6021
34.6108
31.4463
29.0398
28.9758
29.1096
27.4177
32.4277
30.4767
28.5248
29.0998
29.8408
27.0577
26.4699
32.4258
28.0453
27.2137
30.1293
31.2914
26.346
26.0062
52.2584
45.2164
44.8608
53.7183
50.9933
45.9058
45.7228
47.2567
44.7298
42.8321
49.4882
44.9186
45.3357
42.7537
41.6504
41.8753
39.1384
43.5854
40.3284
41.8798
39.4685
37.1173
38.3771
36.2123
39.2965
36.5696
38.7383
36.7355
32.9654
35.5243
33.3861
35.7367
33.7659
36.1885
34.7053
29.6156
32.6815
30.6616
33.1846
31.8088
34.319
33.4825
27.2248
30.0589
28.5217
31.4385
30.5557
33.2824
32.6577
25.6419
28.1109
27.1972
30.3018
29.4233
32.4399
31.7482
43.4196
41.454
39.5802
43.7419
44.2561
41.1224
40.2935
41.5373
39.0779
36.8843
44.0156
41.8499
39.9547
38.3706
38.2013
36.169
34.83
41.0677
38.8412
37.8364
36.186
36.4147
37.0231
36.7082
37.0547
36.5618
36.5232
36.2815
36.7032
35.1009
36.6194
35.2281
36.4042
34.7784
36.8502
31.4877
58.732
48.7047
34.895
34.2251
68.3603
52.9366
29.4375
46.2734
39.9324
34.0616
33.5208
49.7889
42.8515
27.9107
38.0385
34.8191
33.3143
32.4474
41.1074
38.1491
38.8304
48.2525
42.2711
41.7248
39.83
46.4524
43.143
35.7089
41.2897
37.6192
39.3526
37.624
42.2456
38.7771
33.5926
36.1311
32.6093
37.0718
35.2849
37.7035
34.9352
43.5946
58.8602
32.4991
39.7381
36.7015
235.85
32.847
60.6278
70.8047
45.2799
205.255
46.7042
194.269
58.8833
54.4409
30.3178
31.3362
75.0088
58.78
33.9987
35.8362
45.4371
31.7481
32.9342
55.1322
46.7452
36.3838
37.4896
37.6455
33.2872
33.4693
44.6556
40.1365
37.6082
37.0788
44.9383
58.9159
52.9503
49.6337
45.2304
55.2025
51.1776
39.5078
51.4095
45.8596
44.1112
39.8835
49.3074
43.4444
33.2919
43.4526
37.2866
38.5642
35.5692
41.588
37.4884
30.2952
35.7699
32.2542
34.7371
33.0688
36.3586
33.7242
29.1257
31.3854
29.2815
32.8029
32.5198
33.1112
31.9977
29.2037
28.7134
27.4103
32.6477
33.5933
31.7367
31.2838
30.3663
27.164
26.838
34.0067
35.0187
31.196
31.1519
31.8623
26.7664
26.424
35.2063
35.4403
31.0448
30.3589
51.7328
47.3938
47.4919
61.6858
58.9276
56.8271
59.7317
45.7361
47.0985
44.6379
57.4138
55.6657
59.9337
60.0865
41.7616
43.8806
41.6208
55.542
55.9298
60.2704
59.4558
38.4826
40.8727
38.9092
55.6412
55.98
58.9479
58.7847
36.4901
38.4396
37.3384
56.0384
56.6595
59.1399
60.0866
35.2533
37.1895
37.2523
56.5286
57.0063
60.4405
62.1217
34.4879
37.3092
37.0928
56.9927
57.4971
62.5555
62.6739
33.3217
36.9075
35.9426
57.2461
56.7602
62.4386
61.3243
46.089
42.4877
42.4883
54.8711
59.2069
52.9889
58.9735
43.9905
42.372
41.414
59.8902
61.0037
60.2827
62.1448
41.0528
40.9697
38.4253
61.1484
59.0652
61.9743
57.365
38.6824
38.4099
60.0293
58.1766
57.3961
55.6186
55.5698
37.4787
61.9345
58.8324
57.6999
59.6358
56.3898
58.587
37.7209
56.5795
50.4171
60.6149
62.9189
60.2313
66.2403
37.8996
48.6907
44.4347
63.6252
63.8968
67.2103
67.4522
36.6104
43.3056
40.69
63.5794
62.1133
66.7313
64.0875
42.2504
47.8034
45.5237
54.1263
59.6971
59.3437
62.2729
40.9872
44.7517
41.8093
60.8205
62.3859
62.5258
62.687
37.73
41.0348
38.1656
62.2244
57.5724
62.68
61.5485
56.9998
37.1991
35.9136
55.6813
55.5817
60.678
60.2001
59.7893
35.8928
36.3451
56.4197
58.8176
60.6058
62.0717
53.5285
36.864
39.4074
60.7379
66.9787
62.7525
65.5074
46.818
40.056
41.0906
67.986
68.1636
66.4091
66.5535
41.9844
41.0812
39.8308
67.3607
64.4177
65.9402
63.3545
47.3463
55.8753
52.295
61.7093
62.8797
64.9323
62.2557
42.4783
50.2376
44.516
62.6566
62.2708
60.0281
57.5998
39.0546
42.9758
39.8905
62.3751
61.8989
58.1928
58.9818
36.3677
38.9109
36.6427
61.5169
61.2593
58.2571
57.7168
36.1619
36.2384
35.8128
61.5571
62.5452
57.8919
59.3228
37.9467
35.6899
35.376
62.9339
64.8956
59.048
59.1479
39.2457
35.3082
35.1626
65.4469
65.2638
58.9948
59.1704
38.5392
35.015
33.793
64.6847
62.3967
58.5032
57.092
63.0453
61.6661
66.1331
87.5467
88.4721
89.1695
94.0619
61.8226
66.6853
67.826
88.8179
91.4271
95.3991
98.2286
63.5158
68.1904
68.5752
92.7004
96.3435
99.336
105.555
64.4117
68.6558
69.6355
97.0391
99.902
107.574
112.153
66.3252
70.1973
71.7286
101.146
103.617
113.35
115.184
67.6758
72.317
74.5306
104
105.961
115.019
112.756
68.8757
74.9007
74.8517
106.383
107.873
112.358
112.058
68.5185
74.6493
73.5908
107.919
105.224
112.21
110.234
66.051
58.6487
66.513
92.1876
95.384
94.9514
99.5316
68.9177
68.0891
70.9272
96.8758
99.9711
101.462
105.333
69.197
71.1481
69.1781
101.574
109.396
107.897
119.632
69.6777
67.6051
67.1589
111.886
116.97
123.698
129.524
72.4589
68.0156
71.5065
118.136
119.665
130.78
131.497
75.9672
74.4823
79.9209
119.28
115.57
129.85
123.132
76.2296
80.8991
79.8947
114.335
112.96
120.34
115.606
74.3203
78.949
76.0322
112.92
109.863
115.03
110.988
67.3489
65.5386
69.8822
96.0187
100.746
100.178
101.8
71.48
70.354
71.5959
102.521
106.299
102.755
105.425
69.7718
72.0421
72.4703
108.841
120.577
107.24
114.88
67.6825
72.3951
73.4729
124.671
130.386
117.347
122.069
72.0232
74.1786
76.1089
131.582
132.302
123.201
124.65
80.6841
76.8646
79.7056
130.668
123.796
123.98
119.154
80.5075
80.2371
79.1026
120.933
116.017
117.421
114.85
76.2842
78.2921
75.5391
115.387
111.178
114.514
111.113
70.3595
70.2848
67.6627
99.8944
100.757
95.0357
95.3552
70.8518
65.6835
65.1658
101.522
104.17
95.0805
96.8198
72.2623
66.0975
67.486
105.606
111.838
98.8746
102.49
73.5355
66.9884
67.7277
113.744
118.034
102.397
105.728
76.0344
68.4521
70.5618
119.169
120.673
106.728
109.444
78.5752
70.2919
70.7294
120.123
116.472
108.48
110.077
77.7907
70.7276
70.9988
115.614
114.128
109.656
110.789
74.6638
70.2712
69.1047
113.932
111.385
109.582
107.156
36.7178
36.5361
36.7083
35.6583
36.6547
36.0725
36.8922
42.1689
35.8747
57.7084
40.6151
38.057
35.8432
187.74
47.8521
42.8018
72.1792
231.712
41.193
49.7766
245.752
36.6421
37.1831
37.5771
37.4491
36.6424
36.4635
37.3577
36.9887
35.807
37.1092
37.7499
36.2019
37.2209
37.554
43.0459
42.1099
36.9764
67.3716
36.1809
195.964
39.8546
49.105
240.534
46.2329
88.0735
51.3517
254.741
43.9013
36.4576
34.5454
35.5811
33.7748
36.0686
34.2998
35.9283
49.9071
43.3585
78.4004
221.116
43.4677
50.0307
210.91
49.2229
41.5647
73.904
98.7505
43.1214
45.5035
145.371
37.137
35.413
35.9675
37.7925
35.0088
37.2292
37.7411
36.9588
34.1439
35.6163
37.2178
34.5982
36.4533
37.5892
51.6949
229.458
47.0374
97.6417
51.6496
219.431
47.4665
51.174
105.913
45.5303
89.0946
47.1873
152.005
47.1617
51.8884
68.3803
43.4832
218
40.7409
227.82
56.5202
32.4311
31.7734
31.2085
31.849
31.8615
31.8608
31.3337
33.2789
32.6919
30.7806
30.8241
32.1959
34.1347
31.0067
45.0508
41.3846
66.6738
34.7459
234.072
33.6003
39.9988
53.9563
228.331
82.9108
48.9882
238.505
58.6205
45.3402
33.2001
32.5319
33.9718
33.6241
32.5114
32.0487
34.277
34.2058
31.6532
35.8098
33.3113
35.1717
31.7712
34.9855
61.721
71.9303
48.4378
117.093
48.1152
176.706
61.2871
35.4949
33.1439
30.182
30.7307
33.5868
34.8365
30.7195
35.8616
34.463
30.1382
30.9012
33.9223
36.6306
30.7525
62.8935
215.225
87.9402
51.3647
203.822
60.9867
53.3402
63.8934
121.761
88.6997
55.795
175.36
63.7604
54.8809
36.753
31.6311
36.5538
33.2319
35.9702
31.6701
37.3277
37.1972
31.9834
38.6568
33.3422
38.0345
31.7554
37.8933
191.02
214.811
189.736
122.178
103.329
115.469
98.4806
181.655
174.536
166.711
96.8887
95.4849
91.249
85.489
177.236
163.659
160.348
94.8863
91.4464
80.424
76.0892
157.814
155.054
147.386
82.7169
76.7489
71.3077
67.7549
132.483
137.796
128.192
68.1238
62.713
63.2545
59.1458
115.26
118.786
110.754
57.5713
54.4024
55.1454
51.2544
104.746
105.038
100.749
51.6439
48.8432
47.734
44.2566
93.7248
98.3346
89.2683
47.7421
41.5053
42.4319
33.6475
172.804
174.684
168.705
100.255
82.8385
95.5677
77.3631
125.278
264.821
275.019
150.105
128.756
144.46
259.244
106.557
260.331
252.688
118.137
116.337
108.218
252.422
101.715
248.8
248.117
116.679
113.876
103.376
246.605
96.5608
242.744
243.678
112.395
110.82
98.2122
241.206
89.2903
221.238
226.418
105.046
102.38
91.3428
218.064
78.3567
187.326
191.769
92.8669
89.4068
81.1907
183.061
66.8313
162.155
163.919
80.1929
76.8709
69.4326
159.958
59.5196
156.454
157.005
71.3413
68.8895
61.1029
157.069
93.96
111.245
104.85
37.83
31.9272
36.2124
30.0002
156.547
178.453
160.472
91.8369
73.3288
97.4764
77.3213
105.482
231.817
237.531
124.224
106.838
123.147
223.555
94.9547
268.188
246.525
97.5631
97.5469
94.9548
252.697
90.7539
254.665
251.109
95.7881
94.1757
92.5111
247.535
85.9946
241.938
238.525
89.4629
88.2401
86.9413
235.269
82.0773
218.794
220.545
84.0403
82.3806
83.5193
214.557
74.924
190.723
195.147
76.4908
74.0774
76.9867
190.226
69.2999
175.085
182.707
69.1012
68.3032
69.9587
179.473
63.3867
173.014
176.338
62.3085
61.0542
64.8531
177.064
110.909
116.836
107.965
37.9852
31.6881
40.2135
33.6369
172.896
203.442
169.184
121.421
91.0828
130.08
102.662
119.865
239.237
260.462
141.325
118.289
143.092
232.983
80.8673
193.91
187.165
86.7493
81.4644
87.0113
180.027
69.136
180.406
168.651
72.7005
71.5547
70.8953
165.182
65.2919
171.443
157.954
70.2837
70.0159
65.8783
156.929
64.7247
164.19
155.914
70.0391
70.0764
64.6979
156.321
66.2116
163.379
157.792
69.8079
69.0977
65.7308
158.206
65.8048
170.192
162.016
66.5267
65.8696
66.1145
163.486
62.8962
172.821
166.36
63.9429
63.4511
64.0085
167.362
103.803
97.1926
91.4387
40.0097
34.7888
38.8666
33.6107
181.881
225.28
197.007
137.466
117.517
135.018
115.07
140.388
236.85
279.041
161.229
134.274
165.796
244.21
99.8776
197.916
213.111
94.8384
91.8324
102.72
211.065
82.0117
173.09
192.15
81.8248
77.0557
88.2574
185.384
70.8959
169.922
181.898
68.74
67.8051
71.7251
182.643
70.0132
167.445
180.888
67.7455
67.7877
70.2871
177.962
66.765
160.623
169.278
66.9575
66.4136
67.8763
166.414
61.2299
145.336
155.123
65.4974
65.2101
62.6691
150.135
55.6256
132.138
139.992
62.644
61.4267
57.3128
139.352
84.785
100.349
87.7227
37.5117
34.3772
34.2214
29.8894
195.117
219.481
195.769
125.418
108.796
121.911
104.997
165.478
177.286
163.514
95.8379
88.2014
93.3007
83.82
147.882
154.24
145.66
80.4187
71.3124
76.4891
69.8406
135.106
138.399
129.938
64.0401
60.2954
64.6378
59.2323
116.337
120.447
109.791
55.3042
50.6467
54.1337
49.0252
100.034
101.669
95.2234
45.7284
41.5534
43.5955