/*--------------------------------*- C++ -*----------------------------------*\
  =========                 |
  \\      /  F ield         | OpenFOAM: The Open Source CFD Toolbox
   \\    /   O peration     | Website:  https://openfoam.org
    \\  /    A nd           | Version:  10
     \\/     M anipulation  |
\*---------------------------------------------------------------------------*/
FoamFile
{
    format      ascii;
    class       volScalarField;
    location    "7";
    object      turbidity_0;
}
// * * * * * * * * * * * * * * * * * * * * * * * * * * * * * * * * * * * * * //

dimensions      [0 0 0 0 0 0 0];

internalField   nonuniform List<scalar> 
12920
(
-0.0239182
-0.0433319
-0.0504486
-0.0570957
-0.0625552
-0.0659805
-0.0701031
-0.0732658
-0.0772629
-0.0847287
-0.0972978
-0.116906
-0.150182
-0.206759
-0.277826
-0.34136
-0.388178
-0.419952
-0.440726
-0.453937
-0.0179696
-0.0307208
-0.0523265
-0.0720315
-0.0868545
-0.0984622
-0.108784
-0.119363
-0.131696
-0.144659
-0.156609
-0.174497
-0.207696
-0.258084
-0.314444
-0.362952
-0.393202
-0.400437
-0.396979
-0.388791
-0.0174845
-0.0318662
-0.0482276
-0.0657482
-0.0905725
-0.1217
-0.150984
-0.176323
-0.19794
-0.217447
-0.235177
-0.251539
-0.272693
-0.304282
-0.344963
-0.393276
-0.443569
-0.487631
-0.525234
-0.56032
-0.0249053
-0.0325473
-0.0393989
-0.0502878
-0.0680198
-0.097187
-0.131619
-0.16544
-0.195397
-0.225054
-0.256347
-0.290585
-0.328815
-0.375357
-0.430807
-0.491453
-0.551079
-0.608166
-0.662794
-0.710179
-0.0130862
-0.0204207
-0.0301613
-0.0411334
-0.0561354
-0.0743605
-0.099336
-0.132142
-0.166812
-0.202565
-0.24033
-0.281896
-0.328287
-0.378526
-0.430903
-0.482723
-0.533537
-0.586178
-0.642187
-0.699989
-0.00911085
-0.0230896
-0.0386078
-0.0503045
-0.0651863
-0.0813963
-0.101821
-0.123584
-0.149312
-0.187455
-0.232009
-0.275095
-0.315122
-0.352686
-0.385817
-0.414114
-0.440797
-0.47043
-0.505315
-0.548643
-0.0298387
-0.038341
-0.0474951
-0.0542896
-0.0618446
-0.0637107
-0.0696479
-0.0789942
-0.0950402
-0.128288
-0.183822
-0.244949
-0.295902
-0.335928
-0.367736
-0.393716
-0.416075
-0.437601
-0.461646
-0.493473
-0.0302694
-0.0415431
-0.0543764
-0.074442
-0.0927192
-0.102672
-0.100582
-0.0980544
-0.101225
-0.121635
-0.155887
-0.19306
-0.227476
-0.256527
-0.251835
-0.266007
-0.277613
-0.29441
-0.324759
-0.372045
-0.0176438
-0.0409785
-0.0626172
-0.0944271
-0.125393
-0.120823
-0.113811
-0.102117
-0.0969145
-0.102564
-0.117739
-0.138351
-0.160198
-0.176878
-0.17058
-0.130565
-0.146706
-0.175343
-0.220367
-0.280506
-0.0476906
-0.0629519
-0.0867291
-0.109087
-0.136407
-0.134126
-0.125547
-0.105259
-0.0939643
-0.0898262
-0.0938218
-0.102375
-0.111863
-0.119847
-0.113734
-0.103531
-0.123593
-0.151873
-0.19161
-0.241699
-0.0194571
-0.0456948
-0.0653263
-0.0850791
-0.112013
-0.120671
-0.13225
-0.135398
-0.120867
-0.108143
-0.103024
-0.101693
-0.101338
-0.101345
-0.103382
-0.111555
-0.130589
-0.154527
-0.186354
-0.224753
-0.0198333
-0.0290476
-0.0385224
-0.0545177
-0.0821408
-0.097249
-0.122282
-0.136111
-0.139377
-0.142715
-0.14585
-0.147969
-0.14756
-0.136934
-0.126966
-0.138118
-0.151878
-0.169137
-0.192975
-0.224091
-0.0114917
-0.0283811
-0.0435008
-0.0600325
-0.0817388
-0.108983
-0.113086
-0.125609
-0.137503
-0.150849
-0.167568
-0.183557
-0.189232
-0.181236
-0.178834
-0.189016
-0.200229
-0.213895
-0.231755
-0.257428
-0.00925516
-0.0249698
-0.0470035
-0.071322
-0.0998875
-0.133574
-0.168757
-0.209813
-0.248451
-0.290656
-0.326506
-0.356716
-0.372141
-0.375723
-0.369324
-0.361828
-0.354057
-0.351067
-0.351543
-0.362193
-0.00727179
-0.028882
-0.0550083
-0.0881471
-0.129659
-0.175792
-0.216165
-0.258309
-0.296694
-0.33623
-0.372957
-0.409181
-0.441562
-0.469198
-0.487744
-0.498743
-0.501895
-0.503664
-0.50486
-0.513971
-0.0373196
-0.0527225
-0.0640478
-0.102175
-0.152181
-0.206798
-0.25432
-0.296765
-0.332928
-0.366656
-0.398644
-0.430732
-0.464765
-0.49897
-0.531677
-0.561028
-0.585293
-0.606567
-0.624607
-0.643742
-0.020005
-0.0392809
-0.060601
-0.0881038
-0.116567
-0.151416
-0.203664
-0.268521
-0.330709
-0.383214
-0.429811
-0.470058
-0.506432
-0.539472
-0.570697
-0.600625
-0.628309
-0.654607
-0.67815
-0.700806
-0.0186615
-0.0439207
-0.0704132
-0.0971128
-0.122308
-0.153135
-0.194025
-0.231984
-0.281536
-0.332443
-0.386062
-0.432407
-0.472694
-0.504879
-0.532814
-0.556607
-0.578803
-0.597773
-0.616529
-0.637121
-0.0132767
-0.0353603
-0.0514016
-0.0793813
-0.119642
-0.158997
-0.192441
-0.221767
-0.256133
-0.295551
-0.339635
-0.379321
-0.411059
-0.43284
-0.448624
-0.462328
-0.475018
-0.4862
-0.497311
-0.514169
-0.0375322
-0.0649421
-0.0888603
-0.116519
-0.144258
-0.167569
-0.187932
-0.20708
-0.22551
-0.244506
-0.263951
-0.285875
-0.31004
-0.336803
-0.364515
-0.391655
-0.416868
-0.439944
-0.461556
-0.48361
-0.00145107
-0.00817087
-0.00928633
-0.00970124
-0.0104896
-0.0117838
-0.0144488
-0.0191788
-0.0270851
-0.0392948
-0.0564821
-0.0809237
-0.113118
-0.146314
-0.170447
-0.184685
-0.191942
-0.194506
-0.19184
-0.186335
-0.00282979
-0.00833614
-0.0220588
-0.0277316
-0.0285004
-0.025971
-0.0274919
-0.0307798
-0.0392997
-0.0536846
-0.0740562
-0.094681
-0.109826
-0.113228
-0.104637
-0.0880964
-0.0668394
-0.0512779
-0.0418748
-0.0372946
-0.0025385
-0.0119287
-0.0253206
-0.0359887
-0.0467166
-0.0506726
-0.0549156
-0.0557109
-0.0595286
-0.0631985
-0.0690936
-0.0749922
-0.0814046
-0.0851697
-0.0878034
-0.0845996
-0.0734976
-0.0654493
-0.0640027
-0.067551
-0.00280209
-0.00915707
-0.0187441
-0.0280093
-0.0438542
-0.0521728
-0.05456
-0.0470802
-0.0432275
-0.0410751
-0.0445541
-0.0508064
-0.0599763
-0.068882
-0.0741075
-0.0726189
-0.0696871
-0.0722024
-0.0780186
-0.0853245
-0.00661324
-0.00595558
-0.00774943
-0.0119257
-0.0208795
-0.0329788
-0.0448655
-0.0468017
-0.0440175
-0.0375827
-0.033748
-0.0344056
-0.0411669
-0.0504385
-0.0601555
-0.0697341
-0.0823243
-0.0969734
-0.11105
-0.120982
-0.00342644
-0.00809365
-0.00901442
-0.0100455
-0.0129986
-0.0174615
-0.0248478
-0.0337677
-0.045143
-0.046617
-0.0408272
-0.0350697
-0.0343716
-0.0383197
-0.0456037
-0.0572876
-0.0745913
-0.0997584
-0.135914
-0.167672
-0.0162981
-0.0107007
-0.00812144
-0.00911508
-0.010515
-0.0122059
-0.0166793
-0.0255708
-0.040282
-0.0534545
-0.0544716
-0.0479503
-0.0436828
-0.0465
-0.0548019
-0.0670389
-0.0838085
-0.106923
-0.136941
-0.163335
-0.00238407
-0.00499252
-0.00777458
-0.010897
-0.013251
-0.0144414
-0.0156607
-0.0183876
-0.0246002
-0.0337613
-0.0389681
-0.0423771
-0.0450436
-0.048263
-0.0445861
-0.0515399
-0.0624608
-0.0785706
-0.100953
-0.121275
-0.00133868
-0.00594092
-0.011483
-0.0152042
-0.0193242
-0.0158093
-0.0137795
-0.0152685
-0.0168784
-0.0200827
-0.0314084
-0.0501523
-0.0569443
-0.0459303
-0.0328296
-0.030811
-0.0404787
-0.0553648
-0.0750098
-0.0909789
-0.0120439
-0.0135002
-0.0167436
-0.0174824
-0.0236192
-0.0246196
-0.0236429
-0.0160755
-0.0146508
-0.0183024
-0.0327631
-0.0562324
-0.0659512
-0.0504281
-0.0283847
-0.0312002
-0.0377039
-0.0471523
-0.0600509
-0.0701961
-0.00130452
-0.0101291
-0.0207531
-0.0211605
-0.0295005
-0.0354517
-0.0414219
-0.0576951
-0.0737744
-0.0828884
-0.0880779
-0.0870538
-0.0756136
-0.0555037
-0.0391409
-0.055767
-0.0553535
-0.0541345
-0.0556062
-0.0581306
-0.00600737
-0.0082709
-0.0156502
-0.020732
-0.0321791
-0.042364
-0.0589748
-0.0675015
-0.0955758
-0.107254
-0.112507
-0.121196
-0.129205
-0.125722
-0.104123
-0.0811663
-0.0668136
-0.0559274
-0.0518405
-0.0521733
-0.00256679
-0.00666509
-0.011824
-0.017703
-0.0265326
-0.0295053
-0.0344456
-0.0355016
-0.0411841
-0.0399442
-0.0462979
-0.0556089
-0.0662197
-0.0760909
-0.0669119
-0.0623713
-0.0569205
-0.053607
-0.0534548
-0.0562856
-0.00496129
-0.00572859
-0.00947228
-0.0125571
-0.019932
-0.0279699
-0.0371686
-0.0467827
-0.0524444
-0.0532074
-0.053881
-0.0578258
-0.0636166
-0.0696096
-0.07434
-0.074937
-0.0745069
-0.0753012
-0.0774516
-0.0834233
-0.00272932
-0.00693982
-0.00871463
-0.0139931
-0.0232049
-0.0324465
-0.0421746
-0.0437735
-0.0444614
-0.0421003
-0.0441841
-0.0487981
-0.0576274
-0.0678328
-0.0771947
-0.0846894
-0.0907342
-0.0956803
-0.10077
-0.107086
-0.00172126
-0.015739
-0.0144716
-0.0242175
-0.0324565
-0.0392748
-0.0462871
-0.0447864
-0.0415151
-0.0362548
-0.0357972
-0.0377047
-0.0428209
-0.048901
-0.0567249
-0.0644508
-0.0730519
-0.0804506
-0.0871054
-0.0921005
-0.00336637
-0.00627038
-0.0134952
-0.0239316
-0.040395
-0.0522994
-0.0597849
-0.0491309
-0.0415663
-0.0391426
-0.0404634
-0.0419357
-0.04332
-0.0447159
-0.0466737
-0.0489915
-0.0516984
-0.0542093
-0.0565512
-0.0590265
-0.00189319
-0.0198079
-0.0325473
-0.0293754
-0.0412368
-0.0359928
-0.0359457
-0.0356401
-0.0380189
-0.0399399
-0.0411318
-0.0409826
-0.0403831
-0.0394658
-0.0386555
-0.0379385
-0.0375232
-0.0372384
-0.0373026
-0.0378048
-0.00827649
-0.0152203
-0.0329732
-0.0414304
-0.0488816
-0.0452501
-0.0479394
-0.0539832
-0.0604286
-0.062741
-0.0597424
-0.052254
-0.0443784
-0.0387367
-0.0359636
-0.0352572
-0.0356707
-0.0364676
-0.0374339
-0.037443
-0.0420349
-0.0418403
-0.0379506
-0.0484668
-0.0590391
-0.0724831
-0.0864926
-0.0968923
-0.10332
-0.105366
-0.105838
-0.108337
-0.114705
-0.124389
-0.135539
-0.146016
-0.155784
-0.165932
-0.177067
-0.190628
-0.000680451
-0.00211313
-0.00411265
-0.00673453
-0.00870383
-0.010409
-0.0130846
-0.0176805
-0.0255025
-0.0373053
-0.0533683
-0.0726226
-0.092269
-0.106017
-0.112146
-0.114121
-0.113476
-0.110451
-0.104641
-0.097852
-0.000785033
-0.00318041
-0.00825319
-0.0117624
-0.0130441
-0.0130302
-0.0145256
-0.0172972
-0.023044
-0.0313723
-0.0423367
-0.0512605
-0.054001
-0.0489716
-0.0397231
-0.0309743
-0.0251553
-0.0227312
-0.0217177
-0.0221165
-0.00413991
-0.00885144
-0.0169752
-0.0211135
-0.0243527
-0.0220705
-0.0215843
-0.0205423
-0.022545
-0.0250826
-0.028969
-0.0326449
-0.0351135
-0.0353565
-0.0345985
-0.0326083
-0.0304647
-0.0300401
-0.03108
-0.0329065
-0.00791404
-0.0128489
-0.0193198
-0.0230961
-0.0288716
-0.0243027
-0.0206461
-0.0164873
-0.0166364
-0.0183259
-0.0214843
-0.0247812
-0.0276764
-0.0296256
-0.0306011
-0.0307414
-0.0310063
-0.0318452
-0.0327312
-0.0333989
-0.00400546
-0.00566962
-0.00944128
-0.0131898
-0.0180349
-0.0198846
-0.0207081
-0.0179069
-0.0163705
-0.015831
-0.0174451
-0.0204228
-0.0241576
-0.0280986
-0.0320502
-0.0357976
-0.039311
-0.0418744
-0.0430404
-0.0425009
-0.00302002
-0.00574518
-0.00688702
-0.00757792
-0.00864378
-0.00963563
-0.0118404
-0.0135858
-0.0160212
-0.0157154
-0.0160052
-0.0180506
-0.0219539
-0.0273689
-0.0342426
-0.042681
-0.0529442
-0.064269
-0.0752573
-0.0784198
-0.00524917
-0.00590776
-0.00577026
-0.00652425
-0.00742218
-0.00850619
-0.0111639
-0.0150447
-0.0201763
-0.021993
-0.0197841
-0.0190785
-0.0216534
-0.0270368
-0.0345605
-0.0437549
-0.0543287
-0.0656314
-0.0765919
-0.0820421
-0.00194807
-0.00197625
-0.00347501
-0.00558375
-0.00664848
-0.00687805
-0.00722975
-0.00878738
-0.0117982
-0.0145243
-0.0157079
-0.0169592
-0.0192894
-0.0233492
-0.030565
-0.0384739
-0.0470728
-0.0554177
-0.0625385
-0.0652508
-0.00117875
-0.00292038
-0.00541201
-0.0073549
-0.00826097
-0.00764606
-0.00714613
-0.00736365
-0.008822
-0.0113236
-0.0148826
-0.0175046
-0.0176011
-0.0177646
-0.0200359
-0.0270206
-0.0358757
-0.0442818
-0.0504673
-0.0519169
-0.00381406
-0.00764255
-0.00969942
-0.0119013
-0.0146226
-0.0146579
-0.0130466
-0.009905
-0.0106584
-0.0136866
-0.0184906
-0.0207985
-0.0180469
-0.0150669
-0.0166463
-0.0237121
-0.0286927
-0.0345614
-0.0392183
-0.0401378
-0.00160259
-0.00739103
-0.0112942
-0.0133037
-0.0179403
-0.0204943
-0.0252881
-0.0340336
-0.0390273
-0.0398443
-0.0375288
-0.031702
-0.0255665
-0.0240286
-0.0363447
-0.0384711
-0.0339028
-0.0322919
-0.0326162
-0.0325616
-0.00491299
-0.00837256
-0.0150478
-0.0187297
-0.0237242
-0.0266213
-0.0303303
-0.0339631
-0.0436009
-0.045113
-0.0468709
-0.0534761
-0.0619092
-0.0665939
-0.0658641
-0.0394091
-0.0313261
-0.0280877
-0.0279339
-0.0287178
-0.00298203
-0.0065842
-0.0110613
-0.0132556
-0.0160403
-0.0161433
-0.0171605
-0.0184812
-0.0202929
-0.0215737
-0.0247639
-0.0300558
-0.0358855
-0.0398577
-0.0307605
-0.0287419
-0.0276938
-0.0280321
-0.0293553
-0.0313168
-0.00555737
-0.00354457
-0.00615504
-0.00897528
-0.0120557
-0.0147586
-0.0172269
-0.0193804
-0.0206196
-0.0216466
-0.0235316
-0.0261129
-0.028627
-0.0308993
-0.0326925
-0.0338109
-0.0350304
-0.0367373
-0.0386943
-0.041246
-0.00213809
-0.00269875
-0.00507446
-0.00879166
-0.0121106
-0.0146804
-0.0166576
-0.0167506
-0.0173195
-0.0179761
-0.0200342
-0.022529
-0.0256228
-0.0288129
-0.0319878
-0.0348247
-0.0374825
-0.0397599
-0.0417057
-0.0433356
-0.00107034
-0.0043923
-0.0079346
-0.0133179
-0.0160095
-0.0167612
-0.0169258
-0.0160802
-0.016012
-0.0162466
-0.0175309
-0.0190329
-0.02105
-0.0230213
-0.025288
-0.0273378
-0.0294496
-0.0309936
-0.0320707
-0.0325396
-0.00121307
-0.00308665
-0.00753811
-0.0141612
-0.0229317
-0.0241642
-0.0224065
-0.0180814
-0.0168615
-0.0169148
-0.0175901
-0.0181591
-0.018709
-0.0191491
-0.0196469
-0.0201215
-0.0206527
-0.021072
-0.0214455
-0.0217463
-0.00214587
-0.0120358
-0.0140705
-0.0158664
-0.0206962
-0.0200223
-0.0205461
-0.0202225
-0.0196523
-0.0185694
-0.0178039
-0.0173081
-0.0171304
-0.0170644
-0.017082
-0.0171058
-0.0171579
-0.0171849
-0.0171834
-0.0170746
-0.0192739
-0.0141936
-0.0206097
-0.0252779
-0.0293925
-0.0321002
-0.0354628
-0.0362927
-0.0352801
-0.0315936
-0.027329
-0.0237796
-0.0222488
-0.0225542
-0.0242927
-0.0266873
-0.0294177
-0.0319182
-0.033793
-0.0341376
-0.00394019
-0.0221195
-0.0225262
-0.0262579
-0.0309277
-0.0391269
-0.0487161
-0.0556217
-0.0580647
-0.0560067
-0.0523993
-0.0498741
-0.0500244
-0.0525419
-0.0566563
-0.0612848
-0.0665968
-0.0731464
-0.0818041
-0.092502
-0.000683229
-0.00318982
-0.00481992
-0.00587041
-0.0071834
-0.00871474
-0.011396
-0.0154235
-0.0215358
-0.0296775
-0.0398814
-0.0515819
-0.0613118
-0.0650455
-0.064516
-0.0621157
-0.0578121
-0.0517247
-0.0437658
-0.0371617
-0.000678549
-0.00216403
-0.00402686
-0.0059035
-0.007384
-0.00823119
-0.0099065
-0.0120639
-0.0153008
-0.0187864
-0.0227115
-0.0250264
-0.025148
-0.0229252
-0.0201822
-0.0183287
-0.0175605
-0.0173942
-0.0174132
-0.0176947
-0.000505529
-0.00387333
-0.00867536
-0.0108388
-0.0120541
-0.0109836
-0.011694
-0.0127159
-0.01463
-0.0162218
-0.0177432
-0.0186707
-0.0189908
-0.0186978
-0.0183213
-0.0178635
-0.0175559
-0.0175804
-0.0177421
-0.0179281
-0.0050398
-0.00994661
-0.0136979
-0.01359
-0.014155
-0.0110062
-0.0105589
-0.0110571
-0.0125986
-0.0140922
-0.0154768
-0.0164838
-0.0171205
-0.0173491
-0.0172357
-0.0168507
-0.0164217
-0.0160879
-0.0158315
-0.0157609
-0.00283171
-0.00484805
-0.00783644
-0.00884233
-0.0106032
-0.00979583
-0.00996826
-0.00991547
-0.0108916
-0.0122673
-0.0139491
-0.0155536
-0.0169698
-0.0180183
-0.0186713
-0.0189019
-0.0188466
-0.0185158
-0.0180357
-0.0175314
-0.0009137
-0.0037247
-0.00470812
-0.00469375
-0.0056486
-0.00625469
-0.00737247
-0.00839183
-0.00982538
-0.0112288
-0.0131942
-0.0155401
-0.0181643
-0.0208666
-0.0235669
-0.0261578
-0.0286176
-0.0303538
-0.0310987
-0.0288974
-0.00177057
-0.00279376
-0.00292824
-0.00345221
-0.00423682
-0.00537193
-0.00699582
-0.00878941
-0.0107675
-0.0118566
-0.013032
-0.0153197
-0.0184542
-0.0219984
-0.0256449
-0.0290107
-0.0319306
-0.0341336
-0.0354381
-0.0339448
-0.00189856
-0.00133176
-0.00202607
-0.00364277
-0.00449814
-0.00508035
-0.00554935
-0.00693723
-0.00850548
-0.0100249
-0.0116383
-0.0137992
-0.0165882
-0.0200019
-0.0236903
-0.0263681
-0.0282842
-0.0293192
-0.0295739
-0.0280407
-0.00122354
-0.00204135
-0.00405433
-0.00613859
-0.00695266
-0.00650871
-0.00614577
-0.00655227
-0.00775649
-0.00913774
-0.0105543
-0.011749
-0.0130707
-0.0151624
-0.0184552
-0.0218378
-0.0241604
-0.0250442
-0.0244878
-0.0222417
-0.00399757
-0.00643458
-0.00817761
-0.00988101
-0.0110536
-0.0107698
-0.00957472
-0.00856664
-0.00935707
-0.0102389
-0.010655
-0.0103846
-0.0104933
-0.0114687
-0.013906
-0.0179191
-0.0197969
-0.0204954
-0.0198427
-0.0179032
-0.00116346
-0.00529978
-0.0085377
-0.0107004
-0.0132147
-0.0146399
-0.017417
-0.0211011
-0.0221817
-0.0213462
-0.0197152
-0.0200243
-0.0228601
-0.0248967
-0.021537
-0.018261
-0.0178864
-0.0175948
-0.0169992
-0.0159888
-0.00221325
-0.00744929
-0.0122898
-0.0142695
-0.0165014
-0.0173738
-0.0185088
-0.0201484
-0.0229185
-0.0242144
-0.0281884
-0.034333
-0.0398165
-0.0405883
-0.0270391
-0.0167339
-0.0158942
-0.0157172
-0.0156694
-0.0154391
-0.00262357
-0.00610975
-0.00901465
-0.0103908
-0.0118528
-0.0122505
-0.0128456
-0.0139841
-0.0145321
-0.0152979
-0.0170957
-0.0191477
-0.0198607
-0.0189512
-0.0157998
-0.0159045
-0.0161934
-0.0165536
-0.0167769
-0.0167955
-0.00168971
-0.00345857
-0.00622244
-0.0086994
-0.0106166
-0.0115753
-0.0121255
-0.0124229
-0.0128568
-0.0135297
-0.014331
-0.0151845
-0.0159094
-0.0167464
-0.0175542
-0.0182142
-0.0187492
-0.0191214
-0.0191368
-0.0189982
-0.00078147
-0.00259949
-0.00560869
-0.00879458
-0.0104236
-0.0108153
-0.0110976
-0.0110543
-0.011566
-0.0121251
-0.0130286
-0.0138359
-0.0147485
-0.0155877
-0.0163905
-0.0169442
-0.0173181
-0.01733
-0.0170844
-0.0168114
-0.0021587
-0.00444836
-0.00768376
-0.0106744
-0.0112326
-0.0108353
-0.0106621
-0.0106511
-0.0110342
-0.0114033
-0.0119537
-0.0123504
-0.0128261
-0.0131336
-0.0134733
-0.0136247
-0.0137844
-0.0137373
-0.0136574
-0.0137005
-0.00249947
-0.00521092
-0.00876258
-0.0115377
-0.0138993
-0.0127993
-0.0119234
-0.0112189
-0.0113098
-0.0114971
-0.0117164
-0.0117777
-0.011798
-0.0117662
-0.0117554
-0.0117581
-0.0118064
-0.0119028
-0.0120888
-0.0124438
-0.00317711
-0.00829476
-0.0107813
-0.0130704
-0.0143913
-0.014499
-0.0141991
-0.0134861
-0.0130421
-0.0129116
-0.0131261
-0.0134458
-0.0138117
-0.0141087
-0.0143571
-0.014488
-0.0145182
-0.0144286
-0.0142606
-0.0140053
-0.00976395
-0.0149022
-0.0192117
-0.0220658
-0.0232945
-0.0235499
-0.0235828
-0.021643
-0.0191709
-0.0168224
-0.0157795
-0.0160279
-0.0172651
-0.0190339
-0.0211011
-0.0232118
-0.025241
-0.0268473
-0.0277899
-0.0276023
-0.0033883
-0.0154948
-0.0155462
-0.0174496
-0.0217108
-0.0275252
-0.0324982
-0.0334881
-0.0311328
-0.0267041
-0.0229402
-0.0207084
-0.020372
-0.0213579
-0.0234919
-0.0266174
-0.0310335
-0.0369644
-0.0442283
-0.0514498
-0.00031361
-0.0022199
-0.00431039
-0.00634314
-0.00791495
-0.00920862
-0.0108986
-0.0127278
-0.0152839
-0.0181119
-0.0215199
-0.0249262
-0.0269806
-0.0259893
-0.0234275
-0.0202414
-0.0167499
-0.0140326
-0.0128776
-0.0130248
-0.000289662
-0.00118735
-0.00321244
-0.00578644
-0.00767143
-0.00877308
-0.00954688
-0.010019
-0.0106308
-0.0109933
-0.0116136
-0.0119166
-0.0121232
-0.011965
-0.0119057
-0.0120815
-0.0124027
-0.0128746
-0.0134957
-0.0142135
-0.000690621
-0.00292229
-0.00552231
-0.00777804
-0.00903379
-0.00970142
-0.0104173
-0.0108265
-0.0112713
-0.0114186
-0.0115754
-0.0115759
-0.0115808
-0.0115529
-0.01163
-0.0118081
-0.0121661
-0.0127194
-0.013407
-0.0141534
-0.00765079
-0.00643332
-0.00751386
-0.00848597
-0.00879165
-0.00905941
-0.00969884
-0.0102909
-0.0108119
-0.0110163
-0.0111519
-0.0111421
-0.0111514
-0.0112012
-0.011372
-0.0116902
-0.0121884
-0.0128111
-0.0134897
-0.0141579
-0.00158839
-0.003951
-0.00561564
-0.0064542
-0.00721891
-0.00786
-0.00866632
-0.00948259
-0.0101933
-0.0106379
-0.0109473
-0.0110766
-0.0112074
-0.0113354
-0.0115584
-0.0118778
-0.0123114
-0.0128316
-0.0134205
-0.0140333
-0.00164042
-0.00268189
-0.00377699
-0.00491429
-0.00583782
-0.00694094
-0.00788955
-0.00888981
-0.00979683
-0.0105253
-0.0111659
-0.0116341
-0.0120622
-0.0124395
-0.0128149
-0.0132042
-0.0136242
-0.0139791
-0.0143614
-0.0146161
-0.000945759
-0.00239912
-0.00309902
-0.00404997
-0.00505067
-0.00619343
-0.00732107
-0.00844556
-0.00946396
-0.0103661
-0.0111872
-0.0119303
-0.0125801
-0.0131356
-0.0136501
-0.014031
-0.0143646
-0.0146467
-0.0149178
-0.0149417
-0.000886807
-0.00197273
-0.00321332
-0.00428616
-0.00518205
-0.00608523
-0.00664225
-0.00784378
-0.00889852
-0.00985441
-0.0107185
-0.0115165
-0.0121763
-0.0128427
-0.0128757
-0.0129775
-0.013056
-0.0131705
-0.0133774
-0.0135484
-0.00187979
-0.00250126
-0.00438042
-0.00590869
-0.00670247
-0.00667389
-0.00674322
-0.00732869
-0.00823783
-0.00912371
-0.00998179
-0.01074
-0.0114272
-0.0119931
-0.0123241
-0.0120895
-0.0119911
-0.0119631
-0.0120368
-0.0121944
-0.00691873
-0.00598881
-0.00698102
-0.00839536
-0.00898087
-0.00884476
-0.00841652
-0.00833688
-0.00852238
-0.00877971
-0.00933094
-0.0101112
-0.0108436
-0.0114903
-0.0108328
-0.0107803
-0.0107798
-0.01092
-0.0111814
-0.011535
-0.0010086
-0.00444696
-0.0071019
-0.00938172
-0.0104899
-0.0113197
-0.0124867
-0.0137745
-0.0144105
-0.0147642
-0.0151034
-0.0148815
-0.013361
-0.0122573
-0.0104877
-0.0102318
-0.0102687
-0.0105607
-0.011049
-0.0116352
-0.000964719
-0.00501061
-0.00812625
-0.0103227
-0.0114143
-0.0116662
-0.0117482
-0.0123532
-0.0135746
-0.0151513
-0.0169026
-0.016817
-0.0144355
-0.0124153
-0.00963339
-0.00975256
-0.0100961
-0.0107394
-0.0115399
-0.0123918
-0.00229194
-0.00532957
-0.00815587
-0.00960499
-0.0102872
-0.0100002
-0.0101299
-0.0102743
-0.0100756
-0.0102284
-0.0101248
-0.00993342
-0.00954189
-0.00909754
-0.00962103
-0.0100883
-0.0107356
-0.0115715
-0.0125141
-0.0135343
-0.00160457
-0.00481681
-0.00771396
-0.00930132
-0.00960413
-0.00917949
-0.00901999
-0.008851
-0.00872552
-0.00869118
-0.0086485
-0.00879905
-0.00901389
-0.00944978
-0.00998823
-0.0106235
-0.0113793
-0.0122626
-0.013248
-0.0143287
-0.00305908
-0.00466103
-0.00736173
-0.00879832
-0.00876579
-0.00844701
-0.00841301
-0.00830011
-0.00830732
-0.00824825
-0.00832029
-0.00846083
-0.00877161
-0.00921653
-0.00980909
-0.0105201
-0.0113833
-0.0123805
-0.0135144
-0.014689
-0.00259305
-0.00707927
-0.00887598
-0.00908261
-0.00865086
-0.00838738
-0.00825254
-0.0082341
-0.0081963
-0.00816203
-0.00822118
-0.00835733
-0.00865846
-0.00908222
-0.00968253
-0.0104234
-0.0113409
-0.0124101
-0.0136251
-0.0148405
-0.00255314
-0.00733005
-0.00890202
-0.00929004
-0.00931986
-0.0089502
-0.0088277
-0.00874973
-0.0086827
-0.00862786
-0.00863177
-0.00873684
-0.00898984
-0.00939845
-0.00997276
-0.0107004
-0.011581
-0.0126065
-0.0137662
-0.014923
-0.00476789
-0.00922604
-0.009711
-0.00988403
-0.00956299
-0.00961096
-0.00985106
-0.0101082
-0.0104049
-0.0104896
-0.0105449
-0.0105034
-0.0105153
-0.0105545
-0.0107111
-0.0109996
-0.0114753
-0.0121396
-0.0130032
-0.0139724
-0.0132227
-0.0157095
-0.0155972
-0.0144684
-0.0133055
-0.0120772
-0.0112573
-0.0111572
-0.0119189
-0.0131986
-0.0145353
-0.0157144
-0.0165907
-0.0170248
-0.0169955
-0.0165165
-0.0157777
-0.0149652
-0.0143424
-0.0139815
-0.0117561
-0.0116544
-0.0121228
-0.0141638
-0.016389
-0.0166458
-0.0155796
-0.0128452
-0.0110947
-0.0101909
-0.0106233
-0.0119943
-0.0142364
-0.0170566
-0.0201691
-0.0230943
-0.0253216
-0.0264158
-0.0261741
-0.0244977
-0.0173039
-0.0307913
-0.0302096
-0.0121881
-0.0125611
-0.0198946
-0.0185997
-0.0207263
-0.0298263
-0.027832
-0.0125793
-0.012325
-0.0181122
-0.0168251
-0.0385152
-0.0494875
-0.0511231
-0.0247876
-0.0226122
-0.0305442
-0.032643
-0.0333742
-0.0518988
-0.0549711
-0.0219445
-0.0208645
-0.0336011
-0.0370833
-0.10521
-0.117241
-0.105865
-0.0984886
-0.082595
-0.0920577
-0.0657058
-0.0969277
-0.102589
-0.0954147
-0.0825945
-0.0845246
-0.0637867
-0.0680126
-0.0992307
-0.0935705
-0.0904831
-0.0865544
-0.0917769
-0.0696735
-0.0731239
-0.112033
-0.0906092
-0.094728
-0.0956898
-0.107912
-0.0749393
-0.0866966
-0.13145
-0.0971618
-0.10573
-0.114665
-0.130691
-0.0919104
-0.106958
-0.153398
-0.108827
-0.11798
-0.137453
-0.150387
-0.111394
-0.121047
-0.172015
-0.120994
-0.128284
-0.154891
-0.157723
-0.122517
-0.114959
-0.179986
-0.1299
-0.129302
-0.157691
-0.143769
-0.107668
-0.080268
-0.109832
-0.131561
-0.126195
-0.10666
-0.0719933
-0.123611
-0.116914
-0.0960725
-0.122334
-0.109645
-0.067127
-0.0674565
-0.114319
-0.104985
-0.0901187
-0.106199
-0.0992216
-0.0685628
-0.0712478
-0.102584
-0.0982721
-0.0921553
-0.0977288
-0.0952224
-0.0730415
-0.0837968
-0.0977258
-0.09813
-0.100094
-0.0949582
-0.0955182
-0.0883215
-0.101173
-0.0987855
-0.101383
-0.109426
-0.0960421
-0.0981818
-0.104998
-0.113736
-0.102286
-0.10429
-0.11833
-0.099041
-0.101731
-0.115186
-0.108849
-0.104412
-0.100368
-0.119973
-0.102472
-0.103142
-0.102075
-0.0762713
-0.096543
-0.0793144
-0.136567
-0.129937
-0.138163
-0.125453
-0.1291
-0.124093
-0.13412
-0.125103
-0.139229
-0.140382
-0.129583
-0.123801
-0.135868
-0.139381
-0.110442
-0.140448
-0.140464
-0.121111
-0.114414
-0.14041
-0.143275
-0.103819
-0.140607
-0.141
-0.112911
-0.110174
-0.144132
-0.145996
-0.101853
-0.140947
-0.140519
-0.109707
-0.108788
-0.146336
-0.146295
-0.101402
-0.140406
-0.137654
-0.108467
-0.106792
-0.14586
-0.141899
-0.101348
-0.135195
-0.124611
-0.105812
-0.0999481
-0.139591
-0.130253
-0.100673
-0.120926
-0.110649
-0.096335
-0.0811335
-0.126545
-0.113868
-0.134654
-0.115597
-0.126348
-0.114675
-0.130837
-0.111536
-0.12454
-0.138611
-0.128458
-0.13384
-0.133285
-0.137745
-0.127122
-0.132709
-0.141841
-0.136072
-0.142108
-0.139147
-0.143677
-0.134424
-0.138754
-0.145164
-0.145146
-0.153172
-0.145156
-0.148959
-0.140609
-0.146829
-0.147446
-0.156955
-0.164663
-0.149974
-0.152116
-0.149787
-0.156554
-0.148275
-0.168229
-0.171602
-0.152531
-0.151871
-0.158478
-0.157876
-0.140587
-0.172448
-0.166941
-0.150789
-0.144321
-0.155298
-0.144527
-0.123297
-0.164739
-0.15081
-0.141162
-0.129124
-0.140728
-0.134128
-0.0143061
-0.0155064
-0.0123265
-0.0124893
-0.0121484
-0.0130384
-0.0103317
-0.0163133
-0.0118501
-0.0118166
-0.0124902
-0.0130392
-0.0102131
-0.0113602
-0.0182417
-0.0121891
-0.0146614
-0.013793
-0.0163219
-0.012084
-0.0150975
-0.0269451
-0.0161433
-0.0248031
-0.0178352
-0.0216194
-0.0163743
-0.0207648
-0.0457853
-0.0298445
-0.0492236
-0.0231736
-0.0263003
-0.0222592
-0.0259184
-0.0576313
-0.0551171
-0.0653301
-0.0271444
-0.027646
-0.0265795
-0.0260012
-0.0498987
-0.0650759
-0.053916
-0.0274466
-0.025876
-0.0249182
-0.0206896
-0.0379115
-0.0486696
-0.0352397
-0.0255806
-0.0248493
-0.0193893
-0.0170368
-0.0177035
-0.036028
-0.0430407
-0.0207054
-0.0146446
-0.0334212
-0.0373286
-0.0144739
-0.0450788
-0.0499988
-0.0137077
-0.0138999
-0.0375844
-0.0374499
-0.0168324
-0.0512664
-0.0564458
-0.0144562
-0.0169892
-0.0374342
-0.0377465
-0.0275486
-0.0590146
-0.0667294
-0.0180869
-0.0219864
-0.0378165
-0.037635
-0.0509106
-0.069402
-0.0754161
-0.0233397
-0.0265871
-0.0374042
-0.0356315
-0.0658171
-0.0760668
-0.0734563
-0.0271114
-0.0262181
-0.0343264
-0.0298671
-0.0556628
-0.0709654
-0.058551
-0.0250784
-0.0207512
-0.0282037
-0.0239209
-0.0363711
-0.0532578
-0.0395566
-0.0194652
-0.0173778
-0.0230673
-0.0231392
-0.0527569
-0.0548549
-0.0651022
-0.0390563
-0.0458741
-0.0414288
-0.0471703
-0.0706563
-0.0715248
-0.0943362
-0.0472263
-0.0486456
-0.0490715
-0.0557461
-0.0809838
-0.0998743
-0.109953
-0.0487292
-0.0488942
-0.0574326
-0.0596385
-0.0872444
-0.111881
-0.116873
-0.0487236
-0.0478047
-0.0598332
-0.0608975
-0.0882395
-0.11841
-0.122659
-0.0469595
-0.0426472
-0.0615484
-0.0646238
-0.0794596
-0.123804
-0.124389
-0.0404896
-0.0340545
-0.0658758
-0.0687691
-0.0609008
-0.123147
-0.114999
-0.0320235
-0.0275703
-0.0691363
-0.0681745
-0.0420349
-0.111
-0.0962678
-0.026858
-0.0275611
-0.0673248
-0.0652404
-0.0638052
-0.0526129
-0.0496683
-0.0429815
-0.0452941
-0.0373728
-0.034805
-0.0893686
-0.0464163
-0.0541258
-0.0461572
-0.0520677
-0.0333289
-0.0332538
-0.106033
-0.0573411
-0.058499
-0.0539416
-0.0558249
-0.0336266
-0.0345425
-0.110899
-0.0553139
-0.0538163
-0.0554813
-0.0553825
-0.0342092
-0.0349555
-0.118932
-0.0554512
-0.0650549
-0.0559134
-0.0600649
-0.0357109
-0.040183
-0.127886
-0.0679968
-0.0783754
-0.0621276
-0.0694298
-0.0421682
-0.0497233
-0.12802
-0.0813818
-0.0935914
-0.0715966
-0.0754364
-0.0522276
-0.0605244
-0.114521
-0.0962131
-0.105538
-0.0756997
-0.0756318
-0.0626884
-0.0691544
-0.00713222
-0.00824995
-0.00755321
-0.00693423
-0.00691426
-0.00789192
-0.0076387
-0.00825636
-0.00760683
-0.00856967
-0.00717444
-0.00833516
-0.00788282
-0.0092974
-0.0104601
-0.00908922
-0.0112112
-0.00891023
-0.0103444
-0.0098076
-0.0111422
-0.0139153
-0.0121585
-0.0157422
-0.0108701
-0.0120071
-0.0114831
-0.01218
-0.0171428
-0.0169965
-0.0196315
-0.0123978
-0.0131832
-0.0122836
-0.0122224
-0.0177717
-0.019842
-0.0184348
-0.0135101
-0.0142716
-0.0120912
-0.01161
-0.0174115
-0.0175371
-0.0152099
-0.0147475
-0.0160306
-0.0114935
-0.0114899
-0.0191316
-0.0147373
-0.0144153
-0.0168915
-0.0193628
-0.0116299
-0.0124901
-0.0103197
-0.0213109
-0.0257236
-0.0123164
-0.0101878
-0.019513
-0.0211414
-0.0102352
-0.0267862
-0.0288713
-0.0100842
-0.0108146
-0.021252
-0.021011
-0.0127086
-0.0294027
-0.0309739
-0.0111359
-0.0119828
-0.0208035
-0.0198762
-0.0159864
-0.014823
-0.0167615
-0.0131428
-0.0178351
-0.0138306
-0.0154045
-0.0178383
-0.0195251
-0.0210043
-0.0158124
-0.0217764
-0.0162797
-0.0175585
-0.019033
-0.0266116
-0.0228187
-0.0121556
-0.0116953
-0.0166052
-0.0171188
-0.0155292
-0.0216055
-0.0195855
-0.0116327
-0.0118766
-0.0177571
-0.0204074
-0.0150116
-0.0196839
-0.0222822
-0.0120766
-0.0129101
-0.021254
-0.0227151
-0.031852
-0.0280769
-0.0336967
-0.0230676
-0.0254476
-0.0243444
-0.0263599
-0.0382116
-0.0363532
-0.0447989
-0.0258429
-0.0259686
-0.0269911
-0.02887
-0.0406405
-0.0466266
-0.0491129
-0.0258134
-0.024928
-0.0292452
-0.0301269
-0.0400942
-0.0398406
-0.0478704
-0.0334486
-0.0480661
-0.0342898
-0.0399042
-0.0379076
-0.0362326
-0.0461128
-0.0335522
-0.0448711
-0.0329559
-0.0386429
-0.0268782
-0.0560987
-0.058794
-0.0209122
-0.0221203
-0.0383292
-0.0420302
-0.0237293
-0.0593286
-0.0598724
-0.0229874
-0.0261913
-0.0432198
-0.0461025
-0.027449
-0.0598503
-0.0604818
-0.0271226
-0.0283015
-0.0466216
-0.0461179
-0.0323803
-0.0255537
-0.0238128
-0.0249882
-0.0255493
-0.0211306
-0.0200267
-0.0417488
-0.0232387
-0.0254551
-0.0258232
-0.0273057
-0.0196929
-0.02012
-0.0452891
-0.0259941
-0.0263229
-0.0275357
-0.0277988
-0.0201472
-0.020238
-0.0460127
-0.0257163
-0.0264488
-0.0280348
-0.0302282
-0.0203566
-0.0221006
-0.0514809
-0.0272489
-0.032135
-0.0313735
-0.0359202
-0.0230225
-0.0269201
-0.0599966
-0.034019
-0.0423067
-0.0376412
-0.042809
-0.0282025
-0.032615
-0.0658815
-0.0448727
-0.053053
-0.0443463
-0.0476376
-0.033427
-0.035183
-0.0683641
-0.0548753
-0.0598111
-0.0480701
-0.0471803
-0.0346789
-0.0327734
-0.0063165
-0.00708831