/*--------------------------------*- C++ -*----------------------------------*\
  =========                 |
  \\      /  F ield         | OpenFOAM: The Open Source CFD Toolbox
   \\    /   O peration     | Website:  https://openfoam.org
    \\  /    A nd           | Version:  10
     \\/     M anipulation  |
\*---------------------------------------------------------------------------*/
FoamFile
{
    format      ascii;
    class       volVectorField;
    location    "7";
    object      U;
}
// * * * * * * * * * * * * * * * * * * * * * * * * * * * * * * * * * * * * * //

dimensions      [0 1 -1 0 0 0 0];

internalField   nonuniform List<vector> 
12920
(
(168.233 123.158 -165.876)
(-15.9725 11.5495 -11.1803)
(79.2202 32.7437 -6.55605)
(19.0028 24.1288 -6.55311)
(64.6799 25.0854 -6.44863)
(52.9294 18.4671 -7.94908)
(79.5837 16.1676 -7.26439)
(85.9627 12.1042 -10.0521)
(110.114 9.63859 -12.8723)
(136.964 8.20845 -14.0342)
(163.819 8.41906 -7.71216)
(166.679 7.91001 -1.63974)
(152.839 7.77738 4.23676)
(108.009 3.53861 7.94969)
(83.2843 -3.0805 5.23835)
(71.8774 -6.36841 3.37196)
(67.9024 -8.09094 2.29874)
(66.8021 -8.86 1.60823)
(65.8749 -9.08035 1.33016)
(73.3224 -9.09863 1.35621)
(45.9336 183.602 -21.8923)
(-34.1566 49.1219 2.18111)
(90.8061 46.7719 14.691)
(11.038 4.31435 7.0424)
(61.3751 -5.97541 6.20302)
(45.0254 -10.79 1.82792)
(73.0293 -9.24971 1.92456)
(77.1226 -11.0034 -0.463393)
(98.5105 -12.0293 -0.396141)
(109.072 -14.8137 0.995421)
(118.241 -9.99502 3.52983)
(113.838 -5.80681 5.05125)
(96.2375 7.57088 6.53684)
(76.2205 10.6497 4.56553)
(64.5623 3.29895 2.47564)
(54.4592 -1.95854 1.28346)
(48.3167 -3.27597 0.342244)
(44.9108 -2.52511 -0.502809)
(43.5598 -1.77228 -0.973034)
(48.4 0.0290497 -0.895078)
(90.5225 -10.907 -172.607)
(-41.928 29.7034 -20.0095)
(113.743 16.4046 6.87027)
(45.3153 -18.1448 10.3602)
(82.8525 -14.8651 11.8796)
(45.5178 -18.7763 6.29491)
(56.7296 -15.1647 4.80086)
(44.0199 -16.074 2.61124)
(52.2041 -15.5906 2.47455)
(48.9658 -14.5361 1.62348)
(53.9456 -9.37876 1.63172)
(54.2121 1.39172 0.796384)
(57.3453 7.16512 1.03455)
(58.5445 7.16875 0.908498)
(57.887 4.97718 0.797588)
(49.6178 3.03769 0.843317)
(41.9462 1.537 0.404443)
(37.4434 0.941776 -0.117829)
(35.5515 -0.551148 -0.31766)
(37.9997 -0.439769 0.110572)
(52.978 18.1787 -86.2068)
(-92.4964 -0.871835 -15.6506)
(92.4101 -59.5735 -2.29711)
(54.5356 -69.1068 1.02402)
(105.52 -58.0701 9.90206)
(65.7688 -39.0584 8.0234)
(70.8508 -28.4984 8.17676)
(42.8129 -25.8024 3.13605)
(45.8082 -26.0241 1.90244)
(37.7381 -24.3534 0.880167)
(40.2212 -20.5677 0.688893)
(36.5398 -12.3533 0.260332)
(40.4892 -2.20097 0.268826)
(37.7111 3.8198 0.41586)
(36.2473 7.60018 0.595253)
(30.322 9.26203 0.419035)
(27.4331 8.09582 -0.0209095)
(25.0582 6.19242 -0.138033)
(25.0422 3.91797 -0.0822233)
(27.1172 3.16451 0.495881)
(8.79766 -113.996 -38.8947)
(-75.0053 -79.1205 -46.3811)
(116.512 -95.0227 -29.533)
(84.5329 -81.013 -18.2408)
(131.048 -73.7394 -6.69625)
(106.324 -50.6947 -3.45429)
(103.079 -28.596 6.17796)
(60.6947 -14.3743 3.81193)
(56.5234 -18.0554 2.34421)
(46.1428 -15.0873 1.21933)
(46.8587 -10.4686 0.623229)
(38.2582 -1.38119 -0.200217)
(37.7987 3.69006 -0.0411417)
(33.6402 8.16217 0.00359268)
(33.2004 9.46824 0.13754)
(31.0319 10.0062 0.03588)
(30.7152 8.50769 -0.112627)
(29.229 6.17543 -0.176328)
(28.7073 1.67974 -0.0922395)
(29.2122 -0.301585 0.524924)
(214.839 -75.8637 -48.5531)
(102.568 10.1581 -11.0576)
(145.259 -14.1683 -12.4515)
(88.696 -40.6554 -8.98616)
(116.015 -35.146 -3.21953)
(86.0353 -16.9431 -5.23453)
(99.2516 -9.15566 -1.2929)
(87.0751 -6.44911 -0.577748)
(83.1951 -22.6919 3.00985)
(58.4901 -24.6457 3.3928)
(46.682 -16.2249 1.70815)
(37.6281 -4.55317 0.534544)
(36.9426 2.62007 0.161388)
(35.6197 7.64268 0.038678)
(36.77 9.91224 -0.151892)
(38.0714 11.476 -0.401305)
(40.2737 11.1455 -0.6272)
(42.6106 10.4183 -0.627236)
(44.5416 7.81728 -0.0826624)
(43.7239 5.30312 0.75119)
(119.723 -51.7117 53.3889)
(-62.5141 -40.3368 10.3107)
(129.93 -41.0588 -3.29688)
(70.726 -51.5472 -4.80235)
(127.857 -42.3136 -4.94529)
(122.112 -25.4228 -9.74111)
(162.65 -24.0266 -8.18374)
(180.939 -5.70884 -3.4129)
(179.05 -7.47505 1.55455)
(131.161 0.728738 6.614)
(82.5592 1.06208 5.91868)
(57.0371 5.65407 2.26203)
(48.782 5.36624 0.687541)
(43.1942 7.77553 0.343496)
(42.8197 7.63551 0.283869)
(43.2212 8.4041 0.261675)
(44.646 7.63907 0.237195)
(47.6172 5.43218 0.197351)
(50.0669 4.24851 0.455124)
(52.6487 4.10205 0.984764)
(148.885 -249.288 -143.066)
(-11.1282 -73.1868 -10.8323)
(97.1152 -96.7888 -8.26986)
(6.34881 -64.7395 -2.69399)
(71.569 -47.6091 -2.99868)
(35.3391 -18.3043 -3.47267)
(65.9243 -15.8739 -1.11747)
(61.0372 -8.71979 -1.31519)
(66.3399 10.9688 0.444129)
(54.4819 25.2218 0.94052)
(47.1222 26.4547 0.0928744)
(41.575 21.2084 -0.0367422)
(40.2072 17.9447 -0.0522917)
(38.1524 16.9777 0.0384823)
(34.6846 8.18653 0.116312)
(37.4164 6.6581 0.154473)
(39.8882 5.36438 0.108523)
(42.6726 3.2607 -0.0477599)
(44.4301 3.70475 0.140855)
(46.6571 4.82845 0.705891)
(115.802 213.111 -180.661)
(33.156 66.4623 -19.4353)
(102.697 31.0384 -4.67667)
(8.73487 -14.2944 2.06486)
(42.4234 -29.1838 2.98433)
(-0.296429 -22.7988 -0.472863)
(20.7934 -13.7567 0.200483)
(34.5923 6.00864 -0.407389)
(36.9363 16.0788 -0.302893)
(41.2958 18.612 -0.0362761)
(45.5856 21.3596 -0.0580517)
(43.3448 20.7305 0.0679357)
(38.8823 18.4908 0.0916797)
(35.2873 16.3845 -0.0124362)
(33.5947 15.6383 -0.190035)
(34.7761 2.54386 -0.866968)
(40.437 1.23236 -0.544657)
(42.3623 0.78332 -0.474274)
(43.7292 2.96932 0.101837)
(44.3279 5.53396 0.616747)
(-58.4545 191.758 -135.054)
(-289.529 -1.43405 -16.9143)
(-8.59301 -0.692537 -4.15828)
(-121.731 -17.8705 -1.32013)
(11.7547 -32.1535 -0.311067)
(-33.2667 -23.6133 -0.608291)
(-10.7536 -22.1141 -0.105578)
(14.2249 -3.58693 -1.61402)
(33.5357 6.53487 -0.473468)
(40.992 8.52778 -0.287007)
(45.5102 14.8647 -0.0674387)
(47.4719 15.1462 0.133643)
(47.7213 13.9102 0.079539)
(41.7282 13.2489 0.0793946)
(43.8024 11.6093 -0.862542)
(45.971 4.98869 -1.31586)
(47.0764 1.00809 -0.739002)
(47.124 1.30068 -0.66224)
(46.5936 4.62944 -0.159199)
(44.8788 7.96815 0.618711)
(120.427 84.9823 3.35212)
(57.6514 16.3334 -28.3842)
(113.488 -10.4655 6.12393)
(36.4373 -34.5436 6.77431)
(63.2082 -57.2259 5.06023)
(-8.33933 -29.1811 -0.516253)
(9.10715 -26.5607 -0.35617)
(16.054 -18.203 -0.927003)
(23.6044 -9.05215 -0.159008)
(29.923 -0.816631 0.123093)
(37.6856 3.57915 0.397595)
(45.2548 6.63019 0.464244)
(51.8069 10.8271 0.158587)
(55.7591 14.3797 0.00100062)
(59.4952 13.0318 -0.289024)
(57.2215 8.38611 -0.442185)
(54.1759 5.42078 -0.14863)
(50.2712 4.7005 -0.434413)
(47.7035 9.22241 -0.281674)
(47.2975 11.3675 0.507935)
(-72.1973 -29.5047 -80.8371)
(-90.523 -32.482 -6.84124)
(139.846 -25.0102 17.3123)
(71.981 -25.5113 7.12847)
(106.659 -15.1387 3.1058)
(37.7808 -26.8899 6.08807)
(23.1975 -31.3319 1.70844)
(22.6898 -27.8689 -0.236104)
(32.9844 -20.3076 0.315611)
(32.9055 -13.7455 0.288317)
(35.9412 -12.5105 0.371978)
(41.2831 -10.7282 0.517413)
(44.8606 -7.91602 0.614514)
(50.296 -1.28702 0.655935)
(59.6315 9.82192 -0.0800554)
(49.8885 11.513 0.414352)
(48.0332 10.1059 0.433146)
(44.7118 10.334 -0.483282)
(43.5201 13.0318 -0.57859)
(45.9923 13.5149 0.261695)
(126.612 -94.5937 -36.0462)
(14.2145 -106.374 -12.2918)
(97.4977 -89.9412 -12.9743)
(52.1672 -50.5074 -6.88486)
(105.01 -19.0485 -0.434528)
(69.0332 -32.8766 0.214266)
(88.3068 -21.8027 -0.123215)
(76.7141 -25.1175 -1.83676)
(67.8407 -19.0376 -0.00872093)
(52.3977 -16.2021 -0.306877)
(43.4431 -14.7618 0.0226469)
(33.8261 -13.8492 0.123274)
(28.2967 -9.14061 0.0212975)
(26.1615 -4.83632 -0.736449)
(24.2331 6.35954 -0.711523)
(31.5657 8.92607 0.0107267)
(31.846 11.0665 -0.216658)
(34.7478 11.6362 -0.515912)
(35.9495 14.7246 -0.581009)
(41.5016 14.7612 0.346518)
(80.8838 133.275 -117.673)
(-62.251 -67.8244 -2.09015)
(97.8884 -100.308 -3.62539)
(5.24776 -63.8361 -3.89479)
(84.103 -41.9328 -0.575155)
(49.1662 -32.95 -1.81041)
(61.1655 -1.85101 0.692043)
(37.4578 -11.9971 1.02442)
(34.69 1.48174 1.82392)
(23.1516 -5.99263 1.30031)
(22.8151 -1.41585 0.561131)
(17.3063 -4.36502 0.190299)
(18.4301 -1.40115 -0.112901)
(17.659 -1.29478 -0.143526)
(20.3431 2.77557 -0.0839894)
(21.9453 4.00593 -0.27296)
(24.9243 7.65272 -0.254866)
(28.1634 8.65804 -0.188175)
(30.3002 11.9031 -0.051419)
(36.7717 12.2284 0.776002)
(279.23 70.4748 -37.6664)
(42.1799 -82.0024 -8.35938)
(119.672 -61.9985 -10.4386)
(39.3111 -34.6774 -5.56619)
(68.963 -20.1281 -0.745621)
(21.2804 -18.2942 0.137854)
(40.4463 -2.71411 1.18476)
(22.8198 -6.02054 1.03803)
(30.054 0.137341 0.68203)
(22.751 -3.66279 0.408192)
(24.9579 -2.23661 0.148017)
(21.227 -3.0725 0.0935055)
(21.445 -1.15485 0.0656947)
(19.2819 -0.0889561 0.076196)
(19.0168 1.94568 -0.0306961)
(19.3939 2.85049 0.00962757)
(19.7185 4.9391 -0.0327314)
(22.4604 5.65116 -0.0531502)
(23.5723 7.9506 0.0921018)
(28.9083 8.96599 0.734582)
(503.987 148.808 -278.21)
(-69.2423 61.2886 13.1094)
(147.136 16.6683 -14.7459)
(1.15575 -3.13461 -0.723882)
(60.9937 -11.4946 -1.57953)
(5.14697 -14.3596 -0.12492)
(30.788 -7.21376 0.185291)
(8.66908 -9.40198 0.692722)
(23.6494 -1.95064 0.273766)
(14.7253 -4.07465 0.0960999)
(21.4657 -0.420151 -0.0797258)
(17.1762 -1.4118 -0.125991)
(20.0783 0.650994 -0.234514)
(17.9482 0.436522 -0.193042)
(19.289 1.93778 -0.135774)
(19.1421 2.25453 -0.082153)
(19.5372 3.66382 -0.0561767)
(21.5446 3.87927 -0.0240318)
(22.159 5.18571 0.0808749)
(25.91 6.02605 0.49869)
(122.055 -186.928 -31.5853)
(79.2842 0.597991 -7.51402)
(164.316 -2.97451 -2.33715)
(88.1294 14.9728 -0.92408)
(106.498 12.3112 1.02974)
(64.7616 2.27917 0.789738)
(60.5535 -2.02487 3.65297)
(27.145 -7.66762 2.04889)
(30.0095 -5.64046 0.47568)
(17.6005 -5.7302 0.039916)
(21.367 -3.92263 -0.141644)
(16.868 -2.71501 -0.14734)
(19.0383 -1.33885 -0.130927)
(17.3615 -0.113775 -0.113656)
(18.2365 0.980135 -0.124946)
(18.3384 1.71849 -0.0830015)
(18.7961 2.71887 -0.131695)
(21.0405 2.86216 -0.063554)
(21.8554 3.46073 -0.110082)
(26.1673 4.15371 0.283547)
(252.378 70.7564 -191.727)
(47.0678 73.2375 -24.1922)
(148.306 58.9829 5.60069)
(40.1786 21.8692 2.88642)
(82.6246 23.9144 4.88771)
(31.0116 16.608 0.644829)
(50.7003 19.9662 0.864712)
(20.2879 12.4729 -1.40715)
(31.8814 8.37153 -1.36819)
(19.7317 3.71145 -1.2544)
(26.0804 1.74997 -0.782917)
(21.3109 0.74775 -0.473705)
(24.3427 0.840829 -0.2875)
(22.4663 0.881783 -0.2387)
(23.649 1.35409 -0.281687)
(23.3303 1.4016 -0.276977)
(23.6213 1.7746 -0.305678)
(25.2008 1.62641 -0.350789)
(25.7315 1.31237 -0.377719)
(30.7393 1.40403 0.1827)
(158.469 151.543 116.98)
(13.9294 69.9908 0.229748)
(164.494 36.0189 5.76661)
(63.5793 20.9217 7.02016)
(80.9294 14.2448 11.2834)
(33.6847 23.5401 2.89975)
(53.1836 17.7187 1.38869)
(33.3487 16.4989 -0.470263)
(44.7687 6.8698 -0.933191)
(36.1643 4.33822 -0.835354)
(39.448 -0.0383444 -0.334762)
(33.8541 0.298509 -0.200603)
(33.8395 -0.0935201 -0.0967869)
(31.0684 1.37563 -0.295502)
(31.1596 1.66391 -0.506662)
(30.6892 2.74063 -0.717577)
(30.7086 2.78765 -0.87451)
(32.3474 3.13164 -1.08019)
(32.7784 1.85338 -1.30956)
(40.1792 1.40104 -0.862855)
(51.7511 104.352 180.846)
(-50.0059 57.4263 -4.46171)
(145.701 27.6361 -14.3778)
(44.6179 21.9905 3.0699)
(84.9072 25.397 5.99744)
(54.7192 26.2482 6.32706)
(79.1679 25.3975 5.57466)
(71.2687 22.8776 4.33845)
(84.5916 18.1729 3.23532)
(81.1765 14.5501 2.18949)
(86.125 9.8166 1.42676)
(82.7369 8.26585 1.48419)
(82.0498 5.95542 1.64083)
(77.643 5.38654 1.88223)
(74.9389 5.53754 2.02737)
(71.623 5.8837 1.85722)
(70.2867 6.05521 1.48304)
(70.1506 5.99094 1.27314)
(69.123 4.57487 0.917072)
(74.5158 3.90157 1.00727)
(147.701 8.75611 -220.766)
(21.6201 9.12578 -14.1834)
(81.7362 22.396 -18.5332)
(19.3231 1.10716 -12.6525)
(59.7757 0.078976 -7.07907)
(39.857 -5.49425 -8.08492)
(63.5139 -6.79212 -4.85707)
(61.9113 -8.05806 -5.75833)
(74.4426 -8.78854 -5.56018)
(76.5412 -11.0567 -6.22628)
(87.5319 -10.0492 -3.41352)
(96.5807 -6.79429 4.88401)
(93.444 -2.63059 13.4209)
(80.1202 -1.28032 14.3093)
(73.4043 -3.64683 9.45166)
(69.6703 -4.47295 6.19393)
(69.0007 -5.00841 4.5825)
(69.8295 -4.61899 3.69453)
(70.1622 -4.27679 2.71559)
(78.9491 -3.81632 2.55081)
(30.2507 146.701 23.1846)
(-95.6882 18.7692 -46.4237)
(64.2074 22.8863 2.04741)
(-6.32407 -16.0255 4.84605)
(55.6939 -19.0545 9.68329)
(34.0377 -21.59 1.80129)
(58.1836 -18.7785 2.58307)
(53.3546 -18.1621 -1.32343)
(65.027 -17.433 -0.834177)
(64.7319 -17.4264 -0.898979)
(71.5698 -13.079 2.26289)
(67.035 -5.35255 5.70353)
(62.3759 5.23892 8.97124)
(55.3926 7.72437 6.65201)
(50.239 3.19037 3.55401)
(45.2164 0.0578123 1.57116)
(42.4696 -0.782995 0.0425265)
(40.7456 -0.682638 -1.33326)
(39.9269 -0.443316 -1.8323)
(44.213 0.834783 -1.28626)
(137.552 -66.4614 63.9543)
(-64.0244 -0.9801 7.21297)
(91.601 -1.59232 18.0169)
(17.7336 -20.0451 13.0508)
(67.8812 -12.5997 18.598)
(29.7593 -18.3777 8.19358)
(44.3108 -14.4674 7.43849)
(30.2526 -14.7696 2.83423)
(38.8525 -13.1222 2.86204)
(34.6162 -11.1787 0.874721)
(39.4227 -5.78987 1.11667)
(37.2578 2.62219 0.328674)
(39.4697 7.59325 1.53537)
(39.9702 8.06017 1.59423)
(39.6082 6.08402 1.56639)
(34.6623 4.28436 1.39108)
(31.1724 2.68282 0.569754)
(28.7633 1.67575 -0.254339)
(27.9406 0.234136 -0.538046)
(30.2187 0.468438 0.692794)
(65.2145 79.394 -22.0005)
(-149.894 -24.4392 14.5638)
(54.8598 -48.6496 8.38628)
(-24.3931 -38.6898 10.3106)
(56.6514 -25.9393 19.7322)
(15.6582 -15.7331 11.1586)
(41.5978 -16.0875 11.6786)
(22.5947 -16.4706 3.4404)
(30.06 -17.4477 2.78895)
(22.77 -15.946 0.839439)
(26.3624 -12.2689 0.841717)
(23.2362 -4.79997 0.463326)
(26.0938 2.37365 0.775143)
(24.5502 6.14104 0.909732)
(24.5034 7.66504 1.11141)
(21.8218 8.10922 0.743177)
(20.0905 6.32262 0.084867)
(18.4498 4.42415 -0.0221699)
(18.8715 2.44584 0.135451)
(20.361 1.99312 0.811951)
(252.031 -295.01 -58.8985)
(-9.3024 -99.8951 -34.2948)
(98.6316 -91.0442 -15.704)
(20.0198 -65.3287 -12.5105)
(68.6887 -50.8773 -0.00587376)
(32.7997 -21.7946 -1.63042)
(49.6805 -15.6141 8.65437)
(29.6475 -8.33004 4.07621)
(32.7906 -11.5476 4.26818)
(26.2146 -8.47741 2.25955)
(28.7419 -5.15085 1.46767)
(23.3315 1.58527 0.338497)
(24.0182 5.31492 0.355049)
(21.7109 8.40357 0.3138)
(22.2005 8.87684 0.283548)
(21.2722 9.10933 0.10233)
(21.1807 7.34204 -0.0800867)
(20.052 5.18107 -0.0402196)
(20.1612 1.74041 0.313779)
(20.909 0.195804 1.08388)
(279.245 -326.335 52.4165)
(133.474 -33.1253 22.8573)
(143.8 -35.5695 1.53401)
(53.2219 -53.512 -5.64839)
(80.6701 -37.8017 -0.0144627)
(40.8449 -13.1431 -5.71942)
(57.6495 -6.59782 1.33326)
(40.1643 -3.50695 0.303387)
(41.2383 -14.223 5.04003)
(29.5612 -15.181 4.29603)
(26.5297 -9.9657 2.64001)
(21.5856 -1.30797 1.12111)
(22.4972 3.57275 0.45319)
(22.197 7.02095 0.236841)
(23.8406 8.3555 -0.0671986)
(24.6801 8.93402 -0.467276)
(26.2106 8.07423 -0.738536)
(26.8722 7.00184 -0.664071)
(27.7587 4.4055 0.349487)
(27.416 2.33869 1.92405)
(137.043 52.5029 -133.049)
(-60.7332 -38.661 14.8085)
(121.083 -49.1727 1.14186)
(45.2112 -59.3524 -3.38978)
(99.3836 -40.0698 -4.85812)
(70.7331 -20.3299 -10.8733)
(89.6902 -17.5965 -6.97875)
(84.4095 0.0495634 -4.01549)
(84.1473 -2.45073 6.52655)
(59.8845 5.77913 11.8622)
(45.3332 3.22175 9.00618)
(33.7944 5.91375 3.67309)
(30.8796 4.92246 1.42231)
(28.0233 6.52296 0.743182)
(28.6543 6.00838 0.611771)
(29.3999 6.4961 0.388351)
(30.8548 5.38812 0.294373)
(32.2279 4.34983 0.210068)
(33.3299 4.02168 0.724966)
(34.7511 3.78566 2.36011)
(144.445 -250.135 -22.0831)
(12.1636 -59.2518 -4.40749)
(98.621 -99.3009 -22.3741)
(11.616 -71.7328 -5.18125)
(65.9961 -49.5326 -3.6225)
(24.0596 -13.6445 -5.78033)
(57.1075 -11.7183 -4.44899)
(45.2419 -3.57291 -3.5964)
(43.3569 8.4185 -0.251071)
(35.1501 19.7649 2.20174)
(31.7579 19.8734 1.95015)
(27.9915 16.9376 0.927175)
(27.7209 14.8307 0.371417)
(26.7776 14.5656 0.422426)
(24.241 6.63984 -0.104685)
(27.4659 5.34103 0.168923)
(28.568 5.4064 0.039672)
(29.5642 4.46108 -0.0610749)
(30.0131 4.99501 0.445929)
(31.0271 5.33795 2.0086)
(232.729 323.871 -52.1728)
(83.5338 75.6585 -28.1652)
(89.9897 31.649 -15.7201)
(-8.67667 -11.4117 -0.578778)
(29.1263 -21.0182 1.82397)
(0.718991 -16.4586 -0.0665968)
(24.2755 -9.9409 -1.59683)
(25.2644 7.42445 -3.09425)
(22.4747 11.3044 -1.23619)
(24.1669 14.6903 -0.323194)
(27.1066 16.965 0.19594)
(27.1378 16.0398 0.731179)
(26.7958 14.3154 0.640224)
(26.6844 12.4086 0.122715)
(26.2107 13.113 -1.08529)
(25.8845 1.80539 -1.39722)
(29.8586 2.85849 -0.47134)
(29.6663 3.38174 -0.420727)
(29.6336 5.52964 0.568432)
(30.0313 6.15261 1.89378)
(-79.4954 -57.9581 -128.468)
(-259.653 29.3741 -34.4321)
(-15.9522 5.84222 -8.64615)
(-123.352 -16.1822 -0.573726)
(-2.1744 -28.0781 0.672291)
(-34.931 -19.9878 -0.0558573)
(-7.25752 -19.011 -1.75316)
(11.6773 -1.71741 -4.06898)
(22.0742 3.07209 -1.28505)
(27.6108 5.7681 -0.643567)
(31.7739 9.29305 0.0888536)
(34.4342 10.0065 0.448633)
(35.2762 9.88133 0.386654)
(35.1304 8.49227 -0.740571)
(36.5718 7.09132 -2.10801)
(34.2756 1.6022 -1.89405)
(34.5131 1.27527 -0.909422)
(32.8236 3.54472 -0.75066)
(30.8805 7.5797 0.509865)
(30.9778 7.71985 1.85434)
(195.858 -28.8238 18.448)
(-3.90523 -7.34631 8.3797)
(80.2125 -13.6035 12.1384)
(4.83804 -36.9788 6.06223)
(41.1791 -52.9977 6.04651)
(-6.8572 -39.1729 3.5514)
(5.96907 -31.5593 -0.170654)
(10.3699 -19.8879 -0.65466)
(18.6066 -11.0609 -0.199198)
(25.0634 -3.81228 0.708218)
(32.4604 0.680736 1.9975)
(39.2307 4.15804 2.00524)
(45.1827 7.83085 0.913208)
(49.1261 9.12209 -0.219973)
(50.281 7.41595 -1.12797)
(42.5692 2.73352 -0.694432)
(38.8345 4.17829 -0.111482)
(34.6457 6.47905 -0.53388)
(32.3836 9.94874 0.0963564)
(33.5195 9.38378 1.6468)
(-85.3873 -99.5869 54.6335)
(-152.275 -33.1981 -80.9392)
(127.262 -0.581612 4.4081)
(63.5767 6.93379 -5.45636)
(94.0738 -5.12037 15.372)
(50.3237 -19.2741 4.70359)
(39.1615 -32.4081 4.21013)
(25.2847 -30.1376 1.11973)
(26.2231 -20.0628 2.60015)
(27.0676 -13.4774 1.53868)
(30.328 -10.071 1.58935)
(34.705 -6.41083 1.82604)
(39.9044 -1.11883 1.79685)
(46.1524 3.86668 1.2893)
(47.1933 7.33633 -0.670253)
(34.4578 9.12152 0.0935127)
(34.0192 9.08068 0.243474)
(31.4659 9.86336 -0.630351)
(30.6239 11.4572 -0.270908)
(32.8313 10.2805 1.45092)
(199.058 -8.84038 63.7132)
(11.1694 -79.3492 30.195)
(75.4681 -69.6733 7.08229)
(16.6516 -33.4233 0.711987)
(75.0618 -10.1439 6.55501)
(35.4717 -30.3743 3.88591)
(61.8351 -18.5017 4.32643)
(44.7151 -23.7857 1.82853)
(37.3447 -17.2681 2.38373)
(27.9619 -14.975 1.17916)
(25.0779 -11.8286 0.738984)
(21.324 -9.1915 0.195356)
(21.8556 -5.18159 -0.894816)
(21.5483 -1.04184 -1.91421)
(17.1983 5.54385 -1.11068)
(22.9428 7.58545 -0.482035)
(23.0139 8.97849 -0.4653)
(25.2621 9.32603 -0.570911)
(26.0549 10.8135 -0.427706)
(30.0335 9.77213 1.45687)
(8.22187 4.09653 164.189)
(-172.798 -88.5197 -27.4979)
(55.7156 -94.0155 -3.07377)
(-36.8333 -57.4796 -6.118)
(57.0837 -41.5909 -1.01861)
(16.6001 -33.5566 -0.224166)
(37.1256 -6.62721 2.1703)
(16.3792 -16.1157 2.26332)
(19.9201 -2.23092 2.80617)
(10.3665 -8.39508 1.87396)
(12.0081 -2.5879 0.843581)
(7.84655 -4.85732 0.283854)
(10.1475 -1.45592 -0.191993)
(10.1102 -1.59361 -0.216864)
(13.1553 2.53715 -0.189591)
(14.7013 2.97129 -0.612117)
(16.8858 5.91954 -0.427148)
(19.7044 6.35356 -0.194078)
(21.3849 8.06997 -0.000445786)
(25.9467 7.94482 1.61113)
(303.881 -202.928 6.69025)
(88.2825 -103.032 1.59999)
(118.103 -74.8533 -18.2708)
(22.1546 -44.1179 -9.77237)
(53.7788 -28.8555 -1.40782)
(3.58851 -23.9001 0.385869)
(27.3366 -5.91702 1.52452)
(9.60611 -8.6192 1.7374)
(18.6605 -1.58369 1.16695)
(11.4007 -5.02402 0.806319)
(14.2555 -2.63571 0.441409)
(10.8366 -3.31456 0.235645)
(11.825 -1.42785 0.168941)
(10.3935 -0.562488 0.107689)
(10.7794 1.13015 0.0600446)
(11.7381 1.65357 0.0399451)
(12.4342 3.44037 0.0101154)
(15.2685 3.8751 -0.0668833)
(16.3825 5.3524 0.19203)
(20.3955 5.9963 0.972322)
(110.505 144.517 -158.14)
(-32.1189 64.1213 48.2859)
(118.624 22.4483 -21.4263)
(-4.62122 -12.4231 -0.410537)
(48.6647 -21.3307 -2.43953)
(-7.31175 -21.4327 0.401378)
(21.6661 -10.2927 0.457464)
(0.361713 -11.3708 1.18104)
(16.0664 -3.4018 0.510995)
(6.59844 -5.45764 0.387107)
(13.3379 -1.66744 0.0375013)
(8.61048 -2.82523 -0.0319375)
(11.6703 -0.759394 -0.175767)
(9.64305 -1.05556 -0.120284)
(11.2794 0.520622 -0.027846)
(11.336 0.737594 -0.0166054)
(12.0671 2.12287 -0.0296443)
(14.2593 2.26547 0.0110046)
(15.1589 3.39374 0.149504)
(18.4847 4.01692 0.487044)
(124.203 -128.882 104.96)
(81.2561 -50.6663 3.3707)
(155.189 -33.4473 -8.66299)
(61.3705 -12.964 -8.39844)
(79.3806 -3.96979 2.35502)
(29.7447 -11.273 2.5484)
(38.4214 -6.21858 5.66046)
(13.5881 -9.19625 2.78)
(21.2635 -5.94782 0.823145)
(10.5105 -6.05294 0.146942)
(15.0964 -4.40822 -0.19272)
(10.6574 -3.62452 -0.130609)
(12.9311 -2.53334 -0.202329)
(11.2115 -1.63171 -0.157562)
(12.1373 -0.744792 -0.187413)
(12.2197 -0.0451588 -0.164075)
(12.7616 0.784626 -0.259944)
(14.915 1.07911 -0.187007)
(15.8172 1.6825 -0.170039)
(19.4722 2.41644 0.173138)
(165.183 170.522 -339.232)
(-57.2607 71.172 1.81514)
(116.53 52.5429 2.56917)
(-13.6672 11.2265 2.66534)
(61.8291 19.8677 5.24292)
(4.01664 7.88621 0.153732)
(37.3504 10.1026 0.154484)
(10.4548 2.99496 -1.99809)
(25.6909 1.16556 -1.84233)
(14.2987 -1.31204 -1.53957)
(21.0948 -1.52189 -0.988369)
(16.2626 -1.55682 -0.681386)
(19.3014 -1.00125 -0.526632)
(17.3543 -0.800724 -0.50366)
(18.5921 -0.324856 -0.592228)
(18.2765 -0.217128 -0.612808)
(18.7112 0.0371574 -0.682707)
(20.2694 -0.0106706 -0.700781)
(20.9351 -0.252685 -0.661173)
(24.9924 -0.19646 0.286302)
(97.1806 118.964 18.516)
(-140.774 12.1982 -19.105)
(97.0073 8.61674 21.8182)
(-13.9087 8.45452 8.63365)
(59.5996 0.404572 12.412)
(22.0208 6.07727 2.18319)
(50.7915 -2.34205 -0.110103)
(35.0255 -0.637145 -2.53058)
(46.2465 -5.71422 -2.73243)
(37.52 -3.88293 -2.2341)
(39.9927 -5.01315 -1.02797)
(34.4996 -2.95803 -0.693562)
(34.7006 -2.68214 -0.325723)
(32.1836 -1.17434 -0.586893)
(32.4048 -0.885823 -0.889689)
(31.9672 -0.0768612 -1.18648)
(31.9975 -0.154484 -1.46851)
(33.2345 -0.0580872 -1.75724)
(33.2677 -1.05249 -1.88475)
(38.5165 -1.49098 -0.764284)
(376.393 -36.0145 -177.681)
(116.775 22.8373 16.9675)
(163.435 9.21175 5.82911)
(61.2512 19.2921 17.5056)
(92.7148 19.6851 13.6814)
(67.5713 18.0045 10.0872)
(88.7883 14.2053 7.83397)
(79.8748 11.8171 5.53187)
(89.1262 8.82744 4.34961)
(84.0954 7.34528 3.09042)
(85.9453 5.70631 2.72615)
(81.9248 4.98634 2.85816)
(81.7952 3.83979 3.18869)
(79.2403 2.93653 3.36222)
(78.9506 2.4813 3.47783)
(78.141 2.16758 3.19052)
(78.1462 1.98001 2.84388)
(78.7383 1.31216 2.41585)
(77.4682 -0.290713 2.08182)
(80.9855 -0.665123 2.57225)
(122.185 124.814 -202.799)
(59.7455 43.8803 -27.7845)
(87.5757 29.2029 -2.37813)
(15.1183 -2.8484 -5.2314)
(51.9969 -5.22746 0.658879)
(25.2868 -9.42131 -4.96288)
(47.8014 -8.43005 -2.04386)
(39.857 -7.01676 -6.29148)
(49.8577 -6.00244 -6.57298)
(45.9831 -6.08025 -8.26343)
(49.7459 -6.47269 -5.465)
(48.6803 -5.65351 1.18379)
(55.3531 -2.5213 10.9003)
(58.8302 -0.845491 13.539)
(63.5163 -1.16737 9.81723)
(65.2235 -1.52616 6.77577)
(67.8584 -1.4934 4.75625)
(70.6455 -0.154092 3.16136)
(72.386 0.102261 1.79113)
(82.2831 0.927496 2.50701)
(104.484 74.5772 -24.4656)
(-139.434 -10.2554 -10.5987)
(45.8986 19.9048 -0.938316)
(-29.7421 -18.6133 2.87157)
(40.7586 -18.6173 7.1445)
(13.3118 -20.5145 -0.231712)
(38.6052 -17.5305 1.80266)
(28.7691 -15.9871 -2.6383)
(38.5312 -14.4423 -1.55733)
(33.2452 -12.9404 -2.105)
(37.0872 -8.93075 1.47471)
(32.6094 -1.72822 4.48706)
(35.5882 4.21482 7.10123)
(36.1048 5.98969 5.49352)
(36.5459 3.6362 3.03788)
(34.9598 1.69207 0.971839)
(34.2347 0.981929 -0.52319)
(33.7442 0.839465 -1.73301)
(33.4512 0.866552 -2.21572)
(37.5367 2.08515 -1.00644)
(128.124 0.636242 11.2574)
(-112.425 24.0179 9.81802)
(66.821 6.57028 13.0764)
(-24.729 -11.4635 13.1212)
(43.9772 -5.76446 16.8593)
(4.81767 -14.1866 6.53489)
(26.7137 -10.6673 6.50754)
(12.2016 -11.1869 2.04167)
(22.4435 -9.19174 2.13695)
(17.5733 -6.94529 0.224936)
(22.0816 -2.81593 0.797216)
(19.5101 3.14608 0.379504)
(22.3313 6.94418 1.3596)
(23.087 7.59898 1.46525)
(24.1523 6.17278 1.57707)
(22.3746 4.80085 1.30974)
(21.1539 3.22964 0.489874)
(19.8773 2.20586 -0.16286)
(19.8976 0.921577 -0.180626)
(21.6391 1.07298 0.241467)
(-2.1537 378.204 17.9223)
(-274.436 20.7025 5.01654)
(-0.0933631 -14.8938 -2.7197)
(-91.1671 -8.5882 14.1357)
(22.4527 -3.18392 17.2363)
(-19.4403 -4.83393 9.47056)
(19.8758 -8.93071 8.91108)
(2.48102 -10.9421 2.86916)
(14.2299 -12.291 2.43034)
(7.47284 -10.9898 0.873574)
(12.1481 -7.91263 0.698133)
(9.51723 -1.9801 0.541199)
(12.7904 3.28751 0.720354)
(12.2864 5.98887 0.921305)
(13.4496 6.7185 0.977742)
(12.6085 6.9744 0.722091)
(11.9962 5.21676 0.16458)
(10.9558 3.53354 0.0345698)
(11.6124 1.96463 0.263987)
(12.7822 1.40189 -0.246412)
(51.5809 -42.5818 -92.83)
(-124.516 -61.509 -26.1326)
(48.8621 -83.2362 -20.0837)
(-40.4178 -45.4754 -8.48366)
(31.2723 -31.0743 1.64485)
(-11.2533 -8.31621 -0.956555)
(18.0596 -9.82397 6.44808)
(2.62823 -4.80433 3.13493)
(12.9854 -8.31924 3.88117)
(8.46409 -4.75622 2.06493)
(13.2901 -2.91383 1.35215)
(10.3775 2.21079 0.607918)
(12.1052 4.99352 0.421163)
(11.0325 7.34319 0.361985)
(12.119 7.6133 0.310613)
(11.7603 7.69751 0.138216)
(11.9926 5.89484 -0.0421517)
(11.308 3.93346 0.0277625)
(11.7653 1.23831 0.474244)
(12.631 0.372024 0.0500639)
(144.374 -45.2258 -15.6538)
(46.8116 -63.7857 10.3014)
(90.9455 -55.4274 9.64989)
(7.1846 -47.186 0.943181)
(49.1518 -26.9704 4.18501)
(3.37361 -5.16782 -2.45188)
(27.4116 -5.18008 2.47963)
(8.8683 -2.74392 1.09389)
(15.1377 -9.68565 4.28343)
(8.25797 -9.33636 3.07436)
(10.4564 -7.16359 2.24036)
(8.20963 -0.702623 1.01872)
(10.3296 2.90096 0.413029)
(10.8099 5.63394 0.255365)
(12.795 6.54688 -0.0828333)
(13.4841 6.90266 -0.424456)
(14.5649 5.9068 -0.630743)
(14.5093 4.74996 -0.544158)
(15.0149 2.40894 0.546253)
(14.9319 1.36802 0.913211)
(94.4599 32.7898 -185.693)
(-82.6548 -35.9479 17.4418)
(104.612 -41.5734 -7.47025)
(8.80797 -47.1629 -6.58421)
(68.1829 -26.6543 -4.43527)
(22.7306 -8.49365 -9.80038)
(38.7983 -11.6925 -4.7437)
(22.7455 5.80762 -1.68385)
(25.9337 1.29209 5.96685)
(19.8729 6.31614 9.80196)
(21.2887 2.6554 7.54422)
(16.9953 4.49669 3.36927)
(16.9334 3.56655 1.28298)
(15.6279 5.01104 0.719115)
(16.6663 4.35278 0.552439)
(17.3421 5.02354 0.214295)
(18.2162 4.16347 0.131008)
(18.706 3.59699 0.22792)
(19.4175 3.36631 0.876826)
(19.9764 2.95053 1.51554)
(131.089 -153.328 7.3077)
(50.5273 -17.9746 -34.8572)
(94.3527 -76.0902 -35.8985)
(-2.76464 -58.4924 -11.7099)
(49.7207 -39.7158 -5.52821)
(1.18048 -3.6798 -5.65406)
(32.0946 -6.74267 -4.00673)
(14.7964 2.13699 -3.53168)
(14.3051 9.05721 0.213739)
(11.8884 16.9713 2.47041)
(14.3957 15.9456 2.00524)
(14.1462 14.286 1.02009)
(15.6001 12.6615 0.431915)
(15.6492 12.8863 0.419995)
(13.5691 5.3335 0.302026)
(16.8082 4.42047 0.270963)
(16.8417 5.16012 0.033237)
(17.1308 4.55281 -0.028284)
(17.394 4.80066 0.648593)
(18.0288 4.48143 1.10426)
(160.49 148.838 -67.0377)
(93.4937 66.3996 -21.6389)
(83.5988 32.2223 -13.0071)
(-18.7119 -9.97957 1.05525)
(18.3799 -15.3365 -1.06029)
(-8.3405 -7.80162 -1.64525)
(12.4756 -4.16687 -3.26148)
(7.6789 6.56165 -2.45568)
(7.2292 7.94327 -1.10426)
(9.4718 11.4746 -0.566365)
(13.3105 13.0599 0.0569858)
(15.1826 12.265 0.438213)
(16.8946 11.0466 0.18369)
(18.1087 9.63245 -0.339822)
(17.2108 11.4879 -1.2136)
(15.1373 1.85031 -0.375167)
(18.3808 3.69845 -0.103452)
(17.3615 4.25769 -0.022935)
(17.5021 5.42526 0.763017)
(18.1978 4.96208 0.94636)
(-97.8007 81.303 -59.0545)
(-223.4 29.6674 -25.0847)
(-19.9081 12.774 -10.2762)
(-124.13 -12.4285 2.57107)
(-12.3795 -23.6592 0.657944)
(-41.8487 -15.3769 1.35725)
(-11.1591 -13.6742 -1.92157)
(3.66884 -3.12049 -3.01606)
(11.2009 -1.04528 -1.44047)
(15.9358 1.94668 -0.767338)
(19.9006 5.17001 0.154317)
(23.0927 6.2438 0.231774)
(25.0392 5.8659 -0.282543)
(26.2302 4.55672 -1.4362)
(25.8647 4.14203 -2.14909)
(20.9063 1.13334 -0.451023)
(21.1507 2.55711 -0.0618881)
(19.0449 5.24718 -0.0566176)
(18.637 6.99568 0.781385)
(19.3993 5.96126 0.878167)
(58.8053 122.947 64.5992)
(-55.9196 -27.9502 11.217)
(53.1856 -2.0451 9.14671)
(-29.9252 -28.5128 5.64177)
(20.2177 -42.6562 2.49373)
(-21.8701 -33.4884 4.25304)
(-5.63574 -28.0722 1.3668)
(3.31753 -19.0379 0.524562)
(11.9598 -11.8695 0.38403)
(17.6005 -7.45335 -2.15063)
(25.0155 -2.17385 0.960979)
(31.9314 2.95871 1.9371)
(36.8498 4.6245 0.694682)
(38.5644 4.5475 -0.603962)
(35.3447 3.30143 -1.35779)
(24.5101 1.20173 0.690905)
(22.6392 4.63401 0.729758)
(20.4521 6.49962 0.0541103)
(20.0644 8.11058 0.574804)
(21.3992 6.59546 0.799079)
(392.484 -58.4731 -35.4751)
(-247.885 -28.1556 -37.7784)
(81.2866 -0.904901 -3.80061)
(-44.7766 -0.99795 4.51496)
(36.4965 -13.5088 20.4249)
(7.15162 -24.6022 8.39608)
(18.0501 -33.5893 5.74658)
(15.241 -28.475 2.203)
(16.5761 -17.858 2.77487)
(18.9891 -12.4159 1.50133)
(22.9342 -8.26698 1.28685)
(27.1005 -4.02665 1.39799)
(31.7831 0.63016 1.14248)
(35.4889 3.9928 0.315526)
(32.0583 4.56598 -0.910396)
(19.0391 7.2042 0.695937)
(20.2891 7.23407 0.508112)
(18.9806 7.79683 -0.154855)
(19.1855 8.56618 0.244231)
(21.0382 6.77202 0.742435)
(-43.2394 -66.3097 118.851)
(-144.695 -101.196 24.5088)
(26.7179 -73.5937 10.0783)
(-38.7037 -37.4129 6.78285)
(43.5871 -19.9156 6.81847)
(2.88463 -36.2961 3.9198)
(35.5126 -19.7992 4.32031)
(18.39 -21.7426 3.21541)
(17.9634 -15.8694 3.03265)
(13.0866 -13.4465 1.5522)
(13.9625 -10.0367 0.661439)
(12.5473 -6.99074 -0.360795)
(14.6551 -3.36513 -1.42404)
(14.1199 -0.365006 -1.87709)
(8.6859 4.12805 -0.288734)
(13.5785 5.58005 -0.37032)
(13.6261 6.23488 -0.36802)
(15.5847 6.47411 -0.348495)
(16.3678 7.36334 -0.0942027)
(19.2601 6.02832 0.654311)
(452.283 385.637 -120.475)
(-170.132 -41.0307 -11.1572)
(68.7476 -95.2824 -15.1861)
(-55.1677 -58.0117 -1.82554)
(38.3592 -43.1377 -2.93359)
(-5.77452 -34.4481 0.664895)
(18.2617 -8.07234 1.95983)
(-0.310429 -18.7105 2.39614)
(7.0514 -4.00976 2.63165)
(-0.478258 -10.0114 1.53613)
(3.18116 -3.38783 0.821001)
(-0.0397364 -5.53082 0.0950709)
(3.04449 -1.99154 -0.0943148)
(3.04348 -2.36711 -0.139666)