/*--------------------------------*- C++ -*----------------------------------*\
  =========                 |
  \\      /  F ield         | OpenFOAM: The Open Source CFD Toolbox
   \\    /   O peration     | Website:  https://openfoam.org
    \\  /    A nd           | Version:  10
     \\/     M anipulation  |
\*---------------------------------------------------------------------------*/
FoamFile
{
    format      ascii;
    class       volScalarField;
    location    "8";
    object      nut;
}
// * * * * * * * * * * * * * * * * * * * * * * * * * * * * * * * * * * * * * //

dimensions      [0 2 -1 0 0 0 0];

internalField   nonuniform List<scalar> 
12920
(
0.46895
2.0231
0.72504
2.34908
1.63259
2.06242
1.41566
1.29336
1.04372
1.04203
0.929423
0.871239
0.746195
0.625443
0.509086
0.443709
0.397176
0.363245
0.346448
0.333632
2.11143
4.70597
2.29919
6.09287
4.55481
5.9296
3.16181
3.03461
1.91008
1.71819
1.35774
1.24333
1.08393
1.01199
0.997266
1.05227
1.09241
1.10109
1.09118
1.05887
1.19312
5.39549
4.74451
6.57329
4.25123
4.71971
3.10557
3.14382
2.39245
2.15589
1.68683
1.49009
1.31298
1.30745
1.31441
1.36379
1.37847
1.38208
1.3627
1.33007
12.0976
11.315
10.1853
8.60797
6.63834
6.91838
4.01743
4.11076
2.91019
2.87499
2.3319
2.113
1.81751
1.70098
1.61725
1.59453
1.58366
1.57144
1.53849
1.46809
4.54498
12.1919
10.3425
9.07122
4.93422
4.79911
3.01591
3.06771
2.57696
2.66496
2.38708
2.32493
2.1323
2.05176
1.95092
1.88437
1.81964
1.70888
1.63421
1.52428
5.04135
8.52056
7.66116
7.24487
5.79537
6.18324
4.05281
4.73494
3.23025
3.14811
2.64218
2.50393
2.28151
2.16217
2.04642
1.94841
1.81912
1.64294
1.55584
1.47832
2.80183
7.66007
4.23136
7.31454
4.95996
6.69187
4.09967
4.17182
3.22553
3.09197
2.68392
2.56806
2.34547
2.261
2.13891
1.91256
1.60908
1.37664
1.28193
1.32309
9.90908
8.47806
9.66296
8.68432
7.05566
6.698
1.89656
1.55716
1.11553
1.06328
0.896039
0.825341
0.740223
0.677889
2.11636
1.64807
1.33597
1.22492
1.21719
1.27529
12.4125
9.96594
8.7433
8.88534
7.44529
2.76769
0.612328
0.431116
0.355268
0.320316
0.275211
0.245285
0.217598
0.191675
0.601426
1.36501
1.13879
1.03744
1.00421
1.03817
5.72899
13.7288
9.84177
6.47954
5.12595
2.04993
0.781785
0.48021
0.404617
0.346069
0.269042
0.226369
0.186152
0.155477
0.452168
1.14786
1.01537
0.921907
0.843642
0.84789
12.9318
16.9514
11.1414
7.7791
2.94926
1.44317
0.577576
0.376613
0.318282
0.280177
0.237471
0.192258
0.14974
0.119833
0.391252
1.21843
1.13139
1.05588
0.970701
0.881474
6.08826
9.91471
7.66738
6.64967
3.13569
1.39723
0.488098
0.257442
0.137289
0.122109
0.166377
0.201877
0.182286
0.157582
0.500139
1.34635
1.19799
1.09526
1.03195
0.948513
10.8833
15.7471
7.40578
7.06853
2.80852
5.13731
1.47038
1.59468
0.983973
0.913524
0.610618
0.543153
0.467592
0.431097
1.43618
1.24391
1.1154
1.01316
0.943607
0.902584
18.3913
18.6354
11.5297
8.3046
3.81241
5.85103
5.23714
5.04189
3.80288
3.34872
2.53004
2.27243
1.85655
1.61315
1.35547
1.18822
1.05007
0.947537
0.881845
0.841955
8.72043
15.6957
10.2297
8.71871
5.54077
7.89461
5.89981
5.66007
3.79143
2.91253
2.24739
2.06522
1.8652
1.61073
1.32354
1.14115
1.00949
0.916795
0.861906
0.808254
3.76493
8.18995
8.07755
8.32122
6.37964
7.62367
5.48701
5.01671
3.64275
3.24465
2.51255
2.1832
1.85025
1.63657
1.3642
1.18143
1.02562
0.920404
0.848901
0.794579
0.483342
5.7976
5.83581
7.34123
5.43893
6.30534
3.89875
3.79974
2.93784
2.58949
2.02377
1.75843
1.47085
1.27807
1.13414
1.09211
1.02365
0.958127
0.902757
0.8477
0.262533
5.57105
7.48944
6.8473
4.52519
5.23741
3.30925
3.39068
2.08798
1.74713
1.26842
1.12626
1.02317
1.06557
1.06732
1.08779
1.0386
1.00474
0.964233
0.919223
0.259409
9.24942
6.55813
7.28909
3.09309
3.88268
2.65329
2.92422
2.14769
1.94611
1.45978
1.20044
0.928563
0.873167
0.84723
0.871549
0.86399
0.879207
0.870132
0.900829
1.43646
4.93496
3.28213
2.59327
1.78502
1.88168
1.52871
1.70409
1.42858
1.38213
1.15859
1.05761
0.894314
0.726472
0.585078
0.51143
0.465967
0.404278
0.344137
0.304387
2.92948
10.6286
7.54202
16.5047
12.2299
16.1007
9.28315
8.91539
6.51321
5.68889
4.4657
3.71018
3.05151
2.63132
2.55762
2.83093
3.03029
3.12232
3.13433
3.09101
10.1998
4.17473
11.2046
22.0936
28.9664
29.4747
24.8205
22.2284
19.4953
18.5463
17.2116
16.4345
15.048
14.3226
14.6598
15.5407
16.0674
15.9865
15.6273
14.8689
11.6701
26.8568
30.3175
33.9612
34.4826
32.147
28.4103
26.8466
23.8671
21.9976
19.255
18.1902
17.2511
17.3373
17.7701
18.2294
18.448
18.1381
17.83
17.0382
15.6271
46.1748
45.8416
39.7515
37.8173
34.6561
30.8507
29.3257
26.7589
25.5595
23.4503
22.2682
20.8003
20.392
20.0973
19.9229
19.9577
19.4156
18.9346
17.7177
16.4724
43.15
48.2169
42.0118
37.6245
32.8883
28.0287
27.657
26.1728
25.7892
24.7174
24.0586
23.2533
22.7384
22.1722
21.5973
20.9672
19.9748
19.3951
18.1796
9.9897
45.4432
38.3882
33.5213
35.2406
31.5966
29.0202
28.0626
26.5451
25.9247
24.843
24.1317
23.3264
22.7266
22.1793
21.4094
20.2392
18.8776
18.4716
17.9531
6.96392
27.5188
30.4875
34.4001
36.4687
34.5303
30.5961
28.2457
26.2554
25.2632
24.2132
23.4394
22.5157
21.8
21.0222
19.5294
17.1766
15.577
15.9969
16.6314
28.3928
47.2943
42.7751
41.078
40.4053
35.5917
25.5214
23.0307
21.744
20.6981
19.8035
18.9112
18.1118
17.1414
17.9565
15.084
13.8827
14.4683
15.3781
15.6616
32.3207
40.7942
41.39
41.2835
40.6807
31.9258
25.8451
22.2086
19.7191
18.7153
17.4902
16.5668
15.5117
14.4108
13.7527
12.7151
12.3955
12.9353
13.3862
14.0661
29.0926
39.8466
36.7467
34.4928
29.1808
26.982
24.8872
21.879
19.5514
17.659
15.549
14.1189
12.5732
11.4091
11.032
11.6991
11.6494
11.7236
11.8019
12.4359
55.1162
32.8716
26.8771
17.5949
12.7073
14.3262
15.9256
16.0257
15.6616
15.3582
12.3706
9.76442
8.62209
8.47649
10.1802
12.7836
12.67
12.6364
12.3461
12.3273
12.8461
21.8004
26.9192
23.1011
12.2926
15.2341
15.9889
12.1347
10.3927
10.8767
12.5114
13.1368
12.5953
11.8737
12.0097
12.9262
12.6147
12.7619
12.7157
12.8581
12.6556
32.5765
34.908
28.0173
18.2187
25.43
20.2996
16.3564
14.7942
13.9283
13.1232
12.544
12.1605
11.7048
13.304
12.9702
12.769
12.5832
12.3798
12.4656
57.13
42.1108
34.2498
29.602
24.8895
30.265
28.4619
25.1497
20.9995
18.3544
17.462
16.8258
15.7719
14.5523
13.376
12.5654
12.2078
12.038
11.9057
11.8487
21.4012
55.9496
56.5486
42.7617
38.1868
38.2565
34.479
30.7511
23.7167
19.2452
17.0803
17.5946
17.1672
15.4396
13.327
11.9545
11.5943
11.5442
11.5366
11.342
26.9068
51.6841
51.7931
37.2118
34.6059
34.4374
29.5073
27.9217
24.2167
22.535
18.5142
17.6723
17.004
15.718
13.3998
11.8346
11.2663
11.2069
11.2898
11.3568
5.95217
24.4953
34.6761
33.7971
27.4622
26.7313
21.8219
21.4398
18.9161
17.6812
15.3358
14.96
13.7905
12.8741
12.1468
12.2876
12.4776
12.3598
12.2565
12.1396
2.20878
25.3634
33.9371
25.9305
21.8237
22.4966
19.469
18.9368
15.1706
12.9244
10.5421
10.3963
10.999
12.2234
12.9304
13.3072
13.4729
13.4452
13.3809
13.2851
1.06326
7.15627
21.803
26.4749
23.8531
21.6856
19.9871
20.4828
18.7672
16.9956
12.9385
10.6503
9.17819
9.71636
10.8478
11.8653
12.5707
12.7477
12.8302
13.1759
2.03413
16.2222
14.5559
11.1907
6.53221
9.85154
10.2172
11.6746
9.01144
8.09595
6.34591
5.47011
4.64262
4.1223
3.50534
3.10491
2.56333
1.96075
1.5855
1.58906
9.66299
32.9382
19.1104
21.3039
16.1751
17.6088
11.8214
11.2628
7.80216
6.82708
5.68956
5.45364
5.10938
4.9963
4.80228
4.80116
4.81482
4.80612
4.80657
4.75619
25.9579
21.4718
22.2737
34.4102
39.8556
39.4644
33.3413
30.5294
27.9398
27.5241
26.8048
26.5015
25.7116
25.3939
25.4348
25.4428
25.2831
24.7761
24.373
23.4094
26.3911
42.4862
43.4452
48.3153
50.2761
47.4862
43.0483
40.528
36.9839
34.6295
32.1756
31.0964
30.2035
29.8601
29.6092
29.1603
28.6732
27.7733
27.1355
25.7419
43.089
59.9726
59.9856
57.1497
55.1224
51.0915
46.8189
44.472
41.4007
39.2777
36.8225
35.1948
33.7211
32.8068
31.9784
31.1104
30.3121
29.0347
28.0993
26.0851
7.40627
52.2359
60.41
60.4818
56.2061
50.7163
45.8714
44.301
42.0817
40.5592
38.7983
37.4099
36.0551
34.8734
33.7066
32.4544
31.1824
29.6085
28.6063
26.5029
12.5811
67.3219
59.4398
56.4944
55.4139
49.6326
46.5323
44.2548
42.1913
40.6887
38.9857
37.5359
36.1291
34.8389
33.593
32.0784
30.5293
28.9506
28.1621
26.5754
24.8979
42.6628
53.5772
55.3381
56.5007
53.0984
47.8794
44.4767
41.5854
39.7917
37.8814
36.3004
34.5454
33.0239
31.3174
29.2228
27.3302
26.2047
26.2074
25.4668
44.7231
62.0887
60.4727
57.5494
57.4895
53.0919
46.2343
41.0445
38.0029
35.4464
33.7332
31.8705
30.2534
28.3815
25.9047
23.9549
23.5244
23.7688
24.0902
23.7243
29.5676
59.9651
57.6893
56.936
57.0122
52.7813
41.9958
38.6852
34.2932
31.4235
29.1266
27.1137
25.1979
23.3093
20.8901
19.1073
19.55
20.1941
20.9563
21.5413
49.5991
58.894
52.2671
50.4485
45.8955
45.0859
42.4088
35.6717
31.091
27.6285
23.8286
21.0457
18.7169
17.0886
15.7128
16.0698
16.7887
17.7093
18.6621
19.9131
69.7472
46.2219
47.0416
38.0284
32.4091
30.3154
30.1949
27.8467
25.7731
23.3101
5.41212
5.50935
8.64355
11.58
14.9126
17.6312
17.995
18.3611
18.6979
19.4599
15.5152
40.4974
44.1606
40.2467
31.5304
30.1072
29.5983
23.4815
21.0044
20.5464
20.2723
19.5929
18.9682
18.422
18.3464
18.8536
18.8768
19.0222
19.1959
19.5321
16.501
42.508
47.2725
49.5376
40.854
43.1593
35.7075
28.6501
25.4763
23.5006
22.4419
21.51
20.7236
19.8578
20.008
19.5951
19.2948
18.9909
18.8186
18.8894
74.5631
58.7806
59.1164
54.094
49.3854
48.8672
41.2333
36.3456
31.3956
28.674
27.0492
25.4238
23.6536
22.0352
20.6872
19.708
19.0481
18.5131
18.1428
17.9169
64.3092
72.4256
71.9441
62.5826
57.4872
54.8326
46.3447
40.8269
33.5351
29.9786
27.8328
26.7595
24.8116
22.5701
20.7096
19.4511
18.7518
18.1943
17.7508
17.2393
34.5159
71.7453
69.6659
59.0851
54.238
49.9884
41.874
39.2332
34.2312
31.3908
27.8784
26.6813
24.8318
22.884
20.8172
19.5285
18.8461
18.307
17.9059
17.4149
24.2567
47.1386
55.595
51.1643
44.8639
41.2162
35.7362
33.8055
29.8182
27.6225
25.0371
24.1204
22.603
21.628
20.7407
20.2816
19.8334
19.3354
18.9275
18.3836
4.93012
33.077
47.4404
41.5945
39.9128
37.0736
32.8977
30.2783
25.4499
23.2196
20.9973
21.0704
21.0929
21.346
20.996
20.5658
20.1215
19.7803
19.6185
19.4866
9.92759
19.0964
26.1399
31.8312
34.2852
33.6836
30.523
29.7481
26.539
24.2959
20.8561
19.5592
18.5208
18.6836
18.5236
18.1439
17.7093
17.5062
17.5915
18.0923
6.02193
8.40842
11.8798
12.6155
11.4048
15.8972
13.2323
14.0968
10.6296
9.65164
7.66897
6.84997
5.84248
5.17885
4.31087
3.45468
2.73143
2.35999
2.23484
2.28609
17.6962
48.5982
35.3606
27.7348
19.5822
18.7104
12.8974
10.776
7.77988
6.95174
6.65073
6.82034
6.78873
6.60563
6.34852
6.06271
5.94548
5.83019
5.83372
5.73307
23.7972
43.2134
44.4374
45.1526
45.5888
40.415
34.4481
32.3273
31.2716
31.5072
31.176
30.578
29.9184
29.2337
28.7734
28.1048
27.59
26.9561
26.5627
25.6294
36.1063
57.5975
58.8737
61.2126
59.1261
53.4476
48.4594
45.1486
42.0676
39.4819
37.6352
36.1998
35.2305
34.1809
33.4035
32.3518
31.4593
30.2828
29.4742
27.9581
56.92
61.9256
71.7948
67.1831
63.4423
58.0758
53.7804
49.7043
46.708
43.72
41.5735
39.6317
38.2722
36.8599
35.6863
34.2932
32.9668
31.2931
30.0683
27.8721
23.8037
52.358
70.5082
70.5318
65.7035
59.0021
54.4646
51.1534
48.4797
45.8328
43.8267
41.9021
40.3625
38.6927
37.2054
35.5084
33.9175
32.038
30.7295
28.1903
32.7934
79.7796
73.4025
70.4132
65.0942
58.2841
54.3542
50.6526
48.2313
45.8848
43.961
42.0231
40.3451
38.6159
37.008
35.2099
33.6982
31.9641
30.8239
28.5451
34.5587
65.988
72.3605
69.8449
67.7445
61.4213
55.3394
51.0845
47.5004
45.0728
42.5711
40.4333
38.1925
36.1652
34.2053
32.3598
31.0454
29.8779
29.1739
27.572
71.4422
76.6657
75.6565
70.0366
66.4656
60.7118
54.6297
48.8754
44.3823
41.138
38.5503
36.0917
33.8678
31.6038
27.3656
26.8512
26.7667
26.5684
26.3479
25.5817
20.1252
74.9989
73.7485
69.9323
65.8923
61.2586
49.0849
44.8674
39.0584
34.7401
31.694
28.9889
26.7057
24.6159
21.4376
20.6625
21.7694
22.6338
23.2508
23.4826
25.7485
68.1482
64.3669
60.3928
52.5832
51.8536
48.2767
39.2022
32.8348
28.4808
24.2252
20.948
18.2332
16.8029
15.8425
17.6276
19.1235
20.4939
21.5656
22.3278
69.7629
62.4191
60.3894
48.4915
43.0499
39.6462
37.1464
32.024
27.8785
24.2432
10.9734
10.2704
12.0058
13.7871
16.138
18.7538
19.8241
20.6146
21.2715
21.9275
22.2338
55.3529
59.6216
50.1993
43.2893
39.219
36.737
29.177
25.4948
23.6467
21.9924
20.5903
19.5771
19.0703
18.7917
19.813
20.4293
20.8487
21.1404
21.4695
32.6434
60.126
66.1029
61.0283
53.9204
50.9496
41.8189
33.7959
29.3362
27.0436
25.5864
24.2143
22.943
21.6883
21.1521
21.0777
20.8302
20.5552
20.4544
20.447
66.8977
73.9736
76.8009
69.0649
62.7586
56.6833
45.8541
40.9516
35.7073
33.2039
30.4475
28.1617
25.9947
24.1962
22.7498
21.6034
20.7031
19.9149
19.441
19.1773
95.8839
79.2974
84.1722
74.9402
68.5516
61.1464
51.4195
44.627
38.7464
35.1596
32.3404
29.8588
27.288
24.964
23.1395
21.6948
20.5856
19.5902
18.8663
18.3444
75.9126
82.0553
80.9077
72.2981
64.9678
57.0173
48.8833
44.2987
39.1855
35.5966
32.3618
30.0516
27.6431
25.4316
23.5532
22.1392
21.0438
20.0556
19.2805
18.5525
86.7532
65.7229
66.0422
61.8532
55.826
49.4016
43.9443
39.4586
35.3534
32.5902
30.1062
28.326
26.5478
25.0158
23.7473
22.6297
21.6954
20.8559
20.211
19.4911
29.448
50.1511
54.8449
52.7296
50.0347
44.5851
39.5505
35.124
30.9377
28.8554
27.1435
26.2673
25.3206
24.222
23.2065
22.1965
21.5534
21.0569
20.8523
20.6395
10.8162
29.852
34.6559
34.134
40.5188
39.0635
35.114
33.0527
29.3125
26.9975
24.5931
23.2318
21.9643
20.8742
19.876
19.0245
18.4962
18.3855
18.5274
19.0293
4.62042
25
15.1396
19.5968
14.4176
16.5138
13.6372
12.4312
10.3081
8.88377
7.65592
6.80599
5.84414
4.95212
3.92329
3.16135
2.83303
2.75596
2.74609
2.7496
24.9211
47.2417
24.1626
19.8063
8.14234
7.71857
4.47729
4.5779
3.30376
4.13126
3.64513
4.13019
3.78608
3.81275
3.47655
3.27514
3.11502
3.01267
3.04555
2.8787
44.3514
67.5936
54.5662
55.3076
34.5049
40.1113
19.5819
26.8621
18.5239
23.3219
19.2384
21.0802
19.153
19.7052
18.5315
18.2187
17.6526
17.4138
17.2046
17.6167
36.371
65.2568
49.4674
65.1883
36.896
41.5027
25.8847
30.9252
23.6799
26.4195
22.8714
24.353
22.6251
23.0928
21.9378
21.5353
20.7016
20.0848
19.4972
19.6979
15.2675
74.9812
65.0691
73.3678
47.9095
60.1613
34.7426
48.2761
30.6553
35.9986
28.242
29.6814
26.4413
26.1689
24.1714
23.1433
21.7762
20.6759
19.6112
19.3245
28.6826
43.3129
54.197
78.9418
40.1024
50.7348
30.775
36.9467
29.0301
32.1678
28.1805
29.4259
27.1226
26.9401
25.1942
24.1171
22.6818
21.3092
19.9616
19.2435
59.0192
75.6999
78.8283
76.0775
49.328
60.4269
35.5627
50.2858
35.0801
40.7059
32.7997
33.2085
29.623
28.3444
26.1343
24.6818
23.1075
21.6264
20.304
19.6628
17.898
75.8698
67.738
78.8459
42.3827
62.9999
36.1965
42.7588
33.7738
36.1216
30.7607
30.7463
27.4546
26.5972
24.4692
22.9179
21.6869
20.5763
19.6135
19.543
57.8036
87.0645
83.1378
77.6658
50.5961
57.0964
55.1518
48.3198
42.8045
39.1815
35.9755
33.2063
30.6758
28.4443
20.7292
19.7629
19.0562
18.5666
18.23
18.7477
81.9159
85.7983
83.6345
77.947
54.2886
62.0441
52.8713
41.7257
34.8305
29.863
26.5769
23.8915
21.9706
20.3712
18.9512
16.4774
16.3285
16.4026
16.486
17.345
23.3977
70.5957
72.1691
62.9144
52.8674
49.6379
44.814
33.769
26.5971
21.6517
17.9188
15.25
14.586
14.6043
15.3655
15.1329
14.9655
15.2649
15.5365
16.5155
39.3452
64.0958
64.1755
46.7029
35.6706
38.3987
34.5446
27.37
22.5668
18.9798
14.7642
12.3082
12.5726
14.0365
15.9732
15.275
15.0723
15.1443
15.4081
16.4044
65.9849
66.7515
69.4011
43.7384
45.5063
38.3193
35.008
25.9387
22.0888
19.5283
17.6379
16.4592
16.3889
16.4136
17.1179
15.6733
15.2976
15.2626
15.3181
16.2593
29.4241
71.8703
60.8996
65.0486
39.3184
49.4062
39.9961
32.0008
27.2508
25.0526
23.1109
21.6036
20.2389
19.1014
17.5018
15.8699
15.2022
14.8326
14.8186
15.5027
92.4203
79.2316
59.537
69.5423
52.435
56.7616
38.6472
40.7453
34.9025
32.5146
28.7532
26.3841
21.4776
20.1098
17.466
16.1077
14.7909
14.3256
14.0719
14.6614
77.0746
69.3385
77.6383
81.6895
59.0636
61.72
39.5473
43.884
34.7475
34.3435
25.8196
23.6655
19.6275
18.3196
16.3997
15.1897
14.1704
13.7959
13.5876
14.0107
52.8889
71.3693
86.3818
72.4616
67.0167
57.5553
41.8402
43.7684
30.5261
34.2888
24.2595
24.3866
19.1086
18.4831
16.2715
15.5379
14.3105
13.9346
13.5292
13.9481
56.6913
84.0283
72.8422
65.5249
54.9288
50.6882
33.6897
39.2491
25.6577
30.597
21.4702
21.9429
18.0892
17.8366
16.0868
15.5859
14.8335
14.6849
14.2641
14.6163
54.516
48.4907
51.8286
38.5049
46.2013
45.4765
29.427
34.8393
22.0793
28.7407
19.3912
21.0181
17.0068
17.5017
16.0383
16.2762
15.6813
15.6636
15.1022
15.3648
14.0005
32.3033
30.9345
45.2658
26.3736
39.4763
22.8155
30.7675
18.2873
21.2334
15.7247
16.5746
13.88
13.6506
12.5394
12.3828
11.99
12.1308
12.1303
12.747
1.51823
18.9806
10.3322
14.9851
6.041
8.51631
5.51803
6.55468
4.01321
4.17686
3.00557
2.77764
2.10711
1.84641
1.58501
1.46952
1.37118
1.28942
1.21932
1.16417
24.676
23.4471
6.57893
29.1676
25.7776
24.2979
7.24816
21.6713
5.8664
5.96639
24.8003
22.2896
6.63452
7.59046
6.18156
21.1204
20.0726
20.858
6.97495
23.9415
21.8529
5.00207
19.5243
18.3894
6.34767
6.96537
21.1421
19.7351
0.439896
0.493051
0.438935
17.2509
17.6541
17.7096
17.7469
0.380045
0.450185
0.417305
16.8766
15.1088
17.248
15.9032
0.328673
0.405927
0.365283
14.874
14.4214
15.5495
14.5749
0.289557
0.351161
0.298915
14.2366
13.5188
14.1983
12.9407
0.252931
0.282557
0.247729
13.3215
12.8307
12.5972
11.8953
0.227253
0.239767
0.211354
12.6867
12.0854
11.6713
10.8797
0.200015
0.20182
0.178734
11.8982
11.2838
10.6171
9.91167
0.14667
0.170287
0.125647
11.0777
11.0373
9.67328
9.58447
0.487389
0.679185
0.486263
18.0141
17.5302
14.0425
14.4538
0.41792
0.47903
0.38368
17.0101
15.6438
14.1569
13.4704
0.36078
0.36441
0.3158
15.2711
14.209
13.2604
12.7233
0.28728
0.299745
0.258975
13.8076
12.4515
12.4737
11.1574
0.234824
0.245403
0.209133
12.0828
11.3097
10.6135
9.15909
0.19563
0.195671
0.158466
11.0578
10.1447
8.74037
7.73276
0.16315
0.146594
0.120672
9.86527
9.17067
7.45379
6.89628
0.121905
0.115999
0.0913127
8.96178
8.93387
6.82176
7.05053
0.370935
0.39041
0.219979
11.4031
12.3214
9.8987
9.02477
0.328077
0.193395
0.13926
12.2494
12.1518
8.1669
7.54964
0.289914
0.140695
0.14571
12.1168
12.0506
7.7218
8.34155
0.249568
0.152471
0.197768
11.9761
10.9219
8.7049
10.0664
0.204377
0.204192
0.207637
10.3981
8.90992
10.2742
10.4082
0.160527
0.20554
0.185892
8.49995
7.62597
10.3648
9.97474
0.126189
0.17835
0.15886
7.41808
7.05088
9.81414
9.3872
0.0902332
0.154315
0.123401
7.00493
7.24637
9.27342
9.34708
0.283039
0.566705
0.496515
11.0267
9.98775
10.4266
11.7115
0.147022
0.450688
0.283132
9.08464
7.57348
10.4892
9.38382
0.124334
0.265389
0.249459
7.5016
7.73873
9.08824
9.38816
0.147975
0.245804
0.191801
7.92004
9.21422
9.50593
9.25179
0.19838
0.169175
0.153176
9.65472
10.4174
9.12184
9.01474
0.190153
0.152218
0.154434
10.5043
10.2305
9.03988
8.92282
0.163069
0.152451
0.143239
10.0545
9.54172
8.80687
8.42436
0.12014
0.136195
0.0963593
9.38183
9.45831
8.27143
8.66677
23.3248
25.2746
23.0563
36.5589
37.2058
38.1785
35.547
20.0559
22.2553
20.4001
35.4289
32.1565
34.0113
30.6479
18.9831
19.9371
18.6501
31.4337
29.6063
29.8098
27.5345
17.7805
18.1637
16.6224
29.0361
27.4761
26.7719
24.5641
16.7961
16.2028
15.2611
26.9917
25.6709
23.9299
22.2594
15.7867
14.9502
13.9087
25.2335
23.9413
21.7139
20.0873
14.6971
13.5675
12.6537
23.4961
22.1958
19.583
18.2585
13.6703
12.3603
11.634
21.7489
20.5554
17.868
16.8716
22.6448
19.0287
18.7447
38.7945
34.5079
30.7134
28.8853
20.037
18.3331
17.3724
33.1158
29.8976
28.1191
26.1729
18.1704
17.0922
16.3327
29.0548
26.732
25.6193
23.9388
16.0054
16.0094
13.5668
25.9531
23.3548
22.7923
11.1487
14.4753
12.7273
10.7041
22.5972
20.6528
9.95743
8.36009
12.9346
10.1937
9.09211
20.0639
18.3433
8.40915
9.18388
11.6684
8.83292
8.34642
17.8352
16.5693
9.51384
10.3558
10.9484
8.29811
8.32226
16.2393
15.7024
10.6335
11.572
16.2183
14.1387
12.2916
26.9906
25.9659
24.0813
21.4744
15.7436
11.2778
10.5162
25.4507
24.2249
20.395
19.1056
15.4622
10.6651
11.3068
23.8806
22.8456
18.9923
19.0699
13.2157
11.7021
12.9452
22.0702
10.6027
19.2643
18.9024
10.2775
13.049
12.9387
9.3935
7.53377
18.4934
17.5259
8.78385
12.8445
12.3872
7.4718
8.22189
17.3389
16.9474
8.45478
12.2249
11.7956
8.77926
10.4511
16.8792
16.7016
8.58786
11.6785
11.3441
10.9287
12.1221
16.6468
16.5635
13.2444
15.155
15.8707
26.3209
22.234
21.3235
25.6826
10.4771
14.2652
12.7956
20.909
18.9191
23.707
21.5517
10.6533
12.4157
12.4616
18.6723
18.5017
20.9228
20.0241
12.1397
12.4734
12.1077
18.5878
18.9133
19.8078
19.2271
13.1028
11.9276
11.8148
18.8782
18.5989
18.986
18.6979
12.7853
11.8148
11.6942
18.4847
18.0333
18.6361
18.2913
12.0468
11.5263
11.1553
17.8746
17.4201
18.1278
17.6945
11.4148
10.9803
10.9728
17.2782
16.9413
17.5296
17.3498
40.5451
42.4251
38.4216
44.4629
46.3059
47.9866
42.8467
35.1694
36.7225
32.9384
44.3396
40.1382
40.7755
35.9267
32.0823
31.9749
29.384
38.8887
35.6941
34.6311
31.2953
29.6802
28.5468
26.1427
34.8639
32.6712
30.3115
27.5418
27.6126
25.4404
23.5517
31.9688
29.9802
26.709
24.401
25.6905
22.9471
21.1887
29.3846
27.6996
23.6815
21.6442
23.7913
20.6544
19.2643
27.1411
25.5555
21.0714
19.6658
21.9546
18.8645
17.7794
25.0487
23.6853
19.2928
18.2553
37.215
33.7358
31.3267
47.7852
41.2803
39.2364
35.2844
32.0519
30.4403
28.1315
39.3542
34.6693
33.9987
30.5663
28.4798
27.4695
25.302
33.3965
30.1558
29.6037
26.7976
25.6335
26.6604
26.6199
28.737
25.0546
27.6663
27.5697
19.7167
23.0614
20.5996
24.582
19.7161
23.7489
20.6333
19.2438
6.61687
8.76358
21.5803
19.5498
8.41477
10.6498
17.417
9.38938
10.7869
18.9895
17.736
11.2195
12.552
16.4976
11.1994
12.3466
17.4524
16.9439
12.9718
14.1413
28.4764
27.4622
24.1663
36.234
32.9904
33.9814
29.7674
26.2357
23.1001
21.5487
31.9433
29.0808
28.5941
26.0912
24.2381
21.3108
21.059
28.2744
25.9724
25.4793
24.2476
15.7597
11.9551
22.4827
19.0806
18.3155
2.75325
23.2841
8.97595
4.98547
11.0821
1.83575
10.1953
1.73696
9.58137
7.72075
18.1965
17.8493
7.76772
10.2748
19.4758
18.9256
10.9701
17.8047
17.6945
11.0914
13.024
18.8343
18.6799
12.9354
17.6594
17.5791
13.5485
14.7991
18.6587
18.6618
24.8119
24.4897
28.121
35.6743
30.0283
26.6035
32.7985
21.3416
26.2501
23.9398
28.6455
25.9166
31.0306
28.2642
20.5565
23.1942
21.9771
25.2853
23.9761
27.2711
25.3523
20.4425
21.7239
21.1067
23.6951
22.6306
25.0494
24.305
19.7459
20.8274
20.4534
22.2158
21.1991
23.9376
23.1627
19.117
20.3445
19.941
20.9414
20.2433
22.9652
22.3027
18.5492
19.7464
19.2788
20.073
19.6642
22.0438
21.3438
18.024
19.0933
18.7397
19.559
19.208
21.1274
20.5216
46.8569
50.6454
42.9226
52.7152
45.1775
49.0852
39.8128
40.429
40.7317
35.561
43.0151
37.9239
37.2811
31.3803
35.6027
34.1714
30.6668
36.2506
32.2525
29.7948
25.9528
32.4366
29.6611
26.8578
31.3314
28.8249
24.8982
22.0559
29.5916
26.0117
23.652
27.9957
25.7643
21.2317
18.9817
27.267
22.9103
20.8042
25.1962
23.6048
18.3227
16.884
25.1072
20.2427
18.9077
23.0901
21.6937
16.6351
16.0551
23.3542
18.5644
17.654
21.3012
20.4016
15.9105
15.5805
41.2563
39.7513
35.3035
46.2917
37.8469
37.8966
31.8751
34.1935
33.8689
30.0919
35.4566
29.7769
30.1303
25.8387
29.4796
29.0621
26.3576
28.2399
24.6629
24.7187
22.0464
25.1992
24.6265
12.1841
23.6223
20.6933
21.0811
16.7829
21.6864
11.1659
10.463
19.8136
17.4741
15.6264
13.3281
18.7956
10.6628
11.6382
16.7831
15.2515
12.8356
11.9864
17.0594
11.9249
12.8578
15.0794
14.8414
12.1714
13.1192
16.4021
13.2001
14.2427
14.8018
14.8221
13.4085
14.1759
33.2382
35.2696
30.4634
35.9481
30.3587
35.1056
28.6483
28.7671
29.1901
26.3425
28.7895
24.9469
27.1075
23.8075
25.6151
25.625
24.1777
23.9402
21.6049
22.9498
21.1485
11.9699
23.8053
21.7489
20.75
16.6176
20.6438
18.8602
10.1154
21.0468
19.6027
15.4925
13.3327
18.2786
16.9501
11.4976
19.305
18.5435
12.8956
12.2611
16.6078
15.9435
13.3739
18.4076
18.2213
12.5071
13.5701
15.9881
16.2086
14.8537
18.2005
18.2731
13.876
14.6157
16.2635
16.4085
30.6169
29.456
33.2572
36.2424
28.6868
32.2694
31.4693
26.2153
31.5209
28.6672
27.0769
23.8501
29.8196
27.0465
23.9809
27.5655
25.4865
23.025
21.2076
25.6415
23.4066
22.4383
25.197
24.3934
20.7706
19.3508
23.1101
22.1288
20.8862
23.9949
23.0837
18.8998
17.7769
21.6213
20.5365
19.7634
22.8709
22.1266
17.4723
16.9034
20.3051
19.5252
19.1687
21.8428
21.0667
16.8777
16.815
19.2505
18.5245
18.793
20.84
20.2288
16.7827
16.6849
18.3281
17.8098
43.9242
47.7743
38.2152
29.1923
31.1006
24.424
23.9782
36.5154
35.632
29.7313
29.5369
18.4559
24.4484
19.038
30.7837
28.1487
24.1404
19.2913
17.3698
18.569
15.0652
27.3842
23.0282
20.1713
16.7748
14.1369
14.3467
12.1313
24.4278
19.3818
17.3703
14.3928
13.4671
11.7968
11.0613
22.4376
16.8939
16.092
13.4111
12.3315
11.2085
13.0343
20.7161
15.9765
15.6308
12.5428
12.0948
13.1444
13.1224
19.6987
15.5315
15.3934
12.1572
10.9042
13.1134
11.6718
36.1847
36.3216
30.2732
34.5518
23.6074
32.5776
20.3689
28.1356
28.5683
24.4152
23.542
18.4374
20.6977
16.735
22.7447
23.2114
20.1686
17.5373
14.0871
15.6073
12.549
18.7496
19.2318
15.8629
13.3519
11.2164
11.9105
9.87379
15.7882
14.8401
12.6435
10.8049
10.0251
9.42963
8.68596
14.5682
12.164
11.8547
10.1465
12.3796
8.70648
11.1861
14.6094
12.2347
13.3446
13.2868
13.3643
12.86
13.8711
14.743
13.6137
14.3343
13.2877
11.9488
13.7582
12.7684
28.9005
33.953
27.4648
31.3526
19.5834
23.6577
19.3863
23.658
25.9596
22.8193
20.065
16.5155
20.0135
17.9297
19.828
21.9642
19.8049
15.4241
12.5267
16.7339
14.0588
15.7469
19.2135
17.4492
11.9104
10.0019
13.3953
11.8267
12.733
16.9195
15.7315
9.586
8.83841
11.4039
10.8878
12.1554
15.4742
15.4196
8.88397
11.2532
10.9549
12.9882
13.7567
15.5856
15.9406
12.876
13.8844
13.8718
13.7831
14.7345
16.0023
16.2005
13.7001
12.1339
13.6636
12.8974
27.5035
37.0519
30.2121
29.3204
20.6728
30.8751
27.1443
22.8849
28.6457
26.0213
20.8906
18.7568
26.1494
23.0719
20.0616
24.6831
22.5433
17.7749
15.3358
19.056
20.2371
18.0618
22.2242
21.2352
14.6511
12.9654
20.8232
16.2746
16.6509
20.7395
19.7134
12.4717
12.0461
15.3454
15.2011
16.336
19.4919
18.7999
12.12
14.1329
14.9875
13.3249
16.4348
18.552
17.9137
14.0298
13.8986
13.1157
13.0136
16.4208
17.7283
17.3411
13.7101
11.7667
12.8754
11.7758
23.3476
25.631
21.731
25.4965
23.175
26.5325
21.7877
19.1144
25.1376
13.1979
20.9472
21.2528
25.6615
3.86881
13.8796
14.6813
8.27248
2.04355
16.7933
12.1032
2.29474
25.9449
29.2558
28.0415
27.9455
28.1287
28.0076
26.107
23.5675
25.8624
26.8671
22.3983
26.9441
21.9675
23.9677
18.9115
20.8001
26.242
13.1573
25.9836
3.84617
21.5349
13.6957
2.08927
14.8565
8.60164
11.9515
2.32934
16.8931
18.9274
22.3414
18.4252
22.258
18.9433
22.9664
18.5411
10.7227
13.5695
5.32865
1.9132
12.7511
11.2841
1.81774
10.2684
12.3149
5.29228
4.07886
12.1283
11.3013
2.62168
19.8567
24.9051
23.9007
21.2027
24.0272
20.7999
20.2343
19.0671
22.4639
23.0602
18.9193
23.2048
18.6965
19.4387
10.627
1.96334
13.8055
6.29493
11.1787
1.8839
13.0505
10.2837
4.41094
13.04
6.59564
11.4641
2.67137
12.6415
12.3966
7.63031
12.4233
1.97954
14.6297
2.24856
10.553
21.7117
21.9382
20.9985
22.5556
20.9538
23.1019
22.2321
19.7996
17.9754
20.6154
20.9491
19.44
18.1677
21.6411
16.3236
17.1187
12.2285
24.1947
2.97184
23.8781
19.54
12.892
2.05969
8.15754
13.8466
2.31811
11.1325
15.8601
22.3564
23.5182
24.1803
23.4008
23.8699
23.0467
22.8335
20.3468
21.557
19.4423
22.6613
18.6926
22.3444
21.0053
8.97981
4.46309
9.43556
2.86202
9.68369
1.82269
8.92585
16.2447
16.8324
19.0372
20.3064
16.0267
17.0101
19.7559
15.7459
15.1183
18.6612
19.0546
15.4691
15.4646
19.3422
9.71108
1.92573
6.04655
12.7345
1.87852
10.2319
12.0016
9.74225
3.44426
5.86745
11.5789
2.04425
9.78424
11.6076
16.7964
20.8634
18.3235
20.5374
17.5566
20.2777
17.5363
16.302
19.5245
16.689
20.0742
16.0408
19.8358
16.9869
2.03071
2.05978
2.14813
9.33069
11.5881
10.2357
12.304
1.2523
1.72933
1.35436
11.0162
10.4366
12.2202
11.6109
1.11256
1.13335
1.11585
10.5123
10.8006
11.3168
11.1991
0.953072
1.07254
0.980904
10.1393
9.6868
10.8296
10.6038
0.854781
0.899579
0.872763
9.60204
9.60153
10.3387
10.1774
0.775376
0.834704
0.778375
9.25273
9.00447
9.93032
9.74383
0.704258
0.727679
0.689908
8.87673
8.80299
9.48787
9.3299
0.589808
0.655519
0.53776
8.47443
9.69822
8.97464
10.7628
1.63877
2.63862
1.6467
11.5783
12.6249
11.4173
14.0566
4.37591
0.518178
0.489983
3.39356
4.66716
3.17519
0.412025
5.47496
0.433728
0.427824
5.52315
5.20802
5.56586
0.437476
5.01138
0.351443
0.377135
4.45048
4.35576
5.07356
0.369075
4.73227
0.316121
0.33894
4.30346
4.1313
4.81745
0.332225
4.36099
0.270808
0.287833
4.08191
3.96727
4.43533
0.279537
4.15527
0.243132
0.252061
3.95997
3.82707
4.21141
0.247321
3.89749
0.214339
0.220184
3.7106
3.59414
3.96416
0.214733
3.6376
0.189256
0.190497
3.48976
3.39761
3.69372
0.185627
0.507453
0.547417
0.390153
7.56458
7.45852
7.21934
8.21425
1.76801
1.58305
1.76372
13.1625
14.9772
10.4604
11.923
5.54398
0.535691
0.836265
3.98954
5.32756
4.105
0.59723
5.47291
0.450955
0.514976
5.78355
5.64835
5.59628
0.471432
4.90327
0.390234
0.402365
5.20513
5.09173
5.02167
0.383531
4.38698
0.328629
0.332826
4.73314
4.58579
4.52326
0.313251
3.79287
0.254811
0.256853
4.05805
3.93894
3.86978
0.245312
3.42823
0.216767
0.214205
3.73853
3.65023
3.53818
0.203051
2.99525
0.178223
0.168277
3.33444
3.25443
3.08138
0.15932
2.83702
0.150218
0.139117
3.02625
3.02212
2.84356
0.134955
0.340997
0.385879
0.302311
6.49387
8.0309
5.88052
7.57011
1.03143
1.41589
0.888715
5.9753
7.65304
6.04525
7.57792
2.85594
0.386129
0.51099
2.60576
3.70525
2.06449
0.304483
3.03967
0.350807
0.259696
3.93182
3.97094
2.89975
0.247495
3.55604
0.307617
0.260095
3.99705
4.03878
3.44905
0.258247
3.80605
0.270265
0.25287
4.01503
3.97259
3.78025
0.249215
3.61692
0.226928
0.231927
3.7008
3.58679
3.69247
0.224956
3.2987
0.182364
0.197201
3.24326
3.15729
3.37591
0.187081
2.99809
0.14101
0.159211
2.8837
2.80676
3.06775
0.150746
2.84935
0.116349
0.132774
2.64081
2.63054
2.86443
0.127949
0.287004
0.468108
0.348279
6.19524
8.11145
6.907
8.09549
1.00583
1.68988
1.10956
7.15174
8.9901
6.44104
7.54825
3.4979
0.32625
0.480501
2.49572
3.13778
2.65631
0.377352
2.97447
0.206829
0.317921
2.93541
2.54141
3.40856
0.265189
2.32269
0.132034
0.169217
2.04054
2.04769
2.35138
0.159324
2.4164
0.122342
0.137907
2.12307
2.25105
2.38333
0.131215
3.11183
0.181637
0.139586
3.13113
3.37901
2.90046
0.152282
3.64459
0.200525
0.185465
3.70537
3.7273
3.58712
0.189273
3.48517
0.175519
0.177558
3.57759
3.51447
3.55787
0.172009
3.1967
0.153639
0.154631
3.32817
3.29131
3.25238
0.149774
0.369744