/*--------------------------------*- C++ -*----------------------------------*\
  =========                 |
  \\      /  F ield         | OpenFOAM: The Open Source CFD Toolbox
   \\    /   O peration     | Website:  https://openfoam.org
    \\  /    A nd           | Version:  10
     \\/     M anipulation  |
\*---------------------------------------------------------------------------*/
FoamFile
{
    format      ascii;
    class       volScalarField;
    location    "8";
    object      omega;
}
// * * * * * * * * * * * * * * * * * * * * * * * * * * * * * * * * * * * * * //

dimensions      [0 0 -1 0 0 0 0];

internalField   nonuniform List<scalar> 
12920
(
72.9233
61.6406
61.3249
82.0509
86.286
85.4688
78.1096
70.7028
66.488
64.4935
61.7546
58.4708
54.2461
48.8266
42.9909
38.4359
35.7346
34.0094
33.2256
32.6149
134.948
117.171
108.172
122.135
126.537
117.59
99.86
88.1677
77.4133
71.1891
66.0437
62.2446
58.5214
55.3251
54.1431
54.2056
54.7488
54.8201
54.7133
53.55
138.38
177.022
166.922
148.686
135.925
122.354
107.654
100.056
91.1251
83.0761
74.5803
68.125
63.6171
61.5182
61.2064
61.2812
61.4527
61.2614
60.852
59.2003
370.325
224.773
202.989
171.465
154.23
137.274
117.438
106.465
96.6522
91.2929
84.4728
78.3949
73.1356
69.6284
68.0196
66.9279
66.4725
65.3751
64.5232
61.8491
185.311
242.046
220.826
179.838
148.982
126.382
107.824
99.2561
92.7632
89.6331
85.5885
82.488
79.3685
76.9703
75.2173
73.4887
72.2286
69.4566
67.9789
64.6047
200.926
166.878
152.441
144.412
135.823
122.871
109.768
102.368
94.2114
89.4684
84.7638
81.7081
79.0422
77.0178
75.6515
73.932
72.0202
68.7218
67.108
64.3506
148.08
148.977
140.367
145.713
143.494
132.672
114.056
102.015
92.8004
87.4695
83.201
80.3587
77.65
75.8917
74.3035
71.0587
65.8124
60.391
57.7119
57.0417
279.43
210.237
192.328
173.048
154.427
133.001
184.917
154.437
140.661
131.831
126.747
122.739
119.712
116.013
70.1435
62.0916
55.5863
52.3595
51.7873
52.1462
250.941
232.229
202.204
176.93
151.743
218.248
345.224
239.494
215.688
202.329
190.175
182.103
176.063
168.642
105.109
52.8607
48.2337
46.2605
45.8816
46.3878
267.607
274.499
193.713
128.342
101.848
161.939
281.17
246.494
228.064
211.643
185.315
166.792
150.849
137.978
83.5971
48.3988
47.0193
45.6586
44.023
43.4776
464.972
331.835
246.965
152.065
94.4362
114.174
182.929
185.691
183.4
177.435
164.437
148.259
134.487
124.836
82.5687
52.2879
51.323
50.0986
48.1987
45.1679
285.827
204.94
173.638
131.309
87.8405
110.779
209.225
169.247
126.964
123.36
144.41
159.475
156.635
149.567
95.0672
53.1978
50.4054
48.3503
47.1431
44.9812
395.549
310.293
195.787
139.22
101.68
102.11
164.333
134.645
110.87
96.269
90.0967
87.6033
84.7171
80.9759
51.2223
48.5307
46.5403
44.8237
43.4812
42.2963
416.99
375.298
257.192
162.883
118.167
116.373
108.429
99.9783
83.9158
75.4597
68.1077
63.7075
59.1953
55.1606
51.2242
47.936
45.282
42.8559
41.312
39.8175
261.31
305.229
231.205
172.052
153.81
157.449
153.035
142.261
117.551
98.0372
82.4978
74.1756
68.8621
62.6662
55.9827
50.0595
45.5928
42.1569
40.3228
38.3034
166.323
258.404
191.698
165.346
153.796
151.957
144.996
131.312
116.789
106.442
93.9569
83.4976
75.5672
68.8025
61.9693
55.0529
49.2377
44.5057
41.8234
39.1452
74.6079
139.428
155.134
145.975
135.343
127.502
116.92
108.833
100.579
90.6035
81.1025
73.4499
66.9916
60.6543
55.5031
51.4018
48.288
45.1137
43.1739
40.5724
46.7442
153.146
172.099
135.397
110.937
104.172
95.6295
87.5654
77.401
68.0595
60.5521
55.6181
53.4027
52.4795
51.2188
49.4091
47.9987
46.7078
46.0191
44.2907
66.8383
198.071
213.685
166.06
111.013
98.2143
91.0535
88.1645
81.7378
75.4602
67.6088
59.7905
52.7351
48.6905
47.0069
46.0636
45.5301
45.5029
45.6734
46.2546
124.294
159.265
151.066
126.961
106.778
89.3926
79.1363
76.523
73.0015
69.9957
65.9219
62.5228
58.5995
53.6693
50.1257
48.0394
46.4142
42.7502
38.0139
33.5993
70.5393
61.5114
51.1102
52.523
53.1753
51.1203
45.9081
42.0415
38.5368
35.1449
31.9937
29.2927
26.7727
24.6768
23.4358
23.2854
23.4848
23.5705
23.5791
23.3553
140.707
126.527
91.8668
77.1614
65.6166
55.0928
46.1846
41.4457
37.9936
36.6513
36.175
36.4233
36.4734
35.6146
33.5277
31.4493
30.2888
29.879
29.9663
29.9724
165.921
173.279
118.342
85.2047
69.1214
59.4348
52.2354
48.3854
45.278
43.0679
41.371
39.2879
37.648
35.7512
34.4424
33.2689
32.5628
32.1827
31.9992
31.3984
216.171
130.191
106.135
87.7735
76.6567
67.1038
57.7752
52.2022
47.7381
44.9291
42.4529
40.2348
38.7802
37.1912
36.3834
35.5426
34.5771
33.4453
32.9544
31.9518
228.619
129.936
110.485
88.3512
73.5324
64.3638
56.3129
50.6758
46.4808
44.0255
41.9801
40.6909
39.665
38.8654
38.3687
37.7286
37.0968
35.9258
35.3787
34.2426
207.699
109.405
87.7835
79.638
68.5386
60.613
54.4158
49.8193
45.8918
43.4837
41.5205
40.3529
39.4253
38.7733
38.3163
37.7378
37.5109
37.0884
36.5385
35.146
229.157
154.542
104.974
87.5806
74.1416
63.4453
54.017
48.6996
44.5149
42.1478
40.3329
39.181
38.2681
37.5758
36.9174
36.26
35.8298
34.5745
32.2605
30.2769
389.757
131.17
109.183
87.7135
71.0303
59.734
61.7942
52.1041
46.2158
41.4498
39.7738
38.4511
37.6436
36.7805
32.6896
32.1724
30.3253
27.6296
26.0497
25.8403
339.73
168.776
116.655
90.2731
67.0341
67.486
63.5477
52.2555
44.0496
39.0537
36.1239
34.519
33.5595
32.8157
30.0048
25.6473
24.381
23.41
23.1638
23.3873
293.041
179.407
105.922
65.7253
47.9118
51.2322
54.6628
46.1769
40.1616
36.5206
33.2662
30.0168
28.0342
26.27
23.6255
23.2747
23.8796
24.1954
24.2822
23.9062
465.958
244.091
132.445
84.8758
60.255
49.9342
43.5933
40.1772
35.4396
32.0728
31.5618
30.0117
28.1469
26.6574
25.2319
25.5888
26.191
26.2528
26.12
25.0982
154.763
178.066
126.682
80.8683
60.7061
51.3652
53.0996
48.3433
40.4192
35.8256
31.5498
29.431
28.9
28.7117
27.8939
26.2585
25.7937
24.6948
24.0392
23.2755
179.538
165.18
117.911
79.9253
67.7581
59.3779
59.5291
50.5597
39.6135
33.3808
32.4317
31.2924
29.7766
28.2551
25.3447
24.4644
23.5804
22.8004
22.2985
21.6972
401.963
216.996
125.985
92.6134
73.1809
66.7948
53.4121
50.0215
42.8096
40.3624
35.5197
32.6229
30.3135
28.8014
27.3997
25.6995
23.9839
22.3523
21.3187
20.3569
306.197
246.605
133.992
99.9002
85.849
85.0395
79.1079
74.9185
68.4516
62.2135
51.6936
42.9711
37.7116
35.3643
32.807
29.1567
25.3064
22.312
20.6391
19.3806
366.94
226.517
117.982
101.028
87.4221
84.95
80.3915
75.7855
69.7193
65.2903
59.8139
51.8019
45.6955
42.1656
39.7039
34.9871
29.8339
25.3125
22.6882
20.3624
134.739
133.258
100.942
89.1622
80.3936
75.2318
71.0551
66.1554
60.9327
55.2448
50.5797
46.2334
43.4189
39.9207
35.8289
30.835
27.2216
24.4248
22.7053
20.6284
146.851
115.603
95.8464
79.373
69.2673
60.5258
55.3564
50.2131
46.3991
43.7628
41.5106
39.4831
36.7776
32.988
29.5782
26.6979
25.042
23.9466
23.4399
22.267
81.2835
167.742
165.898
119.717
64.4156
56.635
50.8613
47.3322
44.0783
42.9265
42.266
40.8579
37.5656
33.2344
29.8473
27.5165
25.8054
24.715
24.1683
23.8565
62.29
81.2231
81.6472
64.7059
50.1513
47.6996
47.2446
45.5038
42.288
39.0094
35.6898
32.7327
30.4432
28.8942
27.6328
26.5796
24.4159
21.1425
18.2733
17.2617
116.729
112.544
87.2281
67.1354
61.4777
55.8512
49.9655
44.5082
39.686
35.4967
32.3843
30.2269
28.966
27.9112
27.4519
27.2858
27.3272
27.2462
27.3081
27.2015
271.842
122.551
99.0789
77.3945
64.7721
51.9141
43.0825
38.8708
35.5949
34.3625
33.0477
32.3964
31.5317
30.6064
29.7133
28.91
28.4655
28.3572
28.3902
28.4957
167.369
153.889
126.241
86.0357
65.2869
53.2771
45.7019
42.3209
39.3445
37.7969
36.0688
34.6254
33.2153
31.9782
31.1267
30.3494
29.8722
29.4718
29.2594
28.7472
281.631
130.599
100.115
79.353
68.6199
58.7799
50.6654
45.9351
41.6691
39.2861
37.0442
35.4755
34.2413
33.1614
32.4803
31.635
30.8836
30.0294
29.6149
28.7774
140.873
130.218
107.482
81.5732
66.499
56.9503
48.9899
44.5241
40.5525
38.51
36.6864
35.6497
34.8041
34.1133
33.6135
32.9068
32.3045
31.4959
31.0835
30.177
161.043
115.936
81.9865
67.4114
59.2237
51.2216
46.3943
42.7044
39.4342
37.6007
36.0348
35.1343
34.4069
33.829
33.4125
32.8985
32.6211
32.1328
31.7543
30.8345
254.379
191.581
102.614
79.0094
64.2449
53.4371
45.2593
40.9634
37.6762
35.8662
34.5137
33.6586
33.0231
32.4382
31.8864
31.2696
30.6765
29.7044
28.7604
27.874
444.339
160.457
104.162
80.2528
63.6356
51.245
47.4976
40.9743
37.116
33.9583
32.6889
31.6751
31.028
30.3324
28.7992
27.7161
26.4632
25.3299
24.767
24.6945
285.473
165.993
115.879
83.3859
59.8978
54.6661
48.381
40.4802
34.9138
31.6
29.6015
28.5274
27.7649
27.1549
25.7861
24.3629
23.5294
23.084
22.9512
23.0023
280.333
158.219
97.0383
59.9326
41.9573
41.9568
42.8937
36.8364
32.2531
29.3085
27.5243
25.8223
24.6348
23.7257
23.4424
24.8987
24.5637
24.2025
23.863
23.3684
271.986
152.931
97.2929
56.1378
43.5491
37.9149
35.9624
32.936
29.6211
28.3714
68.175
49.9372
33.7854
27.5121
25.628
26.2385
25.9463
25.4482
24.9111
24.0896
169.172
169.549
130.463
61.0391
44.806
42.3454
42.6159
36.2384
31.9589
29.462
27.8134
26.7354
25.8442
25.2965
25.1261
24.8667
24.1979
23.6328
23.1943
22.9026
115.065
150.254
130.438
67.4961
51.8701
47.2987
45.5709
36.1539
30.9791
28.1985
27.0798
26.0045
24.9759
24.1242
23.4142
22.616
21.9985
21.6225
21.39
21.2955
463.093
161.894
99.5219
70.5498
58.9197
54.4142
42.4374
39.5382
34.2427
32.1153
29.0903
27.3654
25.8662
24.7098
23.5864
22.4221
21.4177
20.6361
20.1719
19.9567
342.647
239.077
116.111
87.9441
73.5208
67.6482
57.2238
53.4156
47.7903
43.9405
37.9975
33.952
30.7719
28.5814
26.2903
23.8601
21.8038
20.3551
19.5666
19.1603
215.832
193.375
109.845
83.567
70.2652
64.9445
58.2755
54.934
50.142
46.5996
42.031
38.1056
34.7862
32.2569
29.7256
26.6477
23.9765
21.9166
20.7045
19.7709
235.472
139.1
87.2834
71.4241
62.9394
57.3436
52.3477
48.5906
44.188
41.3072
38.1521
35.8753
33.4323
30.7926
28.0429
25.4098
23.5601
22.1601
21.2682
20.3356
120.854
118.835
84.9832
63.4682
56.2996
49.2328
44.0691
41.2731
38.0027
37.1198
35.1356
33.436
30.6542
28.0967
26.0237
24.6917
24.0588
23.6252
23.3544
22.6578
101.781
151.157
142.574
102.959
60.5666
51.653
45.1867
42.7751
38.7541
37.4731
35.1436
33.2994
30.7717
28.7564
27.3065
26.5405
26.0795
25.7647
25.7315
25.7568
74.0923
71.1602
72.6093
64.8712
57.3816
54.9299
52.1747
48.3005
43.9248
39.8966
36.3968
33.5713
31.4578
30.0819
28.8489
26.8675
24.3238
22.1277
20.9097
20.4065
138.19
155.022
125.573
86.961
69.4408
59.2439
51.4254
44.0129
38.492
34.6423
32.7689
31.4373
30.9402
30.0582
29.7163
29.2543
29.1811
29.0145
29.1903
29.037
158.607
197.167
143.15
89.9798
74.6512
57.0946
49.1557
43.6758
40.5689
38.5248
37.112
35.9358
35.0292
34.382
34.0407
33.8107
33.7698
33.8346
33.9049
34.2236
244.369
178.814
128.503
85.6539
69.4149
54.1482
48.5165
44.2343
42.2078
40.2944
38.8535
37.4026
36.3213
35.4207
34.8666
34.3077
34.04
33.7096
33.5215
33.1818
391.41
166.885
99.3451
78.0632
69.8008
56.6202
51.4143
46.2342
43.5713
41.1356
39.537
38.0893
37.1419
36.2002
35.6199
34.826
34.3512
33.6998
33.3544
32.6623
218.993
174.306
118.736
81.9488
69.1493
56.0821
50.2077
45.189
42.4529
40.2867
39.0319
37.9415
37.2955
36.5658
36.1286
35.463
35.1047
34.5498
34.2257
33.4162
192.045
135.625
84.9195
67.7812
59.6532
50.0906
47.2758
43.0078
40.9206
39.0471
38.0068
37.1433
36.6383
36.0968
35.8132
35.4121
35.2713
34.9398
34.6759
33.9265
175.032
157.03
106.95
76.3896
64.9475
51.7102
45.5585
40.89
38.6572
36.9607
36.1348
35.3927
35.021
34.5149
34.0384
33.5301
33.2112
32.7201
32.433
31.9874
379.866
192.672
108.659
77.8891
64.1621
50.8748
46.2841
40.237
37.4266
34.9405
34.2324
33.4124
33.0168
32.468
32.4088
30.9533
30.2521
29.7531
29.6029
29.5705
138.989
158.781
132.234
82.0542
59.2982
53.1978
47.6945
39.7212
35.7334
33.4173
32.1467
31.4719
31.0314
30.706
30.9258
30.2091
28.9674
28.5198
28.3609
28.3397
125.766
147.372
101.939
60.0796
43.9391
42.697
42.7103
37.6167
34.3858
31.6896
30.2848
29.3014
29.7235
30.2501
31.5923
31.6255
30.1095
29.3864
28.9799
28.7372
256.27
129.072
81.2791
52.3897
42.5291
37.7296
36.5322
34.5292
32.7117
31.579
47.5133
40.2133
34.4613
33.1203
33.2246
32.5615
31.0306
30.2082
29.6744
29.3921
157.165
153.689
105.241
53.9873
43.2434
41.7379
40.838
35.3025
33.1775
31.697
30.892
30.3789
30.5599
30.7665
31.5274
30.4188
29.2325
28.7103
28.4844
28.5348
203.76
165.091
112.374
61.9759
52.4998
45.378
42.459
34.7219
31.5913
29.9908
29.1984
28.5913
28.2799
28.0523
28.0934
27.0547
26.6861
26.6397
26.6961
26.9365
322.75
131.465
93.8577
66.7685
59.1848
49.516
40.2491
36.7456
33.0103
31.0956
29.605
28.4832
27.7641
27.035
26.3962
25.8301
25.4794
25.3956
25.4359
25.6984
611.547
237.296
109.029
78.5547
69.7512
56.9466
49.4024
44.892
40.6728
37.7721
34.7907
32.5925
30.5699
28.9106
27.4744
26.183
25.3775
24.9648
24.8845
25.049
279.488
178.665
109.657
73.452
64.907
53.5877
50.2534
45.5446
42.7943
39.5361
37.1332
34.8407
32.926
31.0592
29.389
27.8187
26.7161
25.9734
25.6387
25.6069
290.523
177.999
94.0275
64.3145
59.1549
48.8205
46.9046
42.2311
40.0938
37.6885
35.9815
34.178
32.4458
30.7403
29.2417
28.0813
27.3557
26.8196
26.4954
26.339
293.323
127.914
83.7982
59.5043
55.9338
45.746
43.7732
39.4882
38.1002
36.5967
35.258
33.6817
32.0095
30.8028
30.0281
29.8481
29.9639
30.0352
29.9604
29.5919
115.883
168.262
138.726
76.4074
59.4126
51.5362
47.3011
43.041
39.7546
37.7922
35.9128
34.7782
33.6555
33.561
33.6687
33.908
34.1953
34.388
34.7313
35.0388
75.2544
79.6492
74.5602
65.1421
60.1361
56.8594
53.2698
47.8806
42.7402
38.1253
35.1196
32.6854
30.9585
29.2669
27.4297
25.408
24.2514
23.3447
23.0095
22.6254
215.287
179.115
142.286
101.079
75.6434
60.2222
49.4787
40.7171
35.9982
33.6238
32.7602
31.5084
31.0523
29.9112
29.5007
28.7952
28.6848
28.5049
28.7999
28.3602
275.83
243.724
185.478
98.9511
91.7379
60.7358
62.1432
50.5378
52.2732
47.1258
47.8137
45.178
45.4278
44.5873
45.0101
44.9011
45.1833
45.3047
45.4748
46.085
303.859
196.891
151.756
88.6989
85.5359
58.2068
60.5125
50.3642
52.0377
47.2777
47.5568
44.9882
44.8694
43.6698
43.6065
43.0801
43.0786
42.7978
42.7362
42.589
202.024
160.98
105.733
83.2628
75.9574
57.3099
58.0333
49.5135
50.6608
46.5975
46.8883
44.7644
44.7606
43.7004
43.606
42.9467
42.8454
42.3455
42.1998
41.6729
236.086
192.731
138.717
84.0349
81.3071
57.9477
59.1766
49.7209
50.184
46.1484
46.3662
44.4969
44.5329
43.5698
43.5266
43.0255
43.0604
42.7568
42.686
41.9903
366.476
181.065
97.5298
79.9506
65.3393
55.7256
53.9061
46.8839
46.9446
44.0752
44.2813
43.1706
43.334
42.9349
43.0924
42.9785
43.2208
43.1102
43.087
42.3588
181.592
173.339
125.896
80.0203
77.7823
54.3894
53.6544
45.224
44.9609
42.3342
42.6864
41.7011
42.0061
41.47
41.2447
41.0838
41.31
41.296
41.3703
40.9645
333.946
243.757
123.063
85.826
72.3692
58.5806
50.217
44.8794
42.9239
41.1107
41.2027
40.7613
40.9906
40.8153
41.156
39.5646
39.3003
39.1464
39.1464
39.0037
387.639
195.91
143.841
81.2353
68.1274
56.0977
53.2558
46.3977
44.5093
43.5619
43.6329
43.7159
44.1199
44.4361
43.6745
39.8326
38.5572
38.2691
38.299
38.2722
200.328
146.806
105.168
69.3324
52.75
51.7186
49.5818
47.6763
47.0783
45.4913
45.0267
46.0636
47.8104
48.1374
45.545
40.5599
39.1041
38.8462
38.8575
38.8702
211.748
153.575
89.8442
78.1953
54.958
49.7125
46.4293
47.573
47.6649
45.1271
45.9208
46.711
49.5666
49.4939
46.5396
41.4694
39.7613
39.4216
39.3597
39.4583
233.533
136.987
95.1575
69.5814
54.0727
54.4244
48.8763
47.1132
46.8931
46.0449
46.0166
46.4519
47.3367
47.6381
45.3518
39.9617
38.7078
38.4332
38.5092
38.7176
180.404
156.769
113.368
71.2585
68.3673
57.6091
47.4134
41.9907
40.249
39.1603
39.5509
39.435
40.1834
40.2912
38.1295
36.8533
36.6287
36.8588
37.0373
37.3636
374.49
151.705
100.474
73.8461
72.837
52.9812
46.4785
42.0058
38.1375
36.6597
36.3122
35.529
35.724
35.3576
35.3011
35.2975
35.5805
35.8053
36.0279
36.3162
402.154
186.346
116.721
77.8977
79.7391
55.0067
55.2845
45.5768
44.2585
40.5848
40.2704
38.3425
37.569
36.2386
35.8852
35.5218
35.5171
35.5012
35.5835
35.8453
234.038
188.507
126.378
74.1235
75.2448
53.1036
56.7761
46.1221
47.4048
41.7256
42.3673
39.5837
39.4399
37.5817
37.2064
36.5045
36.5756
36.4253
36.4877
36.5528
237.224
211.766
122.982
70.4948
73.8652
51.0453
57.6064
44.7809
47.9858
41.8578
43.1487
39.9794
39.9965
38.2354
38.0385
37.3622
37.3385
37.1325
37.2179
37.2156
292.41
150.246
98.1426
71.2521
72.5101
49.1975
57.7025
43.5848
48.3967
41.5518
43.8145
40.4446
41.3302
39.7067
40.0548
39.7049
40.3486
40.5597
40.9053
40.7495
264.297
204.759
146.939
77.615
85.2203
57.9016
65.2765
48.5548
52.8281
44.8464
47.8477
45.0537
47.256
46.4293
47.2825
46.9281
47.7195
48.181
49.1572
49.535
50.6903
84.247
84.4426
68.7661
58.3825
54.5597
50.2509
43.6784
38.0039
33.6846
31.3874
29.0196
27.2263
25.7066
24.9095
24.2399
23.9261
23.4668
23.2882
22.8437
27.9705
29.3454
67.4046
30.2665
29.2349
31.138
70.0625
26.2188
66.9423
52.5516
28.9141
27.96
68.5829
50.1494
68.1395
28.7595
28.0568
30.4451
70.481
29.826
29.8095
57.137
28.0136
27.4447
69.2381
53.2519
29.835
29.3479
248.62
283.636
251.211
78.1155
62.901
68.9822
56.7473
224.494
247.32
232.857
59.4056
52.368
53.8903
47.7419
205.665
228.641
217.751
50.2473
45.7637
46.3451
43.2565
194.999
213.749
197.606
44.5489
41.9558
42.4336
39.8579
184.374
191.486
177.995
41.1826
39.7247
38.8705
36.0197
179.238
174.952
164.618
39.2672
38.601
35.2765
33.5704
171.708
161.108
152.059
38.2167
37.7502
33.0735
31.6144
150.245
148.544
127.899
37.3531
35.9864
31.1501
27.9937
249.667
214.418
211.494
64.186
54.5098
51.8704
47.6405
232.595
210.868
201.826
52.3503
47.1595
46.0936
42.1347
215.993
197.802
189.032
45.842
42.7878
41.0445
38.14
192.394
184.793
172.592
41.9256
39.2534
37.3389
35.4576
170.306
167.813
153.985
38.1898
34.9392
34.8803
32.6993
154.596
149.218
136.355
34.0728
32.1565
31.9683
30.1838
141.266
132.127
122.97
31.596
29.8882
29.7953
28.7994
122.517
121.385
110.504
29.371
26.992
28.4735
26.9287
183.587
177.003
155.657
49.2802
46.3006
53.7792
53.275
185.182
145.447
127.89
45.0135
40.9968
53.0971
46.0807
179.803
127.72
131.819
39.8939
37.028
43.6461
39.5589
168.561
135.753
154.146
36.1939
34.5409
38.3235
34.4171
152.37
156.415
158.723
34.1009
32.4044
33.6062
31.8964
137.917
158.693
154.156
31.7937
30.2022
31.4902
30.7705
126.559
152.004
146.141
29.827
28.8381
30.6568
30.3874
111.315
144.878
132.75
28.5764
26.9751
30.3134
29.5753
179.136
270.704
233.018
59.1661
55.0511
74.3955
64.2394
131.399
214.235
168.152
54.2805
47.1624
59.9833
49.3485
123.122
162.285
153.69
45.0085
40.8157
46.3992
39.4069
136.915
153.281
146.613
39.9604
36.0225
38.0942
37.5378
157.578
142.381
142.115
34.8371
32.7176
37.6501
37.6108
158.826
143.204
147.092
32.3245
31.9488
37.4831
36.629
151.143
146.566
141.533
31.9495
31.9684
36.3298
35.1312
134.354
137.854
115.057
31.9471
30.6028
34.7946
31.3782
55.184
57.7383
50.0785
50.2018
44.12
46.458
40.8947
45.9237
47.6791
42.1046
41.9726
37.269
39.1368
34.8344
40.1344
40.7886
37.8671
35.9798
33.1136
33.7658
31.2883
36.7385
37.0917
34.7514
32.3462
30.5884
30.6016
28.7108
34.8858
33.9176
31.5983
30.174
29.26
28.1455
26.6989
33.8543
30.9958
29.6022
29.0044
28.4049
26.3232
25.4045
33.1112
29.2016
28.017
28.2053
27.7719
25.1451
24.3785
32.4139
27.6329
25.8401
27.5771
27.1261
24.1288
23.1377
48.0982
45.6392
42.2327
44.3877
39.4806
38.2025
35.2359
41.3868
40.775
37.1339
37.9376
34.0715
34.0612
31.1772
37.315
36.1426
33.555
33.0697
30.6693
30.3909
28.4893
34.1491
32.8623
32.2981
29.9919
28.387
28.7784
42.9176
30.6965
32.0402
30.5403
27.8619
26.3733
43.4805
40.2985
28.4785
29.8986
28.2026
25.9462
24.9199
37.7364
31.4701
26.6859
27.7707
26.734
24.6326
23.8072
29.9596
27.0951
24.7952
26.4262
25.5782
23.5493
22.6715
26.467
25.2266
41.4489
48.7019
47.6271
36.8937
34.8708
41.8415
38.4578
36.4556
47.2704
41.2499
33.7875
30.9243
37.4923
33.609
32.8289
39.2434
35.5544
30.1398
28.2019
32.5059
30.0932
31.6531
34.4023
31.0637
28.2849
43.0016
29.3206
28.0055
30.5167
30.4064
29.0431
43.7318
41.7603
27.8586
27.2165
28.5861
28.7001
27.9994
39.5422
33.6511
26.914
25.9889
26.9619
27.8584
27.5169
31.6851
27.653
25.7132
25.0642
25.6603
27.4343
27.3637
26.849
25.2751
24.9286
24.7012
49.1841
61.8702
55.5844
44.4812
39.2516
49.4017
42.1637
42.2884
51.5546
43.032
38.0954
34.2475
39.027
34.3759
36.6696
40.7248
35.3
33.1268
30.7708
32.9017
30.0045
32.4967
34.4688
34.0269
30.1765
28.4183
29.6908
29.1805
29.7713
34.0308
33.6023
28.0212
27.0541
28.9371
28.1132
28.9503
33.4295
32.3487
26.7845
26.078
27.8816
26.9078
28.7577
32.0535
30.8651
25.9066
25.4582
26.5846
25.6459
28.3615
30.5788
28.4073
25.3572
25.0082
25.4152
24.3426
42.5614
44.9379
39.6235
47.2859
41.1649
44.0594
38.9992
36.0811
37.9548
33.9307
39.2337
35.7022
37.5518
34.3193
32.2987
32.931
30.5747
34.8221
32.8004
33.5297
31.4775
29.9756
29.9107
28.1455
32.2414
31.0185
30.8517
29.3402
28.7619
27.6431
26.3759
30.754
30.1311
28.9677
28.086
27.9478
26.0449
25.234
29.9447
29.493
27.8913
27.6101
27.3366
25.0101
24.3522
29.3714
29.0489
27.5765
27.4329
26.7056
24.1407
23.2935
28.9177
28.4959
27.383
27.1684
38.3135
37.1461
34.3237
42.0951
37.9138
36.7334
34.447
33.1936
33.2265
30.5675
36.6544
33.7388
33.6438
31.7719
29.9598
29.8393
28.269
32.9865
30.8899
31.2031
29.9056
29.2046
28.8043
28.751
29.1265
28.8944
28.6929
28.7131
29.855
27.074
29.296
27.6138
28.8959
27.2194
30.2205
24.8863
45.8552
33.95
27.6886
27.3664
44.1525
34.4687
23.9391
31.7127
27.9088
27.3642
27.3587
32.9513
30.7535
22.9711
27.1663
25.7253
27.355
27.2424
30.4041
29.8079
33.9514
40.299
36.7695
35.7483
33.9918
38.7308
35.1582
30.3346
35.7422
32.3896
33.2632
31.5344
34.2714
32.2026
28.0164
31.4786
29.4112
31.0084
29.7618
31.6871
30.2674
39.3315
49.3819
28.2229
33.8507
32.4949
195.098
28.6309
48.0804
66.4465
41.1376
152.702
41.2897
141.138
48.6112
36.7835
27.1274
26.1456
46.5496
35.8518
29.0909
28.6137
28.4531
25.8579
25.2036
33.9624
31.0328
28.5315
28.4281
25.7647
25.0751
24.8232
30.5866
29.8486
28.4338
28.4698
37.4106
46.8119
39.754
40.5591
35.5051
44.2645
36.414
32.8989
36.8696
32.9882
34.5171
32.3812
34.4254
32.1144
29.9716
31.6692
29.3122
31.8379
30.5948
31.1608
29.8488
28.1037
29.0597
28.4947
30.2282
29.4981
29.642
28.9768
26.9939
28.2135
27.3996
29.3561
28.8143
28.6995
28.1612
26.0239
27.1879
26.277
28.648
28.3621
27.9901
27.427
25.3947
25.9919
25.1643
28.318
28.2337
27.2709
26.9302
24.9997
24.98
24.1172
28.2285
28.2563
26.8338
26.4703
41.6041
44.6097
39.7506
51.1177
45.5267
48.6401
45.1929
36.51
38.4104
35.532
43.9351
41.8724
44.3881
43.0826
33.9349
34.8373
32.9025
41.5774
40.6213
42.8386
41.5696
32.3657
32.2841
30.8371
40.2809
40.0085
41.0789
40.2879
31.6394
30.5051
29.774
40.0637
40.0802
40.2157
40.4313
31.1214
29.663
29.7838
40.0268
40.1984
40.7818
42.2032
30.813
29.8763
30.0305
40.3107
40.5422
42.4964
42.9715
30.229
30.0599
29.8855
40.5675
40.2245
43.0427
42.7325
38.7595
37.4787
35.5564
47.0318
44.7267
43.1474
43.2439
35.0538
34.9052
33.4012
44.162
43.1941
43.2337
43.2092
32.3297
32.877
31.2698
42.9501
41.1987
42.8146
40.4389
30.5801
31.8272
47.9053
40.6214
39.6828
39.871
41.1797
29.4773
47.6274
41.5712
39.5831
39.7026
41.3644
40.9755
29.5324
39.1412
34.4175
40.1121
42.3789
41.0553
43.8423
30.1428
33.7891
33.0965
42.8603
43.4615
44.5707
45.1318
30.143
33.0054
32.4491
43.5251
43.063
45.1
44.3742
35.1031
39.1221
35.89
42.571
43.0679
44.0796
43.2451
33.1892
35.1431
33.5402
43.1417
43.2434
43.1377
42.9992
31.1523
33.1412
31.7747
42.883
40.5011
42.9204
41.3858
47.7875
31.3228
31.1764
39.9481
41.3488
40.854
40.4842
42.539
31.1925
30.7807
41.5684
41.3133
40.5507
40.6859
35.3177
30.6099
30.7025
41.4028
44.0535
40.9989
42.9006
33.281
30.8028
31.0537
44.7192
45.1725
43.2733
43.7357
32.4681
31.1279
31.0358
45.1365
44.4435
43.8044
43.5402
36.1558
44.2815
36.6022
45.5049
43.1926
48.4431
41.5568
33.5972
34.8326
32.8694
42.9416
42.5847
40.293
39.0307
32.0731
32.0846
31.0913
42.5387
41.6297
39.0964
38.8932
31.0121
30.8576
30.217
41.1826
40.7915
38.5639
38.2853
30.4679
29.978
29.6168
40.8233
41.0208
38.4269
38.6027
30.4917
29.4561
29.0688
41.2991
42.5245
38.5297
38.7861
30.724
28.976
28.8612
42.7588
43.1513
38.9665
39.3698
30.7047
28.8005
28.4442
43.2219
43.0581
39.3837
39.2034
47.914
50.9478
48.2387
70.9689
62.8899
67.8568
66.1429
44.6663
47.6537
46.8475
61.1881
61.176
65.1973
65.0449
43.8702
46.7448
45.992
61.1061
60.455
65.1037
67.3932
43.5279
45.6734
45.3696
59.9121
61.128
67.9953
69.3088
43.7665
45.4258
45.8552
61.1753
61.3716
69.413
69.0479
43.9937
46.1059
47.0337
61.2298
62.1116
68.5004
66.9933
44.4147
47.2351
47.5491
62.2391
62.6122
66.8395
66.7783
43.7455
47.5938
46.6917
62.6847
61.6949
66.8079
65.6077
48.0322
46.8475
47.4186
63.6204
66.332
64.4502
68.0761
47.1885
47.5417
47.7755
65.8014
66.0453
67.5887
68.628
45.9223
47.5525
45.6163
66.4103
69.9651
69.7169
75.4713
44.9933
45.0054
45.4175
70.863
72.2978
76.9341
78.8021
45.5828
45.6792
45.9832
72.3793
71.7677
78.9887
77.7675
47.5061
46.4811
49.1147
70.9903
68.4644
76.246
71.539
48.1237
49.5374
49.6171
67.9323
67.4637
70.2969
68.6712
47.0438
49.5095
48.0866
67.4468
65.9112
68.4598
66.2011
47.3943
47.6225
47.4086
63.9503
68.5326
67.0352
67.7171
47.8739
47.4227
47.4376
67.9734
68.9182
66.8156
67.1764
45.7302
47.3993
46.3812
69.9554
75.6383
67.4909
70.6953
45.6467
45.9596
45.8123
77.1095
78.8567
71.7249
72.7401
46.2321
45.9389
46.2578
79.0569
77.9524
72.8264
72.1433
49.2013
46.6182
47.7303
76.3382
71.4805
71.3403
68.4133
49.6003
47.962
48.1854
70.2243
68.5928
67.8656
67.4664
48.1382
48.2209
47.4065
68.4417
66.672
67.5076
66.0985
47.248
51.4071
45.0488
66.2532
66.5759
66.8527
60.853
46.9065
43.8226
42.5731
65.7752
66.1016
59.9164
60.2595
46.3437
42.7482
42.6421
66.1029
68.0844
60.4902
59.1419
45.9282
42.3286
42.1581
68.8664
69.8257
59.4742
60.5715
46.2729
42.3869
42.5923
69.9433
69.4748
60.9573
60.7173
47.1799
42.5455
42.8788
68.973
67.0874
60.9873
61.894
47.5853
43.0931
43.4683
66.9618
66.8143
62.1791
62.2907
46.9249
43.5073
42.9467
66.933
66.337
62.5217
61.3864
30.1571
28.3968
29.4728
28.0033
29.3899
28.3659
30.3708
36.5296
28.7822
46.9901
33.7723
31.7737
29.199
152.683
45.3868
38.5293
62.7067
171.811
36.711
47.407
188.77
29.6948
29.4342
29.845
29.9088
29.0322
29.0956
30.2495
30.7633
28.4196
29.5469
31.2241
28.7447
31.0193
31.0253
38.1266
34.941
30.2888
51.9623
29.729
157.396
34.5097
47.6373
177.115
42.0524
68.2235
49.6562
193.323
40.3711
29.3865
26.646
27.7327
26.4403
28.4363
26.8402
28.4765
46.0066
38.5856
65.7508
160.96
38.1888
47.012
149.862
44.6839
35.0114
61.4301
70.2905
37.4585
38.7971
103.616
30.5397
28.0694
28.5939
31.1025
27.7163
30.8778
30.7913
30.0585
27.0012
28.2829
29.6171
27.3719
29.1045
30.346
48.011
166.535
41.886
66.3969
49.0792
156.674
41.2836
46.2194
69.8387
36.6787
60.3148
39.5135
109.482
39.9574
45.2583
64.5258
39.9718
164.518
37.1761
177.952
48.1759
28.975
28.1064
28.3101
28.6359
28.4408
28.2481
28.3484
30.3177
30.2
28.1052
28.3783
29.3276
31.4049
28.3157
39.9255
34.9334
54.4338
29.9726
189.034
29.2177
35.0165
45.9787
169.984
69.229
41.8739
182.516
48.4519
39.7793
29.5571
28.9648
29.6525
29.6549
28.7453
28.7776
30.2157
30.9761
28.9398
32.2465
29.6901
32.0519
28.8137
31.3586
45.6975
66.5822
39.8644
87.2007
40.8397
129.819
43.8972
31.936
30.7101
27.922
28.3911
30.8041
31.9211
28.3288
31.7103
30.2996
27.7295
27.8494
30.6778
31.1965
28.1452
47.6742
159.001
66.5082
42.1777
148.22
48.535
41.851
45.3028
82.8864
64.2743
39.4426
130.494
43.1458
41.059
32.4559
28.969
32.6053
29.7815
32.4899
28.9122
32.5725
32.1845
28.4421
31.8561
29.6094
31.6256
28.732
32.3484
161.224
185.272
170.573
100.304
78.2785
94.728
77.6477
150.73
158.437
147.218
72.1318
68.8652
70.2008
64.5928
133.72
139.475
134.798
63.9229
58.6291
59.7505
56.0453
130.094
129.907
125.941
57.2064
56.8238
53.1963
51.0834
123.815
122.798
120.939
55.2237
53.6281
49.7624
48.6708
121.76
119.079
117.106
53.2166
53.1027
48.1004
47.4445
117.525
115.083
113.008
52.1976
51.3374
46.975
46.2932
109.815
111.326
101.835
50.8098
46.6596
45.836
39.8171
205.661
208.654
191.979
111.462
95.2812
104.181
82.3172
135.436
281.796
311.374
175.44
133.965
174.221
273.429
91.448
233.701
239.961
98.203
95.2432
96.5507
234.906
81.5194
212.543
219.307
89.2272
87.4541
83.3722
216.337
76.3473
201.133
208.231
81.0768
81.0399
77.5156
205.792
70.9201
188.383
194.347
75.2977
74.9609
72.2609
190.827
67.1682
181.949
183.665
71.4645
71.9529
67.8714
181.761
64.4371
175.08
175.128
69.8636
70.0279
65.0885
172.856
62.1267
167.903
165.931
67.6847
67.8203
62.5937
163.583
96.9331
94.86
79.6547
41.0423
40.5778
34.0937
29.0147
170.845
125.321
141.026
71.6164
70.6681
60.8715
63.6792
100.213
257.2
264.302
136.628
108.788
122.235
251.865
88.1234
242.459
242.696
91.6651
89.4209
89.9955
238.851
81.0339
223.991
223.493
83.8068
82.1688
82.7315
219.001
74.1644
206.413
204.638
77.9396
76.3533
76.1711
198.573
65.9051
179.174
177.985
70.7257
68.4177
68.5566
172.771
58.064
162.921
159.375
62.1464
60.6052
59.6561
154.918
52.7184
147.633
141.609
56.8123
55.5839
54.0089
138.086
47.7099
135.426
129.916
52.0511
50.5875
48.8944
128.134
72.7601
79.508
71.752
29.6789
24.7339
29.6765
24.8785
110.775
111.904
108.613
68.2492
56.5584
65.07
57.931
77.8866
178.163
164.657
89.9142
78.3848
91.7043
155.672
73.3105
186.565
153.463
76.723
75.4471
75.2299
157.437
66.8138
182.514
165.78
70.8953
69.2345
68.035
167.488
62.4514
175.004
169.222
65.4072
64.2176
63.4401
168.807
58.2652
160.515
163.168
60.4651
59.0332
59.4496
160.499
52.9869
144.928
151.191
54.4907
53.0195
54.1993
148.215
49.9173
131.51
139.926
49.81
48.9689
50.5284
137.214
47.8994
123.782
131.767
47.0814
46.4825
48.3547
130.396
71.8278
90.911
79.9073
30.7053
25.1872
33.3501
30.2595
124.878
134.551
145.502
62.3516
67.9215
72.4117
77.3172
95.1137
190.789
223.795
107.075
91.6078
110.648
206.649
80.5092
154.555
181.321
84.1861
80.6434
84.2458
165.849
67.5756
124.983
134.597
69.3589
67.3877
69.4252
131.216
61.7624
124.805
126.755
64.3167
62.9155
62.441
126.478
57.7494
150.385
134.756
58.1931
57.2273
58.3496
140.506
57.3052
160.093
156.359
56.1224
55.9102
57.2359
158.781
58.0834
154.695
158.265
55.7835
55.6672
57.9021
156.552
58.051
148.359
150.97
55.2035
55.1115
58.1295
148.91
82.4606
88.1391
79.1109
36.9665
33.9608
37.9924
34.1407
152.818
178.48
154.974
88.7431
81.292
91.385
77.5368
121.202
140.11
133.469
69.6615
59.0105
68.531
62.8009
103.09
120.043
106.511
53.5263
46.8722
58.807
50.3944
92.7129
100.56
98.7676
43.5751
43.0154
49.2675
49.1592
89.1376
94.3677
89.4634
42.7394
42.2339
47.2847
43.9911
86.6679
87.6918
85.8059