/*--------------------------------*- C++ -*----------------------------------*\
  =========                 |
  \\      /  F ield         | OpenFOAM: The Open Source CFD Toolbox
   \\    /   O peration     | Website:  https://openfoam.org
    \\  /    A nd           | Version:  10
     \\/     M anipulation  |
\*---------------------------------------------------------------------------*/
FoamFile
{
    format      ascii;
    class       volScalarField;
    location    "8";
    object      p;
}
// * * * * * * * * * * * * * * * * * * * * * * * * * * * * * * * * * * * * * //

dimensions      [0 2 -2 0 0 0 0];

internalField   nonuniform List<scalar> 
12920
(
-2.89376e+06
-2.68671e+06
-2.56197e+06
-2.35474e+06
-2.20413e+06
-2.02776e+06
-1.88437e+06
-1.72748e+06
-1.58817e+06
-1.44203e+06
-1.30524e+06
-1.16549e+06
-1.0305e+06
-894449
-761119
-628146
-497395
-367236
-237805
-104020
-3.02605e+06
-2.71149e+06
-2.55421e+06
-2.33744e+06
-2.19208e+06
-2.01774e+06
-1.87923e+06
-1.72207e+06
-1.58545e+06
-1.43951e+06
-1.30354e+06
-1.16377e+06
-1.02911e+06
-893224
-760173
-627542
-496887
-366809
-237422
-103637
-2.91249e+06
-2.65547e+06
-2.50522e+06
-2.30573e+06
-2.16729e+06
-2.00221e+06
-1.86551e+06
-1.71388e+06
-1.57749e+06
-1.43385e+06
-1.29831e+06
-1.15972e+06
-1.02569e+06
-890657
-758125
-625965
-495731
-365901
-236817
-103321
-2.65795e+06
-2.52969e+06
-2.47166e+06
-2.27032e+06
-2.14811e+06
-1.98345e+06
-1.8554e+06
-1.7033e+06
-1.57023e+06
-1.42756e+06
-1.29353e+06
-1.15573e+06
-1.0222e+06
-887617
-755484
-623852
-494099
-364809
-236094
-103059
-2.53733e+06
-2.4926e+06
-2.36551e+06
-2.21793e+06
-2.10762e+06
-1.95725e+06
-1.83261e+06
-1.68901e+06
-1.55764e+06
-1.41842e+06
-1.28531e+06
-1.14921e+06
-1.01652e+06
-882937
-751555
-620805
-491791
-363247
-235173
-102868
-2.75669e+06
-2.51514e+06
-2.33427e+06
-2.17827e+06
-2.0802e+06
-1.93433e+06
-1.81939e+06
-1.67703e+06
-1.54873e+06
-1.41075e+06
-1.27849e+06
-1.1435e+06
-1.01125e+06
-878513
-747701
-617666
-489365
-361655
-234242
-102565
-2.86608e+06
-2.49157e+06
-2.32195e+06
-2.16643e+06
-2.06173e+06
-1.91999e+06
-1.80167e+06
-1.66428e+06
-1.53585e+06
-1.40041e+06
-1.26959e+06
-1.13609e+06
-1.00495e+06
-872925
-742520
-613728
-486499
-359829
-233186
-101792
-2.39216e+06
-2.35888e+06
-2.29411e+06
-2.14902e+06
-2.05775e+06
-1.91076e+06
-1.82532e+06
-1.69115e+06
-1.56009e+06
-1.42715e+06
-1.2956e+06
-1.16323e+06
-1.03206e+06
-900994
-737633
-609929
-484076
-358319
-232266
-100982
-2.5506e+06
-2.34739e+06
-2.2977e+06
-2.14761e+06
-2.04599e+06
-1.93196e+06
-1.83382e+06
-1.70016e+06
-1.56888e+06
-1.43761e+06
-1.30627e+06
-1.1751e+06
-1.04421e+06
-913252
-764667
-606746
-481250
-356742
-231340
-100625
-2.45445e+06
-2.36899e+06
-2.29111e+06
-2.16626e+06
-2.06048e+06
-1.93018e+06
-1.82093e+06
-1.69214e+06
-1.56195e+06
-1.43138e+06
-1.30129e+06
-1.17114e+06
-1.04057e+06
-910086
-762325
-604456
-479953
-355799
-230959
-100734
-2.54468e+06
-2.40987e+06
-2.29525e+06
-2.16082e+06
-2.05047e+06
-1.93384e+06
-1.81815e+06
-1.68897e+06
-1.5579e+06
-1.42734e+06
-1.29751e+06
-1.16807e+06
-1.03848e+06
-908377
-761476
-603841
-479363
-355488
-230783
-100870
-2.55778e+06
-2.39919e+06
-2.3422e+06
-2.18534e+06
-2.07555e+06
-1.93828e+06
-1.82345e+06
-1.69054e+06
-1.55771e+06
-1.42625e+06
-1.29611e+06
-1.16666e+06
-1.03728e+06
-907297
-761338
-604132
-479608
-355642
-230904
-100613
-2.81123e+06
-2.45641e+06
-2.36018e+06
-2.17428e+06
-2.06168e+06
-1.91004e+06
-1.81523e+06
-1.67784e+06
-1.5444e+06
-1.41149e+06
-1.28105e+06
-1.15189e+06
-1.02303e+06
-893817
-733531
-606209
-481012
-356308
-231315
-100508
-2.80966e+06
-2.52883e+06
-2.39705e+06
-2.1806e+06
-2.07066e+06
-1.91405e+06
-1.78549e+06
-1.64503e+06
-1.51425e+06
-1.38098e+06
-1.25261e+06
-1.12165e+06
-994043
-864559
-736513
-608905
-482921
-357487
-232066
-100550
-2.87097e+06
-2.55233e+06
-2.38209e+06
-2.16833e+06
-2.06396e+06
-1.90472e+06
-1.78103e+06
-1.64538e+06
-1.51616e+06
-1.3833e+06
-1.2534e+06
-1.12341e+06
-995442
-866760
-739128
-611444
-485090
-359144
-233150
-100821
-3.09328e+06
-2.6062e+06
-2.42624e+06
-2.18105e+06
-2.06837e+06
-1.90441e+06
-1.78342e+06
-1.64478e+06
-1.51797e+06
-1.38399e+06
-1.25583e+06
-1.12523e+06
-997347
-868390
-741170
-613357
-486782
-360532
-234198
-101509
-2.70992e+06
-2.45998e+06
-2.41305e+06
-2.17003e+06
-2.0597e+06
-1.90317e+06
-1.78235e+06
-1.64534e+06
-1.51851e+06
-1.38497e+06
-1.25717e+06
-1.12644e+06
-998826
-870133
-742842
-615152
-488435
-361729
-235109
-102149
-2.49164e+06
-2.39779e+06
-2.39791e+06
-2.15436e+06
-2.05917e+06
-1.90165e+06
-1.78461e+06
-1.6455e+06
-1.52071e+06
-1.38636e+06
-1.25911e+06
-1.12763e+06
-1.00011e+06
-870916
-743710
-615901
-489177
-362381
-235848
-102946
-2.20686e+06
-2.37398e+06
-2.346e+06
-2.16854e+06
-2.05786e+06
-1.90724e+06
-1.78481e+06
-1.6468e+06
-1.52138e+06
-1.38745e+06
-1.25991e+06
-1.12838e+06
-1.00042e+06
-871310
-744040
-616413
-489819
-363314
-236635
-103999
-2.48454e+06
-2.42513e+06
-2.33539e+06
-2.17533e+06
-2.05679e+06
-1.90814e+06
-1.78571e+06
-1.64758e+06
-1.52222e+06
-1.38794e+06
-1.26031e+06
-1.12839e+06
-1.00031e+06
-870959
-743909
-616477
-490321
-363667
-237023
-105559
-2.9394e+06
-2.69639e+06
-2.56337e+06
-2.35317e+06
-2.20377e+06
-2.02768e+06
-1.88433e+06
-1.72738e+06
-1.5883e+06
-1.44213e+06
-1.30545e+06
-1.16561e+06
-1.03056e+06
-894528
-761138
-628070
-497289
-367149
-237697
-103696
-3.13631e+06
-2.71539e+06
-2.55281e+06
-2.33546e+06
-2.19217e+06
-2.01758e+06
-1.87923e+06
-1.72237e+06
-1.58563e+06
-1.43958e+06
-1.30365e+06
-1.16383e+06
-1.02918e+06
-893272
-760185
-627467
-496810
-366759
-237309
-103141
-2.81005e+06
-2.63016e+06
-2.50488e+06
-2.3053e+06
-2.16785e+06
-2.00258e+06
-1.86592e+06
-1.71394e+06
-1.57755e+06
-1.43386e+06
-1.2984e+06
-1.15978e+06
-1.02571e+06
-890626
-758099
-625913
-495706
-365907
-236688
-102681
-2.66529e+06
-2.54096e+06
-2.47134e+06
-2.26896e+06
-2.14775e+06
-1.98315e+06
-1.85529e+06
-1.70336e+06
-1.57031e+06
-1.42757e+06
-1.29358e+06
-1.15571e+06
-1.02221e+06
-887602
-755496
-623820
-494066
-364776
-235947
-102398
-2.54973e+06
-2.49412e+06
-2.36638e+06
-2.21957e+06
-2.10855e+06
-1.95738e+06
-1.83257e+06
-1.68897e+06
-1.55775e+06
-1.41844e+06
-1.28537e+06
-1.14921e+06
-1.01655e+06
-882949
-751601
-620794
-491764
-363216
-235032
-102190
-2.69741e+06
-2.5079e+06
-2.33425e+06
-2.17757e+06
-2.08178e+06
-1.93548e+06
-1.82046e+06
-1.67717e+06
-1.54857e+06
-1.41072e+06
-1.27848e+06
-1.14349e+06
-1.01127e+06
-878522
-747712
-617645
-489332
-361626
-234118
-101870
-2.89648e+06
-2.47454e+06
-2.32124e+06
-2.16669e+06
-2.06175e+06
-1.9204e+06
-1.80164e+06
-1.66419e+06
-1.53602e+06
-1.40046e+06
-1.26957e+06
-1.13608e+06
-1.00492e+06
-872915
-742502
-613687
-486433
-359803
-233048
-101139
-2.51251e+06
-2.36818e+06
-2.29539e+06
-2.15107e+06
-2.05796e+06
-1.9118e+06
-1.82585e+06
-1.6906e+06
-1.56016e+06
-1.42701e+06
-1.29559e+06
-1.16319e+06
-1.03208e+06
-900968
-737456
-609884
-484050
-358255
-232107
-100372
-2.55384e+06
-2.35737e+06
-2.29836e+06
-2.14956e+06
-2.04661e+06
-1.93272e+06
-1.83489e+06
-1.69993e+06
-1.5688e+06
-1.43742e+06
-1.3062e+06
-1.17506e+06
-1.04416e+06
-913116
-764125
-606634
-481135
-356703
-231217
-100005
-2.59508e+06
-2.38606e+06
-2.29788e+06
-2.16828e+06
-2.06035e+06
-1.93018e+06
-1.82179e+06
-1.69224e+06
-1.56187e+06
-1.43129e+06
-1.3011e+06
-1.17102e+06
-1.04067e+06
-910032
-761925
-604354
-479886
-355781
-230843
-100093
-2.68499e+06
-2.42873e+06
-2.30125e+06
-2.1636e+06
-2.04884e+06
-1.93264e+06
-1.8186e+06
-1.68922e+06
-1.55809e+06
-1.42722e+06
-1.2973e+06
-1.16804e+06
-1.03857e+06
-908243
-760894
-603626
-479303
-355463
-230683
-100202
-2.53108e+06
-2.42009e+06
-2.34187e+06
-2.18564e+06
-2.07455e+06
-1.939e+06
-1.8242e+06
-1.69044e+06
-1.55756e+06
-1.4263e+06
-1.29602e+06
-1.16664e+06
-1.03734e+06
-907246
-760574
-603958
-479536
-355627
-230813
-100007
-2.78881e+06
-2.4895e+06
-2.36346e+06
-2.17412e+06
-2.06223e+06
-1.9108e+06
-1.81638e+06
-1.67828e+06
-1.54372e+06
-1.41116e+06
-1.28123e+06
-1.15192e+06
-1.02322e+06
-893744
-733273
-606105
-480948
-356276
-231203
-99870.2
-2.81129e+06
-2.54229e+06
-2.39511e+06
-2.17604e+06
-2.07079e+06
-1.91224e+06
-1.78527e+06
-1.6452e+06
-1.51359e+06
-1.38066e+06
-1.25231e+06
-1.12152e+06
-993925
-864459
-736396
-608790
-482802
-357429
-231950
-99892.6
-2.76393e+06
-2.53806e+06
-2.37961e+06
-2.16749e+06
-2.06378e+06
-1.904e+06
-1.78054e+06
-1.64443e+06
-1.51592e+06
-1.38313e+06
-1.25324e+06
-1.12347e+06
-995465
-866748
-739061
-611334
-484965
-359045
-232995
-100136
-3.0686e+06
-2.58857e+06
-2.43056e+06
-2.18157e+06
-2.06837e+06
-1.90398e+06
-1.78342e+06
-1.64449e+06
-1.51793e+06
-1.38372e+06
-1.25562e+06
-1.12485e+06
-997205
-868384
-741129
-613313
-486730
-360436
-234045
-100777
-2.80105e+06
-2.50539e+06
-2.41515e+06
-2.17024e+06
-2.05927e+06
-1.90316e+06
-1.78234e+06
-1.64522e+06
-1.5184e+06
-1.38467e+06
-1.25703e+06
-1.12632e+06
-998730
-869939
-742689
-614958
-488248
-361653
-234963
-101442
-2.42999e+06
-2.40927e+06
-2.40917e+06
-2.15574e+06
-2.05874e+06
-1.90012e+06
-1.78458e+06
-1.64563e+06
-1.52085e+06
-1.38649e+06
-1.25924e+06
-1.12774e+06
-1.0002e+06
-870944
-743665
-615824
-489071
-362326
-235739
-102389
-2.46403e+06
-2.41525e+06
-2.3582e+06
-2.17313e+06
-2.05723e+06
-1.9068e+06
-1.78478e+06
-1.64671e+06
-1.52142e+06
-1.38752e+06
-1.26002e+06
-1.1284e+06
-1.00046e+06
-871240
-743997
-616357
-489763
-363293
-236562
-103721
-2.57012e+06
-2.44462e+06
-2.34319e+06
-2.17743e+06
-2.05757e+06
-1.90785e+06
-1.78584e+06
-1.64754e+06
-1.52226e+06
-1.38801e+06
-1.2604e+06
-1.12838e+06
-1.00036e+06
-870927
-743860
-616401
-490219
-363615
-236937
-105434
-3.06543e+06
-2.71375e+06
-2.57043e+06
-2.35437e+06
-2.204e+06
-2.02759e+06
-1.88435e+06
-1.72746e+06
-1.58859e+06
-1.44238e+06
-1.30567e+06
-1.16573e+06
-1.03064e+06
-894371
-760965
-627931
-497182
-367025
-237478
-103081
-3.181e+06
-2.72077e+06
-2.55568e+06
-2.33292e+06
-2.19245e+06
-2.01754e+06
-1.87926e+06
-1.7225e+06
-1.5858e+06
-1.43964e+06
-1.30378e+06
-1.16383e+06
-1.02925e+06
-893247
-760182
-627391
-496726
-366680
-237107
-102242
-2.94237e+06
-2.64301e+06
-2.51027e+06
-2.30494e+06
-2.16836e+06
-2.00282e+06
-1.86613e+06
-1.71397e+06
-1.57766e+06
-1.43386e+06
-1.29854e+06
-1.15984e+06
-1.02575e+06
-890610
-758067
-625829
-495649
-365876
-236465
-101653
-2.63124e+06
-2.53665e+06
-2.47177e+06
-2.26634e+06
-2.14711e+06
-1.98282e+06
-1.85521e+06
-1.70337e+06
-1.57037e+06
-1.42751e+06
-1.29359e+06
-1.15566e+06
-1.02219e+06
-887585
-755511
-623783
-494100
-364786
-235746
-101325
-2.44832e+06
-2.48298e+06
-2.36739e+06
-2.22166e+06
-2.10901e+06
-1.95774e+06
-1.83271e+06
-1.68895e+06
-1.55792e+06
-1.41844e+06
-1.28544e+06
-1.14919e+06
-1.01656e+06
-882948
-751629
-620780
-491693
-363167
-234814
-101095
-2.68356e+06
-2.49698e+06
-2.33553e+06
-2.17819e+06
-2.08409e+06
-1.93582e+06
-1.82084e+06
-1.67723e+06
-1.54868e+06
-1.41064e+06
-1.27838e+06
-1.1434e+06
-1.01123e+06
-878455
-747691
-617586
-489194
-361566
-233897
-100780
-2.60216e+06
-2.44628e+06
-2.31458e+06
-2.16657e+06
-2.06201e+06
-1.92166e+06
-1.80172e+06
-1.66412e+06
-1.53605e+06
-1.40045e+06
-1.26968e+06
-1.13608e+06
-1.00495e+06
-872900
-742552
-613813
-486406
-359734
-232811
-100042
-2.56799e+06
-2.36044e+06
-2.29689e+06
-2.15248e+06
-2.05811e+06
-1.91309e+06
-1.82649e+06
-1.69005e+06
-1.56025e+06
-1.42676e+06
-1.29571e+06
-1.16325e+06
-1.03233e+06
-901156
-737398
-609802
-483897
-358156
-231875
-99286.1
-2.66002e+06
-2.36595e+06
-2.30202e+06
-2.15175e+06
-2.04712e+06
-1.93332e+06
-1.83606e+06
-1.69989e+06
-1.56876e+06
-1.43733e+06
-1.30629e+06
-1.17522e+06
-1.0443e+06
-913124
-763902
-606465
-480971
-356645
-231074
-98900
-2.60803e+06
-2.39869e+06
-2.30641e+06
-2.1703e+06
-2.05995e+06
-1.9313e+06
-1.8226e+06
-1.69245e+06
-1.56187e+06
-1.4312e+06
-1.30099e+06
-1.17106e+06
-1.04085e+06
-910046
-761542
-604278
-479753
-355711
-230678
-98985.5
-2.73631e+06
-2.44228e+06
-2.30736e+06
-2.16625e+06
-2.04581e+06
-1.93131e+06
-1.81913e+06
-1.68904e+06
-1.55807e+06
-1.42256e+06
-1.29715e+06
-1.16836e+06
-1.03857e+06
-908026
-760326
-603465
-479187
-355411
-230541
-99097.5
-2.60748e+06
-2.42853e+06
-2.34264e+06
-2.18737e+06
-2.07245e+06
-1.93936e+06
-1.82457e+06
-1.68993e+06
-1.55726e+06
-1.42615e+06
-1.29592e+06
-1.16653e+06
-1.03745e+06
-907055
-759909
-603855
-479420
-355624
-230679
-98890.4
-2.73017e+06
-2.48313e+06
-2.36374e+06
-2.17295e+06
-2.06196e+06
-1.91205e+06
-1.81874e+06
-1.67774e+06
-1.54351e+06
-1.41073e+06
-1.2811e+06
-1.15188e+06
-1.0231e+06
-893523
-732915
-605924
-480823
-356228
-231076
-98697.2
-2.73538e+06
-2.53491e+06
-2.38601e+06
-2.17324e+06
-2.07041e+06
-1.91061e+06
-1.78456e+06
-1.64511e+06
-1.51307e+06
-1.38017e+06
-1.25172e+06
-1.12122e+06
-993633
-864293
-736183
-608607
-482616
-357333
-231800
-98676.5
-2.73781e+06
-2.54535e+06
-2.37587e+06
-2.16373e+06
-2.06336e+06
-1.90269e+06
-1.7794e+06
-1.64412e+06
-1.51517e+06
-1.38272e+06
-1.25305e+06
-1.12335e+06
-995433
-866661
-738918
-611156
-484761
-358899
-232782
-98948.3
-2.93118e+06
-2.5935e+06
-2.4326e+06
-2.18044e+06
-2.06819e+06
-1.9037e+06
-1.78319e+06
-1.64382e+06
-1.51758e+06
-1.3833e+06
-1.25531e+06
-1.1246e+06
-997091
-868276
-741016
-613145
-486564
-360275
-233813
-99567
-2.8211e+06
-2.51272e+06
-2.41724e+06
-2.1672e+06
-2.05944e+06
-1.90234e+06
-1.78248e+06
-1.64467e+06
-1.51812e+06
-1.3845e+06
-1.25656e+06
-1.12611e+06
-998447
-869696
-742534
-614719
-488008
-361517
-234734
-100237
-2.65718e+06
-2.44201e+06
-2.40748e+06
-2.16056e+06
-2.05646e+06
-1.89828e+06
-1.78415e+06
-1.645e+06
-1.52078e+06
-1.38612e+06
-1.25948e+06
-1.12772e+06
-1.00034e+06
-871048
-743635
-615714
-488936
-362214
-235561
-101395
-2.65156e+06
-2.44568e+06
-2.36297e+06
-2.17539e+06
-2.05655e+06
-1.90631e+06
-1.78475e+06
-1.64652e+06
-1.52148e+06
-1.38754e+06
-1.26002e+06
-1.12827e+06
-1.00044e+06
-871154
-743954
-616214
-489648
-363154
-236427
-103081
-2.55576e+06
-2.45406e+06
-2.35162e+06
-2.17921e+06
-2.05857e+06
-1.90809e+06
-1.78605e+06
-1.64753e+06
-1.52241e+06
-1.38808e+06
-1.26045e+06
-1.12828e+06
-1.00031e+06
-870852
-743814
-616322
-490045
-363551
-236924
-105067
-3.12906e+06
-2.73078e+06
-2.57334e+06
-2.35571e+06
-2.20433e+06
-2.02773e+06
-1.88456e+06
-1.72768e+06
-1.58902e+06
-1.44269e+06
-1.30597e+06
-1.16587e+06
-1.03067e+06
-894243
-760835
-627799
-497035
-366892
-237248
-102139
-3.04702e+06
-2.72386e+06
-2.55048e+06
-2.33474e+06
-2.19287e+06
-2.01773e+06
-1.87943e+06
-1.72265e+06
-1.58602e+06
-1.43973e+06
-1.3039e+06
-1.16383e+06
-1.02935e+06
-893204
-760165
-627345
-496627
-366586
-236907
-100866
-2.80412e+06
-2.62348e+06
-2.50695e+06
-2.30269e+06
-2.16863e+06
-2.00278e+06
-1.86639e+06
-1.71406e+06
-1.5779e+06
-1.43396e+06
-1.29869e+06
-1.15989e+06
-1.02575e+06
-890560
-758008
-625699
-495561
-365810
-236305
-100163
-2.62771e+06
-2.53212e+06
-2.46889e+06
-2.26143e+06
-2.14645e+06
-1.98274e+06
-1.85531e+06
-1.7034e+06
-1.57055e+06
-1.42745e+06
-1.29361e+06
-1.15556e+06
-1.02215e+06
-887516
-755496
-623730
-494025
-364777
-235660
-99785.9
-2.46409e+06
-2.47034e+06
-2.3673e+06
-2.22322e+06
-2.10942e+06
-1.95777e+06
-1.83292e+06
-1.68908e+06
-1.55813e+06
-1.41853e+06
-1.28553e+06
-1.1492e+06
-1.01657e+06
-882962
-751716
-620836
-491626
-363163
-234720
-99532
-2.57821e+06
-2.48479e+06
-2.337e+06
-2.18058e+06
-2.08629e+06
-1.93603e+06
-1.82062e+06
-1.67718e+06
-1.54942e+06
-1.41057e+06
-1.27849e+06
-1.14335e+06
-1.01122e+06
-878393
-747774
-617742
-489138
-361492
-233710
-99232.7
-2.54039e+06
-2.43601e+06
-2.31363e+06
-2.16758e+06
-2.06339e+06
-1.92257e+06
-1.80169e+06
-1.6641e+06
-1.53562e+06
-1.40044e+06
-1.26977e+06
-1.13623e+06
-1.0051e+06
-873103
-742793
-613899
-486328
-359629
-232607
-98500.6
-2.63233e+06
-2.36629e+06
-2.29826e+06
-2.15344e+06
-2.05844e+06
-1.91435e+06
-1.82681e+06
-1.68916e+06
-1.56049e+06
-1.42638e+06
-1.29601e+06
-1.16353e+06
-1.03259e+06
-901301
-737465
-609658
-483714
-358023
-231747
-97713.5
-2.65138e+06
-2.38088e+06
-2.30475e+06
-2.1531e+06
-2.04765e+06
-1.93396e+06
-1.83742e+06
-1.69995e+06
-1.56898e+06
-1.43757e+06
-1.30673e+06
-1.1757e+06
-1.04476e+06
-913387
-763951
-606419
-480748
-356533
-231025
-97381.8
-2.78233e+06
-2.42783e+06
-2.31674e+06
-2.17189e+06
-2.05922e+06
-1.93332e+06
-1.82297e+06
-1.69253e+06
-1.56186e+06
-1.43122e+06
-1.30113e+06
-1.17127e+06
-1.0411e+06
-910115
-761221
-604074
-479536
-355586
-230546
-97422
-2.86227e+06
-2.45629e+06
-2.317e+06
-2.16801e+06
-2.04482e+06
-1.93102e+06
-1.8191e+06
-1.68869e+06
-1.55774e+06
-1.42601e+06
-1.29709e+06
-1.16806e+06
-1.03836e+06
-908030
-759907
-603301
-479029
-355377
-230498
-97548.7
-2.461e+06
-2.42625e+06
-2.34426e+06
-2.18708e+06
-2.07105e+06
-1.9404e+06
-1.82469e+06
-1.68952e+06
-1.55691e+06
-1.42589e+06
-1.29554e+06
-1.16658e+06
-1.03734e+06
-906872
-759681
-603809
-479295
-355630
-230669
-97334
-2.83433e+06
-2.49488e+06
-2.37197e+06
-2.17225e+06
-2.06235e+06
-1.91297e+06
-1.81975e+06
-1.67759e+06
-1.54347e+06
-1.41012e+06
-1.28095e+06
-1.15161e+06
-1.0228e+06
-893261
-732482
-605765
-480713
-356178
-231070
-97105.8
-2.7724e+06
-2.54908e+06
-2.39264e+06
-2.17602e+06
-2.07087e+06
-1.91093e+06
-1.78348e+06
-1.64507e+06
-1.51259e+06
-1.37969e+06
-1.25093e+06
-1.12086e+06
-993230
-864114
-736005
-608436
-482419
-357229
-231730
-97033.7
-2.76751e+06
-2.54329e+06
-2.37859e+06
-2.16284e+06
-2.06235e+06
-1.90128e+06
-1.778e+06
-1.64408e+06
-1.51465e+06
-1.3823e+06
-1.25266e+06
-1.12316e+06
-995359
-866579
-738789
-610961
-484526
-358729
-232662
-97335.7
-3.11214e+06
-2.62145e+06
-2.44165e+06
-2.18469e+06
-2.06763e+06
-1.90244e+06
-1.78287e+06
-1.64316e+06
-1.51712e+06
-1.3831e+06
-1.25509e+06
-1.12439e+06
-996993
-868188
-740890
-612957
-486341
-360079
-233639
-97931.8
-2.94263e+06
-2.53841e+06
-2.42561e+06
-2.17102e+06
-2.0588e+06
-1.90089e+06
-1.78228e+06
-1.64419e+06
-1.51788e+06
-1.38433e+06
-1.25634e+06
-1.12597e+06
-998333
-869625
-742385
-614465
-487824
-361343
-234568
-98566.7
-2.75003e+06
-2.46656e+06
-2.41656e+06
-2.16667e+06
-2.05531e+06
-1.8965e+06
-1.78335e+06
-1.64431e+06
-1.52053e+06
-1.38583e+06
-1.25945e+06
-1.12756e+06
-1.00029e+06
-870961
-743598
-615684
-488796
-362090
-235409
-99854.5
-2.81264e+06
-2.49648e+06
-2.3794e+06
-2.18102e+06
-2.05807e+06
-1.90583e+06
-1.78483e+06
-1.6464e+06
-1.5216e+06
-1.38765e+06
-1.26004e+06
-1.12819e+06
-1.00038e+06
-871026
-743890
-616109
-489507
-363012
-236268
-102049
-2.62213e+06
-2.48268e+06
-2.36103e+06
-2.17825e+06
-2.05871e+06
-1.90782e+06
-1.78625e+06
-1.64755e+06
-1.52263e+06
-1.38812e+06
-1.26048e+06
-1.12825e+06
-1.00029e+06
-870846
-743790
-616242
-489917
-363379
-236784
-104571
-3.10603e+06
-2.72165e+06
-2.57691e+06
-2.35664e+06
-2.20488e+06
-2.0279e+06
-1.88482e+06
-1.72789e+06
-1.58942e+06
-1.44291e+06
-1.30619e+06
-1.16593e+06
-1.03069e+06
-894126
-760727
-627689
-496892
-366798
-237109
-101110
-3.01311e+06
-2.71729e+06
-2.55541e+06
-2.33537e+06
-2.19387e+06
-2.01781e+06
-1.87966e+06
-1.72275e+06
-1.58621e+06
-1.43978e+06
-1.304e+06
-1.16382e+06
-1.02945e+06
-893161
-760138
-627286
-496548
-366528
-236845
-99361.1
-2.70603e+06
-2.62324e+06
-2.5069e+06
-2.30079e+06
-2.16906e+06
-2.00242e+06
-1.86662e+06
-1.71412e+06
-1.57815e+06
-1.43406e+06
-1.29873e+06
-1.15986e+06
-1.02572e+06
-890437
-757969
-625641
-495507
-365793
-236351
-98557.4
-2.64382e+06
-2.539e+06
-2.46767e+06
-2.25957e+06
-2.1468e+06
-1.98302e+06
-1.8557e+06
-1.70344e+06
-1.57099e+06
-1.42735e+06
-1.29365e+06
-1.1554e+06
-1.02203e+06
-887364
-755466
-623690
-493993
-364761
-235699
-98141.4
-2.33379e+06
-2.45271e+06
-2.36957e+06
-2.22358e+06
-2.10972e+06
-1.95742e+06
-1.83305e+06
-1.68925e+06
-1.55825e+06
-1.41864e+06
-1.28563e+06
-1.1492e+06
-1.0166e+06
-882979
-751816
-620930
-491561
-363142
-234765
-97878.1
-2.58542e+06
-2.46493e+06
-2.33927e+06
-2.18418e+06
-2.08797e+06
-1.93594e+06
-1.82072e+06
-1.67703e+06
-1.54967e+06
-1.41042e+06
-1.27881e+06
-1.14327e+06
-1.01136e+06
-878443
-748049
-617900
-489056
-361414
-233725
-97562.6
-2.60172e+06
-2.42744e+06
-2.31055e+06
-2.16724e+06
-2.06429e+06
-1.92303e+06
-1.80201e+06
-1.66417e+06
-1.53549e+06
-1.40053e+06
-1.26966e+06
-1.13643e+06
-1.00505e+06
-873274
-742944
-613876
-486222
-359542
-232556
-96835.3
-2.51349e+06
-2.36628e+06
-2.29585e+06
-2.15384e+06
-2.05971e+06
-1.91463e+06
-1.82614e+06
-1.68835e+06
-1.56031e+06
-1.42599e+06
-1.29602e+06
-1.16358e+06
-1.03277e+06
-901373
-737596
-609584
-483544
-357903
-231818
-96037.3
-2.74067e+06
-2.38451e+06
-2.30767e+06
-2.15307e+06
-2.04832e+06
-1.93407e+06
-1.83739e+06
-1.70003e+06
-1.56906e+06
-1.43762e+06
-1.30701e+06
-1.17604e+06
-1.04522e+06
-913648
-763981
-606459
-480590
-356434
-231140
-95712.3
-2.68065e+06
-2.42271e+06
-2.31957e+06
-2.16964e+06
-2.05808e+06
-1.93493e+06
-1.82308e+06
-1.69259e+06
-1.56197e+06
-1.43133e+06
-1.30133e+06
-1.17156e+06
-1.04135e+06
-910120
-761223
-603817
-479229
-355424
-230591
-95719
-2.86379e+06
-2.45577e+06
-2.31879e+06
-2.16874e+06
-2.04458e+06
-1.93146e+06
-1.81867e+06
-1.6885e+06
-1.55757e+06
-1.42673e+06
-1.29707e+06
-1.16794e+06
-1.03847e+06
-907848
-759749
-603214
-478859
-355327
-230639
-95815.5
-2.45998e+06
-2.4195e+06
-2.34426e+06
-2.18636e+06
-2.06914e+06
-1.94181e+06
-1.82486e+06
-1.68951e+06
-1.55677e+06
-1.42564e+06
-1.29544e+06
-1.16659e+06
-1.03728e+06
-906743
-759660
-603856
-479210
-355678
-230859
-95618.6
-2.83621e+06
-2.49827e+06
-2.37194e+06
-2.16908e+06
-2.06299e+06
-1.91245e+06
-1.81819e+06
-1.67716e+06
-1.54387e+06
-1.40983e+06
-1.28119e+06
-1.15122e+06
-1.02272e+06
-892942
-732080
-605654
-480646
-356150
-231266
-95391.7
-2.82412e+06
-2.55533e+06
-2.39475e+06
-2.17924e+06
-2.07101e+06
-1.90939e+06
-1.7836e+06
-1.64503e+06
-1.51323e+06
-1.37956e+06
-1.25036e+06
-1.12056e+06
-992780
-863854
-735930
-608316
-482269
-357138
-231871
-95273.5
-2.6798e+06
-2.55242e+06
-2.37973e+06
-2.16712e+06
-2.06219e+06
-1.90045e+06
-1.77725e+06
-1.64414e+06
-1.51345e+06
-1.38186e+06
-1.25215e+06
-1.12295e+06
-995395
-866496
-738674
-610808
-484352
-358593
-232764
-95551.7
-3.03159e+06
-2.61638e+06
-2.43758e+06
-2.18733e+06
-2.06627e+06
-1.90329e+06
-1.78165e+06
-1.64228e+06
-1.51649e+06
-1.38283e+06
-1.25485e+06
-1.12418e+06
-996850
-868089
-740734
-612788
-486138
-359932
-233699
-96130.8
-2.97531e+06
-2.53808e+06
-2.42932e+06
-2.17522e+06
-2.05806e+06
-1.89953e+06
-1.78204e+06
-1.6438e+06
-1.51762e+06
-1.38417e+06
-1.25627e+06
-1.12583e+06
-998258
-869498
-742301
-614359
-487647
-361203
-234635
-96717.2
-2.82756e+06
-2.49477e+06
-2.41209e+06
-2.17048e+06
-2.05566e+06
-1.89606e+06
-1.78261e+06
-1.64368e+06
-1.52047e+06
-1.38565e+06
-1.25931e+06
-1.12736e+06
-1.00015e+06
-870935
-743579
-615597
-488739
-362005
-235409
-98034.3
-3.00442e+06
-2.51353e+06
-2.38138e+06
-2.18104e+06
-2.0583e+06
-1.9051e+06
-1.78475e+06
-1.64628e+06
-1.52171e+06
-1.38767e+06
-1.26003e+06
-1.12816e+06
-1.00025e+06
-870886
-743825
-616066
-489412
-362918
-236248
-100766
-2.6705e+06
-2.48445e+06
-2.36475e+06
-2.17926e+06
-2.05916e+06
-1.90785e+06
-1.78659e+06
-1.6476e+06
-1.52285e+06
-1.38812e+06
-1.26045e+06
-1.12815e+06
-1.00025e+06
-870819
-743748
-616161
-489774
-363265
-236723
-104071
-1.33338e+06
-1.42353e+06
-1.33018e+06
-1.43119e+06
-1.33345e+06
-1.42323e+06
-1.3301e+06
-1.20351e+06
-1.29793e+06
-1.20435e+06
-1.30107e+06
-1.20365e+06
-1.29793e+06
-1.20442e+06
-1.3294e+06
-1.42609e+06
-1.32832e+06
-1.42223e+06
-1.32937e+06
-1.42587e+06
-1.32809e+06
-1.20427e+06
-1.29598e+06
-1.19893e+06
-1.29715e+06
-1.2043e+06
-1.29576e+06
-1.19884e+06
-1.73409e+06
-1.82424e+06
-1.72709e+06
-1.83455e+06
-1.73408e+06
-1.82466e+06
-1.72707e+06
-1.60286e+06
-1.69445e+06
-1.59621e+06
-1.69999e+06
-1.60283e+06
-1.69438e+06
-1.5961e+06
-1.47193e+06
-1.56365e+06
-1.46539e+06
-1.56882e+06
-1.47195e+06
-1.56354e+06
-1.46533e+06
-1.34034e+06
-1.43289e+06
-1.33482e+06
-1.43747e+06
-1.34038e+06
-1.43282e+06
-1.33473e+06
-1.20921e+06
-1.30253e+06
-1.20461e+06
-1.30621e+06
-1.20929e+06
-1.30239e+06
-1.20451e+06
-1.07811e+06
-1.17216e+06
-1.07387e+06
-1.17506e+06
-1.07817e+06
-1.17205e+06
-1.07392e+06
-947150
-1.04142e+06
-943453
-1.04417e+06
-947161
-1.04148e+06
-943369
-815735
-910870
-811851
-913146
-815521
-910776
-811589
-1.72482e+06
-1.81665e+06
-1.72148e+06
-1.8215e+06
-1.72491e+06
-1.81762e+06
-1.7219e+06
-1.59456e+06
-1.68869e+06
-1.591e+06
-1.69221e+06
-1.59448e+06
-1.68903e+06
-1.59128e+06
-1.46398e+06
-1.55827e+06
-1.46055e+06
-1.56188e+06
-1.46392e+06
-1.55852e+06
-1.46057e+06
-1.33365e+06
-1.42805e+06
-1.3306e+06
-1.43132e+06
-1.33356e+06
-1.42796e+06
-1.33041e+06
-1.20369e+06
-1.29821e+06
-1.20105e+06
-1.30116e+06
-1.20354e+06
-1.29804e+06
-1.20097e+06
-1.0731e+06
-1.16864e+06
-1.07133e+06
-1.17104e+06
-1.07317e+06
-1.16862e+06
-1.07138e+06
-942726
-1.03886e+06
-941268
-1.04064e+06
-942717
-1.03892e+06
-941318
-811280
-908611
-810453
-910042
-811060
-908648
-810229
-1.72199e+06
-1.82264e+06
-1.72366e+06
-1.81839e+06
-1.72216e+06
-1.82289e+06
-1.72358e+06
-1.59083e+06
-1.69001e+06
-1.59068e+06
-1.6892e+06
-1.59097e+06
-1.68996e+06
-1.59033e+06
-1.45986e+06
-1.55792e+06
-1.45896e+06
-1.55806e+06
-1.45993e+06
-1.55769e+06
-1.45899e+06
-1.32991e+06
-1.4262e+06
-1.32871e+06
-1.42726e+06
-1.32978e+06
-1.42627e+06
-1.32859e+06
-1.20043e+06
-1.29632e+06
-1.1991e+06
-1.29737e+06
-1.20036e+06
-1.2962e+06
-1.19907e+06
-1.07091e+06
-1.16686e+06
-1.06974e+06
-1.16805e+06
-1.07096e+06
-1.16683e+06
-1.0697e+06
-941007
-1.03735e+06
-939762
-1.03855e+06
-940990
-1.0373e+06
-939894
-810240
-907239
-809451
-908306
-809909
-907380
-809087
-1.72428e+06
-1.82826e+06
-1.72746e+06
-1.82399e+06
-1.72421e+06
-1.8289e+06
-1.72749e+06
-1.59098e+06
-1.69163e+06
-1.59291e+06
-1.69049e+06
-1.59065e+06
-1.69157e+06
-1.59269e+06
-1.45899e+06
-1.55847e+06
-1.45991e+06
-1.5576e+06
-1.45895e+06
-1.55864e+06
-1.45996e+06
-1.32837e+06
-1.42623e+06
-1.32851e+06
-1.4263e+06
-1.32834e+06
-1.42594e+06
-1.32867e+06
-1.1988e+06
-1.29517e+06
-1.19914e+06
-1.29605e+06
-1.19877e+06
-1.2953e+06
-1.19921e+06
-1.06955e+06
-1.16596e+06
-1.07033e+06
-1.16666e+06
-1.06951e+06
-1.16611e+06
-1.07032e+06
-939692
-1.03725e+06
-940614
-1.03728e+06
-939790
-1.03732e+06
-940416
-809416
-907515
-810658
-907292
-808951
-907069
-810479
-1.73405e+06
-1.82495e+06
-1.72704e+06
-1.83565e+06
-1.73419e+06
-1.82549e+06
-1.72695e+06
-1.6028e+06
-1.69435e+06
-1.59605e+06
-1.69989e+06
-1.60271e+06
-1.69418e+06
-1.59595e+06
-1.47193e+06
-1.56351e+06
-1.46529e+06
-1.56874e+06
-1.47192e+06
-1.56345e+06
-1.46521e+06
-1.34038e+06
-1.43279e+06
-1.33469e+06
-1.43733e+06
-1.34041e+06
-1.43272e+06
-1.33465e+06
-1.20933e+06
-1.30236e+06
-1.20447e+06
-1.30623e+06
-1.20948e+06
-1.30231e+06
-1.20445e+06
-1.0782e+06
-1.17203e+06
-1.07395e+06
-1.17514e+06
-1.07831e+06
-1.17207e+06
-1.07405e+06
-947165
-1.0415e+06
-943351
-1.04423e+06
-947196
-1.04162e+06
-943371
-815324
-910750
-811448
-913090
-815079
-910736
-811198
-1.72496e+06
-1.81798e+06
-1.72205e+06
-1.8224e+06
-1.72515e+06
-1.81853e+06
-1.72232e+06
-1.59447e+06
-1.68917e+06
-1.59132e+06
-1.69239e+06
-1.59449e+06
-1.68944e+06
-1.5914e+06
-1.46389e+06
-1.55856e+06
-1.46058e+06
-1.56187e+06
-1.46382e+06
-1.55861e+06
-1.46035e+06
-1.33351e+06
-1.42792e+06
-1.33032e+06
-1.43123e+06
-1.3334e+06
-1.42711e+06
-1.33011e+06
-1.20351e+06
-1.29796e+06
-1.20092e+06
-1.301e+06
-1.20348e+06
-1.29782e+06
-1.20154e+06
-1.07319e+06
-1.1686e+06
-1.07141e+06
-1.17103e+06
-1.07331e+06
-1.16878e+06
-1.07153e+06
-942717
-1.03896e+06
-941338
-1.0408e+06
-942752
-1.03909e+06
-941285
-810929
-908649
-810064
-910033
-810711
-908503
-809659
-1.72214e+06
-1.82296e+06
-1.72353e+06
-1.81901e+06
-1.72195e+06
-1.8229e+06
-1.72316e+06
-1.59101e+06
-1.6899e+06
-1.59025e+06
-1.68911e+06
-1.59098e+06
-1.68936e+06
-1.58998e+06
-1.45994e+06
-1.5576e+06
-1.45898e+06
-1.55811e+06
-1.45979e+06
-1.55729e+06
-1.45886e+06
-1.32972e+06
-1.42626e+06
-1.32854e+06
-1.4265e+06
-1.32962e+06
-1.42615e+06
-1.32839e+06
-1.20031e+06
-1.29616e+06
-1.19905e+06
-1.29721e+06
-1.2009e+06
-1.29603e+06
-1.19897e+06
-1.07099e+06
-1.16682e+06
-1.06967e+06
-1.16818e+06
-1.07106e+06
-1.16671e+06
-1.06981e+06
-940950
-1.03731e+06
-939942
-1.0386e+06
-940787
-1.03755e+06
-939904
-809696
-907371
-808835
-908046
-809465
-907251
-808367
-1.72417e+06
-1.82935e+06
-1.72751e+06
-1.82448e+06
-1.72401e+06
-1.83039e+06
-1.7279e+06
-1.59041e+06
-1.6916e+06
-1.59257e+06
-1.69009e+06
-1.58992e+06
-1.69179e+06
-1.59204e+06
-1.45892e+06
-1.5586e+06
-1.4599e+06
-1.55735e+06
-1.45879e+06
-1.55806e+06
-1.45988e+06
-1.32831e+06
-1.42583e+06
-1.32873e+06
-1.4262e+06
-1.32819e+06
-1.42553e+06
-1.32885e+06
-1.19876e+06
-1.29533e+06
-1.19932e+06
-1.29594e+06
-1.1986e+06
-1.29538e+06
-1.19943e+06
-1.06956e+06
-1.16615e+06
-1.07026e+06
-1.16653e+06
-1.06976e+06
-1.16627e+06
-1.07002e+06
-939768
-1.03723e+06
-940332
-1.03746e+06
-939640
-1.03681e+06
-940139
-808658
-906915
-810320
-907104
-808141
-906605
-809984
-1.73429e+06
-1.8257e+06
-1.72691e+06
-1.83698e+06
-1.73474e+06
-1.82591e+06
-1.72683e+06
-1.60269e+06
-1.69413e+06
-1.59594e+06
-1.69993e+06
-1.60271e+06
-1.69405e+06
-1.59596e+06
-1.47193e+06
-1.56345e+06
-1.46519e+06
-1.56892e+06
-1.47192e+06
-1.56347e+06
-1.46519e+06
-1.34045e+06
-1.43271e+06
-1.33465e+06
-1.43747e+06
-1.34063e+06
-1.43274e+06
-1.33477e+06
-1.20956e+06
-1.30232e+06
-1.20447e+06
-1.30659e+06
-1.20985e+06
-1.30246e+06
-1.20462e+06
-1.07837e+06
-1.17211e+06
-1.07411e+06
-1.17555e+06
-1.07862e+06
-1.17229e+06
-1.07432e+06
-947235
-1.04168e+06
-943397
-1.0446e+06
-947412
-1.04192e+06
-943530
-814945
-910752
-811086
-913287
-815003
-910864
-811089
-1.72524e+06
-1.81862e+06
-1.72231e+06
-1.82287e+06
-1.72545e+06
-1.81846e+06
-1.72208e+06
-1.59449e+06
-1.68943e+06
-1.5914e+06
-1.69253e+06
-1.59447e+06
-1.68925e+06
-1.59126e+06
-1.4638e+06
-1.55861e+06
-1.46015e+06
-1.56186e+06
-1.46378e+06
-1.55849e+06
-1.45994e+06
-1.39733e+06
-1.39848e+06
-1.42995e+06
-1.43118e+06
-1.39733e+06
-1.39846e+06
-1.42994e+06
-1.26721e+06
-1.26844e+06
-1.29976e+06
-1.30099e+06
-1.26724e+06
-1.26844e+06
-1.29976e+06
-1.07335e+06
-1.16893e+06
-1.07156e+06
-1.17121e+06
-1.07354e+06
-1.16899e+06
-1.07154e+06
-942776
-1.03911e+06
-941223
-1.04103e+06
-942872
-1.03903e+06
-941007
-810605
-908421
-809507
-910106
-810537