/*--------------------------------*- C++ -*----------------------------------*\
  =========                 |
  \\      /  F ield         | OpenFOAM: The Open Source CFD Toolbox
   \\    /   O peration     | Website:  https://openfoam.org
    \\  /    A nd           | Version:  10
     \\/     M anipulation  |
\*---------------------------------------------------------------------------*/
FoamFile
{
    format      ascii;
    class       surfaceScalarField;
    location    "8";
    object      phi;
}
// * * * * * * * * * * * * * * * * * * * * * * * * * * * * * * * * * * * * * //

dimensions      [0 3 -1 0 0 0 0];

internalField   nonuniform List<scalar> 
38556
(
727.784
787.911
1066.46
874.827
177.514
-324.557
879.8
-31.1345
26.1606
968.403
-31.1381
-57.4646
1016.25
-20.6233
-27.2226
1055.35
-48.4571
9.35174
1072.9
-23.2056
5.65726
1107.14
-9.02953
-25.2116
1126.12
29.4466
-48.4234
1153.07
60.2232
-87.172
1168.8
83.608
-99.3337
1184.52
94.3119
-110.037
1179.31
88.2052
-82.9982
1123.9
90.5308
-35.1212
1007.27
85.7282
30.9011
912.343
62.6268
32.304
870.497
31.6862
10.1602
858.014
15.7345
-3.25161
862.742
-5.04966
0.321994
-11.5321
-2.16224
1372.11
-555.501
2419.84
1323.92
-368.341
594.045
734.686
-194.784
752.883
631.201
-47.0515
119.398
672.148
-4.49771
-57.0728
694.641
-4.7741
-66.1765
752.917
3.14948
-84.6309
801.712
16.8155
-74.6394
859.35
28.8786
-57.0706
911.811
52.652
-44.889
948.867
62.5494
-15.9974
964.231
74.8126
4.13471
947.243
73.3828
31.811
906.77
81.2779
49.7259
851.838
80.1468
60.5137
811.122
65.8944
37.4484
795.945
27.3241
19.5389
797.209
1.69996
12.7706
806.383
-31.8122
17.5878
-40.5886
15.4215
2110.26
-913.288
-415.86
1849.67
-122.741
14.98
1217.25
186.381
251.263
1103.3
36.3566
30.537
1019.74
106.18
-27.1192
998.434
38.4081
-21.8726
978.992
29.0236
-6.43168
979.893
28.3298
-12.4148
975.34
29.3671
4.06446
972.696
52.5731
2.72288
954.912
61.6088
18.7247
929.55
77.2856
22.8889
885.682
80.1269
37.1241
847.806
85.7887
33.3652
822.736
77.6885
27.5289
808.26
64.6462
15.7233
803.678
25.0046
6.90209
804.531
-5.49977
6.34614
804.819
-37.1424
5.04267
-44.671
-2.25973
-338.196
-274.213
-3507.9
-45.985
95.4004
-510.352
432.319
-30.0318
-261.891
551.555
-23.4149
-59.4646
748.309
18.1663
-108.74
817.684
27.0775
-58.0448
871.76
14.141
-39.1938
886.022
49.3151
-35.2482
891.988
35.8884
-12.4874
890.28
71.9143
-17.6328
884.828
68.1198
-1.05864
875.809
85.5791
0.724932
862.737
79.9743
13.2247
852.922
82.1194
13.4841
845.412
71.0535
14.1452
838.109
62.5023
9.44669
823.38
37.4493
2.28435
810.017
10.8224
-2.95878
802.593
-26.2768
-3.44214
-38.4359
-8.65869
-618.429
1439.95
493.941
360.228
-122.41
-760.847
988.083
-69.4801
-588.406
1073.66
-50.1709
-58.8258
1110.7
2.29993
-21.1699
1076.09
51.774
9.91718
1022.51
39.6359
28.0842
973.158
92.7662
5.89919
929.34
70.619
9.08746
904.293
101.97
-5.00786
888.041
85.7104
-1.33891
880.872
97.288
-4.53956
875.883
84.9092
0.0538843
873.215
86.4619
-1.67428
871.013
73.0474
0.208304
870.51
65.1277
-2.12322
864.195
48.861
-5.09609
858.816
20.8517
-4.65074
856.387
-20.5455
-3.30255
-34.247
-9.02737
-565.302
1777.64
-361.895
197.85
-256.962
-628.6
265.635
-118.422
-18.8421
388.535
-228.71
55.6395
552.542
-154.211
-7.4967
578.055
-6.05131
32.3128
712.704
-99.0136
4.00065
720.236
96.5122
-11.2783
761.134
36.2677
-6.54612
775.333
98.3556
-10.5855
793.207
70.3688
-2.53164
804.23
89.0941
-2.82902
816.72
71.7925
0.626184
832.123
71.9901
-0.931128
844.201
60.772
0.197082
855.982
54.1148
-0.76828
869.324
30.8773
4.64203
880.654
-1.31006
10.8313
881.554
-30.4791
9.03453
-35.8978
-3.45051
243.084
-372.473
330.393
952.948
-94.1378
-872.689
993.596
-147.79
-11.2788
998.484
-244.293
10.6943
982.852
-123.531
-15.0477
884.176
123.299
-30.6756
821.592
10.0576
-15.4931
-19.4778
6.67379
-18.1888
768.052
34.148
-18.4505
48.5633
37.2757
48.5158
750.43
19.7702
-2.61406
7.22909
20.2768
9.22713
745.313
22.5125
-4.81053
29.447
25.6146
30.7094
747.229
19.4288
-1.72021
14.6173
20.6932
15.433
751.277
20.7547
-3.13303
22.577
22.0327
22.8154
756.067
18.454
-2.29615
16.2777
18.5522
16.0144
761.255
17.8637
-4.4252
18.157
17.4963
17.7097
779.289
48.4511
-5.71263
801.079
35.8317
-3.50741
800.85
13.4115
17.6956
780.858
-12.3891
31.0707
754.042
-26.2844
22.6214
-28.239
0.154626
-1484.09
-919.848
291.633
-320.173
-313.48
-944.57
229.918
-425.428
-272.454
305.722
-219.685
-100.412
508.623
-142.341
-184.091
112.576
30.3285
-31.8185
104.217
107.909
97.0319
88.5582
34.1107
89.0101
118.175
2.20541
2.25317
-106.13
130.936
12.7192
-3.37728
-140.138
140.194
19.0752
0.639208
-130.766
140.037
15.647
-2.40522
-143.516
150.409
14.0279
-1.49218
-148.895
158.643
13.0758
-2.06829
-160.633
167.768
13.014
-1.69472
-166.877
174.289
11.6867
-1.23477
677.33
8.1979
-4.24042
-172.281
-168.969
-163.188
-155.091
10.4572
6.62255
9.61261
673.857
26.4874
12.8167
650.68
11.8041
24.7848
629.187
-8.31326
17.4166
622.092
-21.2329
2.04427
-21.9438
-11.7058
-1499.93
-1621.67
-314.153
-132.508
-922.497
-758.401
467.19
-498.681
-526.444
490.291
-85.0761
-157.711
161.246
-36.8164
-221.778
142.991
158.646
143.661
186.3
26.6445
-21.3694
-3.91848
-52.2734
46.5776
11.5024
-1.8881
-35.9451
-0.0424582
33.8666
2.8573
-0.736371
-32.9832
-6.08935
33.6123
5.64291
-0.18269
-32.3031
-5.40862
33.2243
4.9181
-0.4307
-33.4026
-3.83353
34.3436
3.14452
-0.251911
-34.5524
-2.93415
35.6911
2.21968
-0.424217
-36.7199
-2.88286
37.8277
2.17194
-0.396893
-38.6128
-2.58485
39.6513
1.90187
-0.355518
-39.9661
159.698
4.21786
0.0559869
-39.3015
-38.8424
-37.6644
564.5
19.0151
10.4713
-153.53
-138.168
-143.901
-131.9
565.384
-2.58481
13.5048
575.741
-24.5389
5.86808
592.101
-35.3655
-2.22686
-29.0576
-8.15415
1264.08
-1171.26
4446.8
775.537
-973.639
539.68
261.684
-168.878
184.049
67.5277
117.033
-7.95364
-8.34897
85.4409
-19.3829
-31.6173
12.5775
-7.95798
-39.2736
21.8402
23.6181
-14.5336
-15.7132
-21.1267
24.0088
13.6154
-0.784278
-11.6152
-30.9888
32.1793
11.0928
-0.668069
-7.38566
-33.3154
33.196
7.92363
-0.418586
-6.71328
-33.4937
33.5081
7.13238
-0.433462
-5.14413
-33.3093
32.7594
5.64706
0.0470218
-3.6313
-31.3658
31.1085
3.92716
-0.0385745
-3.07109
-30.8335
30.7462
3.1143
0.0440509
-2.53759
-30.6284
30.4951
2.61304
0.0578983
-30.6925
-6.89036
124.784
6.93464
-1.54132
-30.7433
-30.9026
-30.9489
577.002
-9.951
-14.4211
-129.083
-140.456
-127.617
-136.458
621.951
-36.2434
-11.2906
650.151
-51.1645
-1.57384
659.67
-50.8269
5.94217
-36.9201
-0.32269
2358.73
-1315.34
-1528.76
1873.95
-1119.64
630.783
1252.58
-23.4137
475.899
829.414
325.45
214.753
67.2753
247.517
345.007
68.6235
93.9018
92.5296
-1.42774
50.9238
17.4523
0.326959
-5.00037
-13.268
15.3398
2.57791
0.350661
-6.35637
-22.2868
23.466
4.08042
1.09677
-6.93842
-25.725
26.2168
6.08272
0.363933
-7.15605
-27.5489
27.8293
6.9046
-0.0289454
-6.23657
-28.0675
28.0112
6.45924
-0.166413
-4.1075
-28.1577
28.4231
4.21154
-0.369432
-1.83369
-29.9391
30.5801
1.51184
-0.31918
-1.42666
-32.5288
33.2366
0.934399
-0.215571
-35.412
-4.29064
147.557
-0.335982
-1.92923
-35.4912
-34.9101
-35.1877
647.045
-41.3967
-8.61243
-152.8
-157.297
-147.367
-149.525
675.839
-57.3086
-7.72814
693.047
-62.9427
-5.42986
696.872
-53.6294
-1.02347
-36.647
-6.26717
1458.37
-1148.76
-4003.77
1040.28
-883.398
181.857
779.622
213.21
24.03
586.193
425.577
93.3023
2.39486
385.506
267.919
71.3001
28.3248
78.2643
-24.2071
29.2071
9.74066
-12.3457
6.20376
-23.2172
25.2836
-8.46633
0.196204
7.513
-28.2114
28.7992
-9.66905
1.5683
-2.17286
-30.191
30.2967
-0.231767
2.29893
-4.58473
-31.6434
32.2684
1.93114
2.02854
-7.32612
-31.7069
31.1122
7.57696
0.343855
-5.13715
-31.6159
32.0148
5.61955
-0.88132
-1.89531
-34.5754
35.066
2.0943
-0.68963
-0.055353
-36.9049
37.2776
-0.174342
-0.143026
-39.6642
5.32316
156.435
-6.49187
0.967496
-40.2647
-38.0443
-38.2602
594.068
-63.0017
13.6518
-155.309
-146.314
-145.234
-139.26
598.252
-69.1293
7.63659
604.887
-69.891
0.313648
617.256
-58.9404
-7.05773
-39.3927
-12.5732
1218.57
-1386.43
-3400.28
1142.76
-413.424
-394.162
1051.76
497.323
-193.109
996.408
485.469
-4.54137
785.188
465.034
131.692
157.342
32.7087
-13.7853
5.41941
73.1515
3.5315
73.148
158.154
144.898
150.621
6.45176
150.746
-5.84214
-5.84622
2.93353
6.60901
2.28975
7.43864
-120.871
99.0198
-8.84117
3.26538
6.71223
6.97336
6.30247
3.75347
-104.137
99.3676
-11.2252
1.30104
3.80044
3.66273
3.47697
0.507188
-87.5543
86.5044
-2.5973
0.380563
1.67179
0.0342144
1.05352
-3.60023
-100.455
111.504
-1.29831
4.20972
-4.07174
-3.20135
-3.0865
-3.4796
-117.916
121.046
1.75668
4.86959
-2.58043
-2.55712
-1.13971
-1.25065
-127.967
128.162
-3.66442
4.79299
-0.101543
-0.504539
0.53359
0.125588
-128.387
126.853
-5.93942
3.6536
1.29454
0.698119
1.70164
512.51
-66.9713
4.39158
9.78136
14.2264
10.9855
14.9373
-127.706
-127.952
-120.927
-123.275
530.641
-81.829
0.696491
545.261
-82.6495
-1.1003
557.87
-80.1805
-2.31919
568.759
-67.1102
-2.71935
-42.8047
-10.1194
871.047
-624.547
-1604.65
1392.47
108.968
-1043.82
1127.91
757.538
4.34108
987.499
567.635
58.2501
756.949
469.817
225.767
585.662
197.175
6.82119
527.293
221.079
-14.5675
-19.1708
-53.2278
-21.6662
-54.0772
476.94
33.1572
-54.7492
-0.190279
31.8077
6.96423
33.3629
485.732
62.1113
-49.831
6.41366
-15.6529
3.1498
-14.9835
490.864
-51.9923
-20.0176
8.57899
22.9033
11.0891
24.3065
504.469
-43.9834
-0.500033
9.26536
4.7037
10.2745
6.63455
522.499
-72.9302
-3.15898
9.03571
17.4071
12.5522
19.0642
535.967
-46.1644
-8.00195
8.1076
10.078
10.6216
11.8909
544.931
-64.3233
-7.74423
12.5231
17.3741
14.9115
18.2951
550.102
-70.0033
-2.13895
551.486
-86.9554
3.74261
549.589
-85.2006
4.44737
546.398
-79.5309
2.54135
544.923
-65.3608
-0.274107
-39.8902
-9.63924
-1549.25
76.26
-102.834
-35.5199
-33.0463
-1371.71
825.89
414.685
-518.557
998.33
448.518
-53.3229
1141.19
355.634
-28.6742
1226.75
231.784
-120.177
1282.27
241.333
-75.7663
1262.93
153.289
-100.796
1186.92
146.419
-8.30013
1051.06
54.3757
29.49
897.796
48.9138
60.3717
800.396
3.99618
20.4727
759.262
11.5738
-16.6035
730.861
-24.3481
-11.5746
680.357
-29.1636
9.66384
618.321
-46.027
21.1079
566.357
-49.1621
15.9255
534.933
-55.9218
7.81535
521.372
-54.6584
2.85797
-37.0559
-5.55338
-2088.43
-527.612
1069.44
-602.97
-924.713
-593.791
564.965
-536.078
-217.173
825.336
-17.2003
205.348
1023.72
72.4554
84.7922
1159.35
110.127
-13.9717
1212.61
171.089
16.9876
1238.72
129.304
-2.13063
1229.46
134.282
21.3971
1204.3
79.7052
-0.170064
1125.66
90.659
36.9004
1038.56
64.6757
26.4188
969.505
54.9645
25.665
920.163
14.0938
10.9001
853.439
11.3824
26.1776
761.88
6.69847
38.8331
673.917
0.100487
38.7009
612.616
-17.7472
23.126
576.094
-31.5923
13.4563
-25.4179
-2.75777
964.268
-1673.52
-3480.16
255.752
-726.043
509.845
605.817
-746.854
-139.29
803.972
-267.496
52.1412
910.649
-78.518
44.2965
1020.28
-3.56888
4.06034
1061.32
82.8359
47.215
1079.1
67.6804
43.8424
1067.32
83.4039
62.6568
1045.3
56.2677
45.4594
1013.92
65.2508
56.7866
983.724
53.3907
41.4847
944.012
50.5862
44.0903
881.763
36.2131
40.13
788.27
53.943
50.9317
704.405
54.6284
35.9347
645.653
40.4281
18.4248
604.635
13.6034
9.66773
576.311
-8.91476
5.64636
-9.87707
-6.43597
754.787
-1917.06
-1168.1
151.544
-556.491
433.691
301.592
-894.031
-2.87028
383.299
-424.192
74.9894
523.776
-323.95
104.955
624.426
-124.997
20.7778
719.876
-60.0535
47.4394
773.192
-21.9366
36.3003
813.876
-12.6859
55.4061
834.581
-19.1016
54.6637
840.943
-11.1876
70.0764
837.793
-14.0922
70.6326
808.873
21.9827
57.5233
751.279
58.0103
35.7965
681.519
93.9718
29.7304
638.978
85.1894
11.9807
624.924
54.4884
-0.00605976
622.161
20.7799
-4.41316
621.812
-0.860667
-7.70515
3.09969
-16.0997
792.495
-136.162
2751.98
618.89
-59.7363
-323.15
722.748
-75.8636
-922.025
754.601
151.627
-607.671
744.596
-54.8575
-259.087
762.834
-126.509
-16.7254
809.58
-129.398
22.598
857.665
-74.784
4.76288
898.378
-62.4784
9.07951
927.777
-54.6838
6.18229
930.909
-50.4055
36.0866
913.095
-42.0483
45.7701
844.503
-4.29522
94.8699
759.11
58.6943
84.7097
695.954
95.7836
61.3446
653.356
91.5595
36.2271
633.57
67.6644
6.60993
632.361
34.8063
-12.8175
650.047
1.00872
-19.5553
19.4457
-29.6912
1532.44
2933.58
1594.85
-122.14
1734.41
-215.426
1893.46
-7.42462
1528.76
309.839
1187.75
214.502
1009.69
48.6609
976.889
-41.9803
979.677
-65.2663
1008.34
-83.3459
1032.93
-74.9918
1067.48
-76.6053
1115.1
-51.9089
1190.36
-16.5736
1255.26
30.8899
1286.35
60.468
1279.92
74.0977
1211.91
102.815
1076.27
136.645
95.0837
133.754
-408.704
4044.09
438.798
84.848
-714.449
888.996
-54.9864
-369.051
914.632
0.0296645
-83.1303
938.482
14.6526
-65.7249
960.791
-6.36968
-6.588
966.306
23.1684
-23.0264
970.246
28.5719
-57.7235
937.964
58.0766
-74.2173
896.652
61.817
-107.678
833.196
55.0505
-90.9278
783.299
39.1088
-99.249
746.331
18.8834
-64.9131
727.032
15.0214
-30.8438
724.503
15.8989
17.5305
721.736
12.3714
22.7005
723.018
-4.1905
13.0682
731.277
-11.9254
0.414842
751.502
-25.621
5.71823
-28.0285
4.1689
80.358
-1146.62
1711.06
464.317
-55.3014
350.235
587.726
-64.9905
639.478
605.944
32.4267
68.7837
641.665
48.4922
-126.634
643.201
30.9944
-105.075
673.839
31.1174
-123.218
694.665
41.8789
-108.772
717.868
45.0482
-67.2449
726.897
56.691
-48.7932
725.397
49.8439
-9.29049
715.198
48.5754
4.86757
697.952
35.7649
32.1744
681.877
36.8178
44.0054
671.132
32.9558
54.2013
661.566
23.9134
35.4725
658.028
-1.48834
20.3746
662.006
-15.012
11.8801
670.114
-32.1639
16.0221
-32.7785
9.80867
1968.78
-1021.98
3314.14
1222.19
148.615
557.649
1008.66
275.866
123.937
959.23
124.208
-11.8148
887.6
157.363
-64.36
853.889
79.1126
-36.2783
826.17
66.2234
-13.8188
811.352
63.0757
-18.7933
795.854
58.1053
6.50421
779.922
73.411
1.93536
756.853
69.7094
21.9279
731.077
75.3105
21.93
702.627
64.6672
36.6717
679.555
62.9083
30.3472
663.027
49.7174
27.2954
651.838
34.7991
16.027
646.353
3.18266
7.71621
644.926
-13.9073
6.6682
643.281
-30.7378
5.26106
-31.2367
-7.01634
-818.211
-1203.79
-896.897
-1.44509
33.9397
-1212.44
321.148
-32.9866
-275.632
463.431
-3.29972
-74.2403
626.631
30.675
-145.252
667.388
42.3266
-62.0156
707.832
28.6475
-42.0617
704.467
74.445
-43.2527
706.847
53.6521
-10.4135
697.359
85.0306
-19.764
691.614
72.6285
1.76699
682.68
84.1642
0.805995
675.023
71.2271
14.3218
669.345
69.0213
13.0496
664.304
53.5447
15.3581
656.75
41.5354
10.2646
646.49
13.252
2.47491
639.499
-7.98741
-1.88775
634.897
-26.9031
-2.67496
-27.724
-13.1173
-319.497
-614.844
387.888
510.011
-205.652
-1350.76
782.174
-66.6239
-826.931
885.548
-66.5163
-98.983
934.072
32.4741
-71.4945
900.609
86.8992
-1.19236
856.348
71.9126
29.0796
801.478
132.01
3.20379
756.952
93.8915
13.3747
724.335
118.543
-5.90458
703.102
91.4508
1.07246
689.135
97.9976
-4.40607
679.902
78.6317
1.88226
673.564
74.8463
-1.16142
669.074
56.8488
1.39419
665.836
44.4162
-1.76629
662.279
16.675
-4.96144
661.736
-9.47864
-2.61681
661.242
-27.3561
-2.35498
-26.2565
-13.2033
-506.21
-88.5134
1526.8
8.17385
-307.68
-1040.96
104.288
-94.5769
-87.0036
281.481
-207.343
19.2722
428.544
-87.9849
-34.1007
444.292
70.912
32.5509
570.639
-44.626
-5.80799
557.881
145.963
-12.4733
592.589
55.708
-3.07123
596.417
116.374
-12.2434
611.36
75.7767
-1.80012
618.345
91.3969
-3.21391
628.261
67.6688
1.67255
638.445
63.8373
-0.106248
647.673
46.2918
1.52624
658.175
32.3325
0.813737
668.982
3.85978
6.65013
677.318
-19.6398
12.6565
677.398
-27.8919
9.49035
-22.9159
-9.13852
337.532
-416.475
-3006.16
517.975
-183.872
-1176.94
785.388
-160.87
-212.399
796.444
-208.203
0.498475
799.746
-65.8574
-40.4767
685.989
185.444
-31.4506
643.286
9.65437
-11.8749
-10.7534
5.85204
-10.2932
593.854
45.1458
-21.0345
53.4854
46.5018
52.8454
584.468
21.7392
-0.0604329
10.5431
20.0769
10.182
577.877
28.8576
-4.43441
32.4731
29.1727
32.0851
580.248
20.8806
0.217676
15.6388
19.9049
15.0438
582.69
22.2309
-2.4242
22.4659
21.7221
21.8264
586.859
17.1636
-1.02154
14.8816
16.0929
14.0875
589.065
15.6041
-3.82715
15.7523
14.5928
15.0836
600.249
32.9691
-3.57338
614.023
14.9285
0.12221
619.269
-6.09042
22.4003
617.525
-17.2328
30.4071
609.802
-17.9627
20.416
-14.078
-7.44693
-767.554
-781.612
37.8042
-2.12659
-423.377
-1470.49
338.256
-423.067
-350.64
353.239
-236.562
-87.0358
411.04
-113.814
-193.935
90.005
42.8719
-31.2263
79.6068
81.6225
71.3026
92.1052
46.9647
91.4138
-1.4677
95.2815
7.35068
-1.50511
7.00835
-83.1607
106.32
22.6593
-7.6811
-0.157161
-114.37
116.365
20.0054
-0.10452
5.19321
-109.426
119.254
19.2187
-5.38204
2.10691
-121.871
127.265
15.4673
-2.08832
3.10862
-124.731
132.534
14.4271
-3.10696
1.89451
-132.893
138.246
11.8953
-1.97859
1.55186
-136.305
142.432
9.45846
-1.5335
536.938
4.48733
-2.09743
-139.549
-134.631
-129.562
-125.049
7.7174
3.36955
7.10376
539.357
8.92542
16.401
534.009
-0.120648
24.1629
529.172
-11.5218
16.5433
525.906
-13.5975
0.944605
-11.4232
-17.8078
-64.419
-1031.58
-338.853
323.322
-698.311
-871.207
576.889
-468.955
-734.123
532.49
-156.035
-193.839
135.56
-50.2295
-249.84
121.589
126.855
112.964
29.9766
151.761
27.7895
-31.0959
5.16592
-3.65794
-41.0519
36.0951
9.41364
-5.96475
2.00694
-27.6084
-2.9222
26.8187
3.67514
-1.97017
0.48058
-27.1889
-5.72439
27.8879
5.07631
-0.531462
0.879258
-26.8349
-5.24732
27.6939
4.41567
-0.906644
0.58288
-28.2219
-4.19683
29.1952
3.26293
-0.622291
0.88625
-29.2855
-3.56398
30.2651
2.60307
-0.904966
0.709138
-30.9738
-3.03756
31.8776
2.14995
-0.725352
0.55949
-32.266
-2.36199
33.0264
1.58241
-0.540335
-32.9559
-0.324565
130.556
1.72026
0.997173
-32.2201
-32.0068
-31.2782
484.579
3.01941
12.1108
-127.291
-120.027
-119.134
-113.86
492.82
-9.04237
14.1849
500.368
-19.9633
6.76187
507.06
-21.1103
-1.4055
-14.6107
-12.7416
192.355
-192.472
1501.07
300.675
-424.125
157.176
234.833
-171.116
-47.9482
55.9947
53.8247
-38.9752
11.5736
60.1618
-88.8328
-8.50405
15.0069
-3.02326
17.3631
-30.2185
28.5892
16.3128
-20.4731
1.68298
-14.0474
-19.2832
22.3139
11.5786
-2.24486
0.624417
-8.21664
-25.8215
26.1024
7.7965
-0.48519
0.675098
-5.51174
-26.5172
26.5338
5.47734
-0.657218
0.873933
-4.80763
-26.7383
26.6904
4.86127
-0.879659
0.234614
-3.5898
-26.7638
26.7075
3.77403
-0.362505
0.274996
-2.77271
-26.9278
26.99
2.8048
-0.369273
0.130579
-2.21011
-27.5895
27.7351
2.12546
-0.191494
0.0821664
-1.67108
-28.3898
28.5299
1.6004
-0.151595
-29.0788
2.2242
-3.96493
116.952
2.49839
-2.288
-29.1405
-28.5468
-28.6556
510.491
-26.6097
-11.1564
-120.162
-127.726
-115.095
-121.144
532.13
-36.2324
-5.7388
544.121
-36.6854
3.15655
547.618
-27.6563
8.99118
-15.3641
-4.79689
544.034
-930.073
-4120.39
452.872
-416.689
714.509
444.604
-51.126
364.178
238.009
245.06
230.112
65.9692
147.216
247.8
63.9415
59.7276
58.525
-5.39448
4.70217
55.5796
2.44604
8.63584
-3.39085
-2.09084
-15.0684
16.5063
-0.089181
4.13292
-3.74456
-3.67875
-21.1235
22.2502
1.84962
4.44696
-1.79589
-4.16814
-24.183
24.5862
3.41359
2.14731
-0.276289
-4.60564
-25.3726
25.5431
4.29881
0.412631
0.581002
-4.00032
-25.6509
25.7914
3.97762
-0.698826
1.19457
-2.5697
-26.6593
27.0032
2.45918
-1.4279
1.03981
-1.3887
-28.2337
28.71
1.10805
-1.23547
0.769174
-0.835872
-30.2756
30.8292
0.322877
-0.809742
-32.3091
1.65182
0.468743
132.415
-4.31954
-1.94345
-32.5441
-31.6359
-31.7833
549.297
-47.2398
-7.82978
-135.816
-136.418
-128.631
-128.584
561.437
-49.7386
-6.36239
567.824
-44.9269
-3.57513
567.962
-29.3816
0.563046
-15.8186
-10.2721
1362.84
-911.879
-720.903
770.975
6.60212
350.434
286.116
494.615
-36.8532
157.301
404.635
62.543
17.6565
256.4
174.598
55.4754
18.5647
49.7409
16.4267
0.893171
31.9267
-16.1842
-15.4058
-1.61745
4.91359
-19.652
21.4967
-6.78057
1.63968
-4.90972
2.79153
-22.5858
22.8379
-3.64279
5.50893
-5.59169
-1.39822
-24.396
24.6408
0.83252
5.91257
-3.40338
-3.68897
-26.2264
26.5018
3.52791
3.28904
-0.504393
-3.76876
-27.6242
27.7408
3.66248
0.494033
1.40131
-1.74862
-28.7285
28.9112
1.51711
-1.35247
0.651266
0.392798
-30.1824
30.4355
-0.795328
-0.501792
0.0453514
1.28741
-31.5727
31.8485
-1.68866
0.0801268
-33.2324
-1.75349
8.31457
129.597
-8.79143
2.57944
-32.7688
-32.2509
-31.6943
499.155
-56.0092
14.5821
-129.648
-123.628
-121.316
-116.724
506.143
-55.059
5.96883
513.053
-50.23
-1.29324
521.087
-36.4788
-7.99508
-21.2037
-17.3633
1268.29
-1826.6
171.574
792.148
159.078
-70.4996
494.547
992.185
-393.077
486.176
482.221
-73.757
516.845
333.057
24.3661
92.6653
-81.4971
-34.9468
36.9016
88.6421
44.1215
88.548
99.9171
80.589
88.1191
5.38825
-2.22421
83.9318
-3.8317
0.744691
2.02372
4.89875
1.73385
3.28628
-5.90322
-54.9226
54.7479
-10.3825
3.31374
3.97639
2.57185
3.31218
0.553688
-3.96825
-69.4099
70.1837
-3.52863
5.03248
0.772664
0.0632174
0.301038
-1.19291
-0.889759
-63.3809
68.7969
-2.90693
1.28999
-0.173378
-1.27655
-0.266542
-1.4667
-6.02296
-82.8531
90.0026
-3.89916
6.54402
-0.724962
-1.1342
-0.445591
-0.195805
-7.48201
-93.1553
96.447
-5.9562
8.00006
0.963791
0.176638
1.20179
1.31556
-6.12811
-103.749
104.544
-7.49001
6.2062
1.80825
1.57281
1.92097
2.28051
-4.86762
-106.002
106.417
-10.6167
4.99873
2.64644
2.43997
2.70333
428.258
-63.6004
4.92101
11.4562
14.5813
11.2658
14.6549
-107.657
-107.499
-101.062
-100.927
444.006
-72.5196
1.45957
456.147
-67.3395
-0.961311
467.449
-61.0853
-2.76634
477.667
-45.1282
-4.28803
-26.6146
-16.1749
26.4418
-2957.66
-1828.01
21.9004
-630.343
-249.853
330.147
646.667
41.6119
397.129
385.076
88.4143
504.8
293.187
157.967
367.223
82.5019
-19.6016
360.065
169.056
-25.4761
-20.1549
-53.3548
-23.8264
-53.6536
322.318
-53.1757
-72.1309
17.0033
35.4888
21.14
34.6716
350.789
-0.842839
-46.6882
0.849502
-14.1816
-3.3931
-14.0455
363.086
-90.7399
-21.407
13.6429
25.558
14.9139
25.7177
385.177
-54.536
-1.6428
9.72943
7.0824
9.26501
7.51134
401.569
-86.7054
-3.19356
14.5725
20.1643
15.2517
20.3591
413.997
-60.4944
-9.22695
11.7324
12.8397
11.7795
12.9396
420.996
-78.8383
-5.92627
16.2532
18.6919
16.3255
18.7504
429.083
-73.0164
-0.810238
435.967
-80.6834
5.02288
441.486
-73.2425
4.83129
446.398
-65.2605
1.80421
452.26
-49.2557
-2.00901
-29.2297
-15.4913
334.106
-2346.04
1479.1
149.703
-1048.75
-768.902
552.075
3.41103
-277.674
699.883
242.244
-58.299
783.18
201.294
-20.0783
779.923
95.9345
-130.353
798.362
139.343
-64.4918
748.204
-2.20051
-101.614
719.928
29.8163
-10.6826
676.587
-35.9273
18.0177
635.26
-10.5367
57.6989
592.088
-42.8471
19.7868
556.991
-34.43
-7.57129
530.66
-58.4885
-5.59383
504.996
-51.2515
13.5633
478.334
-57.5651
24.652
456.549
-52.442
16.9094
443.637
-53.2117
8.67899
440.569
-46.0059
2.67576
-30.052
-10.4096
179.298
-1864.39
-3680.85
-291.89
-841.501
-329.853
308.917
-389.669
-424.9
543.458
45.6398
167.411
681.912
72.3709
75.262
741.767
43.3895
-21.2811
781.002
87.4498
29.6459
788.996
-6.17449
-6.15022
782.705
30.598
26.9062
759.274
-13.6915
1.02491
730.94
15.222
39.4753
697.236
-9.32994
26.6049
665.202
-7.27369
30.5426
632.056
-28.3195
13.8767
591.361
-16.5174
32.1387
548.372
-16.7926
41.0496
512.63
-17.5001
39.5013
487.708
-28.9698
23.8063
474.075
-32.2108
13.294
-24.1095
-7.86409
763.914
-1472.2
-2787.71
331.284
-236.556
337.531
360.37
-434.877
-123.169
542.046
-77.2793
-6.61531
632.457
-27.5568
53.8129
695.271
-20.0254
4.6616
740.156
27.3495
62.4303
747.826
-12.9107
42.9083
750.384
21.774
68.9229
737.17
-2.42213
47.4043
723.825
23.7435
61.6101
702.542
10.6214
42.8163
674.839
18.1239
46.3956
634.957
12.8093
38.8833
583.655
30.8423
54.8738
538.233
27.3429
37.221
508.148
13.4474
17.563
490.052
-8.43247
7.22582
480.621
-20.5922
3.45902
-16.5744
-13.1445
-710.36
-2053.16
2397.24
-607.553
-161.463
255.791
0.557287
-518.599
-527.259
104.551
-216.158
109.874
402.416
-267.744
47.2777
480.805
-122.743
45.1053
582.562
-88.1195
61.152
621.85
-51.4074
35.5098
663.27
-27.9128
63.6732
677.169
-14.6783
53.0207
681.441
9.25835
80.2899
668.526
19.057
75.1117
637.646
42.3448
64.1831
594.116
55.414
36.7213
553.425
71.0896
30.1735
528.967
55.645
8.13659
523.553
23.1934
-4.33801
526.665
-6.99093
-8.966
532.349
-22.9514
-11.03
-13.9001
-23.9978
2061.27
-1619.42
1769.93
2234.8
-148.523
-509.621
1450.15
76.8115
-732.787
907.407
81.8307
-362.914
685.594
-160.14
-144.879
677.617
-142.518
11.027
701.756
-123.727
34.066
718.737
-66.74
3.11439
730.616
-43.0661
12.3535
735.121
-13.2013
0.200517
728.65
13.2951
38.52
712.715
40.9851
39.7778
690.477
74.5455
84.9066
659.325
110.201
61.0748
630.771
119.58
41.409
614.867
100.839
6.93677
612.531
49.8669
-17.7278
618.075
9.02088
-34.373
628.329
-21.9455
-30.8162
-3.57146
-45.5096
1991.61
-501.049
1873.23
-152.288
1461.61
273.004
1361.64
174.381
1147.51
363.826
1027.65
191.848
932.62
19.9606
904.807
-80.9072
881.233
-84.7591
878.218
-93.5322
874.749
-58.2275
881.641
-42.5124
907.611
-3.33304
977.02
24.2196
1079.73
47.7571
1169.33
71.7128
1188.27
105.021
1137.65
162.459
1053.93
198.412
132.457
15.4256
-1069.33
2812
447.423
-166.135
-980.311
834.183
-89.7973
-666.014
903.971
5.24318
-158.161
915.014
57.8024
-134.571
922.417
35.8065
-49.7964
899.763
63.0406
-63.4131
870.808
52.7235
-81.492
802.838
64.8188
-71.0662
731.725
52.1267
-88.6913
654.924
33.6447
-47.7723
600.239
13.4374
-58.0012
576.059
-3.85893
-36.8743
570.966
-5.42324
-20.3272
583.184
-5.79035
11.1033
598.235
-6.78944
14.4395
613.457
-14.6016
12.4479
628.102
-17.4078
3.17695
651.193
-26.6967
9.32413
-26.4291
7.18675
-849.963
-2088.79
116.654
-206.894
-189.156
-269.812
666.756
-124.382
-199.588
618.358
49.8526
72.5728
609.509
72.7085
-132.691
585.42
54.6985
-99.8782
588.417
53.5211
-116.696
581.996
54.8555
-104.483
583.626
49.6079
-53.6641
570.486
51.6446
-35.1712
558.143
37.2384
-0.541308
541.168
32.0747
3.20551
529.542
17.1784
22.7627
523.658
17.6951
26.7715
525.276
12.5479
34.2451
526.307
6.27309
21.3791
528.608
-9.09302
12.5649
532.856
-16.6222
6.84688
539.336
-26.9982
9.84293
-24.3089
-0.872305
1074.83
-1878.68
1819.92
1257.52
-107.926
293.732
1033.01
208.259
15.8021
917.877
133.392
19.7823
778.424
170.275
-22.4738
719.28
93.0225
-15.4583
680.959
82.4522
-4.42946
652.165
78.7164
-13.8606
631.532
67.7519
8.99283
606.632
77.3934
1.08677
583.339
64.3979
18.0618
559.139
64.5363
13.6687
539.564
48.8225
24.6027
524.693
44.7348
18.1785
516.405
30.4995
17.6322
510.984
18.1732
9.54758
508.515
-4.09764
5.19032
507.745
-13.6579
4.4731
506.573
-23.7845
3.21913
-21.0858
-13.1571
103.786
-1897.98
-628.724
159.224
-132.025
-1243.78
304.098
-33.62
-178.626
393.699
5.37393
-35.8239
493.089
39.7632
-114.131
505.453
51.5496
-32.9065
542.46
32.9074
-29.5247
528.638
82.0092
-32.7234
537.797
54.3005
-6.12062
526.306
84.4329
-15.3126
525.141
64.6727
2.6572
517.268
73.3201
-0.103691
514.382
55.7556
10.2744
511.774
52.632
7.76012
510.629
36.3596
10.6437
507.836
24.7842
6.44633
503.724
2.16025
0.329226
501.063
-12.0797
-0.804792
498.203
-21.5505
-2.04879
-18.0535
-17.2724
1165.2
-635.415
1417.88
868.946
-147.822
-1038.72
788.471
-6.90316
-773.173
818.328
-32.1288
-91.3374
789.595
61.6522
-64.6507
728.945
109.779
1.22871
684.747
81.6117
24.5736
627.704
140.835
1.41977
591.772
89.7292
13.8784
560.382
114.621
-4.70302
542.879
80.1733
3.0751
528.717
86.5763
-3.50016
521.051
63.2536
2.05011
515.051
58.7591
-1.28843
512.342
39.0346
1.42819
510.846
25.8298
-1.31618
511.029
0.554848
-3.53872
513.13
-15.7808
-1.01583
513.035
-22.1412
-1.67005
-16.0365
-17.3318
185.071
327.582
1683.15
104.633
-42.229
-1066.11
84.5429
-2.36852
-71.4483
222.524
-155.508
4.67132
305.777
-25.9691
-29.7328
318.396
90.6328
39.0786
437.061
-28.9753
-13.8862
410.296
161.826
-6.69911
446.041
49.6551
1.25762
444.759
112.733
-9.07368
460.681
63.3193
-0.868258
466.063
80.371
-2.39022
476.633
52.7076
1.64849
485.89
49.5519
-0.156596
494.942
29.6489
1.86046
504.329
15.9519
1.30441
513.835
-8.29889
5.99762
521.102
-19.5611
9.16989
521.632
-19.5364
6.35525
-11.51
-15.7866
1159.84
2378.24
-4427.22
713.082
167.932
-940.339
765.008
-75.2139
-191.479
701.404
-150.305
58.8982
659.888
-12.4581
-12.4716
523.88
211.24
-16.0493
495.102
4.23877
1.91097
-8.67643
-0.437016
-9.10889
446.687
49.23
-14.8361
53.5996
49.1851
52.0282
445.751
17.2512
0.898142
9.34404
14.3319
8.70583
438.973
28.6222
-2.19616
31.0019
27.7759
29.8722
443.533
17.0574
2.0213
13.0942
14.9866
11.8177
445.505
19.7512
-1.34739
20.0464
18.4897
19.0345
449.502
13.0496
0.522443
11.9223
11.3286
10.8655
450.269
11.8387
-2.18008
12.7155
10.4977
12.0864
459.469
18.4738
-1.59813
469.775
3.94378
1.82454
477.188
-9.19495
15.8836
481.512
-13.4518
19.973
479.943
-9.9955
12.4439
-4.94882
-15.6561
341.151
1109.77
-704.599
43.7023
-218.636
-786.476
364.819
-390.476
-356.495
325.693
-201.877
3.6629
323.555
-77.6784
-126.578
64.6716
51.5264
-6.83431
54.7717
56.291
46.6417
91.6745
54.1244
90.7014
2.71526
68.7909
3.38132
-5.97699
9.44115
-56.3961
78.5853
27.1058
-9.50613
0.513693
-86.6799
89.2266
15.0725
-0.881739
5.17196
-83.4818
93.2932
18.4653
-4.82638
1.75869
-95.8565
100.342
12.751
-1.93797
2.60074
-97.7043
104.657
12.7034
-2.50584
1.51062
-104.861
109.067
8.99266
-1.6604
1.06311
-107.241
112.225
6.67315
-0.881139
417.73
0.826264
1.23697
-109.708
-106.599
-99.8207
-96.9655
4.86727
0.136825
4.67196
423.18
2.95867
11.9367
426.155
-3.86499
15.8572
428.019
-9.32153
10.549
426.974
-7.42208
-0.583863
-4.8319
-21.2697
533.012
-1230.64
-1044.09
532.7
-576.247
-513.285
566.638
-446.282
-712.255
492.658
-160.807
-160.929
108.129
-49.8695
-171.829
95.5607
97.3298
85.8189
24.3284
117.235
35.8077
-17.7164
5.54269
-2.45341
-31.1927
26.5447
7.28412
-5.72543
1.8489
-19.8541
-3.17161
19.7978
3.15875
-1.77976
0.482712
-21.7024
-4.63699
22.3496
3.99567
-0.488563
0.71535
-21.7228
-4.46413
22.6086
3.50959
-0.646653
0.524632
-23.5088
-3.63672
24.3533
2.77278
-0.505246
0.749832
-24.4172
-3.16195
25.2717
2.26722
-0.70965
0.573108
-25.8555
-2.48119
26.5866
1.73012
-0.553039
0.270142
-26.7742
-1.81445
27.3546
1.16993
-0.205991
-27.1605
-2.08302
106.188
-0.103285
2.33767
-26.6135
-26.1454
-25.5941
397.596
-4.08174
12.7012
-103.594
-100.326
-95.0818
-92.1447
405.893
-8.18762
10.2104
411.486
-13.5316
5.37916
414.695
-11.6096
-0.427668
-6.40862
-17.0136
282.911
-159.574
209.648
223.734
-263.605
-96.2877
226.253
-217.274
-279.475
40.2135
29.8824
-43.6251
5.87175
33.0888
-121.06
-9.87892
3.26497
-9.77576
17.4211
-30.0682
21.8031
13.2427
-16.5268
2.57204
-11.5663
-15.8973
18.2685
9.31745
-2.69433
0.121187
-5.50036
-20.9016
21.1042
5.19087
-0.0143574
0.51217
-3.8887
-21.6993
21.7925