/*--------------------------------*- C++ -*----------------------------------*\
  =========                 |
  \\      /  F ield         | OpenFOAM: The Open Source CFD Toolbox
   \\    /   O peration     | Website:  https://openfoam.org
    \\  /    A nd           | Version:  10
     \\/     M anipulation  |
\*---------------------------------------------------------------------------*/
FoamFile
{
    format      ascii;
    class       volScalarField;
    location    "8";
    object      turbidity_0;
}
// * * * * * * * * * * * * * * * * * * * * * * * * * * * * * * * * * * * * * //

dimensions      [0 0 0 0 0 0 0];

internalField   nonuniform List<scalar> 
12920
(
-0.0176677
-0.035532
-0.0602728
-0.0848939
-0.109604
-0.132394
-0.149738
-0.155514
-0.153603
-0.147179
-0.144276
-0.148026
-0.165097
-0.197614
-0.239932
-0.286422
-0.33044
-0.367217
-0.399877
-0.427322
-0.0308629
-0.0411061
-0.0596037
-0.0894376
-0.10527
-0.123908
-0.14418
-0.163064
-0.182041
-0.197388
-0.21364
-0.229928
-0.249866
-0.27581
-0.309187
-0.347144
-0.384258
-0.416393
-0.442947
-0.465532
-0.0262486
-0.057112
-0.0748763
-0.0930968
-0.112302
-0.131755
-0.15281
-0.171148
-0.191837
-0.212981
-0.235181
-0.2591
-0.285308
-0.313419
-0.342567
-0.370687
-0.395558
-0.415836
-0.43296
-0.449576
-0.117465
-0.0610195
-0.0666072
-0.0872478
-0.101187
-0.117706
-0.140388
-0.160133
-0.182665
-0.202744
-0.226846
-0.252381
-0.279224
-0.30665
-0.332976
-0.356824
-0.37666
-0.392887
-0.407639
-0.422888
-0.0479092
-0.0485082
-0.0545389
-0.0825043
-0.109677
-0.134399
-0.157843
-0.179374
-0.19882
-0.214545
-0.231773
-0.249614
-0.269926
-0.290196
-0.310253
-0.328405
-0.343836
-0.359192
-0.375332
-0.391807
-0.0933078
-0.058189
-0.0769537
-0.100257
-0.119661
-0.137958
-0.160409
-0.179865
-0.203884
-0.2241
-0.245162
-0.263592
-0.281204
-0.29725
-0.312286
-0.326682
-0.340779
-0.35479
-0.369354
-0.384492
-0.0659155
-0.0528358
-0.0696993
-0.0881278
-0.108316
-0.129855
-0.154025
-0.180537
-0.205366
-0.227051
-0.24592
-0.261644
-0.275856
-0.288323
-0.302391
-0.318833
-0.335212
-0.350299
-0.365184
-0.379256
-0.146347
-0.0571542
-0.0694064
-0.0873375
-0.0991309
-0.122889
-0.122332
-0.133853
-0.145462
-0.155387
-0.165053
-0.171353
-0.17754
-0.181975
-0.176886
-0.205552
-0.230249
-0.253843
-0.274611
-0.291554
-0.0639938
-0.0505865
-0.05905
-0.083987
-0.101898
-0.103431
-0.10937
-0.115125
-0.118034
-0.114915
-0.108247
-0.103751
-0.102453
-0.102327
-0.106943
-0.153149
-0.190586
-0.222387
-0.250432
-0.277023
-0.0323576
-0.0530835
-0.0836855
-0.14938
-0.172219
-0.131915
-0.112299
-0.104319
-0.0937148
-0.0860866
-0.0839902
-0.0863867
-0.0901047
-0.0939375
-0.110538
-0.145471
-0.178947
-0.211609
-0.244149
-0.277416
-0.0280248
-0.0405872
-0.0588761
-0.0910695
-0.144472
-0.157639
-0.13923
-0.111882
-0.0976797
-0.0911594
-0.0898478
-0.0912712
-0.0909506
-0.0892324
-0.0975669
-0.136434
-0.173628
-0.208904
-0.242521
-0.274654
-0.0258287
-0.0354594
-0.0525481
-0.0931405
-0.146348
-0.147013
-0.137827
-0.13064
-0.126315
-0.115289
-0.0995293
-0.0927415
-0.0888551
-0.0849193
-0.0988235
-0.191705
-0.243848
-0.287069
-0.319552
-0.345298
-0.0263128
-0.038879
-0.0530412
-0.0815554
-0.116932
-0.139421
-0.139693
-0.142202
-0.153422
-0.157746
-0.154544
-0.152103
-0.161172
-0.179335
-0.297657
-0.356978
-0.40648
-0.4481
-0.480406
-0.499216
-0.039076
-0.0422669
-0.0550506
-0.0809244
-0.109737
-0.12603
-0.146442
-0.170204
-0.207446
-0.240881
-0.274473
-0.303191
-0.334779
-0.369647
-0.411252
-0.457796
-0.509823
-0.563399
-0.612415
-0.649955
-0.0586115
-0.0399583
-0.0560981
-0.0757181
-0.088974
-0.0912809
-0.101838
-0.113832
-0.137906
-0.16779
-0.204445
-0.242326
-0.276551
-0.315493
-0.363706
-0.422741
-0.494945
-0.57306
-0.647919
-0.711664
-0.0325939
-0.0566511
-0.0714893
-0.0819587
-0.089807
-0.0959244
-0.106251
-0.120616
-0.137698
-0.15622
-0.177963
-0.204745
-0.23593
-0.269332
-0.306191
-0.354085
-0.420053
-0.502404
-0.590796
-0.673999
-0.0207358
-0.0532881
-0.0754066
-0.0922695
-0.102243
-0.113133
-0.125355
-0.142114
-0.161311
-0.184036
-0.207803
-0.23401
-0.262319
-0.295014
-0.335439
-0.387201
-0.448961
-0.517401
-0.589626
-0.661569
-0.0148035
-0.055269
-0.0688154
-0.105212
-0.130369
-0.149398
-0.166275
-0.186151
-0.20601
-0.22714
-0.249091
-0.274651
-0.304729
-0.340606
-0.381382
-0.426068
-0.470031
-0.510393
-0.552302
-0.595977
-0.0183083
-0.0338203
-0.0417465
-0.0790242
-0.122751
-0.153136
-0.17087
-0.183386
-0.19402
-0.205174
-0.221156
-0.24856
-0.291294
-0.343167
-0.397198
-0.445636
-0.481679
-0.500775
-0.51103
-0.519146
-0.0264672
-0.0349627
-0.0497352
-0.0711719
-0.0931545
-0.120378
-0.141191
-0.147722
-0.149287
-0.148156
-0.150397
-0.157394
-0.175965
-0.209315
-0.243849
-0.272839
-0.2962
-0.320569
-0.358703
-0.415793
-0.0111013
-0.0129641
-0.017147
-0.0227271
-0.0290725
-0.032719
-0.0301991
-0.0241835
-0.0191123
-0.0161473
-0.0164465
-0.0198757
-0.0269886
-0.0366145
-0.0482515
-0.0483646
-0.0447225
-0.0456966
-0.0523889
-0.0609686
-0.0142434
-0.0261695
-0.0329207
-0.0196348
-0.0122175
-0.0123274
-0.015679
-0.0199662
-0.0259776
-0.0336223
-0.0448383
-0.0590043
-0.0761028
-0.0876296
-0.0917791
-0.0904162
-0.0927433
-0.101892
-0.118103
-0.136862
-0.0264428
-0.0314448
-0.0225964
-0.0172549
-0.0153811
-0.0156964
-0.0181868
-0.02327
-0.0338948
-0.047689
-0.0662338
-0.0822627
-0.0954201
-0.100134
-0.0983973
-0.0925409
-0.0862525
-0.0841004
-0.0859224
-0.0920624
-0.0186608
-0.0210861
-0.0175694
-0.0176978
-0.0173203
-0.0175063
-0.0181401
-0.0186758
-0.0212041
-0.0269917
-0.0373535
-0.0495813
-0.0625062
-0.0692996
-0.070121
-0.0648174
-0.0551988
-0.0489695
-0.048643
-0.0553254
-0.0313576
-0.0131658
-0.0149925
-0.0160478
-0.018224
-0.0217248
-0.0257763
-0.0227422
-0.0208404
-0.0196437
-0.0217239
-0.0260576
-0.0305392
-0.0337603
-0.0348156
-0.0344026
-0.0337481
-0.0352103
-0.039292
-0.0464328
-0.0282029
-0.0121417
-0.0148128
-0.018726
-0.0146743
-0.0151487
-0.0159145
-0.0160293
-0.0168707
-0.0177848
-0.0193812
-0.0208938
-0.0224306
-0.0235721
-0.0252103
-0.0291827
-0.0388512
-0.0510222
-0.0588626
-0.0622717
-0.0337779
-0.0172797
-0.0226238
-0.0183114
-0.0157555
-0.0128291
-0.0114181
-0.0121159
-0.0131122
-0.0140834
-0.0150035
-0.0163623
-0.0189268
-0.0239373
-0.0334904
-0.0501867
-0.074791
-0.0908369
-0.0900832
-0.0785186
-0.0704332
-0.0104019
-0.00880873
-0.00874959
-0.00828758
-0.00891407
-0.00960582
-0.0108536
-0.0117576
-0.0120707
-0.012747
-0.0140936
-0.0170458
-0.0230212
-0.0441011
-0.0579743
-0.0630669
-0.0565729
-0.0451047
-0.0386672
-0.0313135
-0.0127475
-0.0103509
-0.0113876
-0.00979591
-0.00885107
-0.00886489
-0.00944682
-0.0100782
-0.0102009
-0.0112258
-0.0138896
-0.0191361
-0.028471
-0.0542
-0.0600832
-0.0544485
-0.0457811
-0.0386247
-0.03477
-0.0265114
-0.0151521
-0.0159884
-0.0270693
-0.0255695
-0.0171735
-0.0110263
-0.00959692
-0.00932449
-0.0107427
-0.0163576
-0.0270404
-0.044771
-0.0647838
-0.0641509
-0.0488877
-0.0530775
-0.0582829
-0.0632913
-0.0634926
-0.00889147
-0.0236127
-0.0346123
-0.0612683
-0.100463
-0.0897673
-0.072086
-0.0625403
-0.044239
-0.0269976
-0.0282082
-0.0380573
-0.0474521
-0.0524949
-0.0537074
-0.0542541
-0.056188
-0.0602753
-0.0675225
-0.0758864
-0.00448583
-0.0178383
-0.034751
-0.0622052
-0.0984631
-0.073207
-0.060784
-0.0959684
-0.115584
-0.104367
-0.0775132
-0.0642374
-0.0644191
-0.0671107
-0.0689512
-0.061144
-0.058962
-0.0568318
-0.0579398
-0.0622338
-0.00509516
-0.0124044
-0.0221898
-0.0443728
-0.061722
-0.0396614
-0.0365776
-0.0529125
-0.061389
-0.0707006
-0.078527
-0.082613
-0.0832718
-0.0835324
-0.0696674
-0.0677328
-0.0653543
-0.063715
-0.0627584
-0.0623494
-0.0228933
-0.0204878
-0.0297099
-0.0371811
-0.0414911
-0.0249752
-0.022307
-0.0260703
-0.0335812
-0.0422266
-0.0472855
-0.0518398
-0.0596153
-0.0704577
-0.0823382
-0.0907411
-0.0920163
-0.0883791
-0.0844583
-0.082439
-0.0233841
-0.0171369
-0.0164427
-0.0180724
-0.0183228
-0.01706
-0.0206767
-0.0279227
-0.0430616
-0.0579478
-0.0647769
-0.0606805
-0.0630301
-0.0763604
-0.0975859
-0.113068
-0.112554
-0.101744
-0.0894025
-0.0822847
-0.0199321
-0.0176485
-0.0144236
-0.0192278
-0.0184039
-0.018508
-0.0250916
-0.0294471
-0.0363848
-0.0429656
-0.0557233
-0.0635643
-0.0710718
-0.0848775
-0.108787
-0.130536
-0.140618
-0.136242
-0.123195
-0.105804
-0.00365401
-0.0112041
-0.0168889
-0.0216308
-0.026786
-0.0297932
-0.0385418
-0.0455296
-0.0551204
-0.0642038
-0.076683
-0.0870553
-0.10024
-0.112761
-0.122253
-0.120425
-0.113399
-0.105681
-0.0966285
-0.0846361
-0.0154647
-0.0219636
-0.0135863
-0.0325514
-0.0407741
-0.0411973
-0.0513693
-0.0620963
-0.080263
-0.097838
-0.115642
-0.125755
-0.125245
-0.112428
-0.0960247
-0.0759903
-0.0607003
-0.0534501
-0.049394
-0.0463357
-0.00547678
-0.0054693
-0.00694223
-0.0165561
-0.0279873
-0.0308135
-0.0313319
-0.0318449
-0.0419175
-0.0588597
-0.0867569
-0.113469
-0.13746
-0.14212
-0.128039
-0.10418
-0.0805979
-0.0691258
-0.0629458
-0.0541723
-0.00765241
-0.00924134
-0.0177757
-0.032282
-0.0428902
-0.0348226
-0.0195719
-0.0132284
-0.0131257
-0.0167308
-0.0251968
-0.0394823
-0.0570554
-0.0740347
-0.0915485
-0.109818
-0.135033
-0.170034
-0.207912
-0.235976
-0.00873747
-0.00708857
-0.00828863
-0.0112298
-0.0124177
-0.0122286
-0.0107976
-0.00922023
-0.00833818
-0.00831406
-0.00931485
-0.0110674
-0.0135602
-0.0162017
-0.0192137
-0.0213592
-0.023673
-0.026265
-0.0296379
-0.0331191
-0.0168284
-0.017336
-0.0149528
-0.00923031
-0.00757623
-0.00780688
-0.00896576
-0.0105918
-0.0131995
-0.016438
-0.0208212
-0.0253015
-0.0304195
-0.0336945
-0.0359339
-0.0379347
-0.0414996
-0.0467033
-0.0533762
-0.0602321
-0.0140495
-0.0138214
-0.0132981
-0.0113937
-0.0102449
-0.0105289
-0.0122544
-0.0151108
-0.0199828
-0.0252564
-0.0314057
-0.0352175
-0.03778
-0.0373359
-0.0364057
-0.035827
-0.03634
-0.038406
-0.0412872
-0.0442568
-0.0153674
-0.0127521
-0.0125202
-0.0117711
-0.0112498
-0.0111606
-0.0113666
-0.0118294
-0.0135039
-0.0161907
-0.019611
-0.0224305
-0.0246062
-0.0249373
-0.0244171
-0.0236089
-0.0234647
-0.0249362
-0.0277863
-0.0314745
-0.0115048
-0.010073
-0.0140335
-0.0140952
-0.0141486
-0.0141059
-0.0134516
-0.011472
-0.0104144
-0.010643
-0.0117725
-0.0131582
-0.0141169
-0.0146113
-0.0148421
-0.0152845
-0.0163256
-0.0182709
-0.0211551
-0.0248743
-0.0084052
-0.00792438
-0.00860937
-0.00980042
-0.010559
-0.0110205
-0.00987825
-0.00880447
-0.00796795
-0.00791722
-0.00843036
-0.00931732
-0.0103616
-0.0116166
-0.0132657
-0.0155615
-0.0186403
-0.0215878
-0.0239461
-0.0265097
-0.0171862
-0.0129732
-0.00988343
-0.00877381
-0.00861155
-0.00845537
-0.0075962
-0.00702312
-0.00669119
-0.00707632
-0.00826252
-0.0102307
-0.0132931
-0.0172994
-0.0224396
-0.0281415
-0.0332965
-0.0348664
-0.0328278
-0.0306671
-0.0446276
-0.00682493
-0.00486716
-0.00528085
-0.00596637
-0.00670231
-0.00671643
-0.00651278
-0.00639159
-0.00700499
-0.00843281
-0.0110848
-0.0149092
-0.0203047
-0.0260232
-0.0268625
-0.024754
-0.0214926
-0.019967
-0.0213026
-0.00916521
-0.00550584
-0.00498987
-0.00537197
-0.00553581
-0.00573959
-0.00632855
-0.00644091
-0.00647737
-0.00766465
-0.0103221
-0.0144671
-0.020155
-0.0270451
-0.0324352
-0.0225517
-0.0200887
-0.0181291
-0.0173157
-0.01778
-0.00802078
-0.00745688
-0.00717725
-0.0113266
-0.0123582
-0.00915492
-0.00723882
-0.00706157
-0.0077323
-0.0103333
-0.015367
-0.0215322
-0.0269271
-0.0288022
-0.0254539
-0.0278578
-0.0305087
-0.0318371
-0.0311695
-0.0285016
-0.00480174
-0.0131451
-0.0148922
-0.0299112
-0.0441592
-0.0406555
-0.032739
-0.0260629
-0.0220753
-0.0208111
-0.0227104
-0.0250492
-0.0262143
-0.0270536
-0.0288606
-0.0293292
-0.0324603
-0.0365223
-0.0403341
-0.0423032
-0.00107285
-0.00710547
-0.013906
-0.0322408
-0.045572
-0.0319148
-0.0269459
-0.0401939
-0.0454463
-0.0423291
-0.0388968
-0.0368022
-0.0360795
-0.0363004
-0.0324399
-0.0262869
-0.0268631
-0.0285052
-0.0310778
-0.0340331
-0.000645161
-0.00302688
-0.00764826
-0.0180621
-0.0208696
-0.014461
-0.0157912
-0.0245689
-0.0286809
-0.0330635
-0.0341635
-0.034074
-0.0321899
-0.0302869
-0.0257922
-0.0252666
-0.0250834
-0.0255411
-0.0264596
-0.0277494
-0.0225788
-0.0130546
-0.0132887
-0.0147332
-0.013193
-0.0103865
-0.0135808
-0.0171305
-0.0203668
-0.0231693
-0.0244003
-0.0257707
-0.027306
-0.0292305
-0.030551
-0.030752
-0.0297696
-0.0287092
-0.0284375
-0.0289403
-0.0155087
-0.01548
-0.00950822
-0.00866964
-0.00847881
-0.00986871
-0.014054
-0.0184855
-0.0248524
-0.0289673
-0.0306559
-0.0305546
-0.0322801
-0.0355248
-0.0386054
-0.0385637
-0.034423
-0.0300849
-0.0275376
-0.027235
-0.0036378
-0.0126746
-0.00917087
-0.00849159
-0.00894981
-0.0112556
-0.0155063
-0.0194513
-0.0241446
-0.0286335
-0.033456
-0.0362245
-0.0395587
-0.0435323
-0.0490587
-0.0506044
-0.0466283
-0.0393507
-0.0327929
-0.0283985
-0.00530185
-0.00737129
-0.00732355
-0.00960854
-0.0131906
-0.0168055
-0.0226885
-0.0284036
-0.0347228
-0.0397268
-0.0441372
-0.0459212
-0.0479892
-0.0479113
-0.0463786
-0.0406098
-0.0345012
-0.0297384
-0.0261845
-0.0234389
-0.00565577
-0.00844779
-0.00693397
-0.0140961
-0.0169019
-0.0212322
-0.0298132
-0.0388343
-0.0508844
-0.0592826
-0.0646631
-0.0613699
-0.0528775
-0.0415827
-0.0338318
-0.0287704
-0.0270106
-0.026376
-0.0251702
-0.0231732
-0.00143631
-0.00217588
-0.00259793
-0.00657645
-0.0104711
-0.0119715
-0.0142124
-0.0182638
-0.0266295
-0.0361036
-0.0484477
-0.0553532
-0.059123
-0.053581
-0.0474302
-0.0450805
-0.0475677
-0.0512542
-0.0521531
-0.0488404
-0.00231817
-0.00476214
-0.0115462
-0.0177895
-0.0179351
-0.0111211
-0.00680725
-0.00643068
-0.00872247
-0.0136025
-0.020854
-0.0289882
-0.0372457
-0.0464522
-0.0583562
-0.0754221
-0.0991694
-0.125883
-0.14895
-0.161222
-0.00507872
-0.00596207
-0.00534199
-0.00511086
-0.0052111
-0.0054243
-0.00551691
-0.00563426
-0.00603205
-0.00693366
-0.00818513
-0.00954411
-0.0108686
-0.0120267
-0.0132829
-0.0144935
-0.0158985
-0.0174253
-0.0194247
-0.0216876
-0.00354656
-0.00780889
-0.00677836
-0.00548422
-0.00546211
-0.00594644
-0.00655621
-0.00750493
-0.00896036
-0.0107371
-0.0128487
-0.0146226
-0.0165887
-0.0179922
-0.0193679
-0.0206257
-0.022112
-0.0238385
-0.025893
-0.0278708
-0.0103413
-0.00914537
-0.00867581
-0.00789018
-0.00758916
-0.00797371
-0.00896388
-0.0102016
-0.0121206
-0.0136061
-0.0154715
-0.0164842
-0.0177347
-0.0184337
-0.0193247
-0.0200962
-0.020727
-0.0213519
-0.0218593
-0.022105
-0.0140871
-0.010409
-0.0101887
-0.00946819
-0.00866008
-0.00821444
-0.00796434
-0.00817019
-0.00893897
-0.00996682
-0.011192
-0.0122049
-0.0131848
-0.013819
-0.0144024
-0.0149928
-0.0156616
-0.0165689
-0.0176215
-0.0185207
-0.00647067
-0.00875322
-0.013833
-0.0136467
-0.0112125
-0.00888174
-0.00733066
-0.00640002
-0.00646715
-0.00719161
-0.00803831
-0.00889507
-0.00955877
-0.010175
-0.0108054
-0.0116276
-0.0127009
-0.014055
-0.0156193
-0.0170824
-0.00773959
-0.00636769
-0.00715232
-0.0072936
-0.00706502
-0.006377
-0.00532129
-0.00502277
-0.00518075
-0.00582132
-0.00654766
-0.00731399
-0.00803617
-0.00882407
-0.00978802
-0.0110161
-0.0125229
-0.0142105
-0.0161324
-0.0182297
-0.00288886
-0.00519212
-0.00652959
-0.00701989
-0.00669285
-0.00579251
-0.00482685
-0.00463852
-0.00512847
-0.00593504
-0.00704208
-0.00820125
-0.00958298
-0.0110181
-0.0126568
-0.0143438
-0.0158478
-0.0168516
-0.0179165
-0.0196465
-0.0179513
-0.00481138
-0.0039295
-0.00511292
-0.00539118
-0.00518014
-0.00480513
-0.00472123
-0.00523904
-0.00635583
-0.00746973
-0.00881769
-0.010127
-0.0115696
-0.0116306
-0.0123871
-0.0130232
-0.0141462
-0.0160072
-0.0183397
-0.00041733
-0.00190575
-0.00286383
-0.0035902
-0.00449559
-0.00468784
-0.00480742
-0.00493369
-0.00592616
-0.0075673
-0.00909738
-0.0104555
-0.0114463
-0.0119795
-0.0111235
-0.0113057
-0.0118196
-0.0126231
-0.0138889
-0.0155519
-0.000516947
-0.00382332
-0.00544829
-0.0073764
-0.0083358
-0.00692518
-0.005716
-0.0062159
-0.00770204
-0.00955553
-0.0112087
-0.012522
-0.0135077
-0.0143995
-0.0160169
-0.0179011
-0.0179044
-0.0173323
-0.0165355
-0.0159728
-0.0038418
-0.00906825
-0.012029
-0.0177817
-0.0184153
-0.019285
-0.0181665
-0.0181234
-0.0177455
-0.0165075
-0.0162913
-0.0171077
-0.0184057
-0.0198254
-0.0212054
-0.0221645
-0.0238092
-0.024735
-0.0248639
-0.0242176
-0.000802647
-0.00597815
-0.0114922
-0.0183914
-0.0173121
-0.0159589
-0.0152733
-0.0213695
-0.0247426
-0.024353
-0.021638
-0.0195411
-0.0186825
-0.0185567
-0.0177924
-0.0178654
-0.0192948
-0.0206988
-0.0218544
-0.0225432
-0.00141445
-0.00400906
-0.00664418
-0.00978047
-0.00956275
-0.00953243
-0.0120632
-0.0161519
-0.0167144
-0.0168581
-0.0162492
-0.0158548
-0.015335
-0.0152017
-0.0148061
-0.0151445
-0.0155926
-0.0161168
-0.0166248
-0.0170941
-0.00693282
-0.00808766
-0.00712479
-0.00725537
-0.00689962
-0.00841214
-0.0111637
-0.0125928
-0.0132269
-0.0139121
-0.0139974
-0.0142585
-0.0144954
-0.0148325
-0.0150759
-0.015178
-0.0152861
-0.0154889
-0.0158909
-0.0164168
-0.0288304
-0.00994402
-0.00560875
-0.00521211
-0.00609785
-0.00867015
-0.0117238
-0.0138153
-0.0157693
-0.016459
-0.0164926
-0.0160785
-0.0160839
-0.0163217
-0.016365
-0.0158224
-0.0149771
-0.0146335
-0.0148345
-0.0154586
-0.00299823
-0.00845639
-0.00685187
-0.00620787
-0.00778484
-0.0109532
-0.013759
-0.0162439
-0.0179852
-0.0188103
-0.0197356
-0.0194387
-0.01972
-0.0195989
-0.0198301
-0.0186462
-0.016772
-0.0150576
-0.0141059
-0.0138235
-0.0060781
-0.00569604
-0.00565861
-0.00744584
-0.010646
-0.0147655
-0.0187179
-0.0214712
-0.0233615
-0.0234853
-0.0235011
-0.0222621
-0.0216708
-0.0202521
-0.0188314
-0.0168484
-0.0153596
-0.0143689
-0.013627
-0.013056
-0.00836898
-0.00470567
-0.00515725
-0.0088273
-0.0115239
-0.0166049
-0.0228682
-0.0272601
-0.031815
-0.032019
-0.031259
-0.0275009
-0.0244529
-0.0223392
-0.0218266
-0.0220026
-0.0223283
-0.021929
-0.0205501
-0.0185711
-0.000710047
-0.001998
-0.00329562
-0.00542858
-0.00624813
-0.00776094
-0.0108128
-0.0148656
-0.0203077
-0.0241728
-0.0286896
-0.0306891
-0.0330172
-0.0345796
-0.0377084
-0.0421017
-0.0463694
-0.0485825
-0.0476662
-0.0437862
-0.00221914
-0.00610888
-0.0096556
-0.00891604
-0.00686212
-0.00451208
-0.00410518
-0.00579074
-0.00924852
-0.0145759
-0.0208728
-0.0276099
-0.0350945
-0.0439415
-0.0549799
-0.0685282
-0.0836527
-0.0976173
-0.106656
-0.108519
-0.00602866
-0.00535328
-0.00467936
-0.00393156
-0.00373115
-0.0041666
-0.00487703
-0.00575382
-0.0068785
-0.00806669
-0.0092188
-0.0102875
-0.0114016
-0.0125956
-0.0139231
-0.0154276
-0.0171074
-0.0190202
-0.0210522
-0.0234404
-0.00558916
-0.00841816
-0.00667021
-0.00488206
-0.00488546
-0.00562286
-0.00651603
-0.00766663
-0.00879675
-0.00966463
-0.0104133
-0.0109049
-0.0114571
-0.0118417
-0.0123059
-0.0127553
-0.0132794
-0.013908
-0.0146328
-0.0154509
-0.00503197
-0.00623759
-0.00840429
-0.00736564
-0.00658677
-0.00681853
-0.00757706
-0.0084405
-0.00948975
-0.0102582
-0.0110412
-0.0114818
-0.011902
-0.0120428
-0.0121841
-0.0122178
-0.012245
-0.0123472
-0.0125401
-0.0127855
-0.00154381
-0.00815703
-0.00906404
-0.00792736
-0.00700261
-0.00660291
-0.00689374
-0.00769055
-0.00857332
-0.00939242
-0.0100392
-0.0105317
-0.010903
-0.0111528
-0.011349
-0.0114979
-0.0116447
-0.0118563
-0.0121603
-0.0124706
-0.00215341
-0.00419216
-0.00950863
-0.00882155
-0.00622524
-0.00532147
-0.00566959
-0.00655222
-0.00741845
-0.00828728
-0.00897074
-0.00960234
-0.0101276
-0.0105913
-0.0109853
-0.0113204
-0.011627
-0.0119288
-0.012279
-0.0125889
-0.00644312
-0.00569742
-0.00601832
-0.0044237
-0.00390436
-0.00422646
-0.00483515
-0.00573882
-0.00656645
-0.00745507
-0.00824207
-0.00903275
-0.00977296
-0.0104832
-0.0111621
-0.0117895
-0.0123732
-0.0129035
-0.0134208
-0.0138515
-0.00350243
-0.00683942
-0.0058833
-0.00444266
-0.00369629
-0.00385619
-0.00464214
-0.00551315
-0.0064138
-0.00728057
-0.0081441
-0.00899875
-0.00984867
-0.0106887
-0.0115246
-0.0123353
-0.0130902
-0.0137595
-0.0143555
-0.0148996
-0.017717
-0.00885908
-0.00392755
-0.00370594
-0.0037908
-0.00407156
-0.00449548
-0.00543722
-0.00611593
-0.00689661
-0.00756859
-0.00826911
-0.0089679
-0.0097062
-0.0110175
-0.0117141
-0.012336
-0.0128849
-0.013386
-0.0138423
-0.00291093
-0.00290346
-0.00315346
-0.0038921
-0.00455344
-0.00439233
-0.00446917
-0.00540517
-0.00609332
-0.00668065
-0.00719927
-0.00771961
-0.00828513
-0.00887464
-0.00991848
-0.0109566
-0.0114166
-0.011791
-0.0121235
-0.0124316
-0.000392552
-0.00293601
-0.00475869
-0.00630063
-0.00725219
-0.00663871
-0.00597766
-0.00683118
-0.00772134
-0.00861882
-0.0094807
-0.0101616
-0.0104942
-0.0105395
-0.0109558
-0.0115022
-0.0114358
-0.0113401
-0.0113176
-0.0113787
-0.00156501
-0.00620454
-0.00800666
-0.010146
-0.0103324
-0.011907
-0.0125297
-0.0129699
-0.0123841
-0.0123737
-0.0131041
-0.0138649
-0.0143563
-0.0149661
-0.0149199
-0.0133106
-0.0128685
-0.0123134
-0.0119181
-0.0117612
-0.00167446
-0.00502282
-0.00793091
-0.0101284
-0.0100621
-0.0108698
-0.0113809
-0.0137913
-0.0138646
-0.0132347
-0.012946
-0.0129327
-0.0129987
-0.0133203
-0.0128363
-0.0115442
-0.0113306
-0.0110621
-0.0109464
-0.0111177
-0.00112612
-0.00291874
-0.00502726
-0.00707353
-0.00805017
-0.00875228
-0.00991182
-0.0106272
-0.0106041
-0.0105736
-0.0104056
-0.0103039
-0.0101471
-0.0100976
-0.00960057
-0.00967812
-0.00979771
-0.0100199
-0.010361
-0.0108259
-0.00977337
-0.0052297
-0.00559617
-0.00607441
-0.00701353
-0.00826367
-0.0092355
-0.00938873
-0.0094056
-0.00933619
-0.00924324
-0.00917455
-0.00916706
-0.00920714
-0.00932361
-0.00948406
-0.00975794
-0.0101517
-0.0106954
-0.0113207
-0.0053593
-0.00465247
-0.0041699
-0.00527313
-0.0068303
-0.00846809
-0.00946926
-0.00976224
-0.00991701
-0.0096827
-0.00947505
-0.00920499
-0.00912273
-0.00912955
-0.00922187
-0.0093731
-0.00964588
-0.0101178
-0.0107601
-0.0114664
-0.00196626
-0.00361
-0.00467431
-0.00646569
-0.00815762
-0.00969486
-0.0104546
-0.0107131
-0.0107744
-0.0104723
-0.0103654
-0.00993387
-0.00981866
-0.00963099
-0.00966519
-0.00963485
-0.00975915
-0.0100989
-0.010658
-0.0112868
-0.00425609
-0.00539699
-0.00522134
-0.00747359
-0.00963274
-0.0114986
-0.0124696
-0.012523
-0.0124655
-0.0118922
-0.0115719
-0.0110004
-0.0106988
-0.0103139
-0.0101128
-0.0100195
-0.0101502
-0.0104916
-0.0109758
-0.0114988
-0.00584106
-0.00354497
-0.00469354
-0.00735191
-0.00968103
-0.0129409
-0.0148653
-0.0154731
-0.0159093
-0.0152336
-0.0149026
-0.014266
-0.0139156
-0.0136247
-0.0134236
-0.0133873
-0.0132682
-0.0130386
-0.0127497
-0.0125673
-0.000973186
-0.00187388
-0.00301989
-0.00402934
-0.00538154
-0.00894379
-0.012838
-0.0164148
-0.0191064
-0.0210738
-0.0230019
-0.02463
-0.0262039
-0.0277013
-0.0288937
-0.0295448
-0.0289484
-0.027196
-0.0245561
-0.0219501
-0.000692409
-0.00267617
-0.0036492
-0.00352262
-0.00316162
-0.00355265
-0.00566563
-0.00988619
-0.0155142
-0.0211944
-0.0266399
-0.0319898
-0.0375775
-0.0432944
-0.0491545
-0.0547513
-0.0590491
-0.0601752
-0.0573265
-0.0512978
-0.0139481
-0.0167129
-0.0190403
-0.0114594
-0.0136608
-0.0164328
-0.0172854
-0.0199674
-0.0199026
-0.0222988
-0.0142306
-0.0154349
-0.0174724
-0.0177483
-0.022053
-0.0390098
-0.0361576
-0.0191734
-0.0189792
-0.0271267
-0.025501
-0.0245723
-0.0356917
-0.0349104
-0.0189412
-0.0189585
-0.0248692
-0.023278
-0.113482
-0.107099
-0.107561
-0.0829334
-0.0791064
-0.0798941
-0.0722895
-0.118128
-0.106707
-0.100457
-0.083283
-0.0968089
-0.0709535
-0.0637481
-0.116199
-0.0979509
-0.0914512
-0.0979899
-0.0896654
-0.0601873
-0.0512598
-0.110339
-0.0897165
-0.0860373
-0.0858409
-0.0777135
-0.0502274
-0.0531597
-0.104784
-0.0853481
-0.085153
-0.0753206
-0.0690734
-0.0546516
-0.0572358
-0.103064
-0.0854947
-0.0869128
-0.0671721
-0.0651456
-0.0582465
-0.0648535
-0.102714
-0.087503
-0.0897172
-0.0649881
-0.0678026
-0.06826
-0.0810035
-0.103607
-0.0905487
-0.0930602
-0.0692602
-0.0775078
-0.0856999
-0.0985704
-0.106388
-0.123043
-0.106525
-0.0806903
-0.0680586
-0.107823
-0.0868018
-0.0963718
-0.102629
-0.0939145
-0.0657107
-0.0564788
-0.082134
-0.0716239
-0.0874664
-0.0919243
-0.0882288
-0.053207
-0.0475222
-0.0688322
-0.0624043
-0.0840154
-0.0876508
-0.0876529
-0.0479397
-0.0547831
-0.0613681
-0.0610133
-0.0855608
-0.088138
-0.0903388
-0.0571784
-0.0625398
-0.0618585
-0.0673399
-0.0891249
-0.0910581
-0.0921564
-0.0647846
-0.0755375
-0.0703504
-0.0816774
-0.0930358
-0.0921707
-0.0919041
-0.0799227
-0.093288
-0.0856388
-0.0935465
-0.096138
-0.0917924
-0.091461
-0.0973307
-0.10672
-0.094348
-0.0924492
-0.117186
-0.144019
-0.133345
-0.134121
-0.109818
-0.140331
-0.132721
-0.100301
-0.131783
-0.125213
-0.104325
-0.0905079
-0.132272
-0.129718
-0.0922395
-0.12185
-0.110413
-0.0862678
-0.074207
-0.127624
-0.116115
-0.0897738
-0.106516
-0.097424
-0.0708555
-0.0647286
-0.110785
-0.0939219
-0.0909316
-0.095548
-0.0923625
-0.0640507
-0.0658416
-0.0886586
-0.0773968
-0.0913062
-0.091673
-0.0893945
-0.0675736
-0.0744456
-0.07614
-0.0782379
-0.0896277
-0.0884933
-0.0856845
-0.0770935
-0.0831824
-0.0800268
-0.0856442
-0.0883449
-0.0847877
-0.0821993
-0.0842429
-0.0848287
-0.0872803
-0.0909924
-0.131597
-0.138725
-0.136196
-0.130883
-0.130188
-0.12736
-0.129289
-0.127793
-0.136837
-0.13999
-0.130682
-0.131631
-0.132723
-0.137613
-0.119108
-0.141512
-0.142296
-0.131166
-0.124426
-0.138912
-0.136987
-0.10275
-0.140735
-0.127762
-0.120201
-0.105135
-0.134936
-0.127442
-0.0938001
-0.121192
-0.109464
-0.100304
-0.088146
-0.124705
-0.120283
-0.0898657
-0.107178
-0.107955
-0.0859004
-0.0851461
-0.120053
-0.122726
-0.0858395
-0.108084
-0.114833
-0.0861711
-0.089939
-0.124154
-0.131048
-0.0826486
-0.117981
-0.136927
-0.0910649
-0.0936068
-0.13484
-0.14938
-0.00927893
-0.00893014
-0.00914507
-0.00812441
-0.00826097
-0.0081898
-0.00818996
-0.00999793
-0.00914869
-0.00906798
-0.008416
-0.00887188
-0.00814847
-0.00807452
-0.0101164
-0.00907906
-0.00957153
-0.0090055
-0.00934569
-0.00816962
-0.00931418
-0.0108385
-0.00999205
-0.0125383
-0.00959231
-0.0108285
-0.0100811
-0.0136422
-0.0129988
-0.0138784
-0.0195567
-0.0114621
-0.014024
-0.0151873
-0.0207769
-0.0174577
-0.0220684
-0.0319822
-0.015233
-0.0197434
-0.0229145
-0.0296802
-0.025551
-0.0361432
-0.0510491
-0.0217
-0.0284096
-0.0318413
-0.0371247
-0.0392596
-0.0565589
-0.0723997
-0.0311138
-0.0393578
-0.0383381
-0.0400231
-0.00978112
-0.0376011
-0.0316481
-0.00987799
-0.00871271
-0.0247687
-0.0190095
-0.00930021
-0.0308956
-0.025474
-0.0085482
-0.0084328
-0.0180722
-0.0166449
-0.0101101
-0.023302
-0.018551
-0.00860378
-0.0102151
-0.0165339
-0.0175903
-0.0145108
-0.0186427
-0.02245
-0.0112076
-0.0156018
-0.0184204
-0.0222358
-0.0237527
-0.0246616
-0.0331812
-0.0174484
-0.0237498
-0.0237321
-0.0276414
-0.0397779
-0.0364861
-0.0466971
-0.0259872
-0.0323428
-0.0288533
-0.0317337
-0.0601524
-0.0498806
-0.0563136
-0.0340534
-0.0371275
-0.0323395
-0.0326449
-0.0752641
-0.057122
-0.0567393
-0.0374345
-0.036803
-0.032374
-0.0315714
-0.0647073
-0.0791351
-0.0985773
-0.0466643
-0.03288
-0.0532737
-0.0529477
-0.0495502
-0.106391
-0.114571
-0.0306832
-0.0256021
-0.0559232
-0.0582674
-0.0295514
-0.11312
-0.0987099
-0.0244204
-0.023034
-0.0568229
-0.0488667
-0.0265765
-0.0909559
-0.0663256
-0.0233027
-0.0258491
-0.0461659
-0.0416741
-0.0353877
-0.0606814
-0.0543924
-0.026976
-0.0297588
-0.0412458
-0.0409312
-0.0454003
-0.054619
-0.0577259
-0.0306119
-0.0323083
-0.0410215
-0.0416729
-0.0517145
-0.0590213
-0.0626399
-0.0326499
-0.0331451
-0.0419529
-0.0427897
-0.0537865
-0.0638012
-0.0681898
-0.0332115
-0.0335579
-0.0430636
-0.0440893
-0.0851663
-0.0410311
-0.0480943
-0.044425
-0.0465519
-0.0350609
-0.0336678
-0.114163
-0.0626553
-0.0787866
-0.0500881
-0.0569279
-0.0368707
-0.0409388
-0.109508
-0.0834947
-0.0841412
-0.0572435
-0.0533348
-0.0428207
-0.0464144
-0.083941
-0.0846524
-0.0900549
-0.0512239
-0.0461553
-0.0480237
-0.0514897
-0.0656854
-0.0918337
-0.0909475
-0.0452148
-0.043599
-0.0523101
-0.0528272
-0.063881
-0.0899324
-0.0873379
-0.0433182
-0.0430327
-0.052899
-0.0527555
-0.0663902
-0.0873332
-0.0878226
-0.0430515
-0.0431943
-0.0526657
-0.0519975
-0.0702176
-0.0882385
-0.0871678
-0.0432928
-0.0438689
-0.0517415
-0.0507335
-0.00649138
-0.0063447
-0.00662976
-0.00598182
-0.00598681
-0.00609523
-0.00628463
-0.00639282
-0.00665756
-0.0068943
-0.00606851
-0.00637867
-0.00637472
-0.00711379
-0.0071937
-0.00710274
-0.00850689
-0.00661261
-0.00780884
-0.007574
-0.00965514
-0.00950514
-0.00929356
-0.0125795
-0.00841235
-0.0103213
-0.0104957
-0.0128984
-0.0132407
-0.0139102
-0.0184241
-0.0110412
-0.0131624
-0.0135622
-0.0150286
-0.0185512
-0.0200509
-0.024932
-0.013928
-0.0159429
-0.0153309
-0.0157428
-0.0251934
-0.026403
-0.0296591
-0.0165989
-0.0179819
-0.0157555
-0.0156446
-0.032361
-0.0302682
-0.0307068
-0.0183379
-0.0187414
-0.0155937
-0.0155735
-0.00702791
-0.0181176
-0.0162129
-0.00691512
-0.00681183
-0.0144378
-0.0141481
-0.00744701
-0.0158576
-0.0152247
-0.00694421
-0.00789305
-0.0143236
-0.0150029
-0.00943324
-0.0151507
-0.015815
-0.00842371
-0.0106346
-0.0152602
-0.016097
-0.0134996
-0.0114027
-0.0117242
-0.0110808
-0.0128356
-0.0121789
-0.0124484
-0.017688
-0.0168583
-0.0167769
-0.0157009
-0.018199
-0.0168354
-0.0167121
-0.025825
-0.0229539
-0.0246611
-0.0156595
-0.0159829
-0.0178506
-0.0184271
-0.0287051
-0.0250552
-0.0256019
-0.016037
-0.0163071
-0.0187446
-0.0199775
-0.0282841
-0.0256906
-0.0262979
-0.0164473
-0.0171133
-0.0204441
-0.0219782
-0.0272796
-0.0357553
-0.0422308
-0.0218789
-0.0196207
-0.0231773
-0.0246174
-0.0229028
-0.0447393
-0.0462067
-0.0195142
-0.0193724
-0.0256848
-0.0275255
-0.0207882
-0.0452349
-0.0405046
-0.0193381
-0.0193124
-0.027756
-0.0274733
-0.0252497
-0.0210691
-0.0267712
-0.0206495
-0.0265185
-0.0210946
-0.0253362
-0.0259431
-0.0233432
-0.0270678
-0.0228777
-0.02747
-0.0234224
-0.0257248
-0.0259984
-0.0347957
-0.0348516
-0.0190528
-0.0195388
-0.0229118
-0.0221923
-0.0268084
-0.0349905
-0.0357037
-0.0197769
-0.0206696
-0.022053
-0.0218504
-0.0280932
-0.0360191
-0.0370125
-0.0210094
-0.0221526
-0.021828
-0.0219059
-0.0367673
-0.0169236
-0.0243045
-0.0193089
-0.0224928
-0.015386
-0.0198406
-0.0451991
-0.0282094
-0.0317561
-0.0240294
-0.0271967
-0.0218713
-0.0239798
-0.0433848
-0.0338468
-0.0375019
-0.027793
-0.0282457
-0.0248994
-0.0260079
-0.0395945
-0.0385441
-0.0403655
-0.0280337
-0.0265139
-0.0260606
-0.025414
-0.0372005
-0.0407394
-0.0397448
-0.0258493
-0.0239869
-0.0250757
-0.0238134
-0.0361478
-0.0391017
-0.037129
-0.0235093
-0.0225024
-0.0234355
-0.0223608