/*--------------------------------*- C++ -*----------------------------------*\
  =========                 |
  \\      /  F ield         | OpenFOAM: The Open Source CFD Toolbox
   \\    /   O peration     | Website:  https://openfoam.org
    \\  /    A nd           | Version:  10
     \\/     M anipulation  |
\*---------------------------------------------------------------------------*/
FoamFile
{
    format      ascii;
    class       volScalarField;
    location    "8";
    object      turbidity;
}
// * * * * * * * * * * * * * * * * * * * * * * * * * * * * * * * * * * * * * //

dimensions      [0 0 0 0 0 0 0];

internalField   nonuniform List<scalar> 
12920
(
-0.0172583
-0.0355726
-0.060282
-0.0848388
-0.109532
-0.132379
-0.149836
-0.155811
-0.154012
-0.1476
-0.144589
-0.148148
-0.164938
-0.19719
-0.239417
-0.285916
-0.33007
-0.367
-0.399771
-0.427305
-0.0298134
-0.0413544
-0.0596202
-0.0894389
-0.10543
-0.12398
-0.144147
-0.163031
-0.182007
-0.197388
-0.213644
-0.229935
-0.249799
-0.275636
-0.308912
-0.346864
-0.384066
-0.416317
-0.442976
-0.46562
-0.026913
-0.0562654
-0.0746749
-0.0931176
-0.112284
-0.131768
-0.152833
-0.171216
-0.191891
-0.213017
-0.235186
-0.259061
-0.285227
-0.313316
-0.342474
-0.37065
-0.395611
-0.415975
-0.433139
-0.449749
-0.118277
-0.0610913
-0.0668682
-0.0874696
-0.101356
-0.117831
-0.140394
-0.160163
-0.182696
-0.202803
-0.226885
-0.2524
-0.279222
-0.306646
-0.333001
-0.356902
-0.376805
-0.393075
-0.407838
-0.423049
-0.0470821
-0.0485153
-0.0545569
-0.0823509
-0.109513
-0.134301
-0.157795
-0.179378
-0.198897
-0.214688
-0.23192
-0.249753
-0.270051
-0.290328
-0.310404
-0.328583
-0.344037
-0.35938
-0.375507
-0.391949
-0.0924188
-0.0581008
-0.0773135
-0.100553
-0.119926
-0.138227
-0.1606
-0.180017
-0.203971
-0.224196
-0.245267
-0.263729
-0.281372
-0.297445
-0.312508
-0.326915
-0.341018
-0.355025
-0.369572
-0.384683
-0.0691894
-0.0529183
-0.0698341
-0.0882298
-0.108337
-0.129824
-0.15399
-0.180501
-0.205434
-0.227166
-0.2461
-0.261872
-0.276116
-0.288603
-0.302636
-0.319043
-0.335427
-0.35051
-0.365381
-0.379472
-0.148725
-0.0567916
-0.069473
-0.0875537
-0.0992184
-0.123058
-0.122471
-0.134013
-0.145661
-0.155576
-0.165335
-0.171645
-0.17789
-0.182325
-0.177013
-0.205704
-0.230409
-0.253996
-0.274808
-0.291763
-0.0664137
-0.0505283
-0.0592719
-0.0841072
-0.101839
-0.103495
-0.109361
-0.115028
-0.11812
-0.115079
-0.108455
-0.103903
-0.102594
-0.102452
-0.106967
-0.153096
-0.190619
-0.222476
-0.250556
-0.277142
-0.0293243
-0.0528121
-0.0836296
-0.149451
-0.172593
-0.131784
-0.11226
-0.104412
-0.0938484
-0.0861525
-0.0839681
-0.0863128
-0.0900174
-0.0938531
-0.110488
-0.145478
-0.178981
-0.211648
-0.244177
-0.277427
-0.0274845
-0.0403545
-0.058668
-0.0908569
-0.144068
-0.157513
-0.139352
-0.111951
-0.0976949
-0.0911382
-0.0897998
-0.0912273
-0.090941
-0.0892271
-0.0975621
-0.136413
-0.173655
-0.208959
-0.242587
-0.274696
-0.0259414
-0.0357473
-0.0526802
-0.092944
-0.146138
-0.147087
-0.137912
-0.130657
-0.126337
-0.115378
-0.0996067
-0.0927603
-0.0888806
-0.0849387
-0.0987454
-0.191675
-0.243882
-0.287216
-0.319767
-0.345507
-0.0268794
-0.0388543
-0.0530671
-0.0814999
-0.116893
-0.139497
-0.139736
-0.142208
-0.153393
-0.157772
-0.154587
-0.15207
-0.161117
-0.179179
-0.297567
-0.356954
-0.406553
-0.448256
-0.480657
-0.499538
-0.0392231
-0.0422277
-0.0551357
-0.0807978
-0.109685
-0.126264
-0.14661
-0.170255
-0.207338
-0.24085
-0.274521
-0.303255
-0.334803
-0.369607
-0.411159
-0.457655
-0.509649
-0.563249
-0.612353
-0.649964
-0.0590542
-0.0398553
-0.0561562
-0.0758652
-0.0893322
-0.0916783
-0.102134
-0.113879
-0.13783
-0.167535
-0.20412
-0.242088
-0.276379
-0.315265
-0.363396
-0.422289
-0.494376
-0.572486
-0.64745
-0.711337
-0.0346316
-0.056812
-0.0716477
-0.0822598
-0.0901545
-0.0962442
-0.106473
-0.120721
-0.137747
-0.156246
-0.177929
-0.204605
-0.235743
-0.269133
-0.305958
-0.353698
-0.419454
-0.501684
-0.590088
-0.673398
-0.0212703
-0.053167
-0.0754776
-0.0926008
-0.102588
-0.113379
-0.12552
-0.142176
-0.161303
-0.183972
-0.207715
-0.233901
-0.26219
-0.294841
-0.33516
-0.386806
-0.448502
-0.51692
-0.589143
-0.661077
-0.01562
-0.0548937
-0.068771
-0.105216
-0.130582
-0.149675
-0.166476
-0.186274
-0.206095
-0.227207
-0.249131
-0.274631
-0.304637
-0.34044
-0.38116
-0.425851
-0.469888
-0.510292
-0.552143
-0.59572
-0.01721
-0.0338499
-0.0414787
-0.0781555
-0.122003
-0.153009
-0.17099
-0.183607
-0.194262
-0.205392
-0.221262
-0.248431
-0.290948
-0.342711
-0.396769
-0.445358
-0.481641
-0.500896
-0.511209
-0.519266
-0.0247171
-0.0350825
-0.0495922
-0.0709044
-0.0927825
-0.120001
-0.14116
-0.147959
-0.149572
-0.148456
-0.150657
-0.157557
-0.175918
-0.209135
-0.243765
-0.272879
-0.29631
-0.32053
-0.358228
-0.415022
-0.0107507
-0.0128663
-0.0170671
-0.0225978
-0.0289222
-0.0326584
-0.0302563
-0.0242916
-0.0192025
-0.0161908
-0.0164281
-0.0197964
-0.0268499
-0.036445
-0.0481874
-0.0485163
-0.044843
-0.0456953
-0.05232
-0.0608738
-0.0153298
-0.0262799
-0.0332305
-0.0199918
-0.0123174
-0.0123179
-0.0156223
-0.0198841
-0.0258597
-0.0334624
-0.0446225
-0.0587619
-0.0759257
-0.0876245
-0.0919649
-0.0906175
-0.0928236
-0.101835
-0.117962
-0.136671
-0.0234396
-0.0312282
-0.0230729
-0.0174179
-0.0154102
-0.015684
-0.018137
-0.0231723
-0.0337117
-0.0474415
-0.0659584
-0.0820545
-0.0953352
-0.100194
-0.0985527
-0.0927132
-0.0863865
-0.0841645
-0.0859117
-0.0919599
-0.0183643
-0.0209311
-0.0175758
-0.0176881
-0.0173004
-0.0174925
-0.0181252
-0.0186678
-0.0211792
-0.0269294
-0.0372363
-0.0494488
-0.0624126
-0.0693019
-0.0702114
-0.0649704
-0.0553559
-0.0490563
-0.0486422
-0.0552226
-0.0312976
-0.013083
-0.0149568
-0.0160297
-0.0181762
-0.0216706
-0.0257671
-0.0228084
-0.0209042
-0.0196757
-0.0217148
-0.0260302
-0.0305182
-0.0337617
-0.0348397
-0.034434
-0.0337623
-0.0351912
-0.0392425
-0.0463332
-0.0268198
-0.0120839
-0.0148133
-0.0188107
-0.0147024
-0.015232
-0.0159263
-0.0160449
-0.0168676
-0.0177749
-0.0193641
-0.0208829
-0.0224265
-0.0235718
-0.0252002
-0.0291308
-0.0387387
-0.0509238
-0.0588197
-0.0622334
-0.0355345
-0.0173001
-0.022481
-0.0183577
-0.0157844
-0.0128798
-0.0114374
-0.0121159
-0.0131037
-0.014079
-0.0149986
-0.016353
-0.0188984
-0.0238708
-0.0333563
-0.0499497
-0.0745443
-0.0907664
-0.0902035
-0.0786761
-0.0705423
-0.0103201
-0.00879472
-0.00875606
-0.00828579
-0.00892174
-0.00962422
-0.0108478
-0.0117548
-0.0120748
-0.0127488
-0.0140836
-0.0170105
-0.022938
-0.0439361
-0.0578422
-0.0630878
-0.0567172
-0.0452504
-0.0387384
-0.0311467
-0.0126642
-0.0103424
-0.0114016
-0.00980841
-0.00887191
-0.00886144
-0.009443
-0.0100825
-0.0102029
-0.0112137
-0.0138536
-0.0190602
-0.028331
-0.0539527
-0.0600956
-0.054548
-0.0459041
-0.038716
-0.0348201
-0.0276838
-0.0155969
-0.0162385
-0.026999
-0.0255569
-0.0171603
-0.0110196
-0.00959923
-0.0093219
-0.0107136
-0.0162733
-0.0268915
-0.0445415
-0.0645689
-0.0641429
-0.0488661
-0.0530291
-0.0582221
-0.0632554
-0.063502
-0.00891546
-0.0235931
-0.0347201
-0.0610906
-0.100461
-0.0899672
-0.0724156
-0.0626654
-0.0444107
-0.0270531
-0.028127
-0.0379435
-0.0473633
-0.0524579
-0.0536728
-0.0542421
-0.0561642
-0.0602194
-0.0674257
-0.0757735
-0.00407158
-0.0175477
-0.0344769
-0.0620689
-0.0985712
-0.0732788
-0.0606695
-0.0957617
-0.115636
-0.104571
-0.0777065
-0.0642613
-0.0643958
-0.0670936
-0.0689356
-0.0611948
-0.0590233
-0.0568655
-0.0579267
-0.0621765
-0.0053465
-0.0121905
-0.0220142
-0.0442228
-0.0618549
-0.0398744
-0.0366604
-0.0527934
-0.061348
-0.0706458
-0.0785202
-0.0826479
-0.0833138
-0.0835839
-0.0697024
-0.0677914
-0.0654147
-0.0637609
-0.0627858
-0.0623569
-0.0233896
-0.0203821
-0.0295727
-0.0372608
-0.0418899
-0.0251912
-0.0223602
-0.0260276
-0.0335202
-0.0421772
-0.0472677
-0.0518135
-0.0595419
-0.0703586
-0.0822446
-0.0907249
-0.0920744
-0.0884604
-0.0845064
-0.0824488
-0.0225325
-0.0171605
-0.0165759
-0.0181864
-0.0184476
-0.0170773
-0.0206131
-0.0277777
-0.0428109
-0.0577676
-0.0648414
-0.0608118
-0.0630011
-0.0762001
-0.0973968
-0.113044
-0.112714
-0.10197
-0.0895955
-0.0823741
-0.0201358
-0.0175046
-0.0143993
-0.0194392
-0.0185329
-0.0185013
-0.0250006
-0.0293736
-0.0363137
-0.0428622
-0.0556063
-0.063523
-0.0710485
-0.0847316
-0.108561
-0.130419
-0.1407
-0.136446
-0.123452
-0.105995
-0.00386019
-0.0114493
-0.0167876
-0.0216747
-0.026785
-0.0297506
-0.0384674
-0.0455037
-0.055086
-0.0641678
-0.0766261
-0.0870147
-0.100182
-0.112724
-0.122339
-0.120643
-0.113613
-0.105844
-0.0967706
-0.0847479
-0.0147461
-0.0221036
-0.0134529
-0.0325667
-0.0408713
-0.0412227
-0.0513219
-0.0620114
-0.0801147
-0.0977061
-0.115544
-0.125803
-0.125448
-0.11277
-0.0964285
-0.0763479
-0.060896
-0.0535341
-0.0494437
-0.0463658
-0.00594141
-0.00544666
-0.0068099
-0.0161897
-0.0277626
-0.0307822
-0.0313587
-0.0318261
-0.0417603
-0.058593
-0.0864085
-0.11317
-0.137365
-0.142356
-0.128527
-0.10473
-0.080952
-0.0692711
-0.063089
-0.054307
-0.00844826
-0.0091806
-0.0174273
-0.0318104
-0.0428915
-0.0353783
-0.0200201
-0.0133477
-0.0131211
-0.0166565
-0.0250473
-0.0392636
-0.0568389
-0.0738521
-0.0913643
-0.109584
-0.134596
-0.16945
-0.207409
-0.235686
-0.00941015
-0.00709878
-0.00824571
-0.011155
-0.012374
-0.0122254
-0.0108194
-0.00924518
-0.00835164
-0.0083121
-0.00929773
-0.0110402
-0.013526
-0.0161676
-0.0191875
-0.0213459
-0.023653
-0.026237
-0.0296063
-0.0330867
-0.0176973
-0.0173209
-0.015151
-0.00933419
-0.00760058
-0.0078038
-0.00894727
-0.0105622
-0.0131543
-0.0163827
-0.0207568
-0.0252444
-0.0303864
-0.0337032
-0.035968
-0.0379484
-0.0414773
-0.0466517
-0.0533106
-0.0601615
-0.0147012
-0.0140082
-0.0133309
-0.0114332
-0.010262
-0.0105199
-0.0122227
-0.0150608
-0.0199066
-0.0251733
-0.031329
-0.0351815
-0.0377872
-0.0373781
-0.0364506
-0.0358524
-0.036341
-0.0383847
-0.0412528
-0.0442152
-0.0152599
-0.0126912
-0.012518
-0.0117743
-0.0112451
-0.0111583
-0.0113638
-0.0118268
-0.0134926
-0.0161708
-0.0195867
-0.0224145
-0.0246049
-0.0249565
-0.0244447
-0.0236315
-0.0234681
-0.0249178
-0.0277508
-0.0314274
-0.011016
-0.0100613
-0.0139574
-0.0140894
-0.0141407
-0.0141027
-0.0134673
-0.0115029
-0.0104356
-0.0106495
-0.0117691
-0.013155
-0.0141181
-0.0146166
-0.0148472
-0.0152836
-0.0163137
-0.0182493
-0.0211227
-0.0248298
-0.00873069
-0.00790054
-0.00860666
-0.0097975
-0.0105563
-0.0110274
-0.00989072
-0.00882263
-0.00798053
-0.00792388
-0.00843069
-0.00931475
-0.0103558
-0.0116067
-0.0132491
-0.0155359
-0.0186102
-0.0215661
-0.0239287
-0.0264797
-0.0155494
-0.0129285
-0.00991077
-0.0087824
-0.00861263
-0.00846144
-0.00760563
-0.00703478
-0.00669602
-0.00707432
-0.00825084
-0.0102091
-0.0132586
-0.017252
-0.0223804
-0.0280774
-0.0332584
-0.0348799
-0.0328713
-0.0306894
-0.0446158
-0.00704454
-0.00486452
-0.00527784
-0.00595932
-0.00670403
-0.00671748
-0.00651792
-0.00639365
-0.00699864
-0.00841641
-0.0110548
-0.0148626
-0.0202399
-0.0259936
-0.0268649
-0.0247931
-0.0215357
-0.0199824
-0.0212882
-0.0100682
-0.00553333
-0.00498489
-0.00538128
-0.00553672
-0.00574399
-0.00632422
-0.00644221
-0.00647492
-0.00764949
-0.0102913
-0.0144184
-0.0200867
-0.0269633
-0.0324098
-0.0225801
-0.0201233
-0.0181551
-0.0173268
-0.0177765
-0.00834273
-0.00750048
-0.00720459
-0.0113039
-0.0123524
-0.00914669
-0.00723491
-0.00705763
-0.00771994
-0.0102992
-0.0153138
-0.0214721
-0.026884
-0.0287983
-0.0254478
-0.0278297
-0.0304841
-0.0318279
-0.0311846
-0.02853
-0.00461915
-0.013243
-0.0150105
-0.0299635
-0.0443937
-0.0407966
-0.0328726
-0.0261005
-0.0220832
-0.0207884
-0.0226754
-0.0250235
-0.0262021
-0.0270441
-0.028852
-0.0293124
-0.0324241
-0.0364758
-0.0402927
-0.0422792
-0.00102743
-0.00703464
-0.0137896
-0.0321815
-0.0457395
-0.0318877
-0.0268667
-0.0401807
-0.0455207
-0.042379
-0.0389151
-0.0368135
-0.0360824
-0.0362993
-0.0324574
-0.0262957
-0.0268603
-0.0284873
-0.0310499
-0.0339996
-0.000626971
-0.00293394
-0.00753401
-0.0179967
-0.0209284
-0.0145021
-0.0157899
-0.0245339
-0.0286589
-0.0330475
-0.0341726
-0.0340987
-0.0322202
-0.0303179
-0.0258055
-0.0252794
-0.0250898
-0.0255396
-0.0264519
-0.0277351
-0.0221483
-0.0130074
-0.0132087
-0.0147896
-0.0133262
-0.0104099
-0.0135719
-0.0171075
-0.0203502
-0.0231621
-0.0243995
-0.0257691
-0.0272989
-0.0292246
-0.0305518
-0.0307682
-0.0297903
-0.0287223
-0.0284387
-0.0289319
-0.0152255
-0.0154076
-0.0095515
-0.00871029
-0.00849826
-0.00985112
-0.0140061
-0.0184282
-0.0247848
-0.0289355
-0.0306808
-0.030575
-0.0322699
-0.0355039
-0.0386048
-0.0386148
-0.0344982
-0.0301438
-0.0275673
-0.027237
-0.00354666
-0.012579
-0.0091394
-0.00853137
-0.00895998
-0.0112383
-0.0154666
-0.0194197
-0.0241019
-0.028594
-0.0334234
-0.0362164
-0.0395465
-0.0435052
-0.04904
-0.050651
-0.0467359
-0.0394595
-0.0328735
-0.0284369
-0.0054215
-0.00739706
-0.00731222
-0.00960765
-0.0131839
-0.01678
-0.0226479
-0.0283647
-0.0346823
-0.0397014
-0.0441279
-0.045939
-0.0480158
-0.0479638
-0.0464789
-0.0407285
-0.0345894
-0.0297937
-0.0262224
-0.0234616
-0.00594482
-0.00847199
-0.00689118
-0.0140918
-0.0168843
-0.0211948
-0.0297354
-0.0387324
-0.0507796
-0.0592254
-0.0646818
-0.0615044
-0.053065
-0.0417585
-0.0339552
-0.0288324
-0.0270277
-0.0263925
-0.0251992
-0.0232035
-0.00146674
-0.00213997
-0.00257731
-0.00643562
-0.0104109
-0.0119535
-0.0141797
-0.0181997
-0.0265161
-0.0359807
-0.0483284
-0.0553172
-0.0592055
-0.0537489
-0.0475609
-0.0451073
-0.0475353
-0.0512373
-0.052206
-0.0489331
-0.00224716
-0.00469276
-0.0113713
-0.0176882
-0.0181103
-0.0113544
-0.0069011
-0.00643747
-0.00868188
-0.0135245
-0.0207528
-0.0288835
-0.0371382
-0.0463173
-0.0581473
-0.0750915
-0.0987249
-0.125456
-0.148697
-0.161162
-0.00535625
-0.00596172
-0.00536163
-0.0051148
-0.00520593
-0.00541832
-0.00551424
-0.00563233
-0.00602634
-0.00692224
-0.00817033
-0.00952957
-0.0108565
-0.0120165
-0.0132731
-0.0144841
-0.0158871
-0.0174107
-0.0194065
-0.0216653
-0.00359543
-0.00772101
-0.00680006
-0.00550761
-0.0054612
-0.00593984
-0.00654757
-0.00749252
-0.00894189
-0.0107165
-0.0128275
-0.0146071
-0.0165777
-0.0179885
-0.0193674
-0.0206221
-0.0221035
-0.0238257
-0.0258785
-0.0278525
-0.0107374
-0.00921434
-0.00868906
-0.00790438
-0.00759051
-0.00796616
-0.00894865
-0.0101841
-0.0120982
-0.0135883
-0.0154575
-0.016479
-0.0177332
-0.0184345
-0.0193232
-0.0200928
-0.0207229
-0.0213473
-0.021855
-0.0221006
-0.0134536
-0.0104363
-0.0101777
-0.00946766
-0.00865944
-0.00821741
-0.00796768
-0.00817171
-0.00893682
-0.00996307
-0.0111866
-0.0122006
-0.0131821
-0.0138183
-0.0144014
-0.0149899
-0.0156559
-0.0165608
-0.0176121
-0.0185115
-0.00633813
-0.00861791
-0.0136765
-0.013641
-0.0112406
-0.00891164
-0.00735251
-0.00641357
-0.0064698
-0.0071888
-0.00803384
-0.00889126
-0.00955597
-0.0101724
-0.0108018
-0.0116216
-0.0126919
-0.0140437
-0.0156062
-0.0170691
-0.0075194
-0.00636156
-0.00716284
-0.00729646
-0.00707188
-0.00639011
-0.00532924
-0.00502868
-0.00518174
-0.0058196
-0.00654431
-0.00731048
-0.00803214
-0.0088191
-0.00978098
-0.0110064
-0.0125119
-0.0141985
-0.0161174
-0.0182109
-0.00277802
-0.00516351
-0.00651171
-0.00701376
-0.0066964
-0.0058038
-0.00483505
-0.00464142
-0.00512503
-0.00592882
-0.00703367
-0.00819156
-0.0095718
-0.0110059
-0.0126438
-0.0143311
-0.0158413
-0.0168505
-0.0179117
-0.0196316
-0.0183731
-0.00485568
-0.00392489
-0.00510463
-0.00538933
-0.00518404
-0.0048082
-0.0047205
-0.00523402
-0.0063478
-0.00745991
-0.00880675
-0.0101156
-0.0115581
-0.0116267
-0.0123854
-0.0130223
-0.0141394
-0.0159933
-0.0183211
-0.000394334
-0.00188002
-0.00286164
-0.00359065
-0.0044901
-0.00468989
-0.00480934
-0.00493099
-0.0059175
-0.00755451
-0.00908479
-0.0104435
-0.0114379
-0.0119753
-0.0111285
-0.0113059
-0.0118185
-0.0126187
-0.01388
-0.0155391
-0.000527253
-0.00375829
-0.00543696
-0.00736915
-0.00833487
-0.0069163
-0.00571478
-0.00620628
-0.00768913
-0.00954136
-0.0111965
-0.0125116
-0.013499
-0.0143912
-0.01601
-0.0178982
-0.0179064
-0.0173399
-0.0165446
-0.0159767
-0.00382494
-0.00909326
-0.0120355
-0.0178136
-0.0184937
-0.0193244
-0.0181925
-0.0181211
-0.0177455
-0.0165099
-0.0162869
-0.0170994
-0.0183949
-0.0198136
-0.02119
-0.0221484
-0.0237949
-0.0247268
-0.0248634
-0.0242201
-0.000755736
-0.00592153
-0.0114549
-0.0184052
-0.0173638
-0.0159469
-0.0152375
-0.0213589
-0.0247447
-0.0243676
-0.0216582
-0.0195512
-0.0186854
-0.0185563
-0.0177898
-0.0178563
-0.0192834
-0.0206867
-0.0218444
-0.0225345
-0.00140187
-0.00397125
-0.00662434
-0.00979999
-0.00957709
-0.00952856
-0.0120501
-0.0161478
-0.0167143
-0.0168612
-0.0162573
-0.0158626
-0.015341
-0.0152053
-0.0148048
-0.0151427
-0.0155894
-0.0161128
-0.0166209
-0.017089
-0.00696166
-0.0080989
-0.00712151
-0.00729497
-0.00691979
-0.00840422
-0.0111588
-0.012589
-0.0132256
-0.0139138
-0.0139987
-0.0142596
-0.0144949
-0.014832
-0.0150758
-0.0151791
-0.0152861
-0.0154871
-0.0158876
-0.0164116
-0.029148
-0.0102235
-0.00562182
-0.00522235
-0.00609517
-0.00865468
-0.011703
-0.0138028
-0.0157575
-0.0164602
-0.0165051
-0.0160888
-0.0160869
-0.0163235
-0.0163727
-0.0158363
-0.0149881
-0.0146378
-0.0148332
-0.0154532
-0.00323721
-0.00839439
-0.00682283
-0.00621297
-0.00778255
-0.010943
-0.0137441
-0.0162368
-0.0179783
-0.0188102
-0.0197385
-0.0194491
-0.0197276
-0.0196049
-0.0198424
-0.0186716
-0.0168
-0.0150768
-0.0141156
-0.0138251
-0.00623144
-0.00568543
-0.00565069
-0.00744732
-0.0106362
-0.0147445
-0.0186992
-0.0214622
-0.0233613
-0.0235003
-0.0235204
-0.0222871
-0.0216929
-0.0202773
-0.0188626
-0.0168739
-0.015375
-0.0143797
-0.0136356
-0.0130614
-0.00838375
-0.00470393
-0.00514129
-0.0088152
-0.0114912
-0.0165597
-0.0228121
-0.0272169
-0.0317934
-0.0320358
-0.0313034
-0.0275652
-0.0245022
-0.0223637
-0.0218341
-0.0220002
-0.0223303
-0.0219474
-0.0205801
-0.0185971
-0.000712694
-0.00199074
-0.00328547
-0.00541188
-0.00624796
-0.0077418
-0.0107715
-0.0148181
-0.020254
-0.0241356
-0.0286616
-0.0306803
-0.0330184
-0.0345666
-0.0376693
-0.0420473
-0.0463363
-0.0485982
-0.0477333
-0.0438689
-0.0021079
-0.00604504
-0.00963316
-0.00897046
-0.00696315
-0.00456904
-0.00411323
-0.00576634
-0.00919768
-0.0145074
-0.0207941
-0.0275215
-0.0349885
-0.0438031
-0.0547943
-0.0683046
-0.0834206
-0.0974537
-0.106631
-0.108598
-0.00630634
-0.00541328
-0.00470765
-0.00394849
-0.00373528
-0.00415901
-0.00486616
-0.00574316
-0.00686751
-0.00805696
-0.0092107
-0.0102804
-0.0113947
-0.0125881
-0.0139145
-0.0154174
-0.0170955
-0.0190062
-0.0210361
-0.0234212
-0.00555007
-0.00833354
-0.00670673
-0.0049008
-0.00488482
-0.00561653
-0.00650734
-0.00765756
-0.00878883
-0.00965936
-0.0104095
-0.0109025
-0.0114554
-0.011841
-0.0123055
-0.0127543
-0.0132775
-0.0139052
-0.0146297
-0.0154471
-0.00497382
-0.0062117
-0.00836665
-0.00737687
-0.00659393
-0.00681647
-0.00757076
-0.00843406
-0.00948321
-0.0102534
-0.0110374
-0.0114798
-0.0119009
-0.0120428
-0.0121844
-0.0122181
-0.0122452
-0.012347
-0.0125394
-0.0127844
-0.00140838
-0.00800141
-0.0090575
-0.00793233
-0.00700609
-0.00660495
-0.0068932
-0.00768743
-0.00856996
-0.0093892
-0.0100368
-0.0105299
-0.0109017
-0.0111521
-0.0113485
-0.0114975
-0.011644
-0.0118553
-0.0121588
-0.0124691
-0.00207009
-0.00412447
-0.00938826
-0.00882791
-0.00625092
-0.00533032
-0.00566818
-0.00654753
-0.00741369
-0.00828335
-0.00896755
-0.00959968
-0.0101253
-0.0105892
-0.0109835
-0.0113189
-0.0116256
-0.0119275
-0.0122774
-0.0125874
-0.00683304
-0.00570615
-0.00602582
-0.00443399
-0.0039103
-0.00422883
-0.0048341
-0.00573646
-0.00656408
-0.00745241
-0.0082393
-0.00902983
-0.0097699
-0.0104801
-0.011159
-0.0117866
-0.0123705
-0.0129012
-0.0134185
-0.0138495
-0.00312716
-0.00673751
-0.00589455
-0.00445763
-0.00370294
-0.00385588
-0.00463801
-0.00550908
-0.00640964
-0.00727675
-0.00814025
-0.00899493
-0.00984489
-0.0106849
-0.0115209
-0.0123317
-0.0130871
-0.0137569
-0.0143531
-0.014897
-0.016509
-0.00895061
-0.00396954
-0.003709
-0.0037903
-0.00407006
-0.00449306
-0.00543563
-0.0061131
-0.006895
-0.00756638
-0.00826732
-0.00896549
-0.0097036
-0.0110145
-0.0117112
-0.0123334
-0.0128826
-0.0133839
-0.0138403
-0.00319419
-0.00293973
-0.00315341
-0.00388859
-0.00454892
-0.00439139
-0.00446585
-0.00540196
-0.00609061
-0.00667857
-0.00719726
-0.00771759
-0.0082827
-0.00887194
-0.00991504
-0.0109545
-0.0114148
-0.0117894
-0.0121221
-0.0124303
-0.000385295
-0.00289745
-0.00474389
-0.00629468
-0.00724764
-0.00662978
-0.00597453
-0.00682536
-0.00771637
-0.00861372
-0.00947596
-0.0101581
-0.0104928
-0.0105394
-0.0109559
-0.0115023
-0.0114363
-0.011341
-0.0113182
-0.0113785
-0.00154913
-0.006192
-0.00799995
-0.0101527
-0.0103395
-0.0119136
-0.01253
-0.0129721
-0.0123864
-0.0123711
-0.0130999
-0.0138612
-0.0143533
-0.0149627
-0.0149182
-0.0133108
-0.0128704
-0.012316
-0.0119202
-0.0117621
-0.0016789
-0.00502287
-0.00793289
-0.0101365
-0.0100638
-0.0108702
-0.0113672
-0.0137925
-0.0138714
-0.0132392
-0.0129471
-0.012932
-0.0129971
-0.0133174
-0.012835
-0.0115439
-0.0113315
-0.0110633
-0.0109469
-0.011117
-0.00107832
-0.00288772
-0.00501535
-0.00707549
-0.00804925
-0.00874884
-0.00990889
-0.0106288
-0.0106048
-0.0105755
-0.0104071
-0.0103053
-0.0101485
-0.0100985
-0.00960014
-0.00967782
-0.00979722
-0.010019
-0.0103596
-0.010824
-0.00982974
-0.00524697
-0.00559045
-0.00608097
-0.00701412
-0.00826016
-0.00923555
-0.00938887
-0.00940587
-0.00933671
-0.0092436
-0.00917479
-0.00916703
-0.00920695
-0.00932317
-0.00948346
-0.0097569
-0.0101502
-0.0106931
-0.0113181
-0.00518448
-0.00470729
-0.00418313
-0.00527428
-0.00682681
-0.0084628
-0.0094657
-0.00976239
-0.0099163
-0.00968437
-0.00947775
-0.00920684
-0.00912323
-0.00912976
-0.00922229
-0.00937341
-0.00964514
-0.010116
-0.0107575
-0.0114635
-0.00198677
-0.00362241
-0.00468168
-0.00646098
-0.00815599
-0.00969355
-0.0104521
-0.0107147
-0.0107745
-0.0104747
-0.0103678
-0.00993699
-0.00982091
-0.00963253
-0.00966704
-0.00963686
-0.00976
-0.010098
-0.010656
-0.0112842
-0.00403732
-0.00538077
-0.00522206
-0.00747089
-0.00962901
-0.0114954
-0.0124693
-0.0125268
-0.01247
-0.0118982
-0.0115777
-0.0110056
-0.010703
-0.0103173
-0.0101161
-0.010021
-0.0101499
-0.0104906
-0.0109741
-0.0114966
-0.00572613
-0.00355205
-0.00468616
-0.00734167
-0.00966008
-0.0129313
-0.014858
-0.0154735
-0.0159148
-0.0152411
-0.0149112
-0.0142735
-0.0139203
-0.0136268
-0.0134246
-0.0133873
-0.013271
-0.0130443
-0.0127557
-0.01257
-0.000994367
-0.00184554
-0.00299403
-0.00402247
-0.00536557
-0.00891369
-0.0128041
-0.0163919
-0.0190921
-0.0210633
-0.0229916
-0.0246201
-0.0261949
-0.0276913
-0.0288886
-0.0295558
-0.0289781
-0.0272418
-0.0246055
-0.0219858
-0.00064022
-0.00261209
-0.0036305
-0.00353186
-0.00317373
-0.00354792
-0.00564127
-0.00984464
-0.0154652
-0.0211467
-0.0265929
-0.03194
-0.0375218
-0.0432368
-0.0490959
-0.0547026
-0.0590349
-0.0602269
-0.0574445
-0.0514324
-0.0138979
-0.0166831
-0.0190028
-0.0114307
-0.0136367
-0.0164225
-0.0172745
-0.0199074
-0.0198651
-0.0222667
-0.0142095
-0.015422
-0.017464
-0.0177415
-0.0220179
-0.0390576
-0.0361678
-0.0191686
-0.0189718
-0.027135
-0.0255149
-0.0245463
-0.035695
-0.0349076
-0.0189362
-0.0189565
-0.0248835
-0.0232884
-0.113359
-0.107028
-0.107565
-0.0829817
-0.0788411
-0.0798263
-0.0722964
-0.118155
-0.106751
-0.100591
-0.0830166
-0.0966915
-0.0709767
-0.0638937
-0.116303
-0.0980862
-0.0915678
-0.0980172
-0.0898372
-0.060358
-0.0513616
-0.110511
-0.0898164
-0.0860867
-0.0860767
-0.0778856
-0.0502737
-0.0530726
-0.104884
-0.0853723
-0.0851221
-0.0755307
-0.0691919
-0.0545692
-0.0571663
-0.103138
-0.0854535
-0.0868569
-0.0673421
-0.0652025
-0.0581673
-0.0646815
-0.102761
-0.0874411
-0.0896418
-0.0650931
-0.067768
-0.0680701
-0.0807509
-0.103617
-0.0904695
-0.0929791
-0.0692678
-0.0773614
-0.0854513
-0.0983352
-0.106448
-0.123101
-0.106598
-0.0806901
-0.0681602
-0.107825
-0.0868659
-0.0965125
-0.102698
-0.0939508
-0.0658142
-0.0566306
-0.0821907
-0.071659
-0.0875536
-0.0919456
-0.0882097
-0.0533513
-0.0475386
-0.0688607
-0.0624024
-0.0840166
-0.0876195
-0.0875921
-0.047896
-0.0546385
-0.0613638
-0.0609831
-0.0854928
-0.0880701
-0.0902686
-0.0570537
-0.0624289
-0.0618189
-0.0672155
-0.0890395
-0.0909928
-0.0921199
-0.0646528
-0.0753194
-0.0702101
-0.0815012
-0.0929485
-0.0921407
-0.0918834
-0.0796967
-0.0930646
-0.0854707
-0.0934695
-0.0960678
-0.091773
-0.0914479
-0.0971247
-0.106572
-0.0943061
-0.0924613
-0.117257
-0.144185
-0.133373
-0.134303
-0.109912
-0.140459
-0.13275
-0.100329
-0.131802
-0.12528
-0.104402
-0.090569
-0.132289
-0.129771
-0.0922275
-0.121927
-0.110502
-0.0863303
-0.0742745
-0.127694
-0.116258
-0.0897314
-0.106604
-0.0974697
-0.070922
-0.06474
-0.110942
-0.0940758
-0.0908822
-0.0955777
-0.0923664
-0.0640367
-0.0657449
-0.0887987
-0.0774305
-0.0912897
-0.0916768
-0.0894105
-0.0674687
-0.0743127
-0.0761262
-0.0781334
-0.0896234
-0.0885124
-0.0857044
-0.0769606
-0.0830948
-0.0799176
-0.0855563
-0.0883362
-0.0848037
-0.0822132
-0.0841784
-0.0848023
-0.0872015
-0.0909484
-0.131628
-0.13879
-0.136202
-0.13083
-0.130182
-0.127347
-0.129105
-0.127812
-0.136843
-0.13999
-0.130671
-0.131636
-0.132648
-0.137594
-0.119177
-0.141502
-0.142321
-0.131184
-0.124537
-0.138894
-0.137041
-0.102848
-0.140795
-0.127937
-0.120335
-0.105289
-0.134981
-0.127533
-0.093825
-0.12136
-0.109546
-0.100444
-0.0882198
-0.124769
-0.120328
-0.0898896
-0.107199
-0.1079
-0.0859314
-0.0850929
-0.120045
-0.122734
-0.0858615
-0.108028
-0.114723
-0.0861079
-0.0898893
-0.124171
-0.13101
-0.0826634
-0.11789
-0.136707
-0.0910246
-0.0935965
-0.134822
-0.149283
-0.00927355
-0.0089262
-0.00914373
-0.00812278
-0.00825326
-0.00818298
-0.00818897
-0.0099978
-0.00914917
-0.00906993
-0.00841014
-0.00886851
-0.00814893
-0.00807342
-0.0101193
-0.00907956
-0.00956062
-0.00900484
-0.00934059
-0.00816551
-0.00929165
-0.0108289
-0.00997436
-0.0124895
-0.00958766
-0.0108093
-0.0100505
-0.013585
-0.0129671
-0.0138186
-0.0194555
-0.0114405
-0.013981
-0.0151237
-0.0206901
-0.0173908
-0.021953
-0.0318031
-0.0151849
-0.0196657
-0.0228235
-0.0295805
-0.0254276
-0.0359464
-0.0507896
-0.021615
-0.0282951
-0.0317477
-0.0370578
-0.0390493
-0.0562951
-0.0721457
-0.0309925
-0.0392295
-0.0382857
-0.0400129
-0.00978261
-0.0375737
-0.0317322
-0.00987306
-0.00871458
-0.0247426
-0.0190198
-0.00930033
-0.0309754
-0.0255461
-0.00855012
-0.00842833
-0.0180749
-0.0166338
-0.0100906
-0.0233666
-0.0185557
-0.00859482
-0.0101833
-0.0165177
-0.0175526
-0.0144382
-0.0186196
-0.0223715
-0.0111665
-0.0155323
-0.0183768
-0.0221733
-0.0236232
-0.0245663
-0.0330509
-0.0173723
-0.023657
-0.0236667
-0.0275871
-0.0395614
-0.0363503
-0.0465614
-0.0258931
-0.0322587
-0.0287962
-0.0316973
-0.0599194
-0.0497544
-0.0562548
-0.0339811
-0.037099
-0.0323119
-0.0326454
-0.0751313
-0.0570889
-0.056748
-0.0374208
-0.0368188
-0.0323798
-0.0315744
-0.0648199
-0.0792719
-0.0984694
-0.0469105
-0.0329511
-0.0534132
-0.0529578
-0.0497251
-0.106312
-0.114665
-0.0307382
-0.0256251
-0.0559551
-0.0584106
-0.0296508
-0.113248
-0.0989444
-0.0244336
-0.0230115
-0.0569718
-0.0489859
-0.0265183
-0.0912144
-0.0665362
-0.023268
-0.0257952
-0.0462572
-0.0416869
-0.0352745
-0.0608264
-0.0543821
-0.0269161
-0.0297084
-0.041244
-0.0409157
-0.0453025
-0.0545794
-0.0576599
-0.0305581
-0.032279
-0.0410041
-0.0416576
-0.0516653
-0.058959
-0.0625904
-0.0326266
-0.0331359
-0.0419386
-0.0427787
-0.053764
-0.0637522
-0.0681154
-0.0332055
-0.0335506
-0.043053
-0.0440751
-0.0849572
-0.0411195
-0.0478632
-0.044413
-0.046522
-0.0351303
-0.0336466
-0.114154
-0.0623235
-0.078678
-0.0500581
-0.0570157
-0.0368182
-0.0409109
-0.109682
-0.0834486
-0.084176
-0.0573517
-0.0534469
-0.0427921
-0.0463902
-0.0841634
-0.0846756
-0.0900378
-0.0513216
-0.0461954
-0.0479893
-0.0514726
-0.0657467
-0.0918319
-0.0910336
-0.0452399
-0.0436049
-0.0522957
-0.0528432
-0.0638645
-0.0900076
-0.0873989
-0.0433211
-0.043033
-0.0529171
-0.0527769
-0.0663749
-0.087373
-0.0878505
-0.0430516
-0.0431972
-0.0526926
-0.0520286
-0.0701876
-0.0882553
-0.0872346
-0.0432946
-0.0438663
-0.0517821
-0.0507744
-0.00649164
-0.0063366
-0.00662761
-0.00597941
-0.00598373
-0.00608662
-0.00628178
-0.00639225
-0.00665586
-0.0068886
-0.00606517
-0.00637383
-0.00637102
-0.00710207
-0.00718144
-0.00709431
-0.0084836
-0.00660566
-0.0077921
-0.00755887
-0.00962864
-0.00947691
-0.00926452
-0.012533
-0.0083939
-0.0102956
-0.0104677
-0.0128715
-0.0131956
-0.0138602
-0.0183622
-0.0110156
-0.0131331
-0.0135383
-0.0150124
-0.0184865
-0.0199873
-0.0248674
-0.0139002
-0.015915
-0.0153181
-0.015738
-0.0251143
-0.0263436
-0.0296238
-0.0165754
-0.0179653
-0.0157531
-0.0156451
-0.0322814
-0.0302435
-0.0307123
-0.0183289
-0.0187428
-0.0155947
-0.0155715
-0.00702465
-0.0180834
-0.016215
-0.00691082
-0.00680742
-0.0144204
-0.0141364
-0.00743776
-0.0158535
-0.0152148
-0.00693791
-0.00787792
-0.0143086
-0.0149857
-0.00940509
-0.0151387
-0.0157899
-0.00840522
-0.0106065
-0.0152427
-0.0160815
-0.0134611
-0.0113625
-0.0116861
-0.0110455
-0.0127923
-0.0121397
-0.0124117
-0.0176533
-0.0168021
-0.0167249
-0.0156588
-0.0181459
-0.0167943
-0.0166751
-0.0257738
-0.0229256
-0.0246407
-0.0156495
-0.0159781
-0.0178449
-0.0184169
-0.0286921
-0.025039
-0.0255962
-0.016033
-0.0163013
-0.0187327
-0.0199624
-0.0282948
-0.0256853
-0.026286
-0.016441
-0.0171029
-0.0204284
-0.0219599
-0.0273308
-0.0357965
-0.0422466
-0.0219506
-0.0196271
-0.0232174
-0.0246248
-0.0229159
-0.0447801
-0.0463119
-0.0195136
-0.0193639
-0.0256943
-0.0275381
-0.0207779
-0.0453366
-0.040571
-0.0193283
-0.0193019
-0.0277662
-0.0274814
-0.0252301
-0.0210485
-0.0267586
-0.0206299
-0.0265008
-0.0210739
-0.0253235
-0.0259281
-0.0233092
-0.0270395
-0.0228549
-0.0274405
-0.0234
-0.0257084
-0.025984
-0.0347915
-0.0348461
-0.0190482
-0.0195303
-0.0229202
-0.022196
-0.0267993
-0.0349836
-0.0356935
-0.0197678
-0.0206587
-0.022056
-0.0218517
-0.02808
-0.0360082
-0.037002
-0.0209979
-0.0221381
-0.0218292
-0.0219059
-0.0367353
-0.0169149
-0.0242587
-0.0192867
-0.0224825
-0.0153714
-0.019823
-0.0452674
-0.0281548
-0.0317273
-0.0240221
-0.0271999
-0.0218509
-0.0239673
-0.043446
-0.0338252
-0.0374868
-0.0277965
-0.0282536
-0.0248892
-0.0260093
-0.0396175
-0.0385341
-0.0403659
-0.0280435
-0.0265315
-0.026066
-0.0254255
-0.0372137
-0.0407506
-0.0397812
-0.0258684
-0.024003
-0.0250907
-0.0238299
-0.0361521
-0.039137
-0.0371602
-0.0235228
-0.0225095
-0.0234519