/*--------------------------------*- C++ -*----------------------------------*\
  =========                 |
  \\      /  F ield         | OpenFOAM: The Open Source CFD Toolbox
   \\    /   O peration     | Website:  https://openfoam.org
    \\  /    A nd           | Version:  10
     \\/     M anipulation  |
\*---------------------------------------------------------------------------*/
FoamFile
{
    format      ascii;
    class       volVectorField;
    location    "8";
    object      U_0;
}
// * * * * * * * * * * * * * * * * * * * * * * * * * * * * * * * * * * * * * //

dimensions      [0 1 -1 0 0 0 0];

internalField   nonuniform List<vector> 
12920
(
(149.235 170.248 -29.2503)
(63.9894 61.0975 -9.59539)
(160.972 48.429 10.5944)
(107.779 24.5875 -0.194001)
(156.539 16.5543 -0.833735)
(128.923 0.553196 -0.0707273)
(150.187 -0.21079 0.220031)
(138.175 -3.00093 -0.512159)
(149.28 1.15496 -1.48219)
(144.888 4.8439 -3.05066)
(150.506 8.43888 -3.92181)
(149.372 10.2809 -4.41949)
(151.346 10.3648 -3.76476)
(148.633 10.6751 -1.92583)
(138.91 9.56606 1.27569)
(125.067 6.2889 1.38134)
(118.963 3.43843 0.374987)
(116.427 2.23351 -0.150565)
(115.961 1.4578 -0.0904304)
(119.801 1.26276 -0.116815)
(247.838 -90.8818 -0.391297)
(155.615 -42.3502 15.6452)
(178.021 -53.9073 23.2324)
(65.3 -25.2105 6.87248)
(130.181 -16.3013 -0.468425)
(84.1835 -5.85153 -1.41072)
(120.516 -1.40836 -2.29731)
(102.982 3.52167 -2.38671)
(121.864 6.23593 -2.0863)
(118.225 8.46348 -1.64321)
(128.088 9.12587 -0.793869)
(127.149 9.37471 0.000732316)
(128.799 7.85335 1.05226)
(124.168 7.98026 1.87162)
(119.56 7.95576 2.343)
(113.028 6.42558 1.36138)
(110.492 3.05668 0.703275)
(109.711 1.0401 0.498203)
(110.417 -2.34633 0.69274)
(114.072 -3.43393 0.829237)
(305.226 -9.51783 43.4478)
(235.978 -8.06663 18.1936)
(207.564 36.2878 17.5686)
(129.712 27.9778 4.07942)
(158.039 25.4346 0.961093)
(123.516 11.4742 -0.201803)
(141.359 7.49551 -0.106997)
(125.659 4.31933 -0.32323)
(134.87 3.4068 0.0548706)
(127.587 4.88485 0.0655134)
(130.665 5.917 0.548542)
(125.288 7.58328 0.797993)
(123.693 8.46275 1.36429)
(116.786 9.53321 1.30825)
(114.955 9.03664 1.01843)
(111.61 7.44607 0.585107)
(111.173 2.85371 0.246148)
(110.497 -0.476559 0.222061)
(111.002 -3.80192 0.193256)
(113.042 -4.56781 0.215215)
(62.9162 -26.5433 -182.204)
(-111.173 29.9178 -11.5468)
(132.563 18.831 -5.9535)
(37.9743 -2.07783 -0.883952)
(133.296 6.6012 -2.42459)
(92.6684 6.64891 -1.63146)
(132.522 5.10237 -1.14304)
(113.016 7.62544 -1.10405)
(127.043 6.85708 -0.5169)
(117.965 8.89921 -0.635265)
(122.855 8.75837 -0.1475)
(118.333 9.82343 0.00806712)
(119.107 9.16966 0.442327)
(116.045 9.02231 0.510481)
(116.164 7.65563 0.487818)
(114.578 6.37112 0.347921)
(114.023 2.77354 0.133638)
(111.374 -0.224209 -0.100657)
(111.021 -3.37156 -0.120234)
(112.321 -4.26375 -0.040276)
(-59.7367 10.2225 -0.800856)
(-30.8238 7.95235 -11.1578)
(163.876 8.2173 -15.2267)
(106.048 15.1543 -1.44008)
(164.638 14.4913 0.420002)
(129.237 12.1185 0.85913)
(145.776 7.23758 1.08974)
(126.201 10.2705 0.318224)
(130.248 6.79477 0.2113)
(120.55 10.2007 -0.182803)
(122.514 8.84227 -0.134098)
(118.47 10.5048 -0.189128)
(119.567 9.50389 -0.069464)
(117.776 9.61823 -0.0933665)
(118.24 8.347 -0.0414275)
(117.389 7.51063 -0.0781804)
(117.507 5.68936 -0.182081)
(115.854 2.95292 -0.20517)
(116.212 -1.56251 -0.129817)
(117.869 -3.35257 -0.0490391)
(-8.1478 215.232 -27.1802)
(1.98671 -27.5129 -7.54387)
(111.603 -3.20029 3.26116)
(5.332 -5.81372 4.05619)
(120.426 0.875881 0.356048)
(54.7803 11.4943 0.426503)
(115.158 8.21729 -0.0536571)
(92.8965 15.5194 -0.473519)
(110.744 12.4581 -0.204749)
(105.226 14.1529 -0.356071)
(111.198 11.5326 -0.142412)
(109.961 11.6655 -0.11143)
(112.414 9.85443 -0.000172617)
(112.899 9.68717 -0.0490801)
(114.787 7.94973 -0.0308477)
(115.13 6.89383 -0.0932473)
(116.517 5.07894 0.0488321)
(117.569 1.76624 0.320219)
(118.678 -2.25447 0.332787)
(120.284 -3.39794 0.213277)
(103.27 103.389 -5.4954)
(100.771 2.8305 -19.1779)
(173.903 -3.0251 1.95336)
(96.5573 -29.3554 1.59986)
(154.22 -19.4355 0.881735)
(108.176 -3.17873 -0.565652)
(124.047 -18.807 -0.452665)
(103.622 11.3571 -0.508645)
(109.414 0.430842 -0.250104)
(102.99 10.7867 -0.212971)
(106.527 6.61727 -0.102527)
(104.499 9.68129 -0.133812)
(106.394 7.30183 -0.14985)
(105.821 7.24904 -0.210654)
(106.948 6.50537 -0.274568)
(109.17 5.64883 -0.218966)
(110.819 2.25646 0.478402)
(108.781 -1.43436 1.13088)
(106.635 -3.44147 0.905804)
(105.918 -3.48428 0.358445)
(-115.475 -30.1604 -107.003)
(-164.237 38.8435 -24.2746)
(119.445 -4.95759 -7.32821)
(-25.7521 -7.42694 -3.56305)
(128.254 1.6573 -5.69236)
(35.7424 36.3866 -1.44624)
(85.8804 16.3617 -0.138875)
(77.0887 13.8224 0.158073)
(88.2272 10.7368 0.12512)
(82.5558 6.21743 -0.0608837)
(89.1156 6.36671 -0.16422)
(90.8315 5.08257 -0.219158)
(95.7467 4.78849 -0.273406)
(97.6588 4.15492 -0.191237)
(97.3657 5.17828 0.00751155)
(97.3967 3.06161 0.408136)
(95.9102 1.25398 0.85988)
(92.5597 -0.473704 0.672308)
(91.5331 -1.44983 0.134682)
(93.7442 -1.84979 -0.122743)
(-109.614 -182.812 -56.2686)
(-137.445 -88.438 -40.0514)
(124.498 -77.9442 -16.525)
(26.0013 -31.8439 -6.22031)
(117.754 -22.351 -7.13826)
(83.1698 2.53558 -3.15853)
(111.688 15.8882 -1.22694)
(84.2453 1.55984 -0.0535629)
(81.985 9.7951 -0.0441356)
(81.1868 7.12728 -0.165473)
(83.2471 4.23873 -0.0646285)
(85.2954 2.17906 -0.137179)
(88.9351 1.86199 -0.153091)
(92.0244 1.32388 -0.153215)
(92.3449 0.520865 0.223384)
(85.6673 3.28566 0.464696)
(84.8578 2.07385 0.562777)
(85.5087 -0.624133 0.236187)
(87.3521 -2.43541 -0.0547496)
(91.5882 -2.39967 -0.045446)
(202.983 -132.835 109)
(56.9038 -100.423 13.4249)
(129.811 -14.4694 3.88277)
(-34.288 12.2399 -0.865654)
(82.8915 17.1302 0.819668)
(-11.3091 17.4787 -1.91499)
(56.1381 28.7517 -0.857571)
(78.3255 21.4832 -0.395796)
(82.0703 14.1645 -0.187461)
(82.7642 12.4467 -0.177766)
(82.0515 9.5791 0.0328812)
(79.2576 6.65611 0.0341636)
(78.519 5.2605 0.00939863)
(78.3104 4.36597 0.0463257)
(78.7345 2.92433 -0.0427959)
(83.7813 1.21604 -0.376238)
(89.1083 -1.95688 -0.449628)
(92.8813 -3.9423 -0.146513)
(95.0564 -4.49839 0.187791)
(97.584 -3.43728 0.261956)
(323.424 -137.11 -45.6424)
(213.766 -104.131 1.3208)
(213.426 -18.448 15.5845)
(95.6435 8.25059 7.00483)
(119.196 -1.27589 14.9689)
(23.5771 0.844606 -0.970308)
(38.7176 4.02699 0.0221289)
(63.098 8.01913 0.193209)
(69.8777 10.4474 -0.0590807)
(72.804 11.5607 -0.0397668)
(73.5517 10.4683 -0.0367759)
(73.9999 6.71759 -0.133763)
(77.6021 2.61384 -0.138677)
(82.3481 1.63926 -0.065077)
(87.1955 0.869814 -0.189195)
(91.9647 -2.7853 -0.0662176)
(95.3124 -5.07074 -0.220016)
(97.5747 -6.15471 -0.198395)
(99.0718 -5.57392 -0.0375288)
(101.1 -3.97564 0.040803)
(248.766 -137.604 -208.02)
(76.2166 -113.981 -9.13723)
(152.108 11.3385 8.83084)
(68.4339 47.4363 7.87566)
(96.0901 39.6504 12.2569)
(-8.46424 5.0559 -1.2787)
(60.9386 -14.7174 -0.514892)
(73.2626 -15.126 0.513764)
(77.3875 1.44927 0.925122)
(80.5296 4.78568 0.849215)
(79.0539 11.8441 0.165814)
(79.7703 8.0981 -0.428515)
(85.1514 2.81183 -0.317157)
(89.0553 -0.295763 -0.151094)
(91.3858 -3.95522 0.350998)
(87.8864 -5.57807 0.690449)
(88.1762 -6.46255 0.363513)
(88.547 -6.46711 0.0832833)
(89.8053 -5.17175 -0.19965)
(94.0234 -3.22987 -0.201891)
(266.865 -191.878 -274.09)
(86.7267 -96.142 -63.6179)
(183.128 17.1223 -0.683013)
(108.581 37.6493 3.74367)
(142.439 40.5743 8.13842)
(81.5471 -10.446 0.567325)
(95.4448 -3.03049 -2.33891)
(69.4099 -10.2358 -0.254309)
(71.6315 -6.53197 0.242291)
(60.9201 -3.35149 0.065453)
(72.2902 0.0414093 0.365869)
(76.1576 0.083538 0.595104)
(80.7555 -1.56344 0.482424)
(79.4166 -3.49425 0.406043)
(79.1925 -6.14477 0.308274)
(80.8646 -7.76243 0.0411251)
(82.3467 -7.88363 -0.0430732)
(83.7539 -7.73391 -0.0811886)
(85.0466 -6.7224 -0.0352708)
(88.9097 -4.58742 -0.082025)
(155.692 -82.1998 -121.118)
(135.642 -19.0772 -92.6949)
(211.742 66.8259 -9.86983)
(106.19 52.9428 5.04498)
(140.645 46.6597 9.44595)
(78.9985 14.0659 1.92765)
(94.6524 22.8759 -0.177)
(72.1376 -7.70318 -1.71045)
(80.6352 -0.083816 -1.56885)
(75.0855 -11.8074 -0.592672)
(80.0925 -6.78163 0.0390956)
(79.0827 -9.64644 -0.0852564)
(82.7866 -6.05214 -0.26972)
(82.687 -8.27885 -0.312323)
(84.1854 -8.39854 -0.105905)
(83.6182 -9.68563 0.0982756)
(83.883 -9.36225 0.154573)
(83.0429 -8.73098 0.100231)
(83.3211 -6.94996 0.0496307)
(85.822 -3.95857 -0.0671923)
(-60.1597 -69.4409 15.6469)
(-125.061 31.8385 -68.5282)
(165.702 89.5523 -23.0216)
(87.187 61.7474 -1.10322)
(162.295 48.0957 -0.983965)
(139.538 24.7814 -3.79561)
(163.541 21.5821 -3.10331)
(156.734 12.0887 -3.7144)
(156.407 10.3357 -0.245947)
(142.704 -0.271423 1.27845)
(127.602 -2.63904 2.22789)
(112.037 -5.80064 0.592485)
(107.277 -3.82317 -0.835473)
(104.126 -5.52811 -0.649829)
(101.06 -6.62062 0.205042)
(93.7636 -8.6959 0.63784)
(87.8128 -8.49712 0.531343)
(82.9277 -7.79423 0.260003)
(81.2959 -6.50509 0.133548)
(83.1138 -4.09579 0.0605763)
(-55.0817 24.6275 183.187)
(-188.205 -47.4219 -22.216)
(140.695 -29.0716 -3.09092)
(70.5199 19.6657 8.18855)
(148.44 18.8107 3.33995)
(130.883 19.1606 -0.252993)
(157.141 24.6791 -0.0597419)
(149.741 17.2906 -0.23576)
(156.933 17.7052 0.366456)
(151.205 9.39452 -0.123873)
(149.21 10.8081 1.24525)
(136.605 6.01733 1.04792)
(130.757 5.07744 0.696097)
(123.473 -0.111287 0.15452)
(120.064 -0.0880349 0.719825)
(110.048 -1.32821 1.25997)
(100.904 -2.02964 1.29828)
(92.0265 -3.95017 0.809056)
(88.3554 -4.83957 0.524388)
(87.6502 -3.56226 0.202017)
(287.741 -65.335 -248.383)
(-48.0999 -95.7695 -11.099)
(141.331 -71.2908 -9.29874)
(77.0938 -20.6537 2.64042)
(135.323 -5.50349 1.72722)
(117.585 0.633832 -0.0047012)
(142.422 8.9917 1.17095)
(133.025 7.1139 1.40472)
(141.483 8.46488 1.90044)
(133.612 5.33921 1.55779)
(134.579 6.62677 1.78273)
(128.784 6.05419 1.34838)
(127.42 5.05714 1.3928)
(121.328 1.87136 1.43669)
(114.232 1.42776 1.73286)
(102.599 1.892 1.25646)
(96.7919 1.61637 0.695886)
(90.5792 -0.138256 0.405759)
(88.3035 -1.87203 0.283579)
(87.8742 -1.78392 0.0860022)
(243.433 -195.345 -75.4617)
(-64.159 -30.9732 12.2594)
(120.083 -73.0922 7.06843)
(18.8076 -27.8864 1.87799)
(103.581 -11.9392 4.5312)
(68.6663 -1.63245 1.01402)
(109.906 5.35884 1.31986)
(97.0425 4.88653 1.03222)
(114.939 6.74454 1.64919)
(109.355 4.55806 1.73658)
(116.156 5.33596 2.17044)
(112.473 3.81515 2.2772)
(113.872 4.39506 1.86563)
(107.374 4.92496 1.23765)
(101.518 9.0613 0.987985)
(93.5859 8.74289 0.45599)
(92.4543 6.12895 0.0909024)
(90.7553 2.49981 -0.0956717)
(91.8157 -0.261602 -0.196721)
(93.9595 -0.522779 -0.247517)
(67.4576 -101.416 13.0761)
(3.02561 -66.7727 -41.7735)
(142.959 -86.9982 -48.6179)
(77.2489 -62.6677 -25.8942)
(125.331 -52.4596 -8.19502)
(90.8616 -25.8555 -0.269763)
(117.705 -18.0628 0.671231)
(107.051 -10.5629 0.224641)
(122.368 -10.2754 0.230865)
(118.986 -9.28833 0.291619)
(125.587 -8.26574 1.13474)
(121.39 -7.1577 1.67788)
(120.525 -0.187927 3.62627)
(108.033 6.655 3.54203)
(102.5 9.69444 2.53352)
(95.4633 8.06876 1.78001)
(93.431 4.46104 0.603755)
(91.3439 1.2066 -0.191531)
(93.2288 -0.284599 -0.617635)
(98.2137 0.685767 -0.779243)
(162.984 -2.27817 96.5292)
(159.367 40.6301 -10.8201)
(212.747 74.6637 -13.5366)
(211.834 89.6697 -1.42908)
(223.222 38.6978 10.5615)
(150.106 -0.6108 8.25303)
(142.935 -8.12601 2.0634)
(122.431 -4.52995 -0.630844)
(130.942 -2.57575 -1.77296)
(126.947 -1.85823 -2.78481)
(134.02 -2.03162 -3.26083)
(134.001 -1.25555 -3.97011)
(139.554 -0.451949 -3.86096)
(144.724 5.43804 -2.18527)
(154.026 9.58688 0.46551)
(158.004 10.1956 2.23007)
(159.367 8.82284 2.5042)
(156.328 5.50667 2.94656)
(145.405 0.209994 3.62359)
(132.368 2.66348 2.54321)
(132.187 -25.0446 56.4745)
(-19.7811 36.8545 -36.4509)
(169.555 38.0487 -10.4503)
(102.616 23.4338 -2.97654)
(150.081 19.679 -0.842743)
(119.166 6.39536 0.988889)
(140.744 7.7334 0.336006)
(125.896 4.93151 -1.42381)
(133.761 7.91962 -2.56161)
(122.355 7.62204 -4.06796)
(121.392 6.64524 -4.26201)
(110.67 4.33892 -4.52249)
(109.183 1.77446 -2.90143)
(103.518 1.11462 -0.872745)
(103.931 1.12642 1.24241)
(102.666 0.717908 1.26398)
(102.518 -0.63525 0.523318)
(102.755 -1.0676 -0.0377847)
(103.786 -2.01559 0.198544)
(109.413 -2.30475 0.262475)
(111.046 -107.496 79.5897)
(19.1798 -28.2731 25.8192)
(151.01 -45.8223 40.923)
(62.3531 -16.924 4.01146)
(127.373 -11.6988 -4.36592)
(80.1367 -3.75741 -3.51994)
(113.595 -0.469303 -4.37875)
(92.9769 3.16351 -3.90808)
(109.817 5.00923 -2.65352)
(101.038 5.89779 -1.99543)
(107.427 5.14683 -0.544061)
(102.069 4.2144 0.313613)
(103.117 2.57365 1.46912)
(99.0323 2.43653 2.1035)
(98.7596 2.47164 2.49614)
(96.6484 2.0001 1.68737)
(96.0507 -0.0198457 0.934189)
(95.7329 -1.17703 0.57986)
(96.527 -2.97184 0.834321)
(99.886 -3.0947 0.916049)
(320.878 -9.94462 1.54601)
(127.539 40.2434 0.743726)
(182.475 49.2613 3.54225)
(111.968 37.221 -1.98671)
(146.011 31.7822 -3.7709)
(108.243 17.0463 -2.02345)
(127.252 12.8796 -0.753019)
(108.439 9.34159 -0.716791)
(117.711 7.83985 0.269637)
(107.944 8.23369 0.15366)
(110.952 7.29947 0.8962)
(104.478 7.42946 1.01032)
(103.903 6.19903 1.616)
(98.9795 6.17354 1.40329)
(98.1656 5.08467 1.21157)
(95.5041 3.46584 0.718866)
(95.063 0.143077 0.331631)
(94.1635 -1.47106 0.274762)
(94.4208 -3.20143 0.343865)
(96.2572 -3.26492 0.262391)
(-52.5373 -92.7306 -123.467)
(-75.6402 33.2737 -41.6811)
(113.88 21.966 -15.278)
(29.5164 5.03801 -2.39167)
(122.808 10.2247 -5.69131)
(76.9829 8.58112 -2.44808)
(117.269 6.44753 -1.73618)
(93.9793 8.81164 -1.78311)
(108.882 7.61196 -0.501956)
(97.9419 9.60243 -0.777311)
(103.323 8.96306 0.0419874)
(98.1596 9.57538 0.0761134)
(99.6922 8.33785 0.636681)
(96.9647 7.78736 0.594949)
(97.5868 5.99762 0.635287)
(95.942 4.38012 0.438714)
(95.3748 1.10016 0.0807686)
(93.6034 -0.851808 -0.123293)
(93.6693 -2.6448 -0.0168903)
(95.0933 -2.86104 0.006005)
(-51.1119 -108.962 14.7947)
(24.0421 -8.60898 -51.0537)
(140.788 3.82526 -32.9162)
(84.9827 11.4453 -4.00906)
(147.962 13.8739 -2.68818)
(109.751 13.9255 -0.0281792)
(129.831 10.2694 1.25289)
(108.054 13.7369 0.168978)
(113.333 9.3592 0.414781)
(102.099 12.0549 -0.248175)
(104.083 9.49367 -0.0349829)
(98.8988 10.4305 -0.179109)
(99.8079 8.55377 0.044437)
(97.3295 8.20755 -0.0639732)
(97.7058 6.47262 0.0212296)
(96.4171 5.28306 -0.084842)
(96.4124 2.50222 -0.201705)
(95.447 -0.132197 -0.145588)
(96.1 -2.37606 -0.00268309)
(97.7968 -2.58974 0.00519065)
(0.385344 -50.1637 34.6341)
(-23.0835 -23.2113 -36.4461)
(82.4459 1.5669 -4.06833)
(-6.44279 -5.50761 1.21503)
(108.422 7.22588 -2.63039)
(39.6836 17.442 0.965138)
(102.463 12.8191 -0.430936)
(75.8955 19.3713 -0.635654)
(94.1981 14.3554 -0.175907)
(86.613 15.5694 -0.461643)
(92.8227 12.0311 -0.0695079)
(90.7289 11.8732 -0.122006)
(93.2845 9.54531 0.0270916)
(93.1074 8.76936 -0.023504)
(94.659 6.59364 0.0340798)
(94.7733 4.96997 0.0544424)
(96.165 1.80185 0.348802)
(96.7177 -1.1689 0.576544)
(97.7251 -2.75683 0.514143)
(99.2264 -2.53118 0.214288)
(157.927 18.266 53.5024)
(16.9357 -9.06594 -31.9148)
(155.319 -4.27108 -1.36067)
(71.0576 -25.767 -1.07349)
(138.581 -11.9788 -2.00826)
(85.784 4.39749 -2.10875)
(106.198 -13.1844 -0.71683)
(84.5285 17.2377 -0.843005)
(92.4917 3.06418 -0.1417)
(85.4707 12.9196 -0.23628)
(89.4374 7.1907 -0.0219794)
(86.9686 9.92638 -0.129035)
(89.0725 6.78713 -0.0497699)
(88.1385 6.52054 -0.150509)
(89.0408 4.92976 -0.176477)
(90.0791 3.16012 -0.0381179)
(91.3481 -0.0462657 1.00122)
(90.8629 -2.02225 1.38711)
(90.9512 -2.38094 1.04917)
(91.835 -1.7544 0.322261)
(-3.7963 2.47898 46.6677)
(-103.609 16.1045 -59.3399)
(121.739 -7.26425 -15.2997)
(-1.5217 -4.12396 -6.48319)
(113.963 7.24484 -9.3481)
(28.0067 40.1761 -1.9513)
(74.8912 13.152 -0.380981)
(66.2567 17.2377 -1.04112)
(76.6646 10.5558 -0.000345509)
(73.3953 8.66282 -0.837677)
(79.1161 6.83222 -0.415333)
(79.8707 5.76556 -0.582711)
(83.287 4.39488 -0.447839)
(84.1444 3.40702 -0.338628)
(82.6511 3.67403 -0.244053)
(82.8547 1.30497 0.636615)
(82.543 -0.0797905 1.14987)
(81.6905 -0.805513 0.775523)
(81.5982 -0.824401 0.161728)
(83.6588 -0.755656 -0.190065)
(61.3566 -174.349 -20.4689)
(-39.1067 -91.89 -30.638)
(129.075 -74.8431 -25.6322)
(46.2391 -38.7342 -7.90369)
(106.489 -22.6277 -11.3364)
(71.2953 7.61441 -5.42912)
(89.3726 11.6624 -4.0687)
(69.1282 4.52929 -1.26469)
(70.234 8.61111 -0.257153)
(69.8576 6.84089 -0.477799)
(72.5964 4.85443 -0.401648)
(74.5007 3.41294 -0.62037)
(77.3945 2.5241 -0.478789)
(79.5954 1.51758 -0.308048)
(79.633 -0.366937 0.245303)
(76.6051 1.71783 0.441567)
(77.1664 0.950996 0.659606)
(77.9628 -0.910331 0.266261)
(79.1006 -1.54176 -0.0194076)
(82.0605 -1.38063 0.0103144)
(95.3799 -51.6902 125.908)
(-26.03 -55.6219 14.9735)
(117.5 -15.312 4.82926)
(-25.8332 3.28783 -1.66182)
(71.1517 14.8759 -2.34278)
(6.12918 13.1974 -3.55768)
(54.2274 23.3869 -1.5621)
(66.6418 15.0917 -0.391164)
(68.4038 10.2703 -0.461837)
(69.2222 9.00032 -0.56868)
(69.6301 6.88531 -0.0971188)
(70.2328 5.21177 -0.199549)
(71.6353 3.98271 -0.15599)
(73.3184 3.0058 -0.0660562)
(74.5022 1.47103 -0.209605)
(78.0223 -0.602931 -0.64753)
(80.8735 -2.25705 -0.37093)
(82.3326 -2.72999 0.042358)
(83.5781 -2.54526 0.400514)
(85.826 -1.56778 0.368259)
(207.522 4.75947 -187.422)
(-17.7322 -41.8054 37.4001)
(154.716 -20.1901 16.3241)
(-11.848 5.26905 7.13422)
(104.988 -3.12988 14.4772)
(29.0683 -2.43303 1.15388)
(44.7326 0.514396 2.23512)
(59.8776 4.16598 2.71792)
(65.3688 6.24559 1.1922)
(67.3821 7.419 0.199351)
(68.6265 6.77797 -0.284268)
(70.5033 4.35619 -0.821183)
(73.3713 2.17274 -0.802708)
(77.2215 1.1416 -0.353013)
(80.1762 -0.654633 -0.164605)
(82.6852 -4.43746 -0.423204)
(84.1287 -4.74071 -0.327845)
(84.9437 -4.45358 -0.208941)
(85.7302 -2.89242 0.0660734)
(87.8373 -1.52979 0.128516)
(241.107 -135.945 -120.462)
(66.2213 -36.9753 14.037)
(120.847 5.86908 -8.0696)
(-8.79971 34.4168 -0.397738)
(83.1863 22.2402 10.5187)
(6.06627 -4.11665 -3.82441)
(55.2345 -11.6164 0.995867)
(62.3508 -6.04582 3.53321)
(66.2855 1.50317 3.84565)
(69.4519 5.46843 2.21684)
(71.3415 5.7918 0.351264)
(73.1539 2.26214 -0.863194)
(75.8536 -0.620211 -0.478854)
(78.505 -2.46369 0.0741994)
(79.3612 -4.731 0.743174)
(77.7708 -5.10778 0.564783)
(78.4667 -5.25451 0.318535)
(79.066 -4.55548 -0.035366)
(80.241 -3.00043 -0.284119)
(83.6242 -1.54512 -0.178428)
(294.604 -142.885 -15.3431)
(65.4855 25.4235 6.76843)
(145.006 77.7991 -17.5487)
(26.9059 45.4201 -3.71649)
(119.468 29.0044 1.99931)
(48.0565 -24.064 -2.63088)
(71.1542 -3.43434 -0.97581)
(45.6743 -5.7073 0.709354)
(57.6213 -1.52929 0.943854)
(51.7218 -1.17357 0.357817)
(63.6791 -1.16091 1.10068)
(65.1737 -2.6335 1.3251)
(70.3563 -3.903 1.02836)
(70.1194 -5.37142 0.908865)
(70.2816 -5.9257 0.286676)
(71.8513 -6.84886 0.10075)
(73.0261 -6.27156 0.0170751)
(74.2759 -5.70073 -0.0798138)
(75.5363 -4.40507 -0.0787111)
(79.3193 -2.62668 -0.0736843)
(147.856 -231.437 -20.5652)
(-82.199 -10.2877 -8.41774)
(124.977 106.343 14.2395)
(8.76229 45.4494 4.37746)
(116.808 31.4059 8.68528)
(50.0404 4.75367 0.22682)
(76.9309 21.6055 -0.782179)
(53.5137 -11.3612 -2.97857)
(66.0898 0.268188 -2.00192)
(60.339 -12.4902 -0.744797)
(67.4518 -6.31467 0.19957)
(66.1526 -10.0894 -0.0162057)
(70.0196 -6.40545 -0.279326)
(69.6024 -8.73935 -0.217913)
(71.1209 -7.99384 0.0499694)
(71.1824 -8.72159 0.309878)
(72.1013 -7.88351 0.314612)
(72.2356 -6.93434 0.155156)
(73.2202 -4.87803 0.0338706)
(76.4538 -2.68255 -0.0314909)
(165.231 -348.196 72.3604)
(-45.9015 -122.757 -34.0755)
(138.161 24.3857 -16.5696)
(54.8079 29.3016 -1.42692)
(134.767 26.301 -1.43503)
(92.3855 9.7479 -5.3552)
(119.519 12.134 -2.44747)
(101.663 -0.869734 -3.54164)
(106.027 -0.367296 0.089364)
(97.8181 -7.11466 1.2132)
(96.1344 -5.19052 2.68768)
(89.4694 -8.17222 0.951466)
(86.8101 -6.35741 -0.519215)
(82.6802 -7.99182 -0.258619)
(81.0477 -7.6328 0.6377)
(77.3996 -8.39705 1.15407)
(75.0303 -7.57723 0.859602)
(72.6883 -6.72293 0.452646)
(72.3408 -5.3507 0.236884)
(75.0583 -3.23827 0.185721)
(248.572 -242.431 -68.8175)
(-116.489 -113.107 -11.4039)
(112.311 -41.4161 -18.9647)
(40.6284 9.30347 8.12246)
(121.401 8.85012 3.31256)
(86.1309 6.48566 -0.955361)
(116.906 12.8442 1.43508)
(101.807 0.665424 0.329851)
(113.562 4.48063 1.46466)
(103.743 -1.21818 0.482816)
(106.379 2.19365 2.02175)
(99.2298 -1.14986 1.38547)
(98.4731 -1.27722 1.44926)
(93.2605 -4.38415 0.701281)
(91.1618 -3.45336 1.42859)
(85.1731 -3.91878 1.9045)
(81.8593 -3.6107 1.85499)
(77.6929 -4.46508 1.1324)
(76.6844 -4.26024 0.701058)
(77.9674 -3.00201 0.32084)
(261.581 -42.2843 -112.473)
(6.08771 -32.9375 29.1033)
(116.127 -30.0262 -5.29158)
(46.9233 0.688578 1.48477)
(113.154 4.85275 2.25864)
(81.4292 -0.546127 0.203637)
(112.534 3.04711 2.60641)
(97.2737 -2.1 2.26289)
(109.955 0.115894 3.24472)
(100.677 -2.52542 2.36547)
(104.876 -0.221028 2.98115)
(99.2524 -1.50204 2.07028)
(99.3344 -0.835762 2.24239)
(94.1894 -2.048 1.97636)
(90.7714 -0.55499 2.50391)
(83.9828 -0.138724 1.80217)
(81.0488 -0.521324 0.951702)
(77.6893 -1.84997 0.448101)
(77.2801 -2.56656 0.32045)
(78.8416 -2.09276 0.0832568)
(34.5675 -102.205 14.6754)
(-193.949 12.5014 13.4073)
(97.6299 -55.669 -12.3556)
(-32.4998 -15.1125 3.02232)
(94.8839 -10.5074 4.7585)
(50.5589 -4.70348 2.22708)
(97.8111 0.102749 2.62494)
(80.3485 -0.695092 1.80387)
(100.572 2.42513 2.74173)
(92.6835 1.55186 2.563)
(100.627 3.63042 3.31986)
(95.2682 2.63598 3.28945)
(96.4191 3.51914 2.65493)
(89.6862 3.87719 1.58367)
(86.8882 6.27976 1.4209)
(81.6506 5.20521 0.558121)
(81.4883 2.77321 0.00275)
(80.5422 -0.169187 -0.202439)
(82.0507 -1.89941 -0.313145)
(84.9387 -1.60902 -0.472488)
(221.45 -346.934 53.4996)
(213.747 -31.2424 -26.0595)
(259.237 -31.1074 -40.8539)
(110.315 -36.552 -27.4341)
(121.016 -43.3244 -11.5107)
(81.9295 -22.8796 -0.406857)
(108.987 -18.2257 1.24817)
(93.4022 -10.4799 0.306902)
(107.475 -8.77307 0.510486)
(99.371 -5.35819 0.169144)
(105.858 -2.47867 1.69337)
(99.8179 0.640464 1.99179)
(101.184 4.83933 3.97286)
(95.8628 7.12119 3.28491)
(94.1747 7.83997 2.39604)
(90.279 5.65588 1.13282)
(90.5751 1.51144 -0.0478061)
(89.7799 -1.68691 -0.837165)
(91.7455 -3.05888 -0.874871)
(95.0589 -1.69062 -1.32548)
(242.037 -54.8831 74.7708)
(215.01 7.1971 -15.399)
(210.247 49.5338 -12.3335)
(158.023 49.1156 -0.457798)
(169.585 8.72794 14.2686)
(127.582 -6.29638 9.07989)
(133.845 -6.94492 1.46317)
(115.71 -3.06174 -2.81012)
(122.861 -0.210299 -3.5036)
(114.915 2.39925 -3.99647)
(119.528 4.90292 -2.81819)
(116.184 7.64015 -2.15361)
(119.501 10.2645 -0.294397)
(122.524 15.1795 0.938405)
(132.918 16.1622 2.11292)
(143.714 14.4083 2.71468)
(150.252 8.13913 3.54501)
(147.23 3.20321 5.40817)
(139.877 -1.4894 7.42419)
(133.6 0.355264 5.15536)
(96.7423 -29.5626 118.871)
(-4.67531 -12.4555 -43.0661)
(160.055 34.2204 -26.8163)
(102.515 24.3822 -4.55911)
(148.313 25.5394 -4.60547)
(116.038 13.3583 -1.19608)
(136.013 14.01 -2.20267)
(116.975 9.45609 -3.30142)
(122.454 10.1041 -3.71452)
(106.089 7.61553 -4.8371)
(104.081 4.7081 -3.2095)
(91.5713 1.68165 -3.51321)
(90.8489 -0.507365 -2.32016)
(86.8433 -1.10783 -1.36521)
(88.5509 -1.33027 0.403544)
(89.2781 -1.37842 0.70741)
(90.7921 -1.89035 0.617512)
(92.1038 -1.78654 0.15905)
(93.4497 -2.56623 0.454245)
(99.3388 -2.5999 0.689065)
(105.631 -231.491 -9.98439)
(-145.465 -18.2651 -9.96238)
(165.655 -45.5025 8.0416)
(64.8001 -15.3408 3.38857)
(125.717 -9.14181 -6.27642)
(74.8928 -1.87276 -4.69675)
(106.828 0.935643 -5.51644)
(81.7497 3.29209 -4.90644)
(97.8397 4.14418 -2.89152)
(85.207 3.99377 -1.91842)
(91.0485 2.84348 -0.285547)
(83.9317 1.83709 0.120197)
(85.3887 0.415502 1.08908)
(81.8924 0.572045 1.49647)
(82.992 0.536607 1.87509)
(82.0693 0.269212 1.22103)
(82.4623 -0.840376 0.779336)
(82.3681 -1.56176 0.449193)
(83.0764 -2.6376 0.649306)
(86.2218 -2.36424 0.789024)
(206.698 -92.3602 180.818)
(129.909 9.84887 27.898)
(190.438 39.0761 0.760253)
(111.436 38.2034 1.09)
(137.612 33.6878 -2.03147)
(93.9606 19.3489 -1.1153)
(114.104 15.6424 -0.543163)
(91.6218 11.7656 -0.771298)
(101.885 9.62485 0.200071)
(89.893 9.12618 -0.0180614)
(93.3618 7.06405 0.760471)
(86.1534 6.47226 0.710953)
(86.5176 4.61482 1.31672)
(82.3777 4.19532 1.06101)
(82.4646 2.92651 1.02398)
(80.6056 1.67551 0.651222)
(80.6344 -0.510576 0.347739)
(79.8792 -1.40983 0.275971)
(80.2083 -2.48199 0.259846)
(82.1309 -2.23289 0.189309)
(67.9503 -160.065 88.3049)
(-39.2492 10.0566 -55.8059)
(115.129 21.2918 -5.9242)
(24.6568 6.92576 -0.886059)
(112.12 11.3773 -5.20247)
(58.8317 9.20035 -1.94817)
(101.943 6.86265 -1.50238)
(74.5038 9.37962 -1.69498)
(92.0402 7.69781 -0.372805)
(79.6093 9.51292 -0.744212)
(86.2638 8.19371 0.0937987)
(80.6623 8.43401 0.0194487)
(82.9158 6.77242 0.552391)
(80.3965 6.13276 0.484683)
(81.456 4.29143 0.596201)
(80.1261 2.83401 0.420087)
(80.1869 0.343055 0.0727033)
(79.0714 -0.865794 -0.030904)
(79.4329 -1.9791 -0.0256116)
(80.9744 -1.84026 -0.00826216)
(132.33 -139.531 67.3683)
(93.1031 -12.8252 -47.9437)
(143.373 5.09923 -35.7647)
(83.6126 12.4169 -5.11854)
(136.419 14.9557 -3.64668)
(91.2368 14.9218 -0.241376)
(113.506 10.8589 1.01542)
(88.9736 14.6232 0.0271623)
(96.7038 9.33525 0.515576)
(84.5963 11.9801 -0.246731)
(87.7168 8.62761 0.0280748)
(82.0617 9.37031 -0.174424)
(83.4031 6.99187 0.0668865)
(80.7582 6.55619 -0.0682479)
(81.3762 4.71535 0.0457442)
(80.162 3.44173 -0.0628076)
(80.4609 0.813334 -0.148263)
(79.9398 -0.875432 -0.0435089)
(80.7737 -1.94428 -0.00264127)
(82.464 -1.65804 0.00689722)
(118.226 -39.0095 103.643)
(5.94983 -8.53056 -39.7166)
(77.4145 12.0047 -4.51831)
(-7.70542 -0.304461 -0.618225)
(96.1056 12.6244 -2.77167)
(25.2272 20.5529 1.47786)
(90.2766 13.8691 -0.443435)
(59.5369 20.1162 -0.462561)
(79.5559 13.5614 -0.233121)
(70.3598 14.9048 -0.450541)
(77.2977 10.752 -0.0412199)
(74.6491 10.6899 -0.108467)
(77.5143 8.04908 0.0948425)
(77.1603 7.22127 0.0444003)
(78.7538 4.79028 0.0736818)
(78.849 3.06966 0.0337061)
(80.1174 0.0694447 0.303353)
(80.499 -1.6407 0.495331)
(81.5831 -2.1173 0.455758)
(83.202 -1.40225 0.133862)
(260.523 193.154 -76.6048)
(43.9359 35.9732 -33.2513)
(156.927 4.17252 -8.0905)
(62.5264 -19.7527 1.26367)
(127.266 -5.98187 -1.59956)
(67.4304 8.33857 -1.64946)
(91.574 -11.2863 -0.147871)
(67.9816 19.6768 -0.745624)
(78.1985 2.67526 0.0810685)
(70.4718 12.7893 -0.143065)
(75.2105 5.88836 -0.040392)
(72.4505 8.825 -0.128878)
(74.8059 5.21283 -0.0756143)
(73.6115 5.14952 -0.206008)
(74.4521 3.3323 -0.197485)
(75.1351 1.6424 -0.0353623)
(76.2147 -0.652827 0.812812)
(76.2915 -1.50617 1.12049)
(77.0734 -1.33367 0.814743)
(78.7134 -0.587796 0.163914)
(188.414 315.585 -49.7507)
(-94.7123 40.5974 -49.1665)
(124.071 -4.09336 -14.3019)
(3.21817 1.40314 -1.58395)
(103.647 11.5612 -6.37541)
(18.304 41.1575 -1.64598)
(63.105 9.16373 -0.993542)
(54.0834 18.5226 -1.25674)
(64.4247 8.33923 -0.199352)
(62.0386 8.71286 -0.722386)
(67.5159 5.51135 -0.419767)
(67.9877 5.0146 -0.554168)
(70.9491 3.11936 -0.429231)
(71.5419 2.26596 -0.231216)
(70.0945 2.38124 0.145102)
(70.2601 0.689972 0.708172)
(70.7151 -0.185955 0.954196)
(70.735 -0.546006 0.636208)
(71.2133 -0.282681 0.0832397)
(73.3293 -0.104649 -0.142544)
(160.805 -120.223 -103.719)
(7.31286 -82.3993 -46.6306)
(125.777 -72.4658 -37.2604)
(48.3282 -37.6013 -9.06699)
(96.8055 -20.1792 -9.35232)
(57.7399 12.0142 -3.54633)
(70.9147 8.49469 -4.22379)
(55.3261 4.18309 -1.2336)
(59.6891 6.86961 -0.340245)
(60.1844 5.62332 -0.487495)
(63.4898 4.23366 -0.451867)
(65.2163 3.02538 -0.641797)
(67.7058 1.99429 -0.502094)
(69.394 0.970893 -0.228699)
(69.3853 -1.2305 0.387868)
(67.2884 0.979542 0.71869)
(68.0353 0.486463 0.659038)
(68.6617 -0.742387 0.319899)
(69.5808 -0.898313 0.0348925)
(72.1658 -0.71759 0.0438183)
(156.919 -93.7027 -41.3276)
(-35.3188 -41.0596 -17.5247)
(112.483 -16.0181 -16.7667)
(-19.993 1.02473 -2.96071)
(61.154 12.8051 -4.51431)
(7.00222 11.6497 -3.64736)
(47.4978 19.1136 -1.85675)
(57.1332 10.1405 -0.146209)
(59.2641 7.33839 -0.37712)
(60.3103 6.61651 -0.5917)
(61.5527 5.2977 -0.464414)
(62.7282 4.06374 -0.422907)
(64.435 3.03749 -0.346143)
(66.3373 2.09376 -0.210567)
(67.3288 0.662735 -0.0842285)
(68.8604 -0.865772 -0.157146)
(70.4984 -1.60441 0.0586117)
(71.2285 -1.60692 0.273425)
(72.1855 -1.28349 0.455795)
(74.5034 -0.600002 0.349572)
(68.5765 10.3625 -184.783)
(-52.9315 -26.5326 14.4568)
(115.728 -28.3647 6.74786)
(-28.8125 3.77667 8.32874)
(84.002 -5.22442 8.63346)
(18.1774 -4.73048 3.35625)
(41.4214 -0.739331 3.7884)
(54.6924 3.16934 3.97072)
(59.4274 4.61414 1.72613)
(61.0509 6.49292 2.10338)
(63.6237 5.32959 0.173914)
(65.4836 2.49747 -1.10269)
(66.9055 1.17917 -0.632048)
(69.725 0.0935763 -0.301133)
(71.3868 -1.8033 -0.0703503)
(71.8252 -4.01691 -0.0471263)
(72.4837 -3.4954 -0.0627857)
(72.8525 -2.81399 -0.0336788)
(73.4564 -1.19469 0.103955)
(75.8294 -0.428396 0.159896)
(192.996 -57.147 -2.0949)
(95.2143 -36.7016 5.45818)
(108.127 -19.7104 2.81477)
(-22.4753 20.5093 4.12381)
(67.0449 9.29071 6.05379)
(3.22934 -12.2135 -0.690842)
(46.4543 -9.56497 1.8916)
(51.5313 0.354786 4.17019)
(56.5695 3.5759 3.62596)
(59.6262 4.85771 1.67043)
(62.3381 2.77617 0.288307)
(64.2706 -0.12896 -0.3733)
(66.6454 -1.92312 -0.106703)
(69.1328 -3.11396 0.354512)
(69.6183 -4.54059 0.78654)
(67.9373 -4.17389 0.7081)
(68.6676 -3.92751 0.269533)
(69.1777 -3.01947 -0.0455609)
(70.2448 -1.66743 -0.253335)
(73.3328 -0.608244 -0.0793385)
(313.95 96.8143 9.14535)
(190.387 33.6251 -14.2846)
(168.782 66.3701 -14.6281)
(26.6092 32.4492 -0.74136)
(106.91 16.5673 -0.24339)
(28.1496 -28.8266 -1.5418)
(54.1161 1.45672 -0.249619)
(33.2731 -3.10778 0.613283)
(48.5423 1.99624 0.664222)
(44.2617 -0.708052 0.530099)
(55.7042 -1.36677 1.16603)
(56.3201 -3.50054 1.23453)
(61.5016 -4.21874 0.959094)
(61.5111 -5.40401 0.862221)
(61.5756 -4.91739 0.463425)
(63.2628 -5.62534 0.180658)
(64.334 -4.74885 0.00818511)
(65.5265 -4.12005 -0.10154)
(66.6774 -2.90243 -0.135352)
(70.2037 -1.53141 -0.0459997)
(171.402 31.9794 -104.581)
(-90.8953 30.5119 -14.6473)
(129.887 108.252 -3.71124)
(-8.68448 33.1811 5.77516)
(104.366 20.9245 4.70868)
(27.9731 -2.76004 -0.393185)
(63.8985 20.4915 -0.428546)
(37.9502 -15.5302 -2.86716)