/*--------------------------------*- C++ -*----------------------------------*\
  =========                 |
  \\      /  F ield         | OpenFOAM: The Open Source CFD Toolbox
   \\    /   O peration     | Website:  https://openfoam.org
    \\  /    A nd           | Version:  10
     \\/     M anipulation  |
\*---------------------------------------------------------------------------*/
FoamFile
{
    format      ascii;
    class       volScalarField;
    location    "10";
    object      k;
}
// * * * * * * * * * * * * * * * * * * * * * * * * * * * * * * * * * * * * * //

dimensions      [0 2 -2 0 0 0 0];

internalField   nonuniform List<scalar> 
12920
(
730.968
1105.64
1047.06
887.517
736.463
633.037
476.836
392.401
330.952
272.535
210.294
160.651
129.114
110.278
98.8998
91.2521
86.265
82.618
81.2475
78.0829
1074.42
1162.31
1049.57
897.733
752.2
720.243
613.127
550.709
445.028
347.937
253.251
189.965
160.33
151.789
150.06
150.823
152.722
155.969
160.066
162.786
682.615
785.109
576.665
583.921
611.893
583.966
443.66
325.991
241.163
209.372
177.722
167.617
158.073
155.433
154.742
154.574
154.769
153.95
153.193
150.495
727.624
1522.52
1327.12
949.128
647.205
479.951
352
279.788
225.191
192.067
164.979
150.266
138.946
132.481
128.361
125.52
123.816
120.836
119.872
117.829
945.173
2347.7
2314.84
1553.18
880.801
592.831
501.307
416.748
378.736
312.762
252.93
196.675
156.948
132.352
119.65
113.154
109.391
106.909
106.253
105.695
1343.35
1221.47
1180.31
904.337
754.697
724.078
662.305
630.519
589.659
566.257
509.142
375.657
243.591
156.123
118.257
104.376
98.184
95.2432
94.8796
95.7286
4776.82
1365.82
838.351
728.641
731.134
714.178
655.588
607.348
565.599
531.422
481.612
388.045
262.614
161.461
119.085
102.526
94.3766
88.8767
86.2267
85.4382
5334.65
3533.23
1672.47
1030.56
931.561
905.921
574.335
383.115
360.614
346.459
328.014
282.311
226.068
142.841
153.771
128.543
114.127
99.7821
91.3274
83.2713
9893.41
4278.94
2404.71
1410.78
979.865
500.813
365.183
193.65
196.338
214.831
212.913
196.911
198.381
164.542
146.091
152.001
132.573
114.689
104.647
89.488
4946.3
2232.77
1398.91
1126.96
870.244
450.878
214.488
146.312
161.474
154.336
155.935
156.809
129.135
97.5634
102.077
143.37
126.652
115.486
110.207
97.8721
4005.21
2554.29
1175.7
874.375
750.352
439.538
196.464
127.047
127.762
126.789
114.039
82.8514
58.3161
52.6417
100.999
169.966
153.014
137.041
127.992
107.132
2957.43
2656.51
1746.93
1006.47
749.783
389.874
206.978
114.884
109.523
103.594
120.173
136.944
120.617
69.3591
126.251
183.719
166.043
145.315
125.089
96.6327
2921.61
2142.64
1915.2
1235.84
881.727
689.649
351.609
241.612
197.455
162.493
130.379
105.956
91.3908
92.5296
155.334
136.381
121.34
105.616
92.9932
80.7742
818.629
2022.63
2076.57
1604.53
997.365
716.027
514.94
401.589
302.665
249.118
206.994
182.784
161.553
143.028
126.856
112.983
101.837
92.9084
89.0884
82.5682
43.5609
952.922
1708.76
1548.63
924.795
657.487
513.185
456.467
373.064
330.242
274.96
233.258
196.488
168.062
142.609
122.785
108.926
100.156
97.4532
93.8509
1015.12
2280.9
2339.89
1572.52
910.796
751.45
660.121
596.906
481.799
402.267
320.09
260.28
215.098
185.46
160.724
141.156
128.071
117.321
113.246
107.159
1008.38
2071.79
1668.31
1074.19
884.223
826.361
667.276
551.06
430.509
353.24
281.733
228.211
188.668
163.944
146.828
133.892
126.062
119.127
116.314
110.402
3623.29
2604.49
1749.99
1143.79
807.201
701.529
562.779
486.687
394.863
328.38
259.96
209.523
176.07
155.476
141.649
128.896
120.183
112.886
110.317
106.339
3214.65
3997.83
2725.96
1404.2
783.175
552.756
426.875
364.623
303.362
256.22
215.464
190.378
175.128
165.355
152.036
136.308
122.004
109.439
101.351
98.3887
782.941
884.77
827.258
743.065
492.032
351.752
289.636
256.665
220.583
185.892
154.695
132.579
118.244
108.412
101.858
91.9487
84.6525
74.9215
69.885
57.6036
4629.35
1962.84
1720.97
1703.85
1379.02
1108.48
910.272
780.664
618.194
471.758
345.247
275.94
240.948
224.798
209.867
197.127
185.738
177.444
175.617
171.689
4946.02
4279.78
2797.76
2333.86
1786.13
1649.31
1281.53
1203.46
985.261
778.923
529.303
458.137
443.222
448.709
448.654
450.202
453.608
463.703
472.781
478.287
13496.8
6277.07
1788.08
1719.55
1538.75
1412.35
956.101
819.389
627.163
573.338
504.762
488.528
469.405
464.179
458.564
454.079
452.999
449.925
448.957
446.275
1838.76
4063.95
3494
2490.35
1633.4
1217.96
887.608
746.333
607.661
538.47
470.932
440.807
407.16
399.694
393.252
384.972
377.651
368.783
365.042
359.134
3762.22
5305.92
4937.66
3573.01
2159.38
1568.52
1297.25
1095.89
946.447
802.999
644.028
512.876
402.689
371.019
354.83
343.83
332.831
326.617
325.371
324.387
3655.85
3570.68
3277.94
2466.52
1975.88
1925.62
1735.26
1648.3
1479.2
1395.98
1199.65
862.342
501.632
354.855
316.064
300.404
288.645
284.624
285.184
289.978
5049.51
3389.79
2862.26
1959.34
1961.65
1892.55
1712.12
1601.36
1466.59
1399.31
1247.23
964.296
602.547
363.255
306.077
282.306
266.247
257.917
255.63
257.819
8523.75
3792.25
2400.45
2521.6
2473.34
2312.06
1869.81
1575.83
1430.37
1323.19
1236.54
1104.77
861.289
497.032
409.611
321.114
285.436
262.421
251.43
244.715
8079.22
6872.49
3786.32
3000.95
2352.37
1922.31
1683.18
1333.28
1165.45
1108.49
1076
1056.71
982.726
802.178
469.71
355.225
316.202
286.914
271.65
254.83
8774.65
6751.8
3579.64
2637.7
2082.09
1663.29
1275.83
999.464
872.31
790.645
741.574
673.497
568.011
430.802
347.296
342.422
327.295
315.884
305.064
280.713
3096.47
6941.89
3411.56
2238.48
1770.26
1413.13
1098.69
876.943
735.631
654.674
512.235
378.189
317.898
294.802
314.018
378.856
369.298
362.828
348.438
304.386
9820.37
7341.07
4407.88
2355.75
1833.06
1398.9
1105.02
867.738
737.61
675.465
651.366
611.363
491.132
398.845
403.258
408.745
387.697
357.17
314.907
266.234
7863.63
7172.76
5140.46
3006.62
2102.03
1673.57
1208
942.941
759.779
636.632
532.519
456.364
401.096
381.752
379.36
344.524
311.542
278.723
253.678
234.665
3503.5
5124.82
4761.9
3394.47
2139.9
1777.2
1327.14
1063.35
814.141
670.666
561.973
496.289
439.495
390.291
349.744
317.445
289.052
267.184
255.342
241.982
624.233
4388.25
4330.53
3253.04
1844.16
1655.91
1352.81
1271.81
1022.53
874.99
718.557
616.5
528.233
457.531
392.337
343.808
312.931
294.61
287.625
276.365
2091.3
4983.84
4747.51
3358.5
2266.53
2094.66
1770.91
1562.1
1239.81
1032.65
828.186
688.546
582.184
508.545
447.028
398.737
367.131
344.369
335.184
319.715
5082.09
4830.8
4098.7
2784.28
2261.06
2053.54
1613.94
1368.84
1083.21
912.849
737.674
619.499
525.052
466.227
420.879
386.865
365.357
350.743
344.985
332.8
7516.85
6208.41
4101.86
2756.98
1926.03
1679.55
1331.42
1189.49
973.8
837.721
681.196
581.766
502.715
453.25
415.157
383.109
358.886
341.154
335.163
328.915
8703.34
7257.9
4483.5
3162.54
1638.97
1277.67
894.18
818.451
673.721
621.022
556.496
535.701
506.422
484.231
452.885
419.603
383.001
348.671
324.579
315.497
4616.13
3235.06
2049.59
1484.26
854.59
678.717
588.239
537.206
457.302
382.821
317.374
279.898
258.539
245.671
233.567
216.506
199.427
180.377
169.336
139.932
6972.07
2828.87
2753.83
2015.79
1463.69
1128.27
910.009
755.169
598.194
469.307
379.137
339.977
317.899
302.171
282.895
263.221
247.5
231.641
224.047
210.048
10687.3
6609.13
4431.08
3080.64
2287.45
1889.41
1425.86
1307.72
1043.23
918.38
764.045
743.48
714.655
709.151
692.625
693.278
697.121
712.087
722.548
722.57
11886.5
5379.64
4348.59
3265.51
2300.94
1793.06
1225.8
1027.65
835.632
777.268
720.695
709.678
691.888
685.518
676.701
671.66
668.717
663.587
660.534
653.812
5528.64
6441.76
4801.13
3447.96
2322.64
1623.74
1216.22
975.155
820.172
735.976
676.059
646.925
617.983
603.943
589.314
574.932
562.898
551.127
543.977
535.774
7423.96
7190.62
6281.46
4267.13
2877.76
2077.04
1682.96
1336.22
1115.8
927.711
767.342
669.82
595.207
564.028
534.65
513.876
497.763
488.977
484.793
482.128
4869.52
5521.69
4785.99
3484.8
2930.53
2584.2
2213.08
1942.72
1652.76
1437.17
1135.06
846.407
634.301
546.033
490.584
458.561
440.786
434.45
434.401
438.241
4071.79
5614.3
4381.22
3139.25
2999.87
2670.18
2283.81
2023.41
1757.65
1590.01
1333.96
1024.81
717.752
539.091
467.58
427.258
403.576
395.419
394.288
398.884
12374.5
5851.99
3804.84
3594.37
3417.82
2984.5
2555.73
2129.18
1841.09
1685.51
1535.16
1420.96
1136.31
757.716
539.173
446.619
406.413
387.634
380.477
378.815
6824.25
7589.81
4888.93
3809.69
3082.22
2686.38
2415.24
1873.29
1604.51
1464.12
1414.14
1388.09
1285.19
1043.08
583.875
482.973
434.52
406.603
393.743
383.207
41529.9
12391.5
4749.36
3356.74
2699.63
2293.25
1903.35
1439.57
1198.14
1055.09
950.841
835.014
702.294
571.053
514.406
505.476
478.779
451.892
432.974
408.699
15730.7
11713.3
5128.21
3072.36
2415.61
1979
1630.14
1268.85
1041.98
896.506
485.483
388.436
413.556
423.366
475.53
547.589
533.43
507.829
473.573
424.478
6065.66
9368.77
6088.37
3144.47
2440.76
1962.32
1644.2
1288.76
1073.37
958.205
872.822
765.151
643.863
588.242
573.422
552.446
518.013
476.194
431.964
392.234
12579.5
9090.53
6930.87
4149.82
2832.9
2177.32
1686.46
1284.78
1039.39
885.447
769.054
679.948
611.645
564.364
518.476
470.466
431.081
397.29
374.33
361.131
1648.84
4912.9
5644.3
4627.29
3020.94
2375.74
1734.86
1386.39
1093.15
919.659
791.761
701.871
623.087
554.867
498.286
452.035
415.987
391.091
376.523
365.099
5889.06
7767.17
5997.9
3869.09
2677.94
2392.01
1888.76
1668.57
1314.55
1115.72
927.282
801.785
696.815
612.514
543.015
491.145
455.674
431.87
420.761
404.646
6717.5
7097.24
6352.18
4430.82
3192.22
2808.02
2253.81
1898.72
1502.53
1247.23
1023.63
874.458
757.327
670.714
601.72
551.274
517.083
491.522
479.491
459.312
13545.2
7993.95
5608.95
3652.27
2961.78
2475.32
1971.62
1654.01
1350.03
1152.1
960.928
830.728
724.731
652.074
595.61
556.025
530.329
512.301
503.838
488.056
13052.5
8913.17
5125.31
3321.47
2429.79
2028.3
1649.84
1456.51
1220.27
1069.7
907.004
804.976
714.645
654.279
603.153
565.893
539.33
521.604
514.49
505.224
12759.7
9081.51
5067.45
3495.48
1984.5
1718.87
1277.02
1159.92
963.078
893.93
801.865
761.889
708.956
674.611
632.321
595.676
559.446
528.574
508.505
497.188
2569.99
2803.55
2215.94
1593.81
1051.1
861.373
744.729
648.255
540.415
446.436
375.529
330.375
300.793
276.875
257.279
236.69
219.563
196.219
181.465
153.063
4835.56
4418.15
3447.52
2052.94
1387.38
965.319
781.489
610.632
501.087
429.488
385.988
364.344
346.506
325.085
305.216
284.026
272.671
257.254
249.595
231.563
19972.4
10074.4
5983.1
3630.88
2742.38
1915.79
1535.92
1287.93
1117.46
1039.61
988.555
990.113
979.731
974.752
957.457
955.376
956.752
968.436
974.728
972.88
19417.7
9292.65
6668.63
4000.54
2894.41
1910.32
1445.57
1139.06
1022.1
934.862
920.021
897.7
899.317
890.532
889.378
882.316
879.609
871.093
865.255
853.44
7884.77
10452.1
6279.1
3992.67
2853.14
1841.84
1473.04
1115.12
1002.27
882.646
854.753
813.789
804.925
783.482
772.368
752.495
739.959
724.247
714.633
706.026
7693.85
8161.81
7019.8
4690.72
3512.75
2338.17
1950.74
1402.77
1206.86
978.247
883.227
795.65
760.137
724.204
701.13
676.303
661.823
650.503
644.329
641.819
12791
7181.2
5892.11
4156.62
3740.01
2910.27
2526.63
1967.97
1638.75
1292.31
1046.42
850.168
753.16
692.416
648.121
614.78
599.026
591.353
590.666
594.96
9735.55
7960.31
6071.08
4122.27
3924.77
3120.13
2643.8
2132.67
1809.95
1486.69
1218.22
949.002
773.691
666.773
611.174
572.582
554.523
549.036
549.127
555.69
18248.7
10166.1
5802.57
4613.73
4282.21
3391.11
2925.95
2362.99
1978.21
1751.87
1528.86
1366.09
1068.9
804.849
641.066
574.577
548.198
536.874
533.759
534.249
24106.9
9105.69
6198.78
4438.78
3680.84
3173.91
2825.92
2147.94
1815.03
1611.68
1502.48
1419.64
1236.79
923.128
687.669
610.871
568.541
550.25
544.122
536.9
16231.7
9760.88
5734.37
3894.28
3145.36
2651.51
2241.62
1688.02
1385.39
1182.56
1018.99
871.086
768.555
709.016
691.454
669.034
630.231
598.777
582.555
560.566
16454.3
12948.6
6742.11
3731.21
2919.16
2324.03
1931.72
1506.39
1233.16
1037.13
730.79
605.271
593.128
631.3
696.946
727.585
690.431
643.15
607.348
568.689
12283
10502.5
7078.26
3753.17
2956.86
2341.07
1984.57
1534.5
1270.5
1116.09
990.406
870.302
792.309
760.827
742.27
691.19
644.162
599.565
565.045
541.917
11137
9627.1
8469.77
4976.61
3556.58
2561.96
1973
1477.27
1215.78
1049
936.772
843.529
772.81
711.869
642.339
590.665
555.651
529.776
515.015
513.57
5749.33
8666.82
7557.76
5310.82
3789.76
2735.83
2013.53
1577.96
1281.83
1086.39
961.375
851.819
767.769
689.811
630.253
580.781
547.459
525.538
513.1
510.082
10185.1
10435.6
6754.98
4308.61
3478.51
2770.9
2246.78
1841.75
1490.55
1250.73
1071.11
932.163
829.446
742.182
678.075
629.317
596.789
573.954
560.696
547.35
21536.4
11643.2
7511.81
4806.09
3893.62
3105.46
2548.76
2017.38
1662.81
1366.88
1168.36
1007.01
899.156
807.352
745.371
697.514
666.858
642.322
628.448
609.043
30815
9303.46
6754.32
4028.2
3528.26
2616.86
2221.83
1784.74
1548.61
1307.55
1136
989.619
890.295
809.93
757.58
718.374
695.551
678.092
668.011
654.314
18639.6
12427.7
6699.94
3614.95
2897.68
2168.02
1906.83
1621.82
1441.12
1256.5
1110.97
990.142
901.572
832.278
782.888
745.995
724.501
709.343
702.229
694.688
15632.3
9104.53
4923.35
2908.2
2144.54
1761.09
1464.35
1322.84
1172.78
1102.3
1018.6
960.921
899.508
852.382
807.607
769.512
739.776
717.773
705.036
699.718
1914.21
2337.97
1873.81
1277.78
991.414
848.003
742.183
632.671
528.121
442.016
381.751
335.986
300.81
267.892
242.976
218.928
202.005
183.063
173.207
157.961
4018.53
5365.66
3847.06
1994.42
1202.34
769.713
609.653
485.27
426.169
391.713
369.975
349.39
331.361
311.228
295.216
276.518
258.218
233.494
218.612
197.766
15743.3
12847.9
7743.71
4598.91
3344.59
2049.05
1783.77
1306.45
1302.48
1141.11
1219.95
1170.23
1224.21
1194.23
1204.67
1177.13
1172.25
1158.34
1157.43
1148.01
14198
12495
8693.09
4620.24
3629.5
2035.66
1783.03
1279.57
1254.67
1088.95
1120.91
1052.14
1091.51
1056.27
1077.03
1050.07
1052.62
1030.42
1019.46
1002.09
42436.5
18883
7668.12
5058.71
3378.16
2226.56
1774.36
1314.79
1213.04
1044.16
1033.24
963.049
976.417
934.612
935.817
901.292
892.633
867.643
855.36
849.521
14032.4
8250.96
8043.89
5195.59
4283.55
2563.35
2272.36
1486.27
1356.74
1065.9
1026.46
913.245
916.634
859.602
857.872
819.152
813.309
793.93
786.284
786.542
12944.5
9100.72
6800.98
5180.14
4412.67
3265.37
2802.29
1936.95
1636.58
1206.51
1062.01
902.016
876.105
816.569
795.447
759.43
751.144
739.57
736.457
744.183
18613.3
9561.36
7702.37
5147.91
4939.7
3402.65
3030.48
2140.58
1847.45
1349.16
1148.78
910.941
854.993
769.965
754.599
712.519
709.08
700.502
700.094
709.554
22657
13695.9
7696.09
5781.39
5071.18
3777.12
3165.24
2449.89
2053.55
1687.4
1427.27
1162.74
990.451
858.021
755.267
714.854
696.759
688.365
683.842
688.585
36726.9
10796.4
7481.1
5086.73
4360.61
3515.64
3120.41
2320.45
1952.86
1656.74
1450.45
1252.86
1071.82
918.341
829.617
734.472
705.447
690.795
687.011
686.089
17488.9
10015.2
6519.26
4936.92
3535.92
2919.39
2460.8
1891.26
1537.88
1247.37
1029.47
900.535
887.291
895.569
873.695
789.693
750.031
725.123
714.608
702.3
29525.5
14581.4
8202.68
4601.54
3599.42
2650.59
2178.96
1714.58
1396.35
1130.99
919.595
804.228
819.222
884.012
909.258
851.341
795.587
748.889
724.547
706.611
18751.7
12432.5
7515.5
4446.58
3475.38
2708.04
2308.72
1737.02
1442.32
1243.12
1097.87
996.957
968.455
959.451
921.49
805.155
749.316
710.152
692.636
692.283
28768.9
12181.3
9854.08
5280.41
4457.72
3042.37
2211.81
1650.08
1393.19
1209.65
1109.35
1003.09
939.085
864.712
761.34
708.139
679.212
665.488
660.216
673.84
26369.2
11671.7
9786.17
5450.16
4638.57
2966.36
2285.28
1790.37
1458.74
1241.32
1115.57
976.672
897.329
805.803
752.307
701.402
678.92
661.779
654.748
663.551
22534.9
10698.3
7997.69
4608.7
4401.4
3042.85
2653.45
1939.03
1656.78
1350.84
1199.66
1035.45
946.472
852.179
800.58
754.917
731.411
711.645
695.354
692.355
18862
11001.6
8489.05
4762.24
4688.61
3241.45
2893.12
2068.44
1845.76
1451.33
1309.54
1108.05
1028.8
921.442
878.528
827.353
806.719
781.611
763.759
752.025
28142.8
11582.5
7720.81
4551.87
4280.39
2774.23
2579.69
1878.33
1775.63
1413.16
1300.51
1099.93
1034.61
936.285
902.935
859.328
845.399
826.454
812.871
807.915
31471.1
16754.4
8638.61
4152.3
3704.26
2324.6
2327.65
1767.44
1724.51
1396.64
1312.46
1118.31
1066.75
970.325
942.084
898.897
890.11
874.01
865.117
864.628
22695.3
14370.7
6346.91
2986.29
2873.18
1763.63
1857.9
1444.47
1483.18
1276.07
1253.57
1108.3
1069.53
982.52
956.555
913.986
904.072
889.865
884.112
889.936
2369.72
2779.66
1465.76
1034.77
876.174
737.598
626.5
522.902
448.006
381.293
326.481
273.915
236.699
209.104
192.683
179.254
172.115
163.131
159.216
151.913
977.032
897.199
569.743
1161.59
1050.85
1006.03
692.229
865.319
483.078
365.389
1013.89
902.712
619.83
519.377
565.352
943.868
867.007
1007.45
685.685
1069.9
969.944
386.385
840.741
754.914
620.377
540.669
937.033
839.88
198.244
231.61
158.214
1362.95
1200.95
1122.12
952.555
191.932
160.569
176.081
1133.19
1017.41
912.231
839.345
209.112
178.129
178.333
1006.71
981.196
822.763
782.661
215.256
176.006
164.705
976.327
953.323
770.499
744.774
197.571
167.356
193.601
949.137
934.249
745.361
752.306
200.069
197.423
188.96
929.004
895.339
748.896
704.404
178.634
178.128
157.625
865.367
758.281
684.282
595.323
95.9113
147.726
71.9763
687.292
533.564
547.256
357.578
143.628
205.127
131.645
1025.04
872.54
929.287
785.668
160.606
129.783
132.097
840.933
775.865
746.365
661.792
158.419
131.819
130.773
757.361
708.361
640.511
592.013
151.058
129.381
120.187
693.845
665.188
577.506
500.748
160.348
114.051
88.3336
659.042
624.003
463.594
357.581
137.011
78.2555
56.119
605.703
534.965
329.868
274.864
104.273
51.839
46.3013
508.953
416.068
264.315
248.428
55.0556
46.0004
37.0626
382.067
308.018
245.769
244.292
127.327
198.183
123.519
887.469
773.469
865.578
757.648
128.952
117.974
116.418
737.481
653.065
718.346
638.492
127.471
113.319
107.872
631.12
584.625
616.712
576.428
119.316
110.405
121.796
571.46
499.492
571.204
558.478
91.2325
124.593
130.598
465.134
368.867
553.855
528.252
62.4167
130.411
114.992
343.598
289.799
512.441
433.66
52.7843
103.506
72.5444
278.88
258.263
401.326
338.957
41.7312
68.7666
58.3203
254.498
246.193
330.797
328.199
124.079
294.889
162.212
882.403
760.866
905.258
800.754
109.81
150.991
133.436
717.182
638.969
760.376
670.921
103.138
132.141
119.755
619.922
577.991
636.288
577.659
115.964
116.904
110.732
573.298
568.403
566.591
537.84
135.491
106.885
96.7847
567.5
558.553
520.971
481.013
130.837
91.8193
79.9413
549.006
482.986
463.185
397.165
75.4882
74.3437
61.1054
445.689
351.85
370.23
326.18
58.6428
61.4074
51.3005
339.733
333.523
320.837
319.359
1418.1
1394.78
1138.67
2264.69
1883.68
1926.77
1545.16
1183.89
1080.67
970.039
1770.59
1560.9
1452.12
1264.61
1117.26
945.623
889.519
1521.97
1416.93
1222.3
1124.65
1079.28
874.573
845.131
1398.07
1357.29
1101.52
1055.52
1062.41
843.673
838.719
1354.28
1338.44
1046.72
1009.02
1014.37
830.933
777.515
1331.75
1274.42
989.965
905.391
869.346
755.638
650.824
1237.9
1105.24
872.342
719.737
615.705
595.573
396.144
1025.64
722.333
656.495
510.515
1047.53
1142.61
937.468
1780.62
1434.03
1564.65
1273.09
898.556
885.978
772.284
1352.94
1176.38
1198.46
1028.08
807.945
744.243
678.907
1132.78
1029.32
985.161
878.787
752.582
660.216
555.345
1003.61
935.373
849.009
610.821
694.238
508.855
389.705
912.621
836.569
533.44
394.8
596.146
362.342
313.991
808.829
713.217
382.085
386.958
466.684
305.6
292.967
680.175
571.376
390.273
397.325
351.416
290.868
280.554
539.663
481.755
399.099
398.629
925.692
1078.22
915.039
1525.23
1263.1
1505.29
1267.58
763.886
864.839
758.052
1190.01
1021.05
1195.79
1035.62
672.369
731.074
678.391
978.788
874.29
996.715
910.777
555.233
668.193
640.474
846.205
614.634
888.372
821.868
403.839
630.949
590.328
544.021
421.002
799.072
721.595
327.724
569.805
482.215
404.267
392.09
691.487
598.886
298.639
450.729
394.611
391.044
388.575
575.106
532.999
279.434
386.49
375.97
388.788
389.201
524.793
510.66
921.265
1174.52
968.588
1536.81
1277.35
1602.49
1305.16
763.205
912.296
795.636
1205.01
1045.64
1223.81
1053.92
684.291
752.306
678.415
1006.2
921.999
997.053
897.393
656.957
664.318
624.404
902.343
848.85
875.861
811.533
626.58
604.37
557.469
830.584
763.576
785.27
718.474
529.597
535.56
462.803
735.197
635.941
691.029
610.472
409.878
435.419
391.459
606.712
554.731
586.682
544.509
383.613
384.392
369.771
544.885
522.968
533.787
505.441
1991.48
2057.62
1642.61
2740.47
2223.8
2342.75
1858.47
1650.72
1542.21
1338.14
2095.69
1839.98
1744.07
1504.4
1485.1
1291.3
1181.75
1777.29
1618.77
1445.74
1301.18
1418.85
1155.83
1102.32
1590.22
1517.06
1265.04
1178.29
1395.11
1090.29
1040.56
1502.37
1457.39
1152.87
1063.17
1325.12
1017.38
921.245
1441.49
1339.1
1029.84
916.613
1137.4
884.03
725.218
1282.25
1069.86
877.087
750.185
713.131
666.499
542.428
956.209
721.69
716.756
651.48
1528.1
1668.67
1356.67
2174.29
1739.84
1899.83
1551.79
1246.29
1277.18
1094.41
1636.98
1406.62
1462.76
1252.44
1083.84
1047.79
930.701
1347.45
1200.53
1196.33
1052.03
977.8
1029.07
973.27
1098.39
938.897
1069.37
1015.53
783.883
922.825
800.995
980.808
756.481
949.377
829.587
735.611
370.241
408.802
869.152
777.521
515.023
532.365
598.97
416.866
432.377
751.567
685.877
540.959
568.797
517.968
436.106
437.909
671.185
640.789
577.574
596.692
1347.11
1615.14
1356.39
1868.33
1543.65
1876.06
1566.66
1087.86
1279.51
1106.82
1455.66
1247.68
1476.95
1274.39
927.298
1064.75
969.518
1192.71
1051.56
1224.27
1104.09
901.619
797.049
907.154
931.078
860.69
724.077
954.732
685.489
432.021
697.421
415.336
654.85
376.443
727.676
409.696
723.375
634.619
531.17
533.985
809.656
740.786
420.499
613.449
574.916
539.007
561.935
726.765
701.992
428.353
567.011
550.336
571.185
594.787
697.222
686.709
1366.11
1714.75
1387.6
1907.56
1574.44
1974.97
1570.11
1116.28
1300.28
1118.19
1483.22
1279.16
1468.7
1263.16
980.935
1058.15
953.821
1229.08
1115.1
1200.32
1084.27
894.793
930.151
858.36
1084.41
996.178
1054.47
969.058
795.773
830.181
759.177
966.596
874.913
939.012
862.555
669.259
730.635
652.972
844.748
771.064
835.425
768.431
597.82
630.424
588.716
754.948
724.016
750.005
709.674
563.471
577.268
543.444
716.689
695.002
696.638
657.046
2279.88
2413.69
1912.76
3042.59
2414.46
2585.85
2059.69
1883.06
1795.61
1546.8
2272.98
1989.34
1937.59
1664.66
1644.41
1484.34
1326.75
1912.2
1695.64
1590.39
1386.05
1523.01
1285.96
1184.13
1643
1500.05
1327.64
1176.24
1442.14
1153.69
1052.18
1460.11
1333.56
1131.82
1009.89
1298.31
1017.37
907.959
1289.54
1144.34
979.269
912.252
1021.63
872.623
768.468
1093.06
948.064
897.233
860.579
734.329
743.153
689.126
899.908
804.344
851.399
817.77
1794.16
1960.4
1604.29
2404.39
1943.39
2122.89
1754.69
1448.34
1513.19
1295.31
1831.79
1566.6
1658.84
1419.17
1226.22
1236.07
1079.91
1492.11
1286.87
1348.82
1152.83
1059.35
1033.89
781.91
1226.7
1067.09
1092.33
908.636
903.765
714.34
600.516
1020.46
906.529
856.63
753.122
789.529
585.41
584.416
882.568
848.011
736.552
735.773
719.504
592.005
623.739
845.639
843.441
750.245
801.36
682.756
634.033
653.465
841.964
823.432
813.607
827.072
1596.68
1951.56
1623.93
2107.72
1748.78
2173.77
1784.92
1291.26
1530.41
1319.43
1653.64
1417.39
1681.1
1449.17
1081.26
1266.89
1138.33
1348.81
1159.61
1389.63
1232.8
791.623
1101.23
995.215
1101.07
926.445
1186.79
1066.86
627.588
961.259
864.923
878.107
778.657
1032.34
944.825
589.433
836.635
776.26
757.973
746.638
923.483
892.844
620.553
764.916
746.815
757.867
805.61
891.602
895.157
654.022
743.655
733.253
818.117
833.684
895.264
884.17
1630.39
2053.74
1617.16
2217.55
1786.63
2276.2
1739.26
1322.58
1511.57
1302.33
1678.93
1448.35
1625.67
1415.65
1149.56
1238.99
1120.4
1391.57
1246.59
1355.34
1223.11
1021.44
1088.35
1000.51
1205.09
1095.71
1186.23
1097.66
898.724
970.22
894.491
1063.44
978.661
1069.91
994.317
805.721
868.011
805.204
957.256
921.607
970.387
920.116
767.056
787.836
748.549
916.716
907.87
906.141
869.846
739.306
735.3
693.46
904.05
881.489
855.106
811.417
2467.91
2644.96
2120.46
3413.36
2734.38
2888.79
2393.54
2032.61
1996.65
1714.94
2554.73
2243.98
2268.26
1963.52
1718.68
1636.21
1413.05
2154.47
1894.12
1875.09
1615.93
1497.43
1347.69
1180.35
1796.11
1610.24
1534.56
1336.56
1302.09
1132.46
1009.82
1547.51
1379.63
1283.55
1172.32
1115.16
983.03
935.565
1329.9
1223.94
1155.16
1150.34
955.002
927.203
906.243
1202.05
1129.94
1152.47
1146.96
840.023
899.618
865.23
1107.99
1037.29
1140.7
1090.38
2004.84
2188.68
1817.27
2748.87
2284.9
2510.85
2106.72
1617.2
1719.44
1470.9
2169.13
1871.05
2003.9
1730.08
1313.78
1395.5
1183.92
1782.24
1523.38
1646.45
1407.21
1077.09
1119.97
945.417
1443.55
1253.59
1337.08
1173.43
920.276
897.204
798.208
1205.49
1112.22
1131.06
1039.67
883.798
783.145
791.317
1100.88
1118.46
1028.02
1056.03
895.848
810.454
866.496
1132.73
1147.08
1085.7
1138.88
873.298
877.923
883.11
1144.32
1095.99
1143.74
1113.91
1812.09
2261.73
1849.1
2513.07
2099.09
2587.83
2129.01
1469.76
1742.03
1502.92
1996.86
1728.56
2018.7
1762.74
1192.63
1440.51
1271.92
1647.71
1418.22
1693.23
1503.97
964.993
1222.84
1099.25
1351.51
1193.85
1449.4
1316.45
823.017
1065.09
980.772
1152.72
1059.25
1282.24
1200.05
802.958
961.823
941.905
1045.24
1065.81
1184.28
1183.39
872.42
944.391
953.031
1094.56
1146.41
1194.12
1202.65
891.602
953.222
937.536
1151.49
1123.49
1200.82
1162.73
1848.76
2362.09
1788.86
2657.8
2127.6
2691.97
2064.49
1501.14
1673.52
1465.02
2012.5
1761.78
1951.79
1723.51
1287.57
1405.65
1267.7
1696.97
1522.83
1666.68
1505.73
1130.1
1229.6
1141.82
1473.99
1350.34
1476.78
1371.35
1016.11
1114.93
1037.97
1317.65
1237.37
1354.77
1261.88
970.839
1014.79
967.758
1221.55
1212.3
1251.68
1194.35
963.363
954.788
917.944
1213.67
1207.63
1190.72
1142.11
932.898
902.724
857.178
1202.34
1157.79
1131.91
1063.38
930.753
1003.8
847.472
1010.52
896.106
1040.82
878.135
892.753
918.541
809.903
933.401
861.488
960.253
775.673
787.513
690.234
684.054
447.8
778.435
688.336
574.836
1010.91
1133.78
1125.06
1079.49
1101.39
1051.09
1036.38
960.992
1035.13
1088.75
928.476
1069.15
905.868
984.614
930.256
967.627
1029.29
919.755
997.614
806.545
968.351
825.308
498.389
794.153
798.319
729.329
613.551
880.245
744.452
895.164
686.482
885.282
718.611
918.251
711.303
561.235
616.939
410.359
370.714
555.229
618.017
310.124
525.314
496.581
374.377
342.154
514.754
517.27
311.321
809.262
1001.73
976.128
877.123
966.97
855.642
830.611
768.575
897.22
939.597
755.818
932.674
734.376
790.309
610.084
431.512
727.991
570.927
662.731
387.478
676.259
570.158
398.775
616.561
541.919
559.115
378.108
638.386
836.199
672.056
746.229
476.592
802.387
573.543
777.234
937.997
924.942
918.565
992.255
893.183
972.38
964.065
899.829
821.953
892.982
906.57
857.827
861.368
935.522
942.632
965.259
906.508
1028.16
758.497
995.423
976.642
876.416
516.453
781.957
858.063
607.934
817.76
914.765
977.222
1034.06
1048.08
1036.55
1013.36
1003.25
1009.67
937.345
940.824
927.463
1003.34
897.116
972.229
968.669
652.868
397.877
588.504
367.673
619.486
370.002
621.653
788.892
787.135
813.51
877.436
753.347
824.353
847.637
755.612
689.172
785.213
785.431
721.14
722.58
817.206
726.335
460.43
577.363
809.104
427.173
768.407
766.343
693.409
424.769
548.828
700.722
417.873
661.611
731.213
822.11
909.474
888.348
904.262
858.67
877.812
851.387
787.904
813.639
784.123
871.918
754.505
846.004
816.935
441.537
583.36
459.062
1078.13
1106.1
1127.58
1116.71
367.488
389.18
363.378
1080.95
1061.56
1042.72
1000.78
351.148
359.627
358.39
1036.97
1007.55
980.917
957.862
340.756
354.718
345.078
983.295
963.973
934.639
914.791
309.408
331.167
323.022
918.183
853.648
889.926
863.636
254.762
312.604
294.602
773.649
665.684
825.276
761.722
180.325
266.273
223.943
531.17
373.737
657.911
550.605
89.9578
193.425
140.705
241.819
227.765
408.156
337.998
484.903
475.412
409.115
1095.93
1172.94
1031.91
1065.7
551.548
268.62
293.43
580.549
603.633
522.594
235.084
541.343
189.087
184.172
599.246
589.089
545.12
184.743
553.031
199.759
197.957
587.601
592.932
547.47
202.299
568.534
216.504
215.59
605.291
605.281
568.953
215.568
535.571
207.67
203.667
592.611
582.581
547.279
195.476
566.406
197.52
206.105
564.934
562.97
552.809
216.862
546.875
193.098
217.954
538.665
519.136
559.998
211.466
455.062
141.512
196.843
401.018
339.939
488.71
177.951
98.0353
126.664
83.2419
324.186
274.653
283.353
270.769
380.421
443.767
368.44
1018.62
992.204
969.708
933.368
395.935
167.613
212.513
409.196
409.795
399.33
164.922
414.249
152.627
140.136
430.047
440.406
406.986
144.722
402.138
161.048
149.396
443.078
438.173
409.617
147.858
375.587
150.327
141.515
416.486
408.043
381.024
140.133
344.216
160.368
135.821
409.887
413.18
356.583
131.696
268.827
150.132
110.237
396.575
381.135
288.685
102.493
210.418
119.649
86.3379
329.107
307.392
222.314
82.3789
167.81
84.6335
69.343
243.103
219.613
178.751
62.5167
80.035
86.9604
72.3613
242.077
257.382
215.033
227.4
344.367
407.164
333.145
838.951
829.102
813.334
807.427
370.46
154.897
195.23
364.018
372.626
356.876
155.563
371.91
128.24
127.802
373.482
372.888
373.571
128.229
345.504
127.59
125.44
356.779
352.193
351.925
124.243
332.511
125.443
123.074
340.744
335.137
335.59
122.966
296.675
107.293
118.279
296.646
277.654
309.645
114.045
228.985
74.9862
94.6285
217.323
198.501
246.718
86.9072
170.112
55.28
68.4585
154.07
145.088
180.954
64.701
153.629
52.8186
60.4835
135.037
134.97
155.449
60.3772
79.1218
120.941
108.046
229.116
240.244
279.492
308.688
339.36
463.075
407.537
835.555
834.086
835.797
791.317
377.479
165.322
218.689
360.078
361.415
379.782
176.81
326.597
110.424
116.963
333.403
326.321
333.741
110.433
322.814
107.142
110.681
319.606
309.975
326.04
110.647
310.702
106.53
106.836
299.579
306.52
309.109
107.261
330.868
125.149
114.994
331.444
338.899
325.491
117.584
347.039
136.826
129.709
351.847
350.009
347.376
129.767
276.766
104.413
120.332
304.196
268.125
312.761
106.706
177.286
67.8004
67.7649
184.323
181.391
181.453
65.7022
112.016
118.046
103.312
296.228
318.197
278.266
290.142
270.901
380.486
283.071
696.835
690.129
722.819
709.26
220.707
265.68
232.993
654.402
599.28
622.557
542.414
179.757
199.293
165.872
537.779
497.66
468.867
424.989
146.331
141.214
123.943
454.465
409.12
358.253
313.77
118.915
108.348
94.2026
365.504
337.579
273.65
253.75
95.8804
91.6506
88.1657