/*--------------------------------*- C++ -*----------------------------------*\
  =========                 |
  \\      /  F ield         | OpenFOAM: The Open Source CFD Toolbox
   \\    /   O peration     | Website:  https://openfoam.org
    \\  /    A nd           | Version:  10
     \\/     M anipulation  |
\*---------------------------------------------------------------------------*/
FoamFile
{
    format      ascii;
    class       volScalarField;
    location    "10";
    object      k_0;
}
// * * * * * * * * * * * * * * * * * * * * * * * * * * * * * * * * * * * * * //

dimensions      [0 2 -2 0 0 0 0];

internalField   nonuniform List<scalar> 
12920
(
679.33
1125.65
1055.45
892.033
740.147
634.577
477.665
393.151
331.55
272.779
210.299
160.629
129.151
110.342
98.9752
91.3258
86.3424
82.6976
81.3283
78.1585
1062.53
1170.35
1054
900.926
755.613
723.56
615.711
552.446
446.155
348.369
253.368
190.033
160.46
151.925
150.193
150.943
152.845
156.08
160.166
162.88
737.54
780.355
563.365
587.454
615.431
585.643
443.413
325.956
241.237
209.481
177.831
167.729
158.191
155.553
154.873
154.684
154.869
154.033
153.257
150.563
701.992
1508.7
1330.96
954.825
649.025
480.736
352.52
280.058
225.382
192.13
165.034
150.319
139.021
132.542
128.443
125.585
123.871
120.884
119.909
117.882
964.183
2376.61
2340.54
1554.67
879.629
593.396
502.551
417.783
379.476
312.947
252.869
196.59
156.91
132.367
119.7
113.203
109.444
106.958
106.296
105.745
1310.79
1225.82
1181.75
902.583
756.705
726.966
664.616
632.458
591.537
567.779
509.726
375.059
243.075
155.895
118.251
104.415
98.2297
95.2948
94.9296
95.7918
4721.24
1348.66
835.423
731.228
734.305
716.816
657.269
608.973
567.134
532.616
482.283
387.875
262.009
161.16
119.062
102.563
94.4166
88.916
86.2671
85.4894
4988.76
3575.26
1677.07
1033.07
935.696
910.551
577.528
382.852
360.992
346.864
328.223
282.139
225.923
142.323
153.6
128.622
114.203
99.8241
91.3622
83.308
9984.29
4338.98
2429.61
1415.64
982.528
500.494
366.025
192.69
196.165
215.088
213.191
197.337
198.768
164.106
145.088
152.157
132.694
114.76
104.686
89.5139
4580.78
2212.28
1400.44
1133.55
874.432
454.666
216.373
146.602
161.791
154.612
156.504
157.042
128.987
97.0286
101.974
143.515
126.741
115.564
110.271
97.9082
3947.09
2567.43
1170.42
877.906
754.01
443.159
198.394
127.275
127.94
127.036
114.202
82.9093
58.4717
52.9048
101.363
170.281
153.192
137.14
128.057
107.143
2956.1
2650.01
1753.22
1013.27
753.277
392.838
208.903
115.05
109.69
103.835
120.588
137.334
120.389
69.4781
126.644
184.029
166.264
145.425
125.118
96.6335
2789.12
2119.64
1913.07
1242.86
883.872
690.943
353.71
242.056
197.662
162.755
130.576
106.061
91.5813
92.7492
155.567
136.545
121.445
105.669
93.015
80.7988
688.602
2010.02
2080.15
1607.52
997.656
716.254
515.329
401.731
302.725
249.149
207.073
182.879
161.664
143.123
126.935
113.036
101.88
92.9484
89.1289
82.6108
47.071
997.634
1735.92
1557.55
921.992
657.781
513.914
456.849
373.291
330.351
275.043
233.303
196.544
168.096
142.636
122.815
108.962
100.205
97.5121
93.921
1035.09
2350.93
2378.38
1559.14
907.172
752.155
661.771
597.73
482.17
402.371
320.183
260.346
215.181
185.535
160.778
141.211
128.127
117.378
113.31
107.225
1099.03
2096.8
1665.57
1073.87
887.398
829.156
668.562
551.499
430.797
353.371
281.816
228.216
188.707
163.995
146.882
133.95
126.13
119.192
116.377
110.459
3457.4
2634.61
1756.12
1147
809.527
703.16
563.937
487.347
395.282
328.477
259.924
209.45
176.059
155.492
141.664
128.911
120.217
112.933
110.372
106.385
3306.47
4109.42
2734.77
1399.2
781.51
552.842
427.691
365.36
303.831
256.451
215.601
190.477
175.22
165.379
152.003
136.242
121.962
109.418
101.378
98.4401
606.546
871.468
830.805
744.744
489.921
351.67
290.225
257.214
220.935
186.064
154.802
132.689
118.369
108.551
101.957
92.0122
84.7068
74.9617
69.9119
57.5954
4564.67
1924.91
1738.61
1715.71
1382.31
1111.31
912.426
781.91
618.618
471.481
345.013
276.044
241.252
225.099
210.082
197.264
185.849
177.569
175.75
171.85
5050.32
4250.55
2821.75
2341.95
1792.54
1654.79
1285.47
1206.73
987.304
778.608
529.084
458.442
443.706
449.061
448.926
450.435
453.841
463.933
472.96
478.414
13993.3
5973.94
1751.64
1732.26
1544
1412.68
955.356
819.219
627.603
573.554
505.185
488.891
469.828
464.522
458.887
454.337
453.227
450.106
449.112
446.406
1661.98
4017.85
3513.38
2503.46
1635.98
1219.76
889.123
747.079
608.251
538.726
471.143
440.963
407.381
399.94
393.478
385.112
377.753
368.862
365.119
359.213
3706.2
5351.91
4982.87
3588.61
2160.2
1571.33
1300.87
1098.45
948.286
803.67
643.914
512.379
402.544
371.187
355.024
343.91
332.924
326.709
325.464
324.483
3509.48
3615.25
3294.91
2465.62
1982.09
1932.31
1741.03
1653.53
1483.56
1399.27
1200.47
860.239
500.064
354.761
316.195
300.482
288.712
284.71
285.279
290.109
5312.19
3388.09
2855.35
1966.43
1968.79
1897.59
1716.39
1605.73
1470.58
1402.35
1248.76
963.124
600.581
362.691
306.132
282.345
266.274
257.95
255.684
257.921
7908.72
3798.53
2403.16
2536.96
2486.11
2322.6
1876.53
1579.27
1433.75
1326.14
1238.69
1105.85
859.998
495.512
408.756
321.065
285.378
262.382
251.42
244.74
8180.8
6912.84
3799.39
3015.12
2359.97
1922.67
1685.51
1334.81
1167.54
1111.07
1078.56
1059.06
983.669
801.254
466.918
355.126
316.15
286.837
271.586
254.762
7356.3
6569.84
3579.79
2653.58
2089.71
1668.74
1275.06
1000.91
873.844
792.172
743.333
674.447
567.648
429.325
347.23
342.416
327.252
315.795
304.931
280.561
2857.64
6890.19
3395.13
2248.04
1777.08
1418.17
1102.1
878.424
736.678
655.574
512.969
378.737
318.531
295.353
314.384
379.061
369.401
362.844
348.354
304.14
9784.9
7386.85
4424.27
2368.41
1838.88
1401.67
1106.9
868.802
738.698
676.733
652.644
612.197
490.786
399.354
403.745
409.038
387.935
357.205
314.751
266.077
7885.66
7158.3
5155.76
3018.09
2104.89
1676.14
1210.56
944.712
760.742
637.514
533.069
456.741
401.61
382.244
379.65
344.714
311.615
278.701
253.639
234.642
3543.64
5176.7
4785.37
3391.12
2138.06
1777.71
1328.6
1063.63
814.395
670.843
562.243
496.582
439.786
390.495
349.889
317.518
289.082
267.208
255.379
242.011
653.467
4376.13
4373.81
3250.19
1841.89
1656.59
1355.59
1272.84
1022.95
875.191
718.812
616.684
528.389
457.582
392.352
343.842
312.989
294.68
287.719
276.453
2049.01
5067
4782.03
3348.59
2267.57
2097.89
1775.19
1563.76
1240.61
1032.87
828.38
688.692
582.367
508.679
447.098
398.802
367.214
344.455
335.287
319.797
5406.6
4862.59
4113.01
2790.24
2270.01
2059.07
1617.13
1370.44
1084.13
913.271
737.866
619.461
525.115
466.273
420.931
386.931
365.455
350.841
345.085
332.866
7686.91
6236.45
4117.92
2764.29
1930.58
1683.06
1334.2
1191.25
974.75
837.91
681.062
581.459
502.58
453.157
415.088
383.056
358.864
341.173
335.219
328.956
8987.59
7380.78
4531.83
3168.66
1638.51
1277.7
895.451
819.388
674.386
621.339
556.782
535.864
506.509
484.187
452.764
419.369
382.736
348.448
324.492
315.479
4666.06
3190.45
2044.3
1481.39
852.725
679.971
590.287
538.612
457.99
383.025
317.487
280.109
258.853
245.979
233.817
216.67
199.545
180.5
169.418
139.87
6473.42
2853.38
2775.17
2022.45
1466.88
1130.66
911.622
756.061
598.297
469.217
379.326
340.487
318.46
302.596
283.182
263.417
247.67
231.772
224.177
210.177
10196.8
6592.89
4452.77
3087.91
2292.24
1893.73
1428.86
1310.16
1044.57
918.881
764.768
744.194
715.297
709.594
693.023
693.672
697.55
712.534
722.884
722.797
11850.4
5284.5
4377.85
3263.81
2299.94
1790.37
1225.38
1027.6
836.314
777.882
721.483
710.387
692.58
686.09
677.242
672.116
669.138
663.926
660.856
654.079
5283.46
6399.22
4819.53
3462.37
2326.46
1626.41
1217.63
976.266
820.967
736.7
676.686
647.537
618.528
604.407
589.697
575.228
563.14
551.321
544.174
535.959
7323.5
7255.72
6333.49
4279.67
2880.81
2080.66
1686.21
1338.55
1117.1
928.263
767.519
670.037
595.563
564.359
534.922
514.066
497.96
489.152
484.977
482.301
4658.01
5580.92
4796.29
3490.35
2939.73
2593.16
2218.92
1947.95
1656.31
1439.03
1135.02
845.6
634.032
546.158
490.685
458.667
440.915
434.59
434.562
438.421
4108.96
5628.21
4384.54
3150.03
3008.56
2676.32
2288.28
2028.01
1761.11
1592.35
1334.64
1023.79
716.643
538.881
467.547
427.237
403.609
395.474
394.381
399.011
12166.1
5841.02
3801.11
3616.11
3433.74
2995.87
2563.19
2134.6
1845.34
1689.35
1538.19
1423.16
1136.01
756.053
538.36
446.357
406.279
387.564
380.463
378.838
7075.91
7656.28
4884.27
3826.54
3089.75
2688.77
2419.7
1876.63
1607.85
1467.38
1417.66
1391.02
1286.73
1041.75
582.751
482.733
434.334
406.439
393.631
383.119
41544.3
11857.3
4753.98
3373
2708.76
2298.68
1902.17
1441.73
1200.18
1057.03
952.695
835.671
701.742
570.499
514.482
505.332
478.585
451.644
432.759
408.506
16525.1
11797.5
5124.64
3085.58
2422.15
1984.81
1634.71
1271.05
1043.58
898.308
486.721
388.828
413.799
423.52
475.672
547.666
533.451
507.659
473.328
424.217
5966.17
9375.21
6137.68
3159.22
2446.76
1965.1
1647.28
1291.08
1075.37
959.978
874.265
765.875
644.421
588.944
573.914
552.704
518.123
476.102
431.77
392.071
12230.4
9153.35
6986.35
4169.9
2837.11
2180.69
1689.62
1287.33
1041.05
886.79
770.034
680.727
612.394
564.906
518.774
470.608
431.099
397.234
374.277
361.11
1450.87
4931
5674.41
4637.22
3022.54
2378.5
1737.24
1387.41
1094.08
920.417
792.505
702.507
623.585
555.192
498.483
452.137
416.036
391.122
376.563
365.137
5789.7
7854.31
6036.59
3870.06
2680.62
2395.71
1891.71
1669.95
1315.65
1116.4
927.946
802.264
697.19
612.752
543.178
491.274
455.786
431.966
420.884
404.726
6300.39
7132.56
6371.74
4426.51
3196.54
2813.88
2258.13
1900.92
1503.92
1248.03
1024.3
874.93
757.726
670.989
601.919
551.455
517.243
491.65
479.639
459.402
14595.6
8017.87
5620.59
3660.86
2970.44
2481.41
1975.27
1656.37
1351.59
1153.01
961.537
831.049
725.012
652.253
595.782
556.194
530.498
512.441
503.984
488.135
13376.3
8909.78
5123.9
3325.74
2434.85
2032.36
1652.94
1458.55
1221.52
1070.25
907.284
805.053
714.726
654.28
603.179
565.932
539.389
521.674
514.587
505.282
12766.1
9149.66
5096.32
3500.45
1986.92
1721.66
1279.25
1161
963.831
894.311
802.247
762.103
709.092
674.603
632.248
595.512
559.269
528.408
508.431
497.127
2483.52
2791.19
2210.22
1593.7
1051.55
863.406
746.712
649.435
540.878
446.577
375.674
330.609
301.066
277.127
257.497
236.862
219.672
196.266
181.442
153.036
4704.45
4454.04
3472.21
2060.35
1389.36
966.71
782.146
611.174
501.247
429.839
386.541
364.955
347.023
325.448
305.479
284.236
272.88
257.419
249.74
231.649
20863.6
10083
6004.38
3636.96
2746.63
1918.85
1538.14
1290.03
1119.03
1041.42
990.302
991.731
981.111
975.882
958.472
956.405
957.803
969.484
975.736
973.632
19736.4
9220.33
6709.95
4000.93
2892.61
1908.71
1445.58
1139.72
1023.3
936.137
921.362
899.043
900.54
891.722
890.461
883.341
880.571
871.951
866.12
854.204
7212.1
10252.5
6309.16
4001.33
2859.29
1844.91
1475.06
1116.74
1003.57
883.982
855.938
815.03
806.016
784.498
773.224
753.257
740.639
724.866
715.262
706.619
7724.18
8182.57
7060.26
4706.35
3519.13
2342.65
1953.76
1404.77
1208
979.249
884.115
796.65
761.032
725.049
701.806
676.923
662.409
651.053
644.894
642.356
13102
7209.54
5913.72
4166.4
3754.25
2921.02
2533.29
1973.16
1641.53
1293.76
1046.89
850.766
753.836
693.065
648.612
615.25
599.49
591.81
591.161
595.449
10395.4
8047.04
6097.73
4136.41
3935.23
3127.6
2648
2137
1812.47
1488.1
1218.58
948.945
773.851
667.145
611.491
572.896
554.851
549.381
549.519
556.09
17832
10095.6
5805.62
4639.12
4300.72
3404.49
2934.64
2368.89
1981.72
1755.07
1530.91
1367.72
1068.42
804.498
640.997
574.653
548.334
537.052
534.019
534.514
22168.8
9084.04
6214.53
4457.81
3686.08
3177.6
2832.09
2151.79
1818.27
1614.39
1505.29
1421.65
1237.06
921.519
687.543
610.988
568.624
550.342
544.288
537.059
15945.9
9734.03
5745.45
3909.98
3157.64
2656.42
2241.49
1690.55
1387.51
1184.43
1020.51
871.625
768.668
709.53
692.009
669.255
630.31
598.786
582.643
560.635
17110.1
13113.6
6777.5
3748.51
2924.22
2329.94
1936.44
1508.99
1235.13
1039.01
732.821
606.303
593.717
631.87
697.553
728.026
690.675
643.183
607.394
568.722
11245.3
10547.1
7145.99
3770.38
2965.18
2344.49
1988.96
1537.65
1273
1118.2
992.033
871.502
793.503
761.869
743.093
691.721
644.466
599.68
565.156
542.05
11388.1
9653.9
8541.72
5015.28
3562.39
2567.01
1977.3
1480.01
1217.99
1050.72
938.209
844.789
773.888
712.683
642.915
591.025
555.89
529.955
515.224
513.812
5116.13
8707.09
7588.04
5331.1
3796.01
2741.13
2016.99
1579.59
1283.49
1087.72
962.674
852.924
768.655
690.486
630.754
581.168
547.773
525.814
513.387
510.364
10879.7
10549.3
6767.51
4314.35
3484.14
2775.58
2249.31
1843.65
1492.26
1252.05
1072.32
933.157
830.265
742.856
678.632
629.791
597.205
574.325
561.089
547.663
21816
11728.5
7510.93
4806.36
3899.85
3111.98
2552.71
2020.05
1664.64
1368.3
1169.55
1008.01
899.984
808.051
745.977
698.077
667.362
642.769
628.922
609.404
29125.3
9320.42
6767.57
4041.44
3535.77
2622.93
2224.86
1787.56
1550.57
1309.04
1137.09
990.482
891.021
810.553
758.16
718.933
696.076
678.565
668.502
654.693
18519.9
12535.7
6718.92
3622.96
2902.34
2172.15
1909.33
1624.03
1442.57
1257.57
1111.71
990.736
902.052
832.706
783.328
746.441
724.945
709.775
702.698
695.062
16096.4
9135.55
4925.95
2912.12
2148.23
1763.94
1466.29
1323.98
1173.7
1103.1
1019.31
961.454
899.904
852.69
807.833
769.688
739.939
717.949
705.275
699.906
1871.31
2331.67
1871.29
1276.68
992.501
850.016
743.787
633.498
528.469
442.24
381.997
336.216
300.992
268.024
243.073
218.995
202.045
183.083
173.221
157.987
3962.16
5392.08
3878.62
2001.23
1203.83
770.452
610.143
485.776
426.696
392.285
370.499
349.842
331.694
311.488
295.412
276.645
258.25
233.466
218.572
197.708
16248.1
13017.7
7740.36
4618.45
3344.57
2053.14
1788.55
1311.16
1308.73
1146.84
1226.58
1176.49
1230.65
1200.45
1210.82
1183.08
1178.15
1164.2
1163.35
1153.57
14352.4
12561.5
8720.59
4631.07
3623.17
2038.53
1786.08
1283.01
1259.96
1092.58
1126.12
1056.21
1096.61
1060.92
1082.1
1054.84
1057.49
1035.1
1024.09
1006.5
44261.7
18205.1
7598.78
5061.08
3386.67
2227.82
1782.79
1315.82
1218.99
1046.28
1037.89
966.211
980.78
938.44
939.979
905.127
896.502
871.322
858.957
853.088
13468.2
8212.46
8108.11
5213.67
4300.96
2569.69
2281.33
1489.69
1362.59
1068.48
1031
915.982
920.527
862.896
861.596
822.548
816.818
797.301
789.591
789.881
13518.7
9145.05
6790.67
5193.11
4428.22
3269.58
2817.41
1941.86
1643.99
1209.42
1066.17
904.467
879.577
819.814
798.881
762.618
754.356
742.697
739.53
747.361
18458.1
9528.41
7743.68
5156.89
4962.37
3413.65
3046.05
2146.23
1855.26
1352.53
1152.88
913.257
858.213
772.775
757.82
715.428
712.106
703.461
703.031
712.608
23358.9
13749.2
7710.04
5794.12
5097.36
3771.92
3178.17
2457.9
2059.24
1691.43
1429.71
1164.38
991.684
859.353
758.495
717.961
699.763
691.341
686.759
691.559
39032.4
10711.9
7533.24
5072.21
4384.35
3522.75
3128.62
2324.34
1955.88
1658.9
1451.83
1253.55
1072.05
919.038
831.104
737.683
708.522
693.761
689.968
689.051
16884.5
10034.4
6556.74
4925.61
3557.67
2923.36
2462.08
1893.69
1539.82
1248.93
1030.64
901.509
888.457
896.996
875.431
793.231
753.307
728.248
717.723
705.319
28062.1
14815.8
8329.38
4589.41
3628.72
2656.19
2182.52
1717.04
1398.58
1133.1
921.709
805.968
820.379
885.295
911.047
855.273
799.088
752.097
727.683
709.637
18529.1
12448.5
7599.71
4431.88
3499.98
2711.16
2314.34
1740.42
1445
1245.47
1099.78
998.674
970.07
961.008
923.342
808.745
752.534
713.152
695.549
695.288
27992.1
12230.7
10039.6
5270.15
4493.22
3045.57
2219.06
1652.45
1396.2
1211.52
1111.51
1004.91
940.846
866.19
764.481
711.07
682.003
668.268
662.945
676.773
27358.2
11843.9
9906.18
5477.52
4674.23
2969.11
2299.11
1792.85
1465.38
1244.71
1120.32
980.148
901.048
808.948
755.418
704.211
681.7
664.491
657.393
666.358
21604
10791.6
8073.31
4603.7
4433.99
3047.01
2669.01
1944.2
1664.59
1355.16
1204.69
1039.19
950.349
855.531
803.873
758.006
734.457
714.64
698.212
695.251
18679.7
10979.5
8542
4765.33
4718.9
3253.19
2910.42
2075.27
1855.19
1456.51
1315.56
1112.31
1033.34
925.201
882.348
830.841
810.204
784.973
767.024
755.207
28056.7
11574.5
7766.77
4542.31
4304.14
2776.58
2592.4
1883.5
1784.21
1418.38
1306.43
1104.2
1039.14
940.113
906.859
862.966
849.067
830.049
816.376
811.408
31317.4
17002.4
8681.77
4153.94
3724.2
2327.66
2338.43
1773.87
1732.59
1402.41
1318.46
1122.93
1071.53
974.463
946.308
902.836
894.114
877.958
868.998
868.491
22274
14581.1
6358.95
2985.21
2885.07
1768.43
1864.73
1450.73
1489.49
1282.21
1259.38
1113.48
1074.47
986.992
960.991
918.211
908.338
894.096
888.391
894.081
2164.14
2756.81
1468.7
1036.44
878.265
738.979
627.327
523.44
448.39
381.569
326.599
273.965
236.711
209.127
192.707
179.281
172.14
163.145
159.226
151.913
979.015
898.704
571.976
1163.52
1052.69
1008.25
695.008
866.333
484.758
366.24
1015.55
903.525
622.078
520.11
567.177
945.474
868.395
1009.32
687.684
1071.83
971.596
386.945
842.02
755.711
621.845
541.657
938.558
841.002
197.597
232.907
158.511
1365.44
1202.69
1120.45
953.25
191.62
160.868
176.497
1134.96
1019.42
913.43
840.966
209.393
178.604
178.845
1008.89
983.816
824.428
784.459
215.624
176.488
165.207
978.973
955.752
772.281
746.763
197.974
167.915
194.349
951.634
936.668
747.429
754.33
200.592
198.082
189.179
931.342
896.746
750.717
705.288
178.784
178.283
157.175
866.364
757.613
684.857
593.952
95.6459
146.907
70.6983
686.129
531.816
544.885
355.363
143.97
207.048
131.871
1022.9
873.287
930.36
786.893
160.927
129.964
132.267
842.118
777.224
747.481
662.682
158.753
132.012
131.007
758.701
709.7
641.378
592.837
151.501
129.623
120.41
695.185
666.772
578.298
501.557
160.722
114.243
88.3638
660.668
625.194
464.327
358.047
136.99
78.2533
56.1751
606.606
534.984
330.284
275.293
103.895
51.9235
46.4456
508.622
414.715
264.758
248.91
54.4094
46.1653
37.2061
380.495
307.455
246.24
244.775
127.599
199.922
123.818
888.733
774.821
866.293
758.617
129.114
118.223
116.602
738.682
653.945
719.279
639.39
127.712
113.393
108.119
631.975
585.456
617.541
577.463
119.521
110.766
122.166
572.267
500.208
572.266
559.518
91.306
124.963
130.897
465.75
369.314
554.896
528.98
62.5406
130.679
114.843
344.028
290.331
512.942
433.315
53.0312
103.168
72.5545
279.45
258.853
400.912
339.32
41.8952
68.9119
58.3831
255.081
246.678
331.283
328.868
124.29
298.123
163.337
882.01
761.523
904.924
801.876
109.993
151.662
134.141
717.886
639.831
761.464
671.705
103.346
132.574
120.405
620.723
578.993
637.084
578.534
116.351
117.326
111.284
574.36
569.564
567.551
538.835
135.954
107.318
97.1773
568.681
559.587
522.036
481.675
130.958
92.1686
80.2082
549.873
482.847
463.979
397.265
75.4016
74.5146
61.3626
445.164
352.047
370.455
326.524
58.6982
61.6077
51.4413
340.155
334.163
321.322
319.855
1419.39
1394.62
1139.68
2269.62
1886.81
1926.6
1546.93
1185.78
1082.15
971.884
1773.97
1564.09
1454.27
1266.95
1119.87
947.497
891.503
1525.35
1420.36
1224.62
1126.98
1081.84
876.56
847.333
1401.36
1360.84
1103.86
1058.05
1064.96
845.968
840.841
1357.82
1341.83
1049.25
1010.96
1015.79
832.783
778.416
1334.88
1276.55
991.526
905.835
868.756
756.202
649.282
1239.58
1105.15
872.289
717.732
613.497
593.041
394.09
1024.9
717.718
654.161
509.807
1048.53
1145.58
939.028
1779.2
1435.67
1568.03
1275.27
900.126
887.388
773.366
1354.96
1178.4
1200.44
1029.62
809.458
745.277
679.819
1134.73
1031.17
986.605
879.997
754.327
661.116
556.307
1005.5
937.355
850.433
612.424
695.499
509.711
390.318
914.514
837.701
534.667
395.642
596.152
362.91
314.537
809.604
712.977
382.831
387.49
465.329
306.141
293.497
679.625
570.388
390.761
397.732
350.835
291.365
280.808
538.833
481.699
399.441
398.801
927.385
1080.83
916.395
1529.56
1265.45
1508.57
1269.81
764.975
866.113
759.18
1192.06
1022.63
1197.81
1037.39
673.3
732.157
679.579
980.269
875.33
998.453
912.359
556.088
669.379
641.597
847.57
616.234
889.869
823.183
404.399
632.056
591.061
545.233
421.774
800.305
722.341
328.34
570.299
482.01
404.946
392.559
692.036
599.229
299.219
450.553
395.102
391.471
388.865
575.57
533.706
279.723
387.052
376.519
389.042
389.343
525.474
511.331
922.362
1177.29
971.009
1539.66
1279.57
1604.19
1308.31
764.335
914.198
797.128
1207.05
1047.49
1226.42
1055.91
685.539
753.574
679.762
1008.01
923.731
998.797
898.964
658.238
665.567
625.524
904.01
850.359
877.363
812.919
627.609
605.537
558.122
831.996
764.509
786.613
719.289
529.46
536.291
462.982
735.897
636.207
691.843
610.93
410.251
435.737
392.002
607.068
555.405
587.264
545.087
384.09
384.945
370.128
545.544
523.564
534.358
505.877
1994.71
2057.58
1644.59
2746.6
2227.56
2342.89
1860.91
1653.95
1544.53
1340.6
2099.59
1843.39
1746.72
1506.95
1488.49
1293.72
1184.14
1780.67
1621.94
1448.19
1303.52
1422.47
1158.23
1104.86
1593.2
1520.41
1267.33
1180.54
1398.51
1092.8
1042.36
1505.53
1460.19
1154.96
1064.34
1327.03
1018.75
921.451
1443.78
1340.21
1030.58
916.409
1136.83
883.692
723.32
1282.87
1067.7
876.509
749.517
709.037
664.543
541.864
954.023
720.301
716.334
651.645
1529.91
1672.39
1358.98
2173.85
1742.06
1903.63
1554.4
1248.41
1279.3
1096.08
1639.42
1408.86
1465.18
1254.4
1085.76
1049.35
931.957
1349.59
1202.49
1198.17
1053.55
979.639
1031.09
974.824
1100.37
940.671
1071.42
1017.19
785.014
924.45
802.441
982.617
757.673
950.938
830.993
735.322
370.773
409.184
869.664
777.483
515.814
532.855
598.222
417.227
432.719
751.445
686.013
541.442
569.308
517.895
436.394
437.916
671.441
641.182
578.054
597.081
1349.6
1618.86
1358.85
1872.91
1546.43
1880.21
1569.7
1089.57
1281.74
1108.79
1458.16
1249.71
1479.74
1276.83
928.391
1066.66
971.216
1194.61
1053.3
1226.62
1106.12
903.721
800.208
908.582
933.056
862.49
729.903
956.29
686.67
432.994
698.637
417.274
655.837
377.881
729.1
409.946
723.998
635.146
531.848
534.335
810.698
741.841
420.675
614.076
575.673
539.364
562.307
727.833
702.98
428.322
567.724
550.88
571.559
595.131
698.147
687.538
1368.62
1717.34
1391.2
1911.58
1577.69
1977.67
1574.17
1118.35
1303.19
1120.51
1486.2
1281.67
1471.9
1265.72
982.786
1060.09
955.649
1231.47
1117.25
1202.62
1086.27
896.357
931.812
859.766
1086.45
997.911
1056.34
970.69
796.707
831.516
759.997
968.174
876.075
940.541
863.686
669.721
731.418
653.613
845.799
772.1
836.532
769.435
598.562
631.101
589.405
756.008
725.021
751.022
710.518
563.963
577.881
543.812
717.62
695.785
697.43
657.636
2283.75
2414.22
1915.38
3049.45
2418.15
2586.81
2062.37
1886.41
1798.35
1549.34
2276.8
1992.47
1940.32
1667.05
1647.36
1486.74
1328.98
1915.2
1697.94
1592.62
1387.99
1526.02
1288.13
1186.17
1645.06
1501.73
1329.4
1177.58
1444.52
1155.53
1053.14
1461.52
1334.32
1132.92
1010.51
1299.06
1017.93
907.787
1289.92
1144.04
979.702
912.65
1019.66
872.215
768.28
1092.71
947.719
897.677
861.53
733.397
743.174
689.402
900.053
804.522
852.381
818.691
1796.54
1964.3
1606.97
2404.88
1945.86
2126.22
1757.29
1450.58
1515.68
1297.34
1834.3
1568.79
1661.36
1421.4
1228.14
1237.98
1081.5
1494.17
1288.68
1350.98
1154.81
1061.07
1035.64
784.288
1228.38
1068.43
1094.22
910.686
904.557
716.368
601.627
1021.65
907.407
858.622
754.787
789.698
586.571
585.127
883.36
848.87
738.138
736.927
719.943
592.688
624.415
846.522
844.594
751.326
802.476
683.2
634.689
653.871
843.145
824.482
814.73
828.085
1599.52
1956.01
1627.16
2111.45
1751.47
2178.05
1788.34
1293.37
1533.38
1321.98
1656.22
1419.72
1684.29
1451.96
1083.12
1269.32
1140.44
1351.05
1161.7
1392.34
1235.21
793.974
1103.23
996.927
1103.14
928.565
1189.08
1068.79
628.836
962.85
866.186
880.16
780.372
1034.19
946.498
590.085
837.836
777.458
759.589
747.816
925.102
894.342
621.125
766.107
747.91
758.924
806.702
893.076
896.602
654.388
744.693
734.058
819.213
834.672
896.656
885.44
1633.84
2057.47
1621.44
2222.54
1790.37
2280.7
1743.43
1325.2
1514.88
1305.07
1682.36
1451.22
1628.78
1418.3
1151.77
1241.35
1122.59
1394.31
1249.06
1357.84
1225.35
1023.21
1090.29
1002.22
1207.42
1097.69
1188.3
1099.44
900.003
971.761
895.786
1065.31
980.324
1071.65
995.902
806.911
869.223
806.386
958.864
923.149
971.946
921.529
768.169
788.971
749.526
918.239
909.331
907.536
871.071
740.113
736.197
694.066
905.451
882.754
856.305
812.378
2471.72
2647.04
2123.15
3433.2
2745.9
2884.11
2401.34
2035.78
1999.32
1717.18
2559.25
2256.93
2275.53
1972.35
1720.89
1638.28
1414.83
2165.08
1906.7
1883.55
1623.1
1498.91
1349.28
1181.52
1801.71
1620.56
1540.56
1341.53
1302.74
1133.44
1010.52
1553.92
1385.4
1287.7
1174.61
1115.25
983.634
936.333
1331.03
1227.96
1156.71
1152.55
955.341
928.046
907.53
1203.55
1133.73
1154.84
1150.87
840.423
900.923
866.279
1110.37
1045.4
1144.87
1096.27
2007.26
2191.92
1819.68
2732.01
2289.99
2510.06
2110.19
1619.24
1721.81
1473.05
2174.71
1878.25
2007.22
1735.14
1315.49
1397.62
1185.92
1789.12
1529.25
1651.36
1411.88
1078.36
1121.88
947.464
1448.7
1257.84
1341.5
1177.98
921.296
899.234
799.989
1209.22
1114.61
1135.46
1043.13
884.886
784.811
792.533
1102.79
1120.89
1031.15
1059.49
897.26
811.629
867.805
1135.64
1151.51
1089.82
1144.33
874.41
879.219
884.195
1149.17
1103.55
1149.49
1120.63
1814.56
2266.31
1852.43
2505.48
2103.16
2591.13
2131.73
1472.01
1745.15
1505.63
2000.52
1733.46
2020.88
1766.52
1194.76
1443.16
1274.37
1652.48
1422.89
1697.15
1508.31
967.139
1225.16
1101.25
1355.98
1198.61
1454.01
1321.37
824.857
1067.01
982.568
1157.52
1063.34
1287.3
1204.87
804.188
963.556
943.486
1048.95
1069.67
1189.14
1188.73
873.705
945.945
954.622
1099.05
1152.11
1199.98
1209.18
892.651
954.769
938.822
1157.49
1131.27
1207.6
1170.24
1852.47
2368.36
1793.07
2652.89
2127.8
2694.09
2054.91
1503.9
1676.45
1467.55
2012.48
1764.32
1948.14
1720.83
1290.03
1408.05
1269.99
1699.97
1526.28
1667.94
1501.93
1132.1
1231.51
1143.6
1478.03
1355.05
1478.55
1372.5
1017.88
1116.64
1039.65
1322.56
1242.04
1358.39
1262.61
972.463
1016.35
969.283
1226.35
1217.76
1254.83
1196.98
964.969
956.237
919.303
1219.46
1213.87
1195.47
1145.09
934.188
904.016
858.074
1208.81
1165.4
1136.94
1067.63
932.575
1005.82
849.14
1012.48
897.908
1042.86
879.785
894.88
920.095
812.919
935.079
863.468
961.802
781.029
789.535
691.822
686.989
450.26
780.402
689.902
579.188
1012.71
1135.75
1127.01
1081.22
1103.4
1052.8
1038.15
962.795
1037.06
1090.68
930.148
1071.15
907.527
986.399
932.144
969.529
1030.85
923.277
999.035
812.227
970.261
827.34
501.319
796.029
801.844
730.975
618.191
882.464
745.358
896.512
687.17
886.207
719.582
919.519
711.981
562.115
618.093
411.616
372.206
556.079
619.19
310.953
526.052
497.134
375.486
342.296
515.486
517.72
311.586
810.441
1003.48
977.544
878.591
968.478
857.073
831.847
769.507
898.076
940.721
756.69
933.873
735.11
791.333
611.178
433.49
729.529
572.797
664.027
388.914
677.632
570.985
398.775
617.41
543.319
559.581
378.943
639.586
838.126
674.686
747.641
479.289
803.988
577.673
778.933
939.543
926.315
920.091
993.969
894.592
973.878
965.704
901.361
823.247
894.446
908.041
859.227
862.776
937.089
944.824
967.14
909.353
1029.88
764.078
997.162
978.791
878.642
519.127
784.622
860.117
611.895
819.744
917.01
978.872
1035.89
1049.95
1038.4
1015.07
1005.01
1011.42
938.942
942.387
929.065
1005.1
898.618
973.9
970.344
653.92
398.755
589.371
367.947
620.41
371.361
622.579
790.021
788.303
814.65
878.783
754.389
825.622
848.839
756.612
689.909
786.186
786.304
722.048
723.45
818.242
727.874
462.367
578.543
810.955
428.653
770.121
768.055
694.785
425.044
549.788
701.933
419.037
662.612
732.815
823.313
910.91
889.83
905.655
860.044
879.106
852.705
788.999
814.621
785.339
873.167
755.539
847.136
818.17
442.676
586.028
460.191
1081.03
1107.83
1130.06
1118.04
367.373
389.638
363.954
1084.22
1064.9
1043.49
1002.12
351.86
360.366
359.223
1039.86
1010.16
982.734
960.122
341.138
355.538
345.655
986.387
966.304
936.595
916.461
309.682
331.788
323.692
919.9
854.324
891.495
865.203
254.673
313.19
294.864
774.076
664.769
826.041
761.593
179.817
266.168
223.558
529.567
371.117
656.621
548.641
89.4925
193.153
140.381
240.83
227.998
406.627
337.179
482.766
477.289
409.479
1096.89
1174.95
1031.84
1065.94
551.001
269.301
294.744
580.722
603.532
522.076
236.003
541.603
188.482
184.243
600.114
589.919
544.855
184.912
554.272
199.76
198.414
589.191
594.577
548.5
202.852
570.102
216.836
216.301
607.375
607.186
570.543
216.266
536.874
208.097
204.148
594.412
584.194
548.52
196.023
568.168
198.068
207.125
566.59
564.459
554.724
217.821
547.686
193.329
218.368
539.225
519.278
560.778
211.918
453.559
140.909
196.805
399.555
337.609
487.936
177.086
97.4635
125.792
83.138
322.23
274.36
281.891
270.648
381.771
447.533
370.169
1018.01
991.029
970.587
934.672
395.517
168.45
214.329
407.951
408.979
398.786
165.787
414.899
152.95
140.445
430.602
441.168
407.595
144.991
402.803
161.375
149.66
443.913
439.027
410.286
148.113
376.335
150.656
141.793
417.281
408.899
381.713
140.439
344.846
160.879
136.112
411.114
414.359
357.341
131.926
268.796
150.301
110.242
397.19
381.56
288.762
102.475
210.076
119.432
86.2773
328.801
306.834
222.05
82.2842
167.209
83.9848
69.0672
241.787
218.137
178.208
62.2535
80.1496
87.2048
72.5311
241.951
257.592
215.308
227.736
345.932
410.002
334.548
840.314
831.772
814.539
809.509
370.791
155.771
197.01
364.197
372.708
357.427
156.484
372.342
128.456
128.049
373.902
373.34
373.942
128.457
345.967
127.798
125.596
357.227
352.704
352.327
124.438
333.121
125.692
123.334
341.315
335.705
336.191
123.238
297.072
107.417
118.49
297.049
277.976
310.128
114.217
229.035
75.055
94.6706
217.49
198.633
246.832
86.9192
170.367
55.4654
68.5633
154.351
145.431
181.104
64.8492
154.101
53.0878
60.7297
135.548
135.48
155.902
60.6331
79.3109
121.313
108.25
229.547
240.733
279.995
309.328
340.624
465.69
409.613
834.554
834.101
835.638
792.21
377.099
166.301
220.543
359.673
361.073
379.52
177.836
326.624
110.597
117.117
333.358
326.487
333.522
110.585
323.051
107.224
110.85
319.872
310.07
326.278
110.815
311.249
106.902
107.049
300.115
307.318
309.556
107.494
331.732
125.637
115.35
332.315
339.852
326.246
117.985
347.852
137.186
130.136
352.599
350.657
348.233
130.173
275.748
104.002
120.415
303.618
267.066
312.459
106.37
177.675
68.01
67.8447
184.528
181.772
181.556
65.9055
112.154
118.355
103.434
296.691
318.823
278.712
290.514
271.824
382.228
284.096
696.864
690.64
722.107
709.148
221.002
266.022
233.456
655.489
600.143
623.851
542.66
179.978
199.582
166.142
538.405
498.373
469.353
425.071
146.546
141.31
124.067
455.142
409.68
358.586
313.699
119.028
108.419
94.3278
365.875
337.813
273.764
253.703
96.0011
91.7186
88.3503
302.357