/*--------------------------------*- C++ -*----------------------------------*\
  =========                 |
  \\      /  F ield         | OpenFOAM: The Open Source CFD Toolbox
   \\    /   O peration     | Website:  https://openfoam.org
    \\  /    A nd           | Version:  10
     \\/     M anipulation  |
\*---------------------------------------------------------------------------*/
FoamFile
{
    format      ascii;
    class       volScalarField;
    location    "10";
    object      omega;
}
// * * * * * * * * * * * * * * * * * * * * * * * * * * * * * * * * * * * * * //

dimensions      [0 0 -1 0 0 0 0];

internalField   nonuniform List<scalar> 
12920
(
116.064
149.403
144.669
132.998
121.148
112.175
97.3234
88.2948
81.0831
73.5464
64.5764
56.4375
50.6063
46.7762
44.3015
42.5552
41.3778
40.4951
40.1584
39.368
145.153
152.34
144.569
133.66
122.407
119.782
110.495
104.665
94.0586
83.1142
70.8812
61.386
56.4077
54.8872
54.5733
54.7095
55.053
55.6325
56.3561
56.8315
120.934
124.395
105.694
107.93
110.47
107.764
93.7691
80.396
69.1636
64.4507
59.3827
57.6712
56.0076
55.5386
55.4171
55.3833
55.4163
55.2666
55.1271
54.6404
117.984
172.964
162.457
137.6
113.445
97.6358
83.608
74.5211
66.8522
61.7238
57.206
54.5962
52.5043
51.2663
50.4673
49.9027
49.5611
48.9599
48.762
48.3481
138.272
217.087
215.434
175.58
132.07
108.475
99.8265
91.0187
86.7457
78.7755
70.8114
62.4362
55.7802
51.2325
48.7196
47.3789
46.5856
46.0535
45.9107
45.7916
161.221
155.908
153.08
133.782
122.495
120.064
114.8
111.988
108.305
106.107
100.537
86.2393
69.4266
55.5996
48.4237
45.5026
44.1344
43.4701
43.3867
43.5833
305.973
163.533
128.709
120.415
120.668
119.223
114.163
109.889
106.047
102.769
97.7927
87.7004
72.0798
56.5307
48.5894
45.0974
43.2693
41.99
41.3598
41.1729
314.523
266.262
182.361
143.127
136.214
134.372
214.029
174.261
169.213
165.869
161.35
149.595
133.865
106.248
55.1888
50.5026
47.5877
44.4911
42.5637
40.6442
444.953
293.325
219.495
167.545
139.582
199.244
340.778
247.255
249.475
261.231
260.076
250.219
251.124
228.18
107.276
54.929
51.2958
47.7036
45.5617
42.1309
301.387
209.448
166.643
149.925
131.68
189.903
262.009
215.668
226.565
221.486
222.842
223.218
202.297
175.455
89.9351
53.3463
50.132
47.8705
46.7613
44.0621
279.766
225.634
152.344
131.941
122.277
187.485
250.888
200.95
201.474
200.778
190.385
162.196
136.204
129.558
89.6655
58.1083
55.1154
52.1479
50.3915
46.0933
242.111
229.234
186.455
141.748
122.217
176.519
257.447
191.055
186.551
181.506
195.603
208.741
195.438
148.47
100.225
60.4086
57.4189
53.7
49.8099
43.7743
235.174
205.015
194.77
156.988
132.388
117.051
167.498
138.562
125.212
113.62
101.77
91.7199
85.2293
85.771
55.5411
52.0348
49.0733
45.775
42.9469
40.0275
116.853
199.644
203.097
178.539
140.652
119.176
101.088
89.253
77.4782
70.2886
64.0792
60.2196
56.6189
53.2733
50.1702
47.3438
44.9469
42.9315
42.0402
40.4738
30.5515
140.65
185.533
175.742
135.213
114.208
100.949
95.1791
86.0358
80.9363
73.8509
68.0167
62.4289
57.7344
53.1827
49.3493
46.4829
44.5759
43.9729
43.1556
143.266
215.911
217.168
175.832
134.122
122.126
114.554
108.87
97.7812
89.3242
79.6809
71.8507
65.3216
60.6553
56.4637
52.9163
50.4054
48.2445
47.4013
46.111
147.625
203.908
181.734
145.926
132.652
128.225
115.14
104.575
92.4255
83.7087
74.7546
67.2712
61.1716
57.0258
53.9684
51.5378
50.0109
48.616
48.0385
46.8011
261.837
228.567
186.609
150.813
126.698
118.082
105.748
98.3048
88.5338
80.7065
71.7924
64.4459
59.086
55.5277
53.0012
50.5592
48.8245
47.3222
46.7826
45.9299
256.058
285.46
232.871
166.569
124.487
104.702
92.0918
85.117
77.6196
71.3112
65.3854
61.4577
58.9451
57.2658
54.9011
51.9769
49.1777
46.58
44.836
44.1816
109.67
131.456
128.353
121.523
98.564
83.5071
75.8617
71.4172
66.1893
60.7417
55.4043
51.2947
48.4478
46.3952
44.9638
42.7148
40.984
38.5545
37.2333
33.7948
120.343
78.1485
74.2704
73.7797
66.2244
59.3791
53.804
49.8074
44.3024
38.6766
33.0852
29.5941
27.6663
26.7241
25.8173
25.0172
24.2826
23.7355
23.6137
23.3502
183.917
135.328
100.02
78.2021
65.8465
61.657
56.1535
55.0976
53.0563
51.9958
48.6744
40.3872
33.8109
30.3743
28.7812
28.2636
28.2162
28.3416
28.5396
28.8436
382.694
281.465
136.316
100.768
76.5294
65.6933
54.3716
43.9737
36.4493
32.814
30.3765
29.1098
28.0058
27.1366
26.7372
26.5636
26.5643
26.5665
26.6071
26.7384
173.214
125.827
104.354
75.0862
61.1071
52.1462
44.4179
37.5855
33.7942
31.4311
30.1173
28.8978
28.0214
26.4412
25.2363
24.337
23.9697
23.7148
23.622
23.5625
242.086
153.603
130.256
92.8132
67.8847
55.5388
50.301
45.4547
43.6092
40.3055
38.9276
36.2887
33.7246
28.9629
25.509
23.4956
22.7656
22.5485
22.5576
22.6708
235.124
143.979
108.318
81.5891
69.6792
63.0512
58.2177
56.7076
55.3725
55.929
55.8302
55.2961
50.8602
37.4112
27.4843
23.0008
21.458
21.0852
21.0833
21.4342
265.311
118.27
90.6349
77.0494
70.1994
64.1842
58.4591
56.9437
54.8985
55.3436
56.4649
57.3257
54.8826
41.5339
28.9555
23.2754
21.2555
20.5798
20.4535
20.6408
290.808
166.122
115.623
86.9872
73.9929
64.9815
69.7249
61.1165
56.7074
55.4188
55.8183
58.0719
61.8956
62.3294
43.1972
27.6458
23.2712
21.7895
21.3382
21.0773
202.971
160.466
125.092
90.4767
69.4447
67.9948
67.429
56.6836
49.3727
48.3262
50.2323
52.5619
55.3237
59.5507
60.0071
26.3608
24.7671
23.8415
23.3993
22.5198
251.638
127.275
88.7383
73.5815
62.5832
63.6038
60.7382
49.6724
41.6803
38.5305
38.2318
39.0706
42.0695
42.5148
31.6231
27.5878
27.5045
27.2459
26.7068
24.9944
157.558
149.456
91.9985
76.438
64.1978
62.686
58.8849
48.3912
40.3163
35.5151
34.913
33.9481
34.2963
33.7942
30.5326
28.9254
28.9671
28.8656
28.5278
26.3716
245.095
128.922
89.7532
69.0511
57.8259
58.3886
57.3021
50.4369
44.7573
42.12
39.7167
40.0725
41.4467
34.6357
28.3946
26.3856
26.6382
26.5039
26.1067
24.0358
238.419
143
105.474
76.4752
60.6303
53.0454
53.564
46.214
41.207
40.0012
38.9927
37.2182
33.4885
29.9951
25.3517
24.4233
23.688
22.8331
21.8891
20.4027
160.154
144.394
114.872
90.0532
71.1492
64.6674
51.8029
44.11
38.0179
34.7249
32.456
30.8149
29.2381
27.6069
25.9265
24.0248
22.4853
21.3833
20.7906
20.0348
79.0062
131.765
121.409
98.1221
80.9753
71.4686
60.2304
51.772
43.1083
38.5311
34.8165
32.3563
30.229
28.6805
27.2478
25.5246
23.7955
22.4318
21.9023
21.5045
199.342
150.786
125.473
93.1859
75.761
68.3567
61.1428
55.2566
48.383
43.3956
38.922
35.1102
32.0966
29.6367
27.8669
26.4431
25.4684
24.4727
24.038
23.4366
274.98
137.953
100.546
80.6117
68.5146
62.7341
55.5033
50.6552
45.4602
41.4944
37.4904
33.6642
30.461
27.9012
26.3104
25.1862
24.5916
24.1853
24.0652
23.773
173.46
148.066
104.061
81.0853
67.2386
61.083
54.4719
49.8907
45.2328
41.6485
37.8768
34.0789
30.7157
27.8905
26.1918
25.167
24.6464
24.2881
24.1635
23.8639
205.126
210.265
144.517
98.3538
80.0692
70.6688
62.8059
55.0937
48.4043
42.7716
37.8182
33.9859
31.4673
30.0934
29.1027
28.3418
27.7229
26.9091
26.4098
25.2272
121.672
100.61
80.5357
68.5567
52.014
46.4473
43.276
41.3384
38.1192
34.8601
31.7379
29.8112
28.6578
27.936
27.2367
26.2189
25.1615
23.9306
23.1844
21.0658
143.312
95.147
93.834
80.104
68.2202
59.8937
53.7803
48.9772
43.5686
38.5835
34.6914
32.8674
31.7865
30.9847
29.9742
28.9093
28.0319
27.1173
26.6693
25.8231
203.561
124.086
88.5478
66.6407
54.759
49.7246
44.5191
44.121
42.668
41.4083
37.6614
34.467
31.672
30.6509
30.2385
30.3489
30.6625
31.2335
31.5619
31.6393
202.021
148.544
108.81
76.8541
57.7006
48.5632
39.4973
34.616
30.6247
29.2177
27.7516
27.1589
26.4813
26.2709
26.2766
26.4138
26.5855
26.7005
26.773
26.8456
237.401
132.276
99.5828
67.296
50.6955
41.3156
35.7904
31.595
29.3057
27.6933
26.7682
25.9469
25.2679
24.5102
23.9591
23.6589
23.5062
23.3952
23.3214
23.2999
176.57
161.831
122.065
77.6353
56.2816
45.6964
41.8307
37.6194
35.77
32.8031
31.1225
28.7925
26.8476
24.8176
23.334
22.5315
22.196
22.1235
22.1305
22.218
147.072
128.513
95.121
69.7708
59.0489
52.875
48.3084
46.319
44.5194
43.5772
42.2614
39.2052
33.6543
27.5107
23.5693
21.7649
21.1234
20.9951
21.0258
21.3073
173.73
122.38
84.7099
66.2179
59.3713
53.4182
48.5601
47.049
45.6528
46.1031
46.3356
45.6746
39.6683
29.6155
24.0518
21.7037
20.8605
20.6278
20.6167
20.8109
318.872
147.032
99.4922
77.373
64.2574
55.4463
53.5518
49.2242
46.8881
47.2082
48.4765
52.3744
55.4298
54.3567
30.7198
24.3375
22.4742
21.6663
21.3905
21.2154
126.877
140.874
104.835
74.8221
58.164
53.8199
52.3698
45.9455
42.8826
42.6448
45.0315
49.004
53.9716
59.1884
37.064
26.3439
25.1996
24.0561
23.4575
22.5679
579.092
189.391
80.2635
61.9635
52.6645
49.8983
46.9029
40.1046
35.8044
34.3081
37.2817
38.3292
37.7759
34.3638
28.2982
29.8394
29.2891
27.6682
26.3767
24.4717
232.925
165.851
84.1843
61.072
51.1777
47.6812
44.8023
38.3949
34.2363
32.1261
87.8359
56.9038
37.3769
33.4837
31.6018
31.4693
30.5032
28.789
27.342
24.8439
119.599
139.425
93.4165
57.8896
48.6642
45.1597
43.3658
39.5324
36.8444
35.3284
34.4821
34.0778
32.1296
28.8722
27.6124
27.4625
26.7238
25.7257
24.7291
23.0119
327.365
183.797
115.999
73.8437
54.7643
45.6417
41.4738
36.8128
33.7093
32.8545
31.5301
29.9391
27.6063
25.8933
24.5053
23.5057
22.7685
22.0542
21.3883
20.8213
146.943
123.994
112.203
85.9628
63.3235
53.37
42.1734
36.3753
32.1213
29.6435
28.0085
26.6913
25.5023
24.3034
23.2199
22.1573
21.3406
20.8125
20.4528
20.2577
216.334
164.883
114.638
80.1937
65.0261
58.0469
47.7691
42.256
35.7024
32.5129
29.6264
27.8048
26.2781
25.0442
23.9429
22.9023
22.0578
21.4938
21.276
21.126
154.674
151.549
115.74
81.3324
66.0158
59.2481
51.0841
45.2593
39.3344
35.5777
32.0754
29.5748
27.5389
25.992
24.8493
24.0047
23.4417
22.9869
22.7991
22.5433
299.188
141.329
90.9311
68.0792
58.2966
51.3153
45.3452
41.5586
37.5275
34.8045
31.6084
29.0806
26.8761
25.3732
24.3801
23.7687
23.4706
23.3223
23.2788
23.1869
207.234
142.836
89.7603
66.5137
55.6603
50.0482
44.4387
41.5528
37.8592
35.4736
32.3549
29.9331
27.6581
26.1429
25.1138
24.549
24.2602
24.1459
24.1294
24.0883
243.824
172.421
108.876
81.4716
64.2711
58.3362
49.76
44.9407
39.5423
36.5984
33.487
31.8165
30.2592
29.4065
28.6092
28.0282
27.4678
26.924
26.5518
26.0639
88.7665
94.1045
83.7401
71.1081
57.7604
52.3387
48.6735
45.3924
41.4253
37.6412
34.524
32.3871
30.9063
29.652
28.5826
27.4134
26.4
24.9539
23.993
22.035
122.172
118.876
104.959
80.8511
66.393
55.3814
49.8149
44.035
39.8788
36.9291
35.0198
34.0279
33.1814
32.1334
31.1319
30.03
29.424
28.5783
28.1488
27.1101
258.435
151.692
96.7832
66.0393
56.3424
46.2594
43.7007
41.2759
40.6512
39.5035
38.4848
38.1322
38.1028
38.6475
39.2326
39.9223
40.4914
40.9592
41.1012
41.0863
274.158
147.612
104.866
67.5554
55.3811
43.0305
38.4673
33.4927
32.5539
31.2241
31.4164
31.2272
31.5797
31.9098
32.5536
32.9589
33.3385
33.444
33.4626
33.3524
255.757
167.043
97.5827
63.3221
51.1525
39.6221
36.9345
31.7824
31.161
29.2433
29.3906
28.8392
29.0658
28.9721
29.1673
29.1948
29.2405
29.1917
29.1044
29.1173
147.733
147.631
110.457
69.2261
56.3484
43.6326
41.7693
35.8003
34.664
31.223
30.7207
29.1663
28.8598
28.1755
28.0489
27.8823
27.8592
27.8664
27.8813
28.0087
206.422
114.501
88.2914
64.2107
59.2918
49.6494
47.6805
42.8693
41.151
37.5548
35.7772
32.6423
30.658
28.6479
27.7359
27.1922
27.0875
27.0665
27.1187
27.3996
235.078
148.54
91.7297
63.7286
60.3824
50.8904
48.1032
44.1454
43.113
40.9343
39.9741
36.7558
33.091
29.377
27.9947
27.2201
27.0342
27.019
27.0685
27.3432
335.469
178.912
94.9906
71.7134
64.2253
53.7192
51.2998
47.4408
45.0522
45.3738
45.6693
48.6289
47.3567
39.978
32.5902
29.8953
28.8362
28.236
27.9855
27.9558
334.83
141.57
95.6075
67.5326
56.7958
52.1917
50.478
45.049
43.4795
43.6102
45.7067
49.5612
51.5786
46.5667
35.0364
34.2277
32.0083
30.5538
29.7517
29.2117
240.75
128.734
80.251
59.1411
51.7701
47.5645
44.5961
39.9317
37.8861
37.1505
39.0342
38.6108
37.4665
35.5795
36.4999
37.789
35.2068
33.015
31.7541
30.6978
194.02
155.12
91.3085
57.8591
49.9861
44.6844
42.0406
38.2242
36.0897
35.0461
53.8295
47.5933
40.665
39.6004
39.9815
38.781
36.0694
33.6082
32.0166
30.7989
164.736
140.92
98.206
57.0963
49.7227
43.9746
42.0793
39.0086
37.2276
36.3013
35.7045
34.9659
34.3801
34.6666
35.9556
34.9784
32.7139
31.0601
30.0047
29.5155
237.27
159.789
127.573
76.2613
58.9724
46.003
40.8485
36.0723
33.8089
32.9102
32.0766
31.4505
30.8474
30.8166
30.8358
29.254
28.3995
27.9943
27.8075
27.9624
162.268
148.867
121.477
84.1941
64.4583
50.2166
41.3103
35.7506
32.964
30.7723
30.0142
29.0575
28.6028
27.9386
27.5086
27.029
26.8145
26.7705
26.7749
27.0853
155.987
155.874
103.78
71.3775
62.6768
52.1017
45.406
40.0977
35.7358
33.043
31.2338
29.9157
29.0599
28.242
27.6993
27.2783
27.1266
27.1286
27.153
27.3556
281.971
163.588
104.687
73.2731
64.7753
54.4729
48.7872
42.4887
38.7769
35.5178
33.3532
31.5344
30.3881
29.4303
28.88
28.5122
28.3916
28.3766
28.3611
28.4519
378.35
132.301
91.9408
62.2076
57.3688
47.2214
44.6055
40.0739
38.134
35.5588
33.572
31.7123
30.4509
29.5445
29.1273
28.9517
28.9802
29.121
29.1937
29.3998
233.5
168.599
98.9205
61.6496
55.131
46.6063
44.574
41.2818
39.5985
37.4767
35.4603
33.7012
32.2926
31.3346
30.815
30.5896
30.5907
30.7359
30.8549
31.1064
260.993
151.891
90.7347
65.952
59.3805
52.0599
47.6521
44.4924
41.7381
40.1644
38.4188
37.4816
36.4089
35.7379
35.0426
34.6132
34.273
34.1556
34.0988
34.3398
77.0528
86.01
77.0525
63.6438
56.1153
51.9313
48.578
44.832
40.9473
37.458
34.8133
32.6606
30.9025
29.161
27.7705
26.3592
25.3186
24.1012
23.4431
22.3886
112.12
130.796
110.931
79.6827
61.8014
49.4411
43.9978
39.2585
36.7938
35.279
34.2854
33.3159
32.4402
31.4366
30.6147
29.6263
28.6244
27.2162
26.3337
25.0454
203.989
168.969
113.488
79.2685
70.1529
52.3929
54.5611
44.6746
48.8143
44.44
48.8017
47.6485
50.8402
50.45
52.0905
51.742
52.0829
51.5416
51.3305
50.9468
214.072
169.766
122.139
70.7881
68.3097
47.7783
48.9853
39.0209
41.5069
37.3163
40.1822
38.5141
40.9872
40.4954
42.1227
41.8596
42.5378
42.2646
42.1833
41.8749
566.737
274.608
105.307
75.2756
61.1043
49.2551
46.7898
38.7386
39.3148
35.4218
37.2453
35.7626
37.7884
37.3292
38.5071
38.1115
38.5054
38.246
38.1451
38.1258
270.917
138.652
112.76
69.9804
67.2245
48.0494
50.4972
39.3765
40.7976
35.2812
37.0013
34.8825
36.9369
36.2601
37.5398
36.9686
37.4266
37.2134
37.2208
37.3456
177.936
131.93
92.2212
70.8473
66.327
53.2092
53.5015
44.2551
43.7007
37.8644
37.9099
35.6752
36.8654
36.541
37.1547
36.7112
36.8291
36.7155
36.6921
37.0281
345.412
168.154
108.251
69.4952
71.522
53.0215
54.7917
45.6048
46.0726
40.255
40.3087
36.9311
37.7497
36.7721
37.6208
36.7623
37.0513
36.8807
36.9265
37.2832
313.67
205.404
103.708
76.4681
71.1742
58.1289
55.3888
49.9069
49.0699
46.3835
46.1113
44.6492
43.8375
41.718
41.6346
39.5767
38.6496
38.2657
38.0163
38.1797
372.489
154.006
98.3332
68.0149
64.023
55.5735
55.8684
50.8134
50.4249
49.2414
49.4355
49.3923
48.5648
46.5121
46.7649
42.7706
40.6864
39.6978
39.3492
39.3326
199.371
124.085
84.8329
68.2373
56.487
50.5453
49.3917
48.3176
47.5736
46.1019
45.9763
46.4542
47.803
48.7641
48.9028
44.7366
42.3754
41.2522
40.7515
40.4725
272.619
158.21
102.275
64.5921
59.9437
48.8975
47.3816
47.0582
46.14
44.499
45.9249
47.0867
49.5321
50.6258
49.9455
45.4254
42.9472
41.5341
40.817
40.4953
187.735
148.224
97.7157
62.8828
57.6745
49.6364
49.9002
47.1643
46.1058
45.3192
45.3105
45.9367
47.4601
48.6512
47.9385
43.0776
40.9218
39.7893
39.3089
39.4004
326.188
158.443
129.288
74.3968
72.6965
54.1155
46.5867
41.1716
40.4775
39.4454
40.2844
40.4687
41.7146
42.1879
40.2372
38.5001
37.8652
37.7467
37.6216
38.1071
342.201
176.882
135.544
77.5505
75.2248
52.5245
47.6703
40.9813
39.1909
36.822
37.2476
36.4516
37.0644
36.7119
36.8053
36.4869
36.6077
36.6281
36.6629
37.2359
268.936
138.314
110.106
68.3571
72.6048
52.5426
52.7819
43.15
41.8283
38.0862
38.0171
36.77
36.9949
36.4772
36.6447
36.5818
36.8321
37.0435
37.0449
37.4324
224.729
132.999
109.63
68.0592
73.1906
54.0053
55.2243
45.0759
45.4365
40.7232
40.81
38.5844
38.7774
37.7646
37.9971
37.7253
38.0379
38.1229
38.1303
38.3465
302.291
143.327
98.948
64.1675
66.9031
48.7038
52.78
43.3123
45.8524
40.9752
41.6817
39.0952
39.3302
38.238
38.5298
38.322
38.7152
38.9251
39.0161
39.395
311.952
208.999
118.05
65.8726
69.0838
49.8808
56.2099
46.2907
49.6756
44.2953
45.1418
42.0919
42.1961
40.7108
40.8361
40.3802
40.7428
40.8763
40.9961
41.3625
318.431
230.996
121.619
70.2704
79.4571
53.8349
63.2206
50.9682
55.5413
49.6822
51.345
48.1841
48.4517
46.65
46.5696
45.8383
46.0048
46.0861
46.2002
46.8507
82.8625
93.5232
68.2625
57.3439
52.7871
48.4207
44.6131
40.752
37.7176
34.7938
32.1901
29.4824
27.4047
25.7585
24.7266
23.8497
23.3699
22.7511
22.4762
21.9539
36.3274
32.7784
75.3711
36.0503
38.0443
35.0064
76.1698
38.4706
75.1854
63.2468
38.6235
38.7121
74.3128
58.6288
88.7899
34.2789
33.3732
34.1302
84.2828
34.9745
34.5619
68.6944
33.2382
32.7967
82.7049
64.4306
34.4537
33.8996
250.383
271.836
224.257
80.5817
67.0466
72.6586
61.3175
246.567
225.918
236.638
63.1697
54.8604
57.8704
50.1613
257.749
238.046
238.208
53.9027
52.7496
48.5324
46.1343
261.556
236.634
228.948
52.8924
54.2911
46.0108
46.1333
250.622
230.817
248.319
55.1166
56.8747
46.1104
45.959
252.274
250.692
244.992
57.3004
58.6657
46.162
49.1781
238.166
237.832
223.31
59.6099
62.5429
50.6827
53.0589
174.2
215.892
149.768
63.4682
69.7156
53.473
49.747
213.723
256.302
204.545
70.8734
59.2016
69.9856
58.196
225.959
203.061
204.853
55.5749
48.114
54.3458
46.0841
224.43
204.656
203.884
46.4861
43.4671
44.291
40.3367
219.251
202.812
195.491
43.0311
42.2661
39.37
37.7395
225.82
190.419
167.452
41.9903
41.4018
37.4061
35.9626
208.478
157.576
133.502
41.5044
43.599
35.6939
36.5045
181.557
128.351
121.391
44.4202
45.2089
37.0724
37.8265
131.387
121.025
108.648
45.1333
41.1409
37.7567
34.3724
201.205
251.852
198.202
69.0084
58.0711
68.0333
58.832
202.397
193.672
192.339
54.4018
46.4652
55.7841
49.2768
201.305
189.675
185.213
44.7628
40.8605
48.3115
45.7381
194.768
187.468
196.884
39.7516
37.7361
44.4064
41.565
170.217
199.125
203.793
37.3063
35.9674
41.0977
40.4305
140.863
203.622
190.883
35.8118
36.875
40.4471
40.9948
129.712
180.92
151.722
37.406
37.6333
41.014
39.1403
115.292
147.864
136.1
37.2902
33.9718
37.6923
33.3188
198.579
307.548
227.645
68.2292
59.7791
76.7648
61.2908
186.809
219.358
206.299
56.9395
50.6239
57.6747
52.1197
181.077
205.09
195.451
49.5691
47.8053
50.3306
47.6924
192.136
192.935
187.903
46.8147
44.1108
47.643
48.3295
207.69
184.524
175.589
43.751
43.6769
48.3645
48.69
203.836
171.004
159.524
43.9676
46.1737
48.705
47.7483
154.67
153.757
139.53
46.3986
42.5604
46.6446
40.2179
136.467
139.808
127.753
39.6452
33.1435
37.7834
31.7179
59.7804
62.417
54.5313
54.2408
48.9567
50.79
44.7508
50.2671
51.7437
45.0161
47.2419
43.9451
42.9483
38.8005
48.2668
43.5381
41.3469
43.5128
42.9388
37.9271
36.6878
49.4961
41.2341
41.5725
43.068
44.47
36.6853
37.6641
52.0205
41.7897
42.5319
45.2859
47.7781
38.3959
40.5336
54.3476
43.0411
46.3781
48.8653
52.1058
41.3449
44.0581
58.4333
47.9048
50.7044
53.4593
57.7503
44.9474
45.1467
67.7078
51.1029
46.3179
59.6035
60.2694
43.9834
34.3714
52.5108
59.7994
51.3196
48.7048
43.018
46.9952
41.2829
43.1833
48.2888
41.3771
41.3138
37.2016
39.5154
35.3923
38.9151
39.7768
36.0589
36.2413
34.5278
34.3509
31.8124
38.1668
35.1185
34.8879
34.3795
35.7758
31.9145
48.7414
38.7229
35.1583
34.6442
36.6983
38.1707
50.3505
48.4734
41.2887
34.312
34.196
38.2181
38.5882
45.1529
36.4192
42.7669
34.4146
34.4841
38.6638
37.1239
34.9509
32.299
37.8743
34.2198
31.9471
35.9597
30.3401
31.5753
29.978
51.306
57.5259
51.9284
46.8112
41.3839
45.5445
41.9372
41.8095
49.651
44.5483
39.6662
35.7709
40.68
37.8974
36.6187
43.6933
41.2405
34.798
32.1589
37.3106
35.5069
34.8514
40.0884
37.6022
31.8467
50.1775
34.8186
33.5736
34.2093
37.2103
36.7679
51.2923
48.1479
33.4012
33.0359
34.0831
36.8115
37.2031
44.7566
36.4672
32.9147
32.2049
34.1565
37.1355
34.7055
35.1789
32.9546
31.7482
29.767
31.6682
33.4924
30.5673
32.3748
30.8041
29.182
27.9111
52.4701
59.7894
52.5729
45.1137
41.998
45.4344
41.4266
45.6895
50.1285
45.845
40.9342
38.4233
40.1381
37.6331
42.963
44.3814
42.6255
37.8345
36.5193
36.6782
35.9127
39.9891
42.6602
43.2773
36.0674
35.1248
36.0003
36.1189
39.7546
43.274
43.5829
35.0138
34.9158
36.0054
35.6725
41.4918
43.5591
42.2837
34.9044
34.1314
35.371
32.9827
36.8901
40.8719
34.9733
33.3566
29.9545
31.7442
28.3787
30.2703
33.0096
28.8051
29.0086
27.3347
27.4608
25.4878
47.4466
48.9642
43.2495
50.4137
45.763
46.664
41.7455
43.2473
41.6547
38.1669
44.7056
43.1698
40.6882
38.7099
42.4792
37.4631
36.4965
42.9371
42.7869
38.3498
37.8805
44.1954
36.5236
37.7154
43.0661
44.6703
37.9553
39.1893
47.7794
38.5183
40.6366
45.4751
48.4424
39.8255
41.1212
52.5604
41.3654
43.4491
49.7497
52.5511
41.411
41.443
58.1109
43.9524
42.7563
53.2824
52.8205
41.0717
37.8994
54.7965
41.1256
32.4594
50.6128
38.9925
36.4827
32.6501
41.6
44.9216
39.7675
44.5634
40.3056
42.1442
38.3942
36.6044
38.2507
34.7499
39.3347
37.2812
37.4752
35.3998
34.3923
33.854
31.8465
36.8375
36.0425
34.8346
33.69
35.3324
34.5384
32.7821
34.5975
33.9084
35.009
33.2889
42.0603
37.9506
39.9148
37.8929
40.3931
38.4335
42.0786
37.9383
54.9138
38.79
38.3011
37.1806
52.31
40.6698
35.5976
36.5265
32.9534
36.7564
34.7144
39.0131
36.6436
29.4755
32.1422
30.6511
33.9703
32.1933
36.2192
35.9243
39.8706
43.7144
40.4458
42.0763
38.4879
41.7706
39.1733
35.0831
39.3566
36.9838
37.5936
35.5959
38.4271
36.8177
32.0709
36.4549
34.8525
35.0391
33.7141
36.4192
35.3181
41.0918
64.8175
32.5178
38.7034
36.269
227.577
32.9466
44.6704
83.7904
40.2676
186.141
40.0078
173.019
45.4549
39.5465
32.592
31.6489
55.4289
42.0912
33.6493
33.0517
34.1846
31.2064
29.6894
40.4186
38.224
32.9767
33.0478
31.7302
29.281
28.3365
37.7979
37.101
33.1494
33.3835
40.4688
43.4521
39.8348
41.6548
39.1786
41.9621
38.3182
37.3647
38.711
36.337
38.4665
36.8936
37.2831
35.1541
35.6897
35.5604
34.9456
36.5189
35.7096
34.679
34.3375
34.5908
35.0053
34.9638
35.4989
35.0136
34.306
33.8664
34.2199
34.7669
34.2908
34.872
34.2953
33.6253
33.0935
32.8892
33.8836
31.5751
34.0147
33.0506
32.6895
31.2936
29.5293
30.5334
27.8969
32.776
32.3216
30.8444
30.0453
27.7302
27.2122
25.683
32.3089
32.5381
29.8699
29.5093
46.0009
46.6629
42.1136
53.4759
49.2389
49.2592
46.4295
43.7063
41.2215
39.6133
48.4706
47.7425
46.0042
45.2263
43.3416
39.3188
38.8776
47.6472
47.0707
45.0276
44.1892
44.9952
38.9363
39.935
46.972
47.268
44.0188
44.0598
48.4415
40.4422
41.3938
47.5764
48.4551
44.1944
44.4304
51.3958
41.5496
41.2396
48.5759
48.1284
44.5175
44.6493
49.3939
40.7884
38.0322
47.6693
45.2769
44.6056
44.3511
37.3323
37.0071
34.5852
44.0305
42.0877
44.3336
44.4576
40.7429
42.0985
38.8569
47.2611
45.3225
44.8607
43.6802
38.2563
38.1158
36.4227
44.9873
44.2004
43.4471
42.7353
37.1597
35.9334
34.7325
43.9502
42.8952
42.2863
40.9576
38.6047
35.3174
52.9096
42.6788
42.6874
40.7271
43.0337
38.9538
52.8079
48.556
42.7994
42.8507
43.4543
43.7515
37.778
46.1448
40.4066
42.9253
43.7869
43.7461
44.8535
36.0397
39.5675
38.503
44.0113
44.4723
45.4183
46.4087
34.5479
38.3429
38.2909
44.6197
44.945
46.6081
46.8504
38.9459
42.0801
39.6733
44.877
43.7605
46.2296
44.5555
36.58
39.0132
37.5775
43.5333
42.806
44.1217
43.1422
34.7601
37.2162
36.2277
42.3525
41.0136
42.8972
41.9327
53.7155
35.9276
35.5212
40.7481
42.8695
41.6938
41.3789
50.2638
35.42
34.9563
43.327
43.9617
41.3735
41.5098
41.4754
34.7743
34.6111
43.9957
45.218
41.6803
43.264
39.7655
34.7334
35.3556
45.8028
46.8188
43.7811
45.0227
39.223
35.588
35.9468
47.0066
47.1534
45.3191
45.722
39.6736
42.3573
38.5872
46.7045
44.449
46.5679
41.8238
37.5649
37.5462
35.5121
43.8861
42.7969
40.8077
39.4086
36.499
35.1079
34.857
42.6067
41.9392
39.3526
39.2337
35.8412
34.7976
34.2987
41.7473
41.4671
39.0736
38.9656
35.1908
34.1081
33.7306
41.4576
41.5651
39.0755
39.3815
34.4445
33.4089
32.4291
41.7254
42.8368
39.3257
39.6716
34.5278
32.1707
31.9016
43.1993
44.2191
39.8931
40.6999
35.0688
31.8657
31.6746
44.4863
44.931
40.8056
41.0212
51.5799
51.3459
49.483
67.834
63.499
61.7544
63.0226
50.4264
49.1943
48.66
61.875
62.1849
62.9398
62.833
49.557
48.4856
47.4963
62.5314
61.4433
62.8703
64.4887
49.2769
47.2271
47.0387
60.3301
60.8046
64.8476
65.5655
49.5268
47.0992
47.2716
60.8265
60.11
65.5373
64.9151
48.8803
47.3806
47.7583
59.726
60.4962
64.3787
63.4643
47.1385
47.8727
48.2058
60.8687
61.6864
63.6305
64.5744
45.7609
48.3442
48.4379
61.8599
61.4753
64.9299
64.6838
48.5021
47.254
47.0509
60.9822
62.5053
61.0879
62.1812
47.7929
46.9712
46.5435
62.6084
62.6061
62.2651
62.7705
46.3893
46.0919
44.7753
62.9474
65.9331
63.9835
69.1835
45.9019
44.4409
45.5926
66.63
67.7841
70.3701
72.7856
46.222
45.9829
46.6212
67.8326
67.2585
73.4024
73.4164
47.5103
46.8971
48.6935
66.4899
64.4898
72.109
67.7417
48.5497
49.2499
50.1751
64.3701
65.0931
66.9211
66.568
48.8986
50.3585
50.242
65.3894
64.7474
66.6552
65.3688
47.1457
49.1991
47.8993
61.7511
62.3918
62.8442
62.6937
46.5939
47.5258
46.6952
62.4084
62.822
62.4119
62.0207
44.8455
46.4989
45.576
64.0313
69.2198
62.4109
65.8111
45.523
45.3731
45.2212
70.38
72.6514
66.8519
68.0309
46.8002
45.2875
45.6756
73.3185
73.6046
68.3104
68.3007
48.9663
45.9893
47.608
72.3469
67.9617
67.6831
65.3772
50.4571
48.0729
49.1504
67.1374
66.7228
65.2225
65.6551
50.4645
49.3998
49.4711
66.7818
65.3185
65.8852
65.0091
47.7028
49.4608
44.2332
64.3692
62.2333
62.7263
57.7019
46.2364
43.2298
42.306
61.8021
61.3739
57.3116
57.1777
45.4809
42.372
42.2447
61.4428
63.7382
57.3629
56.8075
45.2398
42.0857
42.2802
64.5944
65.6212
57.2863
57.8436
45.6761
42.5173
42.9444
65.8598
65.8699
58.4001
58.4885
47.1005
42.952
43.6362
65.4887
64.2193
58.9402
59.8269
48.4206
43.954
44.786
64.3654
64.9912
60.3677
61.1501
48.7487
44.8877
44.8884
65.2451
64.4115
61.4211
60.5491
38.8378
35.2761
38.5507
37.0236
36.3122
35.9319
41.1712
51.003
32.5156
54.121
38.4159
38.9989
33.7938
175.63
70.2591
53.8026
71.0555
194.565
48.6751
74.3239
218.407
36.1616
35.1946
36.3826
34.7685
35.6425
33.9708
36.162
39.5814
37.5935
37.1855
40.2341
36.5809
41.6408
38.6124
53.0024
39.8503
34.7192
59.7364
34.635
182.331
42.2874
70.9034
206.113
53.9823
75.6438
73.8875
226.583
51.2478
41.5381
38.3663
39.2769
38.6213
40.2436
38.6932
39.7669
69.106
55.4107
73.9062
176.895
55.1693
72.3888
160.023
63.7786
49.0861
70.5321
83.5711
53.9558
52.4339
110.923
42.0064
38.3215
38.8973
40.7098
38.7198
42.2045
40.5727
41.3485
38.6661
38.9193
38.8206
38.8336
39.5132
40.0561
68.0705
191.663
53.4347
72.2514
71.2752
179.718
52.2883
62.7141
81.3293
45.6259
66.7803
51.5242
124.534
50.1658
44.9792
84.1055
40.1794
199.494
39.1148
213.913
45.782
33.6294
33.0942
33.8243
34.146
33.1577
33.1798
33.7938
34.1741
33.6521
33.5417
33.5061
33.45
34.4203
33.6161
41.7952
40.0829
66.8972
34.1781
220.651
33.5149
38.4667
45.988
206.925
82.8553
42.5984
219.567
46.8155
41.6039
34.1413
34.3822
34.3019
34.7348
33.5884
34.1012
34.6632
34.7726
33.9064
35.4719
34.6373
35.0396
33.9875
35.2118
43.49
82.9956
38.6598
105.655
39.6533
162.448
41.7609
34.2616
33.6347
33.1052
33.3884
33.537
34.3942
33.2466
34.0041
33.0849
32.9621
32.8661
33.3401
33.6927
33.074
45.7588
195.285
79.8127
42.6277
183.773
46.4937
42.4023
44.4319
99.9575
77.491
41.0626
163.408
42.5409
42.0681
34.8811
33.7947
35.4708
34.3058
35.0171
33.6441
35.3736
34.611
33.2235
34.9085
34.1198
34.2894
33.4531
35.1708
187.382
215.598
191.053
113.91
93.3497
109.102
91.1498
170.702
175.799
169.906
80.9892
75.7756
78.9328
72.0373
167.059
169.066
168.798
73.568
71.0165
68.7919
67.284
164.494
167.93
165.58
70.6937
70.4922
67.1242
67.304
156.727
162.224
160.233
70.7117
71.4446
67.6629
68.4385
142.127
157.612
152.931
73.1967
76.0253
70.2141
73.2923
119.426
145.299
133.162
76.4081
75.7946
75.966
76.7657
84.2517
123.776
105.521
73.3966
61.5864
76.6618
74.5717
195.683
194.57
180.219
107.768
91.1876
106.16
86.2255
142.345
292.304
305.8
171.483
143.616
170.087
273.637
96.1024
244.54
241.775
99.5715
92.7098
101.538
242.213
90.3978
251.75
250.901
86.5261
86.3989
90.4508
253.691
92.3258
262.29
261.966
88.3631
89.3374
91.5497
261.945
94.802
256.95
254.5
91.9599
93.3424
93.9513
249.385
93.236
250.682
256.349
94.4535
94.8373
93.3858
262.885
93.6681
247.665
263.215
97.6512
98.4708
93.6458
259.298
91.0988
211.439
249.881
101.96
101.555
92.4568
237.032
87.9238
99.8879
81.2055
69.2988
52.4258
55.8586
37.3935
174.015
188.408
171.35
96.7648
84.281
96.4558
84.272
122.784
231.18
260.769
147.077
122.968
146.726
229.346
83.6358
220.288
211.091
89.078
85.5794
87.5848
214.479
77.4283
226.274
217.906
81.2152
80.1541
78.7219
216.778
73.7911
218.636
212.11
77.8926
77.419
74.5207
211.099
68.518
225.934
207.827
75.8719
74.8153
70.5526
204.604
60.5203
218.373
187.025
70.8733
69.8083
61.9683
180.314
58.9104
194.66
165.449
68.9381
68.1735
59.3144
161.575
58.021
163.236
148.031
64.8092
63.0406
58.0319
140.539
79.7326
83.1679
75.8486
40.9205
32.3898
38.473
32.6078
165.646
180.334
162.898
97.6752
82.002
96.2326
81.1194
117.022
222.31
250.011
140.808
117.027
141.288
222.818
82.8629
201.879
201.56
86.4105
81.9549
87.2986
201.88
74.1811
201.364
199.62
75.1026
73.7533
75.6435
198.699
71.0506
199.721
197.828
71.4628
70.7539
71.7648
197.757
66.4667
184.639
193.918
66.7123
64.8208
67.9377
190.386
60.9993
154.318
173.317
59.9725
59.7536
61.967
166.066
63.9591
132.656
147.49
63.2104
63.8693
63.1195
143.439
62.494
129.782
138.809
63.0298
61.3422
63.6958
138.698
79.3144
98.0932
92.6617
38.0207
31.9367
37.982
32.2188
164.37
192.191
180.249
92.1561
81.6564
97.6518
94.418
124.87
229.701
264.522
141.753
121.37
144.225
237.534
88.3247
187.321
192.764
90.3052
85.3456
94.1077
187.311
78.9249
184.443
187.536
78.7067
78.7089
79.5121
187.505
78.1072
184.168
184.293
77.7532
76.0084
78.6921
184.675
77.248
199.656
191.305
73.3567
73.4414
77.357
193.477
78.7449
208.627
203.196
74.121
74.8734
77.688
203.224
80.5172
181.65
195.459
76.1997
75.2849
80.5804
183.707
65.8783
146.893
146.715
69.4774
64.4879
72.6734
144.603
94.3174
96.8898
90.5767
36.3602
30.6088
36.4824
30.8983
146.835
174.119
150.113
92.0165
72.1518
93.3644
72.328
132.399
145.259
136.078
62.8455
58.6285
65.3999
64.0213
119.48
125.819
114.795
54.9112
52.6773
59.7487
54.5882
107.813
105.87
99.2006
52.1125
51.7766
52.4601
51.7173
97.1652
92.7336
86.4978
50.5445
49.4978
49.4044
46.6657
87.2617
85.2932
83.7123
48.3328
46.4008
45.2793
44.6687