/*--------------------------------*- C++ -*----------------------------------*\
  =========                 |
  \\      /  F ield         | OpenFOAM: The Open Source CFD Toolbox
   \\    /   O peration     | Website:  https://openfoam.org
    \\  /    A nd           | Version:  10
     \\/     M anipulation  |
\*---------------------------------------------------------------------------*/
FoamFile
{
    format      ascii;
    class       volScalarField;
    location    "10";
    object      omega_0;
}
// * * * * * * * * * * * * * * * * * * * * * * * * * * * * * * * * * * * * * //

dimensions      [0 0 -1 0 0 0 0];

internalField   nonuniform List<scalar> 
12920
(
114.884
150.871
145.228
133.368
121.47
112.325
97.4218
88.3803
81.155
73.5781
64.5759
56.4318
50.6114
46.7874
44.3162
42.5704
41.3947
40.5133
40.1776
39.3863
142.402
152.87
144.905
133.924
122.701
120.057
110.744
104.845
94.1928
83.1745
70.9012
61.3966
56.4295
54.9109
54.5969
54.731
55.0752
55.6521
56.3742
56.8481
124.667
123.789
104.643
108.327
110.798
107.939
93.7739
80.4079
69.181
64.4712
59.4036
57.6923
56.0295
55.5612
55.441
55.403
55.4341
55.2811
55.1386
54.6528
114.708
172.011
162.639
137.993
113.636
97.7437
83.6872
74.5626
66.8767
61.7304
57.2101
54.6028
52.5169
51.2775
50.4832
49.9155
49.5721
48.9693
48.7697
48.3587
136.885
218.379
216.574
175.729
132
108.516
99.9222
91.099
86.8018
78.7708
70.7746
62.4032
55.7624
51.2312
48.7284
47.3889
46.5968
46.0637
45.9199
45.802
157.336
156.356
153.473
133.849
122.698
120.297
114.991
112.147
108.47
106.235
100.583
86.1557
69.3407
55.5507
48.4184
45.5092
44.1439
43.4816
43.3984
43.5974
305.229
162.476
128.407
120.603
120.9
119.445
114.299
110.038
106.182
102.881
97.8534
87.6709
71.9835
56.468
48.5779
45.1016
43.276
41.9977
41.369
41.1847
305.754
267.36
182.157
143.143
136.488
134.663
214.621
174.333
169.381
166.033
161.452
149.58
133.819
106.034
55.1502
50.5123
47.5983
44.4966
42.5694
40.6517
445.675
295.986
220.753
167.798
139.747
199.566
342.171
247.156
249.609
261.559
260.373
250.575
251.352
227.773
106.87
54.9521
51.3153
47.7146
45.5671
42.1344
290.226
208.204
166.846
150.428
132.027
190.611
262.976
215.953
226.856
221.742
223.323
223.49
202.273
175.026
89.886
53.3688
50.1454
47.8838
46.7724
44.0676
280.678
225.837
151.857
132.196
122.555
188.13
251.835
201.121
201.625
200.98
190.48
162.17
136.316
129.833
89.8066
58.1547
55.1408
52.1621
50.4007
46.0917
238.628
228.731
186.574
142.085
122.444
177.01
258.247
191.135
186.673
181.719
195.983
209.033
195.154
148.57
100.378
60.4556
57.4532
53.7146
49.8087
43.7696
232.609
204.052
194.496
157.263
132.464
117.107
167.79
138.621
125.244
113.711
101.844
91.7574
85.3138
85.8741
55.581
52.0645
49.0918
45.783
42.9486
40.0309
110.319
199.231
203.361
178.604
140.601
119.153
101.091
89.23
77.4512
70.2645
64.0694
60.2197
56.6269
53.2828
50.1795
47.3494
44.9521
42.9381
42.0479
40.4825
32.3639
143.913
187.009
176.154
134.902
114.179
100.989
95.1765
86.0263
80.9198
73.8373
68.0048
62.4232
57.7281
53.1774
49.347
46.4847
44.5835
43.9845
43.1703
145.84
219.112
218.822
174.798
133.769
122.139
114.658
108.916
97.7875
89.3112
79.6713
71.8442
65.3225
60.6589
56.4656
52.9204
50.4115
48.2525
47.4121
46.1233
152.237
205.144
181.548
145.905
132.861
128.417
115.202
104.592
92.4328
83.7063
74.7476
67.2572
61.1677
57.0275
53.9727
51.5449
50.0212
48.627
48.0498
46.8114
255.929
229.306
186.61
150.849
126.813
118.205
105.836
98.3506
88.5563
80.6966
71.767
64.4191
59.0729
55.5229
52.9977
50.5571
48.8275
47.3294
46.7923
45.9382
264.093
289.939
232.415
165.837
124.17
104.649
92.1488
85.1842
77.6615
71.3285
65.3935
61.4653
58.9546
57.2642
54.8884
51.958
49.1636
46.5707
44.8391
44.1917
97.1265
130.688
128.701
121.612
98.2374
83.4495
75.917
71.4778
66.2252
60.7539
55.4103
51.3073
48.4681
46.4213
44.9816
42.7244
40.992
38.5602
37.2357
33.7873
119.286
77.624
74.6517
74.0334
66.3219
59.4589
53.8699
49.8467
44.3174
38.6641
33.073
29.5985
27.6822
26.7402
25.8288
25.0243
24.2885
23.743
23.6224
23.3611
187.156
134.019
99.7462
78.1556
65.9346
61.7686
56.2563
55.2017
53.1643
52.0946
48.7181
40.366
33.7967
30.3717
28.7871
28.2711
28.2245
28.3493
28.5465
28.8487
403.783
278.171
134.008
99.8859
76.2101
65.5972
54.3113
43.9372
36.4395
32.8218
30.3902
29.1202
28.0141
27.1425
26.7449
26.5703
26.5703
26.5717
26.6125
26.7422
169.964
125.431
104.625
75.1004
61.1739
52.1631
44.4413
37.6078
33.8207
31.4516
30.1393
28.9143
28.0292
26.4417
25.2357
24.3386
23.9718
23.7167
23.6245
23.5642
235.896
153.607
131.139
93.0385
67.8724
55.5648
50.3527
45.5169
43.6666
40.3467
38.967
36.3152
33.7158
28.9443
25.4976
23.4938
22.7679
22.5517
22.5615
22.6725
224.179
144.456
108.446
81.663
69.8084
63.1831
58.317
56.809
55.4704
56.0264
55.9191
55.3693
50.8377
37.327
27.4435
22.9885
21.4572
21.0876
21.087
21.4373
275.466
118.091
90.8162
77.1498
70.313
64.259
58.529
57.0199
54.9774
55.4341
56.5613
57.4043
54.8934
41.4385
28.8951
23.255
21.2517
20.5807
20.4567
20.6418
274.005
168.185
116.055
87.2598
74.1745
65.0871
69.8053
61.2128
56.8023
55.5174
55.9192
58.2026
62.0111
62.4039
42.9854
27.5669
23.253
21.7864
21.3396
21.0773
201.35
161.828
126.342
90.8079
69.5041
68.0544
67.5308
56.7606
49.4505
48.4292
50.3558
52.6836
55.4516
59.7024
59.8561
26.3118
24.7609
23.8405
23.3991
22.5196
230.877
126.342
89.1726
73.8557
62.7667
63.7118
60.7849
49.7277
41.7198
38.5824
38.2818
39.1451
42.1784
42.5639
31.5457
27.5925
27.5131
27.2517
26.7089
24.9904
157.301
147.717
92.4383
76.6995
64.3284
62.8001
58.9927
48.4493
40.352
35.5298
34.9134
33.9747
34.3422
33.8117
30.5463
28.9394
28.9803
28.8764
28.5345
26.3641
240.959
129.731
89.9582
69.274
57.9176
58.4296
57.346
50.5076
44.8282
42.1679
39.7642
40.1376
41.4932
34.6018
28.4
26.3881
26.6443
26.5104
26.1131
24.0315
244.16
143.496
105.821
76.6586
60.6879
53.074
53.5495
46.2933
41.264
40.0649
39.0552
37.2652
33.5118
30.0043
25.3539
24.4273
23.6929
22.8366
21.8895
20.4002
161.465
145.319
115.114
90.1691
71.2399
64.7121
51.8113
44.1026
38.0211
34.7338
32.471
30.8286
29.2494
27.6149
25.9299
24.026
22.4863
21.3847
20.7921
20.0355
81.5306
131.237
121.882
98.2947
81.1024
71.5521
60.2638
51.77
43.0987
38.5264
34.818
32.3581
30.2328
28.6857
27.2504
25.5245
23.7949
22.4329
21.906
21.508
200.041
150.388
125.614
92.992
75.7499
68.4206
61.1959
55.2742
48.3893
43.3944
38.9224
35.1107
32.0972
29.6385
27.8693
26.4471
25.4717
24.4752
24.0424
23.4393
283.347
137.774
100.327
80.584
68.5705
62.8073
55.5557
50.6867
45.4844
41.5064
37.4982
33.6639
30.4566
27.8994
26.3113
25.1887
24.5961
24.1902
24.0703
23.7752
177.9
149.272
104.623
81.2483
67.3763
61.1766
54.5462
49.9353
45.2684
41.6679
37.8894
34.0779
30.7048
27.8831
26.1888
25.1673
24.6488
24.2908
24.1663
23.8644
210.256
213.072
144.649
98.2741
80.1441
70.7658
62.8826
55.1326
48.4251
42.7792
37.8169
33.9818
31.4661
30.0927
29.103
28.3425
27.7233
26.9065
26.4053
25.2208
123.804
99.56
80.4039
68.4488
51.9024
46.4773
43.3434
41.385
38.1381
34.8609
31.7375
29.8202
28.6746
27.9533
27.2498
26.2267
25.1665
23.9367
23.1877
21.0583
136.788
95.6129
94.1879
80.2685
68.3073
59.9608
53.8296
49.0043
43.5706
38.577
34.6989
32.889
31.8118
31.0039
29.9871
28.9179
28.0397
27.1235
26.6765
25.8306
199.761
123.88
88.6754
66.7025
54.8233
49.7954
44.5915
44.1945
42.7457
41.4585
37.6777
34.4707
31.678
30.6615
30.2533
30.3639
30.6792
31.2493
31.5755
31.6495
205.46
147.603
108.2
76.3533
57.5641
48.4969
39.4735
34.6117
30.6381
29.2307
27.7654
27.1701
26.4931
26.2819
26.2884
26.4248
26.5957
26.7094
26.7816
26.8528
235.218
132.142
100.081
67.4368
50.7469
41.342
35.8146
31.6187
29.3291
27.7134
26.7857
25.9608
25.2769
24.5158
23.9646
23.6639
23.511
23.399
23.3256
23.3038
173.439
163.428
122.616
77.741
56.2954
45.7406
41.8863
37.6678
35.8101
32.8303
31.1394
28.8001
26.8469
24.8143
23.3333
22.5335
22.1999
22.1272
22.1347
22.2215
147.292
129.153
95.2385
69.8854
59.1817
52.9934
48.3896
46.4007
44.5914
43.6398
42.3104
39.219
33.6255
27.4843
23.5567
21.7619
21.1247
20.9978
21.0294
21.3113
175.618
122.727
84.9346
66.3838
59.4758
53.4876
48.6212
47.1183
45.7244
46.1767
46.4047
45.7139
39.629
29.5708
24.0293
21.6968
20.86
20.6291
20.6193
20.8138
316.764
148.47
100.239
77.7887
64.4681
55.5687
53.6332
49.3014
46.9688
47.2971
48.5821
52.5113
55.5544
54.4031
30.6215
24.312
22.468
21.6649
21.3915
21.2164
127.638
141.904
105.336
75.0694
58.254
53.8638
52.4354
46.0017
42.9485
42.7249
45.1383
49.1332
54.1196
59.3379
36.8626
26.3358
25.1995
24.0554
23.4579
22.5668
581.834
182
80.481
62.1823
52.8081
49.9715
46.8952
40.1395
35.8396
34.3508
37.3302
38.3789
37.8154
34.333
28.2816
29.8533
29.2993
27.668
26.3758
24.4681
236.165
166.488
84.3547
61.2654
51.2812
47.7639
44.8789
38.4278
34.2628
32.1015
88.0493
57.0638
37.4648
33.5398
31.6321
31.4884
30.5158
28.7909
27.3394
24.8371
116.861
140.065
94.0398
58.083
48.7523
45.1896
43.4135
39.5789
36.8915
35.3695
34.5211
34.1133
32.1407
28.8748
27.6214
27.4712
26.7304
25.7285
24.7278
23.0078
324.041
185.879
116.864
74.1568
54.833
45.683
41.5022
36.8628
33.75
32.898
31.5677
29.963
27.6198
25.9007
24.5117
23.5106
22.7716
22.055
21.3878
20.8214
135.349
123.459
112.588
86.16
63.3922
53.4077
42.202
36.3866
32.1362
29.6587
28.0235
26.7039
25.5116
24.3091
23.2228
22.1588
21.3417
20.8135
20.4539
20.2592
208.39
165.659
115.163
80.3453
65.1478
58.1372
47.8042
42.2667
35.7115
32.5186
29.6346
27.8109
26.284
25.0487
23.9454
22.9036
22.0591
21.4956
21.2789
21.1284
151.578
152.508
115.21
81.2888
66.1116
59.3517
51.1459
45.2901
39.3523
35.5882
32.0838
29.5799
27.5434
25.9953
24.8524
24.008
23.4448
22.9896
22.8026
22.5456
313.384
140.863
91.0277
68.1888
58.404
51.3913
45.3955
41.5945
37.5543
34.8195
31.6171
29.0825
26.8773
25.3739
24.3825
23.7719
23.4747
23.326
23.2826
23.1892
212.853
142.971
89.8591
66.6015
55.7547
50.1115
44.4874
41.5862
37.885
35.4856
32.3597
29.9294
27.6535
26.1385
25.1127
24.5498
24.2622
24.1484
24.132
24.0901
240.776
173.643
109.266
81.5861
64.3939
58.4178
49.8072
44.9575
39.5509
36.5987
33.4868
31.8144
30.2588
29.4055
28.6092
28.0268
27.466
26.9217
26.5494
26.0623
90.0806
94.3302
83.5999
71.0516
57.7201
52.383
48.7256
45.4224
41.4306
37.6365
34.5232
32.3939
30.9169
29.6628
28.5921
27.421
26.4039
24.9544
23.9886
22.031
120.572
119.289
105.379
81.0404
66.4555
55.4253
49.8353
44.0517
39.8861
36.9451
35.0452
34.0565
33.2059
32.1509
31.1448
30.0406
29.4348
28.587
28.1565
27.1147
269.904
152.075
97.12
66.1326
56.3993
46.3139
43.7511
41.3343
40.7012
39.5486
38.5192
38.169
38.1414
38.6879
39.2738
39.9647
40.5338
40.9992
41.141
41.1227
279.458
147.1
105.098
67.474
55.3288
43.0026
38.4674
33.5068
32.5778
31.2499
31.4408
31.2558
31.6064
31.9402
32.5832
32.9887
33.3667
33.4706
33.4888
33.3783
242.467
164.314
98.0679
63.408
51.2154
39.6578
36.9626
31.8132
31.186
29.2736
29.4143
28.8675
29.0883
28.9967
29.189
29.2162
29.2602
29.211
29.1234
29.1382
149.258
148.477
110.802
69.3375
56.4016
43.6844
41.8148
35.8434
34.6928
31.2505
30.7411
29.189
28.8767
28.1946
28.0663
27.9005
27.8772
27.8844
27.8994
28.0286
212.597
114.714
88.5081
64.3458
59.4427
49.7689
47.7612
42.9458
41.2061
37.5953
35.8005
32.6597
30.6651
28.6579
27.7492
27.2076
27.1034
27.0831
27.1358
27.4193
247.467
149.631
92.0173
63.8841
60.4848
50.9679
48.1639
44.2117
43.1683
40.9811
40.0072
36.7693
33.0848
29.3776
28.0046
27.2339
27.0494
27.035
27.0853
27.3627
336.325
178.325
95.2738
72.0366
64.4242
53.8584
51.3884
47.5244
45.1163
45.4523
45.7493
48.7259
47.4162
39.9346
32.5948
29.9109
28.8504
28.2499
28.0008
27.9734
315.373
141.169
95.9516
67.7364
56.8578
52.2427
50.5385
45.1052
43.5431
43.6799
45.7991
49.6664
51.6698
46.5257
35.0331
34.257
32.0283
30.5692
29.7662
29.2273
231.289
128.494
80.521
59.3251
51.9159
47.6218
44.593
39.9698
37.9282
37.1963
39.0758
38.6377
37.477
35.5899
36.5441
37.8261
35.2292
33.029
31.7678
30.7117
192.996
156.59
91.8398
58.0415
50.0487
44.7513
42.1009
38.2602
36.1248
35.055
53.7979
47.7095
40.7514
39.6695
40.0382
38.8201
36.0932
33.6211
32.0281
30.812
151.537
141.878
99.0641
57.2804
49.8159
44.0082
42.1277
39.0566
37.2747
36.3451
35.7428
34.9966
34.4103
34.7023
35.9978
35.0112
32.7348
31.0734
30.0174
29.5317
248.148
160.676
128.794
76.7304
59.0493
46.0601
40.8975
36.1185
33.8464
32.9504
32.109
31.481
30.8748
30.8439
30.8633
29.2731
28.4141
28.008
27.823
27.9816
155.837
149.281
121.998
84.4947
64.5542
50.2774
41.3511
35.7746
32.989
30.7949
30.0366
29.0787
28.6211
27.9544
27.5226
27.0422
26.828
26.7845
26.7903
27.1037
161.912
157.3
103.96
71.532
62.7762
52.1761
45.4339
40.1218
35.7583
33.063
31.2536
29.9339
29.0766
28.2572
27.7132
27.2918
27.1404
27.1427
27.1681
27.3724
286.37
164.628
104.614
73.3343
64.8736
54.5679
48.8366
42.527
38.8025
35.5406
33.3725
31.5519
30.4042
29.4457
28.8951
28.5275
28.4069
28.3919
28.377
28.4687
357.863
132.397
92.183
62.3603
57.4484
47.2926
44.6445
40.1159
38.1635
35.584
33.5896
31.7269
30.4649
29.558
29.1421
28.9677
28.9964
29.1372
29.2106
29.4174
231.342
169.872
99.2372
61.7644
55.185
46.6517
44.6033
41.3151
39.6203
37.4953
35.4718
33.7102
32.3022
31.3444
30.8283
30.6049
30.6069
30.753
30.8731
31.1249
268.793
152.443
90.725
66.0284
59.4522
52.1069
47.6781
44.5098
41.7499
40.1751
38.4284
37.4919
36.4194
35.7479
35.0542
34.625
34.2861
34.1708
34.117
34.3585
78.4661
86.0867
76.9256
63.5414
56.1128
51.9752
48.6156
44.8471
40.9483
37.4581
34.8178
32.6667
30.9076
29.1645
27.773
26.3606
25.3188
24.1006
23.4424
22.3893
109.243
130.992
111.445
79.8664
61.8496
49.4793
44.0066
39.2822
36.8171
35.3045
34.3093
33.337
32.456
31.4492
30.6242
29.6323
28.6252
27.2135
26.3304
25.0411
210.949
170.624
113.684
79.5664
70.2874
52.5093
54.7378
44.8115
49.0109
44.6085
49.0174
47.8548
51.0693
50.6744
52.325
51.9726
52.3167
51.7725
51.5609
51.1658
216.737
170.254
122.686
70.9262
68.3861
47.8731
49.1232
39.115
41.6551
37.4141
40.3308
38.633
41.1429
40.6411
42.2857
42.0167
42.7013
42.4256
42.3444
42.0325
591.169
266.113
104.403
75.2424
61.3084
49.2491
46.993
38.7796
39.4722
35.4921
37.3823
35.8627
37.9287
37.4588
38.653
38.2506
38.6493
38.3871
38.285
38.2658
267.272
138.174
113.558
70.1206
67.501
48.1564
50.6922
39.469
40.9513
35.3602
37.1338
34.973
37.0676
36.38
37.6797
37.1004
37.5652
37.3492
37.3565
37.4828
184.788
132.353
92.1691
71.0049
66.5598
53.2806
53.7396
44.3722
43.8733
37.9575
38.0324
35.7633
36.9879
36.6673
37.2914
36.8436
36.9627
36.8483
36.8235
37.1635
346.539
167.547
108.813
69.5932
71.8276
53.1511
55.0235
45.7241
46.2428
40.3579
40.4364
37.0198
37.8675
36.8921
37.7583
36.8918
37.1856
37.0133
37.0586
37.4199
327.253
206.419
103.794
76.6224
71.4889
58.1052
55.5467
50.0307
49.1663
46.4716
46.1785
44.7216
43.8897
41.7815
41.7983
39.7288
38.7931
38.4079
38.1555
38.3214
396.976
153.058
98.9023
67.8986
64.2992
55.6726
55.9266
50.8774
50.4815
49.2951
49.4785
49.4384
48.5966
46.5509
46.8648
42.9384
40.8415
39.8461
39.4955
39.4803
193.349
124.591
85.2625
67.9879
56.7141
50.5854
49.3965
48.348
47.605
46.1349
46.0025
46.4867
47.8526
48.8213
49.0074
44.913
42.5378
41.4084
40.9066
40.6258
257.997
160.365
103.543
64.3869
60.3082
48.966
47.3898
47.0774
46.1733
44.5352
45.9581
47.1373
49.5906
50.6863
50.0483
45.6061
43.1134
41.6925
40.9728
40.6487
185.189
149.029
98.7113
62.6619
57.9609
49.6417
49.9417
47.1995
46.137
45.3569
45.3458
45.9769
47.508
48.7017
48.0331
43.246
41.0781
39.9383
39.454
39.5476
316.317
159.493
131.304
74.3116
73.1828
54.1299
46.6636
41.1971
40.5113
39.4737
40.3208
40.5152
41.7658
42.2442
40.3855
38.6418
38.0018
37.8836
37.7556
38.2471
355.639
179.277
136.989
77.8113
75.7151
52.5985
47.9013
41.0379
39.3333
36.9071
37.3733
36.5599
37.1918
36.8346
36.9363
36.6148
36.7377
36.7579
36.7909
37.3707
259.934
139.384
111.092
68.3541
73.0676
52.6025
53.0353
43.2585
41.996
38.1908
38.151
36.8853
37.125
36.6016
36.7748
36.7116
36.9638
37.1777
37.1774
37.569
224.52
132.767
110.323
68.1517
73.6009
54.1495
55.4938
45.2088
45.6311
40.8531
40.9695
38.7153
38.9244
37.8993
38.1391
37.8632
38.1793
38.2646
38.2713
38.4891
303.473
143.464
99.5251
64.087
67.2008
48.7435
53.0081
43.416
46.0417
41.104
41.8439
39.2293
39.479
38.375
38.6737
38.4629
38.8595
39.0711
39.1617
39.544
311.206
211.649
118.537
65.9055
69.3683
49.9415
56.4428
46.4199
49.8778
44.4458
45.3197
42.2443
42.3606
40.8631
40.9936
40.533
40.8989
41.0332
41.1529
41.5213
315.734
234.432
121.931
70.3394
79.6946
53.945
63.4273
51.1439
55.764
49.8821
51.565
48.3852
48.6576
46.8428
46.7639
46.0269
46.1951
46.2772
46.3937
47.0439
81.6809
93.5701
68.1446
57.3401
52.8267
48.4468
44.6268
40.7602
37.724
34.7981
32.1886
29.4789
27.4008
25.7568
24.726
23.85
23.3703
22.7511
22.476
21.9532
36.3711
32.7321
75.0639
36.0931
38.086
34.9586
76.074
38.5226
75.0067
63.447
38.6654
38.7485
74.3012
58.8532
89.0215
34.3089
33.398
34.0987
84.5416
35.0111
34.5916
68.8414
33.2633
32.8215
82.9899
64.6863
34.4825
33.925
250.469
272.566
224.543
80.691
67.0833
72.789
61.4026
246.623
226.206
236.989
63.2161
54.8887
57.9502
50.2115
258.091
238.44
238.633
53.9396
52.8265
48.5814
46.2041
261.905
237.039
229.353
52.9676
54.3954
46.089
46.2177
250.965
231.253
248.864
55.2235
56.9871
46.1929
46.0424
252.605
251.187
245.193
57.4045
58.7844
46.252
49.3272
238.193
238.005
223.048
59.7308
62.6849
50.8357
53.1832
174.034
215.35
148.491
63.6124
69.9092
53.5854
49.5829
214.033
257.37
204.724
71.0512
59.2803
70.207
58.2996
226.255
203.224
205.011
55.6448
48.1614
54.4252
46.1288
224.731
204.828
204.077
46.5292
43.5181
44.3286
40.3614
219.631
203.006
195.655
43.0877
42.3202
39.3925
37.7446
226.192
190.548
167.419
42.041
41.4624
37.4103
35.9834
208.569
157.508
133.539
41.5737
43.7126
35.7281
36.5706
181.304
128.441
121.586
44.5307
45.291
37.1381
37.8724
130.659
121.246
108.894
45.1977
41.0386
37.7926
34.3571
201.387
252.68
198.383
69.2304
58.1706
68.2253
58.9251
202.524
193.896
192.547
54.4777
46.5099
55.8623
49.3445
201.506
189.747
185.471
44.8017
40.8837
48.3847
45.7755
194.906
187.841
197.201
39.7706
37.7408
44.4357
41.5971
170.211
199.428
203.983
37.3124
35.9895
41.1328
40.4706
140.928
203.772
190.593
35.8453
36.9345
40.4886
41.0333
129.964
180.449
151.676
37.4598
37.6634
41.0476
39.1208
115.512
147.995
136.226
37.3067
33.9701
37.6749
33.3162
198.644
308.585
227.875
68.411
59.873
76.9813
61.4716
186.959
219.385
206.412
57.0223
50.6977
57.8154
52.219
181.245
205.052
195.591
49.6502
47.8705
50.412
47.7831
192.499
193.061
188.178
46.8634
44.1541
47.7255
48.4188
208.046
184.776
175.817
43.7997
43.7354
48.4473
48.7777
203.878
171.247
159.667
44.034
46.2414
48.7868
47.8206
154.523
153.83
139.709
46.4485
42.4908
46.7093
40.2116
136.59
139.944
127.865
39.5881
33.1371
37.7687
31.7139
59.8742
62.4667
54.5964
54.3047
49.0002
50.8114
44.7882
50.3408
51.8071
45.0611
47.2886
44.001
42.9883
38.8408
48.3696
43.5836
41.4115
43.5746
43.0195
37.9699
36.7448
49.6151
41.3056
41.6531
43.1474
44.5726
36.7452
37.7319
52.1422
41.8702
42.6191
45.3916
47.8998
38.4666
40.6176
54.481
43.1366
46.5262
48.991
52.2508
41.437
44.1739
58.5741
48.0593
50.8314
53.6091
57.9293
45.0591
45.193
67.9211
51.2055
46.1258
59.7818
60.2147
43.975
34.2214
52.57
59.9073
51.3967
48.7063
43.0525
47.0649
41.3246
43.225
48.3503
41.4155
41.3506
37.2357
39.552
35.4203
38.9626
39.8102
36.08
36.2762
34.5699
34.3763
31.8247
38.2191
35.1359
34.8862
34.4249
35.8218
31.9119
48.7106
38.786
35.162
34.664
36.7503
38.2266
50.3626
48.5622
41.4009
34.3396
34.2516
38.2739
38.6536
45.1959
36.4738
42.8417
34.4692
34.5226
38.722
37.1278
35.0031
32.3355
37.7663
34.2444
31.9521
35.9369
30.2662
31.6039
30.0055
51.3798
57.6089
52.0031
46.9013
41.4241
45.6204
41.9865
41.8492
49.7153
44.6086
39.7012
35.8005
40.7247
37.943
36.6387
43.7577
41.278
34.8253
32.1686
37.3572
35.5409
34.8475
40.119
37.6333
31.8466
50.0434
34.8487
33.5999
34.2274
37.2439
36.8074
51.2105
48.2073
33.4282
33.0643
34.1329
36.8521
37.24
44.8179
36.5322
32.943
32.2277
34.183
37.1682
34.6944
35.2423
33.0027
31.7649
29.7736
31.6787
33.4832
30.5786
32.4173
30.8366
29.1886
27.9192
52.5478
59.7857
52.6758
45.1657
42.0504
45.4777
41.4984
45.7564
50.2242
45.9127
40.9836
38.4729
40.1995
37.6924
43.0222
44.4464
42.6942
37.8851
36.5652
36.7315
35.9667
40.0326
42.7291
43.3478
36.1095
35.1658
36.0556
36.1749
39.8108
43.3465
43.6541
35.0555
34.9596
36.0647
35.7215
41.548
43.6328
42.3392
34.9471
34.1588
35.4206
33.003
36.8496
40.9155
34.9563
33.3712
29.9494
31.7621
28.3774
30.2773
32.9959
28.8115
29.0058
27.3423
27.4602
25.4899
47.4969
48.979
43.2844
50.4733
45.8138
46.6741
41.7822
43.309
41.693
38.208
44.7609
43.2348
40.7293
38.7567
42.56
37.5066
36.5525
43.0048
42.8615
38.398
37.9367
44.2996
36.5819
37.7811
43.1417
44.7692
38.0123
39.25
47.9049
38.5871
40.7135
45.5773
48.5614
39.8863
41.1769
52.7075
41.4487
43.5437
49.8677
52.6761
41.4631
41.4765
58.283
44.0351
42.761
53.3927
52.8528
41.0888
37.8718
54.5998
41.0852
32.349
50.573
38.8354
36.446
32.6351
41.6323
44.9778
39.805
44.5577
40.3389
42.1946
38.4296
36.6388
38.2846
34.7771
39.3718
37.321
37.5097
35.432
34.4342
33.8789
31.8554
36.8781
36.0879
34.8657
33.7069
35.3274
34.5755
32.804
34.6367
33.904
35.0491
33.3119
42.0922
38.0005
39.9284
37.9391
40.4128
38.4798
42.1112
37.9851
55.0324
38.8664
38.3301
37.1943
52.4893
40.7641
35.5862
36.5936
32.9985
36.763
34.7067
39.0938
36.7047
29.4189
32.1798
30.6834
33.9609
32.1974
36.2751
35.9786
39.9074
43.7797
40.4917
42.14
38.5238
41.8298
39.218
35.1118
39.399
37.0273
37.6282
35.6291
38.4711
36.8624
32.0756
36.4988
34.8859
35.071
33.7352
36.4631
35.3573
40.8562
64.7086
32.5235
38.6036
36.1471
228.209
32.938
44.6019
83.9694
40.2236
186.231
39.9773
173.028
45.3661
39.6453
32.6162
31.6681
55.6473
42.2078
33.6742
33.0769
34.2481
31.222
29.6996
40.5192
38.2992
33.0025
33.0761
31.7655
29.291
28.3432
37.8658
37.1564
33.1778
33.4108
40.5175
43.4772
39.8918
41.7006
39.2258
41.9946
38.3786
37.4114
38.7668
36.3859
38.5129
36.9402
37.3372
35.1977
35.7331
35.611
34.994
36.5649
35.7527
34.7262
34.3801
34.6301
35.0544
35.0136
35.5413
35.0525
34.3504
33.9079
34.2578
34.8179
34.33
34.9088
34.3253
33.6669
33.1233
32.9089
33.9225
31.5896
34.0419
33.072
32.7198
31.3133
29.5305
30.5471
27.898
32.7971
32.3449
30.8657
30.0617
27.7376
27.2146
25.6844
32.3329
32.5676
29.8886
29.5266
46.0538
46.6753
42.1516
53.5294
49.2949
49.2724
46.4649
43.7688
41.2639
39.661
48.5332
47.8018
46.0437
45.2669
43.4124
39.3675
38.9331
47.7048
47.1239
45.0667
44.2293
45.0871
38.9924
39.9928
47.0263
47.3179
44.058
44.0955
48.5507
40.4988
41.4433
47.6256
48.5054
44.2275
44.4605
51.5018
41.593
41.2639
48.6247
48.1607
44.5446
44.6768
49.3989
40.7998
38.0209
47.6924
45.2788
44.6335
44.391
37.2417
36.9939
34.5903
44.0417
42.1197
44.3762
44.5183
40.7773
42.1468
38.8925
47.2599
45.3532
44.8874
43.7066
38.2977
38.1512
36.4574
45.0215
44.2367
43.4767
42.77
37.206
35.9678
34.757
43.9864
42.933
42.3229
40.9947
38.6473
35.3152
52.9087
42.7158
42.7164
40.7593
43.0553
38.9862
52.8461
48.6881
42.8277
42.8805
43.4848
43.8024
37.7932
46.2534
40.4864
42.9541
43.8226
43.8013
44.9104
36.0487
39.6409
38.5679
44.0504
44.5208
45.4772
46.4725
34.5637
38.4052
38.3432
44.6707
45.0074
46.6714
46.9183
38.9823
42.1385
39.7187
44.9026
43.7868
46.2651
44.5942
36.6158
39.0582
37.623
43.5629
42.8418
44.1623
43.1836
34.7889
37.261
36.27
42.3901
41.0522
42.9392
41.9745
53.6433
35.9681
35.5544
40.7829
42.8921
41.7348
41.4158
50.3879
35.4519
34.986
43.3585
44.0125
41.4101
41.5502
41.5691
34.8038
34.6423
44.0515
45.2773
41.7212
43.3089
39.839
34.7668
35.3948
45.8638
46.8829
43.8299
45.0768
39.2758
35.6277
35.9773
47.0694
47.2193
45.3729
45.7807
39.7219
42.3977
38.6491
46.7378
44.4933
46.6007
41.8735
37.6129
37.6011
35.5554
43.9304
42.838
40.8545
39.4328
36.5437
35.1538
34.899
42.6473
41.9825
39.3877
39.2672
35.8815
34.8424
34.3382
41.7889
41.5051
39.1132
38.9939
35.2236
34.149
33.7624
41.4954
41.6049
39.1097
39.4141
34.4734
33.4422
32.4562
41.7648
42.8812
39.3662
39.7048
34.5626
32.1995
31.9291
43.2462
44.2705
39.933
40.7375
35.1019
31.8949
31.6943
44.5372
44.9926
40.8493
41.0664
51.6336
51.3612
49.5151
68.5753
64.1023
62.004
63.5121
50.4855
49.2311
48.6969
62.3185
62.7691
63.414
63.3377
49.6076
48.5207
47.5316
63.0987
62.0544
63.3698
65.0118
49.3189
47.2612
47.0679
60.8083
61.3861
65.358
66.0777
49.5688
47.1266
47.302
61.3542
60.6011
66.0267
65.3319
48.9129
47.4124
47.7978
60.1198
60.9409
64.7632
63.8218
47.1644
47.9141
48.2577
61.2694
62.1266
63.9859
64.9714
45.8031
48.3972
48.4988
62.2816
62.0742
65.3367
65.23
48.528
47.2694
47.0663
60.7983
62.9525
61.1794
62.6135
47.8243
46.9917
46.5711
63.0593
63.0855
62.6854
63.2138
46.4231
46.1244
44.8126
63.4251
66.4461
64.4271
69.6907
45.9285
44.4738
45.6182
67.1408
68.2917
70.8921
73.3177
46.2535
46.0142
46.6683
68.3181
67.6847
73.9257
73.906
47.5556
46.9464
48.7489
66.8927
64.869
72.5828
68.1929
48.6062
49.3081
50.2382
64.7445
65.5047
67.3644
67.0195
48.9607
50.4201
50.3048
65.815
65.3248
67.1149
65.9369
47.1584
49.2288
47.9269
61.762
62.8412
63.154
63.1129
46.6219
47.5569
46.7266
62.8388
63.2621
62.8089
62.4332
44.8847
46.5332
45.6152
64.4703
69.7217
62.8192
66.2464
45.5508
45.4117
45.2573
70.8968
73.1833
67.3099
68.5119
46.8479
45.3238
45.7171
73.8524
74.1204
68.798
68.7881
49.0223
46.031
47.6558
72.8436
68.4278
68.173
65.847
50.5192
48.1235
49.2047
67.5931
67.1813
65.6907
66.1372
50.5273
49.4533
49.527
67.2492
65.9019
66.378
65.6077
47.7375
49.5211
44.2797
64.5388
62.6039
62.8438
57.5881
46.2666
43.2628
42.3165
62.1531
61.7627
57.2747
57.4259
45.5192
42.3939
42.272
61.8308
64.1389
57.6435
57.0138
45.2746
42.114
42.2985
65.0189
66.0787
57.5593
58.2009
45.7158
42.5446
42.9774
66.3261
66.3339
58.8094
58.8241
47.1459
42.9906
43.6729
65.9581
64.6736
59.3375
60.2228
48.4719
43.9944
44.8294
64.8273
65.4645
60.8185
61.5555
48.8055
44.933
44.9297
65.7282
65.0022
61.8832
61.0712
38.8444
35.3147
38.5474
37.0663
36.2901
35.9695
41.1953
51.3261
32.5057
53.4518
38.3526
38.897
33.7881
176.064
70.7536
53.7674
70.5169
194.94
48.5802
74.7298
219
36.1583
35.2341
36.4209
34.7951
35.6828
33.9944
36.1539
39.5892
37.6357
37.2243
40.2386
36.6191
41.6656
38.6011
53.3521
39.7848
34.705
59.211
34.6278
182.762
42.1832
71.4309
206.504
53.9989
75.3875
74.3518
227.159
51.2093
41.5756
38.4173
39.3103
38.6665
40.2701
38.7389
39.7998
69.3793
55.4127
73.8281
177.145
55.1771
72.7181
160.187
63.9822
49.155
70.7028
84.1033
53.9906
52.5482
110.983
42.0369
38.3651
38.9381
40.7232
38.7629
42.2349
40.5897
41.3864
38.7062
38.9571
38.848
38.8745
39.5446
40.0808
68.4317
191.945
53.4781
72.2744
71.6835
179.925
52.3498
63.0027
81.9306
45.7066
66.9574
51.6949
124.622
50.2522
44.822
84.3105
40.116
199.706
39.0206
214.33
45.6503
33.6273
33.11
33.8506
34.1767
33.163
33.1968
33.8197
34.1783
33.6655
33.5661
33.5315
33.4576
34.43
33.6411
41.5542
39.9707
66.5376
34.1881
221.272
33.5067
38.3441
45.8154
207.194
83.0045
42.5499
220.012
46.6794
41.5255
34.1407
34.4154
34.3297
34.7672
33.6103
34.1292
34.674
34.7764
33.9335
35.4881
34.6679
35.0497
34.0148
35.2235
43.3905
83.1275
38.6817
106.544
39.624
162.439
41.7629
34.2775
33.6503
33.1303
33.4136
33.556
34.4066
33.2713
34.0225
33.1088
32.987
32.8895
33.3609
33.7172
33.0979
45.6989
195.446
80.0653
42.6021
183.86
46.4064
42.3909
44.3427
100.882
77.808
41.1036
163.421
42.5612
42.0578
34.8968
33.8211
35.489
34.3335
35.0303
33.6696
35.3932
34.6296
33.2468
34.9368
34.1462
34.3155
33.4773
35.1925
187.649
216.13
191.295
114.364
93.6087
109.463
91.4297
170.827
175.892
170.03
81.0106
75.7751
79.0499
72.0998
167.272
169.226
168.97
73.6117
71.1036
68.8585
67.3687
164.64
168.095
165.685
70.7248
70.5433
67.2133
67.4003
156.809
162.345
160.365
70.769
71.548
67.7701
68.5609
142.14
157.719
152.946
73.3062
76.1386
70.3643
73.459
119.264
145.2
132.972
76.5076
75.8626
76.1114
76.8721
84.0086
123.642
105.348
73.4156
61.4581
76.7375
74.6376
195.755
194.941
180.322
107.938
91.092
106.485
86.4153
142.89
293.407
306.756
171.984
144.029
170.891
274.318
96.1849
244.493
241.903
99.3929
92.5816
101.67
242.39
90.5001
251.959
251.21
86.4034
86.3381
90.5445
254.06
92.4883
262.639
262.422
88.3417
89.3737
91.6931
262.396
94.9991
257.33
254.828
92.0074
93.4797
94.1427
249.759
93.3644
251.08
256.967
94.5648
94.9884
93.5384
263.444
93.7968
247.792
263.445
97.825
98.6547
93.788
259.567
91.096
210.952
249.797
102.013
101.605
92.54
236.33
87.6701
99.5176
81.1637
69.3435
52.0637
55.6721
37.1136
174.303
189.155
171.724
97.4816
84.4881
97.1847
84.5271
123.372
231.7
261.733
148.046
123.519
147.628
229.854
83.7253
220.604
211.372
89.2014
85.6709
87.7049
214.738
77.4676
226.574
218.153
81.2647
80.201
78.768
217.013
73.8382
218.93
212.359
77.9591
77.4968
74.5696
211.365
68.5181
226.371
208.115
75.9348
74.8607
70.5667
204.864
60.5334
218.613
187.137
70.8951
69.8448
61.9641
180.411
58.9463
194.568
165.487
68.9825
68.1968
59.3578
161.563
58.082
162.647
147.777
64.7707
62.9884
58.0735
140.275
79.8026
83.2887
75.9481
40.844
32.3095
38.448
32.5837
165.972
180.895
163.168
98.1676
82.2258
96.7143
81.3201
117.551
222.791
250.927
141.67
117.582
141.977
223.345
82.9586
202.05
201.744
86.5466
82.0428
87.4412
202.054
74.2131
201.542
199.741
75.135
73.7839
75.6774
198.867
71.0773
199.918
198.047
71.4947
70.7805
71.7958
197.977
66.4742
184.693
194.041
66.7181
64.8246
67.9488
190.464
61.0409
154.304
173.251
60.0149
59.8274
61.9817
165.972
64.0346
132.816
147.529
63.3077
63.9501
63.2131
143.543
62.4991
130.068
139.057
63.051
61.348
63.7203
138.96
79.3992
98.2319
92.7537
38.025
31.9283
37.9877
32.2002
164.574
192.417
180.498
92.7859
81.7996
98.1286
94.629
125.496
230.122
265.247
142.605
121.914
145.023
237.912
88.4463
187.445
192.777
90.4289
85.4426
94.2744
187.375
79.0288
184.469
187.65
78.803
78.8109
79.5974
187.609
78.1791
184.524
184.433
77.7974
76.0439
78.7799
184.855
77.3241
200.079
191.617
73.4265
73.5164
77.4437
193.845
78.8759
208.894
203.562
74.2038
74.9812
77.7917
203.569
80.6137
181.172
195.473
76.2254
75.2872
80.6644
183.326
65.7526
147.108
146.774
69.3444
64.4212
72.4744
144.818
94.3902
97.0044
90.6124
36.3587
30.5748
36.4713
30.8852
146.998
174.265
150.178
92.4116
72.3457
93.7011
72.5297
132.436
145.199
136.087
62.9717
58.7108
65.4606
64.1162
119.547
125.809
114.791
54.9726
52.7414
59.7972
54.6758
107.894
105.839
99.1723
52.1832
51.85
52.4864
51.7805
97.2171
92.712
86.4944
50.6123
49.5577
49.4337
46.7286
87.3099
85.2875