/*--------------------------------*- C++ -*----------------------------------*\
  =========                 |
  \\      /  F ield         | OpenFOAM: The Open Source CFD Toolbox
   \\    /   O peration     | Website:  https://openfoam.org
    \\  /    A nd           | Version:  10
     \\/     M anipulation  |
\*---------------------------------------------------------------------------*/
FoamFile
{
    format      ascii;
    class       volScalarField;
    location    "10";
    object      p;
}
// * * * * * * * * * * * * * * * * * * * * * * * * * * * * * * * * * * * * * //

dimensions      [0 2 -2 0 0 0 0];

internalField   nonuniform List<scalar> 
12920
(
165903
291617
188704
141778
54071
12963.4
-52628.1
-77856.2
-112499
-124391
-136439
-136570
-134169
-124773
-113251
-97329.7
-80036.8
-60220.2
-41075.6
-17451.3
388714
307137
203431
137973
43995.7
2.70191
-67006.8
-90084.6
-123613
-133600
-144255
-142934
-139326
-129026
-116689
-100034
-82011
-61512.9
-41478.9
-17696.2
663415
345334
169361
111864
15579
-30190.4
-87283.6
-111190
-140116
-148810
-157235
-153911
-148843
-136773
-123004
-105003
-85726.3
-63905.9
-42388.8
-17886.1
412106
313832
112193
62905.5
-38811.1
-74484.7
-129946
-147356
-172262
-175378
-179420
-172515
-163887
-149286
-132937
-112814
-91484.9
-67813.4
-44349.5
-18657.8
439478
212526
19354.8
-17890.9
-107785
-136589
-176826
-189843
-206193
-205704
-205272
-194608
-182810
-164795
-145625
-122812
-99020.9
-72955.5
-47273.5
-19470.9
16846.6
47333.9
-103351
-105894
-191491
-207402
-240035
-243475
-252094
-245525
-238627
-223737
-206291
-184394
-160973
-135010
-108050
-79279.8
-50842.1
-20529.5
-84714.4
-147257
-245084
-235622
-297650
-296572
-310962
-303632
-300850
-286456
-273263
-253218
-231629
-205726
-178522
-148878
-118536
-86537.1
-55175.7
-21821.1
-766569
-423883
-443285
-391514
-417341
-395390
-377998
-361959
-347478
-328897
-308382
-284422
-258472
-229889
-196956
-163732
-129746
-94478.2
-59905
-23444.5
-736095
-590164
-638966
-546083
-547744
-485981
-456692
-431010
-406466
-379959
-351749
-321810
-290088
-256575
-219504
-179483
-142046
-103109
-65208
-25373.7
-1.20601e+06
-796567
-787520
-672991
-665729
-592278
-550371
-514203
-477655
-440554
-402771
-364628
-325794
-285677
-242873
-196338
-154573
-112035
-70560.6
-27268.2
-1.46439e+06
-985490
-968427
-820928
-789703
-704780
-648198
-598042
-549607
-501901
-454783
-408079
-361380
-314807
-265755
-213491
-167484
-121087
-75949.7
-29054.2
-1.43416e+06
-1.11948e+06
-1.08531e+06
-946952
-899590
-808471
-743380
-680632
-620839
-563117
-507001
-452156
-398424
-345514
-289526
-231308
-180644
-129961
-81015.7
-30501.2
-1.33583e+06
-1.17407e+06
-1.18659e+06
-1.06039e+06
-1.00596e+06
-909956
-835788
-759878
-689265
-620927
-555643
-492308
-431255
-371967
-305804
-249005
-193678
-138909
-86190.7
-32214.2
-1.52705e+06
-1.28056e+06
-1.27187e+06
-1.1584e+06
-1.0926e+06
-996051
-914762
-827125
-747986
-668616
-595264
-523388
-455725
-389776
-326794
-265487
-206100
-147506
-91236.3
-33883.4
-1.44739e+06
-1.39186e+06
-1.41071e+06
-1.28093e+06
-1.19661e+06
-1.0834e+06
-989816
-890514
-802247
-715135
-634750
-556849
-483663
-413025
-345776
-280477
-217335
-155327
-95885.2
-35430.3
-1.84023e+06
-1.63438e+06
-1.5528e+06
-1.39865e+06
-1.29408e+06
-1.1651e+06
-1.06097e+06
-948900
-853071
-756521
-670228
-586178
-508385
-433199
-362358
-293482
-227157
-162120
-100019
-36742.8
-1.88721e+06
-1.8693e+06
-1.72205e+06
-1.52173e+06
-1.40263e+06
-1.24628e+06
-1.1284e+06
-1.00306e+06
-897788
-793460
-700725
-611412
-529353
-450477
-376369
-304531
-235404
-167894
-103475
-37768.2
-2.61884e+06
-2.15656e+06
-1.89502e+06
-1.66108e+06
-1.50094e+06
-1.32437e+06
-1.18748e+06
-1.04918e+06
-934686
-823029
-725241
-631200
-545571
-463636
-387116
-313004
-241812
-172364
-106122
-38441.7
-2.96218e+06
-2.42274e+06
-2.09554e+06
-1.79748e+06
-1.58503e+06
-1.38243e+06
-1.22965e+06
-1.08103e+06
-960004
-843129
-741643
-644709
-556882
-472872
-394541
-318885
-246297
-175661
-108328
-39147.4
-3.22212e+06
-2.5715e+06
-2.17534e+06
-1.84382e+06
-1.62485e+06
-1.41327e+06
-1.25293e+06
-1.09898e+06
-973610
-853947
-750206
-651621
-562371
-477394
-398188
-321751
-248526
-177342
-109623
-39699.8
358713
332663
191301
145306
55242.8
12993.3
-52380.4
-77855.4
-112529
-124300
-136405
-136486
-134141
-124750
-113228
-97327.1
-80029.4
-60222.2
-41024.8
-17415
325620
303137
202802
139542
45141
-469.721
-66463.8
-90255.2
-123539
-133599
-144198
-142864
-139319
-128999
-116640
-100038
-82021.1
-61557.6
-41424.6
-17577
603300
332088
165454
112520
15574.7
-30125.6
-86752.5
-111178
-140024
-148824
-157081
-153897
-148835
-136748
-122975
-105005
-85712.9
-63922
-42287.6
-17665.1
522827
306250
118591
64843.9
-38234.6
-74748.2
-130075
-147847
-171629
-175492
-179143
-172415
-163767
-149241
-132902
-112809
-91461.5
-67823.6
-44259.6
-18350.1
342970
205061
16787.4
-17932.8
-107950
-136439
-176662
-189941
-205975
-205711
-205151
-194581
-182665
-164720
-145568
-122795
-99001.9
-72968
-47176.3
-19180.5
61761.2
58691.1
-101675
-106320
-191160
-207267
-239720
-243644
-252020
-245678
-238546
-223692
-206234
-184295
-160910
-134983
-108028
-79286
-50752.6
-20274.9
79468.1
-132362
-243959
-235585
-297795
-296385
-310611
-303662
-300837
-286658
-273425
-253227
-231649
-205564
-178503
-148843
-118502
-86519.1
-55078
-21607.4
-752163
-426820
-441662
-392306
-416483
-395431
-378109
-361756
-347343
-328802
-308296
-284502
-258489
-229908
-196779
-163735
-129717
-94472.1
-59772.8
-23211.1
-835415
-608442
-638208
-547210
-547938
-485943
-456873
-430701
-406192
-379751
-351600
-321647
-289918
-256403
-219314
-179491
-142048
-103107
-65039.8
-24975.5
-1.24924e+06
-811589
-784693
-673305
-664912
-592875
-550639
-514219
-477648
-440481
-402748
-364711
-325773
-285657
-242624
-196278
-154615
-112019
-70395.6
-26872.5
-1.47382e+06
-984161
-962414
-822766
-789867
-705007
-648372
-598012
-549555
-501766
-454747
-408033
-361387
-314823
-265598
-213489
-167500
-121062
-75760
-28644.5
-1.40965e+06
-1.11929e+06
-1.08679e+06
-949836
-899597
-808455
-743667
-680623
-620815
-563089
-506980
-452102
-398355
-345467
-289301
-231235
-180653
-129957
-80848.1
-30215.8
-1.29894e+06
-1.17148e+06
-1.19174e+06
-1.06127e+06
-1.00619e+06
-910672
-836665
-760285
-689518
-621084
-555752
-492392
-431304
-372016
-305721
-249005
-193672
-138903
-86036.4
-31900.1
-1.47275e+06
-1.26647e+06
-1.26723e+06
-1.15851e+06
-1.09296e+06
-996463
-915000
-827322
-748104
-668690
-595299
-523409
-455734
-389777
-326770
-265479
-206089
-147506
-91088.8
-33592.6
-1.49426e+06
-1.38337e+06
-1.41523e+06
-1.2812e+06
-1.19735e+06
-1.08365e+06
-990023
-890616
-802378
-715181
-634759
-556855
-483655
-413024
-345766
-280478
-217319
-155305
-95720.3
-35114.3
-1.68515e+06
-1.60731e+06
-1.55286e+06
-1.39846e+06
-1.29358e+06
-1.16524e+06
-1.06058e+06
-949095
-853092
-756770
-670355
-586213
-508392
-433191
-362355
-293490
-227138
-162078
-99836.1
-36423
-1.97208e+06
-1.87053e+06
-1.72615e+06
-1.52221e+06
-1.4026e+06
-1.246e+06
-1.12829e+06
-1.00276e+06
-897748
-793314
-700809
-611455
-529385
-450470
-376372
-304542
-235393
-167844
-103254
-37458.8
-2.51717e+06
-2.14761e+06
-1.89888e+06
-1.66214e+06
-1.50048e+06
-1.32389e+06
-1.18748e+06
-1.04905e+06
-934671
-822972
-725159
-631195
-545621
-463644
-387129
-313027
-241809
-172346
-105992
-38248.4
-2.97382e+06
-2.41022e+06
-2.09561e+06
-1.79677e+06
-1.58521e+06
-1.38226e+06
-1.22977e+06
-1.08095e+06
-960025
-843086
-741652
-644708
-556853
-472864
-394559
-318907
-246283
-175637
-108237
-38993.3
-3.19786e+06
-2.57822e+06
-2.16836e+06
-1.84212e+06
-1.6247e+06
-1.41278e+06
-1.25289e+06
-1.0989e+06
-973615
-853925
-750197
-651641
-562384
-477402
-398198
-321762
-248502
-177335
-109582
-39640.7
317489
339835
181918
145869
57240.5
12679.6
-51934.4
-77789
-112405
-124127
-136373
-136400
-134095
-124717
-113198
-97303.7
-80023.3
-60213.1
-40958.3
-17326.6
192636
289579
198840
141315
46220.2
-1013.51
-65248.9
-90727.2
-123086
-133430
-144027
-142788
-139253
-128906
-116538
-100003
-82004.2
-61599.1
-41302.5
-17285.1
520221
299991
162280
110966
14259.9
-30531.7
-86427.5
-111866
-139829
-148839
-156734
-153921
-148683
-136657
-122895
-104992
-85681.9
-63927.1
-42098.2
-17243.4
487673
299853
119423
67095.3
-39887.1
-73873.6
-130732
-148022
-171284
-175581
-178962
-172346
-163624
-149090
-132771
-112793
-91416.5
-67829.5
-44096.2
-17741.8
304339
195376
12644.7
-17480.7
-108317
-135976
-176302
-190178
-205588
-205754
-204967
-194500
-182457
-164560
-145423
-122757
-98935.5
-72970.9
-46991.6
-18629.4
284101
75079
-92552.7
-106425
-190851
-207160
-239076
-243980
-251641
-245761
-238321
-223550
-205931
-184148
-160798
-134959
-107984
-79295.3
-50583.4
-19809.4
33048.2
-122870
-248062
-236182
-297442
-296247
-310233
-303896
-300743
-286928
-273464
-253209
-231480
-205462
-178410
-148790
-118462
-86524.7
-54896.2
-21233.5
-647965
-410584
-440052
-393544
-414946
-395574
-377732
-361383
-347199
-328704
-308347
-284584
-258482
-229883
-196851
-163771
-129703
-94499.1
-59637.4
-22889
-611926
-579702
-630312
-547319
-547272
-486031
-456980
-430097
-405761
-379433
-351381
-321521
-289794
-256182
-219248
-179521
-142044
-103107
-64861
-24647.1
-1.25979e+06
-795492
-781839
-673371
-663902
-593419
-551071
-514129
-477476
-440338
-402637
-364709
-325651
-285496
-242338
-196274
-154643
-112018
-70184.6
-26492.2
-1.15663e+06
-948808
-957362
-825502
-790097
-705314
-648673
-597920
-549414
-499536
-455150
-408056
-361418
-314890
-265487
-213478
-167533
-121065
-75536.8
-28262.7
-1.50163e+06
-1.11185e+06
-1.08903e+06
-953679
-898782
-808475
-744049
-680629
-620764
-562969
-506875
-451995
-398304
-345370
-289074
-231184
-180646
-129956
-80663.4
-29905.5
-1.3282e+06
-1.17022e+06
-1.19539e+06
-1.0611e+06
-1.0061e+06
-911332
-837769
-760717
-689789
-621237
-555876
-492476
-431363
-372024
-305641
-249006
-193660
-138908
-85807.3
-31550.4
-1.45672e+06
-1.26385e+06
-1.2662e+06
-1.15738e+06
-1.09299e+06
-996804
-915117
-827512
-748197
-668739
-595301
-523403
-455721
-389753
-326723
-265469
-206073
-147478
-90842.3
-33171.1
-1.484e+06
-1.36852e+06
-1.42011e+06
-1.28073e+06
-1.19769e+06
-1.08389e+06
-990223
-890849
-802500
-715215
-634747
-556831
-483619
-412998
-345728
-280477
-217298
-155274
-95442.5
-34698.5
-1.75332e+06
-1.59779e+06
-1.54891e+06
-1.39717e+06
-1.29331e+06
-1.16539e+06
-1.06062e+06
-949177
-853193
-756871
-670401
-586208
-508382
-433165
-362326
-293494
-227116
-162032
-99507.8
-35986.9
-1.93445e+06
-1.85005e+06
-1.72966e+06
-1.52338e+06
-1.40213e+06
-1.24569e+06
-1.12837e+06
-1.00258e+06
-897693
-793222
-700821
-611488
-529398
-450454
-376365
-304554
-235382
-167806
-102962
-37097.9
-2.40581e+06
-2.12769e+06
-1.89653e+06
-1.66059e+06
-1.49985e+06
-1.32353e+06
-1.18735e+06
-1.0489e+06
-934608
-822897
-725115
-631188
-545651
-463623
-387153
-313073
-241811
-172319
-105792
-38041.9
-2.74577e+06
-2.37662e+06
-2.09046e+06
-1.79296e+06
-1.58365e+06
-1.38131e+06
-1.22928e+06
-1.08058e+06
-959909
-843033
-741657
-644717
-556859
-472878
-394589
-318955
-246288
-175595
-108084
-38811.8
-3.1898e+06
-2.58534e+06
-2.16387e+06
-1.84128e+06
-1.62481e+06
-1.4123e+06
-1.25289e+06
-1.09883e+06
-973597
-853850
-750150
-651610
-562411
-477395
-398196
-321785
-248518
-177326
-109484
-39529.5
516975
362845
179480
148672
57997.6
12518.9
-51427.9
-78294.5
-112142
-123891
-136209
-136271
-134025
-124685
-113144
-97282.5
-80000.5
-60232
-40873
-17031.6
349045
287081
198443
144431
45226.6
-1043.84
-65016.2
-91172
-122747
-133248
-143891
-142732
-139265
-128872
-116392
-99975.3
-82001.6
-61690.8
-41134.5
-16415.9
419314
289845
156835
110544
13607.5
-30541.7
-86413.1
-111880
-139826
-148814
-156547
-153974
-148658
-136574
-122839
-104994
-85664.7
-63933.7
-41925.8
-16127.9
418746
266872
121221
68129.4
-39806
-73560.2
-130722
-147719
-171375
-175460
-179201
-172476
-163665
-148822
-132642
-112791
-91393
-67821.6
-43946
-16687.6
340896
197666
5546.95
-17443.9
-109139
-135301
-176084
-190194
-205441
-205634
-204890
-194429
-182477
-164475
-145369
-122751
-98905.3
-72941.3
-46833.8
-17667.5
348180
91428.1
-89690.7
-105958
-191153
-205957
-238962
-244246
-251209
-245739
-238145
-223494
-205983
-184092
-160740
-134948
-107952
-79249.8
-50436.6
-18970.6
36600.1
-122858
-250022
-236516
-297454
-295849
-309934
-303855
-300551
-286945
-273334
-253251
-231409
-205394
-178363
-148769
-118431
-86516.3
-54787.1
-20497.7
-545037
-391042
-437495
-393308
-414161
-395493
-377175
-361006
-347108
-328728
-308456
-284595
-258399
-229777
-196828
-163792
-129685
-94513.9
-59528.4
-22208.1
-729924
-578159
-634299
-547628
-547117
-486280
-456971
-429525
-405436
-379197
-351218
-321529
-289777
-256026
-219210
-179552
-142041
-103091
-64689.9
-23935.6
-1.17995e+06
-822000
-777447
-675178
-663016
-594788
-551693
-513997
-477281
-440174
-402533
-364577
-325538
-285284
-242179
-196279
-154634
-111989
-69964.3
-25607.1
-1.04624e+06
-927975
-955179
-829086
-788976
-705753
-649048
-597816
-549219
-500702
-454899
-407963
-361416
-314909
-265451
-213554
-167578
-121042
-75295.7
-27311.4
-1.58016e+06
-1.11056e+06
-1.08857e+06
-955207
-898296
-809263
-744336
-680657
-620685
-562834
-506753
-451928
-398265
-345272
-289039
-231178
-180675
-129931
-80463.6
-29067.7
-1.26179e+06
-1.17716e+06
-1.1914e+06
-1.06131e+06
-1.00585e+06
-911874
-838471
-761003
-689972
-621204
-555938
-492490
-431370
-371982
-305583
-249031
-193653
-138887
-85609.9
-30755.4
-1.32674e+06
-1.2537e+06
-1.26206e+06
-1.15677e+06
-1.09355e+06
-997384
-915285
-827704
-748305
-668785
-595311
-523392
-455702
-389729
-326687
-265475
-206069
-147410
-90609.9
-32266.1
-1.40792e+06
-1.35603e+06
-1.41774e+06
-1.27971e+06
-1.19818e+06
-1.08445e+06
-990168
-891061
-802626
-715256
-634748
-556809
-483593
-412979
-345703
-280492
-217286
-155194
-95132
-33740.7
-1.73418e+06
-1.59311e+06
-1.55155e+06
-1.39816e+06
-1.29361e+06
-1.16587e+06
-1.06055e+06
-949345
-853325
-757061
-670454
-586203
-508369
-433141
-362316
-293510
-227108
-161958
-99172.6
-35009
-2.06544e+06
-1.83461e+06
-1.73888e+06
-1.52521e+06
-1.40154e+06
-1.24565e+06
-1.12828e+06
-1.00254e+06
-897695
-793242
-700883
-611580
-529402
-450445
-376335
-304577
-235395
-167741
-102649
-36135.6
-2.39692e+06
-2.12083e+06
-1.90222e+06
-1.6621e+06
-1.49931e+06
-1.3235e+06
-1.18707e+06
-1.04889e+06
-934529
-822967
-725155
-631250
-545677
-463694
-387168
-313185
-241842
-172286
-105556
-37250.5
-2.59722e+06
-2.35116e+06
-2.08798e+06
-1.78959e+06
-1.58269e+06
-1.38077e+06
-1.22898e+06
-1.08044e+06
-959771
-842977
-741609
-644718
-556872
-472942
-394620
-319051
-246312
-175529
-107883
-38437
-3.13687e+06
-2.55898e+06
-2.16067e+06
-1.83897e+06
-1.62416e+06
-1.41124e+06
-1.25251e+06
-1.09846e+06
-973471
-853762
-750128
-651610
-562441
-477429
-398221
-321832
-248527
-177303
-109351
-39346.6
476753
356360
178473
148435
56497.6
12866.9
-50829.5
-79444.6
-111664
-123687
-136023
-136179
-133964
-124635
-113077
-97244.9
-80006.6
-60258.7
-40787
-16800.6
307812
280217
201408
147294
44821.3
-565.085
-65563.9
-91204.9
-122845
-133235
-143936
-142678
-139415
-128808
-116080
-99881.5
-81962.1
-61831.2
-41097
-14665.2
319779
273347
154209
110573
12980.8
-29860.7
-87320.3
-110833
-139915
-148800
-157031
-154125
-148802
-136554
-122806
-105008
-85677.3
-63941.1
-41839.2
-14673.2
463971
280274
126524
69995.8
-39336.6
-73213.2
-130473
-147124
-171444
-175174
-179292
-172860
-164277
-149114
-132676
-112806
-91395.4
-67819
-43841.9
-15424.9
360533
197417
6118.18
-18056.5
-110140
-134336
-176123
-189380
-205307
-205406
-204645
-194505
-183108
-164749
-145439
-122769
-98908
-72929.2
-46706.5
-16392.8
269504
97695.8
-85401.6
-106042
-189919
-206032
-238970
-244130
-251044
-245220
-237869
-223639
-206438
-184253
-160751
-134956
-107942
-79216.6
-50324.3
-17729.8
45070.5
-114394
-250831
-236316
-297817
-295043
-309802
-303544
-300390
-286628
-273145
-253094
-231382
-205405
-178356
-148761
-118419
-86521.9
-54702.4
-19300.3
-398182
-374285
-437424
-393557
-413507
-395682
-376825
-361061
-347070
-328558
-308378
-284514
-258194
-229640
-196788
-163829
-129679
-94524.6
-59446.7
-20965.1
-515506
-567745
-628682
-548586
-546168
-486282
-456490
-429348
-405270
-379068
-351207
-321543
-289758
-256007
-219256
-179517
-142055
-103050
-64558.1
-22575.1
-1.20873e+06
-824685
-776352
-675876
-662276
-595604
-552646
-513925
-477167
-440112
-402466
-364465
-325464
-285404
-242349
-196238
-154632
-111922
-69797.4
-24174.9
-1.17042e+06
-926265
-953200
-830778
-788699
-706611
-649451
-597722
-549090
-501311
-454339
-407852
-361450
-314912
-265464
-213511
-167681
-120973
-75125.6
-25857
-1.55922e+06
-1.12181e+06
-1.08548e+06
-954901
-897903
-810539
-744720
-680725
-620597
-562705
-506666
-451901
-398233
-345227
-289143
-231136
-180709
-129897
-80305.3
-27682
-1.56408e+06
-1.2127e+06
-1.18841e+06
-1.06453e+06
-1.00443e+06
-912213
-838201
-761359
-690091
-621364
-555990
-492490
-431393
-372017
-305497
-249058
-193662
-138815
-85421.4
-29476.3
-1.26487e+06
-1.26542e+06
-1.2624e+06
-1.15546e+06
-1.09382e+06
-997837
-915043
-827663
-748251
-668770
-595244
-523347
-455659
-389691
-326655
-265487
-206073
-147325
-90384.7
-31018.9
-1.46837e+06
-1.36336e+06
-1.41928e+06
-1.28021e+06
-1.19824e+06
-1.085e+06
-989965
-891315
-802784
-715208
-634705
-556762
-483542
-412936
-345669
-280504
-217285
-155096
-94920.8
-32405.7
-1.67132e+06
-1.58444e+06
-1.54609e+06
-1.3968e+06
-1.29334e+06
-1.16605e+06
-1.06048e+06
-949253
-853508
-757204
-670554
-586113
-508336
-433070
-362290
-293508
-227126
-161849
-98925.4
-33590
-1.96173e+06
-1.83299e+06
-1.73942e+06
-1.5247e+06
-1.40109e+06
-1.2455e+06
-1.12832e+06
-1.0024e+06
-897838
-793139
-700988
-611683
-529375
-450399
-376292
-304596
-235434
-167639
-102419
-34667.2
-2.37417e+06
-2.11206e+06
-1.89992e+06
-1.65998e+06
-1.49823e+06
-1.32336e+06
-1.18661e+06
-1.04885e+06
-934396
-823087
-725200
-631311
-545687
-463847
-387151
-313370
-241892
-172181
-105352
-35715.9
-2.64937e+06
-2.34433e+06
-2.08444e+06
-1.78831e+06
-1.5817e+06
-1.38044e+06
-1.22866e+06
-1.08032e+06
-959671
-842962
-741606
-644757
-556910
-473044
-394666
-319331
-246385
-175392
-107704
-37350
-3.22083e+06
-2.55319e+06
-2.15953e+06
-1.83836e+06
-1.62376e+06
-1.41059e+06
-1.25228e+06
-1.09826e+06
-973402
-853717
-750126
-651622
-562463
-477454
-398241
-321890
-248547
-177267
-109233
-39243.5
-412104
-485737
-451891
-440221
-412033
-485476
-451872
-374335
-440692
-410025
-402564
-374275
-440688
-410045
-466957
-547801
-507316
-499292
-466896
-547661
-507197
-420327
-493914
-454104
-455085
-420332
-493797
-454040
-437517
-523903
-501638
-456794
-437314
-524229
-501653
-413165
-493272
-468262
-430829
-412977
-493255
-468264
-387520
-459750
-434102
-406308
-387386
-459751
-434071
-359684
-425274
-398872
-379840
-359568
-425240
-398868
-330260
-389927
-363039
-351666
-330186
-389930
-363117
-299050
-353865
-326275
-321726
-298962
-353950
-326336
-266052
-316855
-288288
-289997
-265931
-316888
-288279
-231100
-278475
-249024
-256465
-230988
-278465
-248889
-523384
-621859
-588696
-550470
-523422
-621872
-588687
-486877
-577135
-542981
-514224
-486882
-577129
-542954
-449955
-531635
-497780
-477667
-449934
-531610
-497751
-412259
-486509
-452874
-440516
-412240
-486447
-452764
-374267
-441697
-408321
-402767
-374343
-441581
-408346
-335604
-397163
-363580
-364710
-335643
-397175
-363602
-295826
-352286
-318850
-325800
-295834
-352334
-318779
-255405
-307650
-273805
-285683
-255307
-307617
-273697
-610379
-718165
-674855
-648256
-610383
-718244
-674871
-561649
-660201
-617313
-598030
-561625
-660196
-617291
-513781
-603208
-561646
-549577
-513748
-603178
-561629
-466533
-547950
-507490
-501840
-466516
-547929
-507452
-419765
-494085
-454301
-454754
-419742
-494045
-454277
-373078
-441131
-402110
-408045
-373066
-441098
-402069
-326438
-389165
-350646
-361381
-326472
-389119
-350611
-280282
-337814
-299601
-314801
-280206
-337784
-299463
-696143
-809984
-759050
-743512
-696169
-810403
-759307
-635635
-740071
-690722
-680627
-635630
-740289
-690870
-577460
-672600
-624973
-620822
-577457
-672752
-625093
-520985
-607438
-561729
-563102
-520976
-607539
-561816
-465811
-544872
-500596
-506993
-465811
-544953
-500679
-411842
-484177
-441320
-452131
-411789
-484236
-441335
-358728
-425382
-383571
-398374
-358722
-425399
-383607
-306519
-367975
-326666
-345483
-306372
-368004
-326598
-437176
-524378
-501655
-456844
-436777
-524580
-501631
-412838
-493237
-468242
-430271
-412427
-493138
-468102
-387289
-459721
-434041
-405881
-387057
-459558
-433923
-359486
-425212
-398857
-379526
-359289
-425094
-398791
-330122
-389917
-363118
-351451
-330056
-389854
-363103
-298859
-353948
-326326
-321559
-298768
-353914
-326263
-265861
-316866
-288235
-289846
-265689
-316762
-288084
-230853
-278419
-248751
-256242
-230823
-278251
-248542
-523434
-621989
-588682
-550884
-523443
-622082
-588663
-486867
-577113
-542934
-514162
-486763
-577048
-542841
-449902
-531588
-497715
-477527
-449781
-531487
-497585
-412219
-486388
-452671
-440366
-412129
-486032
-452070
-374342
-441483
-408368
-402661
-374327
-440871
-408757
-335628
-397182
-363610
-364705
-335560
-397278
-363653
-295810
-352348
-318768
-325682
-295704
-352395
-318777
-255213
-307601
-273613
-285543
-255074
-307574
-273484
-610383
-718361
-674883
-648522
-610382
-718521
-674928
-561603
-660192
-617279
-597946
-561504
-660169
-617227
-513706
-603162
-561618
-549452
-513506
-603100
-561553
-466519
-547917
-507435
-501046
-466873
-547839
-507353
-419748
-494025
-454242
-455057
-419945
-493945
-454128
-373066
-441064
-402045
-408028
-373079
-440960
-401986
-326484
-389098
-350596
-361410
-326511
-389047
-350542
-280145
-337766
-299363
-314878
-280109
-337696
-299187
-696179
-810722
-759437
-743887
-696245
-811275
-759863
-635629
-740385
-690924
-680625
-635615
-740682
-691084
-577452
-672822
-625159
-620780
-577408
-673005
-625324
-520963
-607585
-561856
-563005
-520891
-607700
-561965
-465791
-544991
-500717
-506907
-465733
-545101
-500815
-411766
-484264
-441347
-452014
-411721
-484337
-441404
-358714
-425417
-383629
-398316
-358674
-425480
-383669
-306277
-368023
-326531
-345397
-306101
-368031
-326427
-436647
-524781
-501618
-456808
-436320
-524953
-501581
-412254
-493095
-468041
-429665
-411878
-492966
-467862
-386969
-459494
-433881
-405509
-386798
-459316
-433756
-359196
-425054
-398766
-379261
-359006
-424929
-398680
-330013
-389832
-363098
-351256
-329962
-389742
-363036
-298736
-353901
-326244
-321539
-298709
-353815
-326209
-265607
-316726
-288032
-289766
-265415
-316620
-287895
-230728
-278194
-248415
-256033
-230734
-278042
-248316
-523440
-622229
-588656
-551378
-523428
-622468
-588639
-486716
-577018
-542801
-514026
-486572
-576927
-542663
-449747
-531448
-497630
-477324
-449630
-531303
-497466
-445432
-430983
-455502
-440317
-445446
-430969
-455509
-405538
-393245
-415422
-402619
-405531
-393235
-415408
-335539
-397375
-363672
-364633
-335480
-397373
-363649
-295664
-352409
-318785
-325566
-295541
-352405
-318789
-254968
-307572
-273399
-285343
-254856
-307555
-273402
-610381
-718666
-674945
-648878
-610375
-718825
-675000
-561464
-660161
-617205
-597841
-561330
-660143
-617130
-513519
-603075
-561525
-549269
-513338
-602981
-561400
-505091
-489949
-516951
-500164
-504919
-492180
-517085
-456030
-443378
-468187
-457668
-455852
-445777
-468341
-373090
-440942
-401972
-408028
-373076
-440887
-401944
-326519
-389032
-350523
-361422
-326543
-388997
-350476
-280054
-337670
-299070
-314908
-280098
-337608
-299048
-696277
-811619
-760026
-744210
-696381
-811905
-760406
-635607
-740775
-691128
-680648
-635579
-740981
-691191
-577389
-673070
-625385
-620705
-577315
-673169
-625470
-520855
-607735
-561994
-562863
-520759
-607776
-562027
-465722
-545133
-500844
-506780
-465672
-545174
-500885
-411711
-484359
-441427
-451945
-411694
-484388
-441445
-358656
-425503
-383675
-398274
-358603
-425522
-383648
-305993
-368028
-326330
-345292
-305984
-367982
-326295
-436240
-525167
-501574
-456485
-436128
-525366
-501578
-411752
-492929
-467811
-429323
-411542
-492846
-467713
-386748
-459265
-433720
-405314
-386689
-459160
-433675
-358926
-424892
-398650
-379128
-358787
-424832
-398604
-329939
-389707
-363002
-351204
-329945
-389644
-362952
-298678
-353772
-326199
-321556
-298584
-353683
-326186
-265410
-316594
-287854
-289759
-265346
-316549
-287797
-230681
-277987
-248204
-255982
-230778
-277855
-248313
-523429
-622677
-588639
-552229
-523456
-623087
-588672
-486531
-576900
-542617
-513936
-486448
-576843
-542510
-449590
-531252
-497328
-477189
-449562
-531142
-497288
-412006
-485710
-451913
-440118
-411968
-485929
-452308
-374226
-440743
-408705
-402485
-374161
-441169
-408189
-335456
-397227
-363611
-364475
-335384
-397027
-363521
-295504
-352386
-318780
-325469
-295496
-352332
-318757
-254717
-307541
-273309
-285255
-254821
-307499
-273411
-610376
-718962
-675021
-649170
-610378
-719060
-675082
-561283
-660139
-617106
-597747
-561174
-660137
-617043
-513230
-602948
-561359
-549116
-513229
-602856
-561259
-466684
-547610
-507159
-501279
-466114
-547486
-507067
-419869
-493755
-454021
-454399
-419533
-493654
-454019
-373054
-440866
-401941
-407840
-373007
-440855
-401959
-326549
-388991
-350469
-361412
-326573
-388993
-350473
-279997
-337595
-298898
-314911
-280107
-337579
-299058
-696417
-812144
-760522
-744435
-696527
-812114
-760501
-635570
-741066
-691232
-680702
-635544
-741143
-691336
-577289
-673218
-625511
-620620
-577222
-673219
-625596
-520738
-607786
-562036
-562742
-520693
-607710
-562006
-465651
-545190
-500901
-506684
-465622
-545141
-500918
-411691
-484398
-441452
-451904
-411703
-484342
-441451
-358590
-425532
-383641
-398253
-358581
-425523
-383613
-305863
-367971
-326190
-345235
-306041
-367934
-326286
-436032
-525651
-501609
-456021
-435803
-526376
-501629
-411498
-492828
-467703
-429340
-411446
-492885
-467719
-386678
-459141
-433675
-405174
-386508
-459169
-433701
-358759
-424823
-398596
-379002
-358723
-424872
-398604
-329957
-389637
-362919
-351085
-329822
-389621
-362906
-298569
-353665
-326164
-321402
-298468
-353690
-326141
-265348
-316565
-287893
-289629
-265363
-316607
-288093
-230719
-277978
-248256
-256036
-230840
-278234
-248568
-523510
-623426
-588684
-553523
-523586
-624092
-588728
-486439
-576842
-542479
-514017
-486432
-576844
-542410
-449565
-531107
-497271
-477182
-449550
-531023
-497156
-411953
-485935
-452331
-440118
-411954
-485862
-452318
-374136
-441203
-408125
-402468
-374123
-441205
-408068
-335371
-397003
-363575
-364487
-335418
-396987
-363644
-295617
-352360
-318769
-325503
-295731
-352468
-318853
-254745
-307491
-273253
-285591
-255074
-307594
-273341
-610377
-719262
-675100
-649772
-610336
-719603
-675006
-561139
-660146
-617027
-597692
-561025
-660092
-616951
-513213
-602824
-561225
-548930
-513106
-602744
-561103
-466045
-547444
-507050
-501200
-465923
-547347
-506947
-419484
-493630
-454024
-454231
-419448
-493555
-453985
-373012
-440860
-401978
-407859
-373136
-440848
-402013
-326586
-388988
-350484
-361542
-326669
-389065
-350543
-279940
-337582
-298842
-315002
-279993
-337634
-298883
-696560
-812263
-760513
-745186
-696531
-812361
-760478
-635553
-741257
-691457
-680758
-635533
-741436
-691641
-577204
-673304
-625577
-620581
-577097
-673439
-625524
-520691
-607814
-562090
-562657
-520602
-607929
-562153
-465619
-545176
-500932
-506606
-465569
-545223
-500900
-411718
-484342
-441521
-451891
-411739
-484406
-441556
-358589
-425546
-383652
-398308
-358637
-425593
-383710
-305870
-367923
-326181
-345278
-305885
-368004
-326193
-435343
-421497
-425395
-412086
-435377
-421477
-425367
-459949
-470745
-474194
-486248
-459955
-470874
-472003
-448837
-438422
-463019
-449337
-449045
-438202
-460408
-445410
-440279
-430885
-455387
-430938
-455474
-445351
-435319
-412063
-421408
-425340
-421448
-425348
-435304
-459958
-486170
-470590
-474043
-470833
-472116
-459849
-448827
-449242
-438392
-462987
-438197
-460285
-448991
-395712
-383754
-385818
-374345
-395661
-383752
-385907
-417260
-427831
-429637
-438212
-417421
-427634
-427346
-407146
-397151
-419073
-410376
-407118
-397449
-417537
-405520
-402596
-393182
-415374
-393215
-415391
-405482
-395696
-374327
-383689
-385766
-383731
-385902
-395607
-417253
-438141
-427813
-429634
-427632
-427288
-417401
-407137
-410556
-397139
-419088
-397492
-417519
-407102
-492931
-478722
-480504
-469562
-492775
-481378
-480663
-519339
-532354
-534256
-547763
-519397
-532326
-534219
-506519
-493748
-520715
-507274
-506555
-493725
-520669
-505042
-499928
-489824
-516769
-492133
-516966
-504785
-492884
-469479
-478632
-480401
-481307
-480629
-492640
-519282
-547717
-532187
-534127
-532258
-534176
-519239
-506468
-507233
-493618
-520580
-493680
-520623
-506406
-443697
-431709
-431202
-420992
-443436
-434341
-431321
-468210
-480941
-480623
-493878
-468183
-480937
-480597
-455517
-442690
-467302
-454090
-455433
-442745
-467284
-455999
-457586
-443327
-468091
-445712
-468310
-455757
-443635
-421040
-431665
-431143
-434144
-431314
-443312
-468172
-493838
-480823
-480521
-480895
-480562
-468080
-455476
-454069
-442620
-467209
-442723
-467251
-455336
-368984
-416309
-407323
-377981
-368962
-416129
-407147
-355027
-397655
-388246
-361944
-354894
-397498
-388057
-339415
-377878
-367625
-347435
-339422
-377745
-367528
-319812
-354944
-343487
-328880
-319715
-354840
-343376
-297675
-330074
-317635
-308329
-297657
-330023
-317580
-272729
-302815
-289249
-284466
-272775
-302770
-289188
-245694
-273695
-259010
-258449
-245608
-273653
-258980
-217080
-242189
-226181
-229896
-217017
-242145
-226194
-477802
-535528
-525972
-485941
-477996
-535480
-526239
-472161
-450010
-477660
-456775
-450008
-477827
-472121
-445149
-425418
-451540
-430980
-425383
-451537
-445161
-417250
-400606
-423986
-406443
-400581
-423972
-417258
-387731
-373716
-394845
-379944
-373703
-394853
-387729
-356865
-345093
-364365
-351738
-345079
-364367
-356867
-324591
-314773
-332450
-321803
-314774
-332457
-324572
-290761
-282729
-298995
-290080
-282719
-299008
-290748
-255308
-248782
-263975
-256563
-248813
-263988
-255290
-203763
-230928