/*--------------------------------*- C++ -*----------------------------------*\
  =========                 |
  \\      /  F ield         | OpenFOAM: The Open Source CFD Toolbox
   \\    /   O peration     | Website:  https://openfoam.org
    \\  /    A nd           | Version:  10
     \\/     M anipulation  |
\*---------------------------------------------------------------------------*/
FoamFile
{
    format      ascii;
    class       surfaceScalarField;
    location    "10";
    object      phi_0;
}
// * * * * * * * * * * * * * * * * * * * * * * * * * * * * * * * * * * * * * //

dimensions      [0 3 -1 0 0 0 0];

internalField   nonuniform List<scalar> 
38556
(
1786.25
-1276.2
-493.344
1601.53
-441.039
625.757
1108.87
-151.61
644.277
965.319
105.643
37.9038
830.513
122.488
12.3177
891.676
69.5238
-130.687
895.567
0.980307
-4.8714
946.415
-53.143
2.2958
919.539
-77.069
103.944
896.699
-93.3065
116.147
834.673
-82.3045
144.331
793.482
-84.3695
125.56
769.338
-87.8595
112.004
767.417
-95.5325
97.453
772.911
-92.357
86.8636
786.155
-87.5746
74.3304
799.157
-79.4818
66.4793
814.844
-75.9266
60.2396
832.255
-69.6829
52.2725
-60.8334
48.6228
1452.43
-1017.89
-1472.87
1143.11
-347.561
215.838
650.595
-119.048
459.957
568.795
100.37
87.0741
574.707
87.4661
29.1095
645.63
56.299
-57.6983
690.038
-43.2758
-0.151922
757.726
-75.9459
-44.8846
758.773
-96.7587
18.6429
743.064
-91.6835
14.0859
651.236
-63.5168
73.0404
565.418
-62.8494
64.2979
516.985
-82.7802
43.3537
509.522
-101.44
13.3697
522.911
-104.476
-1.26995
541.811
-93.7459
-12.729
562.024
-78.9839
-20.7108
581.846
-65.0356
-30.7132
595.57
-46.0691
-37.3374
-27.0379
-36.2937
4069.76
403.867
250.413
3592.37
-103.69
233.515
2248.97
39.8634
1184.5
1396.47
232.667
720.196
974.198
196.358
313.383
807.386
141.035
82.0752
599.459
55.7879
108.863
480.048
17.7062
25.7591
371.869
-20.8125
32.2328
330.874
-27.4953
-23.193
325.131
-51.527
-6.24681
342.415
-66.8988
-13.2349
372.457
-107.943
-4.87954
403.584
-122.353
-10.2137
431.344
-122.32
-9.91699
455.3
-99.1606
-18.5412
476.753
-77.1587
-23.2782
494.443
-57.4188
-25.3068
514.144
-36.8429
-28.9265
-14.4768
-17.8246
-1093.19
-359.025
-544.55
-151.68
222.95
-1268.15
154.535
74.2757
-340.627
215.437
261.186
-89.4215
288.278
108.717
14.8015
249.518
147.498
32.297
249.972
14.4638
40.8698
232.545
46.3705
-11.2378
253.77
-40.8456
-1.19193
269.058
-22.9609
-19.822
297.373
-73.8848
-5.95755
320.496
-85.6999
-4.32182
351.678
-148.103
8.97867
378.727
-156.896
7.49376
398.45
-147.814
5.7701
413.167
-111.302
-2.57524
423.147
-81.403
-5.7359
426.331
-55.3217
-5.28113
430.704
-32.9157
-8.29962
-9.89014
0.300351
-697.837
-676.11
997.572
164.332
-196.164
-443.054
506.124
49.8168
-317.334
675.991
132.581
-41.2621
614.22
144.551
25.9363
565.489
173.883
22.3475
507.795
51.935
20.2223
492.049
84.8955
-22.7786
482.12
-6.27708
-24.6398
483.142
22.6
-46.5829
471.585
-29.3359
-32.9923
446.691
-31.1438
-29.6616
416.061
-128.576
11.1029
400.421
-164.977
23.7221
394.894
-157.77
15.4836
394.51
-110.003
-0.915355
400.593
-87.1946
-0.290705
408.218
-61.754
-1.19269
421.676
-42.0695
-4.30495
-14.3719
3.78037
497.423
-1979.44
2978.4
581.517
-586.652
306.394
378.726
15.8092
236.799
510.192
-47.3768
48.492
510.016
73.8612
70.8662
571.285
119.94
-7.32725
667.801
-51.0428
6.46257
733.543
49.0183
-29.8653
792.025
-37.8173
-26.9415
844.594
19.6855
-49.6548
862.793
-5.61413
-41.9207
821.409
26.9977
-16.757
657.55
-43.9667
79.2493
487.335
-87.3142
92.5515
408.565
-122.419
43.4196
376.548
-86.2639
8.2772
368.872
-76.7106
-2.80848
370.514
-60.2107
-3.18493
386.206
-51.3929
-6.36905
-26.8096
4.93823
-16.8576
-1066.55
-2155.83
-35.3254
-921.605
353.421
438.67
-396.591
-61.5958
482.074
-271.608
180.827
646.918
-168.204
77.2222
660.978
60.8831
44.9968
692.292
-8.58181
25.5008
-45.9113
-8.96164
-44.4025
754.219
-10.3073
16.9904
-9.92839
-5.56525
-4.09865
814.648
-20.2681
8.092
-37.1252
-15.4791
-33.4653
882.148
-13.0532
-0.814335
-14.4086
-9.15218
-10.3867
906.238
-9.45627
19.4469
-18.6326
-5.55775
-15.504
878.715
0.264467
42.1496
2.44625
4.15968
5.50057
705.627
12.5879
86.7013
8.40108
13.7798
7.6514
505.62
17.1997
99.3203
-10.3673
15.2417
-8.70125
408.321
-76.7256
51.6052
371.722
-64.7532
15.0886
366.783
-74.497
2.72527
368.52
-61.9826
0.0348815
382.532
-63.7479
-1.65741
-42.5558
9.44984
130.535
-2216.25
-875.807
511.619
-1382.63
79.9428
458.411
-553.475
210.092
465.989
-307.104
27.919
482.162
-201.633
17.2551
134.328
2.45245
-44.4381
130.68
127.205
121.824
32.6801
6.13774
32.176
141.494
-14.0741
-1.67356
-140.418
159.751
-26.2382
-3.40235
-181.623
194.819
-31.5285
-1.936
-203.707
221.268
-29.2126
-1.40114
-237.37
248.062
-21.3449
1.19704
-255.483
265.945
-21.1401
10.9424
-268.59
259.42
-1.68351
23.4407
-237.486
203.612
21.9572
29.1157
598.035
28.0474
76.4779
-175.959
-240.712
-176.002
-232.548
8.82444
29.7103
7.40103
488.104
-2.91479
48.0924
450.471
-42.4394
5.57494
439.242
-49.5997
-1.15358
439.429
-63.3419
-0.5927
-50.9355
10.0749
172.812
-1911.61
-4059.06
236.078
-798.512
-647.386
624.298
-345.405
-596.289
567.722
-178.383
-72.1451
115.074
-106.336
26.1405
94.1659
127.68
109.364
135.466
-4.79113
-13.1487
2.19114
-40.8699
38.151
0.984988
-0.457174
-31.8951
7.43098
33.3615
-7.86711
-1.03025
-37.9609
10.6489
39.3597
-11.6975
-0.350193
-42.6258
9.89994
44.7885
-11.3484
-0.714166
-49.9915
9.13411
52.0943
-11.0738
-0.163013
-55.9406
11.4509
57.6496
-13.7838
0.62397
-61.1493
9.48444
62.6684
-11.9008
0.897245
-65.0777
0.654345
66.4792
-4.26032
2.20445
-58.832
189.919
52.8495
12.634
-53.5963
-61.0561
-53.8704
546.219
29.9734
13.7713
-159.541
-144.565
-150.884
-137.887
523.606
-14.9383
-4.88839
515.687
-27.7023
-13.9783
513.695
-51.5559
-9.79399
-47.9576
2.33841
-1554.22
-1770.45
-3556.37
-486.194
-307.421
-1559.11
-36.5006
-251.738
-543.361
-55.5801
-55.1846
-104.118
12.7949
-132.26
-84.1967
16.7892
10.2917
14.6648
0.412862
48.0766
-22.7609
-12.9336
1.6468
-21.4362
23.4277
-3.54543
-0.0929204
8.16952
-27.1777
27.9043
-8.31579
-0.580328
9.71351
-28.4614
28.0353
-8.63728
-0.650129
10.3251
-26.6104
26.3367
-9.46284
-0.588546
11.5445
-25.168
25.1308
-10.1016
-1.40564
10.8403
-26.2697
26.8999
-8.10729
-3.36324
5.04397
-27.1913
26.8633
-1.3036
-3.4123
-6.26223
-26.2587
26.7158
8.49199
-2.68685
-31.4958
-49.0634
145.773
27.2976
3.19128
-32.2274
-31.515
-31.9598
650.772
-15.5765
10.7296
-153.322
-161.893
-145.095
-155.642
650.72
-14.8917
0.00499228
641.381
-9.24648
-9.1168
619.877
-24.4144
-5.63782
-27.9931
1.29708
-306.914
-166.873
-3852.62
-120.102
271.185
-765.418
358.463
-299.651
-430.652
344.411
-90.2395
49.107
79.516
-168.275
62.3529
79.151
81.3287
78.0768
44.0783
89.6215
-46.7992
-7.3846
10.4396
-21.4483
22.1235
-11.1435
0.0286977
7.83377
-25.4039
26.0273
-8.39923
-0.0579221
6.13805
-26.4175
26.3712
-5.90589
-0.185798
6.36127
-25.2608
24.3762
-5.10172
-0.374961
5.81428
-21.5506
20.9606
-4.58207
-0.642136
4.8786
-20.039
20.1632
-4.79543
-0.20737
2.03052
-22.3951
23.8491
-4.94556
1.46113
-0.991085
-29.0698
30.9734
-2.68154
1.76902
-36.484
-3.13675
157.804
-14.1868
5.25634
-36.9979
-36.0072
-36.2476
656.979
-48.4883
-9.12329
-162.916
-149.88
-156.934
-145.215
673.852
-22.6298
-9.13467
678.431
-3.19422
-10.6309
654.69
0.566333
-1.23954
-1.21313
1.83812
-826.784
766.415
-956.945
-102.865
181.257
-633.991
120.44
-208.156
-314.8
138.56
-108.065
-0.294731
35.3741
-197.801
16.2972
43.5979
31.6702
41.1467
49.8179
69.9202
-72.9645
-11.3995
16.4514
-26.3925
29.3968
-19.0469
-0.408685
9.8699
-31.5787
31.4265
-10.337
0.619333
7.02002
-32.7836
33.8407
-8.76409
0.686911
2.6625
-35.2832
35.0408
-3.45311
1.03305
1.62961
-34.2958
34.5561
-1.76075
-0.129185
3.2857
-37.478
39.3931
-3.47109
-1.7297
7.85385
-43.7103
43.9679
-6.95011
-1.16139
9.1619
-38.857
36.6696
-8.42416
1.44961
-32.0672
20.9
126.851
-23.3095
0.802924
-31.1117
-31.5528
-30.5131
501.109
-51.9744
-25.1528
-123.21
-115.338
-121.094
-112.828
535.565
-29.8275
-27.2588
555.374
-6.53435
-16.4684
544.876
10.6966
0.367228
14.1343
3.65717
-1769.06
1297.5
-94.3174
-822.067
-188.116
-577.619
13.2775
-498.373
-545.128
187.623
-209.648
-72.762
408.542
-293.308
-125.412
88.0395
-343.74
-57.2246
96.6942
132.974
101.378
130.948
90.6595
81.3636
87.4491
22.7312
87.2504
-77.3506
-2.43436
16.0827
24.573
17.1872
12.916
-71.5092
80.6422
-53.079
-2.8801
10.1133
13.3624
10.4345
13.288
-94.8712
108.177
-57.353
-3.92967
10.8244
13.1566
10.7077
9.73672
-106.257
113.873
-41.7985
0.485866
7.37648
9.43005
7.1531
7.81429
-121.42
129.747
-38.5283
2.56665
5.99305
7.81744
6.0094
7.58954
-125.367
123.833
-31.406
5.18484
6.19302
7.6838
6.28852
6.80755
-116.815
114.255
-26.838
6.38991
4.48159
6.99607
4.72229
5.45528
-107.285
107.798
-23.6324
4.34386
3.77214
5.65005
3.89787
401.815
-66.016
-1.69399
22.5308
12.0428
20.1218
8.56592
-103.85
-100.816
-97.5426
-95.1581
414.814
-56.8564
-8.11599
424.54
-30.543
-9.01049
429.843
-6.98566
-4.85176
426.481
14.9349
-0.877215
17.5338
3.23538
96.079
510.821
-71.5881
353.54
8.21925
-453.796
640.522
-243.815
-541.541
850.245
-161.662
-257.709
808.016
-139.448
-111.631
675.467
-154.86
-56.3305
560.023
-42.3725
11.65
61.5667
15.0886
56.0667
13.4449
475.15
-173.021
1.14255
60.9094
66.4279
62.8073
66.6071
425.533
-122.624
7.86547
55.2858
28.8139
53.0339
27.242
402.073
-175.654
10.7459
48.754
45.0457
49.2085
45.3599
396.109
-137.236
12.6275
41.8243
23.8551
41.3335
23.5598
397.416
-149.584
14.8767
37.0258
29.758
37.1535
29.4624
404.999
-118.822
16.1112
31.4358
17.0886
30.5537
16.0493
412.277
-111.692
14.5067
27.9851
18.1208
26.8323
16.9696
413.335
-79.2293
12.1561
408.52
-56.1237
4.08234
400.846
-23.1592
0.289707
395.417
1.37778
-2.93383
396.082
18.8996
-4.6303
20.3538
-0.341358
2321.88
1478.74
3145.48
1612.45
501.033
216.624
1122.26
165.266
81.1008
1117.7
-112.662
-44.4368
953.293
-52.2356
77.1962
854.28
-108.896
53.0485
756.955
-19.3388
74.2916
653.357
-77.8299
8.40611
566.659
-44.3306
8.40478
507.728
-93.8813
-22.8415
481.017
-93.1027
-17.4221
469.944
-126.741
-11.7692
466.072
-113.073
-1.8777
462.129
-109.927
2.17686
452.789
-80.1187
10.2298
437.566
-53.171
12.2703
425.617
-19.5734
8.36389
420.106
4.42915
2.45886
423.21
17.4327
-1.63677
19.1259
0.727432
2012.99
61.3944
-1719.08
2022.3
667.597
-175.868
1544.57
551.276
91.7179
1317.47
51.114
63.3169
1090.69
96.5041
78.0432
1004.3
-29.5139
7.01156
908.263
60.9317
15.7646
847.718
2.31458
-19.5989
768.843
43.013
-8.46931
709.287
-7.68144
-26.6438
645.253
-25.5798
-3.48907
594.18
-70.974
-4.69379
555.145
-76.1365
2.09855
528.477
-78.9656
-4.29317
508.659
-57.9504
-2.35039
495.428
-40.2958
0.35634
491.049
-18.1331
2.93854
489.163
3.43871
2.87658
489.859
15.6725
1.06359
19.3534
2.11241
418.23
108.839
2586.71
523.968
319.692
242.168
798.048
146.089
131.106
745.543
7.17034
96.4493
738.22
58.3634
45.463
734.038
16.3667
-41.6986
724.473
88.9971
-18.5
704.883
59.0964
-37.1912
680.276
71.8393
-4.21978
649.541
34.4153
-11.3615
612.64
9.51186
1.80961
569.906
-21.852
-6.38888
528.238
-41.0182
6.55027
498.328
-48.6257
-0.429591
480.839
-39.3264
-1.13553
471.848
-28.9011
-2.40396
476.65
-20.5405
-2.3944
489.487
-7.50755
-1.8907
503.489
2.14039
-0.470024
10.916
3.1156
-630.61
642.46
-2313.09
312.161
-42.8529
-580.226
785.604
-43.1357
-284.218
759.751
48.059
-15.0356
754.989
63.0662
0.0589414
748.571
62.4324
-39.6472
745.563
87.3157
4.68941
747.496
83.7085
-26.5453
737.773
88.1941
-6.63231
722.773
67.36
-17.9439
689.246
46.3636
-3.32501
646.648
23.81
-3.06413
590.666
3.38814
11.5762
546.079
-6.50446
2.46569
522.493
-11.9938
-3.747
511.244
-16.0968
-1.55502
510.953
-22.0305
1.78107
518.97
-20.5631
5.03809
532.253
-16.9479
5.80558
-3.07585
7.34694
1616.09
-57.4579
908.795
1515.54
-289.95
347.638
1272.02
-103.183
303.571
1210.12
26.7911
83.1649
1068.39
37.2287
167.571
995.863
53.3584
81.6023
897.864
54.947
130.367
842.759
71.5473
67.2667
792.589
70.1187
68.245
760.322
66.6025
33.0245
728.351
53.6369
24.6979
703.985
44.2941
3.88136
681.667
34.3319
-8.62486
668.363
27.3956
-20.5959
661.005
10.0876
-14.7234
658.214
-5.72412
-7.58253
654.773
-22.0068
3.41735
649.719
-29.1286
13.6199
641.508
-31.6235
22.8873
-15.7555
18.0634
1749.39
-1585.81
1891.85
-432.414
1574.48
214.195
1469.25
132.016
1243.91
262.572
1140.26
157.002
1038.7
156.507
1010.91
99.3411
990.238
90.7917
993.086
63.7546
995.885
50.8376
1009.41
30.7658
1025.23
18.515
1053.9
-1.27872
1075.38
-11.3863
1077.51
-7.85768
1049.49
6.01626
1010.09
10.2669
967.111
11.3596
8.09557
1108
-2467.51
253.347
353.5
-359.274
1739.53
596.523
-205.805
607.059
554.329
-56.7949
136.893
590.525
-63.7157
39.8364
648.218
-61.5
-126.879
684.985
-83.8987
42.2601
756.713
-87.4057
17.9731
773.822
-72.707
159.542
789.934
-60.4632
160.498
778.099
-45.9778
202.143
777.822
-49.102
174.94
777.476
-49.0442
161.394
787.228
-52.7579
140.459
797.029
-50.1528
127.215
811.42
-46.6925
106.632
825.842
-39.1534
91.2109
847.537
-36.1357
74.68
880.026
-32.7661
52.5499
-24.5702
51.1004
657.502
-311.03
-27.2603
465.075
39.2968
9.69323
430.546
-9.94848
298.63
359.47
2.08779
99.2682
401.063
-76.8009
0.601178
408.696
-62.7888
-64.0422
439.222
-125.226
10.6497
473.492
-102.898
-63.6627
484.728
-92.0516
26.7518
486.842
-57.7358
9.24392
469.87
-35.8523
79.8875
457.2
-34.4319
62.2968
454.732
-48.0594
44.837
464.5
-57.6704
8.51417
479.329
-58.1479
-8.10372
497.183
-49.4957
-27.7795
514.954
-37.4421
-40.1933
532.23
-28.9856
-55.1393
542.913
-16.5824
-64.2038
-6.92594
-53.9586
1439.07
648.352
-2578.83
1216.47
317.524
177.891
1068.58
244.411
1078.03
877.87
230.941
682.052
653.969
117.119
343.364
525.221
65.8439
82.1906
382.157
-2.88943
129.59
301.554
-5.31688
8.78141
250.657
-37.3847
28.4624
228.896
-24.7196
-34.4481
239.57
-44.6235
-8.14903
259.387
-48.0654
-19.4188
293.141
-81.0964
-5.596
324.017
-84.9476
-13.813
351.885
-82.1301
-13.803
372.796
-62.828
-26.12
389.643
-48.1358
-29.431
401.669
-34.984
-31.3343
411.9
-20.4315
-35.3086
-7.43006
-16.9056
-414.217
-854.295
361.36
40.5987
168.004
-1573.44
102.423
72.309
-230.35
77.7234
251.712
-85.4926
154.725
77.561
-22.6431
101.225
112.927
38.7142
144.975
-30.034
24.2644
116.536
26.2595
-14.3754
148.507
-62.0543
-8.49362
152.506
-23.915
-24.6251
186.982
-76.6899
-8.36774
210.832
-71.5572
-4.67949
250.156
-122.345
10.9021
281.165
-115.824
7.36073
305.718
-105.556
4.643
320.34
-74.1709
-5.85419
329.857
-54.4914
-8.89788
333.453
-35.4149
-8.44586
336.285
-19.1596
-12.4035
-5.09935
2.42997
396.842
-596.507
-253.108
605.74
-17.9371
-466.012
487.258
162.162
-288.705
545.281
172.69
-20.2634
453.913
142.782
52.0839
415.421
150.036
23.7316
373.698
7.70696
24.2043
343.19
60.0034
-26.0142
316.751
-36.4369
-23.8187
291.87
4.11896
-49.7361
272.089
-60.7138
-29.1872
255.778
-55.2281
-29.6796
265.034
-139.268
18.7699
282.226
-136.342
27.0483
295.592
-121.582
18.1448
301.515
-78.7967
-2.21323
308.583
-61.5904
-0.258967
313.123
-39.4169
-1.73124
320.351
-24.5308
-6.16214
-7.23522
7.46749
125.723
-64.3094
-940.053
269.305
11.5291
133.346
257.405
333.497
77.3643
332.932
95.2107
50.4449
332.647
147.995
65.9376
355.325
132.306
-12.2762
438.484
-68.6271
-0.362045
458.244
52.724
-42.3451
483.399
-53.2096
-35.3247
490.102
8.47901
-60.718
472.817
-39.805
-45.5439
428.791
-17.6993
-10.2596
372.893
-94.3179
90.1978
330.774
-98.1068
96.4342
309.117
-106.912
50.4071
296.035
-69.9809
12.5427
292.991
-59.6434
-1.71111
294.084
-41.3162
-2.37868
303.016
-32.8125
-7.01995
-14.8525
9.7575
-666.823
962.195
835.45
-171.402
46.2266
-176.698
251.119
77.4762
-228.096
353.19
2.10334
171.863
509.87
4.26157
64.2759
486.03
160.8
40.3428
501.416
-1.10026
22.5419
-39.3695
-1.92785
-38.6568
531.68
2.87196
14.5072
5.52493
6.25784
10.2885
564.332
-10.8266
-0.316909
-29.8286
-8.42053
-28.3766
596.456
-4.56131
-10.4561
-5.63979
-1.8115
-1.99098
597.634
-3.92298
11.2555
-14.5407
-1.34414
-12.9832
554.004
4.8061
45.206
5.26782
6.9096
5.89006
439.379
8.55789
97.9572
-1.08058
7.37268
-5.79883
346.848
8.50341
109.961
-13.1832
3.29399
-14.8306
314.442
-77.7261
54.8258
298.259
-57.1287
18.4193
295.032
-60.2647
6.57393
296.329
-44.3151
1.73679
305.847
-42.9434
-1.04474
-23.4448
14.5815
-891.833
-688.853
-1736.9
-75.4264
-152.978
-537.259
235.934
-14.7916
-9.00115
276.98
3.05457
-14.0774
343.602
-22.2479
-22.8571
91.0514
32.0343
-46.7863
88.6521
77.8098
76.619
49.8892
37.5975
53.097
-1.55592
97.5003
-2.84817
-3.14515
4.1537
-93.5266
113.696
-16.7343
-4.71707
3.46892
-134.381
143.342
-18.5488
-4.70792
3.44693
-148.724
163.147
-18.1717
-4.26003
-0.746356
-176.942
186.591
-11.5948
-1.23065
-13.9983
-193.856
204.755
-5.45414
13.3602
-33.3297
-210.556
207.669
11.3748
33.3999
-47.3361
-196.301
176.978
21.8045
53.3582
437.656
25.3874
119.097
-146.253
-189.507
-122.478
-148.478
4.25878
19.2942
-0.225027
387.97
-15.5899
56.2393
362.012
-39.8013
11.07
353.41
-39.3465
2.4795
351.68
-44.424
2.61835
-27.8163
16.7095
-230.476
-931.272
-1007.19
1.28896
-262.317
-769.813
193.211
-56.2438
-746.758
257.242
-16.5055
-116.616
93.6156
-36.7398
-26.8757
77.1594
84.8042
69.1706
18.9733
117.652
13.0169
-23.9927
2.17479
0.933714
-34.1733
31.9595
1.74198
-2.63665
1.947
-27.859
6.78511
28.5747
-7.53928
-1.90853
1.47356
-31.7038
7.41498
33.0257
-8.60114
-1.6093
2.53093
-35.3705
6.68029
36.8413
-7.93421
-2.74789
1.36855
-40.4973
5.75963
42.3126
-7.20887
-1.73465
1.13679
-46.6781
4.80805
48.6186
-6.30745
-1.57786
-0.306901
-52.4972
0.316862
54.0034
-1.86901
0.35279
-3.1854
-55.1379
-6.27993
55.3454
5.78286
3.47494
-47.8118
-28.4977
143.799
41.4367
38.9756
-41.3003
-43.6007
-37.6139
445.229
13.4857
13.6462
-127.147
-121.787
-112.982
-112.265
426.018
-20.1708
-5.30798
413.482
-30.4243
-10.3641
406.409
-42.974
-4.17082
-28.569
10.1469
-685.172
-2038.07
-1255.72
-515.433
-274.576
-1716.59
-165.739
-204.209
-745.089
-156.317
-35.7048
-94.3412
-6.7116
-111.727
-131.911
-2.0493
-15.2716
-9.58274
19.2501
-6.84712
18.7521
-17.6173
-20.2493
0.637444
-0.876044
-15.9306
19.3324
-2.16615
-0.997012
0.239432
8.08894
-23.532
23.8024
-8.40906
-0.189698
1.57366
9.39285
-23.5855
23.4397
-9.05769
-1.763
2.29343
8.96785
-23.0537
23.132
-8.56573
-2.77376
4.41047
8.38439
-23.6698
23.9982
-7.98049
-5.1428
8.31119
7.17722
-24.6578
24.7845
-6.62041
-8.99475
7.90013
2.03507
-24.3407
24.1769
-1.45145
-8.32001
4.99708
-5.93222
-23.7579
24.1421
5.09371
-4.54281
-28.1617
-7.36675
-31.0335
125.781
16.4242
9.10034
-29.001
-27.4386
-28.3042
539.24
5.19497
4.05121
-130.779
-140.315
-121.981
-131.196
523.081
-3.02084
-0.985927
500.038
-10.0249
-6.47329
475.786
-25.6899
1.32939
-16.9166
6.79214
1775.33
-834.077
-766.099
248.496
234.671
252.171
161.887
-223.847
-324.406
134.615
-45.6123
86.2869
58.0782
-169.311
44.0337
55.2675
49.5098
47.6628
7.44835
40.9882
66.3168
-47.8712
-8.80396
-1.03904
11.1952
-17.5884
19.09
-12.5837
0.925987
-0.547601
9.19117
-21.7576
22.1484
-9.71669
0.68229
0.116285
8.09821
-22.1414
21.9863
-7.98252
-0.0769301
0.936027
6.92785
-20.8307
20.3495
-6.31838
-1.06422
2.21469
6.282
-19.3324
19.1677
-5.62904
-2.70302
1.15508
5.15459
-19.0178
19.2312
-5.13115
-1.39185
-2.45308
2.89431
-21.2679
22.4889
-4.08593
2.4237
-3.38057
0.115817
-27.0083
28.6669
-1.79811
3.40427
-33.0986
-7.04386
-4.01265
140.509
-5.78413
6.92423
-33.0001
-32.3184
-32.1753
550.825
-8.45639
-11.4464
-143.025
-133.003
-133.633
-125.19
543.258
3.37896
-7.9671
525.765
4.99498
-8.15792
492.077
0.162264
6.59577
3.4577
7.13598
-676.616
111.026
-1077.34
-258.845
73.7939
-890.885
-83.1878
-174.675
-539.629
-55.5771
-88.2719
14.7537
13.0397
-229.305
-34.9104
20.1342
8.2852
14.1646
13.9795
56.4121
41.035
-84.1485
-14.2383
-1.06809
17.6384
-19.4199
22.4598
-20.5951
0.984843
-1.92842
11.3524
-24.054
24.1147
-11.497
2.01228
-1.67169
8.58216
-24.8165
25.3423
-9.15336
1.7171
-1.2096
5.21671
-26.432
26.767
-5.36916
1.02707
0.704686
4.98814
-27.6994
28.1576
-5.29569
-0.855294
2.48278
6.18489
-29.1856
29.4698
-6.71021
-2.24165
-0.146543
7.22254
-29.0328
28.6167
-7.45603
0.796093
-2.78133
5.32085
-27.987
28.1693
-5.43391
2.71206
-28.2241
-0.197619
11.2077
114.782
-15.6798
-0.86823
-27.2121
-27.4002
-26.4072
431.721
-23.1256
-26.4775
-111.944
-102.425
-105.235
-96.1229
439.716
-7.8316
-24.0436
437.809
1.88975
-11.4554
422.191
12.4527
3.69475
15.7767
8.1381
-1438.83
693.933
851.375
-476.449
-309.706
-1156.5
-42.0493
-458.076
-696.127
129.201
-211.547
-120.737
285.194
-334.013
-176.697
54.8838
-400.447
-61.9654
107.563
132.503
109.078
131.213
59.5752
45.5864
49.98
22.3304
1.2664
52.544
-70.83
-3.77191
15.8689
21.8294
15.6466
13.1897
4.52783
-35.4014
46.7049
-58.1463
-5.55072
10.819
13.0267
10.8303
12.3724
5.21599
-60.3531
69.7277
-53.2371
-5.3182
9.79397
12.1738
9.62459
9.11582
-1.46052
-66.4524
74.8511
-41.9281
2.11656
7.2978
9.08085
7.37898
8.34831
-4.53008
-82.3504
88.8359
-37.2645
5.24686
6.58987
8.428
6.6961
7.96506
-8.19644
-84.3956
86.1245
-31.3439
9.01747
6.44911
7.95928
6.42056
6.95478
-9.3191
-85.0189
87.0118
-25.8019
9.66817
4.84987
6.84975
4.80556
5.39791
-5.64119
-83.5296
87.192
-20.8365
4.94054
3.64138
5.28496
3.55042
325.676
-45.3227
-3.93947
16.7662
4.81599
15.0748
3.33013
-84.9433
-80.8826
-78.0189
-74.2503
338.473
-34.9221
-9.11629
343.027
-13.3435
-8.05236
344.341
-0.310811
-3.96515
342.668
13.4852
-0.237225
15.3573
7.34524
900.184
996.519
-164.144
920.409
36.7912
-820.518
592.037
-205.529
-465.716
621.816
-193.55
-305.484
525.871
-206.876
-142.824
408.265
-260.26
-78.9123
359.772
-113.187
21.6546
59.0403
18.3259
56.7841
17.5253
310.039
-235.456
-1.24336
70.634
72.8074
71.7671
72.3659
289.806
-141.229
13.2262
52.6857
27.0522
50.7589
25.6051
280.112
-180.905
11.368
49.7603
45.5747
49.6591
44.9826
284.037
-126.156
15.6855
39.1191
21.5741
37.9345
20.546
289.944
-132.236
17.353
35.3025
27.2931
34.7938
26.4626
300.745
-93.5694
19.9831
27.4671
12.9964
26.4264
12.0072
309.034
-82.6962
16.0211
23.8118
13.4384
22.945
12.6971
312.486
-48.8657
12.2475
311.977
-33.5992
3.26851
310.2
-11.222
-0.0552389
309.164
1.102
-3.31011
312.589
10.4562
-5.02657
11.248
3.60919
802.095
969.684
2963.11
928.524
247.122
-120.136
673.33
-1.95179
132.717
697.445
-230.953
-31.1497
621.583
-136.843
83.0258
579.981
-197.165
31.556
542.546
-80.6892
79.2289
461.249
-143.358
-2.39558
405.889
-89.023
11.5591
361.234
-135.099
-23.9923
340.583
-111.598
-11.3292
332.149
-125.598
-9.97269
331.213
-97.379
2.86778
330.202
-83.8127
4.30516
330.361
-50.929
12.1333
327.457
-30.9835
12.5592
325.72
-9.35131
8.23016
326.16
1.11968
2.001
330.732
6.26845
-2.02091
6.67692
4.25686
1521.43
-492.007
-1684.14
1150.89
193.947
247.843
901.206
239.289
100.166
878.068
-109.593
-34.9056
790.014
-15.9714
45.2252
736.376
-112.683
-23.8319
658.802
-16.1788
28.8278
595.674
-74.2322
-25.5966
530.662
-34.6365
2.15607
480.037
-85.607
-25.5107
441.204
-76.9959
0.741457
413.179
-96.8123
-5.45497
393.001
-78.9787
3.87632
379.236
-70.0395
-4.3016
370.055
-44.8246
0.726189
365.471
-27.5167
1.47432
366.304
-11.0843
3.83855
368.586
-1.18869
2.90247
372.008
2.90066
1.00952
4.31452
5.04691
215.355
-470.736
889.002
164.385
279.254
207.832
528.422
26.6385
-20.2799
516.188
-76.2029
75.2932
544.405
-39.3157
40.5904
525.872
-83.5262
-52.3224
523.554
-20.8583
-11.5022
502.837
-48.7203
-41.9861
492.122
-27.8641
-0.277243
468.851
-56.9912
-16.7068
445.26
-55.0336
3.43877
417.676
-67.4079
-8.20966
396.802
-57.1561
5.60179
380.39
-51.2112
-2.84636
370.703
-35.4773
-0.795292
367.567
-24.6998
-2.08523
373.075
-17.3998
-1.58692
382.391
-10.6167
-1.77855
392.586
-8.06309
0.298984
-2.98693
6.53637
327.846
477.202
60.3874
518.612
13.4006
-505.139
640.925
-37.28
-342.612
617.116
-24.2839
-43.1459
583.311
-18.0432
12.5915
563.551
-39.4956
-63.9169
566.047
-15.5396
-3.12535
563.134
-24.8493
-47.5033
558.088
-17.5201
-11.9299
541.49
-30.214
-28.1236
516.726
-30.6713
-2.92317
488.148
-33.8263
-8.06781
462.153
-27.6412
8.05634
439.912
-24.3125
-2.1917
423.759
-20.0869
-2.98479
416.803
-17.5692
-1.72912
418.482
-19.0769
1.77924
425.497
-17.4362
4.84264
434.266
-17.483
6.45612
-9.06588
9.42595
541.274
594.076
454.55
776.525
-36.7792
162.567
890.565
-12.0386
164.289
901.094
25.6472
22.705
841.975
28.1935
180.453
797.073
35.6899
51.3192
739.707
38.2431
133.95
695.38
44.6391
42.1055
658.563
34.3511
53.1913
629.973
26.413
4.98752
606.45
14.1792
3.37019
587.608
8.47058
-19.574
571.555
2.35151
-22.5641
558.634
0.878699
-32.866
548.538
-2.84699
-21.8672
542.99
-3.84449
-15.7598
540.596
-10.6787
-2.58614
541.458
-13.3371
8.65856
541.794
-15.8389
20.9076
-8.10291
17.2125
2207.78
-3144.32
1736.67
1.92629
1304.31
634.508
1174.96
287.016
1054.33
411.392
1025.67
221.357
981.719
238.7
974.37
151.329
960.014
139.499
959.349
90.8324
951.361
73.0053
948.547
42.0504
943.478
25.9349
940.171
2.90739
933.975
-8.03729
929.481
-7.20867
919.125
5.69438
905.627
10.4275
879.443
21.7049
17.7395
-1573.72
-1545.15
-2890.37
-436.762
-237.563
840.137
245.83
-220.169
144.637
352.178
-101.945
132.489
435.815
-97.9554
54.1553
465.3
-73.3767
-82.9876
517.191
-85.025
75.3947
580.926
-60.456
14.6937
619.547
-35.6645
156.586
660.537
-17.4681
136.977
685.678
-6.03744
183.039
717.463
-12.9001
156.055
742.269
-15.4375
152.026
770.655
-21.1071
133.18
793.608
-19.2367
123.498
817.549
-16.2174
98.909
842.457
-9.68015
75.982
880.254
-7.77984
44.6634
926.718
-0.451191
6.53712
9.81381
16.7147
72.2137
254.787
-1317.37
297.418
-29.7281
-423.346
236.592
-20.1606
159.446
206.953
-58.9666
85.9296
247.656
-117.876
-20.1815
222.54
-71.5112
-40.7915
264.161
-123.92
7.92286
273.331
-72.4457
-60.8424
299.621
-55.9465
20.7433
309.815
-17.3236
-1.09446
331.011
-5.52813
58.1823
349.832
-6.72809
37.3033
370.8
-19.7801
28.212
389.676
-27.4415
-4.02751
407.405
-27.8104
-17.2594
423.545
-21.6164
-38.5209
438.471
-12.5076
-52.2915
451.885
-7.78077
-68.5521
461.44
0.220628
-74.431
5.3361
-50.2751
-120.177
1706.26
-2899.87
206.268
263.271
-441.554
435.763
238.865
589.508
483.83
167.2
407.818
402.786
65.4697
241.063
307.015
53.514
52.9365
228.77
-15.3193
99.235
168.588
4.00092
-7.48298
151.995
-28.0518
17.1598
136.1
-4.88984
-30.9862
158.573
-27.7646
-8.3863
176.222
-26.5059
-17.29
210.712
-55.4052
-4.46056
237.049
-55.6146
-11.9771
262.371
-54.3282
-12.6076
278.475
-40.0061
-23.8334
291.871
-30.1989
-25.1357
300.162
-21.3724
-26.0342
305.311
-11.1386
-29.0979
-2.31256
-7.44674
-270.477
-301.818
604.475
-118.114
65.9686
-1528.5
103.775
29.6998
-243.073
5.49234
222.245
-42.2564
53.5622
57.4504
-62.6935
-2.57399
98.0417
50.3227
60.047
-46.3054
-7.37053
15.7938
30.7348
3.14392
60.0207
-64.6006
-16.1717
50.9798
-9.91587
-10.5583
91.4965
-68.9662
-7.68284
113.123
-51.1527
-1.65871
156.923
-94.1199
5.81612
187.121
-81.0853
2.6336
212.125
-75.8097
1.12036
224.621
-51.5341
-6.82212
232.997
-38.895
-8.57773
235.846
-24.8218
-7.84542
236.94
-13.0386
-11.5976
-3.05007
5.68904
656.473
-1557.03
618.183
695.947
-62.4893
-377.029
374.122
125.236
-62.415
397.369
161.045
17.6893
305.48
131.49
69.9336
269.125
136.758
21.3697
239.899
-11.4609
18.5857
195.682
65.3223
-16.385
170.509
-47.861
-15.3847
136.966
8.51038
-34.6198
129.272
-72.8998
-17.5587
123.183
-55.7503
-18.9937
150.583
-115.6
12.8507
177.645
-97.5862
16.487
199.698
-91.5008
11.7834
207.607
-58.2191
-3.43786
215.587
-46.4281
-0.706105
218.953
-28.2611
-1.65779
222.962
-17.4572
-5.75222
-4.88554
10.2224
461.9
24.0828
-1702.06
323.451
106.566
102.739
134.442
374.422
17.1872
150.606
107.782
87.5444
163.739
155.541
28.7538
160.49
131.963
-4.23206
250.853
-84.0478
-18.1386
237.082
71.0392
-34.2904
249.674
-62.6563
-33.1214
225.662
16.8688
-45.0649
198.933
-59.9341
-31.7803
170.888
-35.6489
-2.31667
180.032
-95.1885
60.6427
196.084
-79.0209
61.8161
207.537
-85.4942
32.9481
208.063
-54.6893
8.48598
208.593
-47.365
-1.30379
209.722
-30.4611
-1.30806
214.978
-23.9886
-5.74376
-9.71302
12.3708
-162.359
600.962
2441.14
-44.9505
223.113
-410.653
160.105
253.16
-311.889
240.175
84.9688
114.605
356.262
62.7735
40.9565
305.882
193.657
29.0292
320.1
-2.70815
11.5435
-38.7472
-6.17174
-39.6404
324.954
14.7783
8.19252
17.3667
19.2023
21.1519
337.583
-7.07633
-6.66157
-27.8363
-6.36649
-27.6614
335.946
2.40742
-10.1932
3.48186
5.30289
7.05123
310.594
-0.601767
4.05806
-13.5367
0.703512
-13.9505
258.035
7.22402
36.4524
5.32179
8.16896
4.94975
218.223
4.19625
66.5177
-12.3834
1.11182
-16.8616
210.204
-0.836271
75.7643
-16.6877
-3.13201
-16.1495
212.867
-68.9085
35.5767
211.131
-46.1327
11.5989
213.093
-48.132
5.3787
214.586
-32.1577
1.94005
221.442
-30.7721
-1.1167
-13.7399
15.8031
-541.191
-300.449
-1766.55
-151.801
178.469
-882.006
200.327
200.502
-308.47
168.763
105.267
-2.81143
214.088
30.0429
-35.4518
47.9423
46.2973
-18.6595
48.1046
34.1038
34.7938
59.6143
48.0836
60.6788
2.51363
54.5504
-3.67247
-8.15743
6.23004
-48.5259
69.5992
-7.69965
-4.82526
5.79152
-88.9025
94.2752
-11.8382
-6.40239
5.07317
-95.6508
107.244
-9.69641
-4.5623
3.15412
-118.32
123.39
-3.32125
-5.50547
-11.9513
-125.924
131.377
4.26406
9.45838
-31.0961
-132.89
127.142
14.1851
26.8555
-55.659
-114.192
103.989
13.1619
51.8641
289.782
14.1997
87.4957
-89.0157
-103.755
-69.8059
-77.6806
-4.53358
10.1771
-6.6752
280.712
-20.0024
39.1788
266.674
-32.7973
9.77334
260.742
-27.915
4.16934
258.794
-29.6642
3.4579
-13.6508
18.0772
1174.5
516.396
1679.57
529.133
77.0432
-23.0231
198.872
93.2688
-309.265
175.004
46.3
-33.7804
65.3258
-19.8705
-12.1526
51.397
53.1283
40.3425
22.1045
83.2085
25.2687
-18.9586
1.90925
0.825857
-24.5679
22.3508
1.72061
-2.23855
1.6974
-18.9524
5.86939
19.7348
-6.84521
-1.504
2.11396
-23.0595
5.40482
24.2231
-6.59094
-2.0914
3.28263
-25.5722
4.51142
26.7471
-5.77262
-3.19638
3.12466
-29.6422
2.93893
31.1041
-4.18155
-3.34396
3.24581
-33.7054
0.813673
34.9925
-1.8692
-3.47738
0.143233
-36.8838
-3.76295
37.5339
3.08792
-0.118275
-4.63754
-35.3354
-7.3168
34.095
7.96448
5.23028
-27.2689
-38.7284
97.0849
23.9444
31.4798
-25.0248
-24.3912
-22.8962
328.634
2.50256
6.77489
-91.1978
-93.4906
-78.2242
-81.3546
312.793
-20.7891
-1.47536
302.54
-24.6447
-3.38204
296.678
-29.3854
1.41291
-12.6102
14.2026
1037
-1720.31
-5523.23
-418.936
-66.7854
-116.827
-181.732
-174.155
-714.87
-229.462
-25.7951
25.4838
-33.7128
-106.641
-127.716
-29.8087
-43.5656
-39.8
13.9369
-13.3543
-8.35015
-15.4034
-10.5417
0.372903
-1.24147
-9.55314
12.7757
-1.92696
-0.427002
0.116259
7.69034