/*--------------------------------*- C++ -*----------------------------------*\
  =========                 |
  \\      /  F ield         | OpenFOAM: The Open Source CFD Toolbox
   \\    /   O peration     | Website:  https://openfoam.org
    \\  /    A nd           | Version:  10
     \\/     M anipulation  |
\*---------------------------------------------------------------------------*/
FoamFile
{
    format      ascii;
    class       volVectorField;
    location    "10";
    object      U;
}
// * * * * * * * * * * * * * * * * * * * * * * * * * * * * * * * * * * * * * //

dimensions      [0 1 -1 0 0 0 0];

internalField   nonuniform List<vector> 
12920
(
(230.62 -198.208 71.2308)
(142.694 -106.67 4.21354)
(170.751 -19.9579 19.164)
(88.3364 20.1827 -0.747694)
(115.728 30.541 -0.703114)
(77.7496 16.6249 -4.78082)
(105.293 9.80265 -1.5731)
(90.7427 1.41339 -0.730823)
(101.282 -2.67811 2.20426)
(90.5974 -5.10395 2.93788)
(89.7344 -9.18236 3.82661)
(79.5306 -11.0658 3.29567)
(78.113 -11.5444 2.71327)
(74.7759 -10.819 2.30483)
(75.6838 -10.1196 1.98548)
(75.761 -9.47478 1.78119)
(77.1189 -9.109 1.53617)
(78.4586 -9.30474 1.40629)
(78.5505 -9.6427 1.45033)
(83.1738 -9.11329 1.5791)
(206.721 -117.211 -42.3378)
(125.618 -2.44689 8.84129)
(134.156 -7.33864 24.324)
(36.0471 3.22647 3.74192)
(95.2865 -2.86422 1.69727)
(48.2656 1.3001 -1.75958)
(86.625 -6.68873 -0.625176)
(68.8268 -9.50985 -1.40465)
(84.7788 -10.9554 0.202677)
(74.587 -11.8241 0.247366)
(74.4666 -5.81123 2.29387)
(57.932 -4.49658 2.30429)
(54.0945 -4.82259 1.41062)
(48.3442 -7.33138 0.461245)
(50.6564 -7.59548 0.0371611)
(50.92 -7.44605 -0.197348)
(53.2767 -6.33974 -0.399257)
(55.0234 -5.5894 -0.742588)
(55.7048 -4.12243 -0.971983)
(58.5065 -3.01271 -1.00435)
(475.875 -98.9365 99.2877)
(419.825 -77.7655 20.0374)
(355.25 -16.996 39.8816)
(154.33 20.7266 28.3552)
(139.26 27.1638 11.7573)
(81.9706 17.2236 3.55206)
(86.9386 6.70315 3.45608)
(48.0619 1.07867 1.31344)
(51.6883 -1.98812 1.21085)
(30.1632 -1.50181 -0.546462)
(37.2506 -2.77869 -0.184552)
(30.1268 -4.60959 -0.351786)
(37.1909 -9.01218 -0.183294)
(36.3003 -10.7064 -0.309516)
(41.3174 -11.5612 -0.284295)
(41.7813 -9.94757 -0.503321)
(44.9369 -8.4808 -0.692467)
(46.1633 -6.74463 -0.771766)
(47.1185 -4.68418 -0.932936)
(50.531 -2.11947 -0.626773)
(-14.5058 139.182 -37.3382)
(-115.938 65.0849 -45.3041)
(95.7406 41.7324 -11.8502)
(-23.3992 40.0446 -2.07479)
(79.0135 23.6243 2.15714)
(5.80178 22.4076 1.07065)
(51.6387 13.7049 1.93348)
(12.7657 11.2158 -0.186167)
(36.4828 3.96906 -0.052105)
(20.7832 1.53429 -0.513344)
(33.0055 -2.86179 -0.18384)
(27.6939 -4.84739 -0.079398)
(34.4985 -9.07633 0.290784)
(34.0029 -11.0098 0.239951)
(38.1238 -10.652 0.20536)
(37.878 -8.14495 -0.0217123)
(40.0452 -5.61938 -0.133614)
(40.0007 -3.85443 -0.107383)
(39.5962 -2.15893 -0.233212)
(41.0427 -0.587278 -0.0565917)
(-38.0266 -97.2174 108.083)
(-46.4988 19.7257 -15.7411)
(102.874 -0.0360489 -10.8871)
(41.8938 29.6939 -1.94395)
(95.1778 15.8289 0.628679)
(48.1422 20.9166 0.766217)
(68.4218 3.31888 0.5695)
(42.5129 9.90619 -0.676265)
(56.44 -1.12484 -0.891232)
(43.6185 2.88678 -1.56948)
(51.3944 -4.43534 -1.29383)
(42.7039 -5.93721 -1.0518)
(43.5341 -15.6431 0.171309)
(37.1207 -16.3757 0.67871)
(38.5976 -15.9003 0.430582)
(36.1175 -11.7545 -0.0193115)
(37.5168 -8.9409 -0.025793)
(37.5306 -5.99999 -0.0217053)
(37.9525 -3.75266 -0.126232)
(40.416 -1.10194 0.0628031)
(138.677 -51.7114 163.224)
(8.347 -25.7447 28.2903)
(103.74 39.7748 12.4315)
(15.8787 25.6602 2.8676)
(84.1202 35.4827 2.73286)
(37.9833 32.962 0.225955)
(76.6994 22.4937 0.29735)
(64.015 19.6629 -0.79242)
(79.8725 11.0025 -0.847869)
(79.0267 10.8047 -1.6024)
(85.9414 6.31715 -1.59198)
(83.4919 5.87756 -0.86526)
(76.2142 -4.63523 2.04174)
(51.109 -12.3086 2.99792)
(41.155 -12.0728 1.2748)
(35.3333 -7.46165 0.160904)
(34.1131 -6.34968 -0.139437)
(33.9758 -4.89331 -0.130014)
(33.5267 -3.76341 -0.242063)
(37.2277 -1.51641 0.0714708)
(134.977 -166.839 -39.7409)
(-100.223 -40.3541 24.6402)
(122.849 3.59602 4.44719)
(0.342947 -3.66767 6.4245)
(90.9697 6.36483 3.26444)
(52.1603 11.6932 1.76919)
(75.6165 -12.6973 0.971153)
(65.6354 6.5391 0.685126)
(80.3695 -4.25129 0.415812)
(80.9988 4.71117 0.231463)
(89.6039 2.42012 0.744308)
(87.2026 7.34359 1.24627)
(82.438 2.51349 2.50181)
(53.5112 0.419869 3.2114)
(41.5562 -8.443 1.65702)
(34.0661 -6.62494 0.361283)
(33.6092 -6.63459 -0.0196452)
(33.3442 -5.41771 -0.0314541)
(32.9994 -5.50868 -0.082045)
(36.3772 -3.53367 0.223727)
(101.001 -28.2831 -70.363)
(-47.9936 -108.588 -0.869339)
(105.326 -39.6706 7.45025)
(2.00549 -14.1044 2.73772)
(79.832 -8.03436 1.86295)
(25.7107 27.8505 -1.46134)
(58.7834 15.7406 -1.17129)
(57.0356 2.94767 -0.706708)
(73.9085 0.853887 -0.246667)
(81.2236 -1.406 -0.0837543)
(94.4491 0.935344 0.0982518)
(100.618 2.79264 1.13956)
(103.109 11.5508 2.39019)
(86.5497 14.7045 2.45451)
(64.3641 -1.9926 1.73229)
(47.8576 -2.64395 1.46681)
(42.1213 -5.44004 0.0785079)
(40.5505 -5.01436 -0.113376)
(38.9712 -6.02585 -0.110468)
(40.9003 -4.63061 0.22211)
(176.261 -233.379 -295.842)
(-113.804 -95.569 -38.9317)
(127.124 -27.478 -20.0821)
(13.2495 -12.1055 -1.59418)
(75.3646 -1.60435 2.59659)
(29.0634 9.31267 -1.62968)
(58.3879 14.5796 -0.188953)
(48.3676 -0.978395 -0.518948)
(58.3498 -7.99675 -0.0896543)
(65.9125 -9.15675 -0.176379)
(77.6384 -9.72175 -0.0215056)
(86.6752 -14.8799 0.562405)
(94.793 -13.9472 0.65174)
(100.635 -1.74849 1.18049)
(79.6749 22.1833 0.751577)
(51.4517 6.24641 0.577908)
(48.8056 -0.143973 -0.0818147)
(47.4685 -2.81529 -0.534187)
(46.2384 -5.43286 -0.479927)
(47.5514 -5.16407 -0.0698756)
(-24.5901 -127.402 -336.24)
(-219.558 -1.28909 -53.0767)
(56.3687 19.1459 -17.8826)
(-70.4557 21.9816 -3.23133)
(38.6841 13.9519 -2.21069)
(-17.6845 12.5463 -1.60201)
(24.4385 8.955 -0.182908)
(38.7009 -2.98623 -0.421163)
(40.4561 -6.08939 -0.268521)
(37.5493 -8.46199 -0.197845)
(35.4724 -11.4555 -0.535609)
(37.9386 -9.98174 -1.36786)
(38.7194 -0.163312 -1.44781)
(37.7594 15.9238 -1.21739)
(51.7144 18.7939 -0.0148458)
(59.4981 4.0479 0.693306)
(60.5161 0.470197 0.162545)
(59.9162 -0.479242 -0.250235)
(57.8427 -3.51942 -0.322921)
(56.1827 -4.00291 -0.0821936)
(147.925 -117.687 -359.216)
(-181.925 -3.92806 -59.0556)
(95.2159 -35.6167 -17.6727)
(-24.2084 1.26631 1.76229)
(54.2413 -12.3391 2.7241)
(10.929 -7.0707 -1.14064)
(21.3862 -6.15881 -0.13459)
(34.17 -2.85872 -0.119989)
(35.8698 -0.963306 -0.105021)
(33.8669 -1.88974 -0.159399)
(28.3565 -2.28959 -0.241224)
(26.6698 -2.7275 -0.0532368)
(31.1977 -1.83804 0.639533)
(42.1028 1.55886 0.717054)
(54.8066 -0.788735 0.454666)
(58.7148 -2.67657 -0.109653)
(61.4381 -0.165719 -0.226351)
(62.5696 0.898845 -0.316866)
(61.647 -0.0314624 -0.228584)
(58.5027 -1.1575 -0.0536477)
(-28.2449 107.165 16.4534)
(-140.75 95.8156 -13.8576)
(48.0765 17.7749 -5.78371)
(-40.2033 14.9049 -0.0213174)
(32.5359 6.36877 1.32929)
(-6.91568 -11.5513 -1.63652)
(31.347 -18.5217 -0.428628)
(41.7772 -7.11407 0.117679)
(45.6827 -4.82674 0.258587)
(49.0614 2.65939 0.521605)
(48.179 3.76239 -0.0238249)
(54.6973 0.11514 -0.84357)
(64.1135 -7.30677 -0.725487)
(54.0856 -11.0695 0.594888)
(44.4319 -5.76426 0.144918)
(41.9489 -2.85079 -0.735929)
(46.165 -1.16492 -0.998284)
(49.4375 0.731896 -0.682194)
(49.3589 1.4303 -0.103558)
(48.0514 1.39545 0.051371)
(-105.393 154.172 -120.958)
(-261.841 -21.2466 -2.9947)
(41.668 -39.2251 -13.843)
(-57.3247 -11.5564 -2.09939)
(58.3643 -25.1918 -3.37349)
(7.52085 -38.9974 -2.125)
(30.3187 -19.3533 -0.868623)
(20.3831 -10.7369 -0.388082)
(34.1176 -12.5159 -0.520786)
(35.1447 -8.50988 -0.0318226)
(43.5329 -7.17988 0.185623)
(42.4318 -6.19521 0.462637)
(39.1101 -4.36634 0.687139)
(35.8143 -4.54268 0.488812)
(32.605 -3.95744 0.0783826)
(34.575 -3.64245 -0.218032)
(35.621 -1.84015 -0.339298)
(37.1184 0.0168433 -0.21061)
(36.0178 1.92489 -0.0827273)
(37.0421 1.83143 0.0547867)
(39.5322 51.2347 -106.817)
(-65.549 -9.41385 5.11357)
(72.4623 -30.2972 -11.7435)
(44.5611 -4.4617 -6.84121)
(90.02 -10.4671 -2.88793)
(52.6738 -11.5883 -1.35623)
(56.4904 3.8976 0.303622)
(36.3105 -16.5757 0.0510797)
(37.7171 -7.21251 0.133854)
(29.6317 -14.4845 0.309717)
(32.7117 -8.34113 0.349724)
(30.3487 -10.7008 0.435316)
(33.0585 -7.0361 0.45562)
(33.045 -7.51262 0.438565)
(34.631 -4.64544 0.411919)
(34.0701 -4.11263 0.158692)
(33.9562 -1.58592 0.00970278)
(33.2982 0.476857 -0.101757)
(32.2567 2.17001 -0.187043)
(34.0237 2.04769 -0.105685)
(314.959 101.041 44.7392)
(143.3 28.9126 30.2232)
(139.771 -9.59098 2.97305)
(81.8889 -12.6467 -2.95367)
(103.333 -2.94126 2.01405)
(66.1949 -4.47961 2.41634)
(76.0867 2.34742 2.70254)
(54.6455 -6.05886 0.642598)
(53.038 -6.18559 0.242498)
(41.0187 -11.5655 -0.844621)
(41.1146 -10.9947 -0.800783)
(37.6714 -12.5578 -0.529218)
(39.1502 -10.9661 -0.220434)
(38.0724 -10.1607 -0.0278571)
(38.6379 -7.20183 0.258675)
(37.0563 -3.94537 0.400932)
(35.9793 -0.610323 0.293819)
(35.426 1.61056 0.102519)
(34.2828 2.6419 -0.0740989)
(36.6656 2.35397 -0.0386786)
(245.665 83.9562 -26.6222)
(169.912 73.2701 -18.6839)
(188.023 59.7108 5.05228)
(111.428 7.63068 6.82817)
(116.668 9.7815 5.16905)
(81.5815 -2.74564 1.62567)
(89.2934 7.39246 0.750481)
(71.2772 1.51641 -0.585225)
(72.9521 6.72157 -0.518415)
(60.7554 0.997694 -1.13702)
(59.8104 -0.683604 -0.28494)
(50.822 -6.76082 -0.220252)
(49.5387 -6.64348 0.00552072)
(44.6735 -7.5728 -0.191447)
(44.3847 -5.38892 -0.184206)
(41.7765 -3.92171 -0.041149)
(42.0378 -1.18713 0.063389)
(41.7422 0.758259 0.10115)
(40.9224 1.74748 4.93608e-05)
(42.7176 1.76446 0.0296738)
(141.118 -12.348 128.837)
(-15.1147 91.8287 17.4861)
(131.574 67.9517 8.21384)
(19.9016 24.2564 4.66894)
(86.8287 24.8249 1.58985)
(42.3014 11.1522 -1.42103)
(71.2509 15.9501 -0.860848)
(51.5625 9.70255 -1.25139)
(62.6912 10.0022 -0.313887)
(52.3565 4.61853 -0.396927)
(55.2793 1.4903 -0.0519046)
(48.0468 -2.60655 -0.244537)
(46.7279 -4.53088 0.236915)
(41.4791 -4.92608 0.017317)
(41.0085 -3.44525 -0.0621441)
(39.0736 -1.93692 -0.112175)
(39.5684 -0.706387 -0.126613)
(40.8391 1.16441 -0.0601564)
(41.3216 2.17154 -0.0659121)
(44.5697 2.33653 0.0518167)
(-14.552 134.886 -80.3018)
(-81.1745 29.2973 -19.9806)
(105.84 -2.5278 -14.9319)
(24.6307 3.21456 -1.75719)
(82.082 4.58434 -1.21555)
(44.1972 5.92047 -1.15511)
(70.4463 10.4768 0.116506)
(54.3753 9.37978 -0.591908)
(66.7203 10.409 -0.21348)
(58.7394 7.49948 -0.526315)
(62.3718 5.28331 -0.15352)
(55.6058 2.0401 -0.0395775)
(53.7402 -0.444261 0.480551)
(46.3849 -2.11712 0.172715)
(45.1039 -2.2331 -0.159384)
(42.871 -2.07882 -0.0749807)
(43.2104 -2.06588 0.0402847)
(43.6443 -1.6779 0.162109)
(43.9843 -1.09796 0.160596)
(47.3526 0.0343791 0.246597)
(196.041 161.43 14.4282)
(94.5671 25.4325 24.0648)
(126.272 22.0094 15.7538)
(81.1504 27.0407 3.39318)
(109.26 20.7636 4.75778)
(73.2814 15.5896 2.94494)
(88.2269 13.6098 4.02204)
(65.9003 12.756 2.42934)
(73.3728 11.6203 2.26897)
(62.5933 9.66557 1.4065)
(65.5493 7.16718 1.12805)
(59.8114 5.33295 0.568665)
(60.4812 3.53194 -0.0193856)
(57.4375 2.60719 -0.49155)
(57.983 1.2873 -0.400166)
(57.1801 0.00213085 -0.133897)
(57.8564 -1.45343 0.212524)
(57.3252 -1.80578 0.557493)
(56.0137 -1.93912 0.843711)
(56.9324 -0.55017 0.686828)
(191.965 -97.3767 -27.3537)
(135.348 -50.8486 -22.7873)
(160.177 -17.9295 -2.41647)
(109.78 -7.05943 1.24151)
(126.98 -5.38376 7.25748)
(90.3666 -0.543211 4.80656)
(99.3351 0.407592 3.96952)
(82.0421 3.80284 2.18131)
(90.2049 4.43991 1.87827)
(84.5903 5.33364 1.39902)
(89.5888 5.05748 1.17867)
(88.7476 4.81438 0.739042)
(92.1748 4.48874 0.481092)
(93.8556 3.81923 -0.219432)
(98.0986 1.55472 -0.551547)
(99.429 -0.480948 -0.395858)
(99.0199 -2.44985 0.167898)
(94.7086 -3.66793 0.358186)
(90.2248 -4.23068 0.285896)
(87.6207 -2.57701 0.173766)
(286.31 -414.944 -75.9638)
(-35.8668 -86.2965 52.6047)
(132.728 -2.49088 35.8696)
(29.2425 10.1403 5.44929)
(94.2936 14.9153 1.16329)
(50.4947 4.83981 -5.26571)
(84.9579 2.2059 1.11431)
(69.0085 -1.6878 0.823085)
(85.3549 -2.93659 5.99839)
(77.5112 -4.19158 6.2728)
(81.5365 -6.12736 7.69841)
(76.4341 -7.33339 6.75518)
(78.0624 -7.5011 6.24506)
(76.4535 -6.99298 5.49131)
(77.9522 -6.6129 4.96949)
(78.283 -6.15983 4.15189)
(79.6286 -5.75214 3.78185)
(81.2438 -5.59426 3.39928)
(82.2739 -5.89202 2.70566)
(88.9054 -4.7989 2.31029)
(183.013 -139.875 -50.4113)
(-1.15192 -7.77307 8.72286)
(118.16 -33.7202 15.1038)
(7.12604 -18.5729 4.11888)
(83.8238 -23.98 0.42475)
(23.9229 -13.3164 -2.55269)
(65.9558 -16.9098 0.319785)
(39.2734 -13.418 -2.1481)
(58.7439 -9.87739 1.18199)
(46.2286 -6.23564 0.739942)
(52.1705 -1.58179 3.47695)
(44.1917 -1.18138 2.83288)
(46.3544 -1.13512 2.05729)
(43.7978 -2.60728 0.595494)
(46.3529 -2.65415 -0.144521)
(46.6124 -2.5919 -0.836282)
(48.7947 -1.64632 -1.27057)
(50.1902 -1.36229 -1.72858)
(50.8003 -0.508503 -2.07019)
(52.9586 -0.0842626 -1.87452)
(238.943 62.9964 -81.1058)
(108.716 13.1782 4.58727)
(187.846 35.4675 53.5747)
(79.4065 24.5566 31.8829)
(108.472 16.9807 14.4347)
(48.2462 8.02215 3.57614)
(65.4698 0.730771 5.38418)
(25.9315 -0.376757 0.817639)
(39.0884 -2.2581 1.45117)
(18.7185 -0.359718 -1.29031)
(28.9056 -1.43939 -0.341087)
(21.6499 -2.2577 -0.713175)
(29.4684 -5.80159 -0.231607)
(28.4641 -6.69893 -0.517925)
(33.5477 -7.25584 -0.505757)
(33.899 -5.95978 -0.978796)
(36.6005 -4.86262 -1.17164)
(37.3048 -3.75009 -1.26142)
(37.7575 -2.40619 -1.48067)
(39.7197 -1.03506 -0.806257)
(43.0839 61.686 -27.7586)
(-55.2007 62.3342 -56.2197)
(93.7446 34.4327 -13.7706)
(-35.3331 37.6246 -4.51363)
(67.9926 19.443 -0.870225)
(-12.4635 17.9723 1.53162)
(42.6598 7.52614 1.42832)
(0.269359 7.3615 -0.666511)
(27.3162 0.94304 -0.107744)
(8.92207 0.959504 -1.10971)
(22.6243 -2.75947 -0.268693)
(16.4119 -3.37983 -0.254317)
(24.4571 -6.90681 0.443483)
(24.1297 -7.52104 0.34809)
(28.8659 -6.9097 0.241026)
(28.8814 -4.8515 -0.183021)
(30.8096 -3.42251 -0.330137)
(30.8422 -2.35739 -0.320015)
(30.5161 -1.16619 -0.524488)
(31.5885 -0.255663 0.00551531)
(74.6497 -111.563 -43.5938)
(22.9536 2.1497 -14.6198)
(110.048 5.78284 -11.6174)
(31.2769 29.7932 -0.851453)
(80.4232 14.5012 1.62586)
(30.7595 18.9639 0.970421)
(56.408 1.31681 0.998306)
(27.6666 9.65049 -1.07748)
(42.334 -2.39336 -0.988675)
(24.962 3.3152 -2.10285)
(32.6283 -5.15575 -1.3072)
(22.0938 -4.6119 -1.32099)
(26.6574 -12.7058 0.722367)
(24.1719 -11.6623 1.21667)
(28.2963 -11.1832 0.807959)
(26.8527 -7.60139 -0.0478469)
(28.5272 -5.74498 -0.01355)
(28.4001 -3.51142 -0.0443023)
(28.4414 -1.98976 -0.243496)
(30.0166 -0.502766 0.268725)
(107.876 -40.7447 37.2998)
(-35.6413 22.2355 1.26269)
(96.5667 57.5546 3.27163)
(-3.21317 33.7856 1.38997)
(70.9247 36.671 3.17716)
(15.5314 30.057 -0.474439)
(57.4861 16.2329 0.251514)
(37.4886 15.4761 -1.52337)
(52.5189 6.17738 -1.38118)
(45.1818 6.7654 -2.40251)
(49.7582 0.632577 -1.81319)
(42.3754 -0.299247 -0.476922)
(39.4001 -9.83035 4.18018)
(31.3292 -11.3513 4.44927)
(29.866 -9.54337 2.24401)
(26.9862 -5.35592 0.517744)
(26.6427 -4.4172 -0.0917343)
(26.5096 -2.89851 -0.10735)
(26.0166 -1.99925 -0.30177)
(28.4061 -0.667545 0.363359)
(-4.631 112.459 -119.348)
(-85.2431 35.6568 5.96531)
(97.1466 44.3845 -7.07432)
(-12.8558 16.3317 7.8333)
(80.3545 17.975 2.97235)
(35.0106 17.025 1.82923)
(58.5844 -9.9139 0.958084)
(44.6035 11.245 0.597578)
(57.6048 -2.54846 0.157997)
(53.9734 6.73353 -0.213429)
(60.1946 1.36824 0.611716)
(55.303 5.156 1.95894)
(49.942 -2.45398 4.36815)
(33.0687 -2.80605 4.77574)
(30.4029 -7.93146 2.49767)
(26.6981 -5.45428 0.852194)
(26.5481 -5.14565 0.228936)
(26.2706 -3.63999 0.0809716)
(25.924 -3.56609 -0.0549594)
(28.392 -1.97953 0.563769)
(-0.484209 97.6406 -58.0326)
(-133.342 34.7696 2.94868)
(83.3193 17.9701 8.29258)
(-22.0711 20.7784 -0.392324)
(69.0632 15.3346 -0.968217)
(8.23286 40.4929 -2.20835)
(42.8603 18.6067 -0.442311)
(38.9476 8.95571 -0.850659)
(54.4445 5.48111 -0.758779)
(59.0211 2.74029 -0.70512)
(70.1207 4.70074 -0.134551)
(76.1293 6.32465 2.09544)
(81.0808 11.6 5.43374)
(72.7997 10.7759 8.16894)
(43.0948 -2.69777 4.53106)
(37.1206 -2.31733 2.43083)
(33.0765 -4.08261 0.387085)
(32.0866 -3.25263 0.063715)
(30.5404 -3.81102 0.0346855)
(32.0344 -2.3586 0.626329)
(58.8008 -18.2204 -69.5814)
(-103.624 12.0516 -20.4761)
(73.7411 27.8325 -29.1633)
(-25.979 18.9721 -4.29472)
(56.3215 11.6948 -0.455111)
(25.3345 20.1191 -3.68703)
(48.2837 14.3884 -1.62242)
(42.1309 -0.426535 -1.42556)
(48.9178 -3.33238 -1.12924)
(54.4938 -3.92005 -1.80524)
(62.8164 -3.7527 -1.07699)
(72.5692 -3.62476 -0.957544)
(81.4713 2.506 0.118291)
(84.5727 13.3143 2.01969)
(57.0142 21.0632 5.76655)
(40.9276 3.22663 0.526977)
(39.3427 -0.99556 -0.310791)
(37.5959 -2.5309 -0.584307)
(35.9544 -3.83232 -0.319497)
(36.608 -2.81548 0.33656)
(94.7912 -113.635 42.5128)
(-208.862 -4.45055 -82.0659)
(44.1794 18.5866 -28.6288)
(-81.4409 22.5388 -5.2638)
(26.2632 15.0712 -5.17093)
(-25.2489 14.8041 -3.41177)
(18.4022 11.5708 -0.519154)
(33.2392 -2.93998 -0.128226)
(33.3169 -6.12453 -1.07932)
(32.7591 -6.86192 -1.66479)
(34.1047 -7.07384 -3.0344)
(35.4154 -6.01191 -5.53369)
(34.4962 1.59468 -5.24916)
(33.7625 12.5182 -3.20692)
(44.1947 12.1006 1.27008)
(49.1366 3.43439 0.168903)
(48.7654 0.207668 -0.146594)
(46.3818 -1.31486 -0.480437)
(43.3668 -3.4437 -0.141314)
(42.1133 -2.47759 0.224944)
(446.783 -201.326 -21.6182)
(-90.6098 7.38775 0.620957)
(75.269 -24.0092 -18.2533)
(-49.2025 5.4824 2.20177)
(42.4141 -9.54899 2.46063)
(3.7856 -6.40932 -1.4705)
(18.0487 -8.16164 0.739522)
(28.8458 -5.2656 0.385408)
(29.5785 -4.43456 -0.0761814)
(27.7543 -3.50931 -0.735353)
(25.9932 -3.63694 -1.52998)
(25.4497 -3.14132 -0.827748)
(29.6693 -1.31737 1.55363)
(39.159 2.03384 2.17006)
(48.4911 1.85832 0.981722)
(49.5315 1.84856 -0.643141)
(49.6211 2.43893 -0.527774)
(48.5259 1.58016 -0.549631)
(45.4097 -0.376871 0.0817334)
(42.4693 -0.470279 0.260932)
(-7.14018 68.9499 -16.6716)
(-150.376 72.9664 -32.5081)
(25.9845 20.1855 -20.9755)
(-64.0264 19.3296 0.826414)
(22.7927 3.28631 -0.0592229)
(-16.0637 -15.2607 -2.54562)
(21.5145 -20.8274 0.846778)
(30.5836 -9.2241 1.2744)
(33.0216 -6.07755 1.09408)
(35.889 -1.3955 0.692592)
(38.372 -2.1982 -0.51443)
(40.8277 -5.37006 -1.55034)
(40.2109 -7.80021 0.30228)
(38.9979 -5.38193 1.77253)
(38.8479 -2.24228 -0.100237)
(36.2348 0.693734 -1.28485)
(38.1902 1.35543 -1.18693)
(38.4769 1.53146 -0.649217)
(37.1263 1.71014 0.060304)
(35.9669 1.64991 0.340071)
(-106.815 14.1788 107.059)
(-189.744 -24.8465 -43.8513)
(30.0256 -33.9345 -30.1145)
(-56.0332 -11.4663 -4.22074)
(46.6804 -28.3225 -6.77013)
(-5.96279 -41.1137 -2.38451)
(17.7392 -18.4933 -0.402198)
(6.71392 -11.8294 -0.737442)
(19.6657 -11.5438 -0.807679)
(19.5575 -8.27113 0.341649)
(27.7445 -7.32973 0.842384)
(26.4854 -6.50886 1.45594)
(27.7307 -4.97117 1.62025)
(27.0811 -3.81489 0.905694)
(24.9307 -2.03036 -0.216399)
(27.2369 -1.40573 -0.42345)
(27.9397 0.0596915 -0.383721)
(28.713 0.888976 -0.194191)
(27.6243 2.00718 -0.0376092)
(28.9174 1.90949 0.302108)
(137.448 72.0014 59.952)
(39.48 -24.8632 -43.5239)
(83.2454 -26.8286 -31.8356)
(25.8042 -5.17759 -14.6495)
(65.3168 -15.5016 -6.26306)
(21.1981 -20.7181 -3.23151)
(35.2524 -2.24574 0.92898)
(17.7458 -22.5816 0.131382)
(23.6566 -8.65138 0.572142)
(16.8728 -15.0448 0.562546)
(21.4631 -7.28104 0.683993)
(19.5012 -9.30021 0.761192)
(22.7455 -5.00001 0.846718)
(22.8018 -5.43402 0.719724)
(24.5369 -2.39257 0.564659)
(24.2827 -1.9263 0.171966)
(24.7388 -0.00720185 0.00493564)
(24.6496 0.952836 -0.135723)
(23.9696 1.80451 -0.208081)
(25.8959 1.54821 0.106284)
(129.354 126.441 176.841)
(29.5587 44.3604 -14.6706)
(100.656 -5.38401 4.99246)
(31.1188 -18.6669 -0.722444)
(70.2229 -11.8136 4.0622)
(33.1193 -16.3259 1.78)
(54.7238 -6.16367 3.26149)
(33.3297 -12.5151 0.0826899)
(36.3008 -8.4762 0.48058)
(25.9284 -12.046 -0.976952)
(27.2641 -9.82214 -0.589461)
(23.7557 -10.4965 -0.425799)
(25.8526 -7.94448 0.0710031)
(24.7242 -6.43097 0.190573)
(25.9503 -3.35711 0.551095)
(25.5678 -1.60383 0.577105)
(25.7593 0.249227 0.376953)
(25.9406 1.09543 0.0964085)
(25.2993 1.34161 -0.100786)
(27.4342 1.03072 0.149224)
(219.885 35.868 -58.1928)
(76.9324 15.0546 4.51011)
(119.678 28.1872 1.49568)
(54.3989 -8.8946 -1.57958)
(85.6652 2.39147 1.14021)
(51.9065 -8.53356 -0.988218)
(65.6907 2.86891 0.710947)
(44.8994 -5.27574 -1.01539)
(49.4178 -0.0409805 -0.0681841)
(36.8518 -6.82241 -0.990504)
(38.2866 -5.60138 0.00191261)
(31.8927 -8.63088 -0.17023)
(32.6419 -6.53991 0.168849)
(29.4884 -6.08958 -0.158993)
(30.075 -3.38465 -0.00583963)
(28.6776 -1.80547 0.0688936)
(29.4789 0.0460316 0.169491)
(29.6483 0.7037 0.14381)
(29.2645 0.857792 0.0175874)
(31.0793 0.610517 0.211216)
(137.119 -79.8931 97.1721)
(-81.3516 53.3635 5.02589)
(104.695 38.1133 5.08718)
(-8.47315 6.58711 4.21219)
(70.5313 11.9466 2.34915)
(19.5501 -0.803104 -2.05129)
(52.9182 6.28751 -0.505622)
(29.93 -0.32796 -1.69724)
(44.2372 1.22205 -0.0407359)
(33.4721 -3.55821 -0.596327)
(38.3286 -3.99401 0.157121)
(31.8586 -5.93495 -0.271893)
(32.7798 -5.21111 0.289539)
(29.4467 -4.62379 -0.0587742)
(29.7422 -2.81649 -0.0246369)
(28.5806 -1.47805 -0.0816489)
(29.4873 -0.502492 -0.0711133)
(30.4582 0.350774 -0.0431527)
(30.6418 0.500024 -0.00850782)
(33.3118 0.50648 0.289523)
(77.4815 92.0349 -58.6426)
(-19.8069 62.2164 -23.3635)
(90.8857 6.01923 -9.37407)
(10.9922 0.491055 0.732831)
(67.9094 -3.04795 1.3426)
(23.7598 -5.31097 -2.04972)
(54.2081 -0.66594 0.166758)
(34.9802 -2.27865 -1.5715)
(49.5992 -0.569428 -0.340869)
(40.1585 -2.73353 -0.960722)
(45.0456 -2.65414 -0.128504)
(38.6642 -3.81326 -0.224934)
(39.2428 -3.0449 0.426257)
(35.4265 -2.96162 -0.00277956)
(35.0531 -2.09479 -0.136289)
(33.3932 -1.6921 -0.0473957)
(34.0366 -1.63254 0.0946156)
(34.5334 -1.47496 0.229636)
(34.6766 -1.47834 0.238176)
(37.2672 -0.873809 0.418008)
(116.093 89.1549 -45.0629)
(-28.9334 -0.119696 -3.68049)
(92.0129 13.6034 8.34758)
(40.4479 12.8969 3.10314)
(88.1727 11.5502 8.32945)
(48.975 6.20925 3.47289)
(72.9274 4.69613 6.25422)
(49.6443 2.83315 2.88367)
(60.3137 1.57436 3.16515)
(48.9822 0.432964 1.23662)
(53.2668 -0.357507 0.860372)
(47.8895 -0.388197 -0.248999)
(49.3753 -0.384572 -0.641095)
(46.7064 -0.158948 -1.16032)
(46.9919 -0.495255 -0.783398)
(45.903 -0.699176 -0.484406)
(46.3085 -1.30279 0.0397601)
(46.1988 -1.37974 0.510262)
(45.6767 -1.64545 0.951083)
(47.4558 -0.85341 0.79059)
(269.728 61.3263 -160.364)
(141.894 31.7682 -15.6706)
(141.055 10.3372 19.2488)
(73.4142 7.24035 9.17922)
(105.493 2.31114 13.7308)
(74.2603 5.65545 7.84191)
(92.3253 6.10284 8.59598)
(77.6218 8.43324 5.81835)
(87.2811 7.38708 5.38539)
(81.5043 6.57263 3.69196)
(85.9824 4.73722 2.88559)
(83.5291 3.39363 1.72405)
(85.3901 2.04632 1.02065)
(84.5017 1.3752 0.113234)
(84.9487 0.709571 -0.359223)
(84.5083 0.56236 -0.249975)
(84.4735 -0.348861 0.299158)
(83.166 -0.953 0.454404)
(80.8602 -1.35585 0.603944)
(79.4389 -0.747384 0.467644)
(-64.5072 -228.586 25.4882)
(-184.405 -26.8563 69.4355)
(89.7975 4.78244 11.3531)
(0.503648 7.70471 6.38156)
(82.4713 11.4831 1.73316)
(29.7873 3.47177 -4.64071)
(70.6128 1.89647 2.43011)
(49.9106 0.176194 0.718927)
(69.7753 -0.129433 6.72885)
(62.4563 -0.668472 6.44983)
(70.7658 -2.08975 8.3595)
(68.785 -3.23467 7.18372)
(73.5868 -3.83417 6.64886)
(73.8141 -3.67543 5.74843)
(77.1935 -3.51467 5.21199)
(78.3261 -3.01093 4.38009)
(80.7804 -2.59471 3.49903)
(83.3497 -2.4075 2.57426)
(86.6012 -1.50311 1.42577)
(93.8162 0.511247 1.72499)
(55.0454 -131.74 -4.17384)
(-26.0518 -34.1959 -8.21607)
(94.4537 -42.8312 9.84881)
(-11.2711 -24.2674 4.4027)
(72.472 -27.146 -0.886644)
(3.4517 -14.4288 -2.12272)
(51.8216 -16.6776 0.5975)
(18.0015 -9.95327 -3.0433)
(41.616 -5.12479 1.06634)
(26.6314 -1.05936 -0.000476333)
(37.0607 2.4549 2.93876)
(31.8505 1.99103 2.11734)
(37.5236 1.92969 1.58161)
(36.0592 0.430126 0.118795)
(39.3394 0.458744 -0.488704)
(39.4097 0.369341 -1.36684)
(41.4699 1.09229 -1.93114)
(42.3584 1.09922 -2.65832)
(42.8243 1.46057 -3.14437)
(44.8319 1.50995 -2.52731)
(67.7906 145.354 -58.3278)
(-21.7878 21.4311 9.0908)
(106.479 41.5645 36.5946)
(23.2982 16.5087 23.3632)
(85.1136 11.4891 13.271)
(20.7925 7.4064 3.00583)
(50.5885 0.479222 5.17924)
(9.93463 2.26193 -0.325732)
(29.7058 -0.0125414 1.04359)
(8.59253 2.44228 -1.49215)
(21.3402 0.584151 -0.281096)
(13.276 0.0757099 -0.904988)
(21.8011 -3.18638 -0.136368)
(20.0157 -3.72205 -0.549432)
(25.0276 -4.3269 -0.552539)
(24.847 -3.35753 -1.09187)
(27.1773 -2.61422 -1.18213)
(27.461 -1.95298 -1.24389)
(27.7071 -1.11381 -1.49922)
(28.8833 -0.209429 -0.723579)
(94.0376 171.719 8.04006)
(-91.8013 48.4805 -54.3733)
(97.3804 28.8509 -8.32368)
(-40.5176 32.6767 -1.94886)
(57.9454 15.5205 -1.89986)
(-25.4033 15.7364 2.39832)
(33.4852 4.86142 -0.0543407)
(-10.8148 6.87693 -0.100459)
(19.0138 0.709111 -0.673679)
(-1.56299 2.29491 -0.753896)
(13.8899 -1.41814 -0.369518)
(6.55491 -1.33766 -0.163248)
(15.5904 -4.39417 0.464568)
(14.898 -4.59875 0.299825)
(19.7991 -4.25232 0.162838)
(19.63 -2.87713 -0.265241)
(21.3903 -2.07688 -0.380308)
(21.242 -1.43047 -0.359831)
(21.0363 -0.630895 -0.597878)
(21.7452 -0.0647092 0.0698459)
(89.7138 -166.762 13.9551)
(46.7762 -12.6704 -16.2279)
(103.031 -0.0210233 -8.06939)
(15.1714 28.2363 -0.184234)
(67.6246 14.5696 2.75086)
(13.8342 18.2996 0.934665)
(44.9922 0.988252 0.94054)
(12.2501 10.9355 -1.07814)
(29.5253 -2.71682 -0.749056)
(8.89898 4.72472 -1.87407)
(18.8778 -4.96282 -0.954492)
(7.98797 -2.5717 -1.01602)
(15.1911 -9.59914 0.852876)
(13.3503 -7.6271 1.03228)
(18.7569 -7.87446 0.720814)
(17.6234 -5.02277 -0.106418)
(19.4615 -3.95802 -0.0182733)
(19.2268 -2.3126 -0.0442206)
(19.2471 -1.29534 -0.265563)
(20.2566 -0.294996 0.351713)
(94.9596 -101.539 -107.615)
(13.1864 31.3312 11.8923)
(84.5811 59.0786 2.09955)
(-21.5306 33.103 3.57021)
(58.0659 34.4075 2.58993)
(-5.76264 27.8972 -0.236491)
(41.8663 12.8134 -0.213833)
(15.5267 14.9654 -1.78042)
(31.9007 4.05758 -1.33419)
(19.5051 6.19835 -2.53147)
(23.819 -2.05345 -1.77694)
(14.4972 -2.42055 -0.36214)
(16.803 -8.20912 3.18547)
(16.0313 -7.62257 3.3567)
(18.818 -6.82032 1.86161)
(18.1179 -3.81016 0.492388)
(18.3516 -3.1647 -0.0477655)
(18.2583 -1.84959 -0.0409346)
(17.8258 -1.27203 -0.261453)
(19.4648 -0.384004 0.457481)
(71.9549 180.728 123.176)
(-60.8262 42.1511 -18.2788)
(84.2099 49.1129 -11.1952)
(-22.139 21.3758 5.84977)
(68.0406 21.1618 2.50546)
(16.1935 19.1087 1.37721)
(42.5832 -9.61937 0.712671)
(24.4158 15.045 0.458972)
(37.4919 -2.51567 -0.122332)
(29.1438 8.64922 -0.610715)
(33.8599 -0.0735776 0.140533)
(24.8678 3.67319 1.56581)
(22.14 -4.38541 3.54553)
(17.1946 -2.805 3.99459)
(19.4391 -6.32704 1.96442)
(17.7271 -3.891 0.630353)
(18.4974 -3.92222 0.279243)
(18.2467 -2.51143 0.121729)
(18.0257 -2.50882 -0.0680833)
(19.8134 -1.21854 0.617657)
(50.5326 9.78883 -77.8009)
(-137.261 64.8447 -43.2419)
(84.6001 45.7894 -12.644)
(-30.477 33.7696 -0.936164)
(58.5827 24.1435 -1.55583)
(-8.62792 44.7013 -1.70468)
(27.054 17.2514 -0.990379)
(22.0058 13.6836 -1.00879)
(36.1571 7.55037 -1.11292)
(37.4957 6.02075 -0.849999)
(46.1356 7.20981 -0.781653)
(48.3548 8.53269 1.66893)
(49.7553 9.79981 4.63681)
(40.3369 5.25144 8.8109)
(25.3072 -2.65098 4.86842)
(25.633 -1.71153 2.11674)
(23.448 -2.87589 0.491965)
(22.9051 -1.95145 0.17371)
(21.5825 -2.42256 0.0793541)
(22.7501 -1.15682 0.685521)
(254.32 82.4978 41.818)
(9.95884 35.5666 -25.535)
(80.174 45.7512 -28.5304)
(-29.8141 27.8522 -3.92069)
(46.0062 14.9777 -1.2309)
(12.8502 26.0435 -3.50839)
(32.9068 14.0823 -1.30022)
(28.2573 0.498753 -1.1834)
(35.3341 -0.284713 -1.47357)
(38.8322 -0.504497 -2.16279)
(45.509 0.917388 -2.14892)
(51.6532 3.29648 -2.22298)
(56.1797 10.1307 -0.148114)
(51.9397 16.4612 3.01259)
(35.1972 14.0648 5.67705)
(29.2188 1.71503 0.561009)
(28.041 -0.795446 -0.113994)
(26.5423 -1.52338 -0.263922)
(25.1858 -2.27695 -0.0602264)
(25.7499 -1.16297 0.499952)
(460.055 -20.8131 -189.814)
(-189.039 28.6522 -37.3517)
(48.334 25.2717 -34.288)
(-85.4724 24.406 -0.667277)
(15.5345 15.4878 -6.05933)
(-33.3052 16.1693 -1.8654)
(9.0895 11.762 -0.148781)
(22.7184 -2.43852 -0.084808)
(23.8345 -4.84147 -1.38183)
(23.909 -4.87732 -2.49253)
(24.8018 -3.52608 -3.98073)
(23.9333 -0.560695 -5.68224)
(22.8655 5.62431 -4.71244)
(25.125 11.0159 -1.23496)
(34.4924 8.36842 1.28057)
(35.1264 2.88001 0.13666)
(34.0512 -0.144208 0.0798429)
(31.8045 -1.17859 -0.0699451)
(29.6727 -2.26166 0.119203)
(29.2398 -0.926129 0.357397)
(221.136 -136.64 -47.2349)
(-67.6935 21.2744 21.2935)
(54.8882 -23.7339 -11.0978)
(-63.7527 6.49635 5.51005)
(30.4677 -9.26402 0.983596)
(-8.75059 -6.97185 -0.453275)
(8.10401 -8.16711 1.31775)
(18.7911 -5.75649 0.585548)
(20.1599 -4.67546 -0.141431)
(19.5954 -5.38409 -0.865475)
(19.8512 -2.97099 -1.44862)
(20.5839 -3.1041 -0.873641)
(24.3361 -0.420669 1.34418)
(32.2617 2.60157 1.8112)
(38.0703 3.09624 0.708164)
(35.7246 2.96345 -0.311806)
(35.1149 2.56699 -0.163891)
(32.9569 0.808943 -0.144463)
(30.3725 -0.134639 0.292742)
(29.0445 0.283017 0.362151)
(124.031 192.061 -35.4231)
(-76.7026 64.6662 -31.217)
(19.945 20.1103 -21.4075)
(-67.3639 19.4852 1.49602)
(13.0014 0.665752 -2.79868)
(-24.6545 -17.5672 -0.920501)
(10.1364 -19.2298 1.24415)
(17.6605 -7.77909 1.09939)
(20.1916 -5.115 0.782657)
(22.5254 -2.79386 0.11772)
(24.7774 -4.21447 -0.727753)
(25.5102 -5.73635 -0.63173)
(26.004 -5.01451 1.00728)
(29.1825 -2.16297 1.13474)
(30.3575 -0.0256488 -0.446399)
(26.36 2.05808 -0.864089)
(27.2302 1.80208 -0.729704)
(26.5781 1.44276 -0.324535)
(24.9613 1.69619 0.0884923)
(24.7471 1.64164 0.386613)
(124.147 -61.2701 -67.7812)
(-97.4725 -49.2939 -42.6362)
(37.9071 -33.3217 -27.0602)
(-49.3785 -13.0346 -4.92639)
(37.179 -28.4953 -7.26799)
(-17.8257 -39.9249 -2.24193)
(6.44285 -14.5921 -0.0273445)
(-4.23705 -11.4544 -0.750208)
(8.26174 -9.29017 -0.585983)
(7.51584 -7.88267 0.422188)
(15.1877 -6.80805 0.79714)
(14.5756 -6.06767 1.27224)
(17.8262 -4.24733 1.21246)
(18.4319 -2.80069 0.467365)
(16.4074 -0.760563 -0.133906)
(18.7137 -0.340321 -0.279508)
(19.0776 0.688423 -0.264618)
(19.6408 1.04849 -0.157679)
(18.7553 1.9252 -0.0811974)
(20.1961 1.71843 0.386761)
(261.928 64.1768 -78.0655)
(98.01 -8.82324 -34.2626)
(109.92 -30.5884 -9.41809)