/*--------------------------------*- C++ -*----------------------------------*\
  =========                 |
  \\      /  F ield         | OpenFOAM: The Open Source CFD Toolbox
   \\    /   O peration     | Website:  https://openfoam.org
    \\  /    A nd           | Version:  10
     \\/     M anipulation  |
\*---------------------------------------------------------------------------*/
FoamFile
{
    format      ascii;
    class       volScalarField;
    location    "4.8";
    object      k;
}
// * * * * * * * * * * * * * * * * * * * * * * * * * * * * * * * * * * * * * //

dimensions      [0 2 -2 0 0 0 0];

internalField   nonuniform List<scalar> 
12920
(
116.182
344.246
359.627
360.723
358.197
367.806
355.999
297.379
230.491
193.654
159.241
134.474
117.315
105.685
99.8336
94.5272
91.4696
84.6666
79.6766
70.3989
48.4027
1011.73
1159.35
941.544
518.2
376.938
303.487
277.149
255.905
246.622
225.827
199.237
175.754
164.796
160.444
158.737
156.633
154.078
153.211
151.291
481.279
1714.28
1380.39
1012.85
624.84
434.032
330.068
302.844
265.407
244.721
211.841
193.552
176.719
169.788
164.432
161.165
157.785
156.433
156.637
157.394
3030.4
1655.59
1057.32
972.891
683.794
432.903
320.08
277.088
239.264
216.956
195.17
181.939
169.867
162.393
155.871
150.588
146.938
145.515
145.893
148.85
5089.93
2065.15
1819
1191.09
685.579
477.898
383.508
323.888
284.736
255.84
228.205
209.301
191.601
180.368
169.428
158.832
150.428
144.592
141.923
142.112
3476.44
1731.37
1604.2
1427.04
889.946
630.626
509.44
463.123
388.652
321.71
258.175
222.149
205.923
196.715
187.881
176.912
164.184
149.571
138.095
130.992
428.617
1068
1302.93
1151.63
791.3
641.287
516.704
436.684
340.998
269.866
237.316
227.857
224.989
219.173
206.361
190.038
174.985
156.202
139.702
123.704
1978.14
1686.11
1529.61
1309.66
930.406
722.07
433.875
247.807
216.014
184.166
177.863
172.68
163.192
150.821
236.491
199.776
179.514
161.259
147.553
125.166
7785.89
3400.72
1457.32
1051.19
697.094
482.297
331.524
149.667
113.611
110.21
118.017
109.621
102.216
92.4265
133.089
175.02
166.726
159.854
153.897
133.984
2808.73
2464.79
1372
774.674
485.502
244.654
184.265
134.253
105.721
80.8804
85.1696
87.7028
78.5371
72.3852
114.951
176.095
164.036
158.365
154.737
143.488
2627.48
2618.69
1953.1
1452.32
1134.18
581.923
266.253
149.337
115.353
118.826
110.945
103.719
92.739
81.9885
145.645
197.987
169.112
156.714
154.257
146.282
3444.08
2768.12
2018.14
1327.6
966.236
581.322
334.538
230.763
153.777
142.516
117.444
92.9477
93.7358
93.8218
156.661
200.24
167.589
149.744
147.105
142.321
4123.7
2757.3
2192.8
1543.23
1076.44
804.167
418.407
272.752
252.287
235.051
194.948
179.05
177.762
169.912
244.974
202.653
175.104
152.581
144.83
135.792
2781.31
2156.6
1730.83
1193.58
892.707
702.404
562.896
504.302
458.324
437.987
412.521
384.527
338.743
281.243
236.715
204.092
181.24
160.63
148.38
132.425
674.679
752.91
694.138
872.459
907.856
836.623
672.558
627.96
565.159
535.976
489.423
435.008
359.732
285.236
230.205
194.552
174.187
158.812
149.05
131.038
146.107
225.806
269.514
536.32
715.236
717.316
655.82
619.161
570.607
544.604
489.105
389.753
293.416
221.759
179.744
155.763
144.657
137.999
134.387
124.732
185.351
215.46
416.417
590.177
616.649
606.351
540.461
484.499
443.814
421.281
378.092
299.595
226.363
179.255
154.631
139.193
126.473
117.601
114.557
110.887
451.734
420.022
452.685
732.772
785.964
752.333
621.63
550.681
481.913
452.583
408.892
335.541
249.886
191.626
162.428
145.501
126.471
110.346
99.4659
94.6536
1871.99
3343.1
1501.69
934.673
697.91
535.914
415.987
372.387
329.35
285.548
238.35
201.431
176.356
167.6
169.35
172.904
167.432
142.451
116.406
98.13
558.385
1050.49
1012.95
745.57
419.314
306.351
223.357
197.946
167.405
153.525
130.946
116.756
110.879
113.273
118.233
117.873
114.322
103.643
96.8632
82.0604
426.655
570.379
730.533
869.041
871.47
845.088
743.051
560.682
439.788
390.624
347.87
314.229
280.465
259.382
246.994
238.72
234.006
221.963
213.878
195.189
218.918
2763.53
2740.94
2269.51
1262.1
1020.5
778.794
751.597
689.206
666.993
592.079
548.921
499.089
489.65
482.275
480.164
472.71
465.381
463.733
461.921
1220.7
4784.47
3489.34
2437.72
1614.52
1139.78
855.127
793.129
678.389
647.142
572.136
547.12
508.301
500.135
486.313
481.318
471.427
468.978
470.478
472.004
16031.5
6312.61
3634.45
2581.68
1610.18
1103.78
806.056
732.535
635.571
596.678
540.55
515.2
485.725
472.907
458.055
449.898
444.755
444.121
447.48
456.289
15475.1
5320.4
4690.98
2530.31
1464.53
1154.1
896.643
839.48
741.885
694.941
617.459
575.625
530.93
510.872
484.085
464.943
449.526
440.728
438.108
437.016
6895.17
5317.3
4285.17
3049.43
1700.66
1472.8
1236
1154.17
956.964
820.906
678.901
603.348
564.225
542.019
517.236
493.309
466.82
438.019
415.785
400.465
2190.73
2267.06
1945.38
2315.56
1680.28
1576.02
1301.33
1109.98
874.52
710.766
634.238
601.043
581.888
565.154
532.341
504.795
476.669
441.38
406.42
374.343
6813.2
4142.73
2822.22
2562.41
1933.15
1694.36
1323.56
974.747
813.829
691.941
650.028
625.676
594.902
551.747
545.671
508.869
481.963
448.54
415.212
372.766
16584.7
8106.89
3603.6
2716.31
1502.86
1372.48
1200.05
891.624
718.873
638.493
625.07
594.517
543.751
480.014
427.715
439.86
454.033
455.438
445.91
398.894
10011.5
6783.36
3304.94
1859.27
1210.56
1003.78
1000.96
876.353
656.871
562.416
546.646
493.612
387.248
331.677
345.489
409.085
422.636
435.628
442.518
434.47
7247.56
6653.86
4885.61
3309.87
2434.27
1778.39
1266.49
907.273
695.861
638.25
549.911
464.023
421.513
415.452
427.334
453.357
428.993
421.9
424.341
424.07
3137.12
6835.63
4835.23
3068.68
2165.59
1762.59
1475.72
1115.27
842.535
729.809
600.743
529.71
505.674
486.327
485.549
486.417
444.472
422.391
418.154
409.38
9508.01
7466.7
5167.86
3427.99
2478.24
1945.4
1458.88
1128.72
956.148
842.294
747.407
697.259
669.944
626.2
624.297
548.915
491.525
444.528
423.097
399.357
4923.95
5424.04
4035.73
2834.77
2282.86
1845.02
1517.98
1361.3
1222.58
1149.46
1058.4
976.545
878.344
768.28
665.97
584.626
525.262
470.577
433.272
394.777
2583.65
2777.92
2444.08
2434.27
2383.79
2188.22
1803.81
1662.36
1464.66
1350.65
1199.2
1065.45
921.278
771.575
647.175
564.133
503.248
459.213
427.801
387.518
2204.07
1808.25
1194.19
1541.85
1922.44
1934.33
1756.08
1661.9
1505.66
1397.93
1202.34
979.631
762.962
616.372
523.07
470.773
438.513
416.271
399.172
370.296
1060.3
1234.64
1307.09
1704.74
1777.24
1719.79
1483.73
1374.76
1218.12
1158.67
1015.21
812.929
617.76
510.209
453.947
415.313
381.032
359.603
348.12
333.736
3054.86
2356.52
1959.7
2130.92
2157.62
2058.94
1710.19
1578.88
1381.27
1313.48
1165.69
929.83
657.781
534.363
474.751
431.014
376.488
333.091
306.879
294.018
9617.13
8166.51
4621.34
2591.21
1884.75
1550.32
1265.45
1175.49
1023.05
883.308
687.046
567.921
500.279
483.938
474.155
475.246
469.089
429.758
346.534
313.2
1839.45
2494.5
2418.34
1596.97
864.688
587.9
475.584
442.562
410.868
360.694
313.707
278.469
264.062
257.094
242.364
214.992
186.452
170.162
167.171
160.755
371.52
1278.89
1437.46
1368.98
1192.22
1032.39
812.282
602.917
478.422
429.591
392.178
364.681
341.04
323.758
310.731
295.357
285.639
265.292
255.604
233.119
91.1852
2260.62
4108.17
3219.92
1809.48
1425.62
1082.44
1017.84
897.234
860.684
778.154
755.107
722.096
719.484
713.775
708.435
694.383
679.962
671.778
654.685
3539.84
7980.42
5053.96
3276.44
2206.53
1517.12
1203
1065.52
921.539
862.912
783.647
759.757
728.624
721.261
707.692
698.847
685.32
674.924
669.22
656.755
20300.4
9913.36
6019.41
3616.08
2332.69
1566.45
1215.33
1047.84
904.797
822.54
753.284
718.94
691.147
678.899
665.182
656.228
648.692
643.045
641.394
637.9
13655.3
8423
5837.62
3043.42
2142.38
1618.87
1343.89
1177.02
1022.33
911.607
816.493
761.41
716.042
691.527
665.087
646.823
631.653
621.16
613.847
606.278
7341.01
6800.06
5973.07
3492.89
2301.5
1919.56
1607.94
1419.59
1168.52
1001.46
872.665
802.342
754.373
718.553
681.792
648.757
619.837
592.126
572.385
556.146
2494.07
3895.34
3581.51
3235.89
2295.13
2093.92
1670.5
1367.86
1116.64
939.571
865.614
819.56
781.569
744.606
697.975
658.743
620.892
581.86
549.283
520.245
4450.03
4983.75
4509.97
3551.33
2451.13
2127.54
1812.47
1358.08
1132.2
966.96
897.882
854.295
801.247
746.956
712.673
672.945
638.309
595.922
557.66
516.032
24924.9
7837.2
4375.85
3216.64
2101.04
1874.13
1744.04
1282.24
1067.18
945.348
901.602
838.481
756.916
678.199
622.071
631.994
635.251
624.201
595.025
540.809
14896.2
10058.2
4549.21
2627.26
1889.37
1573.71
1526.85
1246.66
988.867
888.845
828.084
696.881
535.267
482.571
512.532
582.201
600.325
606.815
604.794
581.822
9986.95
9645.88
6326.53
3974.73
2829.39
2104.45
1621.77
1226.42
1009.4
917.104
577.912
468.78
536.077
564.661
571.653
589.7
578.683
578.956
581.019
573.527
8255.17
8969.39
6158.22
3872.33
2647.07
2160.98
1851.94
1353.77
1113.51
957.469
820.88
742.281
698.661
660.124
633.755
620.481
586.296
570.928
566.472
555.786
7013
9954.5
6851.48
4332.85
3152.98
2488.9
1997.85
1528.15
1257.56
1093.04
995.7
932.947
882.533
813.307
770.603
693.027
632.485
590.086
568.962
546.902
16634.4
8553.84
5350.33
3775.76
3068.07
2502.47
2044.12
1802.34
1573.8
1444.46
1298.83
1177.64
1051.12
933.435
830.708
738.929
666.629
611.908
577.355
545.61
6451.98
5192.19
4753.8
4030.8
3540.18
3008.12
2475.57
2192.18
1868.61
1648.28
1424.98
1240.14
1078.01
936.575
822.934
724.494
653.155
604.187
571.457
538.932
5542.39
4779.76
3531.5
3240.31
3182.82
2895.94
2479.19
2226.62
1920.13
1674.9
1386.69
1138.3
949.939
820.35
726.076
652.236
603.063
568.521
544.135
517.976
4109.04
3863.39
3426.71
2959.17
2775.56
2505.58
2167.84
1990.9
1720.42
1545.98
1268.22
1034.23
838.793
710.18
630.475
573.02
533.992
507.715
490.031
473.161
5847.74
6200.45
4981.17
3931.21
3348.64
2955.04
2403.56
2189.05
1835.89
1655.03
1347.93
1086.38
850.016
709.118
619.316
556.405
506.567
472.296
447.892
432.186
11575.9
10139.9
6472.24
3504.31
2539.54
2019.86
1734.36
1552.12
1311.61
1102.8
881.933
754.237
661.872
614.101
580.141
558.208
531.04
492.113
459.371
433.578
891.905
3131.55
2879.86
1619.02
931.291
671.089
622.386
543.758
494.229
412.948
357.951
312.744
285.037
256.105
217.049
184.722
175.45
177.786
183.642
172.412
601.428
2115.77
1930.11
1596.02
1316.71
1069.31
807.934
589.451
478.85
429.431
398.665
373.204
351.505
333.583
317.54
300.066
288.363
267.182
257.299
232.078
2457.46
7981.73
5839.52
3534.13
2263.92
1653.53
1348.76
1197.51
1088.27
1014.23
957.237
934.214
921.536
920.638
917.514
909.929
892.873
872.095
856.307
825.501
12484.1
12196.5
6817.49
3974.66
2770.29
1764.04
1519.2
1260.38
1143.45
1036.13
981.957
943.951
929.377
915.936
907.08
892.125
877.04
859.125
845.573
821.333
23855.7
12442.8
7852.43
4354.27
2972.1
1877.75
1570.19
1268.09
1133.31
997.377
942.623
892.059
876.478
858.153
850.13
838.097
830.038
819.016
811.503
797.546
18032.6
11183.4
7557.91
3689.85
2810.05
1938.33
1737.25
1407
1250.38
1072.24
990.903
915.748
881.96
848.568
828.218
807.947
794.971
780.748
769.641
757.493
21565
12593.7
8868.27
4428.81
3033.36
2261.96
1950.63
1600.38
1345.57
1136.88
1036.06
954.722
910.621
860.26
821.863
783.402
756.096
730.354
712.011
696.811
12305.1
7999.13
5887.35
3746.48
3017.27
2447.66
1967.35
1554.92
1310.72
1114.9
1055.94
986.389
943.667
884.072
832.748
782.469
742.22
703.922
674.817
652.338
10055.2
8825.96
6765.04
4165.03
3073.95
2533.33
2107.36
1588.56
1338.12
1163.97
1084.85
1026.43
957.719
894.925
851.144
802.474
759.633
713.173
676.341
643.281
19041.5
8372.04
5572.78
3557.56
2661.52
2288.09
2097.79
1518.17
1304.18
1177.31
1107.49
1016.17
918.442
839.704
787.961
799.793
782.399
744.942
708.756
664.745
15966.7
10216.7
5429.79
3287.53
2343.89
1997.12
1908.17
1498.38
1252.76
1150.42
1049.85
865.198
707.68
668.799
692.556
756.452
760.46
753.23
737.037
700.634
10475
10905.5
8004.61
4551.05
3152.48
2264.85
1811.85
1438.07
1240.17
1121.93
837.816
667.065
673.552
692.946
701.29
725.502
721.069
720.777
717.877
700.598
21941.1
12218.1
7499.61
4522.38
3039.25
2377.02
2015.88
1515.72
1274.93
1105.37
973.442
886.868
830.242
780.146
742.107
735.037
712.491
703.812
699.527
686.565
11958.1
12020
8417.9
5047.86
3793.44
2869.13
2296.79
1721.65
1423.81
1246.42
1153.49
1077.58
1009.15
923.508
868.73
799.976
749.587
717.607
700.403
681.162
15932.4
10649.1
6818.22
4511.58
3784.94
2910.06
2405.87
2044.38
1779.57
1598.51
1434.95
1294.16
1163
1042.87
939.486
849.157
782.904
736.588
707.778
684.397
12132.2
9232.87
7387.83
5266.23
4537.96
3522.39
2967.83
2472.8
2095.1
1783.16
1541.66
1337.57
1182.19
1044.99
937.647
840.068
774.245
729.941
700.186
677.887
12878.6
8824.28
6537.35
4710.47
4297.74
3450.4
3012.03
2503.77
2137.96
1762.84
1470.01
1227.9
1076.27
951.508
864.592
787.022
736.45
699.902
672.999
653.847
8736.51
6889.8
5355.18
3846.91
3659.53
2990.3
2696.04
2304.48
1987.98
1652.49
1354.39
1114.22
956.574
837.585
762.658
701.32
663.143
635.43
614.659
602.111
10321.6
9471.66
7750.37
5271.92
4296.9
3366.75
2841.3
2408.27
2028.3
1676
1356.76
1104.24
934.613
814.488
731.717
666.43
621.97
592.577
569.599
559.874
26791
16379.4
7593.91
3813.67
3093.53
2225.85
2075.53
1685.14
1445.27
1136.21
954.957
827.91
753.346
704.233
666.23
631.285
598.594
569.592
546.509
528.595
3407.09
3603.7
2411.66
1159.35
910.53
706.098
681.034
561.402
494.648
389.837
341.196
287.414
250.448
206.405
181.345
174.791
176.541
177.695
174.009
143.939
2973.82
3159.07
2307.95
1662.86
1278.91
943.55
653.219
499.456
427.182
385.705
356.799
328.098
306.289
289.017
274.799
258.864
244.096
222.572
208.874
182.657
12795
9939.22
7865.04
3796.53
3207.17
1794.49
1823.82
1402.55
1444.14
1224.77
1253.79
1164.73
1197.51
1164.21
1176.92
1151.21
1138.96
1099.72
1074.94
1023.94
45291.5
19895.1
9130.8
4702.99
3607.52
1929.01
2004.71
1462.04
1496.87
1257.4
1278.23
1179.48
1203.56
1158.2
1165.27
1131.93
1121.01
1086.46
1067.1
1029.11
29684.2
14307.9
10151.1
5002.99
4075.88
2172.87
2150.33
1542.6
1497.89
1221.71
1220.19
1115.74
1128.81
1084.83
1090.58
1065.14
1061.03
1038.85
1028.18
1003.75
34442
14964.3
9191.99
4547.74
3863.45
2199.04
2298.3
1642.4
1594.6
1275.98
1253.39
1122.19
1118.74
1058.03
1053.16
1019.18
1012.26
987.084
976.076
957.912
17456.2
14732.5
13149.2
5555.39
4460.36
2697.31
2613.02
1887.2
1668.13
1333.86
1282.11
1154.87
1127.69
1049.48
1017.24
966.837
945.975
915.711
901.477
886.74
36144.6
14761.2
8792.16
4437.11
4372.12
2815.66
2451.59
1828.73
1604.54
1345.19
1317.51
1200.03
1168.08
1070.48
1024.57
950.921
915.228
871.239
849.588
833.365
25230.1
11278.9
9050.5
4674.98
4436.11
3239.88
2448.1
1844.67
1575.59
1378.16
1304.54
1215.48
1144.63
1062.53
1041.92
973.695
919.929
870.261
839.278
817.018
20165.8
10653.5
6797.98
4315.46
3441.93
2834.59
2506.9
1748.85
1549.72
1409.25
1315.95
1194.74
1091.85
1013.26
979.666
998.766
950.498
895.01
861.491
830.338
29626.9
11956.6
7045.61
4091.14
3015.91
2424.8
2296.35
1770.12
1538
1398.62
1237.2
1021.58
902.457
882.482
910.505
972.943
948.919
916.287
891.824
854.517
27280.7
14398.9
9358.92
5028.7
3734.22
2498.81
2027.15
1686.07
1488.87
1309.93
1089.53
888.351
847.491
861.376
879.417
920.041
906.173
892.424
882.237
855.478
12655.7
11637.7
9042.75
5096.52
3644.36
2616.85
2201.86
1712.65
1453.98
1261.73
1123.09
1025.57
968.376
914.104
886.4
905.65
886.296
875.669
869.224
849.125
9056.58
12017.6
10243.7
5636.04
4797.95
3214.09
2587.99
1901.8
1616.06
1418.84
1332.71
1230.87
1149.53
1046.18
1010.8
951.549
910.922
885.967
872.098
852.73
31036.1
12595.9
8552.52
5123.2
4756.84
3216.02
2887.29
2252.43
2045.44
1763.03
1617.98
1438.16
1309.73
1177.99
1077.74
996.875
943.059
903.346
881.204
864.863
59931.3
15332.4
10007.7
5850.55
5615.36
3810.68
3552.63
2668.18
2360.09
1916.03
1703.64
1465.49
1325.7
1181.45
1082.14
990.483
936.417
895.593
871.563
859.708
26076.2
10876.6
9094.41
5430.84
5475.69
3840.75
3630.85
2683.88
2406.45
1833.92
1615.03
1338.69
1234.41
1096.26
1028.94
950.501
907.849
868.902
843.817
833.705
38444.9
9929.56
6669.82
4497.63
4574.98
3262.24
3283.52
2477.47
2273.68
1679.91
1475.76
1192.98
1106.88
978.517
927.465
859.727
828.478
796.755
778.708
774.166
7512.89
11757.1
9826.37
5656.96
5208.44
3509.98
3353.34
2472.96
2253.69
1606.21
1422.35
1123.6
1064.27
938.204
885.915
812.728
777.574
747.447
729.726
728.776
31348.5
18941.1
8201.82
3794.92
3986.37
2437.9
2611.1
1720.83
1651.84
1126.75
1079.67
896.391
896.101
825.164
802
744.264
718.135
690.06
674.825
676.098
12798
4370.32
1862.96
919.208
873.172
707.574
658.649
497.118
418.63
314.461
261.474
211.12
184.234
165.228
164.851
164.113
163.605
157.679
141.406
123.24
848.125
905.626
649.696
1090.42
1030.94
1070.35
826.192
736.819
576.649
456.444
1000.95
874.73
734.931
569.568
652.71
947.571
841.691
1072.34
788.823
1069.2
960.686
471.4
810.871
739.402
702.536
584.735
928.336
849.299
171.775
223.634
141.492
866.228
784.369
812.657
794.01
113.893
136.425
119.067
733.193
618.779
759.867
618.088
110.566
109.141
84.9144
596.038
547.782
571.019
483.034
117.761
81.3374
79.792
537.921
537.545
470.308
461.244
111.635
80.3476
85.0731
535.817
521.141
461.054
454.213
103.964
86.7391
85.8235
514.977
486.569
446.402
398.201
94.9137
82.9401
75.2373
474.755
432.734
376.909
319.278
70.3081
73.2886
53.9356
418.872
391.711
306.431
285.205
137.61
155.904
109.392
795.04
776.293
826.539
724.288
116.955
105.448
93.7597
743.923
603.758
678.021
561.468
81.881
93.6298
105.27
554.029
472.919
538.206
521.908
83.0998
108.976
111.101
464.831
459.422
520.344
494.01
88.0069
108.866
101.887
458.375
439.496
475.196
419.753
81.432
99.6317
88.9304
425.417
362.276
399.907
351.353
73.7312
87.2616
81.7711
340.613
298.872
344.305
339.716
53.9488
79.8064
66.0116
291.951
281.824
339.435
342.489
162.277
406.53
258.931
1072.02
858.354
1360.85
1154.99
120.628
239.241
171.104
785.704
622.829
1060.14
797.998
116.845
158.281
144.664
591.464
556.079
741.095
651.746
116.375
142.297
123.336
550.294
509.39
629.618
546.371
104.568
113.274
97.1505
488.988
438.836
518.746
464.714
95.625
96.059
94.3475
422.081
383.544
453.952
432.518
83.7576
93.3686
92.0374
377.744
367.494
427.115
413.977
68.3944
91.6999
75.871
364.251
356.554
408.968
398.511
246.16
246.795
120.656
1261.88
1093.32
1035.79
869.532
167.511
122.912
140.933
1012.81
785.215
834.317
775.217
143.284
145.876
150.968
737.732
665.322
757.971
707.913
128.965
149.819
131.483
644.656
556.588
688.177
605.049
94.3366
121.194
98.2432
525.255
465.969
574.696
521.44
93.5638
96.1861
96.2063
456.941
442.472
512.961
502.901
94.2157
97.3756
98.6666
438.915
429.642
498.218
487.08
75.7732
100.116
83.6471
424.826
412.377
478.156
467.663
972.83
1051.85
945.763
1620.56
1316.67
1459.57
1268.32
750.015
896.845
725.454
1204.23
1039.14
1191.32
982.452
651.751
674.267
582.352
993.673
895.239
929.995
837.487
630.287
568.96
556.767
877.576
853.923
822.668
797.363
603.099
554.901
537.189
841.191
801.12
787.566
733.898
558.58
524.011
459.621
786.169
731.551
706.277
606.259
495.211
434.186
367.52
710.928
651.068
573.087
498.771
442.429
353.075
323.481
634.115
599.173
484.483
462.343
922.223
1025.77
866.892
1407.79
1244.08
1404.97
1186.4
708.782
811.604
674.835
1169.87
965.355
1113.98
946.151
572.296
646.598
614.977
914.376
827.942
910.687
846.706
551.065
609.874
561.749
814.532
781.068
834.845
666.45
513.381
535.136
462.641
764.843
687.314
607.907
487.517
414
438.782
385.548
651.666
533.507
456.176
422.872
338.099
379.651
383.024
497.925
443.212
432.227
483.273
318.514
385.156
385.177
441.642
446.741
492.346
501.384
986.779
1585.45
1269.07
1553.23
1245.91
1817.72
1426.61
730.433
1164.54
898.278
1162.29
979.525
1322.98
1097.79
647.718
841.232
740.78
942.041
868.557
1047.96
933.544
577.009
714.009
622.817
852.592
676.612
899.446
795.757
484.042
594.464
535.549
620.091
513.721
765.584
696.691
425.184
522.748
496.802
494.558
497.61
680.113
644.488
417.71
490.477
474.077
510.357
531.817
635.636
610.721
400.802
468.033
448.043
532.021
521.49
601.959
575.625
1204.67
1309.09
1046.52
1791.1
1398.97
1785.77
1432.18
889.207
994.414
901.246
1305.22
1106.43
1344.45
1171.44
756.238
873.972
803.746
1060.66
947.417
1123.46
1008.18
632.092
779.707
690.909
911.479
804.311
974.6
879.542
540.281
661.448
610.04
774.419
711.672
853.228
803.747
510.516
601.261
588.269
697.704
666.905
792.806
768.31
492.292
582.583
567.42
658.494
633.587
758.438
728.017
462.3
556.568
527.872
624.248
592.274
714.069
674.584
1395.27
1572.95
1349.54
2006.37
1578.28
1864.13
1550.78
1116.16
1266.31
1054.55
1466.52
1303.91
1454.84
1246.77
963.475
1003.28
912.321
1251.06
1143.48
1200.51
1115.28
916.657
897.139
866.434
1124.04
1080.69
1098.02
1048.34
855.363
853.502
787.978
1060.7
997.466
1025.66
927.716
778.926
756.501
649.146
975.466
904.618
887.73
770.632
695.27
615.381
543.073
880.586
817.614
738.894
678.14
640.439
529.511
505.163
800.859
764.546
667.518
650.703
1327.13
1515.25
1266.91
1813.76
1534.27
1739.94
1459
1038.47
1191.44
1020.5
1441.11
1235.26
1381.52
1214.67
903.192
984.161
913.745
1190.6
1107.97
1177.86
1100.55
940.091
877.189
886.514
959.588
871.934
946.556
956.074
793.061
802.944
780.602
888.99
740.944
859.729
838.115
570.806
426.051
425.076
825.839
693.401
540.243
544.759
483.193
449.195
514.624
663.104
621.788
567.016
618.641
486.08
524.64
532.479
620.096
625.566
626.682
635.047
1309.31
1856.15
1459.18
1769.25
1466.76
1928.34
1550.25
1046.92
1359.62
1148.02
1389.2
1223.82
1463.04
1276.34
931.292
1099.7
982.694
1186.57
1101.6
1229.15
1106.33
932.772
853.625
927.43
965.143
886.578
813.602
980.049
727.723
526.609
735.966
465.155
700.778
422.764
765.048
516.401
721.941
683.769
583.565
619.236
829.235
784.371
564.099
674.154
646.925
635.084
658.86
773.068
741.328
552.825
637.424
606.849
659.598
650.903
730.33
696.647
1446.05
1910.82
1522.8
1985.57
1566.88
2171.06
1714.08
1160.11
1427.14
1235.9
1478.87
1289.3
1602.36
1377.82
994.714
1183.02
1058.37
1239.63
1111.05
1317.19
1176.32
850.352
1023.5
929.204
1072.33
968.08
1140.22
1052.3
757.217
903.633
853.921
939.49
872.072
1028.91
976.457
708.199
842.33
813.925
854.69
812.331
962.519
923.556
670.496
802.431
767.407
800.305
764.748
908.325
861.141
623.811
751.996
707.378
752.115
711.342
842.804
790.963
1627.93
1954.23
1608.97
2377.05
1782.29
2249.82
1795.31
1356.87
1510.16
1305.48
1675.62
1519.98
1689.07
1493.28
1197.61
1261.07
1176.97
1471.41
1363.63
1453.26
1362.45
1129.04
1158.25
1100.64
1337.53
1274.04
1335.46
1247.72
1039.74
1074.71
967.764
1250.36
1167.75
1211.55
1080.62
942.827
925.931
809.197
1138.46
1060.45
1035.41
928.947
856.357
779.175
723.58
1037.06
977.94
905.912
865.961
801.572
714.002
696.267
960.248
921.323
858.736
845.928
1594.04
1800.34
1512.75
2175.77
1782.98
1971.76
1684.57
1295.81
1436.32
1273.18
1682.08
1489.62
1613.01
1459.3
1169.95
1236.36
1153.2
1449.49
1354.44
1419.36
1309.28
1083
1125.77
943.535
1325.26
1225.7
1269.97
1120.23
915.537
861.784
670.863
1182.21
1026.52
1053.08
864.885
735.551
632.527
604.43
974.899
864.094
820.452
763.765
670.807
617.199
657.274
845.065
822.897
765.668
787.828
671.1
664.203
669.751
821.399
823.609
792.803
797.383
1513.09
1950.63
1581.49
1951.16
1670.69
2053.78
1707
1277.64
1497.42
1314.51
1602.38
1451.01
1626.74
1442.81
1149.47
1267.05
1142
1409.65
1291.86
1392.25
1253.33
913.828
1103.98
994.785
1250.54
1094.52
1210.79
1096.12
690.263
962.109
881.218
1032.15
872.457
1061.89
975.072
663.416
860.564
814.396
836.468
794.344
952.764
907.177
692.338
802.913
770.723
795.875
808.143
896.959
866.416
683.474
759.464
723.891
808.8
802.036
855.043
820.375
1602.75
2240.81
1758.63
2133.86
1730.44
2435.7
1883.43
1325.46
1643.64
1413.64
1642.44
1444.34
1760.33
1523.29
1144.38
1351.71
1208.82
1391.02
1250.46
1461.24
1312.18
1001.94
1173.02
1087.67
1208.84
1103.78
1276.08
1197.15
904.952
1064.76
1010.97
1074.64
1001.15
1174.92
1112.66
842.758
996.24
954.322
981.219
935.63
1094.45
1044.99
793.303
938.098
887.709
923.126
884.33
1026.37
966.413
737.559
868.52
814.397
870.279
828.38
945.621
890.183
1853.95
2375.55
1883.9
2919.48
2161.82
2841.65
2300.3
1596.1
1775.11
1580.2
2069.6
1976.91
2184.23
2009.35
1438.26
1540.58
1442.54
1941.83
1799.16
1972.96
1854.8
1340.25
1410.99
1310.28
1767.4
1708.56
1813.48
1687.03
1226.46
1270.1
1130.41
1689.04
1568.84
1637.83
1471.99
1114.8
1084.31
982.709
1535.04
1462.78
1423.08
1341.34
1031.83
961.747
925.09
1446.14
1374.09
1324.8
1291.73
971.206
918.107
903.029
1357.48
1318.27
1285.89
1279.73
1872.32
2051.2
1769.16
2743.39
2306.54
2414.86
2206.14
1578.5
1698.97
1545.28
2198.74
2020.53
2138.43
1988.57
1432.92
1502.68
1377.35
1977.38
1849.97
1937.04
1780.02
1284.84
1333.35
1177.83
1804.48
1657.34
1723.72
1540.68
1073.15
1110.62
920.315
1598.36
1407.22
1465.02
1254.13
918.386
875.333
819.975
1353.5
1272.72
1207.75
1165.98
883.863
822.183
844.205
1267.04
1252.54
1178.64
1206.45
881.335
848.734
849.899
1252.28
1256.3
1210.92
1211.77
1752.91
2123.61
1780.99
2372.42
2186.21
2462.06
2181.51
1533.27
1699.95
1511.04
2120.99
1966.74
2095.4
1896.09
1355.87
1458.08
1308.88
1912.41
1746.49
1835.64
1660.44
1151.64
1263.38
1143.78
1688.64
1509.05
1607.53
1473.72
925.722
1108.29
1017.98
1441.3
1259.25
1435.17
1332.24
845.542
995.213
951.628
1218.67
1183.8
1307.32
1270.93
860.8
942.476
912.374
1195.06
1214.09
1267.7
1236.24
852.115
900.873
863.853
1214.63
1206.1
1225.36
1190.76
1802.29
2524.14
1945.77
2550.7
2184.26
2908.81
2261.58
1508.8
1819.36
1581.66
2087.31
1877
2118.17
1910.61
1305.58
1520.13
1367.45
1819.63
1647.48
1850.75
1683.54
1153.06
1330.25
1251.97
1597.79
1479.94
1633.84
1572.99
1046.14
1229.3
1162.19
1447.88
1359.05
1546
1464.98
980.686
1142.34
1089.85
1336.48
1298.91
1437.44
1388.1
928.476
1070.13
1006.11
1286.99
1243.44
1364.21
1290.83
870.352
984.625
927.208
1229.58
1193.07
1266.56
1217.4
913.793
864.319
816.057
912.58
847.998
931.694
877.997
930.639
890.65
852.484
960.082
866.524
957.531
851.775
864.425
744.305
752.27
533.345
813.601
779.45
667.221
1005.75
1026.83
1074.07
1084.47
1012.4
1022.21
1066.58
979.719
974.06
1055.26
1002.64
995.756
942.43
1040.47
996.077
1010.3
1080.35
1029.64
1020.69
900.955
1057.6
936.261
587.899
941.025
941.467
853.963
722.293
1009.81
742.618
772.552
651.525
784.547
697.208
824.75
691.428
635.667
681.599
515.766
456.957
621.886
706.346
390.367
560.849
519.168
474.377
390.468
563.52
518.058
373.195
850.986
947.155
964.503
958.018
914.115
899.606
907.178
795.636
830.765
922.013
789.661
874.971
738.667
849.93
704.713
505.622
869.667
669.282
778.991
442.146
797.857
621.397
423.715
659.151
616.86
570.583
412.86
723.795
868.094
750.52
777.796
529.829
830.358
643.515
810.152
949.683
938.185
911.976
991.483
903.319
985.944
955.422
908.741
826.591
875.904
884.27
864.472
868.834
918.924
984.794
1014.13
1020.75
1074.36
873.625
1030.19
1033.26
918.581
569.868
904.51
913.492
690.394
857.725
973.519
993.734
1031.94
1070.5
1032.38
1030.24
995.556
1033.63
951.882
924.004
949.698
995.768
910.495
958.939
991.839
701.51
488.483
650.014
419.324
673.524
419.44
676.676
800.714
792.285
783.791
852.852
762.096
832.673
824.996
773.316
713.101
760.035
778.742
736.091
749.15
800.33
768.317
500.48
641.058
861.256
456.982
808.603
816.501
738.544
456.648
595.68
751.44
448.729
711.395
780.059
839.049
892.072
910.718
899.012
872.72
863.441
875.465
809.766
815.329
817.452
872.621
784.066
837.864
844.312
284.79
426.448
291.222
688.549
677.806
672.153
657.558
238.224
225.927
208.088
612.925
542.361
591.819
561.252
188.1
194.449
184.317
501.895
492.058
531.913
522.061
179.747
181.642
183.668
471.079
447.05
504.689
503.99
174.067
187.835
188.029
455.884
462.998
501.794
493
169.063
184.801
179.137
463.876
458.959
475.943
463.926
155.936
172.885
166.485
448.405
434.714
442.685
425.296
125.568
159.969
133.593
412.837
436.557
394.245
406.388
422.516
381.634
334.005
733.853
727.004
696.073
702.319
360.125
251.363
274.645
405.32
373.322
388.54
207.762
338.141
129.001
132.963
305.941
284.094
347.898
122.875
276.111
110.28
101.797
254.922
255.138
288.063
97.0402
258.28
110.151
91.2335
256.988
261.006
258.48
91.1687
270.524
115.748
96.381
291.628
298.589
272.191
96.0569
268.039
106.836
95.1415
302.927
300.989
269.047
95.5544
248.251
99.0444
94.9253
288.302
280.688
256.213
93.2083
212.899
88.0095
85.3564
257.598
250.571
221.045
81.2104
103.705
113.928
84.1098
309.555
328.29
257.298
272.418
238.855
244.929
234.875
542.74
651.104
620.806
726.747
339.957
155.5
164.089
321.734
341.822
300.079
141.655
356.542
131.683
126.581
378.236
373.835
366.099
124.096
240.861
94.3797
92.6977
294.299
263.27
261.116
84.3798
244.706
80.9262
82.6936
229.616
229.515
236.594
86.5283
253.273
86.8852
93.4678
237.122
239.997
253.74
93.859
227.442
86.822
90.8317
236.744
231.306
237.487
87.4828
192.711
76.5583
77.574
201.839
194.845
197.521
76.1326
177.91
70.3507
73.1508
179.297
175.62
181.542
71.2373
88.922
130.91
109.508
253.225
268.586
290.853
315.996
455.266
701.559
615.348
1119.29
1089.17
1271.49
1321.1
527.709
206.388
304.843
463.596
475.467
514.537
249.451
467.238
138.742
185.699
430.676
397.171
504.713
170.247
340.838
114.308
124.738
323.025
316.186
351.959
122.068
339.175
119.156
126.071
320.043
319.784
340.607
126.198
289.562
107.141
111.614
295.403
286.724
299.824
106.914
267.468
101.571
103.97
271.135
261.822
275.475
102.161
238.849
89.7515
93.5824
239.093
233.314
246.586
90.1984
225.281
81.3361
85.737
215.874
214.322
227.156
85.0144
115.818
153.528
117.982
323.002
342.933
342.237
360.097
494.724
441.493
381.204
1149.84
1182.49
957.753
953.001
519.571
286.656
304.729
573.659
623.864
507.52
243.49
497.435
208.573
190.919
616.991
569.895
525.412
177.266
410.57
146.208
145.104
428.834
408.916
416.33
144.395
398.868
140.934
147.612
391.855
382.869
406.806
146.952
298.161
106.324
122.143
316.793
291.872
328.303
108.583
258.862
92.7667
91.3528
259.936
257.909
259.483
91.2757
260.834
93.9998
93.7162
255.996
255.812
260.735
94.3346
253.897
92.478
93.9251
252.952
250.389
257.202
92.0828
118.514
154.258
140.698
360.27
370.484
366.579
346.054
311.134
445.522
312.006
814.384
799.111
826.704
846.876
258.427
267.453
260.406
765.683
734.827
831.765
785.706
246.715
251.629
236.862
700.396
673.68
740.894
705.279
213.261
228.044
225.638
636.105
590.484
662.272
621.68
183.911
221.274
211.129
546.517
521.92
589.543
571.536
178.979
211.193
209.532
503.908
497.541
538.602
519.945
175.033
207.263