/*--------------------------------*- C++ -*----------------------------------*\
  =========                 |
  \\      /  F ield         | OpenFOAM: The Open Source CFD Toolbox
   \\    /   O peration     | Website:  https://openfoam.org
    \\  /    A nd           | Version:  10
     \\/     M anipulation  |
\*---------------------------------------------------------------------------*/
FoamFile
{
    format      ascii;
    class       volScalarField;
    location    "4.8";
    object      k_0;
}
// * * * * * * * * * * * * * * * * * * * * * * * * * * * * * * * * * * * * * //

dimensions      [0 2 -2 0 0 0 0];

internalField   nonuniform List<scalar> 
12920
(
127.921
348.358
361.864
362.293
359.622
369.042
356.692
297.135
230.424
193.655
159.224
134.481
117.365
105.772
99.946
94.6381
91.5548
84.6919
79.6654
70.412
54.2912
1041.51
1169.22
939.897
516.555
376.528
303.569
277.467
256.37
247.061
226.033
199.271
175.8
164.898
160.582
158.873
156.758
154.202
153.331
151.39
503.807
1709.58
1386.33
1016.89
625.094
434.184
330.552
303.39
265.853
245.012
211.994
193.669
176.836
169.924
164.573
161.295
157.921
156.578
156.781
157.531
2773.79
1597.31
1052.83
976.514
682.397
431.987
320.153
277.331
239.457
217.087
195.267
182.025
169.955
162.481
155.955
150.667
147.025
145.619
146.009
148.986
5299.6
2045.44
1820.99
1193.65
686.048
478.353
384.029
324.303
285.018
256.045
228.332
209.408
191.707
180.457
169.484
158.862
150.46
144.643
142.002
142.208
3358.93
1684.85
1614.8
1434.03
886.021
630.255
510.157
463.924
388.919
321.628
258.098
222.251
206.116
196.905
188.024
176.989
164.191
149.546
138.082
131.038
385.012
1092.1
1322.43
1154.99
791.894
642.407
517.448
436.958
340.923
269.814
237.536
228.203
225.306
219.422
206.506
190.153
175.027
156.151
139.626
123.68
1824.13
1666.72
1541.55
1313.5
928.953
721.105
432.624
248.31
216.01
184.404
178.197
172.934
163.336
150.942
236.647
199.897
179.593
161.276
147.488
125.113
7682.64
3355.22
1451.32
1050.93
697.898
483.069
331.599
149.566
113.858
110.433
118.233
109.697
102.279
92.4788
133.189
175.189
166.91
159.98
153.95
133.893
2883.03
2461.22
1365.53
774.155
485.421
244.409
184.542
134.214
105.227
80.9326
85.2973
87.7608
78.5902
72.4599
115.049
176.206
164.184
158.478
154.816
143.476
2783.06
2615.85
1947.44
1454.5
1138.29
585.621
267.917
149.704
115.331
118.977
110.854
103.82
92.7588
82.0565
145.764
198.013
169.178
156.85
154.373
146.314
3536.29
2773.67
2021.64
1330.62
966.679
582.507
335.598
229.955
153.329
142.68
116.95
92.9947
93.8278
93.8434
156.62
200.154
167.541
149.801
147.194
142.397
4299.12
2755.71
2195.15
1548.17
1077.5
804.083
418.405
273
252.629
235.125
194.862
179.173
177.854
169.923
244.831
202.523
174.975
152.515
144.846
135.825
2627.46
2148.05
1730.04
1194.83
892.491
702.79
563.354
505.086
459.11
438.739
413.088
384.746
338.567
281.017
236.559
203.997
181.159
160.571
148.335
132.418
693.626
738.617
689.396
880.814
913.225
838.265
673.555
629.125
566.213
536.82
489.951
434.962
359.368
284.862
229.95
194.461
174.18
158.819
149.03
131.03
159.261
224.438
270.082
547.272
720.184
720.252
656.83
620.587
571.892
545.609
489.258
389.002
292.843
221.4
179.571
155.715
144.691
138.055
134.431
124.753
161.24
215.557
421.101
593.586
618.383
607.441
540.599
484.81
444.476
421.826
377.913
298.856
225.732
178.938
154.509
139.12
126.428
117.609
114.598
110.939
445.143
396.493
452.569
739.328
788.152
752.595
620.438
550.528
482.079
452.836
408.565
334.568
248.947
191.138
162.227
145.346
126.324
110.243
99.426
94.6659
1833.53
3315.06
1484.15
932.456
696.532
535.122
415.896
372.737
329.416
285.294
238.104
201.232
176.248
167.699
169.543
172.99
167.33
142.054
116.179
98.0535
559.841
1051.41
1017.48
740.728
416.914
305.476
223.134
198.069
167.559
153.642
131.012
116.898
111.125
113.611
118.462
118.045
114.407
103.593
96.8086
82.0076
444.707
572.361
736.552
872.418
874.27
847.349
743.573
560.378
439.806
390.89
348.02
314.282
280.512
259.522
247.213
238.965
234.208
222.043
213.923
195.22
208.599
2775.82
2748.33
2261.41
1258.35
1019.06
778.926
752.237
690.197
667.787
592.325
549.07
499.326
490.016
482.692
480.567
473.038
465.729
464.089
462.225
1204.04
4741.02
3493.32
2445
1614.71
1140.47
855.911
794.203
679.286
647.903
572.563
547.532
508.677
500.553
486.723
481.71
471.814
469.393
470.894
472.365
15480.6
6307.12
3630.88
2587.29
1608.83
1102.65
806.179
733.161
636.035
597.004
540.785
515.449
485.977
473.183
458.329
450.174
445.06
444.467
447.868
456.69
14675.8
5299.56
4684.96
2529.82
1461.9
1153.76
897.199
840.22
742.517
695.303
617.66
575.873
531.201
511.145
484.295
465.119
449.72
440.975
438.391
437.314
6801.36
5373.08
4302.98
3038.78
1694.26
1472.06
1237.65
1155.2
956.917
820.701
678.802
603.633
564.669
542.462
517.551
493.528
466.918
438.055
415.861
400.611
2079.28
2317.82
1974.43
2330.37
1681.55
1577.16
1303.44
1110.37
874.376
710.75
634.702
601.826
582.549
565.681
532.687
505.052
476.766
441.305
406.309
374.322
6057.57
4078.05
2820.87
2563.22
1934.58
1692.14
1320.62
973.768
814.202
692.624
651.018
626.503
595.545
552.208
546.011
509.136
482.07
448.462
415.022
372.656
16566.1
8021.26
3587.63
2718.03
1503.61
1372.47
1198.12
891.689
719.363
639.208
625.934
595.161
544.149
480.331
428.064
440.379
454.494
455.715
445.96
398.561
10208.8
6759.91
3286.24
1854.93
1209.7
1004.17
1002.5
875.97
655.926
562.92
547.391
493.873
387.213
332.025
345.71
409.415
423.032
435.977
442.745
434.503
6758.28
6641.48
4886.64
3319.66
2442.79
1788.55
1271.07
907.447
695.907
638.646
550.211
464.274
422.067
415.884
427.538
453.491
429.157
422.137
424.569
424.214
3266.6
6903.21
4834.07
3072.74
2165.57
1766.49
1476.81
1113.69
842.358
729.695
600.288
530.058
506.135
486.577
485.536
486.297
444.445
422.521
418.306
409.513
9205.68
7440.65
5160.83
3435.95
2480.69
1946.24
1460
1129.64
956.89
842.756
747.651
697.772
670.313
626.255
624.066
548.583
491.221
444.408
423.091
399.42
4620.92
5349.61
4026.89
2838.91
2284.05
1847.2
1519.51
1363.52
1224.45
1150.91
1059.37
977.066
878.332
767.95
665.686
584.449
525.005
470.411
433.165
394.781
2747.42
2746.12
2448.4
2446.64
2397.46
2193.57
1807.01
1664.83
1466.41
1351.81
1199.75
1065.57
920.963
770.907
646.637
563.935
503.125
459.184
427.779
387.546
2450.21
1772.81
1195.36
1559.68
1935.45
1942.06
1758.91
1665.05
1508
1399.11
1202
978.143
761.766
615.669
522.713
470.729
438.569
416.351
399.234
370.382
1113.15
1229.21
1317.73
1715.96
1782.9
1723.46
1484.48
1375.69
1219.19
1159.46
1014.21
810.553
616.047
509.511
453.646
415.131
380.936
359.648
348.227
333.863
3173.79
2295.49
1940.5
2138.47
2163.72
2060.44
1708.33
1579.17
1381.89
1313.98
1164.39
926.037
655.013
533.429
474.255
430.536
376.02
332.833
306.816
294.068
9455.92
8062.49
4591.69
2582.97
1882.83
1550.47
1266.24
1176.54
1023.29
882.187
685.286
566.877
500.037
483.954
474.357
475.51
469.155
429.004
345.988
313.163
1697.91
2493.39
2419.63
1588.73
859.581
586.628
475.588
443.04
411.155
360.697
313.657
278.594
264.373
257.306
242.331
214.844
186.312
170.182
167.24
160.824
382.584
1308.69
1448.35
1372.26
1195.16
1034.53
812.638
602.675
478.544
429.919
392.445
364.912
341.275
324.011
310.965
295.556
285.764
265.348
255.651
233.151
98.8645
2424.4
4137.26
3195.78
1803.52
1423.09
1082.49
1018.32
897.899
861.276
778.515
755.577
722.65
720.1
714.407
708.985
694.819
680.381
672.16
654.968
3294.15
7864.19
5057.67
3284.71
2207.98
1518.56
1203.88
1066.62
922.253
863.564
784.173
760.356
729.228
721.89
708.293
699.395
685.829
675.414
669.685
657.131
20681.9
10003.4
6025.35
3627.05
2331.35
1565.26
1215.47
1048.22
905.131
822.839
753.659
719.391
691.634
679.416
665.676
656.711
649.179
643.529
641.88
638.34
13114.4
8466.31
5831.95
3044.39
2140.39
1619.79
1344.65
1177.75
1022.86
911.91
816.804
761.802
716.456
691.942
665.467
647.189
632.033
621.549
614.24
606.663
7469.13
6872.57
5984.39
3475.96
2296.2
1919.46
1608.81
1419.93
1168.51
1001.46
872.95
802.845
754.889
719.004
682.131
649.019
620.04
592.309
572.604
556.396
2510.13
3941.8
3609.91
3235
2295.01
2095.16
1671.95
1368.04
1116.84
939.922
866.348
820.389
782.204
745.077
698.283
658.943
620.967
581.86
549.301
520.337
4051.08
4972.82
4511.61
3544.75
2446.3
2124.32
1809.35
1357.02
1132.95
967.851
899.027
855.275
801.966
747.461
713.002
673.163
638.376
595.816
557.539
515.988
25887.8
7757.6
4375.49
3219.65
2102.31
1873.92
1741.42
1282.36
1068.03
946.537
902.75
839.195
757.388
678.609
622.553
632.583
635.664
624.382
594.881
540.633
15258.2
10048.4
4514.17
2623.03
1888.7
1573.64
1528.69
1246.4
988.898
889.795
829.008
696.929
535.141
483.052
512.906
582.737
600.817
607.166
605.061
581.804
10695.6
9682.34
6312.49
3983.72
2836.56
2111.56
1623.64
1225.87
1009.71
917.558
578.018
469.325
537
565.222
571.961
589.978
579.01
579.304
581.323
573.665
8540.88
9020.65
6154.48
3875.57
2645.91
2163.78
1851.74
1353.25
1113.92
957.403
821.045
742.839
699.211
660.421
633.845
620.494
586.421
571.168
566.726
555.97
6982.67
9921.71
6831.51
4338.8
3155.57
2490.7
2000.13
1529.15
1258.33
1093.73
996.363
933.663
882.959
813.41
770.451
692.803
632.353
590.112
569.111
547.081
16172.9
8411.19
5337.98
3781.65
3070.7
2505.71
2046.34
1804.69
1575.69
1445.8
1299.7
1178.04
1051.25
933.388
830.594
738.742
666.479
611.896
577.448
545.782
6798.14
5177.39
4777.88
4051.19
3552.43
3014.25
2479.45
2194.82
1870.07
1649
1425.24
1240.12
1077.88
936.33
822.625
724.293
653.106
604.266
571.608
539.133
5500.51
4787.89
3541.42
3252.22
3194.16
2901.24
2482.8
2229.43
1921.51
1675
1385.79
1137.22
949.414
820.034
725.823
652.174
603.113
568.661
544.322
518.2
4093.6
3841.71
3435.48
2970.45
2780.32
2509.48
2169.62
1992.45
1721.1
1545.61
1266.56
1032.14
837.392
709.4
630.079
572.879
534.001
507.84
490.216
473.372
5848.96
6121.9
4946.88
3931.31
3351.62
2956.6
2403.73
2190.01
1836.06
1654.52
1345.92
1083.59
848.012
707.986
618.616
555.99
506.32
472.216
447.915
432.301
11482.3
10133.1
6465.21
3499.12
2538.12
2020.38
1735.72
1552.8
1311.15
1101.5
880.56
753.402
661.373
613.814
580.039
558.149
530.88
491.846
459.245
433.522
980.7
3166.65
2891.37
1609.34
927.769
670.842
622.93
544.201
494.318
412.873
357.894
312.798
285.099
255.966
216.771
184.591
175.508
177.914
183.68
172.287
588.953
2144.23
1935.82
1599.18
1319.72
1071.06
808.285
589.286
479.025
429.711
398.925
373.447
351.723
333.793
317.714
300.2
288.433
267.226
257.325
232.068
2446.94
7948.93
5816.18
3515.94
2258.76
1650.01
1348.52
1197
1088.35
1014.15
957.399
934.458
921.952
921.058
917.924
910.207
893.046
872.202
856.341
825.478
12182.6
11986.5
6826.67
3990.47
2772.03
1766.49
1519.8
1260.91
1143.75
1036.21
982.296
944.264
929.838
916.344
907.484
892.418
877.306
859.323
845.723
821.421
22101.3
12542
7875.92
4369.61
2969.16
1875.89
1569.7
1267.33
1133.22
997.207
942.869
892.314
876.883
858.525
850.527
838.427
830.368
819.291
811.75
797.745
18141.2
11135.9
7555.42
3688.97
2807.51
1940.34
1737.51
1407.02
1250.42
1072.02
991.041
915.884
882.236
848.794
828.479
808.179
795.221
780.965
769.855
757.703
21570.8
12815.2
8882.55
4412.4
3024.46
2259.53
1950.01
1598.84
1344.96
1136.49
1036.21
954.952
910.888
860.424
821.983
783.474
756.17
730.435
712.118
696.952
11233.9
8062.18
5883.61
3740.42
3016.57
2448.01
1968
1554.27
1310.76
1115.04
1056.5
986.817
943.957
884.166
832.736
782.373
742.093
703.802
674.754
652.372
10280.8
8776.95
6757.89
4149.97
3066.63
2527.42
2102.98
1587.65
1339.08
1165.05
1086.17
1027.58
958.524
895.513
851.159
802.322
759.378
712.879
676.116
643.189
19296.3
8379.74
5576.5
3559.18
2661.54
2286.46
2095.1
1518.84
1305.65
1179.07
1108.98
1017.18
919.187
840.342
788.596
800.026
782.312
744.674
708.435
664.519
16183.4
10190.5
5416.18
3287.09
2340.91
1996.66
1910.43
1498.73
1253.89
1152.02
1051.06
865.441
708.054
669.494
693.249
756.838
760.647
753.27
736.946
700.416
10398.4
10924.8
8020.01
4558.89
3156.2
2267.75
1812.08
1438.23
1241.15
1122.98
838.513
667.74
674.547
693.638
701.843
725.742
721.282
720.948
717.946
700.537
20951.1
12244.8
7501.98
4525.85
3035.27
2378.46
2015.51
1516.32
1275.71
1105.93
974.23
887.78
830.996
780.638
742.449
735.05
712.584
703.955
699.651
686.64
12437.6
12182.6
8374.93
5051.79
3794.05
2870.85
2299.11
1722.43
1424.58
1247.38
1154.53
1078.53
1009.78
923.832
868.478
799.711
749.475
717.636
700.518
681.309
17082.1
10523.5
6798.77
4517.79
3786.56
2912.52
2406.99
2045.3
1780.29
1598.86
1435.14
1294.12
1162.88
1042.64
939.21
848.865
782.741
736.592
707.886
684.585
12106.2
9101.24
7441.06
5291.41
4549.55
3528.08
2970.23
2473.41
2094.94
1782.65
1541.15
1337.12
1181.85
1044.6
937.244
839.794
774.153
730.007
700.344
678.117
12670.6
8924.07
6550.42
4717.49
4304.2
3452.11
3013.51
2503.53
2136.99
1761.25
1468.57
1226.97
1075.84
951.154
864.312
786.875
736.434
700.002
673.172
654.086
8916.06
6858.04
5372.43
3857.56
3663.82
2993.29
2696.8
2304.05
1986.67
1650.27
1352.15
1112.44
955.494
836.863
762.248
701.164
663.14
635.523
614.823
602.332
9679.58
9446.74
7749.31
5274.96
4295.53
3363.98
2839.63
2406.5
2026.33
1673.38
1354.18
1102.21
933.245
813.552
731.056
666.028
621.773
592.519
569.637
560.039
26990.3
16371.4
7549.08
3809.25
3094.03
2225.27
2076.03
1683.87
1443.59
1134.32
953.671
827.124
752.824
703.81
665.926
630.989
598.337
569.413
546.383
528.516
3478.26
3600.51
2406.23
1154.07
909.886
706.537
681.772
561.469
494.502
389.714
341.135
287.343
250.24
206.179
181.261
174.84
176.59
177.69
173.867
143.615
3048.03
3187.48
2310.91
1665.37
1281.32
944.181
653.386
499.53
427.529
385.958
357.014
328.345
306.552
289.282
275.037
259.043
244.193
222.624
208.871
182.666
12629.6
10009.6
7893.42
3799.81
3206.7
1795.05
1825.16
1403.9
1445.02
1225.55
1254.51
1165.5
1198.24
1164.88
1177.44
1151.55
1139.08
1099.72
1074.9
1023.54
47526.8
19879.7
9185.91
4700.1
3619.5
1929.56
2008.7
1466.51
1498.92
1259.55
1279.63
1180.86
1204.66
1159.17
1166.01
1132.5
1121.37
1086.74
1067.36
1029.02
28499.2
14280.3
10283.1
5025.38
4087.49
2178.68
2152.01
1543.91
1498.15
1222.54
1220.83
1116.67
1129.62
1085.68
1091.28
1065.76
1061.49
1039.28
1028.61
1003.81
35774.1
14752
9172.43
4520.65
3867.46
2200.24
2301.05
1647.35
1596.26
1277.97
1254.45
1123.37
1119.54
1058.76
1053.7
1019.67
1012.6
987.429
976.455
957.982
16485.7
14779.9
13227.6
5544.83
4458.28
2704.62
2613.06
1886.94
1667.5
1334.29
1282.51
1155.47
1128.11
1049.84
1017.49
967.081
946.12
915.92
901.745
886.748
37970.6
14905.4
8771.54
4442.19
4375.26
2823.28
2454.42
1832.58
1606.16
1347.14
1318.69
1200.99
1168.49
1070.64
1024.51
950.834
915.056
871.18
849.652
833.245
25706.3
11381.3
9064.38
4685.75
4432.62
3241.92
2439.85
1842.49
1574.22
1377.26
1303.54
1214.42
1143.33
1061.18
1041.7
973.366
919.472
869.947
839.121
816.731
20321.9
10777.7
6826.73
4326.24
3449.63
2830.48
2501.52
1747.4
1548.94
1408.74
1315.33
1193.94
1091.07
1012.59
978.585
998.486
949.949
894.487
861.124
829.856
28665
12103.5
7046.74
4109.02
3008.71
2425.22
2294.97
1768
1537.12
1398.19
1236.64
1020.95
902.165
882.359
909.915
972.802
948.516
915.849
891.432
853.91
28087.2
14384.7
9378.84
5048.7
3745.09
2499.67
2023.9
1684.08
1487.76
1309.36
1089.14
888.535
847.62
861.27
878.841
919.913
905.892
892.108
881.974
854.898
12452.8
11712
9055
5116.9
3639.36
2618.93
2198.01
1710.75
1452.51
1260.77
1122.6
1025.28
967.979
913.663
885.703
905.422
886.049
875.431
869.076
848.621
9054.17
12054.8
10249.4
5653.81
4803.75
3219.38
2588.26
1900.49
1614.37
1417.86
1331.68
1229.92
1148.34
1045.03
1010.26
951.053
910.519
885.733
871.993
852.29
31084.3
12399.8
8536.96
5141.9
4757.3
3221.95
2887.42
2252.91
2044.86
1762.45
1617.19
1437.45
1308.91
1177.22
1076.99
996.293
942.579
903.1
881.128
864.451
59046
14814.2
10050.1
5883.09
5627.42
3822.14
3554.7
2668.23
2358.62
1914.55
1702.13
1464.38
1324.63
1180.5
1081.3
989.89
935.932
895.36
871.505
859.301
25196
10879.4
9114.28
5449.95
5480.38
3842.48
3628.87
2680.41
2402.52
1830.73
1612.45
1337.31
1233.28
1095.43
1028.17
949.968
907.37
868.634
843.704
833.257
37020.6
9914.06
6696.4
4511.86
4582
3273.51
3284
2476.2
2269.92
1675.93
1472.51
1191.07
1105.35
977.446
926.597
859.17
827.996
796.479
778.574
773.712
6872.76
11789.6
9828.44
5663.42
5204.14
3504.45
3348.41
2467.6
2248.43
1601.27
1418.62
1121.58
1062.65
936.921
884.756
811.895
776.884
747.01
729.458
728.287
33384.7
18884.7
8082.16
3797.19
3984.15
2442.12
2608.84
1718.47
1647.82
1124.08
1077.42
895.26
894.901
824.066
800.904
743.343
717.301
689.462
674.36
675.367
13193.2
4209
1852.56
917.389
874.221
707.842
658.994
496.804
418.435
314.335
261.369
211.029
184.211
165.284
164.945
164.2
163.639
157.614
141.236
123.264
849.13
906.629
649.7
1091.86
1032.22
1070.9
826.515
737.124
576.768
456.878
1002.07
875.06
735.167
569.864
652.681
947.56
841.745
1073.14
789.231
1069.65
961.247
471.842
811.095
739.927
703.061
585.202
928.978
850.06
171.844
223.683
141.544
863.574
784.07
812.041
794.122
114.292
136.454
118.769
733.274
619.146
759.72
617.217
110.963
108.773
84.7476
596.362
548.164
570.114
482.97
118.287
81.2963
79.8865
538.458
538.277
470.53
461.95
111.846
80.4687
85.2408
536.553
521.762
461.756
454.82
104.147
86.8893
85.9047
515.563
486.954
446.884
398.295
95.092
82.973
75.318
475.123
433.047
376.956
319.468
70.3271
73.3539
53.8687
419.157
392.193
306.67
285.464
137.597
156.282
109.238
796.086
776.257
827.32
724.298
116.534
105.32
93.8224
743.65
602.509
677.784
561.17
81.8304
93.7647
105.585
552.87
473.029
538.328
522.558
83.2419
109.216
111.167
465.227
460.066
520.906
494.268
88.0677
108.847
101.959
459.013
439.908
475.504
419.98
81.4463
99.6293
88.9466
425.689
362.25
400
351.663
73.8251
87.3318
81.818
340.662
299.151
344.721
340.173
53.89
79.85
65.9837
292.245
282.085
339.834
342.814
162.877
408.162
258.735
1075.9
859.546
1362.09
1154.4
120.502
238.452
170.44
786.184
622.567
1058.53
796.548
117.073
157.936
144.749
591.478
556.577
740.321
651.778
116.295
142.372
122.954
550.714
509.497
629.475
545.758
104.694
112.909
97.1853
489.22
439.137
518.322
464.896
95.6635
96.1488
94.437
422.279
383.941
454.25
432.914
83.789
93.4361
92.1059
378.187
367.903
427.519
414.268
68.3508
91.7436
75.7187
364.614
356.863
409.207
398.693
245.926
247.205
120.603
1262.36
1092.57
1035.97
869.82
166.753
122.837
141.398
1011.18
783.975
835.046
776.412
143.451
146.233
151.208
737.268
665.527
759.173
708.561
128.559
149.86
131.361
644.632
555.811
688.605
604.612
94.2816
120.651
98.1004
524.607
466.085
574.285
521.548
93.6663
95.9212
96.2721
457.22
442.882
513.222
503.289
94.2685
97.2379
98.757
439.32
429.916
498.568
487.334
75.584
99.9714
83.6597
425.03
412.514
478.293
467.763
972.719
1051.88
945.591
1617.36
1316.1
1459.14
1268.15
750.759
896.527
724.641
1204.15
1040.11
1190.97
982.114
652.39
673.489
582.477
994.32
896.111
929.829
838.161
631.269
569.363
557.621
878.564
855.065
823.527
798.461
603.865
555.728
537.81
842.261
801.894
788.601
734.45
559.087
524.465
459.677
786.869
732.066
706.607
606.248
495.642
434.212
367.716
711.381
651.52
573.101
499.073
442.819
353.346
323.648
634.514
599.776
484.854
462.771
922.093
1027.82
866.846
1408.93
1243.97
1406.55
1186.12
707.66
811.326
674.529
1169.49
964.872
1113.57
946.052
572.545
646.683
615.575
914.148
828.6
910.875
847.252
551.819
610.422
562.051
815.354
782.018
835.475
666.59
513.823
535.51
462.9
765.736
687.664
608.185
487.816
413.916
438.931
385.93
651.767
533.244
456.431
423.381
338.402
380.146
383.59
497.768
443.644
432.969
484.008
318.695
385.627
385.431
442.117
447.152
492.966
501.786
987.577
1587.08
1268.24
1555.54
1245.6
1817.34
1425.33
730.182
1162.95
897.142
1161.76
979.447
1321.77
1097.59
648.184
840.661
740.754
942.245
869.135
1048
933.541
577.177
713.819
622.357
853.038
676.612
899.339
795.69
484.375
594.209
535.801
620.237
514.031
765.704
697.147
425.683
523.108
497.266
495.002
498.394
680.642
645.078
418.208
490.947
474.412
511.216
532.437
636.214
611.125
400.994
468.316
448.119
532.582
521.849
602.306
575.877
1203.64
1310.43
1046.68
1791.46
1397.86
1788.28
1432.75
888.428
994.946
902.362
1304.36
1106.58
1345.24
1172.36
756.347
874.961
804.328
1060.97
947.396
1124.26
1008.66
631.459
780.029
690.592
911.339
804.143
974.93
879.646
540.488
661.093
610.277
774.445
712.104
853.382
804.31
510.983
601.518
588.724
698.214
667.466
793.356
768.873
492.606
582.883
567.707
659.032
633.945
758.886
728.305
462.291
556.626
527.79
624.543
592.427
714.17
674.677
1394.81
1572.76
1349.47
2003.15
1578.21
1864.5
1551.09
1117.38
1266.08
1054.45
1467.08
1305.56
1455.15
1247.55
964.569
1003.37
913.171
1252.36
1145.05
1201.45
1116.75
917.937
898.143
867.588
1125.65
1082.2
1099.57
1049.74
856.198
854.577
788.497
1062.1
998.455
1026.91
928.285
779.501
756.797
649.152
976.372
905.335
888.124
770.877
695.771
615.43
543.414
881.237
818.221
739.194
678.652
640.947
529.908
505.515
801.408
765.214
668.07
651.319
1327.1
1517.66
1266.63
1815.46
1534.56
1742.07
1458.95
1038.24
1191.07
1020.54
1441.34
1235.94
1381.55
1215.34
904.001
984.458
914.406
1191.48
1109.34
1178.71
1101.57
941.071
878.206
887.36
960.683
872.777
947.688
957.078
793.665
803.716
781.347
889.963
741.58
860.515
838.891
570.552
426.328
425.604
825.954
693.455
540.413
545.424
483.655
450.081
515.371
663.293
622.336
567.904
619.37
486.421
525.266
532.812
620.681
626.201
627.319
635.547
1308.85
1855.29
1458.07
1769.74
1466.54
1926.97
1550.06
1046.97
1358.73
1148.07
1389.16
1224.48
1463.21
1277.04
931.978
1099.9
982.754
1187.37
1102.19
1229.84
1106.76
933.294
854.761
927.949
965.819
886.974
816.567
980.729
728.041
526.901
736.172
464.944
700.986
422.618
765.359
517.286
722.523
684.384
584.329
620.168
830.016
785.12
564.738
674.75
647.337
636.045
659.548
773.781
741.844
553.105
637.78
607.029
660.21
651.36
730.787
697.005
1445.17
1913.84
1523.44
1985.56
1566.9
2174.64
1714.88
1160.45
1427.88
1236.74
1479.29
1290.08
1603.24
1378.71
994.728
1183.72
1058.85
1240.33
1111.43
1318.01
1177.03
850.342
1023.81
929.422
1072.71
968.599
1140.88
1053.01
757.713
903.865
854.548
940.111
872.859
1029.65
977.389
708.778
842.891
814.495
855.486
813.043
963.391
924.276
670.855
802.841
767.684
800.969
765.209
908.908
861.518
623.9
752.105
707.389
752.513
711.596
843.048
791.145
1627.91
1954.54
1609.32
2371.69
1781.06
2248.74
1794.19
1358.59
1510.58
1306.49
1675.03
1520.45
1688.28
1493.45
1199.36
1262.26
1178.62
1471.82
1364.34
1453.62
1363.31
1130.68
1159.95
1102.12
1338.29
1274.73
1336.35
1248.45
1040.86
1076.03
968.427
1251.01
1168.21
1212.16
1080.94
943.661
926.437
809.589
1138.87
1060.85
1035.71
929.388
857.078
779.626
724.221
1037.4
978.369
906.443
866.655
802.2
714.675
696.875
960.631
921.801
859.455
846.724
1594.36
1802.38
1512.76
2175.14
1781.82
1970.89
1683.39
1296.74
1436.5
1274.05
1681.21
1489.71
1612.17
1459.28
1171.5
1237.39
1154.54
1449.81
1355.25
1419.6
1309.89
1084.38
1126.94
944.253
1326.12
1226.41
1270.61
1120.75
915.967
862.441
671.062
1182.8
1026.79
1053.57
865.426
735.801
632.78
605.149
975.144
864.568
821.081
764.668
671.467
618.119
658.058
845.657
823.663
766.569
788.655
671.737
664.91
670.262
822.185
824.489
793.591
798.169
1512.99
1949.1
1581.52
1948.83
1669.53
2050.51
1706.01
1278.5
1497.82
1315.34
1601.59
1450.98
1626.11
1442.62
1150.43
1267.85
1142.6
1409.82
1292.31
1392.12
1253.39
914.453
1104.59
995.529
1251.07
1095
1210.97
1096.61
690.85
962.913
882.105
1032.68
873.181
1062.46
975.802
664.363
861.457
815.235
837.278
795.294
953.501
907.868
693.1
803.716
771.333
796.805
808.932
897.627
866.975
683.953
760.015
724.278
809.554
802.779
855.58
820.959
1602.94
2244.24
1759.31
2131.19
1729.41
2436.6
1882.25
1326.31
1644.39
1414.49
1641.78
1444.08
1759.39
1522.82
1144.93
1352.48
1209.6
1390.78
1250.45
1460.82
1312.04
1002.65
1173.75
1088.54
1208.94
1104.19
1276.06
1197.41
905.866
1065.63
1012
1075.14
1001.8
1175.18
1113.05
843.562
997.195
955.119
981.872
936.212
1094.81
1045.25
793.857
938.748
888.174
923.684
884.788
1026.55
966.531
737.854
868.85
814.631
870.709
828.845
945.682
890.346
1852.06
2373.33
1881.54
2935.97
2172.89
2862.69
2312.3
1595.34
1773.09
1579.16
2082.6
1988.47
2195.27
2019.78
1437.75
1539.73
1442.07
1953.49
1807.66
1983.06
1864.19
1339.67
1410.53
1309.72
1777.99
1717.51
1822.61
1695.31
1225.73
1269.45
1129.66
1698.81
1576.43
1645.72
1479.11
1114.1
1083.58
982.201
1543.79
1470.05
1430.04
1348.24
1031.24
961.323
924.842
1454.09
1380.73
1331.65
1298.5
970.589
917.885
902.789
1364.89
1325.33
1292.65
1286.42
1869.86
2048.54
1766.76
2755.39
2318.09
2429.1
2217.43
1577.39
1696.9
1544.05
2209.48
2030.67
2148.98
1998.09
1432.42
1501.63
1376.79
1987.18
1859.07
1946.23
1788.13
1284.36
1332.86
1177.32
1813.22
1665.19
1731.46
1547.53
1072.49
1110.15
920.201
1605.82
1413.97
1471.56
1260.01
918.018
875.386
820.163
1360.08
1279.24
1213.54
1171.6
883.726
822.329
844.178
1273.66
1259.14
1184.34
1212.45
881.213
848.672
849.739
1258.85
1263.53
1216.93
1217.39
1750.59
2119.59
1778.85
2383.63
2197.75
2471.9
2192.02
1532
1698.08
1509.57
2131.66
1976.09
2105.36
1904.7
1355.2
1456.69
1307.85
1921.4
1754.36
1843.95
1667.76
1151.16
1262.52
1143.34
1696.16
1515.76
1614.61
1480.27
925.763
1107.95
1017.84
1447.73
1265.11
1441.58
1338.15
845.731
995.073
951.424
1224.43
1189.34
1313.13
1276.42
860.726
942.221
912.052
1200.65
1219.94
1273.27
1241.71
851.934
900.55
863.545
1220.49
1212.57
1230.83
1195.73
1800.09
2524.04
1943.64
2553.16
2194.4
2924.98
2273.39
1507.26
1817.44
1580.06
2096.88
1885.49
2126.28
1918.78
1304.47
1518.47
1366.2
1827.86
1654.77
1858.34
1691.9
1152.48
1329.1
1251.13
1604.76
1486.49
1639.98
1579.82
1045.84
1228.41
1161.47
1454.28
1364.99
1551.92
1471.57
980.316
1141.59
1089.06
1342.21
1304.42
1442.76
1393.65
928.035
1069.24
1005.26
1292.42
1248.74
1369.09
1296.07
869.936
983.75
926.44
1234.85
1199.19
1271.2
1221.77
914.687
865.344
816.848
913.664
848.79
932.816
878.86
931.702
891.543
853.937
960.973
867.398
958.507
854.107
865.034
744.581
752.832
533.12
813.948
779.879
667.984
1006.98
1028.1
1075.52
1085.89
1013.69
1023.42
1067.96
980.774
975.242
1056.65
1003.67
997.011
943.365
1041.65
997.487
1010.83
1081.56
1030.79
1021.8
903.047
1058.94
937.236
587.844
941.901
942.165
854.676
723.15
1010.84
742.937
773.118
651.565
784.817
697.643
825.3
691.339
636.008
681.966
516.02
456.836
622.241
706.757
390.263
561.01
519.241
474.786
390.625
563.803
517.677
373.127
851.494
948.189
965.376
958.866
914.925
900.387
907.718
795.802
831.037
922.602
789.68
875.515
738.568
850.12
704.992
505.514
870.338
669.592
779.493
441.914
798.29
621.396
423.749
658.825
617.319
570.061
412.603
723.823
868.206
750.861
777.863
529.505
830.391
643.924
810.333
949.875
938.191
911.861
991.599
903.322
986.145
955.482
908.975
826.83
875.813
884.468
864.583
869.169
919.004
985.396
1014.74
1022.67
1075.03
876.59
1030.59
1033.94
918.958
569.748
905.169
914.017
690.872
858.108
974.058
994.106
1032.2
1071.15
1032.84
1030.65
995.81
1034.22
952.224
924.372
950.245
996.257
910.909
959.217
992.344
701.911
488.952
650.587
419.903
673.887
419.32
677.274
801.263
792.65
784.139
853.192
762.585
833.114
825.437
773.893
713.554
760.48
779.334
736.604
749.688
800.853
768.883
500.436
641.634
861.821
456.919
809.09
817.154
739.135
457.146
596.166
752.19
448.737
711.978
780.842
839.583
892.552
911.329
899.713
873.21
863.995
876.086
810.363
815.988
818.264
873.352
784.75
838.47
844.996
284.209
424.869
290.11
687.209
676.65
669.761
656.189
238.619
225.817
208.225
612.213
541.865
591.703
561.939
188.39
194.602
184.522
501.974
492.241
532.603
522.7
180.204
181.948
184.036
471.698
447.526
505.468
504.811
174.409
188.141
188.303
456.871
463.72
502.531
493.624
169.273
184.986
179.304
464.627
459.469
476.475
464.409
156.102
173.067
166.638
448.924
435.04
443.079
425.669
125.634
160.122
133.576
413.2
436.948
394.507
406.81
422.682
382.708
334.191
733.088
726.69
696.2
701.524
359.494
251.179
275.034
404.492
371.89
387.926
207.551
338.324
129.132
133.084
306.039
283.844
348.475
122.9
276.028
110.633
101.733
255.23
255.147
287.914
97.0251
258.464
110.581
91.2867
257.342
261.228
258.55
91.2536
270.857
115.954
96.4873
292.332
299.095
272.453
96.1649
268.438
107.023
95.2888
303.37
301.28
269.46
95.7197
248.493
99.2204
95.0437
288.576
280.863
256.39
93.3142
213.036
88.126
85.4034
257.813
250.667
221.159
81.2359
103.781
113.992
84.0856
309.778
328.646
257.446
272.665
238.836
245.185
234.725
543.674
652.87
623.116
728.905
340.352
155.499
164.293
321.623
341.954
300.361
141.537
355.749
131.593
126.331
378.2
373.614
365.648
123.765
240.377
93.9261
92.1733
292.974
262.182
259.978
84.1697
245.272
80.9938
82.856
229.783
229.747
237.069
86.7766
253.506
86.9864
93.5495
237.494
240.307
253.985
93.9111
227.371
86.8694
90.788
236.94
231.427
237.478
87.4243
192.95
76.6461
77.6317
201.972
195.044
197.685
76.2282
178.071
70.3966
73.2238
179.478
175.755
181.719
71.291
88.9067
131.05
109.493
253.365
268.756
290.989
316.168
457.56
706.347
617.572
1124.95
1093.91
1275.89
1324.02
528.583
207.633
306.865
465.528
477.412
515.748
250.644
465.807
138.888
185.723
431.266
397.248
504.551
169.736
340.902
114.394
124.531
322.904
316.412
351.39
122.124
339.363
119.255
126.228
320.378
320.049
340.938
126.303
289.632
107.159
111.426
295.356
286.906
299.552
106.903
267.601
101.587
104.086
271.258
261.86
275.663
102.211
238.915
89.7563
93.5987
239.246
233.428
246.67
90.1992
225.445
81.4159
85.8097
216.067
214.53
227.333
85.0754
115.753
153.574
117.859
323.129
343.105
342.282
360.155
495.123
440.314
381.132
1153.37
1184.45
957.579
952.741
519.434
287.055
305.173
573.52
623.898
507.114
243.483
495.081
207.404
190.094
615.576
567.29
524.035
176.205
411.152
146.141
145.103
427.858
408.869
416.436
144.562
398.944
141.023
147.859
392.102
382.781
407.299
147.132
297.092
105.926
121.568
315.798
291.114
327.139
108.054
258.982
92.8469
91.3455
260.017
258.097
259.515
91.3019
261.027
94.0858
93.8043
256.23
256.048
260.933
94.4203
253.863
92.4612
93.9048
252.988
250.403
257.194
92.0405
118.371
153.952
140.614
360.122
370.427
366.615
345.749
311.27
445.47
311.736
814.151
799.548
826.097
847.13
258.77
267.32
260.651
766.661
735.596
832.224
785.697
247.027
251.772
237.013
701.058
674.421
741.24
705.727
213.111
228.204
225.972
636.412
590.374
662.558
621.639
183.928
221.284
211.41
546.356
521.991
589.924
571.597
179.111
211.154
209.789
504.127
497.762
538.872
519.93
175.093
207.184