/*--------------------------------*- C++ -*----------------------------------*\
  =========                 |
  \\      /  F ield         | OpenFOAM: The Open Source CFD Toolbox
   \\    /   O peration     | Website:  https://openfoam.org
    \\  /    A nd           | Version:  10
     \\/     M anipulation  |
\*---------------------------------------------------------------------------*/
FoamFile
{
    format      ascii;
    class       volScalarField;
    location    "4.8";
    object      omega_0;
}
// * * * * * * * * * * * * * * * * * * * * * * * * * * * * * * * * * * * * * //

dimensions      [0 0 -1 0 0 0 0];

internalField   nonuniform List<scalar> 
12920
(
52.4141
83.52
84.9544
84.9417
84.6129
85.6925
84.173
76.7001
67.5656
61.953
56.1731
51.6307
48.244
45.8107
44.5393
43.3419
42.6244
40.9815
39.7375
37.3652
35.0116
145.739
152.878
136.276
100.967
86.3273
77.5779
74.2085
71.3579
70.0493
66.9672
62.8542
59.0417
57.1956
56.4507
56.1497
55.7731
55.3167
55.1599
54.8058
100.692
183.774
166.105
142.237
111.295
92.7691
80.9996
77.6225
72.6556
69.7324
64.8479
61.9809
59.2296
58.0667
57.1473
56.5742
55.9813
55.745
55.7818
55.913
225.254
174.283
144.121
139.405
116.092
92.4007
79.6599
74.1748
68.9236
65.6209
62.2333
60.0869
58.0626
56.7732
55.6215
54.6705
54.0081
53.7534
53.828
54.3777
330.421
199.847
190.059
153.865
116.6
97.4019
87.3041
80.2283
75.2057
71.2726
67.2981
64.4487
61.6662
59.8287
57.9763
56.1263
54.6234
53.5621
53.0773
53.1192
250.418
180.03
179.633
168.902
132.139
111.718
100.627
95.9826
87.8266
79.8291
71.5116
66.3909
63.9552
62.512
61.0792
59.2487
57.0542
54.4442
52.3189
50.9805
82.4194
149.074
163.171
151.452
125.318
112.936
101.341
93.0866
82.1849
73.1187
68.6557
67.3182
66.886
65.9959
64.0078
61.417
58.9117
55.6275
52.5961
49.5129
181.622
181.307
175.459
161.531
135.555
119.451
184.79
140.451
130.846
121.007
118.995
117.197
113.859
109.446
68.5089
62.9662
59.6802
56.5462
54.0587
49.7914
391.821
256.259
169.252
144.278
117.65
195.776
323.931
217.591
190.229
187.35
193.859
186.589
180.161
171.295
102.781
58.9614
57.5579
56.3416
55.256
51.5014
244.166
220.637
164.155
123.796
98.0609
139.046
241.869
206.262
182.155
160.267
164.629
166.892
157.915
151.66
95.5481
59.122
57.0798
56.0752
55.4176
53.332
239.928
227.528
196.247
169.923
150.475
216.004
291.983
218.116
191.229
194.42
187.448
181.559
171.525
161.389
107.547
62.6524
57.9229
55.7898
55.3458
53.8658
269.315
234.575
200.304
162.563
138.434
215.013
326.443
269.468
220.156
212.854
192.125
171.792
172.602
172.546
111.407
62.9697
57.6205
54.5075
54.0397
53.1499
299.807
233.457
208.682
175.429
146.194
126.221
181.989
147.182
141.641
136.552
124.27
119.247
118.795
116.082
69.6384
63.3378
58.8721
54.9749
53.5921
51.9005
222.245
206.007
185.192
153.961
132.983
118.056
105.715
100.141
95.487
93.3451
90.5602
87.3585
81.8992
74.6018
68.4537
63.5761
59.9132
56.4095
54.2197
51.2363
119.52
119.991
116.573
132.85
134.962
129.022
115.637
111.782
106.047
103.247
98.6081
92.8477
84.3523
75.0882
67.4731
62.0719
58.7612
56.1141
54.3513
50.9662
58.4211
66.4823
73.3096
105.291
119.922
119.741
114.198
111.051
106.598
104.099
98.4918
87.7176
76.1038
66.1858
59.6309
55.5511
53.566
52.329
51.6357
49.7375
53.9702
65.4609
91.9391
108.818
110.885
109.84
103.53
98.0658
93.9435
91.5072
86.5284
76.8629
66.7909
59.5012
55.3217
52.5027
50.0554
48.2903
47.6758
46.9113
94.3377
86.5962
94.8646
121.658
125.187
122.159
110.788
104.454
97.7781
94.7766
89.9563
81.3105
70.1059
61.4709
56.6732
53.6487
50.0118
46.7265
44.3888
43.3269
189.691
255.366
170.499
135.781
117.37
102.906
90.783
85.9989
80.8155
75.166
68.6631
63.1266
59.0925
57.6809
58.0156
58.5824
57.5789
52.9859
47.9409
44.0722
105.145
144.447
142.364
120.721
90.6101
77.691
66.4668
62.6785
57.6577
55.2074
50.9728
48.169
46.9915
47.5355
48.5134
48.4153
47.6435
45.3062
43.7959
40.3077
38.0141
42.6341
48.5365
52.7146
52.7505
51.9131
48.5724
42.1387
37.3463
35.2232
33.2318
31.5759
29.8316
28.7004
28.017
27.5481
27.2701
26.545
26.0531
24.8876
140.641
122.319
91.3377
71.1284
54.9083
49.0174
43.2173
40.7849
39.3876
39.0946
38.4894
37.2402
35.3632
33.4167
31.8884
30.8269
30.3185
29.8421
29.577
29.2381
132.074
120.829
91.7908
68.2833
52.4683
46.1902
42.4851
40.2147
37.6214
35.7325
33.8295
32.4736
31.2328
30.1822
29.4503
28.8159
28.4626
28.092
27.8266
27.8687
285.64
171.591
116.901
81.1497
58.147
49.2878
44.739
39.9879
35.6184
32.1431
30.012
28.9236
28.5007
28.3297
28.2166
27.9997
27.8748
27.68
27.3184
27.359
438.377
144.151
99.8096
73.0498
64.2211
57.1684
52.2399
46.0228
40.8776
36.1461
32.9209
31.2624
30.2821
29.8134
29.4435
29.0634
28.5992
28.0109
27.1878
26.8098
333.524
215.781
129.047
92.1729
73.0787
63.2724
54.156
49.033
43.8994
39.5761
36.5738
33.9899
32.2788
31.2402
30.3986
29.6638
28.9837
28.1114
26.9813
25.7651
213.921
184.32
144.714
97.6915
75.4847
63.9791
54.0284
46.9652
40.2831
36.3482
34.0082
33.2834
32.4986
31.8217
30.9334
30.1564
29.5356
28.455
27.514
25.547
201.526
149.321
137.102
111.671
86.0472
67.5713
66.8252
53.3784
44.3517
37.1985
35.3789
34.3511
34.1472
33.4441
30.437
30.3025
30.153
29.775
29.0745
26.7925
258.783
162.071
110.058
90.1787
72.3672
68.1573
69.3626
55.4121
43.1099
38.3822
36.308
35.1957
33.971
32.4925
30.3457
28.9616
29.4644
29.8364
30.0809
29.0815
337.428
150.96
79.949
67.4467
58.441
55.9316
55.2904
48.2605
42.343
37.2032
35.8703
35.9395
34.872
32.8214
30.1575
28.1139
28.484
28.7374
29.3988
29.4854
253.232
149.931
105.542
81.5076
68.8926
70.382
66.9532
55.6001
46.0491
37.8861
37.3018
36.34
33.9491
31.1234
28.3794
27.8004
27.7946
27.7003
27.9274
28.482
137.768
131.747
95.4423
73.8075
59.4418
64.4478
67.6514
61.457
50.5075
40.9211
36.9831
32.683
31.4069
31.5079
31.4787
30.4297
29.1354
27.7184
27.1951
27.1476
219.529
137.361
104.299
82.4279
65.8095
57.046
60.8019
53.5344
45.7883
42.6683
40.2831
38.256
37.9326
37.8697
35.3044
33.3803
31.0434
28.778
27.0646
26.0597
173.867
133.083
95.9835
75.1492
63.1403
59.1857
53.1151
49.9932
46.1178
44.4013
42.8029
41.9398
40.8704
39.485
37.0864
34.2038
31.1731
28.9792
27.1058
25.6103
151.178
144.905
108.645
91.7998
75.5901
65.9903
57.6589
54.0146
50.2409
48.221
46.3564
44.8418
43.2835
41.2406
37.6798
33.0866
29.5648
27.6785
26.5146
25.5232
179.121
131.915
92.9341
86.4049
74.8251
65.8929
59.6198
56.1012
52.8196
51.028
48.8918
46.2959
43.7646
39.6164
35.0269
30.5363
27.6186
26.0519
25.2981
24.9034
133.497
95.9016
82.3945
73.9408
66.8356
61.9903
58.7552
56.326
54.8249
53.8894
52.3791
49.369
42.8809
35.2883
30.2685
27.5136
26.0299
24.8408
24.0339
23.4843
187.215
127.79
100.774
85.4487
73.6883
68.1084
61.6782
57.3045
54.1535
54.1332
54.7408
55.3822
52.6253
40.7185
31.3007
27.8515
26.9446
25.9546
24.4031
22.7495
469.629
190.864
112.374
79.4186
64.8056
57.0589
52.53
49.1491
46.5921
45.2095
44.2701
42.1215
36.9275
32.1978
30.3108
30.3241
31.3912
32.5618
32.8008
30.18
70.3616
88.78
87.6353
70.7523
52.0379
43.0814
38.8387
37.5097
36.1261
33.8241
31.5392
29.7345
28.9777
28.5825
27.7234
26.0955
24.3007
23.2367
23.0391
22.5928
35.3533
65.099
68.0281
66.0424
61.6444
57.3356
50.7692
43.7034
38.9616
36.9425
35.295
34.0341
32.9147
32.0734
31.4205
30.631
30.1154
29.0162
28.4807
27.1978
28.4295
117.497
107.962
68.0524
49.975
43.7941
38.1447
35.7831
33.2664
32.7386
31.684
31.1115
29.9101
29.2414
28.5947
28.3346
28.1498
28.1064
28.1134
28.1699
210.508
139.976
94.2252
63.3706
47.6583
38.9305
35.1513
32.9321
30.5578
29.421
28.0596
27.4626
26.729
26.3645
26.0217
25.8707
25.7616
25.7553
25.7764
25.8846
330.605
170.309
108.235
69.7594
49.6904
40.0653
35.9971
32.4072
29.2713
27.0363
25.6922
25.1297
24.8983
24.8994
24.9034
24.9271
24.9337
24.915
24.9073
25.0204
296.156
161.147
97.7965
60.6799
50.9598
44.0663
40.423
36.1634
32.4174
29.2
27.2141
26.2496
25.7477
25.6048
25.3963
25.2594
25.0139
24.7237
24.4039
24.3585
288.083
175.597
111.036
69.0567
54.402
47.8102
41.9981
38.313
34.174
31.014
28.9124
27.7217
26.9782
26.5233
26.0317
25.5459
25.0723
24.4748
23.8402
23.3667
129.985
158.907
106.936
71.6104
55.8708
49.3521
41.7729
36.4412
32.1248
29.3561
28.3032
27.9724
27.6615
27.3095
26.7439
26.1793
25.5843
24.7511
23.9874
23.0213
114.419
119.448
109.664
79.9578
59.5508
49.5169
47.4603
38.935
33.9866
30.583
29.5603
29.2073
28.9363
28.3406
27.9444
27.4426
26.9912
26.078
25.299
23.795
335.238
130.533
86.1383
65.6978
51.5138
47.9051
47.8461
39.151
34.2998
31.7794
31.0774
30.5315
29.8515
29.0219
28.7517
28.8915
28.4315
27.7175
27.2019
25.6839
265.627
164.792
72.5702
52.3317
44.6116
42.4336
42.333
37.835
34.046
31.8137
32.7387
35.6686
36.5954
33.5009
30.1819
28.934
28.6029
28.1635
27.9973
27.293
201.728
161.831
97.7011
66.6457
53.8432
48.7681
45.6383
40.2495
35.6224
31.8232
80.5983
64.9421
35.9821
28.0493
26.5194
26.8049
26.7511
26.8426
27.1152
27.0342
164.412
133.698
88.5939
62.8228
48.9043
47.0925
47.7928
41.9908
36.9718
32.7499
30.097
28.0288
27.2319
27.0344
27.0358
26.7815
26.0554
25.7081
25.7228
25.7494
121.875
142.519
104.274
72.5348
56.1324
48.2031
46.3589
40.8893
36.0903
33.5177
31.8434
30.9486
30.6753
30.1978
29.0507
27.6433
26.2764
25.1714
24.6088
24.3011
312.674
158.735
95.3222
66.6381
54.9364
49.6219
44.2481
41.1206
38.0452
36.5649
35.211
34.3428
33.2012
31.7227
29.9445
27.9988
26.2061
24.9111
24.0136
23.5336
215.719
138.735
111.309
82.1727
66.3154
57.3639
49.7106
46.1578
42.178
39.9171
37.8345
36.0588
34.4075
32.3759
29.8315
27.1215
25.2482
24.2042
23.5503
23.2556
189.305
132.7
103.371
80.2105
66.4576
57.9156
51.4268
48.0265
44.3184
42.0303
39.3433
36.6701
34.0307
31.0054
28.1339
25.6297
24.1094
23.3161
22.8825
22.7818
166.418
101.352
85.0766
68.7088
60.2101
54.6254
50.0429
48.3623
45.8669
44.7707
42.1379
38.114
32.9149
28.3562
25.5454
23.891
22.9421
22.3096
21.8872
21.7393
117.38
128.608
116.742
92.437
74.3862
65.52
56.6923
52.8977
48.8974
48.306
47.0488
44.4187
37.4311
30.0845
25.9921
24.1721
23.3357
22.6231
21.8661
21.3216
257.128
203.171
130.911
79.3819
60.2685
51.4826
46.3267
44.0786
41.5814
40.0413
37.0532
33.6132
29.9492
27.8372
26.6905
26.3121
26.2523
26.238
26.1581
24.9365
58.0778
100.749
95.893
71.1782
54.1239
46.1158
44.4716
41.5645
39.6
36.1833
33.6896
31.5016
30.0755
28.4855
26.2034
24.1887
23.6004
23.7678
24.1432
23.3695
42.426
83.0524
78.4436
71.2768
64.7642
58.3227
50.6311
43.2181
38.9844
36.932
35.5854
34.4306
33.4139
32.5514
31.7563
30.8672
30.2528
29.1182
28.5728
27.132
132.216
153.797
105.177
65.925
54.5937
44.0774
40.6183
36.0801
34.6953
33.1822
32.7373
32.1957
32.018
31.9928
32.0576
32.2481
32.4363
32.7063
32.9176
33.1282
327.929
180.392
106.092
67.5054
52.9619
38.7114
37.0113
32.8858
31.8857
29.8963
29.4875
28.7636
28.7457
28.6464
28.7596
28.8667
29.0725
29.2524
29.3998
29.4787
293.873
180.437
117.841
71.3807
53.8359
39.4786
37.0584
32.1627
30.549
27.8072
27.4367
26.7892
26.9973
27.0365
27.3085
27.4766
27.7196
27.854
28.0096
28.1474
313.863
197.641
119.188
61.7731
52.7975
41.3253
39.8667
34.6559
32.4013
28.9563
28.2212
27.2151
27.2932
27.1831
27.2935
27.2857
27.3129
27.2775
27.2467
27.3099
387.389
237.926
148.563
74.0735
55.6833
44.5781
41.3862
36.1547
33.0129
29.8394
28.9777
28.0797
28.0186
27.7564
27.5781
27.2329
27.0193
26.6943
26.4144
26.3166
225.762
165.514
99.583
62.1657
55.04
45.9953
40.4499
34.6256
31.9159
29.2838
29.3272
28.9505
29.1256
28.8503
28.5355
27.9423
27.4391
26.8267
26.3021
25.9254
175.852
144.034
107.724
66.5355
55.0369
46.4779
42.7649
35.8765
33.0005
30.9902
30.6216
30.6789
30.3978
30.1181
31.1704
29.9894
29.0984
28.0968
27.3283
26.5252
225.235
114.25
80.3031
56.4217
48.3727
44.2103
43.8052
36.3331
34.0859
33.2603
33.0531
32.8773
32.3553
31.9262
32.6217
32.9261
31.4833
30.1048
29.2196
27.9775
206.519
138.503
71.814
52.1108
43.2212
40.8216
41.1849
37.0513
34.8311
34.1572
35.5103
37.9075
37.8953
35.6725
34.766
33.8521
32.5786
31.4762
30.8602
29.6471
165.232
147.765
103.079
64.3366
51.5435
43.4162
40.3313
37.2142
35.2672
34.3516
57.9323
50.2155
36.4691
31.9882
31.8727
31.8758
31.1867
30.8115
30.6009
29.9244
292.699
162.01
96.3964
62.7787
48.5725
43.8603
42.8933
37.9817
35.1526
32.9265
31.3746
30.4405
30.1464
30.0341
30.4936
30.1517
29.409
29.2218
29.2298
29.0105
175.822
167.953
115.143
72.3435
57.86
47.7861
44.2521
37.9862
34.6142
32.6525
31.8459
31.3842
31.1171
30.512
30.3029
29.0982
28.3331
27.8691
27.7242
27.641
255.924
158.215
101.623
66.0354
56.8444
47.7866
43.5192
39.3834
37.1496
35.5876
34.6591
33.6968
32.7233
31.3797
30.1561
28.8178
27.8246
27.1846
26.846
26.8444
254.972
161.14
126.959
84.4935
68.9667
55.8391
49.8644
44.9845
41.4245
38.5517
36.6329
34.7503
33.31
31.4936
29.816
28.1235
27.1142
26.6135
26.3393
26.4369
202.591
154.952
112.397
79.2102
68.0353
56.0399
51.405
46.214
43.0706
39.8123
37.2925
34.6538
32.7462
30.531
28.8446
27.3424
26.5278
26.144
25.9045
26.031
183.091
118.817
90.0268
66.5498
61.9759
52.5566
50.2845
46.6006
44.4035
41.5219
38.2651
34.5458
31.4588
28.8294
27.2633
26.1483
25.5458
25.2381
25.0374
25.1605
162.401
145.276
127.577
93.8861
76.5284
62.0825
55.6203
50.6088
47.6663
44.8239
41.5628
37.3204
33.1878
29.8746
27.8683
26.5884
25.8318
25.3748
25.0126
25.0652
318.842
236.301
137.434
77.4747
62.337
49.2566
47.3306
42.7611
41.1523
37.7359
35.2813
32.946
31.204
30.1685
29.2228
28.5612
28.0326
27.7565
27.5501
27.49
105.703
106.672
87.2572
60.3358
53.695
47.3537
46.5322
42.1992
39.5965
35.1506
32.8906
30.1848
28.1602
25.5577
23.9731
23.555
23.6733
23.7432
23.4759
21.3175
100.15
100.99
85.6111
72.711
63.796
54.7272
45.5168
39.804
36.8402
35.0021
33.6636
32.286
31.198
30.3069
29.5503
28.6754
27.8371
26.5766
25.7391
24.0716
210.609
152.169
130.308
68.9121
78.4856
50.7133
58.1169
43.3426
49.2022
41.7161
45.2439
41.8838
44.3263
43.268
44.9628
44.9297
46.0502
46.264
46.8365
46.632
476.418
258.924
126.314
72.9935
68.8963
42.1948
50.6829
38.3061
43.6575
37.0568
40.0707
37.0017
39.0913
37.9626
39.3979
39.1403
40.0313
39.9894
40.3272
40.0773
319.148
182.833
135.555
73.8866
74.5592
46.0236
53.1565
38.7006
42.4829
34.9576
37.4586
34.5006
36.5507
35.6683
37.0802
36.9838
37.854
37.8998
38.343
38.2571
417.803
210.905
127.149
69.3862
71.2639
45.4111
52.6442
39.0634
42.2708
35.3451
37.5376
34.6502
36.5862
35.5543
36.8278
36.4928
37.2083
37.0401
37.3476
37.2967
254.047
220.048
184.142
82.5948
81.0138
52.3305
56.7616
42.5374
41.9945
35.9298
37.0305
35.2288
36.5156
35.8501
36.3964
36.1098
36.4112
36.1799
36.3463
36.3044
387.812
215.268
127.01
67.5944
77.9031
50.6259
49.9401
40.2465
39.5973
35.4973
37.7873
36.3611
38.2022
37.3688
37.8672
36.9951
36.9466
36.2845
36.2122
36.0301
303.65
156.827
125.826
68.4801
78.6288
59.2347
48.9384
40.4719
39.0388
36.6999
38.0301
37.688
38.5181
38.1698
41.5711
39.5929
38.5794
37.5981
37.1387
36.652
224.796
136.366
89.2086
64.2936
60.8436
52.6215
51.8588
41.8835
42.1487
42.0526
42.6063
42.5044
42.4283
42.3556
43.5686
43.0394
40.925
39.3366
38.7256
37.8616
307.757
155.77
89.519
65.0023
55.1398
48.6952
49.8955
45.9223
45.5075
44.9311
45.1428
45.56
45.6342
45.3229
45.3433
43.8134
41.8182
40.5753
40.0643
38.8844
348.715
175.411
111.629
67.1292
60.3619
46.6945
44.8522
45.7084
45.5294
44.0004
45.7046
45.4428
44.7679
44.1786
43.9696
42.1686
40.6744
40.0011
39.763
38.8287
172.538
140.412
106.8
67.2649
57.3783
48.014
46.8845
44.918
43.5661
42.0315
41.3906
41.339
41.7607
41.8584
41.8003
40.1178
38.9367
38.6482
38.593
38.0561
171.417
156.492
128.037
74.3972
71.8551
52.6576
49.462
41.6902
40.4592
38.6294
39.0025
38.4656
38.6356
38.0979
39.3674
38.1264
37.577
37.3103
37.2667
37.1436
364.876
160.054
111.578
67.8652
68.2351
49.821
50.8909
42.676
43.5556
40.4929
41.0287
39.6928
39.5872
38.5161
37.9796
37.3096
36.9232
36.5331
36.5
36.7186
610.527
207.982
135.247
81.0476
78.7452
56.7612
58.3548
48.7234
48.0339
43.0755
42.6734
40.3943
39.9365
38.4192
37.7104
36.5718
36.18
35.8534
35.869
36.3451
301.478
154.514
123.291
76.4475
78.7079
57.7261
60.0222
49.149
49.9903
43.7808
43.5578
40.2168
40.0286
38.0862
37.6782
36.5126
36.211
35.7781
35.6563
36.0781
438.556
141.704
96.7128
68.0177
72.0506
54.0816
60.3629
49.6434
52.287
44.975
44.5457
39.9283
39.529
37.2291
36.8181
35.5265
35.3043
34.8757
34.8406
35.2137
131.454
165.314
139.815
88.5262
86.1448
62.1588
65.3758
52.938
55.5313
46.6169
46.5709
41.2162
41.2216
38.915
38.3267
36.5537
36.0806
35.473
35.1731
35.359
287.218
231.955
132.976
72.6074
79.7235
52.8614
62.4171
45.8117
52.2182
42.2627
45.8596
41.3971
43.3949
41.1554
41.224
39.714
39.4605
39.0077
39.1648
39.7929
204.828
113.743
76.452
53.8933
52.6722
47.3887
45.7235
39.675
36.4139
31.5609
28.7814
25.8616
24.1679
22.8995
22.8807
22.8283
22.7859
22.354
21.1514
19.7746
32.1115
32.8056
71.5429
32.9587
33.8384
34.0597
83.4829
35.0645
72.5762
65.6758
34.595
37.0395
83.1028
67.2729
76.1813
32.6509
31.086
33.0931
86.3962
32.3932
31.5172
75.5089
30.5738
28.9026
87.4266
74.4603
31.2263
30.1848
233.278
266.015
211.856
90.5493
72.7017
72.2935
59.7225
190.653
208.021
193.767
65.1502
51.863
56.0813
48.7227
187.868
185.34
163.749
49.4049
45.0307
46.5909
42.5207
194.089
160.518
159.277
43.6218
41.5412
41.6969
40.5663
188.473
159.892
164.605
40.6999
39.4222
40.2703
39.6078
181.859
166.16
165.121
39.0022
37.9597
39.3647
38.3381
173.772
162.226
154.622
37.5589
36.1287
37.779
35.6476
149.402
152.576
130.695
35.7128
33.8742
35.1707
32.9673
208.849
222.53
185.975
64.9706
56.8857
62.8546
56.4999
191.81
182.631
172.56
54.1866
49.4523
54.5018
48.9553
161.038
172.577
183.326
47.5518
42.3811
46.9032
41.7733
162.649
186.373
187.862
41.2981
39.815
40.8832
40.0738
167.194
185.802
179.899
39.6598
39.5691
40.1913
39.9189
160.713
177.749
167.971
39.4734
38.4087
39.5084
37.9941
153.105
166.496
161.124
37.7892
35.7251
37.5021
36.0658
130.726
159.173
144.746
35.2645
33.0228
35.5887
32.275
227.651
360.111
286.241
81.5809
67.7718
87.9052
76.7749
195.339
274.422
231.971
63.5513
54.2748
73.8601
64.2347
192.931
223.516
214.329
51.4254
43.561
59.583
47.7483
191.987
212.565
197.12
42.0866
40.6312
45.6715
42.2155
182.355
188.886
175.602
40.507
39.2996
41.2083
37.2583
174.21
174.717
173.156
38.691
37.2173
36.3079
34.9254
163.038
172.214
170.989
36.8282
35.4634
34.7617
34.3314
147.307
170.628
154.932
34.8195
32.007
34.2847
33.3047
279.052
279.918
195.495
81.626
73.4864
75.9772
61.9346
229.37
197.423
212.144
71.3729
62.2976
59.443
53.5583
213.431
215.683
219.156
57.8778
47.7739
51.9256
48.6536
201.551
218.047
203.903
46.1251
42.957
48.0642
46.7791
172.872
195.191
176.216
41.8107
37.5982
46.0096
43.397
172.467
174.246
174.773
36.6006
35.2242
42.5444
41.5934
172.971
175.569
177.031
35.1103
35.1427
41.611
42.1067
154.756
178.015
162.928
35.2798
34.1495
42.2698
41.006
61.0308
59.7843
52.3734
52.0963
44.4559
45.4699
40.9884
45.1536
49.5882
43.48
41.4267
36.6085
39.5096
35.88
39.4213
41.7348
38.2108
35.4259
32.9091
34.8667
32.7668
36.8378
37.4753
36.4154
32.3883
31.72
32.3518
31.8827
35.4715
36.1908
35.7776
31.4729
30.9648
31.9105
32.4236
34.3121
35.631
34.8865
30.8299
30.2882
32.6394
32.9159
32.8282
34.4806
32.9418
30.0625
29.3378
32.8786
32.1818
31.5089
32.5438
31.2616
29.1234
28.5144
31.7222
30.2411
50.3322
54.7464
50.5103
44.135
40.4822
44.8932
41.3067
43.9655
48.8673
44.1847
39.2416
36.0693
40.1426
36.7837
38.0976
42.4459
37.909
35.0528
32.7245
35.6661
32.8766
35.9673
37.0058
36.6965
32.2648
32.123
32.7877
46.1835
35.955
37.1078
37.2834
32.5122
34.2261
48.3003
49.3935
35.2909
37.0551
35.7097
34.6979
35.3666
48.2163
42.031
33.3005
35.1446
32.9141
35.3614
33.9214
39.2578
31.5498
31.2872
32.1987
29.7793
32.8556
30.3979
29.9619
27.1655
58.6952
71.6675
66.0587
48.9542
44.0985
51.8998
47.3855
48.4574
63.9532
56.0583
42.5938
38.528
46.0674
41.4346
39.277
52.1612
42.3211
37.1162
33.4845
39.5035
34.6592
37.0907
40.5233
37.4956
32.7615
47.3902
33.621
31.7025
36.8302
36.589
33.3215
49.9537
51.0818
31.0941
29.1275
34.6152
32.5138
31.26
48.6764
37.7178
28.6099
27.5799
31.7958
31.0807
30.6673
34.6088
28.8822
27.3619
26.8866
29.4527
30.6182
30.5771
27.9512
26.4716
26.8024
26.605
63.1337
62.5879
55.2426
51.0495
46.1303
49.1756
44.3106
53.9954
53.0794
47.9713
44.8499
40.5571
42.8198
39.0384
42.367
46.4075
43.2881
38.8908
34.7309
37.87
35.3644
38.0216
42.6518
41.0215
33.8027
31.5599
34.7641
32.9876
33.5016
40.2152
37.9424
30.8231
28.8027
32.3786
30.9654
31.517
37.2762
36.5438
28.3381
27.5671
30.6624
30.2798
31.4116
36.5334
36.7997
27.4553
27.3176
30.2368
30.2214
31.4257
36.8584
36.7628
27.3094
27.085
30.1941
29.7902
41.7269
43.1427
39.2586
44.0942
37.9773
40.9285
37.5778
35.3308
37.9479
34.7707
36.3291
34.2268
36.5194
34.3022
32.1689
33.9121
32.1871
33.5863
32.4797
33.8165
33.0294
31.2878
31.8658
31.6011
32.3561
32.1614
32.9176
32.9759
30.6442
31.6958
32.5149
32.0518
31.8308
33.1729
34.1844
30.0582
32.8242
33.3292
31.7634
31.3685
34.5085
34.8955
29.2084
33.328
32.6202
31.2147
30.7797
34.8568
34.0252
28.4699
32.1143
30.6101
30.6612
30.2574
33.6553
32.8203
38.9852
42.9063
39.6777
40.7465
37.5843
40.4949
37.5128
34.9148
38.5825
35.5432
36.5872
34.4214
36.6838
34.7335
32.1612
34.5925
32.4507
33.9329
33.062
34.2262
33.3514
32.3339
31.686
31.8476
31.7908
32.0227
31.7653
31.9123
41.4019
33.4615
36.8513
33.273
38.6227
34.1538
39.1269
36.6016
61.5774
46.7186
37.571
37.9779
61.1433
44.95
34.7182
42.1277
32.0317
37.7655
35.6442
41.0679
33.5506
30.816
30.2582
27.3525
34.8137
33.1401
32.2923
30.4089
41.534
48.1655
43.9929
40.8505
37.8989
42.4688
39.0445
36.7795
42.7957
38.8848
37.1092
35.1348
38.2097
35.8277
32.8945
37.364
33.5205
34.5528
33.3332
35.0337
32.9453
41.6101
52.1979
32.726
38.151
35.7923
240.783
32.7089
46.9608
80.6492
41.2493
196.343
41.0731
182.891
47.7999
40.5104
28.4388
27.4357
62.0723
40.2625
29.8484
29.0805
29.0365
27.217
26.7411
36.5774
31.1137
28.9339
28.643
26.612
26.6514
26.4236
30.3789
29.5564
28.5831
28.422
43.1778
46.9152
42.4866
43.4423
38.9834
44.3453
39.6863
38.3209
41.0315
37.4655
38.0836
35.6243
38.292
35.2659
33.5596
36.386
34.0752
34.8288
32.7963
34.4567
32.6806
30.7352
33.4932
31.7907
32.2328
30.8286
32.2041
30.9483
28.4169
31.2512
30.0864
30.4408
29.4913
30.6324
30.0403
27.345
29.85
29.526
29.2687
28.8627
29.9211
29.6964
27.0627
29.4645
29.3736
28.7955
28.6536
29.6195
29.4085
26.8107
29.324
28.928
28.6106
28.4341
29.2754
28.8009
37.7974
41.3707
37.9643
47.7553
40.293
46.5316
42.5001
34.5877
36.9599
35.0435
39.1902
38.4562
41.6216
40.6447
33.3328
34.6787
34.1639
38.5165
38.5203
40.6492
40.6461
33.1227
34.0947
34.1619
38.4721
38.5384
40.5988
40.6088
32.9417
34.3357
35.2094
38.7607
38.9404
40.7174
41.1235
32.492
35.4642
35.7307
38.854
38.5983
41.1975
41.4907
32.0276
35.688
35.0098
38.6453
38.6996
41.502
41.3906
31.4682
34.7338
34.0279
38.6265
38.3439
41.3304
41.2872
37.991
40.4064
37.656
45.8453
42.5975
42.7711
41.7246
35.1939
36.9669
35.4486
41.8686
41.061
41.5669
41.3889
34.2259
35.0748
34.3335
41.0488
40.8227
41.2239
40.6137
34.8763
34.6823
55.7834
40.7613
40.9564
40.5229
43.5113
37.5104
57.2766
53.4519
41.229
41.9605
44.3566
44.3065
38.0992
50.8648
42.218
42.0198
42.2669
43.7997
42.4608
36.2604
39.7028
34.5431
42.2523
41.9097
42.1964
41.1994
34.3459
33.6262
32.0979
41.7917
41.5713
41
40.7168
37.8435
41.724
38.7531
42.1806
41.6795
43.2232
41.9847
35.7022
38.0475
36.0516
41.5787
41.3473
41.6405
40.5866
34.2358
35.405
33.6628
41.1275
40.3291
40.2581
39.0536
56.2988
33.1731
32.3675
40.1642
42.958
38.6917
38.0499
54.733
32.1291
31.2711
43.6897
43.54
37.9416
37.6209
38.8863
30.9907
30.4177
42.9247
41.3084
37.5436
37.916
32.5442
30.3362
30.1645
41.0796
40.3041
38.0547
38.1948
31.2833
30.1275
29.9236
40.1772
40.1328
38.2337
38.3573
38.7806
44.2692
39.5018
44.4279
41.9089
46.8901
41.6051
35.8256
38.121
35.2963
41.3871
40.0502
40.2925
38.2673
33.4285
34.5773
33.006
39.686
38.5504
37.9266
36.8874
31.6942
32.5674
31.4855
38.1772
37.4486
36.5284
36.0351
30.6159
31.24
30.8027
37.3198
37.0874
36.0175
35.8838
30.1772
30.7022
30.5039
37.0773
37.4717
35.793
35.7412
30.0679
30.4349
30.232
37.5538
37.6989
35.7666
35.6942
29.8336
30.0939
29.5838
37.7283
37.9059
35.6037
35.3833
42.8089
50.9405
46.339
69.0378
58.0061
70.4083
67.7139
41.7611
45.4977
44.8619
58.0985
62.7503
67.0179
68.4866
42.1289
44.9688
44.971
64.3163
62.95
69.1769
72.42
42.2209
44.837
44.7545
63.4248
65.867
73.3458
75.3406
42.6396
44.8399
45.0592
67.3109
66.2632
75.7486
75.2062
42.2782
45.0833
45.1532
66.6287
67.7869
74.482
71.9409
42.4404
45.124
45.0288
68.8433
68.3066
71.7944
71.7705
41.8591
44.9915
44.7978
68.7294
68.6763
71.8872
72.8955
46.5631
45.4648
45.6843
69.0027
69.2111
62.5021
69.3541
45.4286
45.7171
45.8773
68.7418
69.8922
69.8238
71.8535
45.1045
45.7078
44.7072
70.7347
75.1288
73.3739
79.2559
44.9561
44.423
45.7976
76.235
78.2815
80.4763
83.0373
45.525
46.3905
46.4416
78.6484
77.9856
83.635
82.9274
45.6887
46.1577
45.6942
77.006
73.1013
81.4028
75.1896
45.3774
45.5179
44.879
72.295
71.9581
73.4513
72.0087
45.0024
44.7753
44.3848
72.0794
72.78
72.0919
72.3302
45.6368
45.8167
45.613
61.744
69.3098
62.6621
67.5067
45.753
45.3721
44.5388
69.7735
71.5842
67.5482
68.074
44.3617
44.2798
42.9069
73.056
78.7161
68.6614
72.0508
45.1945
42.5205
41.9483
79.8503
82.1047
72.885
74.0485
45.7391
41.8776
41.7083
82.8049
82.7262
74.3634
74.3379
44.9103
41.7544
42.2769
81.1979
74.8164
73.5692
69.8594
44.2457
42.341
42.3828
73.0127
71.5239
69.063
68.9168
43.8941
42.4118
42.278
71.5677
71.8126
69.0823
69.6634
45.3507
49.6304
44.0396
63.4592
66.0961
66.1709
60.6204
43.8364
42.7716
41.2953
65.9489
66.5939
59.3534
61.4576
42.4222
41.1783
40.2062
66.8579
69.0822
62.1012
61.104
41.4562
39.8609
39.6078
69.7077
70.7696
60.5262
62.1975
41.2853
39.6628
39.4862
71.0395
71.0315
62.499
62.2798
41.7236
39.377
39.3676
70.4773
67.9919
62.158
63.3392
41.8306
39.4125
39.3116
67.8265
68.0099
63.5303
63.6754
41.8037
39.2377
38.8732
68.2005
69.2881
63.7851
63.9828
34.0325
31.7662
34.9396
32.4862
32.9413
31.943
36.7867
37.6369
32.2121
48.6063
37.7416
34.0897
32.525
183.74
52.1652
46.7636
65.4126
211.473
40.2894
62.4945
234.416
32.8681
32.1702
33.0013
33.0863
32.1972
32.3196
33.5308
34.8148
33.0802
33.2436
37.4626
32.4434
37.6668
35.0737
38.8858
38.9208
33.4516
55.7108
32.9561
192.313
36.308
53.6941
222.998
51.4335
76.9016
63.7601
244.958
44.3953
43.5518
34.2898
41.4399
35.9993
40.3098
35.1385
44.5166
72.4057
50.7941
71.9728
195.8
53.7536
67.4498
179.139
73.9812
55.1545
70.2846
97.1067
55.6834
68.6039
121.353
42.256
33.9011
35.4313
39.4538
34.8156
39.9902
41.3276
44.2845
36.6464
36.298
43.6598
35.8047
45.1047
42.8375
72.5635
206.82
54.9655
81.8846
67.8694
191.421
57.9107
73.8841
97.8128
57.3567
76.6326
68.0694
129.88
58.566
46.9619
68.9059
40.923
209.47
39.3119
225.656
48.034
32.5099
32.533
32.0208
32.1352
32.4887
32.1791
31.622
33.1894
32.8559
31.5514
30.8842
32.756
33.4113
31.2615
42.6663
39.3444
57.2348
33.2613
236.397
32.9064
37.4027
48.953
216.593
78.8634
44.6737
233.115
50.1224
42.5055
32.6801
32.0499
32.6529
32.0033
32.2263
31.6173
32.9178
33.5347
31.0343
34.0364
31.762
33.8599
31.3365
33.6347
45.0193
83.2186
39.6869
130.294
40.6221
172.597
43.8757
32.9684
32.7208
30.009
30.4568
32.3308
33.3152
29.982
32.3509
31.1444
29.431
29.0244
31.7478
31.7552
29.4839
48.6198
203.063
86.3539
44.9216
189.677
49.7003
44.5873
46.2444
122.618
85.8038
42.1577
169.105
44.8292
43.7641
33.5075
30.681
34.0222
30.899
33.7986
30.2843
33.8231
32.9088
29.4511
32.8047
30.5367
32.3228
29.855
33.3591
149.86
183.042
151.27
108.793
90.0189
109.1
94.3178
137.626
133.736
128.519
73.9851
69.17
74.0898
62.8655
122.288
124.259
121.029
64.8097
56.1002
57.3111
53.0159
119.687
120.231
120.949
51.472
50.9257
49.7119
48.2914
117.717
122.264
122.3
48.9098
46.5829
47.3137
46.7824
115.927
121.178
119.299
45.6032
45.4852
46.4657
46.1302
111.311
117.211
115.005
44.9956
44.5175
45.7679
44.9262
99.8678
112.73
102.949
43.9423
37.1354
44.2251
37.0699
183.013
174.325
162.753
102.904
97.3517
99.4331
85.5791
144.184
281.718
295.106
173.241
159.906
165.598
256.077
94.1774
202.332
205.457
111.665
106.048
99.677
197.371
77.0453
187.552
179.522
95.4577
91.9913
78.5983
175.374
72.2104
187.605
170.196
83.5872
81.5492
72.6573
170.199
69.588
191.874
175.031
74.9984
71.3995
69.8526
174.725
67.8409
184.357
173.976
65.7031
64.7788
68.2232
174.39
65.565
177.507
173.717
63.1683
62.1651
66.3415
172.119
60.3779
167.233
164.592
59.3264
57.9759
61.6342
160.507
90.7298
95.0899
81.6683
37.0583
31.9983
36.8522
30.3585
137.591
139.43
136.371
77.7892
69.1349
76.958
68.5865
106.64
221.908
228.169
127.344
112.712
124.033
211.63
83.4222
204.185
199.933
85.2032
83.4995
83.5389
197.804
75.1255
172.096
170.41
79.1645
75.6315
79.2544
163.148
66.5916
160.352
162.31
68.8126
68.0268
67.3331
166.183
67.9763
166.217
172.355
67.4453
67.5239
67.6612
172.653
67.3587
166.023
169.631
67.6642
67.0294
67.8806
166.436
60.9945
155.992
156.961
63.6504
61.6706
63.0482
155.581
58.29
149.456
152.459
57.9056
57.2458
58.2971
150.415
83.9813
101.989
93.1941
36.9166
30.7387
36.9553
31.1721
190.884
237.388
221.607
121.335
97.7608
125.038
103.658
148
257.199
312.695
168.551
139.08
172.338
282.396
101.479
209.932
242.62
100.764
93.5981
108.907
231.543
78.8023
190.565
198.552
79.0932
75.6195
83.2311
196.864
72.5899
194.605
200.247
70.8825
70.5155
73.0791
200.271
69.6892
184.392
187.827
69.9916
69.0513
70.8586
184.142
64.7834
179.501
181.805
65.8902
64.9535
65.5793
180.085
63.1377
168.712
172.293
62.933
62.7291
63.2647
169.123
60.0887
160.776
165.046
62.2163
60.6268
60.8079
164.328
95.8006
110.355
96.6389
37.0745
31.3852
38.4982
33.6849
198.172
186.459
173.73
107.319
93.9173
99.2055
86.1274
146.358
301.75
310.989
173.433
147.716
174.649
277.637
104.896
255.633
244.917
115.876
109.988
110.052
235.595
86.2471
215.233
214.53
94.3467
89.5069
90.136
214.256
80.2835
211.563
216.747
79.9062
78.4772
81.0926
216.162
72.2966
182.894
195.809
72.9297
70.5203
74.9132
184.6
64.1578
171.688
170.212
64.0675
63.0571
65.3821
170.205
63.1798
172.834
172.582
61.9072
61.8323
63.1538
173.143
64.2021
171.232
172.554
61.9249
61.9483
63.9846
170.817
96.8413
110.41
105.571
41.7121
37.7402
48.8382
48.6323
157.083
187.807
157.071
105.108
83.951
106.022
82.4466
143.345
145.555
143.828
71.9563
65.2184
70.7363
65.7782
140.042
141.344
137.123
61.1083
59.145
62.1586
58.6855
129.931
134.582
133.955
57.7268
56.1659
58.0706
58.8084
120.775
132.508
129.553
54.7063
52.6606
58.5864
57.7065
119.23
129.431