/*--------------------------------*- C++ -*----------------------------------*\
  =========                 |
  \\      /  F ield         | OpenFOAM: The Open Source CFD Toolbox
   \\    /   O peration     | Website:  https://openfoam.org
    \\  /    A nd           | Version:  10
     \\/     M anipulation  |
\*---------------------------------------------------------------------------*/
FoamFile
{
    format      ascii;
    class       volScalarField;
    location    "4.8";
    object      p;
}
// * * * * * * * * * * * * * * * * * * * * * * * * * * * * * * * * * * * * * //

dimensions      [0 2 -2 0 0 0 0];

internalField   nonuniform List<scalar> 
12920
(
-1.6129e+06
-1.68629e+06
-1.64604e+06
-1.53228e+06
-1.45404e+06
-1.33395e+06
-1.24581e+06
-1.14109e+06
-1.05012e+06
-951966
-860742
-766736
-676685
-586151
-497832
-409624
-322730
-236680
-152107
-60766.6
-2.01354e+06
-1.76115e+06
-1.67064e+06
-1.5421e+06
-1.45261e+06
-1.3336e+06
-1.24258e+06
-1.13835e+06
-1.04688e+06
-949501
-858299
-764927
-675282
-585007
-496951
-408919
-322152
-236096
-151617
-60503
-1.58494e+06
-1.65202e+06
-1.64804e+06
-1.51527e+06
-1.4522e+06
-1.32584e+06
-1.24415e+06
-1.13661e+06
-1.04675e+06
-948121
-857409
-763683
-673868
-583533
-495465
-407549
-320929
-235107
-150880
-60145.8
-2.09403e+06
-1.77004e+06
-1.7042e+06
-1.54549e+06
-1.45148e+06
-1.33096e+06
-1.23519e+06
-1.13111e+06
-1.03849e+06
-941997
-851078
-758592
-669486
-580024
-492579
-405334
-319193
-233803
-149952
-59629
-1.8719e+06
-1.788e+06
-1.67656e+06
-1.52321e+06
-1.44593e+06
-1.31375e+06
-1.23206e+06
-1.12415e+06
-1.03524e+06
-938305
-847850
-754861
-665893
-576598
-489475
-402698
-317033
-232159
-148849
-59124.4
-2.07373e+06
-1.83609e+06
-1.71816e+06
-1.53702e+06
-1.43966e+06
-1.31372e+06
-1.21698e+06
-1.11352e+06
-1.02185e+06
-926510
-837471
-746967
-658771
-571201
-484951
-399155
-314257
-230238
-147592
-58587.3
-1.90992e+06
-1.7782e+06
-1.67383e+06
-1.4998e+06
-1.4189e+06
-1.29701e+06
-1.2091e+06
-1.10464e+06
-1.01497e+06
-919360
-829873
-739538
-652651
-565467
-479859
-394923
-311006
-228012
-146183
-57909.2
-1.79837e+06
-1.70916e+06
-1.63428e+06
-1.48189e+06
-1.39411e+06
-1.28205e+06
-1.21376e+06
-1.1168e+06
-1.02365e+06
-931582
-841431
-752592
-665789
-579757
-473311
-389863
-307384
-225626
-144677
-57165.1
-1.67793e+06
-1.65426e+06
-1.57315e+06
-1.44472e+06
-1.38075e+06
-1.29512e+06
-1.21634e+06
-1.11806e+06
-1.02528e+06
-933606
-843775
-756734
-670382
-584444
-486224
-384590
-303377
-223079
-143073
-56392.6
-1.88931e+06
-1.63131e+06
-1.50131e+06
-1.3982e+06
-1.3338e+06
-1.26857e+06
-1.19695e+06
-1.10364e+06
-1.01241e+06
-921394
-834560
-748770
-663381
-578310
-481739
-379410
-299694
-220531
-141537
-55638
-1.40279e+06
-1.44662e+06
-1.4765e+06
-1.3742e+06
-1.31598e+06
-1.24569e+06
-1.17539e+06
-1.08609e+06
-997424
-910192
-824391
-740147
-656319
-571971
-476469
-375690
-296712
-218263
-140143
-54805.8
-1.4835e+06
-1.4364e+06
-1.42143e+06
-1.32066e+06
-1.26628e+06
-1.21189e+06
-1.15026e+06
-1.06635e+06
-981927
-898891
-814639
-732200
-649412
-566458
-472320
-373710
-294669
-216569
-138947
-54115.1
-1.65626e+06
-1.4704e+06
-1.41768e+06
-1.30949e+06
-1.25212e+06
-1.16624e+06
-1.11711e+06
-1.03561e+06
-955995
-875392
-794786
-713839
-632876
-551786
-450965
-371796
-293153
-215193
-138047
-53568.5
-1.65378e+06
-1.42209e+06
-1.39513e+06
-1.2756e+06
-1.22248e+06
-1.14007e+06
-1.07303e+06
-992816
-920385
-841156
-764966
-685428
-607226
-527660
-448957
-370181
-291907
-214149
-137374
-53146.6
-1.44113e+06
-1.37056e+06
-1.34899e+06
-1.25434e+06
-1.20785e+06
-1.12534e+06
-1.06228e+06
-983359
-910370
-834256
-758524
-680519
-602991
-524785
-446786
-368553
-290777
-213261
-136771
-52629
-1.33425e+06
-1.32831e+06
-1.33524e+06
-1.23813e+06
-1.18511e+06
-1.10448e+06
-1.04359e+06
-967916
-898975
-824130
-751442
-674951
-598893
-521383
-444502
-366888
-289592
-212374
-136146
-52182.6
-1.68721e+06
-1.37492e+06
-1.35033e+06
-1.23808e+06
-1.1904e+06
-1.10356e+06
-1.04203e+06
-963852
-894993
-819734
-747469
-670892
-595587
-518714
-442485
-365377
-288501
-211571
-135553
-51871.7
-1.70057e+06
-1.4503e+06
-1.37011e+06
-1.23873e+06
-1.17657e+06
-1.09493e+06
-1.03172e+06
-956028
-888150
-812811
-741344
-665712
-591999
-515681
-439938
-363608
-287268
-210703
-135051
-51624.9
-1.45724e+06
-1.35828e+06
-1.30304e+06
-1.2024e+06
-1.16816e+06
-1.08806e+06
-1.03032e+06
-954139
-886841
-810921
-739546
-663707
-590103
-514073
-438952
-362701
-286674
-210442
-134923
-51519.6
-1.48389e+06
-1.29996e+06
-1.31348e+06
-1.21306e+06
-1.16668e+06
-1.0875e+06
-1.02736e+06
-951374
-884463
-808983
-738183
-662417
-589035
-513167
-438243
-362173
-286321
-210190
-134966
-51370.5
-1.74868e+06
-1.69334e+06
-1.64978e+06
-1.53269e+06
-1.45427e+06
-1.33414e+06
-1.24593e+06
-1.14117e+06
-1.05025e+06
-951996
-860731
-766713
-676687
-586149
-497827
-409621
-322726
-236676
-152079
-60724.2
-2.20845e+06
-1.7759e+06
-1.67856e+06
-1.54414e+06
-1.45332e+06
-1.33383e+06
-1.24276e+06
-1.13849e+06
-1.04699e+06
-949541
-858407
-764940
-675300
-585009
-496947
-408876
-322103
-236092
-151612
-60474
-1.71209e+06
-1.66541e+06
-1.65281e+06
-1.51438e+06
-1.45215e+06
-1.32554e+06
-1.24402e+06
-1.13625e+06
-1.04665e+06
-948060
-857416
-763671
-673866
-583531
-495465
-407546
-320918
-235085
-150844
-60055.9
-2.13245e+06
-1.77261e+06
-1.70404e+06
-1.54174e+06
-1.45167e+06
-1.3306e+06
-1.23506e+06
-1.13097e+06
-1.03843e+06
-942025
-851122
-758609
-669485
-580028
-492593
-405339
-319180
-233768
-149894
-59560.8
-2.06784e+06
-1.79625e+06
-1.68321e+06
-1.52346e+06
-1.44555e+06
-1.31296e+06
-1.23184e+06
-1.1241e+06
-1.03522e+06
-938170
-847717
-754763
-665886
-576600
-489497
-402693
-317017
-232139
-148799
-59039.9
-2.18374e+06
-1.84672e+06
-1.71184e+06
-1.53354e+06
-1.43867e+06
-1.31332e+06
-1.217e+06
-1.11316e+06
-1.02175e+06
-926537
-837256
-746894
-658757
-571178
-484923
-399145
-314253
-230236
-147549
-58483
-2.0761e+06
-1.79404e+06
-1.67326e+06
-1.50028e+06
-1.41997e+06
-1.29691e+06
-1.20896e+06
-1.10448e+06
-1.01476e+06
-919393
-829875
-739518
-652584
-565426
-479800
-394917
-311032
-228036
-146159
-57816.7
-1.9762e+06
-1.71701e+06
-1.6349e+06
-1.48033e+06
-1.39365e+06
-1.28202e+06
-1.21433e+06
-1.11675e+06
-1.02365e+06
-931614
-841285
-752522
-665672
-579610
-473043
-389833
-307394
-225661
-144665
-57094.5
-1.5983e+06
-1.64898e+06
-1.57367e+06
-1.44673e+06
-1.38084e+06
-1.29488e+06
-1.21701e+06
-1.11803e+06
-1.02516e+06
-933155
-843592
-756568
-670219
-584221
-485627
-384404
-303381
-223081
-143045
-56305
-1.81126e+06
-1.62205e+06
-1.50345e+06
-1.39742e+06
-1.33412e+06
-1.26879e+06
-1.19755e+06
-1.10348e+06
-1.01212e+06
-921613
-834458
-748559
-663345
-578234
-481190
-379250
-299675
-220515
-141502
-55591.9
-1.58156e+06
-1.45064e+06
-1.48019e+06
-1.37545e+06
-1.31675e+06
-1.24632e+06
-1.17599e+06
-1.08582e+06
-997079
-909866
-824058
-740039
-656285
-571916
-475747
-375476
-296671
-218242
-140088
-54765.7
-1.53032e+06
-1.43785e+06
-1.42907e+06
-1.32314e+06
-1.26743e+06
-1.21275e+06
-1.15018e+06
-1.06621e+06
-981954
-898591
-814529
-732093
-649452
-566332
-471559
-373444
-294646
-216530
-138886
-54079.2
-1.67122e+06
-1.47131e+06
-1.42198e+06
-1.31052e+06
-1.25207e+06
-1.16659e+06
-1.11821e+06
-1.03603e+06
-956285
-875552
-794939
-713961
-632927
-551678
-450606
-371733
-293146
-215166
-137980
-53504.5
-1.6198e+06
-1.42346e+06
-1.39132e+06
-1.2759e+06
-1.22208e+06
-1.14076e+06
-1.07305e+06
-992713
-920234
-841242
-764910
-685502
-607209
-527633
-448891
-370151
-291885
-214128
-137298
-53015
-1.41748e+06
-1.36447e+06
-1.34838e+06
-1.25524e+06
-1.20861e+06
-1.12568e+06
-1.06216e+06
-983388
-910462
-834106
-758409
-680545
-603005
-524767
-446745
-368531
-290751
-213231
-136680
-52513.3
-1.36324e+06
-1.33458e+06
-1.33977e+06
-1.23863e+06
-1.18583e+06
-1.10546e+06
-1.04352e+06
-968165
-899269
-824435
-751674
-674887
-598890
-521364
-444463
-366870
-289578
-212350
-136018
-52089.9
-1.47606e+06
-1.34904e+06
-1.34732e+06
-1.23797e+06
-1.19079e+06
-1.10327e+06
-1.04249e+06
-964169
-895316
-819928
-747493
-670880
-595545
-518671
-442473
-365381
-288512
-211560
-135457
-51778.6
-1.64553e+06
-1.43418e+06
-1.37136e+06
-1.23887e+06
-1.17662e+06
-1.09492e+06
-1.03161e+06
-956047
-887901
-812808
-741365
-665910
-591981
-515698
-440001
-363591
-287198
-210636
-134949
-51547.9
-1.42766e+06
-1.34818e+06
-1.29792e+06
-1.20287e+06
-1.16793e+06
-1.08793e+06
-1.03047e+06
-954070
-886879
-810890
-739580
-663689
-590086
-514053
-438991
-362733
-286653
-210411
-134856
-51421.6
-1.45134e+06
-1.27368e+06
-1.31074e+06
-1.21051e+06
-1.16615e+06
-1.08742e+06
-1.02735e+06
-951211
-884508
-808933
-738238
-662431
-589025
-513193
-438248
-362180
-286317
-210191
-134900
-51276.2
-1.8015e+06
-1.71539e+06
-1.65675e+06
-1.53459e+06
-1.45466e+06
-1.33431e+06
-1.24604e+06
-1.1412e+06
-1.05022e+06
-951972
-860715
-766691
-676688
-586148
-497832
-409618
-322724
-236661
-152021
-60639.3
-2.2465e+06
-1.80805e+06
-1.67208e+06
-1.54441e+06
-1.45382e+06
-1.33408e+06
-1.24292e+06
-1.1386e+06
-1.04716e+06
-949536
-858457
-764955
-675322
-585011
-496940
-408851
-322076
-236061
-151558
-60368.3
-1.75234e+06
-1.66329e+06
-1.65267e+06
-1.51252e+06
-1.45216e+06
-1.32481e+06
-1.24359e+06
-1.13563e+06
-1.04653e+06
-947953
-857386
-763616
-673853
-583520
-495465
-407547
-320909
-235040
-150738
-59855.2
-2.01596e+06
-1.75822e+06
-1.69776e+06
-1.53849e+06
-1.45174e+06
-1.33001e+06
-1.23498e+06
-1.1308e+06
-1.03834e+06
-942091
-851163
-758651
-669494
-580045
-492614
-405344
-319161
-233721
-149794
-59392.3
-2.02783e+06
-1.78725e+06
-1.68359e+06
-1.52302e+06
-1.44433e+06
-1.31194e+06
-1.23148e+06
-1.12382e+06
-1.03508e+06
-937945
-847584
-754683
-665850
-576584
-489502
-402693
-317007
-232105
-148705
-58863.4
-2.20132e+06
-1.85447e+06
-1.71078e+06
-1.53183e+06
-1.43796e+06
-1.31311e+06
-1.21701e+06
-1.11295e+06
-1.02157e+06
-926510
-837130
-746857
-658743
-571155
-484889
-399131
-314241
-230206
-147458
-58293.3
-2.18228e+06
-1.81749e+06
-1.67445e+06
-1.50063e+06
-1.42131e+06
-1.29685e+06
-1.20845e+06
-1.10421e+06
-1.01462e+06
-919273
-829774
-739366
-652492
-565394
-479749
-394917
-311047
-228043
-146097
-57649.4
-1.97827e+06
-1.74657e+06
-1.63146e+06
-1.4787e+06
-1.39383e+06
-1.28236e+06
-1.21543e+06
-1.11661e+06
-1.02356e+06
-931133
-841047
-752429
-665527
-579408
-472880
-389822
-307429
-225713
-144648
-56942.6
-1.55713e+06
-1.63455e+06
-1.56972e+06
-1.44787e+06
-1.38137e+06
-1.2942e+06
-1.21761e+06
-1.11793e+06
-1.02488e+06
-932509
-843373
-756304
-669974
-583912
-484994
-384268
-303411
-223086
-142908
-56118.3
-1.76811e+06
-1.59475e+06
-1.50301e+06
-1.39822e+06
-1.33411e+06
-1.26917e+06
-1.19789e+06
-1.10323e+06
-1.01156e+06
-921706
-834328
-748329
-663312
-578091
-480554
-379107
-299639
-220468
-141393
-55397.8
-1.38461e+06
-1.45727e+06
-1.4738e+06
-1.37446e+06
-1.31629e+06
-1.24626e+06
-1.17619e+06
-1.08541e+06
-996706
-906602
-823440
-739964
-656351
-571767
-474947
-375295
-296598
-218159
-140015
-54625.2
-1.64483e+06
-1.46742e+06
-1.4364e+06
-1.32664e+06
-1.26888e+06
-1.21341e+06
-1.15012e+06
-1.06572e+06
-981779
-898168
-814546
-731956
-649399
-566092
-470684
-373208
-294571
-216466
-138774
-53936.1
-1.65825e+06
-1.47888e+06
-1.42031e+06
-1.31144e+06
-1.25157e+06
-1.16709e+06
-1.11957e+06
-1.0366e+06
-956518
-875670
-795053
-714107
-632994
-551496
-450346
-371649
-293117
-215124
-137842
-53369
-1.658e+06
-1.40867e+06
-1.38521e+06
-1.27578e+06
-1.22139e+06
-1.14122e+06
-1.07305e+06
-992908
-920177
-841268
-764819
-685509
-607159
-527545
-448810
-370128
-291867
-214071
-137056
-52748.1
-1.38162e+06
-1.34755e+06
-1.34958e+06
-1.25652e+06
-1.20946e+06
-1.12609e+06
-1.06202e+06
-983317
-910414
-833862
-758183
-680499
-602961
-524678
-446690
-368513
-290719
-213152
-136421
-52285.4
-1.43537e+06
-1.331e+06
-1.34509e+06
-1.24115e+06
-1.18662e+06
-1.10622e+06
-1.04364e+06
-968387
-899579
-824551
-751621
-674741
-598823
-521305
-444431
-366879
-289573
-212310
-135807
-51886.5
-1.55419e+06
-1.33786e+06
-1.3524e+06
-1.23737e+06
-1.19036e+06
-1.10328e+06
-1.0426e+06
-964302
-895500
-820027
-747472
-670784
-595504
-518671
-442452
-365399
-288547
-211542
-135298
-51600.6
-1.62123e+06
-1.4176e+06
-1.37344e+06
-1.23971e+06
-1.17668e+06
-1.09458e+06
-1.03135e+06
-956020
-887794
-812893
-741429
-666126
-592029
-515793
-440075
-363551
-287096
-210538
-134783
-51388.2
-1.37077e+06
-1.33818e+06
-1.29495e+06
-1.20438e+06
-1.1674e+06
-1.08801e+06
-1.0304e+06
-953919
-886828
-810809
-739569
-663647
-590059
-514029
-438995
-362729
-286590
-210344
-134746
-51299.3
-1.0957e+06
-1.23067e+06
-1.29887e+06
-1.20873e+06
-1.16525e+06
-1.08725e+06
-1.0273e+06
-951018
-884398
-808857
-738190
-662401
-588990
-513171
-438272
-362113
-286226
-210118
-134818
-51184.2
-1.96798e+06
-1.75287e+06
-1.66261e+06
-1.53629e+06
-1.45524e+06
-1.33456e+06
-1.24628e+06
-1.14124e+06
-1.05026e+06
-951950
-860720
-766682
-676704
-586170
-497853
-409634
-322725
-236644
-151958
-60517.9
-2.35521e+06
-1.85204e+06
-1.69445e+06
-1.55065e+06
-1.45519e+06
-1.33485e+06
-1.24317e+06
-1.1386e+06
-1.04724e+06
-949518
-858517
-764997
-675335
-584987
-496910
-408832
-322051
-235997
-151434
-60080.4
-1.60294e+06
-1.65342e+06
-1.65293e+06
-1.51249e+06
-1.45258e+06
-1.32378e+06
-1.24314e+06
-1.13517e+06
-1.04638e+06
-947897
-857318
-763585
-673830
-583518
-495457
-407550
-320893
-234979
-150586
-59507.6
-2.0416e+06
-1.74594e+06
-1.6982e+06
-1.53725e+06
-1.45214e+06
-1.3292e+06
-1.2348e+06
-1.13066e+06
-1.03826e+06
-942086
-851168
-758662
-669507
-580084
-492632
-405361
-319146
-233668
-149674
-59037.8
-1.91855e+06
-1.78645e+06
-1.68615e+06
-1.52586e+06
-1.44361e+06
-1.31143e+06
-1.23093e+06
-1.12335e+06
-1.03485e+06
-937771
-847467
-754677
-665803
-576581
-489506
-402709
-317001
-232065
-148589
-58510
-2.20285e+06
-1.86161e+06
-1.71395e+06
-1.53223e+06
-1.43719e+06
-1.31304e+06
-1.21687e+06
-1.11284e+06
-1.02147e+06
-926576
-837123
-746856
-658754
-571151
-484876
-399144
-314246
-230172
-147344
-57937.7
-2.27773e+06
-1.83293e+06
-1.67528e+06
-1.50103e+06
-1.42165e+06
-1.29666e+06
-1.20789e+06
-1.10395e+06
-1.01431e+06
-919016
-829660
-739224
-652391
-565330
-479711
-394957
-311094
-228057
-146033
-57369.9
-1.94685e+06
-1.7567e+06
-1.62495e+06
-1.47758e+06
-1.39451e+06
-1.28243e+06
-1.21649e+06
-1.11647e+06
-1.02366e+06
-930619
-840807
-752180
-665386
-579286
-472788
-389880
-307518
-225774
-144618
-56664.3
-1.61307e+06
-1.64073e+06
-1.56824e+06
-1.45106e+06
-1.38216e+06
-1.29355e+06
-1.21791e+06
-1.11787e+06
-1.02427e+06
-932079
-843054
-756013
-669783
-583690
-484661
-384149
-303454
-222988
-142742
-55853.9
-1.77853e+06
-1.57739e+06
-1.50585e+06
-1.40052e+06
-1.33483e+06
-1.2694e+06
-1.19796e+06
-1.10295e+06
-1.01131e+06
-921742
-834120
-748206
-663276
-577823
-480106
-378961
-299602
-220451
-141267
-55041.1
-1.59942e+06
-1.48758e+06
-1.47381e+06
-1.37502e+06
-1.31586e+06
-1.24595e+06
-1.1759e+06
-1.08486e+06
-996571
-908143
-823274
-740099
-656246
-571498
-474546
-375112
-296501
-218052
-139878
-54359
-1.7991e+06
-1.47578e+06
-1.4418e+06
-1.32957e+06
-1.27021e+06
-1.21437e+06
-1.15057e+06
-1.06558e+06
-981551
-898020
-814527
-731892
-649329
-565881
-470322
-372996
-294508
-216361
-138665
-53675.8
-1.71106e+06
-1.49172e+06
-1.4208e+06
-1.31261e+06
-1.25146e+06
-1.16771e+06
-1.12026e+06
-1.03667e+06
-956630
-875732
-795089
-714178
-633041
-551378
-450120
-371600
-293086
-215059
-137677
-52954.9
-1.36524e+06
-1.37325e+06
-1.37648e+06
-1.27679e+06
-1.22106e+06
-1.14173e+06
-1.07282e+06
-993148
-920133
-841289
-764789
-685539
-607132
-527510
-448768
-370111
-291842
-213983
-136792
-52338.4
-1.41388e+06
-1.33201e+06
-1.35225e+06
-1.25955e+06
-1.20983e+06
-1.1265e+06
-1.06167e+06
-983260
-910322
-833702
-758002
-680473
-602946
-524642
-446647
-368499
-290667
-213038
-136148
-51924.3
-1.55871e+06
-1.34436e+06
-1.34888e+06
-1.24321e+06
-1.18743e+06
-1.10651e+06
-1.04361e+06
-968511
-899683
-824532
-751541
-674708
-598792
-521260
-444416
-366891
-289583
-212254
-135598
-51539.3
-1.40977e+06
-1.30489e+06
-1.3496e+06
-1.23569e+06
-1.19005e+06
-1.10396e+06
-1.04252e+06
-964462
-895495
-820085
-747360
-670765
-595465
-518633
-442457
-365448
-288557
-211490
-135106
-51232.6
-1.66756e+06
-1.3978e+06
-1.37825e+06
-1.2423e+06
-1.17742e+06
-1.0949e+06
-1.03115e+06
-955935
-887751
-813140
-741575
-666280
-592094
-515855
-440083
-363505
-287019
-210445
-134598
-51015.1
-1.38415e+06
-1.32007e+06
-1.29381e+06
-1.20575e+06
-1.16656e+06
-1.08831e+06
-1.0301e+06
-953896
-886665
-810793
-739540
-663618
-589969
-513985
-439025
-362733
-286573
-210266
-134597
-51033.3
-963775
-1.20526e+06
-1.2962e+06
-1.2073e+06
-1.16447e+06
-1.08667e+06
-1.02705e+06
-950844
-884309
-808749
-738125
-662383
-588991
-513127
-438234
-362108
-286195
-210069
-134685
-51055.2
-1.95148e+06
-1.7661e+06
-1.66642e+06
-1.53723e+06
-1.45567e+06
-1.33456e+06
-1.24644e+06
-1.14121e+06
-1.05031e+06
-951896
-860705
-766662
-676726
-586195
-497898
-409653
-322725
-236640
-151928
-60427.5
-2.34845e+06
-1.84263e+06
-1.69752e+06
-1.55136e+06
-1.45562e+06
-1.33485e+06
-1.24329e+06
-1.13846e+06
-1.04726e+06
-949481
-858539
-765015
-675332
-584979
-496875
-408830
-322010
-235927
-151356
-59876.6
-1.52059e+06
-1.64332e+06
-1.64988e+06
-1.51319e+06
-1.45289e+06
-1.32299e+06
-1.24265e+06
-1.13463e+06
-1.0462e+06
-947815
-857213
-763614
-673790
-583506
-495437
-407548
-320869
-234925
-150509
-59202.7
-1.97202e+06
-1.74071e+06
-1.69634e+06
-1.53535e+06
-1.45199e+06
-1.32783e+06
-1.23452e+06
-1.13052e+06
-1.03817e+06
-941993
-851054
-758661
-669525
-580114
-492646
-405376
-319125
-233619
-149605
-58702.3
-1.93537e+06
-1.78591e+06
-1.68175e+06
-1.5275e+06
-1.44306e+06
-1.31109e+06
-1.23017e+06
-1.12279e+06
-1.03464e+06
-937627
-847386
-754753
-665739
-576596
-489491
-402718
-316992
-232027
-148526
-58180
-2.24352e+06
-1.86902e+06
-1.71438e+06
-1.53259e+06
-1.43665e+06
-1.31313e+06
-1.21671e+06
-1.11296e+06
-1.02143e+06
-926780
-837131
-746812
-658781
-571156
-484884
-399164
-314251
-230140
-147292
-57613.2
-2.05204e+06
-1.82605e+06
-1.66905e+06
-1.49978e+06
-1.42134e+06
-1.29646e+06
-1.20747e+06
-1.10369e+06
-1.01395e+06
-918606
-829557
-739066
-652299
-565243
-479672
-394993
-311136
-228056
-146020
-57087
-2.09608e+06
-1.77601e+06
-1.61893e+06
-1.47762e+06
-1.39593e+06
-1.28226e+06
-1.21673e+06
-1.1164e+06
-1.0236e+06
-930124
-840688
-751956
-665232
-579194
-472753
-389929
-307575
-225738
-144579
-56423.7
-1.71648e+06
-1.64214e+06
-1.56779e+06
-1.45122e+06
-1.38384e+06
-1.2931e+06
-1.21787e+06
-1.11766e+06
-1.02388e+06
-931937
-842932
-755808
-669629
-583592
-484591
-384105
-303406
-222917
-142660
-55618.8
-1.82297e+06
-1.5703e+06
-1.50381e+06
-1.40268e+06
-1.33509e+06
-1.26942e+06
-1.19781e+06
-1.10277e+06
-1.01127e+06
-921773
-834039
-748252
-663236
-577599
-479923
-378912
-299583
-220399
-141146
-54760.3
-1.45433e+06
-1.4836e+06
-1.46852e+06
-1.37456e+06
-1.31529e+06
-1.24494e+06
-1.17499e+06
-1.08439e+06
-996572
-909666
-823759
-739903
-656094
-571273
-474482
-375045
-296457
-218000
-139805
-54039
-1.80994e+06
-1.4938e+06
-1.45126e+06
-1.33201e+06
-1.2712e+06
-1.21564e+06
-1.15083e+06
-1.06561e+06
-981454
-897990
-814563
-731910
-649294
-565754
-470456
-372880
-294480
-216296
-138598
-53343.5
-1.85404e+06
-1.50668e+06
-1.42372e+06
-1.31332e+06
-1.25164e+06
-1.16811e+06
-1.12016e+06
-1.03653e+06
-956603
-875687
-795156
-714011
-633025
-551378
-450105
-371585
-293052
-214980
-137540
-52627.3
-1.38694e+06
-1.35647e+06
-1.37545e+06
-1.27729e+06
-1.22106e+06
-1.14237e+06
-1.0725e+06
-993330
-920105
-841374
-764847
-685588
-607150
-527479
-448747
-370093
-291807
-213869
-136600
-52034.2
-1.40897e+06
-1.29162e+06
-1.35652e+06
-1.26068e+06
-1.20867e+06
-1.12662e+06
-1.06091e+06
-983176
-910194
-833636
-757881
-680445
-602904
-524596
-446609
-368479
-290617
-212906
-135956
-51632.3
-1.61585e+06
-1.34968e+06
-1.35115e+06
-1.24498e+06
-1.18795e+06
-1.10649e+06
-1.04344e+06
-968529
-899650
-824517
-751420
-674674
-598709
-521197
-444405
-366915
-289570
-212170
-135462
-51253.1
-1.42779e+06
-1.26906e+06
-1.35453e+06
-1.2343e+06
-1.19078e+06
-1.10483e+06
-1.0419e+06
-964455
-895243
-819928
-747187
-670704
-595408
-518598
-442460
-365473
-288530
-211430
-135010
-50927
-1.75539e+06
-1.39805e+06
-1.3799e+06
-1.2432e+06
-1.17748e+06
-1.095e+06
-1.03095e+06
-955927
-887654
-813255
-741562
-666269
-592059
-515856
-440053
-363485
-286986
-210387
-134469
-50658.5
-1.2201e+06
-1.30267e+06
-1.29148e+06
-1.20762e+06
-1.1662e+06
-1.08851e+06
-1.02941e+06
-953688
-886327
-810766
-739481
-663650
-589886
-513968
-439025
-362739
-286545
-210204
-134485
-50804.3
-838071
-1.1827e+06
-1.29242e+06
-1.20486e+06
-1.16392e+06
-1.08642e+06
-1.02675e+06
-950819
-884154
-808719
-738007
-662372
-588982
-513131
-438230
-362101
-286160
-210017
-134598
-50959.7
-856023
-910088
-847897
-921713
-855925
-909805
-847760
-769654
-826467
-765031
-834191
-769528
-826397
-765173
-844847
-900993
-837551
-906206
-844745
-900818
-837480
-763414
-816593
-754378
-823300
-763356
-816555
-754335
-1.14339e+06
-1.202e+06
-1.13096e+06
-1.21662e+06
-1.14332e+06
-1.20225e+06
-1.13094e+06
-1.05003e+06
-1.10764e+06
-1.03876e+06
-1.11804e+06
-1.04991e+06
-1.10758e+06
-1.03868e+06
-957835
-1.016e+06
-947468
-1.02518e+06
-957511
-1.01589e+06
-947176
-867336
-924630
-858466
-933352
-867057
-924571
-858607
-779989
-836971
-772392
-843618
-779970
-836975
-772316
-693607
-750917
-686612
-756622
-693544
-750817
-686575
-607775
-665253
-601318
-670286
-607663
-665217
-601254
-521691
-579927
-515647
-584309
-521444
-579841
-515344
-1.12679e+06
-1.18106e+06
-1.11344e+06
-1.19737e+06
-1.12672e+06
-1.18132e+06
-1.11322e+06
-1.03506e+06
-1.0909e+06
-1.02401e+06
-1.10353e+06
-1.03495e+06
-1.09067e+06
-1.0236e+06
-943856
-1.0012e+06
-934664
-1.01223e+06
-943803
-1.00094e+06
-934619
-856119
-912956
-848259
-921549
-856090
-912850
-848143
-770172
-826937
-763386
-834496
-770027
-826805
-763248
-684596
-742195
-679078
-748629
-684586
-742098
-679052
-599607
-658085
-594615
-663359
-599572
-658044
-594672
-514259
-573489
-509845
-578255
-513949
-573496
-509522
-1.10845e+06
-1.15691e+06
-1.09244e+06
-1.17574e+06
-1.10823e+06
-1.15747e+06
-1.09243e+06
-1.01955e+06
-1.07074e+06
-1.0066e+06
-1.08589e+06
-1.01928e+06
-1.07074e+06
-1.0067e+06
-931917
-985548
-923110
-997179
-931737
-985722
-922902
-845618
-901925
-837984
-909988
-845432
-901663
-837849
-761181
-817019
-754851
-824190
-761091
-816875
-754721
-677291
-734155
-671921
-740073
-677249
-734038
-671859
-593035
-651027
-588573
-656281
-593056
-651036
-588541
-508578
-567677
-504923
-571937
-508219
-567611
-504550
-1.08772e+06
-1.13322e+06
-1.07446e+06
-1.1502e+06
-1.0877e+06
-1.13424e+06
-1.07461e+06
-1.00283e+06
-1.05228e+06
-993190
-1.06628e+06
-1.00285e+06
-1.05239e+06
-992952
-919749
-971113
-911282
-981942
-919733
-970818
-911447
-835610
-889189
-829942
-898677
-835502
-889243
-829984
-752811
-807506
-748102
-814537
-752741
-807563
-748245
-670216
-725863
-666724
-732124
-670189
-725939
-666784
-587287
-644381
-585023
-649454
-587246
-644391
-585020
-504112
-562590
-502933
-566381
-503722
-562527
-502621
-1.14338e+06
-1.20253e+06
-1.13094e+06
-1.2173e+06
-1.14346e+06
-1.20277e+06
-1.13093e+06
-1.04987e+06
-1.10755e+06
-1.03863e+06
-1.11795e+06
-1.04962e+06
-1.10742e+06
-1.03837e+06
-957446
-1.0158e+06
-947095
-1.02494e+06
-957053
-1.01533e+06
-947041
-866986
-924597
-858637
-932615
-866810
-924656
-858650
-779950
-836961
-772269
-843443
-779808
-836883
-772121
-693488
-750765
-686549
-756389
-693332
-750616
-686464
-607582
-665193
-601224
-670053
-607390
-665120
-601114
-521217
-579802
-515136
-584004
-520861
-579653
-514735
-1.12669e+06
-1.18145e+06
-1.11314e+06
-1.19774e+06
-1.12658e+06
-1.18163e+06
-1.11288e+06
-1.03488e+06
-1.09058e+06
-1.02338e+06
-1.1033e+06
-1.03457e+06
-1.09026e+06
-1.02283e+06
-943828
-1.00082e+06
-934573
-1.01167e+06
-943875
-1.0005e+06
-934264
-856072
-912768
-848086
-921718
-856022
-911788
-848048
-769950
-826738
-763214
-834343
-769718
-826662
-763947
-684576
-742076
-679052
-748377
-684551
-742159
-679102
-599561
-658051
-594686
-663315
-599530
-658120
-594700
-513755
-573493
-509303
-578151
-513345
-573452
-508810
-1.10818e+06
-1.15766e+06
-1.09238e+06
-1.17608e+06
-1.10793e+06
-1.1572e+06
-1.09209e+06
-1.01915e+06
-1.07069e+06
-1.00673e+06
-1.08552e+06
-1.01877e+06
-1.07043e+06
-1.00665e+06
-931639
-985755
-922796
-996794
-931117
-985647
-922441
-845320
-901550
-837799
-908384
-844769
-901162
-837665
-761069
-816807
-754656
-823392
-761952
-816675
-754452
-677244
-733983
-671840
-740074
-677280
-733806
-671774
-593057
-651034
-588513
-656338
-593032
-650992
-588395
-507961
-567565
-504276
-571817
-507431
-567390
-503737
-1.08763e+06
-1.13484e+06
-1.07467e+06
-1.15e+06
-1.08724e+06
-1.13621e+06
-1.0751e+06
-1.00283e+06
-1.05239e+06
-992884
-1.06582e+06
-1.00269e+06
-1.05251e+06
-992941
-919667
-970783
-911506
-981841
-919400
-970917
-911702
-835494
-889254
-830004
-898284
-835451
-889344
-830069
-752719
-807603
-748316
-814572
-752669
-807708
-748479
-670181
-725979
-666818
-731991
-670151
-726069
-666908
-587217
-644407
-585016
-649416
-587102
-644436
-584947
-503446
-562499
-502363
-566154
-502863
-562347
-501907
-1.14353e+06
-1.203e+06
-1.13091e+06
-1.2177e+06
-1.14361e+06
-1.20311e+06
-1.13084e+06
-1.04953e+06
-1.10737e+06
-1.03825e+06
-1.11786e+06
-1.0491e+06
-1.10719e+06
-1.03782e+06
-956963
-1.01519e+06
-947031
-1.02444e+06
-956691
-1.01485e+06
-947028
-866750
-924656
-858642
-932166
-866536
-924645
-858554
-779747
-836854
-772080
-843135
-779590
-836720
-771945
-693253
-750573
-686443
-756095
-693104
-750446
-686405
-607305
-665102
-601066
-669843
-607154
-665052
-600906
-520611
-579591
-514536
-583751
-520357
-579407
-514291
-1.12654e+06
-1.18169e+06
-1.11279e+06
-1.19789e+06
-1.12641e+06
-1.1815e+06
-1.11247e+06
-1.03442e+06
-1.09015e+06
-1.0227e+06
-1.10302e+06
-1.0341e+06
-1.08977e+06
-1.02245e+06
-943857
-1.00041e+06
-934080
-1.01134e+06
-943887
-1.00031e+06
-934004
-896823
-899729
-918591
-921679
-896823
-899724
-918494
-810415
-812675
-831870
-834312
-810350
-812643
-831958
-684549
-742177
-679124
-748224
-684552
-742238
-679115
-599500
-658143
-594683
-663296
-599329
-658108
-594529
-513152
-573407
-508574
-577889
-512868
-573180
-508299
-1.10783e+06
-1.15713e+06
-1.09196e+06
-1.17596e+06
-1.1075e+06
-1.15669e+06
-1.09172e+06
-1.01866e+06
-1.07031e+06
-1.00659e+06
-1.08501e+06
-1.01844e+06
-1.07009e+06
-1.00641e+06
-930860
-985572
-922301
-996572
-930695
-985357
-922113
-883157
-887488
-905651
-905813
-884231
-886425
-904944
-799544
-802103
-820847
-822623
-799925
-801176
-820346
-677293
-733749
-671752
-740033
-677249
-733690
-671704
-593005
-650971
-588352
-656291
-592859
-650913
-588232
-507181
-567328
-503493
-571568
-506882
-567159
-503184
-1.08712e+06
-1.13678e+06
-1.07525e+06
-1.15035e+06
-1.08705e+06
-1.13763e+06
-1.07555e+06
-1.00263e+06
-1.05255e+06
-992928
-1.06559e+06
-1.00248e+06
-1.05267e+06
-992905
-919304
-970954
-911748
-981598
-919131
-971034
-911848
-835393
-889374
-830084
-898006
-835337
-889435
-830086
-752644
-807745
-748531
-814509
-752605
-807795
-748579
-670138
-726106
-666940
-731894
-670107
-726136
-666954
-587062
-644464
-584937
-649345
-586949
-644486
-584851
-502613
-562317
-501687
-565925
-502284
-562168
-501409
-1.14366e+06
-1.20325e+06
-1.13081e+06
-1.21774e+06
-1.14381e+06
-1.20323e+06
-1.13077e+06
-1.04896e+06
-1.10714e+06
-1.03771e+06
-1.11777e+06
-1.04843e+06
-1.10701e+06
-1.0375e+06
-956657
-1.01477e+06
-947042
-1.0239e+06
-956579
-1.01465e+06
-947075
-866465
-924651
-858510
-931926
-866339
-924665
-858434
-779516
-836665
-771903
-842941
-779371
-836578
-771857
-693028
-750408
-686400
-755871
-692871
-750364
-686409
-607085
-665032
-600865
-669706
-606995
-664994
-600783
-520134
-579353
-514129
-583627
-520072
-579212
-514080
-1.12636e+06
-1.18146e+06
-1.11236e+06
-1.19778e+06
-1.12622e+06
-1.18096e+06
-1.11199e+06
-1.03403e+06
-1.08963e+06
-1.02242e+06
-1.1028e+06
-1.03392e+06
-1.08925e+06
-1.02238e+06
-943931
-1.00032e+06
-934184
-1.01128e+06
-943992
-1.00036e+06
-934482
-855858
-911598
-847885
-921774
-855784
-912602
-847725
-769514
-826495
-763942
-834028
-769534
-826381
-763034
-684550
-742199
-679080
-748211
-684558
-742012
-678964
-599273
-658061
-594456
-663241
-599135
-657911
-594254
-512688
-573094
-508116
-577642
-512552
-572879
-508082
-1.10738e+06
-1.1568e+06
-1.09169e+06
-1.17517e+06
-1.10694e+06
-1.15659e+06
-1.09166e+06
-1.01841e+06
-1.07005e+06
-1.00637e+06
-1.08446e+06
-1.01836e+06
-1.07001e+06
-1.00628e+06
-930925
-985303
-922148
-996571
-931349
-985194
-922097
-844640
-900896
-837566
-909575
-844966
-900950
-837702
-761886
-816632
-754385
-823681
-760888
-816751
-754465
-677221
-733716
-671693
-739931
-677107
-733761
-671680
-592797
-650897
-588199
-656116
-592630
-650866
-588130
-506717
-567112
-503033
-571317
-506707
-567008
-503064
-1.08706e+06
-1.13803e+06
-1.07559e+06
-1.15066e+06
-1.0871e+06
-1.13803e+06
-1.07565e+06
-1.00244e+06
-1.05268e+06
-992888
-1.0656e+06
-1.00236e+06
-1.05268e+06
-992821
-919100
-971058
-911876
-981462
-919028
-971060
-911843
-835357
-889457
-830082
-898001
-835386
-889416
-829990
-752614
-807826
-748595
-814554
-752626
-807810
-748554
-670098
-726148
-666966
-731905
-670077
-726109
-666854
-586920
-644515
-584846
-649291
-586863
-644483
-584735
-502139
-562155
-501266
-565780
-502186
-562077
-501238
-1.14389e+06
-1.20337e+06
-1.13076e+06
-1.21763e+06
-1.14404e+06
-1.20301e+06
-1.1307e+06
-1.04834e+06
-1.10698e+06
-1.03745e+06
-1.1174e+06
-1.04814e+06
-1.1069e+06
-1.03737e+06
-956600
-1.01463e+06
-947083
-1.02386e+06
-956741
-1.01459e+06
-947072
-866325
-924669
-858430
-931972
-866406
-924650
-858425
-779313
-836577
-771861
-842997
-779334
-836584
-771909
-692765
-750369
-686404
-755780
-692705
-750414
-686413
-606949
-664985
-600768
-669602
-606947
-664987
-600739
-519867
-579180
-513940
-583561
-519978
-579120
-514011
-1.12621e+06
-1.18085e+06
-1.11186e+06
-1.19735e+06
-1.12615e+06
-1.17999e+06
-1.11165e+06
-1.0339e+06
-1.08917e+06
-1.02238e+06
-1.10271e+06
-1.03383e+06
-1.08905e+06
-1.02235e+06
-943999
-1.00037e+06