/*--------------------------------*- C++ -*----------------------------------*\
  =========                 |
  \\      /  F ield         | OpenFOAM: The Open Source CFD Toolbox
   \\    /   O peration     | Website:  https://openfoam.org
    \\  /    A nd           | Version:  10
     \\/     M anipulation  |
\*---------------------------------------------------------------------------*/
FoamFile
{
    format      ascii;
    class       volScalarField;
    location    "4.8";
    object      turbidity;
}
// * * * * * * * * * * * * * * * * * * * * * * * * * * * * * * * * * * * * * //

dimensions      [0 0 0 0 0 0 0];

internalField   nonuniform List<scalar> 
12920
(
-0.0284858
-0.0562275
-0.0799608
-0.100687
-0.103729
-0.10257
-0.105406
-0.118442
-0.14297
-0.174363
-0.211446
-0.24814
-0.280874
-0.30975
-0.335723
-0.358927
-0.379378
-0.397149
-0.413223
-0.428475
-0.0149773
-0.0514322
-0.0712206
-0.0970079
-0.119933
-0.139668
-0.156848
-0.177513
-0.201948
-0.22802
-0.255079
-0.283723
-0.316091
-0.352107
-0.389119
-0.42325
-0.45192
-0.473856
-0.489148
-0.49799
-0.0345834
-0.054506
-0.0711569
-0.104871
-0.134861
-0.162728
-0.186846
-0.211468
-0.240296
-0.271637
-0.305934
-0.340187
-0.374797
-0.408089
-0.439148
-0.466785
-0.49059
-0.509913
-0.522827
-0.52615
-0.0203036
-0.0302672
-0.055115
-0.101559
-0.148644
-0.18655
-0.220438
-0.257642
-0.298944
-0.340962
-0.376228
-0.405971
-0.428082
-0.446331
-0.461873
-0.478119
-0.495872
-0.51595
-0.536297
-0.552728
-0.0254162
-0.0479134
-0.0640634
-0.0998248
-0.133187
-0.160974
-0.184445
-0.213631
-0.24436
-0.280753
-0.316579
-0.347911
-0.371677
-0.38904
-0.402399
-0.417701
-0.437533
-0.46434
-0.496239
-0.528796
-0.0302132
-0.0410428
-0.0614537
-0.0883261
-0.113734
-0.138819
-0.161612
-0.18166
-0.20824
-0.242734
-0.281
-0.312035
-0.325685
-0.332096
-0.336644
-0.347121
-0.366134
-0.39635
-0.436558
-0.48318
-0.017072
-0.0373648
-0.068504
-0.100274
-0.124864
-0.147678
-0.175187
-0.206753
-0.245968
-0.279195
-0.288363
-0.27703
-0.255596
-0.244159
-0.244074
-0.255415
-0.276234
-0.308208
-0.351251
-0.407291
-0.0154281
-0.0335221
-0.0527067
-0.0753643
-0.0994735
-0.132203
-0.142957
-0.169728
-0.205361
-0.216092
-0.200252
-0.158852
-0.133776
-0.118927
-0.131205
-0.162582
-0.193324
-0.223991
-0.256871
-0.295685
-0.0285063
-0.0576592
-0.0797691
-0.0995093
-0.126138
-0.133146
-0.141336
-0.154213
-0.172966
-0.177441
-0.159356
-0.125279
-0.100884
-0.0897149
-0.102209
-0.151697
-0.184106
-0.210664
-0.23461
-0.260037
-0.0485967
-0.0556301
-0.0842763
-0.129816
-0.172409
-0.15872
-0.150461
-0.153579
-0.15107
-0.130264
-0.109951
-0.100628
-0.0943144
-0.0945226
-0.126355
-0.184828
-0.212413
-0.229649
-0.245237
-0.262123
-0.0828679
-0.0472747
-0.0503486
-0.0705796
-0.0931746
-0.102026
-0.110795
-0.116045
-0.108494
-0.104541
-0.104507
-0.107224
-0.107749
-0.121269
-0.171849
-0.236517
-0.266967
-0.276744
-0.275834
-0.275863
-0.0648829
-0.0443205
-0.0548392
-0.0809798
-0.103856
-0.0999305
-0.0955431
-0.0921401
-0.0981013
-0.103318
-0.110203
-0.125083
-0.142893
-0.168574
-0.218142
-0.300454
-0.338772
-0.354812
-0.345044
-0.32642
-0.0578193
-0.0504949
-0.0503367
-0.0718228
-0.097349
-0.12475
-0.125717
-0.127126
-0.129623
-0.132684
-0.144205
-0.163161
-0.188926
-0.21843
-0.297336
-0.349407
-0.392821
-0.42278
-0.427801
-0.41121
-0.0529569
-0.0503342
-0.0635565
-0.0981179
-0.126149
-0.15504
-0.170364
-0.186714
-0.196927
-0.206075
-0.21619
-0.229859
-0.253761
-0.287543
-0.32741
-0.372662
-0.418502
-0.45966
-0.489048
-0.500031
-0.0195505
-0.0345943
-0.0508226
-0.0848125
-0.119976
-0.145062
-0.161313
-0.16486
-0.166678
-0.166657
-0.174258
-0.192953
-0.225904
-0.267433
-0.315299
-0.370205
-0.423457
-0.46854
-0.50538
-0.5315
-0.0111031
-0.0281748
-0.0485798
-0.0863178
-0.122267
-0.144626
-0.158098
-0.164756
-0.168975
-0.172543
-0.185007
-0.20929
-0.244062
-0.286107
-0.335411
-0.393118
-0.451598
-0.501633
-0.541192
-0.571126
-0.0296858
-0.0557681
-0.0835671
-0.105568
-0.121431
-0.133395
-0.148351
-0.162245
-0.175495
-0.188894
-0.205881
-0.231664
-0.268901
-0.317693
-0.372624
-0.42575
-0.476731
-0.525263
-0.568669
-0.601755
-0.0250626
-0.0410469
-0.052473
-0.0607695
-0.0709596
-0.0888773
-0.112542
-0.136694
-0.158472
-0.176532
-0.193
-0.21192
-0.239796
-0.282961
-0.334529
-0.383641
-0.43103
-0.482848
-0.539584
-0.590481
-0.0410822
-0.0329707
-0.0511212
-0.0747873
-0.0943534
-0.116521
-0.142178
-0.166174
-0.192475
-0.216429
-0.240948
-0.263901
-0.284813
-0.297781
-0.299826
-0.303378
-0.322858
-0.354539
-0.39522
-0.447497
-0.0297689
-0.0624196
-0.0678246
-0.0729833
-0.0851333
-0.0955591
-0.118365
-0.144194
-0.176517
-0.201969
-0.227592
-0.247164
-0.259967
-0.258564
-0.251427
-0.244912
-0.245078
-0.250935
-0.264822
-0.283748
-0.017945
-0.0156654
-0.0173011
-0.0169209
-0.0136777
-0.0105893
-0.00987995
-0.0124648
-0.0187127
-0.0285214
-0.0416622
-0.0559853
-0.0716333
-0.0826281
-0.0881121
-0.0850624
-0.0769968
-0.067292
-0.0595319
-0.0549348
-0.0103934
-0.0164217
-0.0190286
-0.019956
-0.0242234
-0.0249972
-0.0276089
-0.0296077
-0.039954
-0.0518825
-0.0708139
-0.0876608
-0.102756
-0.108012
-0.105923
-0.0981385
-0.0891632
-0.0773407
-0.063505
-0.0492288
-0.0209812
-0.015149
-0.0123085
-0.012893
-0.0158473
-0.0202922
-0.0301477
-0.0324144
-0.0427675
-0.0499264
-0.0645885
-0.0762747
-0.0879463
-0.0925569
-0.0943512
-0.0905286
-0.0842789
-0.0724311
-0.0575494
-0.0452036
-0.0199502
-0.0193466
-0.0258011
-0.0311787
-0.0395899
-0.0486744
-0.0615397
-0.0605304
-0.0592497
-0.0544098
-0.0584893
-0.0679368
-0.0826728
-0.0971784
-0.109702
-0.117
-0.118753
-0.112807
-0.0976321
-0.0809335
-0.0192161
-0.0217319
-0.0155878
-0.0289375
-0.0493849
-0.0572736
-0.0652669
-0.0614082
-0.0563948
-0.0478528
-0.0463463
-0.0508441
-0.0595652
-0.0704875
-0.083901
-0.0966102
-0.106047
-0.109275
-0.103913
-0.094753
-0.0300091
-0.0336369
-0.0293502
-0.0293745
-0.0393242
-0.0370918
-0.0337905
-0.0299862
-0.0308883
-0.0354246
-0.0461276
-0.0497662
-0.0474616
-0.0460014
-0.0484833
-0.0553088
-0.065037
-0.0751074
-0.0804371
-0.0787779
-0.0171729
-0.0347739
-0.048151
-0.0391602
-0.0437924
-0.0354827
-0.0378106
-0.0348487
-0.0404539
-0.0469822
-0.047768
-0.0442606
-0.0382995
-0.03504
-0.0351938
-0.0378668
-0.043659
-0.0528442
-0.0646507
-0.0719213
-0.00394006
-0.0147943
-0.0281506
-0.0324638
-0.0397298
-0.0382007
-0.0485942
-0.0547191
-0.0462262
-0.0419841
-0.0380677
-0.0351922
-0.0332512
-0.0332221
-0.031928
-0.0355609
-0.0398323
-0.0448023
-0.0511463
-0.0567595
-0.0082292
-0.0103861
-0.0213392
-0.0296274
-0.0540872
-0.0468563
-0.0474611
-0.0677969
-0.0719969
-0.0803078
-0.0759527
-0.070673
-0.0607973
-0.0531694
-0.0477751
-0.0412636
-0.0429266
-0.046899
-0.0540384
-0.0604807
-0.0290447
-0.0149027
-0.0174295
-0.0474523
-0.0791063
-0.0676496
-0.0535385
-0.064932
-0.100992
-0.104152
-0.0927966
-0.0851161
-0.0752845
-0.063619
-0.0498021
-0.0359713
-0.0352093
-0.0358698
-0.0396569
-0.0466644
-0.0387009
-0.0123198
-0.00954078
-0.0145591
-0.0214602
-0.0308455
-0.0444224
-0.0643546
-0.0678618
-0.0575567
-0.0604782
-0.0616623
-0.0578784
-0.0542799
-0.0395245
-0.0356591
-0.0343103
-0.0323483
-0.0320458
-0.0352615
-0.0047712
-0.00901771
-0.00813713
-0.0100791
-0.017088
-0.0217876
-0.0294281
-0.0393996
-0.0530891
-0.0445793
-0.0609645
-0.061792
-0.0445601
-0.0364584
-0.041265
-0.0492557
-0.0498398
-0.0453164
-0.0405064
-0.0387684
-0.0159284
-0.00841369
-0.00640319
-0.00701597
-0.0102591
-0.013304
-0.0182167
-0.0239338
-0.025701
-0.0315589
-0.0362598
-0.0346179
-0.0332734
-0.0376662
-0.0525857
-0.0624919
-0.066345
-0.0651158
-0.0578228
-0.0525365
-0.0139556
-0.0116156
-0.00827208
-0.00894465
-0.0103303
-0.0154131
-0.0164617
-0.0155925
-0.0136099
-0.0136966
-0.0167561
-0.0235459
-0.0341977
-0.0489473
-0.0615018
-0.0662774
-0.0645548
-0.0668347
-0.0683512
-0.0693446
-0.00784938
-0.0164059
-0.0287156
-0.0307125
-0.0236803
-0.0158325
-0.0115946
-0.00871081
-0.00793771
-0.00973057
-0.0153269
-0.0269314
-0.0434234
-0.0627278
-0.0746227
-0.0713123
-0.0610316
-0.0573912
-0.0610886
-0.0716637
-0.0106136
-0.0207493
-0.0366944
-0.0406276
-0.0346259
-0.0257918
-0.0202292
-0.0151069
-0.012676
-0.0157864
-0.0258304
-0.0452357
-0.0703924
-0.0908475
-0.101316
-0.0959761
-0.082139
-0.0700809
-0.0662959
-0.0720837
-0.0107141
-0.0258632
-0.0362593
-0.030031
-0.0275472
-0.028581
-0.0364037
-0.042658
-0.0497594
-0.0568483
-0.069797
-0.0861033
-0.102163
-0.105996
-0.102792
-0.0992855
-0.097789
-0.0909032
-0.0807254
-0.0716627
-0.0110013
-0.00979711
-0.0113245
-0.0105359
-0.00922507
-0.00881224
-0.0105297
-0.0148757
-0.0229109
-0.0345546
-0.0530058
-0.0758167
-0.0962763
-0.0957564
-0.0829987
-0.0828971
-0.10211
-0.120353
-0.12157
-0.106355
-0.0661836
-0.0146469
-0.00801756
-0.00778703
-0.00959036
-0.0148304
-0.0247614
-0.0329152
-0.0431528
-0.0558247
-0.0715584
-0.0789753
-0.0739011
-0.0571588
-0.0476572
-0.0495693
-0.066534
-0.100471
-0.142392
-0.152116
-0.0253156
-0.0201659
-0.00981027
-0.00858422
-0.013454
-0.0217483
-0.0344101
-0.0403413
-0.0457701
-0.0499496
-0.0534511
-0.0526295
-0.0484385
-0.0414532
-0.0360443
-0.0334811
-0.0341039
-0.0391922
-0.0521468
-0.0708078
-0.00338399
-0.00792135
-0.0108556
-0.0109082
-0.00940173
-0.00805607
-0.00813833
-0.0106501
-0.015641
-0.021713
-0.0277863
-0.0325399
-0.0363669
-0.0374114
-0.036504
-0.0332114
-0.0291276
-0.0252036
-0.0220657
-0.02002
-0.00117035
-0.00435254
-0.00725098
-0.00896747
-0.0109532
-0.0124944
-0.0152462
-0.0187491
-0.0240589
-0.0283864
-0.033529
-0.035105
-0.0345172
-0.0299306
-0.0248397
-0.0203487
-0.017655
-0.0159063
-0.0153087
-0.0159715
-0.0226264
-0.0125913
-0.00813329
-0.00735189
-0.00809735
-0.00972132
-0.0128913
-0.0147566
-0.0184662
-0.0206024
-0.0241992
-0.0253919
-0.0267575
-0.0259358
-0.0253083
-0.0238653
-0.0228952
-0.0220724
-0.0224012
-0.0242362
-0.0211635
-0.0145931
-0.014223
-0.0127308
-0.0115043
-0.014849
-0.0197073
-0.0193275
-0.0202969
-0.021362
-0.0248376
-0.0286834
-0.0333429
-0.0368388
-0.0393163
-0.039566
-0.0384536
-0.0362684
-0.0342159
-0.0341776
-0.0137415
-0.0103401
-0.0091283
-0.0129473
-0.019117
-0.0216107
-0.0247693
-0.0225012
-0.0219177
-0.0224046
-0.0246796
-0.0283658
-0.0322676
-0.0363855
-0.0399787
-0.0422799
-0.0426403
-0.0411915
-0.03912
-0.0384026
-0.0199998
-0.0147096
-0.00862686
-0.0087706
-0.0122266
-0.013047
-0.0135703
-0.014683
-0.0163598
-0.01819
-0.01989
-0.0211026
-0.021985
-0.0239971
-0.026396
-0.029039
-0.031241
-0.032612
-0.0330005
-0.0331083
-0.00703028
-0.0254321
-0.0260751
-0.0147172
-0.0157969
-0.0127811
-0.0145634
-0.0152186
-0.0161023
-0.0169742
-0.0159857
-0.0156133
-0.0153164
-0.0162131
-0.0180241
-0.0206188
-0.0238456
-0.0271979
-0.0301655
-0.0318153
-0.000680478
-0.00455842
-0.0114942
-0.0127495
-0.0163844
-0.014487
-0.0167904
-0.0175962
-0.0158396
-0.0139717
-0.0125135
-0.0115178
-0.0118138
-0.0129373
-0.0142091
-0.0165038
-0.0196032
-0.0233064
-0.0273913
-0.031069
-0.00581787
-0.00994416
-0.0160018
-0.0132145
-0.0222592
-0.0168484
-0.0159797
-0.0205334
-0.0215977
-0.0208203
-0.0172642
-0.0149621
-0.0137231
-0.0147897
-0.0164337
-0.0167408
-0.0192086
-0.0229774
-0.0277622
-0.0323025
-0.0131468
-0.0105886
-0.0110143
-0.0175243
-0.0259623
-0.0234721
-0.0187719
-0.0250217
-0.0339787
-0.0342014
-0.0311212
-0.0260308
-0.0201531
-0.01716
-0.0157686
-0.0149957
-0.0170341
-0.0201997
-0.0246404
-0.0296708
-0.00664292
-0.00735811
-0.00720786
-0.00902739
-0.0116505
-0.014963
-0.0202824
-0.0291828
-0.030118
-0.0253808
-0.0223632
-0.0178117
-0.0149797
-0.0145422
-0.0139585
-0.0159709
-0.0174663
-0.0196621
-0.0229153
-0.0269218
-0.00797964
-0.0085907
-0.00745349
-0.00738255
-0.00869385
-0.0101069
-0.0116456
-0.0162352
-0.0179693
-0.0182681
-0.0182632
-0.0144835
-0.013011
-0.0144344
-0.0178368
-0.0210521
-0.0220832
-0.0232485
-0.0248955
-0.0273982
-0.00414018
-0.00593535
-0.00478119
-0.00465972
-0.00533401
-0.00559431
-0.00641811
-0.00825724
-0.009782
-0.0113792
-0.0118022
-0.0123708
-0.0141855
-0.0169496
-0.0221405
-0.0250584
-0.0269256
-0.0283451
-0.0295163
-0.031051
-0.0178903
-0.0103635
-0.00688509
-0.00541016
-0.00487781
-0.00489073
-0.00507674
-0.00523553
-0.0060914
-0.00782877
-0.0104175
-0.0138873
-0.0174168
-0.0209592
-0.0234563
-0.0251225
-0.0267788
-0.0292803
-0.0317279
-0.0339251
-0.00866962
-0.0136685
-0.0142938
-0.0130689
-0.0103639
-0.00786062
-0.00583572
-0.00518834
-0.0058225
-0.00845231
-0.0124662
-0.0176997
-0.0224409
-0.0259302
-0.0262103
-0.0240534
-0.0226466
-0.0235672
-0.0262753
-0.0299588
-0.00689834
-0.0120833
-0.0196951
-0.0190068
-0.0149127
-0.011404
-0.00886299
-0.00797852
-0.00878717
-0.0129872
-0.0193667
-0.0269001
-0.033647
-0.0367635
-0.0357648
-0.0306397
-0.0256818
-0.0231152
-0.0230762
-0.0250071
-0.00939243
-0.0156501
-0.01743
-0.0132848
-0.0117202
-0.0114773
-0.0142096
-0.0168285
-0.0212255
-0.0263841
-0.0345517
-0.0412016
-0.0446946
-0.0414678
-0.0365557
-0.0322583
-0.0290441
-0.0258654
-0.0238042
-0.0231694
-0.00329379
-0.00489993
-0.00571288
-0.00594241
-0.00576811
-0.00625039
-0.00839964
-0.0129154
-0.0199664
-0.0290184
-0.0395719
-0.0470508
-0.0490981
-0.0411176
-0.0333133
-0.0310072
-0.0332033
-0.0342326
-0.0320582
-0.028873
-0.0167639
-0.0107657
-0.00702578
-0.00680818
-0.00864517
-0.0135988
-0.0190726
-0.0254821
-0.0318412
-0.0361747
-0.0382434
-0.0341268
-0.0286957
-0.0248941
-0.0255843
-0.0295439
-0.0367167
-0.0467062
-0.057409
-0.0556888
-0.0040569
-0.0080289
-0.00681152
-0.00690023
-0.0113619
-0.0168465
-0.0232843
-0.0257789
-0.0281031
-0.0279153
-0.0272573
-0.0242765
-0.0214965
-0.0198257
-0.0211902
-0.025942
-0.0339003
-0.0445361
-0.0566442
-0.0706175
-0.00142453
-0.00570533
-0.00800492
-0.00813285
-0.0071668
-0.00664448
-0.00740358
-0.00995689
-0.0135209
-0.0166265
-0.0191627
-0.020596
-0.0213342
-0.0205972
-0.01917
-0.0170368
-0.0149016
-0.0130298
-0.0116139
-0.0107428
-0.00539535
-0.00842651
-0.00674048
-0.00666398
-0.0075321
-0.00913631
-0.0108756
-0.0120171
-0.0132336
-0.0128704
-0.0130123
-0.0119844
-0.0114629
-0.0110739
-0.011509
-0.0126115
-0.014247
-0.0162314
-0.0184057
-0.0205848
-0.0259363
-0.0129805
-0.00915257
-0.00756819
-0.00708945
-0.00777502
-0.00884534
-0.00924214
-0.0101876
-0.0102665
-0.0111673
-0.0115415
-0.0126392
-0.0136886
-0.0152839
-0.0170905
-0.0192197
-0.0214846
-0.0237553
-0.0257785
-0.0151557
-0.0111634
-0.0138792
-0.0120558
-0.00886915
-0.00876598
-0.0101344
-0.0105428
-0.0116799
-0.012476
-0.0140398
-0.015362
-0.0171034
-0.0184577
-0.0198721
-0.0210558
-0.0223645
-0.0237849
-0.0253216
-0.0268924
-0.0089933
-0.00830481
-0.0072919
-0.00866009
-0.00957443
-0.0105631
-0.0121147
-0.0122443
-0.013128
-0.0141628
-0.0155222
-0.0171367
-0.0186569
-0.0199344
-0.0209373
-0.0215499
-0.0219304
-0.0223092
-0.0229599
-0.0240866
-0.0152321
-0.0105441
-0.00673317
-0.00600543
-0.0067398
-0.00806392
-0.00927181
-0.0104937
-0.0112759
-0.0122802
-0.0130583
-0.0142382
-0.0152109
-0.0163279
-0.0171636
-0.0178048
-0.018247
-0.0185912
-0.0189859
-0.019689
-0.0095645
-0.0151436
-0.0110012
-0.0068702
-0.00769343
-0.00796774
-0.00891857
-0.00970004
-0.0095171
-0.010274
-0.010391
-0.011394
-0.0123782
-0.0137357
-0.015043
-0.0161598
-0.0170718
-0.0176731
-0.0181809
-0.0186318
-0.000906465
-0.00325669
-0.00652559
-0.00674653
-0.00802753
-0.00804899
-0.00872171
-0.00932653
-0.0088311
-0.00802628
-0.00798817
-0.008061
-0.00889597
-0.0101265
-0.0133876
-0.0153688
-0.0171287
-0.0185367
-0.0196627
-0.0204677
-0.00352912
-0.00701211
-0.00777073
-0.00665584
-0.0082606
-0.00802134
-0.00825643
-0.00918563
-0.00882722
-0.00756058
-0.00681777
-0.00695137
-0.00769518
-0.00871385
-0.0106225
-0.0149828
-0.0174284
-0.0197023
-0.0215703
-0.0225889
-0.00642588
-0.00698111
-0.00675068
-0.00733017
-0.00748635
-0.00908054
-0.00893004
-0.0108851
-0.0117517
-0.0103068
-0.00856033
-0.00784532
-0.0083374
-0.00932431
-0.0112036
-0.015221
-0.0174712
-0.0196598
-0.0214072
-0.0222405
-0.00301919
-0.0044602
-0.00569652
-0.0060973
-0.00669797
-0.00783218
-0.0103169
-0.0127301
-0.0116091
-0.00916677
-0.008055
-0.00782703
-0.0082262
-0.00933447
-0.0122551
-0.0158608
-0.0176203
-0.0193991
-0.0208928
-0.0217659
-0.00851178
-0.00786151
-0.00706732
-0.00582695
-0.00562644
-0.00575703
-0.0060693
-0.00747794
-0.0075633
-0.00703491
-0.00700607
-0.00775454
-0.00923801
-0.0112397
-0.0144903
-0.0169846
-0.0183749
-0.0196524
-0.0207419
-0.0215922
-0.00459309
-0.00576836
-0.00441171
-0.00359352
-0.003747
-0.00393331
-0.00439328
-0.0054997
-0.00627429
-0.00703886
-0.00793605
-0.00904497
-0.0104163
-0.0121708
-0.0150078
-0.0168541
-0.0184507
-0.0198347
-0.0210245
-0.022217
-0.00680075
-0.00539954
-0.00400905
-0.00368321
-0.00355092
-0.00364388
-0.00428581
-0.00520723
-0.00639502
-0.00779728
-0.00901754
-0.010172
-0.0111912
-0.0123984
-0.0137618
-0.015244
-0.0169233
-0.018754
-0.0206251
-0.0226162
-0.00599102
-0.00648182
-0.00798646
-0.00774144
-0.00650104
-0.00512229
-0.00453517
-0.00535103
-0.00681009
-0.00888278
-0.0104906
-0.0116812
-0.012174
-0.0125065
-0.0126734
-0.0131959
-0.0144454
-0.0162323
-0.0183632
-0.0206773
-0.0105469
-0.0118179
-0.0117228
-0.00983149
-0.00741598
-0.00583968
-0.00538996
-0.006832
-0.00888679
-0.0116353
-0.0137525
-0.0150125
-0.0156676
-0.0151826
-0.0143877
-0.0137064
-0.0139338
-0.0150198
-0.0166137
-0.0185209
-0.0088821
-0.0109127
-0.0100485
-0.00811095
-0.0071477
-0.00753904
-0.0090661
-0.0113304
-0.01426
-0.0166662
-0.0190305
-0.0192131
-0.0184246
-0.0162744
-0.0149143
-0.0144778
-0.0148469
-0.0156644
-0.0168577
-0.0183505
-0.00289122
-0.00443239
-0.00489298
-0.00492972
-0.00520418
-0.0071373
-0.00997978
-0.0141537
-0.018673
-0.0218151
-0.0241281
-0.0231144
-0.0209642
-0.0170362
-0.0151573
-0.0151303
-0.0161285
-0.0170402
-0.0178973
-0.0189555
-0.0141079
-0.0106303
-0.00684785
-0.00735348
-0.00935021
-0.0131449
-0.0162401
-0.0182104
-0.0195157
-0.0182786
-0.0172938
-0.0155686
-0.0154306
-0.0163283
-0.0179024
-0.0201048
-0.0231831
-0.0270826
-0.0315597
-0.0344105
-0.0041106
-0.00507621
-0.00512707
-0.00720252
-0.0122244
-0.0137857
-0.0161879
-0.0155612
-0.0156809
-0.0142887
-0.0137808
-0.0131264
-0.0141432
-0.0176236
-0.0237573
-0.0321744
-0.0421601
-0.0531937
-0.0660647
-0.0813585
-0.00332025
-0.00578428
-0.00557195
-0.00463111
-0.00419057
-0.0054215
-0.00831571
-0.0112724
-0.0128795
-0.0129425
-0.0125638
-0.0114967
-0.0106429
-0.00983407
-0.00981103
-0.0105199
-0.0121327
-0.0146329
-0.0180492
-0.0220967
-0.0114243
-0.00803891
-0.00541449
-0.00561089
-0.0062966
-0.00758687
-0.00848038
-0.00888525
-0.00970593
-0.0108353
-0.0125247
-0.0145612
-0.0167061
-0.0188909
-0.020831
-0.0226348
-0.0241333
-0.0254213
-0.0264506
-0.0271708
-0.0300694
-0.0150537
-0.00757903
-0.00697888
-0.0069171
-0.00743091
-0.0081859
-0.00907183
-0.0103325
-0.0117434
-0.0131784
-0.014566
-0.0156493
-0.0165564
-0.0171932
-0.0176834
-0.0180548
-0.0183385
-0.0185855
-0.0188825
-0.0123048
-0.0065898
-0.00658078
-0.00668001
-0.00707129
-0.00794361
-0.00894221
-0.00982273
-0.0108806
-0.0118693
-0.0128144
-0.0136768
-0.0144452
-0.0151534
-0.0158452
-0.0165008
-0.0171753
-0.0178152
-0.0184476
-0.0191093
-0.0119873
-0.00503103
-0.00539556
-0.00669433
-0.00765443
-0.00867371
-0.00953405
-0.0102197
-0.0109954
-0.011776
-0.0125309
-0.013281
-0.0140486
-0.0147953
-0.0156298
-0.0164701
-0.0174133
-0.0183881
-0.0194176
-0.0203882
-0.00194577
-0.00228348
-0.00311665
-0.00488362
-0.00669915
-0.0081934
-0.00889234
-0.00972149
-0.0104657
-0.0112984
-0.0120991
-0.012932
-0.0138203
-0.0147748
-0.015864
-0.0170226
-0.0182455
-0.0194613
-0.0206219
-0.0215751
-0.0148191
-0.00708568
-0.00466876
-0.00528995
-0.00657934
-0.00770126
-0.00811791
-0.00921097
-0.00998516
-0.0109681
-0.0118526
-0.0128276
-0.0138328
-0.0149063
-0.0160335
-0.0172444
-0.0184344
-0.0195695
-0.0205278
-0.0212518
-0.00489875
-0.00424534
-0.00450721
-0.00492814
-0.00577114
-0.00686605
-0.00709397
-0.0084581
-0.00891069
-0.00955
-0.0103734
-0.0111743
-0.012101
-0.0129548
-0.0152516
-0.0162569
-0.0172176
-0.0180783
-0.0187372
-0.0191922
-0.00292663
-0.00402261
-0.00418084
-0.0047648
-0.00543299
-0.00661802
-0.00682866
-0.00684832
-0.00711611
-0.00750945
-0.00856744
-0.00975447
-0.0110376
-0.012143
-0.0129235
-0.0146386
-0.0154879
-0.0162794
-0.0168681
-0.0172079
-0.0114856
-0.00666719
-0.00525182
-0.00501926
-0.0054047
-0.00611113
-0.0064123
-0.0062132
-0.00611064
-0.00684846
-0.00823663
-0.00987334
-0.0113846
-0.0125348
-0.012837
-0.0138845
-0.0146686
-0.0155044
-0.0162728
-0.0168289
-0.00563646
-0.00638723
-0.0069806
-0.00547985
-0.00537151
-0.00576755
-0.00617818
-0.00624168
-0.00634577
-0.00706173
-0.00806135
-0.00970859
-0.0116113
-0.0129742
-0.0132828
-0.0142093
-0.0150145
-0.0159752
-0.0169814
-0.0179047
-0.00286412
-0.00935223
-0.00865441
-0.00575223
-0.00510426
-0.00526071
-0.00536847
-0.00560968
-0.00602689
-0.00692795
-0.00835214
-0.010145
-0.0118588
-0.0130378
-0.0137569
-0.0157828
-0.0166297
-0.0176531
-0.0186904
-0.0196869
-0.00107844
-0.00310928
-0.00358257
-0.00347401
-0.00395328
-0.00467282
-0.00507269
-0.00614534
-0.00718906
-0.00853135
-0.0100383
-0.0115907
-0.0129993
-0.0141488
-0.0173727
-0.0185597
-0.0197584
-0.0210404
-0.0221859
-0.0232787
-0.0066334
-0.00367782
-0.00304853
-0.00315719
-0.00383267
-0.00482214
-0.00584787
-0.00696649
-0.0082868
-0.00976474
-0.0114815
-0.0133018
-0.0151445
-0.0169646
-0.0187641
-0.0205818
-0.0223477
-0.0241137
-0.0257759
-0.0273252
-0.00971382
-0.0053066
-0.00515589
-0.00424785
-0.00408616
-0.00499189
-0.0059579
-0.0071273
-0.00830502
-0.00981576
-0.0115185
-0.0134773
-0.0154783
-0.0175347
-0.019589
-0.0216142
-0.0234954
-0.025249
-0.0268185
-0.0280824
-0.00997413
-0.00852423
-0.00692954
-0.00524563
-0.00480607
-0.0058622
-0.00681905
-0.00816031
-0.0092436
-0.0106655
-0.012228
-0.0140573
-0.0160023
-0.0181288
-0.0202558
-0.0224055
-0.0243326
-0.0259695
-0.027175
-0.0279002
-0.0195291
-0.00889311
-0.00637732
-0.00601286
-0.00656862
-0.00783991
-0.00872541
-0.00976114
-0.0108288
-0.0118046
-0.013254
-0.0147321
-0.0165937
-0.0187325
-0.0210962
-0.0235519
-0.0259217
-0.028195
-0.0300912
-0.0314134
-0.00117023
-0.00294042
-0.0038423
-0.00475849
-0.00650912
-0.00867502
-0.010376
-0.0113167
-0.0123685
-0.0128846
-0.013952
-0.0147437
-0.0159231
-0.0174364
-0.0194036
-0.021643
-0.0240465
-0.0266987
-0.029408
-0.0316675
-0.00863981
-0.00673799
-0.00492605
-0.00692256
-0.00854377
-0.0093925
-0.0105633
-0.010894
-0.0119887
-0.0130192
-0.0144896
-0.0160997
-0.0176836
-0.0193896
-0.0212336
-0.0233608
-0.025653
-0.0280145
-0.0303167
-0.0322751
-0.00408554
-0.0029118
-0.00415377
-0.0060517
-0.00885001
-0.00812128
-0.0089726
-0.00852951
-0.00942259
-0.0103775
-0.0126276
-0.0159323
-0.0202953
-0.0252653
-0.030525
-0.0360746
-0.0420093
-0.0485303
-0.0567548
-0.0649046
-0.0320485
-0.0287361
-0.0270792
-0.013811
-0.0119421
-0.0136434
-0.0114883
-0.0274684
-0.0262481
-0.0226473
-0.0113245
-0.00979795
-0.0107838
-0.00933944
-0.0236036
-0.0195115
-0.0194725
-0.0123491
-0.0108258
-0.00971222
-0.00865776
-0.0189087
-0.0189312
-0.0161031
-0.0104019
-0.00934741
-0.00849536
-0.00867637
-0.149908
-0.14303
-0.150461
-0.138803
-0.148213
-0.138082
-0.146192
-0.168002
-0.152476
-0.155182
-0.152713
-0.164524
-0.148503
-0.152364
-0.178772
-0.154124
-0.143893
-0.167392
-0.165903
-0.151668
-0.142829
-0.166734
-0.138453
-0.120724
-0.161787
-0.144207
-0.138182
-0.123898
-0.133459
-0.115542
-0.104574
-0.137454
-0.12012
-0.119749
-0.110017
-0.10567
-0.101961
-0.0955562
-0.115255
-0.103977
-0.107466
-0.101589
-0.091331
-0.0938204
-0.091354
-0.101162
-0.0961301
-0.100365
-0.100117
-0.088843
-0.0919091
-0.0982489
-0.0956156
-0.0970196
-0.101299
-0.107694
-0.152511
-0.152844
-0.14519
-0.142626
-0.147578
-0.144628
-0.140509
-0.153384
-0.142634
-0.129493
-0.149113
-0.149853
-0.138256
-0.126957
-0.136568
-0.123946
-0.111356
-0.147812
-0.1356
-0.12252
-0.112071
-0.113788
-0.108865
-0.104701
-0.130656
-0.117905
-0.109848
-0.106898
-0.102429
-0.104252
-0.104349
-0.114691
-0.107623
-0.1069
-0.106875
-0.0956953
-0.10423
-0.102618
-0.105784
-0.101533
-0.106485
-0.106128
-0.0932713
-0.102431
-0.107347
-0.100781
-0.102204
-0.107092
-0.115418
-0.103611
-0.111562
-0.130845
-0.104052
-0.112473
-0.119636
-0.133528
-0.115851
-0.0889799
-0.0883967
-0.105843
-0.114165
-0.0736542
-0.0728733
-0.110824
-0.0893937
-0.0944042
-0.114674
-0.110312
-0.0773273
-0.0924229
-0.105001
-0.0963114
-0.100975
-0.108489
-0.105112
-0.0954725
-0.0986399
-0.104099
-0.102075
-0.10603
-0.104507
-0.10563
-0.099309
-0.107826
-0.106757
-0.108266
-0.116971
-0.106795
-0.108296
-0.112179
-0.122551
-0.10724
-0.11982
-0.128879
-0.107973
-0.109663
-0.124819
-0.1312
-0.115779
-0.132909
-0.150148
-0.111921
-0.122856
-0.133786
-0.142031
-0.143106
-0.157276
-0.179925
-0.127499
-0.141235
-0.145701
-0.161412
-0.0918233
-0.109585
-0.106791
-0.080161
-0.0788818
-0.105289
-0.10746
-0.0962696
-0.10682
-0.108531
-0.0837478
-0.0958335
-0.107815
-0.103526
-0.10235
-0.108996
-0.10987
-0.0975422
-0.0979478
-0.100668
-0.0957574
-0.10762
-0.110723
-0.119161
-0.0984317
-0.108632
-0.0975474
-0.113642
-0.121138
-0.123757
-0.139041
-0.114061
-0.127943
-0.120845
-0.137715
-0.137864
-0.145307
-0.164296
-0.1312
-0.137601
-0.142204
-0.150994
-0.161561
-0.1717
-0.192663
-0.139311
-0.145696
-0.155224
-0.169632
-0.190842
-0.201085
-0.224587
-0.149804
-0.168469
-0.178477
-0.20595
-0.0642693
-0.0484531
-0.0540993
-0.0385134
-0.0369891
-0.0434676
-0.0395624
-0.0699584
-0.0581512
-0.0842379
-0.0372068
-0.0373085
-0.0388508
-0.0403641
-0.0793412
-0.0938751
-0.108782
-0.0370538
-0.0347891
-0.0415191
-0.0430122
-0.0765674
-0.108641
-0.10131
-0.0332596
-0.0281631
-0.0425857
-0.0399883
-0.0724865
-0.0981622
-0.0894264
-0.0267914
-0.0235659
-0.0389105
-0.0351067
-0.0634518
-0.0866904
-0.0782462
-0.0226955
-0.0206121
-0.0336425
-0.0288964
-0.0542955
-0.0750477
-0.0659273
-0.020178
-0.0198964
-0.0273577
-0.0241108
-0.0539699
-0.0640434
-0.0632246
-0.0201622
-0.0218213
-0.023663
-0.0238523
-0.0582951
-0.0669321
-0.0830325
-0.0466187
-0.0414028
-0.0491412
-0.046282
-0.0935832
-0.0860294
-0.0850182
-0.0409634
-0.0436828
-0.0458789
-0.0440729
-0.106356
-0.0817531
-0.0689149
-0.0448123
-0.0451099
-0.0430037
-0.0393841
-0.0953752
-0.0661033
-0.065007
-0.0444461
-0.0419542
-0.0385193
-0.0365088
-0.0869175
-0.0665072
-0.0690686
-0.0410247
-0.0375245
-0.0358847
-0.0321656
-0.0784081
-0.0688083
-0.064481
-0.0360409
-0.0307329
-0.0304586
-0.0258172
-0.0656369
-0.0622964
-0.0582677
-0.0288288
-0.024642
-0.0245877
-0.0229678
-0.0625388
-0.0576457
-0.0540428
-0.0239885
-0.0237862
-0.0229726
-0.0234415
-0.0611136
-0.026002
-0.0335742
-0.035573
-0.0408243
-0.0241409
-0.0306538
-0.0683821
-0.0375404
-0.0521565
-0.0417048
-0.0417659
-0.0323427
-0.033342
-0.0598776
-0.0539873
-0.0484352
-0.0408891
-0.0371843
-0.032908
-0.0318282
-0.0587657
-0.0475666
-0.0567033
-0.0361703
-0.0338915
-0.031737
-0.0309223
-0.0621212
-0.0611195
-0.0640783
-0.032874
-0.0279432
-0.030134
-0.0265933
-0.0588558
-0.0618007
-0.0512486
-0.0264486
-0.0236325
-0.025509
-0.0237152
-0.0556895
-0.0476496
-0.0395583
-0.0231764
-0.0230325
-0.0236225
-0.0244934
-0.0477926
-0.0381558
-0.0378443
-0.0232451
-0.0238873
-0.0250982
-0.0274176
-0.0356079
-0.029252
-0.0418462
-0.024274
-0.0281281
-0.0207665
-0.0229982
-0.0529796
-0.0411724
-0.0333738
-0.0287489
-0.029256
-0.0231704
-0.0234323
-0.0450575
-0.0317291
-0.0321653
-0.0293444
-0.0302775
-0.0237788
-0.025527
-0.0558624
-0.0341189
-0.0422505
-0.0306789
-0.030644
-0.0262261
-0.0274182
-0.0648412
-0.0450464
-0.0464742
-0.0300108
-0.0268198
-0.02744
-0.0263202
-0.0484685
-0.044317
-0.0372636
-0.0257967
-0.024129
-0.0259346
-0.0258621
-0.0373109
-0.0358787
-0.0351091
-0.0241055
-0.0254181
-0.026627
-0.0299382
-0.0376454
-0.0361158
-0.0411846
-0.0262627
-0.0294153
-0.0318218
-0.037175
-0.0198152
-0.0165531
-0.019522
-0.0136664
-0.0132124
-0.0141985
-0.0132242
-0.0211553
-0.0212555
-0.0284782
-0.0132583
-0.0129638
-0.0132461
-0.0137678
-0.0215777
-0.0303788
-0.0322741
-0.0125348
-0.0108652
-0.0138096
-0.0130704
-0.0179326
-0.0319263
-0.02972
-0.0102589
-0.00892656
-0.0126085
-0.0110151
-0.015483
-0.028758
-0.0252527
-0.00863752
-0.00821263
-0.0104965
-0.00927043
-0.0138219
-0.0239542
-0.0202046
-0.00820343
-0.0084711
-0.00903318
-0.00891166
-0.0143212
-0.0191597
-0.0173718
-0.00862399
-0.00920111
-0.00902889
-0.0096132
-0.0166652
-0.0172827
-0.0179284
-0.0094282
-0.010206
-0.00984754
-0.0105751
-0.0226679
-0.0245889
-0.0316228
-0.0149092
-0.0140128
-0.0167186
-0.0170172
-0.0324814
-0.0327324
-0.0334125
-0.014261
-0.015225
-0.0170962
-0.0165887
-0.0346792
-0.0328236
-0.030156
-0.0152564
-0.0143436
-0.0161242
-0.014057
-0.0257047
-0.0335732
-0.0346494
-0.0255148
-0.034022
-0.0249075
-0.0263058
-0.0224607
-0.030045
-0.0318026
-0.022469
-0.0307148
-0.0214661
-0.0234271
-0.0215504
-0.0212029
-0.017203
-0.00946555
-0.00915808
-0.00915614
-0.00906451
-0.0174602
-0.0162529
-0.0150578
-0.00923736
-0.00975226
-0.00916621
-0.00971386
-0.017366
-0.0150034
-0.0148989
-0.0099655
-0.0106288
-0.00993698
-0.010652
-0.0276702
-0.0146705
-0.0178863
-0.0159115
-0.0169501
-0.0134289
-0.0131706
-0.0307408
-0.0194719
-0.0217306
-0.0169228
-0.0158309
-0.0128567
-0.011883
-0.0269233
-0.0212436
-0.019525
-0.0151802
-0.0128086
-0.0115072
-0.0101734
-0.0168144
-0.0252264
-0.0230822
-0.0192514
-0.0228395
-0.018668
-0.0171626
-0.0146479
-0.0211296
-0.0217126
-0.0165493
-0.0207985
-0.0157932
-0.0153774
-0.0154132
-0.0151805
-0.0134203
-0.00910544
-0.009025
-0.00893332
-0.0100826
-0.0145666
-0.0132283
-0.0136565
-0.00918243
-0.00990616
-0.0105379
-0.0119572
-0.0144823
-0.0140368
-0.0154876
-0.0101779
-0.0110125
-0.0124269
-0.0137837
-0.0148654
-0.00852841
-0.0107974
-0.00979185
-0.0104668
-0.00725481
-0.00808199
-0.018105
-0.0108952
-0.0109395
-0.0105416
-0.0106805
-0.0084185
-0.00912739
-0.0178752
-0.0112778
-0.0128019
-0.0105891
-0.009804
-0.00924517
-0.00931015
-0.0187542
-0.0133302
-0.0140765
-0.0094702
-0.00876207
-0.00933341
-0.00958911
-0.0153948
-0.0139833
-0.0129465
-0.00870853
-0.00915649
-0.00979664
-0.0106567
-0.0130343
-0.0127302
-0.0130547
-0.00948032
-0.0107826
-0.0111223
-0.0126138
-0.0139221
-0.0135157
-0.0151809
-0.011286
-0.0128679
-0.0132699
-0.0151146
-0.0162533
-0.0159699
-0.0183595
-0.0134049
-0.0149727
-0.0158911
-0.0179327