/*--------------------------------*- C++ -*----------------------------------*\
  =========                 |
  \\      /  F ield         | OpenFOAM: The Open Source CFD Toolbox
   \\    /   O peration     | Website:  https://openfoam.org
    \\  /    A nd           | Version:  10
     \\/     M anipulation  |
\*---------------------------------------------------------------------------*/
FoamFile
{
    format      ascii;
    class       volVectorField;
    location    "4.8";
    object      U;
}
// * * * * * * * * * * * * * * * * * * * * * * * * * * * * * * * * * * * * * //

dimensions      [0 1 -1 0 0 0 0];

internalField   nonuniform List<vector> 
12920
(
(102.127 -13.5199 39.4017)
(68.6788 -70.9246 -39.7242)
(117.337 -56.9475 -15.1728)
(52.3359 -26.8194 -3.49262)
(94.8839 -12.1909 -2.94843)
(58.786 -1.72303 -4.16667)
(82.8989 4.96619 -5.65303)
(71.7784 5.50696 -5.29368)
(86.6939 4.97355 -4.09017)
(84.827 2.52762 -2.92606)
(93.7918 0.679885 -1.70147)
(94.2583 -1.62924 -0.751711)
(99.7057 -2.74456 -0.0719013)
(100.885 -3.6922 0.300359)
(104.698 -4.03485 0.530174)
(105.966 -3.27952 0.390603)
(109.487 -2.51019 0.146633)
(111.614 -0.950296 -0.108463)
(113.395 0.124848 -0.07786)
(117.412 0.113111 -0.00744127)
(212.903 43.6631 90.6592)
(34.0272 81.7923 23.7811)
(117.276 88.7007 1.32881)
(64.9396 35.197 0.224134)
(100.835 41.3666 0.942579)
(63.9916 23.9485 0.579528)
(86.0178 25.2251 0.425962)
(72.129 15.5825 -0.0880424)
(86.6287 9.7896 0.262453)
(82.0328 3.56826 0.383733)
(88.8496 -0.701451 0.98474)
(85.2928 -3.02197 0.925692)
(86.4137 -4.69411 1.28949)
(82.495 -5.37502 1.16408)
(82.0471 -5.58024 1.04864)
(80.0391 -5.59876 0.81306)
(80.8711 -5.68239 0.724252)
(80.8436 -5.22435 0.661722)
(81.8573 -4.6329 0.54794)
(86.1589 -3.21731 0.402128)
(-29.326 81.6832 81.8652)
(-131.171 16.9413 -22.3281)
(78.0689 24.2366 -9.52834)
(-42.2811 -1.70104 -2.61059)
(77.25 -1.46865 -1.77656)
(21.459 0.60869 -0.047416)
(69.0103 -1.11015 0.992219)
(50.7186 -1.12707 0.493391)
(70.5555 -5.2869 0.835986)
(63.278 -5.56578 0.536545)
(71.1596 -7.30199 0.678637)
(67.3095 -6.57252 0.550592)
(70.585 -6.8033 0.61864)
(68.6277 -6.25003 0.504698)
(70.6751 -6.64477 0.491742)
(70.3556 -6.42695 0.396419)
(72.1661 -6.80345 0.380446)
(72.3892 -6.32676 0.27991)
(73.3853 -5.70054 0.122973)
(77.5397 -3.71776 0.00642853)
(1.45095 22.89 -74.0486)
(-39.3269 45.626 -61.4711)
(126.163 44.1414 1.68668)
(51.0607 11.0017 6.23389)
(93.1182 14.8748 5.18481)
(53.9584 8.78175 2.62889)
(80.9262 5.43131 2.27527)
(58.787 3.18823 1.30291)
(70.9436 -1.46453 0.975711)
(57.8624 -2.57632 0.312518)
(63.4747 -5.51446 0.118113)
(58.1665 -6.12878 0.0186123)
(62.5174 -8.12935 0.128227)
(61.8388 -8.55706 0.241137)
(65.2923 -9.55266 0.365983)
(66.1004 -9.46066 0.372381)
(69.1204 -9.87245 0.406045)
(69.5539 -9.26107 0.439256)
(70.4512 -8.55861 0.260026)
(74.5621 -5.14168 0.191973)
(240.539 286.65 -13.2137)
(-94.1121 103.468 5.80328)
(132.32 9.55862 -12.9033)
(-3.01538 -5.66097 -1.78426)
(99.7429 -8.29747 0.446127)
(40.1664 -5.33543 0.226053)
(83.2937 -13.8244 2.35874)
(60.9602 -3.45485 1.05406)
(75.8627 -8.50563 0.971407)
(64.3225 -3.28179 0.134317)
(68.844 -8.56806 -0.0563523)
(63.2655 -7.76881 -0.207023)
(66.6784 -11.5385 0.000680809)
(66.0422 -11.5494 0.0441147)
(69.0906 -13.1022 0.199263)
(69.4161 -12.7489 0.229595)
(71.5686 -12.7009 0.281298)
(71.2388 -11.4678 0.34017)
(71.0216 -10.3492 0.262707)
(73.2392 -6.71872 0.147739)
(243.03 371.459 -2.73826)
(75.9365 92.6287 22.7579)
(166.69 9.76505 18.8075)
(99.7898 12.3975 2.60262)
(137.382 -10.5417 3.17238)
(98.0539 -1.03632 1.23066)
(109.532 -12.2076 1.20405)
(91.0304 -3.22535 0.0063278)
(91.5335 -4.20783 -0.130716)
(80.5257 0.949909 -0.381559)
(78.8745 -1.81411 0.431943)
(70.1764 -4.02773 0.47724)
(70.4912 -9.6211 0.333186)
(68.5596 -11.7009 0.111912)
(70.3174 -13.833 -0.0964762)
(70.4932 -13.6426 -0.105944)
(72.2348 -13.467 -0.0492502)
(71.7277 -11.9475 0.0928165)
(70.8108 -10.2123 0.269386)
(71.4348 -5.90831 0.1042)
(290.027 0.0621364 110.622)
(179.739 17.4838 56.7832)
(182.93 -6.11768 37.1706)
(79.3064 3.91144 11.3413)
(124.07 -0.342458 6.24114)
(71.3271 10.1531 0.75137)
(88.3845 -11.9225 1.50434)
(68.3309 11.0103 0.251174)
(71.4368 1.53868 0.221688)
(60.4842 8.88607 0.382732)
(63.5627 -2.03198 0.592756)
(61.8358 -4.19982 0.722449)
(67.8523 -12.6449 0.358579)
(69.0698 -12.7516 0.212384)
(72.5127 -14.9232 0.0805902)
(72.708 -14.5825 -0.038098)
(74.8456 -14.111 -0.0893977)
(74.2998 -12.1173 -0.018586)
(73.1552 -9.84634 0.249439)
(72.5759 -5.48795 0.191435)
(194.434 -237.912 31.7532)
(179.702 -114.313 4.84826)
(238.005 -72.8763 10.9943)
(172.505 -29.6965 9.30383)
(171.218 -18.509 7.36792)
(119.437 17.4082 2.25527)
(116.096 3.0272 -0.33154)
(67.7262 -3.21361 0.475493)
(65.4181 16.5059 -0.139155)
(53.9733 5.70239 -0.521288)
(59.5255 5.18066 -0.828995)
(64.7826 -9.14122 -0.498605)
(73.8377 -13.2703 0.0698382)
(76.274 -17.0817 0.335861)
(77.3706 -17.8211 0.301043)
(78.1768 -16.1281 0.160543)
(80.6563 -15.1838 0.125389)
(80.1519 -11.9426 0.225758)
(78.959 -8.4111 0.39853)
(77.5673 -3.95279 0.342964)
(159.378 -85.3965 -151.171)
(8.69299 -27.9047 -15.612)
(115.642 -17.5616 -21.8309)
(46.1077 2.70367 -5.06009)
(91.8167 25.0969 3.00716)
(70.6178 32.7404 0.0152618)
(79.4635 37.0429 3.50652)
(68.4085 17.9002 -0.151345)
(61.563 16.8734 0.087731)
(63.2454 9.74705 -0.251984)
(69.5413 3.6208 -0.781984)
(79.3337 -10.0204 -0.155779)
(82.0526 -15.5846 0.146066)
(81.2133 -18.156 0.201069)
(81.8853 -19.6413 0.559192)
(81.2879 -18.7517 0.239209)
(83.4795 -17.4587 0.0451499)
(84.0666 -13.5732 -0.0155943)
(85.6145 -8.16513 0.261677)
(85.4171 -3.61487 0.338177)
(98.4101 -38.002 43.6784)
(-1.76563 -29.9978 -16.9263)
(126.701 -60.134 -4.80024)
(4.60761 -16.8666 2.32247)
(95.1444 -11.848 5.46771)
(40.1036 8.6672 -1.02752)
(70.735 30.5768 -0.507671)
(78.6923 26.4905 -0.401624)
(78.629 11.5402 0.394981)
(78.6119 -4.33754 0.416631)
(83.7281 -14.524 0.373211)
(87.6494 -18.3111 0.370447)
(84.9003 -16.735 0.220396)
(81.4862 -20.0056 0.013046)
(78.6006 -23.3183 0.380127)
(75.7947 -21.0845 0.0392174)
(78.3457 -18.4496 -0.336474)
(80.2463 -15.2968 -0.980324)
(85.1033 -9.68486 -0.621374)
(89.5889 -2.97999 -0.160682)
(8.28254 -85.106 91.5648)
(-9.80889 21.9444 -29.5465)
(104.388 10.287 -18.3412)
(55.374 10.9265 -8.90338)
(99.417 3.88746 -2.68648)
(65.3459 12.8949 -2.34689)
(74.7248 14.4563 0.320226)
(83.1664 8.56337 -0.496348)
(87.4835 -3.14346 -0.230707)
(85.2221 -9.91283 -0.290408)
(82.378 -19.73 0.0640109)
(79.5138 -20.2209 -0.194342)
(76.9835 -15.069 -0.126995)
(73.8222 -18.4748 0.198329)
(71.391 -23.1574 -0.0827895)
(71.3319 -22.0888 -0.0955634)
(73.0704 -19.0925 0.0523174)
(73.9066 -15.9442 -0.472373)
(76.8092 -12.2569 -1.06098)
(84.7824 -4.23006 -0.783607)
(6.14087 -159.47 -3.09443)
(-48.9142 -10.007 -29.6258)
(113.208 2.17352 -12.4989)
(16.1702 5.42234 -2.72734)
(91.633 14.8333 -4.26625)
(66.5172 4.12837 -3.28623)
(88.9281 11.6187 -1.1467)
(102.211 19.2167 -0.859299)
(96.0034 11.3667 0.105864)
(86.5739 -0.850268 0.010755)
(79.557 -14.0782 -0.0853055)
(70.1105 -14.8653 0.060857)
(68.9355 -14.6945 -0.0311045)
(72.6355 -19.5708 -0.200962)
(75.8556 -23.9411 -0.186037)
(74.3198 -23.1809 0.220283)
(74.3875 -20.0463 0.343785)
(73.7622 -16.1646 0.246207)
(73.1251 -11.9154 -0.609205)
(78.902 -3.65023 -0.786824)
(62.8054 114.612 87.1018)
(-65.0476 26.3149 -3.333)
(118.951 15.7718 -11.3955)
(46.09 11.4106 -3.00657)
(101.838 12.8047 -2.22809)
(70.3472 -12.5251 -0.981248)
(86.027 7.8025 -0.316049)
(76.7158 9.00352 -0.00764571)
(83.4437 3.8292 -0.333793)
(80.5925 -0.515684 -0.220711)
(83.232 -8.48341 0.0441083)
(78.4717 -12.2547 0.0351228)
(81.6938 -16.2663 -0.288842)
(83.1594 -20.7896 -0.568461)
(82.333 -23.0681 -0.00557596)
(80.7659 -23.3556 0.239231)
(79.5762 -20.0523 0.2922)
(76.0313 -15.9284 0.508207)
(72.3968 -10.629 -0.0439591)
(75.349 -2.36007 -0.393954)
(46.0638 -128.797 -120.97)
(-114.871 17.7754 -17.2916)
(104.531 22.0501 -11.5864)
(14.2574 25.9038 -0.760054)
(97.6872 24.6483 -0.429331)
(58.2444 12.7793 0.743072)
(84.0371 26.3503 0.204068)
(71.9996 2.77174 0.495105)
(84.9709 5.69631 -0.235348)
(82.7384 -5.93664 -0.626713)
(88.8679 -6.3265 -1.07265)
(87.7695 -12.6886 -1.41276)
(91.9273 -14.9273 -1.23397)
(91.1084 -20.4596 -0.229189)
(89.7841 -20.9539 0.376034)
(84.5198 -22.0483 0.450788)
(81.2895 -17.2761 -0.0483172)
(76.9448 -12.5033 0.12726)
(72.6376 -7.52616 0.0620778)
(74.1106 -0.896506 -0.0176219)
(170.456 21.8736 -44.2922)
(159.506 57.4471 -27.3919)
(193.741 0.751106 3.03085)
(89.7892 -11.1172 8.40437)
(112.306 -12.8092 5.94955)
(74.9679 -12.9866 1.74738)
(98.9685 -5.34566 0.740616)
(91.6978 -7.03467 -0.590621)
(99.5848 -4.6498 -1.02587)
(98.0651 -7.05037 -1.68161)
(101.453 -6.90337 -1.92028)
(100.312 -10.4661 -2.26919)
(101.993 -14.4417 -1.06663)
(98.9023 -20.0222 0.109505)
(93.9203 -18.7438 0.791799)
(83.3105 -17.9366 0.66032)
(76.8789 -12.6069 0.00493344)
(72.8505 -9.37066 -0.18773)
(70.1008 -5.00509 -0.165229)
(72.953 -0.420821 0.10282)
(318.552 46.4147 -25.9768)
(257.11 61.2884 6.88104)
(235.31 66.3913 30.4296)
(118.234 44.4781 17.4646)
(124.755 33.4255 8.88393)
(94.2975 11.9991 2.99612)
(111.526 14.3521 1.51909)
(102.959 4.76417 0.305598)
(111.994 8.30214 -0.19126)
(107.604 3.27345 -0.928601)
(110.729 3.24949 -1.06627)
(106.301 -2.51695 -1.1459)
(105.459 -8.83336 0.392245)
(98.4182 -13.8707 1.22084)
(91.7177 -9.70225 1.45481)
(80.6565 -8.95435 0.957813)
(75.3505 -6.89014 0.401746)
(71.2752 -6.14149 0.0436499)
(68.9906 -3.84237 -0.0650436)
(71.9755 -0.949116 0.131304)
(63.133 118.351 -112.606)
(-23.12 57.636 4.29122)
(96.468 20.4549 14.164)
(23.2458 -5.50249 5.84096)
(95.5685 -19.2419 3.0899)
(74.6298 -23.2877 2.1445)
(107.661 -18.0777 2.48628)
(103.976 -14.8197 2.12128)
(117.494 -5.48429 2.06507)
(115.89 -1.32589 1.50934)
(119.648 1.80408 1.38436)
(114.454 -1.71884 1.65317)
(105.84 -10.077 2.01109)
(87.8371 -14.2437 1.40786)
(81.771 -9.17049 0.780169)
(74.5399 -7.39478 0.403281)
(72.1121 -5.47173 0.365981)
(68.1239 -4.59008 0.302296)
(66.0101 -2.40286 0.245751)
(68.5478 -0.733111 0.169995)
(34.4245 -151.524 125.022)
(49.737 -69.263 -10.7111)
(144.482 -25.071 -6.27566)
(112.55 -17.2027 -6.42508)
(142.073 -13.0223 -4.97821)
(126.921 -15.8977 -3.21278)
(136.047 -13.6688 -1.44663)
(124.595 -15.6079 -1.11643)
(132.058 -10.2759 -0.508523)
(130.753 -7.45187 -0.366819)
(137.583 -0.192068 0.0195685)
(135.764 2.73971 0.953218)
(128.707 5.29577 2.07379)
(104.52 0.937304 2.02334)
(91.5658 -0.699371 0.599422)
(82.5716 -1.83048 -0.22565)
(79.8513 -2.41834 0.242666)
(74.1397 -2.88262 0.795686)
(68.9177 -2.4757 0.864764)
(68.1094 -0.763335 0.47304)
(-143.578 52.5199 8.70727)
(-94.5284 27.4074 -78.6103)
(136.072 43.0661 -20.2064)
(31.7156 10.9068 -4.4937)
(110.465 11.5997 -5.21496)
(79.7051 -3.25873 -1.99684)
(106.121 -3.47842 0.147803)
(90.4905 -10.0227 0.139384)
(102.149 -6.47468 0.384039)
(94.4912 -6.28626 -0.318403)
(101.336 -1.3912 0.126056)
(96.5281 1.26832 0.420653)
(97.755 7.18216 0.968933)
(92.5802 8.71604 0.24592)
(91.7191 8.5019 -1.00535)
(91.3435 4.60808 -2.12306)
(96.1386 1.11949 -1.43006)
(96.1821 0.352931 0.0100676)
(94.0776 2.08825 1.87671)
(88.2546 1.49749 2.09331)
(85.2357 42.5791 69.18)
(2.97733 -20.2145 -14.38)
(127.863 -25.3485 2.42925)
(96.683 -6.13937 -5.11621)
(130.869 -18.6449 -2.45755)
(111.332 -16.8865 -4.45966)
(123.134 -18.3482 -1.51444)
(99.6893 -15.9446 -1.62993)
(101.559 -10.4154 -0.468299)
(87.8576 -5.13425 -1.49931)
(94.1053 -0.406015 -1.38287)
(91.9729 2.92816 -1.20152)
(98.8742 5.02892 -0.823167)
(104.195 6.89351 -1.46936)
(118.458 7.824 -2.37881)
(131.59 4.76473 -3.01096)
(143.162 0.78987 -2.1382)
(146.556 -2.94017 -2.05119)
(150.032 -3.34519 -1.0091)
(154.538 -1.87873 -0.240622)
(264.067 -262.821 129.467)
(143.102 -147.995 33.5054)
(153.988 -42.3739 11.4102)
(73.6099 -15.1549 0.911465)
(104.997 -12.0574 -4.30364)
(69.5176 -8.84837 -6.62883)
(86.7974 -3.92915 -7.47598)
(69.1891 -2.90588 -7.07638)
(79.3498 -2.35498 -5.03463)
(73.2109 -3.64177 -3.40974)
(81.2303 -4.62201 -1.26207)
(80.9324 -5.22675 -0.264055)
(86.9482 -5.6483 0.813996)
(88.539 -5.26463 1.09671)
(93.513 -4.88629 1.4801)
(95.2438 -3.95365 1.143)
(99.2072 -3.52875 0.847873)
(100.702 -2.57292 0.499403)
(102.11 -2.12242 0.43893)
(106.325 -1.91291 0.511971)
(191.688 24.9916 141.309)
(-4.94628 79.8613 -25.4665)
(103.397 87.1343 -32.4084)
(43.0618 32.6481 -5.93269)
(88.7529 36.7243 0.787768)
(49.3292 16.3186 0.802224)
(75.0832 17.0164 0.872385)
(56.5723 7.41557 -0.152725)
(71.553 3.07964 0.623999)
(63.6802 -1.26455 0.418933)
(71.0654 -3.62526 1.3834)
(66.6228 -4.43438 1.15322)
(69.5319 -4.69216 1.60888)
(67.1295 -4.64487 1.22868)
(68.8979 -4.36258 1.10034)
(68.4352 -4.18479 0.806095)
(70.1384 -4.15124 0.706688)
(70.4681 -3.61959 0.564489)
(71.4871 -3.10478 0.411969)
(74.7438 -1.96049 0.278881)
(-60.1374 44.3717 89.4856)
(-149.666 34.7304 -41.2687)
(65.8046 34.6482 -14.2207)
(-48.9244 -0.603929 -3.33402)
(67.6989 -2.69851 -3.86331)
(5.90932 -2.96975 -0.571216)
(58.0212 -5.23227 1.38348)
(35.6253 -4.0145 0.511285)
(57.7726 -6.92115 1.44717)
(48.3569 -5.55842 0.758013)
(57.6118 -6.64106 1.11733)
(53.3121 -5.16049 0.738198)
(57.907 -5.32719 0.888907)
(56.3465 -4.58623 0.648799)
(59.3038 -4.94449 0.668038)
(59.2471 -4.61933 0.498406)
(61.4069 -4.85787 0.489771)
(61.5942 -4.29862 0.322901)
(62.4089 -3.69031 0.0953521)
(65.2485 -2.26759 -0.0173839)
(4.35336 78.5135 -111.569)
(-175.804 -21.494 -44.0772)
(68.9987 19.1792 4.85006)
(3.48277 -0.292244 3.70473)
(77.5525 11.7719 3.7628)
(37.5382 4.78822 2.85172)
(70.8424 1.67706 3.11269)
(47.0646 -0.00373181 1.57826)
(61.2948 -3.93263 1.28509)
(47.2524 -3.62176 0.196889)
(53.8255 -5.70227 0.139144)
(47.9682 -5.21384 -0.0264859)
(52.6111 -6.4907 0.223851)
(51.4632 -6.23576 0.358768)
(54.9445 -6.80891 0.543417)
(55.412 -6.40812 0.504666)
(57.9923 -6.53396 0.551686)
(58.2535 -5.79821 0.570809)
(59.0188 -4.94831 0.308334)
(62.0751 -2.72141 0.250633)
(-3.27023 80.7391 -112.966)
(-198.694 -58.7059 -1.99751)
(92.3935 -11.7665 -20.7871)
(-50.5224 -12.3104 -0.907862)
(84.6787 -6.51541 1.35604)
(13.2095 -0.749071 0.000682997)
(67.5462 -10.1904 3.32629)
(41.88 0.816082 0.855297)
(60.2806 -6.49527 1.343)
(47.59 -1.25795 0.0178452)
(54.2855 -7.38656 0.0931491)
(48.9404 -5.77717 -0.118821)
(53.5383 -9.1454 0.194622)
(52.7058 -8.00776 0.194757)
(56.0706 -9.06843 0.404094)
(56.1986 -8.11669 0.417212)
(58.3745 -7.95379 0.442604)
(58.0222 -6.68424 0.449502)
(58.1188 -5.87282 0.31896)
(60.3861 -3.34033 0.211446)
(171.265 -76.5528 45.1505)
(-129.073 -72.2086 28.7632)
(125.794 -52.7482 2.64603)
(38.6865 -18.5189 -0.912421)
(105.895 -23.9326 2.61239)
(61.2176 -1.88883 0.775759)
(85.9435 -11.9894 1.60493)
(65.495 -0.298268 -0.133211)
(69.4746 -4.13937 0.21703)
(57.9774 -0.076297 -0.202844)
(58.9001 -4.87 0.81978)
(53.9945 -5.88137 0.588046)
(55.8483 -9.17254 0.446765)
(54.9333 -9.35731 0.219409)
(56.4897 -10.1202 0.0591741)
(56.4485 -9.16616 0.0353605)
(58.0838 -8.62461 0.0862038)
(57.5019 -6.8738 0.257475)
(57.2028 -5.68864 0.390524)
(58.7216 -3.06343 0.183718)
(290.851 -25.7269 -10.29)
(45.6407 -10.5715 58.5412)
(151.225 -33.813 47.9784)
(33.9013 -5.72349 11.5911)
(104.379 -2.94686 8.91593)
(39.2673 12.9949 0.0693306)
(66.0567 -12.1685 2.65629)
(45.0783 14.3239 0.523568)
(53.6565 -0.0983251 0.831703)
(45.2382 7.03215 0.818613)
(51.4335 -4.89586 0.871521)
(50.9277 -4.46478 1.09064)
(56.3972 -10.8678 0.514007)
(56.947 -9.48027 0.303574)
(59.8224 -11.1517 0.206086)
(59.4947 -10.2229 0.109006)
(60.9461 -9.42661 0.0984062)
(59.7436 -7.27886 0.214979)
(58.8167 -5.6071 0.508839)
(59.4602 -2.89597 0.342059)
(215.134 -116.851 -48.1366)
(100.882 -25.3882 4.27979)
(176.435 -38.4511 8.48704)
(102.519 -10.3905 6.1769)
(128.794 -12.9903 8.59138)
(78.2419 24.1286 2.12522)
(86.9602 5.29818 4.60047)
(50.4823 0.930333 2.13812)
(52.3481 9.57447 0.728795)
(46.044 1.0031 -0.492531)
(52.9213 -0.793834 -0.786763)
(55.9347 -9.44424 -0.467122)
(62.4845 -11.4476 0.0334571)
(64.2157 -13.1055 0.381804)
(65.1524 -13.0244 0.121085)
(65.8733 -10.9411 0.185715)
(67.0138 -9.63534 0.398195)
(65.4439 -6.46732 0.589392)
(63.6693 -4.17318 0.82169)
(63.22 -1.65149 0.601384)
(146.975 -117.32 -32.4725)
(69.392 0.956034 9.09966)
(98.1627 13.4852 -0.461559)
(4.38517 15.2168 -3.62442)
(67.9146 27.0783 5.25529)
(46.0303 35.5235 -1.58151)
(65.4799 38.4451 1.15628)
(51.224 14.7302 2.33598)
(53.0411 9.94037 1.08724)
(57.1334 0.292982 0.0459562)
(63.6024 -5.82019 -0.550376)
(67.5023 -12.5569 -0.155881)
(69.7221 -14.3261 0.203053)
(70.4197 -14.9757 0.324644)
(71.9451 -14.8185 0.394581)
(70.7465 -12.8098 0.0739683)
(71.8082 -10.2719 -0.0012786)
(70.7117 -5.9668 0.137549)
(69.8273 -2.40735 0.573306)
(69.1457 -0.265718 0.587404)
(176.969 -39.9793 23.1568)
(0.0036932 -22.7364 -14.6253)
(103.27 -32.7321 -8.19674)
(-18.6378 -1.91423 2.5643)
(84.6231 -6.5283 2.98074)
(42.2418 9.7867 -0.468086)
(63.1832 26.9447 -1.12989)
(66.6929 17.6976 1.67631)
(67.4044 2.40554 1.98978)
(69.6355 -6.77849 1.70466)
(73.5222 -11.9207 1.63568)
(75.3511 -14.4467 1.22942)
(74.3933 -15.7567 0.694674)
(73.4573 -17.8726 0.230649)
(71.5898 -17.7413 0.380611)
(68.7645 -13.9117 -0.592807)
(70.6698 -10.3944 -0.940738)
(70.8199 -6.25493 -1.19183)
(71.7171 -1.25819 -0.526056)
(72.8854 1.4497 -0.0640518)
(173.16 -47.7997 -48.8355)
(-28.5808 -0.910859 -34.5442)
(95.4785 14.2414 -21.4281)
(22.9704 18.2109 -9.08449)
(71.0027 7.29262 -1.24565)
(45.8006 14.9943 -1.03154)
(64.2547 12.7926 1.82465)
(70.508 8.20235 1.15215)
(73.1062 -3.1378 0.546402)
(71.8758 -9.82695 0.131821)
(70.6883 -15.0726 0.448524)
(69.0427 -14.1946 -0.328197)
(66.8519 -13.9658 -0.0882584)
(65.1627 -16.758 0.506069)
(63.119 -17.8803 -0.201063)
(61.9633 -15.4395 -0.787271)
(64.1468 -11.6261 -0.602974)
(65.6878 -8.53481 -1.15782)
(67.7111 -2.87717 -1.35441)
(70.7707 1.29918 -0.829978)
(242.952 -9.39584 -18.7018)
(-9.07337 5.59659 -11.1506)
(100.579 1.19764 -13.0062)
(12.3213 5.27681 -1.27158)
(75.4146 6.67475 -5.27864)
(43.7155 -5.69365 -5.21332)
(69.2569 -2.45305 -3.80202)
(72.6627 4.39403 -0.575294)
(72.333 -0.0920418 1.74552)
(68.2859 -6.19397 0.0681298)
(62.9713 -11.6711 -0.272483)
(60.0071 -12.4777 -0.207931)
(60.4118 -14.0545 -0.295452)
(61.7554 -17.1549 -0.55124)
(62.4625 -18.4332 -0.419252)
(60.941 -16.4792 -0.161406)
(62.0068 -12.3842 0.122877)
(62.5187 -9.37786 -0.170274)
(63.0407 -3.97765 -1.0284)
(66.5974 1.07761 -0.918253)
(57.098 157.188 -61.5238)
(-71.5359 40.9441 -34.3313)
(98.5656 16.9289 -28.0729)
(29.6988 7.46658 -5.27686)
(87.8297 2.75544 -4.09792)
(51.8947 -22.9931 -1.2625)
(69.9868 -0.376352 -0.110995)
(58.9476 -0.139064 0.440176)
(65.2142 -2.29668 -0.372544)
(61.0792 -5.42518 -0.419262)
(64.4303 -9.62587 -0.30732)
(62.4768 -12.1195 -0.425766)
(65.8335 -15.4092 -0.855548)
(65.5579 -18.1343 -0.622965)
(63.6627 -18.1624 -0.11026)
(63.4442 -17.0257 0.442589)
(63.1169 -12.4183 0.425405)
(61.4686 -9.15097 0.404154)
(60.1561 -3.78448 -0.290727)
(63.1199 0.773 -0.459292)
(45.3831 -138.016 -11.3213)
(-76.4823 29.1372 -43.7541)
(91.9621 18.5767 -23.3545)
(10.7171 11.6696 -2.88077)
(87.5674 9.37657 -2.75595)
(46.5972 -1.13056 0.719565)
(71.9487 15.6437 -0.0359319)
(58.4748 -6.9411 0.558401)
(70.0614 -0.331529 -0.534329)
(65.5857 -10.4052 -1.04408)
(69.9937 -8.85786 -1.36264)
(67.7606 -14.7183 -1.49739)
(69.3368 -15.0446 -1.02971)
(67.8385 -18.3004 0.199237)
(67.7706 -17.2985 0.693239)
(65.3891 -16.0678 0.784693)
(63.6204 -10.3622 0.0614855)
(60.8223 -6.76104 0.201168)
(58.8821 -2.25134 0.026247)
(61.6638 1.04742 0.111265)
(161.303 48.2115 35.9777)
(38.8741 10.3859 18.2023)
(116.541 -13.4318 20.0479)
(45.8928 -16.7915 7.92462)
(98.2793 -15.955 4.26942)
(62.9601 -16.224 0.178456)
(87.7254 -8.45416 0.362317)
(76.4316 -9.98256 -1.44016)
(82.3612 -6.46532 -1.38345)
(77.1089 -9.40715 -2.39968)
(78.4043 -9.35642 -2.22479)
(74.6563 -13.8792 -2.39344)
(74.7052 -15.843 -0.720421)
(71.965 -18.2013 0.558556)
(70.2815 -15.847 1.09594)
(64.3259 -13.411 0.933247)
(61.4637 -8.13008 0.0573559)
(58.7111 -5.50849 -0.161982)
(57.1676 -1.67502 -0.046847)
(60.6985 0.786937 0.350211)
(104.639 53.3582 252.156)
(7.24858 19.765 35.7066)
(138.14 46.0652 28.6278)
(73.4474 33.8245 14.273)
(110.877 27.447 6.58793)
(82.4499 8.55964 1.65431)
(99.3191 10.493 1.28679)
(85.659 -1.04977 -0.0146602)
(92.5756 2.08051 -0.261548)
(83.9923 -5.00933 -1.40138)
(85.5035 -5.35997 -1.03793)
(78.3435 -11.6546 -0.849609)
(77.6617 -13.0292 1.08941)
(73.2848 -14.2082 1.68064)
(70.953 -9.56433 1.95916)
(63.982 -7.48953 1.32574)
(61.5018 -4.82541 0.517108)
(58.464 -3.80694 0.0524497)
(56.8906 -1.73498 0.0464645)
(60.206 0.130256 0.386738)
(110.599 77.1623 13.4839)
(-34.1603 16.8859 10.8457)
(85.2612 8.83356 18.541)
(11.6055 6.78973 5.44394)
(86.9376 -3.18545 2.44678)
(60.5098 -9.22092 1.48922)
(93.721 -6.60313 3.1021)
(85.5774 -7.41317 2.24574)
(98.16 -2.09257 2.42211)
(92.491 -3.07523 1.34433)
(94.897 -2.8178 1.51121)
(86.6003 -7.94137 1.73452)
(81.4906 -11.4689 3.04681)
(69.9718 -12.3212 2.20526)
(66.5856 -6.72762 1.21909)
(60.6406 -4.7174 0.617201)
(59.3939 -2.78379 0.460304)
(56.4551 -2.26298 0.337513)
(55.0355 -0.880589 0.373649)
(58.0547 0.153303 0.347982)
(83.6141 -41.512 17.3277)
(51.481 -10.5554 -23.837)
(160.665 5.66602 -5.68497)
(120.48 4.64445 -6.36045)
(139.335 0.703859 -7.56674)
(118.392 -4.45064 -5.57226)
(124.77 -2.37544 -1.50956)
(109.668 -4.79471 -1.02549)
(113.412 0.854865 0.184933)
(105.612 0.681047 -0.454698)
(107.816 4.01428 -0.0700475)
(100.832 2.25332 1.11404)
(94.7469 2.59299 4.46681)
(78.8123 -0.894563 3.50115)
(72.5674 -0.556683 1.15602)
(65.4741 -0.804863 -0.0383721)
(63.8695 -0.501398 0.378658)
(60.3978 -0.531821 1.03052)
(57.7376 -0.523902 1.09703)
(58.739 0.137281 0.579718)
(213.214 257.288 -36.9366)
(20.4681 42.5718 -44.6771)
(140.553 41.556 -35.8282)
(45.2395 16.2921 -4.08345)
(106.059 17.8756 -5.01765)
(66.4298 2.71561 -0.960411)
(94.1351 6.0185 1.4268)
(75.6605 -0.423735 0.00911372)
(89.9585 3.59942 0.200042)
(80.1615 1.79162 -0.86883)
(86.0836 4.3969 0.266371)
(78.3617 4.33636 0.618079)
(79.6278 6.88676 1.25713)
(74.4164 6.70201 -0.386385)
(74.5786 5.4978 -1.68378)
(71.8529 3.05931 -2.3423)
(72.5449 2.30541 -1.64787)
(71.2086 2.64844 0.428632)
(70.7335 4.11435 3.2032)
(71.5565 2.96923 2.41143)
(91.4455 -114.354 -107.021)
(-92.4608 -28.0723 -28.2861)
(125.771 -1.12868 -8.76727)
(59.4304 6.93028 -3.31277)
(105.471 -9.24763 1.30894)
(60.2672 -8.01623 -4.07163)
(87.4988 -6.13011 0.366562)
(62.8643 -3.00165 -2.22856)
(80.3588 2.54186 -0.229235)
(70.35 4.89355 -1.27367)
(81.0515 7.99309 0.00593771)
(78.3874 8.09625 0.327027)
(86.7203 8.51859 1.13087)
(89.3567 6.4253 -0.57629)
(98.1037 3.74189 -1.9723)
(99.0322 0.311259 -3.30602)
(101.889 -1.01134 -3.08423)
(101.317 -0.952224 -2.30917)
(101.367 1.90177 -0.92354)
(111.926 5.32136 0.160326)
(179.457 -79.1062 -43.1024)
(78.4357 -83.1513 14.4612)
(127.105 -65.7674 4.04498)
(69.2527 -30.1868 -1.16961)
(104.557 -21.7459 -3.91151)
(69.8013 -15.0028 -6.26138)
(86.3923 -7.97637 -6.49544)
(64.5784 -5.62433 -6.46372)
(72.6673 -4.23195 -4.11148)
(63.2918 -5.00204 -2.72269)
(71.2857 -5.3831 -0.463299)
(70.0928 -5.24686 0.352437)
(76.5506 -5.11624 1.47332)
(78.071 -4.14844 1.41858)
(83.5474 -3.50675 1.72876)
(85.484 -2.68706 1.27601)
(89.7131 -2.40863 1.0129)
(90.9874 -1.70621 0.700298)
(92.1623 -1.6202 0.611327)
(96.3087 -1.44385 0.709201)
(597.677 53.4623 -95.561)
(322.128 56.7982 -30.9834)
(164.586 80.6521 -2.04053)
(42.5248 23.5049 2.43678)
(82.9223 31.4641 1.19076)
(35.8257 11.3954 0.377973)
(65.552 13.0135 0.453186)
(43.0413 3.83654 -0.518764)
(59.7027 0.645017 0.524236)
(49.0765 -2.46652 0.137296)
(57.3146 -3.85142 0.965266)
(52.0305 -3.87601 0.642397)
(56.3401 -3.69952 1.08271)
(54.4491 -3.43401 0.732712)
(57.3374 -3.07031 0.661648)
(57.255 -2.91676 0.44623)
(59.4562 -2.85031 0.423601)
(59.7885 -2.35583 0.296378)
(60.6596 -1.9608 0.192978)
(63.3386 -1.03863 0.0830369)
(10.6545 123.694 60.6595)
(-146.079 36.0674 -52.8076)
(70.1971 38.2651 -18.5934)
(-49.6954 0.279155 -2.45138)
(60.928 -3.65996 -5.04513)
(-5.76164 -4.29498 -0.735167)
(49.4823 -6.55618 1.00316)
(23.474 -4.3757 0.325026)
(47.7714 -6.7562 1.35698)
(36.402 -4.47464 0.510365)
(46.9371 -5.42115 1.00451)
(41.911 -3.6583 0.570451)
(47.3904 -4.01327 0.746322)
(45.6745 -3.21485 0.491338)
(49.1057 -3.60764 0.549247)
(48.9268 -3.23573 0.384132)
(51.2462 -3.41386 0.391913)
(51.2498 -2.86504 0.229272)
(51.8616 -2.41666 0.0499384)
(54.0343 -1.32523 -0.0424201)
(26.0698 96.1946 -60.7751)
(-158.028 -57.0712 -65.085)
(67.4043 0.351097 -19.7441)
(-3.24757 -8.66004 0.437161)
(68.9828 8.4164 1.21216)
(24.1524 1.78245 2.38798)
(61.2114 -0.396479 2.61483)
(35.3818 -1.04129 1.20292)
(52.1406 -4.39223 1.01174)
(37.2595 -3.12994 -0.0235132)
(45.1555 -4.94357 0.109)
(38.6842 -3.89823 -0.0605576)
(43.7156 -4.98918 0.186336)
(41.9452 -4.45077 0.285525)
(45.3938 -4.86709 0.469746)
(45.4103 -4.41762 0.426729)
(47.7781 -4.44665 0.469134)
(47.852 -3.70375 0.464023)
(48.5168 -3.03581 0.25452)
(50.935 -1.50443 0.219461)
(98.4888 -94.9541 -25.9346)
(-128.639 -86.7425 -39.5509)
(92.2734 -28.4417 -34.6911)
(-63.1537 -13.8851 -1.92223)
(76.0485 -5.22828 -2.10285)
(-5.16727 1.04542 0.183794)
(55.7357 -9.22956 2.63383)
(26.0937 2.40629 0.47667)
(48.0488 -6.32012 1.19955)
(34.6501 -0.244207 -0.0661983)
(43.6046 -6.6125 0.200055)
(38.0535 -3.95975 -0.0598283)
(43.4569 -7.0996 0.260541)
(42.152 -5.31317 0.215539)
(45.6187 -6.33823 0.372874)
(45.391 -5.20835 0.374278)
(47.5349 -5.1784 0.391948)
(47.095 -4.05521 0.37235)
(47.335 -3.57776 0.273327)
(49.4457 -1.75104 0.219315)
(105.936 -272.766 17.7586)
(-123.071 -100.378 17.5457)
(103.253 -73.9924 -21.447)
(14.0193 -25.215 0.153751)
(88.1212 -23.5881 -0.0534991)
(37.8502 0.287448 0.559391)
(70.918 -12.3532 1.39652)
(47.9423 0.599852 -0.239077)
(55.078 -5.39492 0.29815)
(43.2803 -0.655482 -0.225264)
(46.1735 -5.90194 0.580688)
(42.1316 -5.17875 0.374551)
(44.8577 -7.72425 0.366766)
(43.9229 -6.82735 0.220249)
(45.5694 -7.31059 0.119385)
(45.391 -6.0215 0.0683284)
(46.9157 -5.65127 0.0861819)
(46.3328 -4.15288 0.234017)
(46.285 -3.49464 0.347692)
(48.0877 -1.68583 0.214369)
(307.743 -182.441 -106.623)
(-23.6206 -75.0675 73.607)
(132.461 -50.9966 42.9941)
(-3.25785 -8.52939 11.0936)
(90.3043 -1.30214 7.65741)
(16.6991 14.1907 -0.190802)
(51.75 -13.8579 2.44155)
(29.3169 15.504 0.292182)
(41.9045 -2.01622 0.757249)
(34.2292 6.29748 0.68154)
(41.9204 -5.57583 0.666519)
(40.9147 -3.22507 1.02743)
(46.166 -8.85794 0.586973)
(46.1021 -6.46087 0.46485)
(48.8116 -8.02952 0.338116)
(48.0919 -6.8361 0.214741)
(49.2721 -6.26255 0.177516)
(47.9919 -4.42565 0.227887)
(47.3145 -3.47225 0.480843)
(48.5658 -1.62523 0.355336)
(249.013 7.94228 -191.726)
(128.729 32.3074 -13.3927)
(150.921 -17.5633 6.65824)
(61.4828 -1.51278 7.42464)
(104.856 -9.0082 9.3248)
(53.9365 27.0914 2.36824)
(66.605 0.549855 4.68666)
(36.4195 4.18384 1.6692)
(41.5503 4.23062 0.13959)
(37.9235 -0.564767 -0.499098)
(45.1262 -2.98951 -0.863683)
(46.581 -7.7777 -0.132719)
(52.1113 -8.80374 0.127881)
(53.1363 -9.40633 0.485254)
(53.3424 -9.14309 0.61002)
(53.5675 -6.74125 0.47325)
(53.9996 -5.84406 0.597871)
(52.2826 -3.33605 0.594468)
(50.755 -2.14117 0.752753)
(51.1756 -0.648261 0.520967)
(84.3896 -20.9668 -103.859)
(-26.6676 29.454 14.6814)
(85.6712 17.2985 2.53733)
(-27.7566 14.9007 -2.71239)
(56.1838 24.4763 3.35114)
(28.1421 36.4905 -1.667)
(44.8441 32.5142 0.508735)
(37.9769 9.27578 1.97803)
(45.5896 4.42374 0.854019)
(49.0622 -3.94114 -0.235554)
(54.2306 -7.59604 -0.487518)
(56.189 -11.2421 -0.283296)
(58.4159 -11.6025 0.224386)
(59.3412 -11.2689 0.504929)
(60.3291 -10.3007 0.512806)
(58.1876 -7.65701 0.517092)
(58.487 -5.2009 0.211053)
(56.7233 -1.90358 0.280534)
(55.2602 0.000330873 0.571124)
(55.1634 0.865759 0.528328)
(206.758 -1.19319 112.303)
(35.3392 8.28844 15.9747)
(91.7011 -22.8031 5.49532)
(-19.1716 3.35255 3.60933)
(71.3792 -5.29729 0.400849)
(31.7203 12.2414 0.989287)
(51.8137 23.8219 0.0556938)
(55.0288 9.1397 2.10686)
(57.372 -2.06024 2.0269)
(59.778 -7.78807 1.47689)
(62.1883 -10.5408 1.18469)
(63.1139 -12.2812 0.998814)
(62.7763 -13.414 0.703019)
(62.5391 -13.9803 0.495467)
(61.0811 -12.386 0.319181)
(58.0539 -8.12237 -0.355559)
(58.7827 -4.8969 -0.731071)
(57.9631 -1.38128 -0.727702)
(57.4157 1.72049 -0.306386)
(57.9927 2.64861 -0.0123484)
(205.761 50.1704 -87.6896)
(70.903 43.7645 -36.1001)
(91.7186 22.795 -21.9622)
(3.18535 19.8013 -9.86343)
(55.4075 6.34721 -3.02984)
(27.6564 13.2589 -1.03881)
(48.7022 10.1128 1.74202)
(57.321 3.72375 1.64895)
(60.2707 -3.91448 1.1282)
(60.4246 -8.95623 1.68105)
(61.4541 -12.3046 -2.30765)
(60.1645 -11.4588 -0.54664)
(57.1341 -12.1233 0.155701)
(56.5599 -13.7925 0.345767)
(54.7906 -13.0996 -0.309602)
(52.6983 -9.95295 -0.679156)
(54.4248 -6.4545 -0.780492)
(55.0972 -3.61356 -1.03462)
(55.4674 0.925315 -1.02163)
(57.1304 2.70256 -0.56539)
(86.8013 -66.5173 94.0678)
(-0.604863 6.16434 -8.95597)
(85.2106 -0.959397 -9.44571)
(7.47336 5.01971 -1.19733)
(64.2485 1.91178 -5.30094)
(30.6793 -10.6189 -3.78539)
(53.6465 -7.91721 -1.88761)
(54.9856 -1.32359 0.482745)
(56.5178 -2.81635 1.36515)
(54.674 -6.10673 0.104998)
(52.2377 -8.9357 -0.290774)
(51.1676 -10.2969 -0.367811)
(51.7323 -12.3094 -0.414272)
(52.4302 -14.2102 -0.56989)
(52.1404 -13.836 -0.471297)
(50.1352 -11.4029 -0.121131)
(51.2748 -7.54864 -0.0903912)
(51.9516 -4.9858 -0.367196)
(52.0814 -0.306959 -0.87035)
(54.494 2.24225 -0.649484)
(172.641 180.487 -47.634)
(36.4908 58.1159 -44.2769)
(98.6659 20.7002 -38.0109)
(26.5404 6.41145 -8.64379)
(77.8679 -1.63119 -5.27119)
(36.8551 -26.7076 -1.47786)
(55.7175 -2.24413 0.196114)
(44.0889 -2.71648 0.494108)
(51.6724 -3.15835 -0.277606)
(47.634 -5.74801 -0.374098)
(51.5453 -8.51788 -0.384365)
(49.9336 -10.9517 -0.50673)
(52.6318 -13.4104 -0.807934)
(51.7593 -15.0551 -0.492977)
(49.9681 -13.5045 0.171953)
(50.5398 -12.1686 0.345798)
(50.8777 -7.64633 0.187913)
(50.0373 -5.23263 0.127824)
(49.3793 -0.855555 -0.316786)
(52.0784 1.44141 -0.229904)
(175.857 25.9817 -131.809)
(-29.7389 28.8983 -33.1304)
(95.173 17.4778 -24.18)
(13.2205 4.10393 -3.13409)
(79.4382 2.67201 -3.52622)