/*--------------------------------*- C++ -*----------------------------------*\
  =========                 |
  \\      /  F ield         | OpenFOAM: The Open Source CFD Toolbox
   \\    /   O peration     | Website:  https://openfoam.org
    \\  /    A nd           | Version:  10
     \\/     M anipulation  |
\*---------------------------------------------------------------------------*/
FoamFile
{
    format      ascii;
    class       volVectorField;
    location    "4.8";
    object      U_0;
}
// * * * * * * * * * * * * * * * * * * * * * * * * * * * * * * * * * * * * * //

dimensions      [0 1 -1 0 0 0 0];

internalField   nonuniform List<vector> 
12920
(
(80.7501 -63.8695 26.3343)
(64.8099 -78.0217 -41.7691)
(128.45 -59.0091 -15.3474)
(64.101 -27.4044 -3.37419)
(108.357 -11.7802 -2.94991)
(72.058 -1.40435 -4.18287)
(95.4791 5.50502 -5.66877)
(83.9249 5.88944 -5.2846)
(98.4303 5.3474 -4.08594)
(96.1638 2.79786 -2.91294)
(104.799 0.912958 -1.67715)
(104.921 -1.4345 -0.739336)
(110.049 -2.59514 -0.0619371)
(110.954 -3.56072 0.303779)
(114.529 -3.92068 0.531233)
(115.599 -3.17718 0.386805)
(118.925 -2.41551 0.141199)
(120.855 -0.863493 -0.110523)
(123.121 0.177718 -0.073566)
(129.217 0.128149 -0.00389305)
(216.714 62.9532 67.1087)
(58.3151 82.2372 20.4329)
(134.687 88.056 -0.0466403)
(79.3877 35.3907 -0.11515)
(115.452 41.7984 0.857305)
(77.4767 24.6438 0.535449)
(98.8268 25.7 0.401014)
(84.2311 16.1261 -0.116231)
(98.3307 10.2458 0.251636)
(93.2546 4.03167 0.379956)
(99.7462 -0.280522 0.976503)
(95.7971 -2.62226 0.924115)
(96.6232 -4.31942 1.29067)
(92.4281 -5.03486 1.16164)
(91.7754 -5.27541 1.04586)
(89.5751 -5.34061 0.816301)
(90.2206 -5.4724 0.731122)
(90.0061 -5.05058 0.660644)
(91.5139 -4.50862 0.546415)
(97.9182 -3.16108 0.399408)
(-43.5433 86.7889 70.5792)
(-132.799 14.0539 -24.5066)
(89.1835 20.3913 -10.3521)
(-28.7218 -2.12523 -2.45751)
(90.6014 -1.05072 -1.71933)
(34.9594 1.40587 0.00320603)
(81.4487 -0.0179491 1.01932)
(62.9315 -0.0308085 0.546319)
(82.2005 -4.18871 0.856516)
(74.5361 -4.55049 0.542425)
(82.0234 -6.37093 0.678834)
(77.8413 -5.73506 0.549188)
(80.8129 -6.0632 0.618623)
(78.5633 -5.60956 0.50219)
(80.3822 -6.10526 0.49024)
(79.8505 -5.98174 0.395104)
(81.4702 -6.45045 0.38134)
(81.4931 -6.05734 0.280312)
(82.9592 -5.51473 0.125522)
(89.1919 -3.62554 0.00867968)
(28.1902 5.35954 -75.5169)
(-0.429493 39.7113 -63.0196)
(146.935 43.9658 2.57388)
(69.1314 11.3606 6.96984)
(108.863 16.7118 5.14404)
(68.0936 10.7317 2.64182)
(94.0611 7.23499 2.2858)
(70.7964 4.93198 1.30564)
(82.4804 0.0757311 0.97737)
(68.7973 -1.19079 0.305454)
(74.1218 -4.2725 0.109142)
(68.4361 -4.98809 0.0132263)
(72.5381 -7.12395 0.128146)
(71.5948 -7.67987 0.240438)
(74.852 -8.81083 0.364191)
(75.4705 -8.85303 0.371279)
(78.3086 -9.39341 0.408175)
(78.546 -8.90447 0.4425)
(79.907 -8.31937 0.265723)
(86.0653 -5.01333 0.192875)
(256.569 333.018 -47.4599)
(-85.977 101.618 5.67377)
(153.738 11.3725 -14.1311)
(11.9462 -2.58618 -1.65744)
(114.812 -5.51498 0.535455)
(53.6198 -2.44567 0.352121)
(95.5623 -11.2181 2.41702)
(72.8767 -0.901276 1.05787)
(87.1073 -6.30651 0.971779)
(75.2133 -1.22395 0.144651)
(79.4049 -6.86231 -0.0410596)
(73.515 -6.26506 -0.195231)
(76.6183 -10.232 -0.000677931)
(75.703 -10.4259 0.0420104)
(78.5298 -12.1628 0.195391)
(78.6485 -11.9747 0.229594)
(80.6089 -12.0946 0.283928)
(80.0746 -11.0174 0.342178)
(80.3171 -10.0637 0.267726)
(84.5452 -6.57536 0.150538)
(263.47 377.494 -18.6325)
(105.557 91.7199 22.1622)
(189.809 13.2417 20.186)
(118.434 17.455 2.85231)
(153.013 -6.44973 3.33202)
(111.81 2.45201 1.27537)
(122.164 -8.89466 1.21218)
(102.579 -0.162653 0.0449873)
(102.533 -1.43858 -0.123307)
(90.9801 3.48343 -0.388215)
(88.9573 0.437024 0.449209)
(80.0338 -2.11275 0.492054)
(80.1148 -7.99972 0.332043)
(77.9423 -10.3153 0.11098)
(79.5078 -12.6664 -0.0958557)
(79.5063 -12.6855 -0.106655)
(81.0701 -12.7272 -0.0486772)
(80.3664 -11.4081 0.0943586)
(79.9214 -9.86811 0.273937)
(82.5075 -5.73872 0.108731)
(306.045 29.1 90.5739)
(191.079 35.1739 52.6996)
(200.363 4.08532 36.9103)
(93.8566 11.6603 10.8654)
(137.424 5.90077 6.0402)
(83.5518 15.1142 0.695703)
(100.112 -7.76041 1.52146)
(79.5126 14.6284 0.253966)
(82.1087 4.69522 0.24319)
(70.847 11.6043 0.377383)
(73.5931 0.40369 0.615036)
(71.5468 -1.99629 0.71398)
(77.2782 -10.7941 0.360335)
(78.2783 -11.1576 0.211224)
(81.492 -13.5358 0.0866272)
(81.4822 -13.453 -0.0418283)
(83.4386 -13.256 -0.0966114)
(82.7034 -11.4951 -0.0223682)
(82.0548 -9.44517 0.251846)
(83.386 -5.29973 0.196615)
(201.012 -211.908 9.04646)
(189.441 -99.9551 2.73681)
(252.874 -62.0074 11.2727)
(186.012 -20.9079 9.6278)
(183.214 -12.4195 7.42901)
(130.792 22.6384 2.1716)
(125.775 5.46221 -0.364595)
(78.3103 -0.711827 0.473755)
(75.9534 18.4365 -0.150294)
(63.9223 7.19299 -0.558976)
(69.4648 6.30811 -0.827219)
(74.3484 -8.35445 -0.492621)
(82.9943 -12.7212 0.0852223)
(85.195 -16.6813 0.361373)
(86.1398 -16.1586 0.329707)
(86.6451 -14.8453 0.162725)
(88.9461 -14.2158 0.122259)
(88.2915 -11.2356 0.220961)
(87.622 -7.95738 0.398856)
(88.0858 -3.7464 0.344563)
(155.198 -90.548 -149.191)
(5.30277 -20.1266 -14.8779)
(128.828 -4.00069 -22.4108)
(57.4547 12.4823 -5.22919)
(103.125 32.9142 3.15375)
(80.3065 36.8412 -0.00198902)
(89.7499 39.9763 3.39283)
(78.8572 20.4059 -0.15734)
(71.7291 19.0715 0.0860625)
(73.1764 11.543 -0.251716)
(79.2961 5.0124 -0.736686)
(88.5275 -9.04732 -0.149914)
(91.0019 -14.8206 0.152873)
(90.066 -17.5334 0.214659)
(90.1849 -19.2496 0.629513)
(89.503 -17.3892 0.259518)
(91.4771 -16.4335 0.0428182)
(91.9664 -12.8191 -0.0139771)
(94.0761 -7.67531 0.268427)
(95.6376 -3.39863 0.344492)
(117.064 -21.5792 57.8487)
(23.17 -13.8396 -16.554)
(143.372 -50.5869 -5.49774)
(12.6553 -8.09167 2.45728)
(104.489 -4.01209 5.49485)
(47.3077 15.7908 -1.08042)
(80.0542 36.4481 -0.579838)
(88.6306 31.385 -0.368885)
(88.2942 15.5967 0.417096)
(88.1281 -0.550734 0.403757)
(92.7591 -11.445 0.369726)
(96.4417 -15.5475 0.379063)
(93.4391 -14.4125 0.221161)
(90.0614 -18.0888 0.0201358)
(86.8023 -21.7577 0.44622)
(83.5862 -19.7854 0.0595174)
(86.033 -17.451 -0.338197)
(87.8951 -14.5622 -0.97823)
(93.3781 -9.18343 -0.609652)
(99.5442 -2.74362 -0.159378)
(2.90709 -43.1002 72.6586)
(-9.94596 42.6988 -30.0334)
(109.946 20.2337 -19.027)
(64.5893 20.694 -9.02482)
(108.847 12.5921 -2.77677)
(73.3205 19.7925 -2.44597)
(83.6907 20.5256 0.233289)
(92.8104 14.1577 -0.482661)
(96.5749 1.63681 -0.212153)
(93.9611 -6.15962 -0.262213)
(90.7987 -16.5315 0.0869055)
(87.8059 -17.3895 -0.189041)
(85.2561 -12.6944 -0.119022)
(82.0493 -16.5461 0.19887)
(79.2724 -21.6412 0.00663417)
(78.8066 -20.9935 -0.0647049)
(80.4585 -18.1829 0.0608387)
(81.2498 -15.2694 -0.477482)
(84.825 -11.8041 -1.05483)
(94.4631 -3.98706 -0.784469)
(4.58607 -167.103 -17.8658)
(-49.7408 -2.95958 -29.9861)
(119.111 13.6907 -13.8433)
(23.156 15.8385 -3.17155)
(98.5482 24.3755 -4.49781)
(71.4955 13.2052 -3.38912)
(96.0031 19.0219 -1.10003)
(110.544 24.9768 -0.83987)
(103.865 15.8828 0.102465)
(94.4382 3.11742 0.0127398)
(87.3437 -10.8421 -0.045067)
(77.8488 -11.9912 0.0750534)
(76.756 -12.3789 -0.0406609)
(80.5153 -17.755 -0.190148)
(83.2308 -22.4008 -0.0953394)
(81.6416 -22.2026 0.258032)
(81.5544 -19.2134 0.351261)
(80.8607 -15.5357 0.246803)
(80.8671 -11.5035 -0.608478)
(88.2801 -3.41398 -0.793471)
(77.2203 116.84 86.726)
(-49.6139 36.3848 -3.10782)
(127.812 25.2844 -12.1799)
(52.7824 21.0751 -3.16409)
(108.375 21.3256 -2.2328)
(76.9549 -4.91765 -1.00936)
(91.9472 14.8564 -0.345717)
(83.799 14.898 -0.0211323)
(90.6256 8.85348 -0.361279)
(87.7163 3.51694 -0.232875)
(90.416 -5.0808 0.0493183)
(85.6795 -9.45367 0.0362206)
(88.9828 -13.9941 -0.281938)
(90.3925 -19.0263 -0.541047)
(89.5302 -21.9501 0.0492373)
(87.7557 -22.4216 0.255244)
(86.5087 -19.2888 0.298572)
(82.9015 -15.3456 0.510856)
(79.9097 -10.2422 -0.0411885)
(84.4378 -2.14775 -0.396785)
(47.1731 -64.3876 -110.108)
(-101.227 38.159 -17.7865)
(109.048 36.2289 -10.7523)
(20.2823 37.1778 -0.751628)
(102.616 33.5496 -0.338398)
(63.0163 20.165 0.64599)
(89.5687 32.3512 0.20295)
(77.7148 7.65545 0.560286)
(91.0826 9.82183 -0.209886)
(89.0431 -2.59703 -0.62154)
(95.347 -3.53317 -1.04686)
(94.3966 -10.4654 -1.41348)
(98.6263 -13.1347 -1.21252)
(97.8409 -19.0337 -0.205357)
(96.5184 -19.8714 0.389939)
(91.2691 -21.1846 0.452724)
(88.0218 -16.5705 -0.0468895)
(83.6306 -11.9757 0.130644)
(79.9642 -7.17184 0.070407)
(82.9555 -0.707844 -0.00898418)
(165.938 60.7393 -50.4328)
(153.532 78.1238 -27.7167)
(193.416 12.2297 3.88294)
(90.0533 -2.18979 8.40404)
(114.839 -4.96822 5.86338)
(78.4736 -6.17988 1.69394)
(103.487 0.337332 0.747413)
(96.9525 -2.33436 -0.585076)
(105.043 -0.637361 -1.04043)
(103.734 -3.855 -1.66359)
(107.437 -4.29479 -1.8984)
(106.509 -8.49944 -2.24408)
(108.317 -12.8657 -1.04517)
(105.302 -18.7583 0.126867)
(100.332 -17.7121 0.802134)
(89.7899 -17.1144 0.655217)
(83.4093 -11.9682 0.00209857)
(79.3807 -8.8962 -0.186022)
(77.2834 -4.69053 -0.153125)
(81.5899 -0.242764 0.108114)
(283.333 43.4305 -16.0703)
(239.346 68.2717 5.23831)
(229.167 72.1274 29.9006)
(117.319 50.0186 17.1204)
(126.525 38.5422 8.62868)
(96.7787 16.8427 2.80333)
(114.935 18.9675 1.57463)
(107.034 8.62904 0.272181)
(116.614 11.5985 -0.231121)
(112.512 5.99301 -1.01734)
(116.035 5.50058 -1.13759)
(111.911 -0.77836 -1.11379)
(111.347 -7.45302 0.416909)
(104.488 -12.6725 1.23227)
(97.8496 -8.72623 1.45719)
(86.9325 -8.21653 0.950332)
(81.7046 -6.33392 0.395848)
(77.6488 -5.73369 0.0409284)
(76.014 -3.57626 -0.0508049)
(80.4155 -0.800271 0.132167)
(55.4852 99.7344 -54.7751)
(-15.4875 52.8351 9.59972)
(93.3827 21.131 14.7118)
(24.2591 -2.52079 5.73964)
(97.5044 -15.8527 2.93293)
(77.5479 -20.0409 2.09645)
(111.067 -14.8152 2.34285)
(107.883 -11.9105 2.03186)
(121.813 -2.80721 2.01971)
(120.6 0.960731 1.49749)
(124.719 3.72091 1.38963)
(119.696 -0.207562 1.63368)
(111.251 -8.88118 2.02162)
(93.5271 -13.1928 1.40498)
(87.714 -8.26466 0.770199)
(80.6673 -6.71794 0.397392)
(78.3202 -4.97228 0.3635)
(74.3545 -4.22632 0.30247)
(72.8942 -2.17077 0.258961)
(76.8062 -0.621829 0.17065)
(44.9951 -130.683 141.523)
(60.037 -65.3744 -7.62021)
(147.692 -18.777 -6.87428)
(116.119 -11.8078 -6.57004)
(144.249 -9.0202 -4.92561)
(129.152 -12.9982 -3.14874)
(138.861 -11.1684 -1.35526)
(127.852 -13.613 -1.10445)
(136.033 -8.39191 -0.460225)
(135.161 -5.77944 -0.361027)
(142.382 1.36491 0.0590292)
(140.846 4.00838 0.947055)
(133.839 6.30124 2.08317)
(109.759 1.67564 2.00736)
(97.2379 -0.078507 0.573407)
(88.4906 -1.34581 -0.21598)
(85.8956 -2.06329 0.274514)
(80.2032 -2.63952 0.816567)
(75.6596 -2.31517 0.880889)
(76.1889 -0.678145 0.470663)
(-143.851 59.5675 22.6807)
(-100.508 35.6869 -76.4198)
(134.654 47.3447 -18.5583)
(30.3758 13.2867 -4.34564)
(110.402 13.3242 -5.17485)
(81.0503 -1.91921 -1.91644)
(108.504 -2.3055 0.137744)
(93.4927 -9.05245 0.176121)
(105.957 -5.56565 0.382163)
(98.6594 -5.50617 -0.316181)
(105.988 -0.620574 0.125828)
(101.426 1.95631 0.435951)
(102.956 7.78625 0.975907)
(98.0394 9.19627 0.231188)
(97.442 8.83584 -1.02294)
(97.3044 4.81928 -2.13525)
(102.214 1.2766 -1.40735)
(102.234 0.482914 0.0279517)
(100.751 2.18662 1.90948)
(96.1963 1.55616 2.1039)
(100.825 31.8712 79.9821)
(10.8506 -19.8534 -8.54214)
(126.24 -27.1058 2.85301)
(98.2175 -6.8182 -4.81617)
(131.883 -18.4693 -2.38521)
(112.98 -16.5023 -4.44725)
(125.474 -17.8554 -1.46549)
(102.398 -15.4524 -1.5816)
(105.043 -9.94738 -0.464974)
(91.7858 -4.75219 -1.50477)
(98.629 -0.0811663 -1.40389)
(96.8481 3.18307 -1.20343)
(104.175 5.25142 -0.822711)
(109.848 7.06537 -1.48668)
(124.467 7.92546 -2.39632)
(137.775 4.78346 -3.00608)
(149.325 0.765799 -2.12333)
(152.682 -2.94237 -2.03851)
(156.869 -3.31083 -0.983561)
(162.537 -1.82482 -0.232027)
(270.164 -302.663 100.219)
(148.159 -150.765 26.7771)
(164.456 -43.4629 9.41156)
(85.4752 -15.8641 0.456097)
(118.472 -11.834 -4.43082)
(82.7576 -8.66922 -6.67087)
(99.3299 -3.4585 -7.5011)
(81.247 -2.54987 -7.07197)
(91.0197 -1.97536 -5.01805)
(84.5041 -3.36085 -3.39209)
(92.2025 -4.36943 -1.23535)
(91.5644 -5.02299 -0.249576)
(97.2965 -5.48309 0.825584)
(98.6087 -5.12207 1.09822)
(103.351 -4.76627 1.47905)
(104.883 -3.85279 1.13666)
(108.634 -3.44567 0.84135)
(109.932 -2.5023 0.49691)
(111.823 -2.07861 0.448469)
(118.133 -1.8991 0.522307)
(204.698 26.1189 89.893)
(29.8874 80.1611 -35.6339)
(120.722 86.7828 -33.1574)
(57.7903 33.1355 -6.01919)
(103.491 37.185 0.721733)
(62.8335 17.0208 0.725043)
(87.8912 17.4964 0.828761)
(68.6281 7.98898 -0.202456)
(83.2303 3.5651 0.58888)
(74.8669 -0.769007 0.407757)
(81.9383 -3.18024 1.37002)
(77.1109 -4.01571 1.14617)
(79.7422 -4.30435 1.60683)
(77.0672 -4.29571 1.22305)
(78.629 -4.05404 1.09663)
(77.9712 -3.9241 0.810179)
(79.4933 -3.93621 0.716312)
(79.6349 -3.44586 0.565097)
(81.1303 -2.98335 0.416075)
(86.4802 -1.90746 0.281976)
(-52.6029 46.7747 65.6868)
(-143.066 33.2524 -42.5429)
(77.889 31.468 -14.6407)
(-35.2375 -0.643949 -2.8282)
(80.9588 -2.27753 -3.74954)
(19.3655 -2.15943 -0.42654)
(70.409 -4.12494 1.46819)
(47.8045 -2.8929 0.642045)
(69.3615 -5.80237 1.48481)
(59.5672 -4.53045 0.772778)
(68.4432 -5.70121 1.11994)
(63.8188 -4.31961 0.738055)
(68.1196 -4.58623 0.886817)
(66.2692 -3.94561 0.642426)
(69.0023 -4.40581 0.663277)
(68.7333 -4.17671 0.494124)
(70.7026 -4.5066 0.491476)
(70.6888 -4.02782 0.32731)
(71.9651 -3.50503 0.109684)
(76.8714 -2.18015 0.00249662)
(24.3768 68.082 -88.2677)
(-142.473 -28.6263 -41.8317)
(87.5001 18.7069 6.20353)
(21.8044 0.329539 4.91219)
(93.1146 13.6923 3.71689)
(51.723 6.77056 2.93819)
(83.9919 3.4866 3.14535)
(59.0736 1.72266 1.60249)
(72.8334 -2.39406 1.30101)
(58.1809 -2.22513 0.185396)
(64.4689 -4.44506 0.120462)
(58.2328 -4.0592 -0.0478464)
(62.6253 -5.47825 0.218371)
(61.2083 -5.35281 0.350618)
(64.4937 -6.06367 0.534808)
(64.771 -5.79868 0.499938)
(67.1685 -6.05374 0.555759)
(67.2359 -5.43929 0.579363)
(68.4619 -4.70927 0.326184)
(73.5509 -2.60504 0.264034)
(0.347694 70.5999 -122.312)
(-174.83 -61.0861 -0.764315)
(113.343 -8.7888 -21.8283)
(-34.8956 -9.12052 -0.704997)
(99.4668 -3.56433 1.69357)
(26.6017 2.19603 0.271645)
(79.7105 -7.55482 3.45386)
(53.7659 3.38798 0.89782)
(71.5095 -4.30127 1.36918)
(58.4769 0.792274 0.0580068)
(64.8429 -5.67168 0.128154)
(59.1787 -4.25584 -0.103338)
(63.4681 -7.82662 0.191917)
(62.3552 -6.86971 0.188165)
(65.4915 -8.11796 0.394165)
(65.4149 -7.33169 0.413386)
(67.404 -7.34263 0.44458)
(66.8504 -6.23506 0.453863)
(67.4058 -5.58792 0.33508)
(71.6754 -3.20436 0.227068)
(192.278 -78.5186 33.1848)
(-99.4937 -68.1385 26.3341)
(149.073 -48.4984 3.83705)
(56.6158 -13.3162 -0.343748)
(121.423 -19.6539 2.88714)
(75.0059 1.66772 0.861439)
(98.6789 -8.62549 1.6344)
(77.0754 2.77112 -0.0649018)
(80.4722 -1.39394 0.243862)
(68.4417 2.4278 -0.216793)
(69.0043 -2.65311 0.851022)
(63.8512 -3.95307 0.61511)
(65.4591 -7.53602 0.446479)
(64.2904 -7.95675 0.216483)
(65.6613 -8.93783 0.0611741)
(65.4431 -8.20025 0.031976)
(66.9027 -7.88119 0.084738)
(66.1323 -6.33664 0.259598)
(66.3056 -5.35177 0.404599)
(69.7865 -2.90513 0.201988)
(291.415 3.5099 -52.2075)
(61.5598 4.71435 53.4336)
(171.008 -24.7962 48.1008)
(48.4463 2.05069 11.0984)
(117.801 3.36817 8.62766)
(51.465 17.9977 0.00302708)
(77.7524 -8.01366 2.75323)
(56.235 17.9181 0.552611)
(64.3343 3.00675 0.867093)
(55.6201 9.7513 0.821577)
(61.4673 -2.45862 0.907203)
(60.6045 -2.24747 1.09276)
(65.7959 -8.99571 0.522601)
(66.1222 -7.85338 0.300067)
(68.7866 -9.74821 0.214823)
(68.2473 -9.0863 0.100389)
(69.5202 -8.56818 0.085381)
(68.1368 -6.66249 0.205972)
(67.7101 -5.22287 0.515109)
(70.2654 -2.71497 0.356746)
(204.969 -73.6413 -63.2331)
(118.082 -10.4628 -3.0665)
(191.82 -28.3785 9.07572)
(116.133 -2.56503 6.81853)
(141.152 -7.21055 8.71593)
(89.6695 29.2592 1.96775)
(96.8474 7.54998 4.37178)
(61.1795 3.26455 2.0919)
(62.813 11.4212 0.705773)
(56.0383 2.54826 -0.488201)
(62.7886 0.365505 -0.752121)
(65.4299 -8.59221 -0.483469)
(71.5885 -10.8581 0.0640536)
(73.1106 -12.6776 0.435946)
(73.8929 -11.3238 0.177407)
(74.3122 -9.64372 0.186175)
(75.2824 -8.66566 0.386512)
(73.5699 -5.77439 0.57512)
(72.3317 -3.73993 0.820072)
(73.7359 -1.45419 0.613304)
(137.72 -116.095 -26.4584)
(66.109 11.727 10.5558)
(111.074 26.99 -0.325831)
(15.5164 24.7675 -4.18447)
(79.1875 34.7436 5.36419)
(55.5872 39.6009 -1.51604)
(75.6339 41.5549 0.889168)
(61.5121 17.2422 2.30362)
(63.0898 12.0989 1.09832)
(66.8933 2.13784 0.264338)
(72.9477 -4.4033 -0.486657)
(76.4584 -11.4496 -0.139619)
(78.4757 -13.4808 0.25061)
(79.1261 -14.3139 0.400986)
(80.1716 -14.3743 0.612199)
(78.9172 -11.4315 0.121224)
(79.7768 -9.23035 -0.00740507)
(78.5817 -5.22389 0.13944)
(78.2603 -1.94308 0.604842)
(79.3544 -0.0633974 0.608061)
(190.128 -47.6576 52.0335)
(16.8883 -6.26126 -10.6514)
(119.168 -22.9935 -9.50971)
(-10.2009 6.7214 2.48379)
(93.9206 1.11055 3.00252)
(49.6015 16.6764 -0.652426)
(72.4952 32.7132 -1.33723)
(76.45 22.4501 1.76817)
(76.949 6.60935 2.18338)
(78.8733 -3.07404 1.66919)
(82.3649 -8.77259 1.65481)
(83.9558 -11.7433 1.30521)
(82.855 -13.5 0.706487)
(81.9348 -15.9648 0.260905)
(79.7538 -16.1457 0.583454)
(76.528 -12.5943 -0.545575)
(78.3303 -9.38255 -0.933911)
(78.429 -5.51047 -1.1778)
(79.9239 -0.785968 -0.500139)
(82.8099 1.66154 -0.0492994)
(162.365 -40.9867 -13.229)
(-20.7752 18.0008 -35.1132)
(101.179 24.1939 -20.9692)
(32.2739 27.8925 -9.02471)
(80.2887 15.9431 -1.2882)
(53.7175 21.8514 -1.21013)
(73.1421 18.7804 1.69774)
(79.7466 13.6515 1.23838)
(81.971 1.49278 0.685802)
(80.4344 -6.06331 0.339489)
(78.9285 -11.7888 0.647949)
(77.1788 -11.4135 -0.307062)
(74.9548 -11.631 -0.100844)
(73.305 -14.79 0.535736)
(70.9261 -16.3233 0.0863512)
(69.4096 -14.3247 -0.718625)
(71.5332 -10.7137 -0.583351)
(73.0406 -7.84781 -1.15143)
(75.6924 -2.41883 -1.33949)
(80.4017 1.5155 -0.824173)
(237.604 7.83337 -24.6765)
(-5.95657 13.1043 -16.7086)
(106.653 12.4758 -15.9154)
(19.8762 15.6145 -2.44313)
(82.3759 16.1667 -5.84431)
(48.674 3.17176 -5.48893)
(75.9705 4.97791 -3.76764)
(80.7881 10.02 -0.424835)
(80.1751 4.54862 1.75685)
(76.0367 -2.27987 0.166073)
(70.632 -8.4293 -0.207697)
(67.601 -9.71144 -0.136778)
(68.0496 -11.7623 -0.27845)
(69.4669 -15.3191 -0.478825)
(69.7619 -16.8656 -0.111686)
(68.2442 -15.4919 -0.0731356)
(69.1763 -11.5618 0.143807)
(69.6312 -8.74966 -0.160994)
(70.7864 -3.55237 -1.01696)
(75.9416 1.28226 -0.916614)
(53.9075 160.953 -44.1551)
(-57.2743 50.8107 -36.2241)
(106.869 27.1507 -28.5329)
(36.7334 17.2027 -5.57304)
(94.4049 11.2849 -4.05134)
(58.4034 -15.4391 -1.38738)
(75.9061 6.72346 -0.471205)
(65.9216 5.69483 0.257381)
(72.2889 2.64572 -0.469317)
(68.1598 -1.3693 -0.433269)
(71.5639 -6.2093 -0.297069)
(69.65 -9.32584 -0.433162)
(73.0725 -13.12 -0.837803)
(72.7661 -16.3534 -0.538178)
(70.85 -17.065 0.000201345)
(70.4344 -16.0849 0.473627)
(70.0636 -11.6567 0.435971)
(68.3593 -8.57546 0.411101)
(67.6773 -3.40101 -0.270623)
(72.1935 0.959965 -0.456279)
(58.0227 -103.974 -8.8034)
(-65.124 49.6524 -42.7249)
(96.945 33.0041 -21.5409)
(16.4735 22.8267 -2.84525)
(92.4343 18.1792 -2.525)
(51.3341 6.21704 0.569338)
(77.538 21.6716 -0.0354024)
(64.1716 -2.04057 0.64606)
(76.1072 3.81973 -0.492353)
(71.8354 -7.04783 -1.02192)
(76.4233 -6.04615 -1.30562)
(74.3165 -12.4708 -1.48505)
(75.9893 -13.2192 -0.998849)
(74.5467 -16.867 0.23617)
(74.5047 -16.2196 0.71857)
(72.1545 -15.1861 0.790365)
(70.3624 -9.65361 0.0644128)
(67.5208 -6.242 0.210449)
(66.2117 -1.9139 0.066483)
(70.5024 1.22192 0.141133)
(142.134 85.716 47.6086)
(29.0027 28.3141 18.5798)
(115.257 -1.61095 19.672)
(46.9791 -7.66565 7.43139)
(101.11 -8.17948 4.04929)
(66.5653 -9.45581 0.0731017)
(92.2594 -2.776 0.388207)
(81.6398 -5.34124 -1.41892)
(87.7826 -2.49069 -1.39022)
(82.7302 -6.26481 -2.33746)
(84.326 -6.80518 -2.14858)
(80.7719 -11.9026 -2.34551)
(80.984 -14.2293 -0.691342)
(78.3535 -16.9173 0.582918)
(76.7362 -14.7994 1.11179)
(70.8384 -12.5765 0.929711)
(68.0131 -7.4948 0.0581854)
(65.2454 -5.04151 -0.150414)
(64.3356 -1.3685 -0.00548455)
(69.3267 0.947708 0.368661)
(89.1682 61.9884 223.343)
(-6.41176 28.0258 29.7628)
(133.875 52.0938 26.2596)
(74.3625 39.6602 13.5347)
(113.1 32.696 6.27343)
(85.0914 13.4656 1.36097)
(102.776 15.0484 1.37232)
(89.643 2.74361 -0.0870246)
(97.1202 5.33123 -0.360889)
(88.8146 -2.34992 -1.54096)
(90.7839 -3.15319 -1.11767)
(83.9234 -9.91107 -0.787812)
(83.5412 -11.5879 1.11799)
(79.3548 -13.0158 1.69575)
(77.1272 -8.58209 1.96534)
(70.2888 -6.74405 1.31319)
(67.8747 -4.2655 0.509431)
(64.8467 -3.39898 0.0531438)
(63.9074 -1.46703 0.0865923)
(68.6324 0.266098 0.397034)
(92.5368 86.1613 44.0418)
(-40.6278 14.4303 18.0348)
(80.4428 9.93478 18.2341)
(12.4266 10.076 5.34615)
(88.833 0.409724 2.30704)
(63.4111 -5.8761 1.38861)
(97.0876 -3.34316 2.8947)
(89.4856 -4.53835 2.10144)
(102.472 0.498491 2.3733)
(97.1055 -0.833638 1.30137)
(99.9166 -0.918321 1.49495)
(91.8209 -6.43433 1.72294)
(86.9971 -10.2193 3.07279)
(75.7251 -11.2512 2.19908)
(72.5491 -5.82651 1.20646)
(66.7771 -4.03333 0.605424)
(65.6136 -2.27335 0.458007)
(62.6958 -1.89793 0.343646)
(61.9146 -0.650302 0.411704)
(66.3018 0.258969 0.355732)
(92.0623 -30.4635 32.0959)
(56.028 -6.75145 -17.1559)
(164.067 12.6234 -6.45243)
(124.517 10.1169 -6.73841)
(141.591 4.76104 -7.67042)
(120.713 -1.45134 -5.47344)
(127.651 0.23889 -1.3298)
(112.941 -2.69309 -1.00205)
(117.347 2.77109 0.25088)
(109.875 2.35061 -0.484175)
(112.533 5.4802 -0.0363166)
(105.778 3.46662 1.07582)
(99.9303 3.56612 4.47158)
(84.2619 -0.116645 3.4671)
(78.3184 0.0856544 1.12357)
(71.4217 -0.304042 -0.00899369)
(69.9309 -0.131424 0.435182)
(66.4827 -0.28259 1.07253)
(64.4772 -0.372248 1.13697)
(66.8165 0.218761 0.58164)
(210.28 263.443 -14.8604)
(6.37106 49.2329 -41.6607)
(139.645 46.5381 -33.1579)
(43.116 19.0304 -3.82711)
(105.905 19.7227 -4.86681)
(67.6404 4.11489 -0.850205)
(96.503 7.25519 1.43014)
(78.6776 0.610269 0.0748419)
(93.7699 4.52774 0.197458)
(84.3022 2.57739 -0.854362)
(90.6939 5.12729 0.271826)
(83.2224 4.98314 0.644479)
(84.8318 7.46125 1.26882)
(79.882 7.15508 -0.401636)
(80.2913 5.82657 -1.70445)
(77.74 3.30912 -2.34899)
(78.5397 2.49159 -1.62859)
(77.2313 2.79217 0.478654)
(77.4233 4.20453 3.24233)
(79.5471 3.02677 2.41536)
(78.4227 -145.996 -41.8688)
(-91.6366 -25.9807 -12.6243)
(120.926 -3.07919 -5.92152)
(60.3945 6.28009 -2.59414)
(106.283 -9.10381 1.47448)
(61.6122 -7.63876 -4.05187)
(89.8925 -5.56459 0.382231)
(65.6442 -2.49252 -2.16668)
(83.978 2.99345 -0.216209)
(74.3392 5.24069 -1.25911)
(85.6048 8.28345 0.000962478)
(83.2559 8.32008 0.338103)
(92.0002 8.69449 1.1438)
(94.9254 6.54606 -0.588008)
(103.885 3.81275 -1.99831)
(104.957 0.366759 -3.30248)
(107.89 -0.957321 -3.06609)
(107.335 -0.902901 -2.28586)
(108.113 1.97234 -0.89416)
(120.039 5.41129 0.172698)
(185.519 -113.548 -73.8095)
(84.4172 -90.967 6.57147)
(139.692 -67.2325 1.82097)
(81.7292 -30.7489 -1.81136)
(118.238 -21.5469 -4.06881)
(83.1116 -14.8572 -6.32398)
(98.9509 -7.51924 -6.54387)
(76.6225 -5.27733 -6.46758)
(84.3116 -3.8655 -4.09181)
(74.5586 -4.72187 -2.70502)
(82.2423 -5.1269 -0.442575)
(80.7108 -5.03829 0.363605)
(86.8933 -4.94116 1.47983)
(88.1394 -4.00103 1.41279)
(93.3896 -3.38368 1.72176)
(95.1263 -2.58612 1.2663)
(99.1381 -2.32669 1.00589)
(100.215 -1.63992 0.699557)
(101.869 -1.57973 0.624869)
(108.11 -1.43048 0.728608)
(648.962 52.7819 -134.882)
(343.062 58.7119 -39.0276)
(180.394 80.3997 -4.19677)
(56.6867 24.2936 1.37051)
(97.6452 31.9735 0.925744)
(49.304 12.1418 0.220011)
(78.3753 13.5172 0.391381)
(55.0772 4.45455 -0.555594)
(71.3734 1.15139 0.491668)
(60.2446 -1.94935 0.129741)
(68.1732 -3.39149 0.953869)
(62.51 -3.44643 0.628041)
(66.5519 -3.30552 1.07762)
(64.3878 -3.08199 0.728464)
(67.0697 -2.76053 0.659918)
(66.7889 -2.65607 0.445822)
(68.8054 -2.6338 0.42982)
(68.9469 -2.18076 0.304868)
(70.2886 -1.83885 0.21177)
(75.0537 -0.983064 0.118121)
(10.9064 154.308 86.9539)
(-140.083 38.5147 -50.4336)
(81.9578 35.376 -18.9128)
(-36.1294 0.521549 -2.07382)
(74.1013 -3.2061 -5.03016)
(7.68102 -3.43222 -0.489834)
(61.8179 -5.42408 1.12798)
(35.6139 -3.22674 0.451944)
(59.3064 -5.61385 1.39597)
(47.5877 -3.43746 0.513833)
(57.7497 -4.47683 1.01431)
(52.4011 -2.81905 0.566974)
(57.5897 -3.27309 0.743395)
(55.5858 -2.57604 0.481136)
(58.7951 -3.07107 0.543491)
(58.4045 -2.79503 0.377542)
(60.5307 -3.06362 0.394998)
(60.332 -2.59303 0.239497)
(61.4044 -2.23132 0.0778558)
(65.6265 -1.23776 0.0112609)
(47.4871 80.3511 -51.9579)
(-133.711 -64.741 -61.9108)
(85.7387 -0.0204003 -19.1911)
(15.0085 -8.1047 1.31687)
(84.3626 10.4475 1.14157)
(38.3522 3.80308 2.55571)
(74.3518 1.43402 2.6719)
(47.392 0.68377 1.24522)
(63.6756 -2.84087 1.04064)
(48.1768 -1.71617 -0.029309)
(55.7939 -3.67394 0.0935408)
(48.9431 -2.73764 -0.0814181)
(53.7254 -3.97255 0.175421)
(51.6783 -3.56557 0.266235)
(54.926 -4.12183 0.457524)
(54.7523 -3.80694 0.418042)
(56.9422 -3.96662 0.47344)
(56.8243 -3.34472 0.474997)
(57.9475 -2.79968 0.279129)
(62.3824 -1.39605 0.267005)
(111.376 -84.0984 -11.6371)
(-105.922 -88.0652 -39.3988)
(113.271 -25.2445 -35.6276)
(-47.7036 -10.7197 -2.41748)
(90.8228 -2.18185 -1.75551)
(8.09958 4.01292 0.438862)
(67.7905 -6.58049 2.82604)
(37.9324 4.98302 0.587647)
(59.2493 -4.12519 1.26647)
(45.5249 1.81041 -0.0157924)
(54.1456 -4.88206 0.237349)
(48.2753 -2.41651 -0.0629754)
(53.3755 -5.76999 0.260452)
(51.7872 -4.16561 0.203896)
(55.0281 -5.38006 0.361976)
(54.5964 -4.41999 0.364424)
(56.5569 -4.56727 0.390972)
(55.9176 -3.61003 0.378876)
(56.6131 -3.29539 0.296553)
(60.7109 -1.62051 0.26598)
(120.27 -277.036 26.5549)
(-91.8922 -96.2011 16.0243)
(126.248 -69.8081 -22.5977)
(32.0191 -19.9587 0.343407)
(103.516 -19.3578 0.172741)
(51.6432 3.78425 0.617726)
(83.6886 -8.98776 1.45393)
(59.5256 3.65083 -0.20653)
(66.0732 -2.67413 0.312748)
(53.7432 1.83248 -0.243304)
(56.2909 -3.68664 0.596687)
(51.9818 -3.23523 0.399298)
(54.4576 -6.07302 0.363259)
(53.2706 -5.41548 0.212478)
(54.7289 -6.11891 0.116608)
(54.3723 -5.05103 0.057232)
(55.7237 -4.90808 0.0805479)
(54.96 -3.62389 0.238712)
(55.3824 -3.16476 0.369923)
(59.1338 -1.53512 0.261215)
(328.218 -167.076 -130.535)
(-0.0932678 -61.0007 67.8526)
(154.575 -41.0659 42.405)
(11.4474 -0.582708 10.7506)
(103.788 5.03456 7.49304)
(28.9587 19.1637 -0.223964)
(63.4438 -9.7737 2.60422)
(40.4325 19.0824 0.345011)
(52.5734 1.07562 0.822746)
(44.6125 9.05442 0.726668)
(51.9478 -3.1245 0.691193)
(50.5747 -0.999827 1.04745)
(55.5455 -6.96719 0.601247)
(55.261 -4.80266 0.469684)
(57.7623 -6.61084 0.341985)
(56.8289 -5.6947 0.196388)
(57.8334 -5.40655 0.159249)
(56.3837 -3.82137 0.216513)
(56.2017 -3.1011 0.490054)
(59.3593 -1.44995 0.387521)
(259.641 60.2198 -193.133)
(144.348 48.7444 -18.0714)
(168.051 -7.58598 8.68423)
(75.1715 5.91894 8.13838)
(117.336 -3.2625 9.30559)
(65.4797 32.1695 2.22217)
(76.6803 2.64747 4.30456)
(47.1898 6.38462 1.63456)
(51.9884 6.05985 0.107697)
(47.9451 1.03681 -0.393663)
(54.8879 -1.79689 -0.807826)
(56.0229 -6.88712 -0.145647)
(61.186 -8.18548 0.144012)
(62.0208 -8.95199 0.522867)
(62.0447 -7.40671 0.646241)
(61.9756 -5.42864 0.456401)
(62.2528 -4.87511 0.570989)
(60.4081 -2.6547 0.579892)
(59.4137 -1.71542 0.7609)
(61.6824 -0.451525 0.558992)
(79.7485 -21.0845 -123.175)
(-35.1328 42.9557 13.7959)
(98.353 30.2405 3.15352)
(-17.1254 24.2106 -3.40517)
(67.5389 32.1351 3.27361)
(37.5467 40.6306 -1.48666)
(55.0176 35.5068 0.298911)
(48.1148 11.8782 1.94781)
(55.5092 6.61693 0.922334)
(58.5959 -2.08527 -0.108204)
(63.3018 -6.15103 -0.412981)
(64.9968 -10.097 -0.235675)
(67.0326 -10.7374 0.278115)
(67.9494 -10.5846 0.578449)
(68.513 -9.81737 0.679608)
(66.3091 -6.26548 0.561988)
(66.4244 -4.15267 0.204941)
(64.5843 -1.1678 0.307414)
(63.6796 0.453103 0.621501)
(65.3494 1.06335 0.568103)
(223.842 26.8539 123.935)
(53.3189 24.566 20.4652)
(105.734 -13.0939 4.22216)
(-10.3149 12.0811 3.03511)
(80.6382 2.30912 0.304957)
(39.0875 18.9832 0.902085)
(61.0737 29.4359 -0.070976)
(64.6346 13.8678 2.21325)
(66.7224 2.15441 2.2027)
(68.7537 -4.09017 1.5343)
(70.9001 -7.41057 1.19248)
(71.6048 -9.6174 1.02216)
(71.2067 -11.1875 0.697225)
(70.9711 -12.0934 0.575847)
(69.2061 -10.7645 0.49324)
(65.7658 -6.79468 -0.299034)
(66.4077 -3.87748 -0.720199)
(65.5457 -0.641039 -0.718273)
(65.5899 2.16452 -0.271944)
(67.8856 2.84796 0.0396322)
(176.621 55.4035 -101.078)
(63.0562 59.7184 -41.9333)
(96.926 32.1354 -21.0179)
(11.7116 29.2729 -9.78092)
(64.5219 14.8895 -2.95484)
(35.3057 20.1761 -1.04948)
(57.4354 16.0745 1.75759)
(66.3134 9.08866 1.82452)
(68.9012 0.628387 1.28281)
(68.4649 -4.49733 0.496745)
(69.9917 -8.59962 -1.33404)
(68.4686 -8.67184 -0.246957)
(65.207 -9.75931 0.161295)
(64.6769 -11.7857 0.423122)
(62.557 -11.517 -0.0943216)
(60.1114 -8.82103 -0.602414)
(61.7884 -5.54135 -0.750223)
(62.4226 -2.92862 -1.02363)
(63.4096 1.36629 -0.998441)
(66.7319 2.90318 -0.534816)
(92.5252 -81.1697 57.1412)
(9.32745 13.1875 -16.6449)
(92.717 9.87833 -11.9232)
(15.6311 15.1851 -2.46535)
(71.3859 11.3515 -5.92673)
(35.7104 -2.03099 -4.01805)
(60.3772 -0.821814 -1.94608)
(62.8979 4.21172 0.657655)
(64.1939 1.82872 1.45676)
(62.3013 -2.27528 0.255533)
(59.7371 -5.79564 -0.224926)
(58.6397 -7.59816 -0.306691)
(59.2407 -10.0336 -0.375646)
(60.0612 -12.3734 -0.48113)
(59.4024 -12.2557 -0.248472)
(57.4048 -10.4158 -0.0274786)
(58.4268 -6.73754 -0.0612409)
(59.0549 -4.36357 -0.343574)
(59.8022 0.109836 -0.847392)
(63.8107 2.43275 -0.622408)
(185.22 203.416 -58.1073)
(48.2841 70.0072 -48.748)
(107.507 31.7571 -38.1905)
(33.4746 16.4078 -8.92419)
(84.454 7.04435 -5.17682)
(43.2491 -19.1026 -1.65743)
(61.5878 4.92905 -0.011698)
(51.0481 3.08844 0.394898)
(58.6698 1.78118 -0.288574)
(54.7063 -1.656 -0.375507)
(58.613 -5.08849 -0.37078)
(57.0798 -8.15395 -0.514091)
(59.8351 -11.117 -0.79947)
(58.9697 -13.2822 -0.40768)
(57.1385 -12.4401 0.269123)
(57.5141 -11.241 0.374747)
(57.8226 -6.89761 0.202158)
(56.9339 -4.66869 0.143765)
(56.8869 -0.478618 -0.280973)
(61.131 1.62183 -0.186281)
(179.289 47.1169 -78.8237)
(-19.0712 49.3862 -24.9183)
(100.105 31.3089 -21.4566)
(18.6063 15.0896 -3.13333)
(84.2509 11.3669 -3.27341)
(39.3063 0.685145 0.569357)