/*--------------------------------*- C++ -*----------------------------------*\
  =========                 |
  \\      /  F ield         | OpenFOAM: The Open Source CFD Toolbox
   \\    /   O peration     | Website:  https://openfoam.org
    \\  /    A nd           | Version:  10
     \\/     M anipulation  |
\*---------------------------------------------------------------------------*/
FoamFile
{
    format      ascii;
    class       volScalarField;
    location    "2.8";
    object      nut;
}
// * * * * * * * * * * * * * * * * * * * * * * * * * * * * * * * * * * * * * //

dimensions      [0 2 -1 0 0 0 0];

internalField   nonuniform List<scalar> 
12920
(
4.16812
8.04776
3.38838
6.22565
2.54618
2.46502
1.4364
1.28375
1.00076
0.920021
0.791027
0.750263
0.677836
0.626744
0.56997
0.516324
0.454365
0.406685
0.390707
0.355153
15.0834
12.6441
7.91334
7.10562
3.57574
4.96558
2.41347
2.51546
1.8591
1.83953
1.5999
1.53622
1.34209
1.17619
0.999525
0.930059
0.90494
0.922806
0.950925
0.935231
2.49362
9.16976
10.3031
8.83185
4.40471
5.23183
2.70747
2.86458
1.89135
1.74428
1.3328
1.22909
1.07984
1.05454
1.0233
1.04073
1.05312
1.09431
1.10082
1.02488
1.30765
10.1981
8.56132
8.96871
4.5834
4.54696
2.6131
2.56971
1.85845
1.74798
1.43608
1.37418
1.23721
1.18211
1.10403
1.07016
1.02197
0.982784
0.93633
0.819108
8.6967
14.4876
9.79753
8.75453
4.32871
4.44386
2.60388
2.475
1.87386
1.95422
1.67832
1.68236
1.5024
1.45126
1.33926
1.31666
1.23013
1.13572
1.00491
0.781426
16.8016
22.1308
11.059
8.79261
4.71261
5.173
3.28018
2.8526
2.23988
2.12269
1.90676
1.85491
1.69091
1.59609
1.49249
1.43155
1.31778
1.16817
1.02654
0.731752
13.8796
14.3681
9.42127
8.81568
4.86718
6.00156
3.58911
3.48123
2.75385
2.5808
2.1914
2.11714
1.88775
1.76514
1.56024
1.50218
1.38241
1.19201
1.01308
0.657462
3.39723
11.1282
9.91493
9.28189
5.27131
6.01752
1.40726
0.887745
0.894061
0.917125
0.816909
0.751587
0.649417
0.571877
1.79064
1.56254
1.4725
1.25112
1.00604
0.597929
8.01676
11.4871
10.602
9.0052
5.17947
1.64107
0.465005
0.245994
0.215319
0.266008
0.279921
0.249527
0.218761
0.190081
0.553331
1.53943
1.48866
1.31751
0.989024
0.610578
9.36417
13.7572
9.45897
8.13133
4.63841
1.61101
0.345116
0.20835
0.198504
0.249928
0.227379
0.210723
0.186921
0.150335
0.426226
1.31397
1.28746
1.26942
1.00798
0.686012
8.01424
13.4448
6.25658
5.86067
3.38345
1.79141
0.419452
0.251134
0.229749
0.197724
0.184758
0.168772
0.152622
0.11006
0.45133
1.3214
1.21822
1.19341
1.03038
0.888858
12.6619
14.6759
7.31728
7.24163
4.32807
2.05162
0.389736
0.207703
0.174183
0.174576
0.189264
0.173955
0.140873
0.110069
0.518015
1.54567
1.30974
1.20517
1.09572
0.995925
2.92507
10.6884
7.30161
7.85152
4.5656
5.71732
1.274
1.18792
0.784007
0.87456
0.613861
0.519421
0.363472
0.35956
1.40576
1.34235
1.26458
1.15748
1.07399
0.949411
7.90754
12.1574
9.34522
9.19621
5.60819
5.75317
3.49212
4.0322
2.74885
2.80954
1.9197
1.72497
1.33114
1.21858
1.06666
1.04129
1.01169
0.973472
0.944189
0.820024
8.94581
12.3337
8.98539
8.69866
4.79386
5.57704
3.56174
4.31106
2.82011
2.82012
1.91586
1.75114
1.38533
1.24599
1.1018
1.02153
0.930369
0.865564
0.814535
0.682693
22.7715
12.0129
7.68153
7.49125
4.81154
5.72913
4.11653
4.73252
2.93065
2.78665
1.72576
1.68956
1.32107
1.29902
1.11023
1.04133
0.933212
0.852397
0.791383
0.675569
12.2301
10.1207
5.19109
6.55354
4.66213
5.31092
3.99762
4.70389
2.90008
2.53067
1.61754
1.59757
1.3699
1.39539
1.23833
1.15717
1.05533
0.943257
0.860682
0.67522
16.7254
6.83532
4.89512
5.69767
3.17521
4.28679
2.55809
3.03012
2.13836
2.05576
1.51682
1.49753
1.31871
1.35367
1.2313
1.16748
1.07659
1.00521
0.926191
0.751695
2.75132
9.17447
5.41595
5.82848
3.50713
4.18893
2.524
3.54464
1.99976
2.05844
1.49434
1.41434
1.20211
1.16089
1.08127
1.06048
1.01956
0.968698
0.910354
0.725801
2.90745
6.13876
4.71369
6.01688
3.71472
3.131
1.6847
1.64189
1.18212
1.08765
0.879253
0.785195
0.665928
0.605417
0.543347
0.491252
0.452303
0.411775
0.384058
0.323663
0.862644
9.59356
10.0313
19.5538
14.1019
15.9505
8.30242
8.07399
6.51066
6.47738
5.75463
5.37943
4.68701
4.19848
3.64714
3.28454
3.10109
3.02242
2.90695
2.55689
17.6539
30.0641
37.8147
28.6344
24.3292
21.2478
19.1347
19.7251
19.1442
19.199
18.6357
18.4278
17.6633
16.6946
15.378
14.2269
13.8907
14.0616
14.9024
15.4602
6.50147
43.5456
50.1968
44.2992
32.9027
26.7816
23.4736
22.0269
19.8212
18.6561
16.5265
15.5915
14.598
14.3805
14.4429
14.8107
15.5593
15.9424
15.9658
15.2665
13.9
49.708
50.527
40.9283
26.5879
21.9268
18.6117
19.5988
18.3706
18.1375
16.822
16.244
15.2745
14.7648
14.2043
14.0082
13.9531
13.9147
13.7083
13.008
20.8938
57.6378
36.5221
31.8166
22.9991
20.3581
15.8624
17.1489
17.2793
18.15
17.6208
17.498
16.7975
16.4362
15.94
15.6448
15.2688
14.4122
13.1893
11.567
35.1825
39.5426
30.8592
30.9774
29.4724
28.2131
22.3632
20.6919
19.0133
19.0851
18.6417
18.1576
17.4454
16.7078
16.1145
15.5719
15.0217
13.8239
12.7732
10.2517
20.5574
48.9796
58.3291
42.2507
32.9405
29.5921
24.5698
22.9692
21.4683
20.1177
19.0772
18.1706
17.5025
16.6499
15.9205
15.3104
14.6762
13.2787
11.7098
7.92553
5.49689
41.2533
51.3703
44.0263
33.9395
31.0238
22.5777
19.1535
18.5858
18.4756
17.8052
17.5871
16.6848
15.4878
15.987
15.1397
14.407
12.9648
10.3591
6.73322
12.8463
35.5306
43.2518
41.4101
27.9128
23.2374
19.9365
16.938
16.16
17.7345
18.0275
17.4051
16.1248
14.364
13.1621
14.3443
14.295
12.718
9.43856
7.24249
54.1734
49.1694
40.7362
32.4815
18.7465
17.5346
16.8346
17.2209
17.1355
18.2023
17.3646
15.6342
12.9375
10.4839
10.3587
12.2349
13.3038
12.7217
10.0202
9.61146
29.128
57.72
38.7666
23.875
19.0488
19.5683
18.5571
17.7833
16.8332
16.1148
14.1147
11.8018
10.9339
9.64477
11.1037
12.1433
12.7016
12.783
12.0125
12.7844
29.4066
39.0562
24.1827
21.9694
16.9791
17.4096
17.8256
15.9381
14.7715
14.9327
14.5367
13.0713
10.8909
10.9133
12.6581
13.3324
13.1363
13.2578
13.4323
13.7798
28.4684
39.8583
35.8374
30.8071
20.2018
22.0611
16.4193
16.0923
16.1019
15.7339
13.5946
11.5831
9.97494
10.3374
12.7722
12.921
12.8798
13.196
13.3474
12.9156
21.1015
38.5492
35.5973
34.3109
26.6367
26.3371
21.8399
20.1364
17.8865
16.154
14.4003
12.8326
11.7506
11.1299
10.9354
11.118
11.3223
11.9179
11.7349
10.8963
32.6654
37.559
35.6888
35.7152
25.9314
26.0886
22.6505
21.2958
17.8109
16.2381
14.4346
13.706
12.5303
11.7188
11.1872
10.7626
10.3435
9.96108
9.59875
9.23542
51.939
37.6342
37.4478
34.8358
28.7977
27.5393
24.1209
21.9591
17.3318
14.9784
13.1529
13.181
12.5323
12.1598
11.4857
10.9897
10.5389
10.1804
9.83546
9.69678
24.3097
32.3316
35.3627
29.1045
27.5526
24.3489
22.3169
20.7371
16.2725
12.8018
10.5303
12.1375
13.0563
12.828
12.1839
11.5314
11.0589
10.5108
10.172
9.43803
38.9093
25.9002
23.0517
18.8666
17.1021
17.6852
17.4886
17.266
14.8643
13.0219
11.9071
13.3194
13.8142
13.5823
13.0159
12.4074
11.9538
11.431
11.1346
10.3608
16.2266
19.9416
24.5804
22.4723
20.0814
20.6244
18.5853
18.2573
16.7505
15.7097
13.6198
13.4404
13.134
13.2654
12.9908
12.6397
12.2286
11.7707
11.4054
10.3754
10.6125
26.9689
20.4188
25.4497
16.0133
18.1633
10.5325
11.8128
8.74868
8.91949
6.80929
6.22232
5.21625
4.83284
4.2539
3.81293
3.46507
3.11277
2.81516
2.19911
1.08228
8.14258
10.418
19.3456
15.3399
18.1023
10.8443
10.177
8.01449
7.68266
6.68221
6.03252
5.18704
4.57066
4.0859
3.84561
3.72838
3.52553
3.2494
2.71244
25.0914
32.0157
45.2035
40.9215
36.741
33.3462
29.9028
29.1344
27.0477
26.5925
25.601
25.3993
24.6907
24.1557
23.381
22.883
22.5445
22.3983
22.1994
20.8369
25.4323
55.1582
61.8109
59.4068
48.8285
40.8653
36.0524
33.2556
30.5143
28.9606
27.1553
26.3291
25.4241
24.9602
24.5248
24.2618
23.9889
23.4286
22.8259
21.448
15.0406
76.7094
72.8687
60.4808
46.0751
39.1873
34.6772
33.4129
31.0562
29.772
28.0784
27.049
25.8166
24.8002
23.7927
23.0078
22.397
21.6304
20.9586
19.6469
32.2824
74.7533
63.9281
53.3071
41.1255
36.5734
32.171
32.2931
31.2091
30.3501
29.0135
27.9373
26.6772
25.5123
24.3336
23.2362
22.1886
20.6161
19.3144
17.4466
58.0011
63.0712
59.1164
52.7674
46.2406
41.8756
36.3777
34.7667
32.9599
31.6596
30.0134
28.4648
26.9252
25.4393
24.0408
22.6072
21.2061
19.3052
17.9274
14.7898
22.4271
65.3796
70.626
60.0268
48.9034
43.7083
39.1933
36.6858
34.2718
31.9291
29.8376
28.1104
26.516
24.9597
23.4826
21.9556
20.2496
17.9881
15.8423
11.5087
20.8318
62.1977
67.0522
60.731
50.2381
46.0093
40.0013
35.1072
33.0359
30.8131
28.9539
27.0976
25.4582
23.6217
22.2299
21.1407
19.4231
16.7841
13.6314
10.3326
32.7853
56.5692
61.2128
57.358
45.9685
41.2972
38.1179
32.6279
30.9563
29.5801
27.9167
25.8127
23.4959
21.0685
19.3943
19.8107
18.7794
16.1913
13.1492
11.5597
45.4161
64.4093
61.9185
49.9832
38.697
35.5501
34.3235
31.4056
30.0655
28.9877
25.5035
20.2118
15.7462
13.6645
14.7743
17.8685
18.4838
16.929
14.9106
15.479
44.2084
64.8782
54.9696
44.2024
39.0574
35.9403
34.4026
31.6773
29.3377
28.194
7.69686
6.17334
11.6624
13.4098
14.4592
16.9444
18.2249
18.6144
18.7737
19.4511
45.15
60.3256
49.6762
42.9478
38.2168
35.8671
34.993
30.2575
27.0754
25.4061
23.0303
20.147
17.5017
16.8467
16.4631
17.523
18.7093
19.6005
20.2057
20.7093
42.841
56.4049
56.8999
48.8746
39.4757
39.2962
33.3624
30.4437
27.5419
24.8028
21.597
18.7394
17.2144
17.135
17.9405
18.5414
19.0989
19.6623
20.0406
19.9176
23.2331
55.2939
54.4441
52.097
44.524
42.1975
36.4164
32.0911
27.9225
25.0086
22.1334
20.2421
18.8409
18.0407
17.7504
17.8143
18.0787
18.4548
18.3691
17.8729
18.9348
52.861
55.1241
52.813
44.6272
40.6999
36.0145
31.6313
27.3728
24.7332
22.5395
20.9582
19.3935
18.1986
17.4098
16.8383
16.5443
16.361
16.1639
15.9664
23.7035
56.9267
57.6293
50.9851
46.0923
40.6209
35.8749
30.9188
26.1415
23.5551
21.8779
20.8362
19.4959
18.3486
17.3012
16.4637
15.8805
15.3655
15.1302
14.7707
38.9073
52.7969
53.7406
43.5123
42.3109
36.1222
33.1242
29.7901
23.7216
21.7712
20.6544
20.9177
20.0892
18.8565
17.6922
16.6362
15.8779
15.0363
14.5569
13.4697
44.8608
37.7633
42.7816
33.4128
32.5393
31.1045
29.5039
28.4515
24.8283
23.4372
22.1345
21.7035
20.5244
19.3229
18.2419
17.2396
16.5104
15.677
15.1888
14.1539
56.8493
51.3524
39.9187
36.6159
30.3132
29.9626
26.331
26.4494
25.2627
24.3728
22.3116
21.0657
19.5122
18.465
17.3113
16.4475
15.6104
14.7154
14.0361
12.9998
19.6126
41.0914
31.551
28.9939
21.7367
21.6825
15.115
15.1403
10.5399
11.0951
8.61452
7.89082
6.49814
5.8631
5.07399
4.4879
3.99807
3.44962
3.04123
2.37385
0.947195
6.39252
8.87634
15.7147
15.4691
18.5609
11.6884
10.5174
8.33447
7.21052
6.05499
5.11219
4.51767
4.13677
3.9189
3.6957
3.50203
3.14602
2.92301
2.50548
17.0866
41.0477
51.1141
47.8569
42.5212
38.2015
33.2056
31.1545
28.3227
27.8109
26.9563
27.1136
26.8786
26.3939
26.1862
25.1398
24.4513
23.1369
22.377
20.2873
24.7277
75.0583
72.9833
66.3584
55.3097
46.6151
40.4362
36.6368
33.8121
32.3145
31.0024
30.2836
29.5309
28.6842
27.8258
26.8322
25.9387
24.8631
23.9969
22.6373
45.1129
85.5927
82.5529
71.3051
57.5921
48.6108
42.5283
38.9576
35.8708
33.8807
32.1787
30.8942
29.64
28.2291
26.9738
25.7054
24.675
23.5011
22.5595
20.9172
43.1606
83.4611
77.7832
66.5508
54.0824
47.6755
42.4271
39.8393
37.2969
35.0222
33.1008
31.3919
29.8439
28.1214
26.5733
24.9314
23.4574
21.767
20.4193
18.2825
59.7785
78.943
76.1739
66.6529
57.1978
50.9351
45.4113
42.4425
39.3597
36.3798
33.9023
31.6804
29.7455
27.7189
25.8206
23.751
21.8448
19.7085
18.0834
15.1541
69.4809
70.9207
75.4243
68.7085
58.1455
52.6925
47.6932
44.086
39.7417
36.3712
33.2101
31.0279
28.998
26.9269
24.8691
22.6406
20.2034
17.6507
15.4225
12.049
68.1557
77.588
78.1034
69.9338
59.1268
54.8735
49.3019
43.8758
39.3297
34.8422
31.8304
29.0547
27.1766
25.1746
22.5577
21.1355
18.7858
16.1321
13.6349
11.2874
42.0459
73.2032
72.0303
66.8351
55.9168
51.8759
48.2927
41.4957
37.0717
32.2106
29.0246
26.0119
23.7396
21.9306
20.0859
19.3895
18.2128
16.1379
14.0651
12.9569
72.9446
74.5675
72.985
61.0119
51.5679
47.6169
45.0637
39.201
35.0283
31.0942
25.8459
20.293
16.7095
16.1116
16.8579
18.6553
18.9329
18.0448
17.3466
17.7508
49.0467
68.0394
68.3502
57.0728
50.4122
46.0786
43.4148
38.3067
33.9934
29.9364
12.8197
10.7447
13.0985
14.2966
15.1922
18.2987
20.0993
20.7725
21.1167
21.7498
27.0181
68.8442
65.5512
58.8132
52.7791
47.8164
44.4014
37.085
31.7488
27.8932
23.8628
20.2226
17.4928
16.147
15.3094
18.5341
20.6556
21.8508
22.5725
23.0082
49.2521
66.1803
68.8693
62.0123
54.2885
49.4572
42.8535
36.9104
31.2082
26.5123
22.7271
19.6389
18.037
17.2637
18.2297
19.764
21.0134
21.8344
22.2747
22.353
22.2791
65.753
67.237
64.0178
57.0096
50.7771
43.1867
37.3491
31.4566
28.1224
24.4363
22.5555
20.8019
20.0014
19.8116
19.8683
20.1681
20.424
20.634
20.4866
32.247
66.4638
68.5667
63.8974
56.0107
47.7277
42.1427
36.2114
31.4487
27.9876
25.2283
22.9823
21.2358
19.8525
19.0375
18.5387
18.3775
18.1658
18.2872
18.1805
47.7724
69.9241
69.6404
60.9181
54.8833
46.6869
40.9004
34.9929
30.4469
27.3648
25.0303
22.908
21.1782
19.5917
18.4707
17.5284
16.9768
16.4492
16.193
15.7482
70.344
59.7193
63.6526
52.8173
49.9258
42.6665
38.7119
34.0553
29.3652
26.9726
25.09
23.2922
21.4965
19.722
18.4243
17.2171
16.3925
15.5141
14.9013
13.923
36.4327
56.7281
57.4097
44.3196
42.2031
38.912
36.65
34.3649
30.7219
28.2934
25.8889
23.5733
21.602
19.8704
18.6304
17.4941
16.7055
15.9174
15.4197
14.553
72.5149
55.5993
46.0465
40.3254
32.3086
32.4584
29.3197
29.9476
28.5124
27.0013
24.4848
22.1569
19.8767
18.3214
16.9004
15.9054
14.4934
13.0818
12.272
12.2201
12.6232
29.7552
27.0692
29.3599
20.8919
19.1055
12.1931
10.137
9.35836
9.41053
7.97118
6.94272
5.70473
4.83277
4.09806
3.49624
3.06811
2.58838
2.40427
2.02874
6.34467
21.0983
6.05886
13.1768
5.87329
7.16549
4.44289
4.29312
3.11936
2.77305
2.22306
2.14346
1.9803
1.98822
1.86408
1.76452
1.63605
1.52082
1.42811
1.25735
17.4183
48.8966
55.3582
53.3631
28.7168
36.5119
20.8502
23.6481
16.8528
17.4231
15.4318
16.2209
15.3655
15.6643
14.9413
14.5894
13.8533
13.2339
12.4018
11.3371
46.2182
86.5348
81.2496
70.0381
38.7647
43.5915
24.3723
29.7396
19.4644
21.873
18.0644
19.1875
17.2549
17.4032
16.1791
15.7942
14.9387
14.5058
13.6718
12.5073
25.7988
91.5195
76.1901
75.2177
37.1782
46.6482
25.7519
31.4247
21.059
22.7122
18.8893
19.439
17.4568
17.1328
15.779
15.1369
14.1328
13.5597
12.6038
11.396
49.5092
90.1542
67.2343
69.2439
34.7695
47.4306
25.5623
31.2742
20.9038
23.4173
18.921
19.9081
17.4129
17.2066
15.414
14.6579
13.3232
12.5988
11.4278
10.1123
82.7279
87.7719
58.3647
71.0752
34.2343
50.885
27.9849
31.8491
23.7799
23.4561
20.2297
19.6307
17.8491
16.8493
15.1324
13.8131
12.2335
11.1049
9.76257
8.4377
99.5373
84.4329
67.6973
71.848
34.9858
51.7646
31.492
36.4057
25.1515
25.5007
20.7644
20.5752
17.9334
16.9453
14.5372
13.0142
11.0204
9.73896
8.37433
7.4211
66.2742
86.7456
78.6238
72.2479
39.3322
51.5285
47.7311
42.6827
35.2341
31.2365
27.6351
25.5424
23.6036
21.9862
14.4418
12.125
10.355
9.28185
8.26278
7.62025
69.9638
83.2067
75.3625
68.3708
39.3365
51.5008
44.8887
37.8692
31.2172
26.6002
23.521
21.2208
19.6975
18.5288
17.2532
12.5591
11.0221
10.4768
9.71396
9.26204
28.5505
79.6828
75.4786
63.2048
42.5616
48.8926
42.1773
33.9994
29.0888
24.8486
20.6219
16.7166
15.2791
15.4012
15.7347
13.5713
12.8772
13.0797
12.8227
12.4135
9.62109
53.966
60.4272
57.4641
35.9718
46.9296
40.2219
32.4783
28.028
24.4675
18.178
13.7783
12.8733
13.8361
14.8651
14.7198
15.0235
15.4765
15.5533
14.7996
22.082
64.5532
48.2331
62.384
43.5513
48.8286
40.5523
31.5206
26.4955
22.3116
18.118
15.1339
14.176
13.9232
14.6033
15.877
15.9014
16.3181
16.2914
15.1465
48.4329
71.1003
47.8238
65.3582
35.2034
49.5487
40.6167
34.8921
27.3599
22.9866
19.0589
16.9377
15.8287
15.4604
16.0292
15.8611
15.9915
15.9415
15.7602
14.3634
30.157
67.3214
59.4868
68.5954
43.8049
50.8526
27.4307
36.5213
22.9324
26.8599
18.0693
21.1855
15.9208
17.3403
15.3584
15.8009
15.0609
14.8864
14.581
13.0397
59.2582
75.031
63.6272
66.3501
38.7868
46.9858
26.5542
35.5719
23.3081
26.8638
19.1358
21.4037
16.0317
16.5435
15.0727
15.2313
14.4987
14.1439
13.6952
12.0286
66.7905
59.6651
72.3282
48.8597
38.7342
46.8478
26.6275
34.231
21.1686
26.2614
17.9848
21.2538
15.1567
16.583
13.7131
14.1827
12.9217
12.7607
12.0988
10.7315
52.3044
66.4856
46.0924
52.8169
39.2342
44.1366
28.9534
33.8551
21.9295
26.3962
18.0879
21.5754
15.2048
16.1998
13.6218
13.7635
12.5188
12.1713
11.4293
9.98442
30.7754
34.333
55.0604
31.978
39.6532
41.4933
29.5426
34.7709
22.5779
26.8719
17.4975
19.3969
14.7098
15.2983
13.1969
13.1973
12.0825
11.7899
11.0834
9.90902
50.0317
37.2275
29.1289
38.8748
21.813
31.518
21.1403
29.6485
19.3158
24.717
15.3303
14.9213
11.7036
10.8244
9.46879
8.97263
8.32212
8.21304
8.04567
7.75496
3.65834
22.4192
17.113
23.6131
7.74365
7.00596
4.02114
5.11882
3.75752
3.87537
2.79657
2.41335
1.87897
1.6002
1.33352
1.15304
1.01903
0.918333
0.885394
0.779596
26.7334
27.4646
8.98506
31.327
27.798
29.5874
8.87586
21.4391
7.76817
6.46888
26.1821
21.6732
7.81033
7.5179
9.18623
25.8868
23.6855
30.2033
8.76549
28.6341
25.2508
5.94515
22.8745
20.7178
7.56405
6.75281
24.1493
21.4116
0.261069
0.373692
0.196684
12.6581
12.7939
12.3397
12.2006
0.213773
0.184463
0.182121
12.3996
11.2521
12.108
12.0318
0.242974
0.189511
0.255063
11.5046
12.8412
12.6249
14.3688
0.281579
0.2637
0.253123
13.243
13.7713
14.5079
14.1953
0.257314
0.244138
0.222113
13.8604
13.8138
14.0277
13.416
0.224489
0.218727
0.203627
13.7251
13.0867
13.1819
12.1206
0.196056
0.196702
0.170706
12.8459
11.9373
11.6627
10.2
0.141957
0.162909
0.114524
11.5858
11.0643
9.75023
9.09362
0.213862
0.326298
0.236454
11.2021
13.053
10.6682
13.4688
0.195303
0.25014
0.245486
13.1651
12.7539
13.9203
13.8014
0.245594
0.237609
0.221846
13.1512
14.2777
13.5429
12.782
0.236337
0.211858
0.199554
14.2325
13.8029
12.596
12.2097
0.213791
0.19451
0.184269
13.6075
12.9141
11.7338
10.4662
0.195648
0.178777
0.161323
12.6111
11.3328
10.1231
9.23874
0.15933
0.155198
0.135638
10.8085
9.26095
8.97383
7.96883
0.108539
0.122827
0.0814135
8.8642
8.603
7.67667
8.12273
0.253043
0.447706
0.24105
13.0599
13.4656
13.6149
12.57
0.238963
0.222181
0.190234
13.4702
13.0314
12.109
11.4114
0.203967
0.18438
0.17423
12.7597
12.1554
11.3198
11.3399
0.188947
0.172643
0.174291
12.1224
11.7678
11.4046
11.4397
0.173227
0.174892
0.175325
11.3722
10.3447
11.3321
10.7536
0.155948
0.17125
0.155233
10.0713
9.40995
10.47
9.41348
0.127451
0.147719
0.10811
9.17926
7.91009
8.84848
7.86859
0.0828978
0.112109
0.121115
7.60346
8.29213
8.3671
9.98622
0.219512
0.493432
0.280943
11.9717
12.0577
9.27331
10.4379
0.180427
0.262053
0.242947
11.7303
11.0191
10.9906
11.2847
0.168545
0.234959
0.221451
10.9477
11.1574
11.1734
11.3606
0.188875
0.22755
0.217104
11.309
11.3874
11.4885
10.7365
0.181112
0.203684
0.173034
11.2598
10.5217
10.2889
9.25581
0.152655
0.162408
0.129684
10.2216
8.99489
8.85703
7.46121
0.107305
0.11787
0.100679
8.47513
7.99967
7.08918
7.02747
0.119117
0.103413
0.0900065
8.3887
9.7341
7.29393
8.68155
17.7051
18.338
16.4845
33.771
30.4311
31.4983
28.4914
15.7599
16.1756
16.0314
29.1226
27.8426
27.7174
27.1059
17.398
16.6974
18.4318
27.9114
27.7423
27.3677
27.6014
18.0542
18.53
18.1208
27.5193
26.7321
27.3607
26.1327
17.5983
17.8884
16.9626
26.3734
25.0686
25.5264
23.2242
16.4725
16.5727
14.9597
24.6084
23.0256
22.3474
19.3412
14.818
14.3044
12.318
22.4471
20.5683
18.3029
15.7679
13.1723
11.7667
10.5061
19.9934
18.8662
15.243
14.5186
17.2862
15.8758
17.8975
29.9835
28.8394
28.9641
29.4353
16.676
18.2071
17.8217
28.2688
27.3093
29.1182
27.7765
18.2488
17.5475
16.7478
27.4591
27.3654
27.3489
26.1771
17.6715
16.5838
15.4229
27.0952
25.4388
25.7279
14.7614
16.1472
14.5103
12.2552
24.4445
21.0299
12.7424
9.41147
13.6895
11.7314
10.6279
19.9002
16.5119
8.91317
9.5505
10.9241
10.3559
9.51152
15.4613
13.2519
9.96252
10.9805
9.92388
9.32929
9.58561
12.9834
13.3864
11.3454
12.5698
17.8951
19.265
16.9153
30.4767
29.3252
31.5948
28.4759
17.1256
16.3024
15.3236
28.7994
27.3084
27.4638
25.4982
16.1571
15.1871
15.0928
26.8637
25.647
25.0929
24.1808
14.9365
15.1096
14.8875
25.5858
14.6818
23.9041
22.2903
12.2045
14.6613
13.7381
12.5444
9.32433
21.6116
19.6985
11.1343
13.3559
11.9423
9.05686
11.3498
19.0947
17.2027
9.8396
11.2876
10.426
12.0222
12.7807
16.5809
15.8312
9.96286
10.8546
11.8568
12.9814
13.3156
15.8769
15.8383
16.4283
13.9845
14.67
31.0347
28.2897
22.6206
27.1439
14.9007
15.0818
15.1817
27.2425
25.0458
26.6554
25.0902
14.8437
14.9812
14.9334
24.6079
23.7437
24.4752
23.3901
14.7659
14.9939
13.9919
23.4857
22.2102
23.0106
21.1282
13.4906
13.4389
12.0732
21.6297
19.7119
20.3576
18.3214
11.4787
11.5567
9.94626
19.0319
16.9615
17.6043
15.852
10.5327
9.56287
9.59828
16.4018
15.9552
15.519
15.5275
11.8517
9.91137
10.9945
16.0381
15.9985
15.6799
16.1815
33.901
35.6448
31.9656
46.4059
41.4588
44.2601
39.6034
31.1222
31.0716
30.0528
40.0906
37.3386
38.268
35.5361
30.0093
30.0721
29.5918
36.4313
33.226
34.7852
32.2587
28.3879
29.1938
27.5707
32.2776
30.1227
31.3971
28.6828
26.3381
26.8176
24.0893
29.3721
27.1579
27.6171
24.2559
24.1052
23.0991
19.8795
26.5051
24.7316
23.1425
20.0515
21.6108
18.835
16.4702
24.147
22.5795
19.2273
17.7868
19.9863
16.0365
15.5094
22.1772
21.4512
17.5994
17.7134
32.1336
33.134
32.5036
43.0119
39.3145
41.8426
38.8244
30.135
31.9782
30.2917
38.0712
35.3787
37.7377
34.8874
29.3882
29.7876
28.2654
34.6208
32.1694
34.0442
31.3979
28.9749
28.5049
28.7434
30.3209
27.9637
29.6816
30.1198
19.6367
24.1559
22.2198
26.0628
20.0513
24.521
22.0055
16.7594
6.35294
8.64674
20.4332
17.3475
7.99344
10.428
13.8491
9.41388
11.1337
16.6098
15.6777
11.0836
12.7585
14.3103
11.6756
13.1186
15.7297
16.6938
13.298
14.6658
32.3557
35.388
31.5816
41.8523
38.5835
42.6018
37.953
29.8616
30.4499
28.111
37.4415
34.4991
36.4291
32.8822
27.7396
27.5835
26.2958
33.6396
30.9693
31.9458
29.4431
18.6157
15.9014
26.6511
24.4151
22.3216
3.31474
27.789
12.2737
6.77353
14.9069
2.04331
14.2389
1.88396
12.2068
10.5792
20.0747
18.1747
7.70512
11.7427
20.6702
18.6498
13.1095
17.588
16.7518
12.5193
13.8617
18.0731
16.9341
13.8236
16.6743
16.2875
14.189
14.8618
16.6547
15.8637
31.462
26.2584
30.5029
42.9146
37.8842
32.004
37.3236
27.6479
29.7504
27.5834
36.2208
32.3704
35.8939
32.137
25.803
26.8074
25.2548
31.3815
28.8355
30.9032
27.8915
23.7227
24.7396
22.6215
28.0283
25.2886
27.0027
24.293
20.8762
21.7974
19.608
24.3309
21.6439
23.3208
20.7493
18.0449
18.8757
17.1725
20.8291
18.6497
20.0278
18.4085
16.8869
16.8338
16.6772
18.0963
17.0198
18.006
17.3045
16.4887
16.74
16.9788
16.7557
15.9837
17.1611
16.9079
42.9126
46.1445
41.0004
47.4718
42.3098
45.5568
39.1697
38.2508
39.5065
36.1944
40.5586
35.8378
37.4736
33.3192
33.2668
35.2168
32.1412
34.1213
29.9875
32.0435
28.5928
29.8452
31.1531
28.1906
28.9358
26.5045
27.5898
24.5913
26.6814
27.0864
23.7037
25.6235
23.4706
23.5614
20.5326
24.2963
22.6067
19.6888
22.8949
21.5774
19.592
17.6557
22.3009
18.975
17.8271
21.1331
20.0761
17.3412
16.8931
21.2645
17.7
17.827
19.7618
18.9982
16.8191
16.5401
40.6072
43.5829
39.867
44.8334
38.5525
42.9121
37.133
35.9909
38.6185
35.3719
36.9855
33.0746
35.7483
32.2116
32.0725
34.3993
31.4511
31.8602
28.72
31.2096
28.3902
27.4173
30.0069
14.9816
27.6701
24.161
27.1819
21.1362
21.5093
13.1064
10.7518
22.9051
19.3193
19.1402
15.0962
17.3453
10.7586
11.6673
18.2753
16.1886
14.2822
13.0348
16.0282
12.0358
13.3097
15.9521
15.8838
13.0508
13.9198
16.92
13.7596
14.9329
15.9371
16.0498
14.1753
14.7041
39.5984
44.0764
38.9738
42.8484
36.8672
42.9763
36.2665
34.9777
37.3185
33.3817
35.4156
31.8094
34.5236
30.4855
31.0419
32.3193
29.4481
30.8178
28.0457
29.3516
26.494
14.764
28.5195
25.0057
26.8811
20.7946
25.418
21.8158
10.3908
23.8401
20.9381
18.8969
15.1777
20.6473
17.6816
12.6904
20.157
18.0443
14.4656
13.333
16.8846
15.152
14.0266
17.4866
16.3594
13.3134
13.9723
14.9055
14.5593
14.953
16.0877
15.3999
14.1342
14.5105
14.4533
14.1745
38.8834
35.9067
38.3742
43.2615
36.2047
41.6933
36.7486
32.8624
36.8019
32.6501
34.3743
30.0837
35.0181
30.343
28.8212
31.2699
27.8265
28.8865
25.7547
28.6212
24.7907
24.8844
26.8416
23.9647
24.7452
21.3644
23.72
20.6179
21.0538
22.94
20.2802
20.2795
17.4854
19.5789
17.2314
18.0232
19.5729
17.9984
16.7146
15.187
16.6937
15.6158
16.4119
17.5822
16.8032
14.9579
14.5426
15.3152
14.8334
15.4823
16.6456
16.4294
14.4138
14.1411
14.7364
14.7387
39.7028
42.6833
36.0851
25.979
23.4227
20.7058
18.8952
32.9004
34.4754
30.468
21.0624
15.9336
18.5131
16.8752
27.5478
29.2541
25.8855
16.2732
15.9406
16.5642
13.6784
24.3421
24.891
22.0981
15.3113
14.3364
12.9919
11.7234
21.7214
21.1927
18.6339
14.6493
14.6965
11.4243
11.3109
20.092
17.9022
16.6223
14.4039
14.0891
11.6908
14.8963
18.8233
16.4432
16.166
14.1994
14.1551
15.0002
14.914
17.8297
16.0898
15.7558
14.0643
12.8834
14.848
14.3871
35.4863
40.1487
34.0934
22.5938
18.4153
20.6041
17.5462
30.2619
32.8032
29.4615
18.0355
16.8241
17.519
15.8577
25.8596
28.3837
25.6164
15.8723
12.8971
14.5037
11.7686
21.6991
24.7387
20.0816
12.2158
10.7932
11.1467
9.20201
17.5758
18.4197
14.6148
10.4127
10.0027
8.71922
7.85985
15.3519
13.6799
12.6139
10.3442
13.8607
8.10709
11.6567
15.3705
12.7556
13.7235
14.3147
14.5516
12.5957
13.7584
15.3821
13.9326
14.3295
14.5384
14.2206
13.8335
13.7993
33.8358
40.3449
33.2244
22.9592
17.324
21.2803
17.2212
29.1022
31.6362
27.967
17.1991
15.663
17.1685
16.1474
25.3171
26.8853
23.8845
14.3338
11.6223
15.1232
12.095
19.7679
22.8423
19.4948
10.9764
9.10622
11.4518
9.97216
14.6427
18.4379
15.8082
8.61707
7.75577
9.70587
9.46559
12.7575
15.1532
14.1257
8.03988
11.6337
9.97848
12.9326
13.6906
14.0697
14.0228
12.5662
13.6847
13.467
13.7378
14.1413
13.9663
13.8053
13.7433
13.6896
13.7116
13.5315
33.2033
40.9299
34.3114
23.4262
17.4339
23.022
21.4659
27.6153
32.5979
28.0569
17.2905
16.0406
20.5934
16.2492
23.3399
26.372
22.8924
15.7855
12.8367
15.1382
15.5381
19.1008
21.8759
18.9549
12.2259
10.8839
16.0781
14.6463
15.7218
18.0134
16.0727
10.6839
10.7507
14.8082
14.365
14.2577
15.6316
14.837
11.4098
13.4461
14.1622
13.882
14.0104
14.5968
14.2831
13.6499
13.7144
13.7427
13.6483
13.76
14.1992
14.2709
13.6721
13.4739
13.5913
13.6721
27.184
27.7794
24.544
27.5025
26.5547
28.7484
24.6184
24.9096
28.1666
17.0094
25.0354
26.114
29.322
4.60188
19.151
18.3092
11.4667
2.48158
22.1511
15.2359
2.85057
29.596
31.0901
30.4022
31.174
30.2988
30.9089
29.8515
27.6029
27.8371
29.2066
25.1972
29.1991
24.7684
27.9457
25.238
25.1123
30.6593
16.9264
30.1403
4.59238
27.7166
19.1574
2.56326
18.2312
11.1065
15.0514
2.88456
22.6613
17.5092
22.7719
16.4609
21.5848
18.0565
22.9944
16.0054
10.3111
15.323
6.79589
2.0385
12.8922
12.577
1.75731
8.53864
9.72828
6.31751
3.71848
10.7852
8.07813
2.95018
19.713
26.2564
24.581
22.5825
24.6383
22.0835
20.3519
17.658
21.6583
23.0657
17.097
23.0771
16.2514
18.4994
10.3601
2.34413
15.3222
7.20278
12.5008
2.19106
13.1828
8.76911
3.96944
10.9154
7.16193
8.49043
2.99853
11.7402
14.0073
11.2391
15.9338
2.44247
18.084
2.81416
12.6069
25.9821
26.3696
25.3148
27.3403
25.1786
27.7681
26.5793
23.5774
21.9844
24.5297
24.5902
23.3914
22.074
25.5962
19.0707
24.5776
16.8361
29.3304
3.59859
28.6642
24.002
14.1762
2.52856
11.0372
16.4411
2.88349
12.7798
18.7893
26.7003
28.2583
29.1076
27.6466
28.6804
27.3527
27.4295
24.0845
25.1016
23.2432
26.4513
22.4698
26.2297
25.0065
12.693
5.80154
13.6598
2.90614
13.943
2.26242
12.4984
20.242
20.9578
22.1055
23.674
20.111
21.0215
22.8231
19.7301
18.9259
21.4011
21.3173
19.5045
19.1214
22.0583
12.3594
2.32447
6.81119
15.305
2.23648
12.3334
14.6222
12.7896
3.28157
6.22292
14.0761
2.43194
12.6286
14.3323
20.4844
24.0893
21.9293
23.1394
21.3218
23.1589
20.8913
19.9318
21.5425
19.4675
22.2444
19.291
22.3319
20.1588
1.11647
1.40703
1.13678
7.32907
8.75229
7.81971
9.0284
0.873732
0.938995
0.846981
9.44017
9.02391
8.99561
8.88758
0.928279
0.774497
0.809441
8.33168
8.94482
8.98772
9.61582
0.848136
0.900398
0.879397
9.11054
8.36229
10.0085
10.2325
0.786977
0.822528
0.800925
8.59076
9.36134
10.2947
10.3264
0.692892
0.784245
0.734688
9.66129
9.41377
10.0723
9.86595
0.608809
0.671807
0.63531
9.35957
9.40666
9.50553
9.24619
0.456405
0.605129
0.494812
8.95038
11.1588
8.5909
10.3448
1.16914
1.78842
1.18392
8.54223
9.88806
8.66762
10.3789
2.89336
0.393286
0.408514
2.72099
2.99201
2.55061
0.326233
3.44051
0.230758
0.192663
3.61551
3.54824
3.30372
0.183623
3.52229
0.2105
0.19088
2.54261
2.58357
3.39034
0.198107
4.51918
0.272658
0.259497
3.192
3.42752
4.35471
0.269567
4.77581
0.271168
0.27234
3.76368
4.05589
4.73138
0.262398
4.58207
0.240438
0.240108
4.56274
4.63619
4.65331
0.231461
4.28208
0.209466
0.210445
4.49581
4.49735
4.3714
0.203139
3.89423
0.180064
0.181197
4.30873
4.30673
3.96906
0.171567
0.416309
0.48724
0.362728
8.18118
10.0398
7.23895
8.35049
1.00566
1.62144
0.967436
6.73912
8.33851
7.04965
8.08315
2.65207
0.260757
0.335208
2.27748
2.73487
2.21444
0.252164
4.79914
0.20181
0.23083
4.32634
4.44654
4.62428
0.228756
4.90729
0.212611
0.21771
4.5424
4.73786
4.82208
0.227115
4.68658
0.250294
0.239355
4.92528
4.84133
4.80016
0.236888
4.39041
0.22119
0.214262
4.60147
4.53922
4.41909
0.211178
4.18151
0.207786
0.203003
4.3958
4.34151
4.24652
0.199193
3.72649
0.177826
0.174546
4.0505
3.93211
3.84856
0.165761
3.22342
0.142037
0.140192
3.52213
3.44307
3.31739
0.131294
0.346866
0.394066
0.334356
6.69662
7.65724
6.55088
7.39073
1.30799
1.7644
1.31744
8.63977
11.4001
8.2458
11.4336
3.39081
0.298986
0.424971
2.45637
3.2429
2.5658
0.302523
3.83854
0.247068
0.235237
4.28615
4.28636
3.86389
0.225316
3.61006
0.220195
0.209661
3.97449
3.88619
3.63894
0.202675
3.65362
0.194409
0.188277
3.69181
3.77034
3.60087
0.1846
3.64633
0.181312
0.171235
3.73765
3.76245
3.60777
0.168764
3.56555
0.164609
0.162463
3.75623
3.70981
3.61252
0.159672
3.22285
0.149014
0.150748
3.53911
3.42604
3.38962
0.146316
2.38589
0.101249
0.100653
2.42989
2.37697
2.21766
0.103106
0.378518
0.517694
0.422433
7.1101
7.76058
7.58217
9.05563
1.14079
1.86382
1.16786
6.6188
8.86211
6.59271
7.25993
2.64013
0.284069
0.389553
2.2983
2.71237
2.3725
0.301345
3.26097
0.195864
0.209641
3.45339
3.34821
3.18186
0.199744
3.2859
0.169916
0.18697
3.16882
3.15902
3.25799
0.185774
3.74681
0.18101
0.201395
3.48078
3.59657
3.63598
0.207962
3.6969
0.188987
0.208017
3.71799
3.6937
3.792
0.200841
3.26835
0.166798
0.173816
3.46443
3.37055
3.37028
0.165472
2.55523
0.125615
0.131394
2.95696
2.68028
2.82655
0.114847
2.64826
0.114081
0.102331
2.62792
2.83877
2.46314