/*--------------------------------*- C++ -*----------------------------------*\
  =========                 |
  \\      /  F ield         | OpenFOAM: The Open Source CFD Toolbox
   \\    /   O peration     | Website:  https://openfoam.org
    \\  /    A nd           | Version:  10
     \\/     M anipulation  |
\*---------------------------------------------------------------------------*/
FoamFile
{
    format      ascii;
    class       volScalarField;
    location    "2.8";
    object      omega;
}
// * * * * * * * * * * * * * * * * * * * * * * * * * * * * * * * * * * * * * //

dimensions      [0 0 -1 0 0 0 0];

internalField   nonuniform List<scalar> 
12920
(
245.297
205.96
143.056
123.685
104.809
90.4813
78.2045
71.3003
65.849
62.9172
59.9432
58.6906
57.1216
55.2836
53.2932
50.418
47.2488
44.5348
43.7507
42.3582
381.864
247.781
183.184
140.533
113.057
98.92
87.0643
80.8598
75.0133
72.681
70.2892
68.5647
65.5339
61.4592
57.6092
55.557
55.118
55.3044
56.1461
56.179
143.542
235.749
237.28
174.23
127.534
103.661
89.6198
81.1449
72.2994
66.0844
60.6288
57.2673
55.0838
54.0913
53.9024
54.0131
54.4932
55.0056
55.0669
53.2598
123.162
202.708
202.867
177.279
136.414
110.485
91.6092
80.8359
71.7513
65.7307
60.931
58.1439
56.0579
54.3722
53.252
52.4225
51.9049
50.6968
49.4306
45.903
298.806
284.803
229.13
172.386
137.986
115.897
95.2341
80.9447
72.7664
68.301
64.9726
62.5557
60.339
58.4999
57.1649
56.5463
55.7291
53.3736
50.2852
44.1204
509.263
437.968
296.43
191.987
147.482
129.301
109.109
93.353
82.0565
74.2165
68.8519
64.8072
62.0407
59.7416
58.4386
57.4236
56.2188
52.7164
49.7917
42.4389
342.668
284.589
221.246
174.307
141.854
127.165
107.342
94.7232
85.6171
76.9695
70.7858
66.6495
64.4189
62.0367
59.638
58.3637
56.9085
52.5735
49.0963
39.7384
187.128
223.414
219.738
183.199
144.196
128.31
198.435
142.434
137.542
123.811
119.681
114.297
111.081
105.264
64.3541
60.0937
58.1814
53.5964
48.4803
36.8022
249.665
228.051
211.835
178.501
133.535
188.714
312.898
206.625
188.082
194.156
201.701
198.606
190.939
179.564
108.413
59.9559
57.9267
53.7444
46.5423
35.6073
295.298
276.403
204.181
161.224
124.072
181.864
251.124
197.045
193.427
209.521
197.748
190.115
182.6
169.592
101.278
56.5223
53.9509
51.9004
45.9179
37.3948
368.961
260.23
172.633
115.263
92.0014
142.458
213.214
187.687
193.049
187.107
180.789
174.911
168.667
142.841
97.2328
53.4499
50.7462
49.5535
45.8813
42.8115
364.154
290.89
193.558
143.13
114.437
162.886
244.314
177.1
161.998
166.943
172.668
162.748
143.555
118.794
87.0778
52.7067
50.4532
49.3284
47.8601
46.7624
192.888
212.744
177.286
156.118
129.191
113.386
165.635
125.217
111.408
105.74
96.7929
86.0132
73.2062
68.8066
46.2012
46.5232
47.2155
47.563
47.4328
46.4801
318.831
243.138
222.796
182.194
139.488
113.89
93.1798
79.9159
70.2813
63.507
57.2373
51.4914
46.5402
42.8958
40.5402
39.7029
39.9771
41.3354
42.9188
42.5838
253.658
246.304
212.127
171.571
130.183
110.603
92.3283
85.5456
72.4803
64.4534
56.9955
51.5899
46.8714
43.0481
40.3715
38.4044
36.9385
36.3517
36.4569
36.3102
462.76
235.507
172.081
148.6
121.451
113.899
99.7157
93.9614
78.4985
66.3753
55.9809
50.3457
46.2349
43.6705
41.4484
39.5362
38.1822
36.7552
36.0689
35.1513
388.935
193.578
151.957
130.101
113.429
105.504
97.0569
93.4839
83.8614
71.4888
59.0129
51.4278
47.7174
45.6399
43.8741
41.7901
40.5563
38.5881
37.4475
34.6836
371.92
226.567
150.938
113.235
93.3417
85.1008
81.5763
79.9195
76.4857
69.5273
60.6211
54.603
51.0902
49.2325
47.5795
45.619
44.4238
43.0852
42.3434
39.8961
180.693
182.016
158.189
115.592
92.3162
83.0826
76.2615
73.7994
69.3603
65.3621
59.9466
56.1393
52.953
50.7996
49.3467
48.0566
47.2576
45.5933
44.5477
40.6137
156.881
173.489
168.784
155.038
138.306
106.435
80.2147
70.005
62.994
58.4316
54.9522
52.1662
49.8814
47.9392
46.3289
44.1661
42.7654
40.8406
39.6977
36.2228
42.5964
72.6746
63.934
62.4566
58.7922
50.513
43.08
40.0325
38.4649
37.9295
36.9328
35.7504
34.2039
32.4244
30.4919
28.8203
27.9135
27.3383
26.9993
25.7715
278.864
157.993
105.949
79.6181
65.9338
57.584
48.9908
43.3731
38.5335
36.8779
35.1949
34.505
33.6592
33.377
33.4741
34.0661
34.2545
34.1128
33.4842
32.2535
171.009
183.038
140.832
82.0171
60.5785
50.2587
43.1578
38.4786
35.0648
33.0215
32.1454
31.5972
31.3642
31.1116
30.8106
30.3725
29.8093
29.3086
28.9583
27.8382
163.145
149.528
122.792
89.6786
76.7358
64.4088
52.7614
43.278
37.1451
33.4495
31.4169
30.331
29.8915
29.4448
29.3277
29.1233
29.0098
28.5608
27.6995
25.1716
133.499
156.386
128.086
100.308
83.2634
71.2083
58.8762
47.4985
40.1606
35.3271
32.7399
31.0034
30.0554
29.2487
28.8891
28.6626
28.63
28.2695
27.4691
24.7259
190.905
216.548
161.986
107.436
81.4721
71.9266
60.9748
52.8009
45.2664
38.8373
34.1503
31.3134
29.8561
29.1512
28.8201
28.5445
28.2362
27.098
26.2558
23.9709
235.985
166.775
111.2
82.8018
69.9221
66.2559
57.1141
50.8187
44.1632
38.4928
34.0579
31.5578
30.1711
29.644
29.3738
28.9826
28.1735
26.7065
26.1876
24.0123
159.856
153.982
119.211
84.3284
67.7648
63.5874
67.1171
60.7436
48.6234
38.1806
34.7362
32.1248
31.3932
30.7254
29.5419
29.4189
28.3777
27.0226
26.519
23.4226
238.868
155.739
115.61
83.2223
67.5659
68.2984
69.8668
59.0756
46.054
37.2914
34.2248
32.6127
31.9932
31.6062
31.1481
29.7047
28.123
26.9795
26.041
21.6579
321.858
146.077
98.0136
85.1262
73.8756
72.9209
66.2587
50.718
44.795
38.3452
34.9523
33.5464
33.9714
34.8004
35.1197
31.7759
28.3544
26.6854
24.7891
20.7859
148.415
154.426
107.536
69.5937
54.4054
51.096
52.4802
42.353
41.1828
38.8972
37.1484
36.9966
35.57
34.7408
31.1241
27.5627
26.2799
25.4622
23.9901
22.0745
195.435
141.603
108.858
90.4819
72.2683
61.3817
54.8835
45.7708
40.1726
37.3908
35.4301
33.3487
30.9877
25.9268
22.8856
23.1831
24.1451
24.4342
24.3031
24.123
228.816
141.749
94.1349
89.6623
79.7994
64.9746
64.6263
51.204
39.2358
34.3861
31.5392
29.5455
26.611
24.042
21.266
21.7837
22.7803
23.5852
24.2765
25.0722
203.322
147.591
132.19
103.733
77.6696
60.0327
49.0059
40.5968
35.2919
32.2021
29.3884
27.095
24.8401
22.8439
21.5271
20.8542
20.9056
21.4413
23.1016
24.3664
196.446
173.261
133.022
95.1339
71.1069
55.7792
45.2489
41.3035
35.7946
32.4674
29.0892
25.9699
23.6679
21.8909
20.5438
19.674
19.4003
19.5474
20.3739
21.1436
245.113
151.867
95.0176
76.2044
59.3786
54.2177
45.481
43.7605
38.5967
35.2562
29.9569
25.8348
23.1875
21.5948
20.6195
19.9126
19.5287
19.1167
19.1291
18.9379
199.331
137.332
81.648
64.5484
55.6607
53.251
48.557
48.6887
47.4517
45.4886
37.758
28.4583
23.5049
21.8406
20.9747
20.3066
19.9138
19.4016
19.1538
18.4181
608.85
127.21
83.7231
71.3759
59.593
52.2667
48.0191
47.7229
47.4781
45.6185
38.2456
30.3707
25.929
24.3515
23.4517
22.7042
22.2351
21.7516
21.6538
21.2668
227.619
179.288
112.569
74.1315
55.3987
48.1217
42.4756
39.8605
37.8769
36.4628
34.5144
32.1564
30.0081
28.6799
27.8231
27.1573
26.4492
25.0827
24.2248
21.9675
109.524
98.4476
93.2641
81.2197
69.621
57.5616
49.019
42.7624
38.5489
36.2113
34.0397
32.4759
31.0968
29.8728
28.5144
26.9265
25.9055
24.6275
23.7176
20.9183
42.203
65.9888
61.8092
61.6055
61.2587
57.3947
48.907
44.6372
42.4241
40.8581
39.1443
37.0767
34.8315
32.5334
30.677
29.5445
29.1417
28.4639
27.8426
26.0586
270.317
130.659
99.4212
69.8204
57.326
49.9924
42.9989
40.2483
36.7823
35.8486
34.1584
33.508
32.474
32.081
31.9079
31.9969
32.0499
32.061
31.9609
31.4379
411.92
190.241
140.797
77.5349
53.4975
42.3013
37.1618
33.7177
31.3282
30.2566
29.4192
29.2551
28.9498
28.865
28.631
28.4069
28.1893
27.7638
27.3782
26.4119
99.2557
133.118
117.718
76.6965
58.8318
47.9932
40.0488
34.8771
31.0637
29.1441
27.8203
27.3277
26.9657
26.8185
26.7001
26.6166
26.4195
25.8686
25.0317
23.4182
130.772
147.438
99.3506
72.6786
60.1425
50.1706
42.1788
36.1206
31.9993
29.5468
27.9757
27.1651
26.6027
26.2933
26.1075
26.0395
25.8651
25.2183
24.3097
22.4686
195.713
162.11
102.983
77.1751
62.8425
54.0327
45.389
39.7072
34.5467
30.8432
28.1807
26.7781
26.0325
25.6547
25.4837
25.2909
24.9707
24.0264
23.319
21.7846
337.773
173.955
115.775
71.337
57.4971
51.4656
44.132
38.7223
34.1716
30.2874
28.0195
26.7397
26.1714
25.8711
25.6389
25.1619
24.4951
23.5877
23.0522
21.3214
128.355
171.131
128.434
73.3301
56.1711
50.1986
48.868
43.0973
36.2499
30.6365
28.5551
27.4426
26.8586
26.5363
26.6681
25.6447
24.5597
23.6438
22.9487
20.3693
152.974
148.905
110.567
69.4099
51.1571
49.6973
50.2819
43.4426
35.385
30.924
29.326
28.494
28.1985
28.1384
28.0486
26.4397
24.7852
23.4328
22.068
19.4592
217.43
132.859
84.5016
59.4981
49.9407
48.5621
47.9532
40.6623
36.3442
32.3639
31.2747
32.6824
34.3572
35.0945
32.7347
27.2339
24.8443
23.1236
21.6125
20.0966
201.075
172.698
84.7625
51.1223
41.6188
40.6468
41.4974
35.6032
33.8743
31.5896
72.7029
67.6091
38.1984
32.8729
30.0031
26.0066
24.2417
23.0845
22.09
21.7596
152.468
146.02
82.2873
58.0662
47.9465
43.0499
41.5616
35.9616
33.0341
31.3669
29.7303
27.9189
25.8183
24.1083
23.5921
23.6748
23.3602
23.264
23.2724
23.4119
235.205
167.604
80.2699
61.0365
54.6507
45.8186
44.463
38.2367
31.4601
29.0025
26.0548
24.3729
22.2078
21.1799
21.0068
21.1958
21.9091
22.6737
23.2365
23.7338
166.848
134.964
95.9992
71.0318
55.3768
44.2188
37.7041
31.9586
28.8108
25.958
24.0849
22.1216
20.8215
19.6845
19.2862
19.2708
19.6062
20.5835
21.7447
22.4689
138.139
127.199
92.6079
64.7341
50.511
40.8392
35.8812
32.2395
28.6048
25.8642
23.5033
21.5205
20.0757
19.0819
18.4353
18.1468
18.1647
18.4524
19.1219
19.8932
162.739
106.449
73.8689
55.8555
47.0259
41.3409
36.4144
34.0415
29.7697
26.8506
23.5901
21.4682
20.0117
19.1616
18.5902
18.2747
18.093
18.0606
18.1396
18.3634
217.058
98.0418
66.2549
50.705
46.4843
42.6145
39.5143
38.4801
35.7004
32.2917
26.5151
22.9901
20.7943
19.969
19.34
18.914
18.6351
18.3858
18.263
18.0946
219.758
108.513
70.525
56.3193
49.9694
45.3021
41.1292
40.0863
37.5694
34.1644
28.6863
25.6411
23.642
23.0244
22.4261
22.0094
21.6846
21.3712
21.2241
20.8115
427.241
179.482
90.746
66.2758
55.3169
49.1593
42.4909
38.8445
34.9135
33.1947
30.6611
29.7269
28.5906
28.4065
28.0302
27.6817
26.9993
25.894
24.8187
22.7385
134.593
132.637
110.609
92.2714
79.8619
68.7676
57.9094
47.869
42.0085
39.3757
37.4479
35.7574
34.028
32.3617
30.7737
29.0173
27.8408
26.1547
25.024
21.7354
38.3087
52.2622
52.3617
59.3517
61.9164
58.9153
51.4502
46.8845
43.9511
40.9915
38.1472
35.0754
32.6833
30.8031
29.6971
28.6506
27.9728
26.7749
26.1189
24.5096
208.602
139.853
110.42
69.2644
61.5778
52.511
48.5548
45.7597
43.2909
41.7326
39.8853
38.7084
37.577
37.095
36.8358
36.8299
36.8312
36.7956
36.6443
36.0275
244.884
170.39
149.716
82.0233
58.4222
43.5507
40.9956
36.5283
35.5985
34.0779
33.7865
33.4033
33.2627
33.1135
32.9624
32.7017
32.4337
31.7982
31.247
30.4694
210.611
150.817
119.929
72.0965
57.3843
44.7333
40.7165
35.7131
33.8322
31.9767
31.415
30.8846
30.7685
30.6101
30.4988
30.263
29.8619
29.057
28.2224
27.5291
195.691
136.83
96.5234
65.0653
56.4617
44.7927
40.8507
35.2946
33.4107
31.2009
30.6443
30.0074
29.9219
29.7704
29.7031
29.5177
29.0393
28.0547
27.1281
26.5219
173.962
145.107
98.8519
68.3262
59.5801
47.8077
43.1157
37.544
34.339
31.4036
29.9995
29.057
28.81
28.5974
28.5441
28.355
27.898
27.0201
26.2229
25.7801
440.072
256.991
131.847
72.4589
58.6686
48.016
42.1897
36.6712
33.6073
30.5411
29.6965
28.7777
28.7612
28.5464
28.3041
27.7165
27.139
26.2755
25.4486
24.9338
209.315
179.559
129.699
71.513
57.4546
48.4545
44.7892
38.5657
34.6206
31.2162
30.2269
29.802
29.4153
29.2331
30.0088
28.071
26.8427
25.5287
24.5388
23.7896
170.55
154.609
114.985
66.8546
49.5257
46.3744
46.0223
39.0753
34.7328
32.9087
32.3073
32.1229
31.8422
31.5441
31.6046
29.4094
26.8494
25.0575
24.205
23.7435
237.202
122.766
85.0355
55.3091
46.6908
43.5951
43.6075
38.6744
36.4222
34.657
34.8435
35.8096
36.3866
36.0322
34.001
29.7527
26.8978
25.4202
24.9006
24.7385
169.42
151.988
84.5463
51.1516
41.4797
39.5659
39.4593
35.9883
35.1394
34.6754
55.4048
48.7791
37.8549
36.1234
34.0723
29.6808
27.2312
26.3246
26.1257
26.2807
169.929
142.155
77.7331
51.7105
44.2074
40.1936
39.8124
35.4736
34.0897
33.2265
31.6844
30.3253
30.0065
30.7522
31.5058
28.7903
27.3417
27.1371
27.2257
27.5385
197.657
141.415
78.8877
54.888
49.1443
42.1422
40.0697
36.569
31.9769
30.4399
28.0727
27.1723
26.438
26.6118
26.5999
25.7885
25.9391
26.4775
26.9495
27.3949
172.455
130.492
82.9189
57.9043
50.6458
40.4832
37.3779
31.6011
29.5136
26.3098
25.2954
23.5447
23.2303
22.5406
22.5743
22.7579
23.3744
24.3898
25.1222
25.8839
119.604
121.607
89.1396
56.9674
47.5329
38.5652
36.0228
30.9986
28.5434
25.8618
24.4651
23.032
22.2784
21.7323
21.5767
21.6009
21.831
22.4442
23.0248
24.0615
171.761
104.088
72.8512
52.5451
46.9881
38.7314
36.3381
31.6958
28.9877
26.1398
24.5774
23.1865
22.5128
21.9699
21.7905
21.7436
21.8291
22.1188
22.43
23.1143
248.238
113.386
65.9608
51.1
47.1691
40.0849
38.8335
34.5638
32.007
28.5696
26.1169
24.4974
23.645
23.0921
22.7359
22.4758
22.4424
22.4774
22.6186
23.0727
239.989
111.097
71.3951
53.4026
52.198
43.6576
41.8498
37.7174
35.098
31.6869
29.146
27.8334
27.1907
26.8738
26.6408
26.3796
26.3012
26.1305
26.0477
26.1151
366.984
159.922
88.4204
66.4954
61.1943
50.3515
45.6251
40.1287
37.3038
35.4891
34.1163
33.9766
33.7407
33.7692
33.5501
33.1945
32.4183
31.4059
30.0146
29.1125
113.72
126.047
111.989
93.3896
80.6777
68.5115
56.2926
46.6103
41.7479
39.1719
37.1899
35.1539
33.1527
31.1603
29.5756
27.9138
26.7481
24.7316
23.4425
20.2906
87.9053
72.9677
71.3927
67.1857
61.9729
55.778
50.6796
45.8792
41.0219
36.4252
32.8754
30.5901
29.2652
28.209
27.3824
26.266
25.5059
24.4555
23.8811
22.6101
219.958
168.456
132.871
74.3452
86.6678
64.6387
74.3156
62.1633
65.6041
58.1367
59.2792
55.4068
56.2688
54.5611
55.2559
54.4364
54.6782
53.5653
53.0434
51.3917
241.328
208.618
171.59
86.833
82.928
55.0311
62.8802
49.2359
54.4498
47.5802
50.7787
47.6639
49.3209
47.7193
48.2159
46.8693
46.473
44.6998
44.2445
43.2929
155.657
153.088
128.689
71.5844
74.9132
52.9949
59.537
47.7903
51.2427
45.4664
47.4549
44.8179
45.9395
44.6046
44.9481
43.8307
43.3842
41.7813
41.3546
40.8137
224.681
135.556
112.944
69.8125
78.2083
54.1531
59.5448
46.1973
49.6257
43.0816
45.4665
42.6828
44.2559
42.997
43.6052
42.4027
41.8217
40.1145
39.8251
39.5427
202.24
140.826
118.188
69.2156
79.2291
55.4428
59.6823
48.0906
48.1181
43.0747
43.3921
41.533
42.0852
41.4544
41.6935
40.9772
40.429
39.0923
38.8749
38.7047
427.707
217.639
156.204
78.48
83.7059
57.9062
56.4643
46.4226
45.5922
40.8516
41.9278
40.2611
41.4369
40.7374
40.8553
39.7823
39.165
37.6182
37.418
37.0529
242.842
164.603
137.196
72.5796
79.0385
61.6075
54.7182
46.7069
45.9811
41.9757
42.7498
41.5596
42.0122
41.2695
42.7236
39.588
37.7438
36.0497
35.6732
35.1895
328.705
156.992
125.519
71.2943
64.8694
57.8004
59.8015
49.4823
48.7816
47.0024
47.0408
46.3084
45.9509
45.2801
45.2408
40.3905
37.0968
35.3838
35.2798
34.7421
249.1
145.042
100.072
67.7418
59.9794
51.6615
55.9059
53.6198
52.1256
49.7876
48.4895
47.9711
48.5567
48.0609
46.2458
40.0528
37.1647
36.003
36.0861
35.9463
176.334
165.612
105.312
64.1093
56.8825
48.3887
51.0048
52.1924
51.6158
47.7944
47.597
46.7429
48.2601
48.3524
46.1936
39.9514
37.5817
37.0004
37.2556
37.5838
232.784
153.682
96.7724
61.7012
57.8331
48.3233
52.7363
50.5439
49.3845
47.1549
45.3591
45.1251
46.5001
46.9415
45.3268
39.3296
37.7756
37.7991
38.2251
38.9457
284.695
143.631
95.8624
63.2436
65.3485
50.241
50.6741
44.4831
43.8868
40.9013
41.0107
40.0279
40.7953
40.509
38.2741
36.3801
36.5776
37.2386
37.9056
38.8926
224.381
146.231
92.8643
60.7562
64.8075
46.0768
51.9398
39.3464
40.0578
34.2539
35.5036
32.9338
34.0064
32.9305
33.3352
33.4173
34.4044
35.338
36.2009
37.6388
212.189
132.841
101.916
61.7727
62.0428
46.2631
49.418
36.9292
37.7463
32.8142
33.8357
31.8077
32.4346
31.7163
32.0274
32.036
32.5872
33.3774
34.2515
35.9045
185.122
121.495
84.8828
64.3304
61.6018
44.8958
48.6813
36.694
38.7732
32.9349
34.6997
31.979
33.134
31.8364
32.5569
32.1886
32.8189
33.0581
33.7537
34.7175
237.392
142.641
80.1487
68.876
58.1343
46.8435
49.4766
37.6941
40.5121
33.7762
36.0412
33.119
34.2452
32.6805
33.1488
32.5645
32.9909
33.0242
33.5227
34.3122
180.714
126.939
85.1105
67.671
67.8459
47.2644
54.6929
41.3719
45.1436
37.9008
40.5332
37.0786
38.3977
36.4636
37.103
36.2393
36.8095
36.6448
37.236
37.9939
216.793
152.664
112.469
73.2315
76.1817
50.4986
58.448
44.0971
51.5454
44.5406
49.5314
46.4156
48.4694
46.1693
46.4069
44.6189
44.301
43.1854
43.1509
44.1656
66.3367
107.824
101.901
85.5372
69.5854
53.8973
45.3004
41.086
38.4975
35.6843
33.0404
30.1552
27.8733
25.5496
23.7452
21.8777
20.6252
19.1697
18.6021
17.3529
31.1844
33.2109
72.9854
33.4989
33.2824
34.4928
83.3929
32.3189
73.4762
65.6459
33.6725
34.7907
81.9299
64.0947
69.8128
31.5463
31.0836
33.3892
81.4818
32.4909
32.1276
71.9242
30.7952
29.5777
81.5424
70.9203
31.8226
30.5534
215.011
263.955
194.854
85.0287
70.7994
76.5802
62.8855
190.849
188.369
184.538
66.0973
56.9401
59.9598
53.6484
188.312
186.031
206.127
53.0712
44.9419
50.3215
43.0564
200.507
207.987
203.903
42.7169
39.7698
41.8027
39.4096
199.536
201.537
193.684
39.0668
37.2326
38.7884
37.2913
192.483
192.492
187.086
36.8275
36.2126
36.8978
36.2671
181.988
184.985
176.582
35.9448
35.1434
36.2269
36.4693
156.796
173.747
148.458
35.0052
33.6927
36.6481
36.4257
200.77
225.78
191.835
75.8022
58.4571
69.433
50.2438
192.414
195.476
203.696
55.2446
51.3251
47.0353
46.1459
209.59
204.464
200.853
49.3536
44.1201
46.7752
46.2269
201.378
196.003
189.349
43.0211
40.1539
45.2005
41.4999
191.159
186.385
181.055
39.3565
37.5536
40.9119
39.585
185.166
179.508
173.223
37.2099
36.8208
39.3502
38.6689
173.112
170.862
160.839
36.8542
37.0841
38.4726
38.2031
146.802
153.746
125.819
37.0889
36.3793
38.1883
36.1577
187.187
236.378
188.466
60.4586
49.0063
61.8017
53.6121
192.896
180.169
172.076
46.7994
46.0215
50.2704
45.7575
189.171
170.671
169.187
46.4473
45.6244
44.9342
42.6509
183.185
169.278
171.972
44.4593
41.3383
42.0154
40.7393
176.162
172.44
171.094
40.8232
39.6544
40.3669
39.0779
170.075
168.282
158.108
39.4446
38.7351
38.614
37.1414
154.079
153.869
125.274
38.5457
38.5071
36.7981
33.387
123.033
125.053
124.149
38.4172
35.7769
31.0031
26.1919
186.483
302.129
192.863
65.146
56.0743
84.6465
65.6415
163.008
183.32
172.082
51.684
45.9213
57.9616
47.2253
163.707
169.806
161.391
44.9907
42.5954
45.0071
39.6394
172.665
162.822
162.105
41.9542
40.4738
38.7437
37.6866
166.963
158.5
147.223
39.8754
38.1185
36.9715
35.1545
150.481
142.584
127.387
37.4732
35.6329
34.636
32.838
119.675
121.062
109.172
34.7927
30.2967
31.8781
28.8801
120.131
109.592
101.006
28.5858
25.3442
27.7901
24.7219
62.6127
66.7428
57.2175
53.686
48.4978
52.2818
46.225
49.7809
54.8413
48.4348
46.0468
38.9396
44.4865
39.3548
39.1456
45.358
38.6179
36.7774
32.4351
37.5258
33.2829
34.7951
37.3834
35.0012
31.409
29.9039
32.3628
30.5699
32.8993
34.4261
33.1835
29.5158
28.6683
30.2342
29.861
32.1947
32.9247
32.7425
28.5268
28.3046
29.8992
30.5936
31.6342
32.8541
33.602
28.2033
28.1637
30.9801
32.1596
31.3782
33.9073
34.971
28.1857
27.9437
32.4084
32.5846
53.3703
59.2889
45.2839
51.0655
43.9454
45.0951
38.2101
46.8025
42.7667
41.6234
42.3369
38.9039
36.9684
35.6738
39.5152
41.7925
40.562
37.4796
33.7783
35.3686
33.6365
35.6105
39.5791
37.2297
32.8392
31.172
33.3042
45.7495
33.7049
37.1303
37.0101
31.0919
31.6064
47.5894
49.3235
33.7205
36.9745
36.4032
31.9127
33.196
49.1081
42.546
34.687
36.0918
35.3927
33.6963
34.8413
40.3458
36.2157
35.069
35.288
34.3224
34.8708
33.9478
35.3833
33.3089
44.2423
53.2267
47.508
43.4343
37.6432
43.4611
38.583
41.1491
44.7609
40.8371
36.4183
34.9616
36.9019
34.3587
39.9073
40.0627
38.0091
34.6398
33.2121
33.8002
32.4093
37.1464
37.4595
36.3094
32.5231
44.7946
32.0398
31.378
37.0844
35.9549
34.7677
47.3626
50.5641
31.0891
29.9382
35.9789
34.348
33.0668
49.9449
39.0201
29.4965
28.0571
34.9514
32.6658
29.6705
36.5204
33.0236
27.5416
25.8885
33.5406
28.0556
24.8809
32.4186
31.63
25.3568
24.0521
49.1783
67.7482
56.9855
43.4926
38.9902
50.3312
42.5004
41.0561
51.153
42.1613
37.2305
34.4763
40.0366
35.0182
37.9578
40.0161
35.5696
33.8153
32.2814
33.3816
30.5509
35.9883
34.848
33.5135
31.8986
30.7058
30.1762
28.5158
33.8559
32.755
31.1693
30.2128
28.8241
27.7305
26.3039
31.7545
30.7442
28.9257
28.3951
26.8174
25.9143
24.0603
27.2218
28.0238
25.4509
26.1684
24.2555
23.3653
21.9012
23.6807
24.571
22.5807
23.7438
22.9651
21.5194
20.8361
45.7764
49.1839
43.9073
46.1771
41.2715
45.0483
40.298
37.1812
42.2984
37.8206
39.3457
35.2924
39.0998
36.3707
31.7647
36.3124
32.7824
34.2447
32.2991
35.5687
33.7257
29.6699
31.9883
30.4622
31.8847
31.2371
33.2802
32.487
28.6067
30.2117
30.0747
31.0622
30.7456
32.4279
32.5815
28.2948
30.1679
30.9554
30.708
30.5108
32.7119
33.3254
28.1459
31.3316
32.3169
30.4256
30.2494
33.5404
33.7603
27.7933
32.4514
32.1856
30.1423
29.4771
33.6502
32.3962
42.0639
42.5304
37.1554
43.8755
39.3795
39.4151
36.3591
37.5437
36.1501
34.9031
38.4573
36.3986
35.8245
34.9646
33.1871
34.553
33.0252
35.7363
33.9782
34.6831
33.8791
32.5236
31.7016
32.5544
32.3388
32.2244
31.8025
32.4945
37.9544
31.539
34.4876
31.8611
35.8297
32.2875
36.2303
33.9066
63.2549
46.6173
34.9887
35.461
57.5917
43.069
35.145
43.06
37.2834
35.6171
35.5804
40.7761
37.4874
33.6254
36.188
33.459
35.3113
33.2938
36.7437
34.2491
36.6593
41.6708
37.1955
39.3608
35.9472
39.7266
35.8135
34.2191
35.7353
33.5516
35.3216
34.4273
34.8768
33.6532
32.6774
33.0659
31.8694
34.1894
33.585
33.395
32.7312
45.9911
51.9419
32.2255
37.9957
36.681
235.326
32.6046
51.3761
73.3754
44.1328
189.306
43.5676
173.231
54.7846
42.0332
29.1034
27.5955
61.0696
40.6752
30.0883
29.0811
33.5845
27.1193
25.9237
38.2619
35.4704
29.0101
29.278
31.7932
25.5944
24.6629
34.9581
33.4809
29.3725
29.379
37.4474
46.3115
40.3049
39.4992
35.8785
41.8185
37.4442
33.6194
38.3033
33.9678
34.9426
33.5644
36.2145
33.1658
31.7118
32.4714
30.0855
33.2111
32.4594
32.1001
30.7884
30.2158
29.7547
27.9881
32.1891
31.0674
30.5112
28.6046
28.354
27.2089
25.8549
30.6143
29.3973
27.9845
27.0809
26.3741
25.4598
23.6637
29.0182
28.1557
26.7422
25.5521
24.44
23.0644
21.9798
28.0398
28.189
25.3273
25.3588
23.5981
21.724
21.2329
28.2606
28.5327
25.3776
25.502
40.8823
44.8606
40.1932
53.1716
45.4258
51.743
47.079
35.5674
39.1165
36.8409
43.9519
42.2827
46.1672
44.6438
33.2224
36.2168
34.8128
42.0302
40.9038
44.3172
43.0642
32.4186
34.4616
33.8387
40.6104
40.3359
42.5703
41.7322
32.1389
33.8072
33.9607
40.4583
40.2959
41.6366
41.6066
31.9191
34.0815
34.6768
40.191
39.8482
41.7712
42.3483
31.6627
34.8543
34.9424
39.86
39.5821
42.4029
42.2103
30.734
34.7817
33.4105
39.4275
38.5032
42.027
41.1068
39.4762
39.4376
36.8894
49.5588
46.9146
45.719
45.4102
36.9424
36.4748
35.8005
46.2554
44.9954
45.1984
44.646
35.0424
35.5761
34.8586
44.6507
42.904
44.229
42.2797
34.5087
35.1101
54.9895
42.3866
41.7894
41.8191
43.7877
35.6748
55.8256
50.949
41.7754
41.7938
44.2519
43.3728
36.2494
47.8919
40.6772
41.8769
42.7116
42.8014
42.907
36.3154
39.5145
37.7575
42.8372
42.6856
43.1868
43.2741
34.1365
37.2569
35.0631
42.4767
41.3582
43.0777
41.806
36.4815
39.9644
36.2282
45.1476
44.8542
46.1019
44.2107
35.3184
35.4419
34.5206
44.6728
44.2859
43.7328
43.1098
34.5896
34.3347
33.8007
43.9082
42.0225
42.9122
41.2548
54.1351
33.5614
33.0332
41.5614
43.4171
40.7263
39.5966
52.7879
32.741
31.5938
43.7413
42.8366
39.3199
38.7271
39.0698
31.1977
30.7003
42.2603
42.3804
38.7553
40.1892
36.4646
30.8129
31.5582
42.7293
43.0326
40.6731
41.4964
34.6124
31.7303
31.6854
42.9154
41.7801
41.5761
41.1954
36.2777
41.6444
37.5906
46.5978
44.0933
48.2608
43.4447
34.3669
36.4411
33.6401
43.4431
42.5609
42.2427
39.986
33.492
32.7311
31.7329
42.3528
41.0913
39.7806
38.9868
32.1043
31.4566
29.5885
40.4532
39.1624
38.5317
37.1634
30.6283
29.083
28.4541
38.8946
38.6148
37.1643
37.1849
29.9519
28.1749
27.2975
38.771
39.9164
37.0792
37.0795
30.6038
27.2267
27.5881
40.2554
40.978
37.3879
37.9162
30.9297
27.6565
27.6717
41.0609
40.8248
37.9425
37.5003
50.7798
58.6517
54.1953
79.8804
71.2083
82.6955
82.3316
48.8217
53.2999
51.986
70.9928
77.5864
81.9909
83.943
47.3694
51.7159
50.4414
78.6023
76.9988
84.6423
87.6781
46.8066
49.9216
48.8539
76.7351
80.0672
88.7844
91.3811
46.4836
48.6498
48.163
80.7632
79.4638
91.7988
90.8661
45.8735
48.1451
48.3294
79.1756
80.1773
89.8812
85.5487
45.4295
48.3281
47.9616
80.4536
79.3575
84.7636
83.1648
43.9101
47.7814
46.6152
79.3044
78.5913
82.9485
82.724
54.2382
51.9063
52.9189
78.6527
83.4783
73.907
83.9885
52.4535
52.765
52.2669
83.4681
85.0207
84.4734
86.7328
50.424
51.9428
49.3733
85.9127
90.791
88.4847
97.0253
48.6865
48.1377
48.0797
92.2965
95.2762
99.5949
103.777
47.9774
48.1421
47.2064
95.684
94.6565
104.155
102.193
48.4415
47.2572
48.178
93.2926
87.1473
100.111
90.7836
48.2539
48.5543
48.6396
85.4441
83.2423
87.8178
83.6439
46.717
48.4381
46.881
82.9082
82.319
83.1647
81.3556
52.2676
52.0302
51.4743
72.3469
83.2308
73.8862
81.8706
51.8775
51.0274
50.3574
83.9552
86.4621
81.929
82.961
49.0524
50.1252
48.31
88.2301
96.7464
83.8084
88.4623
47.6386
47.5536
45.9701
99.3728
103.221
89.9601
92.5254
46.6576
45.6243
45.0096
103.586
102.225
92.8948
91.9573
47.8172
45.0976
46.4285
100.12
90.8659
90.7342
85.3246
48.5042
46.9044
47.3978
87.8788
83.6504
83.8024
81.7399
46.8695
47.3947
46.4637
83.0969
81.4225
81.4524
80.1284
51.1923
53.992
48.9366
75.1236
80.363
74.052
69.6721
49.5883
47.7172
45.742
80.0691
81.0214
69.259
71.678
47.9058
45.8765
44.6948
81.6074
84.4897
74.8607
72.2022
45.6411
44.1257
42.9423
85.5518
87.894
71.9516
74.2454
44.9871
43.1229
42.9029
88.3378
87.471
76.3474
74.205
46.1847
42.8257
42.8172
86.6074
82.7775
74.291
75.0768
46.9219
43.2077
43.4623
82.1974
80.8031
76.402
74.6891
46.1709
43.5009
42.5134
80.6219
79.9098
75.0137
73.04
33.0986
31.2858
33.1924
31.6072
32.4137
31.5591
34.5206
37.4322
32.8108
50.1551
37.8811
34.1184
33.0444
181.915
45.4012
41.7688
66.2977
212.441
37.7072
51.6853
234.894
33.045
32.7252
33.1679
33.6295
32.3037
32.8754
33.7459
33.8386
32.3259
33.1311
36.0145
32.1982
35.5848
34.4157
38.401
39.0577
33.9851
56.8446
33.4521
188.125
36.0842
47.2843
216.992
47.0981
77.8342
54.4782
239.581
41.4401
39.649
31.9134
38.3117
33.2167
37.2117
32.7752
40.5551
61.045
45.2028
72.8765
194.146
48.467
56.111
174.749
64.2861
52.4879
70.212
95.1434
51.7709
62.2856
116.355
39.1114
32.695
34.1003
37.6415
33.1687
37.3907
39.0084
40.6193
34.0435
34.4904
40.2655
33.6527
41.1388
39.9752
63.3562
198.401
50.6624
79.3054
58.7811
181.738
53.1747
65.5915
93.8844
52.8977
72.9032
62.2063
122.66
53.816
55.9395
65.3048
44.2071
205.995
42.1144
222.979
56.9174
32.7408
31.698
31.3506
31.4812
32.1123
31.7723
31.3587
34.392
33.5943
31.258
31.1856
33.1007
34.8695
31.3312
47.1491
39.2834
56.4458
33.5398
229.399
33.1014
39.0852
57.9163
208.419
75.9414
48.3332
227.221
58.6327
46.1554
33.2554
31.7966
32.8602
32.3487
32.1674
31.697
33.4866
35.0331
31.5435
35.2965
32.2959
35.4827
31.6858
34.8364
47.6925
77.2917
41.5374
124.204
42.5416
160.994
46.0933
34.2512
33.5743
30.4475
30.8795
33.3585
34.7315
30.5031
33.4707
32.3767
30.0191
29.5835
32.8712
32.8987
30.038
52.7443
191.734
80.3615
47.9173
176.358
56.3558
46.6373
48.6208
115.658
79.9967
43.1873
155.237
46.6921
44.8097
34.7676
31.2286
35.2048
31.4548
35.3149
30.8424
34.8231
33.9052
29.9045
33.47
31.0002
33.267
30.3643
34.113
164.071
196.657
169.947
112.623
92.5236
108.673
92.5207
139.926
146.28
133.596
80.3919
72.5239
83.4716
70.0128
129.202
127.326
123.674
69.3971
61.0287
61.9028
55.5924
122.838
120.979
121.141
53.5631
52.3691
49.7096
47.4392
115.592
120.909
120.649
50.0162
45.7437
46.0333
44.8638
112.601
119.672
118.048
43.7869
43.3915
44.4114
43.9923
107.744
115.73
112.847
42.7097
41.2655
43.5008
42.6439
94.4708
110.069
99.6627
40.6634
34.2969
42.0019
35.666
177.687
189.349
167.386
105.4
92.3653
101.173
86.62
140.353
281.056
293.72
160.089
144.709
160.402
263.314
91.7255
199.033
192.51
98.6524
94.8166
98.2292
184.017
80.5552
183.833
178.042
98.3758
96.7961
83.017
178.745
72.484
195.689
193.709
85.4707
82.3471
73.4508
197.056
70.0488
201.084
202.418
79.2221
75.7614
70.8946
202.593
68.0575
196.35
198.197
68.9158
67.453
68.5691
195.772
65.2522
187.254
188.837
65.6588
63.9693
65.9952
186.548
62.4215
175.439
177.872
60.9514
59.4848
63.0362
174.47
93.3659
105.646
89.7756
38.79
33.7722
41.2651
37.5193
158.968
175.867
150.43
108.892
87.628
100.756
82.1272
120.503
220.649
247.765
142.262
119.782
143.017
215.292
76.8678
194.707
202.265
81.9017
78.8406
79.8623
202.936
76.5364
199.766
203.172
75.4986
75.4866
76.0617
207.608
76.1506
208.275
208.646
75.4316
74.8933
76.9217
206.122
69.8928
194.74
194.013
71.0588
69.818
71.5525
191.812
66.1315
188.995
187.788
67.1518
66.3555
66.9108
186.542
63.3544
179.645
178.889
64.3789
63.6079
64.1599
175.728
60.2027
165.738
164.789
61.5537
60.5854
61.2656
160.479
90.0526
97.1261
87.9014
41.393
39.7817
40.727
39.2818
142.16
140.324
143.885
72.8188
66.9717
72.0063
67.2825
100.944
192.015
211.915
123.411
99.4705
122.827
195.706
78.319
188.958
182.209
76.0258
75.7052
79.9445
181.051
79.8619
192.675
181.939
81.5818
82.5505
79.8014
181.936
74.3081
186.222
179.405
80.5056
77.764
76.3487
178.319
69.305
178.967
173.257
72.5418
70.41
70.8126
172.419
67.1218
173.52
170.898
66.4236
65.8964
67.5197
169.595
65.8226
166.846
164.871
64.4531
64.6204
65.7194
161.899
61.6757
136.968
132.681
65.9129
64.5714
65.9396
131.868
88.9728
93.8474
83.3881
37.6471
36.1376
31.6734
27.5599
153.275
179.723
169.123
95.8107
75.7489
100.29
90.4209
122.522
215.461
254.016
135.333
118.278
137.64
227.368
80.7275
170.31
176.535
83.8083
79.3502
87.4078
169.577
72.1972
161.929
160.999
75.0254
74.7822
73.1503
161.077
68.4432
170
167.813
71.8305
71.3436
69.0847
170.384
64.6969
172.134
170.16
69.6732
68.9087
65.7348
167.317
59.6105
159.035
155.128
64.9672
63.738
60.8883
151.116
51.7285
134.034
132.771
58.5403
56.6496
53.4649
123.2
44.3296
119.426
112.387
47.9984
45.3128
46.2511
113.56
82.4315
81.6093
79.0785
28.8631
25.165
28.7312
24.5293
139.674
170.158
136.736
101.68
85.6733
101.619
82.563
118.686
126.088
121.026
69.4216
59.0006
67.5823
60.4547
109.114
114.092
105.617
52.6664
48.38
56.805
48.8421
101.978
102.454
101.225
45.467
43.8836
46.6188
46.8927
92.5741
96.9396
89.4146
42.0027
40.2965
45.9001