/*--------------------------------*- C++ -*----------------------------------*\
  =========                 |
  \\      /  F ield         | OpenFOAM: The Open Source CFD Toolbox
   \\    /   O peration     | Website:  https://openfoam.org
    \\  /    A nd           | Version:  10
     \\/     M anipulation  |
\*---------------------------------------------------------------------------*/
FoamFile
{
    format      ascii;
    class       surfaceScalarField;
    location    "2.8";
    object      phi;
}
// * * * * * * * * * * * * * * * * * * * * * * * * * * * * * * * * * * * * * //

dimensions      [0 3 -1 0 0 0 0];

internalField   nonuniform List<scalar> 
38556
(
1864.96
-312.967
-4301.55
1643.73
-618.67
839.898
1080.22
-424.862
988.377
1019.84
-286.506
346.883
1049.11
-203.069
173.799
1128.03
-196.172
117.25
1162.3
-139.36
105.09
1203.05
-115.837
75.0853
1234.99
-81.0534
49.1167
1281.72
-67.9597
21.234
1326.04
-54.9036
10.5821
1388.15
-44.938
-17.1768
1446.9
-39.7571
-18.9925
1495.68
-21.627
-27.1479
1514.8
1.35234
-20.4766
1511.59
15.9252
-12.7161
1504.11
7.64097
-0.158529
1491.35
-0.670878
13.4299
1480.14
-19.2455
30.4603
-29.4671
36.9215
1121.95
-74.0946
-2605.45
574.687
-112.401
40.9884
582.16
-462.082
29.7466
593.543
-334.905
37.0168
749.314
-413.022
54.1823
804.082
-269.742
18.8012
861.778
-225.166
28.1094
886.297
-134.498
-5.85735
913.36
-90.7206
-17.396
938.049
-54.367
-38.2814
966.274
-35.2477
-47.8814
995.367
-22.7495
-51.2815
1021.68
-16.4374
-49.636
1049.91
-14.0141
-35.8439
1070.67
-15.1258
-4.28181
1078.6
-14.7813
22.7797
1074.47
-23.4304
35.2063
1063.72
-29.3025
39.3779
1053.39
-31.8918
22.9761
-18.1542
-1.76962
-2160.96
-984.544
1489.46
-685.715
-678.478
-909.166
414.814
-877.18
-685.431
642.037
-424.094
-138.034
770.732
-491.26
-50.4576
793.179
-291.61
-0.578978
802.078
-240.014
5.94918
806.092
-126.166
-12.346
825.054
-103.139
-6.54244
838.314
-65.7273
-1.9003
858.037
-68.6082
13.6379
873.404
-56.9816
18.8649
888.288
-60.1542
28.8325
899.494
-53.7947
28.5749
907.152
-52.1561
29.3718
911.398
-42.9408
23.9144
910.386
-31.9505
9.53206
901.648
-18.0386
-2.52592
882.955
0.0112045
-13.2103
15.8454
-18.2906
1424.58
-59.4247
1491.05
1385.78
-821.591
181.906
1132.67
-611.297
-12.7711
1155.46
-405.005
-41.8731
1028.96
-420.362
55.6013
988.586
-296.913
45.6759
921.638
-251.992
78.9247
878.756
-121.153
37.8688
846.51
-102.733
31.8397
820.354
-57.1715
17.6001
807.583
-75.7871
19.9496
800.465
-67.7198
17.8563
803.068
-82.7882
20.0312
810.604
-81.1326
19.8025
824.264
-87.3682
21.5521
843.751
-79.8098
17.3814
860.468
-65.2546
16.5878
860.487
-31.2663
13.2077
831.644
19.5992
9.25587
38.7132
4.34451
1337.11
987.315
-1981.37
1486.85
-59.4398
-911.896
1278.9
-398.659
-4.6848
1287.56
-501.551
87.8901
1166.69
-467.243
167.751
1107.62
-323.725
85.8758
996.772
-260.799
119.658
916.637
-114.059
73.0413
848.325
-91.7593
57.338
803.155
-27.496
15.4949
780.121
-69.3978
16.6449
767.044
-60.6095
5.96642
765.517
-87.5354
6.27398
770.866
-88.6599
2.17833
783.084
-100.567
0.981072
805.429
-94.1492
-8.00583
829.058
-78.6492
-10.2346
833.679
-25.4983
-10.3893
807.958
42.7974
2.52319
59.9824
4.65707
3702.13
877.219
-4183.41
3204.37
446.938
-8.6198
2117.85
26.921
660.942
1571.98
-328.446
372.769
1299.6
-319.003
124.14
1199.41
-230.012
6.47604
1137.68
-221.604
22.5361
1052.79
-38.3206
9.15054
950.159
-27.0352
37.9048
857.899
38.5764
26.1874
784.158
-13.7927
18.1361
740.531
-22.3473
5.36421
729.979
-74.8006
-2.18231
730.943
-87.2412
-2.38267
742.964
-106.208
-6.37964
766.287
-103.726
-13.746
785.173
-81.9626
-15.5723
789.083
-14.5728
-14.8364
781.121
52.3052
-1.54549
65.7398
4.96649
447.93
-101.011
-2164.43
529.711
-26.7321
391.889
1013.16
-326.74
-129.79
1066.94
-329.773
-52.4482
1098.91
-356.949
5.97341
1042.48
-125.706
-47.8763
976.714
-22.4607
-15.0309
-51.4404
-19.0186
-47.8869
912.781
-15.0619
9.7416
12.9947
-5.25875
23.1965
837.473
23.2521
0.0387255
0.274066
24.7082
0.000414536
773.657
18.633
9.50793
29.0267
19.0663
26.1582
724.638
21.7427
3.87929
-2.94568
17.069
-4.51905
703.878
-1.2011
8.16671
-5.09168
0.278512
-3.74022
713.41
-13.3278
-2.7294
-29.05
-12.3691
-26.8563
728.602
-24.5617
0.253101
-31.2191
-20.6753
-26.2297
742.802
-116.651
-3.75725
756.718
-110.265
-7.37727
768.437
-77.4024
-16.2794
773.299
-8.02031
-11.4145
765.918
53.1306
6.55516
65.7954
13.5744
430.907
-1477.6
1771.08
753.354
-636.573
287.394
1107.63
-453.155
-227.866
1151.68
-270.878
-102.944
1105.43
-246.6
-64.0941
269.035
-21.3214
-69.313
262.189
263.367
251.042
15.6059
-12.8696
21.9862
256.45
-8.49912
-1.37641
-233.796
226.815
-15.4759
7.3946
-211.981
190.603
37.8072
6.82317
-167.762
164.886
22.3368
-0.827722
-164.876
165.375
25.1383
-3.89449
-164.559
174.539
-6.58322
-4.59742
-181.435
187.336
-15.2587
-3.97051
-186.81
191.231
-27.41
-1.57285
759.88
-30.9813
2.50351
-189.454
-196.691
-178.988
-184.81
-37.7859
-27.7561
-32.5673
759.515
-110.986
1.08562
762.955
-56.495
-24.3469
769.432
-0.308046
-14.1894
741.795
68.7966
11.9707
85.133
11.0983
742.63
-1950.97
-1300.52
1074.57
-1012.36
43.8503
1057.52
-504.229
68.1193
1103.04
-219.461
-96.932
228.391
-112.997
47.9541
211.859
250.187
231.046
232.914
-18.4343
-7.41066
-1.54379
-63.0467
61.5904
4.06707
-1.06695
-51.1486
-1.45936
50.6737
1.91643
0.0178765
-47.3426
-13.639
46.0476
14.2905
0.643387
-40.7689
-10.0338
40.5709
10.7189
-0.487112
-41.6023
-6.9177
43.3557
6.48614
-1.32193
-46.8054
-0.222405
48.2684
-0.162252
-1.07829
-50.1083
3.13922
50.8161
-3.17744
-0.669499
-51.0575
5.28359
51.8086
-5.45667
-0.578052
-51.8614
208.614
-30.668
-0.462002
-53.9908
-50.4646
-52.1489
767.784
-79.6303
6.68049
-201.513
-214.34
-190.478
-199.49
744.069
-16.3246
-16.4555
733.537
26.3186
-16.0948
686.569
106.151
9.61335
123.524
2.09985
1313.57
-356.562
211.594
1201.8
-770.302
-130.282
1129.04
-395.058
-36.4179
1083.63
-147.893
-26.156
228.58
-79.9574
153.035
202.792
240.35
225.832
5.55875
225.416
-1.45406
-0.941161
-0.72679
-55.5969
53.8572
3.00347
-0.537057
-4.40361
-55.6208
55.7862
5.56018
-1.32195
-18.5604
-54.1771
53.578
19.6342
-0.474669
-12.8462
-51.9023
51.6609
13.7584
-0.67082
-4.87492
-51.9954
52.146
5.09227
-0.367869
-0.600514
-51.9544
52.077
0.844959
-0.36708
2.94782
-53.5791
54.5825
-3.1655
-0.785722
6.05477
-57.6699
58.5028
-6.13833
-0.74936
-60.2327
28.0655
237.028
-26.5653
-0.528232
-60.6415
-58.2352
-58.8901
804.732
-20.7778
9.29788
-226.262
-225.898
-210.296
-210.426
741.292
49.3016
-2.18629
703.756
79.4693
-15.6142
656.717
151.238
1.95174
159.608
-4.84923
1021.82
-1625.55
-4589.08
906.531
-46.78
-608.233
876.115
49.9256
-414.567
642.532
119.368
-33.6776
85.0053
45.4828
125.079
86.347
112.78
107.881
1.92275
89.4049
-2.45691
-3.86541
-5.33875
-32.6397
33.8493
3.27227
0.85688
-9.21786
-40.0015
40.8984
7.77152
0.549426
-17.4869
-45.1588
47.3357
13.763
1.54703
-12.333
-52.2482
53.1878
9.94199
1.45139
-4.96903
-53.632
53.5101
4.19056
0.900317
-0.349734
-54.9865
55.719
-0.424375
0.041669
3.95023
-57.1793
57.434
-4.16863
-0.0362975
7.74721
-57.1531
56.5715
-8.76875
1.60311
-53.3828
26.5164
206.255
-23.1315
-6.0434
-48.8509
-52.6868
-48.6764
711.977
21.6335
-36.0698
-198.006
-166.895
-188.735
-164.683
689.286
94.5203
-22.5274
667.948
119.822
-19.014
638.935
186.008
-5.75727
184.449
-11.2186
1239.92
-1997.09
-3189.47
1570.54
380.402
-757.804
1301.54
416.515
-97.5859
1057.15
245.404
118.355
157.38
120.316
251.567
188.525
184.086
200.755
15.5241
158.568
-21.7354
5.02248
10.3255
-45.7975
47.3094
-10.9964
-0.8409
-2.29626
-47.5478
46.0877
2.3278
1.42857
-5.55198
-45.0889
46.107
3.03641
1.49741
-3.642
-48.5059
48.8294
2.54152
0.776949
-0.778346
-48.5312
48.4482
0.266551
0.594759
2.01442
-47.1865
46.9269
-2.28944
0.5346
5.04519
-45.3271
44.632
-4.77236
0.422305
6.12053
-39.5334
37.979
-5.19121
0.62507
-35.2445
16.2601
141.083
-11.3506
-5.39701
-35.0928
-35.4193
-34.839
600.357
16.0071
-43.1189
-142.143
-134.663
-141.074
-133.731
638.917
87.7398
-31.7799
657.493
124.021
-22.7747
662.017
191.394
-9.91064
185.567
-6.36546
1048.32
850.296
860.117
929.861
643.514
-144.655
1109.58
390.64
-153.84
1134.5
154.56
65.9222
1012.26
89.8421
152.709
215.377
-84.5344
45.1963
36.2259
73.7621
24.2446
67.7689
216.923
207.842
209.457
10.5415
187.51
-12.4196
9.5809
4.11364
11.2118
4.83839
-4.34817
-151.523
139.535
18.7733
10.6521
-4.43025
-4.21933
-4.43916
0.457383
-152.196
154.119
-0.890382
3.18638
-1.77408
-0.347518
-2.55542
-1.26763
-138.627
132.942
11.5315
1.47428
-2.06315
-1.6592
-2.33094
2.96093
-145.095
153.247
-13.0185
-2.20006
1.20608
2.3152
0.584289
3.19366
-148.611
147.155
-9.46695
0.439567
2.32664
2.85469
2.10877
4.68548
-148.562
147.438
-15.6308
0.712397
3.56283
4.46632
3.32825
4.09706
-137.645
130.905
-9.8769
2.54126
3.09248
3.962
2.924
504.858
-2.36936
-4.2197
8.07904
-2.66095
4.10637
-5.98672
-127.473
-128.837
-122.187
-123.31
538.364
0.844496
-18.3435
593.43
47.4075
-14.734
645.068
86.5776
-14.1947
680.242
162.657
-6.43694
158.245
5.24125
572.095
706.388
-4067.51
485.358
943.419
-213.168
1010.03
471.449
-605.483
1055.95
240.465
-131.828
898.994
210.395
36.4073
747.362
68.1874
-1.09055
613.866
285.141
45.2287
-20.8608
-72.2357
-24.8043
-78.9725
556.371
14.4711
19.6506
-14.8515
24.2675
-11.2915
25.2489
548.566
86.3007
11.6228
-3.69214
-37.1689
-8.76996
-40.4876
556.251
-54.2043
9.044
-5.21299
22.85
-3.0244
22.8629
557.674
-15.1997
6.32354
14.3904
-7.08846
11.1277
-10.9765
549.627
-65.336
8.3324
13.7564
20.5391
11.6193
19.1359
535.78
-20.6784
12.275
15.2201
-1.45052
12.4469
-3.9659
518.094
-36.2842
11.265
10.7414
12.0796
9.06425
10.8193
508.602
-4.16607
11.2886
506.441
-5.37653
8.38276
537.499
11.5928
4.75681
592.894
32.2315
-1.04898
652.189
95.135
8.22717
98.7568
22.9736
900.999
276.548
234.214
1240.72
887.879
-284.183
1154.35
710.529
-152.706
1107.49
369.959
-82.6366
769.206
476.246
72.4341
646.986
193.563
-3.15547
620.33
290.079
21.7173
586.547
75.0628
-26.8089
587.11
93.8604
-8.12295
567.762
-16.8532
-18.003
559.162
-8.40406
1.80421
540.688
-47.8308
0.968971
525.702
-9.0502
3.35743
504.324
-19.5833
4.67722
490.64
5.19348
4.32398
482.662
-2.6467
5.24862
486.935
2.82033
4.4998
505.299
1.33316
12.5335
552.968
23.1715
24.295
28.0828
28.8303
377.032
2238.78
-1717.67
330.924
791.842
142.146
460.689
666.863
-86.0992
535.627
337.927
-42.9059
531.502
468.596
11.7745
559.781
225.923
-60.6387
617.043
279.548
-46.7301
641.124
132.826
-81.8453
640.809
138.583
-44.407
613.687
46.4162
-36.1472
574.138
20.1127
11.0317
540.736
-22.9223
8.49355
522.936
2.53706
6.21331
511.602
-8.87204
0.622444
511.839
2.84296
2.11328
514.031
-6.87677
2.03878
521.845
-7.52796
2.53378
532.352
-12.5657
3.39222
552.851
-8.43836
11.11
0.452821
7.04642
582.577
3374.45
-3176.06
471.048
810.273
93.0991
436.15
891.883
-190.123
358.157
488.483
-72.5627
425.388
434.618
-33.2527
476.988
213.549
-39.227
628.278
163.232
-34.9732
720.625
91.0192
-50.5403
781.68
84.7458
-7.21784
762.122
54.5062
11.4683
664.717
59.2731
58.2445
567.967
40.7268
33.1001
525.786
38.4334
6.28469
507.757
21.8154
-12.6587
507.86
17.1162
-14.3753
509.904
5.31805
-14.2395
517.769
-0.414589
-14.9786
529.878
-12.2803
-12.3941
544.992
-19.7287
-3.82384
-10.3428
-4.47986
-294.283
1989.8
1792.6
-125.096
763.818
-122.732
266.201
596.029
-95.4429
317.423
388.767
48.493
504.143
137.724
110.174
634.066
43.8405
39.7856
775.561
-5.8314
27.5672
863.569
-6.16498
9.17652
884.734
23.3168
40.2635
851.536
48.2133
39.4916
757.03
95.2963
58.4823
673.35
95.8204
28.5866
623.318
81.8037
6.66213
599.523
60.8877
-15.2775
594.651
43.0468
-21.0588
594.497
30.4564
-24.9845
602.182
15.2843
-23.3838
619.942
-4.38557
-25.6545
651.798
-27.7057
-23.8786
-18.4761
-15.5571
2007.1
1041.36
-1109.37
1288.35
927.677
554.893
561.154
728.119
595.102
403.65
522.843
23.4275
351.543
146.126
43.7053
400.235
41.7669
-46.6183
568.105
-125.193
-48.5092
655.2
-48.891
-44.3686
721.235
-18.2415
-24.4766
739.795
38.2682
-8.61484
742.208
65.2377
27.6457
730.518
85.5009
22.0086
715.335
78.1813
18.8056
699.195
72.2332
4.79523
683.381
61.4646
-2.60455
670.028
56.4063
-12.597
659.77
48.0771
-22.5344
653.953
38.0434
-36.6117
661.711
18.4497
-53.9133
14.6993
-43.1587
1086.44
1029.1
1091.24
922.881
1231.14
588.21
1374.06
379.926
1233.1
287.092
1075.72
199.144
908.625
41.9015
902.105
-42.3703
923.269
-39.4063
968.451
-6.9133
1009.4
24.2913
1066.19
28.7056
1111.55
32.8206
1150.04
33.7448
1174.45
37.0529
1190.49
40.3718
1199.86
38.707
1208.78
29.1182
1199.52
27.7114
29.5083
563.461
2111.78
-1342.34
464.721
-434.546
1373.18
705.369
-104.478
852.207
860.143
-89.06
281.169
999.099
-76.0937
110.937
1098.72
-94.2811
111.906
1148.98
-60.6511
115.489
1199.26
-57.2453
82.0509
1231.23
-37.0257
54.1667
1269.14
-32.6837
16.0099
1296.55
-19.8858
3.05883
1323.25
-15.057
-28.8199
1337.15
-1.78046
-31.1134
1339.88
4.67516
-34.5531
1332.52
6.10202
-19.2146
1325.14
1.28792
-6.62638
1319.67
-5.51207
10.8221
1327.51
-19.2255
24.8183
1355.77
-26.7167
28.9189
-11.3866
32.1808
-479.58
1824.28
-334.948
-184.964
-392.109
-296.065
360.136
-449.277
-170.555
462.449
-163.928
9.5727
673.867
-238.027
4.69712
731.575
-123.295
-9.89277
796.493
-111.322
13.8622
821.67
-57.7617
-30.5187
846.813
-39.6431
-39.9215
863.925
-20.0674
-68.0097
880.821
-11.6843
-72.979
895.655
-5.80662
-75.3664
909.082
-4.38755
-60.4554
920.794
-3.6849
-39.1963
930.106
-4.10573
-3.38636
937.062
-5.52383
22.6361
939.459
-5.08409
32.3814
936.968
-4.73027
27.373
931.358
-2.04272
3.91243
11.1696
-17.1828
-104.344
-351.673
2878.28
317.791
-593.322
-1130.09
412.621
-696.655
-532.883
526.89
-265.61
-150.62
632.609
-324.614
-69.5894
668.729
-151.986
-8.00857
699.798
-143.044
6.60291
708.479
-65.1863
-13.6031
732.051
-62.3161
-7.44155
744.568
-28.6334
-5.85154
765.881
-33.5516
14.1922
779.745
-17.5044
16.6996
793.032
-18.9326
30.0904
799.24
-8.85688
27.539
800.591
-3.9484
27.8626
795.722
3.48385
19.7758
784.099
11.6851
4.38583
768.054
17.2702
-8.48115
747.528
22.2032
-16.9301
26.4922
-19.7348
1061.72
-822.278
-1656.2
1241.98
-27.3597
-564.315
929.946
-231.859
-165.531
909.155
-209.471
-77.2205
806.532
-228.306
61.9162
783.216
-127.767
44.7724
756.985
-129.651
91.763
729.511
-32.8717
33.0286
718.632
-56.0933
36.4954
704.45
-7.23209
10.3813
705.056
-34.3809
20.1721
704.821
-13.2252
13.8129
711.701
-26.571
20.7893
718.42
-14.7761
19.0024
727.354
-13.4159
22.0861
732.531
-0.105591
15.7933
731.743
16.1066
12.9544
720.013
33.2632
8.94496
695.516
46.8455
9.11055
45.6055
3.55303
1270.94
1836.95
-922.51
967.743
176.6
-812.657
796.199
-71.8378
6.8381
887.807
-271.433
58.2439
864.762
-230.517
193.006
829.234
-92.0808
85.7184
784.021
-103.59
138.81
739.055
21.3917
63.7438
705.651
-18.6402
53.2894
678.725
17.3911
17.7978
669.308
-24.8368
16.5176
663.839
-7.07404
5.28374
668.959
-34.6035
9.18749
676.35
-24.5437
4.55453
686.039
-25.262
3.13814
695.067
-9.24377
-7.8957
695.683
17.3225
-12.0663
682.48
48.4892
-12.4128
663.154
65.9548
2.74003
60.9271
3.50251
939.39
1429.75
-2440.21
866.838
-119.618
360.151
1103.93
30.3233
321.684
1123.77
-168.362
249.857
1001.73
-71.7156
87.3819
907.35
24.89
-16.1125
862.392
-73.6332
37.5369
786.15
85.062
21.7225
733.339
26.7953
45.2802
679.687
69.8232
27.4078
646.748
7.56157
18.6762
627.498
9.76939
7.77069
625.259
-36.4661
1.91925
630.896
-31.4343
-1.12918
641.321
-38.7239
-3.34201
656.306
-24.5856
-13.3891
661.743
11.7939
-15.4814
655.106
55.2335
-14.9438
649.675
71.0796
-1.23834
65.3604
5.49038
-541.68
413.719
1113.54
122.023
-174.575
-216.857
710.691
-231.762
-456.373
749.779
-185.466
-74.4323
853.464
-138.916
-30.5104
772.248
103.058
-44.8287
731.612
5.98083
-5.76071
-29.0584
6.6456
-25.8349
675.714
16.713
16.9424
43.2859
25.8733
47.8867
632.119
29.1577
6.19706
3.88568
28.4396
2.74901
599.353
22.2467
13.3573
26.9772
22.9738
26.542
588.481
14.541
4.97824
-5.1854
13.0789
-5.09965
588.27
2.58221
10.982
-1.02234
3.86611
1.73833
603.335
-8.49713
1.0348
-21.8584
-6.28243
-18.6569
618.298
-13.3714
8.85373
-18.278
-10.4616
-12.8862
630.363
-53.3484
-1.19782
640.779
-35.1646
-7.21484
644.686
10.2201
-18.6125
642.565
56.2824
-10.3428
638.696
74.35
7.15461
72.012
14.4569
935.768
13.8571
-716.177
711.857
-67.9557
404.686
807.451
-266.675
-288.547
832.819
-178.094
-135.683
836.668
-114.257
-92.6027
199.21
26.5801
-77.9841
190.374
184.315
175.459
63.0547
37.1414
72.2612
-3.79253
187.244
21.95
-0.210822
-9.98207
-163.721
164.805
13.3413
12.2697
-8.85951
-159.757
151.027
37.6264
9.12066
2.11346
-140.087
143.54
18.4099
-1.73043
4.10689
-145.032
146.718
13.6597
-4.91154
5.53635
-145.427
152.993
-5.44727
-5.07225
6.2913
-157.252
161.017
-12.1596
-6.3943
3.20439
-159.301
163.109
-17.9471
-2.43692
642.309
-17.4273
13.5846
-160.754
-166.329
-152.348
-157.095
-22.955
-13.2454
-16.5847
641.921
-34.7142
1.02299
633.786
20.4177
-26.4093
629.704
60.8515
-14.6765
610.739
93.1795
12.1061
93.5617
9.43216
-56.5939
-1020.07
783.548
495.855
-447.263
-129.291
661.485
-264.563
-99.6233
671.251
-114.565
-170.228
181.655
-26.2104
-24.1311
159.662
168.198
145.775
6.23946
197.131
15.966
-11.102
1.78369
-9.32559
-52.265
49.731
12.3345
-2.25864
-0.975538
-43.1388
-5.57949
42.4498
5.38697
1.8571
-2.04853
-40.0605
-11.5523
39.8554
11.7222
2.08369
0.889275
-37.026
-6.65552
37.225
6.79389
-1.2266
2.49937
-38.6395
-3.31396
39.6561
2.59965
-2.80164
2.6295
-40.9941
1.29002
41.8377
-1.8937
-2.86942
1.93228
-43.1094
3.20758
43.7478
-3.64626
-2.13202
1.41895
-43.8206
4.44945
44.4032
-5.11637
-1.33466
-43.7351
1.44715
175.298
-20.5205
1.3053
-45.0567
-42.5
-43.6657
633.907
-2.54227
4.4053
-168.54
-175.374
-157.913
-161.977
609.082
50.2375
-21.4507
587.21
83.2296
-16.6
554.55
126.083
9.36858
121.838
-3.48439
551.005
-516.526
-1392.44
336.861
-399.054
35.6527
589.84
-264.411
-289.548
516.397
-46.7889
-20.4887
156.387
-25.5359
101.81
146.395
137.105
127.061
1.74678
-9.55827
166.132
9.39544
-11.3294
0.169745
-9.16496
-47.7832
49.4095
8.00324
-0.634331
0.973421
-7.9718
-49.3262
48.3484
8.32758
-0.351414
-0.601479
-13.6076
-46.2136
45.9289
13.5815
0.912263
0.945432
-6.91258
-45.1988
45.1494
6.90281
-0.886281
1.22917
-1.72011
-45.3292
45.5019
1.79974
-1.48145
1.7986
2.00898
-46.1966
46.5934
-2.02952
-2.17493
2.30705
4.48744
-48.1436
48.8099
-4.86244
-2.59838
1.72697
6.16694
-50.4657
50.8798
-6.54816
-1.75979
-50.4032
0.231954
19.7651
193.089
-15.4617
1.89086
-51.2174
-48.5468
-49.3478
632.261
47.7468
15.984
-180.128
-181.142
-163.735
-164.231
590.86
96.8387
-7.38682
556.733
116.218
-14.4748
531.107
151.916
1.74483
137.512
-9.12037
795.888
-396.516
-3817.61
856.565
95.3482
-1163.31
613.097
-8.9481
-426.562
447.506
122.858
-37.7334
106.069
45.7967
90.0792
99.0669
106.69
99.3472
1.25826
-1.97484
108.172
1.4344
-2.82096
0.139122
-5.02117
-32.971
34.8487
3.31742
-0.313012
-2.50231
-8.28843
-39.6556
40.2715
7.14678
3.02806
-3.78542
-10.4872
-42.8119
43.9398
8.98395
4.16077
-3.30114
-5.88589
-46.3958
46.7952
5.22233
3.56538
-1.95273
-1.52266
-47.2405
47.4783
1.18564
2.05194
0.24928
2.50705
-48.45
48.7032
-2.44063
-0.568884
-0.0873412
5.11961
-48.7953
48.5869
-4.91934
0.0954304
-1.99124
6.70203
-48.114
48.0895
-6.26304
1.57681
-46.7375
9.18907
10.5366
176.329
-6.702
-9.92367
-44.2595
-45.2628
-43.1695
586.332
73.9173
-33.1942
-167.325
-150.889
-153.782
-143.382
561.343
122.161
-22.8609
542.512
132.73
-16.6947
530.901
161.965
-4.19559
139.62
-11.8066
734.765
318.379
-4354.87
728.303
485.64
-1141.63
705.196
349.06
-432.488
571.78
315.259
59.3702
128.982
159.689
196.276
141.059
116.595
126.543
-9.20446
3.49098
140.315
-10.4413
4.82076
-1.15315
7.38868
-40.2545
41.5526
-8.81862
1.28506
-5.44212
-3.82062
-40.7473
39.9744
3.96126
6.07439
-4.04391
-5.34648
-39.6971
40.2469
4.41167
4.42889
-2.28225
-3.59833
-40.9397
40.9506
3.3727
2.49696
-1.28405
-1.08298
-40.7375
40.7359
1.07271
1.29593
-1.00339
1.68113
-39.8802
39.5334
-1.31068
0.979774
-1.3574
3.73774
-37.9984
37.4061
-3.226
1.43787
-0.331996
3.8361
-35.4038
35.0479
-3.11466
-0.033516
-33.9784
9.98035
2.80482
134.135
-0.017179
-13.6756
-33.113
-33.4973
-32.6388
527.458
51.5329
-42.3703
-132.713
-125.171
-127.339
-120.599
542.346
105.338
-29.8445
551.798
121.203
-20.6998
561.567
150.239
-7.95351
126.872
-3.90096
647.538
1810.02
-1250.36
729.821
843.219
-584.516
743.421
635.248
-453.628
743.965
371.115
9.52165
710.32
208.686
137.358
145.634
-38.6435
53.0673
26.8861
64.8104
29.0319
63.5788
146.925
131.111
133.116
6.89971
-28.0779
124.197
14.7948
26.8768
-2.03305
5.91232
-2.93566
-5.23587
-20.3022
-93.9368
99.2711
15.6981
21.116
-5.45439
-5.50342
-5.65247
-2.88466
-6.71657
-120.389
122.973
11.1176
7.60144
-4.00403
-3.3711
-4.32628
-3.00512
-2.40181
-109.309
109.643
11.5633
2.52246
-3.02671
-2.98475
-3.00091
0.0647855
0.490428
-121.89
125.285
-0.946898
-0.153798
-1.21404
-0.194813
-1.44013
1.03942
-1.22931
-119.252
117.652
-1.04163
1.64487
0.340819
0.79318
0.0529597
2.75219
-1.49569
-120.835
120.184
-7.09935
1.66538
1.39435
2.39571
1.03828
2.39484
-2.41692
-114.313
112.813
-4.00621
1.21543
1.30268
2.04141
0.968347
451.596
18.539
-7.50108
-2.37356
-10.1414
-5.15208
-12.4922
-112.305
-111.079
-107.623
-105.687
483.49
20.4828
-19.1869
520.452
66.5343
-12.8929
554.413
84.7779
-11.7312
581.678
119.878
-3.34035
102.095
10.7284
420.253
276.396
-6922.47
804.91
1090.72
-845.331
875.066
737.948
-778.338
805.607
401.668
-92.9216
619.449
309.581
121.671
479.536
87.0313
13.1473
417.078
331.534
57.0997
-43.6002
-90.6699
-52.8352
-93.8407
390.652
-6.72409
12.7183
-4.31073
24.25
-1.13858
21.2815
407.547
115.989
7.27434
-15.6304
-45.2997
-20.9452
-46.6599
417.815
-43.7977
9.62851
-2.65065
19.4301
-1.482
17.6479
427.83
28.0574
3.93686
0.773007
-15.1188
-4.12068
-17.2199
425.626
-38.7798
9.64923
6.55293
14.6352
5.37859
13.1002
424.42
14.9632
9.01424
4.88044
-8.07226
1.79427
-9.09891
419.839
-17.0864
12.1945
5.27549
6.3725
4.06661
5.02303
426.654
12.1525
10.8607
438.948
8.84754
7.72342
472.784
30.5349
6.92081
515.687
39.8899
0.935379
558.427
72.0751
13.2902
65.472
29.8928
562.665
448.87
-623.732
860.593
941.009
-432.394
762.315
837.108
-153.587
686.139
407.554
-12.3466
446.726
488.928
132.5
395.208
133.024
2.36996
443.006
283.593
21.8595
401.165
42.308
-34
423.743
87.7483
-2.4605
411.496
-32.1226
-17.4303
423.182
13.022
5.15362
416.541
-32.5348
1.36437
417.515
12.2879
5.05838
408.039
-5.35511
2.4222
406.755
13.2384
4.52256
408.42
6.8671
5.56406
422.586
14.3294
6.53851
448.229
12.1629
14.6178
490.306
25.7657
28.527
26.3406
32.9116
-344.729
898.268
-4612.11
-158.933
548.558
348.8
165.543
627.368
-200.835
212.369
247.532
70.2903
323.959
374.992
14.1217
343.132
108.67
-55.4572
434.529
185.184
-39.7192
439.617
36.4561
-81.0811
452.934
59.1697
-29.1462
436.646
-20.1443
-31.8378
435.867
7.38497
17.4482
425.123
-21.479
8.18219
424.865
11.2266
7.53203
420.324
0.443981
-0.636302
425.107
8.81623
1.75324
428.895
2.99234
2.12546
439.386
3.82135
2.55075
452.391
-0.187906
2.73747
474.651
1.79531
12.821
6.16294
7.79502
489.656
1984.16
-707.085
334.326
405.592
391.395
220.576
758.682
-207.687
174.809
295.765
-75.0296
304.886
270.027
-58.3651
333.056
66.97
-25.6965
471.807
45.4802
-34.0202
516.866
-9.4768
-49.6666
552.192
12.1385
4.4874
528.493
2.25887
12.7631
502.25
26.1823
65.6908
464.736
20.6125
28.5224
448.496
26.7969
6.95407
436.191
14.4493
-14.359
435.327
11.6966
-16.3913
435.612
4.07117
-15.6029
441.08
-0.309449
-16.3157
449.571
-7.21231
-13.861
464.427
-11.4487
-5.43588
-6.63242
-7.27843
524.081
212.875
-3771.05
-686.068
401.18
1091.83
120.409
361.387
-504.624
171.337
167.267
126.064
428.893
33.0845
89.5613
519.275
-11.5996
27.9728
622.271
-59.0668
29.1188
665.519
-47.1308
3.58234
670.162
4.45096
43.3074
642.141
31.5442
38.2282
597.683
67.0967
62.0251
559.155
64.62
23.1071
537.214
53.2902
2.11023
524.061
35.3709
-23.0457
521.04
21.2918
-27.6336
521.803
10.0136
-31.6895
529.287
-0.224597
-30.9531
541.253
-12.7249
-32.1079
559.656
-28.344
-25.3859
-20.8084
-16.8541
504.354
-273.202
2087.13
350.134
424.688
685.605
405.068
440.235
461.32
303.074
355.991
-63.3028
390.973
47.215
-58.3234
445.935
-11.6236
-101.556
551.34
-144.688
-68.2936
598.578
-77.6015
-61.1358
640.429
-40.9393
-20.9372
655.018
20.028
-11.6877
672.41
46.6196
30.7301
677.409
66.5699
15.0605
679.43
60.1133
9.96091
676.258
54.1346
-10.7966
671.752
44.8564
-21.663
667.663
38.2245
-36.7189
664.425
30.8266
-50.347
662.117
22.5068
-69.5355
661.784
2.20103
-84.1256
-4.76531
-61.109
371.166
963.05
702.248
1016.49
1050.99
679.708
1245.29
541.615
1230.9
348.694
1217.58
200.837
1086.23
28.5632
1023.15
-56.8865
974.617
-31.8138
984.865
2.86698
1012.42
43.3544
1063.37
44.324
1105.45
50.8528
1142.49
50.8407
1167.15
57.2559
1185.35
60.3973
1195.36
59.5177
1202.2
44.7903
1182.84
49.2684
47.9866
657.995
2228.06
-130.821
866.044
-123.635
1288.77
1062.13
38.8852
617.232
1144.41
19.9537
178.943
1104.04
22.2848
129.021
1141.96
-25.2857
99.2642
1164.7
-6.75099
99.5055
1207.31
-15.092
54.5353
1226.91
4.48351
30.082
1243.15
4.96031
-5.1969
1240.89
15.7029
-10.3759
1229.29
15.2777
-32.4984
1203.28
24.0321
-29.1366
1178.12
20.1096
-29.5096
1154.53
14.022
-9.64419
1143.88
2.02706
2.00216
1150.07
-4.56423
9.19042
1169.54
-8.36975
13.7165
1188.41
-1.582
11.6357
13.926
14.576
-417.183
1288.58
-3278.64
-134.463
-181.687
-520.734
365.084
-290.963
-340.253
441.42
-59.5195
12.7098
623.973
-132.257
-23.3141
672.137
-47.7963
-35.5465
735.959
-55.0539
-1.65697
756.316
-16.229
-49.7379
776.559
-7.77357
-47.9072
783.434
3.56295
-73.4877
789.501
5.18181
-68.5247
790.567
5.77027
-66.925
792.163
4.75536
-42.7752
791.931
4.62036
-23.475
793.947
4.30722
4.31217
796.784
5.87493
15.9515
798.098
8.16832
18.3352
798.501
10.8368
7.7632
794.394
15.9168
-9.47959
22.1862
-19.1797
1358.67
-992.516
-134.095
274.511
-462.828
235.214
440.777
-616.053
-374.058
475.416
-180.484
-64.2957
546.107
-230.456
-42.0815
578.294
-75.9995
-11.9922
615.024
-92.8588
7.67732
619.752
-24.2971
-10.2628
642.639
-35.0104
-3.0923
647.23
0.24732
-7.12672
662.792
-5.69032
9.50237
669.122
7.6193
8.52059
677.528
5.97618
20.4631
679.233
12.5679
17.8867
678.024
14.7998
18.5787
670.92
22.2971
10.4581
657.84
26.6898
-1.05532
642.121
28.1872
-10.1136
625.078
28.242
-12.2118
27.3341
-13.6638
2023.07
70.1214
-1065.49
1488.07
-193.618
-298.531
883.474
-231.243
54.2576
758.941
-132.365
-0.806255
651.307
-134.326
73.4205
624.196
-32.2457
28.13
623.08
-74.049
74.0682
603.617
12.4234
15.7713
606.24
-28.0285
26.8909
597.617
14.5672
4.68442
603.081
-5.21065
14.2279
603.312
13.3615
7.83985
609.475
6.11757
14.4849
612.543
16.2405
12.2622
616.384
18.4814
14.5625
614.534
30.0414
9.89912
606.478
41.496
6.20469
592.899
47.8114
2.89996
576.047
47.5405
6.66353
39.5748
2.81844
1930.65
1706.98
114.685
911.354
129.302
-116.278
659.395
-14.8433
42.3968
669.769
-148.254
63.7588
669.488
-101.018
159.979
639.143
25.733
58.0851
630.851
-28.6275
101.68
604.531
58.8093
43.678
590.509
2.1282
37.1546
571.777
38.4088
12.6885
570.558
-0.289277
12.8146
567.854
17.0288
4.32057
574.633
1.48809
7.03853
579.491
13.5876
2.34959
585.364
13.7741
1.97193
584.596
29.0899
-6.17595
575.466
49.066
-10.5064
559.952
60.5899
-9.67732
546.991
60.6956
2.54612
48.4568
2.6983
505.059
857.032
-2063.42
890.043
117.428
-12.9599
975.065
111.789
110.03
927.125
-26.1811
175.724
782.798
57.6012
73.0894
689.533
109.8
-6.91439
674.783
-19.9507
43.6101
609.925
131.527
13.8632
587.167
31.5782
38.5878
553.068
82.3351
17.5803
541.503
13.4921
16.4596
532.944
27.1914
6.16798
535.808
-3.06932
3.61222
540.911
8.77721
-1.42156
548.259
6.87729
-3.79352
554.423
18.8003
-9.26344
552.063
47.9595
-12.0152
544.248
64.2647
-10.8036
539.943
64.3927
-0.629889
52.6077
4.35995
-72.7687
570.717
1162.11
412.161
-17.2543
-567.103
629.465
-127.318
-434.57
651.981
-62.4737
-60.6564
704.889
-1.155
-24.6614
596.038
204.412
-30.5897
575.708
11.8869
12.2036
-19.7774
10.0684
-19.7625
525.642
36.5045
16.4973
52.6574
40.0759
52.8001
506.754
25.8971
7.52913
1.07737
22.8874
-0.727792
489.864
23.8669
11.7955
26.5042
24.0894
26.3268
493.106
11.7236
2.67961
-5.1125
10.809
-4.87144
497.381
6.63638
8.4028
4.96891
6.87353
7.01663
512.889
-0.521463
5.04966
-13.4033
1.62872
-10.296
524.518
-2.4108
11.731
-4.84734
1.99587
-0.466894
534.158
-5.028
1.06769
538.211
13.6288
-6.09709
535.886
46.1082
-14.4358
529.717
68.1919
-8.10102
524.477
71.7898
4.99721
64.9541
8.65068
1490.23
444.618
-47.0979
1113.19
3.63995
760.825
802.79
-175.472
70.0121
730.301
-93.4633
-32.2051
690.18
-11.178
-42.4585
151.448
57.4657
-46.0757
142.647
140.322
130.954
87.8479
62.12
89.8788
-0.879105
138.029
29.7243
-3.53969
-10.8309
-115.373
122.495
29.5399
10.6731
-7.36717
-123.573
120.886
31.6715
4.27939
1.72138
-114.437
120.852
16.9942
-1.26334
5.13736
-124.012
126.406
9.39938
-5.20726
4.73127
-124.909
131.022
-1.20508
-3.003
6.42771
-134.545
137.722
-5.87961
-4.24641
2.97963
-135.213
138.597
-8.06046
-0.713804
536.959
-3.75344
16.9636
-136.255
-140.208
-127.411
-130.529
-7.27382
2.0662
-2.00266
533.693
17.079
0.839497
518.358
55.4579
-20.4242
505.767
78.2045
-12.0989
488.118
92.7593
8.78545
85.0765
4.79982
435.798
-704.744
2955.69
763.139
-319.215
-133.777
622.239
-182.755
48.5604
546.021
-68.7094
-118.764
141.673
26.1952
-23.2998
122.208
131.057
112.878
12.6769
151.127
47.6537
-12.319
1.89174
-12.1675
-39.5665
36.8392
15.525
-2.52182
-2.96576
-31.6013
-7.39057
31.9354
7.00189
3.02034
-1.72564
-33.1418
-9.40315
33.6638
9.27034
1.33639
1.64681
-32.4292
-4.62998
32.8081
4.35574
-1.75142
3.04329
-34.2455
-2.34056
35.036
1.50804
-3.00125
3.07425
-35.3295
0.928194
36.0282
-1.78539
-2.91571
2.43644
-36.7787
1.97444
37.3187
-2.68368
-2.26719
1.19922
-36.8621
2.35642
37.2666
-2.95788
-1.00232
-36.3731
-1.74126
145.268
-6.15536
3.49004
-37.2579
-35.1065
-35.8771
515.885
42.1088
3.81877
-139.269
-142.021
-128.705
-130.334
486.786
79.0084
-15.9018
462.577
97.282
-11.4694
442.027
117.095
5.58285
100.876
-7.2451
865.68
307.323
-360.082
542.886
-208.57
247.802
434.93
-206.828
-157.519
319.838
-0.297686
26.1921
105.951
12.4044
55.4374
95.0972
95.1218
83.8303
7.30543
-34.0224
115.229
23.1964
-5.75695
-0.910599
-14.8082
-36.6506
38.6279
12.9171
0.824399
-1.25542
-9.13068
-39.4177
39.0024
9.2573
1.54413
-1.33057
-9.42314
-38.7943
39.0332
9.19698
1.31779
0.623042
-3.90358
-39.451
39.5397
3.86227
-0.670443
-39.7764
2.12446
-0.53269