/*--------------------------------*- C++ -*----------------------------------*\
  =========                 |
  \\      /  F ield         | OpenFOAM: The Open Source CFD Toolbox
   \\    /   O peration     | Website:  https://openfoam.org
    \\  /    A nd           | Version:  10
     \\/     M anipulation  |
\*---------------------------------------------------------------------------*/
FoamFile
{
    format      ascii;
    class       volScalarField;
    location    "2.8";
    object      turbidity;
}
// * * * * * * * * * * * * * * * * * * * * * * * * * * * * * * * * * * * * * //

dimensions      [0 0 0 0 0 0 0];

internalField   nonuniform List<scalar> 
12920
(
-0.0506278
-0.0641909
-0.0807278
-0.10501
-0.129331
-0.152363
-0.174752
-0.19691
-0.216121
-0.231332
-0.242536
-0.247804
-0.252255
-0.256386
-0.263025
-0.273106
-0.28736
-0.304828
-0.325874
-0.347075
-0.0347457
-0.0500703
-0.0775177
-0.113467
-0.143
-0.168255
-0.194996
-0.218733
-0.235261
-0.243106
-0.248984
-0.257753
-0.274368
-0.299212
-0.32779
-0.353542
-0.378524
-0.400944
-0.418532
-0.42903
-0.0298708
-0.0484608
-0.0585977
-0.0986257
-0.133619
-0.167943
-0.202372
-0.236132
-0.274232
-0.309
-0.337591
-0.360226
-0.378956
-0.395442
-0.41079
-0.425563
-0.438453
-0.446619
-0.454501
-0.47179
-0.013564
-0.0476333
-0.0685658
-0.0941351
-0.119498
-0.151428
-0.189062
-0.231966
-0.273129
-0.31009
-0.339056
-0.36104
-0.376616
-0.38976
-0.402626
-0.418751
-0.441464
-0.472034
-0.508204
-0.547656
-0.02758
-0.0569625
-0.082123
-0.0966679
-0.111077
-0.134993
-0.168888
-0.214837
-0.257227
-0.292312
-0.314701
-0.329777
-0.337972
-0.345399
-0.353893
-0.36541
-0.388756
-0.426235
-0.475405
-0.530125
-0.0286749
-0.0489913
-0.0651034
-0.0804317
-0.0983995
-0.118521
-0.144951
-0.178971
-0.21697
-0.253474
-0.277171
-0.288239
-0.287023
-0.286412
-0.289213
-0.302369
-0.333457
-0.383613
-0.446698
-0.511976
-0.106843
-0.070852
-0.0592937
-0.0769083
-0.100166
-0.121192
-0.146094
-0.176227
-0.204183
-0.229755
-0.236253
-0.231302
-0.214802
-0.206544
-0.210558
-0.229313
-0.267942
-0.331278
-0.405738
-0.484484
-0.0349475
-0.0581097
-0.0578483
-0.0743634
-0.0999871
-0.122784
-0.127207
-0.137687
-0.158354
-0.160398
-0.152177
-0.1152
-0.0985549
-0.0902742
-0.104631
-0.143881
-0.189605
-0.254151
-0.33576
-0.428397
-0.0243101
-0.0484382
-0.0682582
-0.0850363
-0.114656
-0.118611
-0.12125
-0.123449
-0.138522
-0.130921
-0.110954
-0.0910274
-0.0786693
-0.0705508
-0.072431
-0.11364
-0.159187
-0.218784
-0.299286
-0.391204
-0.0221361
-0.0538886
-0.0865284
-0.113948
-0.141037
-0.142018
-0.140524
-0.124445
-0.120208
-0.116145
-0.102571
-0.0888605
-0.0801503
-0.0777376
-0.0870884
-0.122916
-0.162604
-0.214028
-0.285733
-0.363299
-0.028879
-0.0354939
-0.0806214
-0.148428
-0.195448
-0.170692
-0.152007
-0.130489
-0.118667
-0.111531
-0.102614
-0.0973064
-0.0984487
-0.10686
-0.123057
-0.143043
-0.17539
-0.21767
-0.276111
-0.336897
-0.0336887
-0.0474017
-0.0706275
-0.102203
-0.141818
-0.154574
-0.163811
-0.161149
-0.148204
-0.13956
-0.136668
-0.138449
-0.149096
-0.161754
-0.165263
-0.162466
-0.188341
-0.221378
-0.265963
-0.314015
-0.0397148
-0.0596137
-0.0728504
-0.0917296
-0.114759
-0.148249
-0.155838
-0.173424
-0.192943
-0.198505
-0.223214
-0.236225
-0.260983
-0.271852
-0.308429
-0.296373
-0.281275
-0.280914
-0.296376
-0.322883
-0.0283119
-0.0382852
-0.0484668
-0.0718834
-0.106444
-0.148816
-0.193014
-0.236721
-0.275144
-0.313404
-0.352733
-0.39604
-0.440007
-0.484513
-0.514129
-0.522284
-0.489238
-0.448391
-0.418502
-0.413599
-0.0160626
-0.0302817
-0.0467206
-0.0695618
-0.101676
-0.136186
-0.179988
-0.202859
-0.24604
-0.287194
-0.340672
-0.394426
-0.449586
-0.502993
-0.552061
-0.590825
-0.611847
-0.608116
-0.585607
-0.58026
-0.0165953
-0.0387211
-0.0583096
-0.0790766
-0.10568
-0.120196
-0.14424
-0.160703
-0.200642
-0.253223
-0.32265
-0.388817
-0.446672
-0.491127
-0.530606
-0.564032
-0.595276
-0.62399
-0.647869
-0.664983
-0.022646
-0.043159
-0.0655303
-0.0954014
-0.120008
-0.136777
-0.149802
-0.163134
-0.188701
-0.224967
-0.283433
-0.35615
-0.409182
-0.435387
-0.45716
-0.480634
-0.507076
-0.539226
-0.577103
-0.608369
-0.0350837
-0.0481055
-0.0733788
-0.10721
-0.136423
-0.156267
-0.170459
-0.184123
-0.201754
-0.232971
-0.281571
-0.336234
-0.373681
-0.385662
-0.392011
-0.397751
-0.406801
-0.418175
-0.438761
-0.474209
-0.0133836
-0.0310338
-0.0692103
-0.114227
-0.148382
-0.167427
-0.181372
-0.205448
-0.236814
-0.269815
-0.30554
-0.341536
-0.371284
-0.390097
-0.396696
-0.392342
-0.383906
-0.377423
-0.383133
-0.414251
-0.0297556
-0.0480391
-0.0696059
-0.0921406
-0.108765
-0.129368
-0.149417
-0.171126
-0.203345
-0.238138
-0.26554
-0.287033
-0.303223
-0.316263
-0.327414
-0.338207
-0.349527
-0.362753
-0.379473
-0.402154
-0.00863438
-0.0480974
-0.0435265
-0.0429493
-0.0510899
-0.0622938
-0.0696344
-0.0683979
-0.0616474
-0.0520249
-0.0446843
-0.0399416
-0.0378194
-0.0369535
-0.0372648
-0.0398039
-0.0476231
-0.0621931
-0.0799526
-0.0947542
-0.0133204
-0.0185669
-0.0178031
-0.0347781
-0.0440363
-0.0490366
-0.049318
-0.0423543
-0.0367668
-0.0343753
-0.035813
-0.0406676
-0.0494233
-0.0626093
-0.0810385
-0.100606
-0.11165
-0.1123
-0.103963
-0.0983031
-0.00991722
-0.0149872
-0.0153236
-0.0202386
-0.025742
-0.0274924
-0.0319815
-0.0382233
-0.0518301
-0.0679542
-0.0891031
-0.105719
-0.118176
-0.122258
-0.11882
-0.108408
-0.0943447
-0.0867534
-0.0890301
-0.098008
-0.00667621
-0.0103036
-0.0137595
-0.0251198
-0.0445539
-0.0562954
-0.0650437
-0.0635752
-0.0681611
-0.074043
-0.0842727
-0.0952195
-0.107077
-0.118339
-0.129957
-0.139219
-0.146578
-0.151338
-0.156365
-0.160149
-0.00337852
-0.0195895
-0.0319128
-0.0384671
-0.0516377
-0.0653268
-0.0806656
-0.080269
-0.0728983
-0.0606702
-0.0532752
-0.049167
-0.0497808
-0.0526809
-0.0594555
-0.0705734
-0.0878665
-0.110478
-0.140016
-0.16442
-0.00343475
-0.0216635
-0.0288855
-0.0264685
-0.0267624
-0.0332086
-0.045961
-0.0538256
-0.0545193
-0.0441309
-0.0326877
-0.0266719
-0.0272104
-0.0326544
-0.0412874
-0.0537386
-0.0716715
-0.0966967
-0.132935
-0.175666
-0.018641
-0.0219943
-0.0140838
-0.0188338
-0.0248519
-0.0289815
-0.0343286
-0.0353338
-0.0297456
-0.0243156
-0.0200303
-0.0197655
-0.0223891
-0.0280808
-0.0363748
-0.0484942
-0.0673723
-0.0972788
-0.145542
-0.202692
-0.0115402
-0.0136455
-0.0136569
-0.0182184
-0.0270037
-0.0306713
-0.0376865
-0.0459813
-0.0344553
-0.0181992
-0.0131729
-0.0130961
-0.0172679
-0.0246792
-0.0371579
-0.0478876
-0.0655888
-0.0955321
-0.143257
-0.187927
-0.00963523
-0.0202638
-0.0190061
-0.0249684
-0.0424422
-0.0429781
-0.0406117
-0.0569646
-0.0491379
-0.0169609
-0.00932933
-0.0103335
-0.0150684
-0.0242137
-0.0408985
-0.0504931
-0.064541
-0.0909557
-0.131135
-0.156604
-0.014925
-0.022839
-0.0304764
-0.0447815
-0.074271
-0.0706038
-0.064053
-0.0589278
-0.0571035
-0.0315055
-0.0203009
-0.0162633
-0.0226011
-0.0349392
-0.0520917
-0.0577177
-0.0640558
-0.0823177
-0.110169
-0.124808
-0.00248908
-0.00877035
-0.02597
-0.0570184
-0.0714252
-0.0538777
-0.0557108
-0.0681215
-0.0710809
-0.0669061
-0.0595697
-0.0558357
-0.0680396
-0.0894769
-0.0780819
-0.0575979
-0.0594806
-0.070742
-0.0878507
-0.097142
-0.00343786
-0.0201574
-0.0366237
-0.0493809
-0.0713518
-0.0622006
-0.0565004
-0.100464
-0.110957
-0.100762
-0.084417
-0.0833593
-0.107074
-0.106098
-0.062028
-0.0457391
-0.0493507
-0.0573332
-0.0680955
-0.0757234
-0.0139672
-0.0139104
-0.0165904
-0.028457
-0.0503638
-0.0499797
-0.0701162
-0.0817311
-0.0633666
-0.0527356
-0.062341
-0.0907863
-0.115949
-0.108918
-0.0691111
-0.0585369
-0.0556872
-0.0583884
-0.0653144
-0.077269
-0.00322109
-0.00537711
-0.00724338
-0.0114775
-0.0260445
-0.0285433
-0.0430809
-0.0442432
-0.0493612
-0.0572921
-0.0721088
-0.0889199
-0.105557
-0.113963
-0.116031
-0.111425
-0.102518
-0.0983171
-0.1052
-0.12378
-0.0019753
-0.00428588
-0.0075661
-0.01258
-0.0259369
-0.0217455
-0.031793
-0.0369089
-0.0487644
-0.0563728
-0.0642379
-0.0658056
-0.0747552
-0.0814816
-0.0904208
-0.102395
-0.120224
-0.14279
-0.163814
-0.186136
-0.00233554
-0.00455458
-0.00753428
-0.00873545
-0.0143248
-0.0153462
-0.0249786
-0.0369358
-0.0548889
-0.0684735
-0.0770425
-0.0656517
-0.0567195
-0.0480071
-0.0480231
-0.050534
-0.0582001
-0.0678434
-0.0838509
-0.0883737
-0.00229868
-0.00607144
-0.00838444
-0.0146362
-0.0161523
-0.021806
-0.0301713
-0.0431351
-0.0668237
-0.090044
-0.104088
-0.0776916
-0.0452519
-0.0323346
-0.0304209
-0.0321757
-0.0350534
-0.0379736
-0.0413477
-0.0449364
-0.0209009
-0.0176864
-0.024189
-0.0425575
-0.0481816
-0.0465975
-0.0493482
-0.0562083
-0.0747964
-0.0874975
-0.0908273
-0.068372
-0.0445937
-0.0342561
-0.0323664
-0.034252
-0.0381334
-0.0431636
-0.0493052
-0.055574
-0.00982961
-0.0175792
-0.0332492
-0.0364092
-0.0337436
-0.0255097
-0.0253659
-0.0311423
-0.0456283
-0.0589832
-0.072536
-0.0709308
-0.0636454
-0.0528204
-0.0468941
-0.0464114
-0.0497169
-0.0555229
-0.0642035
-0.0721963
-0.0224701
-0.0236783
-0.0367519
-0.0499001
-0.0595739
-0.0558704
-0.0373867
-0.0245906
-0.024732
-0.0337208
-0.0466811
-0.0543994
-0.0593346
-0.0644072
-0.0725424
-0.0832611
-0.0956539
-0.109015
-0.128216
-0.153025
-0.00897917
-0.0344881
-0.0255534
-0.0219445
-0.0247717
-0.0311103
-0.0340991
-0.0319101
-0.0278284
-0.0240881
-0.022244
-0.0217448
-0.0219825
-0.0225956
-0.0237995
-0.0262107
-0.0303193
-0.0358665
-0.0418341
-0.0475272
-0.00850019
-0.0100209
-0.011596
-0.0169698
-0.0192971
-0.0197108
-0.0185843
-0.0174267
-0.0177388
-0.0192072
-0.0217496
-0.0252835
-0.0299971
-0.0362427
-0.0439987
-0.0516832
-0.0569366
-0.0593768
-0.0602756
-0.061492
-0.0132957
-0.0123341
-0.0119801
-0.01193
-0.0124076
-0.0127739
-0.014536
-0.0171073
-0.0217491
-0.0267833
-0.0336986
-0.0390221
-0.0434619
-0.0449532
-0.0449127
-0.0443007
-0.044589
-0.0464401
-0.0492227
-0.0515638
-0.00132639
-0.00575958
-0.00877682
-0.0128685
-0.0198417
-0.0217358
-0.0237286
-0.0228927
-0.0258798
-0.0295248
-0.0352284
-0.040973
-0.0474437
-0.052907
-0.0578331
-0.0608914
-0.0630534
-0.0646784
-0.0669053
-0.0680621
-0.00332191
-0.0138272
-0.0175494
-0.0219066
-0.0313724
-0.0336001
-0.0352241
-0.0288055
-0.0241395
-0.0221402
-0.0228337
-0.0254046
-0.0290786
-0.033888
-0.039749
-0.0465268
-0.0546098
-0.0641123
-0.0754993
-0.0855256
-0.00412957
-0.0124136
-0.0114177
-0.0123338
-0.016214
-0.0202649
-0.022816
-0.0212243
-0.0186537
-0.0168944
-0.0174551
-0.0203179
-0.0244302
-0.0297675
-0.0363746
-0.0446897
-0.0556069
-0.070384
-0.0908727
-0.115063
-0.0130191
-0.0109462
-0.0113911
-0.0136153
-0.0161607
-0.0173593
-0.0156485
-0.0142838
-0.0123298
-0.013079
-0.0151515
-0.0185093
-0.0227363
-0.0284592
-0.0363403
-0.04685
-0.0610984
-0.0811732
-0.109021
-0.137122
-0.00522277
-0.0116614
-0.0117661
-0.0130013
-0.0153501
-0.015741
-0.016206
-0.0139508
-0.011016
-0.010847
-0.0127373
-0.0153163
-0.0188896
-0.0232558
-0.0350384
-0.0474648
-0.0632979
-0.0836964
-0.106921
-0.119362
-0.00478398
-0.00863767
-0.0103229
-0.014317
-0.0192911
-0.0183033
-0.0167024
-0.0176728
-0.0102532
-0.00795544
-0.00937172
-0.0129016
-0.0181686
-0.0241442
-0.0301068
-0.0459245
-0.0621463
-0.0796457
-0.0938136
-0.0924319
-0.00589424
-0.0112923
-0.0143559
-0.0194507
-0.0295847
-0.0249263
-0.0232524
-0.0233143
-0.0144936
-0.00872884
-0.0104755
-0.0164418
-0.0238438
-0.0310947
-0.0354424
-0.0431245
-0.0561968
-0.0690563
-0.0766731
-0.0729768
-0.00348488
-0.00873983
-0.0178769
-0.0235248
-0.0216753
-0.017884
-0.0184128
-0.0175949
-0.0146149
-0.014783
-0.0183954
-0.0260807
-0.0376806
-0.0431652
-0.0382042
-0.0376726
-0.0469547
-0.0557582
-0.0605086
-0.0588122
-0.00179431
-0.00968607
-0.0166244
-0.0206597
-0.0267043
-0.0216575
-0.0199354
-0.0240123
-0.0246126
-0.024387
-0.0295836
-0.0417762
-0.0487443
-0.038407
-0.0288479
-0.0322125
-0.0386231
-0.0446799
-0.0489187
-0.0504156
-0.00609693
-0.00793663
-0.00972621
-0.0146107
-0.023968
-0.0208756
-0.025229
-0.0245474
-0.023972
-0.0290511
-0.0366756
-0.0439009
-0.0431929
-0.0362106
-0.0332134
-0.035775
-0.0396743
-0.0439883
-0.0481186
-0.0522535
-0.00105027
-0.00280819
-0.00400519
-0.00778907
-0.0141452
-0.014832
-0.0185888
-0.0214356
-0.0252024
-0.028928
-0.0339487
-0.0371648
-0.0394683
-0.0409621
-0.042632
-0.0447779
-0.0476356
-0.0517995
-0.0584939
-0.0681585
-0.000273381
-0.00159256
-0.00370726
-0.00686149
-0.0120189
-0.0150177
-0.0187578
-0.0226815
-0.0256438
-0.0266825
-0.0285256
-0.0287481
-0.0314848
-0.0342137
-0.0387971
-0.0447846
-0.0528622
-0.0631235
-0.074538
-0.0867294
-0.000873789
-0.00213153
-0.00406807
-0.00654805
-0.0104931
-0.0156146
-0.0211284
-0.0269203
-0.0300124
-0.0300207
-0.0285924
-0.0255649
-0.0254268
-0.0265511
-0.0293972
-0.0325489
-0.0366668
-0.0409445
-0.0461642
-0.0504885
-0.00335384
-0.00435621
-0.00609176
-0.0111896
-0.0137909
-0.0190335
-0.0263775
-0.0330464
-0.0431297
-0.0435053
-0.0392342
-0.0284564
-0.0241995
-0.0247541
-0.0267024
-0.0289327
-0.0312896
-0.033639
-0.0361923
-0.0391256
-0.00488178
-0.0111762
-0.013617
-0.02307
-0.0217663
-0.0200709
-0.0225301
-0.0255379
-0.0341546
-0.0349493
-0.0323732
-0.0268279
-0.0257482
-0.0276786
-0.0305234
-0.0335536
-0.0366672
-0.0395367
-0.0422067
-0.0444151
-0.0170189
-0.013017
-0.0213855
-0.0136626
-0.0114118
-0.00964967
-0.0102858
-0.0120688
-0.0165981
-0.0204991
-0.0247205
-0.0260037
-0.0280461
-0.0315338
-0.0361225
-0.0412794
-0.0469091
-0.0528566
-0.0595761
-0.0646434
-0.00953129
-0.0167106
-0.026292
-0.0338986
-0.0363107
-0.0290935
-0.0187439
-0.011701
-0.00971905
-0.0114511
-0.0150152
-0.0179961
-0.0212083
-0.0254737
-0.0317255
-0.0398979
-0.049883
-0.0615405
-0.0768654
-0.0950272
-0.00261422
-0.0167085
-0.0111738
-0.0107855
-0.0147673
-0.0181098
-0.0185568
-0.0168076
-0.0151002
-0.0143455
-0.0147191
-0.0159554
-0.0179561
-0.0207599
-0.0241739
-0.027807
-0.0313197
-0.0344662
-0.0370328
-0.0386564
-0.00327249
-0.00579456
-0.00753241
-0.0095625
-0.0108373
-0.0114205
-0.01219
-0.0132191
-0.014856
-0.0171755
-0.0202072
-0.0240102
-0.0283905
-0.0325505
-0.0358236
-0.0375299
-0.0376747
-0.0365985
-0.0352779
-0.0338999
-0.00336949
-0.00756576
-0.00960823
-0.00910696
-0.00890145
-0.00938383
-0.01076
-0.0125041
-0.0148779
-0.0172469
-0.0200806
-0.0222955
-0.0243431
-0.0255618
-0.0263859
-0.0268
-0.0270808
-0.0272634
-0.0275445
-0.0276897
-0.00211981
-0.00628055
-0.00847814
-0.00879299
-0.00996284
-0.0101616
-0.0114516
-0.0125278
-0.0148645
-0.0172011
-0.0202509
-0.023085
-0.0262001
-0.0286256
-0.0306998
-0.032016
-0.0331615
-0.0341932
-0.0354141
-0.0362425
-0.00377559
-0.00841647
-0.00982132
-0.0122153
-0.0151832
-0.0140888
-0.0137914
-0.0127057
-0.0131765
-0.0146513
-0.0168317
-0.0194747
-0.0226319
-0.026094
-0.0299954
-0.034159
-0.0389107
-0.0441546
-0.0497309
-0.0545608
-0.00333106
-0.00725871
-0.0077944
-0.00896222
-0.0106017
-0.0107587
-0.0111969
-0.0112419
-0.0123745
-0.0143251
-0.0172198
-0.0205107
-0.0245286
-0.0288867
-0.0340557
-0.040116
-0.0476696
-0.0570036
-0.0682494
-0.0788531
-0.0187844
-0.0169386
-0.0125749
-0.0106809
-0.0100728
-0.00935768
-0.00885107
-0.0100282
-0.012147
-0.0148702
-0.0183264
-0.0222115
-0.0270238
-0.0324546
-0.0387964
-0.0459756
-0.0544905
-0.0646129
-0.0758027
-0.0817076
-0.00687427
-0.00986085
-0.0102503
-0.0109203
-0.0104563
-0.00919578
-0.00865028
-0.00935261
-0.0109931
-0.0136022
-0.0158588
-0.0184745
-0.0223332
-0.0280961
-0.0399071
-0.0466294
-0.0527527
-0.058867
-0.0634208
-0.0598713
-0.0042331
-0.00821045
-0.00879899
-0.0103839
-0.0105375
-0.00951883
-0.00862503
-0.00841043
-0.00939819
-0.0108116
-0.0130981
-0.0155305
-0.0179732
-0.0215799
-0.0330895
-0.0446214
-0.047944
-0.0490944
-0.0475137
-0.0404813
-0.00542309
-0.00924176
-0.0106307
-0.0118709
-0.0117474
-0.0108921
-0.0102656
-0.00924736
-0.007883
-0.00961116
-0.0130755
-0.0165609
-0.019046
-0.0210654
-0.0297682
-0.0413496
-0.0436659
-0.0431531
-0.0407426
-0.0366076
-0.00105331
-0.00521993
-0.00950323
-0.0112518
-0.0101937
-0.0101569
-0.0100774
-0.00947679
-0.010352
-0.0132604
-0.0175109
-0.021814
-0.0231281
-0.0229785
-0.0275922
-0.0362475
-0.0385285
-0.0388431
-0.0381226
-0.037299
-0.00147221
-0.00572506
-0.00823622
-0.010304
-0.0112151
-0.0115003
-0.0120445
-0.013297
-0.0151693
-0.01873
-0.022456
-0.0232966
-0.0213384
-0.0208929
-0.0241544
-0.0302369
-0.0332183
-0.0351706
-0.0366035
-0.0379793
-0.00175174
-0.00415695
-0.00636991
-0.00898179
-0.011325
-0.012097
-0.0133445
-0.0163187
-0.017773
-0.0199259
-0.0211424
-0.0215904
-0.021373
-0.0221791
-0.0261381
-0.0293
-0.032438
-0.0353968
-0.0382464
-0.0411116
-0.000589447
-0.00212126
-0.00417406
-0.00686389
-0.00961067
-0.0114917
-0.013793
-0.0159786
-0.0180212
-0.019881
-0.0215932
-0.0236985
-0.0254135
-0.0281298
-0.0308596
-0.0343192
-0.0379484
-0.0423787
-0.0476742
-0.0540194
-0.000281571
-0.00124319
-0.00359616
-0.00682327
-0.00988845
-0.0126345
-0.0144373
-0.0163178
-0.0179287
-0.0194071
-0.0214292
-0.0238097
-0.0268434
-0.0304608
-0.0345096
-0.0390982
-0.0439968
-0.0495754
-0.0554483
-0.0612518
-0.000961091
-0.00255246
-0.00485051
-0.00759653
-0.0106152
-0.0135251
-0.0156655
-0.0177084
-0.0187806
-0.0199579
-0.0214904
-0.023527
-0.0261248
-0.0289171
-0.0319026
-0.0346961
-0.0375249
-0.0399804
-0.0423539
-0.0441483
-0.00433774
-0.00435806
-0.00638051
-0.00949447
-0.0116818
-0.0138256
-0.0175856
-0.0194671
-0.0229418
-0.0226681
-0.0230738
-0.0241283
-0.0265182
-0.029281
-0.0320035
-0.034732
-0.0374796
-0.0401779
-0.0428638
-0.0451171
-0.00257683
-0.00511986
-0.00644666
-0.011229
-0.00983356
-0.00978707
-0.012027
-0.0139496
-0.0179914
-0.0195873
-0.0216508
-0.0243239
-0.027629
-0.0310444
-0.0343242
-0.037651
-0.0413043
-0.0452461
-0.0497757
-0.0545873
-0.0121925
-0.00811648
-0.00781443
-0.00583841
-0.00677828
-0.00642852
-0.00732677
-0.00950624
-0.0129212
-0.0165731
-0.0204162
-0.0242399
-0.0283292
-0.0325929
-0.0370504
-0.041733
-0.0466229
-0.0514446
-0.0559503
-0.0594161
-0.0041205
-0.0137448
-0.0203152
-0.0232026
-0.0208066
-0.0143137
-0.00880196
-0.00616127
-0.00636212
-0.00801671
-0.0103633
-0.0131114
-0.0165593
-0.0211092
-0.0270554
-0.0343819
-0.0429682
-0.0526954
-0.0636883
-0.0733985
-0.00861281
-0.00976826
-0.0105896
-0.013035
-0.0141049
-0.0134074
-0.0118993
-0.0105297
-0.010505
-0.0121287
-0.0148399
-0.0175619
-0.0195901
-0.0207892
-0.021437
-0.0217779
-0.0219911
-0.0221384
-0.0222656
-0.0220028
-0.00131904
-0.00459892
-0.00702104
-0.00853722
-0.00950927
-0.0100042
-0.0109519
-0.0127057
-0.0147636
-0.0169441
-0.0186611
-0.0197271
-0.0202686
-0.0202394
-0.0199454
-0.0191068
-0.0181216
-0.0170435
-0.016008
-0.0149501
-0.00471235
-0.010238
-0.0105947
-0.00870654
-0.0085297
-0.00967949
-0.0112777
-0.0128696
-0.0143923
-0.0155801
-0.0166692
-0.017366
-0.0178843
-0.01796
-0.0177227
-0.017143
-0.0162957
-0.015245
-0.0141504
-0.0132792
-0.00142763
-0.00804048
-0.00839682
-0.00760257
-0.00795729
-0.00915856
-0.0108343
-0.0125921
-0.0144672
-0.0161007
-0.0177181
-0.0189017
-0.0198598
-0.0202187
-0.0201951
-0.0197126
-0.0190487
-0.0182371
-0.0175147
-0.0170418
-0.00641439
-0.00790469
-0.00727844
-0.00774846
-0.00835622
-0.00926722
-0.0108855
-0.0126225
-0.0148184
-0.0167983
-0.018878
-0.0205257
-0.0220238
-0.023047
-0.0238936
-0.0244632
-0.0249713
-0.0254287
-0.0259783
-0.0266646
-0.00468864
-0.00700171
-0.00698076
-0.00717564
-0.00786252
-0.00929594
-0.0115865
-0.0137491
-0.0166281
-0.0189276
-0.0212182
-0.0227326
-0.0239423
-0.0247258
-0.0254346
-0.0261429
-0.0269239
-0.0277066
-0.0288335
-0.029861
-0.0277247
-0.0158048
-0.0105702
-0.00806947
-0.00781425
-0.00944508
-0.0123507
-0.015061
-0.0183938
-0.0207151
-0.0227566
-0.02389
-0.0242627
-0.024168
-0.0237016
-0.0232575
-0.0227067
-0.0221624
-0.0221861
-0.0211791
-0.00600377
-0.00869754
-0.00997552
-0.00993765
-0.00896876
-0.00955343
-0.0106497
-0.0144072
-0.0172114
-0.0200024
-0.0221194
-0.0240131
-0.0248831
-0.0246118
-0.0184671
-0.0168406
-0.0154934
-0.0144196
-0.0137585
-0.0120963
-0.00514219
-0.00503284
-0.00793756
-0.00966838
-0.00956079
-0.00961317
-0.0100613
-0.0123464
-0.0151527
-0.0168057
-0.0191344
-0.0219869
-0.0249278
-0.0256254
-0.0208928
-0.012295
-0.0104265
-0.00882979
-0.0074901
-0.00609353
-0.00166997
-0.00424837
-0.00783908
-0.0100154
-0.0100222
-0.00982991
-0.00980292
-0.0104376
-0.0124556
-0.0146275
-0.0166835
-0.0197313
-0.0239572
-0.026764
-0.0232377
-0.015919
-0.0138123
-0.0116454
-0.00946311
-0.00787986
-0.000350987
-0.00425657
-0.00787292
-0.0092785
-0.00999763
-0.0101973
-0.0103586
-0.0108104
-0.0123929
-0.0140884
-0.015596
-0.0178784
-0.0220382
-0.0267644
-0.0278874
-0.0221227
-0.0208401
-0.0191064
-0.0168869
-0.0154818
-0.00128013
-0.00557579
-0.00735626
-0.00871809
-0.0101486
-0.0112164
-0.0120902
-0.012785
-0.0141861
-0.0152937
-0.0162221
-0.0176338
-0.020148
-0.0234486
-0.0265406
-0.0232332
-0.0226085
-0.0211405
-0.0190452
-0.0174281
-0.0024568
-0.0047641
-0.00638318
-0.00819527
-0.0100787
-0.0123734
-0.013344
-0.016426
-0.0179625
-0.0196754
-0.0208288
-0.0217839
-0.0226605
-0.0237451
-0.02555
-0.0263362
-0.0265257
-0.0264677
-0.0260333
-0.026006
-0.000522334
-0.00230155
-0.00456585
-0.00750107
-0.010168
-0.0133174
-0.015772
-0.0189974
-0.021206
-0.0238995
-0.0257357
-0.0281622
-0.0299374
-0.0322354
-0.0340535
-0.0363323
-0.0380989
-0.0400554
-0.041611
-0.0433813
-0.000732253
-0.00217822
-0.00469032
-0.00842837
-0.0117054
-0.0150329
-0.0170486
-0.0200924
-0.0223837
-0.0251252
-0.0271798
-0.0293031
-0.0309963
-0.0323954
-0.0335953
-0.0343065
-0.034932
-0.0351194
-0.035203
-0.0351888
-0.00171904
-0.00332982
-0.00609633
-0.00927907
-0.0124967
-0.0156326
-0.0183285
-0.0213207
-0.0237681
-0.0263867
-0.0281264
-0.0297325
-0.0303315
-0.030401
-0.0297351
-0.0284358
-0.0267842
-0.024754
-0.0229447
-0.021741
-0.00315343
-0.00353645
-0.00628289
-0.00908782
-0.0121336
-0.0148847
-0.0183511
-0.0213007
-0.0246144
-0.0277961
-0.030796
-0.0339286
-0.0361739
-0.0381175
-0.0390879
-0.039656
-0.0392723
-0.0382942
-0.0367731
-0.0351373
-0.000911384
-0.0023145
-0.00431305
-0.00667677
-0.00808415
-0.0105737
-0.0138803
-0.0172524
-0.0210755
-0.0249754
-0.0291885
-0.0335141
-0.0379147
-0.0422754
-0.0464832
-0.0504421
-0.0537394
-0.0561968
-0.0575272
-0.0577451
-0.00239047
-0.00519526
-0.00533585
-0.00506372
-0.00554994
-0.00736337
-0.00982392
-0.0135145
-0.0169761
-0.0202963
-0.0234862
-0.0265576
-0.0298637
-0.0334593
-0.0374574
-0.0418921
-0.0467891
-0.0521953
-0.0578125
-0.0631112
-0.000413676
-0.00848797
-0.0118635
-0.0112964
-0.0082399
-0.00550671
-0.00531923
-0.00690953
-0.00938927
-0.0127488
-0.0164752
-0.0206497
-0.0248769
-0.0291483
-0.0333003
-0.037321
-0.0413714
-0.0451967
-0.0494877
-0.0524985
-0.00953301
-0.0121163
-0.0142256
-0.00878101
-0.0115576
-0.0118202
-0.0155372
-0.0147221
-0.0154889
-0.0206646
-0.0126638
-0.0160505
-0.0170616
-0.0214839
-0.0172155
-0.0231097
-0.0257379
-0.0135784
-0.0173633
-0.0184887
-0.0230962
-0.0235733
-0.0274088
-0.0352624
-0.0189466
-0.0236395
-0.0246823
-0.0282927
-0.121272
-0.121986
-0.116855
-0.114366
-0.118534
-0.114823
-0.112807
-0.135582
-0.115722
-0.119954
-0.122438
-0.131129
-0.112789
-0.118059
-0.135261
-0.122142
-0.120399
-0.129597
-0.107103
-0.118385
-0.101504
-0.116827
-0.11741
-0.106365
-0.093111
-0.0606384
-0.0937803
-0.0774927
-0.0952128
-0.10263
-0.0918747
-0.0528647
-0.0389115
-0.0729875
-0.0575796
-0.0813
-0.0885234
-0.0801867
-0.0364529
-0.0326729
-0.052205
-0.0410458
-0.0721649
-0.0781716
-0.0746177
-0.032176
-0.0339891
-0.039587
-0.0416001
-0.0671954
-0.0741128
-0.0732901
-0.0358256
-0.0450238
-0.0437822
-0.0521801
-0.128887
-0.144675
-0.133586
-0.134919
-0.121207
-0.14124
-0.132253
-0.119465
-0.128905
-0.119799
-0.116109
-0.115684
-0.127109
-0.117584
-0.118544
-0.118404
-0.114274
-0.116104
-0.106879
-0.116141
-0.110957
-0.106204
-0.112265
-0.1049
-0.102201
-0.0881835
-0.108534
-0.0996681
-0.0919965
-0.102307
-0.0955584
-0.0825998
-0.0625325
-0.0966127
-0.0892293
-0.081675
-0.0939906
-0.0918194
-0.0563647
-0.0456779
-0.0875313
-0.0874561
-0.077881
-0.0917869
-0.0941233
-0.0450122
-0.0494883
-0.08949
-0.0995292
-0.0778964
-0.0961049
-0.101547
-0.0522586
-0.060515
-0.102303
-0.103302
-0.135122
-0.166586
-0.158456
-0.14389
-0.134267
-0.157036
-0.154086
-0.12062
-0.154307
-0.140915
-0.130291
-0.120615
-0.151225
-0.141271
-0.113518
-0.136797
-0.127964
-0.11839
-0.112185
-0.138303
-0.132378
-0.104828
-0.126492
-0.125202
-0.109971
-0.103878
-0.131426
-0.130412
-0.0979316
-0.125335
-0.126194
-0.102461
-0.100814
-0.130365
-0.131079
-0.0977259
-0.126855
-0.131442
-0.100822
-0.104488
-0.131966
-0.137744
-0.10378
-0.133879
-0.142889
-0.106912
-0.115049
-0.140507
-0.145208
-0.113293
-0.146082
-0.148215
-0.116706
-0.113165
-0.142094
-0.117575
-0.16343
-0.15823
-0.16426
-0.158238
-0.160559
-0.155639
-0.16469
-0.151517
-0.166458
-0.174949
-0.159231
-0.152455
-0.16753
-0.172727
-0.140914
-0.17697
-0.174151
-0.149983
-0.143752
-0.17263
-0.166188
-0.137071
-0.173751
-0.184213
-0.142231
-0.139008
-0.164716
-0.170462
-0.137192
-0.189088
-0.197601
-0.138419
-0.13917
-0.174062
-0.182934
-0.14596
-0.201031
-0.216347
-0.140657
-0.148946
-0.187267
-0.204883
-0.158683
-0.221627
-0.230558
-0.152236
-0.156205
-0.209575
-0.212398
-0.163768
-0.233345
-0.238731
-0.151924
-0.121002
-0.209488
-0.180703
-0.0515657
-0.0534757
-0.0643835
-0.0353985
-0.0336475
-0.0417268
-0.0404694
-0.0565133
-0.0673223
-0.0693402
-0.0312385
-0.0214623
-0.0381701
-0.0257269
-0.0231571
-0.0616295
-0.0320155
-0.0175741
-0.0101831
-0.0211009
-0.0118374
-0.00991973
-0.0260728
-0.0179201
-0.00904065
-0.00850477
-0.0103325
-0.00922004
-0.00971142
-0.0166385
-0.0145586
-0.00880453
-0.0109114
-0.00969997
-0.0129639
-0.0135256
-0.014611
-0.0176513
-0.0120276
-0.0161866
-0.0145273
-0.0201056
-0.0214692
-0.019544
-0.02705
-0.0178064
-0.0232308
-0.0221785
-0.0287166
-0.034283
-0.029942
-0.0393071
-0.0251153
-0.0302403
-0.0309086
-0.0367072
-0.0584598
-0.0767466
-0.0627593
-0.0505765
-0.0411179
-0.0528187
-0.033399
-0.0617675
-0.0582914
-0.0580294
-0.038049
-0.0265263
-0.0289593
-0.0205791
-0.0362604
-0.0600068
-0.0598015
-0.0223542
-0.0131953
-0.0186319
-0.0147282
-0.0225312
-0.0575042
-0.0471669
-0.0115293
-0.010108
-0.0142645
-0.0151674
-0.0162733
-0.0444418
-0.0392504
-0.0105964
-0.0141728
-0.0162328
-0.0214318
-0.0202215
-0.039388
-0.0462223
-0.0159036
-0.0220591
-0.023769
-0.032486
-0.0316703
-0.0505663
-0.0674978
-0.0243188
-0.0312249
-0.0357305
-0.043977
-0.0442278
-0.0720002
-0.0761117
-0.0334523
-0.0392364
-0.0457341
-0.0488133
-0.0675446
-0.049458
-0.0875473
-0.0362379
-0.0279554
-0.0341464
-0.0300185
-0.0701107
-0.0938556
-0.0994067
-0.0254713
-0.0203562
-0.0298213
-0.029579
-0.0689492
-0.099268
-0.0967712
-0.0192771
-0.017599
-0.0294739
-0.0290124
-0.061281
-0.0954255
-0.0898052
-0.0176646
-0.0195665
-0.0289356
-0.0300932
-0.0557872
-0.0876814
-0.0839222
-0.0205966
-0.0256084
-0.0313755
-0.0392486
-0.0629652
-0.0847204
-0.0964374
-0.0281188
-0.0381599
-0.0431809
-0.055677
-0.0862695
-0.102809
-0.110643
-0.0418523
-0.0498888
-0.0585044
-0.0563968
-0.0870079
-0.105752
-0.085563
-0.0508832
-0.0513653
-0.0529541
-0.0437599
-0.0919828
-0.0618764
-0.0997882
-0.0417017
-0.0329677
-0.0463802
-0.0354279
-0.111005
-0.102095
-0.0905469
-0.0326148
-0.0331145
-0.0341793
-0.0327662
-0.104576
-0.0863169
-0.0729504
-0.0328177
-0.0308569
-0.0321915
-0.032061
-0.0879262
-0.0657399
-0.0567459
-0.0303375
-0.0318081
-0.0336569
-0.0431668
-0.0812567
-0.0586737
-0.0737845
-0.0336892
-0.0436375
-0.0469737
-0.0590939
-0.100118
-0.0823901
-0.11055
-0.0480675
-0.0601378
-0.0636125
-0.0725572
-0.112408
-0.117922
-0.120745
-0.0619075
-0.0553821
-0.0728364
-0.0641438
-0.0819784
-0.113467
-0.0863259
-0.0508611
-0.0400375
-0.0590041
-0.0450994
-0.0184122
-0.0209015
-0.0259207
-0.014572
-0.0110282
-0.0160178
-0.0133797
-0.011959
-0.0253158
-0.0170498
-0.00987726
-0.00854645
-0.0119334
-0.00836511
-0.00798039
-0.013878
-0.00854897
-0.00842917
-0.00893367
-0.00779835
-0.00794051
-0.00885899
-0.0080416
-0.00887839
-0.00945022
-0.0113211
-0.00848652
-0.0110591
-0.0117801
-0.00975169
-0.0136163
-0.0120254
-0.0143564
-0.0120905
-0.0152595
-0.0167623
-0.0151894
-0.0202599
-0.0152051
-0.0176473
-0.0162713
-0.018971
-0.0226525
-0.0220192
-0.0273287
-0.0184314
-0.0207938
-0.0197705
-0.0219598
-0.0280769
-0.0290127
-0.0331299
-0.0216625
-0.0252187
-0.0226306
-0.0249376
-0.0240384
-0.0257559
-0.0200729
-0.0171586
-0.0134336
-0.0162127
-0.0111708
-0.0171518
-0.0182024
-0.0143711
-0.0120275
-0.00861758
-0.0102422
-0.00904796
-0.00931432
-0.0134348
-0.0119594
-0.00803777
-0.00818608
-0.00911837
-0.0107043
-0.00914023
-0.00861258
-0.00948851
-0.00814809
-0.0094032
-0.00849916
-0.00870891
-0.013561
-0.0116886
-0.0114241
-0.0112265
-0.012754
-0.0125489
-0.0121377
-0.0219594
-0.0228839
-0.0305372
-0.0171138
-0.0198199
-0.0227825
-0.0252279
-0.0293917
-0.0330961
-0.0388373
-0.0205664
-0.0225338
-0.0255777
-0.0257225
-0.0351369
-0.0399217
-0.0417851
-0.0231329
-0.0251148
-0.0256509
-0.0258602
-0.01856
-0.0176751
-0.0219034
-0.0126674
-0.0106084
-0.0133297
-0.0130998
-0.0151102
-0.0223002
-0.0224342
-0.0102001
-0.0100504
-0.0132227
-0.0141885
-0.0144181
-0.0224364
-0.0227622
-0.010362
-0.0124073
-0.0147296
-0.0172581
-0.0168456
-0.0154215
-0.0181218
-0.0134351
-0.0188584
-0.0143604
-0.0159349
-0.0226956
-0.0197921
-0.0221033
-0.0182937
-0.0237192
-0.019996
-0.0208225
-0.0348584
-0.0386189
-0.0473455
-0.024994
-0.0272383
-0.0288688
-0.028121
-0.0427921
-0.0484705
-0.0440817
-0.0274077
-0.0267997
-0.0272242
-0.0246087
-0.0430886
-0.0414796
-0.0356442
-0.0264587
-0.0259261
-0.0240849
-0.0237993
-0.0233729
-0.0217975
-0.0250482
-0.0152044
-0.0142149
-0.0168878
-0.0158574
-0.024741
-0.0250899
-0.0244351
-0.0143818
-0.0154524
-0.0166251
-0.0194865
-0.0241826
-0.0243246
-0.0254542
-0.0160048
-0.0187165
-0.0203274
-0.0236189
-0.0275295
-0.0267567
-0.0329117
-0.0200693
-0.0248133
-0.0251224
-0.0288017
-0.0383856
-0.035319
-0.0430042
-0.0262781
-0.0290493
-0.0295862
-0.0304162
-0.048828
-0.0454904
-0.0476832
-0.0292419
-0.0272949
-0.0302293
-0.0282945
-0.0413568
-0.0464173
-0.0385189
-0.0261675
-0.0234873
-0.0272675
-0.0246237
-0.0325056
-0.0359016
-0.0315076
-0.023052
-0.0230514
-0.0241994
-0.0240569
-0.00839453
-0.00944994
-0.00982174
-0.00856707
-0.008284
-0.00840128
-0.00788408
-0.00906465
-0.00925422
-0.00790996
-0.00884777
-0.0106523
-0.00794864
-0.00905253
-0.0102921