/*--------------------------------*- C++ -*----------------------------------*\
  =========                 |
  \\      /  F ield         | OpenFOAM: The Open Source CFD Toolbox
   \\    /   O peration     | Website:  https://openfoam.org
    \\  /    A nd           | Version:  10
     \\/     M anipulation  |
\*---------------------------------------------------------------------------*/
FoamFile
{
    format      ascii;
    class       volVectorField;
    location    "2.8";
    object      U;
}
// * * * * * * * * * * * * * * * * * * * * * * * * * * * * * * * * * * * * * //

dimensions      [0 1 -1 0 0 0 0];

internalField   nonuniform List<vector> 
12920
(
(262.436 -105.558 -193.186)
(129.64 -138.506 -10.3796)
(175.635 -61.2057 34.6093)
(77.2206 -21.9544 14.909)
(128.947 -1.54895 8.0342)
(100.927 -7.54515 4.62578)
(126.247 -7.89895 3.75782)
(117.476 -10.8293 2.64968)
(127.573 -12.2235 1.719)
(127.086 -12.4334 0.831917)
(134.408 -13.0012 0.562186)
(137.063 -11.0341 -0.394122)
(145.609 -10.4599 -0.540001)
(149.331 -5.64822 -0.916927)
(154.63 0.401261 -0.830637)
(153.462 4.56742 -0.635817)
(153.573 5.57306 -0.428434)
(152.287 5.50692 -0.301852)
(151.455 2.32875 0.492482)
(153.835 -1.48322 1.08133)
(250.118 82.7095 -189.069)
(-21.2721 17.9894 -18.0645)
(140.582 -16.1019 1.96926)
(15.7281 -31.8696 2.26445)
(110.41 -36.6324 3.13834)
(61.866 -28.8417 1.30443)
(100.352 -19.305 1.17017)
(84.2548 -11.6563 0.171067)
(97.6919 -3.71299 -0.25738)
(93.0606 -0.921033 -0.887561)
(99.9998 2.25859 -1.32538)
(99.7753 2.3064 -1.50512)
(104.661 2.83271 -1.6337)
(105.472 1.69331 -1.22442)
(109.639 0.241697 -0.149722)
(109.728 -1.09474 0.804311)
(110.847 -3.79804 1.31247)
(109.13 -5.43864 1.66304)
(109.227 -6.15227 1.16274)
(110.891 -4.50578 0.341367)
(-126.757 -177.262 -49.8715)
(-241.031 -60.34 -34.625)
(102.514 -97.165 -32.6211)
(20.1847 -45.6092 -6.35128)
(110.822 -53.3942 -1.01626)
(65.8926 -28.4631 0.169992)
(95.3906 -25.7027 0.206743)
(76.2393 -14.4909 -0.488775)
(90.233 -12.9506 -0.298362)
(82.8061 -8.31276 -0.0323816)
(90.4015 -7.70329 0.463757)
(87.8988 -5.2188 0.726892)
(92.2018 -4.61477 1.03886)
(91.3834 -3.13346 1.06824)
(93.6385 -2.24755 1.08952)
(93.0156 -1.09593 0.924763)
(94.1251 -0.463925 0.492769)
(92.999 -0.22139 0.0573999)
(92.8595 -0.25399 -0.40586)
(93.18 0.741796 -0.650791)
(223.396 17.3558 40.7261)
(113.847 -60.0763 18.3668)
(153.466 -59.6154 2.54254)
(102.287 -30.1301 -0.677848)
(133.964 -36.538 1.98959)
(93.4387 -23.9228 1.74993)
(107.531 -18.6407 2.56237)
(87.7514 -7.72526 1.35668)
(93.1892 -5.36894 0.944501)
(83.6071 -2.74652 0.628415)
(86.0488 -4.31719 0.611794)
(81.7763 -4.74392 0.594494)
(83.7679 -6.13616 0.661813)
(82.535 -6.57627 0.689147)
(84.7002 -7.25038 0.772433)
(85.1639 -6.77658 0.614722)
(88.352 -5.3598 0.661121)
(88.6083 -2.96474 0.556823)
(88.8559 0.586455 0.344488)
(86.8431 2.46767 0.213668)
(151.246 20.4786 -149.326)
(101.792 -72.4052 -51.272)
(172.087 -65.7524 -9.00669)
(113.969 -51.835 1.53648)
(145.288 -49.8583 4.71853)
(107.726 -34.92 2.6209)
(117.189 -29.3926 3.5374)
(92.5281 -12.1971 2.65856)
(95.5145 -11.2068 2.00557)
(81.5357 -4.46348 0.734077)
(84.1088 -7.624 0.573678)
(78.0821 -5.97086 0.211181)
(80.3733 -8.3227 0.142211)
(78.3167 -7.87962 0.00469978)
(80.7107 -8.93274 0.000256388)
(80.7884 -8.14972 -0.305264)
(84.8351 -6.99701 -0.375307)
(85.6491 -2.76461 -0.378803)
(86.2637 3.65629 0.0956339)
(84.4552 5.34897 0.216365)
(414.607 162.779 -317.719)
(335.033 71.6412 -102.461)
(296.158 15.8238 10.1388)
(154.937 -29.5788 12.4349)
(159.236 -30.4212 4.94044)
(117.292 -21.4017 0.696693)
(126.151 -16.2578 0.339991)
(109.802 -4.10019 0.507598)
(105.522 -1.71763 1.41925)
(90.6616 3.01963 0.998099)
(85.4299 -2.81518 0.764432)
(76.6693 -3.44658 0.333597)
(76.4024 -7.13942 -0.184925)
(74.711 -8.26423 -0.135771)
(76.1508 -9.85987 -0.309831)
(76.9831 -9.66055 -0.503809)
(80.6383 -7.89235 -0.627766)
(80.8075 -1.61969 -0.592667)
(81.9866 5.28366 -0.085051)
(83.0906 6.78537 0.146348)
(207.05 -7.9789 -119.274)
(-68.2002 31.3304 12.118)
(165.228 2.81354 3.08597)
(68.2327 -23.6558 -1.4686)
(137.584 -26.0705 0.889548)
(98.747 -16.0751 -0.838637)
(110.821 -21.9838 -0.561538)
(92.5832 3.09414 -0.061908)
(93.5476 1.48066 -0.320707)
(80.1028 10.5029 0.00403158)
(78.5616 3.52383 0.043612)
(71.3334 2.49894 0.170891)
(74.0796 -4.75959 -0.100118)
(73.4146 -6.60022 -0.0362769)
(76.4956 -9.52344 -0.161772)
(76.3189 -9.59924 -0.25997)
(79.051 -7.44633 -0.582945)
(78.7274 -0.260043 -0.489433)
(80.6229 5.59008 0.14854)
(81.0458 6.48446 0.355781)
(178.182 28.8275 19.16)
(-22.4105 -12.5045 -6.24326)
(150.748 -47.799 -8.15109)
(91.3026 -28.3686 -3.61253)
(132.928 -31.1491 -1.71747)
(98.8435 3.49161 -2.39093)
(110.877 1.56112 -1.55303)
(94.6208 -7.97415 0.681692)
(84.3826 15.8297 0.732231)
(66.3265 7.55807 -0.0544354)
(68.7531 12.4197 -0.647438)
(69.6517 -1.47919 -0.539303)
(76.6686 -4.18176 -0.352588)
(77.685 -11.0024 0.116409)
(77.8229 -11.747 0.141655)
(77.7763 -10.9916 0.119811)
(77.8557 -6.79374 -0.78334)
(78.428 -0.287085 -0.590107)
(79.739 5.53519 0.315463)
(76.7133 6.83206 0.32127)
(129.661 -223.642 -79.0324)
(40.876 -72.3626 -3.27667)
(139.363 -21.7861 7.22478)
(84.6183 -9.16496 -1.36851)
(125.392 -6.49055 3.14854)
(79.2399 -6.80541 -1.55831)
(101.256 10.8544 -0.592431)
(83.3509 4.66842 0.223772)
(76.4613 25.1373 0.141151)
(66.6563 18.3762 -0.415785)
(69.9944 13.1882 -0.829291)
(78.3739 0.790285 -0.557522)
(82.867 -3.03518 -0.2514)
(84.0609 -7.42435 -0.212191)
(85.425 -12.3978 0.405083)
(79.9137 -9.60924 0.419698)
(76.8676 -3.2081 -0.400035)
(75.4357 1.0712 -0.727389)
(75.1457 8.74426 0.214865)
(69.9478 10.3765 0.170759)
(172.032 -21.0594 2.02194)
(75.1977 -77.607 -10.5568)
(145.175 -41.3093 2.11018)
(82.7451 -12.4247 0.458119)
(122.157 1.40372 6.42872)
(77.7746 6.11687 -0.92453)
(85.0929 7.42254 0.145054)
(90.1873 11.1539 -0.634548)
(87.4779 33.2234 -0.357681)
(84.3368 23.7454 -0.328102)
(85.2034 10.7433 -0.107422)
(85.0027 2.785 -0.0980439)
(88.1568 -2.92657 -0.315401)
(94.6697 -8.6898 -0.353709)
(97.3003 -9.74442 0.0576653)
(85.6203 -4.59841 0.643614)
(78.1305 1.72743 0.0962464)
(73.1946 5.12352 -0.628727)
(71.1585 12.9807 0.0513641)
(67.6183 14.5292 -0.0297529)
(243.603 -93.0924 -143.034)
(-46.7624 -56.896 -38.4609)
(149.707 -33.2928 -20.1433)
(31.8354 -4.23496 -1.97347)
(82.28 -4.89296 4.83697)
(10.1648 6.59653 -0.969829)
(49.5547 13.7262 0.355982)
(65.4104 18.5745 0.123965)
(75.0801 27.7379 0.647069)
(85.686 20.0761 0.60194)
(87.0495 10.0085 0.351182)
(90.0421 1.31465 0.0483163)
(93.0229 -5.02577 -0.0517975)
(92.2766 -12.4159 0.753858)
(83.632 -9.81809 -0.634868)
(73.7365 2.43914 -1.06154)
(71.258 9.20031 -0.70273)
(69.4367 11.4363 -0.728989)
(67.5095 17.6799 -0.25113)
(67.303 17.5297 -0.386654)
(169.94 -194.225 -73.6318)
(109.269 48.6948 -30.6871)
(172.701 59.8039 -1.02825)
(90.6147 41.8894 5.27898)
(106.071 23.4399 10.1132)
(42.9811 -1.86472 -0.670918)
(71.3729 -14.6425 -0.161744)
(74.3866 5.46632 0.359255)
(73.7482 11.0032 0.736184)
(79.2629 7.72675 0.445202)
(78.7594 2.72982 0.217921)
(76.1308 -1.24725 0.196231)
(73.1621 -6.72244 0.112524)
(62.9816 -7.95894 0.299389)
(57.3624 -4.31392 -0.45213)
(58.7049 3.59183 -1.34364)
(63.8066 10.4825 -1.1121)
(66.7284 13.1525 -0.871269)
(67.8565 19.941 -0.395634)
(71.2516 19.5663 -0.28778)
(146.545 -134.2 54.4689)
(24.6402 24.0843 8.25436)
(143.996 20.6052 -0.190636)
(87.6397 8.10022 4.10406)
(126.954 4.87846 5.37905)
(80.2635 -17.3368 1.49057)
(86.1742 -1.97683 -0.246291)
(55.467 7.55296 0.421532)
(64.9759 4.88836 0.00102237)
(52.5856 4.09441 0.0780687)
(62.3462 -0.854184 -0.467166)
(59.0567 -2.20467 -0.0264864)
(60.574 -3.59367 0.0270491)
(53.4891 -3.15889 0.378751)
(50.3324 0.933667 0.10739)
(52.8281 1.23822 -0.418887)
(57.2264 7.81732 -0.525553)
(63.9656 12.1468 -0.56805)
(67.9064 18.6908 -0.300453)
(74.5242 17.6997 0.0855874)
(219.131 185.147 -226.399)
(-74.5439 81.3662 2.11947)
(148.073 44.2536 -23.0275)
(79.738 19.0956 -9.77498)
(116.793 11.8182 -3.12792)
(69.2023 2.89693 -0.845275)
(76.7655 36.2468 0.983864)
(50.2758 -1.27183 0.794649)
(60.8669 14.3099 0.34359)
(51.7755 -6.34616 0.248307)
(59.6992 1.28859 -0.00293629)
(54.2349 -6.43597 0.215534)
(56.6228 -0.272551 0.362504)
(52.4169 -3.29546 0.350732)
(52.6149 -0.0205996 0.405106)
(51.0056 0.073355 0.283872)
(52.2374 2.49574 0.148232)
(57.6479 5.7127 -0.068934)
(63.557 14.1522 0.156225)
(72.9206 14.0084 0.603675)
(122.478 -67.1866 27.3021)
(92.2076 78.2286 -9.47148)
(154.725 47.1991 -11.0368)
(98.2084 25.5526 -6.76418)
(116.418 32.6313 0.0360071)
(47.7308 11.6825 -0.434873)
(77.6557 24.4837 0.572943)
(51.0435 5.05132 -1.1899)
(65.3357 5.83461 -0.596954)
(54.5069 -2.84406 -0.646109)
(59.7445 -2.28139 -0.0650466)
(54.0415 -5.04188 -0.0221115)
(55.1902 -1.68463 0.0602723)
(51.6038 -2.28648 0.128599)
(50.6576 0.259472 0.0914987)
(49.0011 -0.112308 0.139865)
(49.2342 0.897719 0.152603)
(50.4252 1.20854 0.421771)
(53.1172 5.13755 0.734374)
(63.3428 5.79311 0.88258)
(99.9892 66.3132 -21.0873)
(-12.5513 84.2141 -4.01258)
(98.0846 80.7692 -5.6384)
(17.5207 42.074 -4.97496)
(83.7189 58.477 -0.515776)
(33.0997 26.0418 -2.40601)
(75.4578 34.0794 -1.92627)
(53.3987 12.3847 -3.13479)
(72.7314 15.0078 -2.18035)
(59.0615 2.01719 -1.73435)
(63.5604 2.23623 0.0656573)
(53.257 -2.53202 0.261002)
(55.5907 1.41991 0.191055)
(50.6619 0.0205171 0.0962171)
(52.6875 1.60237 0.030196)
(51.2276 0.420494 0.00921188)
(52.9632 0.503158 -0.0125908)
(53.5214 -0.372737 0.0469932)
(55.1288 -0.214677 0.330881)
(61.1035 -0.0800189 0.220903)
(170.937 395.39 -87.1291)
(-28.677 94.0769 -9.04391)
(128.065 72.644 -13.0421)
(-15.108 36.7432 -3.91249)
(80.2973 43.1472 -0.879136)
(15.9568 24.5368 -1.53474)
(74.9191 24.8215 -1.45951)
(57.1726 17.1954 -1.81288)
(84.1656 14.9688 -0.943433)
(75.498 9.66757 -0.0743104)
(76.8127 3.35022 1.91079)
(57.8435 0.0787144 1.25833)
(56.2318 0.223186 0.142897)
(50.3374 -0.34503 -0.437356)
(52.0642 -0.220601 -0.539487)
(50.8291 -0.931923 -0.498637)
(52.3624 -1.32542 -0.530977)
(53.1524 -1.6817 -0.441585)
(54.8348 -1.1626 -0.132991)
(59.672 0.30963 -0.107038)
(74.9723 311.188 78.177)
(-133.941 89.3321 -18.9424)
(103.7 96.2342 3.17507)
(-26.8012 62.3744 1.14054)
(75.9834 42.5996 3.51848)
(36.5339 18.9704 1.47632)
(85.0457 9.81758 1.19529)
(75.4168 2.6822 0.855809)
(94.8384 4.10025 1.43298)
(85.0018 3.25856 1.57391)
(84.5041 9.47181 2.0019)
(68.5181 9.05496 1.16341)
(66.3672 8.06363 0.248052)
(59.6434 5.48973 -0.420824)
(60.9757 4.31135 -0.626367)
(59.2721 2.73483 -0.751907)
(60.8004 1.69777 -0.731211)
(61.3647 -0.320349 -0.845432)
(64.4728 -2.4396 -0.89634)
(71.0841 -2.20663 -0.595242)
(363.589 67.631 -133.23)
(89.6633 76.6113 -2.99668)
(137.043 55.3112 19.172)
(-11.0167 29.1289 2.89042)
(75.3371 -6.7774 3.25682)
(4.47922 -4.86149 -0.684027)
(69.6867 -9.28252 -1.92909)
(49.2668 -2.32793 -1.55162)
(78.1391 2.41072 -0.750286)
(68.7667 7.48827 -0.198063)
(78.1368 10.2993 0.896789)
(71.8664 10.7274 0.867543)
(74.3083 8.77888 0.786505)
(70.0418 7.09975 0.44452)
(70.4328 4.692 0.21443)
(67.4665 3.67529 -0.0867941)
(67.6574 1.67111 -0.453878)
(65.9442 -0.273685 -1.08388)
(66.6937 -2.83345 -1.67512)
(70.6314 -1.32088 -1.35077)
(180.593 228.258 82.354)
(12.2825 139.808 36.0729)
(157.619 95.0385 17.9687)
(101.7 76.8555 10.4704)
(150.873 38.6043 9.04332)
(104.152 14.4618 7.57913)
(104.033 -14.4865 2.15316)
(81.9068 -7.16663 -0.825306)
(95.3666 -5.17585 -0.939031)
(91.5501 0.62251 -0.0542384)
(100.94 3.10314 0.643298)
(102.407 6.65118 0.716816)
(110.68 7.09566 0.75942)
(112.81 7.55952 0.741896)
(117.625 7.78471 0.82273)
(118.409 7.81959 0.950583)
(120.616 8.12049 0.884493)
(120.919 8.07022 0.618579)
(122.564 6.7326 0.541008)
(121.909 4.44584 0.743748)
(128.924 218.258 -102.4)
(-20.3891 -82.2039 65.836)
(126.77 -9.46172 43.9743)
(51.929 -5.74191 13.3008)
(122.93 3.3175 5.53437)
(97.1703 -5.71292 4.71323)
(124.306 -6.35127 4.63254)
(116.785 -8.41954 3.33324)
(127.561 -8.69557 2.19352)
(126.393 -7.74657 0.805765)
(132.678 -6.46314 0.270773)
(132.894 -4.27265 -1.01755)
(136.857 -1.56202 -0.988613)
(136.196 0.99451 -1.24169)
(136.724 2.10611 -0.795185)
(135.027 2.01924 -0.440052)
(134.829 1.10907 0.412382)
(134.218 -1.6406 1.33046)
(136.783 -3.65056 1.88344)
(143.728 -2.70976 1.83726)
(28.2656 221.834 29.1872)
(-131.042 -3.62244 20.0605)
(106.472 -9.93306 -1.13177)
(-2.46867 -8.74691 0.797247)
(103.04 -15.1189 1.26365)
(54.1531 -10.4021 -0.000288374)
(93.99 -4.94205 0.93782)
(77.7234 -2.24673 -0.750072)
(91.4917 1.77592 -1.22303)
(86.0655 1.60507 -2.28102)
(92.3238 2.90238 -2.64002)
(90.5114 1.67896 -2.74109)
(94.1769 1.51251 -2.44513)
(93.5968 0.36841 -1.73382)
(95.8664 -0.384332 -0.357174)
(95.5514 -1.42119 1.02043)
(96.8702 -1.93605 1.52194)
(96.2504 -2.0882 1.5016)
(96.8548 -1.66385 0.671324)
(98.934 0.284063 -0.422352)
(68.2493 60.5587 154.129)
(-52.8001 -98.4121 -52.7206)
(109.59 -96.3964 -22.7273)
(12.6977 -33.133 -5.53677)
(97.213 -38.9418 -2.48743)
(51.6813 -16.4152 -0.271374)
(85.4392 -16.8349 0.357807)
(65.9181 -7.90078 -0.540081)
(81.3837 -7.71553 -0.303884)
(73.2189 -3.7733 -0.177038)
(81.4865 -3.70644 0.569773)
(78.5366 -1.64697 0.738586)
(83.0088 -1.34931 1.25666)
(81.6767 -0.148195 1.22595)
(83.4719 0.413788 1.28602)
(82.0365 1.15304 1.02036)
(82.1211 1.57149 0.279395)
(79.8947 1.50657 -0.289027)
(79.3556 1.4215 -0.693299)
(79.7937 1.89081 -0.848389)
(190.961 -136.033 -27.9085)
(96.1348 -13.301 -18.7539)
(140.11 -27.9032 -7.86994)
(75.0604 -12.2858 -4.29259)
(113.799 -18.4962 2.18044)
(69.2668 -8.43089 1.70042)
(91.4846 -7.76774 3.76374)
(71.2108 -1.33716 1.62245)
(80.3281 -1.63439 1.58872)
(71.1579 0.46946 0.731804)
(75.6037 -0.538182 0.940129)
(71.9005 -0.0316522 0.741628)
(74.7284 -0.625762 0.923413)
(73.4569 -0.363938 0.885419)
(75.5167 -0.333851 0.99027)
(75.0976 0.285481 0.770012)
(76.3314 1.5625 0.656652)
(75.0646 2.40394 0.47335)
(74.4899 3.25771 0.381758)
(74.0921 3.39027 0.266924)
(215.63 46.412 -129.469)
(56.576 19.87 -46.6972)
(126.67 -13.2622 4.13543)
(63.3293 -23.6068 3.51026)
(118.358 -27.1024 8.77978)
(74.3021 -13.033 4.08636)
(95.6013 -14.3339 6.064)
(71.9802 -1.26806 3.35855)
(80.9064 -5.07236 2.66853)
(67.9947 0.64571 0.964355)
(72.9448 -2.94022 0.86099)
(67.2916 -0.460567 0.312746)
(70.7324 -2.1855 0.337132)
(68.8002 -0.71715 0.0951688)
(71.4774 -0.757864 0.0197739)
(70.8245 0.570693 -0.338192)
(72.8777 2.65226 -0.456796)
(71.113 4.75156 -0.498)
(70.7656 6.37087 0.195708)
(71.0906 5.8059 0.312731)
(187.66 288.852 -128.509)
(31.1031 16.637 76.4682)
(147.74 15.2022 34.9566)
(93.8638 -11.1741 14.7867)
(131.905 -4.47544 4.86615)
(84.8617 4.64688 -0.0327182)
(100.636 2.48003 1.65473)
(80.5395 9.88458 1.33705)
(82.0024 5.27773 2.14091)
(71.0537 6.78216 1.32967)
(69.8932 1.36635 1.1003)
(64.9946 1.02017 0.546636)
(65.6745 -1.94698 0.0311798)
(64.6667 -1.86742 -0.0522281)
(66.3871 -2.37354 -0.269906)
(66.6135 -1.09386 -0.633273)
(69.1603 1.99739 -0.655618)
(67.772 5.56415 -0.623882)
(68.411 7.18705 0.0683113)
(70.4663 6.51749 0.416265)
(58.2268 48.2708 -10.9443)
(-112.362 -15.7031 19.5262)
(143.965 6.712 -13.6571)
(26.1894 -5.2767 -3.2886)
(118.655 0.541709 -0.0380793)
(68.7667 7.49768 -1.47208)
(87.1711 -8.97822 -0.000709639)
(67.2263 14.3715 0.566735)
(72.0294 5.09216 0.15638)
(60.8217 12.529 0.36678)
(63.4859 3.23495 0.125109)
(59.4977 3.89353 0.409406)
(63.091 -1.88703 0.022916)
(62.602 -1.46594 0.153224)
(65.4605 -3.1357 -0.214353)
(65.0272 -1.92974 -0.393169)
(67.3027 1.81669 -0.771961)
(65.9193 6.2173 -0.398823)
(67.4379 7.44811 0.418771)
(68.9157 6.70546 0.764549)
(265.063 33.9585 97.3004)
(-10.4833 4.60775 20.4361)
(130.216 -35.5631 -14.3292)
(52.0215 -14.0779 -5.60626)
(109.616 -12.3322 -3.38019)
(68.0179 24.7553 -3.24263)
(84.9276 12.5696 0.515782)
(67.8106 5.63769 1.792)
(66.4073 17.1506 1.30929)
(57.8156 8.52142 -0.46302)
(61.2514 8.57331 -0.860624)
(61.6643 -0.289861 -0.882841)
(66.5248 -2.61353 -1.04253)
(66.5315 -6.27876 -0.300535)
(65.8967 -4.92323 0.222402)
(66.2853 -3.03694 0.0500252)
(65.9333 1.84386 -1.13743)
(64.6692 5.91707 -0.573652)
(65.7166 7.8967 0.644349)
(64.638 7.84216 0.659489)
(37.4837 34.8594 -38.1384)
(-36.6032 19.4687 -4.53285)
(110.798 8.4598 -3.17266)
(34.8696 -0.55087 -6.0908)
(90.0784 4.27118 0.753524)
(68.5044 11.107 -1.55796)
(84.1647 21.8248 -1.57669)
(70.6431 11.7165 0.764262)
(66.1804 21.1633 1.15819)
(61.1695 12.9677 -0.876713)
(64.8212 6.89261 -1.76865)
(68.5414 -1.43027 -1.75437)
(71.6142 -3.98946 -1.29735)
(72.5218 -6.79157 -0.837731)
(71.5505 -7.27863 0.274349)
(65.7772 -1.81954 0.279095)
(64.2531 3.85024 -0.882497)
(61.213 7.15553 -0.722265)
(60.3125 11.2461 0.552154)
(58.4719 11.0373 0.204634)
(133.775 -99.8088 -1.98631)
(-73.6453 -46.6941 -0.862487)
(113.841 -23.3836 -5.7739)
(8.30736 -0.759925 -1.04082)
(85.1074 5.62082 5.7228)
(52.2852 11.1487 -1.95626)
(77.3569 17.8124 -0.41109)
(79.8082 16.679 -0.551824)
(75.3614 24.6273 0.526732)
(74.1201 13.8023 -0.613928)
(74.7806 4.93351 -0.820334)
(76.1853 -1.26478 -1.19963)
(79.3164 -6.06083 -1.57397)
(82.8511 -9.1738 -1.09994)
(80.2513 -6.25192 0.158211)
(66.3426 2.69941 0.459098)
(63.0097 7.52353 -0.384232)
(58.4099 10.2678 -0.667719)
(56.7296 14.447 0.205905)
(56.9862 13.5103 -0.152509)
(141.299 -21.9715 -160.948)
(-5.35851 -20.6373 -28.9515)
(119.85 -22.0913 -13.2152)
(4.64085 4.47545 -0.897701)
(71.9425 -0.56617 5.11762)
(27.781 6.80609 -0.734196)
(51.7623 12.1881 -0.378256)
(64.9138 16.4288 1.95555)
(70.7492 18.4519 2.75792)
(76.4979 11.7031 2.45091)
(78.2791 4.05924 1.4925)
(79.4666 -2.10203 -0.342323)
(79.4064 -6.73774 -0.0151573)
(78.4477 -9.44366 1.14394)
(71.9538 -2.12675 -1.5016)
(61.1476 8.27198 -1.84083)
(58.8298 12.7637 -1.12914)
(56.4403 13.6182 -0.827237)
(55.5936 16.3728 -0.168122)
(57.6896 14.1793 -0.450037)
(156.529 -47.5897 -183.139)
(-7.47713 42.5939 -37.0013)
(117.704 33.8719 -8.34927)
(24.2164 33.7367 4.01725)
(76.8918 19.5586 10.1507)
(40.1004 2.35966 0.770877)
(63.5431 -11.5793 0.94425)
(64.5929 9.64449 3.97507)
(65.0837 11.2768 3.35026)
(66.8317 8.6337 1.95839)
(66.5802 3.66186 0.977598)
(64.6384 -0.537523 0.670754)
(61.6008 -3.9201 0.863901)
(57.7196 -4.25579 0.11644)
(54.6597 0.43095 -1.85923)
(52.8739 7.67288 -2.00293)
(55.1022 12.443 -1.4395)
(56.2417 13.5544 -0.989235)
(57.3391 16.435 -0.389862)
(61.6905 13.9411 -0.137207)
(97.3731 156.893 -28.1756)
(-1.60612 49.418 -28.0057)
(119.907 33.5328 -15.2874)
(36.671 29.4188 1.38115)
(100.743 17.4065 7.43478)
(45.5526 -13.5631 2.11233)
(62.1343 6.89093 5.09371)
(36.7379 10.3364 3.36767)
(52.7871 8.44408 1.29498)
(42.4142 6.38882 0.192566)
(52.1557 2.53942 -0.0815727)
(46.9858 0.504636 0.405507)
(49.8278 -0.471107 0.395026)
(45.5099 -0.619389 0.459665)
(44.6785 3.37841 -0.219428)
(47.8311 3.76357 -0.798341)
(51.2122 9.37445 -0.655541)
(55.4963 11.1961 -0.59217)
(58.3525 13.984 -0.1855)
(64.3582 11.597 0.453904)
(141.439 66.4825 -223.023)
(-25.5073 95.3923 -15.7793)
(141.987 76.6369 -31.1991)
(55.0105 42.0278 -4.76019)
(93.2849 24.9907 4.22754)
(36.6007 8.3616 0.788511)
(56.6728 41.5604 2.47263)
(31.0196 -4.00721 0.87801)
(47.2612 17.0602 0.405927)
(37.3098 -5.01002 0.399376)
(46.7793 5.53125 0.265757)
(41.2206 -3.53743 0.399434)
(45.051 3.07309 0.544894)
(41.8524 -1.25591 0.533348)
(43.6886 2.3564 0.494955)
(43.6634 1.95436 0.338297)
(46.1626 4.67035 0.264073)
(50.8928 6.29136 0.0241013)
(54.9573 10.2954 0.503458)
(62.8446 8.91812 1.19402)
(109.967 -7.74689 -36.3415)
(36.8322 97.9923 -14.0021)
(127.766 71.1354 -3.69277)
(45.7552 37.2996 -0.70081)
(85.7169 40.1705 5.55355)
(12.9819 9.64407 -0.819518)
(62.9816 28.3264 0.95142)
(29.8793 4.18586 -1.71382)
(50.1334 8.78672 -0.220038)
(37.0997 -1.71774 -0.65194)
(46.0686 1.31857 0.149808)
(40.6434 -2.32009 0.0877894)
(43.9411 1.07671 0.217905)
(41.3241 -0.305611 0.211154)
(41.8075 1.81323 0.193552)
(41.2453 1.11307 0.237901)
(42.2741 2.21531 0.275825)
(44.5974 2.16605 0.603484)
(47.5862 4.38642 1.19317)
(56.3835 4.23168 1.3808)
(65.3058 18.6305 -171.669)
(-101.699 74.8915 12.0586)
(79.9333 79.6561 -6.68531)
(-29.938 37.232 0.637022)
(69.0698 53.4725 0.625142)
(5.01269 16.1296 -2.69966)
(61.1995 29.0707 -1.88068)
(30.7951 4.17916 -3.57371)
(55.4986 10.8385 -1.54341)
(38.5297 -1.96176 -1.53763)
(49.0018 2.23564 0.62669)
(40.2994 -2.06465 0.411366)
(45.5714 2.44679 0.275942)
(41.1759 0.477026 0.0884326)
(44.0224 2.28308 0.0660546)
(42.626 1.14856 0.0565057)
(44.6511 1.55349 0.0798603)
(45.3989 0.865733 0.109254)
(47.3994 1.061 0.567653)
(53.166 1.09013 0.426053)
(145.757 200.938 -89.2854)
(-37.899 49.185 19.0832)
(107.311 65.5296 -7.80392)
(-42.5477 22.1346 -2.98982)
(72.8744 29.3539 -1.7516)
(-1.93991 8.78363 -1.40485)
(64.7341 11.073 -1.6295)
(35.9912 3.557 -2.04098)
(64.7364 3.69823 -0.0205453)
(49.0951 0.122861 0.739023)
(56.7707 0.565679 2.71978)
(45.4245 -0.172431 1.36422)
(48.1193 1.02112 0.219968)
(43.0962 0.520122 -0.633651)
(45.0561 0.713956 -0.747823)
(43.4454 0.00568041 -0.679769)
(44.97 -0.231409 -0.702186)
(45.2951 -0.519072 -0.581285)
(46.7299 -0.348064 -0.146839)
(51.6332 0.28028 -0.131203)
(418.132 143.949 -36.9748)
(-265.387 62.8545 16.1414)
(97.2001 79.9115 -15.0007)
(-49.2501 39.118 2.28113)
(72.914 23.6669 4.69568)
(24.7984 5.7105 1.96112)
(74.3152 0.391138 1.79259)
(55.333 -4.13701 0.618029)
(75.3613 0.0261749 2.00219)
(61.59 1.45526 1.91796)
(66.0434 6.17755 2.72963)
(55.1723 5.63461 1.2379)
(56.9309 5.21311 0.24228)
(51.9386 3.28241 -0.781004)
(53.6465 2.43548 -1.06237)
(51.9229 1.38903 -1.25462)
(53.6438 0.598688 -1.20269)
(54.0245 -0.472119 -1.24422)
(56.1444 -1.59144 -1.03576)
(61.039 -1.38252 -0.664835)
(195.03 -19.2544 112.15)
(-78.0064 28.1684 50.0017)
(123.498 22.4858 24.9324)
(-30.0728 8.51849 0.0487929)
(75.7638 -11.7147 0.789853)
(12.465 -5.08705 -2.47658)
(70.2022 -9.18292 -2.15396)
(45.3867 -2.64351 -2.17944)
(71.0466 1.51876 -0.881375)
(59.5569 6.03883 -0.382112)
(70.4486 8.00983 1.34466)
(65.6036 7.91278 0.915157)
(69.9776 5.95889 0.7138)
(67.2247 4.21939 -0.0539522)
(68.7036 2.24063 -0.421575)
(66.9093 1.01263 -0.928509)
(67.7632 -0.472611 -1.35994)
(66.7784 -1.80563 -1.8851)
(67.4929 -3.82413 -2.68001)
(69.8213 -2.61892 -2.16177)
(76.5747 48.6008 1.82875)
(-48.1198 95.738 48.8366)
(139.232 72.5511 26.9187)
(85.4654 64.2989 20.3984)
(141.364 24.399 14.0721)
(113.185 3.65134 8.69885)
(123.105 -18.4965 1.05555)
(98.5095 -12.6221 -2.56414)
(102.951 -9.01342 -2.20231)
(94.2435 -1.52445 -0.431104)
(101.545 1.66704 1.33473)
(102.407 5.67199 1.59306)
(110.125 6.30355 1.8713)
(112.15 6.82017 1.95525)
(116.792 6.93347 2.14833)
(117.779 6.84808 2.2805)
(120.204 6.81559 2.20295)
(120.414 6.51364 1.70053)
(121.732 4.4519 1.66671)
(119.389 1.82147 1.58641)
(136.625 69.043 -89.6132)
(23.4913 -51.1857 37.6536)
(155.84 0.195719 23.4114)
(92.6098 0.253009 7.78306)
(137.057 8.65579 2.56516)
(103.917 -1.85767 3.88433)
(126.294 -2.56263 4.58687)
(117.94 -3.91427 3.19551)
(127.977 -3.26091 2.03263)
(125.156 -1.80159 0.370087)
(128.786 -0.0380277 -0.119876)
(125.738 1.38685 -1.24298)
(125.317 3.44661 -1.50095)
(121.066 3.82279 -1.54974)
(119.623 3.02816 -0.704819)
(116.569 0.889161 -0.0898669)
(117.074 -0.541171 0.415568)
(118.133 -1.79673 0.613653)
(121.361 -1.32498 0.405859)
(125.76 0.504184 0.743434)
(84.7614 379.327 -127.974)
(-140.388 26.9377 -34.1714)
(110.306 5.16068 -12.9972)
(-1.82659 3.31971 -0.880702)
(98.8172 -2.61344 -0.898951)
(47.9926 -0.747704 -1.07086)
(88.7303 2.15879 0.140778)
(71.0009 1.98815 -1.84854)
(85.3912 4.24507 -2.07683)
(78.2855 2.88808 -3.2245)
(84.1704 3.5411 -3.26283)
(80.5567 1.9994 -3.31204)
(83.2843 1.67513 -2.40469)
(81.2632 0.515385 -1.42434)
(82.6518 0.146 0.0113913)
(81.7358 -0.115972 0.815472)
(82.7965 -0.0601159 1.03449)
(82.2038 0.235633 0.586658)
(83.279 1.08099 -0.330856)
(85.2957 2.10635 -0.798862)
(395.167 -139.83 134.369)
(-77.2937 -66.0404 -12.3132)
(121.145 -75.3739 -19.9341)
(10.0351 -21.5655 -5.30686)
(89.904 -29.3714 -2.71827)
(41.7643 -9.03639 -0.560229)
(77.9353 -11.3542 0.324311)
(56.6369 -3.77552 -0.431184)
(73.3463 -4.50418 -0.212474)
(63.5447 -1.02166 -0.320473)
(71.9805 -1.2829 0.432887)
(67.6593 0.53772 0.445483)
(72.0066 0.528242 1.00396)
(69.8463 1.48874 0.979472)
(71.5479 1.70566 1.02653)
(69.635 2.19293 0.616689)
(69.7075 2.28446 0.0150769)
(67.277 2.20137 -0.473035)
(67.0091 2.167 -0.674529)
(67.7688 2.23548 -0.520078)
(310.742 -96.6053 -116.805)
(158.681 -36.8173 -32.8414)
(146.4 -34.6298 -3.5076)
(60.3684 -8.84198 -2.43198)
(100.749 -9.8984 2.82129)
(51.204 -1.5069 1.50208)
(79.0044 -2.96476 3.73143)
(57.3395 1.6703 1.15109)
(69.5252 0.406898 1.47013)
(59.9031 2.51953 0.340169)
(65.7635 1.53806 0.759846)
(61.6594 2.40737 0.478391)
(64.8877 1.99707 0.726291)
(63.108 2.48466 0.666544)
(64.9092 2.53909 0.780875)
(63.758 3.14337 0.553794)
(64.2426 3.67124 0.345969)
(62.3341 3.84055 0.197819)
(62.0334 3.69656 0.39946)
(62.7059 3.21263 0.412729)
(358.161 138.896 -45.6986)
(68.5527 16.5757 -38.4037)
(124.053 -6.4682 -3.82322)
(38.0941 -11.7855 -0.0619095)
(102.612 -13.4565 7.21189)
(51.5232 -1.57034 3.01329)
(81.048 -7.30425 5.15404)
(56.6598 3.77407 2.44129)
(69.6298 -2.37568 2.06103)
(56.5889 3.49067 0.888738)
(63.2766 -0.476434 0.73151)
(57.4555 2.54171 0.320306)
(61.5886 0.914115 0.376516)
(59.2658 2.75491 0.125246)
(61.8796 2.80064 0.0362056)
(60.5099 4.07399 -0.311793)
(61.3039 5.37167 -0.541972)
(58.8786 6.19025 -0.546579)
(58.7228 6.06813 0.218064)
(59.9888 4.79001 0.412717)
(115.695 200.857 -96.3304)
(35.3543 26.6311 -31.5294)
(142.686 19.634 -3.95897)
(73.9288 -0.296897 6.00313)
(114.518 6.26101 3.26164)
(58.9252 14.5675 -0.415988)
(83.0304 7.4087 1.88635)
(60.9573 14.0657 0.791732)
(66.8762 6.56993 1.79689)
(57.2347 8.59444 0.910633)
(58.9039 2.97755 0.842694)
(55.1907 3.70125 0.436067)
(56.7894 1.03302 0.263904)
(55.8003 1.85439 -0.0688312)
(57.4649 1.71561 -0.228348)
(57.1929 3.11746 -0.51359)
(58.4078 5.3364 -0.596863)
(56.8214 6.53147 -0.601551)
(57.3945 6.43786 0.0497966)
(59.6066 5.04438 0.549643)
(62.7565 38.2525 78.8949)
(-44.7956 18.6105 -39.8956)
(129.956 20.4219 -23.7363)
(19.5897 6.8705 -4.50774)
(108.338 12.7183 -1.73768)
(49.0222 16.6243 -1.76803)
(72.4727 -5.35321 0.281623)
(50.7729 18.6786 0.658538)
(59.0983 5.04736 0.249915)
(48.9367 12.8908 0.43005)
(53.9354 3.11929 0.105089)
(50.3561 5.36892 0.449841)
(54.3203 0.296927 0.176756)
(53.4532 1.87729 0.487151)
(56.1216 0.969685 0.0108859)
(55.3269 2.5682 -0.279118)
(56.7047 5.39739 -0.719186)
(54.9756 7.04791 -0.451506)
(56.0211 6.87386 0.299324)
(57.519 5.62193 0.847525)
(269.56 59.1297 -142.134)
(72.8973 -6.23947 7.32992)
(138.466 -26.6836 -5.65075)
(43.1787 -4.45462 -4.23599)
(98.984 -0.99642 -3.2639)
(49.0629 34.1775 -2.93412)
(66.3585 14.502 -0.180723)
(49.6909 14.5221 1.63217)
(53.1315 15.094 0.787892)
(48.598 9.1696 -0.301785)
(53.261 6.98324 -0.951445)
(53.2961 1.22846 -0.717664)
(57.3399 -0.417124 -0.858396)
(56.8637 -2.03934 -0.377291)
(55.6565 -0.231688 1.00372)
(55.6904 2.14981 0.175089)
(54.9598 5.21819 -1.03007)
(52.775 7.41747 -0.696287)
(53.0947 7.96754 0.392596)
(52.7589 7.4862 0.591882)
(108.103 51.8119 45.9494)
(17.2861 42.0628 -19.9209)
(115.431 18.033 -4.76985)
(24.8312 4.61787 -5.8644)
(76.1356 11.8481 -1.60285)
(50.6504 23.753 -2.06279)
(63.1998 26.0868 -1.56152)
(52.7046 14.2382 1.7671)
(55.8635 17.6383 0.834539)
(54.0386 9.25736 -1.27925)
(57.7118 4.4819 -1.85721)
(59.3373 -1.32118 -1.9182)
(61.4605 -2.53059 -1.63693)
(61.3365 -3.42893 -0.776492)
(59.5636 -1.55752 0.451342)
(54.1754 3.40538 0.442093)
(52.417 7.14073 -0.769659)
(48.7496 9.07782 -0.753697)
(48.1415 11.0756 0.300592)
(48.1939 9.71341 0.122179)
(117.342 -28.7657 -82.9316)
(-11.9364 -38.6057 0.219117)
(100.478 -18.2019 -12.4671)
(-10.1694 3.61746 0.298226)
(67.4864 10.6675 3.03483)
(29.962 18.156 -1.26708)
(59.7995 25.4485 0.522679)
(64.4459 18.1974 0.912239)
(63.9963 17.886 0.881143)
(64.7775 8.80455 -0.577546)
(65.5631 2.46139 -1.35156)
(66.2116 -2.25346 -1.78622)
(67.1004 -4.75732 -1.76528)
(67.5124 -4.70515 -0.706056)
(62.1097 -0.155676 1.12351)
(52.4708 6.87169 0.827983)
(50.2727 9.82954 -0.308376)
(46.72 11.1587 -0.608107)
(46.2286 12.8095 0.141396)
(47.8441 10.642 0.00531608)
(183.612 57.5881 -153.922)
(7.23015 9.63588 -64.8548)
(109.549 -15.0718 -18.149)
(-4.87244 9.11967 -1.53482)
(64.26 3.29761 2.55114)
(25.8904 8.53671 0.240235)
(46.7388 13.2642 0.727258)
(59.0307 15.6879 2.91862)
(63.8256 14.4664 3.14515)
(67.2245 8.29551 1.70596)
(70.1851 2.9154 1.61439)
(69.8266 -2.56634 -0.647386)
(66.8455 -4.81029 -0.14519)
(65.8378 -3.85657 -0.16126)
(58.4962 3.82451 -1.1873)
(49.5352 10.1704 -0.859479)
(47.424 12.7702 -0.75185)
(46.0704 12.4647 -0.603831)
(46.147 13.3684 -0.0072584)
(49.2018 10.2764 -0.0518178)
(284.471 46.1045 -152.711)
(93.5811 42.9644 -53.7838)
(117.074 31.2159 -23.0514)
(5.97613 33.8611 1.51191)
(61.976 18.1668 5.95061)
(24.8864 0.187653 1.39103)
(51.9228 -6.08415 1.91292)
(54.6175 12.9197 4.27391)
(56.822 12.1972 3.29727)
(57.399 8.98738 1.91206)
(57.0722 4.3392 0.847247)
(54.9778 0.729355 0.516031)
(53.0686 -1.1519 0.667349)
(51.6957 -0.295274 -0.685191)
(48.8524 4.43841 -2.21715)
(44.9938 8.69559 -1.32246)
(46.0317 11.6314 -0.965334)
(46.9785 11.5455 -0.728358)
(48.2524 12.4483 -0.16812)
(52.8796 9.02794 0.251521)
(231.912 111.725 -58.8823)
(55.3605 62.45 -16.431)
(115.386 49.6947 -19.1863)
(12.9504 40.0575 -0.254674)
(85.6776 20.5313 4.07367)
(25.133 -12.0371 2.17698)
(45.1208 13.6911 4.82417)
(26.1998 11.6894 3.08493)
(44.0376 11.9827 1.32248)
(34.8146 7.54976 0.163184)
(44.1475 4.80822 0.0615044)
(38.41 2.15724 0.448317)
(42.5447 1.76776 0.419872)
(39.3786 1.10548 0.0583357)
(39.0099 4.90803 -0.342001)
(41.4818 4.60622 -0.595405)
(43.7576 8.55645 -0.3807)
(46.9159 8.65675 -0.381784)
(49.0607 9.81327 0.0534541)
(54.4851 6.97458 0.7794)
(147.653 73.2259 -200.579)
(-4.44764 81.5008 -40.1665)
(94.3924 60.0184 -27.0417)
(6.85771 37.2633 -2.77542)
(72.3418 26.2038 4.86974)
(14.1906 9.48242 0.276749)
(44.709 43.1267 2.04733)
(18.8083 -5.48204 0.276498)
(38.2063 18.9835 0.0439391)
(27.3534 -3.98151 0.278439)
(37.8644 8.33674 0.265846)
(32.0468 -1.88553 0.308678)
(36.9556 4.99113 0.389964)
(34.1478 -0.213648 0.437865)
(36.8555 3.55808 0.439452)