/*--------------------------------*- C++ -*----------------------------------*\
  =========                 |
  \\      /  F ield         | OpenFOAM: The Open Source CFD Toolbox
   \\    /   O peration     | Website:  https://openfoam.org
    \\  /    A nd           | Version:  10
     \\/     M anipulation  |
\*---------------------------------------------------------------------------*/
FoamFile
{
    format      ascii;
    class       volVectorField;
    location    "2.8";
    object      U_0;
}
// * * * * * * * * * * * * * * * * * * * * * * * * * * * * * * * * * * * * * //

dimensions      [0 1 -1 0 0 0 0];

internalField   nonuniform List<vector> 
12920
(
(254.104 -117.508 -183.042)
(116.706 -142.844 -7.87819)
(162.871 -59.5282 35.7763)
(69.9789 -21.0623 14.9696)
(124.672 -1.31646 8.00732)
(97.754 -7.36407 4.65288)
(123.256 -7.98958 3.77931)
(114.908 -10.9312 2.6525)
(125.176 -12.3618 1.71034)
(124.858 -12.533 0.815286)
(132.393 -13.0831 0.561215)
(135.124 -11.0791 -0.406891)
(143.806 -10.4489 -0.545085)
(147.549 -5.55621 -0.91671)
(152.828 0.507715 -0.824236)
(151.672 4.60346 -0.641313)
(151.846 5.56308 -0.442045)
(150.593 5.47123 -0.305675)
(149.749 2.19175 0.497347)
(150.726 -1.56515 1.07047)
(250.607 51.0551 -197.045)
(-39.1881 2.10359 -19.155)
(130.613 -23.4379 -0.0480096)
(8.60043 -35.1651 2.68696)
(106.228 -38.6774 3.21411)
(58.5201 -29.7627 1.35915)
(97.1393 -19.5225 1.17521)
(81.6206 -11.7487 0.174941)
(95.2441 -3.65248 -0.260474)
(90.7866 -0.904547 -0.898082)
(97.9195 2.27808 -1.3435)
(97.7637 2.2791 -1.52386)
(102.781 2.78865 -1.64088)
(103.625 1.63455 -1.2181)
(107.856 0.156786 -0.126881)
(107.96 -1.20549 0.821526)
(109.128 -3.91368 1.32364)
(107.474 -5.54755 1.66427)
(107.527 -6.2496 1.13326)
(107.846 -4.57327 0.267774)
(-109.575 -195.686 -44.4496)
(-240.849 -70.4255 -34.5471)
(98.5497 -101.237 -33.8133)
(18.7788 -47.4843 -6.25852)
(108.629 -54.3774 -0.832639)
(64.1544 -28.935 0.21892)
(93.0265 -25.7865 0.181695)
(73.8111 -14.5386 -0.544155)
(87.9646 -12.9765 -0.32912)
(80.4893 -8.34148 -0.0636789)
(88.2881 -7.7634 0.459976)
(85.804 -5.28857 0.728648)
(90.2537 -4.69914 1.05049)
(89.4611 -3.20816 1.08322)
(91.798 -2.32102 1.10101)
(91.2251 -1.18078 0.924823)
(92.4183 -0.549031 0.480334)
(91.3203 -0.325584 0.0347281)
(91.1462 -0.37109 -0.452541)
(90.2204 0.66766 -0.701357)
(225.155 20.9638 25.8963)
(121.425 -61.3974 15.4802)
(151.455 -59.6196 1.57589)
(98.0875 -30.8994 -0.755558)
(130.767 -36.7948 2.16226)
(90.5401 -24.115 1.85341)
(104.544 -18.5584 2.58498)
(85.0782 -7.53366 1.32589)
(90.705 -5.24514 0.922306)
(81.2219 -2.63876 0.60023)
(83.8618 -4.30493 0.594912)
(79.6673 -4.77718 0.576789)
(81.8185 -6.22149 0.659283)
(80.6372 -6.67115 0.693285)
(82.8838 -7.35079 0.78488)
(83.4006 -6.87263 0.615325)
(86.6752 -5.4278 0.65683)
(86.9453 -3.02881 0.550212)
(87.1472 0.532083 0.316623)
(83.9367 2.42781 0.134349)
(151.686 33.4333 -155.798)
(97.8112 -75.437 -51.4048)
(168.849 -67.4979 -8.03181)
(111.962 -53.0327 1.55221)
(143.826 -50.5089 4.76394)
(106.047 -35.4193 2.57456)
(115.06 -29.4326 3.53241)
(90.0505 -12.0609 2.64549)
(93.1423 -11.1476 1.97025)
(79.0761 -4.33461 0.765145)
(81.8269 -7.66711 0.567712)
(75.8482 -6.01192 0.198501)
(78.3311 -8.42388 0.13151)
(76.3544 -7.97496 -0.00690709)
(78.8578 -9.05057 -0.0153189)
(79.0068 -8.24837 -0.303455)
(83.1652 -7.05488 -0.377708)
(84.0043 -2.78082 -0.385983)
(84.5806 3.64425 0.0638382)
(81.6123 5.32121 0.129763)
(422.332 141.3 -348.61)
(323.059 63.0833 -102.043)
(288.167 13.0586 11.0306)
(149.82 -29.9708 11.8697)
(156.285 -30.4385 4.73104)
(114.829 -21.2821 0.624105)
(123.785 -16.2078 0.34623)
(107.266 -4.08586 0.512836)
(103.047 -1.90973 1.45475)
(88.1646 2.79505 0.956491)
(83.0225 -3.09312 0.760032)
(74.4882 -3.71232 0.316285)
(74.3785 -7.33086 -0.214031)
(72.7854 -8.39835 -0.168356)
(74.3131 -9.99135 -0.336005)
(75.2314 -9.76121 -0.510854)
(78.9755 -7.93693 -0.634834)
(79.1683 -1.60112 -0.602082)
(80.3407 5.27337 -0.120158)
(80.3142 6.75438 0.0640376)
(207.328 -33.8886 -86.1599)
(-66.2037 23.1819 14.5788)
(166.311 -0.461225 3.98931)
(66.8285 -25.2893 -1.47106)
(136.097 -26.4144 0.844609)
(97.0521 -16.2651 -0.892145)
(108.596 -22.2898 -0.614919)
(90.0989 2.9552 -0.161014)
(91.173 1.19856 -0.396386)
(77.6672 10.1528 -0.0694625)
(76.1998 3.12403 -0.0112266)
(69.2028 2.27752 0.117751)
(72.1576 -5.01028 -0.163511)
(71.5111 -6.76338 -0.0868547)
(74.6555 -9.65078 -0.181492)
(74.5485 -9.69756 -0.272115)
(77.3682 -7.46643 -0.596343)
(77.0793 -0.226664 -0.485697)
(78.9928 5.56603 0.123864)
(78.3198 6.45059 0.293852)
(201.421 22.5686 15.9006)
(-5.54931 -12.9895 -6.83893)
(155.068 -46.647 -8.60224)
(90.8936 -28.2238 -3.59501)
(131.433 -30.8733 -1.5995)
(96.5228 3.48575 -2.39947)
(108.381 1.7581 -1.48539)
(92.1401 -8.11127 0.618393)
(82.0695 15.9334 0.662659)
(63.6436 7.47259 -0.120458)
(66.6399 12.1877 -0.689412)
(67.6875 -1.43206 -0.543844)
(74.7491 -4.09171 -0.352204)
(75.8527 -10.8556 0.115769)
(76.015 -11.9107 0.158152)
(76.0329 -11.0812 0.129756)
(76.1779 -6.7923 -0.79183)
(76.7819 -0.259126 -0.584453)
(78.1049 5.5222 0.290391)
(73.9926 6.82436 0.253348)
(141.901 -186.006 -65.1727)
(53.3236 -58.4472 -0.57488)
(140.048 -13.7815 7.5975)
(82.6801 -6.78333 -1.31114)
(123.405 -6.17948 3.17644)
(76.5328 -6.84698 -1.57651)
(98.9079 10.8744 -0.541957)
(80.7968 4.96607 0.208581)
(73.8458 25.1237 0.132796)
(64.2854 18.2969 -0.405316)
(68.0663 13.289 -0.873272)
(76.4734 0.875313 -0.580823)
(80.9561 -2.91746 -0.239798)
(82.1847 -7.29021 -0.206231)
(83.584 -12.2802 0.41148)
(78.1385 -9.64013 0.419957)
(75.1688 -3.24304 -0.435266)
(73.7838 1.07275 -0.740857)
(73.4861 8.75692 0.18703)
(67.2524 10.3795 0.0866938)
(160.024 -16.9303 15.6922)
(64.1711 -71.7014 -6.74875)
(138.04 -39.5263 1.47906)
(75.8029 -12.1972 0.0832048)
(117.984 1.19788 6.53695)
(73.9523 5.6753 -0.96596)
(82.5637 6.63206 0.194814)
(87.5506 10.6057 -0.629219)
(85.1559 32.8178 -0.356128)
(82.2553 23.1562 -0.30714)
(83.3039 10.2662 -0.0957547)
(83.0925 2.42991 -0.114573)
(86.3397 -3.21554 -0.315972)
(92.8742 -8.92146 -0.346451)
(95.543 -9.83143 0.0735928)
(83.7974 -4.67299 0.629175)
(76.3697 1.66531 0.0815507)
(71.5311 5.09005 -0.627869)
(69.5292 12.9781 0.0141024)
(64.9833 14.516 -0.126306)
(219.387 -115.195 -152.092)
(-33.0887 -62.4257 -42.1761)
(143.984 -36.6306 -19.3581)
(27.2086 -6.01118 -1.8507)
(79.1341 -6.41937 4.84279)
(6.61465 4.98561 -1.04502)
(47.2436 12.0105 0.354605)
(63.376 17.3215 0.132268)
(73.1095 26.8565 0.655847)
(83.6014 19.1633 0.575192)
(85.1558 9.2853 0.368829)
(88.3799 0.844702 0.0768878)
(91.2481 -5.3562 -0.0473549)
(90.4444 -12.7323 0.769049)
(81.9284 -9.93813 -0.642571)
(72.0162 2.32265 -1.07456)
(69.5845 9.10602 -0.705755)
(67.8211 11.3799 -0.728879)
(65.9319 17.6477 -0.27889)
(64.7619 17.5014 -0.457903)
(168.818 -173.437 -71.9662)
(114.52 46.463 -30.1983)
(168.94 57.0166 -0.0710176)
(85.0054 38.9574 5.43926)
(102.172 21.0335 10.1313)
(39.9936 -3.14748 -0.739471)
(69.2147 -15.6341 -0.119409)
(71.9104 4.9014 0.380067)
(71.9478 10.0273 0.795501)
(77.6237 7.10874 0.505176)
(77.0915 2.29433 0.237539)
(74.3942 -1.6043 0.186671)
(71.4075 -6.99711 0.103941)
(61.0801 -8.20794 0.281818)
(55.5607 -4.45166 -0.473372)
(57.0829 3.41464 -1.32981)
(62.2365 10.375 -1.11232)
(65.186 13.0922 -0.873713)
(66.3481 19.8968 -0.421629)
(68.82 19.537 -0.352148)
(116.321 -106.119 17.6923)
(5.56743 19.0855 6.76051)
(139.289 10.5136 -0.185983)
(85.1393 2.85561 4.19153)
(125.078 1.38365 5.48309)
(77.7991 -19.6918 1.45788)
(84.3319 -3.29533 -0.23547)
(53.5671 6.23464 0.32422)
(63.4405 4.12266 -0.0148595)
(51.0309 3.41848 0.0596425)
(60.8032 -1.38569 -0.457851)
(57.3313 -2.65152 0.0179694)
(58.8236 -3.97221 0.0568237)
(51.6496 -3.4995 0.398829)
(48.5538 0.703846 0.172314)
(51.2432 1.06438 -0.371729)
(55.7503 7.74009 -0.532439)
(62.4775 12.0948 -0.573939)
(66.4786 18.6225 -0.318304)
(72.1652 17.6388 0.0344928)
(198.825 155.962 -251.675)
(-75.5889 68.6779 -1.21098)
(145.597 37.8192 -23.764)
(80.7873 15.1426 -10.613)
(115.828 9.06663 -3.35976)
(67.998 1.33967 -0.917379)
(75.7175 35.1677 0.986373)
(49.0052 -2.09323 0.777407)
(59.621 13.6394 0.258992)
(50.2923 -6.9938 0.241464)
(58.2003 0.750632 0.0357677)
(52.6828 -6.92407 0.237414)
(54.9753 -0.599891 0.374168)
(50.7043 -3.56483 0.372188)
(50.9197 -0.141587 0.413375)
(49.4133 -0.0536841 0.278735)
(50.7315 2.37971 0.118045)
(56.1726 5.66556 -0.0846601)
(62.1431 14.0887 0.13271)
(70.6441 13.9402 0.57772)
(129.847 -65.7039 19.8544)
(101.417 68.9965 -11.041)
(158.387 42.5913 -11.8803)
(98.934 21.5589 -6.97538)
(116.053 30.6024 0.19798)
(46.4913 10.2027 -0.450792)
(76.5887 23.3917 0.559469)
(49.8174 4.12904 -1.30437)
(64.056 4.98208 -0.574148)
(53.1597 -3.49435 -0.636714)
(58.3823 -2.69086 -0.0811092)
(52.5653 -5.40721 -0.0302206)
(53.649 -1.92095 0.0698373)
(49.9867 -2.4651 0.125259)
(48.9858 0.138986 0.0618027)
(47.3805 -0.229317 0.121394)
(47.7269 0.779577 0.147191)
(48.9352 1.13335 0.417745)
(51.7037 5.09209 0.708592)
(61.1387 5.76225 0.856677)
(98.4025 81.5752 -44.8615)
(-20.8728 87.9667 -4.22919)
(101.625 80.9286 -6.99962)
(20.085 41.5865 -5.22412)
(84.8139 57.7862 -0.387056)
(33.2063 25.0417 -2.4485)
(75.1905 33.225 -1.9029)
(52.539 11.6465 -3.11678)
(71.7812 14.3579 -2.14849)
(57.9662 1.44375 -1.77577)
(62.2549 1.83135 0.0327393)
(51.7993 -2.87782 0.248206)
(54.096 1.19064 0.178177)
(49.0727 -0.180945 0.0917989)
(51.072 1.44828 0.0222383)
(49.645 0.316099 -0.0114819)
(51.4826 0.420791 -0.0223324)
(52.0591 -0.416748 0.0299344)
(53.7332 -0.237295 0.307966)
(58.909 -0.0716715 0.167394)
(169.525 397.116 -92.7471)
(-35.7317 99.0119 -10.9496)
(128.332 71.6297 -14.1298)
(-15.5077 38.1281 -3.96182)
(79.6741 42.8927 -0.743726)
(15.1024 24.2136 -1.45246)
(74.2147 24.3404 -1.43711)
(56.3417 16.7141 -1.7705)
(83.2086 14.5682 -0.993144)
(74.4745 9.13262 -0.0526966)
(75.5585 2.86114 1.94879)
(56.3335 -0.360622 1.2604)
(54.7591 -0.120315 0.119776)
(48.8115 -0.622804 -0.44724)
(50.5122 -0.408506 -0.56113)
(49.2994 -1.03241 -0.511778)
(50.9229 -1.34776 -0.545415)
(51.7229 -1.67343 -0.445925)
(53.4586 -1.12836 -0.158723)
(57.4519 0.336394 -0.161892)
(78.0366 296.747 54.775)
(-134.384 90.9934 -14.0389)
(100.085 97.5103 3.90917)
(-23.3086 63.8924 0.982375)
(75.3527 42.4297 3.26289)
(36.5776 18.6115 1.40996)
(84.6918 9.49573 1.21356)
(74.7426 2.37881 0.91809)
(93.9495 3.87503 1.46551)
(83.8416 3.01005 1.64785)
(83.1805 9.24474 2.02014)
(67.0685 8.77419 1.16219)
(64.9582 7.78822 0.231483)
(58.2129 5.26889 -0.419686)
(59.5429 4.16329 -0.622774)
(57.861 2.66307 -0.754346)
(59.425 1.68909 -0.744895)
(59.9552 -0.313405 -0.849773)
(63.1134 -2.40523 -0.912764)
(68.8506 -2.19675 -0.613033)
(391.644 73.7758 -122.774)
(89.3132 80.7271 2.65608)
(136.745 60.2794 18.4243)
(-12.4772 30.5799 2.84086)
(73.1181 -6.16472 3.17518)
(3.45872 -4.60958 -0.564373)
(68.7838 -9.18145 -1.984)
(48.3064 -2.26729 -1.56611)
(77.0682 2.407 -0.685594)
(67.6 7.45715 -0.172325)
(76.919 10.2359 0.912192)
(70.556 10.6521 0.869587)
(72.9729 8.66955 0.780811)
(68.6447 6.9984 0.438637)
(69.019 4.63302 0.207919)
(66.0689 3.64813 -0.0910988)
(66.2727 1.64703 -0.46164)
(64.5276 -0.281796 -1.09548)
(65.2691 -2.8015 -1.69004)
(68.3645 -1.29062 -1.36116)
(182.228 246.189 96.7528)
(5.89713 143.121 39.3107)
(155.147 95.4891 16.5612)
(101.057 76.853 10.1827)
(149.404 38.0336 9.02041)
(102.637 13.5173 7.61168)
(102.789 -14.6494 2.08621)
(80.7207 -7.15813 -0.863534)
(94.2514 -5.11474 -0.931065)
(90.4095 0.682109 -0.0457529)
(99.8127 3.14885 0.650942)
(101.25 6.66212 0.715298)
(109.48 7.08836 0.755265)
(111.558 7.55305 0.737759)
(116.326 7.78204 0.82566)
(117.114 7.83424 0.951377)
(119.313 8.13227 0.880268)
(119.576 8.08268 0.617443)
(121.187 6.72589 0.538387)
(119.57 4.41696 0.742996)
(88.6576 229.37 -111.979)
(-42.4687 -86.6079 64.6248)
(113.834 -9.03601 43.7984)
(45.0609 -5.43651 13.5537)
(118.613 3.26605 5.62879)
(93.9362 -5.642 4.81319)
(121.304 -6.47686 4.70306)
(114.22 -8.51149 3.35244)
(125.166 -8.8097 2.17236)
(124.15 -7.81827 0.782052)
(130.607 -6.50299 0.270329)
(130.882 -4.30172 -1.01907)
(134.922 -1.54027 -0.987878)
(134.3 0.993811 -1.24213)
(134.879 2.09329 -0.781432)
(133.211 1.98337 -0.436686)
(133.097 1.05458 0.405638)
(132.574 -1.72604 1.33054)
(135.152 -3.6994 1.84672)
(140.701 -2.7492 1.768)
(20.5515 186.327 -1.7047)
(-146.261 -16.3478 16.7463)
(96.3743 -17.0023 -4.46783)
(-8.34126 -11.9354 1.35572)
(98.7022 -17.1091 1.64122)
(50.7933 -11.314 0.208048)
(90.7311 -5.20221 0.976105)
(75.0728 -2.41675 -0.769474)
(89.026 1.77142 -1.25386)
(83.7676 1.56723 -2.30816)
(90.2186 2.88326 -2.66663)
(88.4715 1.63023 -2.76042)
(92.2664 1.46595 -2.44971)
(91.7138 0.304948 -1.72139)
(94.0565 -0.460655 -0.31798)
(93.7836 -1.50848 1.0403)
(95.167 -2.012 1.51795)
(94.5881 -2.1725 1.4839)
(95.1456 -1.73933 0.550246)
(95.9161 0.207433 -0.578517)
(91.1192 28.8987 170.963)
(-42.605 -112.217 -45.0182)
(107.035 -100.599 -23.844)
(11.3273 -35.0235 -5.06166)
(94.9932 -39.8561 -2.16038)
(49.931 -16.9227 -0.126058)
(83.0756 -16.959 0.323613)
(63.4976 -7.99074 -0.665947)
(79.1304 -7.76349 -0.378019)
(70.9067 -3.81862 -0.262237)
(79.3905 -3.77396 0.521025)
(76.4477 -1.72356 0.708473)
(81.0673 -1.43477 1.24607)
(79.7513 -0.223369 1.24706)
(81.6174 0.34212 1.31604)
(80.2266 1.06582 1.02138)
(80.3911 1.48279 0.244345)
(78.1825 1.39973 -0.331853)
(77.6155 1.30897 -0.797074)
(76.8618 1.80401 -1.01482)
(192.808 -114.397 -21.1116)
(111.82 -11.0026 -21.1267)
(139.685 -27.6492 -7.87265)
(71.1649 -13.2759 -4.28159)
(110.73 -18.748 2.63957)
(66.4575 -8.69117 1.84108)
(88.5452 -7.75394 3.81514)
(68.554 -1.19664 1.59284)
(77.8738 -1.5419 1.5524)
(68.7887 0.605805 0.722937)
(73.4416 -0.506451 0.918552)
(69.8076 -0.0455667 0.735458)
(72.7964 -0.696231 0.913711)
(71.5656 -0.449273 0.895539)
(73.6928 -0.427633 1.00636)
(73.3124 0.20335 0.775743)
(74.6251 1.48985 0.637552)
(73.3666 2.32506 0.453526)
(72.7515 3.18146 0.291007)
(71.2405 3.32336 0.0446043)
(194.273 60.4413 -160.502)
(50.8541 17.3752 -48.0259)
(124.224 -15.5269 7.15581)
(61.4809 -25.2744 3.77537)
(117.066 -27.7602 8.92339)
(72.5962 -13.5347 4.06062)
(93.5849 -14.4329 5.99572)
(69.588 -1.20178 3.42428)
(78.6268 -5.04446 2.66413)
(65.5769 0.756118 1.01438)
(70.6665 -2.97025 0.865851)
(65.0654 -0.481272 0.306839)
(68.7014 -2.27522 0.306417)
(66.8377 -0.802641 0.0611782)
(69.6297 -0.862395 0.00387265)
(69.037 0.493592 -0.3395)
(71.1616 2.59714 -0.470399)
(69.4149 4.70605 -0.52052)
(69.051 6.31609 0.0851658)
(68.3129 5.76101 0.0753183)
(192.512 283.638 -162.768)
(30.8808 12.5788 71.2446)
(147.515 14.8317 33.9575)
(90.9121 -10.7395 13.6306)
(129.755 -4.18161 4.78451)
(82.4168 4.86537 0.210392)
(98.2783 2.46722 1.72038)
(78.0249 9.77555 1.29024)
(79.6149 4.99175 2.17984)
(68.5932 6.52243 1.23391)
(67.5528 1.07129 1.10832)
(62.8176 0.762086 0.522451)
(63.6585 -2.13959 -0.0385121)
(62.7391 -1.99805 -0.146203)
(64.5574 -2.4811 -0.338294)
(64.8611 -1.17023 -0.646936)
(67.4664 1.97191 -0.667719)
(66.0965 5.53062 -0.647125)
(66.7257 7.13897 -0.0514322)
(67.754 6.48141 0.184624)
(56.1726 22.0403 10.8527)
(-114.494 -19.2718 18.7799)
(143.871 4.29852 -11.4477)
(23.9903 -6.27178 -3.41357)
(117.121 0.499106 -0.0531427)
(66.9257 7.36029 -1.54522)
(84.9338 -9.38715 -0.0191609)
(64.685 14.1437 0.39431)
(69.6794 4.6739 0.016534)
(58.414 12.1361 0.199735)
(61.1964 2.81008 -0.0364256)
(57.3668 3.69768 0.28652)
(61.1745 -2.07725 -0.121277)
(60.7027 -1.58367 0.0254233)
(63.6337 -3.22405 -0.266902)
(63.2578 -1.99138 -0.418067)
(65.5999 1.81997 -0.790475)
(64.2475 6.19796 -0.402509)
(65.7782 7.39427 0.319144)
(66.2365 6.6685 0.548347)
(280.74 34.8728 123.749)
(5.21568 4.58012 22.496)
(133.721 -34.8945 -13.914)
(51.362 -13.8432 -5.12157)
(108.183 -11.9314 -3.01192)
(65.5232 24.8328 -3.25877)
(82.3897 12.6847 0.576119)
(65.2116 5.77101 1.64097)
(64.1751 17.0762 1.13861)
(55.2081 8.46589 -0.711272)
(59.1787 8.31094 -0.996583)
(59.7007 -0.186903 -0.97114)
(64.5959 -2.48733 -1.01148)
(64.6775 -6.08096 -0.329042)
(64.0859 -5.04148 0.248194)
(64.5345 -3.08678 0.0628183)
(64.235 1.8246 -1.1594)
(62.9912 5.90402 -0.580863)
(64.0533 7.85766 0.551341)
(61.977 7.8145 0.417626)
(45.9231 70.122 -13.7623)
(-29.7572 34.2733 1.45134)
(110.179 15.4788 -2.31677)
(32.4828 1.40456 -5.48369)
(87.9618 4.60378 1.18404)
(65.9257 11.1685 -1.53805)
(81.6326 21.8008 -1.76572)
(67.9455 11.8854 0.524598)
(63.7033 21.0581 1.03766)
(58.7858 12.9504 -0.973064)
(62.9218 7.0292 -1.81193)
(66.6433 -1.33608 -1.75017)
(69.6841 -3.87156 -1.23668)
(70.6175 -6.63356 -0.779596)
(69.6991 -7.09326 0.378059)
(64.0094 -1.84586 0.276514)
(62.544 3.80807 -0.926671)
(59.5402 7.13375 -0.750264)
(58.6366 11.227 0.44612)
(55.8475 11.0169 -0.056641)
(125.282 -99.6027 44.71)
(-90.2246 -41.7667 7.48424)
(104.574 -21.8457 -5.36541)
(1.13665 -0.889188 -1.6616)
(80.9422 5.21824 5.83926)
(48.6074 10.6596 -2.15848)
(74.8662 16.8865 -0.41243)
(77.292 16.0411 -0.691172)
(73.0946 24.1267 0.523605)
(72.04 13.2464 -0.557622)
(72.8551 4.5415 -0.764672)
(74.3182 -1.60345 -1.16823)
(77.4873 -6.3448 -1.54189)
(81.038 -9.36297 -1.02646)
(78.4196 -6.34722 0.307271)
(64.5298 2.61648 0.417059)
(61.2871 7.46099 -0.413919)
(56.7356 10.2175 -0.675149)
(55.0828 14.4147 0.0794407)
(54.4332 13.4858 -0.422712)
(151.812 -57.5212 -123.946)
(-0.948628 -28.4702 -30.6448)
(114.957 -25.326 -10.3745)
(0.0912338 2.73325 -0.609223)
(68.8456 -2.14645 5.13353)
(24.3887 5.27364 -0.978315)
(49.3814 10.8178 -0.385664)
(62.8663 15.2601 2.06015)
(68.766 17.495 2.72841)
(74.4481 10.8824 2.50112)
(76.4423 3.41557 1.5744)
(77.6711 -2.56826 -0.388473)
(77.603 -7.07964 -0.00775545)
(76.6483 -9.67412 1.13587)
(70.1594 -2.26842 -1.48018)
(59.4108 8.14906 -1.86343)
(57.1647 12.655 -1.14189)
(54.8177 13.5411 -0.838261)
(54.002 16.3171 -0.276706)
(55.2124 14.1424 -0.668486)
(154.637 -47.1603 -164.199)
(-7.66038 39.6451 -31.2658)
(113.756 30.2794 -6.02155)
(18.6276 31.1474 4.35469)
(73.2334 17.5025 10.1737)
(36.9064 0.965766 0.620349)
(61.3619 -12.7486 1.07766)
(62.3125 8.95581 4.13027)
(63.3214 10.248 3.71105)
(65.1121 7.98894 2.2348)
(64.9183 3.22553 1.07225)
(62.8495 -0.864811 0.695821)
(59.8281 -4.1986 0.809894)
(55.9019 -4.48647 0.0194241)
(52.8895 0.276058 -1.89077)
(51.2181 7.50754 -1.97631)
(53.5049 12.3204 -1.44989)
(54.6846 13.4678 -1.00355)
(55.8061 16.368 -0.47938)
(59.3064 13.8924 -0.335045)
(90.505 135.496 -37.9448)
(-9.43258 40.2909 -28.4248)
(115.791 23.1167 -14.2872)
(33.9004 24.2119 1.70918)
(98.9093 13.8325 7.68914)
(43.0137 -15.9593 2.0574)
(60.298 5.62388 5.21545)
(34.8838 9.02397 3.07868)
(51.2314 7.72687 1.3425)
(40.9128 5.70034 0.0987978)
(50.6705 2.06142 0.0196189)
(45.203 0.102304 0.521665)
(48.0979 -0.79774 0.49672)
(43.6817 -0.903125 0.536211)
(42.9317 3.16143 -0.165724)
(46.2178 3.58135 -0.724405)
(49.6932 9.26611 -0.677219)
(53.9871 11.1061 -0.611548)
(56.8843 13.8939 -0.26669)
(62.0374 11.5348 0.302046)
(135.498 49.1468 -232.679)
(-7.06958 85.1021 -18.8243)
(143.157 71.241 -30.6702)
(56.2566 38.1737 -5.67117)
(92.5435 22.2367 3.91711)
(35.5372 6.76633 0.68482)
(55.7351 40.4312 2.45127)
(29.7473 -4.84838 0.847462)
(46.0311 16.3916 0.280999)
(35.8596 -5.64226 0.39378)
(45.2832 4.99319 0.338146)
(39.6515 -4.03883 0.46443)
(43.4044 2.73021 0.610654)
(40.1447 -1.53452 0.579725)
(41.9913 2.19668 0.516214)
(42.0666 1.79673 0.332821)
(44.6603 4.55223 0.198007)
(49.4012 6.21227 -0.0194973)
(53.518 10.2073 0.427107)
(60.5882 8.85594 1.09386)
(120.37 1.61281 -40.0537)
(48.6764 90.3002 -13.9809)
(131.702 66.7991 -4.01737)
(46.5169 33.6821 -1.15096)
(85.5587 38.2718 5.63866)
(11.8682 8.18049 -0.995879)
(61.948 27.2603 0.917338)
(28.6281 3.29268 -1.89302)
(48.8842 8.00388 -0.145742)
(35.7183 -2.37429 -0.629933)
(44.7024 0.891001 0.152576)
(39.1795 -2.69667 0.0766709)
(42.4077 0.827983 0.230534)
(39.7013 -0.503012 0.226159)
(40.1387 1.68848 0.151391)
(39.6381 0.987626 0.206375)
(40.7779 2.10347 0.239456)
(43.1079 2.08999 0.575113)
(46.1558 4.32573 1.11617)
(54.192 4.19162 1.28376)
(59.5069 29.5157 -199.296)
(-100.744 77.5686 10.9027)
(83.3711 79.7541 -8.80936)
(-26.8713 36.8613 -0.0115063)
(70.2229 52.719 0.923303)
(5.07568 15.1848 -2.68164)
(60.9088 28.2119 -1.77265)
(29.86 3.4874 -3.49504)
(54.4697 10.1624 -1.44911)
(37.3753 -2.51925 -1.59696)
(47.7308 1.87764 0.526076)
(38.8749 -2.39071 0.377119)
(44.0956 2.20718 0.23624)
(39.5938 0.271281 0.0762018)
(42.4025 2.13318 0.0518746)
(41.0421 1.04841 0.0265088)
(43.171 1.47255 0.0518469)
(43.9305 0.824023 0.0787722)
(45.9876 1.03999 0.488935)
(50.9941 1.08835 0.265084)
(139.692 191.132 -105.601)
(-40.182 58.5982 16.1764)
(108.524 65.5956 -8.55945)
(-42.3123 23.461 -2.85143)
(72.3182 28.8539 -1.58044)
(-2.8672 8.38543 -1.16413)
(63.9661 10.54 -1.58068)
(35.0267 3.05054 -1.9675)
(63.6643 3.28798 -0.0852646)
(48.0122 -0.318278 0.773929)
(55.5506 0.132519 2.74629)
(44.0106 -0.576235 1.37434)
(46.6853 0.68796 0.167285)
(41.5661 0.24542 -0.663663)
(43.5011 0.531045 -0.787717)
(41.9142 -0.0867778 -0.717136)
(43.5277 -0.25319 -0.743657)
(43.8519 -0.505163 -0.609266)
(45.3254 -0.316126 -0.221965)
(49.446 0.315248 -0.292351)
(358.651 129.783 -50.8084)
(-262.511 65.4439 11.634)
(92.1607 81.0665 -13.2146)
(-45.9329 40.6609 1.28973)
(72.2498 23.4126 4.20503)
(24.8859 5.41643 2.03562)
(73.9479 0.0889593 1.89297)
(54.5519 -4.43311 0.771914)
(74.4055 -0.135801 2.07071)
(60.3821 1.24004 2.03486)
(64.7365 5.89852 2.76249)
(53.8036 5.34563 1.25739)
(55.5688 4.94627 0.235681)
(50.5116 3.05849 -0.772727)
(52.2118 2.29413 -1.05659)
(50.5041 1.3266 -1.27048)
(52.2664 0.602801 -1.23112)
(52.605 -0.453381 -1.25182)
(54.7562 -1.54327 -1.08219)
(58.8066 -1.35428 -0.744192)
(193.593 6.22813 124.31)
(-80.8482 30.7839 56.9341)
(122.771 26.8221 23.695)
(-31.0136 10.1755 -0.392091)
(73.598 -10.7972 0.690297)
(11.4198 -4.72879 -2.20857)
(69.2062 -9.09399 -2.18235)
(44.3538 -2.59776 -2.16419)
(69.93 1.5088 -0.776515)
(58.3565 5.96929 -0.33072)
(69.2426 7.92764 1.36511)
(64.3191 7.82422 0.912102)
(68.6676 5.8514 0.696594)
(65.8506 4.12385 -0.068213)
(67.3172 2.17275 -0.429918)
(65.5302 0.984978 -0.930439)
(66.3968 -0.48917 -1.37747)
(65.3674 -1.80705 -1.901)
(66.0688 -3.78701 -2.71746)
(67.5475 -2.58736 -2.1917)
(77.1458 50.0864 29.7774)
(-55.7877 100.004 55.8762)
(134.559 73.266 25.553)
(84.916 64.2483 19.9791)
(139.875 23.7118 14.0075)
(112.127 2.81721 8.66828)
(122.019 -18.7308 0.953687)
(97.2504 -12.6326 -2.63564)
(101.724 -8.95408 -2.17929)
(93.0289 -1.4471 -0.397311)
(100.393 1.72423 1.34671)
(101.239 5.68749 1.58918)
(108.923 6.30159 1.86467)
(110.896 6.81368 1.95111)
(115.492 6.93131 2.15667)
(116.481 6.85957 2.28302)
(118.893 6.82078 2.19771)
(119.061 6.52221 1.70364)
(120.336 4.43858 1.65386)
(117.013 1.78509 1.56172)
(109.164 65.1349 -117.579)
(8.21822 -53.7696 31.3768)
(145.884 -0.336047 23.2576)
(86.2544 0.411075 8.11004)
(132.633 8.71004 2.80186)
(100.513 -1.78548 4.00757)
(123.229 -2.69074 4.70936)
(115.353 -3.99937 3.22748)
(125.57 -3.3519 2.02285)
(122.898 -1.85655 0.354129)
(126.67 -0.0880869 -0.118856)
(123.638 1.37209 -1.2544)
(123.315 3.42844 -1.49089)
(119.092 3.78989 -1.54884)
(117.733 2.97943 -0.692284)
(114.756 0.824392 -0.082421)
(115.361 -0.590833 0.408167)
(116.499 -1.8378 0.590481)
(119.716 -1.34413 0.336341)
(122.705 0.463113 0.561578)
(62.3551 335.273 -189.284)
(-141.893 18.5355 -43.3511)
(100.851 -2.14586 -15.8507)
(-7.15585 0.222896 -0.647291)
(94.4548 -4.57029 -0.136826)
(44.5253 -1.63526 -0.706971)
(85.3983 1.86023 0.240306)
(68.3254 1.75508 -1.91719)
(82.9293 4.20583 -2.15203)
(75.9787 2.8157 -3.26806)
(82.0559 3.49081 -3.27716)
(78.4955 1.93225 -3.31688)
(81.3467 1.61578 -2.39532)
(79.353 0.458957 -1.40355)
(80.8244 0.0900156 0.0431752)
(79.9425 -0.185969 0.823678)
(81.0853 -0.128632 1.00508)
(80.5124 0.159871 0.537291)
(81.5429 1.00062 -0.476584)
(82.3232 1.99397 -1.07955)
(375.726 -148.179 137.347)
(-82.7042 -74.801 -11.2672)
(115.838 -78.1685 -21.159)
(8.95639 -23.4319 -4.79236)
(87.5754 -30.2822 -2.01068)
(39.9697 -9.61079 -0.153481)
(75.522 -11.4908 0.376155)
(54.2038 -3.86997 -0.546728)
(71.1029 -4.5541 -0.310543)
(61.2163 -1.05728 -0.4108)
(69.883 -1.3504 0.349616)
(65.5619 0.465117 0.402144)
(70.0689 0.436953 0.977795)
(67.9253 1.41255 0.988827)
(69.6849 1.62786 1.05216)
(67.8007 2.10375 0.611836)
(67.9624 2.19452 -0.0333636)
(65.5442 2.10029 -0.522614)
(65.2221 2.0622 -0.80091)
(64.9014 2.12156 -0.890789)
(315.032 -117.305 -102.715)
(163.862 -40.09 -32.6027)
(144.885 -33.3543 -4.12176)
(56.4012 -9.78586 -2.7736)
(97.7058 -10.1083 3.38131)
(48.3236 -1.8116 1.59719)
(76.0839 -3.00501 3.80886)
(54.677 1.85238 1.15652)
(67.0952 0.521807 1.43134)
(57.541 2.69022 0.378765)
(63.6039 1.60057 0.74368)
(59.5623 2.41993 0.488593)
(62.9501 1.93828 0.713906)
(61.2125 2.39762 0.680335)
(63.0745 2.44496 0.791917)
(61.951 3.06275 0.559899)
(62.5128 3.59832 0.312039)
(60.6043 3.75192 0.146487)
(60.2393 3.60535 0.240399)
(59.9403 3.12699 0.0224938)
(343.243 138.859 -54.5844)
(60.041 13.2029 -48.1831)
(122.315 -8.34642 -2.19212)
(35.2828 -13.4228 0.141591)
(101.245 -14.0637 7.43725)
(49.7946 -1.97711 3.06526)
(79.1346 -7.4366 5.0977)
(54.3456 3.78003 2.52311)
(67.3597 -2.36008 2.09786)
(54.1728 3.57294 0.878775)
(61.0048 -0.493062 0.731768)
(55.2163 2.5235 0.313953)
(59.5456 0.822702 0.34451)
(57.3045 2.65356 0.0886253)
(60.0293 2.68727 0.0285247)
(58.7017 3.99759 -0.321765)
(59.56 5.31277 -0.568071)
(57.1384 6.12302 -0.586429)
(56.9465 5.99372 0.0453357)
(57.3068 4.73516 0.0188728)
(119.665 203.502 -88.7838)
(39.3181 23.6206 -32.9397)
(143.062 19.2513 -3.75618)
(70.7877 0.00562972 5.47895)
(112.583 6.52701 3.52362)
(56.38 14.7714 -0.180557)
(80.5622 7.38533 1.91863)
(58.4262 13.8802 0.713017)
(64.5244 6.23134 1.75573)
(54.8044 8.31313 0.797784)
(56.6207 2.64317 0.815962)
(52.991 3.42992 0.394464)
(54.7547 0.832066 0.194764)
(53.8674 1.71702 -0.149372)
(55.6508 1.61091 -0.281209)
(55.4418 3.04757 -0.523537)
(56.6918 5.29081 -0.613118)
(55.1021 6.47932 -0.639697)
(55.6533 6.37691 -0.12668)
(56.9797 5.00107 0.149619)
(62.959 33.3669 105.126)
(-47.327 16.6522 -40.9371)
(130.589 18.4205 -20.4578)
(17.0857 6.19388 -4.6785)
(106.812 12.7575 -1.5496)
(47.0973 16.3703 -1.7749)
(70.2288 -5.82447 0.289939)
(48.1892 18.4126 0.560262)
(56.7608 4.52129 0.172704)
(46.5282 12.4656 0.28725)
(51.666 2.68173 -0.0620044)
(48.2335 5.18991 0.369672)
(52.3963 0.16055 0.0278822)
(51.5657 1.83167 0.343737)
(54.3124 0.918322 -0.0719952)
(53.5579 2.5268 -0.28824)
(54.9834 5.37338 -0.738859)
(53.2586 7.00638 -0.481983)
(54.2962 6.81536 0.135152)
(54.9243 5.57438 0.435006)
(285.544 50.3509 -101.745)
(82.4989 -4.93416 11.2306)
(140.973 -26.2024 -4.39882)
(41.9377 -3.87397 -3.43518)
(97.3521 -0.398166 -2.90046)
(46.3557 34.2984 -2.94229)
(63.8157 14.4681 -0.212088)
(47.0412 14.6449 1.45574)
(50.8497 14.9083 0.557594)
(46.1032 9.07743 -0.609024)
(51.2323 6.73423 -1.06466)
(51.3738 1.3758 -0.872098)
(55.3914 -0.255696 -0.814029)
(55.0388 -1.78432 -0.312488)
(53.8263 -0.265586 1.01749)
(53.9198 2.11248 0.184773)
(53.2383 5.17469 -1.06607)
(51.0555 7.38481 -0.729684)
(51.3515 7.92116 0.23238)
(50.2008 7.44827 0.174501)
(114.431 98.4206 49.8287)
(21.5598 57.1597 -17.0288)
(114.098 24.7249 -4.04253)
(22.3639 6.24215 -4.86761)
(73.7239 12.1365 -1.1112)
(47.8438 23.8938 -1.96568)
(60.4711 25.9078 -1.70557)
(50.0022 14.3639 1.50722)
(53.5119 17.5664 0.640182)
(51.5978 9.34464 -1.43397)
(55.7689 4.70838 -1.80611)
(57.4387 -1.15279 -1.89893)
(59.556 -2.3565 -1.5592)
(59.4445 -3.18127 -0.619225)
(57.7076 -1.31365 0.72717)
(52.357 3.35427 0.467838)
(50.6909 7.0851 -0.795925)
(47.0366 9.04265 -0.79464)
(46.403 11.0345 0.114065)
(45.6871 9.68412 -0.327871)
(91.9731 -30.8913 -65.2701)
(-41.6831 -36.0886 6.3719)
(89.8265 -16.2979 -11.6043)
(-17.6773 3.33498 -0.0726706)
(63.2938 10.123 3.15355)
(26.2301 17.4768 -1.2623)
(57.1492 24.5884 0.507994)
(62.0647 17.4943 0.887514)
(61.7753 17.3313 0.877151)
(62.7243 8.36302 -0.518847)
(63.6069 2.1862 -1.26756)
(64.3227 -2.60563 -1.77059)
(65.2462 -5.03504 -1.70256)
(65.6668 -4.89066 -0.570837)
(60.2459 -0.264128 1.28063)
(50.6674 6.76831 0.808459)
(48.5627 9.75163 -0.342819)
(45.0216 11.0913 -0.64666)
(44.524 12.7588 -0.0540343)
(45.4035 10.6167 -0.423015)
(191.123 27.6911 -132.747)
(6.66404 2.16661 -64.2314)
(104.438 -18.6334 -15.2191)
(-10.093 7.53915 -1.06104)
(61.0506 1.68344 2.58987)
(22.6022 7.12191 0.260889)
(44.3006 12.1277 0.78116)
(56.9883 14.6477 3.09702)
(61.8423 13.5652 3.22975)
(65.236 7.41362 1.18167)
(68.3157 2.23321 1.65573)
(67.9357 -3.09037 -0.700089)
(65.0482 -5.14071 -0.161979)
(64.0408 -4.07571 -0.132223)
(56.6393 3.65415 -1.12978)
(47.7889 10.0417 -0.845777)
(45.7596 12.6499 -0.775501)
(44.4235 12.369 -0.642639)
(44.5033 13.3138 -0.188949)
(46.8209 10.2438 -0.437072)
(286.435 52.0102 -113.66)
(87.6675 39.5139 -47.8183)
(111.031 27.2038 -21.1629)
(-0.208794 31.3455 1.97542)
(58.2121 16.199 5.82567)
(21.737 -1.22353 1.17203)
(49.8186 -7.24766 2.00859)
(52.4571 11.9567 4.41716)
(55.0575 11.1654 3.61425)
(55.6282 8.26606 2.17171)
(55.3732 3.90917 0.986239)
(53.1568 0.463605 0.628039)
(51.3056 -1.39768 0.681156)
(49.9061 -0.508567 -0.688356)
(47.097 4.27719 -2.1733)
(43.3091 8.52802 -1.30659)
(44.4163 11.4949 -0.991288)
(45.3954 11.4409 -0.762443)
(46.6688 12.3698 -0.322333)
(50.5628 8.98619 -0.0708567)
(223.569 85.851 -31.076)
(39.9104 52.8266 -13.2223)
(110.499 39.8909 -18.8543)
(9.67778 34.7461 -0.145165)
(83.8411 16.886 4.16809)
(22.5497 -14.3716 2.12607)
(43.3182 12.3402 4.72397)
(24.3641 10.3408 2.94484)
(42.5396 11.1918 1.41953)
(33.3254 6.79608 0.142394)
(42.6653 4.31687 0.182362)
(36.6265 1.76853 0.547408)
(40.8541 1.46034 0.536766)
(37.5063 0.871826 0.200409)
(37.2703 4.67917 -0.362885)
(39.8571 4.41035 -0.57643)
(42.2066 8.42142 -0.419404)
(45.3748 8.54134 -0.424779)
(47.5415 9.71546 -0.0955826)
(52.2179 6.92977 0.497069)
(144.803 39.1403 -193.288)
(-1.49429 70.7555 -40.3519)
(92.9818 53.6052 -25.4461)
(7.24067 33.3962 -3.22247)
(71.6764 23.5157 4.8437)
(13.2252 7.88593 0.265533)
(43.7829 41.9924 2.03526)
(17.5335 -6.34528 0.323213)
(36.9677 18.3196 0.053771)
(25.9225 -4.59397 0.294144)
(36.3744 7.80991 0.306554)
(30.4798 -2.3749 0.384429)