/*--------------------------------*- C++ -*----------------------------------*\
  =========                 |
  \\      /  F ield         | OpenFOAM: The Open Source CFD Toolbox
   \\    /   O peration     | Website:  https://openfoam.org
    \\  /    A nd           | Version:  10
     \\/     M anipulation  |
\*---------------------------------------------------------------------------*/
FoamFile
{
    format      ascii;
    class       volScalarField;
    location    "0.5";
    object      k_0;
}
// * * * * * * * * * * * * * * * * * * * * * * * * * * * * * * * * * * * * * //

dimensions      [0 2 -2 0 0 0 0];

internalField   nonuniform List<scalar> 
12920
(
0.00432386
0.00498136
0.00662875
0.00642651
0.00497018
0.00383443
0.00329768
0.00284986
0.00232988
0.00183877
0.0014432
0.00118691
0.00108578
0.00106287
0.0010595
0.00105917
0.00105903
0.00105885
0.00105882
0.00105882
0.00406873
0.00994371
0.00669531
0.00517529
0.00467786
0.00363808
0.00318841
0.00220173
0.00160057
0.00127111
0.00113592
0.00108067
0.00106295
0.00105972
0.0010593
0.00105921
0.00105915
0.00105898
0.00105895
0.00105886
0.0225259
0.015088
0.00874919
0.00489806
0.00669283
0.00567814
0.00428044
0.00216157
0.00133335
0.00112238
0.00107226
0.00106205
0.00105979
0.00105945
0.0010594
0.00105938
0.00105921
0.0010591
0.00105887
0.00105886
0.0365189
0.0830209
0.0105011
0.00703109
0.0076898
0.00458789
0.00307674
0.00144752
0.00111242
0.00106923
0.0010609
0.00105969
0.00105941
0.00105936
0.00105925
0.00105925
0.00105912
0.0010591
0.00105895
0.0010589
0.0441938
0.028129
0.00952114
0.0109336
0.0116147
0.00329894
0.00188263
0.00124107
0.00109268
0.00106494
0.00105993
0.00105919
0.00105911
0.00105926
0.00105926
0.00105934
0.0010591
0.00105913
0.00105888
0.00105893
0.0733078
0.0236804
0.0124611
0.0211225
0.0124842
0.00211557
0.00185067
0.00126326
0.0011648
0.00107416
0.0010704
0.00106248
0.00105968
0.00105904
0.00105899
0.00105914
0.00105906
0.00105913
0.00105894
0.00105895
0.0171497
0.0145603
0.0150464
0.0241136
0.0178707
0.00401178
0.00213608
0.00125441
0.00164189
0.00121607
0.00126682
0.0011379
0.00106944
0.00105637
0.00105003
0.00105151
0.00105408
0.00105717
0.00105829
0.00105882
0.0259326
0.00778972
0.0106973
0.010238
0.00749764
0.00336949
0.00174495
0.00112832
0.00109524
0.00129874
0.00118592
0.00114236
0.00112246
0.0011224
0.000974212
0.000975062
0.000987255
0.0010208
0.00104193
0.00105386
0.144248
0.0125773
0.00531646
0.00319934
0.00231576
0.00221397
0.0019362
0.00128983
0.00120668
0.00122219
0.00135556
0.0012827
0.00127002
0.00127649
0.00108212
0.000905657
0.000937855
0.00098435
0.00101974
0.00104537
3.79978
0.983286
0.0776568
0.0111317
0.00452337
0.00180193
0.00164963
0.00127423
0.00121436
0.001282
0.0013242
0.00126947
0.00127005
0.00127014
0.00101285
0.00087402
0.000915518
0.000969828
0.00101262
0.00104303
0.492215
0.198432
0.0354189
0.0227011
0.0146189
0.00485428
0.00290699
0.0033566
0.00146903
0.00124161
0.00130024
0.00126528
0.00126826
0.00126666
0.00100502
0.000874368
0.000915904
0.000969728
0.00101238
0.00104286
0.0513944
0.0335953
0.0153459
0.0114337
0.00825733
0.00557767
0.00819094
0.00694736
0.00175629
0.00124499
0.00128989
0.00127009
0.00127059
0.00127094
0.00103503
0.000920347
0.000943877
0.00098505
0.00101965
0.00104525
0.111868
0.0412405
0.00771724
0.0100794
0.00948009
0.0138543
0.0120334
0.00631334
0.0020486
0.00117972
0.00114124
0.00113199
0.00111664
0.00111806
0.000975178
0.000978167
0.000993398
0.00102451
0.0010435
0.0010543
0.0305888
0.0366418
0.0202392
0.0131383
0.0152817
0.0182021
0.0174427
0.0115139
0.00489629
0.00240871
0.00139329
0.0011304
0.00107013
0.00105934
0.00105633
0.00105685
0.00105746
0.0010585
0.00105887
0.00105899
0.286988
0.144339
0.0304912
0.0111459
0.0154323
0.0177454
0.0171341
0.0131249
0.00658483
0.00358605
0.00193105
0.00125871
0.00109001
0.00106331
0.00105974
0.00105938
0.00105924
0.00105931
0.00105916
0.00105907
0.181134
0.765786
0.217482
0.0311029
0.0121596
0.0122045
0.0127281
0.0108907
0.00653633
0.0033149
0.00174089
0.00117844
0.00107477
0.00106072
0.00105937
0.00105925
0.00105937
0.00105927
0.00105922
0.00105909
1.43144
0.829244
0.217665
0.0385356
0.0114735
0.0067737
0.00608211
0.00407245
0.00271075
0.00140665
0.00114004
0.00106913
0.00106081
0.00105932
0.00105919
0.0010591
0.00105934
0.00105915
0.00105918
0.00105905
0.852824
0.534543
0.0840416
0.0238139
0.0106699
0.00530709
0.00359739
0.00200237
0.00140367
0.00113397
0.00107683
0.00106224
0.00105995
0.00105939
0.00105927
0.00105903
0.00105907
0.00105909
0.00105919
0.00105906
0.61504
0.0919311
0.0129411
0.0141926
0.00818069
0.00314707
0.00212082
0.00130168
0.00113083
0.00106719
0.00105725
0.0010572
0.00105824
0.00105896
0.00105909
0.00105909
0.00105898
0.00105902
0.00105915
0.00105903
0.0551906
0.0204969
0.00896836
0.00487735
0.00294669
0.00146724
0.00118428
0.00107899
0.00106375
0.00105976
0.00105902
0.00105893
0.00105914
0.00105908
0.00105911
0.00105905
0.00105876
0.00105885
0.00105891
0.00105902
0.00241543
0.0048665
0.00772648
0.0108258
0.0100625
0.00577718
0.00435289
0.00420008
0.00380283
0.00266647
0.00165711
0.00119705
0.00106053
0.0010299
0.00102344
0.00102229
0.00102165
0.00102172
0.00102175
0.00102222
0.00879387
0.0417313
0.0335062
0.0212219
0.0189247
0.0088912
0.00866259
0.00624108
0.0041004
0.0028743
0.00179944
0.00119696
0.000894087
0.000779915
0.000727878
0.000712329
0.00070031
0.000696551
0.000693974
0.000694
0.124366
0.0627921
0.0534384
0.0473622
0.0485683
0.0327089
0.0157994
0.00531491
0.00201415
0.00132729
0.000982828
0.000828866
0.000751234
0.000717258
0.000702155
0.000694672
0.000691036
0.000689178
0.000689578
0.000690579
0.0653725
0.419308
0.0994434
0.0745542
0.0399102
0.0234781
0.0171424
0.00377113
0.00151805
0.000993884
0.000886355
0.000774976
0.000744855
0.000711774
0.000701923
0.000693759
0.000691334
0.000689184
0.000689795
0.000690826
0.0812426
0.127732
0.0960776
0.0967874
0.082571
0.0154782
0.0113645
0.00378097
0.00170077
0.00101448
0.000850488
0.000750244
0.000732267
0.000705139
0.000701957
0.000693502
0.000691416
0.000689233
0.000689886
0.000690945
0.662034
0.286122
0.239138
0.142835
0.106094
0.0106076
0.0135301
0.00532559
0.00312678
0.00121805
0.0010053
0.00078273
0.000750334
0.000710586
0.000701682
0.000694477
0.000691937
0.000689724
0.000690318
0.000691244
0.160503
0.0595323
0.145586
0.0885777
0.0988121
0.026172
0.0137729
0.00405904
0.00557419
0.00164316
0.00145687
0.000928198
0.00082003
0.000730043
0.000715883
0.000699062
0.000693459
0.000690434
0.000690858
0.000691551
0.134753
0.0187347
0.0904973
0.0241358
0.00938717
0.0140901
0.0052714
0.00502556
0.0105309
0.0145135
0.00422579
0.00213299
0.00135106
0.000953988
0.000760442
0.000721146
0.000705049
0.000695553
0.000693472
0.000692683
0.0209488
0.0211109
0.0202206
0.00607854
0.00262016
0.0039161
0.00348714
0.00241859
0.00730268
0.00538793
0.0015791
0.000927594
0.000895029
0.000830956
0.000793044
0.000729234
0.000717124
0.000704615
0.000699098
0.000695171
13.6378
0.480486
0.0725954
0.0465245
0.0104004
0.00278966
0.00170353
0.00149927
0.00165141
0.00179991
0.000914392
0.000762723
0.000727717
0.00070606
0.000704487
0.000705023
0.000695346
0.000691937
0.000692097
0.000692465
7.45403
1.5089
0.331821
0.199723
0.0440703
0.00826754
0.00593589
0.0164389
0.00709547
0.00258274
0.00102397
0.000749049
0.000710089
0.000704919
0.00070336
0.000700504
0.000696069
0.000692257
0.000692324
0.000692521
23.3127
0.44208
0.0761968
0.0357421
0.0121146
0.0175013
0.0285967
0.0120335
0.0101619
0.00324416
0.00143942
0.000804573
0.000735232
0.000722062
0.000739727
0.000733331
0.000718479
0.000704604
0.000698844
0.00069516
1.89414
0.0438257
0.0140016
0.0344127
0.0214507
0.0258083
0.021855
0.0124134
0.006504
0.00275869
0.00196667
0.00110871
0.000885069
0.000787258
0.000727678
0.000707621
0.000700007
0.000693947
0.000693435
0.000692875
0.192422
0.116461
0.0174606
0.0427738
0.0347978
0.0351106
0.0282895
0.0170001
0.00846583
0.00425079
0.00206225
0.0011375
0.000844905
0.00073536
0.000711556
0.000696858
0.000692982
0.00069053
0.000691041
0.000691804
2.20428
0.254703
0.0613388
0.0451665
0.03122
0.0396344
0.0361303
0.0295847
0.0109764
0.00451008
0.00271031
0.00145733
0.000900003
0.000747173
0.000708392
0.000695691
0.000691648
0.000689719
0.000690324
0.000691326
2.37967
2.11385
0.549666
0.230625
0.072605
0.0477936
0.0291699
0.0112824
0.00542104
0.00298689
0.00226528
0.00135914
0.000860489
0.000739476
0.000703172
0.000694763
0.000690512
0.00068927
0.000689822
0.000690996
4.3877
2.68405
0.641237
0.301784
0.0506304
0.0143743
0.00628531
0.00340714
0.00242075
0.00184929
0.00117453
0.000873975
0.000743938
0.000713258
0.000696825
0.000693058
0.000690015
0.000689048
0.000689661
0.000690824
1.09909
0.57694
0.187068
0.127068
0.108858
0.0482379
0.0136949
0.00543127
0.00218131
0.0012459
0.000907182
0.000787369
0.000727874
0.000709442
0.000696596
0.000692979
0.000689799
0.000688818
0.000689428
0.000690644
0.37202
0.165449
0.0943391
0.105961
0.0372387
0.0128173
0.00733571
0.00247398
0.00148393
0.000963965
0.000841113
0.000757012
0.000724357
0.000710413
0.000699696
0.000697799
0.000694088
0.000693379
0.000692646
0.000693024
0.0109089
0.0240276
0.0114558
0.00453753
0.00291828
0.00176321
0.00156086
0.00113035
0.00105403
0.00102313
0.00100186
0.00100884
0.0010071
0.00101435
0.00101518
0.00101948
0.00101979
0.00102154
0.00102161
0.0010224
0.00106883
0.00619606
0.0086936
0.0266416
0.023955
0.00965882
0.00372926
0.00216391
0.00179159
0.00145507
0.00122462
0.00107392
0.00103066
0.00102345
0.00102205
0.00102185
0.00102158
0.00102169
0.00102174
0.00102221
0.00550072
0.0557927
0.0622494
0.0642262
0.0814239
0.0227937
0.010111
0.00377025
0.00318085
0.00179004
0.0012223
0.000955681
0.000822026
0.000760678
0.000722606
0.000710754
0.000699754
0.000696246
0.000693774
0.000693779
0.808171
0.164316
0.110309
0.0990912
0.126562
0.104991
0.0574455
0.0119005
0.00297091
0.00124147
0.000883107
0.00077504
0.000733283
0.000710771
0.000699953
0.000693807
0.000690685
0.000688938
0.000689381
0.000690369
1.40376
0.364134
0.194894
0.265988
0.154002
0.106178
0.0574207
0.00969169
0.00271605
0.00110358
0.000889179
0.000766821
0.000740607
0.000709948
0.000701197
0.000693389
0.000691117
0.000688988
0.000689598
0.000690613
1.02097
0.444749
0.155165
0.251268
0.274863
0.0502216
0.0225026
0.00574498
0.00200568
0.00107552
0.000860781
0.000751891
0.000731939
0.000704846
0.000701699
0.000693271
0.000691228
0.000689047
0.000689703
0.000690726
1.10872
1.25674
0.288746
0.476881
0.373055
0.0360393
0.0361
0.0073297
0.00318355
0.00123024
0.00100359
0.00078153
0.000749546
0.000710045
0.00070134
0.00069421
0.000691736
0.000689542
0.00069014
0.000691015
0.229145
0.499762
0.241107
0.223069
0.277568
0.105401
0.0603067
0.00571611
0.00601447
0.00165206
0.00146413
0.000931862
0.000821484
0.000731919
0.000716243
0.000699039
0.000693293
0.00069019
0.000690615
0.000691296
1.25654
0.282709
0.0826317
0.0208784
0.0185763
0.0378896
0.0342328
0.00784125
0.0122762
0.0151664
0.00422566
0.00211945
0.00133217
0.000942797
0.000759548
0.000720885
0.000704876
0.000695388
0.000693299
0.000692411
0.456245
0.132978
0.0831374
0.0251928
0.0140071
0.0141861
0.0160119
0.0171072
0.0165808
0.0048198
0.00173881
0.000935025
0.00089483
0.000831217
0.000791341
0.000730301
0.000717366
0.00070453
0.000698926
0.000694905
13.4045
1.08747
0.484509
0.257517
0.053929
0.00431549
0.00270727
0.00408085
0.00420161
0.00143328
0.000907085
0.000799337
0.000780602
0.000759244
0.000817835
0.000761628
0.000707895
0.000694136
0.000692352
0.000692309
13.6396
6.14041
0.887398
0.575945
0.0562996
0.00862765
0.015438
0.00796393
0.00413442
0.00265428
0.00129924
0.00129982
0.00102713
0.00123234
0.00102526
0.000745982
0.000708017
0.000694655
0.000692652
0.000692412
62.7288
24.5513
2.84126
0.188684
0.0253721
0.0183405
0.0392845
0.0173504
0.00867935
0.00366108
0.00157207
0.000804849
0.000734681
0.000723331
0.000739947
0.000733318
0.000718355
0.000704468
0.000698673
0.00069489
76.2887
8.56914
0.152687
0.0908716
0.100687
0.0757751
0.0357005
0.0182012
0.0057422
0.00244836
0.00180843
0.00107492
0.000868625
0.00078247
0.00072652
0.000707184
0.000699825
0.000693771
0.00069322
0.000692586
5.30641
0.902283
0.047531
0.0430865
0.0906988
0.0731786
0.0397192
0.0174435
0.00614684
0.00286546
0.00147458
0.000951664
0.000791996
0.000721483
0.000707002
0.000695386
0.000692383
0.000690192
0.000690752
0.000691538
2.34988
0.464376
0.0934248
0.0864718
0.0751599
0.0673022
0.029688
0.0154784
0.00914175
0.00512026
0.00232937
0.00118839
0.0008201
0.000726946
0.00070345
0.00069427
0.000691165
0.000689463
0.000690092
0.000691074
2.33981
1.61428
0.564322
0.146643
0.0622595
0.0484723
0.0210211
0.00763634
0.00505481
0.00414672
0.00223302
0.00110776
0.000783498
0.000720401
0.00069843
0.000693349
0.000690023
0.000688992
0.000689586
0.000690754
5.81254
2.64382
0.516646
0.11091
0.0348124
0.0256828
0.00905895
0.00520674
0.00271732
0.00152991
0.00102569
0.000812018
0.000727356
0.000708263
0.000695396
0.000692472
0.000689747
0.000688832
0.000689443
0.000690578
0.102854
0.766905
0.242639
0.136811
0.0827365
0.0423881
0.0153053
0.00527263
0.00198073
0.00112302
0.000852727
0.000768977
0.000720665
0.000706819
0.000695565
0.000692472
0.000689533
0.000688599
0.000689207
0.000690396
0.116643
0.0928095
0.0980012
0.0650725
0.0160371
0.00968645
0.0141238
0.00454375
0.00208084
0.00105552
0.000852238
0.000756751
0.000723534
0.00070993
0.000699404
0.000697541
0.000693872
0.000693169
0.000692422
0.000692784
0.00262516
0.00345371
0.00481292
0.00311105
0.00280978
0.00166964
0.00242051
0.00140237
0.0011394
0.00103148
0.00100177
0.00100828
0.00100673
0.00101424
0.00101515
0.00101948
0.00101979
0.00102154
0.0010216
0.0010224
0.00343506
0.00999062
0.0123097
0.0794518
0.0464656
0.0200237
0.00671157
0.00197127
0.00120344
0.00106968
0.00104309
0.00102767
0.00102332
0.00102249
0.00102191
0.0010218
0.00102158
0.00102169
0.00102174
0.00102222
0.131878
0.147702
0.131195
0.567964
0.343069
0.0923349
0.0345812
0.0089015
0.00994396
0.00627111
0.00327871
0.00105667
0.00081645
0.000756108
0.000723277
0.000712727
0.000702165
0.000698904
0.000697862
0.000699769
1.07849
0.754466
0.471485
0.296771
0.497869
0.489636
0.348378
0.0773358
0.0237732
0.00579886
0.00150143
0.000820851
0.000736458
0.000712408
0.000702599
0.000696448
0.000693486
0.000691988
0.00069341
0.000697059
4.84934
0.558474
0.323061
1.44847
0.873285
0.415879
0.220198
0.0447187
0.0209312
0.0042028
0.00164597
0.000836246
0.000748428
0.000712129
0.000703535
0.000695769
0.000693614
0.000692095
0.000693896
0.000697436
6.53899
1.36644
0.387535
1.58466
1.09575
0.218373
0.133423
0.0293969
0.00757988
0.00191204
0.000954575
0.00076591
0.000734646
0.000707219
0.000704429
0.000696261
0.000694622
0.000692793
0.000695258
0.000698067
0.177951
0.76602
0.387695
1.17814
1.05641
0.27313
0.290901
0.0552537
0.00811193
0.00185008
0.00110268
0.000803103
0.000760738
0.000720222
0.000712404
0.000702677
0.000698322
0.000693994
0.000694906
0.000697271
0.12204
0.675075
0.335933
0.571422
0.823475
0.464117
0.405019
0.0475084
0.0134164
0.00149415
0.00140693
0.000929372
0.00081763
0.000729985
0.000719189
0.000702268
0.000702395
0.000703041
0.000705699
0.000704784
3.37022
0.231664
0.1056
0.237898
0.469821
0.218515
0.0738641
0.0183827
0.0112342
0.014533
0.00391076
0.00208581
0.00131273
0.000939868
0.000826121
0.000736134
0.000709319
0.000698076
0.000696174
0.000697961
1.44315
0.650654
0.257322
0.206507
0.204183
0.105025
0.0872061
0.0494949
0.0228792
0.00728097
0.00170458
0.000932606
0.000894742
0.000831722
0.000796186
0.000843304
0.000736632
0.000708418
0.000700763
0.000698407
10.7802
2.22881
0.782037
0.205971
0.0349913
0.065367
0.048637
0.0169872
0.0306467
0.00259974
0.000900889
0.00077512
0.000744425
0.000731354
0.000724974
0.000863695
0.000720047
0.000696497
0.000694368
0.000695964
22.2417
1.3157
0.425956
0.260545
0.0370638
0.0176693
0.0159812
0.00925698
0.00363146
0.00202225
0.00104276
0.000991885
0.000812332
0.000859115
0.000748656
0.000870052
0.000725452
0.000697653
0.00069473
0.000695812
2.80826
8.64345
0.571701
0.198028
0.161407
0.0422443
0.102817
0.037764
0.0200702
0.00467363
0.00144107
0.000800251
0.000734763
0.000722852
0.000739881
0.00087248
0.000741171
0.000708712
0.000700851
0.000701665
2.31427
10.1262
0.754283
0.973618
0.945384
0.392223
0.137077
0.0548866
0.00816684
0.00276013
0.00195773
0.00109297
0.000869469
0.000784064
0.000771244
0.000721941
0.000704966
0.000697543
0.000699515
0.000708845
4.16586
7.74928
1.24405
0.449441
0.743548
0.382112
0.139401
0.0370809
0.00639569
0.0022949
0.00120047
0.000859568
0.000774683
0.000719103
0.000710317
0.00069964
0.000696371
0.000694831
0.000697695
0.000705213
0.949377
2.75257
0.431991
0.128168
0.119896
0.0561168
0.0301703
0.0176491
0.00529189
0.00266201
0.00149001
0.000966658
0.000784675
0.000725235
0.000707701
0.000699325
0.000696055
0.000694015
0.000696073
0.000702134
1.26731
3.4141
1.80529
0.331875
0.110849
0.0581156
0.0163295
0.0082292
0.00526517
0.00283178
0.00144466
0.000909776
0.000758399
0.00072085
0.000703042
0.000697936
0.000694703
0.000693505
0.00069503
0.000701551
0.362172
4.4056
1.37011
0.444337
0.0455608
0.0583428
0.0144863
0.00521883
0.00254283
0.00136581
0.000945218
0.000800835
0.000730839
0.000712594
0.000701086
0.000697584
0.000695302
0.000694136
0.000696147
0.000701937
0.15117
0.640328
0.299902
0.101951
0.0757414
0.0496746
0.0485897
0.030337
0.0121847
0.00422519
0.00127147
0.000832851
0.000733135
0.000712294
0.000700743
0.000697348
0.000695063
0.00069371
0.000695576
0.000701791
0.0279715
0.00824324
0.0270123
0.0062867
0.00568169
0.0146685
0.0812649
0.0279068
0.0202014
0.00614236
0.00310552
0.00137233
0.000931348
0.000758307
0.000714631
0.000704763
0.000700856
0.000701071
0.000700654
0.000705388
0.00117393
0.00171867
0.00265268
0.00248547
0.00223357
0.00156842
0.00574859
0.0023241
0.002553
0.00144886
0.00114858
0.0010336
0.00101564
0.00101643
0.00101577
0.00101932
0.00101978
0.00102158
0.00102162
0.0010224
0.00161452
0.00921438
0.00862827
0.00943493
0.032585
0.0322451
0.0187481
0.00625477
0.00219819
0.0012168
0.00105146
0.00103132
0.00103341
0.00104267
0.00108093
0.00109467
0.00113873
0.00112254
0.00113601
0.00108735
0.026487
0.159447
0.116519
0.0969671
0.808497
0.500781
0.164552
0.0251763
0.0302318
0.0327493
0.0861179
0.0737488
0.101104
0.0910306
0.102832
0.096812
0.102558
0.0999011
0.102469
0.104594
0.205506
2.01022
2.65559
1.10917
1.53839
1.46529
1.30144
0.430806
0.261695
0.134246
0.149595
0.115354
0.125604
0.107908
0.113455
0.104634
0.108049
0.104358
0.106067
0.106994
3.85554
3.22207
4.13609
2.35099
2.12797
1.04158
0.69046
0.221103
0.180148
0.100316
0.11336
0.0875513
0.0991976
0.0894775
0.0972137
0.0941763
0.0994061
0.0989804
0.101423
0.104643
5.52044
2.59489
4.0597
2.54994
2.7256
1.02548
0.639964
0.25138
0.219806
0.124306
0.125439
0.0973081
0.106902
0.0959885
0.10405
0.100068
0.10519
0.103742
0.105896
0.107546
0.589217
1.77737
2.77442
1.66248
2.10921
1.07548
1.20993
0.399594
0.224662
0.0955896
0.0894161
0.0785551
0.0852064
0.0855555
0.0896885
0.0920568
0.0979982
0.0998424
0.102673
0.10588
0.414061
0.397879
0.854612
0.476405
1.95829
1.22604
1.69183
0.749539
0.79554
0.173751
0.186125
0.101328
0.128109
0.101679
0.10858
0.102256
0.105156
0.104943
0.106853
0.108716
4.10648
1.6045
1.9621
1.03455
1.71966
1.16251
0.316838
0.501993
0.193726
0.0999895
0.0252044
0.0552991
0.0193775
0.0152899
0.491126
0.214009
0.122472
0.100028
0.0980963
0.10404
14.1654
2.08533
1.2906
0.879635
0.870065
0.714434
0.403659
0.065473
0.0573014
0.00851597
0.00159744
0.000608505
0.000914097
0.000827674
0.0734701
0.765728
0.229341
0.106574
0.0892977
0.0979355
10.1158
5.55579
1.4077
2.54918
0.814171
0.289775
0.124003
0.0412978
0.070194
0.00274263
0.000993336
0.000763499
0.00072262
0.000706337
0.0261698
0.842433
0.248656
0.113948
0.0927965
0.100069
14.5701
2.12879
2.7202
2.11031
0.980342
0.0403046
0.0330928
0.0235916
0.0163759
0.00501636
0.00161855
0.000768116
0.000709367
0.000703471
0.0281801
0.915318
0.267746
0.119158
0.0950456
0.10215
7.10752
2.72503
15.3205
7.50661
4.33871
0.625375
0.190204
0.158029
0.0480551
0.0132263
0.0021709
0.000813834
0.00073396
0.000720995
0.028206
0.948145
0.276765
0.122652
0.097949
0.104488
1.05876
18.7857
19.0254
6.82127
4.59546
1.20055
0.803118
0.601245
0.135704
0.0197675
0.0181176
0.00627827
0.00678259
0.00461424
0.522835
0.24333
0.144254
0.118696
0.114597
0.117701
6.15306
35.434
15.858
3.85244
3.94739
1.62197
1.52856
0.533778
0.271956
0.179672
0.182964
0.160738
0.168274
0.145562
0.141184
0.131673
0.130413
0.127727
0.126106
0.12462
5.01521
15.5087
2.97212
1.42809
2.02439
0.703869
0.710155
0.306965
0.252693
0.190043
0.194599
0.181341
0.180145
0.161069
0.152455
0.140086
0.137224
0.131961
0.129677
0.128174
1.55238
5.79033
3.17116
1.55408
2.05262
0.811518
0.651197
0.261914
0.2614
0.190361
0.214786
0.176202
0.178092
0.152078
0.149189
0.136805
0.136081
0.131273
0.130349
0.128863
0.81565
5.07333
3.49907
2.30122
1.44424
0.567197
0.598706
0.252968
0.298655
0.179161
0.209816
0.160186
0.170596
0.147995
0.150175
0.139476
0.139177
0.133861
0.132476
0.130806
0.109942
0.1287
0.027513
0.00730379
0.0733971
0.152777
0.457309
0.227533
0.280763
0.16522
0.195214
0.145842
0.161489
0.13816
0.145122
0.134006
0.136513
0.131499
0.132048
0.130914
0.0243089
0.010217
0.0045372
0.00231901
0.0018373
0.00645573
0.298549
0.151291
0.226839
0.127571
0.170998
0.127071
0.151403
0.131266
0.143014
0.133036
0.137383
0.132422
0.133663
0.13228
0.00300013
0.00149267
0.00160886
0.00151004
0.00131802
0.00117176
0.0015776
0.00158609
0.010689
0.00534931
0.00959156
0.00461469
0.00540795
0.00269749
0.0028006
0.00164965
0.00166674
0.00122776
0.00127604
0.0010967
0.000992904
0.00213841
0.00157652
0.00161675
0.000981174
0.00191032
0.00151156
0.000816761
0.00130169
0.00144093
0.000902219
0.000819146
0.00126798
0.00145226
0.00160253
0.00319856
0.00198579
0.00228127
0.00151612
0.0037726
0.00177746
0.00136322
0.0015223
0.000847531
0.00126563
0.00135084
0.00140102
0.000834851
0.00133865
0.00187515
0.00173368
0.00208729
0.00143357
0.00197788
0.00179206
0.00122137
0.00158378
0.00121333
0.00140116
0.00148712
0.00176868
0.00158623
0.00118995
0.00122691
0.0012635
0.00149139
0.00166697
0.00151168
0.00177188
0.00138419
0.00129252
0.00132993
0.00285864
0.00282016
0.00194661
0.00122543
0.00127451
0.00131559
0.00127056
0.00194374
0.000909087
0.00101567
0.000787516
0.00127557
0.00127
0.0012709
0.000930474
0.000924824
0.000769531
0.000728111
0.00128861
0.001271
0.00127091
0.000893121
0.000813416
0.000723431
0.000707777
0.00128751
0.00127093
0.00137049
0.000828666
0.000828585
0.000707533
0.000704221
0.00146901
0.00175217
0.00207124
0.00170092
0.00166394
0.00178654
0.00525354
0.00120917
0.00205262
0.00139997
0.0015873
0.00147666
0.00678895
0.00467582
0.00125308
0.00128249
0.00123402
0.00147866
0.00185114
0.00310695
0.00209714
0.001337
0.00123866
0.00129868
0.00193148
0.00129085
0.00201124
0.00136555
0.00127066
0.0013009
0.00127167
0.00106322
0.00079731
0.0011325
0.000803657
0.00126981
0.00126707
0.00126875
0.000768961
0.000731004
0.000763435
0.000718994
0.00126994
0.00126901
0.00126636
0.000723421
0.000707309
0.000713709
0.000711158
0.00137277
0.00126766
0.00136624
0.000705868
0.000703168
0.000709751
0.000708496
0.0034055
0.00667215
0.00711622
0.00353029
0.0146158
0.0116859
0.0191053
0.0018367
0.00686345
0.00300049
0.0163271
0.012228
0.0167047
0.0139834
0.00123957
0.00201949
0.00127011
0.00676355
0.0025224
0.0106877
0.00377016
0.00129707
0.00125393
0.00128336
0.00244836
0.00157726
0.00284875
0.00208394
0.00127078
0.00129354
0.00127303
0.00121099
0.000799922
0.00173162
0.00089693
0.00126691
0.00126951
0.0012688
0.000757958
0.000714014
0.00080512
0.000719005
0.00126709
0.00126918
0.0012695
0.000709232
0.000703858
0.000713288
0.000704435
0.00136715
0.00127012
0.00137463
0.000703702
0.000701221
0.00070371
0.000700674
0.00753926
0.00970846
0.00713001
0.0163945
0.0181451
0.0141784
0.0190829
0.00249495
0.00577167
0.00220547
0.0145165
0.0131817
0.013739
0.00572654
0.0012591
0.00171764
0.00121544
0.0105773
0.0044327
0.00415587
0.00196869
0.00127854
0.00119539
0.00119157
0.0033283
0.00209232
0.00198386
0.00182693
0.00127217
0.0011856
0.00119745
0.00170799
0.000919774
0.00174131
0.00130813
0.0012706
0.00120045
0.00120611
0.000827018
0.000739413
0.00120856
0.000895477
0.00127094
0.00120326
0.00121222
0.000735355
0.000722576
0.00085606
0.000812288
0.0013685
0.0012096
0.00121326
0.000721474
0.000708734
0.000814192
0.000761821
0.00207464
0.00216662
0.00185353
0.00631942
0.0058071
0.00282589
0.00187572
0.00899066
0.00178237
0.00153871
0.00890351
0.0156199
0.00186623
0.00401306
0.00407685
0.00152546
0.00313924
0.0127472
0.00545578
0.00685204
0.00242459
0.00201047
0.00232732
0.00100234
0.0046178
0.00210799
0.00162347
0.000962003
0.000904289
0.000889024
0.000770947
0.00163787
0.000907756
0.000872755
0.000780127
0.000929221
0.000762051
0.000730064
0.000930158
0.000928989
0.000770165
0.000734136
0.000815699
0.000724616
0.000707992
0.000894857
0.000815759
0.000729369
0.000715045
0.000838211
0.000707626
0.000703391
0.000831387
0.000839959
0.000714616
0.000710324
0.00157905
0.0022478
0.00669316
0.00188662
0.00169528
0.00515131
0.0071025
0.00148798
0.00819232
0.00540913
0.00190498
0.0052024
0.00624443
0.00388787
0.00242634
0.00384306
0.00227356
0.00487652
0.0017438
0.00323264
0.00237601
0.00102522
0.00200654
0.00112131
0.00141257
0.000979553
0.00205348
0.00123857
0.000779534
0.000980607
0.000792877
0.000892773
0.000795239
0.00105118
0.00101508
0.000735095
0.000760191
0.000720286
0.000774349
0.000745657
0.00100083
0.000886098
0.000708259
0.000717485
0.000714971
0.000743777
0.000734442
0.000883608
0.000878801
0.000701186
0.000715938
0.000714547
0.000731534
0.000717064
0.00087857
0.000881047
0.0171706
0.0272304
0.0156021
0.0155391
0.0115497
0.0316607
0.0164244
0.0107355
0.0130607
0.010802
0.00960068
0.00566289
0.0150111
0.00966268
0.00287167
0.00939272
0.00383758
0.0045187
0.00282943
0.00793654
0.00436898
0.00125515
0.00292868
0.00176548
0.00249723
0.00132268
0.00382987
0.00192053
0.000782136
0.00143278
0.000849089
0.00108573
0.00100977
0.0014712
0.000842824
0.000714532
0.000784541
0.000717985
0.000986879
0.000828685
0.000780049
0.000718377
0.000705804
0.000713687
0.000705692
0.000809846
0.000829279
0.000713717
0.000706128
0.000704779
0.000704544
0.000702149
0.000859874
0.000867624
0.000705582
0.000702523
0.0148419
0.0242417
0.0182791
0.0336565
0.0173409
0.0318956
0.0270092
0.0109997
0.0124666
0.00590237
0.0147952
0.00973306
0.0153416
0.00556678
0.00437958
0.00476221
0.0026845
0.00827621
0.00532419
0.00441431
0.0028785
0.00175952
0.00247906
0.00163082
0.00475156
0.00199642
0.00256796
0.00163257
0.000871179
0.00155761
0.00110169
0.00150596
0.000869041
0.00152969
0.00106561
0.000738437
0.00107452
0.000879234
0.000803231
0.000737765
0.00104308
0.000870731
0.000723242
0.000843018
0.000804645
0.000734871
0.000724542
0.000833003
0.000803118
0.000709767
0.000805178
0.000767723
0.000723093
0.000709938
0.00080287
0.000768662
0.0145314
0.00494293
0.00238622
0.0565984
0.0555364
0.029581
0.0146557
0.0224588
0.00264337
0.00618021
0.044845
0.0318163
0.0101748
0.00625077
0.00512401
0.00679566
0.00244731
0.0214959
0.00600007
0.00645621
0.00675698
0.00229345
0.00171907
0.000987523
0.0055063
0.00211721
0.00289416
0.000991108
0.000914491
0.000888518
0.000787739
0.00164835
0.000911761
0.000888247
0.000788339
0.000928793
0.000778224
0.000744022
0.000933122
0.000928818
0.000778753
0.000744195
0.000815912
0.000736564
0.000720239
0.00089484
0.000815935
0.000736599
0.000720411
0.00083993
0.000719046
0.000713274
0.000831294
0.000839862
0.000719291
0.000713918
0.00259217
0.00615644
0.00703558
0.0224518
0.0127611
0.0123371
0.00787866
0.00485562
0.00610172
0.00387627
0.00963125
0.00618955
0.00653207
0.00382366
0.00175414
0.00330229
0.00229823
0.0068865
0.00264046
0.0031941
0.00204287
0.00126735
0.00124529
0.0014752
0.00141646
0.0012948
0.00122898
0.00147058
0.00109149
0.000859447
0.000960799
0.000916163
0.000926676
0.000889661
0.00107305
0.000782672
0.00139938
0.00118236
0.000801119
0.000783002
0.00141619
0.00120978
0.000765124
0.00117968
0.00123411
0.000780958
0.000766315
0.00121143
0.00127097
0.000718617
0.00131534
0.00130118
0.000760486
0.00072058
0.00135983
0.00136798
0.00949442
0.0323926
0.0183146
0.0104082
0.00734658
0.0318882
0.0297006
0.00495099
0.0172433
0.0110144
0.0065987
0.00382663
0.0284199
0.0178715
0.00268858
0.00839093
0.00365377
0.00317254
0.00213141
0.0133492
0.0051687
0.00270662
0.00242479
0.00321823
0.00244911
0.00276327
0.00224653
0.00296138
0.00106597
0.00125365
0.00120843
0.00116748
0.000994834
0.00107222
0.00128173
0.0010568
0.000781682
0.000720571
0.00129384
0.00105664
0.000776604
0.000720355
0.00108973
0.000715681
0.000707991
0.00102727
0.00111112
0.000715703
0.000708037
0.0012513
0.000707496
0.000705177
0.00127209
0.00129967
0.000707516
0.000705318
0.0201525
0.0402532
0.0340585
0.0655496
0.0340401
0.108532
0.0553222
0.0109011
0.0180972
0.00572628
0.0299184
0.0197308
0.0284217
0.00873353
0.00419533
0.00445516
0.0029237
0.0153567
0.00592205
0.00712297
0.00354742
0.002065
0.00270505
0.00168124
0.00423866
0.00185431
0.00303617
0.00178395
0.000875715
0.00154186
0.00106818
0.00145556
0.000864859
0.0015989
0.001085
0.000737686
0.00104633
0.00087241
0.000800299
0.000737576
0.00105713
0.000873551
0.000724693
0.000835157
0.000803476
0.000734688
0.000725192
0.000836148
0.000803593
0.000710627
0.000803168
0.000768815
0.000723865
0.000711155
0.000803378
0.00076856
0.0626725
0.0548107
0.0242654
0.178579
0.0428402
0.0850175
0.0273048
0.0340631
0.0170633
0.0134145
0.0426616
0.0332102
0.0213943
0.0188548
0.00831429
0.0182207
0.0136965
0.0262152
0.00911218
0.0180084
0.014293
0.00226963
0.00516988
0.00103303
0.00731862
0.00233038
0.00564124
0.00104743
0.000911705
0.000900367
0.000782143
0.0017376
0.000871806
0.000902909
0.000770678
0.000928653
0.000771129
0.000733998
0.000915294
0.000942241
0.000761457
0.00072951
0.000815766
0.00072923
0.000715174
0.000910766
0.000814677
0.000724187
0.000707913
0.000839028
0.000714783
0.000710736
0.000831231
0.000858773
0.000707492
0.000703909
0.0222559
0.0309402
0.0150617
0.0669786
0.0272546