/*--------------------------------*- C++ -*----------------------------------*\
  =========                 |
  \\      /  F ield         | OpenFOAM: The Open Source CFD Toolbox
   \\    /   O peration     | Website:  https://openfoam.org
    \\  /    A nd           | Version:  10
     \\/     M anipulation  |
\*---------------------------------------------------------------------------*/
FoamFile
{
    format      ascii;
    class       volScalarField;
    location    "0.5";
    object      omega;
}
// * * * * * * * * * * * * * * * * * * * * * * * * * * * * * * * * * * * * * //

dimensions      [0 0 -1 0 0 0 0];

internalField   nonuniform List<scalar> 
12920
(
0.292814
0.314289
0.362553
0.356979
0.313936
0.275744
0.255717
0.237721
0.214942
0.19095
0.169168
0.153414
0.146732
0.145176
0.144946
0.144923
0.144914
0.144901
0.144899
0.144899
0.284044
0.444048
0.364368
0.320349
0.304564
0.268591
0.251445
0.208948
0.178153
0.158762
0.150082
0.146387
0.145182
0.144961
0.144932
0.144926
0.144922
0.144911
0.144908
0.144902
0.668339
0.546979
0.416523
0.31165
0.364301
0.335551
0.29134
0.207033
0.162603
0.149185
0.145816
0.14512
0.144966
0.144942
0.144939
0.144938
0.144926
0.144919
0.144903
0.144902
0.85097
1.28307
0.456324
0.373394
0.390493
0.301621
0.247002
0.169421
0.148522
0.14561
0.145042
0.144959
0.14494
0.144936
0.144929
0.144929
0.14492
0.144919
0.144908
0.144905
0.93613
0.746848
0.43451
0.465627
0.47991
0.255766
0.193214
0.156875
0.147198
0.145318
0.144975
0.144925
0.144919
0.144929
0.144929
0.144935
0.144919
0.14492
0.144903
0.144907
1.20568
0.685252
0.497089
0.647185
0.497549
0.204818
0.191566
0.158271
0.151978
0.145945
0.145689
0.14515
0.144958
0.144914
0.144911
0.144922
0.144916
0.144921
0.144908
0.144908
0.583155
0.537329
0.546225
0.691491
0.595287
0.282049
0.205809
0.157716
0.180438
0.155287
0.158494
0.150213
0.145624
0.144732
0.144297
0.144398
0.144575
0.144787
0.144863
0.144899
0.717098
0.393022
0.460566
0.45057
0.385583
0.258486
0.372029
0.299159
0.294741
0.320957
0.306699
0.301014
0.29838
0.298373
0.13899
0.13905
0.139917
0.142274
0.143739
0.14456
1.69126
0.4994
0.324688
0.251875
0.21429
0.419055
0.783774
0.639707
0.618745
0.622709
0.655806
0.637936
0.634777
0.636391
0.292971
0.13401
0.136371
0.139711
0.1422
0.143976
8.6803
4.41566
1.24092
0.469825
0.299493
0.378055
0.723451
0.635828
0.620711
0.637777
0.648202
0.634647
0.634784
0.634807
0.283438
0.131649
0.134738
0.138677
0.141703
0.143815
3.12416
1.98363
0.838056
0.670932
0.53841
0.620509
0.960368
1.03197
0.682704
0.62769
0.642402
0.633623
0.634336
0.633937
0.28234
0.131675
0.134766
0.138669
0.141686
0.143803
1.00952
0.816197
0.551634
0.476156
0.404646
0.665138
1.61206
1.48465
0.746471
0.628497
0.639735
0.634796
0.634918
0.635006
0.286525
0.135093
0.136809
0.139761
0.142194
0.143968
1.48939
0.90431
0.391189
0.447068
0.433573
0.52414
0.976967
0.707645
0.403101
0.305897
0.300866
0.299645
0.297606
0.297796
0.139058
0.139271
0.140352
0.142533
0.143847
0.14459
0.77882
0.852401
0.633509
0.510418
0.55048
0.600782
0.588115
0.477823
0.311594
0.218549
0.166217
0.149717
0.145671
0.144935
0.144729
0.144764
0.144807
0.144878
0.144903
0.144911
2.38554
1.6918
0.777575
0.470124
0.553185
0.593196
0.582889
0.510156
0.36135
0.266664
0.195683
0.157986
0.147018
0.145206
0.144963
0.144938
0.144928
0.144933
0.144923
0.144916
1.8952
3.89681
2.07667
0.785337
0.491037
0.491943
0.502386
0.464712
0.360016
0.256384
0.185798
0.152865
0.145987
0.145029
0.144937
0.144929
0.144937
0.14493
0.144927
0.144918
5.32773
4.05506
2.07754
0.874152
0.476983
0.366495
0.347282
0.284173
0.231846
0.167012
0.150354
0.145603
0.145035
0.144934
0.144925
0.144919
0.144935
0.144922
0.144924
0.144915
4.1123
3.25572
1.29093
0.687181
0.459977
0.324402
0.267085
0.199263
0.166836
0.149954
0.146127
0.145133
0.144977
0.144938
0.14493
0.144914
0.144917
0.144918
0.144925
0.144916
3.49226
1.35016
0.506573
0.530501
0.402764
0.249809
0.205073
0.16066
0.149746
0.145471
0.144792
0.144788
0.14486
0.144909
0.144918
0.144918
0.144911
0.144913
0.144922
0.144914
1.04614
0.637528
0.421708
0.310991
0.241725
0.170571
0.153244
0.146273
0.145237
0.144964
0.144913
0.144907
0.144921
0.144917
0.144919
0.144915
0.144895
0.144902
0.144905
0.144913
0.0875413
0.124258
0.156569
0.18533
0.178677
0.135386
0.117518
0.115437
0.109842
0.091978
0.0725089
0.0616271
0.0580066
0.0571629
0.0569833
0.0569513
0.0569332
0.0569353
0.0569361
0.0569491
3.48164
17.7476
18.71
14.5198
16.5945
13.559
11.7
9.8423
7.36216
6.36248
4.61901
4.43439
5.08483
5.90894
6.49043
6.67944
6.86653
6.90151
6.97701
7.01143
21.7604
15.7281
20.5575
23.1189
26.3231
23.6797
18.9552
11.9226
8.34089
6.97216
6.50114
6.51565
6.82469
6.99389
7.06808
7.07756
7.08015
7.0772
7.08059
7.08509
8.89786
40.4582
33.3949
29.7153
27.8645
22.5576
20.0935
11.1586
9.00028
7.73598
7.56853
7.27726
7.24009
7.14193
7.12187
7.09439
7.08794
7.07963
7.08251
7.08651
5.92156
14.9042
29.6643
35.3242
32.816
19.3318
18.384
12.5388
9.61564
7.95896
7.62822
7.28301
7.23833
7.13905
7.13087
7.09754
7.08948
7.0804
7.08343
7.08692
27.4471
17.4493
21.4944
37.1811
31.319
15.105
17.2734
12.3456
11.4985
8.66545
8.15765
7.3987
7.30941
7.15799
7.1272
7.09943
7.09072
7.08222
7.08501
7.08787
13.6571
8.54814
25.3672
30.0341
29.7051
17.8246
12.896
10.8621
14.5852
9.37967
9.26229
7.95271
7.58231
7.24186
7.19289
7.12151
7.09698
7.08353
7.08579
7.08844
16.7549
5.90486
23.4324
10.5431
4.82741
11.385
5.42814
11.2237
16.9469
22.3207
13.5785
10.962
9.17763
8.03698
7.37133
7.21122
7.14394
7.10535
7.09756
7.09212
9.06286
10.8525
10.2816
3.20547
1.16668
3.06362
3.55115
2.95172
7.19069
11.343
9.5574
8.00523
7.8744
7.6536
7.48202
7.23813
7.18938
7.14076
7.11967
7.102
137.365
19.8711
19.2914
15.2959
3.51353
1.28826
1.09175
1.39203
1.97032
7.7648
7.88065
7.37423
7.24059
7.1505
7.14092
7.14372
7.10565
7.0921
7.09283
7.09307
83.6323
34.9589
22.7237
26.1711
10.9005
2.3705
3.20238
17.0534
9.39327
9.3058
8.141
7.31499
7.16603
7.14483
7.1378
7.12645
7.10726
7.09313
7.09363
7.09353
116.384
8.70278
8.69682
6.87853
3.37689
11.8714
24.5095
19.1657
19.1215
12.4862
9.26524
7.49215
7.26278
7.21292
7.28504
7.25554
7.19605
7.14153
7.11864
7.10177
18.7875
5.83586
3.82404
14.992
15.6133
20.7489
21.8965
19.2883
14.1168
10.4215
9.8145
8.25938
7.73028
7.43608
7.23296
7.15322
7.12432
7.09923
7.09674
7.09281
14.9781
15.9608
3.01416
18.0659
21.2634
22.367
21.8645
17.2762
12.9385
7.64338
6.9616
6.53882
6.78394
6.94056
7.05892
7.07752
7.08507
7.08319
7.08658
7.08982
86.2462
31.087
11.9911
19.469
21.3276
22.5303
21.5854
15.7817
6.69493
2.92671
3.1121
5.16784
6.52224
6.93889
7.05985
7.08008
7.08401
7.08181
7.08492
7.08825
88.8082
89.3939
51.342
40.0657
26.9871
21.7103
13.463
4.4089
1.49324
1.22878
2.66203
5.84011
6.58453
6.96228
7.04114
7.07607
7.07906
7.07915
7.08259
7.0872
82.9737
87.3526
51.7458
47.9262
15.5034
6.20911
1.79396
1.54554
1.36447
4.03838
5.37245
6.63457
6.898
7.05841
7.07846
7.08624
7.08272
7.07965
7.08232
7.08646
45.9598
29.6325
32.5829
34.2923
31.2454
24.2734
12.0742
10.3706
6.85113
7.12204
6.92604
7.04171
7.05957
7.09447
7.09031
7.08713
7.08012
7.0775
7.0805
7.08537
24.2635
29.712
25.4958
31.9972
23.757
16.0516
12.7512
9.47517
8.51622
7.58979
7.4423
7.12213
7.09003
6.98324
6.99458
6.96036
6.9821
6.9749
7.00265
7.03111
0.18604
0.276103
0.190646
0.119985
0.0962231
0.0747942
0.0703717
0.0598855
0.0578284
0.0569746
0.0563792
0.0565753
0.0565265
0.0567296
0.0567528
0.0568728
0.0568816
0.0569304
0.0569321
0.0569543
0.0582332
0.140208
0.166079
0.290734
0.275685
0.175056
0.108774
0.0828582
0.0753936
0.0679449
0.0623327
0.0583717
0.0571838
0.0569835
0.0569444
0.0569389
0.0569313
0.0569346
0.0569358
0.056949
6.66897
21.0058
27.8668
26.082
26.1292
14.965
9.13635
6.12045
4.94693
4.05166
4.13137
4.6938
5.61095
6.10341
6.56498
6.70395
6.87403
6.90492
6.97708
7.01248
48.4744
28.0648
29.2423
35.1902
33.9811
31.0491
23.9438
13.1835
8.71493
7.17178
7.00745
7.00534
7.09754
7.1046
7.10651
7.09009
7.08371
7.07803
7.08106
7.08601
44.2105
32.5841
39.9454
50.0326
37.3896
37.4719
27.6243
12.587
9.66287
7.93624
7.73033
7.37497
7.29166
7.16428
7.13078
7.09805
7.08902
7.08021
7.08309
7.08742
32.7051
24.5173
30.6596
44.718
41.2813
24.7307
21.3167
13.0413
9.84302
8.14067
7.68851
7.32037
7.25546
7.1444
7.13328
7.09828
7.08969
7.08049
7.08355
7.08789
35.8677
43.6945
34.686
53.901
44.9125
18.4902
20.9596
14.2658
12.4126
8.66539
8.20396
7.43065
7.32619
7.16583
7.13161
7.10183
7.09166
7.08256
7.08536
7.08909
15.4325
42.5753
41.4176
39.1122
38.9094
26.9709
23.912
13.6708
15.5393
9.63586
9.35234
7.95747
7.59252
7.25098
7.19378
7.12191
7.09799
7.08519
7.08727
7.09023
57.8217
34.5747
26.418
11.6656
10.788
18.3926
26.422
15.9275
20.5044
23.3893
13.9517
11.0396
9.22863
8.04931
7.36324
7.20841
7.14297
7.10512
7.0978
7.09453
35.4738
31.0982
24.5963
10.9703
8.02393
10.5429
13.7627
13.2158
17.9192
14.6051
10.0968
8.03944
7.87398
7.65459
7.48907
7.23438
7.18729
7.13946
7.11958
7.10435
131.504
40.9756
44.4601
39.3411
15.2581
3.65436
2.34406
4.05443
11.5571
9.19332
7.87504
7.4777
7.36596
7.27685
7.02045
6.86429
7.04431
7.08032
7.09075
7.09434
103.151
69.6251
50.1219
54.6999
10.7675
5.95071
18.1606
17.7068
14.2617
12.0141
6.70556
6.07871
6.96973
7.32094
6.764
7.08191
7.09491
7.09223
7.0937
7.09437
231.992
137.993
45.9397
24.4597
10.7772
18.4821
27.7574
21.1346
17.6417
12.9998
9.65124
7.50405
7.26086
7.21814
7.28599
7.25456
7.19457
7.13992
7.11863
7.10432
210.251
55.4033
11.7789
21.7404
23.7808
24.0677
22.7118
20.7481
14.8174
11.3242
10.2275
8.39522
7.77041
7.45596
7.23505
7.15422
7.12361
7.09919
7.0978
7.09536
61.1075
27.0278
11.0588
17.5607
24.7385
24.0076
23.1273
16.5735
12.5868
9.44024
8.54355
7.67527
7.40948
7.19545
7.15332
7.10632
7.09446
7.08532
7.08797
7.09128
64.05
36.7737
24.251
26.7715
27.3003
26.0428
16.3349
9.21448
8.93635
8.96711
8.42737
7.81336
7.39183
7.20324
7.13612
7.10151
7.08921
7.08225
7.08519
7.08935
74.5042
73.6526
49.6663
37.3435
27.9845
23.4794
10.8978
5.23806
3.89433
6.38284
7.92387
7.82767
7.33302
7.1948
7.11749
7.0984
7.08449
7.08036
7.08309
7.08805
79.7038
89.9603
50.9274
31.0694
16.9064
15.7271
7.12804
7.76152
6.93121
7.87279
7.68387
7.45967
7.2136
7.15682
7.10581
7.09468
7.08325
7.07968
7.08247
7.08731
13.6872
51.5345
34.9084
30.774
26.916
24.1718
16.3201
11.7669
8.95965
8.15696
7.58874
7.37378
7.20175
7.15008
7.10578
7.09283
7.08141
7.07776
7.08082
7.08627
15.9101
21.2415
25.7343
18.7981
11.7308
14.2712
14.7229
10.4185
9.12716
7.79206
7.554
7.15728
7.11156
6.98468
6.99569
6.96104
6.9823
6.97489
7.00271
7.03204
0.0912626
0.104679
0.123572
0.0993502
0.0944173
0.0727825
0.0876332
0.0667032
0.0601248
0.0572065
0.0563767
0.0565595
0.056516
0.0567266
0.0567519
0.0568728
0.0568815
0.0569302
0.0569319
0.0569541
0.104396
0.178038
0.197624
0.502074
0.383956
0.252051
0.145924
0.079084
0.0617912
0.0582562
0.0575276
0.0571009
0.0569798
0.0569566
0.0569405
0.0569375
0.0569313
0.0569344
0.0569357
0.0569491
18.7805
34.515
36.883
67.331
44.3991
22.7953
10.5941
6.38424
7.01978
6.27514
5.50328
5.11793
5.69369
6.17183
6.5981
6.71881
6.88326
6.91278
6.98451
7.02136
47.3066
54.4238
47.7314
45.5679
49.268
50.2539
45.2896
24.0831
14.0674
8.87967
7.37978
7.08432
7.12176
7.11582
7.11445
7.09686
7.09106
7.08541
7.08892
7.09524
93.9419
45.0229
49.4928
94.628
71.6407
57.5975
45.9031
22.1135
15.5069
9.12305
8.04888
7.3773
7.28899
7.16785
7.1367
7.10421
7.09571
7.0873
7.09077
7.09659
102.026
57.6622
42.9222
89.5036
76.387
37.5132
31.9508
18.0253
11.0861
8.42455
7.68332
7.31741
7.25502
7.14944
7.13953
7.10543
7.0974
7.08839
7.0921
7.09755
16.3437
53.1833
45.5385
79.115
73.3293
39.7314
37.4694
18.8046
13.0326
8.73573
8.21718
7.4422
7.33645
7.17664
7.1437
7.11207
7.10093
7.09061
7.09347
7.09804
14.8142
59.3822
50.76
71.6886
66.5042
50.6332
40.598
15.5811
15.4971
9.28771
9.25314
7.95456
7.58038
7.24719
7.1989
7.12873
7.11012
7.09861
7.10173
7.10352
109.802
36.1568
30.4016
46.3775
51.9149
36.6575
35.0587
16.2996
19.8583
22.9882
13.639
10.9767
9.17958
8.03908
7.38878
7.22016
7.14994
7.11136
7.10472
7.10383
61.5284
46.9643
41.4041
41.8563
37.7321
30.179
35.6839
31.8634
25.2028
17.1417
9.94683
8.03144
7.87361
7.65464
7.48281
7.25424
7.20136
7.14613
7.12497
7.11252
114.488
73.1597
62.7311
32.9476
14.7262
28.2227
24.6653
20.3824
28.367
10.3793
7.84079
7.42768
7.29342
7.24616
7.21059
7.16361
7.11433
7.09705
7.09789
7.10171
227.1
49.3926
44.4815
34.4137
14.9641
20.1568
21.0658
18.3508
12.911
10.6151
8.222
7.72764
7.37289
7.44235
7.26773
7.14759
7.12039
7.09871
7.09905
7.10186
46.5678
80.2095
34.133
32.3215
24.7714
21.7401
34.9476
27.1869
23.2292
14.0996
9.31465
7.49008
7.26131
7.21617
7.28475
7.27847
7.20687
7.14577
7.12399
7.1153
24.3793
85.1444
29.6702
47.6935
55.4349
45.6063
35.2582
26.5396
15.992
11.8497
10.636
8.45142
7.77518
7.45906
7.25734
7.16809
7.13195
7.10727
7.10829
7.11124
54.3241
82.1441
42.6498
38.6542
50.876
40.5084
32.1485
18.1702
12.5221
9.25227
8.43822
7.60435
7.39075
7.19001
7.15977
7.11577
7.10418
7.09564
7.09926
7.10547
37.1632
71.986
41.8357
33.4011
31.7113
22.4778
17.6777
13.8788
10.9831
9.6858
8.70303
7.83973
7.39206
7.20669
7.14618
7.11234
7.10012
7.09271
7.09597
7.10227
45.9148
89.888
78.8218
47.2952
31.1353
21.6595
11.9052
10.8086
9.35672
9.31501
8.60095
7.74111
7.31799
7.19845
7.12833
7.10893
7.0952
7.09078
7.09377
7.10087
17.8893
78.8401
61.4026
44.0426
18.553
19.1608
14.2561
11.5887
9.56886
8.60925
7.8098
7.46809
7.2268
7.16606
7.11775
7.10579
7.09464
7.09063
7.09376
7.10052
17.6984
44.0293
26.0463
18.5235
16.184
18.1202
20.1098
17.7914
11.9395
9.15795
7.77405
7.40058
7.21571
7.1599
7.11723
7.10352
7.09257
7.08848
7.09193
7.09941
8.48009
3.00882
9.2331
3.04906
3.16742
8.27418
22.4267
16.0849
14.3089
9.75816
8.4093
7.42534
7.21913
7.00642
7.00969
6.9725
6.99404
6.9868
7.01483
7.04564
0.0610291
0.0738435
0.0917399
0.0888014
0.0841813
0.0705419
0.13505
0.0858702
0.0899997
0.0677998
0.0603666
0.0572654
0.0567656
0.0567877
0.0567693
0.0568684
0.0568813
0.0569313
0.0569325
0.0569543
0.071571
0.170981
0.165454
0.173015
0.321532
0.319851
0.24389
0.140871
0.0835118
0.0621333
0.057758
0.0572021
0.0572601
0.0575161
0.0585618
0.0589329
0.060107
0.0596783
0.0600353
0.0587354
11.4147
28.8382
32.1766
31.3738
54.9593
49.618
23.3913
7.10108
9.7244
14.0077
30.0057
30.9261
37.9706
38.0992
41.3815
40.9596
42.3458
42.0099
42.627
42.9148
22.4592
83.8368
101.272
66.9009
67.5625
71.7804
80.1403
54.8195
51.4105
42.6095
46.448
42.8551
45.3263
43.163
44.3436
43.0572
43.6427
43.0378
43.3493
43.398
95.0957
97.4326
126.83
101.605
101.688
74.5518
69.8045
48.4084
48.8917
39.8551
43.5196
39.8247
42.3439
40.8557
42.2415
41.6825
42.4801
42.3184
42.7125
43.0736
87.4736
68.2864
113.866
102.792
110.08
72.281
71.1275
50.6161
52.4224
43.4431
45.0947
41.4021
43.325
41.6875
43.0276
42.3547
43.1298
42.8472
43.2069
43.3726
34.4992
92.0282
107.151
88.6969
96.2077
78.981
79.6802
53.148
47.7742
39.9173
39.9934
38.7463
40.0594
40.2358
40.9291
41.2605
42.0853
42.2996
42.7267
43.1176
27.0776
49.1453
70.8006
57.8221
81.7253
71.4328
78.9501
63.8454
52.3085
39.5471
40.8221
37.5967
40.5839
39.919
41.4663
41.6845
42.6669
42.7872
43.1965
43.4186
121.296
97.9003
102.097
89.2113
96.8071
79.267
43.8259
55.6396
26.0565
26.822
21.5316
8.96113
14.6843
8.88021
43.1355
40.7669
39.9668
40.4357
41.8358
43.0328
248.108
101.685
95.0084
84.9845
73.7377
64.629
54.5304
35.4383
32.7938
18.2521
9.84867
8.03152
7.87633
7.64431
9.12041
42.0296
37.7964
37.646
39.3837
42.3782
92.1393
109.218
81.2711
100.456
60.5929
49.1415
35.9344
27.57
37.6327
10.774
8.0793
7.37835
7.21902
7.15177
8.69747
42.5537
38.2623
38.1382
39.8153
42.6
132.798
76.9632
74.7655
84.8885
66.5796
29.4251
25.9441
22.3001
17.1286
14.4571
9.49027
7.36771
7.16291
7.13918
8.90521
43.2503
38.663
38.4615
39.9918
42.8326
86.1885
75.2757
98.5999
92.3578
105.847
60.1499
38.9723
38.1429
29.8285
20.4437
10.4014
7.51108
7.25869
7.21054
9.32896
44.1691
39.4811
39.0468
40.3214
43.0831
29.5457
113.773
136.438
102.607
112.947
77.4221
61.8055
56.0913
36.9752
16.8501
16.862
11.2813
11.0382
9.44925
46.9499
43.9506
42.6256
42.8197
43.6571
44.4487
44.8646
151.217
140.95
98.0197
111.607
76.8513
81.1054
59.4736
52.8931
47.3236
47.3065
46.447
47.292
46.153
46.0123
45.6209
45.5793
45.2787
45.1531
44.9895
87.1093
150.772
93.5118
86.1574
91.7218
63.2677
68.5233
51.7545
49.9044
45.721
46.4667
46.6777
48.1735
47.7199
47.4302
46.4697
46.2142
45.6877
45.5091
45.3429
50.4538
108.571
101.198
85.7188
94.01
63.3736
64.6313
48.8992
48.928
44.0346
47.9849
46.7521
48.9042
47.0003
47.3227
46.1265
46.1701
45.6211
45.5961
45.4197
25.02
54.2824
76.0257
85.1417
70.988
52.8567
63.1654
45.4107
52.4629
44.5952
50.0132
46.3467
48.7639
46.6589
47.3876
46.2302
46.3818
45.8125
45.775
45.5864
10.2957
10.7024
3.43918
2.70035
6.43115
18.5337
55.8868
44.9738
53.636
45.2776
50.4799
45.8015
48.4824
45.8941
47.1028
45.7586
46.2245
45.5875
45.7585
45.6124
0.673911
1.06554
1.29655
0.70132
0.761656
2.1539
38.2106
35.3647
50.1187
41.2703
48.4184
43.4619
47.2323
44.691
46.5403
45.2193
46.0042
45.3592
45.6923
45.5809
0.0975631
0.0688173
0.0714455
0.0692164
0.064666
0.0609726
0.0707479
0.070938
0.184155
0.130276
0.174446
0.121
0.130988
0.0925115
0.0942629
0.0723455
0.0727193
0.0624126
0.0636279
0.0589875
8.14738
11.1301
9.47297
9.43293
8.10484
10.6247
9.1976
7.55992
8.44707
8.04778
7.85174
7.56582
8.25144
7.91009
8.42406
12.2267
10.6544
11.1792
7.91632
12.8785
10.1104
6.32491
9.53409
7.64313
6.41961
6.17103
9.21595
7.60183
0.651702
0.771319
0.741652
1.28278
1.40085
1.23119
1.26857
0.622501
0.708863
0.620448
1.59433
1.87367
1.32978
1.89669
0.614439
0.623909
0.633147
1.80131
1.78367
1.86221
1.77844
0.662695
0.64038
0.649588
3.70712
9.10846
2.43638
6.03864
0.635898
0.646076
0.634917
8.77934
7.81061
6.56142
7.24292
0.636163
0.634775
0.634997
7.96089
8.07419
7.28459
7.24257
0.639404
0.63502
0.634998
7.92708
7.59353
7.22528
7.15896
0.639132
0.635004
0.659407
7.66237
7.88467
7.15852
7.14486
0.682697
0.745595
0.810644
1.13765
1.45166
1.05452
4.62442
0.619382
0.806993
0.666463
1.74055
1.92303
5.59368
4.72558
0.630536
0.637888
0.625748
1.79226
1.79222
3.52133
2.93961
0.65133
0.626945
0.642018
2.3584
5.94229
3.13627
5.54161
0.63495
0.642565
0.635244
6.52367
7.23509
6.20386
7.14464
0.634725
0.634071
0.634462
7.2737
7.25434
7.19809
7.1947
0.634757
0.634525
0.633861
7.2238
7.15641
7.17914
7.17096
0.659956
0.634186
0.658385
7.15036
7.13886
7.16509
7.15955
1.03946
1.45495
1.50259
1.64097
12.5792
5.99849
21.0092
0.763369
1.47566
0.97569
15.0484
12.4436
21.2642
20.9047
0.627153
0.800453
0.634805
7.20181
3.10457
18.6336
9.87019
0.641619
0.630756
0.638129
3.15247
5.52433
8.45364
6.31283
0.635022
0.640656
0.635542
6.207
7.1308
6.39514
7.20707
0.634001
0.634657
0.634472
7.17741
7.17369
7.22635
7.18718
0.634044
0.634565
0.634646
7.16086
7.14085
7.1735
7.14256
0.658602
0.634802
0.660402
7.14016
7.12648
7.13993
7.12778
1.54661
1.75505
1.50404
8.85056
20.5021
6.0483
21.0983
0.889706
1.35321
0.836501
20.0832
19.4754
18.8616
9.17516
0.632045
0.738214
0.620986
17.0359
10.4853
6.15336
2.2229
0.636913
0.615844
0.614858
9.02587
6.496
2.31663
5.65328
0.635319
0.613316
0.616373
6.51041
7.26078
6.18582
7.12897
0.634921
0.617146
0.618598
7.28331
7.2642
7.43038
7.39803
0.635005
0.617868
0.620163
7.25862
7.21556
7.35872
7.44697
0.658927
0.619493
0.620429
7.21169
7.17135
7.46102
7.59975
2.19745
1.577
1.32767
6.02705
5.97382
2.40139
1.4099
8.91049
1.31246
1.44489
9.16743
15.1085
1.46399
4.09143
5.92132
1.52037
7.22604
13.6612
14.6235
9.02108
10.642
10.7243
8.07809
8.01272
14.4714
11.0627
9.44009
8.02221
7.89706
7.72979
7.39888
9.81822
7.92942
7.74037
7.44629
8.00495
7.37035
7.25032
8.02453
8.00371
7.40907
7.26501
7.58695
7.2289
7.15957
7.8743
7.58541
7.24638
7.18721
7.70585
7.15872
7.1413
7.65287
7.67581
7.18621
7.16858
1.26226
1.49656
5.52812
1.32855
1.33292
5.20451
13.7688
1.68249
6.92756
7.12937
1.67938
9.28561
14.1568
13.6135
6.88767
7.16277
9.07885
10.7223
9.4783
12.7292
11.6429
8.13755
9.41312
8.45622
9.00957
8.10398
10.9519
8.84221
7.43268
8.03723
7.47144
7.82649
7.50528
8.33555
8.18881
7.27086
7.357
7.20669
7.42553
7.30329
8.08158
7.70881
7.15985
7.1959
7.18485
7.2921
7.25578
7.69801
7.66488
7.1313
7.18863
7.1849
7.24701
7.19206
7.64836
7.64237
16.5264
20.4164
21.2477
15.3181
18.4464
26.3641
21.0181
12.5989
19.8345
19.2772
17.9973
15.6692
20.4401
18.1766
8.56259
18.7417
13.0906
14.5733
12.3958
17.0544
13.7407
8.80623
11.8826
10.0476
11.9104
9.03497
13.3322
10.49
7.43356
9.22789
7.61177
8.38221
7.91111
9.42565
7.62873
7.18374
7.41656
7.19369
7.74811
7.37887
7.41933
7.19659
7.14877
7.17834
7.14774
7.36805
7.38367
7.179
7.1492
7.14385
7.14333
7.1341
7.41855
7.49402
7.14721
7.13552
20.7151
22.7264
22.8686
27.1112
20.923
24.592
24.673
19.5255
19.605
14.345
20.0876
18.3632
20.2582
15.3507
13.8981
12.6607
10.4211
17.4605
15.008
13.9235
12.2245
10.0393
10.3808
9.37023
14.6638
10.6322
11.8127
9.89911
7.69544
9.12357
8.19653
9.51575
7.72006
9.69436
8.44618
7.2733
8.19873
7.73756
7.50261
7.27137
8.37566
7.79163
7.21722
7.61475
7.53351
7.2618
7.22259
7.66029
7.54221
7.16616
7.53176
7.41283
7.21708
7.16658
7.54177
7.40799
11.2902
4.71706
2.08037
29.9894
31.7845
18.7649
13.5766
19.8502
2.42356
9.67654
29.2055
27.2965
13.0372
14.3165
14.6061
12.3012
11.1849
23.8635
15.6849
15.2566
15.4793
11.5743
9.7569
8.08821
15.4575
11.0303
10.9958
8.0859
7.95092
7.78407
7.46981
9.86378
7.94347
7.77927
7.47128
8.00313
7.4339
7.29497
8.03441
8.00329
7.43495
7.29423
7.58681
7.26433
7.19514
7.8741
7.58692
7.26292
7.1952
7.67506
7.19153
7.17346
7.65486
7.67514
7.19226
7.17497
2.2531
7.53109
15.0536
14.5491
14.1897
17.0422
17.1297
11.0566
15.1389
13.5162
14.6244
15.2078
16.0202
13.4119
9.77686
12.761
11.3372
16.2913
10.9263
12.5665
10.6295
8.98952
8.81895
9.28275
9.16927
8.94195
8.80096
9.29939
6.95822
7.7356
8.0493
7.70589
7.94458
7.4699
7.29578
7.38984
7.46584
7.08209
7.47814
7.3819
7.48739
7.22928
7.29778
7.16264
7.38803
7.35868
7.29481
7.34603
7.67079
7.2189
7.63159
8.48155
7.28167
7.22197
7.92242
8.77489
18.3151
27.0299
21.7167
18.2988
16.8168
26.1816
25.2976
15.2465
21.3238
18.9026
16.1805
13.2804
24.9571
21.7824
12.1396
17.2412
12.7202
12.3888
10.7948
19.7262
14.1683
11.7236
11.3248
12.8699
11.161
12.2478
0.399257
12.3615
7.95839
6.15558
8.65668
0.311356
7.97048
0.291446
8.59756
6.70385
7.42478
7.20575
5.97016
6.69691
7.40719
7.20507
7.19917
7.18741
7.1568
6.98782
7.2889
7.18763
7.1569
7.84009
7.15476
7.14488
7.44653
7.96257
7.15475
7.14539
21.8947
25.0537
26.4876
31.2562
25.9896
32.0406
30.6393
18.954
21.2977
15.5435
25.3317
22.7487
23.0892
17.7804
13.5312
13.9805
12.2205
21.0278
15.2711
17.1458
13.2947
10.7797
11.9353
9.95815
13.6728
10.2872
12.5733
10.1486
7.73367
9.64946
8.4165
9.36625
7.69942
9.79315
8.44314
7.27093
8.35756
7.78175
7.48938
7.2706
8.3765
7.78507
7.2233
7.6526
7.54149
7.26097
7.22534
7.64693
7.54158
7.16942
7.54143
7.40754
7.22035
7.17173
7.54164
7.40726
35.0199
26.5164
19.9707
41.77
32.7272
30.7313
23.4421
28.6445
18.51
19.57
32.9086
30.3696
22.3025
22.5663
17.6692
22.8637
20.6597
28.1479
18.3077
22.3544
20.5464
11.2402
13.1523
8.14732
17.2402
11.1672
13.4291
8.15555
7.9415
7.79656
7.45106
9.94574
7.93993
7.79346
7.40452
8.00232
7.41153
7.26425
8.0308
8.00434
7.3727
7.24799
7.58603
7.24565
7.18773
7.87528
7.58776
7.22712
7.15927
7.6741
7.1869
7.16992
7.6593
7.64852
7.1581
7.14283
20.5141
24.4538
22.0429
29.3705
23.6349
29.7166
24.9671
26.0706
21.3024
16.4393
23.0092
24.4296
24.1933
18.1189
14.0798
14.3969
11.0781
25.3293
14.2205
16.087
14.1988
8.13459
10.2027
8.68137
10.5603
8.14578
13.4046
9.78999
7.50766
8.29671
8.18391
7.82575
7.41907
8.8194
7.52799
7.3035
8.07126
7.71157
7.36725
7.26782
7.36929
7.20448
7.2564
7.70341
7.66866
7.23803
7.16059
7.19504
7.18389
7.18998
7.64428
7.63599
7.15113
7.13336
7.18731
7.17805
19.5687
27.4712
26.5123
25.735
22.5992
26.7048
29.3983
14.0428
26.285
23.9622
21.0801
16.9889
31.9389
33.7517
11.1769
21.3874
14.6997
16.2595
15.2302
31.3213
20.3559
8.69734
13.2034
10.0304
13.6119
9.59415
17.5224
10.399
7.88719
9.14174
7.57854
8.63543
7.4648
9.19834
7.55765
7.38002
7.39484
7.19432
7.32213
7.18362
7.38784
7.1914
7.40064
7.17756
7.15016
7.16637
7.14616
7.177
7.14885
7.51605
7.14839
7.13691
7.14268
7.14
7.14443
7.13385
27.5214
39.3805
32.3456
40.3505
35.311
49.9867
50.501
25.7778
27.4056
17.0269
35.7321
33.3822
48.7182
23.0998
16.1371
16.3242
13.5098
29.5594
21.5493
19.365
14.1907
10.2289
12.8005
10.4958
18.4716
10.7288
12.7568
10.4864
7.69328
10.0524
8.49435
9.45515
7.67705
10.0675
8.64193
7.27074
8.41408
7.79213
7.48016
7.27208
8.52648
7.83186
7.22168
7.6571
7.54229
7.26232
7.21824
7.68623
7.55475
7.16888
7.54194
7.40721
7.21424
7.16864
7.5594
7.39491
35.3985
38.3359
24.9222
197.98
169.511
199.122
188.969
34.995
24.5299
35.859
150.058
149.778
188.657
198.543
21.8469
38.3509
18.7559
195.384
214.102
195.728
176.213
10.9275
12.4756
8.31537
176.745
171.718
172.75
173.749
7.93281
7.89061
7.41539
175.025
184.323
175.188
174.121
7.9782
7.37549
7.23995
166.055
165.61
170.886
167.587
7.56914
7.2235
7.15869
162.875
172.746
167.349
167.48
6.53808
7.1578
7.1544
162.366
171.223
166.719
180.125
26.6398
32.6003
29.1819
199.116
211.284
186.003
195.426
37.9743
27.0329
18.6782
207.303
193.329
182.59
182.197
13.3804
16.332
14.2331
183.339
175.575
184.67
183.301
8.53918
14.0132
11.1509
173.637
174.561
182.523
181.463
7.45064
9.82344
7.63947
175.542
174.168
181.058
179.373
7.24914
7.40973
7.20669
172.014
169.106
177.463
174.734
7.15699
7.1876
7.17384
168.539
168.273
173.834
172.45
7.14866
7.16984
7.15602
167.878
180.223
172.372
182.47
23.4965
29.1748
34.6176
149.482
179.909
134.736
208.095
18.7042
36.5735
35.9906
179.077
188.2
205.855
200.579
15.4977
33.8713
21.2718
187.337
178.409
198.367
179.102
10.7847
19.1597
11.6895
177.374
178.943
175.275
174.848
7.5686
9.84026
7.58387
178.997
177.449
175.406
172.818
7.18146
7.39262
7.19043
176.31
173.89
171.885
169.58
7.14062
7.1734
7.14345
173.136
171.788
169.809
169.222
7.13057
7.14089
7.1247
171.683
182.447
169.53
181.31
37.3406
60.177
52.3027
147.337
206.722
163.915
168.624
33.8642
51.6328
33.4396
195.386
172.845
133.895
118.06
22.6469
28.9566
17.8638
178.465
175.516
128.749
140.456
12.4379
15.1973
11.2181
172.494
172.788
135.375
138.033
7.75584
10.7269
8.75517
173.962
173.146
144.187
161.47
7.26951
8.72352
8.00603
172.1
170.608
155.138
158.897
7.21445
7.98357
7.71979
170.788
170.263
159.729
166.05
7.1677
7.76142
6.05408
170.12
183.985
160.295
167.725
8.59172
8.47704
8.31093
8.09282
8.61167
8.51248
8.00027
9.29883
9.91811
10.729
11.1156
9.39568
9.89143
0.27812
7.6997
8.63346
10.016
0.337591
9.05772
5.95753
0.365775
8.90148
9.12325
8.81872
9.22055
8.74609
9.20673
8.81904
8.53456
8.06215
8.42397
8.21153
8.46291
7.95519
8.49922
9.22211
10.8561
9.70792
10.1438
9.79783
0.275296
9.172
7.6001
0.333304
8.43772
9.64597
5.87163
0.358849
8.86278
6.9043
7.6273
7.83009
7.2876
7.85564
7.33631
6.87979
3.89572
8.2428
7.93699
0.316997
8.00224
4.4765
0.307563
3.16503
7.90796
7.83789
2.17116
7.76836
3.35868
0.213418
6.90016
7.68272
7.7259
7.98827
7.45248
7.22776
7.90108
6.87475
7.2885
7.62243
7.81415
7.32888
6.91705
7.83673
3.83072
0.314821
8.07075
7.81054
4.41267
0.307038
7.85741
3.18059
1.87575
7.82899
7.68353
3.33755
0.215892
7.64783
10.6038
10.1841
9.53985
0.341889
10.8121
0.378401
9.44805
11.8416
12.6455
12.0308
12.0433
12.2644
12.0895
11.7501
11.3081
10.2346
11.6305
10.4636
11.4327
10.157
11.3114
11.2414
10.8453
10.5724
11.4264
0.366024
11.7455
11.1324
10.2661
0.336765
9.58127
9.1686
0.372008
9.21002
10.191
11.6475
12.3529
12.2862
11.9045
11.9267
11.7871
11.5834
11.0614
10.3021
9.72324
11.0118
9.9463
11.1444
10.7471
7.97818
5.55434
7.80802
1.43041
7.86998
0.267883
7.52593
8.25225
9.08488
8.63773
9.46821
8.27894
9.03021
8.60582
7.87889
7.60011
8.01132
7.62177
7.80799
7.69016
7.98091
7.91788
0.307618
5.90474
8.42317
0.289268
8.44556
7.86033
7.97879
1.20768
5.38993
7.80246
0.252873
7.56702
7.83912
8.19134
9.362
8.78018
8.46811
8.90598
8.54071
8.12814
7.8611
7.60449
7.57327
7.92437
7.69991
7.94548
7.74272
0.297044
0.359526
0.309768
1.95919
1.42053
1.34744
1.3481
0.298334
0.299621
0.299954
0.944952
1.11036
1.08705
1.44145
0.309522
0.312171
0.335859
2.76695
8.06819
1.52721
2.20329
0.309941
0.364443
0.364828
10.3222
6.27683
7.0745
11.2276
0.30496
0.356857
0.328511
8.6578
10.3638
9.93402
9.6521
0.299209
0.308398
0.301894
10.5589
7.8315
8.87075
8.73089
0.299003
0.299775
0.298018
7.53399
8.12997
8.16761
8.03228
0.300035
0.297974
0.30508
7.62055
6.70381
7.73391
8.67407
0.432687
0.385242
0.397222
0.892616
0.763581
0.972898
1.07748
1.06297
0.730105
0.786772
1.00567
1.04561
1.01148
0.744635
2.02267
0.64356
0.717663
1.45095
1.89786
2.00814
0.708117
3.58177
0.617299
0.623724
2.61217
3.68482
3.24827
0.624478
3.16575
0.639836
0.637557
3.52997
3.67883
3.1714
0.643517
4.73577
0.636595
0.647914
5.24581
6.64505
3.92377
0.641376
7.46051
0.638474
0.634855
8.68515
8.75345
7.23748
0.634927
7.57229
0.63725
0.635328
7.67829
8.02152
7.68912
0.635275
7.58841
0.636267
0.635349
7.75922
7.83753
7.62831
0.635246
0.298206
0.284055
0.290402
7.4612
7.6593
7.21354
8.21969
0.358177
0.387537
0.351354
0.673125
0.939426
0.725402
0.744211
1.58624
0.725548
0.69818
0.868447
1.19507
0.994379
0.677908
2.53259
0.62232
0.626134
2.35219
2.81866
2.4456
0.623816
2.5175
0.624461
0.623276
3.01525
2.93467
2.49898
0.625759
2.69514
0.648424
0.629257
2.82765
2.84672
2.65244
0.635981
3.7913
0.641603
0.647133
3.43418
4.32571
3.09259
0.642963
6.99924
0.634628
0.634694
6.78245
7.12152
6.58603
0.634657
7.29701
0.634774
0.634736
7.30101
7.28647
7.29205
0.634279
7.25193
0.634817
0.634309
7.26865
7.26881
7.2722
0.634464
0.291199
0.283064
0.290921
7.14575
8.11079
7.15552
8.11815
0.495668
0.65869
0.644548
0.991705
1.06982
1.09069
1.75935
2.62604
0.99445
1.05762
1.56297
2.41055
1.71661
1.16617
6.82025
0.990588
1.2451
3.97357
3.91481
6.84894
1.20757
2.37714
0.641872
0.75756
2.12358
2.02441
3.11226
0.675345
2.74837
0.629526
0.628755
2.55396
2.59672
2.65881
0.629721
2.95949
0.641509
0.639346
2.72342
3.12063
2.76013
0.638933
6.78916
0.633174
0.634131
6.31647
6.8238
6.21466
0.633938
7.33986
0.634401
0.634455
7.29681
7.31758
7.31719
0.634656
7.32887
0.633717
0.63437
7.30868
7.28926
7.3361
0.633744
0.290615
0.283203