/*--------------------------------*- C++ -*----------------------------------*\
  =========                 |
  \\      /  F ield         | OpenFOAM: The Open Source CFD Toolbox
   \\    /   O peration     | Website:  https://openfoam.org
    \\  /    A nd           | Version:  10
     \\/     M anipulation  |
\*---------------------------------------------------------------------------*/
FoamFile
{
    format      ascii;
    class       volScalarField;
    location    "0.5";
    object      p;
}
// * * * * * * * * * * * * * * * * * * * * * * * * * * * * * * * * * * * * * //

dimensions      [0 2 -2 0 0 0 0];

internalField   nonuniform List<scalar> 
12920
(
-2.3384e+06
-2.35091e+06
-2.3668e+06
-2.17295e+06
-2.09837e+06
-1.95754e+06
-1.85538e+06
-1.72044e+06
-1.60221e+06
-1.46214e+06
-1.33196e+06
-1.1916e+06
-1.05821e+06
-916927
-778892
-636553
-498040
-355688
-218386
-72711.3
-2.77631e+06
-2.41812e+06
-2.3757e+06
-2.18851e+06
-2.09973e+06
-1.96235e+06
-1.86253e+06
-1.72287e+06
-1.60134e+06
-1.46029e+06
-1.33111e+06
-1.18945e+06
-1.05535e+06
-912546
-774784
-632554
-494852
-353897
-217252
-72408.6
-2.50034e+06
-2.37288e+06
-2.38853e+06
-2.18031e+06
-2.11651e+06
-1.96663e+06
-1.86553e+06
-1.72606e+06
-1.60319e+06
-1.46032e+06
-1.3286e+06
-1.18539e+06
-1.05031e+06
-907534
-771101
-629037
-492015
-351822
-216240
-72044.7
-2.41671e+06
-2.40207e+06
-2.34633e+06
-2.1808e+06
-2.10954e+06
-1.97167e+06
-1.87111e+06
-1.72399e+06
-1.60318e+06
-1.45888e+06
-1.32524e+06
-1.18343e+06
-1.04709e+06
-904378
-766715
-625659
-488682
-349588
-214261
-71406
-2.54159e+06
-2.4519e+06
-2.38282e+06
-2.19402e+06
-2.11447e+06
-1.96959e+06
-1.86959e+06
-1.71892e+06
-1.59462e+06
-1.45542e+06
-1.32367e+06
-1.18119e+06
-1.04468e+06
-900762
-763151
-621710
-484990
-346480
-213037
-71047.6
-2.81603e+06
-2.55883e+06
-2.46805e+06
-2.22816e+06
-2.12774e+06
-1.96682e+06
-1.8581e+06
-1.70546e+06
-1.59129e+06
-1.4533e+06
-1.32207e+06
-1.18126e+06
-1.0401e+06
-898237
-758430
-617823
-481329
-344089
-211605
-70687.5
-2.80157e+06
-2.52133e+06
-2.41089e+06
-2.20941e+06
-2.11156e+06
-1.94056e+06
-1.83125e+06
-1.69448e+06
-1.57706e+06
-1.44903e+06
-1.32311e+06
-1.17522e+06
-1.034e+06
-892552
-754716
-614315
-478175
-341486
-211183
-71228.6
-2.89024e+06
-2.60159e+06
-2.45027e+06
-2.22133e+06
-2.11389e+06
-1.92856e+06
-1.83597e+06
-1.71961e+06
-1.59651e+06
-1.47135e+06
-1.34187e+06
-1.20069e+06
-1.06024e+06
-921191
-750522
-612927
-476164
-340546
-210932
-71805.3
-2.75516e+06
-2.49664e+06
-2.3923e+06
-2.17782e+06
-2.07844e+06
-1.94762e+06
-1.84237e+06
-1.71931e+06
-1.5985e+06
-1.47274e+06
-1.34233e+06
-1.2078e+06
-1.06975e+06
-932737
-776309
-612953
-476392
-339867
-211056
-71916.9
-2.74233e+06
-2.52231e+06
-2.40363e+06
-2.18125e+06
-2.06513e+06
-1.93289e+06
-1.82249e+06
-1.69726e+06
-1.57829e+06
-1.45551e+06
-1.32748e+06
-1.19661e+06
-1.06196e+06
-926919
-775733
-609055
-476021
-340897
-212132
-73618.5
-2.83436e+06
-2.45283e+06
-2.28733e+06
-2.09553e+06
-1.99114e+06
-1.89314e+06
-1.78613e+06
-1.66795e+06
-1.5529e+06
-1.435e+06
-1.30962e+06
-1.1818e+06
-1.05134e+06
-920008
-771242
-607060
-475593
-341635
-213010
-74973.3
-2.55287e+06
-2.315e+06
-2.25597e+06
-2.0337e+06
-1.94686e+06
-1.8433e+06
-1.75402e+06
-1.64291e+06
-1.52885e+06
-1.41096e+06
-1.28738e+06
-1.16333e+06
-1.03759e+06
-910996
-766038
-605578
-474692
-341644
-213446
-76079
-2.25168e+06
-2.04436e+06
-2.06349e+06
-1.92016e+06
-1.87111e+06
-1.75761e+06
-1.70179e+06
-1.59135e+06
-1.48359e+06
-1.36634e+06
-1.24634e+06
-1.1272e+06
-1.00848e+06
-887980
-734377
-603304
-473215
-341877
-213583
-77178.8
-1.83933e+06
-1.86443e+06
-1.98325e+06
-1.8629e+06
-1.83574e+06
-1.71757e+06
-1.63294e+06
-1.52284e+06
-1.42308e+06
-1.31125e+06
-1.2031e+06
-1.08631e+06
-973989
-852510
-729739
-600238
-472208
-341490
-213478
-77648.8
-1.98465e+06
-1.79596e+06
-1.88116e+06
-1.79162e+06
-1.7623e+06
-1.67022e+06
-1.59991e+06
-1.49346e+06
-1.40179e+06
-1.29271e+06
-1.18804e+06
-1.07619e+06
-967809
-849305
-726878
-597916
-470759
-340942
-213001
-77617.9
-1.6732e+06
-1.74309e+06
-1.84058e+06
-1.76632e+06
-1.74766e+06
-1.64955e+06
-1.58595e+06
-1.47738e+06
-1.38892e+06
-1.27813e+06
-1.17848e+06
-1.06658e+06
-961929
-844863
-724655
-595193
-469411
-340130
-212471
-77479
-2.02751e+06
-1.88269e+06
-1.84854e+06
-1.75696e+06
-1.71908e+06
-1.62608e+06
-1.56275e+06
-1.4579e+06
-1.37529e+06
-1.26572e+06
-1.17206e+06
-1.06018e+06
-957537
-839454
-721575
-592884
-468052
-339253
-211969
-77291.9
-1.88945e+06
-1.92018e+06
-1.86907e+06
-1.77024e+06
-1.72898e+06
-1.62271e+06
-1.55713e+06
-1.45094e+06
-1.36942e+06
-1.26045e+06
-1.16782e+06
-1.05495e+06
-952480
-834022
-717878
-590447
-466768
-338305
-211541
-77235.6
-2.40869e+06
-2.00715e+06
-1.91872e+06
-1.77811e+06
-1.72456e+06
-1.60745e+06
-1.55328e+06
-1.44209e+06
-1.3666e+06
-1.25527e+06
-1.16467e+06
-1.04994e+06
-948839
-829935
-715322
-588644
-465685
-337553
-211186
-77109.9
-2.1942e+06
-1.99113e+06
-1.94159e+06
-1.78876e+06
-1.72273e+06
-1.61153e+06
-1.5557e+06
-1.44175e+06
-1.3651e+06
-1.25314e+06
-1.16236e+06
-1.04752e+06
-946722
-827949
-713844
-587648
-465093
-337113
-210979
-77004.1
-2.50829e+06
-2.37802e+06
-2.36597e+06
-2.1745e+06
-2.09912e+06
-1.95759e+06
-1.85535e+06
-1.72108e+06
-1.6031e+06
-1.46294e+06
-1.33247e+06
-1.19156e+06
-1.05745e+06
-916132
-778532
-636200
-497892
-355660
-218641
-72719.5
-2.66793e+06
-2.4128e+06
-2.3742e+06
-2.18755e+06
-2.09904e+06
-1.96171e+06
-1.86276e+06
-1.723e+06
-1.6038e+06
-1.46105e+06
-1.33102e+06
-1.18886e+06
-1.0543e+06
-911748
-774381
-632402
-494832
-353815
-217480
-72418.8
-2.54612e+06
-2.39331e+06
-2.39306e+06
-2.18579e+06
-2.11634e+06
-1.96668e+06
-1.86405e+06
-1.72641e+06
-1.60386e+06
-1.46042e+06
-1.32859e+06
-1.18545e+06
-1.05002e+06
-907253
-770940
-628960
-491984
-351826
-216412
-72109.1
-2.51017e+06
-2.41058e+06
-2.34433e+06
-2.18037e+06
-2.10944e+06
-1.97126e+06
-1.87011e+06
-1.72409e+06
-1.6037e+06
-1.45897e+06
-1.32526e+06
-1.18342e+06
-1.04709e+06
-904329
-766686
-625644
-488659
-349552
-214325
-71415.4
-2.58919e+06
-2.44726e+06
-2.38225e+06
-2.19432e+06
-2.11598e+06
-1.96964e+06
-1.86968e+06
-1.71874e+06
-1.59469e+06
-1.45546e+06
-1.32372e+06
-1.18118e+06
-1.04466e+06
-900747
-763139
-621700
-484880
-346346
-213151
-71161.7
-2.91668e+06
-2.5783e+06
-2.46575e+06
-2.2274e+06
-2.1271e+06
-1.96622e+06
-1.85775e+06
-1.70498e+06
-1.59176e+06
-1.45341e+06
-1.3221e+06
-1.18125e+06
-1.04013e+06
-898223
-758422
-617808
-481278
-343889
-211779
-70749
-2.93671e+06
-2.53204e+06
-2.41688e+06
-2.20719e+06
-2.11207e+06
-1.93924e+06
-1.83053e+06
-1.69452e+06
-1.57713e+06
-1.44906e+06
-1.3231e+06
-1.1752e+06
-1.034e+06
-892552
-754708
-614271
-477958
-341485
-211228
-71402
-2.89831e+06
-2.61412e+06
-2.46024e+06
-2.21741e+06
-2.1129e+06
-1.92634e+06
-1.83844e+06
-1.71991e+06
-1.59652e+06
-1.47125e+06
-1.34169e+06
-1.20059e+06
-1.06017e+06
-921244
-750584
-612713
-476137
-340595
-210965
-71969.6
-2.85301e+06
-2.49374e+06
-2.3963e+06
-2.17844e+06
-2.07582e+06
-1.94769e+06
-1.84238e+06
-1.71963e+06
-1.59829e+06
-1.47265e+06
-1.34204e+06
-1.20786e+06
-1.06957e+06
-932615
-776216
-612889
-476310
-339922
-211102
-72086.4
-2.62517e+06
-2.49933e+06
-2.40944e+06
-2.17961e+06
-2.06535e+06
-1.93446e+06
-1.82193e+06
-1.69695e+06
-1.57832e+06
-1.45564e+06
-1.32752e+06
-1.19662e+06
-1.06184e+06
-926768
-775645
-609123
-476012
-340932
-212146
-73751.9
-2.81584e+06
-2.45669e+06
-2.29613e+06
-2.10213e+06
-1.99477e+06
-1.89385e+06
-1.78676e+06
-1.66777e+06
-1.5528e+06
-1.43497e+06
-1.30949e+06
-1.18178e+06
-1.05128e+06
-919989
-771281
-607078
-475581
-341662
-213009
-75082.5
-2.60576e+06
-2.27845e+06
-2.2591e+06
-2.02836e+06
-1.94761e+06
-1.84278e+06
-1.75352e+06
-1.64266e+06
-1.52806e+06
-1.41099e+06
-1.28747e+06
-1.16336e+06
-1.03763e+06
-911041
-766107
-605591
-474691
-341662
-213455
-76148.7
-2.22356e+06
-2.04745e+06
-2.06467e+06
-1.91986e+06
-1.86947e+06
-1.75738e+06
-1.70224e+06
-1.59276e+06
-1.48304e+06
-1.36589e+06
-1.24622e+06
-1.12716e+06
-1.0085e+06
-888006
-734322
-603324
-473205
-341886
-213583
-77211.2
-1.84872e+06
-1.8606e+06
-1.98453e+06
-1.86042e+06
-1.83731e+06
-1.71665e+06
-1.63303e+06
-1.5229e+06
-1.4238e+06
-1.31137e+06
-1.20267e+06
-1.08617e+06
-973669
-852359
-729689
-600228
-472196
-341487
-213468
-77652.4
-1.90712e+06
-1.80005e+06
-1.87584e+06
-1.79275e+06
-1.76353e+06
-1.67061e+06
-1.60063e+06
-1.49404e+06
-1.4017e+06
-1.29293e+06
-1.1888e+06
-1.07663e+06
-967757
-849018
-726832
-597921
-470795
-340942
-212985
-77608
-1.57783e+06
-1.73977e+06
-1.83706e+06
-1.76504e+06
-1.74815e+06
-1.64952e+06
-1.5862e+06
-1.4775e+06
-1.38933e+06
-1.27846e+06
-1.17887e+06
-1.06685e+06
-962155
-844672
-724563
-595201
-469410
-340127
-212466
-77495.2
-2.12672e+06
-1.93147e+06
-1.85603e+06
-1.76292e+06
-1.71994e+06
-1.62668e+06
-1.56286e+06
-1.45806e+06
-1.37557e+06
-1.26603e+06
-1.17264e+06
-1.06018e+06
-957488
-839357
-721537
-592896
-468046
-339251
-211967
-77314.7
-2.01516e+06
-1.9441e+06
-1.87333e+06
-1.77137e+06
-1.7317e+06
-1.62245e+06
-1.55697e+06
-1.45115e+06
-1.36992e+06
-1.26055e+06
-1.1679e+06
-1.05484e+06
-952421
-833999
-717862
-590476
-466763
-338304
-211539
-77253.3
-2.40509e+06
-2.03375e+06
-1.91869e+06
-1.77887e+06
-1.72647e+06
-1.60707e+06
-1.55282e+06
-1.44195e+06
-1.3666e+06
-1.25528e+06
-1.1646e+06
-1.0499e+06
-948878
-829969
-715330
-588659
-465682
-337550
-211185
-77124.3
-2.16183e+06
-1.99546e+06
-1.944e+06
-1.79133e+06
-1.72403e+06
-1.61162e+06
-1.55535e+06
-1.44186e+06
-1.36514e+06
-1.25311e+06
-1.16236e+06
-1.04751e+06
-946750
-827992
-713835
-587677
-465099
-337109
-210977
-77018.3
-2.53168e+06
-2.36485e+06
-2.356e+06
-2.17445e+06
-2.0986e+06
-1.95844e+06
-1.85595e+06
-1.72197e+06
-1.60436e+06
-1.46412e+06
-1.33344e+06
-1.19112e+06
-1.05615e+06
-914868
-777916
-635689
-497664
-355613
-218763
-72733.2
-2.65815e+06
-2.41188e+06
-2.3694e+06
-2.1893e+06
-2.10026e+06
-1.96138e+06
-1.86301e+06
-1.72361e+06
-1.60564e+06
-1.46173e+06
-1.33097e+06
-1.18841e+06
-1.05355e+06
-911137
-773998
-632173
-494737
-353775
-217596
-72433.9
-2.59491e+06
-2.39603e+06
-2.4019e+06
-2.18612e+06
-2.11466e+06
-1.96531e+06
-1.86318e+06
-1.72703e+06
-1.60497e+06
-1.46074e+06
-1.32875e+06
-1.18546e+06
-1.04993e+06
-906960
-770736
-628856
-491932
-351829
-216510
-72140.1
-2.48744e+06
-2.38087e+06
-2.34297e+06
-2.17978e+06
-2.11172e+06
-1.97115e+06
-1.86847e+06
-1.72444e+06
-1.60472e+06
-1.45912e+06
-1.32531e+06
-1.18339e+06
-1.04707e+06
-904262
-766638
-625618
-488632
-349534
-214373
-71426.8
-2.56724e+06
-2.40075e+06
-2.38879e+06
-2.19227e+06
-2.11575e+06
-1.96981e+06
-1.86855e+06
-1.71836e+06
-1.59474e+06
-1.45552e+06
-1.32373e+06
-1.18118e+06
-1.04465e+06
-900727
-763123
-621684
-484817
-346273
-213223
-71212.1
-2.99777e+06
-2.58743e+06
-2.46939e+06
-2.2274e+06
-2.12629e+06
-1.96627e+06
-1.85684e+06
-1.70437e+06
-1.59229e+06
-1.45357e+06
-1.32216e+06
-1.18125e+06
-1.04013e+06
-898204
-758410
-617790
-481227
-343793
-211874
-70788
-2.75502e+06
-2.50833e+06
-2.41389e+06
-2.20471e+06
-2.11255e+06
-1.93846e+06
-1.82871e+06
-1.69414e+06
-1.57716e+06
-1.44905e+06
-1.32316e+06
-1.17518e+06
-1.03399e+06
-892540
-754693
-614224
-477842
-341468
-211276
-71483.5
-2.72655e+06
-2.5891e+06
-2.45205e+06
-2.21492e+06
-2.11231e+06
-1.92514e+06
-1.83974e+06
-1.7201e+06
-1.59652e+06
-1.47114e+06
-1.34168e+06
-1.20058e+06
-1.06013e+06
-921223
-750582
-612603
-476094
-340612
-211003
-72053.2
-2.85759e+06
-2.49612e+06
-2.40128e+06
-2.17478e+06
-2.07727e+06
-1.94768e+06
-1.84509e+06
-1.72022e+06
-1.59827e+06
-1.47212e+06
-1.34197e+06
-1.2079e+06
-1.06951e+06
-932570
-776181
-612840
-476254
-339943
-211139
-72171.4
-2.77548e+06
-2.50677e+06
-2.41809e+06
-2.17901e+06
-2.0639e+06
-1.93769e+06
-1.82342e+06
-1.69836e+06
-1.578e+06
-1.45547e+06
-1.32739e+06
-1.19669e+06
-1.06181e+06
-926783
-775603
-609121
-475993
-340946
-212163
-73818.8
-2.86665e+06
-2.45895e+06
-2.29371e+06
-2.0986e+06
-1.99421e+06
-1.89403e+06
-1.78795e+06
-1.66716e+06
-1.55265e+06
-1.43176e+06
-1.30887e+06
-1.18176e+06
-1.0512e+06
-919951
-771245
-607065
-475564
-341676
-213016
-75135.6
-2.62177e+06
-2.31577e+06
-2.24676e+06
-2.0272e+06
-1.94752e+06
-1.8422e+06
-1.75236e+06
-1.64179e+06
-1.52674e+06
-1.41052e+06
-1.28744e+06
-1.16331e+06
-1.0376e+06
-911007
-766085
-605584
-474683
-341672
-213466
-76180.1
-2.25088e+06
-2.0645e+06
-2.05752e+06
-1.92061e+06
-1.86821e+06
-1.75657e+06
-1.70238e+06
-1.59404e+06
-1.48253e+06
-1.36538e+06
-1.24608e+06
-1.12694e+06
-1.00839e+06
-887950
-734277
-603338
-473196
-341889
-213589
-77218.6
-1.94636e+06
-1.85463e+06
-1.9854e+06
-1.86264e+06
-1.83731e+06
-1.71574e+06
-1.63327e+06
-1.52325e+06
-1.42432e+06
-1.31159e+06
-1.20253e+06
-1.08588e+06
-973305
-852147
-729640
-600238
-472186
-341485
-213470
-77641.2
-1.827e+06
-1.79304e+06
-1.86597e+06
-1.79384e+06
-1.76572e+06
-1.67071e+06
-1.60137e+06
-1.49401e+06
-1.40234e+06
-1.29323e+06
-1.18977e+06
-1.07704e+06
-967713
-848538
-726757
-597936
-470805
-340941
-212982
-77593.3
-1.62587e+06
-1.74009e+06
-1.8375e+06
-1.76292e+06
-1.7488e+06
-1.64986e+06
-1.58587e+06
-1.47747e+06
-1.38954e+06
-1.27882e+06
-1.17963e+06
-1.06745e+06
-962456
-844413
-724422
-595219
-469410
-340125
-212465
-77493.7
-2.00558e+06
-1.91564e+06
-1.85342e+06
-1.76341e+06
-1.72093e+06
-1.62647e+06
-1.56348e+06
-1.45806e+06
-1.37641e+06
-1.26655e+06
-1.17321e+06
-1.06022e+06
-957423
-839220
-721484
-592917
-468040
-339249
-211969
-77318.7
-2.00431e+06
-1.92441e+06
-1.87727e+06
-1.77156e+06
-1.73016e+06
-1.62316e+06
-1.55695e+06
-1.45162e+06
-1.37057e+06
-1.26085e+06
-1.16798e+06
-1.05472e+06
-952364
-833956
-717849
-590497
-466759
-338303
-211541
-77254.3
-2.39633e+06
-2.0463e+06
-1.916e+06
-1.77922e+06
-1.72662e+06
-1.60818e+06
-1.55197e+06
-1.44161e+06
-1.36665e+06
-1.25522e+06
-1.16455e+06
-1.04986e+06
-948909
-829988
-715346
-588673
-465679
-337548
-211189
-77121.7
-2.2286e+06
-2.00263e+06
-1.94309e+06
-1.78819e+06
-1.73076e+06
-1.60999e+06
-1.55524e+06
-1.44188e+06
-1.36538e+06
-1.25311e+06
-1.16237e+06
-1.04751e+06
-946778
-828023
-713848
-587694
-465105
-337105
-210980
-77013.2
-2.54581e+06
-2.37686e+06
-2.36669e+06
-2.17732e+06
-2.1007e+06
-1.95885e+06
-1.85616e+06
-1.72301e+06
-1.60653e+06
-1.46516e+06
-1.33417e+06
-1.19034e+06
-1.0543e+06
-913674
-777328
-635226
-497457
-355563
-218815
-72749.5
-2.52463e+06
-2.40762e+06
-2.35971e+06
-2.18912e+06
-2.10212e+06
-1.96244e+06
-1.86291e+06
-1.72392e+06
-1.60666e+06
-1.46223e+06
-1.33119e+06
-1.18811e+06
-1.05303e+06
-910693
-773788
-631956
-494631
-353746
-217650
-72450.8
-2.60131e+06
-2.41874e+06
-2.40193e+06
-2.19079e+06
-2.11191e+06
-1.96531e+06
-1.86187e+06
-1.72711e+06
-1.60682e+06
-1.46125e+06
-1.32891e+06
-1.18545e+06
-1.04991e+06
-906735
-770570
-628757
-491881
-351826
-216560
-72161.2
-2.40613e+06
-2.37381e+06
-2.33512e+06
-2.17933e+06
-2.11338e+06
-1.97014e+06
-1.86623e+06
-1.7244e+06
-1.6043e+06
-1.45922e+06
-1.32544e+06
-1.18337e+06
-1.04705e+06
-904203
-766595
-625591
-488608
-349529
-214394
-71442.3
-2.57751e+06
-2.39305e+06
-2.39188e+06
-2.1922e+06
-2.11674e+06
-1.9698e+06
-1.86687e+06
-1.71786e+06
-1.59478e+06
-1.45555e+06
-1.32378e+06
-1.18119e+06
-1.04464e+06
-900713
-763109
-621669
-484777
-346242
-213257
-71242.3
-3.0142e+06
-2.59583e+06
-2.4686e+06
-2.22849e+06
-2.12532e+06
-1.96547e+06
-1.85496e+06
-1.70408e+06
-1.5925e+06
-1.45369e+06
-1.32224e+06
-1.18125e+06
-1.04012e+06
-898192
-758398
-617774
-481188
-343749
-211919
-70814.1
-2.83409e+06
-2.5342e+06
-2.4177e+06
-2.20924e+06
-2.112e+06
-1.94189e+06
-1.82556e+06
-1.69343e+06
-1.57716e+06
-1.44908e+06
-1.3232e+06
-1.17517e+06
-1.03398e+06
-892532
-754679
-614192
-477778
-341455
-211304
-71527.5
-2.8293e+06
-2.61868e+06
-2.46592e+06
-2.22175e+06
-2.11127e+06
-1.92521e+06
-1.83908e+06
-1.72021e+06
-1.59648e+06
-1.47112e+06
-1.34165e+06
-1.20056e+06
-1.0601e+06
-921211
-750564
-612548
-476058
-340614
-211024
-72096.8
-2.83399e+06
-2.51674e+06
-2.39374e+06
-2.17497e+06
-2.07744e+06
-1.94748e+06
-1.84568e+06
-1.72107e+06
-1.5972e+06
-1.47164e+06
-1.34199e+06
-1.20788e+06
-1.06949e+06
-932550
-776143
-612788
-476222
-339947
-211155
-72208.9
-2.86427e+06
-2.55191e+06
-2.42035e+06
-2.17868e+06
-2.06554e+06
-1.94027e+06
-1.82646e+06
-1.69927e+06
-1.57819e+06
-1.4556e+06
-1.32731e+06
-1.19659e+06
-1.06175e+06
-926730
-775540
-609065
-475972
-340951
-212172
-73850.1
-2.89853e+06
-2.464e+06
-2.3099e+06
-2.1002e+06
-1.99488e+06
-1.89454e+06
-1.79047e+06
-1.66643e+06
-1.55239e+06
-1.43268e+06
-1.30883e+06
-1.18179e+06
-1.05115e+06
-919915
-771202
-607018
-475546
-341676
-213021
-75158.4
-2.65806e+06
-2.32628e+06
-2.2446e+06
-2.02463e+06
-1.94891e+06
-1.84109e+06
-1.75074e+06
-1.64058e+06
-1.52576e+06
-1.40994e+06
-1.28714e+06
-1.16318e+06
-1.03753e+06
-910964
-766034
-605552
-474670
-341673
-213470
-76197.3
-2.39655e+06
-2.09863e+06
-2.05277e+06
-1.92359e+06
-1.86734e+06
-1.75537e+06
-1.70155e+06
-1.59509e+06
-1.4828e+06
-1.36523e+06
-1.24599e+06
-1.12663e+06
-1.00822e+06
-887864
-734243
-603329
-473189
-341894
-213593
-77229.4
-1.84832e+06
-1.87394e+06
-1.98259e+06
-1.86545e+06
-1.83685e+06
-1.71535e+06
-1.63345e+06
-1.52384e+06
-1.42547e+06
-1.31177e+06
-1.20226e+06
-1.08563e+06
-973010
-851934
-729591
-600246
-472173
-341483
-213473
-77647.9
-1.64794e+06
-1.784e+06
-1.86863e+06
-1.79171e+06
-1.76681e+06
-1.67034e+06
-1.60281e+06
-1.49396e+06
-1.40345e+06
-1.29392e+06
-1.19027e+06
-1.0772e+06
-967507
-848102
-726687
-597949
-470795
-340938
-212984
-77600.4
-1.70427e+06
-1.74218e+06
-1.8398e+06
-1.76001e+06
-1.74871e+06
-1.65013e+06
-1.58557e+06
-1.47751e+06
-1.38984e+06
-1.27929e+06
-1.18033e+06
-1.06785e+06
-962577
-844145
-724293
-595237
-469409
-340122
-212465
-77500.2
-2.00805e+06
-1.92155e+06
-1.84734e+06
-1.76439e+06
-1.72104e+06
-1.62565e+06
-1.56351e+06
-1.45825e+06
-1.37699e+06
-1.26685e+06
-1.17358e+06
-1.06026e+06
-957348
-839056
-721427
-592930
-468037
-339250
-211970
-77326.6
-2.19562e+06
-1.95228e+06
-1.88248e+06
-1.77233e+06
-1.73024e+06
-1.62259e+06
-1.55752e+06
-1.4519e+06
-1.37101e+06
-1.26109e+06
-1.16804e+06
-1.05463e+06
-952314
-833906
-717838
-590501
-466757
-338304
-211542
-77261.5
-2.37593e+06
-2.07013e+06
-1.91579e+06
-1.78183e+06
-1.72583e+06
-1.60854e+06
-1.55273e+06
-1.44195e+06
-1.3668e+06
-1.25518e+06
-1.16449e+06
-1.04984e+06
-948908
-829994
-715342
-588678
-465680
-337550
-211189
-77128
-2.16135e+06
-2.02873e+06
-1.94337e+06
-1.78732e+06
-1.73145e+06
-1.61089e+06
-1.55544e+06
-1.44237e+06
-1.36561e+06
-1.25318e+06
-1.16239e+06
-1.04753e+06
-946787
-828038
-713854
-587699
-465108
-337107
-210979
-77018.9
-2.54886e+06
-2.36429e+06
-2.368e+06
-2.17885e+06
-2.1e+06
-1.95943e+06
-1.85633e+06
-1.72282e+06
-1.60564e+06
-1.46533e+06
-1.33555e+06
-1.19029e+06
-1.05424e+06
-913267
-777085
-634997
-497350
-355536
-218834
-72755.1
-2.45721e+06
-2.39956e+06
-2.35695e+06
-2.19089e+06
-2.10368e+06
-1.96278e+06
-1.86199e+06
-1.72425e+06
-1.60666e+06
-1.46255e+06
-1.33152e+06
-1.18797e+06
-1.05281e+06
-910477
-773691
-631844
-494573
-353731
-217668
-72456.9
-2.81466e+06
-2.43374e+06
-2.40722e+06
-2.19292e+06
-2.11175e+06
-1.96612e+06
-1.8611e+06
-1.72739e+06
-1.60765e+06
-1.46182e+06
-1.32901e+06
-1.18545e+06
-1.04993e+06
-906615
-770478
-628697
-491850
-351824
-216579
-72166.1
-2.32142e+06
-2.37176e+06
-2.33695e+06
-2.18151e+06
-2.1114e+06
-1.97131e+06
-1.86565e+06
-1.72652e+06
-1.60303e+06
-1.45928e+06
-1.32549e+06
-1.18337e+06
-1.04704e+06
-904170
-766568
-625574
-488594
-349531
-214397
-71448.6
-2.49919e+06
-2.37726e+06
-2.38781e+06
-2.19303e+06
-2.11529e+06
-1.97273e+06
-1.86418e+06
-1.71763e+06
-1.59475e+06
-1.45555e+06
-1.32381e+06
-1.18119e+06
-1.04464e+06
-900702
-763098
-621660
-484761
-346231
-213267
-71252.3
-3.06693e+06
-2.60265e+06
-2.46571e+06
-2.22698e+06
-2.12913e+06
-1.96382e+06
-1.85252e+06
-1.70412e+06
-1.59265e+06
-1.45372e+06
-1.3223e+06
-1.18125e+06
-1.04012e+06
-898188
-758391
-617765
-481172
-343737
-211935
-70820.8
-3.00254e+06
-2.53545e+06
-2.41955e+06
-2.21044e+06
-2.1098e+06
-1.94506e+06
-1.82564e+06
-1.69304e+06
-1.57714e+06
-1.44908e+06
-1.32322e+06
-1.17516e+06
-1.03398e+06
-892529
-754669
-614177
-477754
-341450
-211316
-71541
-2.88355e+06
-2.61532e+06
-2.47256e+06
-2.22304e+06
-2.1079e+06
-1.92438e+06
-1.8392e+06
-1.72022e+06
-1.59648e+06
-1.47117e+06
-1.34167e+06
-1.20056e+06
-1.0601e+06
-921205
-750538
-612537
-476035
-340606
-211028
-72111.4
-2.85248e+06
-2.51358e+06
-2.4013e+06
-2.17185e+06
-2.0769e+06
-1.94712e+06
-1.84624e+06
-1.7216e+06
-1.59698e+06
-1.47164e+06
-1.34197e+06
-1.2078e+06
-1.0695e+06
-932567
-776090
-612737
-476203
-339933
-211151
-72217.7
-3.0013e+06
-2.57919e+06
-2.42198e+06
-2.17864e+06
-2.06498e+06
-1.94124e+06
-1.8278e+06
-1.69976e+06
-1.57861e+06
-1.45554e+06
-1.32714e+06
-1.19643e+06
-1.06173e+06
-926659
-775440
-608957
-475948
-340943
-212172
-73860.3
-3.03423e+06
-2.47946e+06
-2.30901e+06
-2.10309e+06
-1.9912e+06
-1.8944e+06
-1.79216e+06
-1.66574e+06
-1.5522e+06
-1.43424e+06
-1.30895e+06
-1.18155e+06
-1.05116e+06
-919857
-771067
-606945
-475528
-341671
-213020
-75166.6
-2.6198e+06
-2.32579e+06
-2.23287e+06
-2.02344e+06
-1.94771e+06
-1.84082e+06
-1.74971e+06
-1.64009e+06
-1.52562e+06
-1.40915e+06
-1.28687e+06
-1.16305e+06
-1.03746e+06
-910914
-765916
-605498
-474654
-341667
-213469
-76205.8
-2.32297e+06
-2.10132e+06
-2.04955e+06
-1.92612e+06
-1.86577e+06
-1.75469e+06
-1.69961e+06
-1.59441e+06
-1.4835e+06
-1.36539e+06
-1.24609e+06
-1.12645e+06
-1.00807e+06
-887775
-734221
-603316
-473181
-341892
-213593
-77235.9
-1.7827e+06
-1.87293e+06
-1.98006e+06
-1.86792e+06
-1.83676e+06
-1.71541e+06
-1.63359e+06
-1.52412e+06
-1.42598e+06
-1.31194e+06
-1.20214e+06
-1.08553e+06
-972874
-851815
-729570
-600252
-472166
-341482
-213473
-77646.4
-1.5926e+06
-1.76812e+06
-1.86662e+06
-1.79087e+06
-1.768e+06
-1.67005e+06
-1.60307e+06
-1.49389e+06
-1.40405e+06
-1.29417e+06
-1.19052e+06
-1.07725e+06
-967353
-847880
-726648
-597956
-470791
-340937
-212982
-77599.1
-1.7382e+06
-1.74268e+06
-1.83471e+06
-1.75762e+06
-1.74845e+06
-1.64974e+06
-1.58545e+06
-1.47735e+06
-1.38981e+06
-1.27947e+06
-1.18067e+06
-1.06808e+06
-962595
-843972
-724225
-595247
-469408
-340121
-212464
-77499.5
-1.98899e+06
-1.91293e+06
-1.84393e+06
-1.76347e+06
-1.72041e+06
-1.62543e+06
-1.56218e+06
-1.45849e+06
-1.37745e+06
-1.26706e+06
-1.17376e+06
-1.06029e+06
-957309
-838957
-721393
-592937
-468036
-339251
-211970
-77327.7
-2.14985e+06
-1.95468e+06
-1.88246e+06
-1.77125e+06
-1.72975e+06
-1.6228e+06
-1.55752e+06
-1.45208e+06
-1.37112e+06
-1.26118e+06
-1.16804e+06
-1.0546e+06
-952288
-833873
-717833
-590501
-466757
-338304
-211543
-77261.7
-2.46146e+06
-2.08224e+06
-1.91135e+06
-1.78253e+06
-1.72308e+06
-1.61075e+06
-1.55248e+06
-1.44258e+06
-1.36696e+06
-1.2552e+06
-1.16446e+06
-1.04983e+06
-948909
-829992
-715342
-588681
-465680
-337551
-211190
-77129.3
-2.1018e+06
-2.01862e+06
-1.93299e+06
-1.78532e+06
-1.73059e+06
-1.6124e+06
-1.55453e+06
-1.44303e+06
-1.36563e+06
-1.25324e+06
-1.16242e+06
-1.04753e+06
-946792
-828039
-713855
-587701
-465109
-337105
-210979
-77022.3
-1.36035e+06
-1.43636e+06
-1.34703e+06
-1.45549e+06
-1.3603e+06
-1.43629e+06
-1.34688e+06
-1.23072e+06
-1.31454e+06
-1.21929e+06
-1.32732e+06
-1.23066e+06
-1.31442e+06
-1.21941e+06
-1.34121e+06
-1.41724e+06
-1.32597e+06
-1.43184e+06
-1.34103e+06
-1.41695e+06
-1.32558e+06
-1.21717e+06
-1.2938e+06
-1.20067e+06
-1.30871e+06
-1.2171e+06
-1.2936e+06
-1.20057e+06
-1.75185e+06
-1.8298e+06
-1.73469e+06
-1.84254e+06
-1.75209e+06
-1.82998e+06
-1.7349e+06
-1.63228e+06
-1.70315e+06
-1.61494e+06
-1.71952e+06
-1.63066e+06
-1.70305e+06
-1.61428e+06
-1.5083e+06
-1.58425e+06
-1.49346e+06
-1.59814e+06
-1.50911e+06
-1.58394e+06
-1.49381e+06
-1.37915e+06
-1.46059e+06
-1.36483e+06
-1.47268e+06
-1.37946e+06
-1.46086e+06
-1.36502e+06
-1.24671e+06
-1.33134e+06
-1.23441e+06
-1.34207e+06
-1.24678e+06
-1.33126e+06
-1.23476e+06
-1.10788e+06
-1.19962e+06
-1.099e+06
-1.20784e+06
-1.10787e+06
-1.19954e+06
-1.09907e+06
-971491
-1.06398e+06
-963496
-1.06959e+06
-971477
-1.06382e+06
-963624
-833468
-928327
-828154
-932632
-833670
-928095
-828145
-1.72747e+06
-1.79515e+06
-1.70402e+06
-1.82201e+06
-1.72769e+06
-1.7953e+06
-1.70443e+06
-1.60869e+06
-1.67449e+06
-1.58848e+06
-1.69681e+06
-1.6083e+06
-1.67454e+06
-1.58834e+06
-1.48743e+06
-1.55939e+06
-1.47085e+06
-1.57834e+06
-1.48752e+06
-1.55914e+06
-1.47071e+06
-1.36031e+06
-1.44016e+06
-1.34646e+06
-1.45561e+06
-1.36044e+06
-1.44013e+06
-1.34647e+06
-1.23049e+06
-1.31435e+06
-1.21855e+06
-1.32753e+06
-1.23067e+06
-1.31433e+06
-1.21843e+06
-1.09639e+06
-1.18577e+06
-1.08763e+06
-1.19662e+06
-1.0965e+06
-1.18575e+06
-1.08753e+06
-961377
-1.05432e+06
-955324
-1.06185e+06
-961470
-1.05427e+06
-955313
-827101
-922037
-823491
-926778
-827201
-922027
-823493
-1.69755e+06
-1.76265e+06
-1.6782e+06
-1.7865e+06
-1.69752e+06
-1.76228e+06
-1.67807e+06
-1.58195e+06
-1.64925e+06
-1.56397e+06
-1.66786e+06
-1.58189e+06
-1.6491e+06
-1.56367e+06
-1.46528e+06
-1.53489e+06
-1.44809e+06
-1.55283e+06
-1.46509e+06
-1.53459e+06
-1.44767e+06
-1.34168e+06
-1.41782e+06
-1.32606e+06
-1.43502e+06
-1.34162e+06
-1.41769e+06
-1.32604e+06
-1.21435e+06
-1.29393e+06
-1.20076e+06
-1.30953e+06
-1.21426e+06
-1.29391e+06
-1.20067e+06
-1.08437e+06
-1.16852e+06
-1.07377e+06
-1.18178e+06
-1.08429e+06
-1.16853e+06
-1.07373e+06
-953104
-1.04125e+06
-946208
-1.0513e+06
-953076
-1.04129e+06
-946160
-822063
-913332
-817331
-919994
-822051
-913361
-817345
-1.67181e+06
-1.73176e+06
-1.65191e+06
-1.75366e+06
-1.67173e+06
-1.73171e+06
-1.65223e+06
-1.55838e+06
-1.61927e+06
-1.5371e+06
-1.64278e+06
-1.55774e+06
-1.61998e+06
-1.53654e+06
-1.44198e+06
-1.5078e+06
-1.42613e+06
-1.52837e+06
-1.44172e+06
-1.5068e+06
-1.42592e+06
-1.31978e+06
-1.39081e+06
-1.30068e+06
-1.41101e+06
-1.31974e+06
-1.39052e+06
-1.30048e+06
-1.19595e+06
-1.2672e+06
-1.18261e+06
-1.28746e+06
-1.19587e+06
-1.26672e+06
-1.18274e+06
-1.07016e+06
-1.14704e+06
-1.05998e+06
-1.16337e+06
-1.0701e+06
-1.14703e+06
-1.0599e+06
-944155
-1.02616e+06
-938781
-1.03764e+06
-944076
-1.02637e+06
-938496
-815793
-903590
-813561
-911043
-815808
-903839
-813473
-1.75227e+06
-1.82988e+06
-1.73504e+06
-1.84382e+06
-1.75324e+06
-1.82992e+06
-1.73593e+06
-1.6307e+06
-1.70314e+06
-1.61413e+06
-1.71992e+06
-1.63108e+06
-1.70381e+06
-1.6142e+06
-1.50932e+06
-1.58382e+06
-1.49388e+06
-1.59846e+06
-1.5089e+06
-1.58382e+06
-1.49367e+06
-1.37943e+06
-1.46091e+06
-1.36503e+06
-1.47242e+06
-1.37939e+06
-1.46066e+06
-1.36494e+06
-1.24681e+06
-1.33122e+06
-1.23479e+06
-1.34199e+06
-1.24688e+06
-1.33113e+06
-1.23485e+06
-1.10786e+06
-1.19954e+06
-1.09908e+06
-1.20789e+06
-1.10784e+06
-1.19955e+06
-1.09913e+06
-971480
-1.06381e+06
-963624
-1.06952e+06
-971480
-1.06377e+06
-963635
-833660
-928076
-828123
-932580
-833617
-928072
-828073
-1.72798e+06
-1.79572e+06
-1.70459e+06
-1.82267e+06
-1.72912e+06
-1.79768e+06
-1.705e+06
-1.60823e+06
-1.67456e+06
-1.58831e+06
-1.69793e+06
-1.60828e+06
-1.67473e+06
-1.58829e+06
-1.48755e+06
-1.5591e+06
-1.4706e+06
-1.5781e+06
-1.48743e+06
-1.55899e+06
-1.46996e+06
-1.36047e+06
-1.43993e+06
-1.34649e+06
-1.45554e+06
-1.36041e+06
-1.43782e+06
-1.34678e+06
-1.23067e+06
-1.31435e+06
-1.21858e+06
-1.32745e+06
-1.23068e+06
-1.31443e+06
-1.2192e+06
-1.09649e+06
-1.18575e+06
-1.08749e+06
-1.19666e+06
-1.09648e+06
-1.18569e+06
-1.08743e+06
-961477
-1.05424e+06
-955309
-1.0618e+06
-961481
-1.05418e+06
-955297
-827183
-922025
-823480
-926782
-827152
-922003
-823427
-1.69747e+06
-1.76217e+06
-1.67797e+06
-1.78757e+06
-1.69704e+06
-1.76082e+06
-1.67727e+06
-1.58186e+06
-1.64896e+06
-1.56348e+06
-1.66733e+06
-1.58176e+06
-1.64817e+06
-1.56267e+06
-1.46504e+06
-1.53441e+06
-1.44754e+06
-1.55269e+06
-1.46471e+06
-1.53372e+06
-1.44716e+06
-1.34159e+06
-1.41763e+06
-1.32605e+06
-1.43297e+06
-1.34136e+06
-1.41736e+06
-1.32601e+06
-1.21436e+06
-1.29389e+06
-1.20066e+06
-1.30913e+06
-1.21595e+06
-1.2938e+06
-1.20063e+06
-1.08426e+06
-1.16852e+06
-1.07373e+06
-1.18183e+06
-1.08419e+06
-1.16847e+06
-1.07371e+06
-953070
-1.04128e+06
-946151
-1.05121e+06
-953044
-1.04127e+06
-946134
-822047
-913355
-817340
-919963
-822007
-913328
-817317
-1.67165e+06
-1.73172e+06
-1.65236e+06
-1.75266e+06
-1.6711e+06
-1.7315e+06
-1.65257e+06
-1.55741e+06
-1.62036e+06
-1.5363e+06
-1.64206e+06
-1.55641e+06
-1.62077e+06
-1.53589e+06
-1.44157e+06
-1.50636e+06
-1.4257e+06
-1.52708e+06
-1.44109e+06
-1.50582e+06
-1.4249e+06
-1.31978e+06
-1.39036e+06
-1.30041e+06
-1.41066e+06
-1.31985e+06
-1.3898e+06
-1.30026e+06
-1.19586e+06
-1.26667e+06
-1.18276e+06
-1.28745e+06
-1.19584e+06
-1.26656e+06
-1.18271e+06
-1.07009e+06
-1.14698e+06
-1.0599e+06
-1.16332e+06
-1.07006e+06
-1.14686e+06
-1.05984e+06
-944065
-1.02637e+06
-938472
-1.03761e+06
-944041
-1.02634e+06
-938430
-815805
-903848
-813458
-911018
-815793
-903828
-813443
-1.75375e+06
-1.8307e+06
-1.73628e+06
-1.84616e+06
-1.75472e+06
-1.83322e+06
-1.7372e+06
-1.63107e+06
-1.70414e+06
-1.61419e+06
-1.72091e+06
-1.63057e+06
-1.7047e+06
-1.61399e+06
-1.50876e+06
-1.58366e+06
-1.4936e+06
-1.59745e+06
-1.50843e+06
-1.58339e+06
-1.49359e+06
-1.37948e+06
-1.46054e+06
-1.3649e+06
-1.47175e+06
-1.37955e+06
-1.46051e+06
-1.3649e+06
-1.24689e+06
-1.33111e+06
-1.23487e+06
-1.34199e+06
-1.24689e+06
-1.33108e+06
-1.23483e+06
-1.10783e+06
-1.19955e+06
-1.09914e+06
-1.2079e+06
-1.10782e+06
-1.19952e+06
-1.09911e+06
-971477
-1.06376e+06
-963636
-1.06949e+06
-971465
-1.06374e+06
-963611
-833606
-928067
-828062
-932552
-833578
-928035
-828027
-1.72959e+06
-1.79843e+06
-1.70515e+06
-1.82588e+06
-1.73067e+06
-1.80029e+06
-1.70577e+06
-1.60824e+06
-1.67485e+06
-1.5883e+06
-1.69916e+06
-1.60839e+06
-1.67525e+06
-1.58838e+06
-1.48736e+06
-1.55894e+06
-1.46977e+06
-1.5781e+06
-1.48746e+06
-1.55893e+06
-1.46954e+06
-1.41908e+06
-1.42444e+06
-1.44998e+06
-1.45541e+06
-1.41915e+06
-1.42439e+06
-1.44991e+06
-1.2915e+06
-1.29592e+06
-1.32326e+06
-1.32735e+06
-1.29159e+06
-1.29588e+06
-1.32313e+06
-1.09649e+06
-1.18559e+06
-1.08745e+06
-1.19666e+06
-1.09646e+06
-1.18563e+06
-1.08743e+06
-961480
-1.05418e+06
-955291
-1.06177e+06
-961448
-1.05415e+06
-955269
-827137
-921987
-823393
-926751
-827104
-921959
-823352
-1.69689e+06
-1.76021e+06
-1.67691e+06