/*--------------------------------*- C++ -*----------------------------------*\
  =========                 |
  \\      /  F ield         | OpenFOAM: The Open Source CFD Toolbox
   \\    /   O peration     | Website:  https://openfoam.org
    \\  /    A nd           | Version:  10
     \\/     M anipulation  |
\*---------------------------------------------------------------------------*/
FoamFile
{
    format      ascii;
    class       surfaceScalarField;
    location    "0.5";
    object      phi;
}
// * * * * * * * * * * * * * * * * * * * * * * * * * * * * * * * * * * * * * //

dimensions      [0 3 -1 0 0 0 0];

internalField   nonuniform List<scalar> 
38556
(
-1420.77
1029.72
2684.94
-304.985
46.6578
-1162.44
-101.372
595.159
-798.772
-108.284
516.98
-510.068
8.96075
363.531
-480.776
197.997
146.654
-335.691
318.754
91.1369
-211.894
437.95
-3.72868
-115.467
462.598
18.3603
-43.0084
468.362
18.3762
-24.1403
316.557
78.4678
73.337
128.064
88.3911
100.102
-42.9534
65.1804
105.837
-105.152
26.981
35.2176
-113.644
3.59023
4.90136
-115.011
1.56284
-0.195069
-109.821
-4.35772
-0.832311
-109.398
-0.357828
-0.0649751
-109.784
-2.63174
3.01806
1.16835
0.300985
-2330.95
372.494
42.6036
-1134.04
-296.604
-853.643
-792.845
458.12
-204.159
-657.484
315.491
66.1273
-483.274
187.311
2.0104
-400.675
82.5168
-18.462
-201.916
-43.9254
-63.6965
-164.14
0.718806
-42.2244
-102.283
-20.3706
-23.1263
-108.037
45.3938
-21.2628
-101.116
43.0552
28.491
-117.725
72.7278
32.2727
-109.921
34.4358
22.9406
-111.976
27.3476
1.688
-107.211
-0.446966
-0.726997
-109.461
4.461
-0.648154
-107.494
-6.50493
0.179728
-107.04
0.120941
-0.932297
-108.322
-4.0483
2.69856
2.10114
0.330612
-647.837
420.906
-2693.03
-1049.56
-327.526
432.64
-381.261
-2.59951
-207.574
-476.525
370.428
40.3267
-278.724
173.224
-183.713
-252.391
185.14
-128.956
-137.853
65.0378
-223.502
-133.594
86.7557
-90.2961
-112.37
5.63135
-47.2258
-122.948
69.8858
-13.9148
-112.839
20.8135
12.1334
-117.513
62.9328
14.4686
-108.836
16.7679
8.99133
-110.773
27.2451
2.03968
-106.288
-4.88452
-0.0472856
-107.595
5.98396
-0.21639
-104.482
-9.46899
-0.149041
-105.436
0.963213
0.111766
-104.563
-6.84906
1.92756
2.98642
0.933528
-970.922
1078.86
1399.63
-768.868
-78.9865
-450.594
-683.816
-223.519
135.869
-707.471
306.842
87.2408
-594.306
93.9839
-33.9241
-511.566
179.772
-77.3727
-285.525
1.58896
-162.592
-295.737
114.973
-18.0041
-213.059
-69.9712
-7.0758
-223.244
77.5818
2.4896
-176.532
-29.676
3.7769
-167.985
50.7916
3.59519
-136.974
-16.8695
2.62629
-130.541
20.3229
0.489128
-119.221
-16.3371
0.132853
-114.869
1.66212
-0.0306377
-108.814
-15.3219
-0.202394
-105.383
-2.01186
-0.45531
-104.522
-8.33572
0.625023
3.06097
0.285871
47.3788
348.944
3151.34
-362.364
335.144
-4.38692
-891.297
-91.5965
397.01
-735.724
112.998
38.2705
-518.207
-7.18234
-116.351
-469.931
163.471
-31.9737
-187.959
-213.892
-66.4921
-199.459
125.645
0.82768
-150.642
-115.618
-3.16981
-173.914
97.2142
3.63921
-153.274
-52.0585
1.7431
-150.426
46.5489
1.39553
-131.764
-36.389
0.85709
-126.005
14.274
0.290057
-113.013
-29.3626
0.0328629
-109.097
-2.15873
-0.0953571
-102.156
-20.9705
-1.2923
-100.197
-2.36915
-1.60156
-98.7937
-10.9137
1.17503
3.52757
1.4198
-1291.19
-1142.79
-359.81
-1219.73
82.8539
180.835
-1334.61
-10.1697
33.4518
-895.902
-100.532
-225.18
-742.042
71.6291
-232.672
-563.791
64.039
-78.8196
-209.7
-513.839
-54.1432
-322.188
202.761
35.3715
-226.769
-235.346
24.3092
-236.895
96.5118
10.8291
-198.367
-94.1425
3.5563
-180.57
27.1599
1.5918
-147.897
-69.4441
0.381261
-135.806
1.82428
0.358437
-125.93
-39.2936
0.0554069
-113.248
-14.7818
-0.0594628
-106.756
-26.9283
-0.533529
-97.0825
-9.73272
-2.31016
-98.0557
-11.8277
1.88711
3.28156
0.78311
-820.707
-196.252
965.903
-740.551
285.937
-283.239
-1188.11
362.082
75.3034
-665.534
-149.959
-473.145
-422.32
181.013
-352.598
-481.003
302.101
-179.378
-452.728
-52.0021
-173.126
-133.247
-56.7793
-126.96
-600.156
99.4739
37.0248
55.1171
100.902
57.6722
-466.497
-63.7953
12.0958
-129.418
-56.271
-131.617
-391.482
3.28124
4.01656
7.39082
-0.2614
7.07008
-275.674
-17.147
1.58587
-89.3833
-16.2082
-88.7985
-212.985
-6.48832
-0.378932
-10.5997
-6.65052
-11.4114
-161.116
-1.965
-0.505603
-58.7497
-1.74574
-58.3476
-143.769
6.19117
-0.384525
-13.6841
6.41428
-14.059
-116.256
-66.7265
-0.080553
-105.535
-24.9424
-0.560001
-97.2256
-32.7989
-2.4388
-95.9227
-11.0885
0.053047
-94.8852
-13.2257
0.360477
2.87513
2.05733
569.217
368.488
-1142.77
-801.199
338.927
1317.43
-991.029
352.91
199.001
-578.423
-197.309
-365.256
-103.581
-167.354
-126.475
-50.2428
102.631
-66.8098
-71.8079
-57.8905
-73.1168
149.302
117.949
148.506
-97.0531
8.56591
-13.7576
189.396
-162.475
56.927
15.6255
145.822
-135.683
-81.7352
7.80041
151.32
-105.266
-40.6962
-2.07722
76.6113
-55.8082
-37.8728
-0.0772777
70.4721
-49.7222
-26.719
-0.519216
43.9669
-32.6009
-13.2311
-0.0998171
47.9229
-32.5889
-8.77773
-0.365083
-113.515
0.527464
0.886638
32.6876
24.6927
30.8894
25.2744
-34.3518
0.587755
-34.4053
-97.1354
-38.5565
-2.76573
-99.0181
-30.4873
-0.428632
-94.4283
-16.1601
0.48192
-94.7282
-13.1273
0.201308
0.861621
1.95717
255.081
157.066
753.296
-147.039
487.266
253.78
-246.163
370.882
81.1519
-468.764
-43.0663
68.3583
-63.5343
-357.192
40.248
-92.2332
-74.1647
-89.2421
-39.1176
61.3958
16.8188
-14.6464
6.09296
-11.8869
16.5059
3.9344
26.0832
-3.62057
-18.6261
-5.87526
2.03871
6.49393
17.977
-7.5467
-21.4186
4.49438
16.2229
10.2105
-11.0647
-13.4912
-1.87737
10.2619
5.3089
-6.36524
-8.43281
-0.772749
13.2035
2.17942
-8.9024
-6.25493
-0.225556
10.4326
-0.279711
-6.59186
-3.31091
-0.250151
10.8497
-1.07787
-7.08027
-2.4573
-0.234236
8.54917
-19.8155
-8.70495
-0.300313
6.35314
7.81933
6.62658
-101.934
-47.2798
-1.41313
29.9974
26.6524
28.418
27.0022
-96.8992
-34.7394
-0.782158
-95.005
-18.5218
0.467555
-93.3816
-15.0119
0.261178
-1.12094
1.87233
1328.58
362.65
76.0583
1085.42
772.134
-41.7073
451.664
436.203
568.436
281.167
40.2868
87.1441
-46.0008
-198.202
213.47
-54.729
11.1349
-1.69731
2.57058
-37.6887
-48.3975
37.5146
-3.85229
-4.56155
7.35724
-0.890626
1.94722
19.166
0.702649
-3.98692
-19.5276
3.64583
19.5556
5.34347
-5.96404
-18.9569
0.0218136
14.453
7.18816
-6.6982
-14.249
-0.693958
10.8347
6.35932
-6.01742
-10.8941
-0.282507
8.36982
7.1624
-6.91278
-8.53329
-0.0861552
6.25976
7.35635
-6.82052
-6.59801
-0.197587
4.78402
7.17336
-6.672
-5.07623
-0.209151
6.74609
13.5574
-23.0043
-15.7175
-0.362314
6.19387
6.1387
6.44803
-100.674
-48.779
0.135855
24.7302
25.9039
25.576
25.827
-99.5361
-35.9004
0.0234199
-94.9534
-23.4737
0.369327
-93.6581
-16.3552
0.0481024
-4.46187
1.52561
1292.32
-20.5618
-1033.71
1354.13
591.636
118.685
913.624
569.931
306.779
893.733
144.356
-84.1776
40.0507
175.326
183.776
30.2211
143.869
122.289
73.9061
-21.9824
-60.5207
48.6476
26.2049
6.31573
-5.4219
-29.4724
2.37373
25.7269
-1.61012
2.30247
-27.7352
1.31592
17.8576
-1.68049
-0.31463
-17.9017
2.03929
12.8101
4.66184
-4.89774
-11.6904
-0.883743
10.1365
5.48298
-5.55649
-9.57214
-0.49085
8.42269
6.22812
-6.24439
-8.26329
-0.143128
7.0086
6.5252
-6.45592
-7.05188
-0.0259932
5.68643
6.39007
-6.29962
-5.7511
-0.0257795
6.23934
17.5287
-23.0178
-19.0883
0.030028
6.17536
6.21232
5.92034
-96.9897
-49.4371
-0.0370791
25.0195
24.2071
24.8705
23.5878
-96.9482
-36.0491
0.107318
-93.0474
-27.587
0.212438
-92.148
-17.2691
0.0144704
-7.29034
1.19773
27.7386
76.209
1611.63
495.626
-248.808
372.556
398.654
-0.0665307
666.97
481.631
-97.6245
159.003
-19.0963
177.026
489.277
-21.5446
5.21709
26.0781
67.283
-29.3912
-118.101
61.1135
33.8076
-1.53774
2.28602
-34.156
-0.399906
23.2719
-0.188751
-0.424323
-18.9118
-3.747
16.4796
3.91756
-3.81936
-14.4434
-2.1343
8.31761
5.14776
-5.10417
-8.19501
-0.16619
8.26508
5.74073
-5.28037
-8.45029
-0.275157
8.22084
6.27565
-5.94899
-8.58229
0.0347845
7.5819
6.0932
-5.73294
-8.01127
0.0691014
6.39237
6.16138
-5.88979
-6.74309
0.0791282
5.97954
20.5829
-19.1004
-24.4426
0.224327
5.72226
5.77369
5.26026
-92.5714
-48.1968
-0.363695
23.857
22.6856
22.9346
22.2176
-91.1661
-37.4414
-0.0130794
-89.7291
-29.0964
0.0724822
-88.217
-18.6453
-0.136066
-9.78108
0.921179
22.7004
-643.188
970.069
-34.1827
-696.488
504.564
-349.51
-158.839
474.1
-89.7907
-295.793
-61.5509
81.1152
-4.08285
10.2034
-12.371
-470.298
-67.0947
162.337
214.704
96.9662
193.631
-11.7108
-13.0021
-12.0467
27.601
-8.79745
-65.5938
-11.8863
9.09828
27.9765
9.23078
15.7207
42.4066
-28.2296
-52.9943
-9.40197
8.3939
15.6181
8.4866
16.6884
9.92139
-13.1141
-44.1176
-2.1722
7.95921
16.7199
8.11498
14.8373
38.4279
-41.3317
-42.9277
0.662365
7.30935
15.3576
7.66485
14.2062
23.2823
-18.8539
-43.5163
-0.579399
5.45715
14.3682
5.63568
13.492
27.4721
-23.7667
-41.2661
-0.231436
5.33212
13.5374
5.43063
12.7543
15.6439
-13.95
-34.9441
-0.0597088
3.82771
12.8057
3.92217
11.397
21.6727
-17.8045
-32.474
0.062174
2.82733
11.4233
2.89612
-85.5338
-43.5672
-0.0754452
32.0782
-1.70018
32.3577
-1.72377
16.5177
18.5296
15.6484
17.4688
-76.7083
-56.9722
-0.0500704
-82.3931
-31.6423
-0.114318
-78.944
-32.5584
0.0128942
-81.0697
-16.3893
-0.130166
-11.1545
0.800923
258.765
-176.236
-587.131
768.644
-575.304
-631.063
360.977
-395.58
644.407
338.136
-244.338
-28.6133
340.018
-36.7891
30.8241
230.091
-131.69
-228.681
174.64
314.289
-182.173
39.4684
-69.4203
29.1761
-75.8896
88.645
-18.3606
-188.858
77.0574
74.9146
70.4192
70.8226
62.591
174.355
-150.556
35.2906
-32.4401
33.4552
-34.0506
44.3132
-73.7436
-116.167
56.8331
51.0575
52.8329
47.4643
8.98268
-23.0566
-25.1402
47.7511
-6.82057
47.1684
-4.57138
-7.62108
-174.852
6.56777
57.1474
35.1327
57.5284
35.0791
-32.6521
-64.6357
13.878
41.3616
-3.67686
41.368
-3.264
-52.9821
-109.222
5.52419
45.8858
16.0283
45.8585
16.2555
-60.5098
-38.9538
2.91422
-62.9332
-55.4288
0.879903
-68.424
-26.5318
0.380406
-70.8705
-30.2733
0.161346
-73.7083
-13.44
-0.111567
-10.8053
0.753748
234.442
-1649.67
-2794.42
881.942
-702.179
-520.625
341.349
-361.437
506.451
252.54
-130.586
-24.9429
277.283
72.739
-134.272
273.017
44.314
-171.738
353.479
344.468
-110.641
339.261
157.811
-161.953
374.078
234.239
-94.7017
333.024
7.71915
-40.4091
184.453
32.1269
93.3878
47.4529
-115.62
77.7683
-8.23856
-38.3095
29.3651
-35.8441
-90.0744
8.45756
-50.0429
-26.7149
1.95973
-56.1731
-50.2155
0.916781
-62.618
-19.9487
-0.138176
-65.2363
-27.6847
0.0298167
-68.8782
-9.60248
-0.195442
-10.0513
0.751093
1246.6
359.685
448.437
1221.88
543.011
-1220.47
823.309
218.715
-181.582
690.697
79.498
-77.4723
527.044
88.073
148.319
541.147
91.4601
-61.2488
559.799
254.057
71.7598
593.704
50.4649
73.4409
525.425
142.049
160.469
432.266
-49.3023
150.18
242.949
66.1801
155.264
109.044
-62.1727
80.4579
24.615
7.60389
38.516
-15.6365
-61.2226
11.3995
-32.7821
-13.1112
3.5418
-45.5669
-38.5637
1.13319
-52.804
-13.2079
0.496291
-58.0548
-22.4969
0.0628
-61.1035
-6.38776
-0.166106
-8.34867
0.430573
2514.57
1533.81
-4911.11
2107.15
1833.02
-882.588
1457.16
818.042
50.6613
1067.04
378.981
90.637
700.072
214.805
240.233
632.133
46.0216
113.378
478.146
102.909
305.134
409.387
-96.0443
215.268
252.566
36.9142
261.956
145.538
-80.7114
138.437
61.0538
47.204
103.46
8.57703
-49.4257
39.7299
-8.86953
9.94451
15.106
-30.3077
-43.907
4.1228
-37.9358
-6.35891
0.875889
-46.9425
-30.0269
0.469697
-51.3466
-8.88677
0.0826609
-56.1881
-17.656
0.000477263
-58.6339
-3.7907
-0.150993
-6.52818
0.464658
2816.59
4144.97
79.8188
1628.96
2102
918.65
819.849
642.687
984.466
540.579
423.094
235.158
362.51
102.182
290.692
316.733
22.323
69.4756
217.286
80.2687
122.087
151.747
-86.6995
56.1938
80.1703
56.6379
51.8538
37.4291
-54.0132
16.043
23.8769
43.1375
17.6187
1.38636
-33.1389
6.204
-5.77524
13.3602
3.74605
-23.4729
-27.611
1.40176
-29.563
-0.855183
0.586338
-40.548
-19.1516
0.109664
-44.8657
-4.63672
0.0675789
-50.9659
-11.534
-0.021894
-52.7258
-1.90038
-0.130417
-4.46092
0.433533
-31.4413
1444.51
-436.894
-36.9642
1167.89
939.636
-292.099
374.423
523.399
-203.61
184.229
150.375
-62.3986
-129.569
90.5403
-97.0573
34.82
22.1615
-26.9961
67.7438
-57.5361
-73.5655
-12.5698
-27.5603
-20.291
37.5715
-34.2077
-43.4492
-17.7599
-13.095
-12.3529
20.7559
-8.71461
-28.5245
-14.8708
-2.09638
-19.5762
5.79507
-1.3831
-33.5563
-13.5541
-0.076721
-33.5657
-0.678852
-0.166824
-42.7655
-10.0709
0.119074
-44.9489
-2.42879
-0.0247276
-50.4242
-6.04207
-0.0167537
-51.3984
-0.767788
-0.158347
-2.25329
0.426069
717.279
82.1442
2032.81
-147.647
1956.42
450.817
1375.95
764.701
199.205
1047.17
-15.7062
249.732
-20.9064
72.9442
-53.1836
19.7078
-10.6305
-4.98178
-29.8171
1.42674
-7.80425
-1.25691
-23.1623
0.486962
-17.4414
0.0743734
-31.1439
0.14828
-31.8775
0.0546519
-41.9529
0.0045717
-44.3017
-0.080145
-50.323
-0.0208616
-50.9895
-0.101286
0.460499
-193.913
427.582
1378.9
137.875
-422.312
-1071.92
-163.424
82.601
-580.074
-239.033
223.379
-657.839
-90.5984
170.329
-799.54
47.3208
26.999
-500.61
155.872
-5.01669
-315.428
246.955
-84.154
-122.396
282.107
-61.2424
-16.9186
287.909
-51.332
21.391
162.168
35.6877
163.391
25.3288
67.5149
169.426
-67.3932
54.8633
143.696
-105.634
25.6471
47.8112
-113.092
4.10044
8.25918
-115.579
2.06563
0.226328
-111.325
-4.01258
-1.07419
-110.835
-0.425162
-0.129938
-106.713
-2.65592
1.55248
1.178
0.299643
-1378.77
-11.2292
-1014.49
-964.427
-495.247
-1195.05
-1120.26
11.8531
22.4225
-853.643
20.0402
2.85052
-640.555
-12.1254
-28.623
-527.372
-18.6805
-85.9652
-303.492
-86.0285
-206.565
-290.038
-18.121
-121.711
-187.094
-37.393
-149.919
-187.612
32.875
-104.952
-132.659
27.4991
-18.2727
-125.869
64.1472
28.8503
-105.93
28.2852
29.5796
-110.808
25.8825
6.33052
-107.922
-0.203104
0.69123
-109.945
4.54437
-1.10383
-106.881
-6.40722
-0.490316
-108.128
0.301456
-0.411038
-105.367
-4.13436
1.41597
2.19597
0.31083
-603.736
-489.245
-2060.47
-348.335
-446.239
128.231
-511.335
-223.536
190.815
-479.485
153.321
-124.803
-235.086
22.9109
-463.149
-186.232
110.716
-307.206
-115.62
15.7902
-395.933
-128.817
66.6354
-161.855
-121.91
-5.56973
-85.9554
-138.134
65.1535
-29.9691
-120.682
15.2222
6.95915
-116.766
59.9301
14.77
-109.006
15.5829
13.9335
-111.774
27.3365
3.35339
-107.703
-4.50752
0.185994
-109.307
6.16447
-0.232266
-106.263
-9.34934
-0.250449
-106.866
0.914906
0.101831
-103.175
-6.99572
1.09737
2.88655
0.489856
-644.9
-110.014
1401.05
-777.196
-682.679
-81.8582
-1036.44
-388.594
560.167
-799.06
69.7857
-66.6007
-603.453
-120.727
-85.8922
-526.281
107.702
-151.531
-279.863
-47.6398
-345.579
-292.018
105.624
-44.8375
-212.411
-67.1462
-25.106
-220.512
80.1972
-4.45367
-173.627
-28.4035
0.517604
-165.135
51.3266
3.70642
-134.098
-16.594
3.76664
-127.556
20.4364
0.84693
-116.145
-16.0893
0.303609
-111.682
1.70098
-0.0296463
-105.637
-15.3874
-0.209313
-102.76
-2.19537
-0.222025
-101.319
-8.21186
0.400114
3.23622
0.261657
208.845
-772.249
5743.96
-303.562
-901.813
727.155
-997.901
-424.482
1127.24
-757.388
-163.581
31.1248
-509.813
-192.389
-292.265
-471.806
88.8823
-51.162
-184.691
-290.304
-110.942
-195.012
111.48
5.2927
-148.195
-114.092
-3.04039
-170.561
99.5261
6.67653
-150.136
-50.0331
2.94643
-147.083
47.1873
2.48244
-128.504
-35.7248
1.40955
-122.704
14.3832
0.543252
-109.749
-29.1053
0.0934918
-105.892
-2.12843
-0.122891
-100.997
-20.7935
-0.781286
-101.484
-2.4822
-0.827532
-98.4037
-10.769
0.651406
3.41966
0.684101
1057.67
-836.64
-3009.09
746.675
-626.024
216.042
-732.056
-156.402
1244.1
-773.885
-334.339
-12.5923
-646.73
-122.738
-429.477
-566.869
9.38463
-79.1834
-255.049
-582.049
-74.2184
-348.176
199.674
40.3046
-232.791
-241.069
35.9007
-236.036
95.6856
17.9145
-196.081
-93.2704
6.83807
-177.814
27.3872
3.12567
-145.159
-68.9375
0.938876
-132.795
1.80732
0.569465
-122.933
-38.9704
0.0582083
-110.211
-14.7952
-0.114485
-103.846
-27.1561
-0.535459
-98.128
-9.39627
-1.11386
-95.9002
-12.0543
0.94445
3.45748
0.49443
479.373
-57.583
-1717.47
184.925
136.609
-751.423
-675.765
383.756
395.835
-565.661
-403.722
-513.865
-370.46
-202.456
-468.081
-498.896
180.676
-222.233
-515.758
-89.1411
-296.286
-128.994
-99.4029
-124.49
-618.555
103.006
18.6106
57.8592
102.702
57.3172
-467.148
-59.9295
3.52709
-132.212
-60.2685
-131.497
-388.948
-0.124119
8.38981
6.58092
0.0769077
6.57883
-272.574
-16.9355
4.07522
-89.1458
-16.9326
-89.1192
-209.565
-6.73547
1.00124
-11.755
-6.74464
-11.7677
-158.019
-2.11678
0.35367
-58.5476
-2.12739
-58.5509
-140.495
6.2493
0.0194002
-14.2969
6.24549
-14.3186
-113.183
-66.4128
0.0506314
-102.642
-25.424
-0.472949
-98.5728
-32.4056
-1.25779
-96.7773
-11.0288
-0.109952
-95.5962
-13.2218
0.346585
2.86348
0.977736
-828.531
1325.16
178
-649.147
40.9048
1233.75
-246.318
192.557
-12.6292
-382.964
-494.24
-138.092
-294.549
-522.82
105.473
-109.402
76.4774
-75.2627
-117.063
-120.431
-124.732
109.14
71.7089
108.881
18.7175
-141.478
-41.9684
-33.814
-17.4495
213.428
-171.396
60.384
18.0394
-8.86756
149.473
-132.613
-75.0604
7.13873
1.43312
147.51
-103.549
-44.2176
-1.30063
-0.425397
74.1583
-53.6432
-37.4244
0.399244
0.644864
68.1006
-47.5371
-27.5347
-0.409143
-0.229105
42.014
-30.4154
-13.6448
0.158452
0.282838
45.4329
-30.4276
-8.8503
-0.188554
-110.325
0.46434
0.26497
30.9405
25.2537
30.9339
25.2205
-34.4008
0.489208
-34.3675
-98.5263
-38.6313
-1.35696
-100.279
-30.6269
-0.454541
-94.8372
-16.2141
0.225388
-95.0228
-13.1134
0.278449
0.853039
0.999047
682.332
2204.6
2581.43
188.942
465.544
322.53
103.563
120.51
238.578
-267.197
-261.284
206.162
-112.109
-425.305
185.265
-121.084
-121.945
-154.591
-42.1922
-92.6247
33.1265
66.0588
0.612415
-5.32175
15.6893
-20.329
11.8977
-2.5486
-2.51019
29.9503
-6.69693
-20.9305
-1.22918
1.41654
-1.2768
1.29809
10.5556
2.02417
-11.0881
-1.51296
0.373981
7.25187
10.8223
-5.38271
-14.0277
0.96225
0.307738
8.10215
5.40307
-4.99131
-8.53968
-0.281977
0.0517644
11.4773
2.401
-7.39038
-6.51055
-0.0291299
0.0268499
9.35886
-0.133335
-5.73118
-3.5063
-0.0148906
0.0289883
9.72661
-0.926551
-6.20676
-2.60079
-0.0214973
7.71846
0.0248691
-19.6089
-8.67492
0.00710275
6.64035
7.71967
6.63769
-102.277
-47.3551
-0.671378
28.1752
26.9341
28.2225
26.9276
-98.4227
-34.7889
-0.474671
-95.6688
-18.7073
0.20701
-93.6783
-15.1025
0.259817
-1.21976
0.92641
306.614
1396.58
1144.34
-358.414
428.685
660.179
147.819
31.0731
151.64
-72.7581
-238.21
284.647
-19.4988
-343.353
234.992
-30.5006
-59.9369
-66.2964
-64.0262
34.9912
0.378728
-52.316
61.4733
-16.6731
4.74414
-8.03487
11.2114
-10.6391
19.3914
-20.1201
15.6284
-10.8521
8.94257
-15.5938
21.995
-5.80517
13.8381
-0.248753
-1.50618
-14.1627
7.88473
-0.698566
13.5898
4.92204
-5.28226
-13.7824
1.25135
-0.073337
10.8248
6.19607
-6.02888
-11.062
0.143349
-0.0858808
8.47276
6.93623
-6.77801
-8.66162
0.116524
-0.050419
6.30372
6.90957
-6.61216
-6.62053
0.0698323
-0.0435797
4.80312
6.78223
-6.52392
-5.09692
0.0790777
6.27812
0.186651
13.4905
-23.4444
-15.561
-0.055583
6.42299
6.26685
6.41579
-100.672
-49.0289
-0.10053
25.6173
25.6669
25.595
25.7028
-99.3123
-36.0907
-0.0341452
-94.2738
-23.6033
0.226885
-93.0221
-16.4482
0.142094
-4.54867
0.778318
936.735
-2518.23
1106.49
1421.9
-160.668
222.876
997.865
174.238
587.647
635.457
-57.2253
97.2446
51.2487
28.9409
419.005
21.876
-7.31902
-37.8731
-61.3104
61.3783
29.6058
-59.3011
80.8762
-16.1431
18.7868
-2.60836
1.2119
-20.3835
19.1363
-6.91183
19.947
-0.626223
1.07058
-21.9185
8.43894
-5.58989
16.7436
-1.15982
0.970763
-16.8292
5.86455
-0.421282
13.8902
1.91799
-2.3662
-13.5328
0.512105
0.839698
10.6319
3.89876
-4.22488
-10.0703
-1.07519
0.34619
8.56434
5.74464
-5.81453
-8.31876
-0.521884
0.0628516
7.15299
6.10297
-6.03366
-7.18545
-0.0997051
0.115838
5.84975
6.07057
-6.00296
-5.87267
-0.16052
6.19508
0.0850453
17.5347
-22.362
-19.1788
-0.154779
5.85461
6.17174
5.85436
-95.918
-49.4395
0.100645
24.7192
23.3905
24.7185
23.3626
-95.9148
-36.0879
0.101313
-91.7786
-27.6587
0.131693
-91.0121
-17.3256
0.125261
-7.42456
0.58748
291.49
-3960.89
-3155.54
-456.208
-476.837
1436.42
232.075
-93.852
246.778
63.689
-35.7393
305.902
-55.2518
205.664
553.286
-16.7758
-82.1584
-22.8573
-90.1072
78.7502
-42.9282
-82.8714
81.9048
0.510146
29.0978
-0.453889
1.41386
-28.6869
-1.88105
12.1471
18.713
0.449097
-0.595562
-16.7144
-13.9991
5.94881
15.1719
0.795724
-0.37321
-13.9089
-7.63432
3.54366
11.3449
2.02584
-1.94858
-10.76
-4.20581
0.506043
8.66852
4.14261
-3.98782
-8.88192
-0.447439
0.0163711
8.2273
5.67514
-5.33797
-8.57177
-0.00906608
-0.05818
7.62367
5.63039
-5.2062
-8.04509
0.055412
-0.050295
6.43544
5.80497
-5.4624
-6.77666
0.0489449
5.68901
-0.160827
20.6756
-17.629
-24.6216
0.0681569
5.14578
5.68598
5.14688
-90.8783
-48.1102
-0.0407205
22.6708
21.9494
22.6604
21.9456
-89.4878
-37.5089
0.0175321
-87.9781
-29.1728
0.076865
-86.6697
-18.7396
-0.0304773
-9.90245
0.486638
-695.069
-3367.33
-159.202
-386.181
-653.625
372.463
-202.234
-253.805
450.106
-102.649
-156.501
-40.3735
-3.76798
149.033
-32.0467
-19.4929
-413.403
-150.268
102.309
178.631
107.171
177.477
-18.3168
-17.628
-17.3431
21.6998
21.4222
-22.1461
-28.3921
-39.2678
2.76198
21.6831
2.74597
12.0061
24.5452
62.1545
-40.0397
-42.1441
-38.6239
5.18066
11.8892
5.03207
15.6512
8.22377
18.3325
-16.8736
-44.0895
-10.5891
6.96875
15.5412
6.83481
14.8719
2.69592
38.8001
-38.9741
-43.8642
-2.89288
7.28653
14.8182
7.25851
14.2515
1.50941
22.1014
-17.384
-45.2594
-0.677812
5.61002
14.2435
5.60535
13.4897
0.067291
27.4158
-23.2247
-42.2713
0.195869
5.42316
13.4842
5.42001
12.7968
-0.392771
14.1986
-12.6745
-35.0214
0.482837
3.90918
12.7951
3.90608
11.416
-0.227092
20.3382
-16.5978
-32.2706
0.172031
2.87851
11.4146
2.87623
-83.1001
-43.6925
0.41172
32.2194
-1.84239
32.2613
-1.83717
15.3747
17.3784
15.3771
17.3742
-74.3542
-57.0154
0.109243
-80.2122
-31.7833
0.0181682
-76.7676
-32.6427
0.0382136
-79.0648
-16.5245
-0.0479406
-11.2759
0.453274
160.232
-1778.43
930.84
-190.879
-421.559
-512.018
5.04123
-434.829
629.511
83.1266
-287.276
24.0757
343.45
-38.0583
-42.4088
233.943
-260.873
-271.703
181.952
136.847
-147.388
17.4291
-77.8796
17.2477
-76.4386
93.8247
-267.797
-170.79
78.9082
83.0379
86.1735
89.7361
39.9032
-37.2165
-94.247
44.0173
-27.7883
46.3277
-27.728
3.18591
-261.979
-73.8538
65.8446
61.424
66.7442
62.3706
-21.6048
-115.972
13.9707
52.5708
-1.8783
52.8573
-1.8981
-25.4802
-196.189
17.2596
58.5828
36.2167
58.4687
36.1046
-39.3187
-67.6609
20.0084
41.3197
-3.60739
41.2791
-3.62231
-54.0572
-109.895
6.07003
45.8324
16.2228
45.8295
16.2026
-58.8779
-39.3337
3.37576
-60.5225
-55.4712
0.980387
-65.8632
-26.5449
0.482961
-68.1997
-30.3082
0.163302
-71.2403
-13.5539
-0.0416138
-10.8871
0.451806
-1005
-1375.69
-3145.66
-309.037
-642.957
-995.188
160.992
-620.459
222.052
257.016
-404.072
-4.16888
335.634
-153.066
-97.8817
338.42
-255.497
-179.9
389.111
18.4922
-42.9777
339.575
-186.272
-193.942
287.821
-57.7461
-22.4187
192.998
-205.05
-2.51479
103.457
-73.7005
140.658
32.3224
-145.758
98.4716
-8.87147
-43.866
46.7642
-33.1936
-90.7836
13.6684
-47.1574
-27.0558
3.64546
-53.0851
-50.2265
1.59974
-59.626
-20.171
0.0285319
-62.2559
-27.7195
0.0709994
-66.2703
-9.63842
-0.0962465
-10.0123
0.48492
887.59
-250.827
1943.38
404.815
-156.732
-1223.92
513.297
-286.891
-623.631
493.603
-281.425
-180.425
541.22
-163.554
111.19
601.15
-261.071
-115.605
615.167
-17.3098
93.5449
617.146
-194.046
79.2365
491.66
0.096651
228.112
363.851
-127.872
200.812
193.427
29.0818
222.905
88.4983
-75.3843
115.013
20.1851
4.61446
58.3491
-14.5359
-61.6572
16.9937
-30.2739
-13.234
5.45734
-42.526
-38.5333
1.69194
-49.6909
-13.2586
0.748957
-54.964
-22.4963
0.112911
-58.2455
-6.44064
-0.0823926
-8.36593
0.230431
1993.44
381.165
-5895.38
1347.97
686.073
-1079.93
518.061
398.236
195.446
391.738
71.1496
-135.615
356.875
-34.6456
146.187
318.781
-175.992
66.3937
282.083
-20.1461
344.669
217.9
-150.25
235.655
142.281
34.1694
303.503
66.694
-71.8356
157.987
35.2891
53.769
110.178
0.0695958
-46.7841
46.3495
-8.74166
11.2667
17.2647
-27.9911
-43.4837
5.19856
-34.9683
-6.32566
0.944871
-43.7533
-29.87
0.591171
-48.1681
-8.92096
0.15953
-53.0481
-17.6321
0.016299
-55.7195
-3.82676
-0.0934332
-6.53377
0.25176
1163.61
1870.39
-126.86
428.359
1131.92
1208.05
-37.5321
494.483
1354.11
-101.486
250.343
119.918
304.719
-80.3558
-69.8019
200.918
-22.8458
20.1299
162.336
81.7333
58.7897
89.6381
-50.1621
28.8042
47.3529
94.1319
34.1763
15.2472
-33.0295
9.34279
17.1231
53.4969
16.0151
-0.531042
-29.296
6.36972
-4.32184
14.6186
4.18505
-20.9361
-27.1117
1.64437
-26.5842
-0.824344
0.733322
-37.3562
-19.1272
0.13886
-41.6551
-4.66424
0.109698
-47.792
-11.5153
-0.0020528
-49.759
-1.91787
-0.072355
-4.46141
0.252536
-1634.31
-421.908
628.406
-912.769
543.586
806.422
-765.64
335.198
535.554
-341.018
67.4638
-91.3671
-66.5779
-163.296
-100.959
-100.271
-6.92479
39.9332
-28.2719
60.8339
-108.635
-68.3084
-17.8247
-19.8613
-17.667
39.1228
-29.84
-38.4787
-16.4779
-8.8349
-8.98992
21.5937
-6.30033
-24.8479
-14.4845
-1.04963
-16.4927
5.78634
-0.905739
-30.1297
-13.484
-0.0672522
-30.3381
-0.687994
-0.0944681
-39.4886
-9.98842
0.130399
-41.7403
-2.44167
0.0039571
-47.2409
-6.03257
0.00111266
-48.4399
-0.771807
-0.105237
-2.24737
0.252746
186.475
892.11
788.24
-205.826
809.579
764.676
503.803
1137.94
-5.27567
1392.95
-41.2881
278.819
-5.64668
98.1366
-37.5802
33.8168
-4.64921
1.20992
-24.0476
4.34734
-4.17379
0.463188
-19.3976
1.22624
-14.1772
0.640431
-27.7399
0.227028
-28.5781
0.204451
-38.5846
0.0222738
-41.0604
-0.0459308
-47.1168
0.00306616
-47.9214
-0.0684819
0.280302
931.643
201.109
4201.12
311.645
-379.342
-72.5797
130.629
-169.882
-229.177
149.737
-126.63
-550.316
74.9707
33.643
-758.416
77.5185
16.5579
-519.715
63.4396
69.359
-370.708
76.6703
4.01045
-139.637
35.9549
46.4591
-22.6621
-17.3055
47.6218
27.03
-73.0996
73.9708
145.214
-100.078
66.324
130.081
-101.632
46.456
98.7942
-110.381
23.5536
33.0062
-112.698
3.82626
6.75072
-114.666
2.18343
0.0111838
-110.892
-3.86921
-0.97959
-110.41
-0.440204
-0.171799
-106.907
-2.6761
0.72613
1.18003
0.212304
-390.983
382.336
-1647.11
-612.378
-585.907
-767.087
-1065.66
-161.348
467.171
-845.121
-236.343
-107.975
-517.775
-151.571
-170.756
-459.159
-88.7652
-39.2581
-307.525
-99.3932
-189.447
-292.954
-23.2591
-109.013
-194.319
-27.5958
-174.499
-200.824
48.411
-99.2353
-153.385
31.709
-23.4507
-139.422
60.1154
21.0963
-109.357
22.8607
23.11
-109.564
23.8939
6.1974
-107.018
-0.405439
2.37748
-109.488
4.52597
-0.976761
-106.8
-6.43119
-0.616107
-107.779
0.362889
-0.235718
-105.529
-4.18615
0.676582
2.22675
0.21036
-823.95
-73.7795
-2847.27
-642.261
-668.286
28.9209
-93.6439
-479.57
-39.5792
-130.85
-166.84
-157.101
-71.997
-168.471
-505.102
-118.326
-13.6489
-335.994
-111.864
-36.4964
-465.291
-128.496
32.8926
-201.375
-129.855
-19.9071
-92.2849
-144.663
65.1693
-31.92
-124.992
16.6732
2.32448
-119.524
58.2571
11.161
-108.394
13.6335
12.0305
-111.261
26.895
3.21897
-107.373
-4.53918
0.431839
-109.086
6.19516
-0.188133
-106.18
-9.35057
-0.236942
-106.646
0.872419
0.058012
-103.194
-7.10002
0.55964
2.85666
0.251094
674.612
-32.9894
-1026.14
-304.266
-607.584
836.319
-644.885
-460.699
881.914
-660.537
-157.295
-60.493
-500.231
-214.412
-200.258
-474.915
-2.82829
-187.667
-354.537
-96.7532
-405.701
-348.247
62.206
-80.4405
-225.142
-91.4225
-76.6959
-225.164
70.7635
-10.0254
-174.429
-32.1274
-1.41677
-165.384
49.1786
3.74056
-134.298
-17.6746
3.98821
-127.674
20.0503
1.06733
-116.175
-16.196
0.461989
-111.697
1.67983
0.00779827
-105.646
-15.4752
-0.136338
-102.63
-2.29476
-0.0703493
-101.36
-8.17506
0.205539
3.30875
0.167071
850.421
-938.04
3496.68
-237.412
-447.976
1655.38
-525.622
-369.227
1323.98
-651.025
-276.676
275.909
-552.224
-246.904
-358.574
-475.189
-28.1544
-102.871
-194.088
-350.028
-138.768
-203.64
65.022
12.0283
-154.046
-133.655
-10.4016
-173.255
91.8115
4.83705
-151.245
-52.7417
1.55055
-147.622
46.0293
2.00877
-128.74
-36.1937
1.0467
-122.822
14.2336
0.442244
-109.83
-29.155
0.0604404
-105.995
-2.14913
-0.129647
-101.025
-20.7906
-0.435451
-101.228
-2.52657
-0.393107
-98.3317
-10.7264
0.306866
3.4017
0.320996
-573.463
-163.695
-3106.91
-694.675
-408.698
297.975
-958.436
-235.825
1374.46
-824.564
-521.902
98.76
-704.135
-195.305
-601.504
-602.214
-63.5301
-145.729
-274.851
-596.341
-155.269
-372.871
184.517
18.8298
-242.473
-251.713
23.5611
-240.318
93.2897
14.2817
-197.565
-94.2448
5.58825
-178.34
27.145
2.78421
-145.409
-69.0191
0.833411
-132.859
1.78964
0.463496
-122.981
-39.0074
0.0325068
-110.273
-14.8687
-0.102397
-103.934
-27.2867
-0.377819
-97.8177
-9.25469
-0.502279
-95.8992
-12.1376
0.437116
3.53229
0.278619
2573.77
3246.51
1669.92
397.725
480.722
535.202
-284.422
104.826
737.331
-469.58
-655.614
-194.995
-244.709
-352.455
-535.802
-460.126
115.979
-186.325
-528.927
-106.193
-379.701
-117.441
-105.779
-114.713
-625.41
104.591
-23.9229
57.5726
104.338
57.0316
-471.258
-61.5889
-14.5111
-131.99
-62.2827
-131.965
-392.711
0.274618
8.55861
6.8191
0.592055
6.88758
-273.628
-16.9454
2.92407
-89.1928
-16.8737
-89.1637
-210.114
-6.75691
1.56714
-11.7107
-6.7586
-11.709
-158.27
-2.11541
0.800903
-58.541
-2.11449
-58.5398
-140.612
6.25342
0.264025
-14.3068
6.2539
-14.3127
-113.295
-66.3866
0.112299
-102.804
-25.5515
-0.280436
-98.4034
-32.2892
-0.655991
-96.6871
-10.969
-0.112062
-95.4419
-13.2314
0.19505
2.8664
0.455153
462.251
3746.83
-938.571
-306.845
253.715
2229.85
-430.159
-239.36
454.871
-561.63
-762.668
100.433
-261.142
-635.299
87.83
-126.294
76.6234
-45.6489
-137.283
-128.694
-141.536
102.082
79.7013
100.624
41.1599
-163.231
-69.1535
-41.2627
-14.9653
221.897
-174.251
60.8312
11.0793
-5.56924
148.987
-129.552
-76.21
0.755138
1.07849
146.419
-103.68
-44.0482
0.505836
-0.633079
74.5743
-53.6507
-37.3699
0.133968
0.191265
68.1846
-47.6014
-27.4811
-0.050292
-0.0823061
42.0391
-30.4152
-13.6589
0.00181459
0.100759
45.4993
-30.4906
-8.84743
-0.0086665
-110.547
0.490192
-0.117304
30.9327
25.1858
30.9307
25.1724
-34.3387
0.500543
-34.3311
-98.4118
-38.4954
-0.548267
-100.189
-30.6481
-0.318893
-94.827
-16.2021
0.096854
-94.8743
-13.1084
0.202762
0.852389
0.506184
-392.38
1257.68
3106.53
-572.24
171.871
584.236
-277.062
-262.35
-33.6111
-588.278
-318.388
73.0974
-151.841
-423.959
76.2089
-190.278
-156.182
-192.262
-76.0233
-124.76
69.7314
55.8344
5.86117
3.4461