/*--------------------------------*- C++ -*----------------------------------*\
  =========                 |
  \\      /  F ield         | OpenFOAM: The Open Source CFD Toolbox
   \\    /   O peration     | Website:  https://openfoam.org
    \\  /    A nd           | Version:  10
     \\/     M anipulation  |
\*---------------------------------------------------------------------------*/
FoamFile
{
    format      ascii;
    class       surfaceScalarField;
    location    "0.5";
    object      phi_0;
}
// * * * * * * * * * * * * * * * * * * * * * * * * * * * * * * * * * * * * * //

dimensions      [0 3 -1 0 0 0 0];

internalField   nonuniform List<scalar> 
38556
(
-856.099
1021.31
1824.28
97.6078
216.352
-1170.06
199.182
650.144
-751.719
167.238
542.944
-511
278.551
372.454
-483.767
472.498
145.825
-339.771
609.517
75.6492
-212.668
733.671
-0.016343
-124.138
766.931
22.7301
-55.9898
774.203
24.6828
-31.9548
622.438
84.8319
66.9331
423.388
97.71
101.339
222.994
78.6399
121.754
135.604
39.5449
47.8455
109.291
14.7225
11.5902
93.4051
11.1927
4.69371
89.5902
2.75474
1.05982
85.4608
3.75131
0.378323
85.6807
-0.0940489
-0.125912
1.8516
-0.300514
-1722.32
729.142
-125.038
-626.659
-73.0503
-806.255
-414.58
591.78
-153.714
-351.747
399.834
80.2778
-200.709
219.888
1.52717
-152.398
109.421
-11.906
0.424941
-12.517
-64.657
33.3396
12.2124
-45.1435
129.372
-13.6888
-59.6135
135.218
51.3498
-32.5131
138.281
52.5655
29.2039
110.495
84.8472
40.6485
102.696
47.7184
38.7209
88.2972
41.2228
12.7207
88.0116
9.83209
5.17612
83.7924
13.8048
1.60693
85.1987
0.865984
0.482665
83.7397
5.06101
0.149307
85.2617
-1.47614
-0.140119
2.93802
-0.284629
-313.374
1057.61
-2556.59
-740.974
-7.06851
361.618
-136.142
166.829
-179.881
-231.05
473.079
21.6632
-73.0295
248.49
-186.622
-57.0478
223.153
-129.714
56.873
78.7942
-205.232
58.779
108.515
-98.2086
89.2322
14.9407
-59.0824
76.476
81.5539
-17.4479
85.5268
30.3381
13.1766
83.9076
72.0392
14.4272
91.5227
26.5509
13.5525
88.3905
38.5377
5.8173
89.7061
6.39511
2.12163
86.9911
15.6406
0.879251
88.2048
-0.585461
0.237656
86.442
6.68805
0.135595
87.6146
-2.43712
-0.211658
4.44609
-0.316402
-815.653
1212.74
613.756
-526.259
115.168
-411.631
-471.174
-38.8228
150.568
-476.722
393.445
85.1815
-346.124
146.415
-28.5227
-275.721
225.321
-72.5711
-81.2211
31.8429
-147.549
-95.8598
143.428
-20.2744
-24.559
-43.0047
-13.3555
-36.1203
92.1756
0.939667
11.5452
-20.7959
3.46839
19.9671
59.7171
3.90015
49.8511
-7.008
3.67511
56.1445
31.0012
1.24322
68.1493
-6.05531
0.445428
72.4886
11.0648
0.236231
78.6247
-6.76143
0.0399702
80.8254
4.46925
0.0182079
84.1584
-5.57316
-0.197086
3.798
-0.274829
235.865
911.819
4221.88
-276.287
482.547
144.773
-704.346
39.7168
349.52
-519.64
157.332
51.4062
-292.921
52.5649
-132.869
-250.971
216.885
-33.5146
7.3382
-160.509
-65.9568
-25.8495
173.702
2.91362
31.475
-96.0354
-4.29361
10.5823
110.413
2.65516
34.2689
-45.9028
1.42036
38.8361
53.6635
1.48655
56.5821
-26.2634
1.50952
62.5632
24.4189
0.601038
74.8142
-18.3276
0.0212586
78.4534
7.31847
0.107209
84.6369
-12.9099
-0.034794
86.171
2.91207
0.022941
88.58
-7.73516
-0.247261
4.31422
-0.323917
-1280.92
-1244.3
-71.4004
-1025.73
164.36
63.0011
-1089.29
112.299
-9.02051
-659.257
-41.381
-231.32
-489.044
115.842
-233.49
-336.918
139.834
-75.0757
-21.0102
-429.386
-47.0302
-131.927
242.707
41.9124
-46.8438
-199.272
18.154
-52.6795
107.001
9.24841
-10.0387
-91.8179
3.27423
6.15006
35.8069
1.66793
35.4471
-56.1058
0.545238
46.8251
12.0295
1.01144
56.1468
-27.7475
0.0983323
70.2632
-6.82901
0.0311214
76.1761
-18.8021
-0.0208842
83.7303
-4.64272
0.000462597
86.8535
-10.6324
-0.225844
2.05745
-0.288258
-929.72
-183.444
540.205
-741.408
251.144
-275.095
-1029.76
367.953
32.6952
-471.45
-146.889
-452.8
-203.621
209.043
-361.03
-256.694
355.568
-162.661
-217.571
-40.1916
-164.752
-111.971
-45.294
-106.302
-354.556
98.9123
35.8226
71.0796
100.388
73.4904
-222.403
-63.1287
11.0395
-110.864
-55.3969
-113.075
-158.414
3.92338
3.17951
18.2891
0.0669307
17.5522
-79.994
-17.9684
1.44301
-68.7091
-16.8538
-68.1499
-24.409
-6.59848
-0.510813
-2.2108
-7.4321
-3.02596
15.2834
-3.82744
-0.420343
-44.1479
-3.59941
-43.803
35.6149
4.88576
0.114573
-9.09629
5.20648
-9.4125
65.665
-57.9541
0.156394
78.5472
-19.625
-0.08642
88.0037
-28.2558
-0.00275784
91.7414
-8.41408
0.0337778
93.8006
-12.4908
-0.200745
1.60781
-0.291559
401.523
-81.7992
-924.23
-718.998
110.557
1261.11
-774.067
288.218
134.804
-379.526
-205.96
-335.47
64.6189
-140.613
-94.4886
-12.6287
101.14
-38.0455
-25.7483
-19.7821
-26.1527
163.328
115.922
162.154
-49.9926
15.6134
-18.441
127.761
-106.621
62.9151
14.8578
79.1522
-76.7224
-73.0268
7.46824
85.6741
-48.6923
-31.4933
-1.56522
22.9246
-14.203
-27.4685
0.778477
19.2001
-5.45707
-20.1979
-0.14363
-3.0928
7.02785
-7.82593
0.0634593
-0.128949
10.2108
-4.99783
-0.198293
69.9469
-2.73406
0.16772
-10.9466
-22.0377
-13.4117
-23.6475
-26.3041
-2.60814
-26.379
89.3473
-38.706
-0.319468
90.0558
-28.7948
-0.169343
96.8927
-15.1028
-0.148262
97.4804
-12.8721
-0.206523
-0.0796953
-0.274486
555.948
-147.509
599.402
-51.21
417.182
300.534
-96.9015
348.374
-14.4647
-272.486
-78.0382
47.6625
-24.6591
-333.86
67.9625
-45.8118
-32.3552
-44.3756
-2.2716
62.5404
16.212
-14.8571
-4.58581
-2.45313
18.0929
3.80314
13.5734
-5.00348
-8.28408
-2.44204
2.1562
-3.67277
17.1121
0.551695
-19.1043
5.11322
5.36741
9.78856
-1.88038
-11.5629
-1.71272
-1.27595
5.10276
2.82241
-6.26601
-0.383209
0.649682
2.64542
1.55732
-4.69907
-0.153359
-1.46087
-0.00140166
3.65389
-2.17218
-0.0194294
-1.35381
-0.864711
3.57427
-1.35274
-0.00300171
-3.18317
21.7487
-5.17883
0.106883
-5.51823
-4.19058
-6.51881
84.0279
-38.8235
-0.687546
-15.8792
-23.4506
-18.1478
-25.7452
89.0558
-33.9315
0.108618
94.0527
-19.8767
-0.223119
98.5311
-17.0009
-0.349635
-4.53191
-0.391663
1607.95
37.7711
40.4941
1368.95
694.039
-37.8653
756.199
390.92
570.209
537.122
46.8519
94.1871
6.36861
-164.628
221.915
-9.68351
84.3062
64.9841
-2.0643
14.3678
-40.6603
34.7255
-5.58936
-20.6822
23.0417
1.48274
1.74717
16.409
-13.0403
7.8673
-15.9781
4.74212
16.1921
-4.53888
3.8022
-15.3883
-0.0671344
11.422
-3.10735
3.70793
-11.2962
-0.726365
8.54166
-4.597
4.87668
-8.51494
-0.306407
6.52219
-4.2951
4.42509
-6.60734
-0.0448409
5.01059
-4.24032
4.53534
-5.29588
-0.00972067
3.89582
-4.36724
4.6072
-4.16879
0.0330069
-4.48873
12.1917
22.7198
-12.9961
-0.0450369
-5.42056
-5.45827
-6.5028
103.764
-43.534
-0.723762
-21.5215
-25.6163
-23.6649
-27.5273
103.971
-34.2344
0.0960765
108.565
-24.419
-0.0517396
109.665
-17.9088
-0.19229
-7.25514
-0.315712
1917.28
498.051
-1725.96
1731.32
777.027
102.969
1217.59
637.571
267.082
1149.36
199.079
-84.0002
102.27
240.051
160.061
90.5981
206.633
185.121
64.279
33.0757
-47.4982
52.4133
22.9049
-7.35266
8.26362
-25.7967
1.98086
22.6225
-15.92
16.6973
-24.7967
1.39686
14.7024
-16.2652
14.0771
-14.8281
2.31377
10.1776
-8.78313
8.59644
-9.00964
-0.981277
7.62358
-8.1277
8.08776
-7.05057
-0.533072
6.2634
-7.35158
7.30653
-6.05368
-0.164671
5.34965
-6.8089
6.75483
-5.30558
0.0100042
4.54581
-6.57151
6.55438
-4.51103
-0.0176518
-5.94372
14.9818
28.5748
-15.9008
-0.152157
-6.68831
-7.12664
-7.74491
116.111
-44.8615
-0.334796
-25.9964
-29.2126
-27.9575
-31.2827
114.517
-32.905
0.26523
117.7
-27.5316
-0.0702482
118.071
-18.1547
-0.124791
-9.78331
-0.370923
286.447
126.124
373.398
873.523
-98.654
288.605
718.499
107.402
685.193
756.513
-6.43712
167.502
46.2858
260.338
492.253
36.3085
70.987
90.3914
54.6491
26.7515
-97.7246
62.6097
30.5077
-15.6602
16.6964
-31.2675
-0.276396
20.856
-14.9072
14.1807
-16.5353
-3.59424
13.856
-9.62697
9.83684
-11.9172
-2.14872
5.54073
-8.79538
8.7342
-5.47595
-0.00359447
5.25574
-7.73471
8.15445
-5.29027
-0.385215
5.62954
-6.83192
7.18076
-5.95533
-0.0230537
5.67287
-6.71017
7.19631
-6.15261
-0.00640959
5.1398
-6.56908
6.95954
-5.54604
0.01579
-6.78223
17.3883
34.9199
-21.4476
0.0683399
-7.75991
-7.62411
-8.76271
123.458
-41.9069
-0.565658
-30.9313
-29.7405
-33.4179
-31.7569
125.373
-34.7644
-0.0556772
126.998
-29.0063
-0.150615
128.709
-19.5323
-0.333386
-12.3237
-0.296001
399.38
-72.367
1312.71
203.017
-380.54
478.25
-144.506
2.72212
452.202
97.5989
-204.187
-44.3553
282.714
62.4862
12.7364
34.2025
-393.444
-63.2525
135.575
206.201
73.4391
184.95
36.096
33.212
35.7348
21.5205
42.3035
-51.4731
-13.803
6.82652
21.9009
6.92714
11.139
-1.68546
22.5592
-41.5802
-15.1533
6.81256
10.9823
6.92587
11.7605
-40.6455
38.4854
-35.1879
-0.256976
6.9115
11.8181
7.115
9.99384
-6.22143
1.85074
-31.734
1.43854
6.91669
10.4524
7.30322
9.66987
-23.9164
30.0964
-36.3981
-0.593367
5.54166
9.86424
5.73569
9.24328
-21.2702
23.9737
-32.5463
-0.430565
5.82813
9.26808
5.93384
8.99236
-37.499
39.9364
-29.9279
-0.177073
4.76593
9.0337
4.87554
8.33447
-33.4909
35.2282
-27.3389
-0.0398287
4.46217
8.30249
4.54229
140.256
-32.7316
0.389982
23.1266
0.224545
23.2913
0.232066
-40.184
-35.403
-41.5938
-37.6077
149.512
-51.0493
-0.11352
143.615
-28.8371
-0.0306027
146.812
-32.075
-0.129029
144.233
-16.7321
-0.220825
-12.6347
-0.14311
227.67
-235.771
-1238.93
945.848
-443.963
-654.755
567.261
-276.77
658.08
547.152
-168.852
-15.2265
547.404
23.4475
38.7867
455.522
-78.6377
-222.925
396.518
367.041
-186.396
22.458
-76.1335
14.9069
-82.8719
325.593
25.2531
-191.802
52.9387
70.8147
46.7991
66.9218
304.868
217.296
-162.45
19.5408
-35.091
18.4215
-36.992
287.456
-45.3624
-116.85
39.0003
53.9972
35.7289
50.8993
256.206
-4.08207
-19.7468
34.8394
-7.64898
34.3246
-6.43656
222.276
-157.816
12.0681
45.317
44.4079
45.7319
44.2211
202.306
-54.8465
18.9937
30.673
-3.04935
30.684
-2.48423
178.945
-100.586
7.47349
34.4365
23.7405
34.3444
23.9518
173.985
-31.6522
3.88019
170.614
-48.9332
1.25449
164.213
-23.0845
0.648781
160.483
-28.5508
0.205444
156.786
-12.8839
-0.15121
-11.2344
-0.0922776
418.15
-1213.87
-2165.63
1098.29
-568.673
-555.435
516.652
-259.855
564.728
433.812
-76.5611
-9.45148
468.204
119.659
-130.603
476.146
85.9193
-172.499
569.081
387.474
-113.369
567.396
196.143
-169.205
611.487
267.24
-94.0356
579
30.0112
-42.8866
433.648
52.1787
89.091
291.507
-96.1876
80.513
229.588
-27.0718
34.1441
198.34
-81.0346
11.6971
184.665
-20.5054
2.52875
178.397
-43.8148
1.14955
171.335
-16.2539
0.230725
168.048
-25.392
0.128575
163.879
-8.47162
-0.243373
-10.1499
-0.0810996
1066.03
363.16
405.664
1285.57
459.605
-1247.81
956.933
212.076
-143.297
861.02
87.4563
-68.1046
716.895
108.204
155.58
748.414
116.643
-62.2437
774.304
284.151
77.4335
820.933
75.6571
73.8563
758.469
168.505
161.199
671.968
-30.4017
146.914
487.507
83.3555
153.285
357.218
-46.4007
80.5019
270.468
19.3396
40.3383
221.998
-46.7657
14.2009
203.643
-6.65008
4.50037
190.781
-32.183
1.22935
183.387
-9.51891
0.659281
177.724
-19.8659
0.137468
174.538
-5.13306
-0.15257
-7.97284
-0.145261
2756.69
1753.75
-3938.04
2251.02
1798.52
-833.244
1601.09
792.8
69.2142
1238.15
373.522
76.8684
884.038
220.83
241.489
833.352
59.6674
107.662
688.421
121.361
307.721
629.449
-78.3229
212.952
481.491
54.1935
262.268
377.919
-62.5637
135.735
295.235
62.6972
103.342
240.545
-33.3458
41.6358
221.817
20.144
17.923
202.074
-32.552
5.52954
196.208
-2.11783
1.33385
187.809
-24.2688
0.48476
183.856
-5.75876
0.193085
179.183
-15.2246
0.0321693
176.887
-2.70071
-0.136295
-6.34574
-0.0818716
2792.22
3862.72
-124.05
1693.76
1974.28
922.711
969.627
560.504
956.425
728.252
401.089
213.808
569.709
91.5291
287.844
528.563
33.9394
66.8732
436.972
88.9951
123.957
372.626
-67.971
53.9936
304.52
71.4645
50.8356
263.964
-37.8474
15.8401
251.224
56.2593
19.1774
231.375
-20.9761
7.47924
225.596
21.1538
4.76902
209.891
-18.4217
1.57486
204.374
2.51264
0.887159
194.615
-14.6971
0.187042
190.99
-2.31274
0.178692
185.317
-9.56003
0.0085743
183.84
-1.10067
-0.12278
-4.13979
-0.0534012
207.58
1729.79
-519.423
182.638
1233.59
765.627
-146.661
361.669
528.135
-47.7768
170.527
131.678
104.038
-129.881
69.5948
76.4375
31.5027
30.0377
150.997
67.203
-52.7676
115.926
-7.62629
-25.2733
177.574
43.5741
-33.7573
164.172
-12.1255
-12.3198
201.834
26.6585
-8.06154
192.755
-9.55582
-2.34158
204.762
10.1911
-1.04347
196.28
-9.48337
-0.456449
198.027
0.956279
-0.19079
191.064
-7.84713
0.113074
190.017
-1.31271
0.0470866
185.467
-5.01745
0.00657255
184.925
-0.390458
-0.167975
-2.04158
-0.0481153
858.961
433.674
2257.92
-165.37
2168.77
450.821
1573.01
766.291
410.982
1032.14
182.17
260.315
169.45
79.9228
144.272
17.5519
193.502
-5.65558
180.32
1.05638
208.139
-1.16049
198.25
0.333392
207.947
0.49452
198.607
-0.144306
199.604
-0.0400131
191.69
0.0666719
190.407
-0.0302622
185.365
0.0245403
185.081
-0.106182
-0.026324
498.817
570.906
1318.45
531.399
-242.361
-960.281
126.028
145.356
-491.704
26.0276
256.103
-667.104
157.409
184.65
-799.797
307.228
31.6834
-521.275
440.921
-18.6062
-327.755
537.951
-84.5557
-136.613
585.251
-60.8747
-42.4149
592.393
-44.9673
5.8703
464.506
43.1901
151.63
307.217
77.7974
180.831
191.844
68.073
169.054
133.932
37.86
67.8979
111.57
15.0289
18.9228
97.5541
11.2592
7.45047
93.8912
2.83005
1.89286
89.8971
3.782
0.590088
89.8365
-0.0702139
0.00475444
1.85603
-0.0938741
-876.585
244.843
-965.836
-502.755
-240.232
-1182.21
-743.741
128.552
104.077
-537.493
100.128
30.0061
-348.869
31.1625
-33.6097
-269.018
24.0429
-84.1157
-85.602
-59.7064
-206.973
-81.0368
-4.41345
-129.851
1.62066
-27.1302
-176.016
1.23131
39.7008
-116.792
57.5519
37.2447
-21.1713
65.8038
74.9682
35.2258
90.6626
39.9843
41.951
86.8791
38.6071
15.7574
90.7001
9.47711
6.90677
87.5987
13.691
2.2765
89.2541
0.893159
0.764135
87.9219
5.07695
0.186423
89.2192
-1.44441
-0.0632792
2.93275
-0.101027
-213.508
-46.3528
-2631.93
-24.9494
-94.7223
27.5494
-221.882
-1.78967
147.394
-228.923
257.837
-129.005
-37.9996
91.1691
-437.552
-5.36385
149.489
-287.795
81.5761
31.1687
-383.047
62.9389
89.3685
-173.353
73.1725
6.36907
-102.815
54.3191
77.1497
-36.0434
75.2769
24.1281
5.33542
80.1364
69.0521
15.484
92.676
24.8025
16.1945
91.4779
38.1488
7.47375
93.5407
6.50065
3.03552
91.1529
15.6968
1.26145
92.3604
-0.491435
0.414688
90.7117
6.71403
0.147035
91.5654
-2.3744
-0.13571
4.44978
-0.120188
-388.764
65.6541
1705.21
-507.594
-408.217
20.694
-801.263
-172.854
615.3
-565.692
154.7
-47.2527
-356.547
-28.9871
-117.511
-287.761
151.699
-143.567
-78.1098
-5.02342
-321.008
-93.324
134.395
-50.0865
-23.3795
-39.8163
-37.1147
-33.0491
94.9117
-7.15241
14.4118
-19.7707
-0.0935058
23.0289
60.2361
4.0988
53.7818
-6.79214
4.51704
60.3037
31.0341
1.83634
72.1666
-5.84528
0.92833
76.6262
11.0936
0.379712
82.7072
-6.67943
0.146919
84.9417
4.47415
0.0233848
88.0626
-5.54298
-0.149674
3.78608
-0.101492
312.623
-305.225
6184.35
-192.708
-708.718
950.605
-790.296
-330.855
1105.11
-546.205
-57.8742
19.8899
-283.345
-125.27
-299.447
-251.8
139.286
-52.6461
10.3859
-235.794
-97.3718
-21.5355
159.954
9.2761
34.7961
-95.3243
-5.11757
14.086
112.645
5.63208
37.436
-43.9431
2.24279
42.3206
54.3142
2.52379
60.8701
-25.6536
1.82168
67.0144
24.5793
0.911498
79.0015
-18.088
0.276571
82.7388
7.35493
0.108565
88.8378
-12.8363
0.0231317
90.4137
2.90829
0.012801
92.5168
-7.69817
-0.195219
4.29416
-0.137118
1095.26
-908.37
-4333.75
1038.37
-562.144
-26.6776
-524.471
-44.2126
1267.18
-542.119
-260.19
-11.3566
-400.709
-76.0425
-424.126
-338.503
81.2307
-79.2267
-64.1098
-498.324
-58.8941
-149.699
238.414
49.041
-51.6716
-204.159
28.9613
-51.8806
106.203
15.899
-7.8375
-90.9262
6.21423
8.92109
35.9896
3.23408
38.3481
-55.6334
1.09805
51.0079
11.9723
0.958399
60.2165
-27.4209
0.222493
74.3108
-6.77748
0.0692878
80.2072
-18.7431
-0.0104055
87.7845
-4.66858
3.56376e-05
90.6679
-10.6175
-0.189974
2.03414
-0.115508
251.329
-29.4883
-2525.91
211.322
81.4563
-878.688
-546.279
392.918
353.166
-385.795
-372.598
-500.875
-170.27
-167.963
-484.634
-272.724
232.829
-211.806
-271.66
-80.5706
-276.776
-109.671
-91.654
-105.468
-371.956
102.514
22.4783
73.9377
102.218
73.384
-222.866
-59.2067
3.13429
-113.64
-59.5878
-112.91
-156.334
0.345443
8.15048
16.8843
0.587027
16.8833
-76.9837
-17.6021
3.36842
-68.5152
-17.5867
-68.4975
-20.935
-7.51764
1.11491
-3.32897
-7.48997
-3.34822
18.4774
-3.98961
0.506209
-43.9941
-3.99379
-43.9948
39.4805
4.99172
0.306876
-9.60498
4.99225
-9.6022
69.7121
-57.789
0.292928
82.6125
-19.7855
0.0211556
92.0464
-28.2092
0.029592
95.8521
-8.45696
0.0164441
97.6789
-12.4609
-0.184301
1.60939
-0.137433
-949.955
1262.79
-1240.85
-573.056
-146.804
1112.47
-107.519
133.558
-71.3725
-217.278
-470.091
-128.219
-110.683
-470.173
101.127
-54.9585
72.5843
-56.5449
-57.2838
-63.3945
-63.8387
119.976
68.0215
119.539
30.2693
-89.3226
-34.6934
-41.7825
-16.5231
150.738
-115.142
66.2743
17.1669
-8.70465
82.3812
-73.7357
-66.3626
7.21514
0.980259
82.0083
-47.5166
-34.2057
-0.920907
-0.66288
21.7287
-12.2266
-26.9995
0.558221
0.463625
16.737
-3.28584
-21.087
-0.345349
-0.448909
-5.01411
9.19235
-8.04843
0.329503
0.258844
-2.67601
12.6951
-5.14826
-0.138
74.7764
-2.69168
0.285268
-13.2241
-24.0554
-13.1957
-24.0459
-26.4203
-2.65124
-26.3987
93.7697
-39.0377
-0.0607631
94.2828
-28.8393
-0.0525036
100.891
-15.1633
-0.0502637
101.264
-12.8882
-0.151891
-0.0963931
-0.117141
886.828
2300.66
2556.99
424.786
311.597
304.176
253.621
69.619
220.639
-119.123
-277.696
228.01
-59.1361
-400.773
173.41
-69.2236
-67.0804
-98.5306
-43.3649
-43.7486
32.1528
68.4089
-0.436393
-6.32831
5.36615
-8.7035
12.9679
-2.86588
-1.81135
16.4506
-8.09822
-9.60537
2.63618
0.428182
-0.831916
-12.9413
9.63265
14.835
-8.68345
-2.01094
0.265475
-5.14556
10.6669
5.58478
-12.3992
1.0276
0.222951
-4.54177
5.21576
5.65633
-6.33972
-0.213546
0.0984002
-1.19692
2.84185
3.2836
-4.95288
-0.0740381
-0.0532821
-3.11471
0.172082
5.28557
-2.33715
0.0474884
-0.0213795
-2.96534
-0.733177
5.16286
-1.4629
0.0199331
-4.38394
-0.150795
24.6391
-5.14347
0.117531
-6.698
-4.37955
-6.69253
88.5846
-39.136
-0.0728908
-18.4839
-26.1202
-18.4423
-26.0547
93.8154
-34.1082
0.146686
98.5181
-20.0155
-0.0738254
102.492
-17.0294
-0.182496
-4.55568
-0.187714
430.731
908.447
399.231
-140.235
311.413
533.285
403.82
-1.0696
96.8415
167.185
-238.528
291.654
48.2305
-293.625
246.947
16.2377
-8.8606
-20.6026
-59.8013
32.5056
66.1221
-43.8909
53.2949
-16.9751
3.86935
-24.5606
26.9307
-8.40469
19.1404
-19.9381
12.9584
-25.9168
24.0064
-12.5611
21.4512
-5.979
10.8046
-14.7342
12.4133
-10.6654
8.1607
-0.654228
10.4566
-8.3684
7.95194
-10.748
1.36203
-0.120974
8.59803
-6.8175
6.86789
-8.73391
0.20646
-0.0883907
6.66403
-5.95505
6.01738
-6.7311
0.093135
-0.079477
5.07229
-5.50771
5.72916
-5.33066
0.116393
-0.0731474
3.95758
-5.62676
5.89398
-4.2197
0.0680462
-5.7365
-0.037011
12.129
25.7346
-12.9412
0.0624095
-6.71392
-5.70982
-6.78753
108.154
-43.7014
-0.0910647
-24.1954
-28.0909
-24.1428
-27.7918
108.375
-34.4114
0.177644
112.786
-24.5176
0.0399348
113.644
-17.9791
-0.100813
-7.29134
-0.150196
1542.75
-1895.31
570.867
1827.22
14.0568
115.852
1304.66
240.9
547.676
884.739
6.92336
90.4662
115.105
67.4545
428.539
83.2015
54.7114
2.16364
-59.5943
52.7395
91.7767
-46.2187
76.4017
-15.4948
16.3171
-18.4773
16.4318
-17.1859
18.4091
-7.35516
16.8665
-14.9938
15.4754
-18.9461
8.95322
-5.87823
13.6436
-15.8495
15.7131
-13.7823
6.1533
-0.502003
11.3233
-12.5314
12.0273
-10.7923
0.475094
0.662221
8.07963
-10.4631
10.111
-7.55043
-0.839248
0.301636
6.41255
-8.40054
8.36667
-6.10259
-0.577733
-0.0189207
5.50237
-8.04467
8.04008
-5.45803
-0.0208298
0.0966344
4.7
-7.84335
7.80352
-4.63416
-0.122652
-7.08326
0.166778
15.017
31.0197
-15.9879
-0.149275
-7.89567
-7.20212
-7.8853
120.412
-44.8478
0.277214
-28.2519
-31.721
-28.13
-31.7747
118.918
-32.9629
0.311353
121.933
-27.5976
-0.00518047
122.085
-18.2217
-0.0344834
-9.86511
-0.196336
487.886
-3574.77
-3309.81
-195.821
-286.587
1272.96
525.351
12.7401
192.18
320.443
75.3547
303.979
-13.8553
290.447
554.268
44.51
-33.1464
37.9271
-94.1184
64.5062
-1.27738
-65.5698
82.6041
-0.24644
25.8603
-14.1008
15.5802
-25.9479
-1.14539
11.7362
16.4416
-14.1595
14.0592
-14.574
-13.5034
4.95366
12.5241
-14.0512
14.508
-11.3022
-6.6324
3.6362
8.36783
-13.1324
13.0465
-7.74484
-4.17323
0.546872
5.67007
-10.3293
10.2489
-5.68226
-0.454308
-0.0134751
5.64328
-8.27499
8.56447
-5.95315
0.0338776
-0.0705262
5.71896
-8.04303
8.50191
-6.18687
0.0795544
-0.0606852
5.19097
-7.83813
8.22496
-5.585
0.0678851
-7.84262
-0.0690531
17.4975
37.7295
-21.6293
0.086222
-8.96555
-7.84561
-8.96107
128.28
-41.8042
0.127872
-33.7843
-32.2386
-33.7815
-32.2128
129.945
-34.808
0.124349
131.281
-29.0664
-0.0180647
132.545
-19.6077
-0.211486
-12.3875
-0.102094
-448.112
-2609.87
-1036.11
-142.615
-355.456
241.623
-52.9689
-98.2145
473.51
85.6094
-65.2548
-42.3237
189.37
226.153
-26.7306
23.5437
-337.015
-143.817
78.6356
169.754
83.2694
168.634
27.9033
26.1496
29.0598
16.4397
23.7368
25.6443
-17.7593
-40.8134
-0.0856882
16.4375
-0.0561643
8.39847
29.8049
17.8623
1.46699
-30.3196
-43.1515
3.96559
8.21695
3.75578
11.0419
6.06733
-29.6037
33.3843
-35.3931
-8.50755
6.0433
10.988
5.97949
10.0232
0.305747
-5.25457
4.30716
-32.7236
-0.524156
6.93673
9.99691
6.93253
9.79565
0.693467
-27.282
33.2233
-38.0412
0.405704
5.70457
9.79597
5.70453
9.23858
-0.510987
-24.4548
26.8911
-33.2012
0.987711
5.90453
9.23998
5.90504
8.99181
-0.569466
-39.9361
41.9763
-30.0059
0.833617
4.86006
8.99118
4.85848
8.28008
-0.271333
-35.6819
37.337
-27.2926
0.313353
4.51952
8.279
4.51681
144.952
-32.797
0.955812
23.1814
0.101955
23.2122
0.121505
-41.9694
-37.7102
-41.9548
-37.7041
153.855
-51.0201
0.1995
147.826
-28.9608
0.151144
150.789
-32.1305
-0.0280174
148.007
-16.8595
-0.186561
-12.743
0.0150271
136.63
-1700.42
1986.39
-87.6029
-299.945
-486.032
186.399
-314.062
599.926
268.131
-206.115
43.9014
548.454
20.8913
-36.2738
457.933
-202.126
-267.293
403.546
186.254
-151.563
0.608961
-84.5842
0.357488
-83.0824
329.196
-216.307
-180.561
54.4379
78.9078
60.9954
85.0748
281.314
-8.76607
-100.748
25.8709
-29.5916
27.7492
-29.0821
239.521
-224.863
-76.0937
47.3936
64.6954
48.2827
65.5276
215.572
-90.0249
21.6343
38.9824
-2.92835
39.3267
-2.78814
199.139
-179.162
24.4377
46.5689
45.0744
46.5316
45.0505
194.065
-57.5664
26.1113
30.6126
-2.82334
30.5678
-2.83521
177.603
-100.987
8.7364
34.2463
23.8582
34.2381
23.8449
176.507
-32.096
4.27494
174.391
-49.0002
1.34984
168.405
-23.1054
0.779724
164.83
-28.5661
0.216479
160.967
-13.0021
-0.146059
-11.3134
0.117217
-870.288
-1067.84
-2744.68
-195.463
-532.4
-997.805
326.255
-521.45
250.397
439.651
-345.798
16.8362
522.905
-108.502
-84.4629
541.567
-212.417
-180.87
602.546
53.3261
-41.4194
567.462
-149.137
-201.291
523.111
-31.472
-26.9775
436.686
-175.165
-6.15984
350.091
-53.2855
138.946
274.028
-125.942
103.356
228.612
-32.5856
54.579
201.825
-81.6891
19.1853
188.545
-20.7619
4.47569
182.674
-43.8533
1.87387
176.006
-16.4836
0.277305
172.84
-25.4384
0.166733
168.251
-8.49031
-0.16633
-10.0788
0.184037
724.632
-57.0093
1593.21
364.689
-144.926
-1275.35
649.645
-300.242
-649.462
667.813
-280.627
-151.443
729.035
-148.874
134.729
810.3
-237.036
-118.889
827.963
12.51
100.586
844.083
-166.969
75.5686
723.337
23.5745
226.898
603.224
-104.983
196.844
437.701
45.636
219.887
335.381
-58.8285
115.708
264.923
16.3176
61.8937
223.089
-47.4766
21.8226
206.84
-6.85697
6.84409
194.66
-32.1616
1.71812
187.473
-9.5703
0.932672
181.847
-19.871
0.196493
178.506
-5.1865
-0.115563
-7.99501
-0.0257982
2236.31
260.771
-5594.79
1563.91
629.763
-935.534
701.417
376.177
255.29
583.289
70.8863
-156.517
549.702
-20.003
146.204
521.634
-160.447
59.1423
494.473
-5.15167
352.543
437.419
-130.594
233.631
369.187
51.5173
302.557
297.133
-53.5579
156.364
265.441
69.4042
111.266
229.949
-30.9619
49.2608
221.963
21.8446
20.3821
204.927
-32.3161
7.40466
200.008
-2.15103
1.54738
191.895
-24.1281
0.564347
188.032
-5.78744
0.27323
183.353
-15.2021
0.0428296
180.893
-2.73853
-0.124198
-6.34642
0.00882935
1303.93
1496.93
266.099
538.023
1022
1296.38
125.305
421.26
1324.06
59.0752
230.203
120.722
510.64
-98.4517
-85.2722
411.352
-6.31667
12.0308
380.671
91.2208
58.2657
308.179
-31.4008
27.2921
267.827
109.254
33.4511
238.34
-17.8014
9.57107
242.763
66.8839
17.274
229.121
-17.5538
7.71346
227.661
22.8344
5.23941
212.806
-18.0165
2.13053
207.989
2.57615
0.977238
198.565
-14.6737
0.156421
195.095
-2.34758
0.209277
189.421
-9.54313
0.0229482
187.786
-1.11829
-0.107432
-4.13577
0.0427892
-1187
-165.766
488.385
-652.516
655.729
597.411
-557.408
325.207
529.079
-155.602
66.5959
-106.521
78.843
-157.514
-105.788
69.6003
-4.7191
37.6828
148.075
61.0923
-101.114
122.848
-13.9005
-17.546
181.979
45.0333
-28.6674
170.034
-11.175
-7.00168
206.758
27.5747
-5.47582
196.989
-9.18753
-0.93912
209.508
10.1658
-0.893979
200.563
-9.46278
-0.0652879
202.088
0.935472
-0.0750499
195.18
-7.76691
0.114052
194.122
-1.31161
0.0695193
189.577
-5.00871
0.0171725
188.839
-0.393026
-0.155282
-2.03317
0.0485265
250.42
676.942
982.799
-242.02
1020.22
738.61
700.095
1153.01
204.823
1369.9
156.343
304.076
193.207
104.151
162.914
33.9444
201.983
0.308633
186.927
4.93734
212.994
0.347117
202.723
1.41684
212.723
0.660774
202.847
0.268949
203.566
0.176263
195.861
0.00430817
194.538
-0.0188537
189.509
0.045393
189.13
-0.120291
0.0710398
1517.85
495.447
4486.86
678.198
-249.703
129.078
465.051
-69.9924
-208.565
432.773
-64.9189
-569.907
355.705
56.5972
-779.326
341.383
25.2035
-532.156
340.584
58.4697
-385.427
355.385
7.95419
-159.367
321.845
47.0905
-55.9661
253.357
56.4827
17.8757
185.499
82.2144
137.274
149.247
75.553
141.529
134.584
57.1785
126.539
117.672
33.9593
50.8512
105.749
13.9685
16.8769
95.9975
10.7553
6.44673
93.4455
2.69938
1.74549
89.7569
3.74078
0.53763
89.7769
-0.0852883
0.0699608
1.85437
-0.0168634
239.397
770.49
-733.227
-188.006
-318.966
-685.548
-703.362
-36.0397
585.48
-534.073
-117.796
-86.4058
-231.719
-91.8782
-187.488
-203.287
-39.0276
-48.3171
-88.2317
-76.6826
-186.876
-83.787
-10.1606
-116.181
-3.96835
-17.6642
-191.08
-11.2283
55.9989
-109.048
34.2936
41.9678
-26.4466
49.0416
70.363
25.6679
83.464
33.2354
31.4718
84.0745
35.7773
13.329
89.8267
8.74037
6.38269
87.3268
13.355
2.17658
89.1929
0.815154
0.782049
87.8804
5.05474
0.184924
89.1854
-1.45252
-0.000997575
2.93565
-0.0299515
-450.493
396.681
-2666.24
-329.173
-351.182
-61.5545
133.274
-290.315
-60.7775
107.18
-24.1404
-196.567
111.645
-61.4366
-472.459
92.6531
31.6841
-339.515
94.3351
-6.69009
-454.721
61.9734
54.6561
-205.808
65.5202
-4.6441
-119.382
48.6176
77.7199
-40.8617
70.0305
25.7737
0.116576
76.9155
67.2983
11.6637
90.7077
22.6102
13.0275
90.3238
37.2296
6.40519
93.1051
6.15247
2.84206
90.9599
15.5543
1.2075
92.309
-0.546124
0.426842
90.6762
6.70592
0.128565
91.5276
-2.37669
-0.0631489
4.45669
-0.0406669
845.577
283.801
-1239.03
-113.558
-307.5
936.148
-428.656
-270.492
910.575
-436.275
-13.3045
-50.4698
-257.202
-135.73
-222.291
-237.455
44.8084
-176.438
-124.912
-61.6749
-378.565
-129.074
90.5966
-81.8654
-34.8935
-62.076
-73.863
-37.2267
85.607
-12.7063
13.5601
-22.864
-2.24249
22.9217
58.0389
3.99646
53.5255
-7.90391
4.42715
60.1125
30.5333
1.94571
72.1039
-6.02632
1.11576
76.5752
11.0463
0.416393
82.698
-6.70718
0.185001
84.9325
4.47157
0.0230731
88.0259
-5.54741
-0.0723712
3.79086
-0.0432747
832.161
-895.036
3401.12
-136.325
-190.623
1802.21
-370.908
-223.833
1293.03
-439.179
-197.885
272.742
-321.106
-186.456
-366.794
-251.762
31.7675
-108.949
-1.1957
-295.613
-114.001
-30.5516
112.453
16.7759
28.3915
-115.364
-10.7729
11.4502
104.578
3.60183
36.4125
-46.4722
0.888681
41.8107
53.1522
2.01228
60.5073
-26.1213
1.3423
66.7984
24.4341
0.719608
78.9329
-18.1382
0.253931
82.6955
7.32997
0.0622329
88.8301
-12.8528
0.034029
90.4123
2.90372
-0.00156318
92.479
-7.69465
-0.114691
4.29634
-0.0642834
-476.126
-107.727
-3533.54
-533.939
-355.488
196.001
-728.552
-131.869
1369.83
-590.057
-446.318
98.5808
-455.018
-147.527
-598.095
-369.213
4.36649
-137.63
-83.0463
-511.992
-128.682
-166.823
222.319
22.9517
-59.7567
-213.699
20.2296
-56.0872
104.031
12.7771
-9.46791
-91.8665
4.98926
8.34497
35.7034
2.87
38.0853
-55.7273
0.96373
50.8349
11.946
0.696803
60.1722
-27.4392
0.186115
74.3014
-6.79984
0.0698617
80.2061
-18.7667
-0.00121438
87.7944
-4.67531
-0.00930798
90.6391
-10.6115
-0.118001
2.03439
-0.041129
2357.32
3126.03
260.72
345.147
410.014
367.983
-224.244
110.366
680.32
-312.082
-618.32
-241.035
-90.7907
-307.912
-545.539
-238.508
165.835
-225.557
-285.598
-100.144
-344.964
-99.6198
-99.8751
-97.0748
-378.764
103.923
-16.1644
73.5858
103.612
73.0069
-226.022
-60.9534
-13.9725
-113.395
-61.6405
-113.344
-159.149
0.899374
8.18604
17.4179
1.2488
17.5561
-78.0428
-17.5596
2.49006
-68.5503
-17.465
-68.5194
-21.4881
-7.43515
1.69296
-3.29136
-7.4127
-3.29013
18.2763
-3.96936
0.918664
-43.9875
-3.96391
-43.9835
39.2753
4.98844
0.439117
-9.58657
4.99415
-9.58138
69.6212
-57.7992
0.306979
82.5609
-19.7934
0.0751161
92.0146
-28.2221
0.0313379
95.8286
-8.46234
-0.0105732
97.6255
-12.4531
-0.139744
1.60756
-0.0822795
330.627
3539.48
-1549.04
-329.814
107.544
2075.38
-285.175
-324.98
319.335
-359.346
-734.176
61.8082
-76.5368
-585.942
96.3473
-69.3531
72.8661
-44.1515
-76.2727
-71.5073
-80.3379
113.256
76.0255
112.227
44.6362
-109.799
-62.7799
-41.5549
-14.3705
158.971
-117.755
66.3992
10.6784
-5.67338
82.0525
-70.923
-67.3917
0.982119
0.690439
81.0014
-47.6466
-33.8406
0.694697
-0.536474
21.9105
-12.2651
-26.8777
0.209244
0.178514
16.8054
-3.34586
-21.0558
-0.0173384
-0.207901
-4.99273
9.17589
-8.03614
0.0915253
0.0287393
-2.61863
12.6574
-5.13137
0.0522746
74.7385
-2.63381
0.124302
-13.17
-24.0289
-13.1593
-24.0197
-26.3828
-2.61076
-26.3714
93.8081
-39.0067
0.0828398
94.3165
-28.8361
0.0529709
100.921
-15.1575
0.0405733
101.251
-12.8853
-0.0499991
-0.0994172
-0.0333492
-352.455
746.203
2496.68
-360.433
2.49116
417.206
-119.92
-303.542
-41.3125
-371.314
-321.472
66.6999
-93.0612
-397.263
67.1435
-131.082
-96.8519
-132.731
-78.2072
-69.5362
70.3828
57.1654
9.36895
2.80159
15.1499
-19.025
4.57165
-12.867
-4.72394
15.5111
-2.34892
-6.55476
-8.42604
6.54253
-1.52707
-9.5593
13.7301
8.99141
-15.6326
3.99742
-1.74799
-3.43148
10.4084
5.49763
-12.2722
1.54566
0.336246
-4.98312
5.20167
5.9534
-6.32514
-0.183051
0.0288783
-1.23562
2.82019
3.31518
-4.922
-0.00663943
-0.0385648
-3.12165