/*--------------------------------*- C++ -*----------------------------------*\
  =========                 |
  \\      /  F ield         | OpenFOAM: The Open Source CFD Toolbox
   \\    /   O peration     | Website:  https://openfoam.org
    \\  /    A nd           | Version:  10
     \\/     M anipulation  |
\*---------------------------------------------------------------------------*/
FoamFile
{
    format      ascii;
    class       volScalarField;
    location    "0.5";
    object      turbidity_0;
}
// * * * * * * * * * * * * * * * * * * * * * * * * * * * * * * * * * * * * * //

dimensions      [0 0 0 0 0 0 0];

internalField   nonuniform List<scalar> 
12920
(
-0.040919
-0.0230443
-0.030292
-0.0446947
-0.059348
-0.0802888
-0.103558
-0.127309
-0.150519
-0.172228
-0.19234
-0.213025
-0.231647
-0.242542
-0.246508
-0.247605
-0.247873
-0.247933
-0.247925
-0.247889
-0.0409192
-0.0684359
-0.0829081
-0.0968171
-0.118189
-0.148401
-0.153824
-0.174029
-0.193054
-0.213242
-0.228607
-0.238252
-0.244346
-0.246903
-0.247698
-0.247896
-0.247942
-0.247946
-0.247925
-0.247892
-0.0858439
-0.0787334
-0.0915657
-0.114319
-0.117891
-0.136897
-0.142645
-0.176277
-0.207313
-0.229878
-0.241043
-0.245189
-0.247069
-0.247698
-0.247889
-0.247937
-0.247946
-0.247946
-0.247918
-0.247887
-0.115951
-0.105467
-0.12698
-0.130623
-0.129028
-0.152012
-0.151568
-0.201424
-0.226645
-0.239805
-0.245313
-0.247035
-0.247674
-0.247866
-0.247927
-0.247945
-0.247949
-0.247943
-0.247925
-0.247888
-0.087064
-0.102806
-0.140618
-0.135882
-0.130849
-0.180683
-0.191661
-0.219796
-0.233933
-0.241767
-0.24513
-0.246722
-0.247334
-0.247679
-0.247812
-0.247884
-0.247913
-0.247928
-0.247913
-0.247885
-0.0943521
-0.0996902
-0.138
-0.125202
-0.128387
-0.182917
-0.183075
-0.219464
-0.217842
-0.236248
-0.23777
-0.243526
-0.243901
-0.245948
-0.246413
-0.247107
-0.247419
-0.24769
-0.247808
-0.247852
-0.0611777
-0.114849
-0.119308
-0.0855751
-0.0999835
-0.151766
-0.157881
-0.206834
-0.153156
-0.211163
-0.179725
-0.210727
-0.20225
-0.220344
-0.223671
-0.232825
-0.238037
-0.24265
-0.245179
-0.246666
-0.0435202
-0.0939427
-0.122975
-0.11422
-0.127744
-0.161076
-0.151197
-0.186247
-0.0901108
-0.0807147
-0.0742671
-0.0476944
-0.0640243
-0.0511261
-0.0840536
-0.131892
-0.167831
-0.197327
-0.217858
-0.231548
-0.0349945
-0.0869389
-0.124877
-0.140933
-0.154553
-0.154291
-0.149947
-0.115101
-0.0681408
-0.0209438
-0.000324583
0.0108466
0.00978625
0.0109944
-0.00139295
-0.072916
-0.125186
-0.166126
-0.19638
-0.217565
-0.0340793
-0.0701845
-0.098797
-0.112295
-0.13173
-0.127683
-0.128558
-0.0804551
-0.0381406
-0.0145781
0.00268143
0.0123705
0.0153571
0.0159012
0.00226092
-0.0703216
-0.122458
-0.163577
-0.194608
-0.216478
-0.03171
-0.0652741
-0.0841864
-0.0860715
-0.0995273
-0.10101
-0.08944
-0.0712759
-0.0556524
-0.0249652
-0.00169082
0.0107952
0.015009
0.0157725
0.00231473
-0.0698716
-0.121993
-0.163142
-0.194261
-0.216206
-0.0301899
-0.0689912
-0.0818809
-0.0932215
-0.11341
-0.106619
-0.0850421
-0.0657246
-0.0601926
-0.035258
-0.0075773
0.00852308
0.013752
0.0150869
0.000757303
-0.0754064
-0.12612
-0.166027
-0.196072
-0.217223
-0.0351031
-0.0844595
-0.108434
-0.114446
-0.115241
-0.0992099
-0.077938
-0.0715898
-0.0883638
-0.0807585
-0.0799777
-0.0595759
-0.054056
-0.042386
-0.102303
-0.143311
-0.174544
-0.200389
-0.21903
-0.231724
-0.0137691
-0.0354622
-0.0582866
-0.0854823
-0.0907983
-0.0804142
-0.0787216
-0.096187
-0.122123
-0.166013
-0.204716
-0.22951
-0.233401
-0.239958
-0.240186
-0.243153
-0.244655
-0.246027
-0.246851
-0.247318
-0.0188209
-0.0343586
-0.0586538
-0.0955125
-0.0910983
-0.0916227
-0.0966873
-0.111604
-0.137801
-0.171632
-0.201701
-0.226212
-0.240007
-0.245511
-0.24713
-0.247685
-0.247822
-0.247897
-0.247893
-0.247854
-0.0124685
-0.0208589
-0.0416936
-0.0702863
-0.0932922
-0.107809
-0.118222
-0.134553
-0.154732
-0.182589
-0.209831
-0.23237
-0.243112
-0.246761
-0.247682
-0.247897
-0.247937
-0.247949
-0.247923
-0.247868
-0.0123469
-0.0205297
-0.0416594
-0.0737327
-0.101727
-0.124812
-0.140588
-0.168501
-0.192099
-0.221068
-0.235418
-0.244137
-0.246804
-0.247659
-0.247877
-0.247932
-0.24794
-0.247939
-0.247919
-0.24787
-0.0255622
-0.0374393
-0.0620948
-0.0914993
-0.120603
-0.149527
-0.173622
-0.202944
-0.221829
-0.236432
-0.242978
-0.24618
-0.247355
-0.247766
-0.247899
-0.247927
-0.247938
-0.247946
-0.247923
-0.247871
-0.0863804
-0.0719387
-0.110597
-0.126689
-0.14217
-0.168597
-0.170522
-0.193266
-0.211354
-0.227605
-0.238242
-0.243872
-0.246354
-0.247396
-0.247777
-0.2479
-0.247923
-0.24792
-0.247911
-0.247863
-0.0570379
-0.0603722
-0.059529
-0.0711575
-0.119646
-0.197916
-0.219796
-0.235183
-0.236805
-0.243293
-0.245497
-0.247089
-0.247634
-0.247828
-0.247913
-0.24793
-0.247931
-0.247917
-0.24792
-0.247869
-0.0221149
-0.00971786
-0.00764558
-0.00539794
-0.00422261
-0.00419932
-0.00523668
-0.00688958
-0.0111364
-0.0204984
-0.046714
-0.0655056
-0.0586294
-0.0324476
-0.0126528
-0.00448447
-0.00142491
-0.000460672
-0.000147592
-8.52796e-05
-0.03992
-0.0179998
-0.0126645
-0.00890087
-0.00415151
-0.0030015
-0.0027982
-0.00412899
-0.00810574
-0.0142529
-0.0329083
-0.0322206
-0.021291
-0.0093363
-0.00349983
-0.00119199
-0.000398606
-0.000153799
-6.7059e-05
-6.49121e-05
-0.0203316
-0.0285291
-0.0229093
-0.0150266
-0.00916925
-0.00637061
-0.00393651
-0.00319828
-0.00433075
-0.00824464
-0.0148127
-0.0135993
-0.00855148
-0.00405376
-0.00162054
-0.000624129
-0.000223339
-0.00010224
-4.98066e-05
-5.89942e-05
-0.0467384
-0.0350473
-0.0187488
-0.0136297
-0.00419715
-0.0027435
-0.0014523
-0.00151557
-0.001575
-0.00364933
-0.00399736
-0.00354645
-0.00202552
-0.000981852
-0.000425485
-0.000190608
-8.57752e-05
-5.41946e-05
-4.9404e-05
-5.74394e-05
-0.0300566
-0.0296752
-0.0433464
-0.0075005
-0.00351859
-0.00562823
-0.00850531
-0.00657944
-0.00343061
-0.00284454
-0.00151063
-0.00108852
-0.000545909
-0.000283172
-0.000122676
-7.62675e-05
-4.75625e-05
-3.70094e-05
-3.66204e-05
-5.61212e-05
-0.0127846
-0.0142855
-0.023902
-0.00895412
-0.00638355
-0.00927285
-0.0236515
-0.021674
-0.0115638
-0.00601255
-0.00262864
-0.00123649
-0.000564062
-0.000308794
-0.00017447
-0.000105332
-6.83221e-05
-4.49247e-05
-4.11565e-05
-6.31498e-05
-0.0177796
-0.0285505
-0.0319887
-0.0173087
-0.015477
-0.0162543
-0.0283138
-0.0285748
-0.00969799
-0.00464232
-0.00145164
-0.000543229
-0.000191376
-8.99403e-05
-4.19266e-05
-3.84136e-05
-4.83174e-05
-5.99969e-05
-5.37017e-05
-7.00879e-05
-0.0127382
-0.0461642
-0.0396234
-0.0353233
-0.0481942
-0.0362557
-0.0486678
-0.0423433
-0.0241401
-0.00412009
-0.00146553
-0.000297825
-0.000233303
-6.93243e-05
-1.66015e-05
-1.15132e-05
-1.58793e-05
-1.6616e-05
-2.53454e-05
-6.10262e-05
-0.00562092
-0.0305176
-0.041229
-0.0550984
-0.0728048
-0.0691341
-0.068968
-0.0792622
-0.0669701
-0.0280635
-0.00202745
-0.000109991
-1.68628e-05
-3.12917e-06
-1.96346e-06
-3.56127e-06
-1.31223e-05
-1.1559e-05
-1.94561e-05
-4.35819e-05
-0.0111728
-0.0340875
-0.0399493
-0.0420813
-0.0700641
-0.0886673
-0.102786
-0.096825
-0.0597321
-0.015474
-0.00203753
-0.00026353
-3.00156e-05
-2.23152e-06
-7.1779e-08
-2.11277e-06
-1.2674e-05
-1.18434e-05
-2.09817e-05
-4.20368e-05
-0.0327989
-0.0416633
-0.0418834
-0.0351661
-0.0586507
-0.0791217
-0.0790771
-0.0426162
-0.032184
-0.0106569
-0.00120858
-0.000104192
-1.06378e-05
-9.34552e-07
-3.35342e-08
-3.86392e-06
-2.87209e-05
-1.3903e-05
-2.13184e-05
-3.87317e-05
-0.0696545
-0.0521954
-0.0483114
-0.0521092
-0.0699296
-0.0573508
-0.0154264
-0.00355632
-0.00291433
-0.00206346
-0.000697161
-0.000201952
-5.07091e-05
-6.6729e-06
-2.95773e-06
-9.1758e-06
-8.22346e-06
-1.0607e-05
-2.34234e-05
-4.8386e-05
-0.0256589
-0.0443502
-0.0569184
-0.0361681
-0.0356681
-0.0125251
-0.00777598
-0.00514472
-0.0101573
-0.0100003
-0.00901933
-0.00441195
-0.00230076
-0.000696987
-0.00035071
-0.000137915
-4.45645e-05
-2.77544e-05
-4.44928e-05
-6.83887e-05
-0.00297051
-0.01846
-0.0431667
-0.0301231
-0.0206217
-0.0133443
-0.0102698
-0.0161944
-0.0206929
-0.0314774
-0.0304019
-0.0273928
-0.0173054
-0.0088566
-0.00386301
-0.00148036
-0.000538219
-0.000209585
-0.000102241
-8.09848e-05
-0.00995518
-0.0144411
-0.0376873
-0.0230193
-0.0168773
-0.0182252
-0.0188304
-0.0295695
-0.0402432
-0.0589601
-0.0728572
-0.0592011
-0.03036
-0.0124435
-0.00440413
-0.00146408
-0.000462729
-0.000151533
-7.06172e-05
-7.45747e-05
-0.00937765
-0.00584982
-0.0122494
-0.016008
-0.023772
-0.0296351
-0.0411006
-0.0627193
-0.0821699
-0.0951883
-0.0911071
-0.0596432
-0.0297309
-0.011427
-0.00405831
-0.00131102
-0.000415039
-0.000144874
-6.5454e-05
-6.75114e-05
-0.00591811
-0.00590192
-0.016702
-0.0228565
-0.0534933
-0.067702
-0.0913582
-0.10225
-0.107471
-0.0851134
-0.0598129
-0.0297592
-0.0130632
-0.00480068
-0.00166573
-0.000562112
-0.000180773
-7.15736e-05
-5.11381e-05
-6.39765e-05
-0.0151883
-0.0239517
-0.0256667
-0.0220509
-0.0287336
-0.0276334
-0.0426572
-0.0316147
-0.0370894
-0.0225226
-0.0186206
-0.00937771
-0.00500377
-0.00220752
-0.000946002
-0.000386716
-0.000148576
-6.87288e-05
-5.27124e-05
-6.50774e-05
-0.0707539
-0.0324444
-0.0387726
-0.0201475
-0.0117477
-0.00760706
-0.0107871
-0.00549552
-0.00793905
-0.00352274
-0.00283845
-0.00107699
-0.000566194
-0.000215679
-0.000122643
-6.97001e-05
-4.23704e-05
-3.40747e-05
-4.92722e-05
-5.86222e-05
-0.02718
-0.0302075
-0.0401969
-0.0658137
-0.104912
-0.0706912
-0.0283561
-0.0118705
-0.00387964
-0.00177913
-0.000756292
-0.000488305
-0.000276772
-0.000188111
-0.00012918
-7.68639e-05
-4.84513e-05
-3.97017e-05
-5.73404e-05
-6.62179e-05
-0.00381038
-0.00728566
-0.00734552
-0.00621269
-0.00493551
-0.00363962
-0.00383809
-0.00577169
-0.00964637
-0.0152819
-0.024667
-0.0249491
-0.01538
-0.00572449
-0.00156515
-0.000376103
-8.23123e-05
-1.72151e-05
-3.4746e-06
-6.95402e-07
-0.0104641
-0.0123503
-0.00818028
-0.00328753
-0.00238504
-0.0015877
-0.00162883
-0.00213365
-0.0037207
-0.00510739
-0.00680646
-0.00545788
-0.00257954
-0.00079989
-0.000194647
-4.28206e-05
-8.55299e-06
-1.6827e-06
-3.16932e-07
-6.52919e-08
-0.0272501
-0.02199
-0.0152126
-0.00912371
-0.00556874
-0.00335303
-0.00187978
-0.0011017
-0.00085781
-0.00119163
-0.00130723
-0.00100588
-0.000423759
-0.000132937
-3.21034e-05
-7.28511e-06
-1.49653e-06
-3.0891e-07
-6.17361e-08
-1.75851e-08
-0.0342931
-0.0287888
-0.0193416
-0.00614154
-0.00297899
-0.00172764
-0.0010856
-0.000500718
-0.000234026
-0.000255626
-0.000168928
-0.000124871
-4.28443e-05
-1.35022e-05
-3.06245e-06
-7.10367e-07
-1.45319e-07
-3.31764e-08
-1.00643e-08
-7.17551e-09
-0.0214435
-0.0234874
-0.0258284
-0.00642291
-0.0032078
-0.00170325
-0.00240437
-0.00121172
-0.000483645
-0.000193343
-6.54562e-05
-2.74994e-05
-8.19867e-06
-2.59909e-06
-6.95661e-07
-1.95609e-07
-5.30365e-08
-1.52947e-08
-5.82727e-09
-6.89823e-09
-0.00403406
-0.0169953
-0.0218361
-0.00721657
-0.00441621
-0.0025964
-0.00583074
-0.00347072
-0.00124158
-0.000402067
-0.000117367
-3.40393e-05
-9.66388e-06
-2.72537e-06
-7.44135e-07
-1.97027e-07
-5.31658e-08
-1.47012e-08
-6.0668e-09
-8.43826e-09
-0.00305476
-0.0190888
-0.0216658
-0.0151691
-0.0107235
-0.00714974
-0.00756638
-0.00445635
-0.00105483
-0.000338188
-9.53015e-05
-3.26484e-05
-1.06292e-05
-3.45697e-06
-1.03396e-06
-2.95969e-07
-8.07092e-08
-2.4421e-08
-9.29198e-09
-9.53292e-09
-0.0161756
-0.0268287
-0.021461
-0.0271876
-0.0348397
-0.0192808
-0.0170505
-0.00648581
-0.00355057
-0.000488156
-9.43718e-05
-1.55103e-05
-4.68378e-06
-7.54441e-07
-7.51449e-08
-1.85082e-08
-4.41395e-09
-1.86233e-09
-2.48412e-09
-8.81888e-09
-0.0197905
-0.0167967
-0.0194434
-0.03433
-0.0438218
-0.0319046
-0.029588
-0.0376189
-0.0266483
-0.00583671
-0.000351301
-1.69307e-05
-1.10021e-06
-7.21073e-08
-4.16575e-09
-3.41827e-10
-9.96824e-10
-7.03672e-10
-1.59975e-09
-5.62562e-09
-0.00986752
-0.0166291
-0.0166881
-0.0232108
-0.0436564
-0.0513771
-0.0591305
-0.0513395
-0.0178268
-0.00250833
-0.000301332
-2.6766e-05
-1.58545e-06
-7.02677e-08
-1.20572e-09
-1.09145e-10
-1.21858e-09
-9.05608e-10
-1.39819e-09
-4.37876e-09
-0.0117487
-0.028947
-0.0259766
-0.0250097
-0.0526643
-0.0576801
-0.0409335
-0.0101334
-0.00221407
-0.0003764
-5.1603e-05
-4.6272e-06
-2.83408e-07
-1.39939e-08
-2.79795e-10
-2.05251e-09
-4.65942e-09
-1.44688e-09
-1.60088e-09
-3.83722e-09
-0.0296008
-0.0407315
-0.0287037
-0.0319874
-0.0425421
-0.0186748
-0.00567837
-0.00203519
-0.000849238
-0.000391197
-9.76606e-05
-1.24457e-05
-1.22312e-06
-1.04013e-07
-5.04996e-08
-9.73254e-08
-2.54865e-08
-6.95512e-09
-3.43339e-09
-6.68013e-09
-0.0155285
-0.023108
-0.0335463
-0.0218685
-0.0201277
-0.0089169
-0.00599816
-0.0031522
-0.00404508
-0.00205075
-0.00163436
-0.000541022
-0.000202803
-4.13468e-05
-1.59823e-05
-4.25673e-06
-9.49858e-07
-2.15004e-07
-4.75789e-08
-1.76759e-08
-0.00729015
-0.0176787
-0.0302662
-0.019564
-0.0131669
-0.0105899
-0.00861566
-0.0142395
-0.0119145
-0.0135968
-0.00854495
-0.005302
-0.0021037
-0.000722715
-0.000200816
-5.15054e-05
-1.21273e-05
-2.69378e-06
-5.67807e-07
-1.20255e-07
-0.00595748
-0.0132114
-0.0203876
-0.0143631
-0.0121756
-0.0183949
-0.0204018
-0.0292229
-0.0310133
-0.0324028
-0.0285037
-0.0162915
-0.00612216
-0.00182788
-0.000473672
-0.000111502
-2.46926e-05
-5.10758e-06
-1.01028e-06
-1.96918e-07
-0.00631549
-0.00563541
-0.0074857
-0.00998943
-0.0165849
-0.0252998
-0.0360495
-0.0467916
-0.055814
-0.0514026
-0.037326
-0.016486
-0.00544348
-0.00136546
-0.000305672
-6.17461e-05
-1.19484e-05
-2.21649e-06
-4.04325e-07
-7.85944e-08
-0.00976511
-0.00664094
-0.00947898
-0.0125298
-0.0331054
-0.0393279
-0.0622126
-0.0565558
-0.0501484
-0.0279148
-0.0142171
-0.00466292
-0.00139959
-0.000345219
-8.3767e-05
-1.91695e-05
-4.32409e-06
-9.43523e-07
-2.03396e-07
-4.82794e-08
-0.0107249
-0.0151924
-0.010104
-0.00640583
-0.00544688
-0.00407597
-0.00816875
-0.00500284
-0.00852116
-0.00341379
-0.00220349
-0.000670508
-0.000233092
-6.39033e-05
-1.8036e-05
-4.71154e-06
-1.20848e-06
-2.97007e-07
-7.36416e-08
-2.33522e-08
-0.041465
-0.0169542
-0.0202575
-0.00800663
-0.00445915
-0.00188716
-0.00220338
-0.000921611
-0.00138032
-0.000415883
-0.000245516
-6.5189e-05
-2.29302e-05
-5.98383e-06
-1.74088e-06
-4.48984e-07
-1.18504e-07
-3.01839e-08
-1.11889e-08
-7.99605e-09
-0.00552011
-0.0235977
-0.0426069
-0.0620762
-0.0749611
-0.0255692
-0.00544104
-0.00157357
-0.00045069
-0.000142746
-4.83388e-05
-1.5208e-05
-4.78148e-06
-1.41302e-06
-4.10337e-07
-1.11551e-07
-3.09538e-08
-9.58292e-09
-7.58603e-09
-8.55522e-09
-0.0063342
-0.00693264
-0.00759606
-0.00706658
-0.00636242
-0.00456262
-0.00326684
-0.00351973
-0.00531985
-0.00687113
-0.00878002
-0.00630691
-0.00287422
-0.00084571
-0.000197907
-4.16932e-05
-8.18631e-06
-1.5545e-06
-2.87668e-07
-5.27226e-08
-0.0160994
-0.00930561
-0.00650075
-0.00385172
-0.00305634
-0.00162253
-0.00147442
-0.00149223
-0.00178791
-0.00167227
-0.00147311
-0.00088068
-0.000328668
-8.80939e-05
-1.88553e-05
-3.75771e-06
-6.83142e-07
-1.23667e-07
-2.14302e-08
-3.75444e-09
-0.008962
-0.0122886
-0.00871671
-0.00647495
-0.00495028
-0.00328195
-0.00194658
-0.00098172
-0.000469783
-0.000320814
-0.000185622
-0.000107557
-3.4927e-05
-9.58761e-06
-2.03112e-06
-4.25974e-07
-8.17086e-08
-1.59423e-08
-2.98943e-09
-5.65234e-10
-0.0178199
-0.0239683
-0.0147238
-0.00726706
-0.00526895
-0.00292586
-0.0016743
-0.000642
-0.000216034
-9.40798e-05
-3.50849e-05
-1.59777e-05
-4.71752e-06
-1.40723e-06
-3.51061e-07
-8.99829e-08
-2.18653e-08
-5.22334e-09
-1.19654e-09
-2.63863e-10
-0.0115042
-0.0190316
-0.0167421
-0.00648308
-0.00475854
-0.00182308
-0.000961459
-0.000526277
-0.000248908
-0.000116835
-5.22871e-05
-2.19016e-05
-8.64659e-06
-3.14248e-06
-1.06922e-06
-3.36959e-07
-9.89353e-08
-2.7044e-08
-6.91474e-09
-1.66687e-09
-0.00159558
-0.0123817
-0.017263
-0.00820605
-0.00514052
-0.00150706
-0.00156337
-0.000757779
-0.000228955
-8.18582e-05
-2.39841e-05
-8.68546e-06
-2.57122e-06
-8.48411e-07
-2.31303e-07
-6.44302e-08
-1.59332e-08
-3.92518e-09
-8.78313e-10
-1.9485e-10
-0.00195306
-0.0125703
-0.0144538
-0.0101553
-0.00672578
-0.0037413
-0.00246643
-0.000867687
-0.00019656
-5.75149e-05
-1.55675e-05
-5.55644e-06
-1.76303e-06
-5.76898e-07
-1.67577e-07
-4.68024e-08
-1.19157e-08
-2.84762e-09
-6.29159e-10
-1.31674e-10
-0.0141486
-0.01867
-0.0140968
-0.0125596
-0.010038
-0.00698858
-0.00522459
-0.000996398
-0.000521807
-9.16202e-05
-1.6441e-05
-2.794e-06
-7.78134e-07
-1.21753e-07
-1.19723e-08
-2.80849e-09
-5.27642e-10
-1.09171e-10
-1.9134e-11
-4.22694e-12
-0.0191519
-0.0114533
-0.0112802
-0.013786
-0.0154362
-0.0109585
-0.00835338
-0.0119061
-0.00645072
-0.00137567
-8.56341e-05
-3.74552e-06
-2.11552e-07
-1.26351e-08
-6.47274e-10
-3.11798e-11
-4.9353e-12
-1.15095e-12
-4.49418e-13
-7.39399e-13
-0.00876812
-0.0101168
-0.0161996
-0.0241511
-0.0366106
-0.0229055
-0.0234543
-0.0174724
-0.003888
-0.000423021
-3.35269e-05
-2.17131e-06
-9.28984e-08
-3.07036e-09
-4.37529e-11
-2.00376e-12
-5.73352e-13
-1.75293e-13
-1.21154e-13
-2.96933e-13
-0.0169752
-0.0209885
-0.0172223
-0.0213511
-0.0384157
-0.0259617
-0.0132092
-0.00208278
-0.000346637
-7.61112e-05
-1.44281e-05
-1.39461e-06
-7.30834e-08
-2.64755e-09
-4.48272e-11
-9.66684e-11
-3.10149e-11
-9.01978e-12
-2.18155e-12
-7.35695e-13
-0.00619577
-0.0244776
-0.0188599
-0.0197969
-0.0231063
-0.0127217
-0.00391672
-0.00128422
-0.000453869
-0.000177206
-4.29645e-05
-4.95141e-06
-3.33887e-07
-1.72475e-08
-5.07291e-09
-9.58284e-09
-2.3443e-09
-5.70636e-10
-1.16626e-10
-2.30074e-11
-0.0024041
-0.0103151
-0.0209401
-0.0128238
-0.0110455
-0.005873
-0.00392673
-0.00200447
-0.00197503
-0.000613609
-0.000381719
-9.41825e-05
-2.8561e-05
-4.97815e-06
-1.84356e-06
-4.61373e-07
-9.69508e-08
-2.07195e-08
-3.93601e-09
-7.32077e-10
-0.00622315
-0.010987
-0.0179542
-0.0115893
-0.00772421
-0.00714806
-0.00534327
-0.00781131
-0.004668
-0.00448851
-0.0021871
-0.00108762
-0.000345499
-0.000104424
-2.55903e-05
-6.07053e-06
-1.32283e-06
-2.7557e-07
-5.39991e-08
-1.0162e-08
-0.00261888
-0.0094872
-0.0125068
-0.00956407
-0.00892614
-0.0125359
-0.0125432
-0.0163168
-0.014395
-0.0123142
-0.0084428
-0.00380122
-0.00123875
-0.000339434
-8.29562e-05
-1.8579e-05
-3.92646e-06
-7.74107e-07
-1.45323e-07
-2.58315e-08
-0.00459189
-0.00494667
-0.00503521
-0.00570439
-0.0092807
-0.0131948
-0.0222607
-0.0256342
-0.0287895
-0.0205381
-0.0113306
-0.00386992
-0.00105498
-0.000234204
-4.78177e-05
-9.01167e-06
-1.63351e-06
-2.83137e-07
-4.77586e-08
-7.83957e-09
-0.00765911
-0.0062743
-0.0047589
-0.00636118
-0.0177748
-0.0144087
-0.0255091
-0.0199985
-0.0156927
-0.00669905
-0.00291734
-0.000790565
-0.000214521
-4.83799e-05
-1.10367e-05
-2.37175e-06
-5.05813e-07
-1.04168e-07
-2.09626e-08
-4.08414e-09
-0.0197524
-0.0102517
-0.00783712
-0.00548129
-0.00402843
-0.00223114
-0.00353889
-0.00183553
-0.00249925
-0.000803311
-0.000398764
-9.69462e-05
-2.76885e-05
-6.12818e-06
-1.44575e-06
-3.11441e-07
-6.80822e-08
-1.42371e-08
-2.94784e-09
-5.91262e-10
-0.0285243
-0.0154493
-0.0182486
-0.00961811
-0.00527176
-0.00209428
-0.00115394
-0.000412523
-0.000391119
-0.000103185
-4.5459e-05
-1.0478e-05
-2.94284e-06
-6.51058e-07
-1.53242e-07
-3.26927e-08
-6.99894e-09
-1.42059e-09
-2.8467e-10
-5.53448e-11
-0.00261399
-0.0175413
-0.0358681
-0.0413277
-0.039112
-0.00943397
-0.00183475
-0.000518769
-0.000154013
-4.88709e-05
-1.55351e-05
-4.74308e-06
-1.37493e-06
-3.81025e-07
-9.81165e-08
-2.39579e-08
-5.44575e-09
-1.17263e-09
-2.37413e-10
-4.61733e-11
-0.0048675
-0.00711059
-0.00887677
-0.00942428
-0.00883536
-0.00674705
-0.00435434
-0.00233689
-0.00123317
-0.000809972
-0.000895237
-0.000613261
-0.000243245
-6.28155e-05
-1.31436e-05
-2.48869e-06
-4.39742e-07
-7.52418e-08
-1.25772e-08
-2.0913e-09
-0.00514941
-0.00600359
-0.00676021
-0.00652964
-0.00527913
-0.00271615
-0.00131552
-0.000705846
-0.000455709
-0.000278382
-0.000172477
-8.07291e-05
-2.572e-05
-6.23902e-06
-1.23061e-06
-2.28438e-07
-3.89439e-08
-6.61219e-09
-1.07887e-09
-1.77384e-10
-0.00283334
-0.0095367
-0.0099735
-0.00915682
-0.00753739
-0.00503218
-0.00262322
-0.000935428
-0.000287011
-0.000100062
-3.44342e-05
-1.26594e-05
-3.37912e-06
-8.2711e-07
-1.67221e-07
-3.34813e-08
-6.21458e-09
-1.15339e-09
-2.05329e-10
-3.63521e-11
-0.0126707
-0.0138985
-0.0111792
-0.0101982
-0.00912159
-0.00617111
-0.00316561
-0.00109153
-0.000302778
-8.00037e-05
-1.95915e-05
-5.19362e-06
-1.24205e-06
-3.01335e-07
-6.70213e-08
-1.46896e-08
-3.06919e-09
-6.25028e-10
-1.23222e-10
-2.3712e-11
-0.00691331
-0.00871995
-0.00929108
-0.0083775
-0.00786453
-0.00394697
-0.00110799
-0.000424806
-0.000117657
-3.99441e-05
-1.14381e-05
-3.54477e-06
-1.05402e-06
-3.15799e-07
-9.17543e-08
-2.59121e-08
-6.99823e-09
-1.80172e-09
-4.40387e-10
-1.02669e-10
-0.00438149
-0.00965145
-0.0112869
-0.00811345
-0.0065658
-0.00263562
-0.00080761
-0.000221553
-3.92489e-05
-1.32352e-05
-3.05168e-06
-9.83428e-07
-2.50787e-07
-7.47497e-08
-1.87567e-08
-4.90318e-09
-1.16086e-09
-2.75914e-10
-6.03943e-11
-1.31179e-11
-0.00389945
-0.00719806
-0.00809044
-0.0065601
-0.00565178
-0.00379668
-0.00148068
-0.000236211
-2.69899e-05
-6.46093e-06
-1.49063e-06
-5.03531e-07
-1.52424e-07
-4.84862e-08
-1.38184e-08
-3.80567e-09
-9.59752e-10
-2.27585e-10
-5.00281e-11
-1.03944e-11
-0.00858607
-0.0123179
-0.0100243
-0.00735257
-0.00495345
-0.00326549
-0.00128601
-0.000162345
-6.42246e-05
-1.32322e-05
-2.03353e-06
-3.60646e-07
-7.85858e-08
-1.1646e-08
-1.01337e-09
-2.33029e-10
-4.31855e-11
-8.79923e-12
-1.50981e-12
-2.75692e-13
-0.0195682
-0.00778539
-0.00797873
-0.00594832
-0.00419836
-0.00355867
-0.00232302
-0.0014261
-0.000620673
-0.000284099
-2.27305e-05
-1.00233e-06
-4.28987e-08
-1.99314e-09
-7.10525e-11
-2.6351e-12
-4.03366e-13
-8.35852e-14
-1.17823e-14
-1.99286e-15
-0.00266461
-0.00521155
-0.00741916
-0.0106974
-0.0155094
-0.00624171
-0.00621145
-0.00368842
-0.00109626
-0.000154722
-7.95428e-06
-3.93945e-07
-1.5488e-08
-4.87155e-10
-9.59071e-12
-5.68075e-13
-9.96805e-14
-1.85079e-14
-3.49615e-15
-5.834e-16
-0.00657399
-0.0137759
-0.0103978
-0.00707835
-0.012592
-0.00705027
-0.00342161
-0.000897873
-0.000183602
-3.49923e-05
-6.63671e-06
-6.41233e-07
-3.9109e-08
-1.78447e-09
-3.7787e-11
-1.03405e-11
-3.05747e-12
-8.50568e-13
-1.86607e-13
-3.58311e-14
-0.00518299
-0.0135613
-0.0109597
-0.00864698
-0.0078865
-0.00605942
-0.00236579
-0.000815152
-0.000297175
-8.39359e-05
-1.43558e-05
-1.29318e-06
-6.9144e-08
-2.70343e-09
-5.17147e-10
-9.90148e-10
-2.33325e-10
-5.52966e-11
-1.09915e-11
-2.07395e-12
-0.00330504
-0.00800942
-0.0096585
-0.00736914
-0.00593314
-0.003445
-0.00246658
-0.00111462
-0.000679974
-0.000143523
-6.6978e-05
-1.3541e-05
-3.68287e-06
-5.80121e-07
-2.1029e-07
-5.06575e-08
-1.01881e-08
-2.10272e-09
-3.85737e-10
-6.9624e-11
-0.00373338
-0.00504992
-0.00653832
-0.00559297
-0.0045588
-0.00379604
-0.00250278
-0.00262578
-0.00131159
-0.000993709
-0.000402686
-0.000171627
-4.90784e-05
-1.38761e-05
-3.19498e-06
-7.21309e-07
-1.49349e-07
-2.9756e-08
-5.57963e-09
-1.01087e-09
-0.00367789
-0.00439507
-0.00517438
-0.00519013
-0.00524124
-0.00566307
-0.00516927
-0.00530345
-0.00404275
-0.00279851
-0.00154306
-0.000602368
-0.000182772
-4.82178e-05
-1.14687e-05
-2.50539e-06
-5.16774e-07
-9.94231e-08
-1.8224e-08
-3.165e-09
-0.00626359
-0.00413109
-0.00363257
-0.00369176
-0.00601579
-0.00633698
-0.00839156
-0.00839942
-0.00808857
-0.00462584
-0.00204158
-0.000604209
-0.000150842
-3.19216e-05
-6.2838e-06
-1.14489e-06
-2.00276e-07
-3.33732e-08
-5.3963e-09
-8.46181e-10
-0.0119745
-0.00989302
-0.00654212
-0.00464039
-0.00770393
-0.00559534
-0.00498952
-0.00361292
-0.0028722
-0.0010394
-0.000424493
-0.000104536
-2.6928e-05
-5.69929e-06
-1.22591e-06
-2.46068e-07
-4.92312e-08
-9.53065e-09
-1.81611e-09
-3.3726e-10
-0.0237035
-0.0118089
-0.0120779
-0.00944996
-0.00592621
-0.00251431
-0.00146826
-0.0006604
-0.000550259
-0.000162401
-6.48647e-05
-1.48493e-05
-3.82819e-06
-7.93707e-07
-1.70827e-07
-3.37733e-08
-6.69737e-09
-1.2757e-09
-2.40557e-10
-4.42633e-11
-0.0417223
-0.028282
-0.0177192
-0.0130963
-0.00867135
-0.00368867
-0.00132692
-0.000459249
-0.00018844
-6.08495e-05
-2.06203e-05
-6.07429e-06
-1.70734e-06
-4.51948e-07
-1.09892e-07
-2.52731e-08
-5.34336e-09
-1.06788e-09
-1.98605e-10
-3.51266e-11
-0.00988968
-0.011366
-0.0225042
-0.0191275
-0.0133719
-0.00450668
-0.0020118
-0.000898937
-0.000362751
-0.0001398
-4.77707e-05
-1.60351e-05
-4.80159e-06
-1.36846e-06
-3.5175e-07
-8.49293e-08
-1.88065e-08
-3.91684e-09
-7.59761e-10
-1.39777e-10
-0.000522307
-0.000543647
-0.000157793
-0.000543575
-0.000124819
-0.000178951
-5.27823e-05
-5.08264e-05
-9.77465e-05
-2.02291e-05
-7.45678e-05
-1.35176e-05
-3.26698e-05
-6.27517e-06
-8.93819e-05
-0.000362711
-0.000137787
-0.000117115
-3.66354e-05
-0.000211096
-8.34928e-05
-9.19447e-06
-8.87372e-05
-1.75745e-05
-2.28204e-05
-4.43361e-06
-5.50092e-05
-1.16416e-05
-0.120596
-0.142297
-0.120394
-0.145817
-0.120569
-0.140971
-0.124624
-0.0850459
-0.104651
-0.0544924
-0.119293
-0.107987
-0.117343
-0.0951412
-0.0286473
-0.0447638
-0.0207588
-0.0984114
-0.0675239
-0.0868183
-0.0503863
-0.00524464
-0.0145279
-0.000113066
-0.0518682
-0.0197997
-0.0390744
-0.0168126
0.0102119
0.00347655
0.011078
-0.0143409
-0.00459616
-0.0123665
-0.00426441
0.0102121
0.0126465
0.0150848
-0.00309229
-0.00142333
-0.00281058
-0.000681627
0.0128028
0.0154287
0.0158678
-0.00114879
-0.000294352
-0.000405501
-7.4837e-05
0.00796787
0.0159172
0.0153573
-0.000336206
-0.000695902
-4.04822e-05
-7.10074e-06
-0.0985242
-0.0935619
-0.0749422
-0.126625
-0.111768
-0.100597
-0.072427
-0.0457506
-0.0709414
-0.056818
-0.102806
-0.0747805
-0.0657937
-0.0543597
-0.0197385
-0.0498987
-0.0281347
-0.066292
-0.0418599
-0.051146
-0.0380227
-0.00106621
-0.021684
-0.00525748
-0.0346054
-0.0170278
-0.0330126
-0.0183406
0.0107078
-0.000788596
0.00905954
-0.0127892
-0.00454645
-0.0142583
-0.00549614
0.0149769
0.0110765
0.0145465
-0.00301979
-0.000745741
-0.00374008
-0.00100846
0.0158443
0.0150523
0.0156963
-0.000443585
-8.1551e-05
-0.000614986
-0.000118209
0.0154146
0.0157973
0.0153759
-4.41765e-05
-6.67919e-06
-6.46572e-05
-9.51419e-06
-0.0745228
-0.0847724
-0.0690361
-0.0927023
-0.0625188
-0.0750772
-0.0242367
-0.0614135
-0.0661066
-0.0625245
-0.0550776
-0.048617
-0.015736
-0.0137212
-0.0321401
-0.0600845
-0.0424177
-0.0483965
-0.040127
-0.017298
-0.0258438
-0.00651156
-0.0347996
-0.0126453
-0.0353551
-0.0196383
-0.0259753
-0.0216272
0.00868003
-0.00630781
0.00711442
-0.0150596
-0.00561921
-0.0183396
-0.00786687
0.0144507
0.00976901
0.0140238
-0.00379884
-0.00102631
-0.00541178
-0.00146261
0.0156943
0.0146457
0.0155415
-0.000627043
-0.000119447
-0.00090866
-0.000192048
0.0153588
0.0156683
0.0154131
-6.53106e-05
-9.72822e-06
-0.000112397
-2.29702e-05
-0.0683801
-0.0844993
-0.0683741
-0.0682137
-0.0186161
-0.0725581
-0.022175
-0.0628076
-0.0681108
-0.073097
-0.0133832
-0.0174868
-0.0210773
-0.042625
-0.0428458
-0.075078
-0.0577653
-0.0215302
-0.0254487
-0.0504473
-0.0537852
-0.0136876
-0.0526979
-0.0382915
-0.0251179
-0.0212675
-0.0505494
-0.0371493
0.00580262
-0.0391056
-0.0233043
-0.018426
-0.00869691
-0.0366968
-0.0240811
0.0130981
-0.0234577
-0.0164424
-0.00623813
-0.00195307
-0.0222914
-0.0148744
0.0149377
-0.0177413
-0.0087379
-0.00129979
-0.000345981
-0.0145325
-0.00790682
0.0150173
-0.0102666
-0.0075565
-0.000231558
-8.07959e-05
-0.00766112
-0.00543138
-0.0839601
-0.0991225
-0.108106
-0.0440265
-0.0511119
-0.0625782
-0.0694764
-0.0646384
-0.106129
-0.0903905
-0.0485288
-0.0386608
-0.0680193
-0.0535129
-0.0449216
-0.0816219
-0.0333249
-0.0364559
-0.0153288
-0.0436706
-0.0100117
-0.0040512
-0.0201463
-0.00366131
-0.00837158
-0.0012302
-0.00555836
-0.00112259
-0.000228922
-0.00208817
-0.00039931
-0.000668214
-9.83002e-05
-0.000685687
-0.000144604
-2.34149e-05
-0.000233046
-4.37139e-05
-4.94695e-05
-8.22687e-06
-8.11038e-05
-1.22416e-05
-3.76851e-06
-2.35921e-05
-3.43095e-06
-4.78002e-06
-6.48155e-07
-6.25611e-06
-7.65448e-07
-2.83486e-06
-1.79855e-06
-2.35266e-07
-4.44807e-07
-1.94549e-07
-3.65026e-07
-3.6928e-08
-0.102702
-0.0888386
-0.0628423
-0.0736929
-0.0699017
-0.0614042
-0.0301229
-0.0705046
-0.0554216
-0.0385488
-0.0642589
-0.0367103
-0.0220666
-0.00779623
-0.0238042
-0.0322402
-0.0126822
-0.0264709
-0.00688045
-0.00528571
-0.001598
-0.0034212
-0.00822705
-0.00185943
-0.00430424
-0.00111826
-0.00108221
-0.000362641
-0.000430561
-0.00118049
-0.000355606
-0.000711093
-0.000159913
-0.000243026
-5.82561e-05
-5.50887e-05
-0.000203364
-5.46664e-05
-9.13331e-05
-1.43727e-05
-3.35153e-05
-5.76494e-06
-4.2017e-06
-3.11379e-05
-4.33057e-06
-7.41901e-06
-9.28569e-07
-3.07813e-06
-4.20372e-07
-3.00486e-07
-2.14972e-06
-2.81781e-07
-4.48518e-07
-4.6583e-08
-2.0794e-07
-2.29938e-08
-0.0489475
-0.0402254
-0.00773135
-0.0517646
-0.0218726
-0.0185986
-0.0041826
-0.0348661
-0.00509554
-0.00295859
-0.0159668
-0.00639097
-0.00280252
-0.00129481
-0.0160924
-0.00295457
-0.0027526
-0.00454506
-0.00131443
-0.00109514
-0.000686968
-0.00219506
-0.00237714
-0.00108958
-0.000815312
-0.000193654
-0.000578641
-0.000258731
-0.000213419
-0.000760635
-0.00026339
-0.000116752
-2.23936e-05
-0.000172967
-3.82799e-05
-1.92244e-05
-0.000167511
-3.8596e-05
-1.2266e-05
-2.0005e-06
-2.17918e-05
-3.73889e-06
-1.7468e-06
-2.333e-05
-4.24258e-06
-1.08007e-06
-1.5525e-07
-2.10393e-06
-3.50178e-07
-1.30455e-07
-2.35234e-06
-3.90233e-07
-7.84702e-08
-9.31795e-09
-1.9851e-07
-3.18659e-08
-0.00434496
-0.0174921
-0.00498448
-0.00799104
-0.0029709
-0.0131963
-0.00372944
-0.0028685
-0.00452085
-0.0069572
-0.00232861
-0.00126184
-0.00291129
-0.0038811
-0.00240939
-0.00816727
-0.00801155
-0.00109685
-0.000733847
-0.00479814
-0.00406401
-0.000951807
-0.00732502
-0.00485863
-0.000633749
-0.000297392
-0.00376174
-0.00259881
-0.000269162
-0.00457287
-0.00235409
-0.000208266
-5.59119e-05
-0.00266738
-0.00124117
-7.66631e-05
-0.00203465
-0.00098233
-3.55647e-05
-8.56081e-06
-0.00108545
-0.000520743
-1.08949e-05
-0.000861116
-0.000300818
-5.69542e-06
-1.30409e-06
-0.000463485
-0.000146626
-1.4218e-06
-0.00023246
-8.28238e-05
-8.67333e-07
-1.89302e-07
-0.000121474
-4.36555e-05
-0.0404493
-0.0489488
-0.0581245
-0.0157433
-0.0183364
-0.0269929
-0.0303659
-0.0278503
-0.0557154
-0.0393145
-0.0174582
-0.0107404
-0.0271084
-0.0132434
-0.0107567
-0.0303341
-0.00600225
-0.00982431
-0.00342629
-0.00878319
-0.00145427
-0.000715924
-0.0031919