/*--------------------------------*- C++ -*----------------------------------*\
  =========                 |
  \\      /  F ield         | OpenFOAM: The Open Source CFD Toolbox
   \\    /   O peration     | Website:  https://openfoam.org
    \\  /    A nd           | Version:  10
     \\/     M anipulation  |
\*---------------------------------------------------------------------------*/
FoamFile
{
    format      ascii;
    class       volVectorField;
    location    "0.5";
    object      U;
}
// * * * * * * * * * * * * * * * * * * * * * * * * * * * * * * * * * * * * * //

dimensions      [0 1 -1 0 0 0 0];

internalField   nonuniform List<vector> 
12920
(
(-172.232 63.4143 117.785)
(-62.0793 34.3861 -56.9869)
(82.0807 56.3661 -27.4552)
(-19.8948 61.8851 -12.3012)
(38.1108 56.5566 -9.5956)
(18.6277 30.5461 -8.82844)
(54.9626 23.6575 -6.37559)
(52.2774 7.44459 -4.34843)
(70.0163 7.11113 -2.23122)
(65.707 2.70344 -2.13835)
(66.3102 9.4131 0.20751)
(40.6521 10.8321 1.31773)
(28.9069 8.35572 2.68182)
(10.3243 3.79965 0.85364)
(11.5446 1.43672 0.111794)
(6.03135 1.12357 0.0273062)
(8.08851 0.315064 -0.00664984)
(5.99797 0.465037 0.000949229)
(6.26271 0.087179 0.0312233)
(6.76284 0.272392 -0.00143806)
(-146.551 112.119 101.556)
(-228.461 0.116895 -6.5745)
(24.9477 61.6727 3.75798)
(-113.404 36.4019 5.46518)
(14.3896 16.451 1.64698)
(-60.9266 -2.36258 2.03491)
(19.267 -7.84613 2.3905)
(-20.9372 -7.40126 0.289175)
(21.7236 -2.85867 1.05175)
(0.584805 1.79096 1.10642)
(19.412 6.57063 2.08021)
(3.75824 7.56075 1.32558)
(12.7755 5.75885 0.978167)
(4.37263 2.64298 0.219764)
(9.08002 0.357488 0.0698875)
(5.1135 0.211681 0.0141238)
(7.63374 -0.331727 0.00855367)
(5.94134 -0.0762912 -0.00876484)
(6.22927 -0.275842 0.0289028)
(6.86612 0.0316212 -0.000234459)
(192.494 73.8371 -184.282)
(-275.947 -17.1607 17.8249)
(83.7001 33.8071 -10.216)
(-97.1759 32.5345 8.05127)
(26.6264 19.3956 3.97991)
(-40.8769 20.3056 0.403511)
(21.1013 3.04606 -3.08939)
(-11.1939 9.55964 -1.11179)
(17.241 -0.297261 -0.378037)
(-2.74703 7.9002 0.245922)
(12.3664 2.85201 0.75208)
(1.18994 8.38574 0.543184)
(10.8256 2.92948 0.366634)
(4.2402 4.23851 0.129473)
(9.16664 0.741182 0.0337569)
(5.38451 1.61469 0.00986272)
(7.93348 -0.0966644 0.0012882)
(6.21103 0.668525 0.00331086)
(6.52378 -0.290397 0.0187795)
(7.09243 0.4634 0.00578911)
(11.9373 13.1773 -25.0503)
(-162.504 -14.1424 -6.9872)
(55.8015 -3.19881 13.999)
(-132.467 47.5455 11.1751)
(12.7862 23.1451 3.41134)
(-85.1184 18.7069 -1.5729)
(15.899 11.7797 -2.83976)
(-34.9064 10.081 -0.201595)
(10.1456 3.00466 0.0324645)
(-17.0366 7.10064 0.355296)
(5.71073 2.88717 0.32948)
(-5.34862 4.89134 0.184804)
(6.63659 1.70578 0.109183)
(1.87039 2.22871 0.032198)
(6.65501 -0.0458683 0.011084)
(4.39287 0.656816 0.00321211)
(6.74348 -0.618905 -0.00156085)
(5.84073 0.149915 -0.00405614)
(6.10657 -0.516184 0.00299383)
(7.08614 0.280628 -0.000632047)
(130.169 214.104 37.6479)
(-69.5488 41.7156 -3.64788)
(36.4299 -15.5683 16.4595)
(-153.487 20.4895 11.9676)
(27.2594 3.44995 2.20016)
(-86.0926 21.9411 -0.871436)
(23.16 -5.79479 -2.09934)
(-24.0139 16.1182 -0.311142)
(13.3359 -12.8655 -0.44085)
(-9.78964 10.3068 -0.028294)
(7.66355 -7.40558 -0.0596055)
(-2.78023 6.38952 0.004371)
(7.70146 -3.57444 0.00890947)
(1.80327 3.29495 0.00350366)
(7.47886 -1.73075 -0.00323452)
(4.61293 1.09272 -0.000974986)
(7.35145 -1.2153 -0.0168675)
(6.27481 0.304922 -0.0171)
(6.64894 -0.784752 0.00811889)
(7.43802 0.425994 0.0112947)
(0.123545 -111.635 32.0582)
(-189.208 36.2947 -6.10532)
(-30.6761 8.24132 -30.1055)
(-166.786 7.96442 -11.7455)
(8.55459 4.98611 -7.08445)
(-110.005 15.4993 -2.8889)
(27.3594 -31.2604 -1.99744)
(-33.9675 15.1228 0.817238)
(1.61873 -8.44839 0.398909)
(-14.0142 10.7585 0.16237)
(-1.42964 -1.25059 0.0434685)
(-3.28102 3.17631 0.0288309)
(2.68194 -2.00534 0.00321947)
(3.21478 0.669278 0.0162576)
(4.26872 -2.26234 0.00361235)
(4.83468 -0.228745 0.00130809)
(5.96001 -1.68728 -0.00458467)
(6.33302 -0.12481 -0.0260188)
(6.30899 -0.870732 0.0173289)
(7.57282 0.429977 0.00392362)
(-16.2823 -90.8665 118.404)
(-81.5747 8.21814 -6.707)
(-35.0622 19.4767 -4.0512)
(-144.011 -9.86544 -14.5748)
(33.7393 22.5951 -13.4146)
(-76.1408 10.8468 -6.2293)
(10.5091 -63.011 -4.38587)
(-61.6704 30.8247 1.06635)
(-23.7019 -33.1981 0.352386)
(-28.8479 11.8784 0.0342464)
(-8.6148 -16.9706 -0.0193793)
(-10.3596 3.05769 -0.0389255)
(3.1841 -9.47294 -0.0386985)
(-0.245707 1.43692 -0.0138974)
(6.0206 -4.22828 -0.00417435)
(4.74931 -1.0767 -0.0104451)
(7.28758 -2.63329 -0.0267263)
(6.95673 -0.794889 0.00194885)
(7.15311 -1.24438 0.000681463)
(7.97305 0.156689 0.0189207)
(286.903 51.0661 -114.702)
(-146.038 44.0624 43.8449)
(13.0478 48.4998 10.8927)
(-158.38 -12.0441 -11.531)
(63.4528 18.4411 -7.29963)
(-51.057 56.5709 -3.17693)
(11.9123 2.32975 -1.51551)
(-53.164 39.3396 2.10528)
(-28.9031 -25.5186 0.925051)
(-33.1905 -5.795 -0.33593)
(-6.46546 -5.62944 0.0695923)
(-7.75723 -8.16265 0.00394509)
(2.73378 -0.287081 -0.0354819)
(0.168699 -1.43672 -0.0638995)
(3.25179 -7.34099 0.00319115)
(7.57837 -2.87324 -0.0468223)
(6.58969 -2.93155 -0.0132312)
(7.77735 -0.8221 -0.000746757)
(7.31305 -1.11322 -0.00359881)
(8.35482 0.345157 0.017501)
(217.619 19.6009 -2.88349)
(-102.529 29.4212 5.45271)
(75.8078 42.1992 -14.9045)
(-94.8668 -7.94081 -5.64515)
(22.8109 -35.102 0.448028)
(-27.7247 34.9243 1.21153)
(0.0581891 29.2911 2.54569)
(-22.0007 3.77574 1.03724)
(3.85901 -27.1262 1.87113)
(-8.13329 -16.7576 -0.509899)
(2.09623 -6.4058 -0.189287)
(-1.43074 -4.70515 -0.144158)
(2.78506 0.667188 -0.0664769)
(2.55888 0.35709 -0.0609343)
(6.48959 -0.242606 -0.0247485)
(5.38107 -4.2864 -0.0480987)
(7.26232 -2.82101 -0.0106739)
(7.01028 -1.78365 -0.00558829)
(7.35353 -1.28177 -0.00746048)
(8.55961 -0.131501 0.0148868)
(235.07 -1.7261 15.3441)
(96.6801 65.5064 -35.4293)
(130.383 32.3589 4.79261)
(14.6683 -1.96146 -10.8232)
(58.2524 -29.5624 9.34894)
(-34.0772 -10.6514 1.79115)
(23.3837 1.80129 1.53158)
(9.61696 -26.3819 0.244792)
(3.44759 -25.3471 -0.775376)
(2.9283 -18.9613 -0.454492)
(5.30992 -13.8868 -0.168617)
(4.81077 -10.6324 -0.050731)
(5.05859 -8.08347 -0.104659)
(5.4835 -6.19318 -0.0969749)
(7.94604 -4.26822 -0.0432272)
(7.88711 -3.38179 -0.0301044)
(8.34867 -3.42208 -0.0045248)
(8.44152 -1.80497 -0.00362867)
(8.3525 -1.72022 -0.00637712)
(9.20518 -0.404003 0.0129566)
(223.108 11.7257 -23.3882)
(141.925 101.22 7.35335)
(146.082 76.4151 -4.95017)
(86.2291 16.5034 -20.4893)
(108.919 6.03108 -5.49889)
(-4.12541 -26.2375 7.66416)
(0.858932 -40.4013 2.21299)
(18.0892 -38.9099 0.340332)
(17.9081 -23.5334 0.938613)
(9.99168 -15.6998 -0.570919)
(9.92497 -12.2934 -0.283901)
(8.72277 -10.4301 -0.0325234)
(8.25021 -9.00019 -0.0566278)
(8.33894 -7.59458 -0.0789296)
(10.1471 -5.8062 -0.0246748)
(9.07056 -5.30117 -0.0244253)
(9.34735 -3.16079 0.000980269)
(9.25816 -2.65782 -0.00434459)
(9.03668 -1.50637 -0.00396455)
(9.76051 -0.662281 0.00920975)
(57.0257 67.3595 88.3381)
(-17.9368 38.8164 -3.35651)
(110.709 36.1238 30.8627)
(31.6152 20.7853 -0.529243)
(73.3133 40.2827 12.3715)
(-19.6006 -29.2375 6.0836)
(13.888 -49.0881 0.45891)
(15.1382 -28.3823 -1.24026)
(10.06 -18.4517 -1.51021)
(9.5141 -6.91908 0.333086)
(9.5168 -7.87851 -0.0805417)
(8.33793 -9.4189 -0.0159568)
(8.70461 -9.6745 -0.0101044)
(8.60851 -8.56932 0.00711841)
(12.3198 -7.15084 0.00220205)
(8.98523 -3.76219 -0.0355018)
(10.7014 -3.40499 -0.00844595)
(9.8193 -2.46276 -0.00945746)
(9.99066 -1.83314 -0.0110405)
(10.5508 -0.917503 0.00490866)
(109.654 -70.7998 89.1063)
(-58.5358 -76.4272 18.2803)
(67.1948 -17.0704 6.16291)
(-87.331 -28.2759 -3.99274)
(92.0891 14.5342 -0.521642)
(-40.0774 -68.2941 -1.52294)
(33.1359 -12.0244 -1.70351)
(3.03478 -7.34931 -0.946212)
(17.8315 -10.3589 0.494342)
(-5.23853 -11.3105 0.679024)
(11.598 -12.0555 0.0292364)
(4.56037 -11.9034 -0.123716)
(14.702 -10.0596 -0.0905646)
(8.74236 -9.52676 -0.0358545)
(10.0896 -3.59036 -0.00748793)
(12.9444 -4.85711 -0.0155093)
(11.6273 -3.26861 -0.00699727)
(11.87 -3.15575 -0.00646782)
(11.4799 -1.72459 -0.00648619)
(11.6046 -1.18118 0.00831008)
(30.1798 32.0505 -5.98854)
(4.08414 -30.8195 -11.8825)
(131.783 -12.1269 21.9756)
(-9.57504 -23.0255 2.74019)
(84.8284 -10.199 1.96638)
(20.1407 -17.6327 -6.87532)
(46.704 37.2445 -7.54683)
(19.5141 -15.0891 -9.00186)
(27.2283 15.4604 -8.02163)
(19.9916 -15.3394 -5.89075)
(24.3039 -2.76636 -1.98853)
(17.0233 -18.7308 0.0256198)
(20.2176 -4.53395 0.469416)
(14.4028 -11.3785 0.212238)
(15.4658 -3.25257 0.101714)
(13.6838 -5.36162 0.0365762)
(14.3629 -2.43817 0.0163994)
(12.7919 -2.96325 0.00717093)
(12.8064 -1.35224 -0.00397157)
(12.4411 -1.03026 0.00935352)
(46.2818 -135.153 -135.188)
(21.5324 -72.6046 -6.95762)
(124.068 -45.1475 23.4008)
(-17.3976 -10.879 3.73925)
(80.3841 11.9123 -5.48343)
(6.3347 0.796982 -7.41557)
(67.5821 35.8897 -8.67085)
(34.7144 17.5062 -8.92036)
(57.1845 25.8442 -7.48363)
(49.027 6.05242 -4.09122)
(47.4171 1.63723 1.7893)
(24.455 -13.0872 1.99663)
(22.684 -6.38223 0.778925)
(17.1997 -9.92729 0.253808)
(16.8756 -3.43692 0.0450809)
(14.4571 -4.99437 0.0256392)
(14.8694 -2.22745 -0.0022621)
(13.441 -2.83172 0.00296332)
(13.4623 -1.05315 -0.00709829)
(12.998 -1.0282 0.0103446)
(159.951 -93.7373 19.908)
(68.1336 -46.0387 -36.2874)
(153.55 -18.3852 6.9625)
(44.7751 -9.05716 5.11289)
(96.3417 3.9078 6.09312)
(40.525 12.292 -1.62596)
(81.6005 34.8424 -0.35008)
(62.4374 17.0751 0.248933)
(77.3008 24.2496 2.93926)
(59.4233 -0.383836 3.83553)
(53.9792 8.30253 3.96013)
(28.9912 -7.27556 1.9689)
(28.1623 1.3435 0.837793)
(17.8584 -6.80205 0.343612)
(20.4947 -0.945233 0.0862624)
(14.8581 -4.12985 0.0263206)
(16.5393 -1.22663 0.0132028)
(13.9497 -2.40998 0.00269612)
(14.562 -0.646862 -0.00530649)
(13.7816 -0.883908 0.00244205)
(337.267 82.6942 -155.593)
(206.053 121.356 -65.3696)
(216.105 59.7427 -20.0711)
(105.114 25.1211 6.92742)
(112.812 20.4786 8.89751)
(56.1449 12.047 4.14182)
(84.9594 23.4467 8.59767)
(42.3355 -1.50266 6.24963)
(61.1259 8.71261 7.77609)
(22.925 -5.60422 4.20398)
(35.4513 7.45284 3.18192)
(14.2438 -3.04875 1.23477)
(24.5378 2.81961 0.553866)
(14.3601 -3.41358 0.163227)
(19.7283 -0.200855 0.0429782)
(14.1094 -2.83227 0.0162285)
(16.6291 -0.797567 0.00507363)
(13.9513 -1.80363 0.000425592)
(14.8024 -0.418383 -0.00464029)
(13.9962 -0.734204 0.00391576)
(382.792 305.698 -65.025)
(188.521 254.21 -4.50086)
(165.91 104.958 28.0388)
(26.7792 48.8778 9.42819)
(88.1858 19.1279 17.118)
(16.5357 -3.12071 1.4267)
(63.7217 -1.2301 3.18535)
(12.471 -16.2113 0.0963786)
(42.8799 0.844828 0.535728)
(8.83016 -9.11357 -0.0881466)
(30.9456 4.20546 0.31466)
(11.9008 -4.224 0.12515)
(25.1279 2.16087 0.107406)
(13.8648 -3.17341 0.0373544)
(21.0711 0.121929 0.019609)
(14.263 -2.28458 0.00124653)
(17.6435 -0.351691 0.00315016)
(14.2905 -1.40189 -0.000701947)
(15.53 -0.130806 -0.0036909)
(14.5738 -0.564387 0.00368252)
(124.564 391.444 -53.155)
(-63.6042 150.685 35.8473)
(58.1977 15.5561 23.8326)
(-86.6594 36.9822 13.424)
(66.4245 0.276453 8.43949)
(-45.1194 8.7344 -1.90935)
(53.5783 18.827 -3.17786)
(-22.5259 1.72433 -2.33172)
(37.4914 11.825 -1.98531)
(-5.15593 0.392434 -0.873291)
(29.1077 6.65107 -0.481484)
(6.08115 0.0417487 -0.131073)
(24.131 2.68048 -0.0629697)
(11.5775 -0.652881 -0.0328998)
(20.5262 0.564126 -0.01114)
(13.5864 -0.864645 0.00229034)
(17.5867 -0.0607347 0.000513425)
(14.1628 -0.648057 -0.00148816)
(15.6411 -0.0710099 -0.00437997)
(14.6671 -0.301801 0.00356094)
(47.6001 14.9541 128.669)
(132.538 99.4409 0.127039)
(253.036 59.7101 6.49888)
(177.593 -1.37599 17.4805)
(100.594 -24.7899 32.2139)
(-28.4813 -5.27639 7.01297)
(52.0368 -5.97327 2.69239)
(-18.0972 -3.89968 0.501851)
(37.3348 -3.20685 -0.194165)
(-2.68112 -2.5485 0.00494278)
(29.3768 -1.08687 -0.0691893)
(6.7485 -1.7431 -0.00396169)
(24.4143 -0.428437 0.00920183)
(11.5875 -1.25067 -0.0196783)
(20.8327 -0.281275 0.000467032)
(13.5084 -0.765896 -0.00290851)
(17.7446 -0.160892 -0.00182662)
(14.0847 -0.404148 -0.00200151)
(15.6702 0.0119913 -0.00162897)
(14.6787 -0.127269 0.00454675)
(39.9184 8.51133 -0.831096)
(12.2753 -12.197 -53.9113)
(82.0286 7.32064 -36.8131)
(-38.8357 36.0333 -30.1224)
(30.1179 37.9498 -29.6742)
(4.05761 16.36 -18.3976)
(43.1218 10.1016 -10.7082)
(32.799 -8.45667 -5.4196)
(53.552 -7.86111 -1.90424)
(47.2796 -10.1882 -0.623981)
(50.7633 3.16087 5.46768)
(27.2204 8.20749 6.95409)
(23.3946 7.44636 6.74665)
(9.867 3.94605 2.37381)
(11.6362 1.58366 0.475997)
(6.36278 1.17776 0.133873)
(8.43802 0.34337 0.00618361)
(6.37786 0.469512 0.00589182)
(6.61433 0.0915369 0.0492109)
(7.09977 0.274732 0.000805854)
(-63.3737 111.632 -70.0616)
(-153.992 -45.3473 -59.8167)
(-4.78292 17.1546 -19.3471)
(-149.896 6.96127 0.779398)
(7.69049 -2.94194 -0.849319)
(-87.1642 -10.778 -2.98761)
(16.6232 -13.2048 -6.96468)
(-36.0045 -8.56908 -3.79414)
(14.1319 -4.29892 -4.56399)
(-14.93 0.69144 -3.26934)
(11.1854 4.53105 0.086259)
(-1.74899 6.19453 1.6066)
(11.1915 4.55368 1.53299)
(3.99187 2.24894 0.399955)
(9.26438 0.315545 0.110562)
(5.4182 0.205853 0.0166915)
(7.94688 -0.325847 0.00696093)
(6.29038 -0.0753234 -0.012913)
(6.56421 -0.280539 0.0429389)
(7.19027 0.0334046 0.00142566)
(21.9417 -41.0359 -48.4759)
(-96.9683 -19.616 15.7018)
(63.1314 1.70749 -6.22784)
(-96.6639 8.95864 -6.41769)
(26.6883 6.15857 -18.2172)
(-32.5634 12.4361 -10.8549)
(24.1626 -1.93911 -13.624)
(-9.80578 6.99487 -6.34451)
(16.7897 -1.98697 -3.6923)
(-5.08312 6.77768 -1.40458)
(11.3598 1.85077 0.195449)
(0.561108 7.83592 0.568653)
(10.8118 2.66436 0.542539)
(4.44169 4.21031 0.188352)
(9.46252 0.761657 0.0475025)
(5.72875 1.62834 0.0131362)
(8.26326 -0.0840351 0.00175117)
(6.56641 0.676553 0.00508959)
(6.8676 -0.294009 0.0297239)
(7.40951 0.464093 0.0100507)
(43.9863 -19.6927 124.048)
(-122.734 -34.2408 -28.6666)
(7.37659 -10.3082 -3.18257)
(-152.873 33.4909 -4.19604)
(13.9428 10.7501 -5.57841)
(-88.0313 13.1677 -4.31626)
(16.0545 8.03561 -9.35182)
(-34.4098 8.96847 -1.20798)
(10.0793 3.09084 -0.761137)
(-16.7481 7.27415 -0.248004)
(5.98634 2.88533 -0.0154979)
(-5.0407 4.90082 0.110462)
(6.91194 1.69007 0.132142)
(2.16097 2.2351 0.0365472)
(6.94977 -0.0260192 0.0133629)
(4.71488 0.664074 0.0030392)
(7.05911 -0.61594 -0.00490551)
(6.17294 0.143705 -0.00481998)
(6.43272 -0.51671 0.00229846)
(7.41799 0.282241 0.00195279)
(139.259 64.1352 212.048)
(-54.3049 -70.0509 3.72837)
(23.1191 -42.9774 17.4062)
(-160.145 -5.60047 -8.88022)
(29.2059 -22.4862 -12.1956)
(-86.3885 13.8892 -1.80844)
(23.095 -10.8 -3.40237)
(-23.2834 15.5063 0.470369)
(13.4221 -12.1954 0.154439)
(-9.37648 10.6641 0.270863)
(7.93325 -7.13485 0.148161)
(-2.40632 6.47145 0.105567)
(8.00725 -3.49772 0.0716859)
(2.14283 3.31145 0.0299693)
(7.79378 -1.69889 0.00592992)
(4.95097 1.09554 -6.00699e-07)
(7.6769 -1.20429 -0.0273396)
(6.63196 0.295943 -0.0242008)
(6.99954 -0.773892 0.0111214)
(7.75823 0.425962 0.0194489)
(179.037 -181.642 -64.9501)
(100.019 -114.823 16.3241)
(62.6037 -42.7719 31.3124)
(-153.455 -15.2959 -5.98703)
(21.2348 -9.61638 -11.0304)
(-104.454 9.97736 -3.0099)
(21.3825 -41.8484 -1.82707)
(-36.9944 13.0726 2.22811)
(0.562746 -8.94089 1.31879)
(-14.0186 10.8275 0.568364)
(-1.25074 -1.10834 0.196547)
(-2.99661 3.21671 0.0957315)
(2.94885 -1.96542 0.0345617)
(3.50896 0.676948 0.031012)
(4.56135 -2.23886 0.00328304)
(5.14381 -0.229854 -0.00079577)
(6.2623 -1.6837 -0.0117521)
(6.66942 -0.118933 -0.0376566)
(6.64477 -0.870809 0.0244904)
(7.88578 0.431415 0.00929275)
(141.439 29.568 -78.4839)
(-11.4986 27.9812 -21.5686)
(40.2709 42.3651 3.85279)
(-127.621 -36.1022 -22.3947)
(36.5394 -2.31277 -15.0882)
(-71.1795 7.0993 -7.32597)
(1.67443 -66.0859 -9.05657)
(-65.2534 32.1612 1.82732)
(-24.0197 -33.7541 0.599538)
(-28.6718 11.6828 0.246827)
(-8.39298 -16.9114 0.116474)
(-9.95577 3.07255 0.0143484)
(3.46883 -9.39724 0.000752796)
(0.101207 1.42785 0.00699839)
(6.32495 -4.17895 0.00674557)
(5.05786 -1.08019 -0.0116267)
(7.61278 -2.6229 -0.0402254)
(7.30514 -0.787153 0.0010104)
(7.49666 -1.25253 0.000795629)
(8.29297 0.157307 0.029274)
(79.2519 -27.4291 30.3864)
(-188.494 -6.89343 50.4703)
(80.8958 29.0041 -1.33249)
(-105.255 -42.1577 -15.3814)
(45.8913 -32.6006 -1.38604)
(-71.4986 37.2417 -0.465313)
(-6.36431 -20.2495 -4.44651)
(-57.035 40.7191 2.78867)
(-28.4714 -22.88 1.30439)
(-32.0459 -7.74836 -0.109199)
(-5.86473 -5.46297 0.0664831)
(-6.67681 -8.73859 -0.0990702)
(3.47847 -0.420296 0.0691722)
(1.17578 -1.4108 -0.0139405)
(3.62315 -7.34443 0.0267099)
(7.9402 -2.91844 -0.0453428)
(6.95889 -2.92605 -0.00774237)
(8.11532 -0.822737 0.00855513)
(7.64266 -1.10481 0.000719288)
(8.67286 0.349887 0.0289821)
(280.357 320.457 57.8726)
(-68.6002 24.2664 17.133)
(108.153 19.6735 16.65)
(-49.8047 -33.9141 7.8155)
(12.254 -53.3236 4.5924)
(-43.8483 28.2312 9.48374)
(-12.5644 18.9179 -1.03781)
(-28.5264 10.4243 0.723659)
(20.4579 -10.4473 -0.505286)
(4.67856 -18.5914 0.350861)
(5.50918 -6.75876 -0.119419)
(1.25881 -5.26724 -0.0232973)
(4.64297 0.310222 0.0140255)
(4.39837 0.0701917 -0.00439205)
(7.29014 -0.237556 -0.00247414)
(5.70257 -4.3007 -0.0281937)
(7.66731 -2.8275 -0.00449495)
(7.39692 -1.79518 0.00794786)
(7.712 -1.2904 0.00130243)
(8.87711 -0.140461 0.0271362)
(256.821 202.135 50.8882)
(-167.682 64.9094 38.3347)
(120.418 -2.34974 40.9748)
(-39.2781 -11.1656 18.8747)
(42.886 -26.471 7.30921)
(-3.72008 -17.155 9.28641)
(29.8384 -13.2559 12.6327)
(32.0056 -21.4528 13.4994)
(16.0945 -15.7271 4.35374)
(9.5135 -17.8099 0.716956)
(8.15665 -14.1185 0.102784)
(6.88307 -10.8689 0.0709692)
(6.57056 -8.12444 0.00748549)
(7.04828 -6.27191 -0.000159153)
(8.77256 -4.22275 -0.0213659)
(8.24234 -3.41709 -0.00545593)
(8.72431 -3.45037 0.00955105)
(8.80458 -1.82598 0.0113999)
(8.70685 -1.72129 0.00203661)
(9.54038 -0.404778 0.0242455)
(154.685 -9.21818 -40.1748)
(122.688 13.7869 2.1903)
(177.849 13.7638 25.1256)
(71.51 -22.7004 10.7252)
(72.8481 -21.5912 17.4428)
(21.4105 -21.4011 11.1693)
(16.5432 -27.3589 11.1625)
(16.6736 -28.8407 5.15991)
(18.5201 -21.736 3.82421)
(14.9215 -18.2151 0.623185)
(13.1039 -13.5415 -0.698884)
(10.1153 -10.7018 -0.155947)
(10.0016 -9.31406 -0.0483962)
(10.0067 -7.87327 -0.195856)
(10.8166 -5.84828 -0.0375608)
(9.41677 -5.29712 0.00385019)
(9.7301 -3.16642 0.0150571)
(9.62267 -2.66432 0.00761407)
(9.39717 -1.51983 0.000649771)
(10.0985 -0.676259 0.0173803)
(338.179 -429.919 -16.7901)
(-221.052 -37.9105 44.488)
(135.375 19.6388 19.9492)
(-23.9393 13.5942 16.4752)
(49.5129 32.6505 26.3091)
(-35.6887 -33.8114 14.5234)
(11.6119 -42.4412 -0.340016)
(14.5722 -23.1825 -8.22034)
(15.9326 -17.3258 -3.70327)
(15.3381 -11.6545 -2.57809)
(12.7501 -8.45236 -0.306721)
(10.2171 -9.38003 0.0209879)
(10.4807 -9.73706 0.0465401)
(10.2851 -8.64432 0.0306548)
(13.036 -7.19851 0.00681097)
(9.40764 -3.76766 -0.00387077)
(11.1105 -3.40907 0.00908382)
(10.1933 -2.46811 0.00262225)
(10.3487 -1.83698 -0.00617621)
(10.8688 -0.921138 0.0118582)
(38.1406 -279.354 -5.80185)
(-137.517 -43.7306 22.7992)
(79.5844 -20.8777 28.4438)
(-77.0461 -7.99876 -1.11073)
(80.3752 28.8702 1.71374)
(-45.8202 -58.6763 -3.73655)
(30.9486 2.665 -4.76248)
(-4.70305 -2.73439 -5.38562)
(15.7714 -9.54022 -1.41823)
(-4.4562 -11.154 -0.228178)
(12.6803 -12.2365 -0.128488)
(5.59016 -12.0347 0.116951)
(15.3743 -10.1628 0.105448)
(9.50254 -9.57394 0.0492911)
(10.5043 -3.60385 0.0436679)
(13.3189 -4.84328 0.009103)
(12.0002 -3.27493 0.00796616)
(12.2138 -3.1634 0.000892735)
(11.8142 -1.73872 -0.00853987)
(11.94 -1.19267 0.0138929)
(174.425 -316.184 -47.0496)
(-140.323 -52.3006 -40.2853)
(111.769 -25.082 27.2354)
(-57.664 -17.9697 -3.26518)
(87.9241 5.43243 0.178625)
(19.0299 -15.1691 -10.7015)
(47.9107 32.2512 -6.9678)
(19.8335 -24.7849 -6.12786)
(27.4367 7.98006 -4.66006)
(15.9985 -23.9495 -3.40002)
(20.8668 -5.95909 0.513315)
(14.2309 -19.8157 1.11261)
(18.9975 -4.49238 1.05841)
(13.9925 -11.4036 0.336162)
(15.5913 -3.29002 0.145025)
(13.9675 -5.37157 0.048667)
(14.7002 -2.45991 0.0239825)
(13.1467 -2.96966 0.00757816)
(13.1741 -1.36354 -0.0110278)
(12.8068 -1.03497 0.0124379)
(-26.9241 -112.185 -108.58)
(-147.391 -23.6225 -42.765)
(91.2647 -38.032 18.1111)
(-19.8253 -24.4349 -5.57217)
(84.3606 -3.70277 -5.59944)
(14.1091 -25.0774 -6.50791)
(71.6534 4.80752 -0.918788)
(37.7508 -21.5269 -4.73002)
(54.436 -10.5349 -0.0786811)
(35.0083 -23.4294 0.612954)
(35.0522 -12.3966 5.16573)
(22.1559 -16.5972 4.06875)
(22.2494 -7.06848 2.05969)
(17.3691 -9.97669 0.676944)
(17.2105 -3.46514 0.127573)
(14.8336 -4.9982 0.0543895)
(15.2502 -2.23939 0.00867347)
(13.827 -2.83601 0.00812273)
(13.8376 -1.06054 -0.0145793)
(13.3648 -1.03357 0.0127394)
(196.551 -49.8744 7.20531)
(-42.2648 -73.6647 -62.5168)
(127.521 -78.4752 -22.0647)
(9.11946 -48.0632 -12.171)
(95.4121 -25.4415 5.68089)
(44.8818 -21.5494 -3.21526)
(88.6061 2.57891 5.83784)
(66.6168 -12.0779 5.37097)
(77.5372 3.12369 9.51218)
(52.5664 -13.8391 7.93625)
(47.6334 1.47945 8.24155)
(26.133 -9.81402 4.39322)
(27.3966 0.787797 2.27488)
(17.7819 -6.94435 0.859031)
(20.7146 -0.970105 0.249635)
(15.2056 -4.12724 0.0597056)
(16.907 -1.23105 0.0317381)
(14.3295 -2.41019 0.0061635)
(14.9297 -0.653042 -0.0085014)
(14.1498 -0.887723 0.00490602)
(309.876 -60.6228 -259.202)
(140.281 24.9581 -21.9696)
(128.41 15.9529 21.2081)
(-1.81135 -6.68093 -2.54218)
(90.8645 0.661319 9.66521)
(10.0202 -24.0264 4.28124)
(71.4961 -2.01777 16.0675)
(17.2048 -21.0314 10.7048)
(50.4603 0.780214 13.2175)
(12.6792 -7.88459 6.56602)
(32.163 7.05506 4.80194)
(12.6783 -3.18451 2.04429)
(24.3546 2.8164 0.869591)
(14.5183 -3.43179 0.284819)
(20.0439 -0.207465 0.0468087)
(14.484 -2.82874 0.0184378)
(17.0041 -0.805246 0.00672289)
(14.3386 -1.80382 0.00115481)
(15.1726 -0.422234 -0.00772585)
(14.3677 -0.734153 0.00757983)
(269.514 182.556 43.8458)
(-4.60311 133.15 63.054)
(113.943 69.0089 50.6712)
(-92.1011 20.1675 8.48509)
(96.2895 -7.83745 3.93854)
(-1.77715 -11.0366 4.40503)
(60.8758 -0.636356 6.77419)
(4.93962 -7.84236 4.15692)
(39.7725 8.0544 3.35191)
(5.71455 -4.83949 1.39561)
(30.0004 6.02702 1.19395)
(11.4258 -3.53627 0.5159)
(25.1721 2.35554 0.2811)
(14.113 -3.09856 0.10837)
(21.3854 0.137691 0.0414385)
(14.6301 -2.26844 0.00783165)
(18.0108 -0.352748 0.00638629)
(14.6744 -1.39835 -0.00045573)
(15.8949 -0.133249 -0.00613702)
(14.9437 -0.563173 0.00768585)
(-71.1618 89.6784 7.93546)
(-162.758 70.6218 23.133)
(-15.2878 23.2047 17.5486)
(-105.009 31.0721 -1.95147)
(61.9408 -6.15926 -2.56972)
(-44.8452 8.1583 4.31679)
(52.0122 18.5663 -1.31649)
(-21.4105 1.05324 0.163796)
(37.4353 12.0853 -0.740632)
(-4.43897 0.581751 -0.115296)
(29.3663 6.72539 -0.154811)
(6.56684 0.0860649 0.00790739)
(24.4373 2.67555 -0.00458586)
(11.9744 -0.652916 -0.00631496)
(20.8865 0.558846 -0.00707139)
(13.9722 -0.860611 0.00793078)
(17.9539 -0.0642422 0.00198426)
(14.5483 -0.647905 -0.000517262)
(16.0049 -0.0719351 -0.00666956)
(15.0334 -0.301667 0.00852126)
(67.7699 -72.9374 -105.288)
(-15.5241 60.2287 -16.6122)
(157.614 42.8301 25.9341)
(40.2863 -18.5257 40.4602)
(67.7218 -25.7724 52.1408)
(-33.4441 -11.2564 12.891)
(53.1201 -7.11266 3.42463)
(-15.6962 -4.45443 0.891253)
(37.8271 -3.2355 -0.208044)
(-1.83937 -2.50919 0.0944612)
(29.694 -1.07125 -0.0127824)
(7.22818 -1.72585 0.0407017)
(24.7306 -0.410468 0.0471801)
(11.9813 -1.23985 -0.00294042)
(21.1993 -0.276226 0.00301958)
(13.9018 -0.763644 0.00276288)
(18.1232 -0.161649 -0.000752273)
(14.4651 -0.402461 -0.00144304)
(16.0441 0.0128333 -0.00377386)
(15.0613 -0.125857 0.0105975)
(235.483 -40.8006 115.467)
(24.3416 -23.1996 -10.953)
(98.0825 -32.5415 0.591369)
(9.75024 -8.89649 -21.7474)
(54.9984 17.9333 -33.5016)
(13.4566 16.4985 -22.5369)
(39.3313 22.5449 -15.5143)
(19.3972 7.90713 -5.14384)
(36.1638 10.4381 -0.53224)
(18.0959 7.52321 0.911177)
(23.1963 11.0901 7.1675)
(8.23119 8.84649 7.17478)
(15.1088 6.58428 6.03686)
(7.78999 3.74382 2.09697)
(10.909 1.53252 0.510056)
(6.18593 1.14817 0.137376)
(8.39812 0.339944 0.0065415)
(6.38038 0.466697 0.00564696)
(6.61351 0.0902752 0.0244981)
(7.09325 0.274704 0.00207485)
(90.2226 113.751 -66.6394)
(-85.4534 -31.3214 -41.2434)
(10.7567 10.8286 23.2014)
(-156.173 -11.3224 -0.199896)
(16.3442 -9.11105 -1.64447)
(-70.0164 -12.1713 -3.61974)
(15.8764 -10.5067 -9.3262)
(-35.7538 -6.32771 -6.46779)
(13.3436 -1.26578 -8.39268)
(-15.2639 2.98462 -5.49155)
(8.9724 4.44102 -1.63571)
(-3.49839 5.21539 0.976585)
(10.3781 3.44122 1.29392)
(3.62449 1.87675 0.424566)
(9.18006 0.256978 0.159472)
(5.39899 0.190537 0.021151)
(7.94479 -0.323896 0.00153313)
(6.29672 -0.0746882 -0.00390484)
(6.5667 -0.282798 0.0208386)
(7.18439 0.0344817 0.00194243)
(75.4416 9.67615 -124.466)
(-186.959 -54.6952 4.59733)
(80.0982 -25.8426 17.8608)
(-39.4024 -23.7618 -2.4217)
(43.2877 -17.4138 -17.5041)
(-15.2914 0.161547 -12.8702)
(26.0793 -7.59334 -17.5689)
(-9.22339 3.59159 -7.11278)
(16.2045 -2.52751 -3.61415)
(-5.83517 7.63873 -1.18032)
(10.8817 2.67343 0.25645)
(0.22201 7.80494 0.621604)
(10.6229 2.46196 0.613185)
(4.29465 4.12813 0.225906)
(9.41818 0.734214 0.0694439)
(5.71531 1.62272 0.0211567)
(8.26078 -0.0865123 0.00345876)
(6.57005 0.677319 0.00484865)
(6.86841 -0.299924 0.0156388)
(7.40369 0.464447 0.00481197)
(272.677 20.8663 17.8133)
(-84.5742 -51.2183 37.3219)
(59.179 -42.0399 46.7995)
(-128.903 10.7967 -0.855553)
(19.0656 -2.15263 -2.02038)
(-72.5262 4.81283 -8.17199)
(12.5156 4.81873 -17.2434)
(-40.0645 6.37121 -2.49297)
(8.48967 1.05584 -1.84368)
(-17.5196 6.44978 -0.255207)
(5.85523 2.42879 0.0853339)
(-5.06903 4.63262 0.211007)
(6.89939 1.5226 0.220863)
(2.13259 2.18066 0.0702656)
(6.94339 -0.0409496 0.0321003)
(4.71136 0.659563 0.0085323)
(7.05875 -0.62119 -0.00114494)
(6.1739 0.139915 -0.000785256)
(6.43402 -0.519889 0.00181805)
(7.41695 0.28378 0.0019235)
(328.177 52.5633 330.695)
(-108.781 -28.2753 85.3919)
(78.5862 -34.0964 70.174)
(-129.392 -22.4371 12.1104)
(20.1465 -32.7072 -9.90964)
(-85.2645 2.85585 -2.6966)
(21.9265 -20.1283 -4.70709)
(-24.3103 10.0738 0.164594)
(12.6582 -14.9724 -0.389085)
(-9.76756 9.67404 0.174495)
(7.79942 -7.56664 0.0380904)
(-2.47673 6.29956 0.0884164)
(7.97793 -3.58286 0.0501535)
(2.12173 3.28739 0.0258147)
(7.78465 -1.70927 0.00515883)
(4.94343 1.09225 -0.00155464)
(7.67387 -1.20653 -0.0144215)
(6.63735 0.291426 -0.0122385)
(7.00557 -0.770813 0.00580437)
(7.75384 0.42711 0.00862775)
(81.0696 -283.637 -214.825)
(-149.26 -51.3298 -4.82946)
(28.6162 -30.8183 64.1993)
(-158.81 -29.0624 4.85053)
(15.948 -12.4946 -22.8578)
(-110.348 0.783492 -3.57436)
(20.5295 -44.812 -3.22687)
(-40.1812 9.75464 1.30278)
(-0.556114 -10.4201 1.30345)
(-14.6588 10.2989 0.72365)
(-1.46087 -1.27139 0.255015)
(-3.07646 3.16164 0.146531)
(2.92033 -1.98034 0.050547)
(3.49363 0.674845 0.0331999)
(4.55417 -2.23809 0.00605343)
(5.14111 -0.230766 0.000114078)
(6.25865 -1.68506 -0.00927089)
(6.67523 -0.11654 -0.0170655)
(6.65168 -0.871983 0.0112224)
(7.88102 0.432286 0.00593309)
(595.004 325.828 45.4144)
(1.63557 17.887 -21.777)
(88.7289 14.3503 28.7177)
(-118.586 -59.8471 -16.8336)
(45.6159 -15.4845 -22.6103)
(-60.8922 1.39865 -9.76332)
(-0.207386 -65.6377 -13.5911)
(-66.4467 32.4922 -0.176697)
(-24.3626 -34.3118 -0.307733)
(-29.1573 11.7993 0.425349)
(-8.49632 -16.9485 0.156908)
(-10.0432 3.08782 0.0737012)
(3.44362 -9.39555 0.0345594)
(0.0830134 1.42678 0.0178143)
(6.31403 -4.18555 0.00779471)
(5.04749 -1.09016 -0.00791783)
(7.61223 -2.62475 -0.0203376)
(7.30902 -0.781958 -0.00183069)
(7.49894 -1.25481 0.00223613)
(8.28673 0.159499 0.0129305)
(258.506 350.517 2.4803)
(-140.852 71.8515 69.1605)
(93.8387 6.93698 4.81089)
(-147.203 -71.081 6.23518)
(54.413 -50.9759 10.0134)
(-72.8661 30.9576 -4.63049)
(-17.6468 -31.8106 -6.00423)
(-58.1095 41.2104 1.825)
(-26.8172 -23.6491 0.840344)
(-31.9903 -7.53958 -0.0619055)
(-5.86665 -5.44312 0.0665993)
(-6.70061 -8.70775 -0.033492)
(3.47406 -0.4154 0.0329118)
(1.15383 -1.41071 -0.00191553)
(3.61036 -7.33664 0.000988032)
(7.94103 -2.91644 -0.0248281)
(6.96944 -2.92565 -0.0112076)
(8.12041 -0.821515 0.00248642)
(7.64702 -1.10318 0.00204751)
(8.66901 0.350128 0.0135421)
(146.819 388.99 166.973)
(-183.788 -11.9167 10.6244)
(73.659 -35.3648 -1.84459)
(-96.2842 -57.691 10.5808)
(-0.726095 -58.4964 8.60823)
(-57.9875 31.1224 11.7583)
(-34.0644 2.85144 -6.24302)
(-22.63 -3.75091 4.1299)
(14.6079 -20.7615 1.62784)
(3.71247 -18.2005 0.7722)
(5.97424 -6.73916 -0.178321)
(1.28711 -5.235 -0.00126233)
(4.65258 0.334975 0.0194336)
(4.38906 0.0741589 0.0155936)
(7.30344 -0.220789 0.00994604)
(5.68205 -4.29344 -0.0079508)
(7.66323 -2.82524 -0.0101272)
(7.40318 -1.79478 0.00054977)
(7.71698 -1.2899 0.00187579)
(8.87207 -0.140952 0.0122922)
(135.961 -118.759 -26.5669)
(-144.799 27.9937 14.5136)
(101.508 -13.2839 -28.7431)
(-23.5101 0.0384127 4.06039)
(23.8218 -20.3478 12.8273)
(-60.5926 -1.46898 13.1211)
(14.449 -9.19737 14.3783)
(10.6967 -27.2489 12.1586)
(8.44145 -19.6773 6.13725)
(8.71938 -17.8685 1.04748)
(8.23297 -13.7388 0.220603)
(7.11632 -10.587 0.291453)
(6.76151 -7.90729 0.125075)
(7.20971 -6.19018 0.1322)
(8.84527 -4.20295 0.0299245)
(8.22081 -3.42957 -0.00265435)
(8.71337 -3.4569 -0.0042648)
(8.80397 -1.82999 0.000794071)
(8.71029 -1.72368 0.000227819)
(9.53766 -0.406134 0.0106793)
(212.929 -63.7007 89.9458)
(112.338 -13.2844 12.5261)
(131.098 -7.60813 28.4146)
(-18.3798 -27.0336 -0.709729)
(35.4056 -12.3339 17.3926)
(-46.1626 -25.2076 18.8543)
(-4.54003 -25.01 15.0013)
(9.9673 -18.6343 4.23785)
(12.9983 -16.5495 2.27671)
(14.4616 -19.9469 1.96069)
(12.7751 -14.7681 -1.85809)
(10.4652 -11.1851 0.647291)
(9.79319 -8.75978 -0.152049)
(9.97751 -7.10856 -0.253788)
(10.8713 -5.86138 0.0382441)
(9.40207 -5.29229 0.00484893)
(9.72977 -3.16092 0.000645064)
(9.62778 -2.66178 0.000852339)
(9.40301 -1.51959 0.000665928)
(10.0968 -0.677293 0.0075159)
(148.346 -107.493 -255.423)
(-30.4175 -86.3011 42.2241)
(102.086 1.27013 2.25427)
(-68.3748 15.571 8.15272)
(37.8825 35.9928 18.352)
(-51.3836 -37.1914 7.92384)
(7.67316 -33.3921 -5.21853)
(13.6877 -21.0963 -10.1476)
(19.2267 -11.9173 -6.04389)
(19.8016 -10.1584 -2.41166)
(13.5497 -8.5996 0.017674)
(10.1577 -9.3964 0.0666906)
(10.5062 -9.72489 0.0387404)
(10.2928 -8.62195 0.0299554)
(13.0339 -7.21488 0.00910264)