/*--------------------------------*- C++ -*----------------------------------*\
  =========                 |
  \\      /  F ield         | OpenFOAM: The Open Source CFD Toolbox
   \\    /   O peration     | Website:  https://openfoam.org
    \\  /    A nd           | Version:  10
     \\/     M anipulation  |
\*---------------------------------------------------------------------------*/
FoamFile
{
    format      ascii;
    class       volVectorField;
    location    "0.5";
    object      U_0;
}
// * * * * * * * * * * * * * * * * * * * * * * * * * * * * * * * * * * * * * //

dimensions      [0 1 -1 0 0 0 0];

internalField   nonuniform List<vector> 
12920
(
(-197.173 27.8152 110.483)
(-89.8334 24.2785 -62.2247)
(74.8869 54.5681 -27.7085)
(-13.9079 60.0467 -12.4848)
(42.0319 56.2614 -9.6043)
(26.2578 30.1042 -8.69876)
(62.7827 23.2941 -6.29121)
(61.2327 7.12763 -4.39164)
(79.3603 7.07991 -2.28898)
(75.7355 2.66416 -2.22345)
(76.3294 9.40869 0.173583)
(50.7095 10.8053 1.30798)
(38.941 8.28521 2.68026)
(20.5879 3.93722 0.931693)
(22.0082 1.58665 0.141409)
(16.558 1.2918 0.0702114)
(18.6744 0.458565 0.013211)
(16.6219 0.541567 0.00430952)
(17.2036 0.138999 -0.00291838)
(18.0701 0.286084 -0.000136316)
(-127.145 65.4586 116.024)
(-218.121 -11.4113 -5.12828)
(27.4816 56.0046 4.11105)
(-107.676 33.1987 5.79473)
(20.1088 13.7226 1.78272)
(-53.9139 -3.82439 2.13843)
(27.0964 -8.90554 2.33645)
(-11.7597 -8.2298 0.29223)
(31.1552 -3.26375 0.791262)
(10.5662 1.5919 1.02987)
(29.3593 6.4908 2.11459)
(13.969 7.593 1.38966)
(23.0097 5.81617 1.082)
(14.8526 2.92407 0.313278)
(19.5717 0.592146 0.116055)
(15.6338 0.489233 0.0313558)
(18.1279 -0.0909153 0.0107784)
(16.4733 0.0744776 0.00219217)
(17.1075 -0.190288 -0.00135392)
(18.1082 0.061401 0.00069841)
(184.456 93.8448 -201.936)
(-286.644 -24.181 12.9143)
(85.5898 29.5888 -11.7415)
(-88.3115 29.1489 7.06593)
(32.436 16.1442 4.06442)
(-31.8922 18.0306 0.426766)
(29.3036 1.36639 -2.89429)
(-1.70119 8.57067 -1.10528)
(27.0542 -0.999298 -0.432545)
(7.609 7.50396 0.25515)
(22.6371 2.87356 0.746236)
(11.5926 8.3978 0.526617)
(21.1529 3.07077 0.394248)
(14.6865 4.39346 0.163418)
(19.6256 0.919486 0.0535043)
(15.9181 1.79649 0.0190748)
(18.3926 0.101486 0.00529624)
(16.6777 0.809798 0.00232964)
(17.3423 -0.174858 -0.00400149)
(18.2858 0.50845 -0.000886434)
(6.65845 4.17239 -41.7248)
(-174.567 -28.9195 -9.74775)
(61.9746 -9.7899 14.5292)
(-125.788 42.224 11.4416)
(20.0361 20.1361 3.39408)
(-76.7712 16.2478 -1.50236)
(25.2232 9.96744 -2.76299)
(-24.8844 9.29448 -0.208985)
(20.209 2.74973 -0.0451164)
(-6.35157 6.79925 0.351044)
(16.1208 2.77563 0.32453)
(5.0361 4.7848 0.184102)
(17.0288 1.65315 0.0999158)
(12.3893 2.28206 0.03703)
(17.1733 0.0884908 0.0154271)
(14.9328 0.829592 0.00470307)
(17.1967 -0.395851 0.00213367)
(16.2882 0.336903 -3.76618e-05)
(16.8875 -0.390592 -0.00393775)
(18.1683 0.32633 -0.000202217)
(124.245 191.103 27.3853)
(-71.5644 20.0734 -4.11899)
(48.7044 -31.1436 16.9666)
(-143.046 12.6455 11.8472)
(36.7641 -1.29736 1.98935)
(-76.4247 19.7933 -0.845187)
(33.1028 -6.97624 -2.13739)
(-12.9686 15.7676 -0.28699)
(23.6595 -13.1269 -0.449526)
(0.722334 10.003 -0.0270122)
(18.1426 -7.70636 -0.0663879)
(7.68651 6.12479 0.00401379)
(18.1897 -3.52391 0.00767263)
(12.4375 3.28737 0.00445791)
(18.0567 -1.56064 -0.000760248)
(15.2357 1.28233 5.99549e-06)
(17.8246 -0.966658 -0.000512094)
(16.6442 0.499977 0.000305903)
(17.327 -0.690952 -0.00596593)
(18.4611 0.458176 -0.00287485)
(3.40545 -129.182 22.1989)
(-170.195 24.4084 -9.78787)
(-9.87241 1.22006 -29.695)
(-150.352 2.96214 -11.5494)
(21.8011 2.04327 -6.95944)
(-98.5375 14.8677 -2.78469)
(38.6869 -31.0977 -1.97688)
(-22.9839 15.0728 0.878751)
(11.8116 -8.39281 0.338893)
(-3.35725 10.5329 0.152151)
(9.03612 -1.65216 0.0384576)
(7.45524 3.18481 0.0303636)
(13.3316 -1.66479 -0.00558714)
(13.8543 0.815597 0.0144306)
(14.9835 -2.0851 0.00517396)
(15.4536 -0.0611758 0.00360146)
(16.418 -1.47203 0.00231053)
(16.626 0.0406934 0.00121859)
(16.9281 -0.820251 -0.00554058)
(18.5301 0.41428 -0.00258812)
(-0.588091 -99.3785 91.009)
(-60.2139 -0.826864 -9.27403)
(-16.1214 17.1841 -4.45784)
(-129.115 -13.1021 -14.1593)
(47.2016 20.9195 -13.5083)
(-63.4137 11.1833 -6.06271)
(21.9178 -62.6172 -4.36284)
(-50.8609 30.7718 1.08293)
(-13.363 -32.8425 0.344536)
(-18.9081 11.9299 0.035995)
(2.09715 -16.6882 -0.0146762)
(0.837576 3.43371 -0.0344708)
(13.8045 -9.15383 -0.0400105)
(10.2279 1.64908 -0.0171693)
(16.6189 -4.01539 -0.00424885)
(15.4092 -1.0395 -0.00428253)
(17.7585 -2.49276 0.00304128)
(17.1615 -0.709319 0.00195606)
(17.6505 -1.25399 -0.00457696)
(18.9616 0.0935274 -0.00322023)
(308.63 52.0532 -123.193)
(-126.292 42.4268 44.1704)
(39.8757 48.771 9.29227)
(-140.711 -12.3907 -10.8321)
(78.5886 18.4264 -7.42231)
(-35.6761 56.1706 -2.86127)
(23.0582 1.3177 -1.74565)
(-42.4162 37.4749 2.07752)
(-18.3414 -26.154 0.920237)
(-23.5285 -7.34742 -0.326348)
(4.18905 -5.72709 0.109765)
(3.51344 -9.56049 0.0264276)
(13.0248 -1.39907 -0.0253241)
(10.6958 -2.95096 -0.0808084)
(13.8608 -7.20095 -0.00530898)
(18.131 -2.95764 -0.0168737)
(17.0973 -2.98202 -0.00948163)
(17.9204 -0.816993 -0.0074171)
(17.7844 -1.15902 -0.00754784)
(19.3852 0.30936 -0.00327481)
(236.585 39.245 -15.2208)
(-83.488 35.2652 5.81251)
(94.3615 44.4336 -15.0379)
(-78.4922 -6.89046 -5.52654)
(36.579 -33.9152 0.796673)
(-14.0851 32.2684 1.2594)
(13.0628 28.0934 2.51975)
(-11.418 4.09912 0.985263)
(14.2512 -27.3994 1.96358)
(2.3216 -17.66 -0.466118)
(12.1847 -7.04649 -0.098381)
(9.24497 -5.89367 -0.176321)
(13.1535 -0.615632 -0.0297482)
(13.019 -0.879558 -0.0310392)
(16.0108 -1.5902 -0.00777587)
(16.1647 -4.21498 -0.0386556)
(17.8234 -2.95462 0.000734518)
(17.2211 -1.87205 -0.0127838)
(17.8122 -1.3942 -0.0132447)
(19.6296 -0.22922 -0.00701124)
(251.212 -7.86632 29.9116)
(113.681 72.2015 -32.4553)
(150.091 38.9389 3.95003)
(32.6853 2.42433 -10.6419)
(74.3796 -25.1975 9.39872)
(-18.6223 -8.02649 1.61079)
(35.5935 5.12271 1.61498)
(20.3724 -24.3341 0.430721)
(13.7315 -23.6096 -0.832557)
(13.2509 -17.6692 -0.456939)
(15.4831 -12.8944 -0.168669)
(15.141 -9.92296 -0.0427643)
(15.4537 -7.67021 -0.0696684)
(15.7815 -5.97404 -0.052892)
(17.9834 -4.23392 -0.0280825)
(18.2489 -3.25015 -0.0387723)
(18.6967 -3.4907 -0.00299664)
(18.6063 -1.98155 -0.00836525)
(18.8156 -1.86099 -0.00785608)
(20.4459 -0.570247 -0.00455998)
(247.027 25.4874 -16.9073)
(170.822 118.585 7.22914)
(163.861 85.6561 -7.28216)
(100.201 25.4534 -21.9825)
(120.754 12.4398 -5.84935)
(6.80319 -21.2345 7.65021)
(11.638 -37.2135 2.21288)
(28.2851 -36.5817 0.356025)
(27.7913 -21.3929 0.899301)
(19.919 -14.0736 -0.580287)
(19.9945 -10.9031 -0.272171)
(18.7613 -9.2905 -0.0279187)
(18.3671 -8.16673 -0.0497252)
(18.3425 -7.08748 -0.0771949)
(20.0573 -5.58627 -0.0318245)
(19.2814 -5.29155 -0.0258194)
(19.6029 -3.21671 0.00262916)
(19.3973 -2.76411 -0.00864232)
(19.5065 -1.60451 -0.00290645)
(21.138 -0.789752 -0.00505711)
(73.7588 101.579 86.6504)
(-1.44149 67.4604 3.87814)
(124.566 50.1094 30.5479)
(46.6377 31.7062 0.319455)
(84.6696 47.3558 12.3801)
(-8.64834 -23.2653 6.20838)
(23.4014 -45.8662 0.508666)
(24.9453 -26.1823 -1.25056)
(19.8373 -16.4737 -1.51281)
(19.4074 -4.75101 0.341473)
(19.3261 -5.74121 -0.0934728)
(18.1039 -7.85643 -0.0306204)
(18.3454 -8.68297 -0.0284094)
(18.397 -8.07123 -0.011966)
(21.9577 -6.63464 -0.00915537)
(19.2966 -3.74781 -0.0366217)
(20.9328 -3.37904 -0.00870275)
(19.9432 -2.53643 -0.0116547)
(20.4328 -1.87039 -0.0115223)
(22.018 -1.02608 -0.00296961)
(124.263 -30.5969 92.5232)
(-52.5881 -46.373 18.022)
(68.0052 0.994221 6.45853)
(-81.0281 -17.6377 -3.99015)
(97.4318 20.6193 -0.267024)
(-32.456 -63.5625 -1.46041)
(39.9411 -7.38941 -1.72125)
(13.2019 -3.43897 -1.11359)
(26.0281 -7.33543 0.563209)
(5.17461 -8.81889 0.749967)
(20.1967 -10.2891 0.032128)
(14.2005 -10.4163 -0.134517)
(23.4541 -8.98605 -0.103997)
(18.1158 -8.88086 -0.0445101)
(19.8873 -3.51524 -0.00169323)
(23.0724 -4.72496 -0.0190197)
(21.79 -3.22593 -0.0063115)
(21.9439 -3.198 -0.0074949)
(21.9146 -1.72033 -0.00531246)
(23.1305 -1.25254 0.00582358)
(29.4873 49.5134 -3.22925)
(-6.34363 -16.8215 -10.2422)
(126.753 -0.804571 22.185)
(-6.56004 -15.3897 3.00725)
(89.5098 -3.61654 1.59004)
(28.5593 -12.7686 -6.76816)
(54.8361 40.6615 -7.55716)
(28.1399 -11.9593 -8.97275)
(35.6802 17.7648 -8.07918)
(28.5814 -13.568 -5.90531)
(32.8894 -1.54772 -1.93836)
(25.6061 -17.849 -0.0182732)
(28.9095 -4.17147 0.488702)
(23.5839 -11.15 0.229399)
(25.1461 -3.07074 0.106537)
(23.6802 -5.20418 0.035546)
(24.4187 -2.40797 0.016764)
(22.8765 -2.95936 0.00769047)
(23.2188 -1.32189 -0.000593323)
(23.9793 -1.03865 0.0124495)
(38.3053 -117.496 -105.041)
(28.6358 -67.182 -6.08092)
(119.037 -36.545 24.8405)
(-16.0157 -5.24449 3.41712)
(83.272 17.3516 -5.8923)
(11.449 4.60183 -7.53884)
(74.4726 38.3562 -8.79352)
(42.3979 19.6292 -8.98517)
(65.0895 27.3242 -7.4259)
(57.3525 7.39459 -4.05688)
(55.6443 2.59568 1.66932)
(32.5849 -12.197 1.8566)
(30.9231 -5.89342 0.717249)
(26.1253 -9.64935 0.28499)
(26.5002 -3.36688 0.0515867)
(24.4363 -4.86768 0.0220524)
(24.881 -2.1724 -0.0116413)
(23.5163 -2.81905 0.00143098)
(23.8846 -1.01047 -0.00226568)
(24.5067 -1.00516 0.0160917)
(144.433 -100.341 43.1865)
(55.3074 -53.2487 -35.0437)
(148.487 -16.6419 8.91516)
(44.1248 -7.46907 5.49882)
(99.452 6.36104 5.92769)
(45.7988 14.8609 -1.6921)
(88.2499 36.8971 -0.387382)
(70.2133 18.6359 0.253192)
(85.1858 25.3554 2.90105)
(67.5342 0.584334 3.79892)
(61.9584 8.81389 3.88164)
(36.9589 -6.75763 1.87703)
(36.1636 1.52435 0.753571)
(26.6184 -6.49942 0.350244)
(30.0219 -0.873163 0.0993211)
(24.84 -4.00036 0.0237834)
(26.4817 -1.18638 0.0116265)
(24.022 -2.38367 0.00248112)
(24.984 -0.614505 -0.00380417)
(25.2593 -0.859947 0.00183241)
(341.847 80.449 -177.91)
(207.843 112.812 -71.5415)
(219.868 55.1604 -20.0457)
(106.42 23.4743 6.42193)
(116.367 21.2649 8.71212)
(60.5412 13.3435 3.99319)
(91.0517 25.0081 8.60968)
(49.0034 -0.459561 6.23485)
(68.3436 9.42642 7.71314)
(30.5085 -5.05798 4.14003)
(43.1082 7.57283 3.02404)
(22.1535 -2.86413 1.20203)
(32.5192 2.85982 0.530054)
(23.1921 -3.10515 0.169701)
(29.1736 -0.0363709 0.0481415)
(24.0576 -2.71241 0.0137392)
(26.5375 -0.759192 0.00547788)
(24.0192 -1.76604 0.000561651)
(25.2209 -0.399095 -0.00414226)
(25.4526 -0.722091 0.00180782)
(357.838 309.064 -79.9016)
(174.935 241.798 -6.10363)
(169.821 97.1218 28.0783)
(29.1649 46.4039 9.18035)
(93.4488 17.9424 16.5677)
(22.346 -2.24034 1.3859)
(70.0627 -1.21143 3.20682)
(19.4242 -15.7926 0.0668492)
(50.0075 0.832467 0.421445)
(16.4357 -9.03468 -0.113877)
(38.6213 4.05932 0.271928)
(19.9347 -4.0947 0.131886)
(33.2649 2.24921 0.109354)
(22.7577 -2.87583 0.039307)
(30.4105 0.298541 0.0204608)
(24.1191 -2.16528 -0.00441319)
(27.5037 -0.310103 0.00333177)
(24.3437 -1.36018 -0.000388538)
(25.9259 -0.118676 -0.00312958)
(26.0235 -0.557388 0.00241563)
(118.824 351.662 -48.0907)
(-40.6633 138.048 32.6462)
(70.1158 7.81557 23.779)
(-78.3863 35.2452 13.4528)
(72.9036 0.809927 8.08297)
(-39.2764 9.76071 -1.93368)
(58.8365 18.6858 -3.11029)
(-15.6995 1.93876 -2.31864)
(44.2632 11.6511 -1.99114)
(2.48035 0.439037 -0.889088)
(36.8175 6.55793 -0.470432)
(14.2632 0.185382 -0.125319)
(32.2799 2.75399 -0.075998)
(20.4994 -0.470529 -0.0371717)
(29.7929 0.675622 -0.0118233)
(23.3999 -0.785789 -0.000903017)
(27.4176 -0.0267075 0.000532374)
(24.2012 -0.616849 -0.000926828)
(26.0248 -0.061905 -0.00403838)
(26.1074 -0.290612 0.00270943)
(61.9388 14.7265 137.612)
(159.136 97.6188 -2.75568)
(269.215 56.4006 6.24911)
(186.324 -5.14523 17.6631)
(106.765 -24.9657 32.1255)
(-23.0757 -5.44023 6.78995)
(57.4253 -6.25119 2.69891)
(-11.0664 -4.01966 0.49321)
(44.2292 -3.27172 -0.196883)
(5.03437 -2.55698 0.0157269)
(37.1379 -1.06913 -0.0710925)
(14.9528 -1.70471 -0.00191334)
(32.5888 -0.386881 -0.00287205)
(20.5175 -1.1877 -0.0229444)
(30.0683 -0.231552 0.00305757)
(23.287 -0.73415 -0.00865358)
(27.5573 -0.146207 -0.00350014)
(24.113 -0.390699 -0.000698604)
(26.0462 0.0165433 -0.00131453)
(26.1093 -0.121417 0.00354351)
(47.3803 -20.3518 -37.6975)
(-1.37688 -19.6327 -59.3547)
(77.3981 6.01547 -35.8745)
(-33.3715 34.4303 -30.4461)
(33.9823 37.8336 -29.5906)
(11.6439 15.867 -18.2609)
(50.7816 9.62738 -10.5784)
(41.7447 -8.79113 -5.50684)
(62.8809 -7.98063 -2.00694)
(57.3688 -10.2036 -0.717828)
(60.7759 3.22233 5.33405)
(37.351 8.23092 6.92492)
(33.4794 7.42403 6.78582)
(20.1442 4.0901 2.57573)
(22.0855 1.74009 0.563073)
(16.8853 1.33566 0.237012)
(19.0081 0.479775 0.0564134)
(16.9801 0.549077 0.0148923)
(17.5545 0.144911 -0.000649991)
(18.4209 0.288278 0.00222841)
(-59.1178 75.9302 -53.0227)
(-151.35 -57.164 -59.3136)
(-1.42232 10.8026 -19.1205)
(-144.465 3.55908 0.615438)
(13.8352 -5.52376 -0.972374)
(-80.4422 -12.2135 -2.79481)
(24.5694 -14.2054 -7.15523)
(-27.0269 -9.38855 -3.84727)
(23.5623 -4.70664 -5.0263)
(-4.82712 0.516584 -3.40265)
(21.2104 4.47186 0.162762)
(8.51604 6.22973 1.71192)
(21.4417 4.62301 1.69437)
(14.4493 2.51223 0.555321)
(19.7254 0.546201 0.19576)
(15.9209 0.469921 0.0598212)
(18.4386 -0.0913877 0.02141)
(16.8094 0.0737157 0.00292411)
(17.4385 -0.190437 -0.00212384)
(18.4447 0.0599985 0.00226331)
(28.3115 -39.2656 -63.8268)
(-96.4336 -27.3038 9.28187)
(66.6619 -2.15486 -9.24346)
(-87.3844 5.56464 -7.45162)
(32.742 2.9219 -18.0571)
(-23.5082 10.1334 -10.6608)
(32.355 -3.54076 -13.3361)
(-0.409666 6.00576 -6.35768)
(26.6094 -2.61596 -3.86881)
(5.2996 6.41159 -1.41392)
(21.6221 1.85765 0.168205)
(10.9822 7.82351 0.54157)
(21.16 2.76024 0.568151)
(14.8851 4.3298 0.255988)
(19.9117 0.923169 0.0912595)
(16.2559 1.80388 0.034414)
(18.7183 0.114651 0.0125253)
(17.0223 0.815083 0.00317488)
(17.6839 -0.169161 -0.00567931)
(18.6153 0.508963 0.000924478)
(47.4663 -33.1984 111.667)
(-125.988 -46.9314 -27.2694)
(15.1496 -16.2972 -2.77632)
(-146.824 28.5424 -3.98756)
(21.2088 7.62643 -5.96473)
(-79.663 10.7126 -4.20246)
(25.3592 6.15234 -9.12268)
(-24.4332 8.18995 -1.25444)
(20.1437 2.85481 -0.99191)
(-6.03251 6.97134 -0.257004)
(16.3972 2.77348 -0.0346852)
(5.34181 4.80043 0.11252)
(17.3061 1.6257 0.117507)
(12.6855 2.27519 0.0481056)
(17.4668 0.101394 0.0237249)
(15.2547 0.833526 0.00708959)
(17.5134 -0.387946 0.00256438)
(16.6163 0.338046 0.00101155)
(17.2124 -0.387624 -0.0101424)
(18.5034 0.32496 0.00236068)
(154.325 6.21613 213.736)
(-51.9277 -92.2315 10.1228)
(35.1024 -58.517 16.5782)
(-150.06 -13.3166 -8.73927)
(38.8284 -27.2443 -12.5068)
(-76.6298 11.7403 -1.76926)
(33.0458 -11.9608 -3.32054)
(-12.2244 15.1774 0.556428)
(23.7367 -12.4475 0.141346)
(1.13662 10.3581 0.273277)
(18.4114 -7.435 0.146061)
(8.06296 6.20752 0.105329)
(18.496 -3.44689 0.0710203)
(12.7788 3.30117 0.0321602)
(18.3717 -1.5299 0.0109343)
(15.5794 1.28546 0.00287144)
(18.1567 -0.954389 -0.00180676)
(16.9891 0.500326 0.00275348)
(17.6649 -0.686483 -0.0121095)
(18.7932 0.455395 -0.000284021)
(194.475 -212.683 -87.5432)
(131.395 -127.266 13.6955)
(84.3541 -50.0756 31.9866)
(-136.919 -20.1214 -5.58289)
(34.3415 -12.5994 -10.7261)
(-92.9031 9.47371 -2.90526)
(32.7748 -41.7053 -1.70371)
(-26.0694 13.0182 2.36354)
(10.7306 -8.88317 1.19368)
(-3.34178 10.6009 0.541907)
(9.21939 -1.50542 0.185467)
(7.7383 3.2269 0.0982258)
(13.5974 -1.62516 0.0249668)
(14.1528 0.821494 0.0295708)
(15.278 -2.06266 0.00659252)
(15.765 -0.0602152 0.00411065)
(16.7304 -1.46307 0.00191257)
(16.9506 0.0396483 0.00266171)
(17.2504 -0.816782 -0.0108799)
(18.8554 0.41256 -0.00112191)
(150.171 30.6577 -78.7561)
(22.4535 19.4369 -17.3095)
(60.4828 39.2014 5.05522)
(-112.301 -38.9545 -21.5098)
(49.6627 -4.08215 -15.1688)
(-58.4238 7.47498 -7.02495)
(13.0605 -65.9776 -8.85752)
(-54.5209 32.1125 1.9134)
(-13.6974 -33.3792 0.587495)
(-18.725 11.7394 0.256992)
(2.31939 -16.6215 0.115136)
(1.24075 3.45192 0.0226637)
(14.086 -9.07105 -0.000288932)
(10.5761 1.63941 0.00279078)
(16.9272 -3.97004 0.00807126)
(15.7298 -1.03188 0.00124526)
(18.0813 -2.48366 0.00560602)
(17.4958 -0.715107 0.00329802)
(17.9852 -1.25459 -0.0106426)
(19.293 0.0884706 -0.00266926)
(99.2191 -21.887 59.4546)
(-163.513 -7.80435 54.9334)
(106.755 28.5164 -1.70994)
(-85.6448 -42.5379 -14.434)
(61.2705 -32.6408 -1.38949)
(-56.575 36.7474 0.0370715)
(5.11069 -21.6939 -5.31381)
(-46.207 38.9257 2.81493)
(-17.892 -23.4955 1.33449)
(-22.3616 -9.20602 -0.0951246)
(4.78957 -5.55052 0.0824538)
(4.60189 -10.1341 -0.0907966)
(13.7689 -1.51346 0.0809051)
(11.7021 -2.9136 -0.0187242)
(14.2358 -7.20692 0.0179943)
(18.498 -3.00144 -7.35424e-05)
(17.4518 -2.98385 0.00203851)
(18.2553 -0.820449 -0.000264726)
(18.1083 -1.15081 -0.0081363)
(19.7137 0.314226 -0.00204658)
(303.884 345.717 40.5507)
(-41.2707 29.7256 17.0389)
(126.708 21.8168 15.5983)
(-33.1681 -33.3955 8.67989)
(26.0897 -52.4603 4.69442)
(-30.9112 25.1285 9.61788)
(0.475098 18.123 -0.847524)
(-17.6708 10.7079 0.949716)
(30.4047 -10.7613 -0.701594)
(15.261 -19.6924 0.318191)
(15.633 -7.36828 -0.105427)
(11.8976 -6.44931 -0.043347)
(14.9994 -0.950239 0.0366446)
(14.8664 -1.11746 0.0136807)
(16.7891 -1.57113 0.00898114)
(16.4916 -4.24357 -0.0119447)
(18.2219 -2.96185 0.0147148)
(17.6008 -1.88274 -0.00178505)
(18.1648 -1.40183 -0.00911942)
(19.9587 -0.236854 -0.00567613)
(260.548 205.284 41.957)
(-161.751 68.53 42.1512)
(137.477 3.88285 37.6201)
(-20.7357 -7.05412 19.2831)
(58.5871 -22.3131 7.32281)
(11.6852 -14.6635 8.83298)
(41.9847 -10.4451 12.5937)
(42.9675 -19.4692 13.2281)
(26.3398 -14.0744 4.33623)
(19.8289 -16.4391 0.692565)
(18.3298 -13.1726 0.117263)
(17.2155 -10.1701 0.0613264)
(16.9715 -7.73042 0.0190724)
(17.3578 -6.08741 0.00502216)
(18.8173 -4.19896 -0.00673851)
(18.599 -3.29013 -0.0137248)
(19.074 -3.52285 0.0137759)
(18.9682 -2.00136 0.00470316)
(19.1649 -1.8593 -0.00137877)
(20.7893 -0.567943 -0.00203513)
(166.737 4.87574 -44.537)
(151.905 30.8703 2.67257)
(197.255 23.6799 24.873)
(84.5458 -13.4622 10.0272)
(84.708 -15.0472 16.9625)
(32.6804 -16.2037 11.1467)
(27.3373 -24.3133 10.975)
(26.8381 -26.4681 5.32973)
(28.4207 -19.6739 3.8052)
(24.8079 -16.5478 0.837686)
(23.1786 -12.1248 -0.623627)
(20.1959 -9.55309 -0.169433)
(20.1062 -8.49689 -0.0225993)
(20.0177 -7.36868 -0.188632)
(20.7307 -5.63469 -0.0395484)
(19.6225 -5.28438 0.00454636)
(19.9846 -3.22299 0.0187937)
(19.7616 -2.76956 0.00110829)
(19.8629 -1.61753 0.0014128)
(21.4819 -0.799864 -0.00368301)
(311.224 -366.904 -15.2617)
(-207.799 -7.40854 45.9447)
(145.42 35.0632 21.7335)
(-9.05464 25.0706 17.8554)
(60.2656 39.9322 26.2408)
(-25.2282 -28.3205 14.586)
(20.988 -39.4673 -0.205227)
(24.352 -20.9344 -8.12621)
(25.6824 -15.1829 -3.50549)
(25.1783 -9.58159 -2.48213)
(22.5919 -6.34415 -0.308457)
(19.9746 -7.8365 0.0311827)
(20.1192 -8.75111 0.0507122)
(20.0626 -8.15564 0.0340853)
(22.6892 -6.68071 -0.00161226)
(19.7062 -3.75458 -0.00431045)
(21.3415 -3.38346 0.00947134)
(20.3172 -2.54042 -0.000759134)
(20.7887 -1.87413 -0.00743594)
(22.3399 -1.02499 0.000882812)
(38.4293 -219.245 0.263728)
(-133.868 -15.6862 19.9984)
(80.037 -2.66578 30.7139)
(-70.3909 2.39355 -1.1206)
(85.7609 34.9327 2.20722)
(-38.1547 -53.6924 -3.54783)
(38.0239 7.22784 -4.72455)
(5.26529 1.16654 -5.70264)
(23.8702 -6.66582 -1.30528)
(5.93234 -8.68405 -0.137883)
(21.2719 -10.4829 -0.101825)
(15.18 -10.5059 0.140201)
(24.163 -9.07504 0.113277)
(18.851 -8.92567 0.0512066)
(20.3004 -3.5293 0.0532776)
(23.4451 -4.71101 0.0011663)
(22.1642 -3.23192 0.00890764)
(22.288 -3.20452 -9.04288e-06)
(22.2483 -1.73285 -0.00716795)
(23.4672 -1.25963 0.0122488)
(169.943 -296.517 -55.2716)
(-151.98 -38.9987 -37.9488)
(104.181 -13.9602 27.2628)
(-53.9837 -10.2319 -3.43704)
(92.2236 11.6964 -0.236524)
(27.5747 -10.3687 -10.4895)
(55.9731 35.5557 -6.96789)
(28.4078 -21.6644 -6.07593)
(35.8165 10.29 -4.76375)
(24.614 -22.1513 -3.47459)
(29.4362 -4.78427 0.505439)
(22.8134 -18.9934 1.03978)
(27.7162 -4.15515 1.0967)
(23.1696 -11.156 0.377045)
(25.2644 -3.10791 0.154648)
(23.9622 -5.21405 0.041866)
(24.7567 -2.43368 0.0240229)
(23.2325 -2.96591 0.00823833)
(23.5876 -1.33166 -0.00609093)
(24.3431 -1.04005 0.0204424)
(-26.913 -83.4923 -60.8529)
(-150.096 -18.4447 -41.23)
(84.6528 -28.6444 21.7681)
(-18.6486 -18.8155 -5.96813)
(87.3032 1.77799 -6.56241)
(19.2243 -21.4967 -6.66357)
(78.5624 7.13904 -1.14757)
(45.3636 -19.5529 -4.75771)
(62.2008 -9.11189 -0.10656)
(43.1048 -22.0347 0.565988)
(43.1958 -11.4365 4.82627)
(30.3618 -15.6797 3.7629)
(30.5608 -6.61513 1.90019)
(26.3214 -9.7012 0.759744)
(26.8209 -3.39152 0.145285)
(24.8063 -4.87203 0.0445517)
(25.2626 -2.18507 -0.00605162)
(23.908 -2.82357 0.00551469)
(24.2628 -1.01855 -0.00716866)
(24.8699 -1.012 0.0243242)
(172.319 -72.6755 -1.07557)
(-68.529 -86.6557 -61.2813)
(121.376 -78.853 -20.7575)
(8.73486 -46.8329 -11.3129)
(98.4857 -23.0249 5.29868)
(50.366 -19.0229 -3.40117)
(95.2668 4.67699 5.87784)
(74.4125 -10.4914 5.39549)
(85.2916 4.21477 9.45948)
(60.6133 -12.8458 7.83712)
(55.5686 2.00948 8.00999)
(34.1303 -9.2257 4.13558)
(35.4395 0.98634 2.06974)
(26.5815 -6.65011 0.864907)
(30.2382 -0.898455 0.283039)
(25.1817 -3.99723 0.0525613)
(26.8504 -1.18685 0.0282281)
(24.403 -2.38317 0.00560111)
(25.3515 -0.62238 -0.00588058)
(25.6279 -0.866901 0.00658556)
(337.009 -83.694 -281.235)
(157.178 13.6096 -22.1098)
(135.721 12.0537 20.8332)
(1.15118 -8.1087 -3.8591)
(95.3003 1.27476 9.2637)
(14.5553 -22.8626 4.27912)
(77.5919 -0.524277 15.8753)
(23.8356 -19.9451 10.7324)
(57.6541 1.53227 12.934)
(20.2792 -7.29072 6.40352)
(39.8388 7.1827 4.47359)
(20.6516 -2.95994 1.95915)
(32.3507 2.88866 0.818746)
(23.3621 -3.12563 0.296341)
(29.4858 -0.0480065 0.0596361)
(24.4304 -2.71017 0.0112394)
(26.9137 -0.766162 0.00745354)
(24.4065 -1.76599 0.00139925)
(25.5903 -0.403297 -0.00705636)
(25.8255 -0.722302 0.00628855)
(268.494 164.288 25.1106)
(-13.37 122.437 63.656)
(121.792 62.2235 48.9614)
(-88.2659 18.4725 8.28978)
(101.263 -8.85919 3.58942)
(4.25 -9.99691 4.42507)
(67.1857 -0.467876 6.80608)
(11.8249 -7.36895 4.06335)
(46.8791 8.0664 3.07378)
(13.3568 -4.74852 1.27406)
(37.6853 5.93676 1.10171)
(19.4798 -3.39472 0.532251)
(33.3075 2.44644 0.281631)
(23.0057 -2.8057 0.112114)
(30.722 0.311797 0.0425613)
(24.4859 -2.14945 -0.00305018)
(27.8736 -0.31132 0.0067434)
(24.7277 -1.35645 -8.91443e-05)
(26.2903 -0.121168 -0.00534661)
(26.3944 -0.555675 0.00776598)
(-63.1795 65.476 16.6186)
(-137.97 62.8081 16.2396)
(-1.76009 16.4629 18.2306)
(-96.8929 29.3522 -1.88554)
(68.4893 -5.46073 -3.05329)
(-38.8144 9.08115 4.04151)
(57.2836 18.4104 -1.0699)
(-14.6073 1.27351 0.23557)
(44.1981 11.9502 -0.76862)
(3.20483 0.643242 -0.142855)
(37.0859 6.64688 -0.137792)
(14.7395 0.227629 0.0187687)
(32.5825 2.74326 -0.0275504)
(20.9012 -0.472725 -0.0131231)
(30.1538 0.671002 -0.011098)
(23.786 -0.781797 0.00136333)
(27.7864 -0.0309606 0.0022489)
(24.5869 -0.616293 0.000598411)
(26.3881 -0.0629353 -0.00662707)
(26.4748 -0.290362 0.00943774)
(81.0127 -64.208 -101.897)
(3.00714 60.8763 -17.1883)
(172.314 39.4096 27.2381)
(47.1999 -21.2236 41.5607)
(74.9207 -25.6673 50.9516)
(-27.8434 -11.5048 12.7446)
(58.5599 -7.41176 3.38479)
(-8.67061 -4.58078 0.877242)
(44.7316 -3.30021 -0.249551)
(5.87647 -2.5065 0.0994659)
(37.4516 -1.05886 -0.014923)
(15.4286 -1.68875 0.0403327)
(32.9031 -0.368494 0.0261597)
(20.9171 -1.17644 -0.0101363)
(30.434 -0.225185 0.00303615)
(23.6788 -0.732909 -0.00671203)
(27.9388 -0.147635 -0.00397337)
(24.4942 -0.388706 0.00105896)
(26.4192 0.0173792 -0.0036886)
(26.493 -0.120068 0.0116815)
(219.957 -28.958 102.354)
(10.6681 -31.4046 -15.0245)
(93.1943 -34.9319 -0.393091)
(14.9246 -10.3364 -22.4663)
(58.8106 17.9837 -33.7047)
(20.7654 16.1414 -22.4126)
(46.888 22.0703 -15.3168)
(28.2423 7.58699 -5.20711)
(45.4032 10.2575 -0.746244)
(28.086 7.5118 0.796561)
(33.2037 11.1433 6.93513)
(18.5399 8.87579 7.20287)
(25.2776 6.57287 6.22467)
(18.0798 3.86327 2.34556)
(21.3325 1.68162 0.623502)
(16.6978 1.2923 0.252789)
(18.9464 0.469093 0.0644619)
(16.9642 0.545956 0.0174322)
(17.5515 0.144014 0.00219901)
(18.4206 0.288164 0.000398289)
(97.6499 95.5122 -34.5714)
(-79.4712 -43.4255 -41.0101)
(14.1354 3.41427 25.5594)
(-151.358 -14.7578 -0.546415)
(22.4166 -11.6159 -2.22193)
(-63.0087 -13.5904 -3.63621)
(23.7341 -11.5422 -9.49215)
(-26.82 -7.14627 -6.51858)
(22.7611 -1.70875 -8.72382)
(-5.08641 2.8124 -5.5886)
(19.0491 4.41674 -1.62321)
(6.79411 5.25527 1.04219)
(20.643 3.49599 1.39028)
(14.075 2.10392 0.527244)
(19.6266 0.474104 0.21477)
(15.891 0.435306 0.0716827)
(18.4281 -0.0988865 0.0273538)
(16.8049 0.0717197 0.00464999)
(17.439 -0.191461 -0.00100366)
(18.4448 0.0600468 -8.60856e-05)
(80.2039 16.431 -138.647)
(-188.234 -61.1173 -2.50623)
(83.0606 -29.8377 16.1811)
(-28.69 -27.0271 -3.27761)
(49.3434 -20.6266 -17.0833)
(-6.31599 -2.14052 -12.6706)
(34.1853 -9.09462 -17.2755)
(0.0703606 2.6109 -7.07112)
(26.0229 -3.13726 -3.93522)
(4.58647 7.29343 -1.2339)
(21.1484 2.65567 0.214827)
(10.6525 7.77597 0.605728)
(20.9888 2.53192 0.602897)
(14.7487 4.22534 0.284846)
(19.8586 0.882526 0.112434)
(16.2356 1.78891 0.0446434)
(18.7106 0.108798 0.0167187)
(17.0182 0.814625 0.00390922)
(17.6841 -0.171364 -0.00343567)
(18.6155 0.509347 -0.000249246)
(267.692 13.5656 29.5363)
(-91.3033 -61.2209 42.2922)
(65.2806 -48.2143 49.1003)
(-122.233 5.85625 -0.805746)
(26.059 -5.2661 -2.51293)
(-63.7266 2.27295 -7.94062)
(21.8182 2.94357 -16.9347)
(-30.2504 5.62323 -2.52858)
(18.5691 0.869666 -1.93297)
(-6.7522 6.15198 -0.258048)
(16.269 2.32727 0.043702)
(5.31728 4.5359 0.215564)
(17.2948 1.45922 0.213047)
(12.6618 2.20776 0.0830025)
(17.4587 0.0778744 0.0430371)
(15.2503 0.824948 0.0140152)
(17.5128 -0.39223 0.00571268)
(16.6135 0.338448 0.00145413)
(17.2129 -0.389412 -0.00600785)
(18.5046 0.325254 -4.07561e-05)
(325.274 -9.70156 306.686)
(-108.936 -52.7659 91.923)
(87.9858 -49.1811 69.4704)
(-117.7 -30.1805 12.7147)
(29.5602 -37.3913 -10.0481)
(-75.4617 0.703067 -2.59743)
(31.8966 -21.3365 -4.4491)
(-13.3083 9.7781 0.304923)
(22.9524 -15.1967 -0.407338)
(0.748712 9.36138 0.184256)
(18.2777 -7.86455 0.0412926)
(7.9908 6.0347 0.0867539)
(18.4672 -3.53029 0.0506769)
(12.7585 3.27456 0.0279161)
(18.3629 -1.54198 0.00988965)
(15.5745 1.28219 0.00247995)
(18.1568 -0.955433 0.000398294)
(16.9872 0.500314 0.00144898)
(17.6649 -0.686199 -0.00756891)
(18.7946 0.454991 -0.000952931)
(109.592 -312.455 -241.247)
(-117.889 -65.9902 -8.09152)
(50.3903 -36.986 65.6439)
(-142.337 -33.7929 5.24651)
(29.0684 -15.4357 -22.7383)
(-98.9659 0.285848 -3.4585)
(31.9438 -44.739 -2.9141)
(-29.3219 9.71438 1.409)
(9.58304 -10.3686 1.21596)
(-3.95961 10.0765 0.695746)
(9.01603 -1.67309 0.237134)
(7.66047 3.17348 0.14647)
(13.5686 -1.64023 0.0507928)
(14.1384 0.818548 0.0338859)
(15.2717 -2.06232 0.00941395)
(15.7643 -0.0591972 0.00486666)
(16.7309 -1.46167 0.00329755)
(16.9487 0.0391333 0.00197615)
(17.2505 -0.816768 -0.00714556)
(18.8572 0.411735 -0.00138416)
(548.517 305.121 -2.25367)
(9.95352 6.25137 -22.1033)
(106.358 11.3696 30.4614)
(-103.268 -62.6207 -17.2483)
(58.2728 -17.1852 -22.6283)
(-47.9926 1.739 -10.0885)
(11.1948 -65.6015 -13.0812)
(-55.8055 32.4205 -0.00364191)
(-14.0713 -33.9189 -0.330587)
(-19.2119 11.8694 0.432765)
(2.21377 -16.6557 0.145205)
(1.15574 3.46689 0.0789889)
(14.0588 -9.06825 0.0357142)
(10.5584 1.6388 0.0168885)
(16.9193 -3.97743 0.0107544)
(15.7253 -1.03676 0.0036306)
(18.079 -2.48581 0.00493735)
(17.4908 -0.716004 0.00234461)
(17.9827 -1.25383 -0.00748771)
(19.2931 0.0881213 -0.00279334)
(252.676 345.345 18.8123)
(-130.562 69.9517 71.5488)
(118.122 6.0871 4.39176)
(-129.007 -71.576 5.52378)
(69.8956 -51.2628 10.4353)
(-58.1144 30.4577 -4.49052)
(-6.08682 -33.763 -6.2251)
(-47.2608 39.4858 1.87204)
(-16.2639 -24.2883 0.836661)
(-22.2956 -8.97196 -0.0459465)
(4.77991 -5.5112 0.0647474)
(4.57891 -10.1055 -0.0318542)
(13.7604 -1.50093 0.0404745)
(11.6819 -2.91051 0.00188552)
(14.2269 -7.19889 0.0028571)
(18.5014 -2.99939 -0.00153112)
(17.4553 -2.98677 0.000177282)
(18.256 -0.821152 0.000134296)
(18.1095 -1.14855 -0.00553595)
(19.7158 0.314022 -0.00253489)
(150.102 360.206 163.809)
(-155.637 -6.40088 7.67075)
(91.96 -34.8336 -1.19266)
(-80.234 -57.6106 11.5168)
(13.0047 -58.133 8.36348)
(-45.117 28.1788 11.7209)
(-21.4698 2.20469 -7.57096)
(-12.0964 -3.70986 3.91015)
(24.714 -20.8715 1.7387)
(14.3093 -19.2236 0.987902)
(16.0959 -7.37978 -0.165064)
(11.9298 -6.42281 -0.00827409)
(15.0097 -0.929943 0.0280846)
(14.8676 -1.10874 0.0244151)
(16.7933 -1.54852 0.0182876)
(16.4735 -4.24227 0.0057354)
(18.2141 -2.96091 0.00209692)
(17.6021 -1.88227 -0.00242817)
(18.1665 -1.40014 -0.00487144)
(19.9598 -0.236749 -0.00338743)
(123.786 -104.529 -45.2272)
(-124.209 31.9578 5.12065)
(119.724 -5.88303 -31.5572)
(-3.24679 4.46205 4.44528)
(39.9712 -16.1832 12.6982)
(-46.357 1.14467 12.066)
(27.2576 -6.2835 13.3168)
(21.7512 -25.3753 11.6046)
(18.7819 -18.0368 6.12539)
(19.0467 -16.5317 1.10047)
(18.395 -12.7792 0.284984)
(17.4572 -9.92773 0.235311)
(17.1674 -7.50967 0.122297)
(17.5191 -6.00891 0.135341)
(18.8926 -4.17847 0.0438263)
(18.5746 -3.30451 0.00499445)
(19.0621 -3.53167 0.00126035)
(18.9657 -2.00524 -0.00172815)
(19.1656 -1.85994 -0.00270921)
(20.7908 -0.567654 -0.00217071)
(239.047 -51.7123 78.8556)
(141.455 2.71811 10.1117)
(148.122 4.49486 26.621)
(-5.03019 -17.2365 -0.230449)
(47.6272 -5.74658 17.0768)
(-35.0827 -19.6827 19.0189)
(6.85638 -21.1241 14.5318)
(20.0811 -16.0819 4.45357)
(22.905 -14.5455 2.26406)
(24.0767 -17.8442 -2.55446)
(23.2525 -13.2543 -1.35919)
(20.4859 -10.0772 0.573038)
(19.9014 -7.93321 -0.143968)
(19.9974 -6.59786 -0.245701)
(20.7829 -5.65344 0.053104)
(19.6059 -5.27946 0.0127686)
(19.9825 -3.2183 0.00511331)
(19.7657 -2.7667 -0.00145771)
(19.867 -1.61682 -0.000122888)
(21.4831 -0.798631 -0.00210963)
(174.927 -69.3261 -256.949)
(-5.8087 -59.7064 36.3929)
(116.318 17.9069 5.29268)
(-54.1703 26.6982 8.7974)
(48.7155 43.5153 18.0343)
(-40.9285 -31.4372 8.35232)
(17.1473 -30.67 -4.79438)
(23.4762 -18.937 -9.85647)
(28.9568 -9.51632 -5.77956)
(29.5887 -8.10119 -2.27107)
(23.3987 -6.50065 0.018759)
(19.9306 -7.83767 0.0563971)
(20.1442 -8.73764 0.0489022)
(20.071 -8.13584 0.0404197)
(22.6903 -6.69797 0.0195956)
(19.6915 -3.76729 0.00792956)