/*--------------------------------*- C++ -*----------------------------------*\
  =========                 |
  \\      /  F ield         | OpenFOAM: The Open Source CFD Toolbox
   \\    /   O peration     | Website:  https://openfoam.org
    \\  /    A nd           | Version:  10
     \\/     M anipulation  |
\*---------------------------------------------------------------------------*/
FoamFile
{
    format      ascii;
    class       volScalarField;
    location    "1.8";
    object      k;
}
// * * * * * * * * * * * * * * * * * * * * * * * * * * * * * * * * * * * * * //

dimensions      [0 2 -2 0 0 0 0];

internalField   nonuniform List<scalar> 
12920
(
0.141464
99.9934
692.63
849.863
794.855
717.615
618.25
501.877
369.838
254.394
166.094
115.845
92.8526
81.05
70.9501
61.9473
58.3615
58.3012
60.3514
63.8245
372.741
986.877
1181.43
824.762
670.199
515.378
420.263
341.094
266.294
213.899
178.211
158.085
143.158
132.416
124.806
114.577
104.229
93.0012
86.3349
69.7855
1697.47
1718.33
1563.37
1188.65
890.985
613.867
413.038
313.63
248.477
210.738
177.494
156.654
142.282
131.847
123.1
107.526
93.1278
77.7564
69.2753
52.8883
4743.8
3778.73
2230.98
1437.55
968.011
644.483
409.898
290.337
216.84
172.401
128.355
96.4806
78.2725
74.6288
73.8037
71.5343
63.887
50.3874
41.9792
24.7687
1813.13
2846.39
2334.97
1409.89
1096.9
795.217
516.116
353.184
254.069
184.828
125.838
77.4403
43.6354
28.7133
25.2288
23.8512
20.5611
14.5516
8.99892
4.1531
4096.73
4263.89
2925.94
1498.89
1055.19
839.218
593.108
426.262
304.111
221.78
144.846
77.8851
32.2905
13.3091
7.12211
4.8173
3.22593
1.89042
0.945513
0.314058
3005.05
5262.5
4034.02
2212.93
1445.7
993.66
669.372
439.264
276.7
170.097
80.0871
26.8813
13.4135
13.5886
14.5184
13.0946
10.2087
7.33257
4.75378
1.7815
2743.39
3520.66
2743.22
2125.3
1577.1
1197.86
721.16
410.138
284.148
182.149
87.7679
25.4124
14.6686
26.2899
81.0231
67.4863
45.6867
29.3874
18.479
7.59041
6020.85
3124.07
2473.78
1860.97
1528.66
981.801
690.621
357.477
300.337
179.436
100.358
53.7653
32.0488
30.8302
94.9381
155.83
108.182
61.7289
35.2831
14.5393
5173.05
3595.58
1972.28
1198.9
1070.56
784.33
492.342
313.022
314.212
112.329
91.373
103.183
105.473
102.173
109.709
169.615
145.807
81.5045
44.2519
18.6762
8100.68
3877.14
2258.93
1241.73
792.764
467.636
338.355
241.017
219.273
88.5945
82.9101
75.4053
63.8608
57.6871
96.5425
174.75
135.319
76.4244
45.4909
20.79
1966.49
1728.64
1613.31
1270.58
719.282
293.938
165.733
97.3645
66.2736
70.1978
103.134
117.39
105.62
120.298
221.187
213.569
132.669
72.5662
46.6982
23.1473
5111.03
3057.95
1478.48
1129.75
819.375
666.578
360.26
233.25
217.661
211.433
183.705
152.522
133.881
125.819
123.331
112.821
84.6262
57.1129
48.6041
36.9447
2597.58
2601.74
1360.75
871.451
697.215
565.64
487.723
410.933
356.104
290.495
236.401
179.442
136.487
101.225
77.3877
63.2941
54.0647
49.8666
49.0927
45.9717
3537.26
1561.05
1246.58
736.478
618.419
480.643
428.119
361.385
296.582
239.351
185.324
140.519
107.154
85.0362
68.5616
59.2591
57.064
58.8558
61.8045
57.8041
2167.46
2032.53
1565.02
909.001
671.365
554.516
417.924
365.543
288.095
242.284
186.615
146.841
114.948
92.8484
75.5894
58.4159
43.678
30.4222
26.56
25.5463
2344.96
5518.34
2798.3
1231.78
788.691
591.826
416.694
342.707
265.057
222.495
180.024
151.418
121.046
92.486
64.7407
41.633
25.8015
16.2001
12.5548
12.5419
2226.73
4476.46
2554.58
1716.67
1085.84
819.974
586.94
481.408
343.942
257.026
195.25
163.281
141.388
124.029
103.846
83.8656
68.1126
52.4713
43.0475
27.0578
16.8314
1269.95
1590.9
1189.48
618.975
408.176
318.193
305.242
265.542
219.487
176.019
146.839
122.971
100.387
80.3339
63.8215
54.2832
44.8309
37.9571
22.0684
160.118
534.766
611.1
572.87
486.022
314.994
185.205
139.164
131.95
131.66
128.725
117.384
100.541
85.4511
72.1578
58.6443
43.5738
27.4545
15.6012
6.17198
100.819
1005.76
1967.6
1926.4
1704.63
1481.15
1306.88
1081.04
821.917
574.123
386.764
272.733
210.884
176.418
156.958
145.935
140.742
133.365
128.926
114.677
668.14
3146.3
3431.33
2004.21
1749.37
1216.13
965.908
807.855
647.949
542.963
455.033
409.698
373.576
350.937
329.876
301.961
266.297
229.504
178.366
125.176
229.903
1996.26
2876.81
2774.02
2220.37
1546.08
1018.82
789.724
622.04
539.845
458.615
414.578
377.785
350.446
321.116
276.124
220.256
164.57
120.461
71.1289
7095.36
5084.85
2933.56
2436.94
1944.54
1523.86
1001.84
734.583
543.179
435.371
321.241
261.584
229.173
218.173
203.467
172.104
129.963
85.5329
50.0622
20.8979
4766.74
5309.04
4299.56
3049.57
2506.61
1851.82
1202.58
864.528
606.996
435.236
260.966
152.076
87.3319
61.4044
51.3728
40.8773
27.6185
14.895
6.85991
2.20782
14977.5
10293.4
3882.24
2700.6
2244.86
2024.85
1382.33
1039.84
707.042
487.971
263.12
122.928
48.4516
19.8763
9.67378
5.90768
3.85271
2.25472
1.06322
0.300219
7739.17
9888.24
5139.48
3250.84
2106.26
1931.81
1549.18
1093.22
652.444
340.444
142.415
48.581
27.2541
22.1974
22.8572
22.6982
21.9217
16.4903
9.03179
2.91124
14157.2
8578.13
5783.82
4290.48
2927.48
2373.37
1895.17
1420.86
922.311
554.887
235.267
89.3441
62.4208
83.0158
140.89
124.665
96.902
62.9157
36.5536
13.5296
8355.75
7641.41
5724.96
4089.47
3252.79
2629.06
2048.61
1766.64
1403.32
821.378
481.832
308.166
236.376
215.587
269.935
320.277
243.237
150.607
86.352
33.526
15291.6
7944.74
4658.09
3059.85
2672.28
2453.95
2154.89
1916.95
1564.54
827.497
575.396
536.324
508.417
465.753
374.99
414.105
362.117
217.559
123.863
52.1268
12961.6
5768.91
3672.24
2801.69
1789.05
1602.3
1534.77
1501.49
1160.49
669.571
528.806
451.179
368.959
330.703
352.956
384.137
328.221
225.16
136.232
58.7355
5903.15
5537.9
4157.01
2970.95
1552.02
1147.97
1001.14
797.522
601.945
571.348
617.026
587.393
521.217
512.89
534.576
436.616
310.544
187.767
115.627
54.8322
5149.48
4077.24
3955.27
2591.66
1841.85
1554.41
1197.34
979.795
857.119
763.807
636.321
535.527
474.499
440.895
318.703
279.848
199.571
133.304
104.017
61.8931
4576.74
5206.57
3457.56
2058.16
1657.01
1436.22
1238.75
1040.78
856.365
698.942
555.281
430.372
335.528
252.761
183.526
137.074
116.988
109.403
105.718
88.7695
4727.69
3914.42
3599.11
1768.4
1623.24
1206.08
1124.65
913.238
725.355
588.497
446.953
350.687
275.058
226.606
189.551
175.263
177.097
182.323
180.434
145.272
3242.57
5660.85
3427.58
2340.17
1652.76
1342.46
1021.42
875.267
671.497
569.812
440.195
359.713
284.328
228.99
189.982
150.57
122.048
84.2548
73.4785
51.8791
22850.8
18329.6
7220.77
3265.81
1876.5
1410.44
1007.58
867.397
634.159
534.418
406.358
326.138
240.07
166.364
104.802
61.4447
34.5988
19.1856
13.3902
12.5024
10059.8
13874.3
7336.28
4262.95
2309.49
1745.85
1263.3
1165.94
820.133
622.213
460.43
391.939
320.767
272.437
217.69
166.299
121.545
83.166
59.3144
32.2459
241.22
4031.93
4483.31
2549.21
1203.17
887.432
729.847
722.016
616.744
519.153
400.529
333.979
263.454
210.457
157.309
115.929
85.0265
59.7306
42.0457
19.8934
161.396
835.397
995.616
917.897
772.228
533.932
356.506
298.78
276.571
272.151
256.48
228.55
200.562
173.647
140.908
102.626
65.5835
36.2146
17.8626
6.09722
396.597
873.428
2253.5
2368.7
2115.89
1729.93
1469.95
1199.48
910.29
633.996
429.995
308.142
243.716
207.225
185.931
170.597
161.956
149.458
140.898
115.79
2781.66
6125.64
4504.12
2976.13
2525.45
1765.69
1369.84
1128.32
884.035
749.941
630.437
574.235
524.526
491.288
454.663
408.615
347.712
279.732
190.484
120.02
885.238
2776.3
3866.68
3816.85
3074.09
2090.22
1396.81
1087.61
862.578
749.875
642.39
586.615
533.882
489.834
433.714
358.798
263.736
163.212
79.4071
37.3205
11738.6
5282.39
3889.56
3380.69
2859.12
2062.44
1358.32
1009.58
761.212
622.252
485.137
420.581
373.613
338.1
280.739
203.604
123.874
60.5038
26.1581
8.85145
3335.14
6307.28
5421.59
4124.3
3274.29
2312.32
1509.39
1086.93
769.978
560.626
363.159
252.788
175.03
125.318
82.9319
48.3343
23.9449
9.67102
3.38767
0.993037
22050.8
9535.83
4552.42
3877.72
3082.72
2419.88
1637.96
1221.31
834.242
569.093
316.728
176.957
86.2751
40.1088
16.2538
6.67458
3.4198
2.17589
1.19786
0.379878
19074
9528.84
5150.64
4258.19
3213.34
2836.99
2037.67
1359.89
808.411
432.112
200.395
87.8745
47.9501
25.5609
20.0944
19.7292
21.6201
20.1125
13.8805
5.73255
11083.2
9113.25
6926.59
4945.25
3778.81
3288.66
2667.73
1843.72
1130.78
634.252
288.602
150.353
98.557
101.34
140.073
132.032
122.331
94.7031
64.1313
30.8131
12307.4
9870.65
6896.76
4907.45
3974.18
3433.35
2928.23
2405.24
1612.61
991.006
630.776
441.755
363.407
339.577
370.177
385.604
302.91
222.305
157.498
79.8686
12608.1
8707.54
5983.19
4031.81
3540.74
3257.37
2945.63
2495.27
1785.5
1122.35
870.79
751.399
683.196
616.322
587.735
652.792
528.125
352.499
240.274
123.531
16319.1
6595.83
5042.28
3447.92
2712.75
2444.53
2298.13
2010.83
1527.47
1147.03
718.229
533.64
474.068
524.194
607.333
673.53
611.074
435.027
278.302
136.048
27760.8
9521.67
5407.82
3433.27
2272.25
1876.83
1749.83
1414.04
1172.12
1058.22
957.655
812.445
697.624
652.808
678.883
646.091
529.071
378.82
251.047
121.132
13826.5
5989.28
5055.23
3172.87
2466.78
1965.04
1701.22
1464.81
1199.86
1043.17
842.147
712.416
625.194
569.411
462.462
438.034
379.933
308.211
248.449
132.273
5052.72
7623.71
5099.61
2862.28
2387.43
1874.11
1621.34
1277.2
1049.27
840.362
689.575
574.432
491.052
417.064
354.307
308.549
293.241
273.212
255.258
196.592
7604.07
7667.31
4929.92
2598.93
2187.85
1561.4
1473.61
1136.15
904.013
713.766
582.516
486.728
426.021
378.187
338.497
318.193
308.641
284.852
259.734
184.412
13141.2
7530.56
5019.28
3066.2
2180.69
1620
1295.04
1028.62
793.823
637.642
506.084
408.714
347.489
291.611
262.292
218.823
188.519
138.74
112.402
61.4646
57453.9
26572
9028.41
4070.7
2318.32
1641.2
1228.61
1002.35
735.274
582.958
427.442
316.966
225.411
152.928
105.571
68.7541
46.3031
30.331
21.559
12.0274
41529
23131.2
9255.65
5113.25
2540.26
1897.49
1355.32
1187.71
841.085
684.978
509.355
409.989
302.943
217.775
139.723
85.3556
51.5572
30.6382
23.1915
14.204
3924.51
8416.6
6688.07
2848.54
1366.55
1080.15
914.409
863.477
697.908
583.435
448.317
358.096
265.808
194.322
134.815
92.7326
62.4602
39.466
23.609
8.48889
1505.97
1654.5
1399.36
1128.74
862.171
611.666
464.506
398.194
358.678
325.83
287.408
246.866
208.717
170.51
131.639
92.4833
58.6517
32.0027
15.1114
4.77953
558.684
1788.92
2909.69
2782.11
2272.77
1797.51
1475.6
1151.59
851.605
583.479
401.241
298.032
244.948
213.016
191.772
175.544
168.006
159.257
154.255
138.373
7998.1
8613.79
6071.56
3849.1
3180.12
2115.46
1669.2
1357.13
1101.45
967.356
840.696
776.87
715.762
664.13
611.826
538.309
455.652
363.329
288.404
235.55
13483.2
7740.07
6130.16
5069.54
3773.56
2401.91
1695.73
1322.28
1102.1
968.556
860.76
794.934
730.69
657.653
575.875
464.748
344.707
230.951
156.801
134.281
9118.83
6115.63
5479.54
4453.07
3618.02
2361.1
1630.77
1212.73
971.152
818.342
688.012
622.084
559.85
485.426
386.898
267.879
163.264
89.7795
54.5398
48.7006
5749.3
6360.97
6193.41
5045.51
3959.45
2570.51
1754.77
1245.3
928.967
702.087
514.744
408.34
324.284
244.792
167.305
100.396
59.447
35.547
23.7011
20.7572
22810.2
11637.1
6241.76
4739.33
3792.82
2636.74
1853.37
1336.19
946.279
667.74
416.8
295.787
188.873
118.76
64.714
35.5332
23.9769
20.0309
16.5727
11.1345
43218.2
9910.59
6522.09
4865.75
4211.24
3189.54
2273.5
1453.18
900.763
517.322
292.577
162.651
100.983
55.434
42.2941
39.6607
43.7311
52.3232
54.9844
51.6769
12039.5
11340
8208.83
5655.44
4723.12
3842.19
3023.73
1918.87
1174.56
656.823
355.181
229.193
142.704
122.48
150.01
149.169
151.221
147.834
136.155
118.841
12921.5
12094.5
8109.92
5458.74
4642.02
3946.74
3405.67
2504.22
1576.27
1046.41
704.484
531.217
443.57
420.233
394.106
405.292
331.909
269.791
223.476
181.412
17438.5
9813.81
7085.14
4711.19
4139.38
3690.99
3284.78
2579.89
1775.25
1324.73
1081.13
912.08
814.953
772.45
815.578
793.093
588.603
430.737
326.519
234.763
19049.7
8683.05
5916.39
3982.08
3352.59
2965.33
2683.13
2224.93
1777.1
1503.45
1112.32
817.953
748.978
850.298
957.298
967.286
757.516
528.028
368.974
251.072
19459.7
8671.66
6390.75
3813.58
2875.08
2410.35
2246.07
1849.56
1610.24
1438.98
1233.4
1015.18
874.602
851.167
930.642
853.019
684.635
495.219
342.222
226.896
37564.3
8317.74
5822.75
3656.66
3043.3
2311.74
2057.6
1795.22
1441.14
1234.95
982.599
844.225
739.698
682.62
649.78
633.302
592.308
487.407
371.365
238.338
29630.1
9580.76
5894.6
3442.03
3002.4
2167.04
1934.11
1426.83
1202.46
931.422
809.414
708.562
655.932
614.439
588.39
584.073
579.309
531.912
477.741
347.586
11396.6
10399
6414.6
3342.21
2685.29
1827.51
1762.36
1281.94
1053.27
806.448
712.095
621.906
589.529
554.785
537.049
525.819
516.313
467.56
412.535
268.611
13401.9
9565.79
5977.94
3444.11
2658.68
1803.11
1539.17
1107.11
900.715
679.628
581.867
474.362
438.794
383.127
360.45
311.997
274.307
213.236
173.28
111.584
26170.4
16487.5
8201.63
4180.84
2694.94
1772.49
1439.47
1046.61
800.664
580.792
440.711
324.264
264.246
211.186
183.158
150.159
126.927
103.288
88.3946
65.2773
36463.1
18909.6
8030.06
4499.19
2677.94
1942.77
1497.47
1159.48
879.162
682.773
519.05
401.901
295.714
221.088
167.168
134.787
108.485
87.367
61.1249
45.6026
10518.1
8939.09
5222.33
2610.62
1649
1266.91
1097.24
918.371
744.767
594.684
457.688
353.021
258.939
190.035
138.257
102.448
76.2093
56.346
42.1144
32.7005
889.551
1566.38
1385.57
1239.36
931.973
652.031
501.038
408.376
357.633
307.967
267.348
224.433
186.647
146.479
108.666
73.9087
45.368
24.3243
11.8233
3.97139
674.06
2422.58
3045.5
2819.16
2187.62
1669.05
1248.13
855.967
553.984
379.185
290.153
240.065
211.107
189.891
177.451
169.673
166.376
166.244
172.289
173.739
32655.1
7082.04
7441.7
4528.11
4269.21
2392.48
2205.61
1558.59
1483.97
1234.15
1203.26
1071.51
1025.49
910.564
847.655
731.659
663.164
597.358
576.264
543.743
18290.7
10112.1
9645.6
6493.42
5179.46
2708.21
2289.11
1601.83
1524.6
1263.41
1225.27
1091.49
1037.15
891.39
800.898
662.683
592.971
530.254
516.092
491.656
11948.1
8011.91
7809.73
5517.69
4848.68
2719.2
2178.51
1489.68
1365.28
1091.9
1046.06
924.259
865.194
713.921
610.704
495.433
431.643
380.917
377.61
380.32
7573.06
7921.85
8820.83
6548.97
5385.57
2928.31
2294.77
1476.87
1276.81
926.323
833.349
677.668
619.144
493.736
432.161
359.305
332.461
304.45
295.686
301.863
14731
11581.8
9457.78
5933.09
5217.3
3029.1
2385.33
1556.72
1234.51
861.366
669.39
546.972
441.694
357.946
285.752
244.442
234.237
237.982
235.899
218.179
28906.3
11468.8
8734.31
6035.06
5806.59
3571.51
2716.07
1639.82
1134.95
714.13
513.943
353.981
286.657
231.692
221.599
219.202
236.099
274.627
307.107
346.059
57709.1
16170.2
10524.3
6655.79
6420.86
4722.71
3323.96
1985.83
1284.43
770.662
555.571
403.484
329.323
279.041
326.47
312.79
315.167
334.466
355.707
397.051
18337.5
15079.8
9920.75
6369
5843.5
4626.64
3802.76
2469.39
1626.16
1170.21
880.37
743.469
636.029
569
518.528
492.382
416.772
389.916
390.533
412.688
14990.4
12519.2
8538.67
5876.76
5131.47
4138.79
3542.19
2598.98
1936.4
1575.4
1304.06
1116.11
1083.96
1061.19
1011.1
839.406
633.282
506.788
452.414
436.852
15648.9
11542.8
6933.5
5198.25
4132.62
3436.99
2997.84
2483.83
2124.06
1815.67
1504.72
1213.81
1156.77
1253.69
1268.15
1047.03
784.653
585.145
488.098
454.703
40363
12337.2
7361.29
4803.75
3745.37
2914.58
2673.64
2267.38
2031.65
1779.89
1514.54
1287.18
1197.89
1171.91
1161.33
961.731
744.356
561.115
473.302
442.437
51099.3
12381.9
6568.16
4916.43
3812.14
2897.6
2471.85
2068.67
1722.72
1415.74
1187.68
1029.05
946.057
893.808
916.282
847.322
751.71
619.247
544.358
514.321
21683.8
12139.5
6698.09
4510.61
3840.57
2603.86
2503.92
1691.49
1509.88
1083.56
1045.22
910.008
921.53
886.306
901.816
895.877
885.047
801.174
755.415
644.751
17360.7
12531
7312.97
4629.69
3324.66
2396.37
2213.62
1483.62
1313.81
955.893
928.122
815.896
825.989
786.545
798.687
773.421
746.85
651.911
596.256
490.844
23064.8
12207.1
6670.73
4288.64
3321.95
2165.72
1936.6
1265.07
1138.58
788.482
758.918
609.333
605.089
526.115
517.124
458.132
442.213
402.784
392.21
381.546
24856.2
16552.1
9011.09
4701.34
3248.79
2111.19
1805.82
1156.64
991.306
630.745
564.586
425.561
420.611
379.307
385.934
369.968
372.126
357.884
343.368
348.115
48563.2
15348.2
8239.01
4193.05
3413.18
2097.09
1858.31
1210.63
1068.58
714.421
641.343
474.763
464.678
416.393
421.236
401.599
400.452
383.82
358.598
359.173
7259.2
7083.42
6043.6
2841.44
2494.26
1506.36
1464.14
1000.65
923.309
630.624
575.314
426.024
403.169
346.747
343.09
329.782
328.146
319.429
308.016
315.379
1244.27
1680.78
1592.73
1433.9
1065.58
674.106
474.814
360.007
299.785
240.141
199.468
159.665
128.232
98.9372
73.9627
52.5001
35.6969
22.8047
14.2716
8.18776
913.351
1151.55
813.929
1273.35
1083.43
1367.95
986.525
774.134
739.531
623.483
1031.76
905.054
887.945
774.164
803.356
1076.81
973.873
1418.27
1052.5
1385.17
1225.54
573.628
933.799
810.378
934.521
718.436
1165.18
986.069
391.219
515.779
325.296
1519.89
1437.46
1766.36
1661.96
314.172
310.82
307.688
1423.92
1330.13
1632.44
1501.91
231.577
303.597
155.036
1241.42
857.91
1404.84
835.713
121.695
114.818
91.6662
717.454
481.802
690.344
497.306
66.7344
91.6642
99.418
407.104
275.879
478.453
447.373
36.1197
101.523
103.457
249.262
189.278
442.097
425.807
28.7678
103.023
93.7874
186.118
171.764
419.283
384.61
40.6082
84.5776
31.0412
176.554
194.189
358.831
254.979
324.188
398.632
278.862
1753.53
1673.63
1464.23
1480.09
319.203
279.491
288.109
1641.4
1508.39
1468.1
1319.6
154.738
277.037
118.732
1406.56
837.521
1192.31
701.883
90.8018
94.2866
82.6857
682.923
487.93
572.145
438.478
101.378
83.1047
84.4815
476.686
467.001
435.575
419.773
104.95
82.4918
70.4649
463.11
449.512
406.31
357.048
104.61
66.2184
59.101
445.389
424.707
342.247
322.141
47.8171
59.1951
46.7847
411.685
304.267
322.474
331.237
242.511
218.832
139.297
1187.9
1281.11
743.283
695.453
236.02
124.887
84.6436
1276.76
1131.56
657.271
499.304
102.924
73.7337
63.2512
1006.75
616.144
451.793
410.04
82.6812
64.7328
77.7292
523.418
435.416
413.549
449.714
79.044
83.6001
105.432
429.573
398.771
461.951
479.602
66.4937
108.064
101.791
381.283
327.962
476.407
437.948
59.5754
99.2782
104.057
311.843
281.186
426.937
418.115
41.0562
108.142
114.979
273.918
265.488
419.566
446.689
107.531
286.617
131.354
736.833
655.62
903.679
764.91
70.3169
122.3
118.219
611.489
474.797
727.799
665.286
65.5854
121.193
127.979
443.759
425.845
649.481
620.014
93.6632
130.565
130.778
436.58
498.735
623.252
599.446
117.349
128.533
113.539
515.251
523.1
582.691
514.603
105.833
108.856
100.2
513.802
466.62
498.372
454.77
115.815
99.9628
99.8957
459.139
458.308
449.073
439.427
118.324
100.077
73.5659
463.471
476.917
438.099
412.794
1830.27
2188.51
1964.19
2714.15
2449.93
2833.91
2527.81
1537.71
1916.49
1699.33
2307.72
1803.87
2426.72
1974.82
964.611
1564.78
979.503
1599.24
1096.93
1769.72
1187.09
564.294
827.192
599.079
967.914
689.846
1053.7
822.457
334.541
570.798
518.265
605.514
444.351
777.263
680.676
242.191
508.839
483.824
416.183
347.37
660.685
610.907
211.449
475.331
434.681
337.995
308.115
596.584
541.277
221.239
408.306
304.305
313.15
305.916
518.213
468.042
1966.24
1814.26
1729.34
2791.19
2511.02
2393.31
2191.02
1701.38
1697.69
1476.64
2411.32
1972.6
2109.31
1732.39
991.794
1332.28
861.723
1771.83
1213.27
1575.49
1145.97
594.723
717.083
549.512
1069.24
847.389
1042.09
794.586
544.484
536.384
496.516
809.254
725.38
738.365
624.93
514.722
479.274
424.487
705.97
660.399
601.252
553.647
480.739
409.885
393.431
647.667
602.479
548.542
560.708
351.128
394
394.113
583.772
507.573
568.526
579.365
1525.02
1049.37
912.113
2141.32
1999.45
1650.15
1441.06
1291.12
864.106
680.207
1924.67
1590.36
1373.12
1158.27
774.691
625.507
559.098
1459.01
1103.44
1099.05
980.483
545.381
558.025
568.972
1029.62
779.572
958.71
883.97
473.713
571.877
561.571
716.334
584.272
853.519
754.749
386.854
549.699
498.376
549.002
474.101
721.682
630.348
336.478
484.531
465.144
459.97
457.977
607.58
563.703
320.363
464.273
475.992
468.388
526.311
557.902
562.008
850.481
1149.55
925.877
1571.88
1348.63
1608.56
1346.07
638.411
881.257
795.228
1279.8
1089.38
1285.47
1143.68
567.449
768.371
719.669
1042.31
959.638
1091.3
991.853
609.339
721.795
686.506
947.747
902.885
984.33
901.559
602.872
664.903
586.293
881.394
793.413
865.805
755.094
531.718
568.333
518.455
762.302
677.92
733.359
665.238
511.389
510.889
496.323
659.194
623.686
652.578
621.482
512.335
494.314
460.59
619.952
610.527
616.944
583.73
2584.54
2990.45
2636.78
3312.04
2770.35
3297.52
2796.98
1827.98
2514.93
1995.46
2512.34
1807.45
2611.43
1963.25
1115.18
1779.36
1218.6
1589.89
1145.06
1751.27
1308.4
714.412
1099.3
877.684
1032.94
766.523
1221.02
1016.97
469.661
829.549
723.098
685.72
532.192
962.793
833.874
372.836
700.069
642.763
505.039
435.47
802.773
727.316
334.295
626.685
569.819
421.708
398.425
708.114
661.312
323.848
549.762
512.95
400.403
358.566
654.013
660.756
2613.52
2527.67
2280.09
3229.57
2758.66
2780.39
2434.31
1993.79
2183.72
1775.56
2585.33
1972.54
2306.39
1874.38
1247.38
1620.9
1215.91
1773.79
1357
1741.61
1454.71
1115.99
1031.52
1131.78
1172.66
1043.89
1091.31
1193.02
912.894
834.174
888.17
927.544
851.693
886.941
954.357
697.981
607.688
584.452
872.691
797.488
759.965
743.959
634.523
586.019
614.109
778.859
734.137
751.382
788.151
548.106
623.174
632.308
724.464
701.675
801.037
830.191
2098.64
1813.85
1579.07
2606.79
2294.86
2197.18
1912.25
1655.14
1506.78
1289.67
2181.8
1820.65
1833.23
1622.85
1192.13
1230.51
1103.41
1712.24
1470.96
1565.86
1425.02
1111.92
1037.94
1129.73
1231.56
1041.13
1036.69
1230.73
694.755
660.754
765.559
603.732
704.147
547.946
763.223
477.828
771.238
667.505
668.546
640.045
932.868
802.308
503.627
642.064
595.517
652.39
730.192
773.995
748.154
589.941
591.039
597.562
762.068
830.408
756.701
820.903
1485.74
1744.03
1462.42
2131.31
1829.09
2071.15
1768.09
1220.84
1398.37
1241.89
1752.68
1561.42
1694.92
1501.37
1076.47
1182.65
1070.61
1510.61
1387.1
1428.44
1287.17
988.264
1059.09
958.94
1352.17
1219.71
1262.43
1109.79
848.186
918.713
798.845
1166.92
1007.73
1057.08
919.33
718.871
776.65
703.011
961.494
847.688
893.953
807.923
656.772
688.955
652.713
822.07
786.471
789.788
744.515
645.523
647.849
613.259
788.703
828.014
739.474
714.814
2782.59
3368.6
2807.01
3659.05
2768.82
3566.02
2807.15
1784.91
2603.69
1943.1
2448.71
1753.73
2566.76
1944.82
1155.22
1743.95
1344.39
1579.85
1221.91
1795.75
1490
782.755
1262.46
1060.04
1116.12
870.06
1411.39
1205.39
558.04
1004.46
870.474
808.453
695.992
1147.39
1008.17
459.802
837.357
759.41
663.25
581.925
974.043
916.142
420.86
740.654
701.739
560.452
529.998
905.716
882.848
365.774
698.088
704.31
510.689
427.155
873.527
830.974
2767.59
2839.29
2463.18
3442.49
2777.88
3010.31
2571.27
1960.49
2330.2
1910.93
2558.54
1994.1
2436.2
2084.6
1402.16
1789.25
1529.99
1857.12
1571.6
1990.38
1760.17
1134.95
1456.29
1189
1496.83
1296.2
1682.3
1467.37
947.12
1099.46
917.364
1237.19
1088.59
1391.09
1185.63
832.989
875.901
819.112
1050.57
992.499
1129.81
1053.77
778.098
820.898
855.594
988.274
978.451
1060.12
1122.8
754.279
871.696
902.18
972.636
925.446
1139.88
1162.02
2340.56
2300.15
2004.44
2892.63
2499.57
2594.47
2284.03
1876.85
1924.92
1720.17
2385.53
2093.48
2205.18
2017.71
1551.66
1664.5
1519.21
2012.04
1795.79
1963.52
1787.67
1217.99
1474.53
1302.87
1726.05
1499.83
1726.07
1525.41
870.658
1238.7
1050.32
1414.78
1185.07
1455.26
1257.64
744.651
994.783
861.667
1124.88
1032.77
1201.82
1091.63
818.229
835.082
820.785
1038.98
1117.19
1080.91
1090.18
909.479
835.199
900.687
1140.89
1183.81
1102.39
1146.33
1926.51
2172.41
1855.71
2547.77
2219.92
2476.05
2111.71
1661.01
1778.76
1574.03
2141.43
1960.02
2018.09
1789.29
1479.18
1499.55
1352.47
1908.96
1745.03
1719.86
1554.41
1290.81
1323.41
1154.17
1686.29
1498.07
1502.55
1299.38
1063.33
1099.3
959.409
1434.39
1254.55
1244.28
1114.06
899.355
933.99
844.097
1204.81
1108.09
1083.45
991.456
846.812
825.595
780.002
1093.49
1078.55
971.653
928.827
897.188
775.498
749.653
1080.91
1110.74
919.675
895.969
2796.48
3682.49
2847.77
4710.09
3434.58
4585.75
3555.66
1788.5
2598.08
2000.44
3057.05
2442.72
3267.23
2710.15
1275.83
1865.45
1568.81
2259
1880.21
2589.81
2238.17
931.627
1486.55
1274.63
1773.88
1614.13
2137.45
1896.68
778.443
1215.92
1077.19
1572.33
1443.37
1830.72
1681.24
657.118
1045.04
1005.06
1399.1
1299.54
1664.65
1714.1
597.002
998.618
969.652
1270.21
1158.25
1705.65
1601.31
479.166
952.109
876.736
1123.92
987.854
1553.75
1370.23
2824.2
3112.82
2653.89
4351.29
3533.4
3870.64
3410.36
2061.1
2519.64
2187.67
3281.57
2786.6
3264.68
2942.61
1654.87
2096.03
1854.42
2662.96
2327.88
2837.73
2544.73
1365.22
1772.02
1552.06
2227
1971.11
2440.16
2177.83
1152.27
1476.57
1266.69
1896.92
1722.83
2092.76
1836.94
1080.68
1210.11
1152.72
1699.99
1777.89
1781.45
1838.36
1074.04
1169.54
1239.78
1804.13
1733.26
1914.71
1944.3
982.666
1249.74
1232.68
1690.4
1510.16
1919.72
1771.08
2596.22
2715.21
2408.94
3720.49
3361.02
3417.48
3184.98
2205.49
2329.55
2143.66
3239.58
2964.88
3089.48
2896.3
1892.47
2086.54
1889.69
2868.25
2583.7
2820.89
2556.62
1587.19
1819.94
1608.82
2482.22
2218.2
2461.39
2218.1
1274.33
1538.27
1340.42
2127.96
1855.94
2141.9
1929.18
1142.11
1286.01
1196.95
1794.23
1837.22
1881.67
1902.74
1238.09
1194.13
1198.26
1911.15
1944.34
1918.96
1849.42
1260.01
1202.8
1218.71
1926.59
1820.51
1827.51
1756.11
2347.76
2604.2
2220.35
3382.33
3114.42
3414.65
2859.85
2084.36
2116.74
1881.31
3012.34
2818.38
2738.94
2473.34
1847.28
1814.72
1638.57
2761.83
2500.47
2459.03
2215.61
1578.77
1575.17
1366.32
2403.56
2175.73
2106.02
1921.94
1335.98
1313.9
1187.69
2107.64
1925.36
1889.39
1757.61
1207.85
1153.88
1063.82
1884.02
1902
1697.85
1623.81
1175.53
1044.19
999.779
1888.02
1795.72
1602.44
1531.21
1177.1
987.356
957.802
1767.48
1705.84
1500.53
1431.79
1054.67
964.786
930.381
973.684
980.107
1027.04
1001.74
1140.58
1131.84
1058.08
1230.67
1057.33
1208.1
1048.53
1057.83
917.229
922.127
740.332
978.463
990.23
859.15
1184.18
1222.78
1202.22
1316.71
1147.86
1254.9
1249.22
1124.87
1030.09
1140.04
1133.48
1085.14
1069.88
1190.41
1214.38
1288.59
1356.12
1257.19
1283.25
1091.4
1286.4
1139.19
780.458
1146.44
1121.25
1068.75
903.135
1217.05
874.734
801.666
791.082
819.663
818.648
850.693
842.52
887.493
866.379
680.15
664.068
826.032
932.61
608.288
841.082
760.911
642.115
593.462
788.385
808.724
590.445
973.114
980.963
984.817
1079.78
936.943
1018.75
1030.71
930.721
862.991
942.367
944.167
897.363
893.536
985.361
958.611
700.477
1082.09
824.105
1007.33
646.588
1027.67
907.126
626.897
930.452
796.293
865.432
620.934
976.94
965.237
909.013
843.069
698.97
935.285
833.71
852.254
1155
1106.17
1048.03
1186.95
1052.47
1215.36
1150.82
1083.03
930.96
1012.86
1060.02
991.801
1012.06
1107.33
1231.56
1316.24
1355.95
1422.05
1160.46
1331.77
1359.62
1073.38
754.641
1202.43
1124.39
921.895
945.853
1243.71
1259.49
1289.62
1412.22
1340.52
1318.26
1248.98
1356.56
1183.79
1144.29
1204.04
1284.88
1105.96
1198.35
1283.38
640.207
606.913
607.236
494.989
650.217
486.982
590.117
884.901
874.049
892.861
1011.63
820.947
945.989
962.649
829.41
725.382
851.859
866.136
773.14
774.536
914.208
764.892
640.411
853.365
1018.3
577.679
843.593
929.704
695.009
516.753
766.291
772.248
503.726
633.675
842.164
963.385
1089.04
1126.37
1104.25
1032.19
1033.28
1052.46
899.014
924.406
913.276
1044.18
836.294
978.275
981.348
548.807
753.276
551.132
1039.49
995.011
1082.44
1076.02
361.679
434.032
398.182
871.116
726.404
1089.66
1060.33
240.925
360.116
299.12
596.794
536.269
983.301
813.421
138.282
236.262
174.541
403.154
272.581
619.421
427.318
51.0525
119.592
80.3513
159.555
97.0817
276.034
178.193
16.6726
50.1607
33.4645
54.0848
40.809
112.639
86.2532
16.6763
30.6326
34.3905
38.5193
45.9587
87.1092
101.087
22.3902
43.4099
63.7919
61.1859
75.5603
117.23
160.551
911.979
902.475
782.787
1589.39
1498.88
1639.6
1630.9
763.969
566.736
613.063
845.763
755.526
833.522
479.049
688.853
324.315
308.125
591.063
575.635
678.983
291.732
670.454
290.24
279.266
576.319
557.042
704.623
265.891
281.277
157.693
133.138
336.272
290.957
324.111
113.606
193.229
91.2372
87.696
186.632
156.559
216.31
81.8937
157.624
48.6032
62.8954
98.9984
87.6924
162.788
58.2363
124.743
29.1129
49.6096
69.6579
67.9962
140.878
41.5836
111.924
34.3704
33.4043
79.5455
86.9219
107.041
35.7547
85.7434
87.3382
94.2345
201.11
211.029
216.237
265.61
702.356
646.373
582.884
1424.08
1551.97
1170.44
1314.44
779.266
392.75
459.916
782.287
795.064
748.557
370.953
859.622
313.002
310.671
839.715
858.401
840.399
311.648
749.577
292.198
312.881
849.067
766.317
843.63
289.59
242.601
95.3909
109.398
283.373
252.253
277.176
91.1233
242.394
94.1995
88.0752
243.415
251.357
231.679
92.2159
260.075
104.186
100.486
268.446
269.153
259.794
100.977
255.542
105.77
100.889
267.777
266.813
256.598
100.996
244.817
95.9189
101.253
251.109
232.815
250.663
99.9615
74.853
122.913
88.9615
247.76
269.471
278.991
266.709
421.468
393.299
334.068
826.634
869.31
694.504
669.969
440.735
280.957
298.967
497.785
542.138
433.469
251.011
472.003
242.471
198.283
651.929
662.31
473.762
192.843
267.349
177.939
160.829
552.3
403.043
354.949
136.469
186.117
83.7141
82.6382
216.068
211.99
182.55
80.1758
202.383
82.8254
80.6697
207.535
205.1
199.209
80.6095
193.617
72.159
78.8696
183.701
174.566
196.822
78.382
175.576
62.0476
76.9974
148.609
142.228
179.491
76.2069
160.488
55.0059
71.7057
127.317
117.867
162.623
71.0848
64.4594
190.392
157.235
231.35
210.171
363.327
355.115
264.727
361.467
364.395
620.573
672.842
704.317
741.055
292.655
134.616
163.171
274.811
271.818
295.681
131.355
214.778
87.1162
91.4129
227.883
206.757
232.856
83.3205
210.393
64.4756
73.4344
159.087
158.107
201.287
74.7135
279.036
76.4572
92.894
195.931
216.625
259.478
101.291
328.227
110.984
121.254
279.167
295.103
323.425
123.633
303.239
115.197
120.068
307.558
300.063
315.868
114.091
292.261
106.532
109.508
277.151
279.486
289.2
111.626
321.91
127.32
125.067
304.063
315.858
314.569
128.542
192.066
176.629
130.132
437.41
450.745
384.752
370.347
278.3
372.86
256.853
697.4
697.091
731.027
741.464
223.093
239.793
242.158
644.293
636.506
715.192
668.455
215.981
231.51
202.968
603.277
580.857
634.3
580.604
201.463
193.149
181.044
559.046
524.91
543.828
488.87
167.826
162.616
141.058
473.464
432.071
433.451
387.76
141.818
126.578