/*--------------------------------*- C++ -*----------------------------------*\
  =========                 |
  \\      /  F ield         | OpenFOAM: The Open Source CFD Toolbox
   \\    /   O peration     | Website:  https://openfoam.org
    \\  /    A nd           | Version:  10
     \\/     M anipulation  |
\*---------------------------------------------------------------------------*/
FoamFile
{
    format      ascii;
    class       volScalarField;
    location    "1.8";
    object      k_0;
}
// * * * * * * * * * * * * * * * * * * * * * * * * * * * * * * * * * * * * * //

dimensions      [0 2 -2 0 0 0 0];

internalField   nonuniform List<scalar> 
12920
(
0.169906
112.474
722.375
858.707
798.907
720.266
619.285
501.322
368.417
252.899
165.018
115.364
92.714
80.9975
70.8819
61.9206
58.4138
58.3715
60.478
63.9117
373.959
995.358
1182.1
823.79
670.062
515.335
420.036
340.464
265.564
213.46
178.021
158.005
143.091
132.371
124.744
114.461
104.09
92.8658
86.1609
69.6235
1712.01
1726.7
1563.83
1185.37
887.326
610.71
411.234
312.855
248.073
210.521
177.305
156.545
142.223
131.8
122.987
107.323
92.9094
77.5363
69.0464
52.729
4991.89
3811
2224.39
1432.96
964.613
641.6
407.92
289.422
216.328
171.948
127.875
96.0981
78.0833
74.554
73.7391
71.4418
63.6631
50.1998
41.7488
24.5875
2020.27
2924.61
2303.73
1395.75
1095.82
792.824
513.673
351.953
253.344
184.218
125.229
76.9009
43.2871
28.568
25.1713
23.7892
20.4563
14.4386
8.90027
4.10529
3938.64
4317.25
2887.17
1483.82
1053.66
838.562
591.343
424.827
303.129
221.057
144.026
77.1565
31.8649
13.1534
7.06249
4.77974
3.19575
1.86773
0.930273
0.309057
3250.17
5452.22
4034.51
2195.7
1442.44
990.963
666.077
436.391
274.981
168.891
79.1907
26.428
13.3444
13.6026
14.541
13.0747
10.1713
7.288
4.70763
1.75589
2660.5
3507.8
2740.31
2127.29
1580.89
1199.07
719.634
409.127
283.615
181.44
86.924
25.0685
14.6464
26.4556
81.1822
67.2989
45.4783
29.2053
18.3244
7.50891
5632.54
3091.25
2469.62
1862.73
1531.81
984.286
688.989
356.122
300.334
176.177
99.2251
53.4952
31.9503
30.9015
95.2668
155.862
107.551
61.2733
34.9726
14.3962
5098.94
3614.25
1970.93
1198.86
1071.93
786.569
491.738
313.06
313
110.153
91.4762
103.287
105.539
102.109
109.181
169.865
145.478
80.7431
43.8559
18.4992
8254.08
3843.11
2264.78
1237.8
792.101
468.496
338.624
239.934
214.444
87.8986
83.0258
75.1501
63.7043
57.5106
96.625
174.544
134.646
75.7527
45.1169
20.6147
2046.78
1733.08
1621.07
1270.24
718.665
294.021
165.55
97.0008
66.3143
71.0089
104.22
117.625
105.79
120.824
221.345
212.625
131.646
71.8795
46.3545
22.9803
5349.54
2983.45
1468.37
1133.92
823.385
668.247
361.474
233.563
217.934
211.499
183.344
152.197
133.697
125.593
122.768
112.296
83.9656
56.8155
48.4662
36.8669
2808.73
2622.03
1346.05
872.122
698.59
566.856
488.474
411.557
356.412
290.536
236.228
179.128
136.149
100.958
77.2256
63.1689
53.9967
49.8736
49.1049
45.9567
3800.15
1558.79
1248.29
739.437
619.942
481.998
428.923
361.915
296.795
239.333
185.12
140.282
106.963
84.9014
68.4708
59.2374
57.0923
58.9186
61.8217
57.7488
2234.33
2052.04
1573.76
910.579
673.084
555.334
418.539
366.042
288.354
242.366
186.511
146.687
114.815
92.7252
75.4494
58.2435
43.4894
30.2994
26.4958
25.5192
2448.11
5426.95
2782.66
1229.01
787.938
591.965
416.785
342.916
265.236
222.645
180.066
151.414
120.96
92.3194
64.5325
41.4485
25.6653
16.1217
12.5296
12.5341
1899.59
4346.79
2538.31
1713.71
1084.26
818.871
586.498
480.561
343.172
256.598
195.076
163.313
141.475
124.076
103.82
83.8097
68.0368
52.3862
42.9211
26.9582
20.5106
1320.51
1592.96
1181.74
615.493
407.189
318.477
305.691
265.549
219.367
175.949
146.794
122.896
100.256
80.1907
63.7195
54.2193
44.7623
37.8372
21.9359
163.362
536.396
611.244
574.09
487.03
313.828
184.197
139.077
132.282
132.05
129.042
117.46
100.545
85.4198
72.0892
58.5188
43.3955
27.2836
15.4714
6.10998
91.8228
1037.39
2004.03
1941.03
1708.77
1484.95
1308.83
1080.12
818.957
570.83
384.342
271.398
210.275
176.166
156.896
145.978
140.798
133.413
128.95
114.625
642.644
3119.84
3419.55
2000.38
1747.44
1215.81
966.044
807.289
646.901
542.055
454.522
409.457
373.429
350.831
329.702
301.623
265.846
228.862
177.505
124.68
261.302
2059.37
2903.73
2784.54
2211.65
1538.71
1014.55
787.834
621.064
539.244
458.152
414.286
377.579
350.219
320.712
275.414
219.394
163.739
119.663
70.6669
7246.92
5060.4
2920.04
2429.87
1946.6
1521.02
997.841
732.292
541.758
434.08
320.035
260.78
228.743
217.846
203.036
171.459
129.249
84.8441
49.532
20.6524
4468.09
5308.43
4254.22
3039.26
2504.43
1844.75
1196.88
861.562
604.901
433.184
259.186
150.842
86.6386
61.0599
51.1426
40.6362
27.3838
14.7245
6.75945
2.17337
15196.6
10242.3
3826.65
2693.3
2250.95
2024.93
1376.13
1036.13
704.122
485.481
260.923
121.515
47.8077
19.632
9.5766
5.85647
3.82137
2.23253
1.0486
0.295093
8309.44
9899.47
5061.4
3239.75
2105.87
1934.03
1547.62
1088.08
647.607
337.203
140.683
47.9114
27.1207
22.1958
22.8927
22.7235
21.8961
16.3818
8.93739
2.87031
14672.4
8561.94
5785.77
4290.64
2930.49
2376.98
1898.43
1420.81
921.467
554.134
233.61
88.9845
62.6515
83.4798
141.06
124.53
96.5647
62.5363
36.2279
13.3742
8110.94
7655.37
5721.22
4091.44
3258.7
2634.75
2049.81
1769.75
1400.2
816.2
480.015
308.992
237.561
216.263
270.441
320.131
242.198
149.6
85.5837
33.158
15434.9
8013.36
4658.95
3061.59
2674.27
2457.01
2156.47
1918.26
1556.02
818.867
575.726
537.159
509.334
465.972
374.34
414.355
361.129
215.639
122.721
51.5876
13271.4
5741.08
3672.12
2802.73
1789.66
1603.91
1533.67
1496.09
1147.21
663.709
529.726
450.84
368.524
330.703
353.329
383.877
327.328
223.592
134.928
58.1307
6270.17
5482.43
4170.83
2967.27
1551.92
1148.3
1002
795.947
601.767
573.888
619.123
587.64
521.931
514.303
535.192
435.163
308.577
185.914
114.638
54.375
5043.15
4050.3
3970.41
2599.07
1848.45
1557.63
1199.76
980.699
858.008
764.018
635.403
534.808
474.212
440.314
317.596
278.362
198.068
132.564
103.548
61.6057
4837.68
5253.02
3458.52
2060.1
1662.08
1438.52
1240.1
1041.91
856.711
698.76
554.746
429.585
334.753
252.021
182.878
136.684
116.868
109.416
105.675
88.6184
4811.41
3929.44
3601.89
1777.05
1625.13
1209.23
1125.28
914.047
725.33
588.167
446.288
350.056
274.581
226.283
189.397
175.382
177.335
182.449
180.427
144.85
3416.74
5668.59
3470.08
2344.59
1655.68
1344.09
1022.16
876.109
671.651
569.782
439.89
359.285
283.929
228.631
189.658
150.205
121.588
83.8559
73.1509
51.679
24569.4
18198.1
7163.99
3259.59
1874.58
1411.68
1007.87
867.94
634.317
534.391
406.129
325.79
239.569
165.775
104.252
61.0396
34.3309
19.0435
13.3326
12.485
8992.27
13467.5
7298.48
4261.83
2307.17
1745.05
1264.25
1166.14
818.208
621.12
460.139
391.889
320.739
272.366
217.464
165.919
121.129
82.7948
58.9789
32.0623
266.535
4189.24
4496.03
2518.44
1195.25
886.216
731.092
723.211
616.636
518.853
400.224
333.673
263.116
210.065
156.902
115.582
84.7384
59.4831
41.7955
19.7366
162.446
835.161
991.373
917.363
773.006
532.398
355.676
298.979
277.259
272.806
256.825
228.695
200.606
173.537
140.599
102.193
65.1729
35.9135
17.6742
6.0223
334.168
891.311
2289.3
2388.76
2118.49
1732.52
1471.65
1198.68
907.33
630.583
427.523
306.825
243.116
206.967
185.835
170.597
161.983
149.466
140.835
115.62
2657.67
6014.73
4498.64
2976.64
2522.24
1763.78
1368.78
1126.79
882.307
748.601
629.628
573.803
524.215
491.009
454.256
407.966
346.809
278.483
189.134
119.321
979.417
2827.42
3900.94
3830.96
3060.08
2079.34
1391.11
1084.87
861.115
748.921
641.686
586.131
533.43
489.279
432.842
357.516
262.157
161.641
78.3654
36.9425
11390.2
5204.8
3884.33
3382.26
2860.93
2056.29
1353.13
1006.76
759.363
620.588
483.753
419.658
372.908
337.277
279.603
202.302
122.713
59.7527
25.7668
8.71671
3642.06
6338.35
5392.32
4111.35
3267.6
2302.1
1502.61
1083.2
767.22
558.184
361.147
251.391
174.003
124.486
82.2515
47.8328
23.6359
9.5214
3.3264
0.975155
22427.9
9359.67
4522.47
3872.43
3081.01
2412.67
1632.03
1217.41
830.971
566.209
314.357
175.42
85.4076
39.6282
16.0291
6.58286
3.3852
2.1566
1.18236
0.373378
19408.9
9413.11
5151.22
4261.53
3219.74
2835.61
2031.43
1353.14
803.163
428.455
198.571
87.045
47.628
25.4231
20.062
19.7315
21.6106
20.0346
13.7444
5.66358
11013.4
9118.36
6949
4944.89
3786.21
3292.08
2668.39
1840.71
1127.37
632.833
286.92
150.219
98.747
101.737
140.139
132.024
122.139
94.2517
63.6685
30.5516
12026.2
9836.32
6892.3
4912.46
3981.94
3441.11
2932.02
2404.8
1606.25
988.244
629.885
442.715
364.549
340.553
370.344
385.107
302.137
221.488
156.599
79.2939
12991.7
8736.72
5995.25
4034.92
3543.16
3260.09
2946.61
2493.06
1775.67
1118.12
870.635
752.074
684.056
616.502
587.92
652.54
525.817
350.652
238.809
122.655
16058.3
6579.45
5054.07
3453.77
2715.63
2446.05
2296.24
2004.68
1519.97
1146.06
717.703
533.266
473.771
525.033
607.561
673.064
609.482
432.068
276.234
134.989
27696.6
9160.31
5426.47
3432.85
2274.09
1878.1
1750.23
1412.47
1171.49
1058.88
957.537
811.896
697.964
653.797
679.245
644.688
526.738
376.473
249.274
120.152
12575.1
6022.64
5083.91
3183.43
2471.81
1968.4
1703.56
1465.35
1200.24
1042.44
840.674
711.395
624.648
568.53
461.519
436.853
378.726
307.325
247.239
131.33
4999.22
7635.61
5103.78
2862.39
2392.41
1875.79
1622.72
1277.7
1049.22
839.834
689.051
573.869
490.519
416.51
353.754
308.242
293.145
273.016
254.866
195.962
7422.95
7732.15
4949.98
2607.13
2190.16
1564.69
1473.8
1136.46
903.594
713.238
581.931
486.248
425.678
377.895
338.313
318.189
308.584
284.451
259.116
183.602
12887.3
7582.59
5059.45
3075.76
2183.37
1621.47
1295.39
1028.97
793.562
637.23
505.562
408.172
347.066
291.229
261.934
218.36
187.906
138.093
111.742
61.0243
56714.9
26200.6
8957.47
4065.99
2316.7
1642.09
1228.74
1002.72
735.063
582.536
426.842
316.272
224.709
152.311
105.061
68.3547
45.9868
30.1087
21.373
11.929
39709.3
22987.5
9235.54
5117.83
2536.5
1896.12
1355.34
1187.33
840.299
684.446
508.921
409.499
302.331
217.003
138.966
84.7411
51.1462
30.3913
23.0267
14.1104
4615.57
8725.82
6703.59
2817.74
1358.82
1080.37
916.083
864.412
697.656
583.053
447.828
357.508
265.167
193.687
134.275
92.2954
62.1105
39.187
23.3723
8.37794
1503.5
1653.68
1390.73
1130.1
862.442
611.055
464.585
398.699
359.261
326.196
287.553
246.857
208.594
170.257
131.263
92.0667
58.272
31.7211
14.9375
4.71391
608.173
1833.09
2946.2
2799.79
2273.62
1799.11
1476.32
1150.21
848.695
580.482
399.256
297.045
244.511
212.812
191.672
175.556
168.104
159.344
154.273
138.293
9022.15
8866.58
6023.74
3850.85
3174.5
2111.15
1666.79
1354.96
1099.79
966.161
840.016
776.452
715.452
663.744
611.28
537.416
454.482
362.117
287.477
235.073
13225.8
7563.21
6116.11
5057.67
3754.74
2387.2
1689.52
1319.27
1100.77
967.662
860.212
794.501
730.17
656.84
574.682
463.111
342.933
229.463
155.918
133.876
8859.71
6124.73
5485.97
4452.75
3613.26
2350.83
1625.02
1209.67
969.394
816.931
686.962
621.328
559.019
484.193
385.283
266.154
161.893
88.9296
54.1261
48.5016
5561.13
6373.69
6197.31
5029.53
3946
2556.02
1747.56
1241.02
926.261
699.826
513.032
407.106
323.164
243.608
166.208
99.5743
58.9419
35.2395
23.5021
20.6079
23085.9
11591.8
6217.75
4721.36
3783.6
2623.88
1846.66
1331.93
943.177
665.152
414.826
294.472
187.84
117.94
64.1789
35.2557
23.8338
19.9221
16.4378
11.0064
43164.7
9658.72
6516.79
4860.22
4217.56
3182.25
2266.16
1446.1
896.021
514.207
291.022
161.676
100.388
55.065
42.1368
39.5897
43.7498
52.2935
54.8907
51.5048
11734.1
11251.7
8202.26
5657.53
4725.63
3838.12
3021.35
1914.51
1171.09
655.136
353.805
229.009
142.495
122.398
150.003
149.232
151.201
147.655
135.875
118.648
13454.7
11997.4
8069.78
5457.77
4644.95
3951.01
3406.8
2500.84
1571.34
1045.46
704.249
531.84
444.237
420.934
393.681
404.737
331.358
269.206
222.91
181.084
17307.9
9826.63
7105.91
4714.63
4139.32
3691.37
3282.07
2575
1769.63
1324.82
1081.41
912.515
815.432
772.967
815.684
791.31
586.661
429.361
325.436
234.146
19870.9
8653.04
5937.76
3987.1
3357.88
2967.52
2680.73
2221.31
1775.68
1503.68
1111.91
817.25
749.114
851.357
957.004
965.543
754.58
525.673
367.4
250.31
18719.5
8622.3
6419.46
3817.63
2878.05
2412.9
2246.35
1849.8
1610.73
1438.84
1232.27
1014.17
874.425
851.448
930.439
851.079
682.374
493.139
340.621
226.077
34926.9
8321.1
5848.23
3664.02
3050.36
2315.35
2060.06
1795.66
1441.03
1233.57
980.832
842.936
738.781
681.61
649.559
632.977
591.614
485.943
369.657
237.115
30080
9557.42
5911.91
3446.76
3008.53
2169.03
1935.88
1427.01
1202.33
930.948
809.198
708.459
655.969
614.567
588.685
584.489
579.446
531.157
476.649
346.216
11609.1
10564.2
6477.2
3349.07
2690.58
1829.17
1762.84
1282.44
1053.01
806.152
711.93
621.829
589.607
554.89
537.258
526.01
516.216
466.65
411.249
266.966
12415.5
9657.92
6020.67
3451.81
2663.22
1804.74
1539.92
1107.02
900.4
679.112
581.466
473.969
438.537
382.823
360.109
311.459
273.533
212.363
172.34
110.923
25807.1
16418
8209.52
4185.56
2697.32
1773.35
1440.18
1046.67
800.204
580.092
439.995
323.636
263.759
210.772
182.773
149.755
126.496
102.862
87.957
64.9006
37829.1
18991.3
8031.9
4495.77
2677.47
1942.34
1497.82
1159.03
878.732
682.217
518.429
401.124
294.885
220.347
166.601
134.312
108.051
86.8909
60.7027
45.3163
11089.7
8986.28
5172.89
2593.29
1647.25
1267.47
1098.87
918.532
744.444
594.033
456.943
352.177
258.135
189.346
137.718
102.033
75.8913
56.097
41.9184
32.5411
894.406
1566.36
1387.72
1242.7
932.316
651.801
501.276
408.747
358.019
308.151
267.399
224.35
186.446
146.165
108.306
73.5592
45.0698
24.1159
11.6959
3.92095
683.519
2457.49
3074.33
2832.4
2188.87
1669.47
1246.5
853.076
551.585
377.955
289.614
239.877
211.069
189.941
177.577
169.865
166.619
166.499
172.559
173.924
31299.8
7019.82
7437.88
4537.86
4248.88
2378.89
2192.91
1549.75
1476.52
1228.34
1198.12
1066.74
1021.11
906.559
843.874
728.261
660.204
594.827
573.875
541.38
18151.2
10071.5
9570.07
6436.3
5129.21
2682.91
2271.25
1592.96
1516.76
1257.44
1219.87
1086.64
1032.43
886.854
796.684
659.057
589.852
527.533
513.466
489.131
11562.8
8069.56
7803.26
5528.88
4827.86
2702.96
2164.05
1482.71
1357.99
1086.94
1041.22
920.009
860.858
709.673
606.953
492.269
428.825
378.352
375.03
377.621
7661.65
7949.85
8801.62
6512.7
5336.64
2902.65
2276.58
1467.45
1269.03
921.217
828.85
674.054
615.593
490.567
429.336
356.844
330.168
302.055
292.937
298.718
15202.3
11565.8
9367.71
5911.96
5179.96
3007.48
2368.9
1548.25
1227.23
856.561
665.569
543.921
438.823
355.468
283.673
242.689
232.607
236.138
233.519
214.857
28547.1
11416.9
8673.7
6040.1
5781.51
3547.45
2698.78
1628.36
1127.72
709.787
510.859
351.688
284.836
230.252
220.384
218.142
235.181
273.594
305.789
343.825
58398.6
15996.9
10490.9
6660.53
6394.85
4700.24
3309
1977.23
1279.3
768.585
554.718
403.022
329.098
278.82
325.489
311.961
314.345
333.564
354.651
395.452
19178
14906.5
9840.56
6375.42
5821.54
4607.83
3786.47
2459.97
1622.28
1170.07
880.935
744.024
636.661
569.028
517.958
490.712
415.487
388.832
389.362
411.32
15497.4
12597
8561.06
5904.63
5117.01
4127.51
3528.8
2590.86
1935.16
1576.85
1305.06
1116.75
1084.83
1061.75
1009.54
835.242
630.35
504.788
450.795
435.346
15855.6
11613.8
6936.49
5236.96
4128.76
3434.69
2992.96
2481.63
2125.24
1816.89
1505.19
1214.01
1157.57
1254.25
1266.72
1041.39
780.374
582.241
486.03
453.036
39701
12426.2
7381.28
4818.74
3737.96
2918.57
2674.75
2267.55
2032.06
1779.62
1513.73
1286.9
1197.88
1171.78
1160.15
957.545
740.657
558.412
471.281
440.802
48201.2
12399.1
6598.88
4926.46
3812.31
2913.69
2472.32
2068.3
1721.55
1413.6
1186.07
1027.85
945.505
893.725
914.222
844.889
748.76
616.348
541.736
511.985
21973.9
12180.4
6722.36
4530.86
3838.09
2616.32
2500.33
1696.05
1507.07
1083.16
1043.35
908.919
920.119
885.029
900.443
894.259
882.733
798.006
752.061
641.168
16751.7
12610.8
7373.06
4633.28
3329.51
2399.96
2211.13
1488.13
1311.93
955.783
926.775
815
824.76
785.276
797.237
771.556
744.424
648.989
593.15
487.862
23451
12204.5
6732.16
4290.08
3327.78
2174.5
1934.59
1267.84
1136.43
788.298
757.479
608.566
603.871
525.017
515.792
456.721
440.668
401.169
390.355
379.473
24278.6
16711.3
9015.58
4715.4
3247.83
2117.2
1804.44
1159.7
989.381
630.439
563.225
425.052
419.776
378.69
385.102
369.047
370.945
356.38
341.641
346.138
49974.7
15390.5
8230.13
4196.95
3408.14
2104.21
1855.81
1211.99
1066.67
713.618
639.7
473.727
463.509
415.476
420.175
400.498
399.177
382.258
356.788
357.044
6955.69
7064.1
6003.3
2839.87
2488.84
1510.66
1462.71
1001.42
921.435
629.499
573.653
424.773
401.88
345.695
342.06
328.826
327.176
318.337
306.81
313.867
1304.11
1687.08
1600.22
1440.27
1067.1
674.008
475.041
360.178
299.939
240.17
199.416
159.547
128.062
98.7423
73.7546
52.3044
35.5274
22.671
14.1739
8.13353
912.824
1149.33
812.815
1272.58
1083.39
1367.1
986.093
774.624
738.669
622.539
1031.81
905.443
887.557
772.789
802.516
1076.94
974.06
1417.84
1051.56
1384.86
1224.82
573.166
933.978
810.296
933.846
717.12
1164.45
985.323
388.897
514.423
325.261
1520.11
1440.81
1767.34
1664.72
315.279
311.035
307.965
1428.77
1331.23
1634.99
1500.03
228.263
303.067
150.751
1240.05
849.668
1398.5
825.377
120.564
112.792
91.661
711.448
479.07
683.046
496.777
66.3189
91.7682
99.8034
405.326
276.012
478.827
448.531
36.0466
101.821
103.649
249.906
190.494
443.344
426.949
28.7594
103.182
93.7259
187.294
172.256
420.371
384.995
40.9383
84.0909
30.6697
177.203
194.889
358.102
254.862
324.085
398.004
278.234
1754.08
1675.03
1464.41
1479.08
318.898
278.799
285.721
1642.81
1505.4
1465.73
1309.2
150.212
273.263
115.447
1399.28
826.56
1176.69
690.254
90.8068
93.033
82.7707
674.302
487.557
563.871
439.239
101.569
83.2658
84.4172
477.225
467.851
436.703
419.808
104.983
82.1695
69.9878
463.933
450.307
405.964
356.175
104.636
65.7754
58.909
446.227
425.216
341.491
322.023
47.0493
59.0277
46.8334
411.921
302.993
322.413
331.475
241.961
218.953
138.857
1186.89
1277.07
743.523
693.265
232.974
124.233
83.5677
1271.84
1119.06
653.931
494.867
101.027
72.9172
63.3278
991.739
607.172
449.003
411.269
82.792
65.0962
78.2884
518.044
436.482
415.52
452.382
78.7901
84.3558
106.062
430.71
398.762
464.641
481.226
66.2863
108.446
101.678
380.992
327.451
477.618
438.444
59.4725
99.4205
104.573
311.402
281.068
427.71
419.481
40.9998
108.796
115.303
273.767
265.605
421.119
448.036
107.316
286.664
132.162
737.884
655.068
904.572
765.366
70.1429
122.98
119.07
610.289
473.752
728.99
667.249
66.071
122.011
128.727
443.608
428.057
651.945
621.961
94.8402
131.126
131.048
439.898
501.993
625.115
599.771
117.686
128.586
113.384
517.906
524.176
582.773
513.912
105.916
108.629
100.222
514.187
467.042
497.791
454.677
116.31
99.9673
99.9346
459.919
459.631
449.266
439.606
118.543
100.064
73.3037
464.994
477.915
438.288
411.919
1833.46
2190.8
1966.83
2718.09
2451.6
2835.96
2528.8
1537.1
1918.55
1695.72
2308.26
1799.23
2426.35
1967.19
957.723
1556.97
970.253
1593.22
1092.07
1760.23
1180.71
561.702
820.02
598.336
964.619
688.047
1049.12
821.732
334.811
570.894
519.334
604.399
444.815
777.074
681.518
243.452
510.06
485.016
417.171
348.58
661.74
612.027
212.065
476.474
435.065
339.167
308.967
597.634
541.583
221.981
407.784
304.183
314.064
306.542
518.18
468.351
1967.86
1814.59
1727.88
2791.99
2510.99
2392.4
2187.7
1696.89
1694.67
1465.49
2410.1
1964.33
2104.18
1721.51
981.536
1318.1
849.992
1761.95
1205.61
1565
1138.16
594.111
708.09
549.957
1063.46
846.777
1037.14
793.631
545.272
537.224
496.441
809.14
725.946
737.794
624.176
515.604
478.884
423.676
706.715
661.335
600.464
552.9
481.262
409.21
393.407
648.596
602.927
548.152
561.086
349.993
394.047
394.441
583.941
507.453
569.043
579.825
1521.14
1049.06
909.584
2139.07
1994.71
1648.5
1438.38
1278.95
860.414
675.459
1918.51
1580.7
1369.6
1154.77
765.697
622.269
560.136
1450.16
1098.22
1096.56
980.558
546.231
559.678
571.182
1026.6
779.172
959.219
884.543
473.648
573.996
562.69
716.16
583.825
854.072
754.913
386.327
550.539
498.858
548.486
473.539
721.751
630.634
336.443
485.256
466.471
459.583
458.321
608.101
564.799
320.62
465.775
477.38
468.992
526.995
559.195
563.147
849.593
1150.41
926.533
1571.52
1347.36
1608.59
1346.69
637.193
882.465
797.243
1278.02
1087.93
1286.66
1144.93
569.43
770.682
721.638
1041.67
960.647
1092.8
992.973
611.988
723.585
686.752
948.907
903.485
985.297
900.994
603.436
664.802
585.584
881.783
793.106
865.016
754.074
532.093
567.678
518.394
761.952
678.072
732.51
664.981
512.672
511.049
496.568
659.657
624.667
652.597
621.555
513.408
494.504
459.747
621.073
611.44
617.053
583.12
2585.43
2992.93
2637.11
3314.39
2769.03
3298.18
2795.16
1822.61
2513.63
1987.07
2509.56
1801.78
2607.85
1955.22
1111.02
1769.8
1213.36
1584.21
1142.69
1743.88
1306.7
712.947
1095.85
877.082
1031.5
765.813
1220.19
1016.91
470.187
829.382
723.871
685.304
532.676
962.891
834.46
374.02
701.04
643.799
505.746
436.394
803.425
727.974
335.206
627.639
570.147
422.515
399.391
708.675
661.821
324.451
549.872
513.435
401.209
358.896
654.503
661.574
2612.67
2526.7
2276.21
3228.27
2755.57
2778.3
2430.13
1984.85
2178.09
1765.46
2580.82
1964.38
2301.11
1868.51
1241.14
1611.63
1210.65
1766.52
1355.29
1737.15
1453.16
1114.35
1029.2
1127.07
1169.8
1041.31
1089.74
1189.9
912.513
834.247
887.799
927.399
851.436
886.982
953.909
698.862
606.666
583.7
873.147
798.065
757.782
743.335
634.935
585.526
614.614
779.395
734.547
751.418
788.817
548.204
623.785
632.704
724.829
702.162
801.758
830.263
2093.77
1811.92
1576.62
2604.26
2290.92
2195.38
1911.33
1646.63
1503.65
1286.79
2177.25
1816.56
1832.03
1622.12
1189.16
1228.47
1103.37
1709.31
1469.81
1565.54
1425.03
1110.59
1036.48
1127.98
1230.47
1039.37
1036.67
1229.5
696.995
660.336
766.405
603.091
705.065
547.558
765.624
477.236
771.11
667.708
667.124
639.727
932.164
802.157
504.223
642.493
596.558
652.609
731.141
774.065
748.833
590.55
592.253
598.501
763.143
830.628
757.568
821.369
1484.59
1744.13
1463.07
2130.76
1829.05
2070.19
1769.03
1219.54
1399.44
1242.94
1752.41
1561.26
1696.22
1501.94
1077.09
1183.85
1071.45
1510.72
1387.21
1429.07
1287.19
988.314
1059.64
958.102
1352.01
1218.74
1262.14
1108.22
847.612
917.628
797.763
1165.83
1006.6
1055.41
917.958
718.919
775.693
702.693
960.493
847.368
892.725
807.152
657.622
688.837
652.727
821.968
786.815
789.18
743.977
646.267
647.84
612.64
789.132
828.444
738.977
714.062
2780.4
3368.2
2804.36
3649.94
2761.69
3556.49
2800.23
1779.65
2599.48
1936.09
2441.8
1749.37
2559.98
1941.11
1153.52
1738.06
1343.76
1576.6
1221.72
1793.88
1491.41
782.382
1262.38
1060.28
1116.27
870.749
1412.86
1206.62
558.581
1004.77
871.062
809.01
696.806
1148.51
1009.06
460.649
837.948
759.979
663.944
582.757
974.839
916.999
421.715
741.133
702.351
561.032
530.495
906.533
883.804
365.952
698.709
704.919
510.783
427.054
874.341
830.854
2763.77
2836.96
2459.26
3433.39
2770.84
3005.19
2567.67
1953.57
2325.55
1906.84
2551.96
1991.01
2433.13
2084.52
1401.7
1786.55
1530.21
1855.88
1573.38
1991.39
1762.11
1135.24
1457.07
1188.91
1498.62
1297.53
1684.04
1468.24
947.545
1099.17
915.877
1238.37
1089.44
1391.71
1185.71
833.5
874.505
818.856
1051.33
993.371
1129.81
1054.33
778.603
820.916
856.316
989.177
979.402
1060.89
1123.89
754.726
872.514
902.036
973.545
925.836
1140.93
1162.56
2337.23
2298.59
2004.13
2889.52
2497.38
2594.19
2284.63
1874.37
1924.45
1720.2
2383.9
2094.23
2205.81
2018.89
1552.18
1664.81
1519.45
2013.54
1797.51
1964.73
1788.41
1217.36
1474.38
1302.13
1727.55
1500.39
1726.48
1525.19
869.559
1237.91
1049.5
1415.26
1185.21
1454.98
1257.34
744.551
994.008
861.452
1124.97
1033.25
1201.57
1091.85
819.182
835.098
821.329
1039.68
1118.29
1081.28
1090.58
909.497
835.975
900.973
1141.94
1184.43
1102.79
1146.81
1926.94
2171.29
1856.83
2548.35
2220.89
2474.85
2112.34
1661.35
1780.21
1574.68
2142.29
1961.04
2019.35
1789.56
1479.38
1500.17
1352.46
1909.94
1745.44
1720.25
1553.97
1289.78
1323.02
1152.57
1686.32
1497.31
1501.81
1297.85
1062.19
1097.58
958.088
1433.59
1254.03
1242.86
1113.07
898.99
932.752
843.265
1204.41
1108.13
1082.53
990.648
847.002
824.848
779.372
1093.57
1078.64
970.965
928.277
897.544
774.878
748.909
1081.04
1111.05
919.195
895.659
2786.17
3667.57
2838.11
4689.43
3424.58
4566.24
3544.63
1783.01
2589.32
1996.6
3047.59
2432.85
3258.04
2705.03
1275.59
1863.53
1569.8
2251.71
1874.37
2585.37
2233.34
932.262
1487.61
1275.58
1769.76
1605.55
2132.02
1889.01
779.36
1216.77
1077.86
1565.3
1434.45
1822.59
1672.29
658.001
1045.66
1005.84
1392.29
1290.22
1655.51
1702.72
597.451
999.357
970.361
1262.72
1150.74
1694.42
1590.65
479.235
952.59
876.345
1118.12
979.926
1543.37
1359.81
2814.87
3105.66
2649.27
4340.21
3524.02
3871.11
3409.01
2058.01
2515.94
2187.48
3273.91
2782.72
3263.42
2941.3
1656.28
2096.87
1856.02
2659.49
2323.33
2836.1
2540.47
1366.36
1773.48
1552.88
2221.58
1963.44
2434.83
2169.53
1152.97
1477.19
1266.91
1888.65
1713.82
2083.86
1827.3
1081.52
1210.28
1153.38
1690.73
1766.63
1771.73
1827.03
1074.74
1170.47
1240.55
1792.14
1721.64
1902.25
1931.96
982.703
1250.37
1232.59
1678.77
1498.56
1907.56
1759.15
2593.24
2714.62
2408.87
3726.62
3362.09
3426.56
3188.64
2206
2329.55
2144.29
3240.23
2964.11
3092.18
2896.17
1893.84
2087.24
1890.12
2866.88
2579.24
2819.83
2552.31
1587.72
1820.11
1608.55
2476.53
2209.71
2456.11
2210.33
1274.59
1537.99
1340.23
2119.07
1846.58
2133.78
1920.43
1142.68
1285.9
1197.22
1784.72
1825.89
1872.6
1891.48
1238.81
1194.4
1198.27
1898.71
1932.13
1907.06
1838.7
1260.04
1202.82
1218.78
1914.65
1808.2
1817.24
1746.22
2348.01
2603.37
2220.08
3390.78
3118.65
3418.37
2869.47
2084.83
2117.07
1881.07
3015.49
2818.76
2744.94
2475.68
1847.3
1814.61
1637.57
2760.99
2496.67
2458.03
2214.95
1577.97
1574.01
1364.8
2398.61
2168.49
2102.88
1917.55
1335.57
1312.53
1186.72
2099.89
1917.13
1883
1752.5
1207.91
1152.98
1063.07
1875.43
1891.29
1691.16
1617.35
1175.3
1043.52
999.328
1877.18
1785.9
1594.63
1525.33
1177.02
986.982
957.727
1758
1696.04
1493.76
1426
1053.74
963.594
929.707
973.271
978.786
1026.19
1001.12
1138.76
1127.1
1055.56
1228.32
1054.95
1205.15
1047.14
1056.72
916.294
920.289
738.597
977.26
989.266
857.724
1183.33
1221.06
1201.86
1315.95
1146.92
1253.07
1249.02
1124.32
1029.83
1139.86
1133.3
1084.6
1069.41
1190.28
1213.51
1286.91
1355.63
1257.06
1281.86
1090.65
1286.08
1138.17
778.954
1145.81
1121.01
1067.83
901.956
1216.38
874.541
801.949
791.229
820.097
818.559
850.933
842.545
886.514
865.694
679.549
662.39
825.408
931.678
606.64
840.385
760.318
641.53
591.524
787.948
808.009
588.629
972.737
980.879
984.94
1079.56
936.995
1018.34
1030.48
930.508
863.393
942.625
944.06
897.593
893.471
985.192
957.577
698.92
1081.35
823.688
1006.37
644.936
1026.74
906.299
624.878
929.895
795.771
864.77
619.064
976.129
966.336
907.703
843.574
697.969
935.162
832.407
854.264
1154.57
1105.82
1048.15
1186.83
1052.38
1214.92
1150.59
1083.23
931.712
1013.03
1059.85
992.212
1012.71
1107.14
1230.88
1314.56
1355.89
1422.49
1160.06
1331.5
1359.07
1074.63
753.267
1201.52
1124.6
919.846
948.13
1243.27
1258.76
1289.33
1412.01
1339.94
1317.87
1248.49
1355.85
1183.54
1143.79
1203.75
1284.2
1106.16
1197.85
1282.81
642.229
606.394
607.674
494.407
651.043
486.593
591.515
885.6
874.94
892.977
1011.46
821.771
946.781
962.441
830.069
726.082
851.849
865.815
773.85
775.206
913.914
766.997
639.744
852.885
1018.85
577.211
846.065
930.04
696.645
515.893
765.385
772.385
503.428
634.932
842.388
963.787
1088.55
1126.26
1103.48
1032.57
1032.76
1052.43
899.465
923.851
913.374
1043.38
836.752
977.701
981.326
546.711
751.08
548.622
1040.27
997.321
1083.02
1078.97
361.354
434
399.079
874.689
728.468
1094.09
1064.08
240.121
360.256
298.118
599.506
537.464
984.174
809.861
137.378
235.112
173.423
403.086
271.417
615.06
424.263
50.3629
118.682
79.8591
158.435
96.1449
274.059
177.376
16.5413
49.8826
33.4435
53.7882
40.8052
112.368
86.6597
16.7497
30.7031
34.5993
38.6728
46.3676
87.5504
101.797
22.6178
43.6981
64.1934
61.6541
76.046
117.808
161.032
912.868
903.298
782.267
1592.92
1500.58
1642.82
1632.3
762.508
563.594
610.885
844.443
753.396
831.926
476.193
693.916
325.227
307.86
592.673
578.728
683.017
292.151
667.408
289.878
279.008
578.151
556.658
705.617
264.181
279.28
155.434
130.425
331.745
288.236
319.172
112.216
193.093
90.3157
87.2317
185.509
155.594
215.742
81.5306
158.942
48.4086
62.973
99.3282
87.9599
164.118
58.4068
124.44
29.0395
49.7529
70.2642
68.3259
141.793
41.4337
112.294
34.5703
33.4545
80.1326
87.5323
107.508
35.9288
86.0741
87.6761
94.9076
201.785
211.471
216.786
266.367
703.158
647.465
583.502
1427.35
1553.23
1172.24
1315.81
778.088
391.073
459.26
781.222
793.972
748.268
369.989
860.603
313.134
310.602
840.727
859.784
840.968
311.689
734.253
288.713
311.364
845.494
754.406
839.107
285.672
241.2
94.6837
107.14
279.972
251.187
273.845
90.3189
243.424
94.5633
88.1504
244.125
252.645
232.215
92.5237
260.225
104.242
100.452
269.026
269.622
260.053
100.88
255.71
105.841
100.78
268.257
267.299
256.694
100.912
244.964
95.5658
101.244
251.107
232.192
250.951
99.9124
75.0824
122.837
88.921
247.359
269.838
278.577
266.633
422.437
393.902
334.915
827.879
869.327
695.382
671.094
439.595
280.661
299.16
498.174
541.256
433.797
250.91
465.346
240.823
197.179
647.552
655.623
468.43
191.215
258.086
172.237
157.558
535.603
386.741
343.175
133.347
186.745
83.5737
82.1958
215.414
211.948
182.329
80.1615
203.232
82.9024
80.7494
208.043
205.536
200.166
80.6879
194.294
71.9267
78.9488
183.464
174.335
197.338
78.5316
176.273
61.9764
77.1307
148.392
142.207
179.96
76.3716
161.068
54.8486
71.7754
126.999
117.468
163.114
71.2464
64.409
190.929
156.993
231.355
209.804
364.397
354.515
265.277
363.281
365.625
620.983
674.056
704.84
741.514
293.527
134.51
163.363
275.44
272.486
296.62
131.541
215.03
86.6581
91.387
227.473
206.14
232.912
83.3049
213.468
64.6564
73.9584
159.923
159.43
203.99
75.5201
282.011
77.383
94.1616
199.209
219.841
262.627
102.525
329.414
111.806
121.866
281.853
297.272
325.065
124.047
303.048
115.062
119.898
308.323
299.95
315.749
113.901
293.025
106.799
109.675
277.868
280.421
289.749
111.9
322.585
127.776
125.43
305.408
317.045
315.562
128.714
191.932
176.028
129.55
437.899
450.385
383.925
368.946
278.857
373.984
257.534
698.665
697.682
732.184
741.537
223.415
240.363
242.931
644.741
637.008
715.137
668.12
216.194
232.126
203.351
604.161
581.662
634.522
580.71
201.284
193.268
181.146
559.321
524.538
543.361
488.067
167.445
162.526
140.961
472.769
431.393
432.712
387.069
141.581
126.392