/*--------------------------------*- C++ -*----------------------------------*\
  =========                 |
  \\      /  F ield         | OpenFOAM: The Open Source CFD Toolbox
   \\    /   O peration     | Website:  https://openfoam.org
    \\  /    A nd           | Version:  10
     \\/     M anipulation  |
\*---------------------------------------------------------------------------*/
FoamFile
{
    format      ascii;
    class       volScalarField;
    location    "1.8";
    object      omega_0;
}
// * * * * * * * * * * * * * * * * * * * * * * * * * * * * * * * * * * * * * //

dimensions      [0 0 -1 0 0 0 0];

internalField   nonuniform List<scalar> 
12920
(
2.09433
50.4607
122.349
131.162
126.14
119.694
110.864
99.5925
85.2456
70.5467
56.968
47.6987
42.828
40.0507
37.4602
35.0242
34.045
34.0396
34.6685
35.6235
87.7428
141.375
153.231
127.608
115.204
101.034
91.1979
82.0504
72.4307
64.9647
59.3616
55.9446
53.2422
51.2144
49.7126
47.6051
45.3888
42.8693
41.2791
37.0997
185.349
185.61
176.035
153.036
132.289
109.679
90.0418
78.626
70.049
64.5531
59.2422
55.6805
53.0824
51.1028
49.3477
46.0718
42.8551
39.1399
36.9241
32.2734
319.139
275.822
209.479
168.151
137.942
112.439
89.6396
75.585
65.3799
58.2825
50.2286
43.5414
39.2882
38.4254
38.2179
37.6069
35.4509
31.4746
28.6717
21.9814
208.191
243.899
211.738
165.442
147.272
125.098
100.596
83.3297
70.7259
60.2942
49.665
38.8687
29.1447
23.7236
22.3092
21.6845
20.0761
16.8381
13.1933
8.95717
280.13
294.316
237.011
170.462
144.361
128.82
108.039
91.5585
77.3473
66.047
53.2308
38.8699
24.9166
16.0227
11.7682
9.68715
7.91342
6.03897
4.253
2.45082
268.158
335.432
282.026
207.506
168.772
139.86
114.527
92.6264
73.5365
57.5928
39.3279
22.6374
16.2081
16.4326
16.9927
16.0797
14.1655
11.9735
9.60078
5.84535
229.029
263.76
232.812
205.346
177.149
154.15
238.259
179.742
149.686
119.569
82.4411
44.1552
34.0389
45.9961
40.1585
36.4503
29.934
23.9654
18.957
12.1164
322.484
245.921
220.94
192.172
174.371
279.472
465.495
335.319
308.494
233.841
176.13
129.7
100.382
99.2355
87.081
55.5775
45.9932
34.6843
26.1803
16.7859
316.469
268.232
197.315
154.029
145.846
249.75
393.432
315.034
314.266
184.76
170.43
181.059
182.985
179.797
92.7404
58.0712
53.6106
39.7663
29.3133
19.0332
411.362
272.987
211.874
156.169
125.136
192.686
326.999
275.178
257.321
166.211
162.371
154.024
141.887
134.748
87.5676
58.7699
51.5002
38.5377
29.7486
20.1065
206.106
185.398
179.642
158.525
119.137
152.333
228.343
174.867
145.008
151.034
182.828
193.294
183.291
196.23
132.484
64.7283
50.8359
37.5268
30.1722
21.2457
335.794
237.593
169.756
150.109
128.002
115.186
169.296
136.113
131.534
129.505
120.413
109.705
102.881
99.6799
49.1929
47.0629
40.6104
33.4549
30.9414
26.9981
245.998
228.405
162.376
131.426
117.736
106.083
98.453
90.3704
84.0691
75.8704
68.379
59.5089
51.8612
44.6538
39.0697
35.3417
32.691
31.4442
31.2038
30.1764
282.895
175.223
157.191
121.214
110.964
97.86
92.2784
84.7405
76.7063
68.8508
60.5177
52.6647
45.9867
40.9774
36.8069
34.258
33.6515
34.2001
35.0164
33.8159
212.38
202.721
177.09
134.353
115.61
104.97
91.1253
85.221
75.6152
69.3049
60.7629
53.8751
47.6619
42.8307
38.6236
33.913
29.2814
24.4462
22.8875
22.4798
224.177
324.867
233.835
155.734
124.853
108.3
90.868
82.452
72.5107
66.4388
59.7355
54.7702
48.9313
42.7187
35.6837
28.5759
22.4751
17.8195
15.7396
15.7579
181.873
289.43
223.341
184.039
146.401
127.262
107.739
97.4782
82.3441
71.2294
62.1358
56.8917
52.9649
49.5938
45.3468
40.7325
36.69
32.1854
29.1101
23.0615
22.5965
165.409
177.763
152.374
110.023
89.6729
79.4752
77.8988
72.5338
65.9061
59.0291
53.9217
49.329
44.5364
39.8199
35.5004
32.7557
29.7558
27.3293
20.7738
57.8947
103.24
110.067
106.771
98.3207
78.6615
60.2142
52.4783
51.2756
51.2438
50.6393
48.2601
44.6359
41.1326
37.7742
34.0091
29.2511
23.1616
17.4167
10.9333
17.2079
58.5987
80.5471
78.7365
73.7068
68.7103
64.4686
58.4877
50.8493
42.4018
34.7834
29.2537
25.7804
23.6175
22.3022
21.5212
21.1374
20.5752
20.2259
19.0621
120.024
107.217
95.6685
80.2456
65.9297
58.6965
52.3432
45.9268
39.5682
34.3441
30.5953
28.3615
26.8135
25.7619
24.8812
24.0602
23.4531
23.3623
23.3728
24.811
90.4203
118.889
113.75
95.5748
73.6851
57.4787
46.2859
40.1882
35.9223
32.698
29.7061
27.5732
26.1896
25.2318
24.3781
23.3026
22.2145
21.9801
22.6033
25.8529
207.857
173.517
143.464
112.389
82.4393
58.1846
44.5728
38.3142
34.1782
30.7628
27.199
23.5581
21.2399
20.461
20.2586
19.8264
19.434
19.7326
20.3525
17.4636
130.634
165.44
152.898
103.117
73.8033
57.7288
46.5434
39.8537
35.8141
32.333
29.3129
23.7679
18.5742
15.7285
14.892
14.501
13.7682
11.6661
8.94112
5.97774
347.594
288.311
183.089
118.449
86.8055
66.3246
54.6074
47.3886
42.0252
38.8325
35.1611
26.3449
17.313
12.3995
9.81023
8.28597
7.1845
6.01791
4.89924
4.08543
198.072
230.046
185.073
157.429
137.195
103.09
67.8213
48.7097
41.1824
37.0747
26.5047
15.6024
12.1086
11.7508
11.9143
12.1185
12.3345
12.1668
10.9988
7.23886
304.764
168.337
120.931
113.068
109.696
98.7891
92.8799
65.2394
51.8597
49.3967
38.2391
20.8383
16.0428
17.4195
20.5962
20.4086
19.9375
18.7919
17.0486
11.4718
132.187
144.641
111.781
91.0888
84.8581
91.5448
93.0582
77.0561
63.2206
61.6009
48.1613
35.5006
32.7004
30.9009
29.7592
29.5945
25.6979
22.0362
19.9448
14.2652
270.905
150.156
99.9531
85.3095
78.9734
81.2206
82.3652
74.5365
67.9466
72.2486
46.5912
36.2127
34.6769
35.2006
39.1973
38.5205
34.9822
27.1032
23.3629
15.6885
222.311
177.122
122.546
94.3354
80.6507
80.6007
80.7913
75.4178
72.9825
73.1246
48.7434
41.6446
39.498
38.6217
37.9548
38.8569
38.2423
33.1322
26.4146
16.6449
242.634
149.58
100.544
80.9871
70.1864
66.5046
67.1171
65.336
62.0353
57.2344
44.7813
38.7738
35.8091
34.8108
35.2045
35.8408
35.2874
30.8204
26.0008
17.0696
224.47
135.829
91.8432
76.5169
66.285
55.6393
59.728
51.5149
44.5928
40.5234
35.9119
32.4067
30.3333
29.7862
27.5811
29.019
28.9092
26.1706
23.8775
21.0719
137.285
135.437
98.2975
78.4975
65.0963
55.9257
50.0691
46.5021
42.0417
39.2495
36.4219
33.5596
30.9856
28.5887
27.6587
27.4169
26.7158
25.041
24.2717
22.4144
201.808
117.172
81.9408
66.802
54.3601
50.0689
47.922
44.2599
41.7121
38.2885
35.2869
31.0936
28.1451
25.2312
23.7401
22.8041
22.5552
22.4727
22.4773
21.4712
173.908
184.8
123.075
76.8784
55.8363
50.4738
44.8435
42.7176
39.2873
37.0535
33.3655
29.7113
25.825
22.8856
20.8035
18.9801
17.6563
16.1135
15.8283
15.4656
469.224
278.05
134.038
78.499
56.1444
52.3274
47.4488
45.3395
39.45
35.6772
31.1176
28.6812
25.538
23.0609
20.1984
17.8087
15.6035
13.9803
13.4459
13.3267
310.304
239.951
147.469
108.651
73.7723
60.9026
55.6612
56.6403
54.7284
47.377
37.8325
32.8343
30.0625
29.4989
29.3386
29.621
29.7603
29.1628
27.2934
21.2845
72.765
161.737
135.439
87.48
55.0388
44.5968
39.3313
39.2862
38.617
36.4279
33.6949
31.4695
29.7817
28.5865
27.9646
27.5766
27.0042
25.5302
23.5901
16.9009
23.4049
51.4437
55.9331
53.9137
49.5243
41.0098
33.5334
30.8017
29.6928
29.4534
28.5582
26.9382
25.2237
23.4485
21.0861
17.9545
14.3194
10.6153
7.4356
4.33534
30.5471
54.0184
85.9941
87.4296
81.9903
74.1698
68.3464
61.6193
53.5317
44.5737
36.6957
31.1153
27.7275
25.6019
24.2705
23.2614
22.6684
21.7734
21.1292
19.1327
206.908
160.57
98.5274
67.798
57.0694
48.8422
45.102
41.6074
36.9036
32.7072
29.2749
27.4519
26.278
25.5808
24.9561
24.5814
24.3346
24.1034
23.1049
22.0136
123.551
150.828
117.012
84.8074
62.5388
47.869
38.7639
34.6539
31.2156
29.0296
26.9136
25.7731
24.8851
24.2981
23.6991
23.2308
22.5211
20.8799
17.6275
16.3738
286.494
134.43
100.551
79.3578
61.7694
46.3513
36.8828
32.1752
29.0183
26.6312
24.5558
23.0372
22.0742
21.5571
21.1119
20.2059
18.1067
14.8904
12.1784
9.13333
105.907
145.847
115.358
80.4395
62.0071
47.7351
38.3563
33.0626
29.6938
26.9452
24.0899
21.3671
19.0315
17.5959
16.1096
13.8458
11.4265
8.78724
7.01736
5.73163
330.539
192.851
119.074
86.3874
65.8521
51.5364
41.837
36.7618
32.6218
29.8318
25.2351
20.9357
17.0633
14.1301
10.9734
8.67041
7.38622
6.50284
5.81942
5.01082
287.461
173.383
131.048
118.542
96.3168
71.07
49.204
38.4628
32.8881
27.7431
21.2931
15.7119
13.5806
11.8129
11.3517
11.3543
11.9086
12.0861
11.6365
9.27142
200.289
148.737
111.527
94.2061
84.0859
70.6832
63.0634
47.2014
39.2478
34.4148
25.826
19.5551
17.0158
17.5671
20.3339
20.1105
20.1098
19.6903
18.4083
14.8799
164.963
140.834
98.5539
77.6472
70.6913
69.3434
66.5473
55.989
47.3736
42.9774
33.6552
28.8784
28.6319
30.3672
31.2189
29.2883
26.2372
24.0024
22.1406
18.3732
175.519
123.292
88.1382
69.2304
63.1522
62.6998
61.7586
57.5885
54.3571
53.6097
37.0056
32.3801
31.6532
31.6274
35.1266
39.5959
36.1086
29.9953
26.086
20.7378
216.105
116.43
87.8096
68.9826
61.0522
60.0337
59.7372
57.3654
56.6097
51.7514
76.3947
63.0307
50.5719
43.8437
40.7642
43.7117
42.8466
36.6438
28.7446
21.4195
487.729
172.067
87.1946
62.9561
53.184
51.0869
52.4181
50.3492
49.0007
45.5162
38.4357
35.0884
34.4502
36.5053
40.2641
41.8439
40.0531
34.5677
28.3309
20.6857
284.339
122.488
81.376
60.1637
52.7423
44.6718
44.7421
42.273
37.8836
35.2314
31.509
29.6517
29.1678
29.7585
30.1661
31.5339
30.9593
28.303
26.531
22.6858
133.581
135.43
88.6923
59.2243
51.5621
44.6083
41.1437
37.359
34.1806
31.5398
29.3851
27.7615
26.6729
25.8876
26.0475
26.6231
26.7659
26.2994
25.8844
24.7094
193.957
149.762
79.2805
53.4283
46.3921
40.2602
39.6982
36.0975
33.3569
30.2681
28.0843
25.832
24.5292
23.5297
23.4086
23.4896
23.96
24.3509
24.4244
23.5382
292.205
146.033
99.707
62.5169
46.9979
40.8582
37.3328
34.8173
31.614
29.3545
26.2773
24.1447
22.328
21.3753
21.0561
20.9797
21.028
20.7236
20.2098
18.4084
676.513
335.054
138.059
73.5338
49.8367
42.834
38.2945
35.7882
30.793
28.4229
24.9147
23.0874
21.0262
19.73
18.8776
18.0264
17.6148
16.5658
15.407
13.5032
652.756
375.138
170.819
102.526
59.6354
48.5066
42.8157
41.8478
37.6562
33.4968
28.4166
26.4872
24.3713
23.4361
21.7816
19.8376
18.2808
16.2886
15.7066
13.893
190.549
232.57
167.001
80.4849
49.3834
41.0615
36.103
34.7525
31.8368
30.1694
27.5882
25.9552
24.0565
22.6054
21.2646
19.7643
18.3499
15.5512
12.9431
8.26024
68.8863
72.3847
66.1331
59.8866
52.2912
43.983
38.38
35.5802
33.7819
32.181
30.2037
27.976
25.7083
23.2134
20.3655
17.0384
13.5384
9.97361
6.83156
3.83184
45.8431
77.3961
97.3512
94.5149
84.9093
75.5535
68.4268
60.3401
51.7667
42.7714
35.4779
30.6326
27.8182
25.9653
24.6486
23.598
23.0985
22.4881
22.1224
20.9369
251.702
232.978
125.607
69.593
60.8715
50.109
48.6528
45.3112
41.5766
38.2521
36.4504
35.4304
34.9217
34.2055
33.6594
33.0988
33.0519
33.0911
33.4978
33.2721
362.227
223.959
137.631
84.6615
63.5246
47.637
41.7325
37.5431
35.5502
33.82
33.2054
32.7139
32.4661
31.973
31.6301
31.521
31.8658
32.0327
31.9936
31.2037
178.001
122.213
98.2678
72.7817
61.1274
45.4663
39.4284
34.4051
32.9493
31.0553
31.29
31.2828
31.3953
30.8069
30.4131
29.7189
28.0514
25.2227
24.0847
24.6131
149.618
124.278
104.101
76.1565
63.6115
47.2818
40.6465
34.8046
32.7445
29.8061
29.6126
29.3707
29.351
28.598
27.1801
24.6933
22.5014
20.4599
19.8174
20.5419
308.045
181.744
105.423
75.6887
63.3046
48.5426
42.1516
36.7242
33.6787
30.3582
27.8461
27.3482
26.076
24.7446
21.7516
19.0958
17.7021
17.5801
17.3427
17.3588
505.256
149.609
111.407
88.6099
77.5263
58.5793
46.9062
37.6814
33.1412
27.6322
25.5419
23.1418
22.1243
19.3849
18.7276
18.5182
19.0266
20.6266
21.9589
23.655
206.726
156.292
111.537
84.9865
75.7917
63.4076
55.3127
42.8799
36.7103
30.8928
26.4839
25.4442
23.6483
22.9709
25.2242
24.1377
24.1345
24.5658
25.1004
26.6172
165.211
146.076
99.3323
73.6652
69.108
64.0153
59.7293
51.216
43.032
38.1431
33.3109
32.2196
32.4288
34.2455
34.3808
31.6681
28.4402
26.8076
26.6018
27.4306
213.902
118.089
86.8478
65.6075
61.4627
59.6844
58.0582
53.9783
49.0944
44.5969
39.4499
37.83
38.1068
38.454
44.0642
43.9225
36.8874
32.4325
29.5354
28.7633
227.559
109.066
79.1036
61.8665
57.2536
54.8311
54.1925
52.4893
50.9132
47.1774
70.2684
66.2988
55.0371
49.8115
50.3469
52.6739
45.2371
37.124
31.6208
29.4567
223.576
125.758
84.0202
58.1658
51.3839
48.5317
49.3806
47.7918
46.9764
44.6342
41.7761
41.0009
43.349
47.004
50.7035
47.7069
42.5185
36.7809
31.6966
29.5366
447.008
126.34
77.5263
57.0991
52.5237
44.3247
44.3228
43.5933
40.3194
39.0012
36.0575
35.7686
35.9214
37.1129
37.9474
37.4459
36.991
35.903
33.9312
31.8735
364.44
134.851
80.6671
56.2583
52.5241
43.4124
42.698
36.7535
35.4833
31.7881
31.4225
30.4059
30.6472
30.9372
32.3246
34.105
36.1733
36.8158
37.2727
36.8513
169.8
150.85
91.6135
55.5143
49.307
40.0822
41.3564
35.5967
33.6924
30.0133
29.3348
28.3263
28.5043
28.9734
30.5767
32.206
34.2767
35.0183
35.0845
33.584
177.356
133.522
90.4723
58.4676
49.5183
40.0414
39.0107
34.0371
32.2904
28.8652
27.6377
26.4468
26.4494
26.7577
27.7913
28.631
29.7694
30.2304
30.4639
30.0248
339.424
196.749
115.981
69.3942
52.4022
41.0225
38.9592
33.461
31.0291
27.8231
26.1144
25.2135
25.4545
26.2783
27.931
28.6724
29.5774
29.8449
29.7538
28.3353
476.822
263.308
134.762
80.3194
57.0521
45.8144
41.7472
36.896
34.0135
31.1362
28.8506
27.5314
26.605
26.7234
27.3217
27.6094
27.5868
27.2816
25.6577
24.8746
291.709
232.126
130.117
70.3298
55.2626
43.3471
39.4987
34.8912
33.1373
30.9508
29.1584
27.2554
25.7712
24.6458
23.8953
22.951
22.0958
21.2162
20.7466
21.7405
53.1919
70.4583
66.3927
62.8633
54.3652
45.4402
39.8715
36.0161
33.7118
31.2676
29.1203
26.6648
24.2979
21.4996
18.4934
15.2271
11.905
8.69706
6.04775
3.49717
46.5094
88.979
99.2465
94.9761
83.3152
72.7467
62.8044
51.8937
41.7062
34.5482
30.2697
27.5669
25.8687
24.5468
23.7412
23.2259
23.0079
23.0008
23.4179
23.5027
497.154
159.937
131.947
73.8255
83.9731
59.6631
70.5683
56.916
62.0926
55.8823
58.5108
55.4689
55.9973
53.9563
53.5798
52.283
52.2987
52.1877
52.7953
52.1518
288.925
196.496
169.848
91.3129
88.2881
58.3409
62.891
50.9059
54.8929
49.9938
52.6989
50.5727
51.6816
50.2264
50.4326
49.7214
50.4662
50.6735
51.1557
49.7366
213.994
140.816
120.176
76.4222
80.2785
55.2899
58.8348
47.2927
51.5535
46.8489
50.1998
48.666
50.1131
49.1072
49.3942
48.9487
49.3795
49.8493
51.2365
51.0056
190.575
142.217
133.525
88.2052
87.3904
57.7694
59.9228
47.7395
50.7246
45.5183
48.1275
46.4457
47.8806
46.716
47.1962
46.8876
47.4504
48.7752
50.9928
53.0002
254.99
175.973
140.71
82.7178
86.1693
59.1959
60.369
48.4899
49.0454
44.1101
45.0468
44.1865
44.538
43.6612
42.5191
42.3051
42.9247
45.2574
47.8712
52.4573
322.709
157.727
121.689
88.9695
94.3729
66.2714
62.2228
49.6972
46.8651
40.9544
41.1343
38.8447
38.5248
37.3336
37.7113
37.6917
39.059
41.7571
44.1201
49.2714
512.618
197.149
129.559
87.8924
95.3521
78.9484
62.9806
50.2072
47.5905
42.7521
44.4025
42.427
43.0842
41.2341
40.059
38.0775
37.9254
39.3798
41.3331
44.9696
223.012
163.718
112.614
80.3734
82.5666
73.6457
68.5977
58.4786
55.4424
54.0964
54.3851
54.838
53.9478
52.2356
49.4345
40.6782
38.192
38.3155
39.7176
42.4708
189.315
138.865
98.1003
77.6439
74.4854
66.6076
67.203
64.746
63.2773
62.2531
62.2426
63.2322
64.0449
61.7212
58.407
49.8892
44.0386
41.6064
41.4303
41.9472
195.431
136.931
85.8717
76.8022
65.902
61.3599
62.4354
64.7122
65.531
64.0776
65.6725
67.1573
70.2196
67.5668
64.0454
55.8575
49.6406
44.8494
43.1366
42.8196
374.132
151.806
92.2543
71.6213
63.699
57.0115
60.0539
62.8202
64.2504
63.9019
64.2276
65.7384
67.2959
65.358
61.3145
53.3233
49.0775
45.0979
43.7111
43.2455
485.81
157.478
86.7058
77.9577
64.271
56.7893
57.2409
54.273
55.1351
52.8521
53.6292
52.5084
53.1154
52.3578
50.7824
49.9205
50.4113
49.6784
49.4329
49.8932
239.164
154.018
87.5378
70.9328
67.2413
52.595
57.3019
44.7146
47.2521
40.3373
44.1021
41.8394
45.0945
45.2299
48.0833
50.5653
54.4523
55.3
56.7199
56.6906
192.218
150.326
98.0282
77.717
62.4183
54.1514
54.4077
42.3515
44.1747
38.4706
41.1185
39.6322
42.4594
43.0556
46.1182
47.8572
50.9218
51.4937
52.4962
53.1186
287.289
141.224
92.6812
70.8346
63.5433
49.9992
52.2356
41.2047
44.3821
37.2554
40.2774
36.9294
39.878
38.9874
41.6997
42.3323
45.0718
46.6043
48.9439
50.5351
303.762
196.361
117.073
76.357
64.55
50.516
51.2637
39.9578
43.3244
36.0035
39.1951
35.9883
39.1861
38.8128
41.9086
43.114
46.1715
47.626
49.0953
50.5687
530.271
206.305
127.977
74.8501
74.4421
52.4332
54.2876
41.9498
45.7507
39.2151
43.4589
40.5828
44.1087
43.2665
45.7231
45.9261
47.6623
48.7037
49.9398
51.5592
186.896
153.929
132.519
74.4778
77.9601
52.0053
55.89
42.2537
48.6017
41.2179
46.3305
43.2558
46.5608
45.6033
47.3749
47.1423
47.9666
48.1784
48.7582
51.6203
65.0779
73.2824
71.4041
67.734
58.1888
46.2023
38.8056
33.7947
30.8428
27.5931
25.1391
22.4797
20.1333
17.672
15.2654
12.848
10.5821
8.44747
6.6753
5.05802
39.9095
54.5972
96.413
44.5896
38.691
47.5712
126.445
32.8908
95.3373
66.2914
37.5354
35.714
124.719
84.4165
77.4109
49.6805
43.2911
46.8633
101.655
45.168
43.4659
66.1262
41.6512
38.7563
102.045
87.8524
43.1428
42.7012
349.714
402.299
320.93
117.091
102.082
102.899
88.8081
316.578
314.074
312.639
91.2926
75.6896
84.7823
74.6142
266.463
309.587
214.999
72.9284
71.0066
73.6413
75.9385
194.329
187.151
170.463
70.6872
62.84
75.6441
57.3968
144.362
170.678
178.249
57.6675
43.3526
50.5716
40.1499
106.682
179.945
181.442
40.2776
36.2944
38.9055
37.732
95.4436
180.985
172.214
35.5247
32.4356
37.7744
38.989
114.649
162.492
98.0463
31.5825
26.6612
40.6392
48.2927
320.376
354.123
296.625
97.9187
87.1808
95.1585
85.7433
317.852
296.961
299.601
83.9745
75.1796
83.6239
78.6248
214.406
291.95
188.334
74.6493
78.7332
78.8568
81.9865
169.674
170.481
162.097
78.3412
57.9228
80.511
56.6075
179.635
162.682
163.5
50.9716
41.1514
51.2041
45.304
182.469
161.003
148.352
39.9349
38.4306
44.8903
43.6896
182.131
143.829
136.403
38.2817
38.5983
43.2862
42.1894
120.896
136.581
122.071
39.0852
44.5913
41.6673
40.0745
276.589
262.891
209.258
94.8247
86.3638
87.5228
81.5983
269.854
197.727
161.538
84.3379
80.441
80.4471
78.3936
177.127
151.077
141.787
80.5767
81.2419
77.9299
73.8376
162.148
144.17
158.208
78.8833
57.0369
71.2271
57.1283
157.727
164.398
183.955
52.403
46.5836
52.5122
44.8401
144.673
185.755
179.408
45.7463
43.8398
43.7882
42.1153
137.131
177.658
182.611
43.4258
42.8003
41.5038
39.7774
113.929
186.395
191.739
42.6758
40.933
39.6664
38.2627
184.103
300.341
205.086
76.7124
73.7265
76.1265
60.6983
148.863
198.047
194.994
72.6495
69.25
58.5719
51.8283
145.354
197.49
202.587
67.5804
63.2264
50.3073
46.4917
174.615
204.443
203.988
61.6104
51.7756
46.2399
43.762
193.447
201.965
189.389
48.8452
43.879
42.8408
39.0535
183.312
185.38
178.256
43.0079
40.5267
38.2652
35.6076
192.519
178.069
178.032
39.6522
37.9932
35.1947
34.4031
194.396
178.132
152.404
37.9445
37.4915
34.4198
33.0983
84.0648
85.667
77.8372
72.5405
62.7968
66.7622
61.3416
65.3296
74.9702
67.3633
59.0282
51.6244
59.9507
55.8202
61.7036
66.6889
69.3101
50.0139
47.6431
55.2792
55.8971
53.6497
69.3032
52.0028
46.5847
38.9129
55.0058
40.5904
37.229
45.6369
36.3458
35.7992
30.2593
37.0979
32.0548
32.9357
35.2621
34.1582
29.6292
28.8096
31.4539
30.6997
31.3266
34.1738
34.961
28.9475
29.4446
30.6871
31.0206
26.724
35.9696
42.3032
30.0769
28.3863
31.4296
35.1542
76.7865
80.3728
76.05
64.8466
61.1633
63.1307
60.8775
68.2974
74.6139
71.4144
60.078
57.0688
60.2268
59.0552
72.2927
71.5976
75.0975
56.9489
59.185
59.3045
61.5566
53.307
74.4024
52.9747
58.3034
42.1358
60.1261
56.2441
37.333
47.6252
41.3692
38.335
33.0404
54.5454
48.2749
34.8212
40.7666
39.5474
32.3972
31.5977
46.0768
42.2719
34.8719
39.2434
38.5276
31.5109
31.4268
41.3057
38.92
40.2741
38.1755
37.7827
31.5576
33.6216
38.1858
36.3118
76.7877
75.3889
72.65
63.2084
60.9695
59.2342
57.13
72.857
71.846
70.6069
60.3544
59.506
56.7035
56.4235
74.3747
70.3644
68.1661
59.7577
60.7176
56.4323
55.0954
53.3713
66.2215
52.6086
57.9682
55.2943
53.2024
44.1504
42.552
48.2463
40.8806
53.6794
49.7262
41.8081
37.8357
39.8606
39.8005
37.9537
48.1217
44.107
37.1789
36.075
38.7819
37.4206
36.3435
43.1405
40.7431
35.9806
36.4533
38.5285
36.3331
36.6674
40.239
38.4481
36.9405
38.4181
66.0939
62.8658
54.9854
54.9891
53.2119
49.8684
45.5228
63.1477
53.1
47.9008
52.7774
51.7433
44.6208
41.8119
58.9579
46.3827
42.8339
51.3327
49.3224
40.5952
37.8138
47.6857
42.5026
39.772
47.7202
40.8859
37.4966
34.9771
39.6903
38.8237
35.3599
39.0112
35.495
34.0993
31.4473
36.4676
34.6655
32.3535
34.8464
33.6553
31.0758
30.0076
34.7755
32.0135
31.5263
33.5793
34.2416
29.9802
30.4992
35.635
31.6093
31.5259
34.8353
36.9674
30.9715
32.0573
59.1578
63.3833
58.6965
60.4061
54.4326
59.1457
55.185
49.0779
57.442
53.4269
51.6136
44.9467
53.8578
49.15
44.3879
52.7109
52.136
43.1369
39.2989
47.9177
44.7155
36.144
50.6397
38.5083
37.8587
33.4487
42.9321
37.5168
29.2509
35.837
31.8623
32.054
29.9729
36.4149
34.544
28.3852
31.3778
30.7219
29.9596
29.9372
34.295
33.9506
29.5487
30.7041
30.995
30.3276
31.8935
33.9563
34.3252
28.959
31.3956
35.1958
32.5447
31.3239
34.9268
39.1923
58.5895
59.8548
58.0546
58.0924
55.0857
55.1478
53.6018
54.6269
57.4462
56.2225
53.954
50.1622
52.9913
51.1686
55.0859
56.3883
57.5156
49.2479
46.5651
50.8691
48.5115
46.6984
49.1188
55.4427
49.3508
50.5214
45.3893
50.9269
37.1282
35.0332
38.6323
36.3921
36.7837
34.9181
38.4639
31.7265
57.6321
47.7555
35.4371
35.172
71.5469
53.3793
31.5209
45.5764
40.8968
35.1868
35.178
50.2374
44.7255
33.6518
39.713
36.9513
35.3535
38.1186
43.5764
41.4512
57.9437
56.1436
54.075
54.606
53.0626
51.1728
49.5653
56.4483
53.6747
53.2999
52.5491
51.1632
49.2479
48.6768
56.8552
53.2489
51.6828
50.928
48.6072
48.4834
46.5906
91.9015
67.4348
53.365
54.9186
59.7145
270.463
52.1099
103.88
74.2448
64.9367
223.39
63.4549
207.944
108.878
52.8969
38.2778
37.641
83.0976
62.0569
42.7426
43.7929
45.0436
37.6851
38.6993
57.8324
50.1486
44.3586
46.3641
39.9607
39.3304
40.5203
48.7455
45.0666
47.1341
48.8111
50.7843
47.6557
44.2304
49.2335
47.5962
45.7306
43.5757
49.3609
43.4448
40.9694
47.2395
46.4472
43.0323
41.3042
47.009
39.8662
37.3648
46.16
44.4626
40.4823
38.941
39.9234
37.087
34.7055
43.4471
40.6056
38.7698
36.7768
35.5895
33.8585
31.4671
39.9258
38.7215
36.0771
34.6645
34.3874
31.1949
30.4888
38.6589
39.4591
34.6789
34.8692
35.7488
30.5325
31.4188
40.1392
42.8456
35.2168
36.8604
38.6974
31.9569
33.2197
43.8618
47.1996
37.5524
39.4918
53.9859
59.0303
55.2668
63.7382
57.1564
63.7128
60.7461
44.7166
53.8635
49.0664
54.5782
50.1446
59.3585
56.2411
39.4493
47.8247
44.6333
49.7687
48.4293
55.8387
54.5511
34.3533
43.1697
39.1674
47.6777
46.628
53.9874
53.0394
32.174
38.3768
36.9641
46.9532
47.4747
53.0296
53.2233
32.1462
36.8066
36.7541
47.2568
46.399
53.4496
54.2411
33.8552
36.8211
37.2269
46.3834
46.2185
54.2186
53.3746
32.6579
37.8286
41.5488
45.588
43.4158
53.0133
51.8631
55.1678
54.7754
53.5111
62.6826
60.798
58.6259
59.521
50.0691
52.9522
51.1958
59.7792
57.417
59.4852
59.3219
46.1985
50.8101
48.3197
57.1133
55.3927
59.056
57.2015
40.282
46.9657
71.1658
54.757
53.5544
56.2495
57.3334
38.0372
72.1213
64.333
53.4351
53.4496
58.0201
58.627
37.953
60.4065
51.6238
53.8046
55.7491
58.5207
60.5863
38.2776
49.8139
46.5286
56.0016
55.2107
61.2222
60.7514
40.8298
45.7937
44.2484
54.7912
53.7486
60.0953
59.0291
52.9258
51.0316
49.726
58.0437
59.1181
55.7379
57.3122
51.2135
49.4934
49.0543
59.2507
59.5234
57.6048
58.4588
48.4828
48.8817
47.0782
59.3076
57.5429
58.6421
57.3827
68.54
45.8827
44.2754
56.7031
58.239
56.7824
55.9613
68.1161
44.1155
44.0499
58.9643
59.6604
56.0321
56.758
57.3588
44.223
45.9825
59.7422
62.1315
57.4821
60.9194
50.6439
46.7408
48.9234
62.704
62.1082
61.6049
61.62
47.2757
49.6114
51.0042
61.4863
60.1962
61.297
60.7135
48.0629
46.2602
44.6281
55.1433
56.4412
53.5821
53.3566
47.1989
44.1169
42.5927
56.6514
57.3848
52.8091
52.3368
45.4848
41.9023
40.7698
57.6452
56.9507
52.5749
52.9179
42.3012
40.6031
38.7142
56.4402
55.5575
52.6398
51.5265
40.9531
38.0811
37.1351
55.5856
56.2571
51.5981
52.2145
42.4967
37.2365
37.6277
56.9097
59.4476
52.1827
52.3359
46.1064
38.0058
39.6742
59.9791
60.0248
52.5289
52.7922
49.7717
40.2787
41.7751
59.7962
59.5716
52.72
52.3837
60.8032
68.4418
65.5184
101.549
93.1727
103.227
99.6656
55.2194
64.1941
62.0841
89.7406
93.482
97.8222
96.5596
54.7216
62.0587
61.6879
91.0596
89.4184
96.5499
100.331
53.7326
61.4617
61.4964
89.0474
94.0322
102.058
105.74
55.227
61.7127
62.0966
93.7254
92.7292
106.333
105.698
53.9992
62.1624
62.2775
91.6795
91.4424
104.756
100.046
53.1538
62.122
60.4716
90.5328
86.9028
98.8925
94.7172
49.6632
59.8103
56.9224
86.1612
82.3789
93.4094
88.3063
65.6686
63.0469
64.6961
99.0755
99.0702
91.8493
96.3402
63.269
64.8222
65.3332
97.6381
96.7394
95.9973
97.3245
62.5495
65.2403
64.2481
97.4136
103.848
99.7531
112.403
62.0843
63.6581
64.1693
106.128
110.43
116.477
123.724
62.8122
64.7991
65.9144
111.089
110.558
124.873
123.903
64.0887
66.3148
68.9708
109.352
103.129
121.189
110.78
62.4209
69.152
67.5438
101.178
96.9388
107.058
100.363
59.0824
66.6317
63.7982
95.7432
91.0877
98.8273
93.0665
64.4242
60.2921
63.1888
89.8978
95.3057
84.9241
93.2296
65.5914
63.5918
64.7809
95.2062
97.1768
93.1659
94.8903
64.5984
65.12
64.5997
99.7836
112.877
96.3893
104.69
65.0365
64.2576
64.2986
117.154
124.26
107.163
111.761
66.6712
64.6487
65.9381
125.131
124.126
112.471
112.993
70.0717
66.7789
68.8892
121.489
111.205
111.874
105.586
68.4799
69.0384
67.5195
107.387
100.425
103
97.5399
64.8481
66.799
64.7543
98.9245
94.4121
96.1358
91.7789
62.5428
59.027
58.9577
85.3191
92.377
90.0397
86.7027
63.8399
58.1157
58.0655
92.0827
93.602
85.1667
85.0745
64.1567
58.632
59.0177
94.5739
100.373
88.467
87.7559
63.923
58.4786
57.9164
101.86
105.727
86.386
88.6652
65.2577
58.2171
58.8442
106.36
106.934
90.454
89.9524
67.1985
58.637
58.6287
106.021
101.589
89.1784
89.3908
65.9828
58.7239
58.4831
100.065
95.7169
89.7745
87.3503
63.604
58.1508
56.968
94.3293
90.821
86.6756
83.0622
43.0933
43.9601
41.3753
38.5524
45.2715
41.565
40.4001
51.2607
55.7903
69.2276
54.6126
52.3417
50.8498
202.82
51.0077
46.4777
88.6305
248.585
49.2131
49.9926
265.095
44.3153
46.17
42.3157
45.703
43.1349
47.4659
43.3469
41.9146
38.1387
40.2909
40.5191
40.3372
40.1343
41.7057
48.9632
53.0859
45.9729
78.6778
47.5823
210.796
45.999
50.8558
256.364
48.2687
118.202
50.905
273.061
47.4695
36.296
33.7254
34.812
33.2775
35.5963
33.9295
35.6286
47.4848
44.2628
92.6821
235.45
42.7823
48.6685
223.045
46.7898
40.2795
82.0027
102.292
41.5945
44.1432
152.194
37.8806
36.5556
36.7087
39.6288
35.4601
38.8065
38.9838
37.2932
34.1939
36.1285
38.0682
34.7107
36.7227
38.5268
49.8401
242.865
48.2048
120.565
50.3506
230.962
47.99
49.116
111.637
45.826
105.544
46.2743
158.894
47.4564
111.531
76.596
65.7214
240.198
65.1459
256.046
112.042
52.5128
52.1918
47.4555
47.0562
51.4472
49.1984
45.7874
55.4348
49.856
45.2423
43.3484
50.9552
55.6047
44.5423
93.9595
54.3592
69.3804
47.9199
271.176
50.3675
59.6301
116.198
248.613
92.7621
78.9721
268.324
116.615
73.4366
51.6055
45.5472
46.5063
44.3611
47.4057
44.7669
48.0775
55.5802
43.4143
52.2369
43.8313
56.5405
44.0862
50.7524
97.2728
74.5884
60.0105
123.822
62.4649
185.716
87.8332
54.0876
48.5947
40.4003
42.2577
47.5338
55.0472
41.4263
52.7989
45.8261
39.4174
40.2673
46.5732
51.8088
40.7106
109.275
229.295
100.708
80.3563
212.89
113.574
80.1812
101.429
131.237
98.0233
77.0546
178.903
94.1249
79.3685
55.992
42.7753
52.8447
42.9289
56.4174
42.2952
53.1277
55.0706
41.6277
53.0987
42.7353
54.5196
41.8451
53.0493
207.551
243.306
207.827
139.803
117.93
142.823
124.365
169.066
185.38
178.023
92.9447
81.4133
97.4721
81.7744
137.619
168.932
153.356
70.126
67.2116
74.2465
72.3991
103.873
136.046
116.724
65.5755
63.1768
73.6283
72.5758
62.5985
96.4765
79.193
53.7672
40.6767
63.4324
49.8059
36.0237
62.5922
51.4206
26.1398
20.1341
40.3246
31.7668
36.5679
49.3854
52.5913
17.8682
18.0455
25.8733
25.3417
42.6876
59.137
71.6541
19.7129
16.1971
25.5797
24.1859
268.991
267.401
248.76
143.397
131.345
139.677
120.691
201.312
420.729
437.963
238.068
217.094
235.581
386.604
139.096
321.435
312.124
166.02
160.479
147.55
304.458
121.766
302.687
297.162
144.517
142.043
123.768
288.095
101.221
219.992
200.959
122.621
116.171
112.906
187.317
77.3518
168.081
165.75
92.6822
88.7915
82.4709
160.301
61.8716
123.492
141.304
67.2933
63.0998
64.6005
136.226
62.2358
95.7645
125.614
55.2695
52.943
60.886
114.226
52.8399
105.091
103.087
47.892
45.7299
59.7718
107.115
82.8342
83.5661
87.1563
32.5071
27.4317
47.403
39.5166
236.1
226.499
215.112
125.965
109.505
124.453
108.641
173.728
350.751
380.323
208.012
176.657
205.455
341.518
127.799
315.18
313.759
133.789
127.961
133.106
314.426
126.218
300.086
313.266
117.913
121.613
119.708
298.222
100.769
172.536
182.08
119.61
99.8791
122.466
168.382
70.5176
173.553
167.314
73.0887
70.5541
71.6674
171.628
68.8931
181.847
178.424
66.7608
66.2685
69.4851
178.74
67.9931
183.244
178.641
65.7304
65.8161
67.9916
178.784
69.3874
173.571
179.128
68.8758
71.9186
68.4173
177.89
77.3486
98.6244
83.9524
53.8052
51.2071
49.0778
53.5469
183.159
176.539
163.023
113.919
106.733
109.587
99.722
157.021
297.744
307.458
173.648
158.608
170.804
281.599
128.656
275.387
249.231
129.549
125.326
130.679
245.086
128.472
229.501
220.953
127.662
130.18
128.755
202.967
91.1492
162.636
160.958
107.591
92.0294
103.786
159.405
77.2999
162.199
160.087
76.8848
77.2672
78.9757
160.021
71.3488
150.698
158.277
77.2401
76.2467
72.7995
157.93
72.0375
140.053
156.479
72.6829
72.1723
71.6467
155.748
75.2178
131.617
150.891
72.9743
73.4285
74.5839
150.448
71.4447
123.163
111.419
49.1872
48.8548
46.6117
47.2111
145.091
169.989
170.497
92.9373
82.3697
91.6948
85.2345
115.715
206.096
227.061
137.395
125.952
131.084
204.032
94.443
165.152
170.046
110.212
106.66
100.007
162.388
76.0397
143.367
153.694
93.1195
88.7735
78.818
155.689
74.8171
157.716
174.072
81.161
79.257
74.4396
181.488
74.8011
189.034
197.094
75.2726
74.5912
75.0921
198.662
70.6592
190.777
194.757
72.8704
72.6658
72.1796
189.816
65.7844
184.288
186.648
69.2713
67.6832
66.4884
188.651
66.1799
201.692
199.757
67.4452
67.7095
65.9331
202.169
123.308
117.863
101.163
42.7541
39.763
38.2724
32.463
148.702
172.172
142.931
94.8515
79.0011
97.2397
77.1226
133.181
138.238
139.02
68.1645
62.5108
66.5305
62.56
130.994
135.824
127.039
57.9836
55.1377
59.1813
52.6986
126.247
123.826
119.837
53.1661
50.773
50.6713
48.8916
115.058
113.45
105.626
47.6478
45.0691
46.8541
43.316
105.845