/*--------------------------------*- C++ -*----------------------------------*\
  =========                 |
  \\      /  F ield         | OpenFOAM: The Open Source CFD Toolbox
   \\    /   O peration     | Website:  https://openfoam.org
    \\  /    A nd           | Version:  10
     \\/     M anipulation  |
\*---------------------------------------------------------------------------*/
FoamFile
{
    format      ascii;
    class       volScalarField;
    location    "1.8";
    object      p;
}
// * * * * * * * * * * * * * * * * * * * * * * * * * * * * * * * * * * * * * //

dimensions      [0 2 -2 0 0 0 0];

internalField   nonuniform List<scalar> 
12920
(
-3.5332e+06
-3.0002e+06
-2.82332e+06
-2.63612e+06
-2.49865e+06
-2.33535e+06
-2.1887e+06
-2.0279e+06
-1.87452e+06
-1.71257e+06
-1.55436e+06
-1.39217e+06
-1.23188e+06
-1.06922e+06
-907562
-745113
-584080
-422178
-258978
-93451.9
-3.2928e+06
-2.95119e+06
-2.81417e+06
-2.63331e+06
-2.50579e+06
-2.33846e+06
-2.19306e+06
-2.0313e+06
-1.87726e+06
-1.71433e+06
-1.55555e+06
-1.39274e+06
-1.23205e+06
-1.06934e+06
-907681
-745287
-584359
-422489
-259209
-93519.2
-2.966e+06
-2.83841e+06
-2.78205e+06
-2.62973e+06
-2.49888e+06
-2.34151e+06
-2.19439e+06
-2.0346e+06
-1.87962e+06
-1.71679e+06
-1.55736e+06
-1.39412e+06
-1.23294e+06
-1.07e+06
-908153
-745698
-584672
-422667
-259432
-93670.2
-3.05558e+06
-2.88304e+06
-2.8491e+06
-2.67892e+06
-2.54208e+06
-2.37251e+06
-2.21782e+06
-2.04801e+06
-1.88726e+06
-1.72173e+06
-1.55997e+06
-1.39591e+06
-1.23354e+06
-1.07059e+06
-908508
-746185
-585152
-423227
-259818
-93953.3
-3.04934e+06
-2.94312e+06
-2.8444e+06
-2.67906e+06
-2.53851e+06
-2.37315e+06
-2.21738e+06
-2.05145e+06
-1.89058e+06
-1.72473e+06
-1.56228e+06
-1.39747e+06
-1.23506e+06
-1.07144e+06
-909305
-746688
-585588
-423427
-259916
-93969.4
-3.38514e+06
-3.09388e+06
-2.95281e+06
-2.73542e+06
-2.58558e+06
-2.40337e+06
-2.23882e+06
-2.06633e+06
-1.89885e+06
-1.73053e+06
-1.56474e+06
-1.39919e+06
-1.2356e+06
-1.07221e+06
-909783
-747296
-585839
-423736
-260097
-94161.4
-3.54469e+06
-3.18897e+06
-2.9921e+06
-2.7626e+06
-2.6048e+06
-2.41632e+06
-2.2459e+06
-2.07124e+06
-1.90334e+06
-1.73237e+06
-1.56634e+06
-1.39987e+06
-1.23619e+06
-1.07243e+06
-910189
-747272
-585762
-423659
-260198
-94002.5
-3.63665e+06
-3.22916e+06
-3.02545e+06
-2.80107e+06
-2.64227e+06
-2.44209e+06
-2.30261e+06
-2.12191e+06
-1.94797e+06
-1.77601e+06
-1.60735e+06
-1.44014e+06
-1.27545e+06
-1.11215e+06
-909207
-746311
-585073
-423444
-259997
-93928.8
-3.54943e+06
-3.15806e+06
-3.00863e+06
-2.81684e+06
-2.65563e+06
-2.49708e+06
-2.34266e+06
-2.15456e+06
-1.97472e+06
-1.80082e+06
-1.63096e+06
-1.46332e+06
-1.29744e+06
-1.13219e+06
-945048
-745003
-583835
-422639
-259599
-93659.1
-3.3662e+06
-3.19674e+06
-3.067e+06
-2.84726e+06
-2.67495e+06
-2.5169e+06
-2.35438e+06
-2.16326e+06
-1.97965e+06
-1.8039e+06
-1.63397e+06
-1.46568e+06
-1.29881e+06
-1.13249e+06
-944773
-742467
-582278
-421756
-258992
-93519.9
-3.59935e+06
-3.30753e+06
-3.08243e+06
-2.84186e+06
-2.66882e+06
-2.51648e+06
-2.35524e+06
-2.16496e+06
-1.98153e+06
-1.80496e+06
-1.63415e+06
-1.46569e+06
-1.29873e+06
-1.13225e+06
-944999
-743261
-582190
-420978
-258384
-93150.4
-3.71974e+06
-3.42973e+06
-3.12817e+06
-2.85396e+06
-2.66422e+06
-2.51063e+06
-2.35033e+06
-2.16178e+06
-1.98054e+06
-1.80523e+06
-1.63411e+06
-1.46544e+06
-1.29862e+06
-1.13245e+06
-945672
-744600
-582993
-421447
-257941
-93004.8
-3.9641e+06
-3.42712e+06
-3.09653e+06
-2.82923e+06
-2.65137e+06
-2.43737e+06
-2.31466e+06
-2.13094e+06
-1.95507e+06
-1.78176e+06
-1.61259e+06
-1.44449e+06
-1.27904e+06
-1.11387e+06
-909325
-746322
-584593
-421953
-258437
-93066.8
-3.36212e+06
-3.21456e+06
-3.02515e+06
-2.7959e+06
-2.62394e+06
-2.41998e+06
-2.25255e+06
-2.07231e+06
-1.90662e+06
-1.73485e+06
-1.57014e+06
-1.40294e+06
-1.2392e+06
-1.07457e+06
-910696
-747034
-585227
-422576
-258714
-92993.7
-3.18756e+06
-3.07404e+06
-2.94699e+06
-2.74835e+06
-2.59249e+06
-2.38895e+06
-2.23908e+06
-2.06104e+06
-1.90001e+06
-1.73084e+06
-1.56726e+06
-1.40135e+06
-1.23798e+06
-1.07374e+06
-910887
-747742
-585899
-423198
-259226
-93203.8
-3.16335e+06
-2.99033e+06
-2.91343e+06
-2.71347e+06
-2.56288e+06
-2.37269e+06
-2.22085e+06
-2.04793e+06
-1.89179e+06
-1.72431e+06
-1.56384e+06
-1.39849e+06
-1.23659e+06
-1.07275e+06
-910691
-747515
-585900
-423404
-259503
-93262.8
-3.05912e+06
-2.88161e+06
-2.80296e+06
-2.6485e+06
-2.527e+06
-2.34691e+06
-2.20843e+06
-2.03794e+06
-1.88561e+06
-1.71975e+06
-1.56091e+06
-1.39669e+06
-1.23555e+06
-1.07219e+06
-910285
-747308
-585848
-423607
-259736
-93372.1
-3.52561e+06
-2.97159e+06
-2.84737e+06
-2.64116e+06
-2.51065e+06
-2.33405e+06
-2.19404e+06
-2.02832e+06
-1.87822e+06
-1.71463e+06
-1.55763e+06
-1.39447e+06
-1.23441e+06
-1.07123e+06
-909752
-746967
-585804
-423550
-259664
-93336.4
-3.3124e+06
-2.90155e+06
-2.77067e+06
-2.59911e+06
-2.48328e+06
-2.31913e+06
-2.18517e+06
-2.0223e+06
-1.87469e+06
-1.71209e+06
-1.55605e+06
-1.39327e+06
-1.23355e+06
-1.07062e+06
-909273
-746582
-585391
-423176
-259331
-93310
-2.88831e+06
-2.80526e+06
-2.75198e+06
-2.57297e+06
-2.47356e+06
-2.31195e+06
-2.18025e+06
-2.0186e+06
-1.872e+06
-1.71014e+06
-1.55479e+06
-1.3923e+06
-1.23294e+06
-1.07014e+06
-909019
-746246
-585088
-422833
-258926
-93214.2
-3.37427e+06
-2.97799e+06
-2.82014e+06
-2.63488e+06
-2.49842e+06
-2.3349e+06
-2.18854e+06
-2.0279e+06
-1.87452e+06
-1.71258e+06
-1.5544e+06
-1.39222e+06
-1.23186e+06
-1.06916e+06
-907502
-745086
-584114
-422221
-259013
-93497.7
-3.25633e+06
-2.94938e+06
-2.81228e+06
-2.63177e+06
-2.50526e+06
-2.33873e+06
-2.19367e+06
-2.03146e+06
-1.87733e+06
-1.71436e+06
-1.55557e+06
-1.39277e+06
-1.23203e+06
-1.06933e+06
-907691
-745312
-584371
-422506
-259235
-93566.5
-2.96193e+06
-2.83074e+06
-2.78075e+06
-2.63194e+06
-2.4985e+06
-2.34253e+06
-2.19433e+06
-2.03461e+06
-1.87959e+06
-1.71679e+06
-1.55735e+06
-1.39413e+06
-1.23293e+06
-1.06999e+06
-908187
-745718
-584661
-422675
-259483
-93762.2
-3.20045e+06
-2.88932e+06
-2.85275e+06
-2.67977e+06
-2.543e+06
-2.37167e+06
-2.21761e+06
-2.04796e+06
-1.88723e+06
-1.72174e+06
-1.55995e+06
-1.39591e+06
-1.23364e+06
-1.07063e+06
-908532
-746167
-585143
-423238
-259824
-93996.5
-3.16474e+06
-2.95067e+06
-2.84766e+06
-2.6781e+06
-2.53825e+06
-2.37303e+06
-2.21723e+06
-2.05144e+06
-1.89052e+06
-1.72472e+06
-1.5623e+06
-1.39752e+06
-1.23504e+06
-1.07142e+06
-909296
-746640
-585553
-423470
-259980
-94012.1
-3.23675e+06
-3.0924e+06
-2.94623e+06
-2.73219e+06
-2.58513e+06
-2.40312e+06
-2.23888e+06
-2.06622e+06
-1.89888e+06
-1.73051e+06
-1.56482e+06
-1.39924e+06
-1.23552e+06
-1.0722e+06
-909733
-747257
-585830
-423739
-260124
-94179.6
-3.46335e+06
-3.17464e+06
-2.9907e+06
-2.76132e+06
-2.60407e+06
-2.41572e+06
-2.24627e+06
-2.07142e+06
-1.90312e+06
-1.73244e+06
-1.56635e+06
-1.39993e+06
-1.2362e+06
-1.07248e+06
-910046
-747168
-585759
-423695
-260231
-94019.7
-3.44367e+06
-3.2038e+06
-3.01997e+06
-2.80223e+06
-2.64224e+06
-2.44241e+06
-2.30337e+06
-2.12199e+06
-1.94772e+06
-1.77586e+06
-1.60727e+06
-1.44015e+06
-1.27541e+06
-1.1118e+06
-909183
-746410
-585077
-423463
-260042
-93971.7
-3.54881e+06
-3.17377e+06
-3.01207e+06
-2.81818e+06
-2.65649e+06
-2.4978e+06
-2.3436e+06
-2.15455e+06
-1.97445e+06
-1.80063e+06
-1.63088e+06
-1.46325e+06
-1.29736e+06
-1.13206e+06
-944680
-744971
-583810
-422669
-259670
-93736.1
-3.4483e+06
-3.19217e+06
-3.06249e+06
-2.84698e+06
-2.67454e+06
-2.51755e+06
-2.35584e+06
-2.163e+06
-1.97903e+06
-1.80363e+06
-1.63393e+06
-1.46564e+06
-1.29871e+06
-1.1322e+06
-944382
-742346
-582394
-421827
-259084
-93615
-3.67585e+06
-3.31806e+06
-3.07961e+06
-2.84105e+06
-2.66868e+06
-2.51664e+06
-2.35633e+06
-2.16459e+06
-1.98095e+06
-1.80445e+06
-1.63391e+06
-1.46558e+06
-1.29861e+06
-1.1322e+06
-944395
-742985
-582240
-421054
-258438
-93251.8
-3.67798e+06
-3.42415e+06
-3.12435e+06
-2.85196e+06
-2.66375e+06
-2.51039e+06
-2.35084e+06
-2.16135e+06
-1.98026e+06
-1.80509e+06
-1.63397e+06
-1.46528e+06
-1.29853e+06
-1.13229e+06
-945090
-744537
-583012
-421387
-258003
-93123.9
-3.99836e+06
-3.44566e+06
-3.10706e+06
-2.82784e+06
-2.65074e+06
-2.4369e+06
-2.31513e+06
-2.1304e+06
-1.95466e+06
-1.78146e+06
-1.61243e+06
-1.4444e+06
-1.27891e+06
-1.11358e+06
-909164
-746232
-584594
-422041
-258513
-93134.7
-3.34578e+06
-3.21153e+06
-3.02752e+06
-2.7947e+06
-2.62328e+06
-2.41889e+06
-2.25214e+06
-2.0718e+06
-1.90642e+06
-1.73469e+06
-1.57007e+06
-1.40288e+06
-1.23913e+06
-1.07436e+06
-910646
-747011
-585251
-422640
-258799
-93047.7
-3.29874e+06
-3.08833e+06
-2.95976e+06
-2.74809e+06
-2.59091e+06
-2.388e+06
-2.23821e+06
-2.06042e+06
-1.89998e+06
-1.73072e+06
-1.56726e+06
-1.40137e+06
-1.23802e+06
-1.07379e+06
-910913
-747780
-585926
-423264
-259302
-93262.6
-3.1612e+06
-2.99086e+06
-2.91787e+06
-2.71151e+06
-2.56225e+06
-2.37201e+06
-2.22039e+06
-2.0478e+06
-1.89175e+06
-1.7242e+06
-1.56381e+06
-1.39852e+06
-1.23676e+06
-1.07282e+06
-910748
-747535
-585905
-423432
-259587
-93349.1
-3.03944e+06
-2.89012e+06
-2.80459e+06
-2.64947e+06
-2.52655e+06
-2.34681e+06
-2.20828e+06
-2.03763e+06
-1.88561e+06
-1.71971e+06
-1.56089e+06
-1.39669e+06
-1.23561e+06
-1.07222e+06
-910303
-747331
-585865
-423675
-259829
-93487.2
-3.44639e+06
-2.96645e+06
-2.84197e+06
-2.6407e+06
-2.51011e+06
-2.33393e+06
-2.19379e+06
-2.02826e+06
-1.87838e+06
-1.71464e+06
-1.55768e+06
-1.39449e+06
-1.2344e+06
-1.07127e+06
-909836
-746980
-585753
-423539
-259771
-93441.6
-3.28245e+06
-2.90345e+06
-2.76927e+06
-2.59947e+06
-2.48326e+06
-2.31912e+06
-2.18525e+06
-2.02212e+06
-1.87471e+06
-1.71207e+06
-1.5561e+06
-1.39335e+06
-1.23359e+06
-1.07068e+06
-909339
-746583
-585373
-423199
-259365
-93324.2
-2.8306e+06
-2.79682e+06
-2.7453e+06
-2.57142e+06
-2.47312e+06
-2.31181e+06
-2.18e+06
-2.01856e+06
-1.87201e+06
-1.71015e+06
-1.5548e+06
-1.39232e+06
-1.23294e+06
-1.07015e+06
-909049
-746301
-585101
-422887
-258968
-93243.3
-3.32221e+06
-2.96821e+06
-2.81433e+06
-2.6352e+06
-2.49815e+06
-2.33492e+06
-2.18809e+06
-2.02778e+06
-1.87448e+06
-1.7126e+06
-1.5544e+06
-1.39221e+06
-1.23181e+06
-1.06908e+06
-907471
-745075
-584154
-422268
-259050
-93547.4
-3.24285e+06
-2.95935e+06
-2.80506e+06
-2.63183e+06
-2.50461e+06
-2.33849e+06
-2.19402e+06
-2.03157e+06
-1.87733e+06
-1.71438e+06
-1.55555e+06
-1.39276e+06
-1.23197e+06
-1.06925e+06
-907682
-745319
-584368
-422516
-259242
-93643.5
-2.98725e+06
-2.82448e+06
-2.77381e+06
-2.63147e+06
-2.49775e+06
-2.34325e+06
-2.19465e+06
-2.03463e+06
-1.87953e+06
-1.71679e+06
-1.55734e+06
-1.39414e+06
-1.23292e+06
-1.06997e+06
-908169
-745704
-584624
-422701
-259556
-93817.1
-3.18405e+06
-2.86769e+06
-2.85229e+06
-2.67686e+06
-2.54319e+06
-2.37114e+06
-2.21725e+06
-2.04788e+06
-1.88721e+06
-1.72175e+06
-1.55996e+06
-1.39591e+06
-1.23368e+06
-1.07063e+06
-908523
-746130
-585081
-423250
-259859
-94062.3
-2.94112e+06
-2.91275e+06
-2.84411e+06
-2.67642e+06
-2.53793e+06
-2.37278e+06
-2.21699e+06
-2.05139e+06
-1.89041e+06
-1.72471e+06
-1.56229e+06
-1.39753e+06
-1.235e+06
-1.07142e+06
-909248
-746584
-585539
-423556
-260069
-94079.2
-3.29379e+06
-3.08595e+06
-2.9398e+06
-2.73059e+06
-2.58556e+06
-2.40277e+06
-2.239e+06
-2.06611e+06
-1.89883e+06
-1.73043e+06
-1.5648e+06
-1.39929e+06
-1.23552e+06
-1.07216e+06
-909647
-747202
-585799
-423747
-260182
-94232.4
-3.45448e+06
-3.15357e+06
-2.98472e+06
-2.7584e+06
-2.60369e+06
-2.41591e+06
-2.24682e+06
-2.07145e+06
-1.90292e+06
-1.7325e+06
-1.56641e+06
-1.40004e+06
-1.23629e+06
-1.0725e+06
-909944
-747129
-585747
-423718
-260292
-94077.9
-3.47268e+06
-3.19377e+06
-3.01868e+06
-2.80255e+06
-2.64109e+06
-2.44249e+06
-2.3035e+06
-2.12201e+06
-1.94743e+06
-1.7757e+06
-1.60718e+06
-1.44017e+06
-1.2753e+06
-1.11158e+06
-909162
-746359
-585084
-423479
-260105
-94070.8
-3.5359e+06
-3.168e+06
-3.01057e+06
-2.81883e+06
-2.65596e+06
-2.49815e+06
-2.34468e+06
-2.15417e+06
-1.9738e+06
-1.80027e+06
-1.63069e+06
-1.46313e+06
-1.29722e+06
-1.13182e+06
-944166
-745047
-583769
-422652
-259741
-93875.8
-3.26061e+06
-3.16515e+06
-3.06043e+06
-2.84524e+06
-2.67357e+06
-2.51816e+06
-2.35736e+06
-2.16209e+06
-1.97815e+06
-1.80336e+06
-1.63352e+06
-1.46544e+06
-1.29855e+06
-1.13192e+06
-943646
-742093
-582413
-421838
-259155
-93746.3
-3.65024e+06
-3.30982e+06
-3.07697e+06
-2.83837e+06
-2.66748e+06
-2.51659e+06
-2.35768e+06
-2.16372e+06
-1.98022e+06
-1.79946e+06
-1.63353e+06
-1.46546e+06
-1.2986e+06
-1.13208e+06
-943663
-742695
-582225
-421067
-258502
-93429.8
-3.73409e+06
-3.41057e+06
-3.12148e+06
-2.84748e+06
-2.66197e+06
-2.50917e+06
-2.3515e+06
-2.16066e+06
-1.97961e+06
-1.80461e+06
-1.63348e+06
-1.46492e+06
-1.29831e+06
-1.13203e+06
-944469
-744383
-582909
-421415
-258178
-93286.5
-3.98082e+06
-3.37496e+06
-3.11267e+06
-2.82294e+06
-2.64787e+06
-2.43629e+06
-2.3152e+06
-2.12916e+06
-1.95386e+06
-1.78098e+06
-1.61213e+06
-1.44425e+06
-1.27876e+06
-1.11334e+06
-909059
-746165
-584540
-422127
-258649
-93227.7
-3.43674e+06
-3.21068e+06
-3.02873e+06
-2.79152e+06
-2.62226e+06
-2.41748e+06
-2.25142e+06
-2.07121e+06
-1.90601e+06
-1.7344e+06
-1.57006e+06
-1.40287e+06
-1.23908e+06
-1.07423e+06
-910586
-747011
-585239
-422675
-258870
-93139.6
-3.41095e+06
-3.09191e+06
-2.96804e+06
-2.74831e+06
-2.59031e+06
-2.38681e+06
-2.23603e+06
-2.05953e+06
-1.89969e+06
-1.73046e+06
-1.56734e+06
-1.40143e+06
-1.2381e+06
-1.07383e+06
-910918
-747778
-585911
-423268
-259361
-93322
-3.24166e+06
-2.99029e+06
-2.92498e+06
-2.70967e+06
-2.5613e+06
-2.37046e+06
-2.21923e+06
-2.04726e+06
-1.89155e+06
-1.72403e+06
-1.56382e+06
-1.39856e+06
-1.23694e+06
-1.07294e+06
-910774
-747518
-585863
-423439
-259676
-93471.4
-3.11486e+06
-2.87707e+06
-2.80591e+06
-2.65021e+06
-2.5249e+06
-2.34604e+06
-2.20764e+06
-2.03726e+06
-1.88558e+06
-1.71955e+06
-1.56095e+06
-1.39668e+06
-1.23569e+06
-1.07227e+06
-910319
-747373
-585867
-423635
-259919
-93656
-3.34387e+06
-2.93054e+06
-2.83301e+06
-2.63719e+06
-2.50835e+06
-2.33328e+06
-2.19316e+06
-2.02787e+06
-1.87828e+06
-1.7147e+06
-1.55782e+06
-1.39448e+06
-1.23439e+06
-1.07126e+06
-909836
-746968
-585685
-423529
-259826
-93591.6
-3.11952e+06
-2.8883e+06
-2.76864e+06
-2.59936e+06
-2.48254e+06
-2.3187e+06
-2.18502e+06
-2.02195e+06
-1.87488e+06
-1.7121e+06
-1.55618e+06
-1.3934e+06
-1.23361e+06
-1.07071e+06
-909361
-746601
-585385
-423265
-259414
-93362.8
-2.70007e+06
-2.76035e+06
-2.73651e+06
-2.56625e+06
-2.4721e+06
-2.3114e+06
-2.17972e+06
-2.01852e+06
-1.87207e+06
-1.71019e+06
-1.55483e+06
-1.39235e+06
-1.23296e+06
-1.07019e+06
-909060
-746334
-585145
-422978
-259084
-93298.3
-3.10424e+06
-2.94336e+06
-2.80206e+06
-2.63128e+06
-2.49733e+06
-2.33432e+06
-2.18791e+06
-2.02773e+06
-1.87451e+06
-1.71267e+06
-1.55445e+06
-1.39221e+06
-1.23168e+06
-1.06897e+06
-907448
-745132
-584203
-422336
-259129
-93650.2
-3.16125e+06
-2.9313e+06
-2.7948e+06
-2.63079e+06
-2.50379e+06
-2.33836e+06
-2.19385e+06
-2.03165e+06
-1.87735e+06
-1.71439e+06
-1.55555e+06
-1.39274e+06
-1.23192e+06
-1.06919e+06
-907646
-745313
-584382
-422551
-259364
-93889.6
-2.94889e+06
-2.78882e+06
-2.77008e+06
-2.63111e+06
-2.49748e+06
-2.34411e+06
-2.19517e+06
-2.03468e+06
-1.87948e+06
-1.71678e+06
-1.55733e+06
-1.39411e+06
-1.2329e+06
-1.06992e+06
-908140
-745679
-584606
-422765
-259729
-94158.6
-3.0362e+06
-2.85448e+06
-2.85574e+06
-2.67687e+06
-2.54363e+06
-2.37103e+06
-2.21694e+06
-2.04781e+06
-1.88718e+06
-1.72174e+06
-1.55998e+06
-1.3959e+06
-1.23371e+06
-1.07061e+06
-908505
-746120
-585098
-423314
-259986
-94250.3
-3.0313e+06
-2.92334e+06
-2.84526e+06
-2.6758e+06
-2.53791e+06
-2.37262e+06
-2.21681e+06
-2.05134e+06
-1.89034e+06
-1.72471e+06
-1.56231e+06
-1.39754e+06
-1.23499e+06
-1.07141e+06
-909220
-746569
-585517
-423587
-260209
-94236.4
-3.32807e+06
-3.08928e+06
-2.93123e+06
-2.72946e+06
-2.58526e+06
-2.40252e+06
-2.23906e+06
-2.06599e+06
-1.89883e+06
-1.73042e+06
-1.56484e+06
-1.39937e+06
-1.23554e+06
-1.07213e+06
-909597
-747152
-585764
-423753
-260291
-94346.7
-3.46606e+06
-3.12463e+06
-2.97981e+06
-2.75707e+06
-2.60343e+06
-2.41579e+06
-2.24709e+06
-2.07158e+06
-1.90285e+06
-1.73265e+06
-1.56649e+06
-1.40014e+06
-1.23629e+06
-1.0725e+06
-909832
-747062
-585704
-423725
-260384
-94260.5
-3.48904e+06
-3.17471e+06
-3.01226e+06
-2.80302e+06
-2.64056e+06
-2.4427e+06
-2.30367e+06
-2.12192e+06
-1.94735e+06
-1.77565e+06
-1.60717e+06
-1.44026e+06
-1.27522e+06
-1.11147e+06
-909132
-746388
-585118
-423490
-260155
-94322.7
-3.44698e+06
-3.15625e+06
-3.00614e+06
-2.81919e+06
-2.65482e+06
-2.49856e+06
-2.34529e+06
-2.15353e+06
-1.97354e+06
-1.8001e+06
-1.63054e+06
-1.46309e+06
-1.29713e+06
-1.13165e+06
-943809
-745107
-583726
-422629
-259743
-94161.3
-3.23568e+06
-3.14879e+06
-3.06234e+06
-2.84188e+06
-2.67142e+06
-2.51827e+06
-2.35788e+06
-2.16121e+06
-1.97787e+06
-1.80327e+06
-1.63292e+06
-1.4651e+06
-1.29847e+06
-1.13175e+06
-943104
-741940
-582333
-421877
-259049
-94030
-3.37485e+06
-3.26584e+06
-3.07614e+06
-2.83324e+06
-2.66522e+06
-2.51567e+06
-2.35813e+06
-2.16295e+06
-1.97982e+06
-1.80211e+06
-1.63278e+06
-1.46511e+06
-1.2986e+06
-1.1319e+06
-942985
-742350
-582297
-421245
-258596
-93784.3
-3.73608e+06
-3.42e+06
-3.11874e+06
-2.84339e+06
-2.65928e+06
-2.50724e+06
-2.35151e+06
-2.15989e+06
-1.97891e+06
-1.80393e+06
-1.63283e+06
-1.46454e+06
-1.29817e+06
-1.13192e+06
-943877
-744162
-582952
-421500
-258346
-93764.5
-3.96912e+06
-3.35536e+06
-3.12984e+06
-2.82233e+06
-2.64548e+06
-2.43529e+06
-2.3145e+06
-2.12779e+06
-1.95312e+06
-1.78043e+06
-1.61179e+06
-1.44416e+06
-1.27867e+06
-1.11322e+06
-908999
-746037
-584482
-422210
-258757
-93454.4
-3.5198e+06
-3.20844e+06
-3.0383e+06
-2.78714e+06
-2.62117e+06
-2.41621e+06
-2.25037e+06
-2.07102e+06
-1.90554e+06
-1.73413e+06
-1.57001e+06
-1.40294e+06
-1.239e+06
-1.07422e+06
-910500
-746978
-585249
-422754
-259025
-93454.7
-3.409e+06
-3.11062e+06
-2.97725e+06
-2.75016e+06
-2.59229e+06
-2.38545e+06
-2.23321e+06
-2.05903e+06
-1.8992e+06
-1.73025e+06
-1.56734e+06
-1.40153e+06
-1.23813e+06
-1.07379e+06
-910853
-747730
-585859
-423294
-259483
-93590
-3.20591e+06
-2.99599e+06
-2.92344e+06
-2.711e+06
-2.55967e+06
-2.37022e+06
-2.21779e+06
-2.04691e+06
-1.89113e+06
-1.72385e+06
-1.56383e+06
-1.39858e+06
-1.23701e+06
-1.07298e+06
-910789
-747494
-585830
-423441
-259789
-93771.9
-3.06452e+06
-2.90734e+06
-2.81546e+06
-2.65269e+06
-2.52337e+06
-2.34525e+06
-2.20647e+06
-2.03711e+06
-1.88535e+06
-1.71945e+06
-1.56091e+06
-1.39664e+06
-1.23575e+06
-1.07231e+06
-910373
-747352
-585828
-423611
-259984
-93960.5
-3.11602e+06
-2.92055e+06
-2.8277e+06
-2.63434e+06
-2.50682e+06
-2.33306e+06
-2.19281e+06
-2.02778e+06
-1.87819e+06
-1.71478e+06
-1.5579e+06
-1.39431e+06
-1.23416e+06
-1.07122e+06
-909815
-746959
-585673
-423525
-259913
-93899.7
-3.0854e+06
-2.86571e+06
-2.76714e+06
-2.59897e+06
-2.48201e+06
-2.31846e+06
-2.18491e+06
-2.02165e+06
-1.87493e+06
-1.71211e+06
-1.55617e+06
-1.39333e+06
-1.23367e+06
-1.07076e+06
-909394
-746622
-585398
-423273
-259460
-93517
-2.60639e+06
-2.7544e+06
-2.72513e+06
-2.56475e+06
-2.47149e+06
-2.31095e+06
-2.17946e+06
-2.01847e+06
-1.87218e+06
-1.71017e+06
-1.55487e+06
-1.39235e+06
-1.23303e+06
-1.07027e+06
-909090
-746368
-585197
-423055
-259151
-93351.1
-2.9714e+06
-2.92944e+06
-2.79971e+06
-2.63073e+06
-2.49674e+06
-2.33358e+06
-2.1879e+06
-2.02767e+06
-1.87448e+06
-1.71271e+06
-1.55447e+06
-1.39218e+06
-1.23161e+06
-1.06889e+06
-907420
-745156
-584245
-422412
-259248
-93878.5
-3.1693e+06
-2.89732e+06
-2.79983e+06
-2.63138e+06
-2.50376e+06
-2.33887e+06
-2.19326e+06
-2.03158e+06
-1.87728e+06
-1.71439e+06
-1.55553e+06
-1.39274e+06
-1.2319e+06
-1.06917e+06
-907612
-745314
-584406
-422636
-259469
-94347.9
-2.83579e+06
-2.78671e+06
-2.76233e+06
-2.62872e+06
-2.49717e+06
-2.34413e+06
-2.19568e+06
-2.03467e+06
-1.8794e+06
-1.71675e+06
-1.55731e+06
-1.39407e+06
-1.23284e+06
-1.06988e+06
-908117
-745671
-584596
-422838
-259842
-94612.8
-3.0328e+06
-2.83605e+06
-2.85647e+06
-2.67403e+06
-2.54312e+06
-2.3709e+06
-2.21667e+06
-2.04776e+06
-1.88717e+06
-1.72172e+06
-1.55997e+06
-1.39586e+06
-1.2337e+06
-1.07056e+06
-908489
-746127
-585153
-423368
-260079
-94604.5
-2.95149e+06
-2.90205e+06
-2.83574e+06
-2.67475e+06
-2.53768e+06
-2.37236e+06
-2.21668e+06
-2.05125e+06
-1.89029e+06
-1.72468e+06
-1.5623e+06
-1.39754e+06
-1.23496e+06
-1.07139e+06
-909228
-746583
-585513
-423660
-260346
-94398.9
-3.23544e+06
-3.05788e+06
-2.92599e+06
-2.7295e+06
-2.58509e+06
-2.40244e+06
-2.23913e+06
-2.0659e+06
-1.89885e+06
-1.7304e+06
-1.56485e+06
-1.3994e+06
-1.23555e+06
-1.07213e+06
-909576
-747132
-585741
-423808
-260362
-94457
-3.48679e+06
-3.13996e+06
-2.97337e+06
-2.75717e+06
-2.60271e+06
-2.41566e+06
-2.24711e+06
-2.0716e+06
-1.90281e+06
-1.73269e+06
-1.56652e+06
-1.40019e+06
-1.23626e+06
-1.0725e+06
-909785
-747005
-585689
-423752
-260490
-94524.3
-3.43286e+06
-3.1774e+06
-3.01205e+06
-2.8042e+06
-2.63979e+06
-2.4425e+06
-2.30357e+06
-2.12203e+06
-1.94751e+06
-1.77575e+06
-1.60731e+06
-1.4404e+06
-1.2753e+06
-1.1115e+06
-909121
-746387
-584978
-423469
-260211
-94788.1
-3.35177e+06
-3.14661e+06
-3.0032e+06
-2.81923e+06
-2.65353e+06
-2.49883e+06
-2.34492e+06
-2.15321e+06
-1.97363e+06
-1.80008e+06
-1.63063e+06
-1.46322e+06
-1.2972e+06
-1.13166e+06
-943826
-745291
-583738
-422586
-259686
-94671.1
-3.15523e+06
-3.14386e+06
-3.06182e+06
-2.8384e+06
-2.66923e+06
-2.51792e+06
-2.35743e+06
-2.16085e+06
-1.97799e+06
-1.80313e+06
-1.63264e+06
-1.46495e+06
-1.29853e+06
-1.13167e+06
-942977
-741941
-582366
-421915
-258974
-94554.9
-3.39137e+06
-3.25104e+06
-3.08082e+06
-2.83162e+06
-2.66397e+06
-2.51448e+06
-2.35752e+06
-2.16248e+06
-1.97962e+06
-1.80366e+06
-1.63244e+06
-1.46469e+06
-1.29856e+06
-1.13166e+06
-942475
-742206
-582269
-421329
-258710
-94371.5
-3.79627e+06
-3.408e+06
-3.12287e+06
-2.83929e+06
-2.65739e+06
-2.50544e+06
-2.3508e+06
-2.15923e+06
-1.97832e+06
-1.80336e+06
-1.63247e+06
-1.46442e+06
-1.29821e+06
-1.13181e+06
-943598
-744030
-582903
-421573
-258465
-94344.8
-3.9122e+06
-3.34464e+06
-3.13555e+06
-2.82152e+06
-2.64567e+06
-2.43391e+06
-2.31306e+06
-2.12656e+06
-1.95276e+06
-1.78017e+06
-1.61156e+06
-1.44424e+06
-1.27866e+06
-1.1133e+06
-908992
-745983
-584438
-422265
-258851
-94154.5
-3.43943e+06
-3.21436e+06
-3.0368e+06
-2.78544e+06
-2.62023e+06
-2.41549e+06
-2.24955e+06
-2.07079e+06
-1.90539e+06
-1.73415e+06
-1.56968e+06
-1.40292e+06
-1.23893e+06
-1.07435e+06
-910450
-746944
-585209
-422809
-259148
-94113.9
-3.59592e+06
-3.12285e+06
-2.98245e+06
-2.75144e+06
-2.59304e+06
-2.38546e+06
-2.23119e+06
-2.05885e+06
-1.89883e+06
-1.73015e+06
-1.567e+06
-1.40141e+06
-1.23802e+06
-1.0737e+06
-910706
-747490
-585705
-423331
-259627
-94364.8
-3.05147e+06
-2.97574e+06
-2.92328e+06
-2.71447e+06
-2.55855e+06
-2.36977e+06
-2.21695e+06
-2.04695e+06
-1.89101e+06
-1.7239e+06
-1.56359e+06
-1.39849e+06
-1.237e+06
-1.07297e+06
-910734
-747431
-585772
-423466
-259879
-94457.7
-3.0387e+06
-2.90287e+06
-2.81912e+06
-2.6532e+06
-2.52216e+06
-2.3453e+06
-2.20535e+06
-2.03695e+06
-1.88502e+06
-1.7195e+06
-1.56071e+06
-1.39659e+06
-1.23572e+06
-1.07232e+06
-910371
-747303
-585745
-423573
-260057
-94570.7
-3.08779e+06
-2.90316e+06
-2.8282e+06
-2.63184e+06
-2.50569e+06
-2.33349e+06
-2.19258e+06
-2.02801e+06
-1.8779e+06
-1.71456e+06
-1.55775e+06
-1.39406e+06
-1.2341e+06
-1.07117e+06
-909804
-746930
-585650
-423518
-259943
-94421.2
-3.07498e+06
-2.84705e+06
-2.76782e+06
-2.599e+06
-2.48201e+06
-2.31836e+06
-2.18469e+06
-2.02151e+06
-1.87444e+06
-1.71164e+06
-1.55582e+06
-1.39302e+06
-1.23376e+06
-1.07082e+06
-909488
-746670
-585414
-423288
-259532
-93853.2
-2.5721e+06
-2.73223e+06
-2.71748e+06
-2.56346e+06
-2.47092e+06
-2.31016e+06
-2.17929e+06
-2.01827e+06
-1.87245e+06
-1.71025e+06
-1.55488e+06
-1.39236e+06
-1.23308e+06
-1.07032e+06
-909139
-746402
-585208
-423070
-259210
-93412.2
-1.67583e+06
-1.79978e+06
-1.67573e+06
-1.80327e+06
-1.67536e+06
-1.79937e+06
-1.675e+06
-1.50727e+06
-1.63324e+06
-1.51074e+06
-1.63305e+06
-1.50697e+06
-1.63257e+06
-1.51061e+06
-1.67632e+06
-1.80463e+06
-1.67587e+06
-1.79895e+06
-1.67573e+06
-1.80415e+06
-1.67533e+06
-1.51135e+06
-1.63345e+06
-1.50695e+06
-1.63294e+06
-1.51117e+06
-1.63293e+06
-1.50659e+06
-2.20424e+06
-2.35183e+06
-2.2092e+06
-2.34319e+06
-2.2041e+06
-2.35291e+06
-2.20923e+06
-2.02262e+06
-2.16191e+06
-2.02386e+06
-2.15452e+06
-2.0225e+06
-2.16172e+06
-2.02358e+06
-1.84686e+06
-1.97897e+06
-1.84654e+06
-1.97455e+06
-1.84679e+06
-1.97861e+06
-1.84635e+06
-1.67666e+06
-1.80357e+06
-1.67599e+06
-1.80073e+06
-1.67654e+06
-1.80342e+06
-1.67594e+06
-1.50827e+06
-1.63373e+06
-1.50742e+06
-1.63089e+06
-1.50823e+06
-1.6337e+06
-1.50739e+06
-1.34193e+06
-1.4656e+06
-1.34039e+06
-1.46326e+06
-1.3419e+06
-1.46557e+06
-1.34033e+06
-1.17643e+06
-1.29883e+06
-1.17407e+06
-1.29739e+06
-1.1764e+06
-1.29875e+06
-1.17389e+06
-1.01155e+06
-1.13238e+06
-1.00738e+06
-1.13211e+06
-1.01141e+06
-1.13233e+06
-1.00695e+06
-2.21048e+06
-2.35546e+06
-2.21215e+06
-2.35532e+06
-2.21053e+06
-2.35629e+06
-2.21206e+06
-2.02469e+06
-2.165e+06
-2.02645e+06
-2.16314e+06
-2.02433e+06
-2.16482e+06
-2.02602e+06
-1.8469e+06
-1.98118e+06
-1.84794e+06
-1.97926e+06
-1.84675e+06
-1.98078e+06
-1.84774e+06
-1.67632e+06
-1.80471e+06
-1.67653e+06
-1.80372e+06
-1.67627e+06
-1.8043e+06
-1.67645e+06
-1.50754e+06
-1.6341e+06
-1.50763e+06
-1.63396e+06
-1.50756e+06
-1.63399e+06
-1.50756e+06
-1.34043e+06
-1.4657e+06
-1.34036e+06
-1.46567e+06
-1.34038e+06
-1.46564e+06
-1.34029e+06
-1.17404e+06
-1.29872e+06
-1.1739e+06
-1.29875e+06
-1.17388e+06
-1.29865e+06
-1.17384e+06
-1.00733e+06
-1.13227e+06
-1.00702e+06
-1.13228e+06
-1.00692e+06
-1.13224e+06
-1.00662e+06
-2.21203e+06
-2.35213e+06
-2.20968e+06
-2.35587e+06
-2.21192e+06
-2.3524e+06
-2.20949e+06
-2.02663e+06
-2.16294e+06
-2.02565e+06
-2.16475e+06
-2.02625e+06
-2.16265e+06
-2.02554e+06
-1.84844e+06
-1.98101e+06
-1.84885e+06
-1.98112e+06
-1.84825e+06
-1.98083e+06
-1.84876e+06
-1.67662e+06
-1.80532e+06
-1.67659e+06
-1.80461e+06
-1.67652e+06
-1.80525e+06
-1.67649e+06
-1.50763e+06
-1.63412e+06
-1.50748e+06
-1.63401e+06
-1.50755e+06
-1.63401e+06
-1.50737e+06
-1.34036e+06
-1.46551e+06
-1.3402e+06
-1.46561e+06
-1.34026e+06
-1.46541e+06
-1.34013e+06
-1.17393e+06
-1.29861e+06
-1.17399e+06
-1.29864e+06
-1.17385e+06
-1.29855e+06
-1.17391e+06
-1.00691e+06
-1.13242e+06
-1.00714e+06
-1.13223e+06
-1.0067e+06
-1.1323e+06
-1.00693e+06
-2.2084e+06
-2.34097e+06
-2.20384e+06
-2.35064e+06
-2.20819e+06
-2.34167e+06
-2.20359e+06
-2.02514e+06
-2.15479e+06
-2.02384e+06
-2.1615e+06
-2.02497e+06
-2.15443e+06
-2.02353e+06
-1.84869e+06
-1.97665e+06
-1.84873e+06
-1.98037e+06
-1.84856e+06
-1.97632e+06
-1.84859e+06
-1.67661e+06
-1.80225e+06
-1.67757e+06
-1.80516e+06
-1.67651e+06
-1.80207e+06
-1.67751e+06
-1.50741e+06
-1.63198e+06
-1.50864e+06
-1.63403e+06
-1.5073e+06
-1.63184e+06
-1.5086e+06
-1.34015e+06
-1.46349e+06
-1.34179e+06
-1.46534e+06
-1.34009e+06
-1.46339e+06
-1.34184e+06
-1.17396e+06
-1.29718e+06
-1.17591e+06
-1.29857e+06
-1.1739e+06
-1.29716e+06
-1.17601e+06
-1.00707e+06
-1.13125e+06
-1.00996e+06
-1.13236e+06
-1.00669e+06
-1.13132e+06
-1.00994e+06
-2.20419e+06
-2.3535e+06
-2.20908e+06
-2.34407e+06
-2.20411e+06
-2.35449e+06
-2.20854e+06
-2.02239e+06
-2.16161e+06
-2.02337e+06
-2.15426e+06
-2.0218e+06
-2.16112e+06
-2.02261e+06
-1.84672e+06
-1.97838e+06
-1.84623e+06
-1.97391e+06
-1.84649e+06
-1.97768e+06
-1.84596e+06
-1.67649e+06
-1.80333e+06
-1.67591e+06
-1.80034e+06
-1.67635e+06
-1.80317e+06
-1.67569e+06
-1.50821e+06
-1.63367e+06
-1.50734e+06
-1.63074e+06
-1.50809e+06
-1.63343e+06
-1.50711e+06
-1.34189e+06
-1.46553e+06
-1.34029e+06
-1.46315e+06
-1.3418e+06
-1.46535e+06
-1.34015e+06
-1.17637e+06
-1.29871e+06
-1.17382e+06
-1.29725e+06
-1.17623e+06
-1.29858e+06
-1.17365e+06
-1.01132e+06
-1.13228e+06
-1.00674e+06
-1.13188e+06
-1.01104e+06
-1.13212e+06
-1.00617e+06
-2.21044e+06
-2.35682e+06
-2.21194e+06
-2.35693e+06
-2.20993e+06
-2.35775e+06
-2.21143e+06
-2.0241e+06
-2.16466e+06
-2.02578e+06
-2.16235e+06
-2.02335e+06
-2.16396e+06
-2.02508e+06
-1.84664e+06
-1.98058e+06
-1.84765e+06
-1.97833e+06
-1.84635e+06
-1.97997e+06
-1.84736e+06
-1.67623e+06
-1.80411e+06
-1.67637e+06
-1.80342e+06
-1.67598e+06
-1.80256e+06
-1.67582e+06
-1.50752e+06
-1.6339e+06
-1.50755e+06
-1.63366e+06
-1.50733e+06
-1.63332e+06
-1.50851e+06
-1.34034e+06
-1.46561e+06
-1.34026e+06
-1.46549e+06
-1.34021e+06
-1.46553e+06
-1.34024e+06
-1.17381e+06
-1.29863e+06
-1.17381e+06
-1.29859e+06
-1.17363e+06
-1.29862e+06
-1.17376e+06
-1.00674e+06
-1.13221e+06
-1.00637e+06
-1.13197e+06
-1.00623e+06
-1.13208e+06
-1.00589e+06
-2.21182e+06
-2.35267e+06
-2.20938e+06
-2.35728e+06
-2.21134e+06
-2.35329e+06
-2.20894e+06
-2.02605e+06
-2.16251e+06
-2.0254e+06
-2.16395e+06
-2.02543e+06
-2.16199e+06
-2.02491e+06
-1.84815e+06
-1.98071e+06
-1.84868e+06
-1.98038e+06
-1.8478e+06
-1.98025e+06
-1.84831e+06
-1.67647e+06
-1.80517e+06
-1.67642e+06
-1.80277e+06
-1.67625e+06
-1.8048e+06
-1.67605e+06
-1.50755e+06
-1.63394e+06
-1.5073e+06
-1.63353e+06
-1.50855e+06
-1.6336e+06
-1.50703e+06
-1.34023e+06
-1.46534e+06
-1.34009e+06
-1.46548e+06
-1.34018e+06
-1.46508e+06
-1.33992e+06
-1.17382e+06
-1.29852e+06
-1.17386e+06
-1.29859e+06
-1.1738e+06
-1.29837e+06
-1.1737e+06
-1.00654e+06
-1.13224e+06
-1.00679e+06
-1.13211e+06
-1.0061e+06
-1.13204e+06
-1.00636e+06
-2.20807e+06
-2.34206e+06
-2.20348e+06
-2.35132e+06
-2.20759e+06
-2.34245e+06
-2.20294e+06
-2.02483e+06
-2.15425e+06
-2.02338e+06
-2.16084e+06
-2.02429e+06
-2.15344e+06
-2.0227e+06
-1.84848e+06
-1.97618e+06
-1.84852e+06
-1.97979e+06
-1.84811e+06
-1.97552e+06
-1.84811e+06
-1.67645e+06
-1.80197e+06
-1.67746e+06
-1.80476e+06
-1.67609e+06
-1.80151e+06
-1.67715e+06
-1.50723e+06
-1.63177e+06
-1.50857e+06
-1.63363e+06
-1.50693e+06
-1.63142e+06
-1.50837e+06
-1.34005e+06
-1.46334e+06
-1.34184e+06
-1.46502e+06
-1.33987e+06
-1.46311e+06
-1.34172e+06
-1.17385e+06
-1.29715e+06
-1.17602e+06
-1.29837e+06
-1.17368e+06
-1.297e+06
-1.17591e+06
-1.00652e+06
-1.13132e+06
-1.00994e+06
-1.13209e+06
-1.00605e+06
-1.13116e+06
-1.00974e+06
-2.20412e+06
-2.35495e+06
-2.20834e+06
-2.34486e+06
-2.20377e+06
-2.35532e+06
-2.20775e+06
-2.02167e+06
-2.1609e+06
-2.02239e+06
-2.15365e+06
-2.0213e+06
-2.16027e+06
-2.02195e+06
-1.84646e+06
-1.9775e+06
-1.84591e+06
-1.97354e+06
-1.84638e+06
-1.97722e+06
-1.84587e+06
-1.67629e+06