/*--------------------------------*- C++ -*----------------------------------*\
  =========                 |
  \\      /  F ield         | OpenFOAM: The Open Source CFD Toolbox
   \\    /   O peration     | Website:  https://openfoam.org
    \\  /    A nd           | Version:  10
     \\/     M anipulation  |
\*---------------------------------------------------------------------------*/
FoamFile
{
    format      ascii;
    class       volVectorField;
    location    "1.8";
    object      U;
}
// * * * * * * * * * * * * * * * * * * * * * * * * * * * * * * * * * * * * * //

dimensions      [0 1 -1 0 0 0 0];

internalField   nonuniform List<vector> 
12920
(
(527.996 160.082 35.8242)
(228.065 132.451 32.5142)
(206.295 66.1162 55.7934)
(125.303 25.3051 11.658)
(166.236 29.5918 3.67164)
(135.53 20.7039 -0.587081)
(150.489 21.9033 -2.18518)
(130.113 17.2289 -2.68706)
(133.824 15.5376 -2.81992)
(122.086 10.4169 -2.37687)
(124.53 6.36151 -1.61732)
(119.232 1.60314 -0.642683)
(121.047 -2.10162 0.268756)
(118.757 -3.39356 0.539032)
(119.71 -4.19422 0.589326)
(119.094 -3.89853 0.263049)
(120.211 -3.53521 -0.152236)
(121.932 -1.65371 -0.450709)
(123.103 0.691739 -1.61515)
(128.706 2.53505 -2.41105)
(32.9477 8.50612 -12.8453)
(-153.165 -40.6635 -13.7508)
(145.988 -66.3213 3.21798)
(3.51708 -28.8101 7.25131)
(127.741 -27.0783 3.96238)
(75.0375 -4.16019 5.0493)
(118.783 5.67031 3.38917)
(98.0903 11.0424 1.98098)
(114.403 11.6362 0.902069)
(105.678 8.95392 0.0980669)
(112.732 5.55794 -0.0512601)
(108.533 2.36069 -0.217718)
(110.747 0.642055 -0.29828)
(107.872 0.152392 -0.430292)
(108.269 0.727387 -0.483007)
(106.266 1.6245 -0.72544)
(106.067 4.02055 -1.04894)
(106.558 6.2987 -1.75843)
(108.706 9.14259 -3.51474)
(117.778 10.7075 -3.08243)
(175.351 72.0936 -66.573)
(120.302 -2.15582 -27.9504)
(216.161 -23.5253 -5.48167)
(157.908 -15.5587 2.13875)
(167.697 -34.0756 2.43007)
(115.526 -12.0263 1.9189)
(127.528 -8.43627 1.49595)
(104.339 5.62852 0.826024)
(113.278 6.96223 0.521377)
(103.21 8.67476 0.0707588)
(108.124 5.29955 0.00211547)
(103.876 3.53095 -0.254863)
(106.465 1.29924 -0.311521)
(104.468 1.58303 -0.541403)
(105.916 1.84457 -0.664324)
(104.811 3.16173 -0.774924)
(105.048 4.37325 -0.972563)
(106.325 8.13945 -1.41585)
(111.226 10.6987 -1.60865)
(118.613 9.57804 -0.567367)
(146.35 -186.216 -82.9451)
(110.358 -88.542 -34.3661)
(221.74 -51.8163 -8.05556)
(175.396 -9.25146 -1.80282)
(168.455 6.12701 8.36216)
(103.513 11.6503 3.92749)
(114.683 7.89989 1.55824)
(90.3378 12.9644 0.900485)
(102.197 10.3986 0.763155)
(91.6057 9.93377 0.512391)
(97.8931 5.43878 0.404031)
(93.5734 3.60545 0.138718)
(97.3831 2.34595 0.0621423)
(96.3206 3.15268 -0.431963)
(99.0603 4.6633 -0.856014)
(99.2303 6.41856 -1.11159)
(100.743 7.97602 -0.93463)
(102.174 8.20665 0.135903)
(104.093 6.577 1.19437)
(100.869 4.74763 1.81498)
(392.297 2.84104 105.019)
(394.402 -39.7517 12.9476)
(353.344 -19.1271 15.2968)
(181.762 2.98304 8.83433)
(175.488 11.8453 0.629929)
(121.434 15.8664 -1.03267)
(129.428 5.33352 -0.740697)
(105.185 11.9826 -0.327533)
(110.013 5.41377 0.0272909)
(97.3591 8.50026 -0.00802707)
(98.7494 1.34402 0.705823)
(90.6922 1.6473 0.876533)
(89.5037 -1.40951 1.05187)
(84.2481 2.1826 0.851292)
(84.3734 4.30237 0.648019)
(81.7075 7.16154 0.804563)
(81.2529 6.83432 1.15889)
(79.5861 6.11466 1.69444)
(78.2674 4.79551 1.89177)
(75.7943 2.26492 1.25437)
(237.324 -135.834 -32.6725)
(210.651 -92.0615 13.6911)
(262.81 29.3801 28.9539)
(165.697 59.2183 14.6469)
(176.828 53.6986 7.67561)
(131.791 43.9409 0.922956)
(140.095 25.7039 0.646427)
(119.855 26.1044 0.181382)
(118.341 17.7894 0.731104)
(106.73 17.4302 0.502414)
(103.795 7.57705 2.0976)
(88.7416 5.43001 2.66681)
(75.8642 3.0073 2.28048)
(67.2081 3.82154 1.37597)
(64.3224 5.01133 1.0249)
(62.8846 5.18286 1.01564)
(61.8198 4.41868 0.895913)
(62.4226 2.53432 0.87892)
(64.5227 1.84573 0.690105)
(68.119 0.780796 0.408867)
(316.091 -49.9888 -134.256)
(219.185 -147.551 -34.2743)
(265.707 -79.4988 4.12006)
(218.866 -6.29803 13.0745)
(239.099 29.068 14.6987)
(185.533 44.1651 10.3309)
(155.913 21.5038 5.99162)
(116.418 34.3054 2.06588)
(106.626 16.0863 0.905647)
(87.7866 19.5906 2.33379)
(78.903 5.8597 2.34584)
(58.6526 13.1524 1.62975)
(55.3303 7.16579 0.650598)
(51.2684 7.37459 0.731218)
(53.7627 2.76835 0.532311)
(54.0481 2.00473 0.839184)
(55.9518 -0.484523 0.797175)
(58.5126 -3.50604 0.506904)
(61.9217 -5.50265 0.393458)
(67.9069 -4.39478 0.233612)
(196.938 54.9813 18.9756)
(48.1944 -25.1778 -23.7715)
(158.764 -24.605 -17.4268)
(123.158 -15.2125 -14.0432)
(192.787 14.3547 -6.11152)
(172.878 54.7575 -1.3764)
(166.408 46.5705 0.60095)
(125.814 42.2205 -0.20169)
(115.283 38.1123 -1.45047)
(101.803 20.3306 0.65594)
(87.568 16.3622 1.614)
(60.9436 14.0077 0.22095)
(57.108 9.41574 -0.206871)
(57.5392 0.129587 -0.451857)
(63.2441 -0.147145 -1.32382)
(68.027 -3.61156 -0.184193)
(67.7022 -6.86909 0.763864)
(68.3332 -9.35822 1.09216)
(68.9789 -10.879 0.967632)
(71.2235 -8.24034 0.49086)
(262.836 -14.735 -198.083)
(-20.5778 15.2993 -14.6174)
(140.699 -5.40257 -17.4217)
(80.6518 6.48694 -10.5215)
(140.438 24.4539 -8.90774)
(124.041 40.2166 -4.19025)
(146.652 65.8545 0.773886)
(142.087 65.9352 -0.821006)
(139.417 55.1688 -1.12414)
(126.318 30.9445 0.809037)
(108.527 26.9299 0.699901)
(87.8112 24.6893 0.804255)
(74.8602 16.655 -0.00239122)
(68.6475 9.10002 -0.288541)
(73.4485 4.40431 -1.41538)
(75.8183 0.279079 -2.41432)
(75.6943 -4.05 -0.645835)
(72.9958 -11.0831 0.697819)
(72.5128 -14.2352 0.790209)
(73.1732 -11.4133 0.432502)
(71.0634 -36.5192 -27.3464)
(-31.7073 30.1115 -15.5067)
(115.977 11.3114 -5.77336)
(53.3876 11.7585 1.63981)
(121.882 36.1906 2.84199)
(97.6302 50.0343 -1.38208)
(124.716 69.0452 -1.83461)
(146.756 78.4916 -1.17655)
(155.461 72.0558 -0.971895)
(121.953 35.7176 1.32658)
(114.703 35.9847 -0.0347889)
(113.798 29.5052 -0.143116)
(116.856 19.6298 -0.190817)
(120.535 16.2942 0.377835)
(110.361 17.0634 2.93898)
(103.43 14.5803 0.286924)
(92.138 3.27471 0.206374)
(80.772 -6.743 0.958188)
(76.8086 -13.4049 0.169624)
(74.5841 -11.2471 -0.0788312)
(161.329 14.0079 -97.3004)
(123.27 24.265 -1.51092)
(166.445 -2.79568 3.4997)
(82.6241 -17.9793 3.57568)
(113.724 -1.78527 7.82185)
(71.2799 34.0014 0.467599)
(104.258 55.7344 0.0107533)
(129.489 68.1012 -0.132789)
(145.821 63.2145 1.81056)
(121.295 41.4599 0.292229)
(120.042 27.9361 0.529555)
(122.661 14.7964 1.02366)
(124.575 5.63149 0.835546)
(125.262 3.30349 1.11893)
(134.119 8.89317 1.8754)
(128.02 20.3288 2.78753)
(110.21 17.753 2.92647)
(87.9486 1.6783 0.564554)
(80.0824 -7.75662 -0.930465)
(75.0847 -7.41494 -0.913469)
(201.174 124.492 -21.3469)
(102.021 -45.6609 4.80095)
(149.356 16.0465 -4.38431)
(65.3957 14.5914 -3.278)
(105.979 38.9977 4.59629)
(25.0006 6.75929 1.20507)
(67.4943 17.5228 1.22523)
(83.6651 35.0295 1.25807)
(86.3483 33.6556 0.606381)
(92.097 29.7366 -0.178506)
(103.614 17.7784 0.0169516)
(103.335 10.2597 -0.0880198)
(98.3641 2.87548 0.192958)
(97.9747 -3.35979 -0.414273)
(105.645 -4.10753 -1.52735)
(107.149 20.9083 -0.0777971)
(102.415 26.3037 0.156725)
(97.6091 19.4394 -0.379379)
(90.0059 3.87285 0.167709)
(78.0203 -2.03092 0.171706)
(486.495 110.091 -181.097)
(119.962 48.8034 -12.1458)
(149.137 25.7116 19.9342)
(10.0291 22.5771 3.32064)
(105.638 30.9962 1.24232)
(33.4919 -12.3997 -1.08543)
(75.0113 22.2561 -1.02284)
(57.9413 19.7371 0.116685)
(78.4105 23.4869 0.224617)
(74.29 21.7516 -0.0267311)
(81.4229 18.3776 -0.175122)
(77.8504 13.0386 -0.218749)
(82.2672 7.10297 -0.453772)
(80.9813 3.0493 -0.437833)
(79.5311 9.81227 -0.0235292)
(86.8721 22.505 0.817729)
(94.71 24.8691 1.86271)
(99.3979 15.535 1.90075)
(104.375 8.58338 2.31283)
(100.037 3.1668 2.22675)
(270.341 17.2974 42.0842)
(103.992 101.078 12.2292)
(138.337 53.6218 13.7871)
(37.7663 24.3108 6.78985)
(105.381 29.2099 4.88686)
(49.6597 7.19363 0.638202)
(80.1973 47.0671 0.303659)
(56.9403 7.20032 0.0605987)
(74.8373 28.1129 0.0950323)
(70.7702 12.3062 0.122143)
(82.1331 17.7395 0.468061)
(80.8293 7.51809 0.662771)
(84.7115 7.46144 1.33635)
(82.3104 0.646923 1.82396)
(82.9714 1.3382 2.33073)
(83.5957 2.81517 3.57793)
(88.2091 2.75252 3.6943)
(90.5467 -4.08574 2.69454)
(95.6018 -9.61092 1.69198)
(98.8896 -10.3567 0.93643)
(139.865 293.638 -7.16961)
(-138.063 118.523 31.9969)
(114.208 25.4314 -0.531776)
(-51.4395 7.60485 6.29998)
(88.8325 8.89057 0.772042)
(-4.34248 -3.76288 0.634472)
(76.5454 14.0091 0.340138)
(49.558 5.31261 0.177864)
(76.2393 12.2161 0.30807)
(72.0917 7.54007 0.276482)
(80.9898 8.21478 0.64871)
(77.682 3.1933 0.695673)
(78.8552 0.479725 1.28722)
(73.8996 -4.79629 1.25223)
(72.9653 -5.56849 1.15403)
(70.9219 -7.50589 1.16255)
(71.8885 -7.31764 0.374089)
(73.6976 -9.8079 -1.08913)
(78.2354 -10.3852 -2.41702)
(82.4049 -8.07432 -2.65988)
(140.668 118.542 -24.0025)
(37.6809 -15.5149 14.5993)
(94.5427 -12.8657 21.1449)
(2.28621 -2.23952 2.58915)
(83.4371 -2.52454 0.594683)
(32.7526 -5.98785 -1.92071)
(79.2862 4.37036 -0.75597)
(56.5027 -3.38194 -1.10257)
(79.7629 6.9633 -0.501633)
(71.1513 3.09197 -0.626528)
(81.5431 8.49907 -0.232668)
(74.9116 3.83951 -0.261337)
(76.544 3.51154 -0.050558)
(69.0171 -1.7196 -0.687492)
(68.2874 -2.8144 -1.13342)
(64.2568 -4.48783 -1.91446)
(64.9815 -3.6619 -2.59917)
(66.2475 -3.83811 -3.47557)
(70.363 -2.53541 -4.18518)
(78.2645 2.11269 -3.32287)
(61.3702 77.5844 79.7805)
(-76.9144 17.915 -47.5341)
(122.263 8.6607 -11.8385)
(-31.3088 -9.99204 -0.681666)
(93.1981 -7.57528 -5.09254)
(23.2803 -3.12768 -2.72805)
(83.7869 -0.827697 -1.58995)
(56.1696 2.18935 -0.522703)
(79.0712 3.36409 0.251509)
(65.9979 4.66081 -0.0981017)
(75.5603 6.70212 -0.571719)
(69.1753 7.86658 -1.05354)
(73.6057 8.69754 -1.2506)
(70.1602 8.05362 -1.40998)
(71.3202 7.88813 -1.16554)
(69.0328 7.58825 -0.943727)
(69.4806 7.24238 -0.955228)
(70.2075 6.31154 -1.1483)
(73.0488 5.30718 -1.10483)
(78.6964 6.79031 -0.298479)
(-177.965 -6.98945 -156.85)
(-145.246 74.5355 -50.8212)
(103.52 30.9653 -11.3272)
(42.9543 22.7473 -8.07844)
(114.58 -6.87896 -9.09835)
(87.2356 -5.22568 -7.00049)
(119.682 -8.50549 -3.55053)
(107.737 -6.17555 -2.14965)
(117.938 -0.104713 0.991455)
(99.8089 3.73607 1.76566)
(96.3919 10.681 1.93081)
(84.2702 10.4698 0.443217)
(87.4918 10.392 -0.246979)
(86.3561 8.59633 -0.433579)
(90.7425 7.55589 -0.253146)
(92.3475 6.0575 0.150155)
(95.4343 5.95291 0.973651)
(95.8119 6.53207 1.55556)
(96.4151 5.5185 2.17909)
(92.3145 5.43039 1.80807)
(483.862 -66.5722 129.4)
(57.1366 -12.7217 49.7418)
(146.125 20.701 0.178941)
(55.0724 20.5981 -4.9939)
(112.686 13.7917 -4.45927)
(58.9768 7.75873 -2.56183)
(91.8276 2.91955 -1.66507)
(67.5016 4.94644 -1.89182)
(86.7196 8.40418 -0.89119)
(76.4158 11.9522 -0.590504)
(85.9573 12.8403 0.437195)
(82.1179 11.4292 0.373979)
(87.7618 8.62567 0.666486)
(86.4534 6.17051 0.682591)
(89.6563 4.28856 1.1416)
(89.4239 2.72515 1.42321)
(91.031 1.72589 1.64962)
(91.2653 1.25641 1.55227)
(91.3726 0.390388 1.84856)
(85.194 1.14237 1.45792)
(78.7319 216.322 -27.6844)
(0.201151 117.579 1.18407)
(135.936 85.7107 0.391301)
(55.5052 55.7538 3.64202)
(124.203 31.9982 4.21749)
(93.5714 19.2687 3.26964)
(118.743 6.34666 3.45776)
(98.2411 3.91065 2.78695)
(105.491 2.06507 3.26656)
(94.8188 4.04818 2.51325)
(101.42 4.72526 2.42365)
(98.8588 4.61497 1.79138)
(103.416 3.11887 1.39159)
(102.126 1.97317 0.840388)
(103.743 -1.54905 0.586776)
(99.9149 -4.53419 0.835802)
(94.0209 -5.68675 2.07026)
(81.2043 -2.8948 2.42863)
(75.0895 0.521065 1.8476)
(69.6219 1.40178 1.02782)
(245.312 -31.7706 33.7838)
(-72.9314 59.8618 23.0239)
(151.898 20.2878 6.80892)
(97.3998 8.47038 0.186387)
(157.197 10.7323 -3.06539)
(136.466 3.89105 -3.59671)
(156.134 6.97894 -4.22632)
(140.184 6.10405 -4.2669)
(142.396 7.88339 -3.49851)
(128.189 6.35661 -2.79699)
(126.653 4.03835 -1.26798)
(118.269 1.00561 -0.0847974)
(118.791 -0.794842 0.917152)
(116.123 -1.5073 0.986974)
(116.911 -1.72461 0.880264)
(115.982 -1.11308 0.217342)
(115.868 -0.630967 -0.95107)
(115.775 0.477487 -2.22023)
(116.29 0.607887 -4.12312)
(118.704 -0.441289 -4.72413)
(18.7087 -139.126 91.9198)
(-158.991 -18.7811 17.4013)
(126.255 -45.8782 -19.3434)
(1.52051 -19.3696 8.65819)
(119.541 -26.0197 2.40495)
(68.5799 -7.80793 7.04504)
(113.441 -0.411693 4.26808)
(93.4812 5.58662 2.54436)
(109.88 7.69237 1.4378)
(99.7616 6.716 0.258552)
(105.775 4.95753 0.112761)
(100.37 3.13034 -0.357688)
(102.222 2.35362 -0.52328)
(98.9484 2.18518 -0.908919)
(99.0249 2.95853 -1.10092)
(97.049 3.16332 -1.44475)
(96.3388 4.09299 -2.04949)
(95.5681 4.01079 -2.87766)
(95.7671 2.63087 -4.02965)
(97.9369 1.75605 -2.95801)
(328.742 190.306 -22.7462)
(77.2267 49.9297 6.35666)
(183.659 6.5408 -9.31458)
(130.21 7.70229 -1.39395)
(153.226 -18.4451 1.84185)
(104.228 -3.94083 3.06719)
(118.278 -5.21918 2.81741)
(93.7323 6.22093 1.34428)
(103.646 6.22699 1.12914)
(92.622 7.90306 0.348834)
(98.1726 4.88471 0.379264)
(93.6363 3.92635 -0.160723)
(96.4052 2.3617 -0.244292)
(94.0886 2.88669 -0.670627)
(95.1027 2.94884 -0.820331)
(93.8881 3.54068 -1.00996)
(94.1105 3.40314 -1.06391)
(94.7821 2.85959 -1.52943)
(96.6955 -0.218408 -1.27829)
(98.7096 -3.82773 0.399926)
(104.291 -141.807 12.788)
(4.34396 -13.65 -19.7525)
(145.942 -14.1326 15.1262)
(89.5396 9.76657 8.25154)
(128.224 9.53526 10.8346)
(83.8986 13.3061 4.26059)
(104.038 8.27795 1.95353)
(79.7075 12.5871 1.12569)
(93.4595 8.84258 1.12654)
(82.6649 8.22646 0.841989)
(90.2034 4.03152 0.881648)
(86.1145 2.97213 0.358845)
(90.2865 2.30301 0.138567)
(88.8337 3.01681 -0.656954)
(90.4092 4.14152 -1.13376)
(89.2791 4.22325 -1.34227)
(89.0776 4.1842 -1.13109)
(88.5514 2.83586 -0.294575)
(89.2752 1.17251 2.60927)
(85.6833 0.908239 2.84645)
(372.462 -253.3 -144.784)
(280.01 -96.1327 -24.0319)
(267.686 -13.1297 39.6165)
(148.885 5.41691 20.8722)
(156.071 12.616 4.80975)
(102.228 18.5914 0.540388)
(113.825 8.60849 0.202236)
(88.33 15.6168 0.0528606)
(96.2471 6.68095 0.477707)
(83.7915 9.19728 0.329433)
(87.9156 1.03344 1.60737)
(81.8212 1.70771 1.6501)
(83.4882 -0.677591 1.5316)
(79.855 2.13485 0.730928)
(80.2475 3.02901 0.487781)
(77.7646 4.75969 0.635528)
(76.846 4.37101 1.27493)
(74.8162 3.54726 2.05931)
(74.586 2.77468 2.44497)
(73.7033 1.07009 1.65565)
(202.386 -1.29152 -91.8925)
(120.216 44.8702 4.12436)
(204.665 84.9645 34.2901)
(114.702 68.6745 15.4419)
(150.587 46.5225 11.1439)
(100.458 35.6208 1.4929)
(114.694 18.6147 1.79257)
(91.6912 21.7613 0.41874)
(96.0578 12.6943 1.19136)
(85.0427 12.2925 1.23377)
(85.209 4.8239 3.64336)
(76.6905 4.34076 4.03516)
(71.308 3.57194 3.05816)
(65.2329 5.10274 1.2178)
(63.3088 5.66151 1.36142)
(61.9823 5.20634 1.88451)
(61.2136 4.06259 2.24213)
(62.3982 1.7834 2.38861)
(64.7758 1.16183 2.13487)
(68.6135 0.515252 1.29258)
(203.402 -65.9766 79.8644)
(73.808 -15.8971 12.9573)
(183.06 23.2182 29.2668)
(156.754 41.0247 16.1465)
(194.039 47.7741 19.7599)
(142.896 50.4341 13.1637)
(128.592 24.7019 9.64766)
(96.9528 34.7094 4.14074)
(90.6469 15.1798 2.33666)
(73.3978 18.6413 4.63721)
(68.5489 7.8035 4.12281)
(54.2979 14.4738 2.12451)
(53.36 9.13607 0.155336)
(50.311 9.43624 0.653879)
(52.9474 4.15786 0.713199)
(53.3473 1.96922 1.74395)
(56.8026 -2.46452 1.99278)
(59.9607 -5.66818 2.06905)
(63.1967 -7.03182 1.94666)
(68.8116 -5.21155 1.28887)
(190.947 28.2492 -21.1171)
(40.9965 -10.4606 -35.2795)
(152.097 0.0159199 -25.3696)
(95.8965 31.8233 -13.1117)
(158.331 58.2789 -1.8946)
(122.39 79.6382 1.39423)
(130.458 58.8012 4.28135)
(102.439 43.3839 2.47061)
(95.5522 33.9699 -1.7388)
(80.545 20.4635 3.18236)
(73.1095 18.0248 4.40047)
(58.2387 14.5827 1.35207)
(56.0078 10.9733 -1.56618)
(56.0274 4.44176 -2.62509)
(58.3602 2.08184 -2.30007)
(62.9868 -1.6754 -1.16054)
(64.2588 -6.63446 0.554129)
(67.2603 -10.1035 1.79742)
(69.253 -11.7799 2.27935)
(72.0645 -8.99908 1.80249)
(155.89 28.1556 -158.322)
(27.1958 27.5469 -22.5579)
(124.447 2.20794 -25.4703)
(62.8393 16.5976 -10.3092)
(116.74 38.6393 -7.94714)
(103.869 58.7038 -8.4234)
(125.602 71.5567 -2.8526)
(117.567 61.9207 -0.604028)
(110.904 46.5429 -2.69184)
(100.326 27.4155 1.97606)
(91.2359 26.8023 3.96009)
(84.2601 24.0107 2.19763)
(81.5829 18.3634 0.726317)
(76.1024 10.9221 -1.49595)
(74.6051 3.28366 -4.23779)
(71.0969 -1.15245 -4.11577)
(69.9053 -4.42918 -2.31697)
(70.3635 -10.6453 -0.116354)
(72.5513 -14.0253 1.16108)
(74.1876 -11.8386 0.804277)
(108.882 7.54069 -89.2821)
(-40.349 28.3474 -24.7034)
(94.1108 18.0523 -10.4268)
(18.6351 21.4712 2.83795)
(100.59 43.8759 2.26277)
(79.6389 47.3959 -4.73079)
(108.143 64.0782 -4.91174)
(121.623 67.0175 -3.17266)
(123.883 56.3076 -1.8002)
(117.909 37.2421 5.8808)
(104.435 33.22 1.76764)
(104.117 24.7973 -0.617773)
(108.001 18.3075 -0.850942)
(111.939 16.7921 1.39185)
(113.891 18.0829 5.31302)
(106.232 12.6818 1.29041)
(92.7228 0.76416 -0.10533)
(84.5378 -6.37767 0.432471)
(81.7445 -12.6925 0.694873)
(78.5851 -11.1096 -0.101054)
(115.105 -6.53239 -54.2228)
(44.7754 -3.67916 34.5325)
(112.717 -15.2076 11.0315)
(21.0598 -6.64128 5.7783)
(88.4361 15.8515 9.72869)
(57.6437 31.7459 5.43439)
(90.9341 47.8972 3.25075)
(110.248 55.0181 1.48138)
(122.103 50.4913 5.52661)
(123.18 46.5871 6.90089)
(114.878 31.5247 5.10471)
(117.917 20.8441 4.33548)
(122.231 14.7565 3.82218)
(127.397 13.7743 3.24451)
(131.845 15.9729 3.82778)
(127.524 23.347 3.77902)
(118.506 21.0591 3.7753)
(102.369 7.04234 1.17143)
(91.9556 -5.26262 0.263498)
(80.7251 -6.51052 -0.416126)
(140.925 203.926 239.635)
(83.6194 6.49639 8.47489)
(114.665 34.8174 8.39186)
(15.8565 20.5914 -2.27997)
(84.1248 45.2732 7.79429)
(31.7587 15.5967 1.71646)
(70.1538 22.6169 3.60197)
(86.4452 38.0229 5.09194)
(94.4061 40.6209 6.16156)
(98.5453 38.3829 4.88321)
(101.226 25.3227 2.75459)
(99.3847 16.3424 1.04679)
(99.1659 10.8911 0.0440884)
(102.603 8.46527 -2.35472)
(106.905 7.85136 -4.06726)
(106.91 24.7853 -1.55235)
(105.662 27.0176 0.55999)
(101.747 21.2985 0.415455)
(93.9451 6.74367 1.96377)
(80.123 -0.942598 0.769763)
(45.7579 90.126 115.707)
(-147.697 3.1844 61.0498)
(80.3734 4.71792 10.1181)
(-36.5718 11.444 3.14175)
(86.3085 27.4054 1.57278)
(9.5294 -14.8564 -0.239974)
(58.1567 28.5926 2.73952)
(44.3266 28.0233 1.87246)
(68.3563 29.9415 0.911043)
(64.3172 25.8325 0.230621)
(73.4177 21.1196 -0.480448)
(70.9491 15.7791 -1.03267)
(76.6478 11.4907 -1.95264)
(76.6654 8.647 -2.14359)
(76.6354 12.8291 -1.38374)
(84.6029 21.5323 0.311798)
(93.403 23.7533 2.79186)
(98.1463 16.1099 3.96393)
(101.625 12.0008 3.87079)
(96.6004 7.01706 3.09402)
(242.685 -66.6115 0.0404516)
(50.7002 9.69118 4.04352)
(107.37 7.85758 14.7298)
(-0.485631 8.62708 7.37185)
(92.6208 23.6539 6.0743)
(27.5268 5.02596 0.92632)
(63.1179 49.9553 0.432808)
(36.4527 4.44687 0.540976)
(58.2277 30.6864 0.397609)
(52.5342 11.4108 0.600731)
(65.9908 19.0748 1.02102)
(65.506 8.4945 1.31966)
(72.6466 10.6293 2.18645)
(73.6578 5.15383 2.95537)
(77.1394 6.9474 3.52882)
(80.9598 8.14154 5.9863)
(91.0387 11.4366 6.49221)
(96.3426 8.09728 4.87592)
(102.514 6.24374 3.40414)
(104.998 3.48611 2.34708)
(-32.5009 128.52 125.18)
(-163.641 69.7946 10.6416)
(62.1205 23.3321 -7.95261)
(-72.2483 9.07842 8.07565)
(75.0185 11.9283 -2.10845)
(-20.6617 0.945232 1.35495)
(65.6986 22.7165 0.569158)
(32.109 9.11078 0.712892)
(61.2117 16.3861 0.951288)
(53.7936 9.026 0.760428)
(64.9893 10.1089 1.38433)
(62.7016 4.94708 1.33372)
(67.4543 4.74028 1.85998)
(67.0262 2.14978 1.73738)
(69.5277 3.0198 1.76011)
(70.9475 2.07925 1.92659)
(75.5383 4.08146 1.18918)
(79.8914 2.62549 -1.14305)
(84.6507 3.63262 -2.8886)
(87.168 3.07529 -3.77521)
(78.743 87.0273 238.244)
(-80.1001 -40.6596 23.3195)
(68.7067 -17.7572 25.184)
(-28.6118 -10.7344 1.45484)
(72.5922 -7.01666 1.1613)
(11.0051 -5.52119 -1.51052)
(67.2459 9.29893 -0.0930333)
(38.1302 0.311842 -1.01201)
(64.5773 11.6981 -0.132409)
(51.2441 4.70865 -0.531103)
(63.5833 9.98387 0.224473)
(55.6514 4.20466 -0.323176)
(60.979 5.74455 -0.376161)
(56.425 1.97978 -1.54092)
(59.7938 2.72086 -2.20489)
(58.9432 1.28759 -3.21678)
(61.6534 2.25857 -3.96541)
(64.2341 0.709359 -4.84265)
(67.6449 1.63176 -5.9078)
(73.6684 3.10324 -5.60062)
(168.632 256.665 250.93)
(23.4988 88.8949 -50.7363)
(119.444 20.9541 -26.9143)
(-22.8397 -10.2454 -9.29952)
(80.6781 -11.6762 -10.8456)
(3.45829 -6.07404 -3.52723)
(69.5845 -1.02125 -0.743354)
(34.8813 2.86236 0.127317)
(63.9549 5.16822 0.98556)
(47.933 5.23417 0.0409609)
(60.1448 6.62308 -0.45678)
(51.5834 6.21786 -1.29773)
(57.3045 6.32726 -1.45669)
(53.1449 4.93274 -2.03594)
(56.6779 4.20536 -2.30154)
(56.1368 2.73487 -2.7711)
(59.1644 1.60917 -3.27607)
(61.5995 -0.746667 -4.07443)
(64.5262 -1.75022 -4.48479)
(71.0078 0.832194 -3.08434)
(39.1026 103.123 57.3446)
(-49.0597 64.1268 -99.1586)
(114.883 41.1753 -28.4284)
(49.8283 22.3674 -14.1613)
(103.825 -14.5162 -5.79255)
(53.9665 -13.7129 -5.47998)
(87.2874 -12.9145 -1.63504)
(64.0505 -4.73873 -1.83439)
(81.3137 2.69623 2.46581)
(66.6045 5.56476 2.23451)
(73.7126 8.30624 2.65733)
(66.1593 6.80086 0.779095)
(70.8484 6.40429 -0.0322227)
(68.0082 4.85297 -0.506238)
(71.6868 4.52152 -0.393436)
(71.6392 4.10081 -0.366821)
(74.6461 4.27345 -0.0115253)
(77.0789 3.84585 0.3586)
(81.2082 1.65597 2.09435)
(83.2798 1.47754 2.23768)
(277.16 -192.517 101.349)
(53.8897 -7.11495 34.6572)
(141.036 15.835 -12.4011)
(48.5038 5.27234 -6.20312)
(103.001 -4.81581 -6.20686)
(42.475 -6.64948 -5.2321)
(79.8686 -5.38979 -2.90884)
(50.2389 0.743557 -3.0727)
(72.0496 5.39739 -0.824625)
(60.3063 8.54198 -0.600698)
(72.8639 8.67143 0.865397)
(68.8736 7.30919 0.561737)
(75.7654 5.29048 1.01443)
(74.1497 4.04512 0.871784)
(77.8074 2.99822 1.5792)
(77.5484 2.19859 1.9765)
(79.589 0.954543 2.40942)
(79.7387 -0.997649 2.4235)
(80.0732 -2.0151 3.4588)
(76.9919 -0.751896 2.86878)
(111.704 188.35 55.006)
(54.1038 71.1487 6.2501)
(142.589 61.5721 33.962)
(59.6352 39.257 12.8029)
(122.756 16.8469 9.66344)
(82.6978 4.50769 2.64657)
(105.062 -4.69633 3.42926)
(81.9632 -2.62396 2.41235)
(93.9685 -1.72704 4.73012)
(85.1298 1.194 3.72497)
(94.3799 2.0569 4.05036)
(92.2117 2.15938 2.93901)
(96.8462 1.18356 2.55398)
(94.4448 0.417752 1.87289)
(94.6312 -1.30377 1.7359)
(89.6769 -2.26715 1.9911)
(86.3091 -2.74344 3.93262)
(78.089 -1.17142 4.79808)
(73.8497 0.863012 4.05382)
(69.6805 1.10754 2.51782)
(214.008 -195.835 -131.621)
(84.2727 -19.1122 10.6187)
(172.08 8.96565 9.2683)
(118.357 -0.157921 4.68762)
(161.054 0.507589 -0.606239)
(139.218 -3.60438 -2.58039)
(158.287 1.66466 -3.63877)
(142.245 2.52563 -4.00259)
(143.748 5.63379 -2.78072)
(127.99 5.09762 -2.32706)
(124.648 4.08461 -0.473374)
(114.728 1.96979 0.316443)
(114.906 1.03327 0.86779)
(111.609 0.737495 0.719726)
(111.653 0.793204 0.369795)
(109.886 1.21436 -0.324138)
(108.443 0.908735 -1.26898)
(105.769 0.916593 -2.12769)
(103.607 -1.18836 -3.14428)
(103.793 -3.49271 -3.43719)
(39.9685 -65.1475 11.2766)
(-42.7018 11.1519 -64.0802)
(102.639 -27.2728 -45.7352)
(7.62528 -15.0386 2.52466)
(111.175 -23.7559 -1.7779)
(60.8279 -8.48052 6.01033)
(106.523 -2.39118 2.90453)
(85.18 3.30841 1.59498)
(102.94 5.87726 1.05766)
(91.6892 5.65217 0.141641)
(98.074 4.86994 0.163008)
(91.9535 3.77527 -0.486108)
(93.9044 3.40612 -0.657393)
(90.216 3.26931 -1.14822)
(90.0954 3.55062 -1.37308)
(87.7038 3.26904 -1.67915)
(86.6818 2.59427 -1.88916)
(84.735 0.81221 -2.15578)
(84.3761 -3.75002 -3.06827)
(84.3753 -5.54407 -2.04729)
(284.715 126.096 179.89)
(158.028 3.07685 -16.9101)
(203.246 -0.388296 -26.1827)
(123.186 4.37478 -8.30508)
(140.864 -16.0964 0.232707)
(89.9637 -0.945495 2.84425)
(108.272 -3.42391 2.82459)
(82.4815 7.01427 1.26128)
(94.4356 6.04241 1.22052)
(82.7098 7.86274 0.445592)
(89.3282 5.10755 0.543614)
(84.3968 4.77412 -0.0536633)
(87.4317 3.44702 -0.137568)
(84.6977 3.8511 -0.580011)
(85.5541 3.2571 -0.793141)
(83.9005 2.88776 -1.01514)
(84.2642 1.37819 -1.17935)
(83.2866 -0.897879 -1.64267)
(82.8977 -6.91767 -1.45345)
(81.0329 -8.62304 -0.399324)
(214.009 -55.7068 165.282)
(-33.33 3.3776 -12.2236)
(137.969 5.36518 -0.523363)
(65.5 15.2252 2.01269)
(113.792 9.97033 6.72803)
(69.9711 13.6103 3.05975)
(94.7877 7.80945 1.79424)
(69.3558 12.1216 1.03818)
(85.3094 7.80179 1.1239)
(74.0238 7.75078 0.895614)
(82.9393 4.22676 0.966994)
(78.7802 3.90942 0.521374)
(83.1731 3.40219 0.336878)
(81.2107 3.8297 -0.355432)
(82.2591 3.8664 -0.907702)
(80.6739 3.00217 -1.21282)
(79.691 2.11829 -0.86532)
(76.4424 -0.187967 0.186011)
(75.9856 -1.29759 2.12412)
(74.9256 -1.07449 1.84485)
(460.518 -319.354 -47.5998)
(168.354 -54.6494 20.8864)
(192.633 6.11696 40.3848)
(113.972 11.4483 18.4674)
(139.458 14.0769 5.05855)
(86.2607 19.2829 1.1942)
(102.56 9.02866 0.648897)
(75.5289 16.7716 0.31224)
(86.1361 6.4569 0.636726)
(73.5209 9.71421 0.573197)
(79.8684 1.84471 1.65498)
(74.8514 3.55786 1.69669)
(77.8984 1.01892 1.62163)
(74.7302 3.0792 1.09285)
(74.7805 2.15206 1.12358)
(72.1447 2.55422 1.4739)
(71.1159 1.56156 2.52526)
(69.6379 0.43932 3.27008)
(70.448 -0.188434 3.28453)
(71.4936 -1.09483 2.15456)
(188.577 179.036 -107.34)
(14.0458 101.367 -4.4351)
(165.324 95.3197 25.5285)
(69.7107 60.2757 11.5784)
(128.753 40.4506 10.0698)
(76.9651 33.5891 1.47662)
(99.0408 16.5868 1.62139)
(73.794 20.8549 0.560326)
(81.9355 10.0632 1.08296)
(70.2033 10.6251 1.41978)
(73.174 4.81995 3.32398)
(67.7872 6.33305 3.35766)
(67.2324 5.85657 3.07746)
(62.4815 6.56403 1.69605)
(59.9749 6.02521 1.92683)
(58.5908 4.42254 2.80899)
(58.4096 3.13819 3.47294)
(60.5705 0.549371 3.558)
(63.6488 0.246011 3.05114)
(68.1056 0.168066 1.83868)
(114.233 -20.7815 172.474)
(-41.9424 39.6083 -17.9275)
(157.607 50.4791 18.2071)
(89.1601 54.245 10.4413)
(146.597 51.9892 19.1567)
(95.0513 46.6115 12.0776)
(102.433 24.0965 8.50742)
(76.5827 34.9869 3.82639)
(76.3945 13.47 2.77074)
(60.5946 19.4742 4.66817)
(61.3114 9.05732 3.64148)
(51.5637 15.2614 1.57031)
(52.2646 9.67153 -0.210463)
(48.8024 10.7827 0.734903)
(51.1992 6.09506 1.02234)
(51.2567 3.88947 1.9652)
(54.6001 -0.512941 2.53421)
(58.492 -3.85318 2.98227)
(62.3648 -5.63218 3.03231)
(68.4445 -4.42145 2.10189)
(179.951 45.0603 -106.655)
(26.1436 31.0272 -44.0543)
(139.144 18.3766 -26.9853)
(63.1408 48.1824 -13.3632)
(129.344 64.9779 -1.6046)
(86.1763 80.912 0.329278)
(99.7773 52.7965 2.69288)
(79.3343 39.9409 1.62076)
(76.3135 28.7214 -1.12606)
(63.7709 21.2336 3.79366)
(62.0106 18.3974 4.15741)
(54.7689 14.4701 0.723067)
(54.23 11.1334 -2.58528)
(52.2961 6.02728 -3.04161)
(51.7487 4.69391 -2.104)
(55.7056 2.06903 -1.40087)
(56.9844 -3.18697 -0.136762)
(61.4278 -6.69163 1.4805)
(64.8229 -8.03674 2.77769)
(69.6274 -5.73299 2.44783)
(145.026 -69.9517 -209.893)
(24.0066 28.1684 -43.9211)
(111.306 14.1437 -30.5215)
(42.0487 28.9441 -9.20931)
(99.3732 46.8757 -7.86019)
(79.0597 65.792 -6.34033)
(95.9801 69.3013 -1.63921)
(90.1891 51.7735 -1.22558)
(85.8016 37.9536 -2.32356)
(77.6895 26.3947 2.41169)
(76.3933 25.6601 3.23544)
(75.4363 22.1628 1.38015)
(75.1721 17.3981 -0.177414)
(70.6394 10.2198 -2.75133)
(66.8591 2.05656 -4.85932)
(60.3752 -2.30406 -4.26396)
(59.1365 -4.95014 -3.3261)
(60.3926 -9.05228 -1.43914)
(64.1155 -10.7333 0.69586)
(68.6647 -7.58319 1.04048)
(90.8395 -45.301 -6.68913)
(-30.3755 24.4003 -13.4732)
(76.9218 25.4172 -2.41213)
(-1.90458 28.5318 4.16515)
(83.6 47.0705 0.518041)
(58.7644 49.5445 -4.3138)
(86.0247 60.1515 -4.2566)
(95.2153 54.6588 -3.56838)
(94.4209 42.852 -0.723297)
(90.9327 32.9434 5.82388)
(91.1173 28.6389 1.4709)
(93.5286 22.1024 -0.933988)
(97.0492 17.9505 -1.04143)
(100.198 17.8389 1.65457)
(101.833 17.5758 4.18656)
(90.3999 8.2408 0.799933)
(79.0798 -3.84637 -1.48993)
(72.2715 -8.86741 -1.25789)
(71.1984 -11.8484 0.120902)
(70.5452 -8.9396 -0.287814)
(-41.0682 37.1386 10.3171)
(-35.1834 -31.894 8.82365)
(74.8363 -5.15923 6.4639)
(-13.0593 3.96543 5.99567)
(69.1525 25.7202 6.26176)
(36.017 35.807 5.14943)
(70.7697 44.32 3.73261)
(87.1097 45.4831 1.80652)
(94.6675 41.1541 5.52552)
(99.6692 38.0737 9.70806)
(103.647 30.6718 7.29655)
(109.593 20.9734 3.75031)
(113.6 16.9734 2.80852)
(116.115 16.744 1.61852)
(116.779 20.4101 3.10299)
(109.988 23.6355 2.73549)
(101.636 16.0809 2.56105)
(87.7256 2.45879 0.517061)
(80.3447 -5.52557 1.01649)
(73.4268 -5.55236 0.113175)
(256.621 549.175 11.9973)
(-19.5365 44.2568 17.4593)
(98.0532 40.4321 14.4667)
(-16.2975 25.4595 0.095174)
(69.6181 46.8834 5.72072)
(20.5984 16.8019 1.76113)
(60.0982 24.9852 3.60406)
(72.0403 37.6794 5.03384)
(80.2999 38.8194 6.69498)
(86.7313 35.3883 6.45794)
(91.1559 26.0079 3.61411)
(91.7967 19.7172 1.32563)
(93.9755 16.8499 -0.795131)
(98.0888 16.6141 -3.45041)
(98.9121 16.5216 -4.97233)
(90.771 25.9834 -1.38827)
(90.7502 23.3421 1.08478)
(86.1949 13.806 1.14877)
(81.7847 3.28932 2.76529)
(73.2254 -1.64593 0.953246)
(110.358 106.769 87.3944)
(-103.66 -7.69009 -2.07493)
(71.0224 -3.8507 2.29129)
(-49.9504 12.6675 4.18401)
(72.1706 26.9214 0.24036)
(-4.87628 -14.6231 0.0379816)
(45.171 33.8359 2.87481)
(34.4662 30.5252 2.0296)
(59.2743 31.811 1.12563)
(55.757 26.8419 0.538839)
(66.296 22.337 -0.413241)
(64.195 17.7266 -1.36036)
(70.096 14.6769 -2.57365)
(69.7577 12.6461 -2.89196)
(68.8862 15.4861 -1.45909)
(75.2142 18.4732 0.64866)
(83.5347 17.864 2.99589)
(88.1839 11.7509 4.23108)
(90.8848 10.2603 4.07121)
(86.7126 5.85549 2.90064)
(295.251 133.222 110.721)
(44.362 37.4556 25.7285)
(90.6244 3.59804 32.3755)
(-23.0443 6.61399 8.85686)
(80.4204 21.2628 6.25632)
(10.1799 4.95977 1.26401)
(51.1658 50.682 0.428106)
(22.4645 1.64803 0.552016)
(47.2596 31.5397 0.26356)
(39.9784 9.85339 0.900614)
(54.7112 20.0728 0.822544)
(53.6428 9.15014 1.25358)
(61.9203 13.2601 1.98318)
(63.478 8.13897 2.96868)
(68.1027 10.7983 3.58061)
(73.4994 10.8408 5.45721)
(84.8232 13.1612 5.55546)
(89.5866 11.2218 3.92088)
(94.7498 10.8209 2.53253)
(96.757 8.26792 1.7403)
(67.1223 130.641 34.0312)
(-113.959 70.5071 2.10931)
(50.5341 29.361 -12.9777)
(-71.8397 11.4462 5.45895)
(61.7252 13.0646 -4.01297)
(-31.5713 3.27679 1.85513)
(56.6407 25.9026 0.323224)
(18.2536 9.12578 0.616392)
(50.058 17.9131 1.16624)
(40.0765 9.09461 0.72213)
(53.2114 11.9469 1.17225)
(51.143 7.25559 1.08839)
(57.9153 9.07043 1.59185)
(59.1479 7.232 1.44809)
(63.4708 9.39506 1.46501)
(66.691 8.65688 1.3994)
(73.7781 10.838 0.697768)
(77.8994 9.5244 -1.2725)