/*--------------------------------*- C++ -*----------------------------------*\
  =========                 |
  \\      /  F ield         | OpenFOAM: The Open Source CFD Toolbox
   \\    /   O peration     | Website:  https://openfoam.org
    \\  /    A nd           | Version:  10
     \\/     M anipulation  |
\*---------------------------------------------------------------------------*/
FoamFile
{
    format      ascii;
    class       volVectorField;
    location    "1.8";
    object      U_0;
}
// * * * * * * * * * * * * * * * * * * * * * * * * * * * * * * * * * * * * * //

dimensions      [0 1 -1 0 0 0 0];

internalField   nonuniform List<vector> 
12920
(
(564.4 159.22 43.0946)
(253.019 132.544 35.9463)
(222.62 64.8219 56.2563)
(139.838 24.9677 11.1733)
(181.635 29.2343 3.55158)
(149.923 20.3726 -0.620971)
(165.825 21.6732 -2.20092)
(145.114 16.9481 -2.69925)
(149.39 15.3582 -2.82165)
(137.674 10.2187 -2.37017)
(140.404 6.19941 -1.60045)
(135.171 1.44734 -0.62128)
(137.102 -2.16341 0.282782)
(134.846 -3.43349 0.550704)
(135.845 -4.22654 0.60048)
(135.179 -3.91357 0.261534)
(136.373 -3.5391 -0.166212)
(138.294 -1.63733 -0.470624)
(139.545 0.70682 -1.63873)
(145.381 2.55466 -2.43368)
(46.7959 42.7024 -1.10704)
(-132.67 -33.0911 -14.2659)
(161.115 -64.7345 3.74998)
(16.022 -28.0934 7.52171)
(142.926 -26.8774 4.01614)
(89.4153 -4.03238 5.03371)
(134.389 5.63772 3.30721)
(113.297 10.8407 1.93774)
(130.268 11.4083 0.879824)
(121.443 8.67908 0.0830734)
(128.753 5.31259 -0.0525436)
(124.504 2.16761 -0.223684)
(126.834 0.522858 -0.285883)
(123.963 0.072172 -0.424925)
(124.4 0.676668 -0.482221)
(122.343 1.59773 -0.732965)
(122.217 4.00475 -1.05654)
(122.923 6.29749 -1.78103)
(125.182 9.14424 -3.53656)
(134.524 10.7248 -3.09338)
(178.342 80.3696 -68.3457)
(129.751 -0.705349 -27.056)
(228.066 -27.221 -4.58235)
(169.889 -18.5072 2.04378)
(181.753 -36.8003 2.4942)
(129.165 -13.4129 1.78877)
(142.729 -9.62917 1.48776)
(119.378 4.98964 0.812855)
(129.033 6.46565 0.523843)
(118.947 8.27795 0.0617233)
(124.149 4.96572 0.00448493)
(119.902 3.2786 -0.25961)
(122.604 1.14079 -0.310261)
(120.6 1.47814 -0.545895)
(122.08 1.76444 -0.66992)
(120.919 3.10352 -0.779162)
(121.21 4.31883 -0.974495)
(122.727 8.13027 -1.42582)
(127.779 10.6516 -1.61079)
(135.361 9.51948 -0.579235)
(159.751 -198.974 -105.805)
(125.953 -92.9601 -33.8654)
(233.913 -53.525 -8.20157)
(189.678 -9.35776 -1.59313)
(183.441 4.8847 8.34718)
(118.484 10.4792 3.93974)
(130.848 6.9146 1.55892)
(106.319 12.2541 0.900345)
(118.472 9.82305 0.768248)
(107.627 9.49091 0.505631)
(114.106 5.09063 0.402696)
(109.712 3.36839 0.136518)
(113.6 2.17985 0.0526194)
(112.475 3.03705 -0.443146)
(115.255 4.58096 -0.866109)
(115.364 6.33401 -1.10804)
(116.911 7.88252 -0.922991)
(118.542 8.09794 0.149869)
(120.525 6.48822 1.20321)
(117.519 4.66362 1.81541)
(396.965 -28.2879 67.0011)
(407.373 -48.5027 9.29924)
(361.24 -21.8482 15.1569)
(191.237 1.81484 8.59861)
(189.571 10.1094 0.518443)
(135.733 14.5225 -1.09236)
(145.07 4.11614 -0.725624)
(120.647 11.1154 -0.327295)
(126.082 4.65484 0.0449194)
(113.347 8.02067 -0.0093191)
(114.945 0.966804 0.711222)
(106.804 1.4274 0.872423)
(105.676 -1.55056 1.05808)
(100.366 2.09362 0.85311)
(100.518 4.1753 0.649762)
(97.7946 7.03294 0.816096)
(97.3757 6.70799 1.17031)
(95.9124 5.99948 1.69172)
(94.6999 4.70743 1.87485)
(92.5663 2.20705 1.23756)
(249.814 -165.767 3.36608)
(230.096 -101.418 16.7801)
(280.021 24.6215 30.5275)
(180.534 55.6667 14.8989)
(192.894 49.6384 7.617)
(148.022 41.1733 0.827969)
(156.812 23.5712 0.644546)
(136.274 24.8682 0.203476)
(134.931 16.8612 0.738744)
(123.151 16.8563 0.512671)
(120.176 7.16165 2.11488)
(104.848 5.17813 2.65757)
(91.9465 2.86035 2.27212)
(83.2935 3.67801 1.36854)
(80.4535 4.84663 1.03364)
(79.014 5.03515 1.02148)
(77.9941 4.31118 0.890896)
(78.8282 2.42254 0.871204)
(81.0562 1.76895 0.677424)
(85.0025 0.752678 0.400787)
(339.004 -80.5244 -110.553)
(248.497 -160.809 -30.2236)
(288.303 -80.0981 5.9121)
(237.961 -8.55327 13.6239)
(256.369 25.8356 14.9522)
(201.397 41.9079 10.3005)
(172.003 19.6678 5.81298)
(132.761 33.0584 1.97297)
(123.105 15.1141 0.941589)
(104.224 18.89 2.33381)
(95.2768 5.3454 2.33888)
(74.8198 12.8207 1.59758)
(71.5425 6.83017 0.634424)
(67.4157 7.04177 0.721988)
(69.9595 2.62477 0.567805)
(70.2546 1.94729 0.8522)
(72.1834 -0.554691 0.796917)
(74.9476 -3.57472 0.495506)
(78.5081 -5.53395 0.379823)
(84.828 -4.37743 0.226246)
(220.093 48.2785 57.9455)
(78.3995 -26.6726 -19.5772)
(181.913 -25.9228 -16.133)
(141.326 -19.0731 -14.1738)
(211.764 11.3752 -5.94733)
(191.282 52.6172 -1.32383)
(184.058 41.178 0.533312)
(142.891 37.547 -0.216499)
(132.483 33.8346 -1.45442)
(118.696 16.2733 0.689984)
(104.056 12.7032 1.62637)
(77.2747 10.5477 0.199619)
(73.4111 5.98655 -0.209822)
(73.649 -3.09537 -0.409675)
(79.7491 -0.221022 -1.32277)
(84.2671 -3.64341 -0.190573)
(83.8939 -6.85832 0.766782)
(84.7421 -9.35577 1.08459)
(85.5261 -10.8597 0.94913)
(88.1178 -8.1753 0.472383)
(257.411 1.00092 -174.502)
(9.02129 17.0254 -13.8039)
(159.289 -8.27684 -17.579)
(96.1289 3.47946 -10.6312)
(158.893 22.5947 -8.96605)
(141.777 34.9346 -4.34599)
(165.223 60.34 0.758002)
(159.882 61.0432 -0.776356)
(157.025 50.6931 -1.10375)
(142.847 26.5076 0.843995)
(124.846 23.2105 0.697142)
(104.151 21.0072 0.802766)
(91.2276 13.1569 -0.014215)
(85.0076 5.99371 -0.285604)
(89.4027 1.57373 -1.39666)
(92.1195 0.287751 -2.40059)
(91.9086 -4.01624 -0.617268)
(89.3584 -11.0734 0.696115)
(89.0432 -14.1901 0.767462)
(90.0045 -11.3359 0.407356)
(82.3624 -23.983 -40.1543)
(-15.7588 25.1369 -14.2858)
(133.819 7.84887 -4.73855)
(71.5754 10.7336 1.6172)
(141.586 35.6972 3.00568)
(116.742 48.9498 -1.46918)
(144.199 68.3468 -1.91113)
(165.727 77.6244 -1.1532)
(173.744 71.1376 -0.821492)
(138.408 34.8026 1.1771)
(131.642 35.6221 -0.0360063)
(130.713 28.9666 -0.144621)
(133.721 19.2432 -0.181804)
(137.282 16.0843 0.419662)
(126.445 17.0302 2.96893)
(119.382 14.4892 0.267531)
(108.142 3.15584 0.19759)
(97.0215 -6.78851 0.940848)
(93.29 -13.3777 0.138335)
(91.3222 -11.1745 -0.109232)
(172.649 5.02327 -116.93)
(142.581 12.5332 -1.93776)
(188.267 -6.19041 4.22777)
(100.063 -18.1331 3.55986)
(131.459 -0.98616 7.84082)
(89.0327 34.3166 0.479596)
(123.386 55.7692 -0.0660772)
(148.69 67.624 -0.106605)
(163.479 62.3832 1.94876)
(138.588 40.4795 0.229523)
(137.105 27.3067 0.564823)
(139.56 14.2016 1.02264)
(141.232 5.18586 0.852214)
(141.991 3.07679 1.14434)
(150.837 8.84184 1.95931)
(144.124 20.2306 2.83968)
(126.033 17.4656 2.90498)
(104.147 1.46926 0.52055)
(96.5125 -7.76992 -0.962029)
(91.7602 -7.37617 -0.937301)
(195.638 106.195 -9.15196)
(123.763 -60.8031 5.53009)
(179.138 14.4516 -4.06688)
(86.585 14.1763 -3.16053)
(125.382 39.5772 4.6679)
(42.6654 8.05835 1.22863)
(86.2617 18.2007 1.22437)
(101.987 35.0012 1.28663)
(104 33.2266 0.591362)
(109.588 29.1141 -0.188615)
(120.69 17.2047 0.0184347)
(120.114 9.86474 -0.0788252)
(114.983 2.48843 0.185751)
(114.735 -3.66094 -0.413222)
(122.143 -4.11342 -1.45726)
(123.519 20.9104 -0.0450116)
(118.701 26.1466 0.147572)
(114.004 19.1108 -0.375376)
(106.465 3.68068 0.153087)
(94.6157 -2.07656 0.144807)
(535.575 123.021 -205.831)
(147.8 53.9037 -8.67848)
(181.529 28.3656 17.6535)
(30.1156 23.8787 3.14616)
(125.426 32.1632 1.19901)
(52.124 -10.784 -1.01335)
(93.1924 24.3171 -1.10552)
(75.5987 20.5132 0.144639)
(96.0875 23.8652 0.255353)
(91.4057 21.8707 -0.000752731)
(98.4533 18.4001 -0.164633)
(94.6426 12.9715 -0.211421)
(98.9946 6.99239 -0.441349)
(97.5795 2.79133 -0.405556)
(96.1431 9.62514 0.0106605)
(103.416 22.39 0.849772)
(111.247 24.637 1.87118)
(116.135 15.2127 1.89106)
(121.04 8.41296 2.29696)
(116.726 3.1052 2.20988)
(268.925 58.5351 31.0816)
(115.502 119.398 11.9513)
(161.335 59.1972 13.1805)
(57.1614 26.8422 6.81896)
(124.95 31.4946 4.95038)
(67.9543 9.11289 0.749972)
(97.9047 48.1119 0.364576)
(74.1337 7.97211 0.123427)
(92.0248 28.5372 0.108349)
(87.7986 12.3594 0.13132)
(99.0812 17.6741 0.476242)
(97.5803 7.25984 0.666801)
(101.363 7.20659 1.355)
(98.8983 0.418798 1.85437)
(99.5832 1.18184 2.35202)
(100.116 2.63914 3.59065)
(104.745 2.54583 3.6911)
(107.291 -4.35012 2.66615)
(112.396 -9.73842 1.66263)
(115.701 -10.3837 0.920514)
(143.711 327.831 -29.3078)
(-125.999 129.011 29.7425)
(132.666 29.2793 -2.85999)
(-34.5895 10.6407 6.28467)
(107.333 11.4456 0.96482)
(13.2129 -1.66444 0.743123)
(93.145 15.3299 0.449914)
(66.5768 6.40758 0.296487)
(93.1304 12.892 0.294062)
(88.936 7.95209 0.283657)
(97.7611 8.42257 0.641913)
(94.3445 3.24375 0.688593)
(95.4463 0.488428 1.27854)
(90.4304 -4.84576 1.23309)
(89.486 -5.65616 1.1422)
(87.3934 -7.61353 1.15049)
(88.401 -7.42582 0.356239)
(90.4455 -9.94675 -1.12252)
(95.0523 -10.4817 -2.44202)
(99.2741 -8.10774 -2.67175)
(153.039 129.198 -15.043)
(56.7251 -5.62602 15.6951)
(110.786 -4.27877 20.3861)
(20.9606 3.64942 2.81831)
(101.862 1.22043 0.699705)
(50.0676 -3.76256 -1.81343)
(95.9799 6.15027 -0.649937)
(72.9501 -2.15163 -1.08627)
(96.2503 7.80684 -0.498555)
(87.6597 3.63418 -0.621025)
(98.1146 8.84053 -0.23538)
(91.4167 3.98139 -0.28257)
(93.04 3.57138 -0.0968903)
(85.4563 -1.76453 -0.715095)
(84.7829 -2.84919 -1.15186)
(80.7098 -4.51555 -1.92766)
(81.4774 -3.68389 -2.61227)
(82.9651 -3.88751 -3.49147)
(87.2138 -2.55601 -4.2059)
(95.1975 2.13067 -3.33468)
(60.3409 67.6462 61.3897)
(-64.5186 18.9498 -48.3589)
(134.263 13.1088 -11.6872)
(-19.5376 -4.99887 -0.740986)
(108.486 -4.09196 -4.99782)
(38.7782 -0.517591 -2.66931)
(99.5163 0.929792 -1.5784)
(72.1869 3.49659 -0.48347)
(95.2005 4.18868 0.251264)
(82.265 5.23177 -0.110175)
(91.9353 7.04298 -0.58434)
(85.5835 8.07686 -1.07434)
(90.0762 8.7873 -1.27545)
(86.6271 8.1067 -1.428)
(87.8289 7.92233 -1.17137)
(85.4881 7.60918 -0.946208)
(85.9626 7.24208 -0.957852)
(86.913 6.3031 -1.16148)
(89.8913 5.3095 -1.12281)
(95.6373 6.80844 -0.318847)
(-165.838 -29.5726 -135.02)
(-102.154 75.1001 -50.3825)
(121.951 33.7818 -10.0409)
(60.2937 26.4649 -7.94322)
(130.85 -3.98037 -9.0212)
(102.923 -3.13142 -6.97234)
(135.294 -6.87311 -3.43637)
(123.367 -5.02904 -2.13166)
(133.674 0.729088 1.00584)
(115.619 4.33712 1.76756)
(112.448 11.0226 1.90817)
(100.504 10.6701 0.411365)
(103.895 10.4956 -0.259587)
(102.832 8.66083 -0.447403)
(107.31 7.58666 -0.260331)
(108.889 6.09181 0.15806)
(111.963 5.99639 0.991805)
(112.521 6.58525 1.55811)
(113.201 5.55327 2.16885)
(109.121 5.44436 1.78318)
(481.46 -22.1651 117.602)
(75.4551 4.83656 46.5302)
(161.18 29.0608 -0.487766)
(66.9322 25.876 -5.15202)
(126.477 16.5515 -4.40445)
(72.7464 9.32675 -2.54721)
(106.515 3.82998 -1.66033)
(82.5607 5.64561 -1.8871)
(102.179 8.8632 -0.896103)
(92.2125 12.3028 -0.603392)
(102.037 13.0263 0.429104)
(98.3524 11.5415 0.347854)
(104.139 8.66777 0.662544)
(102.883 6.1999 0.672835)
(106.151 4.29564 1.14123)
(105.9 2.76388 1.42386)
(107.518 1.77433 1.65117)
(107.962 1.3113 1.54477)
(108.115 0.453746 1.84172)
(101.916 1.16989 1.4457)
(72.5476 251.39 -16.4558)
(-5.28029 127.18 1.98305)
(143.72 87.0803 1.42006)
(67.2925 57.4651 3.99197)
(136.881 32.2965 4.33042)
(107.301 19.5955 3.29687)
(133.21 6.45714 3.52784)
(113.087 4.12005 2.78554)
(120.729 2.21486 3.26924)
(110.511 4.20565 2.4915)
(117.438 4.80799 2.41969)
(115.071 4.66648 1.77463)
(119.763 3.12522 1.38392)
(118.539 1.97432 0.827879)
(120.196 -1.59445 0.579145)
(116.289 -4.55805 0.839596)
(110.37 -5.65254 2.07843)
(97.7596 -2.81928 2.41512)
(91.7559 0.584463 1.82812)
(86.3773 1.41825 1.0143)
(264.03 -22.6261 73.0717)
(-50.1673 61.8934 26.2486)
(169.734 19.7873 7.0238)
(111.63 8.47081 0.0577749)
(172.874 10.3474 -3.07222)
(151.119 3.54437 -3.58148)
(171.598 6.74762 -4.18321)
(155.286 5.88384 -4.26804)
(157.954 7.77653 -3.48334)
(143.727 6.20817 -2.77706)
(142.462 3.93377 -1.24502)
(134.167 0.914964 -0.05941)
(134.834 -0.834221 0.943534)
(132.195 -1.53611 1.00902)
(133.038 -1.74763 0.894768)
(132.074 -1.12002 0.204201)
(132.013 -0.642812 -0.98186)
(132.115 0.461019 -2.26405)
(132.707 0.58349 -4.16173)
(135.356 -0.459538 -4.76237)
(35.3951 -118.373 106.574)
(-140.366 -11.0148 15.2399)
(142.069 -44.5548 -17.4622)
(14.3262 -18.9841 9.10618)
(134.585 -26.0152 2.53508)
(82.953 -7.85478 7.1015)
(129.069 -0.491715 4.13162)
(108.728 5.39237 2.47459)
(125.739 7.49874 1.41272)
(115.49 6.47407 0.231219)
(121.761 4.74607 0.11559)
(116.315 2.96655 -0.366048)
(118.292 2.25445 -0.497912)
(115.018 2.11088 -0.895851)
(115.135 2.91104 -1.09987)
(113.114 3.11497 -1.4559)
(112.46 4.04769 -2.06277)
(111.883 3.9586 -2.89977)
(112.165 2.57659 -4.0613)
(114.611 1.72944 -2.9861)
(308.925 183.121 -16.0197)
(83.0169 50.4856 9.1694)
(194.376 2.36081 -7.89331)
(142.605 4.67655 -1.36592)
(167.75 -21.2737 2.10516)
(117.999 -5.43676 2.8945)
(133.558 -6.47429 2.77277)
(108.755 5.53988 1.31563)
(119.389 5.71312 1.14578)
(108.335 7.50388 0.333582)
(114.19 4.55906 0.389503)
(109.651 3.69032 -0.168235)
(112.532 2.20694 -0.235576)
(110.205 2.78157 -0.673284)
(111.248 2.86545 -0.821013)
(109.97 3.46264 -1.01117)
(110.241 3.31493 -1.05898)
(111.117 2.75757 -1.54677)
(113.149 -0.351043 -1.29942)
(115.419 -3.90876 0.359114)
(117.316 -151.929 5.88806)
(25.3855 -19.2008 -14.7164)
(157.395 -16.7065 15.3106)
(103.803 8.80553 8.67793)
(143.941 8.09867 10.7492)
(99.2908 12.175 4.29168)
(120.26 7.29662 1.99028)
(95.6673 11.8575 1.12581)
(109.741 8.24983 1.13324)
(98.6817 7.77714 0.831189)
(106.42 3.68264 0.893329)
(102.248 2.74018 0.364106)
(106.497 2.14445 0.136256)
(104.982 2.89806 -0.670026)
(106.566 4.03853 -1.1406)
(105.363 4.11178 -1.3361)
(105.198 4.06896 -1.11966)
(104.869 2.7068 -0.28558)
(105.684 1.08132 2.61979)
(102.356 0.857785 2.81371)
(386.939 -240.552 -130.675)
(295.374 -95.0369 -9.93306)
(278.629 -14.7524 42.1574)
(160.278 4.16498 20.8625)
(170.508 10.9658 4.46744)
(116.48 17.2613 0.435614)
(129.491 7.40661 0.219154)
(103.759 14.7589 0.0318774)
(112.333 5.89916 0.507923)
(99.7687 8.70892 0.317857)
(104.128 0.648746 1.61674)
(97.9567 1.50612 1.63594)
(99.6744 -0.828305 1.54042)
(95.9943 2.02328 0.72254)
(96.3968 2.88467 0.495796)
(93.8375 4.62757 0.656143)
(92.9669 4.24086 1.289)
(91.16 3.43637 2.037)
(91.0403 2.69598 2.40721)
(90.4928 1.01572 1.61542)
(203.716 -26.6794 -61.2431)
(124.319 35.8543 8.236)
(221.437 79.5555 37.2429)
(129.54 64.1433 15.9842)
(166.717 42.0893 11.1587)
(116.48 32.8671 1.41439)
(131.369 16.5007 1.76225)
(108.068 20.5772 0.429273)
(112.676 11.7305 1.20321)
(101.439 11.7428 1.24039)
(101.614 4.41602 3.66134)
(92.8761 4.11048 3.9913)
(87.4533 3.43617 3.0107)
(81.3377 4.95635 1.20536)
(79.4457 5.50538 1.39207)
(78.1073 5.05703 1.90634)
(77.3881 3.95062 2.24727)
(78.8089 1.67214 2.37544)
(81.3121 1.08953 2.09939)
(85.5038 0.492318 1.26471)
(196.664 -90.9761 101.659)
(94.6179 -22.5781 18.6978)
(203.926 20.3496 30.6622)
(175.244 37.2653 16.6326)
(211.437 44.4353 20.2158)
(159.126 47.901 13.1434)
(145.093 22.7382 9.46094)
(113.294 33.6028 3.99374)
(107.207 14.122 2.38596)
(89.8099 18.0054 4.62415)
(84.9664 7.29495 4.08733)
(70.5109 14.1714 2.04801)
(69.5785 8.7917 0.0972525)
(66.4531 9.1239 0.6449)
(69.1491 3.99639 0.778355)
(69.5459 1.88588 1.77316)
(73.0369 -2.54715 1.99282)
(76.3895 -5.7364 2.04915)
(79.7767 -7.05972 1.90844)
(85.7367 -5.19145 1.25833)
(201.784 16.4261 11.3302)
(54.4319 -13.6261 -28.7654)
(173.003 -1.20245 -23.8847)
(112.756 28.4029 -13.3737)
(176.658 55.2989 -1.59234)
(140.445 77.1323 1.30368)
(147.991 53.034 4.28982)
(119.477 38.605 2.35968)
(112.583 29.5586 -1.69073)
(97.2602 16.5591 3.24081)
(89.7138 14.3771 4.41266)
(74.5805 11.0982 1.26611)
(72.3107 7.57102 -1.57709)
(72.0967 1.2244 -2.56504)
(74.824 2.01509 -2.29328)
(79.2338 -1.72242 -1.17727)
(80.4753 -6.64006 0.553134)
(83.6853 -10.1141 1.78736)
(85.8104 -11.7672 2.23604)
(88.9772 -8.94392 1.7525)
(182.374 27.84 -144.959)
(56.7138 27.5499 -19.8457)
(143.196 -1.01703 -24.828)
(78.2454 13.5055 -10.4641)
(135.012 36.5665 -7.95826)
(120.914 53.2871 -8.6965)
(143.843 65.735 -3.04195)
(134.964 56.9668 -0.644065)
(127.954 42.0625 -2.52431)
(116.863 23.4416 2.13592)
(107.623 23.1044 3.96494)
(100.606 20.3565 2.18959)
(97.9205 14.9039 0.759637)
(92.3389 7.76459 -1.44993)
(90.4677 0.474721 -4.152)
(87.3343 -1.1241 -4.11824)
(86.1261 -4.38447 -2.28559)
(86.7504 -10.6384 -0.118892)
(89.0918 -13.9915 1.10945)
(91.046 -11.7764 0.734109)
(126.525 13.0074 -70.6281)
(-20.334 23.0284 -17.5454)
(111.119 15.0745 -9.26403)
(36.2512 20.5884 2.89168)
(120.195 43.2977 2.56022)
(98.2187 46.0743 -5.0911)
(127.181 63.0766 -5.38785)
(139.903 65.9999 -2.99391)
(141.408 55.4063 -1.36921)
(134.638 36.5539 5.91462)
(121.102 32.7359 1.75587)
(120.685 24.3229 -0.594272)
(124.511 17.9685 -0.797557)
(128.46 16.6174 1.55222)
(130.254 18.1017 5.4951)
(122.213 12.5703 1.29695)
(108.742 0.660618 -0.126778)
(100.83 -6.39702 0.415388)
(98.2318 -12.6676 0.631944)
(95.3331 -11.0462 -0.191285)
(128.957 -13.3291 -76.2106)
(69.791 -16.5677 34.0715)
(135.143 -18.5998 11.4172)
(38.4571 -6.38634 5.90074)
(106.321 16.5174 9.83112)
(74.8483 32.1003 5.2644)
(109.899 47.7703 2.84042)
(128.832 54.4938 1.7349)
(139.789 49.8144 5.9402)
(140.056 45.7508 7.03049)
(131.682 30.9298 5.2332)
(134.623 20.3807 4.35291)
(138.826 14.4373 3.86824)
(144.076 13.5723 3.3139)
(148.456 15.8112 4.06493)
(143.702 23.1858 3.86355)
(134.574 20.8437 3.764)
(118.564 6.80594 1.11248)
(108.329 -5.31324 0.19705)
(97.378 -6.48149 -0.503598)
(141.038 199.182 249.518)
(106.174 -9.07676 7.38452)
(143.878 31.3833 9.0267)
(37.0092 20.1228 -1.83523)
(103.517 45.8936 7.99918)
(49.3964 16.8271 1.72939)
(88.7996 23.2984 3.41199)
(104.655 38.1092 5.26028)
(111.834 40.3235 6.22173)
(115.565 37.805 4.90228)
(117.897 24.7622 2.75065)
(115.817 15.936 1.0862)
(115.539 10.5514 0.0390461)
(119.086 8.18462 -2.3255)
(123.289 7.85756 -3.91849)
(123.33 24.6676 -1.49291)
(121.975 26.8355 0.575108)
(118.165 21.0239 0.418952)
(110.371 6.53635 1.90102)
(96.7209 -0.998319 0.686636)
(73.0085 99.3573 105.535)
(-107.049 9.8745 71.9977)
(113.503 6.92538 5.75739)
(-14.6116 12.6176 3.68175)
(105.827 28.542 1.91729)
(28.0782 -13.0825 -0.0938787)
(76.0925 30.6981 2.62254)
(61.8735 28.7973 2.1018)
(85.8956 30.2785 1.07898)
(81.302 25.9093 0.306057)
(90.3521 21.1138 -0.44474)
(87.6418 15.7045 -1.02392)
(93.2959 11.4034 -1.9355)
(93.1676 8.42955 -2.08415)
(93.2567 12.5646 -1.33566)
(101.138 21.371 0.371106)
(109.949 23.4962 2.82623)
(114.84 15.8492 3.94713)
(118.278 11.8911 3.81448)
(113.266 6.94751 3.03716)
(238.268 -32.1715 -3.45606)
(63.8615 26.6305 4.38539)
(130.397 13.8147 13.9253)
(19.3309 11.3675 7.8765)
(112.222 26.0793 6.25473)
(45.8192 6.9928 1.25997)
(80.7838 51.1022 0.593053)
(53.5722 5.23581 0.688564)
(75.3217 31.0931 0.441219)
(69.482 11.4542 0.624743)
(82.8809 19.009 0.998086)
(82.2336 8.24568 1.30266)
(89.3136 10.4026 2.20872)
(90.2717 4.95199 3.0044)
(93.7809 6.79413 3.57048)
(97.5351 7.99868 6.00774)
(107.656 11.2798 6.48177)
(113.116 7.92519 4.82879)
(119.31 6.12786 3.34113)
(121.816 3.44797 2.29787)
(-19.1378 128.515 92.7437)
(-142.678 80.2151 8.2287)
(81.7959 27.2363 -12.0319)
(-54.3187 12.3002 8.12191)
(93.5406 14.558 -1.83729)
(-3.1538 3.06145 1.6052)
(82.2117 24.0587 1.05339)
(49.0191 10.1959 1.00034)
(78.0001 17.0479 0.955052)
(70.5896 9.43198 0.782578)
(81.7344 10.3185 1.32985)
(79.3446 5.01582 1.28383)
(84.0578 4.75047 1.82166)
(83.5768 2.1188 1.6983)
(86.0761 2.94824 1.74001)
(87.4438 1.98938 1.9035)
(92.0962 3.99271 1.15514)
(96.6369 2.51747 -1.1945)
(101.439 3.54738 -2.95656)
(104.031 3.03372 -3.82327)
(82.1919 92.4986 242.893)
(-64.4813 -28.0129 25.3119)
(83.9962 -8.52134 23.2091)
(-9.4408 -5.05385 2.01508)
(90.8142 -3.34276 1.40317)
(28.274 -3.303 -1.16565)
(83.8494 11.0416 0.237241)
(54.4868 1.50447 -0.896313)
(81.0153 12.5378 -0.117543)
(67.6924 5.22303 -0.523177)
(80.1108 10.3127 0.187599)
(72.1169 4.34271 -0.387503)
(77.4861 5.81677 -0.486962)
(72.8932 1.96723 -1.61466)
(76.308 2.70663 -2.24624)
(75.4106 1.2635 -3.24351)
(78.1621 2.23149 -3.97947)
(80.9483 0.652463 -4.868)
(84.4627 1.59352 -5.96579)
(90.6006 3.09853 -5.65655)
(179.328 246.2 255.415)
(31.5841 87.9961 -52.8827)
(132.115 25.4387 -27.2623)
(-11.3029 -5.52656 -9.6118)
(96.0246 -8.23147 -10.4708)
(18.8321 -3.52264 -3.29318)
(85.1948 0.724848 -0.630827)
(50.8446 4.15997 0.218987)
(80.0321 5.97756 0.959772)
(64.171 5.78079 0.0212361)
(76.4977 6.94332 -0.509308)
(67.9542 6.41026 -1.34392)
(73.7513 6.42275 -1.52052)
(69.5953 4.98064 -2.08644)
(73.1896 4.23207 -2.33534)
(72.6035 2.74587 -2.79676)
(75.6655 1.5958 -3.29046)
(78.3045 -0.759937 -4.09614)
(81.3481 -1.74288 -4.53672)
(87.9784 0.860795 -3.14965)
(63.886 84.2371 87.6741)
(-13.0942 67.1824 -94.6992)
(134.44 44.9453 -25.4003)
(67.0475 26.4562 -13.4434)
(119.968 -11.7254 -5.19457)
(69.4082 -11.7227 -5.36559)
(102.686 -11.2771 -1.39196)
(79.4979 -3.55875 -1.82109)
(96.9882 3.50764 2.46427)
(82.505 6.08218 2.17029)
(89.8408 8.61143 2.59449)
(82.4141 6.97635 0.720734)
(87.2412 6.5077 -0.0600238)
(84.4422 4.92948 -0.531375)
(88.1879 4.58087 -0.405142)
(88.0988 4.15409 -0.370579)
(91.1534 4.32293 0.00817985)
(93.795 3.88574 0.355993)
(98.0105 1.69263 2.06171)
(100.177 1.49556 2.17904)
(292.407 -138.448 126.387)
(76.669 13.6273 31.6497)
(156.494 24.1286 -13.6627)
(60.1495 10.4697 -6.28749)
(116.712 -2.20303 -6.03946)
(56.1983 -5.0764 -5.16227)
(94.5196 -4.44025 -2.85113)
(65.2476 1.46787 -3.06502)
(87.4758 5.86458 -0.892217)
(76.1039 8.87312 -0.666088)
(88.9508 8.84752 0.817385)
(85.1079 7.42473 0.503995)
(92.1412 5.34812 1.00191)
(90.566 4.10157 0.84562)
(94.286 3.03584 1.57472)
(93.9925 2.24284 1.97413)
(96.0573 0.985082 2.40899)
(96.4112 -0.956811 2.40226)
(96.7951 -1.94921 3.4384)
(93.7616 -0.715362 2.83882)
(105.358 226.1 84.0015)
(44.998 80.3133 12.6841)
(150.276 62.9741 37.1918)
(70.9802 41.0315 13.8653)
(135.266 17.0994 9.94465)
(96.2137 4.81609 2.60506)
(119.383 -4.50178 3.56611)
(96.7578 -2.35482 2.38651)
(109.218 -1.53894 4.7327)
(100.848 1.35754 3.67482)
(110.413 2.14375 4.04197)
(108.419 2.21999 2.90272)
(113.177 1.2012 2.53956)
(110.831 0.428989 1.84821)
(111.058 -1.30656 1.72789)
(106.033 -2.25946 1.98808)
(102.689 -2.7095 3.93909)
(94.6775 -1.11562 4.7711)
(90.5321 0.911255 4.00315)
(86.4512 1.1183 2.48197)
(233.754 -194.832 -91.6176)
(112.351 -16.3256 17.5646)
(190.858 10.2816 11.9799)
(132.768 -0.160931 5.24364)
(176.613 0.0855979 -0.568389)
(153.987 -3.90515 -2.57378)
(173.813 1.43729 -3.59803)
(157.378 2.32294 -4.0083)
(159.319 5.55312 -2.7602)
(143.496 4.98542 -2.31978)
(140.433 3.99663 -0.45198)
(130.63 1.90369 0.336491)
(130.95 1.00856 0.906831)
(127.676 0.717319 0.751043)
(127.769 0.775923 0.377804)
(125.956 1.19534 -0.34323)
(124.552 0.88284 -1.29539)
(122.063 0.874235 -2.16615)
(119.998 -1.24239 -3.18825)
(120.444 -3.5206 -3.49354)
(53.6944 -39.8029 20.1317)
(-25.3728 17.7985 -64.973)
(118.832 -25.6613 -43.6772)
(20.202 -14.7586 3.00365)
(126.146 -23.7603 -1.61824)
(75.1669 -8.6218 6.13907)
(122.143 -2.52887 2.85059)
(100.449 3.10075 1.53663)
(118.819 5.69517 1.04625)
(107.414 5.42609 0.118425)
(114.062 4.67911 0.170714)
(107.895 3.62556 -0.490346)
(109.974 3.31631 -0.634116)
(106.289 3.19647 -1.1351)
(106.209 3.49235 -1.36563)
(103.758 3.20066 -1.68416)
(102.786 2.52461 -1.90096)
(101.034 0.719775 -2.18251)
(100.772 -3.85797 -3.11826)
(101.042 -5.58803 -2.14168)
(289.343 124.422 168.49)
(169.635 6.19754 -12.2434)
(212.994 -4.37009 -24.7264)
(134.581 1.55663 -7.70101)
(155.244 -18.8981 0.573794)
(103.713 -2.45843 2.72244)
(123.64 -4.67435 2.73413)
(97.5229 6.32124 1.23425)
(110.195 5.51872 1.2483)
(98.4184 7.46939 0.436414)
(105.353 4.79561 0.56019)
(100.408 4.55553 -0.0498622)
(103.558 3.29852 -0.117027)
(100.809 3.74206 -0.571038)
(101.694 3.16377 -0.786127)
(99.9775 2.79344 -1.01195)
(100.39 1.25628 -1.17802)
(99.5938 -1.03553 -1.67299)
(99.2889 -7.05785 -1.51648)
(97.7338 -8.68925 -0.524471)
(207.59 -51.7797 181.9)
(-15.7044 0.674903 -6.3738)
(148.081 2.69376 -1.33193)
(79.734 14.0648 2.53217)
(129.576 8.421 6.68798)
(85.4701 12.5112 3.02658)
(111.031 6.84711 1.83065)
(85.3045 11.3796 1.04079)
(101.598 7.20545 1.13145)
(90.046 7.30885 0.894563)
(99.1729 3.89023 0.994814)
(94.9161 3.68773 0.541316)
(99.3799 3.24872 0.353989)
(97.3522 3.70659 -0.355405)
(98.4091 3.74768 -0.91047)
(96.7494 2.87267 -1.21168)
(95.7899 1.98669 -0.854948)
(92.7332 -0.322445 0.182965)
(92.3976 -1.37906 2.08911)
(91.6705 -1.11337 1.76325)
(420.908 -314.484 -32.914)
(163.716 -56.9088 30.8496)
(202.462 4.0309 42.0614)
(126.514 9.79229 18.4717)
(154.2 12.3169 4.78378)
(100.614 17.9284 1.13781)
(118.272 7.80839 0.682638)
(90.9402 15.9251 0.30378)
(102.238 5.66961 0.668996)
(89.497 9.23545 0.563168)
(96.1054 1.46517 1.66924)
(91.0123 3.35426 1.68772)
(94.1059 0.851697 1.62985)
(90.8656 2.94841 1.08788)
(90.9202 1.99263 1.13925)
(88.2161 2.40226 1.49687)
(87.2356 1.42414 2.54009)
(85.9744 0.331958 3.24331)
(86.9203 -0.271372 3.22243)
(88.3232 -1.13839 2.08466)
(194.856 160.066 -120.955)
(19.3882 88.8963 -2.8829)
(182.447 88.2112 28.9414)
(84.3857 55.3924 11.9531)
(145.047 36.153 10.1423)
(92.9872 30.9548 1.43335)
(115.749 14.4707 1.58165)
(90.1528 19.6575 0.579246)
(98.5755 9.09594 1.09222)
(86.5828 10.076 1.42698)
(89.6027 4.43951 3.30751)
(84.0457 6.12376 3.29647)
(83.4379 5.70283 3.02187)
(78.5805 6.409 1.6833)
(76.1117 5.86565 1.95876)
(74.7149 4.26974 2.83571)
(74.5841 3.02372 3.48665)
(76.9822 0.441993 3.53511)
(80.1879 0.178587 2.99529)
(85.0131 0.148836 1.78466)
(120.747 -37.457 174.998)
(-20.485 32.0927 -11.8778)
(178.068 45.6479 20.0396)
(106.536 49.8712 11.0606)
(163.731 48.4741 19.6195)
(111.502 44.1251 12.0483)
(119.255 22.0342 8.34347)
(93.0115 33.9271 3.70163)
(93.0516 12.431 2.80618)
(77.0238 18.9146 4.63153)
(77.7832 8.5337 3.5754)
(67.8385 14.9561 1.48335)
(68.5096 9.34949 -0.266588)
(64.9607 10.4902 0.733474)
(67.4033 5.93417 1.07744)
(67.4396 3.80231 1.99614)
(70.8252 -0.599226 2.5392)
(74.9203 -3.92367 2.96482)
(78.951 -5.66822 2.97654)
(85.3867 -4.4135 2.02649)
(191.502 40.9357 -121.344)
(44.5826 29.9226 -38.4086)
(159.217 16.9913 -25.4683)
(79.8096 44.4811 -13.7271)
(147.656 61.782 -1.31767)
(104.231 78.1991 0.19867)
(117.364 46.8382 2.65664)
(96.3429 35.1122 1.54041)
(93.2954 24.326 -1.09298)
(80.4016 17.4112 3.82003)
(78.6463 14.7236 4.13702)
(71.1524 10.9969 0.627829)
(70.5518 7.75392 -2.59488)
(68.3416 2.84264 -3.00981)
(68.1813 4.6562 -2.08717)
(71.9393 2.02247 -1.41308)
(73.2059 -3.18491 -0.148335)
(77.8587 -6.6933 1.47576)
(81.4036 -8.01415 2.72901)
(86.5754 -5.70096 2.33687)
(159.478 -73.0111 -191.852)
(50.4358 30.462 -35.9604)
(128.683 11.0316 -28.3422)
(57.0196 25.938 -9.23805)
(117.51 44.6815 -7.56859)
(95.6939 60.0534 -6.65944)
(114.086 62.9858 -1.90998)
(107.167 46.9566 -1.18848)
(102.43 33.6563 -2.18081)
(93.9629 22.5917 2.50354)
(92.7299 21.9785 3.24622)
(91.661 18.5687 1.37282)
(91.3908 13.9828 -0.140616)
(86.8051 7.07785 -2.70604)
(82.67 -0.693726 -4.78149)
(76.5873 -2.24168 -4.31184)
(75.3503 -4.88837 -3.31333)
(76.7675 -9.02025 -1.44919)
(80.6737 -10.6812 0.640015)
(85.5799 -7.52938 0.894764)
(89.1717 -35.7856 33.8222)
(-22.6627 18.2971 -3.15324)
(91.1603 22.1612 -2.36454)
(15.6968 27.7239 4.74235)
(102.916 46.3603 1.0248)
(76.7876 48.163 -4.62074)
(104.571 58.8741 -4.67196)
(112.929 53.6314 -3.33228)
(111.449 41.9596 -0.417601)
(107.553 32.4531 5.91096)
(107.569 28.1878 1.55064)
(109.857 21.6671 -0.917416)
(113.343 17.6498 -0.992108)
(116.57 17.712 1.78705)
(118.149 17.5835 4.3949)
(106.364 8.12145 0.833097)
(95.1047 -3.9421 -1.48817)
(88.5635 -8.86015 -1.27148)
(87.6816 -11.8025 0.0690164)
(87.369 -8.86963 -0.467726)
(-29.8522 13.037 60.7352)
(-11.6375 -47.055 17.2597)
(96.73 -8.45542 6.22491)
(4.73891 4.34737 6.78563)
(86.8559 26.3116 6.63638)
(52.8304 36.157 5.20329)
(89.2982 44.118 3.3636)
(105.129 44.9329 2.09329)
(111.957 40.5069 5.83263)
(115.771 38.7298 6.66307)
(120.925 30.0692 7.50041)
(126.334 20.6586 3.82435)
(130.195 16.713 2.80097)
(132.715 16.5437 1.67619)
(133.325 20.2648 3.37457)
(126.129 23.4103 2.82991)
(117.681 15.7737 2.54877)
(103.994 2.28746 0.453919)
(96.7574 -5.53517 0.935347)
(90.1567 -5.51257 -0.0954044)
(278.078 535.702 -24.5155)
(3.70739 28.4146 17.6419)
(127.271 36.0448 14.6199)
(4.8665 25.2252 0.76251)
(88.8043 47.5649 6.20673)
(37.9636 18.0093 2.15056)
(78.4689 25.6696 3.44136)
(89.8505 37.7811 5.25391)
(97.468 38.5758 6.869)
(103.529 34.8914 6.58095)
(107.584 25.5451 3.69547)
(108.057 19.3749 1.37701)
(110.223 16.5602 -0.801271)
(114.496 16.3646 -3.44463)
(115.242 16.5163 -4.85178)
(107.131 25.7508 -1.31916)
(107.057 23.0806 1.12057)
(102.621 13.5225 1.13242)
(98.261 3.1551 2.66236)
(89.9076 -1.66873 0.730674)
(126.074 89.6731 89.6857)
(-55.2477 -1.485 13.443)
(100.298 -2.02333 -2.69763)
(-27.2807 13.8595 4.81637)
(91.4113 28.0507 0.823652)
(13.5318 -12.7345 0.175085)
(62.9498 35.946 2.96224)
(51.9464 31.3607 2.47849)
(76.7 32.1418 1.3407)
(72.6473 26.8804 0.648208)
(83.1823 22.3082 -0.362531)
(80.8107 17.6371 -1.3707)
(86.7046 14.5948 -2.57305)
(86.2136 12.433 -2.85872)
(85.5049 15.1595 -1.41667)
(91.7352 18.243 0.711901)
(100.078 17.5759 3.03812)
(104.848 11.5525 4.20098)
(107.522 10.1832 3.99402)
(103.416 5.80098 2.7745)
(313.865 165.306 88.8053)
(62.393 47.4254 25.8669)
(113.76 9.45431 30.7606)
(-2.85535 9.18706 9.86169)
(99.8261 23.5474 6.50327)
(28.5086 6.98453 1.67081)
(68.7272 51.9374 0.706556)
(39.5386 2.41989 0.631877)
(64.2811 31.8979 0.364199)
(56.8601 9.89859 0.953376)
(71.5553 19.9943 0.78054)
(70.3609 8.90675 1.20775)
(78.5929 13.0465 2.0053)
(80.0937 7.94899 2.99839)
(84.749 10.6465 3.62805)
(90.0993 10.6876 5.47272)
(101.425 13.0187 5.53846)
(106.327 11.0901 3.86361)
(111.522 10.7376 2.44474)
(113.591 8.24339 1.6106)
(80.3748 130.272 12.7417)
(-85.3624 81.7741 -0.783185)
(70.453 33.1422 -16.9164)
(-53.3029 14.6129 5.30173)
(80.3427 15.7151 -4.29092)
(-14.0241 5.39199 2.16224)
(73.1129 27.3074 1.16823)
(35.0027 10.2306 0.873577)
(66.7359 18.5745 1.26413)
(56.8166 9.50674 0.756383)
(69.9181 12.1755 1.1032)
(67.7919 7.34218 1.0062)
(74.5534 9.08048 1.54462)
(75.7309 7.21084 1.42701)
(80.0453 9.33964 1.45836)
(83.2219 8.58287 1.38538)
(90.3477 10.7638 0.671309)
(94.6336 9.43243 -1.32395)
(98.6706 9.82571 -2.52103)