/*--------------------------------*- C++ -*----------------------------------*\
  =========                 |
  \\      /  F ield         | OpenFOAM: The Open Source CFD Toolbox
   \\    /   O peration     | Website:  https://openfoam.org
    \\  /    A nd           | Version:  10
     \\/     M anipulation  |
\*---------------------------------------------------------------------------*/
FoamFile
{
    format      ascii;
    class       volScalarField;
    location    "8.5";
    object      k;
}
// * * * * * * * * * * * * * * * * * * * * * * * * * * * * * * * * * * * * * //

dimensions      [0 2 -2 0 0 0 0];

internalField   nonuniform List<scalar> 
12920
(
39.8325
867.66
1290.48
1188.98
793.461
464.277
352.858
343.317
334.449
317.84
283.509
240.997
189.662
143.463
109.174
88.5377
79.6727
76.0936
74.0763
66.8352
2458.7
1870.59
1862.12
1874.15
1509.46
838.528
456.256
326.341
281.89
262.439
229.578
195.392
168.014
152.932
149.923
150.802
153.742
154.985
153.063
139.873
691.188
977.112
1165.77
1223.7
998.254
624.083
408.702
316.458
255.777
223.522
205.398
198.048
197.75
200.025
200.638
197.84
190.726
182.454
172.598
152.683
184.877
1110.23
1386.44
1276.25
936.723
638.028
443.587
344.596
285.109
254.501
233.898
225.909
220.901
218.085
212.136
205.686
198.626
188.592
178.2
161.932
1884.57
1315.42
1625.5
1430.01
887.618
631.847
444.336
353.335
298.439
278.833
260.92
253.079
242.396
234.679
225.018
215.614
207.234
194.975
187.994
173.364
1698.45
1716.76
1760.94
1654.37
1087.25
634.005
413.292
330.824
290.826
269.351
247.144
237.93
227.879
221.226
213.212
205.018
197.523
187.767
182.749
170.506
5295.82
3254.78
2494.34
1733.33
1083.25
644.55
443.134
365.903
319.582
283.735
254.968
234.563
218.255
207.225
195.926
186.396
178.154
171.638
167.82
156.086
2257.9
2991.77
2860.77
2221.2
1318.69
801.019
470.456
267.388
188.717
148.07
146.261
135.902
127.643
120.298
182.063
162.718
152.396
146.28
140.51
123.833
2346.48
3345.6
2704.87
1870.66
1278.33
649.414
341.816
180.023
147.571
93.4396
90.0775
80.5253
69.1776
63.6314
104.601
138.63
123.718
112.78
102.236
91.0752
3644.41
4515.09
3265.66
1994.67
1272.3
637.218
320.528
230.825
213.535
95.4652
94.1237
77.296
63.4289
57.2854
87.026
102.188
88.6094
81.1526
78.1619
78.8669
2382.58
2321.47
2097.72
1485.2
1001.9
507.618
292.171
244.247
222.627
87.3597
73.5063
64.9334
53.4575
43.7627
61.7882
85.1125
79.9171
78.0753
78.167
80.6706
1313.4
1760.17
1295.5
875.246
752.351
475.552
306.455
267.097
277.384
276.798
97.6422
121.643
73.4847
42.4581
61.9486
101.141
91.452
84.4737
79.8835
78.167
833.505
2019.82
1887.44
1251.88
780.697
580.562
348.229
289.268
336.395
361.033
352.111
255.932
109.621
73.3288
105.911
94.5965
86.8033
82.5032
80.7062
77.2715
2040.73
2652.42
2032.91
1267
741.773
509.84
409.482
275.031
220.48
190.748
174.691
151.606
130.921
121.725
114.376
110.075
106.827
102.063
97.3854
84.5793
168.845
1926.8
2035.41
1537.01
948.925
692.114
444.099
305.437
220.985
198.059
182.073
180.549
181.401
186.724
186.557
179.984
167.943
155.288
143.848
111.486
7057.03
3336.6
2226.55
1523.94
967.023
620.916
386.799
272.81
225.27
217.907
213.5
216.42
217.209
220.425
219.474
213.513
206.125
190.104
175.481
136.449
3063.69
2954.69
2657.49
1504.84
809.74
439.893
285.749
223.324
208.293
205.56
204.464
203.986
202.287
197.88
188.905
176.762
168.812
154.987
145.335
119.299
6722.26
3104.75
2223.66
1239.81
694.757
431.47
300.059
245.454
204.862
184.784
169.184
160.145
150.784
141.981
131.78
121.318
112.526
105.745
102.955
96.4687
5288.87
5068.24
3713.39
2492.09
1259.01
687.606
484.067
408.338
313.059
258.225
208.13
185.133
163.366
152.429
138.349
126.508
114.87
102.201
88.1986
81.1098
7120.69
3810.37
1794.28
889.605
574.276
440.238
342.413
282.933
223.93
183.859
153.248
132.922
115.341
99.4375
86.494
77.6665
73.9665
70.9982
67.219
58.078
2983.09
2782.48
2060.24
1372.19
882.802
737.202
714.026
691.056
626.662
548.211
464.603
382.005
309.89
256.391
220.011
194.208
174.451
163.203
156.804
138.192
7492.34
4037.04
3376.77
3279.2
2148.91
1324.93
891.126
800.103
675.923
626.428
534.589
489.735
461.239
454.543
456.686
457.491
459.759
471.814
478.479
461.13
5671.16
3095.84
2370.18
2812.86
2265.74
1511.83
1026.79
836.081
673.221
615.686
588.878
591.322
600.356
603.517
597.429
580.291
564.078
548.698
525.143
476.141
7623.66
4239.91
3007.52
2852.54
2302.48
1597.76
1128.92
909.71
767.478
699.306
650.794
639.587
630.373
624.44
610.171
595.103
576.181
554.045
527.796
486.889
7477.16
4464
4414.1
3429.8
2071.64
1643.31
1119.64
954.782
811.623
776.682
727.982
709.323
683.804
665.206
640.285
617.507
594.149
566.179
545.983
507.484
5785.68
5761.15
4939.17
4178.01
2311.61
1423.53
953.18
865.768
784.971
741.141
688.358
664.274
637.438
620.864
600.506
580.999
561.58
539.455
525.678
492.519
9875.4
7079.3
4623.56
2987.56
1527.74
1148.02
1000.61
958.505
857.068
757.581
677.311
627.474
590.518
566.998
543.284
522.769
504.379
488.629
476.627
443.146
1583.49
6082.37
5648.39
4023.79
2084.23
1418.58
1107.13
1024.48
794.188
633.246
567.16
500.663
468.821
437.946
439.44
420.093
407.175
398.046
383.824
348.981
4804.76
7720.08
5609.93
3598.9
2211.41
1664.78
1225.46
1089.39
858.47
623.649
502.969
418.678
367.356
340.41
325.078
313.743
303.014
291.436
275.416
263.895
8023.28
8748.71
6344.79
3835.49
2454.4
1919.66
1454.79
1276.07
1025.58
591.488
462.725
351.476
292.317
263.123
239.171
223.88
217.822
218.432
221.496
236.058
10093.9
7043.66
4167.48
3192.84
2124.77
1768.52
1420.77
1242.57
959.734
566.344
427.594
298.836
237.515
176.94
169.108
194.332
202.844
215.251
223.444
243.863
8075.61
4679.7
3264.71
2153.63
1821.9
1595.01
1510.07
1358.92
1213.6
1031.67
698.456
615.05
394.918
205.68
189.306
228.532
228.304
225.892
225.785
229.865
4151.51
5264.94
4659.42
3000.23
1786.82
1364.57
1136.44
1220.92
1208.68
1135.25
1053.44
792.446
386.588
251.1
253.103
243.045
235.569
233.596
230.789
226.817
8692.87
8941.49
4861.98
2793.56
1411.87
1239.67
1023.78
691.09
596.632
502.271
452.881
392.741
332.883
314.836
305.795
299.192
292.255
281.59
269.718
242.961
4279
7866.96
5339.61
3526.25
1918.42
1587.72
961.662
764.446
586.663
542.48
493.582
482.171
472.872
474.449
470.384
457.261
438.752
410.976
383.782
311.699
18538.5
7275.09
4353.37
3325.01
1731.51
1299
828.784
691.976
613.706
605.855
590.888
592.242
586.066
582.864
574.055
560.769
546.333
517.509
483.754
387.055
9970.03
7361.72
5110.18
2543.07
1367.77
915.212
686.71
597.537
569.488
566.418
556.241
555.211
544.398
536.364
515.311
495.708
477.486
448.647
421.141
353.2
17554.8
8388.43
4300.6
2316.3
1199.35
976.483
751.506
649.862
541.752
501.975
454.075
440.516
411.947
400.414
375.031
357.711
340.572
331.147
323.701
302.418
15439.8
10927.2
4995.31
2898.73
1523.18
1353.22
1089.14
936.239
714.687
612.19
506.279
466.052
419.678
400.675
376.225
364.383
341.995
312.247
269.092
249.956
7138.55
4327.18
3024.09
1894.16
1342.72
1010.41
772.422
618.785
488.796
406.447
340.738
294.008
250.028
218.459
196.42
177.823
165.894
155.966
147.583
133.889
8411.94
5127.35
2203.38
1272.71
949.47
871.585
831.827
760.621
659.052
562.288
467.955
383.792
316.832
267.809
233.311
206.865
189.433
180.999
179.322
175.125
7456.23
4176.61
3729.53
2979.73
2055.55
1632.53
1274.64
1152.37
975.122
901.427
795.683
743.589
689.332
660.874
636.804
620.847
617.185
617.538
614.313
584.185
9269.36
4439.47
3951.16
3867.46
2834.12
1968.96
1445.06
1229.41
1051.24
987.575
927.914
903.26
866.003
833.511
797.128
766.072
740.775
712.957
685.238
636.867
8530.27
6093.11
4836.85
4238.1
3022.52
2088.53
1541.88
1271.96
1101.55
1014.13
949.574
917.754
882.677
853.661
820.678
790.557
760.75
726.804
696.856
651.74
10145.7
7546.72
5627.76
4237.7
2740.34
2125.66
1573.41
1365.17
1175.82
1088.98
1009.05
963.34
917.905
880.834
842.174
806.344
773.332
736.875
711.039
667.333
9321.86
8695.42
6728.76
4693.95
2706.6
2003.46
1517.87
1352.43
1155.76
1047.45
954.345
906.063
860.706
828.517
795.158
763.828
735.74
706.111
685.819
646.148
10172.1
8680.48
5574.51
3248.74
2029.16
1815.05
1593.85
1386.21
1161.19
1003.95
889.549
826.511
778.014
746.273
714.093
686.204
662.379
639.484
620.991
583.471
4111.2
8774.62
6869.66
4397.98
2643.7
2094.6
1722.43
1468.3
1126.76
893.976
779.158
683.622
644.709
604.145
575.574
554.723
539.402
523.127
503.907
476.489
14633.4
10446.7
6936.54
4200.08
2845.96
2222.84
1834.43
1548.34
1099.91
838.841
668.185
558.857
502.269
468.944
436.489
409.357
402.51
394.315
386.11
384.713
8260.06
8865.03
7640.06
4838.74
3112.56
2471.64
1976.71
1645.31
1168.19
785.955
583.319
439.499
375.337
344.737
314.792
302.883
306.237
316.855
328.138
353.94
7649.19
7662.09
5238.79
3779.64
2713.87
2317.24
1918.75
1542.21
1124.5
824.809
430.769
288.722
255.396
221.86
238
276.611
295.616
316.651
331.018
357.927
9931.65
7885.17
4732.59
2853.04
2383.68
2101.68
2028.7
1675.38
1386.23
1162.68
1064.44
849.654
529.977
281.063
272.046
310.785
317.653
323.869
328.449
339.137
12120.6
9719.61
5811.43
3459.41
2376.07
1778.15
1601.56
1582.47
1388.13
1344.04
1300.96
1029.12
490.744
345.113
342.758
336.091
330.423
327.82
324.393
322.43
30479
17359
6433.95
3156.46
2022.08
1579.18
1276.91
910.777
799.491
658.437
591.517
516.845
445.895
425.577
409.597
397.008
383.044
366.235
348.782
326.691
12302.8
11218.3
5962.15
3881.31
2338.79
1738.31
1221.62
1015.1
821.728
750.466
668.799
642.357
613.485
598.46
572.079
545.885
516.483
478.442
439.4
376.301
23791.7
8698.49
5678.9
3491.4
2156.02
1499.03
1157.38
970.028
886.585
837.981
793.113
775.125
740.79
721.221
684.851
655.312
619.468
573.958
528.283
441.419
1393.28
7837
8206.78
4073.88
1983.45
1265.37
1062.15
909.468
850.756
810.187
769.273
747.635
709.773
684.555
646.054
617.299
585.837
548.889
513.172
442.573
11141.2
11358.2
7093.21
3167.25
1932.66
1478.24
1133.84
929.643
785.587
716.014
654.056
629.143
589.663
572.627
541.391
522.508
500.728
483.593
462.194
423.356
20649
8757.76
4927.92
2960.64
2148.33
1806.71
1367.73
1132.98
868.588
754.055
638.21
594.906
543.842
527.146
504.166
492.06
469.341
446.568
416.809
401.677
4795.32
3974.94
2994.01
2224.58
1690.94
1250.7
923.45
697.611
538.285
434.159
356.904
301.855
259.814
230.874
208.624
192.28
184.55
180.292
181.573
181.147
2934.57
2935.47
1345.48
966.508
908.939
891.026
854.254
759.307
632.337
522.52
428.92
348.149
289.644
247.366
221.755
204.932
198.145
196.396
199.251
198.134
5698.11
4226.22
3712
2806.42
2302.71
1970.68
1670.66
1493.86
1296.83
1177.76
1053.82
969.283
899.123
853.396
821.684
796.693
785.947
768.97
748.493
712.602
12238.4
6591.09
5840.61
4406.03
3283.56
2309.56
1885.09
1620.78
1449.81
1346.92
1260.32
1188.48
1123.36
1060.74
1010.21
962.682
926.378
883.869
848.353
800.151
13469.8
7755.13
6513.33
4925.94
3595.04
2456.13
1978.32
1649.71
1474.57
1349.7
1269.68
1202.21
1147.11
1089.98
1042.4
993.595
952.406
906.03
869.224
820.119
12221
9575.5
6833.29
4425.67
3246.35
2458.96
2043.37
1754.4
1552.07
1410.04
1313.37
1233.78
1171.46
1109.04
1056.75
1004.81
962.394
916.212
882.702
834.943
17636.2
11855.4
8097.59
4788.5
3267.09
2535.73
2077.73
1799.34
1528.7
1359.12
1237.14
1158.49
1095.18
1043.76
997.531
953.016
916.898
878.921
850.227
809.055
8684.82
9662.6
6366.12
3597.07
2916.52
2442.55
2118.46
1755.55
1458.02
1255.65
1117.78
1037.8
977.453
933.033
891.666
855.346
825.334
794.441
768.128
732.91
23922
13254.7
8063.7
4978.47
3495.23
2844.55
2320.15
1772.44
1380.96
1091.88
955.632
841.83
796.613
745.596
714.998
692.403
673.217
651.579
631.054
611.582
17698.6
12687
8289
4799.84
3487.9
2793.85
2370.42
1787.93
1253.96
962.32
776.628
658.229
603.356
566.411
529.312
511.669
509.945
507.652
507.866
513.731
13572.8
10208.7
9144.45
6057.57
3843.27
2977.12
2360.29
1826.14
1199.45
852.848
627.316
484.56
426.091
405.172
383.635
398.443
412.799
433.353
452.172
483.159
17134.8
9286.83
6495.52
4207.42
3262.11
2692.56
2218.07
1672.96
1170.83
883.553
543.059
379.027
293.888
288.35
319.672
382.726
407.766
433.758
453.773
483.076
23650.8
13011.4
6478.78
3549.07
2892.38
2388.01
2276.54
1766.39
1375.21
1181.82
1130.65
878.875
515.663
345.367
354.394
408.652
421.093
432.165
440.781
457.039
12732.2
10555
7494.39
4045
3008.27
2098.92
1858.07
1644.1
1341.62
1328.14
1224.96
891.267
513.276
422.905
437.616
433.37
428.604
425.943
424.241
425.633
19441.7
12705.6
6781.47
3573.91
2626.71
1824.89
1518.19
1110.33
976.617
766.94
709.287
624.018
562.037
534.492
510.417
488.889
469.276
448.326
430.799
416.977
49604
12389.3
6512.62
3844.39
2714.34
1840.73
1526.84
1241.19
1048.81
930.784
838.828
792.473
746.995
710.047
665.944
623.482
582.052
535.634
492.625
447.138
23741.6
10485.1
6271.81
3555.2
2597.88
1681.52
1518.14
1226.95
1157.59
1044.34
991.367
938.791
888.921
840.655
786.716
734.57
681.552
622.759
569.334
503.764
4225.66
11278.1
10142
4434.18
2455.93
1562.93
1422.85
1175.66
1115.27
1021.67
969.516
913.426
863.166
813.416
764.41
717.803
673.866
625.114
580.399
522.781
19338.4
12967.6
7726.7
3529.16
2623.54
1795.2
1470.07
1148.22
1016.28
903.563
844.883
796.484
755.294
723.483
688.666
658.372
630.215
601.178
570.663
536.535
11510.9
8143.05
4970.45
3078.87
2614.96
1983.95
1572.99
1241.94
990.559
853.845
755.415
709.402
669.567
653.337
630.2
613.139
590.247
571.083
550.916
540.188
5271.02
5214.33
2653.21
1913.69
1486.23
1132.85
854.041
624.727
479.745
378.212
317.193
272.099
241.646
218.633
203.674
195.135
194.889
196.085
203.222
199.545
2054.24
919.817
735.967
856.231
928.681
914.687
812.07
665.764
536.423
436.296
344.43
276.303
235.616
212.936
202.128
195.959
194.733
194.757
197.217
194.066
2584.13
3933.71
4157.68
2921.73
2956.07
2278.32
2293.15
1876.8
1810.83
1547.65
1471.04
1298.22
1257.83
1183.02
1160.49
1113.39
1093.53
1050
1020.99
988.387
11321.2
9828.51
7383.14
4714.58
4020.29
2517.32
2452.21
2005.35
1985.11
1768.62
1725.13
1573.37
1524.63
1415.28
1371.22
1294.96
1254.18
1192.52
1152.94
1105.99
20994
9707.16
7748.21
5337.8
4221.4
2658.75
2553.05
2053.55
2006.69
1777.8
1737.08
1601.05
1555.97
1454.95
1408.09
1330.78
1285.16
1221.63
1179.57
1128.41
23888.7
11649.8
8459.4
4756.61
3983.29
2759.57
2669.29
2149.96
2070.48
1813.7
1763.49
1619.84
1569.9
1464.91
1413.25
1338.25
1292.81
1233.37
1194.66
1145.93
16840.5
15252.6
10454
4996.28
4278.79
2921.35
2834.14
2300.56
2073.84
1783.33
1671.43
1537.91
1470.06
1392.47
1338.74
1278.38
1238.5
1189.58
1154.45
1116.88
14946.6
10750.5
7040.24
4445.12
3903.32
2905.62
2700.41
2132.98
1885.22
1616.3
1496.85
1381.34
1324.85
1256.35
1210.72
1162.67
1128.27
1087.38
1055.02
1026.53
12546.5
11749
10028.5
5511.31
4781.93
3487.28
2957.08
2145.29
1766.52
1420.71
1284.6
1144.54
1098.94
1031.55
1003.55
969.662
942.294
914.494
893.148
883.136
13737
12428.5
9786.15
5381.96
4203.76
3327.3
2990.22
2076.44
1561.01
1218.89
1032.95
902.863
857.923
816.573
785.877
760.102
751.247
752.726
757.318
775.276
19092.6
14620.8
12839.3
6989.53
4830.68
3521.89
2927.6
2128.03
1425.73
1004.72
739.951
606.075
621.249
637.019
627.862
645.911
653.117
677.48
704.334
741.907
44628.4
12122.1
8351.32
4761.19
3967.99
3018.76
2600.31
1966.77
1392.11
946.243
649.186
475.291
465.917
540.679
579.916
640.649
651.037
679.55
704.573
738.849
16791.8
13262.1
8046.47
4378.68
3665.19
2735.73
2635.78
2016.58
1570.95
1281.68
1061.37
813.674
635.122
588.617
609.027
652.278
655.344
665.518
679.35
701.74
18293.1
12078.5
9440.47
4622.35
4074.01
2604.39
2209.19
1683.64
1466.93
1261.54
1101.67
859.906
710.837
640.734
678.904
660.267
649.473
643.632
643.012
649.592
17434.9
12558.6
7730.21
4294.06
3584.67
2215
2037.4
1492.94
1290.97
966.855
970.271
851.571
837.325
770.941
745.048
696.903
675.722
644.057
630.688
624.637
32219.9
15427.1
7977.38
4228.87
3586.35
2157.26
2159.93
1603.9
1467.91
1216.82
1168.31
1070.94
1026.91
948.42
889.803
821.41
769.833
709.044
668.583
637.511
47668.4
14457.8
7011.13
4395.53
3398.96
2054.71
2148.06
1598.63
1633.43
1367.5
1367.73
1235.56
1205.93
1093.85
1039.94
940.328
880.513
797.194
744.595
693.615
29022.1
18369.4
11405.3
4458.94
3391.38
1962.37
2092.22
1551.95
1608.51
1359
1353.31
1217.7
1182.21
1073.14
1026.6
937.343
889.77
817.197
773.527
727.56
34173.9
14816.1
8313.61
4178.15
3713
2116
2100.16
1463.8
1471.66
1212.34
1219.54
1090.62
1079.39
997.68
973.134
906.982
881.666
828.693
802.009
777.914
10483.6
7676.75
5126.66
3368.03
3429.98
2207.03
2148.29
1456.33
1358.82
1067.48
1060.36
952.923
953.734
899.26
890.048
850.458
840.327
818.53
815.244
808.059
7456.31
3920.87
1643.78
1380.51
1237.8
950.366
664.433
472.269
362.52
296.146
257.211
224.568
207.647
191.072
186.398
178.029
177.991
176.486
176.568
158.095
630.119
790.458
511.189
839.938
667.988
842.655
540.34
467.602
412.001
264.77
619.087
502.268
460.252
324.668
548.035
1062.03
958.925
882.762
577.546
1093.68
1024.2
278.915
921.433
786.218
490.712
369.145
989.173
819.607
197.072
317.531
226.771
906.199
884.87
1132.32
1104.16
153.78
218.517
215.353
880.998
806.719
1079.64
1004.07
102.037
209.871
124.804
745.196
561.622
941.567
611.824
90.207
108.059
98.5757
532.253
461.533
548.094
455.091
82.6139
97.3906
86.7248
437.862
384.014
428.1
354.754
70.8822
81.9147
68.9555
366.536
327.075
333.628
286.769
64.0232
66.0384
60.9491
319.295
300.664
276.635
254.48
49.6627
59.767
47.4378
294.915
288.468
248.507
232.929
231.591
305.348
243.633
1170.41
1132.1
1186.86
1133.46
224.097
244.856
227.483
1112.19
1007.16
1101.46
928.476
106.501
208.734
93.7832
927.436
564.279
839.634
504.942
94.452
80.1339
79.065
505.688
433.923
451.893
401.289
82.1672
77.7718
65.1629
410.229
336.234
368.634
277.97
66.06
63.1986
54.3834
314.773
269.383
262.397
220.334
58.8749
51.5383
48.0727
259.974
239.506
205.965
180.712
46.6532
47.5187
36.2433
233.166
221.947
177.14
167.337
242.844
314.534
268.033
1182.92
1139.72
1264.54
1239.78
233.071
269.383
273.177
1104.55
943.914
1204.93
1102.54
113.816
273.728
265.626
872.983
544.869
1073.74
945.803
75.0868
246.049
85.8755
469.355
406.1
841.79
501.966
65.1282
83.2353
102.916
373.534
279.791
506.772
484.194
60.0548
89.1954
71.4581
269.854
239.009
423.088
329.565
44.6631
71.3551
46.8838
215.394
167.274
310.887
192.824
34.4986
40.9707
30.0503
160
153.274
168.231
142.591
264.42
284.188
170.985
1263.84
1233.59
918.525
951.454
274.222
170.123
213.415
1205.3
1124.27
986.315
1083.3
282.784
231.311
268.641
1104.66
1023.39
1089.54
1075.41
120.612
275.378
265.67
963.636
587.72
1064.43
968.84
127.788
240.045
178.681
561.58
575.087
920.826
794.085
73.8331
172.002
84.7148
537.881
360.579
755.108
464.947
50.5296
81.1794
49.9658
333.981
206.119
390.798
221.564
29.582
43.4378
32.0765
179.174
148.952
198.533
181.964
1109.35
1439.37
1290.34
1683.9
1535.44
1877.16
1646.1
939.954
1255.91
1127.62
1465.33
1157.85
1583.15
1295.97
658.396
1042.24
698.306
1056.77
848.532
1167.89
846.151
530.249
631.071
514.789
799.711
669.362
780.235
627.012
438.167
481.498
396.604
636.155
553.769
583.486
480.099
375.001
373.322
323.088
530.54
482.227
453.778
399.731
346.115
312.339
287.964
474.222
448.572
388.336
361.261
326.97
281.443
260.55
441.859
427.347
354.191
333.651
1309.1
1432.16
1289.48
1872.48
1648
1818.67
1584.71
1122.98
1240.87
1027.26
1582.39
1287.23
1498.55
1190.99
655.172
928.92
600.7
1155.49
819.402
1078.12
792.867
493.483
545.213
464.032
754.606
607.686
745.484
546.501
375.392
419.387
305.302
563.252
451.211
463.354
301.24
302.369
287.261
241.991
423.495
370.077
284.652
258.114
269.781
226.631
199.878
359.366
334.822
248.213
235.89
246.87
196.583
184.42
328.123
314.103
236.387
234.464
1294.55
1517.68
1404.14
1822.76
1583.67
1947.93
1700.57
1042.97
1352.73
1213.85
1493.39
1204.06
1609.86
1381.39
638.37
1174.7
1013.62
1102.14
825.926
1317.13
1110.26
474.499
905.38
632.486
778.444
570.419
1034.72
906.214
309.338
623.153
557.625
474.289
312.027
866.144
743.824
264.192
495.034
397.857
311.076
287.988
678.666
536.958
184.344
361.928
218.846
257.914
213.192
458.676
272.156
168.955
191.745
160.667
210.669
216.049
243.992
220.246
1402.42
1199.76
1163.75
1930.59
1709.84
1616.57
1552.85
1243.38
1182.75
1233.09
1629.23
1426.14
1542.53
1490.39
1101.88
1227.4
1179.79
1371.9
1205.75
1449.32
1343.53
726.513
1162.64
1067.87
1143.19
1020.24
1323.18
1275.97
674.906
1029.13
906.6
999.178
893.655
1259.26
1144.76
440.42
855.407
565.016
803.692
609.536
1074.11
745.262
235.139
462.078
254.628
512.899
296.024
589.1
330.325
169.024
229.576
206.905
264.895
233.394
303.294
279.988
1641.59
1982.87
1725.91
2225.41
1889.85
2274.12
1922.39
1201.97
1649.27
1312.25
1732.33
1310.83
1791.17
1332.42
891.012
1178.29
873.045
1211.36
992.093
1197.53
927.005
701.877
808.209
649.296
930.332
781.753
860.778
691.532
582.393
604.512
498.847
747.74
655.679
646.262
539.951
510.193
472.266
418.215
631.562
583.872
513.73
462.102
475.576
406.877
379.923
576.11
547.014
451.825
427.979
452.716
372.974
351.897
540.178
522.71
422.02
402.953
1723.93
1912.18
1647.92
2255.02
1911.86
2143.74
1791.91
1304.71
1550.36
1217
1782.55
1325.24
1660.25
1259.85
849.886
1102.5
831.847
1186.77
905.524
1143.34
894.9
739.504
731.162
768.598
809.176
717.046
752.215
794.509
523.988
540.162
560.8
598.624
511.347
554.643
574.718
386.019
256.353
253.66
474.535
423.019
297.153
280.143
351.183
248.808
245.752
413.284
393.415
278.796
284.677
330.577
248.069
248.135
388.509
377.69
289.214
295.18
1643.54
2047.56
1756.29
2144.34
1773.49
2252.59
1859.32
1228.88
1654.48
1400.38
1641.37
1267.51
1728.5
1408.54
864.887
1329.63
1123.34
1158.69
921.548
1323.86
1129.01
843.569
756.053
880.221
854.078
824.101
710.534
912.105
449.419
332.911
500.105
326.688
433.1
258.931
470.564
281.53
721.75
559.038
344.142
293.267
766.057
559.351
222.151
472.927
285.244
277.555
264.854
473.132
321.635
229.813
258.942
237.508
267.605
281.361
305.153
296.244
1767.06
1722.89
1628.55
2217.82
1869.11
1947.52
1754.19
1447.08
1608.38
1526.38
1747.59
1453.1
1702.09
1534.99
1215.45
1474.01
1361.23
1378.27
1210.79
1463.55
1355.09
1080.74
1345.38
1320.55
1182.44
1157.83
1355.86
1371.4
937.459
1309.73
1197.71
1142.44
967.808
1366.18
1242.17
636.722
1125.89
760.903
896.222
633.54
1156.23
715.509
310.439
601.177
348.297
526.37
346.911
581.996
392.555
251.451
322.963
299.024
327.18
309.752
374.502
355.419
1963.66
2384.45
1987.74
2825.88
2204.19
2788.36
2245.24
1352.58
1835.4
1345.67
1988.17
1547.9
2028.89
1477.38
1026.78
1212.53
944.488
1453.73
1196.17
1350.37
1060.01
810.508
876.036
703.14
1122.71
965.371
977.142
782.753
682.208
658.048
552.259
932.243
827.849
736.727
630.666
610.888
526.404
476.793
804.279
760.18
607.926
579.865
573.178
467.437
445.794
753.927
720.036
579.611
570.914
547.013
440.291
420.45
712.713
684.43
566.601
541.115
1975.19
2224.77
1838.55
2755.61
2234.56
2529.75
2053.96
1336.87
1695.45
1275.11
2023.47
1463.73
1881.21
1412.71
920.837
1157.32
904.695
1328.29
1019.59
1282.32
966.18
676.109
848.409
592.876
934.739
733.593
880.574
654.815
511.829
515.385
365.996
683.776
570.666
589.729
447.967
434.844
336.908
299.903
546.763
520.411
417.717
380.832
409.357
296.333
302.138
523.85
528.824
386.119
426.031
394.082
307.382
312.951
526.89
511.058
434.173
434.957
1814.26
2310.89
1888.44
2479.68
2012.49
2528.68
2056.84
1281.43
1749.52
1411.31
1851.18
1418.52
1901.99
1525.59
928.72
1323.19
1127.31
1293.13
983.025
1427.05
1182.47
623.288
1092.95
1016.78
902.611
678.257
1127.57
985.887
409.666
977.255
805.352
612.924
473.869
928.539
753.348
309.491
753.649
544.719
440.323
380.297
702.822
539.831
284.267
465.615
336.543
380.605
412.857
501.004
456.228
300.565
324.033
316.983
421.359
426.925
452.964
445.544
1896.85
2017.54
1780.97
2498.9
2059.87
2273.26
1885.55
1453.18
1717.21
1522.56
1907.43
1553.56
1780.57
1531.17
1207.72
1447.64
1346.86
1469.54
1268.67
1467.5
1375.59
1152.79
1350.2
1360.44
1225.59
1112.83
1357.86
1264.67
946.952
1350.91
1208.62
1059.67
863.125
1229.34
1042.69
613.42
1113.1
684.149
800.888
598.637
947.764
667.545
361.109
568.919
408.014
546.602
479.058
606.778
523.031
329.976
393.126
373.876
472.118
456.08
512.116
484.853
2297.19
2953.84
2361.44
3471.78
2666.5
3483.19
2791.18
1652.35
2128.09
1573.67
2448.55
2090.73
2537.43
2026.12
1294.24
1449.68
1144.51
2014.06
1754.14
1919.74
1584.6
1064.68
1055.59
851.783
1670.82
1556.85
1487.7
1290.63
925.554
805.002
698.883
1525.3
1427.42
1249.09
1167.5
862.603
679.881
674.325
1397.35
1383.91
1169.52
1254.16
823.419
681.506
679.823
1376.03
1349.94
1269.01
1268.46
781.86
675.98
644.737
1335.8
1288.76
1265.9
1235.32
2356.49
2668.74
2173.1
3478.58
2800.29
3143.98
2644.55
1560.87
1994.89
1517.35
2549.62
2020.16
2466.2
2005.56
1097.62
1379.57
1025.08
1892.45
1519.41
1847.12
1411.92
790.805
926.878
691.711
1415.37
1200.15
1293.46
1040.17
626.975
628.348
487.279
1153.69
1066.92
978.582
858.898
605.385
459.513
449.586
1071.35
1189.21
867.965
1045.2
638.218
473.05
542.748
1228.77
1244.82
1127.45
1204.68
613.497
551.143
541.684
1243.01
1204.28
1206.03
1173.67
2129.64
2649.94
2173.24
3057.15
2611.53
3146.64
2675.66
1525.56
2016.18
1634.18
2453.31
2024.28
2515.2
2145.91
1040.74
1530.9
1251.47
1866.38
1427.52
2030.6
1649.43
713.054
1180.38
1002.12
1308.42
1048.27
1538.51
1276.42
507.112
939.216
765.328
982.887
858.415
1209.57
1086.55
447.605
718.535
602.113
867.259
1045.82
1088.43
1207.32
531.805
587.096
573.582
1128.04
1203.95
1244.68
1241.84
534.749
571.182
553.202
1204.45
1164.49
1235.5
1198.06
2174.68
2411.6
1952.83
3205.08
2674.06
2944.43
2319.75
1656
1832.42
1585.09
2502.97
2155.13
2159.05
1991.95
1340.99
1533.17
1428.21
2071.07
1738.37
1967.4
1766.35
1122.47
1389.29
1253.81
1632.08
1378.12
1661.19
1489.95
869.119
1216.03
1035.14
1314.18
1190.95
1468.38
1348.59
664.45
952.777
734.727
1189.78
1273.83
1318.39
1301.63
594.848
692.73
627.167
1282.72
1254.85
1299.68
1240.19
562.396
614.585
575.323
1245.39
1197.12
1214.6
1159.74
684.083
679.413
612.588
646.807
664.951
698.14
628.673
745.705
769.97
723.262
818.874
722.657
800.034
675.877
671.745
592.707
620.181
418.594
658.107
601.399
525.072
754.591
826.341
778.849
825.75
767.359
812.645
764.827
697.01
658.921
721.517
647.036
711.589
639.671
705.457
755.888
830.394
828.316
751.736
817.845
676.568
763.681
681.092
420.197
619.624
641.299
608.781
522.582
691.375
477.319
501.453
426.813
481.086
465.928
515.349
437.375
471.126
527.699
325.369
338.778
465.714
533.995
273.871
405.529
361.34
280.482
232.968
405.26
362.022
235.928
533.642
610.144
575.165
591.824
565.995
584.695
541.163
486.907
492.38
536.253
456.483
526.674
446.958
495.69
477.694
348.518
551.915
402.175
540.783
294.722
489.712
415.084
251.43
392.036
361.144
371.818
258.023
434.878
719.01
660.546
622.534
435.797
741.566
566.344
575.309
954.066
963.883
1021.72
1080.8
922.555
989.469
1051.9
906.43
804.288
994.37
997.355
880.858
830.611
1028.97
860.024
870.168
809.943
937.566
728.734
930.214
877.796
731.835
451.399
688.692
678.517
569.5
613.691
774.812
970.434
1090.79
1007.51
1072.55
1003.09
1067.89
974.623
921.562
1019.14
866.382
1052.17
855.486
1047.38
926.491
467.895
283.795
451.923
255.62
434.09
247.307
483.567
720.154
719.182
888.918
964.027
673.154
761.753
927.955
690.893
625.083
848.468
812.659
651.83
656.279
878.626
517.576
370.251
429.841
610.127
319.788
541.916
567.67
518.87
297.674
392.112
531.734
301.545
514.997
546.687
750.299
986.285
809.399
941.953
796.545
944.486
758.951
711.465
822.752
675.151
882.269
672.359
888.651
714.938
344.101
468.764
343.431
645.728
624.51
656.94
651.099
217.373
278.201
234.502
609.031
565.478
651.922
615.462
160.511
191.404
163.556
502.832
449.749
518.562
456.806
146.285
151.061
146.539
417.923
404.826
421.479
397.692
143.56
143.296
137.819
392.807
381.417
383.64
363.963
129.654
127.248
119.49
357.514
339.769
335.564
316.828
122.461
115.917
111.229
325.065
317.853
306.781
296.956
104.31
108.132
89.1142
301.021
321.367
284.525
298.81
514.842
635.987
485.767
985.627
850.583
1001.42
958.46
427.65
268.045
327.827
456.258
416.567
451.776
261.535
438.915
171.353
180.67
380.158
380.988
429.42
171.7
453.905
137.532
169.265
376.898
356.006
471.012
164.615
291.228
90.5481
109.794
257.218
254.95
301.18
103.379
252.054
87.8881
96.9322
239.718
232.733
261.127
94.8894
209.514
77.1795
84.1427
211.026
203.811
219.662
80.4478
179.7
66.9479
70.1518
181.443
177.353
184.137
68.5829
164.082
62.4575
63.8409
164.146
161.62
166.534
62.6861
90.1854
98.2656
76.0307
237.36
249.692
213.963
221.549
495.404
618.531
490.693
1055.74
1021.39
1072.69
1061.54
543.565
260.203
314.492
511.33
532.73
513.924
255.953
644.257
230.158
236.455
618.869
623.989
643.178
237.247
424.42
183.643
208.786
574.263
478.734
549.82
163.003
233.046
93.3864
84.9341
264.589
257.878
233.067
84.7094
221.472
91.9795
87.4856
250.467
239.202
232.844
84.8949
172.122
72.9892
70.611
198.988
187.183
182.715
67.0096
146.727
61.7234
59.6129
161.883
157.041
150.709
58.2833
133.992
55.8536
54.9721
144.36
141.708
136.602
53.6078
70.5151
75.1239
55.0623
183.138
194.461
154.887
158.283
454.059
501.86
467.25
1015.7
1046.38
1010.4
1089.52
574.745
249.271
289.415
512.411
568.605
507.628
251.552
662.57
243.551
245.421
656.796
651.058
665.509
246.448
590.521
201.35
238.927
573.881
506.048
618.624
230.956
204.172
77.2039
116.666
215.938
198.913
263.207
86.1337
200.733
69.5908
72.5282
206.302
196.073
209.264
67.6152
172.627
64.8478
64.3857
169.073
166.672
172.715
67.2996
132.861
49.0304
62.9936
135.721
122.484
158.108
52.7495
93.2451
42.5449
40.89
102.927
100.713
96.6349
39.4994
46.9285
58.3846
47.5415
128.02
135.841
124.847
137.821
447.564
427.471
406.119
914.306
1082.15
856.44
850.627
537.708
270.074
292.894
544.289
614.581
508.915
246.406
666.555
269.15
235.007
714.417
717.138
642.989
244.973
718.681
281.106
273.372
719.953
719.265
712.85
279.119
684.267
254.817
288.121
679.478
605.988
713.482
280.803
313.639
101.199
134.865
251.723
278.291
316.941
120.154
302.744
94.8111
132.54
325.559
253.964
348.734
121.128
180.954
72.1346
77.684
180.945
176.11
187.432
74.8718
97.0639
38.513
43.7155
103.834
93.9079
108.16
39.1936
51.168
68.3886
56.6219
138.671
152.269
157.359
174.98
282.531
347.762
296.918
597.293
663.638
621.472
753.064
316.889
286.771
270.797
810.245
900.94
794.446
744.797
351.405
228.542
199.133
915.839
903.986
624.621
573.955
362.447
189.4
183.878
894.927
871.388
563.089
541.062
323.632
181.792
172.824
804.504
699.11
501.352
408.399
165.33
141.048
100.594
527.876
369.68
343.984
296.628