/*--------------------------------*- C++ -*----------------------------------*\
  =========                 |
  \\      /  F ield         | OpenFOAM: The Open Source CFD Toolbox
   \\    /   O peration     | Website:  https://openfoam.org
    \\  /    A nd           | Version:  10
     \\/     M anipulation  |
\*---------------------------------------------------------------------------*/
FoamFile
{
    format      ascii;
    class       volScalarField;
    location    "8.5";
    object      k_0;
}
// * * * * * * * * * * * * * * * * * * * * * * * * * * * * * * * * * * * * * //

dimensions      [0 2 -2 0 0 0 0];

internalField   nonuniform List<scalar> 
12920
(
49.8336
938.311
1315.1
1196.98
787.468
461.636
353.362
344.5
335.497
318.499
283.732
240.798
189.157
142.925
108.809
88.3882
79.6805
76.1587
74.1297
66.8377
2624.13
1893.73
1884.78
1891.3
1507.89
831.659
452.625
325.664
282.146
262.666
229.489
195.161
167.858
152.966
150.084
150.995
153.935
155.121
153.145
139.753
524.64
973.1
1180.08
1233.47
998.456
621.834
407.792
316.122
255.683
223.568
205.549
198.296
198.059
200.357
200.89
197.98
190.782
182.467
172.488
152.609
176.527
1130.21
1403.67
1284.55
936.368
636.562
442.721
344.164
285.031
254.573
234.085
226.196
221.186
218.337
212.316
205.828
198.722
188.621
178.165
161.94
1709.04
1298.53
1650.11
1432.34
883.831
630.429
443.576
353.106
298.584
279.105
261.205
253.357
242.626
234.881
225.173
215.739
207.327
195.039
188.045
173.422
1495.19
1685.19
1775.93
1663.51
1077.57
629.294
411.68
330.673
291.001
269.54
247.309
238.144
228.062
221.388
213.342
205.129
197.616
187.855
182.835
170.576
5069.86
3254.97
2502.15
1739.31
1084.73
643.383
442.906
366.157
319.832
283.95
255.151
234.736
218.4
207.361
196.036
186.485
178.243
171.741
167.915
156.134
2369.16
3033.38
2889.34
2220.59
1314.14
797.114
468.579
266.735
188.6
148.278
146.541
135.872
127.697
120.314
182.162
162.781
152.48
146.369
140.557
123.802
2212.56
3363.04
2710.65
1874.12
1280.71
650.073
340.98
179.963
147.525
93.2631
90.1607
80.451
69.096
63.5633
104.506
138.696
123.767
112.797
102.21
91.0642
3671.36
4565.24
3277.7
1993.26
1269.94
636.351
321.594
231.5
213.03
95.2027
94.2738
77.2812
63.4939
57.3496
87.0778
102.189
88.6123
81.1667
78.1976
78.9101
2517.29
2333.42
2109.54
1482.43
1000.92
508.686
293.88
244.564
222.547
86.9381
73.4491
65.1331
53.3315
43.8274
61.8102
85.1796
79.9776
78.1398
78.2337
80.7394
1283.26
1759.71
1297.89
876.715
754.156
478.234
307.94
267.812
278.454
277.489
97.9615
120.976
73.6759
42.226
62.0418
101.257
91.5112
84.5165
79.9244
78.2107
935.849
2053.11
1898.81
1248.65
780.215
580.92
348.905
290.549
337.32
361.838
352.382
253.526
108.498
73.1414
105.951
94.6254
86.8367
82.5432
80.7391
77.2961
1945.34
2639.2
2030.1
1266.89
742.23
510.118
409.668
275
220.474
190.828
174.529
151.508
130.955
121.815
114.474
110.172
106.907
102.104
97.3796
84.5387
159.566
1979.93
2055.94
1531.98
949.598
692.275
443.507
304.988
220.92
198.292
182.353
180.973
181.881
187.183
186.927
180.144
168.029
155.332
143.781
111.305
6824.56
3422.79
2256.32
1530.93
969.568
620.561
386.069
272.604
225.466
218.272
213.946
216.873
217.672
220.821
219.827
213.739
206.285
190.143
175.421
136.222
2681.57
2991.27
2682.89
1496.15
805.386
437.899
285.117
223.329
208.583
205.912
204.841
204.345
202.613
198.102
189.029
176.847
168.865
154.987
145.286
119.148
6577.57
3113.94
2240.16
1241.78
694.92
431.335
300.079
245.555
204.953
184.892
169.309
160.248
150.861
142.014
131.777
121.286
112.498
105.744
102.96
96.4599
5423.77
5123.38
3769.68
2516.97
1258.38
686.929
484.666
408.778
313.063
258.14
208.065
185.122
163.369
152.418
138.294
126.439
114.805
102.086
88.1079
81.1091
6996.95
3847.93
1794.98
888.217
573.474
440.342
342.565
282.942
223.811
183.752
153.207
132.913
115.307
99.3817
86.4718
77.7033
74.0525
71.0718
67.2476
58.0809
3196.96
2815.85
2063.23
1367.27
880.034
739.18
717.05
693.253
627.548
548.627
464.533
381.617
309.438
256.07
219.829
194.1
174.416
163.251
156.817
138.093
7508.28
4046.35
3401.02
3299.06
2134.99
1315.71
889.759
799.673
675.688
625.888
533.897
489.332
461.276
454.897
457.044
457.833
460.178
472.38
478.849
461.136
5478.93
3116.87
2402.67
2837.67
2267.51
1508.41
1025.3
835.345
672.93
615.837
589.486
592.184
601.261
604.229
597.914
580.616
564.406
548.937
525.142
476.148
7450.2
4259.7
3033.72
2870.64
2309.8
1595.08
1127.43
909.028
767.481
699.662
651.477
640.417
631.168
625.163
610.707
595.569
576.564
554.312
527.925
487.125
6822.65
4539.27
4467.35
3426.41
2071.4
1640.92
1118.73
954.313
812.32
777.426
728.801
710.149
684.513
665.87
640.811
617.965
594.535
566.514
546.299
507.844
5525.02
5713.01
4978.83
4196.83
2293.39
1412.55
951.296
866.179
785.756
741.814
688.885
664.941
638.025
621.425
600.98
581.434
561.981
539.85
526.066
492.89
10071.9
7021.88
4621.07
2980.21
1519.15
1145.76
1002.95
960.395
858.228
758.298
677.875
628.027
591.022
567.507
543.708
523.148
504.752
489.01
476.976
443.422
1597.1
6140.64
5681.8
4004.83
2069.33
1413.6
1106.87
1024.48
793.945
633.685
567.673
500.899
469.211
438.229
439.785
420.373
407.468
398.319
383.977
349.065
5002.43
7796.44
5594.04
3594.25
2213.34
1667.89
1227.68
1091.23
858.089
623.773
502.936
418.678
367.543
340.545
325.232
313.931
303.184
291.524
275.448
264.014
8377.27
8850.64
6344.5
3823.53
2448.33
1917.68
1456.7
1278.93
1022.41
590.148
462.312
351.337
292.515
263.287
239.255
223.938
217.917
218.542
221.627
236.302
9826.92
7097.77
4177.72
3190.02
2127.26
1770.29
1422.73
1243.83
958.332
565.686
426.854
299.613
236.905
176.96
169.209
194.519
203.05
215.47
223.672
244.164
7300.64
4660.46
3247.86
2156.71
1826.02
1599.17
1515.26
1362.37
1216.61
1031.86
701.341
611.492
393.028
204.808
189.51
228.77
228.504
226.055
225.961
230.09
3758.77
5280.1
4676.6
2992.46
1784.69
1364.77
1139.52
1225.5
1212.04
1137.92
1054.62
787.963
382.845
250.65
253.257
243.206
235.729
233.757
230.917
226.975
6989.1
8710.99
4822.51
2793.21
1410.77
1240.22
1025.27
691.194
596.923
502.441
452.588
392.534
332.9
315.163
306.118
299.483
292.48
281.727
269.739
242.964
3888.88
7927.84
5363.53
3521.17
1919.06
1587.86
961.348
764.168
587.162
543.301
494.372
483.154
473.967
475.413
471.181
457.826
439.118
411.152
383.708
311.331
18669.8
7372.01
4341.43
3331.89
1736.25
1298.73
829.212
692.308
614.745
606.953
592.146
593.426
587.209
583.9
574.895
561.509
546.87
517.812
483.724
386.499
9685.55
7328.81
5065.34
2515.22
1364.03
913.523
687.071
597.947
570.459
567.36
557.234
556.126
545.174
536.977
515.673
496.022
477.696
448.743
421.066
352.874
16929.3
8461.71
4273.82
2321
1202.02
978.062
752.667
650.274
542.078
502.275
454.402
440.791
412.18
400.564
375.063
357.724
340.607
331.246
323.792
302.42
16213.9
11022.8
5031.29
2905.7
1528.33
1358
1091.94
937.146
714.713
612.167
506.235
466.113
419.737
400.745
376.345
364.466
341.87
311.951
268.818
249.996
6629.64
4353.58
3040.4
1894.73
1342.68
1010.27
772.241
618.622
488.604
406.33
340.664
293.875
249.885
218.398
196.415
177.857
165.979
156.057
147.6
133.946
8617.17
4944.42
2151.25
1261.32
949.564
874.394
834.469
762.031
659.668
562.422
467.755
383.444
316.544
267.615
233.181
206.786
189.433
181.087
179.444
175.23
7353.38
4158.28
3747.43
2988.96
2052.19
1629.77
1273.75
1151.12
974.264
900.65
795.039
743.193
689.107
660.831
636.829
621.054
617.535
617.903
614.578
584.076
9063.76
4467.32
3979.89
3893.07
2833.84
1966.25
1443.75
1228.67
1051.05
987.688
928.249
903.683
866.219
833.63
797.166
766.169
740.892
713.023
685.22
636.85
8372.1
6166.85
4858.23
4260.47
3025.75
2085.05
1540.09
1270.77
1101.2
1014.15
949.856
918.117
882.976
853.921
820.847
790.712
760.878
726.879
696.928
651.853
10101.7
7655.81
5644.01
4243.33
2740.41
2123.47
1572.71
1364.44
1175.9
1089.07
1009.32
963.693
918.191
881.111
842.373
806.521
773.498
737.038
711.234
667.532
8706.29
8711.12
6739.29
4683.74
2693.29
1995.15
1515.99
1351.3
1155.17
1047.19
954.356
906.313
860.943
828.773
795.369
764.039
735.962
706.348
686.067
646.379
10652.8
8689.12
5561.98
3237.81
2023.8
1815.35
1595.66
1386.56
1161.33
1003.98
889.722
826.799
778.321
746.596
714.348
686.443
662.636
639.741
621.218
583.656
3964.44
8817.87
6876.14
4382.09
2634.06
2091.29
1722.52
1466.69
1126.5
894.078
779.534
683.898
645.173
604.521
575.877
554.95
539.626
523.311
504.018
476.61
14659.9
10419.2
6935.49
4196.52
2848.08
2224.63
1835.55
1548.6
1098.91
838.869
668.131
558.954
502.605
469.201
436.727
409.548
402.666
394.42
386.225
384.877
8140.22
8926.31
7659.8
4824.74
3105.98
2470.79
1976.59
1646.28
1165.04
785.072
582.759
439.454
375.627
344.974
314.958
303.013
306.378
317.044
328.365
354.225
7831.45
7702.77
5235.47
3779.5
2715.03
2318.77
1919.02
1541.75
1122.8
823.084
429.181
290.152
254.618
221.94
238.21
276.864
295.892
316.941
331.33
358.242
9233.52
7692.9
4725.51
2855.41
2386.02
2105.48
2033.91
1677.47
1388.05
1164.81
1067.91
847.705
526.202
280.355
272.333
311.051
317.895
324.102
328.692
339.389
12109.3
9778.76
5809.3
3452.13
2376.04
1778.75
1604.42
1586.43
1390.79
1347.5
1302.58
1022.58
486.782
344.791
342.953
336.28
330.604
327.995
324.555
322.599
30747.9
17412.3
6368.98
3149.68
2022.42
1579.83
1277.61
910.931
799.961
658.784
591.206
516.611
445.973
425.9
409.881
397.239
383.214
366.325
348.812
326.736
12451.8
11253.9
5946.13
3878.66
2340.17
1738.09
1221.59
1015.16
822.388
751.254
669.508
643.236
614.324
599.145
572.55
546.241
516.666
478.437
439.211
376.084
23959.3
8685.69
5684.49
3499.61
2159.91
1499.27
1157.93
970.639
887.635
838.985
794.139
776.089
741.624
721.893
685.332
655.691
619.684
573.956
528.038
441.054
1507.35
7953.68
8200.58
3998.2
1973.59
1263.1
1062.97
909.928
851.742
810.999
770.068
748.285
710.261
684.898
646.276
617.476
585.938
548.87
512.993
442.297
10578.8
11419.8
7091.8
3163.52
1934.78
1480.39
1134.65
929.709
785.831
716.219
654.343
629.393
589.884
572.787
541.494
522.596
500.821
483.668
462.169
423.294
20353.5
8797.47
4936.32
2969.06
2156.07
1809.93
1368.95
1133.06
868.314
753.886
638.113
594.913
543.936
527.314
504.369
492.21
469.357
446.506
416.763
401.803
4359.92
3981.74
3002.92
2231.44
1694.09
1250.81
923.068
697.164
537.925
433.884
356.697
301.716
259.741
230.873
208.659
192.382
184.733
180.492
181.763
181.342
2622.31
2838.57
1298.19
962.688
910.872
893.794
856.696
760.207
632.518
522.415
428.66
347.857
289.447
247.25
221.714
204.962
198.245
196.541
199.424
198.269
5793.97
4246.45
3728.59
2823.47
2305.23
1972.44
1670.22
1492.1
1295.03
1175.92
1052.09
967.821
897.874
852.391
820.822
796.018
785.349
768.343
747.812
711.906
12611.1
6581.43
5874.24
4430.47
3285.32
2310.45
1884.7
1620.76
1449.15
1346.22
1259.43
1187.51
1122.19
1059.59
1009.07
961.639
925.381
882.895
847.474
799.323
12767.2
7839.41
6549.65
4955.78
3599.24
2456.62
1977.09
1648.84
1473.5
1348.81
1268.76
1201.3
1146.11
1088.98
1041.35
992.591
951.429
905.089
868.424
819.367
12548.3
9667.2
6851.47
4434.9
3248.26
2460.78
2043.15
1754.25
1551.4
1409.43
1312.62
1233.03
1170.57
1108.16
1055.81
1003.9
961.52
915.388
882.015
834.263
18268.8
11961.5
8118.17
4789.06
3259.47
2533.09
2075.34
1797.18
1526.58
1357.66
1235.94
1157.59
1094.28
1042.92
996.679
952.207
916.139
878.211
849.621
808.45
9166.09
9709.09
6368.77
3595.11
2917.66
2447.46
2119.75
1756.06
1457.4
1255
1117.08
1037.22
976.824
932.415
890.991
854.681
824.709
793.827
767.581
732.358
25182.1
13084
8062.78
4973.3
3489.4
2844.49
2318.74
1769.64
1380.13
1091.11
955.307
841.517
796.443
745.388
714.62
691.917
672.71
651.061
630.583
611.135
18446.8
12626.1
8259.89
4798.07
3493.09
2796.22
2369.75
1786
1252.66
961.63
776.279
658.049
603.42
566.406
529.202
511.394
509.606
507.293
507.568
513.449
13130.1
10122.1
9157.76
6053.73
3836.68
2975.97
2358.59
1823.95
1196.55
851.87
626.82
484.601
426.323
405.32
383.685
398.286
412.608
433.186
452.052
483.009
16398.1
9295.87
6499.12
4212.62
3264.02
2693.39
2216.3
1669.8
1168.44
882.728
542.858
378.912
293.592
288.548
319.844
382.682
407.69
433.662
453.7
482.945
24786.7
12835.5
6466.72
3553.97
2893.66
2390.14
2280.36
1765.3
1374.5
1183.62
1132.19
878.36
512.576
345.103
354.6
408.57
420.95
432.011
440.658
456.895
12802.6
10639.9
7529.89
4047.09
3007.33
2099.18
1858.65
1645.7
1341.92
1329.32
1223.87
884.864
510.883
422.676
437.438
433.143
428.375
425.726
424.063
425.456
20065
12717.8
6778.06
3576.77
2626.31
1825.98
1517.98
1110.45
976.77
767.261
708.701
623.567
561.687
534.274
510.114
488.583
468.945
447.996
430.5
416.712
49099.6
11971.7
6497.86
3841.72
2713.41
1840.79
1525.87
1240.93
1048.7
930.878
838.753
792.545
746.788
709.735
665.507
623.022
581.511
535.051
492.059
446.646
24513.9
10409
6283.07
3558.62
2599.77
1682.37
1517.91
1227.13
1157.59
1044.35
991.244
938.553
888.485
840.065
786.031
733.879
680.807
621.984
568.568
503.057
3857.76
11386.1
10113.2
4364.23
2444.76
1560.81
1422.29
1175.18
1114.82
1021.19
968.976
912.724
862.385
812.596
763.568
717.018
673.091
624.331
579.645
522.075
18569.8
13064
7701.71
3524.62
2624.25
1796.78
1469.24
1147.11
1015.35
902.685
844.12
795.711
754.555
722.726
687.913
657.659
629.533
600.512
570.029
535.968
11368.8
8123.19
4974.78
3088.73
2617.72
1984.83
1572.44
1240.25
989.166
852.694
754.61
708.728
669.046
652.855
629.726
612.608
589.705
570.569
550.501
539.895
5367.15
5279.01
2653.32
1915.6
1487.02
1133.17
853.585
624.161
479.274
377.943
317.073
272.072
241.67
218.7
203.791
195.338
195.112
196.325
203.431
199.709
1876.08
896.714
728.989
861.533
932.386
917.616
812.612
665.846
536.24
435.949
343.964
275.941
235.396
212.821
202.065
195.935
194.74
194.787
197.231
194.065
2654.29
4002.85
4138.52
2936.42
2952.18
2289.91
2295.71
1882.63
1813.04
1550.44
1472.59
1299.86
1259.29
1184.54
1161.9
1114.77
1094.88
1051.36
1022.01
987.938
11979.3
9924.34
7393.03
4733.12
4015.24
2525.2
2456.67
2014.37
1990.35
1774.56
1729.23
1577.04
1527.56
1417.84
1373.48
1296.92
1256
1194.32
1154.32
1105.66
19781.3
9614.75
7830.74
5350.81
4236.34
2667.93
2560.28
2062.01
2011.85
1783.27
1741.09
1604.79
1559.2
1457.79
1410.63
1333
1287.23
1223.7
1181.26
1128.34
22488
11777.4
8532.18
4763.6
3996.4
2770.52
2677.75
2160.12
2077.19
1820.56
1768.68
1624.48
1573.71
1468.25
1416.16
1340.83
1295.22
1235.77
1196.66
1146.1
17053.6
15549.4
10597.4
5014.27
4294.18
2936.3
2842.38
2308.54
2078.1
1787.83
1675.08
1541.51
1473.26
1395.47
1341.45
1280.84
1240.86
1191.96
1156.48
1117.15
14704
10808.3
7074.55
4453.95
3922.07
2918.26
2711.39
2143.13
1891.89
1622.21
1501.14
1385.29
1328.03
1259.3
1213.27
1164.97
1130.4
1089.51
1056.82
1026.71
12373.3
11764.7
10019
5529.91
4794.46
3506.92
2962.96
2147.44
1769.05
1421.4
1285.4
1144.61
1099.03
1031.2
1005.92
971.367
943.886
916.088
894.536
883.223
14208.5
12404.9
9805.62
5400.6
4225.3
3335.59
2996.84
2076.51
1560.91
1217.87
1032.07
901.782
856.802
815.218
785.021
761.611
752.302
753.962
758.433
775.328
18230.2
14831.8
12966.4
7023.88
4854.2
3532.28
2930.86
2126.64
1423.77
1003.26
738.947
605.207
619.828
635.37
626.879
647.15
654.035
678.6
705.425
741.939
43517
12071.5
8398.61
4768.83
3986.83
3022.68
2599.94
1963.42
1389.43
944.695
648.478
474.606
464.257
538.9
578.859
641.895
651.987
680.709
705.657
738.85
17169.8
13316.7
8046.05
4385.1
3684.43
2737.69
2636.39
2013.53
1567.98
1280.1
1058.57
810.972
631.899
586.52
607.918
653.47
656.202
666.602
680.326
701.724
18514.1
12251.2
9473.04
4640.24
4079.45
2607.9
2210.33
1683.72
1466.21
1260.09
1099.33
856.923
708.656
639.283
680.039
661.007
650.247
644.583
643.87
649.583
18273.3
12516.5
7744.65
4302.74
3592.05
2219.42
2044.04
1496.12
1295.8
969.427
972.467
853.966
838.431
772.212
745.788
697.747
676.366
644.897
631.358
624.501
32494.4
15430.9
7924.65
4236.59
3584.25
2162.81
2161.4
1609.14
1471.1
1220.15
1170.94
1073.24
1028.44
949.7
890.732
822.154
770.31
709.626
668.931
637.063
49448.4
14541.8
7008.46
4402.81
3404.28
2059.62
2151.08
1604.71
1636.2
1371.66
1369.97
1238.25
1207.25
1095.08
1040.51
940.804
880.697
797.558
744.641
692.703
29310
18368.9
11277.1
4441.82
3381.5
1968.28
2092.38
1555.96
1608.83
1361.28
1353.8
1218.89
1182.5
1073.62
1026.81
937.57
889.878
817.541
773.537
726.466
35624.2
14824.6
8267.01
4177.83
3720.56
2123.95
2100.41
1467.89
1471.27
1214.46
1219.54
1091.72
1079.49
998.201
973.247
907.239
881.81
829.126
802.137
776.662
10798.7
7713.23
5122.51
3378.37
3433.63
2216.47
2147.8
1458.19
1357.17
1068.03
1059.63
953.292
953.541
899.562
890.09
850.671
840.534
819.04
815.491
806.754
7373.73
3809.88
1620.54
1382.03
1240.49
951.039
663.825
471.736
362.224
296.05
257.171
224.555
207.662
191.104
186.463
178.091
178.036
176.524
176.496
157.927
629.495
789.238
510.296
839.062
667.368
843.289
540.418
467.402
410.643
265.041
618.597
502.174
460.029
324.159
547.538
1063.64
961.667
882.677
577.529
1095.56
1026.49
279.91
924.214
785.388
490.532
369.311
990.859
819.523
197.432
319.158
227.552
908.738
887.386
1137.19
1106.75
153.72
219.262
215.831
883.639
806.894
1082.41
1004.99
101.654
209.913
123.547
745.301
561.167
940.044
608.651
90.5021
107.572
98.7508
532.614
461.625
546.635
454.77
82.7338
97.5568
86.7437
438.011
384.072
427.817
354.576
70.9473
81.906
68.9789
366.622
327.261
333.506
286.875
64.1259
66.0841
61.0166
319.521
300.874
276.774
254.641
49.7468
59.8336
47.4344
295.104
288.735
248.649
233.075
232.496
306.126
244.332
1173.16
1134.97
1188.26
1135.82
224.259
245.147
227.142
1115.14
1007.03
1102.92
927.138
105.425
207.76
93.0257
924.377
560.973
836.502
502.737
94.6384
80.0033
79.2186
504.33
433.731
451.418
401.216
82.143
77.7799
65.259
409.943
336.017
368.054
278.048
66.1043
63.3015
54.3828
314.635
269.515
262.651
220.255
58.9444
51.5631
48.1666
260.147
239.676
205.876
180.866
46.6716
47.6065
36.2381
233.311
222.064
177.314
167.425
243.521
316.101
268.674
1185.12
1142.1
1268.65
1242.86
233.185
269.915
273.938
1105.97
943.616
1207.5
1105.13
112.766
274.639
266.273
871.832
542.312
1076.33
946.498
75.2445
245.923
85.6358
468.393
406.202
839.059
503.77
65.281
83.789
102.997
373
279.996
509.393
483.595
59.9376
88.2847
71.6444
270.466
238.696
420.521
329.313
44.7179
71.5468
46.5229
214.854
167.191
310.311
191.632
34.5002
40.8447
30.0703
160.025
153.349
167.54
142.648
265.437
285.231
172.085
1268.38
1237.77
921.582
954.957
275.148
171.121
215.067
1208.64
1127.27
990.696
1087.22
283.868
232.794
270.007
1107.7
1025.4
1093.27
1078.31
119.333
276.613
266.09
963.887
588.322
1067.19
970.023
127.885
239.397
179.806
564.303
576.002
921.985
795.673
73.9835
172.417
84.5497
535.201
359.72
753.954
461.084
50.0369
81.1868
49.5182
332.919
204.724
387.035
220.042
29.6089
43.1967
32.1107
178.355
149.006
197.814
182.112
1111.34
1443.48
1293.06
1686.27
1536.98
1879.02
1648.09
939.202
1258.79
1127.89
1466.36
1156.54
1584.98
1294.38
657.955
1040.3
695.575
1055.86
848.531
1165.3
844.783
530.19
629.712
514.323
799.868
669.294
779.411
626.41
438.186
481.112
396.411
636.161
553.882
583.002
479.952
375.219
373.211
323.23
530.668
482.619
453.759
399.973
346.354
312.508
288.147
474.575
448.951
388.586
361.512
327.251
281.605
260.69
442.131
427.773
354.418
333.848
1311.93
1432.59
1291.63
1873.13
1649.92
1819.08
1585.6
1122.32
1242.13
1025.67
1584.01
1285.06
1498.6
1188.76
652.187
925.861
598.812
1152.25
817.781
1075.43
792.181
493.109
544.797
463.743
753.633
607.067
744.81
545.677
375.144
418.616
305.371
562.688
450.977
462.06
301.247
302.532
287.561
241.929
423.413
370.326
285.279
258.172
269.97
226.547
200.041
359.634
335.064
248.236
236.117
246.996
196.772
184.499
328.339
314.294
236.636
234.615
1296.7
1522.03
1407.22
1823.63
1584.45
1952.24
1702.66
1042.43
1355.38
1216.43
1493.5
1202.72
1611.62
1383.14
636.343
1177.22
1014
1100.5
825.646
1318.79
1110.99
474.403
903.418
634.593
777.664
570.008
1035.66
908.731
309.638
625.538
556.738
472.917
312.961
868.713
742.971
263.784
492.9
397.389
312.479
287.203
677.572
535.224
184.24
360.683
217.565
257.124
213.134
456.059
270.847
169.043
190.986
160.713
210.743
216.225
243.27
220.365
1406.66
1204.49
1168.5
1936.24
1713.18
1621.67
1557.33
1246.4
1187.57
1237.41
1631.88
1428.44
1546.87
1494.37
1103.68
1231.46
1183.06
1374.15
1207.44
1452.95
1346.9
727.947
1165.57
1070.01
1144.8
1023.49
1326.33
1279.61
675.444
1031.07
907.901
1002.56
892.023
1262.42
1143.84
439.196
853.002
559.81
801.102
606.789
1071.65
737.508
233.644
456.989
253.016
509.34
294.51
582.178
328.677
169.058
228.807
207.053
264.087
233.508
302.568
280.187
1642.23
1983.56
1727.44
2225.44
1888.4
2273.4
1922.05
1200.38
1650.45
1310.2
1730.9
1309.06
1790.02
1329.48
890.961
1175.67
871.963
1210.24
991.697
1195.04
926.078
701.772
807.513
648.703
929.978
781.505
860.001
690.963
582.502
604.051
498.736
747.585
655.701
645.864
539.914
510.602
472.286
418.488
631.571
584.223
513.801
462.387
475.966
407.152
380.2
576.374
547.324
452.094
428.245
453.166
373.227
352.115
540.365
523.115
422.258
403.166
1725.34
1912.12
1648.23
2253.74
1911.26
2142.36
1790.11
1302.17
1549.84
1214.57
1781.13
1321.94
1657.7
1256.75
848.566
1099.93
830.501
1183.86
904.442
1140.75
894.823
738.966
730.43
767.926
808.342
716.601
751.469
793.877
523.228
539.693
560.082
598.091
510.591
554.217
573.995
386.296
256.894
253.74
474.59
423.321
297.159
280.284
351.447
248.88
246.007
413.585
393.686
278.952
284.984
330.799
248.34
248.303
388.753
377.932
289.52
295.408
1643.71
2051.51
1757.81
2143.12
1771.53
2255.17
1858.64
1227.27
1655.69
1401.63
1638.94
1264.94
1727.5
1407.86
863.665
1330.85
1124.35
1156.58
921.882
1323.39
1130.08
845.909
757.296
881.539
853.255
826.135
710.592
913.287
452.063
331.871
499.537
325.638
434.396
258.838
471.7
280.706
721.115
556.966
344.231
292.699
766.307
556.936
222.147
470.126
284.031
277.148
264.948
470.572
320.944
230.003
258.311
237.637
267.829
281.624
304.906
296.496
1769.8
1728.02
1632.73
2222.25
1869.51
1951.59
1756.21
1448.89
1612.35
1529.96
1747.4
1452.93
1703.88
1536.55
1217.25
1477.28
1364.49
1378.31
1212.29
1464.98
1357.3
1084.35
1348.58
1324.41
1184.75
1160.97
1358.38
1374.61
935.725
1313.06
1196.44
1144.91
966.783
1368.87
1240.46
633.542
1123.63
752.893
895.685
630.053
1153.34
708.864
309.034
594.378
346.794
522.977
346.066
576.777
391.632
251.584
322.315
299.237
326.866
309.993
374.151
355.697
1961.62
2383.64
1986.76
2829.71
2202.44
2791.19
2244.34
1350.69
1833.53
1342.57
1986.8
1546.6
2026.62
1474.53
1026.11
1210.01
943.421
1452.85
1194.83
1348
1058.34
810.092
875.103
702.528
1121.42
964.321
975.578
781.657
682.072
657.606
552.188
931.293
826.882
735.772
629.982
611.079
526.424
476.999
803.287
759.372
607.246
579.093
573.318
467.615
445.952
753.013
719.05
578.71
569.874
547.27
440.415
420.568
711.629
683.544
565.501
539.992
1973.89
2222.7
1835.99
2756.05
2232.96
2527.75
2050.14
1333.38
1692.18
1271.74
2020.63
1460.41
1876.73
1408.88
919.665
1154.57
903.593
1325.53
1017.86
1279.12
964.424
675.455
847.325
592.349
933.174
732.602
879.084
653.933
511.743
514.823
365.578
682.935
570.14
589.054
447.698
435.088
336.856
300.024
546.257
519.758
417.506
380.366
409.536
296.48
302.403
523.066
527.807
385.512
425.11
394.248
307.63
313.123
525.816
510.041
433.211
434.008
1811.55
2313.02
1886.94
2477.84
2008.58
2529.04
2053.23
1278.46
1747.69
1409.87
1846.75
1414.74
1898.04
1522.01
927.817
1322.04
1127.98
1289.91
981.347
1423.87
1181.12
623.127
1094.36
1018.37
901.116
677.462
1126.69
984.787
409.296
978.196
805.328
612.348
473.655
927.016
752.271
309.05
753.795
542.363
439.991
379.563
701.541
537.216
284.373
463.279
335.996
379.798
411.904
498.632
454.863
300.776
323.838
317.194
420.396
426.022
451.74
444.641
1896.37
2020.96
1782.22
2500.19
2056.87
2274.28
1884.39
1452.23
1718.15
1523.2
1903.95
1550.2
1778.87
1529.1
1208.74
1448.2
1348.28
1466.48
1267.33
1465.29
1374.02
1155.14
1351.97
1362.94
1224.68
1111.5
1356.23
1262.9
946.097
1352.77
1206.31
1057.62
861.235
1227
1038.33
610.072
1109.5
678.299
798.826
595.275
943.124
663.297
360.411
564.458
407.25
543.704
477.569
603.348
521.556
330.167
392.79
374.065
470.833
455.148
510.794
483.977
2297.26
2959.56
2362.28
3517.5
2691.02
3519.26
2814.72
1652.12
2127.26
1571.85
2474.09
2111.15
2558.97
2046.33
1293.23
1448.13
1143.11
2035.92
1773.47
1939.79
1600.73
1063.76
1054.17
850.616
1689.62
1574.45
1502.67
1304.2
924.517
803.921
697.925
1543.3
1444.21
1262.32
1180.45
861.592
678.843
673.059
1414
1400.32
1182.78
1270.11
822.154
680.109
678.289
1392.76
1366.07
1285.06
1284.27
780.619
674.368
642.995
1351.97
1303.96
1281.71
1252.63
2356.61
2668.36
2170.51
3520.13
2823.01
3171.98
2664.86
1558.57
1991.57
1514.32
2570.5
2040.19
2486.58
2025.06
1096.1
1376.94
1023.37
1911.66
1534.27
1864.76
1424.99
789.696
925.379
690.761
1429.16
1212.52
1305.69
1050.68
626.159
627.589
486.793
1165.76
1078.61
988.658
868.307
604.123
458.976
448.447
1083.43
1204.34
877.842
1058.81
636.608
471.556
541.013
1244.84
1260.71
1142.84
1220.89
611.861
549.389
539.909
1258.82
1220.41
1222.14
1190.79
2126.89
2650.65
2170.24
3092.67
2633.21
3173.77
2695.98
1522.48
2012.82
1630.94
2474.57
2043.93
2535.82
2165.86
1039.02
1528
1249.86
1884.05
1440.52
2049.62
1663.34
712.139
1178.98
1000.34
1320.54
1058.72
1551.3
1287.15
506.609
937.176
763.674
992.845
867.745
1220.11
1097.77
446.25
716.56
599.071
877.082
1059.53
1100.3
1223.51
530.017
584.219
571.427
1143.55
1220.27
1261.92
1258.43
533.033
569.131
551.382
1220.6
1180.82
1251.92
1215.61
2172.05
2412.62
1951.83
3238.54
2695.3
2975.06
2346.04
1652.76
1830.68
1582.57
2523.81
2174.27
2179.27
2008.47
1339.28
1530.62
1426.14
2090.54
1752.89
1984.39
1784.1
1120.19
1386.94
1250.78
1645.27
1389.03
1675.78
1503.13
866.681
1212.7
1030.74
1325.02
1203.31
1482.79
1364.55
660.848
948.29
730.715
1202.78
1291.28
1334.25
1318.72
592.61
689.255
625.077
1300.09
1271.47
1316.96
1256.47
560.588
612.542
573.584
1261.76
1214.31
1230.51
1175.93
683.465
678.747
611.914
646.196
664.4
697.472
627.979
745.391
769.426
723.529
818.41
721.991
799.665
676.152
671.063
591.851
620.207
417.583
657.331
600.681
524.673
753.889
825.506
778.053
824.917
766.603
811.966
763.986
696.318
658.317
720.809
646.33
710.917
638.987
704.681
755.453
830.655
827.466
751.975
817.224
676.834
763.047
680.709
419.475
619.036
641.588
608.19
522.241
690.979
476.644
501.112
426.343
480.923
465.204
515.048
436.941
470.11
526.643
324.237
337.506
464.541
533.111
272.57
404.541
360.722
280.32
232.922
404.2
361.241
235.194
532.969
609.639
574.809
591.174
565.61
584.009
540.593
486.361
492.254
536.013
456.299
526.406
446.633
495.263
476.739
347.72
551.185
401.662
539.982
293.925
488.968
414.222
250.757
391.28
360.705
370.861
257.473
434.113
720.03
661.436
622.042
434.599
742.719
566.377
575.391
956.426
965.027
1024.32
1082.83
924.537
991.058
1054.75
908.61
805.255
997.317
1000.23
882.927
832.118
1032.01
861.155
870.336
810.007
937.408
728.559
930.25
877.699
733.046
451.342
688.438
679.397
569.856
614.785
775.534
972.855
1092.9
1008.98
1074.98
1004.79
1070.67
976.534
923.745
1021.84
867.816
1054.73
857.266
1050.33
928.203
470.072
284.134
454.229
256.301
436.157
248.486
485.423
722.007
720.679
891.245
966.675
675.476
763.589
929.745
691.985
626.238
849.181
812.028
653.698
657.024
878.95
519.889
370.018
429.49
611.277
319.545
543.567
569.267
521.043
297.702
392.001
533
301.893
516.969
548.33
751.54
988.509
810.549
942.731
798.169
945.784
759.723
712.018
822.431
675.834
882.146
673.049
888.783
715.27
343.302
466.426
342.566
644.604
624.483
655.507
651.181
216.969
278.034
234.135
609.472
565.335
652.126
615.041
160.614
190.946
163.444
502.385
449.896
517.285
456.662
146.659
151.258
146.83
418.681
405.465
422.092
398.446
143.85
143.521
137.924
393.361
381.74
384.128
364.204
129.839
127.277
119.562
357.842
339.858
335.665
317.06
122.646
115.995
111.294
325.381
317.974
307.001
297.178
104.386
108.184
89.1153
301.307
321.542
284.68
299.098
514.664
637.076
487.527
988.139
852.894
1004.37
964.005
429.374
268.255
328.933
456.558
417.213
453.234
262.758
440.2
171.242
181.224
381.498
382.382
430.589
172.335
453.441
137.132
169.694
377.994
355.442
471.64
164.81
291.572
90.7466
109.46
257.675
255.335
300.846
103.424
252.216
88.0104
97.1244
240.149
232.785
261.346
95.041
209.523
77.2272
84.1719
211.279
203.779
219.659
80.469
179.801
67.0241
70.197
181.636
177.333
184.216
68.6435
164.165
62.5342
63.9032
164.32
161.6
166.619
62.7456
90.2855
98.3341
76.0382
237.595
249.807
214.042
221.725
496.099
617.107
491.227
1055.29
1024.08
1072.51
1063.64
545.004
261.202
315.286
512.554
534.307
515.226
256.793
645.529
230.663
237.101
620.859
625.529
644.916
237.675
417.761
181.111
207.463
572.31
471.783
545.385
160.237
233.369
93.4524
84.9006
263.983
258.021
233.017
84.8328
221.299
92.0109
87.5937
250.693
239.139
232.954
84.8385
172.129
72.9996
70.6074
198.919
187.157
182.687
67.0331
146.889
61.8047
59.6936
162.002
157.18
150.847
58.3753
134.092
55.9147
55.0454
144.457
141.803
136.715
53.6694
70.5157
75.1521
55.0265
183.194
194.566
154.904
158.327
455.658
503.724
469.28
1016.96
1049.31
1012.26
1093.61
576.912
250.783
291.603
513.957
570.272
509.74
253.373
663.566
243.751
245.817
657.655
651.666
666.538
246.819
591.025
200.626
239.43
573.444
503.378
619.796
231.289
203.85
77.2241
115.474
214.883
199.334
260.075
85.7362
200.409
69.5152
72.4723
206.559
195.802
209.683
67.4601
173.062
65.0502
64.6516
169.491
167.087
173.053
67.5655
132.077
48.9836
62.7261
135.331
122.22
157.474
52.4604
93.2398
42.5958
40.9192
102.978
100.768
96.5709
39.5344
46.9139
58.4365
47.5915
128.071
135.914
124.946
138.011
449.587
429.973
408.197
914.801
1085.5
858.124
852.303
539.793
271.764
294.539
546.218
616.794
510.591
247.846
669.113
269.826
236.04
716.395
719.027
645.648
245.932
721.526
282.343
274.574
722.484
721.847
715.592
280.39
684.816
254.525
289.137
680.436
603.345
715.495
281.271
316.282
102.103
134.302
253.748
281.643
317.767
121.144
298.066
93.4469
132.746
324.018
249.032
348.651
120.403
180.717
72.2031
77.7931
181.086
176.01
187.461
74.8318
96.7821
38.4573
43.4267
103.241
93.6795
107.443
39.1076
51.2831
68.5069
56.7288
138.822
152.589
157.512
175.259
283.579
348.511
297.76
598.25
665.877
622.224
754.536
318.241
287.469
271.143
814.271
904.516
796.494
745.258
352.2
228.035
198.529
918.528
906.196
623.956
572.24
362.973
189.111
183.578
897.011
872.503
561.885
539.202
323.537
181.419
171.792
804.68
696.634
498.763
404.74
163.387
139.694
99.566
522.933
366.39