/*--------------------------------*- C++ -*----------------------------------*\
  =========                 |
  \\      /  F ield         | OpenFOAM: The Open Source CFD Toolbox
   \\    /   O peration     | Website:  https://openfoam.org
    \\  /    A nd           | Version:  10
     \\/     M anipulation  |
\*---------------------------------------------------------------------------*/
FoamFile
{
    format      ascii;
    class       volScalarField;
    location    "8.5";
    object      nut;
}
// * * * * * * * * * * * * * * * * * * * * * * * * * * * * * * * * * * * * * //

dimensions      [0 2 -1 0 0 0 0];

internalField   nonuniform List<scalar> 
12920
(
0.0418073
2.54266
3.41614
6.97506
2.94652
2.7748
1.69944
1.89273
1.6614
1.63123
1.41294
1.23293
0.970253
0.754183
0.577689
0.478703
0.43731
0.431275
0.422607
0.356363
5.84465
8.35189
6.64604
9.67761
6.04931
5.28685
2.61207
2.29361
1.73847
1.67725
1.40957
1.2429
1.08253
1.04367
1.04458
1.07501
1.09838
1.11037
1.07993
0.913318
1.7442
7.03412
5.28943
7.82451
5.95796
5.62017
3.05421
2.99514
1.90119
1.73634
1.43694
1.42054
1.39904
1.46135
1.47731
1.48538
1.43599
1.39083
1.30781
1.08198
0.674605
7.41613
6.21925
7.99659
6.35926
5.67889
3.5804
3.48471
2.39813
2.30917
1.94488
1.9117
1.78885
1.77047
1.69371
1.64916
1.59404
1.53512
1.44995
1.22085
2.75071
7.11151
6.08277
8.48517
4.99389
5.52191
3.02517
3.10214
2.33793
2.44218
2.14502
2.15611
1.9712
1.93344
1.82704
1.76263
1.6987
1.62784
1.57286
1.32957
2.69021
5.99797
5.55594
9.1089
4.8038
3.6676
2.31563
2.32569
2.15205
2.31564
2.1391
2.16329
2.02794
1.9676
1.8666
1.79135
1.72203
1.65269
1.60184
1.3443
7.73436
12.8113
11.1981
9.33335
6.12661
5.53907
3.18449
3.41339
2.81411
2.86302
2.47245
2.35421
2.09183
1.99443
1.83185
1.72798
1.63848
1.58423
1.53488
1.26713
4.44607
12.1986
10.483
10.5852
5.92167
4.57
1.12178
0.843112
0.722036
0.718173
0.760667
0.735424
0.6609
0.608042
1.93823
1.67077
1.5512
1.47332
1.38845
1.07773
6.07031
12.9555
11.6669
9.70377
7.60251
2.43565
0.551484
0.284655
0.241476
0.177364
0.215646
0.214774
0.1859
0.166748
0.555567
1.55455
1.35437
1.2271
1.09443
0.852035
13.507
15.0065
12.8095
10.0331
6.67933
1.90989
0.539534
0.367061
0.317711
0.191736
0.222857
0.202007
0.167669
0.149774
0.461889
1.1606
1.00096
0.917131
0.870603
0.744139
5.86211
10.7922
9.55591
8.66249
6.28732
2.52713
0.649531
0.445993
0.367731
0.155143
0.187736
0.211738
0.1391
0.105407
0.308626
0.939635
0.883914
0.86186
0.845097
0.741202
4.12302
5.88101
7.59751
6.63813
6.15225
2.4417
0.627102
0.433644
0.409221
0.379133
0.136495
0.187006
0.148028
0.092986
0.301077
1.11835
1.01055
0.94435
0.88439
0.754138
1.31839
10.0104
7.6312
7.95583
4.77805
5.40922
1.20965
1.24733
1.11667
1.04915
0.849435
0.645207
0.404926
0.345461
1.21184
1.08088
1.0158
0.97789
0.946923
0.784253
4.36367
11.5945
9.68662
7.99373
5.0438
5.06924
3.92838
3.72443
2.85772
3.10087
2.18112
2.17421
1.55436
1.54751
1.32121
1.31119
1.21031
1.1796
1.08991
0.831782
0.598552
9.72426
7.83967
8.81849
4.93108
5.90721
3.24239
3.56393
2.38164
2.82224
2.24963
2.24004
2.01228
2.01621
1.83415
1.73102
1.54833
1.45455
1.32732
0.95217
14.5731
12.8073
10.5263
8.7465
5.73931
5.59738
3.08331
3.71056
2.14981
2.63155
2.08543
2.19457
1.92763
1.94547
1.77663
1.71541
1.60261
1.49661
1.36245
0.997346
8.07454
12.1319
11.4832
8.73671
4.54066
4.72068
2.18686
2.54199
1.79557
2.00016
1.73104
1.7588
1.61846
1.58371
1.45161
1.35844
1.27863
1.19264
1.11124
0.864915
13.8006
12.4944
8.80332
7.90095
4.16433
4.66539
2.40119
3.0284
1.78636
1.9017
1.46699
1.45366
1.25045
1.18647
1.05366
0.971499
0.88957
0.85389
0.830181
0.732531
16.1271
15.901
13.582
11.155
6.86561
5.89154
3.39094
3.74306
2.37788
2.27675
1.68368
1.59868
1.33297
1.25784
1.09583
0.989191
0.870256
0.779401
0.666683
0.576896
12.1176
13.7942
7.06801
6.7032
3.07205
3.55122
1.94942
1.8613
1.26174
1.09003
0.843243
0.742709
0.621593
0.542323
0.465854
0.431791
0.419437
0.41674
0.40025
0.314071
5.12848
13.2238
15.8788
16.716
10.0271
13.2016
10.2543
11.2699
9.1098
8.20041
6.73915
5.68837
4.63484
3.9155
3.36447
2.98824
2.68686
2.56059
2.47522
2.02068
13.4813
20.9741
27.1279
31.5992
22.4579
18.0252
16.2013
16.859
14.9444
14.074
12.4147
12.196
12.6541
13.8457
15.2171
15.822
16.0006
16.2852
15.8954
14.9011
18.5125
18.7614
18.0481
29.393
32.265
28.2724
22.3589
19.6236
16.3689
15.2894
14.889
15.4695
16.649
17.7448
18.45
18.4404
18.1576
17.7419
16.9554
15.6989
21.3694
28.3164
21.9468
27.7606
31.7405
30.255
25.5575
22.9487
20.6342
19.5349
18.638
18.7209
18.8778
19.082
19.0312
18.9022
18.5124
18.1115
17.3861
16.5001
15.9686
26.6931
28.8326
31.3919
25.2303
24.4084
19.5669
19.7329
19.179
20.2109
20.1757
20.4011
20.1885
20.0247
19.6403
19.3035
18.8785
18.4092
17.9418
17.1357
16.4915
30.8758
29.0482
31.0705
23.7466
18.1095
15.3032
17.09
18.5085
19.8341
20.2104
20.2743
19.9361
19.6412
19.2204
18.8325
18.4207
17.9987
17.6944
16.9104
27.0285
51.4389
44.4841
30.2842
16.9529
15.4644
16.6394
18.6819
19.7549
19.9893
20.0256
19.5953
19.1226
18.7166
18.2052
17.7618
17.3459
17.0599
16.7578
15.8008
4.88261
47.7226
48.7215
39.9064
23.4148
19.1192
15.3337
16.0175
15.5319
15.6022
16.7367
16.4623
15.8153
15.0518
16.764
16.0197
15.5765
15.3449
14.8689
13.791
13.184
50.0459
48.3534
35.8687
24.4166
18.7187
15.2926
16.5399
14.6532
12.7565
14.624
14.3047
13.5393
13.0421
13.4812
13.8612
13.3261
12.8704
12.3034
12.1698
38.9837
47.7842
49.2454
40.1427
30.2629
23.3478
20.0381
21.2274
17.9308
12.4685
14.1633
12.2222
11.1883
10.9589
11.0329
11.2438
11.024
11.1195
11.2815
11.8151
27.026
35.7454
33.8948
34.7339
28.5312
24.5348
22.734
23.837
19.6445
11.3642
11.2783
7.44338
7.67316
7.05684
7.75902
10.0751
10.4848
10.9201
11.1768
11.7598
14.7045
38.7738
35.108
30.0982
29.1068
24.8645
22.7764
23.1109
23.2594
19.8149
12.3609
12.2929
7.28653
8.07103
9.0695
11.3825
11.1164
10.847
10.8402
11.1508
12.514
35.6863
37.9883
37.0705
27.1844
23.8264
18.5641
20.7167
20.4634
19.6804
17.6657
11.307
7.72455
10.2975
11.9535
11.4906
11.2553
11.4516
11.4519
11.4407
21.4107
49.2625
47.1411
33.9869
19.3194
22.0593
21.1132
16.0838
15.1009
12.9587
12.3372
13.3725
13.9909
13.908
13.5198
13.2325
12.9557
12.6581
12.24
11.4701
7.89268
42.1904
42.3519
35.9409
22.6044
23.0891
17.983
17.5883
15.9552
16.524
16.4589
16.9844
17.07
16.8661
16.2707
15.6173
14.9978
14.3784
13.6718
11.9623
57.508
38.7203
32.0252
30.0661
19.202
20.1425
16.8983
17.3864
17.1436
17.8436
18.11
18.2264
17.9364
17.6856
17.1491
16.6413
16.1721
15.4446
14.5835
12.4259
34.1331
32.4646
43.2947
28.3555
18.5741
16.6049
15.1797
15.3352
15.6731
16.2185
16.1974
16.3739
16.0787
15.9933
15.3968
14.8981
14.3829
13.6054
12.8543
11.5601
37.4307
49.9084
36.8243
24.3181
15.7151
17.1434
16.4578
17.0041
15.6775
15.586
14.4833
14.3789
13.5663
13.3799
12.7035
12.2567
11.7639
11.5829
11.437
11.4615
34.2259
58.8365
29.4386
19.377
15.2209
20.1189
21.2078
21.0253
18.8376
17.6956
16.194
15.6845
14.8618
14.5226
13.793
13.3473
12.364
11.1643
9.58971
9.3043
15.1504
36.8186
21.5128
24.4302
17.2963
17.8469
12.3453
12.8014
8.466
7.58209
5.76349
5.05761
4.08637
3.57817
3.16319
2.9696
2.8291
2.77816
2.66003
2.19569
14.1243
19.9392
13.1957
17.5832
12.407
16.5478
13.0795
14.0185
10.8729
9.79446
7.95454
6.72502
5.51183
4.69266
4.04176
3.62057
3.43851
3.56219
3.6846
3.39147
19.7259
28.8617
33.4363
39.02
34.3371
33.2578
30.4417
29.3338
26.1727
24.7662
23.0389
22.7334
22.5766
22.8009
22.9102
22.8972
22.9974
23.0422
22.8656
21.9328
33.2828
30.1354
35.8038
44.7718
46.1544
42.3224
37.0611
33.873
30.2276
28.8237
27.8731
28.0836
28.3108
28.354
28.0282
27.5249
26.9303
26.2099
25.4008
24.2901
28.0125
47.0243
44.4329
49.1915
48.2196
45.2892
40.3658
37.4054
34.5906
32.8961
31.5791
31.0325
30.5365
30.0591
29.4302
28.8
28.0624
27.2688
26.4258
25.3721
34.7728
49.9004
50.6252
50.0089
41.6554
39.5505
35.6752
35.8471
34.6007
34.2285
33.2264
32.5454
31.7299
30.9835
30.1675
29.3945
28.6246
27.7849
27.0801
25.948
33.5357
51.6417
51.4005
48.3031
36.3161
33.582
32.6905
34.6582
34.3958
34.0735
33.0949
32.259
31.3227
30.5225
29.6776
28.8719
28.1173
27.3148
26.7335
25.5152
29.1753
64.3442
60.6611
43.3595
31.3211
33.2864
34.9063
35.3906
34.3691
33.2728
31.8892
30.8184
29.7271
28.9333
28.0114
27.2053
26.4941
25.8383
25.2379
23.9631
8.95199
59.8923
66.6516
56.2333
41.5396
38.4804
33.3382
31.9487
30.273
29.252
28.7246
27.246
26.247
25.0841
24.5444
23.9342
23.4537
22.9728
22.2739
21.4182
53.9355
63.827
64.9365
55.8002
46.3363
38.8281
34.353
32.6085
26.9135
25.3446
25.3141
23.4439
22.1582
21.2778
20.333
19.2772
19.2944
19.153
18.9733
19.1384
41.5538
55.56
59.7984
58.9338
51.5365
44.557
39.5258
35.8532
27.5275
23.3254
22.0034
17.8634
16.6305
16.476
15.6344
15.12
15.7292
16.4145
16.9822
18.0652
18.6268
54.5667
56.4251
54.9355
49.99
45.8753
41.7522
37.5678
29.4006
16.7506
5.60031
4.32743
7.313
8.63342
11.1731
13.7307
15.0908
16.2017
16.867
17.886
18.4906
46.3596
60.8582
50.8088
47.9572
42.6594
39.6846
36.4604
33.0272
26.8978
20.9677
16.9664
11.8822
12.3593
13.3973
15.5082
16.2021
16.6494
16.9559
17.5284
35.8896
54.2782
58.0136
53.8864
45.4323
39.702
35.0008
32.1039
27.9235
26.2998
23.2785
16.1076
13.6194
16.1387
17.1477
17.2605
17.3382
17.4474
17.3906
17.3927
61.402
62.4512
62.2272
50.5803
38.7019
37.2001
32.5113
27.3311
23.7277
20.9775
20.187
21.2553
20.8347
20.5824
20.0145
19.5942
19.0461
18.4928
17.8061
17.2079
25.5935
65.7571
61.7447
52.423
38.7824
36.7252
30.9464
30.2784
27.2655
27.2829
26.0014
25.9337
25.1447
24.2912
23.0022
21.9553
20.9658
20.0154
18.8482
17.4271
78.669
58.6759
58.7994
47.5255
35.8021
34.4985
31.5018
30.2508
29.5688
29.085
28.3294
27.6311
26.3775
25.5286
24.2305
23.2731
22.2424
21.153
19.904
17.977
3.43797
31.5083
67.3935
57.5683
38.4157
31.7216
29.6188
28.3509
28.0209
27.5325
26.6981
26.0511
24.9158
24.0866
22.8852
22.0354
21.0971
20.151
19.2284
18.0273
58.8043
74.7848
67.4603
46.1624
34.8652
32.9747
30.4173
28.9102
26.7846
25.6819
24.2144
23.5108
22.3439
21.7473
20.7005
20.0494
19.3688
19.0325
18.6122
18.3664
49.4792
66.3816
44.6357
34.1652
32.7029
34.0674
31.3187
29.4
26.375
24.5785
22.6133
21.67
20.6156
20.1848
19.546
19.0955
18.2362
17.4456
16.4831
16.4843
10.5279
21.7032
26.8857
26.4387
21.5244
19.8537
14.489
14.636
9.76373
8.47351
6.33972
5.46684
4.56706
4.17274
3.83475
3.72938
3.68203
3.84401
3.89702
3.40117
8.91815
9.03698
8.80355
13.288
11.8962
16.7323
13.9986
13.5573
10.7273
9.18555
7.61257
6.24735
5.22722
4.49488
4.10216
4.00746
4.14135
4.51569
4.74147
4.39821
28.6863
34.3735
37.8834
41.5877
39.8561
39.651
36.107
34.7433
31.7076
30.2347
28.2987
27.2217
26.0964
25.0927
24.8029
24.5654
25.0232
25.0101
24.721
23.936
25.2342
49.8861
54.0229
56.2891
53.6173
48.959
43.9406
41.0969
37.5967
36.0056
34.5387
33.7172
32.8785
31.9971
31.1969
30.4115
29.7172
28.9318
28.195
27.2248
36.9238
56.7792
61.1067
62.3784
57.5096
52.5698
47.338
44.5692
41.1897
39.3082
37.4819
36.3426
35.2191
34.1306
33.142
32.1621
31.2705
30.3139
29.4613
28.2956
31.0115
66.6379
66.6599
60.9556
52.5605
49.8538
46.1836
45.0904
42.3853
40.7635
38.9331
37.5928
36.3083
35.0862
33.9878
32.9205
31.9602
30.9234
30.0798
28.7758
71.0207
69.504
69.5848
60.7352
49.4621
47.9613
45.5906
45.2344
42.5978
40.7201
38.6886
37.2234
35.8415
34.6718
33.5384
32.4593
31.4811
30.4398
29.6188
28.3087
16.4036
74.3487
71.2233
55.9746
48.0081
48.1321
46.7655
45.0652
41.5523
39.3377
36.6247
35.141
33.5523
32.4866
31.4099
30.4506
29.5588
28.6356
27.8087
26.6184
63.013
63.942
74.6929
67.1486
55.6565
52.5345
47.2856
42.763
38.5613
35.1567
32.472
30.1174
28.8205
27.4854
25.6542
25.9512
25.6772
25.1321
24.5013
23.8716
42.088
70.1496
73.2277
67.8007
59.3316
52.561
47.4208
41.3032
34.6232
30.7567
27.5976
24.6281
23.1773
22.1265
19.9528
19.4855
20.5466
20.8201
20.9031
21.0237
37.8052
57.7368
61.9798
71.0802
63.5096
56.267
48.4889
40.7135
31.9283
27.2089
22.5116
18.1822
16.591
16.0681
14.6758
15.2347
16.8113
17.885
18.609
19.7049
52.2478
65.7708
67.8824
66.2958
60.8628
55.3767
49.0842
40.2067
31.3607
25.0006
11.7335
8.74567
9.15133
10.3582
11.7969
14.4212
16.4623
17.7955
18.5851
19.614
76.0852
71.6142
70.3132
61.9956
56.507
50.3341
46.7741
39.7398
32.9339
26.8256
22.3826
17.6605
15.5753
13.0884
13.4365
15.9797
17.5858
18.3889
18.733
19.2637
59.4107
68.6691
68.2363
63.1698
55.5886
47.5308
41.8435
35.1965
29.421
26.2034
22.8059
17.7026
17.6169
16.7202
17.5615
18.6443
18.9527
18.9605
18.8536
18.7711
87.8751
77.3373
73.127
61.2255
51.9294
45.1361
37.9778
33.509
28.5956
26.2295
24.5328
24.2714
22.6855
22.3788
21.6837
21.1775
20.5107
19.8027
19.1603
18.5965
97.7892
77.7159
75.8014
62.8011
51.227
44.9982
39.2189
37.4598
33.6738
32.7825
30.2996
29.3416
27.8064
26.4534
24.9594
23.7235
22.4978
21.272
20.0829
19.0254
53.4479
83.1926
76.216
59.7971
49.4392
43.4366
40.4074
37.4933
36.1573
34.6169
32.9279
31.4039
29.6896
28.1556
26.6151
25.2781
23.9129
22.5835
21.2194
19.8844
10.583
65.6178
79.49
67.0725
49.5732
40.7502
38.2043
35.682
34.5061
33.1228
31.5285
30.0814
28.52
27.1375
25.7889
24.6059
23.4708
22.4081
21.3402
20.3631
69.8914
83.6667
80.1815
58.0272
47.7911
41.913
37.5814
34.6632
31.7985
30.1128
28.3546
27.1639
25.8584
24.932
23.8847
23.0613
22.3548
21.7578
21.1712
20.5523
29.8701
67.461
57.282
46.7746
42.5885
39.444
34.9468
32.0618
28.1041
25.9422
23.8864
23.0196
22.2083
21.8914
21.3514
20.8619
20.2002
19.6673
19.0246
18.5323
9.59333
32.3316
22.2857
24.5474
18.1913
17.7825
13.8746
11.7113
8.80636
7.0145
5.74566
4.95258
4.50193
4.2197
4.10287
4.15632
4.2878
4.61003
4.71098
3.97125
3.28524
3.92672
2.08762
8.39652
4.47046
9.78665
5.5147
6.53495
4.51137
4.46954
3.3558
3.0232
2.57525
2.53853
2.44981
2.56118
2.59284
2.72746
2.72889
2.32253
5.79584
17.6656
23.2412
34.5054
24.4454
37.0278
25.6967
31.4057
23.8914
25.8532
21.3332
20.963
19.2596
18.9515
18.2777
18.178
17.9551
18.078
17.3988
14.7239
24.9476
59.8504
52.9385
61.8589
39.2902
46.5859
35.0368
38.6551
32.1175
33.4313
28.9245
28.9951
25.9416
25.2832
23.8948
23.1733
22.3804
22.1451
20.9541
17.4246
59.8574
35.0752
68.7725
69.6635
56.3406
49.9017
40.8613
41.4448
34.3061
35.7765
30.7017
31.1096
28.2496
27.4287
25.8391
24.9239
23.9627
23.6741
22.4293
18.4138
42.8675
78.6802
74.4182
66.0217
54.8453
50.8327
44.4539
43.0598
38.7394
36.859
33.8594
33.2343
30.0342
29.1942
27.195
26.1953
25.0946
24.7463
23.3787
18.987
39.3688
84.3315
75.2521
64.7726
51.268
49.9704
40.6262
43.0942
34.3636
35.896
31.2596
31.4601
29.1727
28.4441
26.9185
25.9091
24.9141
24.5298
23.2834
18.8191
52.6313
81.7497
74.1616
61.9618
53.191
51.3383
46.6356
43.3848
38.0498
35.4276
32.3076
30.7817
28.2108
27.587
25.5197
24.4989
23.4198
23.0113
21.8038
17.5767
18.7919
76.9651
63.0812
71.8912
50.7552
52.1261
47.5838
42.0931
35.0011
30.4441
27.1981
25.1309
23.8652
22.7777
21.8275
20.7797
20.3222
20.0333
19.1832
15.7115
21.7101
76.7843
77.1596
71.7576
59.2792
52.7237
46.3228
37.569
29.0716
23.8045
20.3818
18.1064
17.1001
16.3184
15.5557
17.2343
16.4233
16.8917
16.6166
14.0296
33.8157
64.0613
68.0699
75.5423
61.1114
54.1653
44.1282
33.1876
24.564
18.6997
14.448
11.9712
11.6585
11.8344
12.0149
14.6813
14.3595
15.1306
15.4425
13.3672
96.7314
59.1385
72.1539
69.606
59.2413
53.3839
43.739
30.5957
22.9168
17.8921
13.1519
9.89716
8.63781
9.72549
10.9667
14.3126
14.1941
15.0828
15.3199
13.2377
32.1916
81.2464
65.9137
63.9561
54.3344
48.96
42.0592
31.1498
24.657
20.9778
18.3436
15.0601
11.6052
10.7293
11.621
14.607
14.3362
15.1684
15.0686
12.9018
86.3086
77.8731
71.6344
66.5446
44.2461
45.9669
38.5647
32.0104
26.0471
23.7085
20.8302
17.5636
14.5097
13.8056
15.369
14.5262
14.6637
15.1313
14.8835
12.4864
24.8588
84.6358
77.3415
64.128
45.2305
44.6893
36.7523
34.0245
28.5292
26.3008
23.1093
22.313
18.0546
19.1565
16.1167
16.4358
15.1545
15.5263
14.5773
12.0989
73.9292
86.72
51.3065
66.0402
37.3948
44.8011
29.2046
37.6027
29.7923
31.2242
26.185
25.9142
21.4748
20.8629
19.0288
17.9282
16.3305
15.9505
14.5767
11.9281
115.329
85.6065
72.1747
50.0399
40.0517
43.9134
30.9116
37.9072
27.9028
32.9965
25.3355
28.5614
22.0537
22.0606
19.2025
18.3606
16.694
16.3107
14.7441
11.9697
82.338
92.1815
54.1768
63.4465
31.4441
40.4063
25.5488
35.4185
23.6113
30.1694
22.0417
23.8112
20.0794
20.0318
18.3187
17.6364
16.5082
16.3089
14.9024
12.1717
66.0077
86.8385
56.6544
55.5749
39.0169
42.3611
26.1886
32.8703
21.2052
27.6761
19.3665
21.9082
17.9769
18.6592
16.85
16.7161
15.8329
15.9719
14.9487
12.3349
31.4608
51.3611
43.4708
48.727
32.5738
39.6674
23.3462
28.8414
17.1742
20.0195
15.0922
16.7458
14.6505
15.4626
14.3874
14.4371
13.9023
14.046
13.4139
10.9576
9.09164
33.1323
7.78839
20.848
7.6758
12.9028
5.04967
5.77462
3.13332
3.28805
2.416
2.45794
2.12234
2.13948
2.01302
1.97858
1.93663
1.90921
1.806
1.27194
22.8695
19.0473
6.16524
27.3017
24.3909
24.8393
7.42908
18.724
4.89756
4.19017
23.0856
19.401
6.7305
6.31567
7.68205
24.9359
19.1483
21.1568
8.54993
26.4009
21.1679
3.58413
17.5758
15.7557
7.57075
6.5554
20.0599
17.0924
0.315475
0.547413
0.353359
9.09415
11.0857
12.0487
14.89
0.245467
0.328924
0.301757
11.6901
12.0196
15.1269
15.1302
0.183968
0.294266
0.210434
11.3088
9.14116
14.1584
9.36397
0.204893
0.196114
0.21619
9.37862
10.7897
9.30712
11.0327
0.217199
0.224291
0.219954
10.9997
11.1113
11.1821
10.5387
0.190819
0.211392
0.182412
10.9376
10.4824
10.1983
9.47275
0.169188
0.175045
0.161443
10.3346
10.0606
9.36275
9.19693
0.126357
0.158006
0.12578
9.93058
10.2483
9.11786
9.27227
0.380899
0.572376
0.457405
13.2467
16.1996
14.7586
18.3287
0.330845
0.446817
0.385049
16.3912
15.7537
18.5306
16.8134
0.200003
0.349636
0.172398
14.4907
9.24077
15.1937
9.08473
0.216248
0.158263
0.191812
9.48974
11.0602
8.56938
10.1498
0.211694
0.202208
0.201247
11.0422
10.0484
9.7503
7.62287
0.17461
0.195171
0.14886
9.66548
8.92919
7.23095
6.86472
0.154773
0.135439
0.118422
8.82455
8.70005
6.73973
6.52772
0.121763
0.116529
0.0888676
8.61217
8.88322
6.52383
6.79967
0.462638
0.631149
0.449275
15.8021
18.5247
16.6572
18.7176
0.390068
0.433877
0.411466
18.6488
17.1216
18.8645
18.7181
0.187445
0.405555
0.375086
15.8381
9.58206
18.4998
16.3226
0.175218
0.337382
0.134961
8.32639
9.58138
14.0889
7.75481
0.210939
0.144341
0.208188
9.33976
6.92377
8.55858
9.59401
0.164676
0.202681
0.162033
6.59614
6.60675
8.35551
6.00818
0.108559
0.15468
0.103923
6.55104
6.05511
5.93595
6.34969
0.0838406
0.0928504
0.0715061
5.9333
6.24645
6.09433
6.09172
0.446419
0.539564
0.32483
16.3045
17.8388
11.1471
13.2498
0.41206
0.315078
0.340069
18.1554
18.7438
14.2564
16.9552
0.394633
0.355931
0.380683
18.7835
17.6958
17.3992
18.0376
0.159027
0.379564
0.334184
16.4793
9.04916
18.0152
16.1437
0.184727
0.291378
0.201204
8.85265
11.0897
15.1042
13.2242
0.150344
0.193516
0.138267
10.2922
6.06615
12.3619
5.95028
0.107686
0.145089
0.105187
5.82817
6.56498
5.45814
7.41172
0.0705105
0.0946566
0.0739673
6.38433
6.37074
7.39409
7.73401
16.0857
18.4319
19.8067
29.0181
29.4377
33.5082
32.6859
15.7336
19.886
18.9655
29.0548
25.2997
31.9664
27.6135
12.3882
17.5057
12.097
23.9686
22.2637
25.1362
20.6547
14.3617
12.2673
14.3528
22.5612
23.331
21.1054
22.0061
14.5214
14.4457
13.4602
23.2939
22.2666
21.6116
19.4999
13.6689
13.0202
12.1239
21.8355
20.8335
18.835
17.6093
13.1616
11.9915
11.7673
20.6562
20.0395
17.4252
17.0284
12.822
11.6719
11.3381
19.8562
19.5124
16.9013
16.467
21.2792
21.7172
23.7556
35.1812
33.8459
37.1028
35.933
19.6476
23.6494
20.949
32.9572
28.179
34.9041
29.6105
12.0668
18.9297
12.1558
25.5185
20.5576
26.9233
20.2896
14.2666
11.5799
12.821
20.974
21.3966
20.0173
11.5298
12.7296
11.946
8.7515
20.7516
17.8809
9.35645
6.31889
11.3054
8.24695
7.99579
17.0731
15.9143
6.30517
7.69679
11.0457
7.91454
7.81045
15.8206
15.7114
8.07813
9.33161
10.8146
7.87802
8.04107
15.6547
15.6273
9.86146
11.1484
24.0199
23.5633
24.0769
37.9142
36.2194
37.8205
35.8876
21.347
24.0108
23.3134
35.1257
30.0851
35.1051
32.3173
12.6979
22.8774
19.7067
27.63
20.6037
31.0904
25.9462
12.1238
17.1077
11.1487
18.8443
11.9207
23.5426
18.3389
7.76431
11.5375
11.406
9.15751
5.45846
16.8205
14.9232
7.70304
10.1687
7.64624
5.76249
7.8336
13.9829
11.1287
7.15156
7.28851
7.89706
7.88706
8.04708
10.7198
10.9405
7.34203
7.59965
7.27591
8.37044
9.96191
10.4395
10.4725
22.9467
17.7151
18.3405
36.2001
34.4632
30.775
30.4951
23.3652
19.1272
21.2119
34.046
32.4483
30.5096
30.0493
21.4083
21.5305
21.6723
31.6184
27.7826
29.5769
28.1465
12.711
21.5376
19.3846
25.8618
20.664
27.6857
25.332
13.4972
18.3226
16.093
19.7063
17.835
24.5072
21.6019
7.86356
14.9974
7.86979
16.205
11.7336
19.8194
11.8522
8.22642
6.92557
9.22298
10.7508
11.9263
10.7561
13.9121
7.72009
9.34649
9.38198
11.6092
11.3848
13.9577
13.9922
33.3841
37.9574
36.0503
45.1025
41.7039
46.7604
42.1349
28.2402
35.0512
29.8035
40.1361
35.002
40.5434
34.1726
25.2093
27.2497
23.322
33.7164
31.1252
31.96
28.4862
25.5015
23.6011
23.6616
30.5531
28.7344
27.92
25.4973
23.9278
23.068
20.6211
28.1023
25.8722
24.4599
21.4898
22.3458
19.9073
18.6212
25.2822
24.047
20.7293
19.2926
21.4636
18.4224
17.9746
23.8264
22.9693
19.0223
18.4109
20.8248
17.839
17.345
22.7747
22.3118
18.2538
17.7378
37.0032
41.1841
38.6823
47.4416
42.3868
48.1365
42.7456
30.2558
37.3938
31.4887
40.704
34.1412
40.8121
34.0251
23.1111
28.7656
22.5904
31.774
27.9288
31.6343
26.6752
24.3523
23.5389
23.002
25.2468
22.9748
25.1204
24.8483
18.676
20.9277
20.0075
22.8042
18.4564
21.5874
20.3657
16.7129
4.6402
6.92874
18.5522
17.3454
6.18489
8.03876
16.5283
7.5984
9.54406
17.1839
16.8816
8.76692
10.7146
16.4098
10.2365
11.7197
16.8021
16.6739
11.3215
12.4778
38.9193
41.3655
38.4923
48.3705
42.7972
47.511
42.433
31.9181
37.4767
33.9765
40.7739
34.1565
40.6775
35.3268
22.643
32.5175
27.1185
31.8616
26.2349
33.4707
28.081
12.6286
13.8149
21.8787
16.1316
17.5653
3.16431
22.9036
5.21503
4.17227
6.65558
1.85352
5.76928
1.75843
4.83018
7.08139
14.8205
11.9242
6.44456
7.86802
16.1484
14.6469
8.12726
11.8848
11.5362
8.24822
9.54843
14.5783
12.434
10.5056
11.0249
11.1767
10.0625
11.6305
12.0812
12.4323
37.0982
34.8639
33.3973
45.8372
41.4272
42.1991
38.3602
34.1149
33.0822
31.732
40.0066
35.4681
37.1787
33.6677
28.7837
30.9608
29.0555
33.8359
29.0722
32.3395
29.4988
22.029
28.5651
26.1365
27.4421
23.5385
28.677
26.0373
18.5603
25.3813
22.3526
22.5879
19.0966
25.3748
21.8593
12.505
20.4364
12.5718
17.7425
14.8283
19.7181
14.9515
12.7427
12.0594
14.9582
15.1817
13.7588
15.0673
16.3713
12.1409
14.9702
14.8985
13.3457
13.2377
16.1061
15.9758
43.001
47.9934
42.4666
47.7737
41.5661
46.0205
38.2398
36.0058
40.7499
34.3623
39.5146
32.8386
36.1056
29.1405
31.5437
32.2771
28.6569
30.8929
26.5381
27.1561
22.9801
28.3603
27.8482
24.8859
25.4411
22.5708
21.798
18.4716
25.2249
23.7906
20.8537
21.8378
19.7501
17.5171
15.2541
23.4103
20.0997
18.5673
19.3372
18.4071
14.7014
13.8076
22.3136
18.262
17.6026
18.2194
17.4813
13.6712
13.3891
21.781
17.4425
17.0235
17.3678
17.0069
13.3001
12.8488
42.4971
48.9123
42.4603
46.1459
37.7778
46.1185
36.2699
34.1423
40.3148
33.4545
35.5237
28.4616
33.472
26.7078
28.066
31.2802
26.7031
26.4758
22.5046
25.0347
21.8092
23.8329
25.258
12.8309
21.3849
17.9584
20.6522
16.0483
18.9957
11.3047
8.7735
16.9064
14.3337
14.5192
11.462
16.8303
8.39459
9.17486
13.6359
12.5775
10.7216
9.34406
16.1674
9.61221
10.9133
12.4658
12.3939
9.25175
9.80584
16.0024
11.3619
12.2734
12.3568
12.1502
10.0055
10.2457
42.4571
48.2466
42.2639
46.2198
35.9569
45.8615
36.2816
33.4703
40.2291
34.4355
33.1188
26.5149
33.5653
27.5033
26.2419
32.5753
27.4866
24.8955
21.5938
25.9843
22.7113
13.2857
25.929
21.3705
20.4488
15.7918
21.7781
19.0314
9.22339
20.2832
17.1694
14.4073
11.8202
18.2027
16.0578
9.0057
16.323
15.2179
11.1852
9.30551
15.4928
12.7304
9.96484
14.7386
12.3035
9.07912
9.44024
11.7183
10.4747
11.5809
12.0036
12.3333
9.64774
10.0162
10.4213
10.4952
41.4729
43.4733
38.6727
44.636
36.2448
41.9496
35.4483
34.6211
37.3042
33.3611
33.7166
28.0021
33.8288
29.3302
28.3015
31.9409
28.9148
26.5829
23.5188
27.8194
25.3025
23.2902
28.0259
25.5414
22.7369
20.5567
24.8541
23.1718
18.862
24.8974
20.6358
19.8002
17.1769
22.4915
19.3503
15.6558
19.2913
15.8193
16.3948
13.7404
18.184
15.5389
13.477
16.047
15.9915
12.6037
11.0614
14.4016
12.7326
13.0266
15.7055
15.6634
10.9439
10.8187
12.6267
12.4773
39.7537
44.2359
36.1287
43.11
35.5783
40.8733
32.5539
30.8343
33.8247
27.0201
33.2026
27.7509
30.1344
24.391
24.8593
25.2634
20.9061
26.2029
22.5216
22.9505
18.1609
21.0691
19.563
16.2996
21.5857
19.6199
16.8181
14.1844
18.4594
15.4884
13.6526
19.0978
17.8216
13.6599
12.7617
17.2845
13.2607
12.8101
17.5588
17.1433
12.8613
14.2143
16.4225
12.8221
12.723
16.9827
16.5513
14.4642
14.5232
15.9642
12.6501
12.2051
16.4214
16.1422
14.4788
14.176
35.5893
43.6152
33.6516
40.0188
31.8457
38.3312
29.5502
26.3618
30.9818
24.783
29.4508
23.7682
27.4228
22.2822
20.0029
23.0438
18.998
22.0961
16.8005
20.2808
14.3901
15.3528
17.917
14.2736
15.3836
12.6645
12.8945
10.1991
12.3792
13.0288
10.2428
12.1169
11.1767
9.58465
8.3368
11.5497
9.50081
8.65749
11.2926
13.0742
8.43533
10.6677
11.8505
8.80292
9.78747
13.698
14.0689
11.8197
13.1791
11.5959
9.97116
10.0846
14.052
13.812
13.2453
13.1292
33.2297
43.2811
33.486
37.9558
29.0881
37.2592
28.6016
24.611
30.9557
25.4605
27.0604
22.1778
27.1699
23.1275
18.9198
24.0689
20.5712
20.2077
14.3824
21.7892
17.1766
14.2603
19.7544
17.4342
12.9087
10.311
15.954
13.6744
10.6478
16.728
14.5772
9.71323
8.3814
13.102
11.4956
8.60809
13.8595
11.3264
8.4361
10.5857
11.2802
12.49
9.52904
10.7693
10.323
11.726
13.0903
13.0585
13.4011
9.93433
10.3296
10.3137
13.162
13.0678
13.3966
13.2404
33.5497
39.8346
33.5471
36.1743
28.918
35.601
29.4355
25.9029
31.903
27.3099
27.2396
23.3614
27.7275
23.4197
21.6684
25.8822
24.0214
22.408
18.6407
22.6665
21.5072
19.0426
23.6331
22.0133
17.543
15.3334
20.9527
18.7924
15.8611
21.3155
18.4009
14.74
13.0076
18.304
16.319
12.326
17.3498
14.1923
12.706
13.4031
15.6961
14.4546
10.7813
13.3244
12.1404
13.5625
13.5696
14.3209
13.9289
10.5623
12.0716
11.8473
13.5309
13.3146
13.8206
13.4633
23.2826
23.4028
21.3622
23.8701
22.3935
24.6661
21.9272
20.9956
22.8084
13.8272
16.9438
21.467
24.4942
4.13599
17.2726
16.8189
8.78734
2.23403
19.0463
15.1848
2.52591
25.2683
26.614
26.5478
26.7555
26.1523
26.1377
25.7045
23.868
24.3837
25.573
22.4674
25.4066
22.27
24.1814
21.4449
21.5151
26.2831
13.2824
25.6471
4.06489
23.4935
17.387
2.2287
17.2944
8.82569
15.1412
2.5093
19.8596
16.9714
19.7919
15.4991
19.2294
16.862
20.3532
15.6006
11.9016
14.9257
3.90691
2.01118
13.0808
13.5303
1.82798
9.91225
10.0401
3.77417
3.0143
11.1415
9.28676
2.44811
18.8046
23.1667
21.7571
20.6956
21.863
20.5612
18.9513
17.0889
19.453
20.5031
16.0219
20.5873
15.7496
17.3425
11.6989
2.03031
15.2554
6.24037
13.411
1.88638
13.3994
9.80142
3.3324
10.7491
6.27136
9.36022
2.51357
11.7603
7.76419
10.0431
9.20751
2.27861
12.9429
2.67382
5.72767
21.4877
23.1762
23.1558
25.9105
21.049
24.4436
24.183
17.2977
14.5887
21.3452
19.7346
18.2759
13.9929
21.9978
13.1341
18.8295
14.419
24.5936
3.3822
23.8382
19.0796
8.4216
2.33955
10.0767
11.9574
2.68771
7.01688
13.9257
22.2003
26.4041
25.504
24.8901
25.2251
24.7353
23.1574
17.9225
20.5083
17.5137
22.8536
15.3591
22.4971
19.6948
6.72028
3.38926
7.78487
2.4356
6.33641
1.8611
8.30528
12.2097
12.0735
16.8694
18.4124
11.3779
12.5496
17.7359
12.8152
12.3451
16.3254
16.409
11.6983
13.2352
17.1038
7.46191
2.11938
6.97419
11.0768
2.01543
6.61935
11.0171
8.80448
3.16973
6.38135
11.4083
2.1741
9.7721
11.2302
13.9945
19.3567
16.3944
19.1275
14.3421
18.5721
15.6634
14.2215
16.8469
14.9003
18.1088
14.1432
17.7476
15.3236
0.942753
1.0853
0.920026
6.16859
6.6356
5.75375
6.70549
0.765656
0.859299
0.822215
7.24062
7.60191
7.67217
7.94158
0.700209
0.732869
0.683037
7.38373
7.13697
7.57353
7.24097
0.739267
0.708302
0.736297
7.48501
8.1925
7.29035
7.77506
0.771915
0.745527
0.737457
8.40965
8.71692
8.42772
8.65436
0.685506
0.699732
0.65229
8.56558
8.28747
8.46576
8.29461
0.62669
0.620447
0.582844
7.90164
7.80476
8.15849
8.05627
0.510375
0.55923
0.448705
7.39162
8.91813
7.8038
9.98827
1.57469
2.54974
1.61812
6.95715
7.31278
7.10282
8.40813
2.61964
0.443659
0.538259
2.45162
2.50842
2.43893
0.405038
3.98836
0.264884
0.270349
3.16601
3.32151
3.66273
0.253471
4.33765
0.229172
0.249381
3.74902
3.56877
4.64235
0.243792
3.26631
0.180145
0.187024
2.88362
3.04665
3.06441
0.189748
3.75783
0.214904
0.225678
3.29423
3.36609
3.66158
0.229767
3.5708
0.203618
0.221525
3.40502
3.40869
3.64247
0.211028
3.34445
0.176301
0.187292
3.18592
3.15405
3.36923
0.180827
3.21026
0.160209
0.167515
2.96144
2.94104
3.22287
0.161806
0.474556
0.516147
0.400459
7.15929
8.26155
7.1677
8.94409
1.44108
1.9388
1.54865
7.69363
9.44024
8.04734
10.3119
3.76182
0.430344
0.536497
2.93163
3.63851
2.93199
0.448983
6.11403
0.352479
0.408004
5.56878
5.76218
5.92307
0.39476
4.24338
0.283681
0.339519
5.5017
4.52552
5.49805
0.274465
3.28266
0.197266
0.178165
3.2821
3.48395
3.01111
0.185579
3.49103
0.22569
0.212937
3.7649
3.70346
3.57248
0.214896
3.12619
0.192554
0.191284
3.39176
3.29346
3.20275
0.181764
2.91674
0.162846
0.156643
3.08008
3.05522
2.94371
0.15169
2.83161
0.145879
0.140755
2.96066
2.95322
2.84177
0.136764
0.380541
0.383224
0.289193
6.43214
7.90115
5.63766
7.09973
1.93451
2.51074
1.87586
8.47502
11.3886
8.83827
11.9994
4.27024
0.520077
0.658348
3.15938
4.22899
3.14589
0.519039
6.46929
0.42838
0.438024
6.31148
6.44668
6.3144
0.42258
5.98064
0.328717
0.381298
5.93828
5.19039
6.26158
0.363402
2.0015
0.150292
0.180798
2.29123
2.33828
2.49556
0.149426
3.13731
0.19514
0.172128
3.20853
3.23037
3.11082
0.177057
2.69329
0.203167
0.208515
2.87062
2.83272
2.71049
0.208357
2.57616
0.12337
0.158383
2.66745
2.55138
2.80079
0.128871
2.21163
0.102659
0.0971381
2.33448
2.32515
2.21995
0.0939462
0.242596
0.286477
0.241168
4.85846
6.55337
4.91368
6.81031
1.86559
2.31473
1.52809
9.17784
12.089
8.4331
9.18255
3.62556
0.500528
0.589004
3.35518
4.42498
3.02589
0.446869
5.98009
0.421564
0.379904
6.35399
6.57215
5.54581
0.381902
6.85798
0.40745
0.40297
6.85908
6.87338
6.76594
0.405658
6.50565
0.337367
0.394217
6.48595
5.49342
6.85093
0.374217
3.29768
0.146532
0.168227
2.40242
3.32273
2.89924
0.149902
3.23817
0.174124
0.166252
4.28929
3.04919
4.36263
0.170114
2.72894
0.14586
0.144559
2.48203
2.77045
2.35869
0.142915
2.22338
0.0871727
0.0934008
2.22456
2.17716
2.30998
0.0865348
0.258499
0.335312
0.285506