/*--------------------------------*- C++ -*----------------------------------*\
  =========                 |
  \\      /  F ield         | OpenFOAM: The Open Source CFD Toolbox
   \\    /   O peration     | Website:  https://openfoam.org
    \\  /    A nd           | Version:  10
     \\/     M anipulation  |
\*---------------------------------------------------------------------------*/
FoamFile
{
    format      ascii;
    class       volScalarField;
    location    "8.5";
    object      omega_0;
}
// * * * * * * * * * * * * * * * * * * * * * * * * * * * * * * * * * * * * * //

dimensions      [0 0 -1 0 0 0 0];

internalField   nonuniform List<scalar> 
12920
(
34.8767
141.04
162.829
154.562
124.564
95.4557
83.7823
82.7956
81.6923
79.5572
75.0456
69.0811
61.1732
53.1465
46.3804
41.8356
39.7552
38.88
38.3554
36.4085
231.668
194.966
194.538
194.542
172.937
127.993
94.4293
80.3036
74.8464
72.2119
67.4566
62.1819
57.6747
55.0853
54.5844
54.7545
55.2843
55.4863
55.1223
52.6233
86.4091
138.805
153.885
157.072
140.809
110.912
89.8572
79.1503
71.2017
66.5954
63.871
62.7481
62.7181
63.0833
63.1554
62.6794
61.5181
60.1556
58.4677
55.0002
57.1683
150.847
167.814
160.119
136.29
112.258
93.6288
82.5731
75.1758
71.0618
68.157
67.0142
66.269
65.8366
64.9135
63.9089
62.79
61.1635
59.4344
56.6703
173.995
159.849
182.256
168.644
132.191
111.722
93.7322
83.6679
76.9722
74.4348
72.0108
70.9195
69.3954
68.2756
66.8446
65.4261
64.1339
62.2004
61.0735
58.6528
164.323
181.222
188.503
182.12
145.561
111.34
90.2035
80.9685
75.9884
73.1353
70.0535
68.7499
67.2759
66.2827
65.063
63.7962
62.6144
61.048
60.227
58.1714
308.92
254.444
223.146
186.113
146.827
112.891
93.703
85.2457
79.6736
75.0724
71.1586
68.2536
65.8333
64.1467
62.3672
60.8264
59.4673
58.3749
57.7202
55.6519
221.759
246.848
240.572
209.898
161.2
125.439
192.488
145.364
122.338
108.572
107.967
103.861
100.724
97.7529
60.121
56.8284
55.005
53.8918
52.8035
49.5424
203.335
258.793
232.234
193.073
159.56
227.379
329.268
239.402
216.564
172.133
169.441
159.883
148.165
142.124
91.0604
52.4595
49.5534
47.2994
45.0156
42.4928
267.626
302.296
255.368
198.751
158.566
224.555
320.07
271.422
259.704
173.685
173.133
156.615
142.038
134.997
83.1462
45.019
41.9214
40.1234
39.3875
39.5683
228.11
215.632
205.296
171.392
140.887
201.188
306.394
278.764
265.684
165.734
152.643
143.984
129.944
118.056
70.0454
41.1159
39.8396
39.3799
39.4038
40.0305
159.248
187.032
160.697
132.035
122.462
195.354
313.436
291.949
297.854
297.098
176.632
195.343
153.125
115.489
70.2096
44.834
42.612
40.9484
39.8208
39.3929
142.52
203.066
194.479
157.082
124.343
107.38
166.517
152.146
163.86
169.685
167.31
141.149
92.3268
76.0838
45.8459
43.3244
41.5045
40.4669
40.0203
39.1565
189.407
228.102
200.529
158.462
121.346
100.591
90.1583
73.833
66.1326
61.5432
58.8133
54.7991
50.9653
49.166
47.6634
46.7591
46.0579
45.0042
43.9405
40.9334
57.0678
201.353
202.925
173.912
137.221
117.146
93.6968
77.7045
66.1742
62.7413
60.1789
59.9725
60.1298
60.9945
60.9387
59.7905
57.735
55.5061
53.3822
46.9417
361.387
263.988
212.886
174.595
138.798
110.89
87.4086
73.4964
66.8899
65.8442
65.1986
65.646
65.7672
66.2306
66.0754
65.1359
63.9826
61.4103
58.9686
51.9314
208.105
244.886
231.686
171.575
125.995
92.956
75.0982
66.5474
64.3569
63.9552
63.792
63.7121
63.4379
62.7127
61.2464
59.2347
57.8779
55.4394
53.6671
48.5781
355.616
248.156
211.494
156.96
117.326
92.4309
77.1171
69.7831
63.7573
60.5643
57.9634
56.3888
54.71
53.0739
51.119
49.0364
47.2271
45.7926
45.1872
43.7348
335.424
320.145
275.36
224.32
157.725
116.569
98.0582
90.0599
78.7732
71.5242
64.2169
60.5827
56.9163
54.9743
52.358
50.0606
47.7013
44.9687
41.7793
40.1069
372.411
276.48
188.376
132.457
106.533
93.4419
82.4198
74.8985
66.5891
60.3377
55.1065
51.3336
47.8093
44.3802
41.404
39.2634
38.3432
37.5607
36.5246
33.939
103.438
95.0045
80.9748
65.7937
52.7718
48.4985
47.8003
46.976
44.659
41.7427
38.3934
34.7836
31.3146
28.489
26.4011
24.8109
23.5231
22.7628
22.3072
20.9244
357.654
190.697
124.416
104.213
95.7901
73.1692
54.7707
47.4195
45.2619
44.5498
43.0742
40.1322
36.4018
32.7819
29.9874
28.9146
28.7432
28.9875
30.1303
30.6907
269.891
165.812
131.811
95.7739
70.1202
53.3986
45.9126
42.6389
41.1606
40.3132
39.5789
38.2297
36.0495
34.0006
32.3772
31.4731
31.0753
30.9378
30.9809
30.3249
309.404
148.573
137.259
102.702
72.3386
52.7161
44.1406
39.6407
37.2011
35.8173
34.9334
34.1821
33.4045
32.7341
32.0699
31.4924
31.1331
30.5977
30.3627
29.5046
215.221
168.098
153.606
108.81
81.9824
67.3803
57.1954
48.3625
42.2923
38.4239
36.0852
34.7839
33.8846
33.2333
32.6125
32
31.4808
30.762
30.4361
29.6147
201.27
179.179
171.551
134.351
97.149
78.5006
62.1246
50.5453
42.3376
37.3388
34.0584
32.7757
31.9877
31.624
31.2552
30.8618
30.4958
29.9795
29.7157
29.1258
207.872
136.979
104.44
98.9614
90.3528
74.2477
60.0788
51.2728
43.3467
37.8768
33.8162
32.0298
30.8918
30.3067
29.8539
29.4432
29.0873
28.6501
28.4494
28.0463
132.97
127.253
116.341
100.978
89.0359
74.1196
72.0656
63.8531
51.0878
40.5228
33.8814
30.4151
29.6617
29.1103
26.2229
26.2333
26.1504
25.9486
25.821
25.3026
176.958
154.984
116.352
100.786
90.6952
88.9689
80.054
65.887
58.703
48.7542
34.3309
29.2633
27.1403
26.1081
24.1201
22.6419
22.7452
22.6498
22.3876
21.6791
202.636
185.03
128.979
95.7739
81.1858
82.1133
72.3782
60.1901
57.2827
47.1223
32.6212
28.7565
26.127
24.0117
21.6795
19.9122
19.7622
19.6487
19.6388
19.9821
254.667
198.611
123.127
91.9953
74.3605
71.9433
62.4204
52.178
48.9499
49.9134
37.9602
40.2481
30.8538
25.0657
21.7869
19.2901
19.3529
19.7223
20.0022
20.7424
283.241
121.42
93.281
71.7006
62.6553
64.1802
66.4145
58.8628
52.2501
52.2134
56.5396
50.1696
54.1243
25.3815
20.8663
20.0856
20.5492
20.8338
20.8356
20.6139
125.962
148.639
122.536
80.738
65.7639
57.3221
61.2696
59.0455
59.2162
57.8449
59.8589
70.344
49.2529
24.3006
21.178
21.1585
20.9363
20.4023
20.1572
19.8239
260.553
178.992
102.85
82.4719
73.235
56.2142
48.5229
42.9921
39.5554
38.7872
36.649
29.2618
23.7692
22.6461
22.6317
22.6243
22.5699
22.2526
22.0406
21.1772
209.755
187.649
126.575
98.3454
85.0464
68.7468
53.4306
43.4341
36.762
32.8358
29.9897
28.3986
27.7351
28.1714
28.9495
29.3105
29.2787
28.5917
28.0768
26.0458
328.133
191.146
136.797
111.007
90.2734
64.4242
48.9653
39.7886
35.8064
33.9792
32.6569
32.5347
32.7152
33.0006
33.5141
33.7327
33.8123
33.5275
33.1879
31.1385
240.388
172.624
117.823
89.8501
73.5502
55.0272
45.203
38.9723
36.3591
34.9555
34.3729
33.9412
33.8893
33.5683
33.4978
33.3002
33.2225
32.9941
32.7761
30.5365
277.169
169.659
117.437
95.5204
76.3124
56.9499
45.6402
38.2162
34.5617
32.2223
31.3696
30.6559
30.382
29.9429
29.536
29.198
28.9625
28.5979
28.3082
26.3692
236.254
187.305
171.491
150.296
99.7015
67.0886
51.2894
44.523
37.93
34.5912
31.2607
29.7156
28.2432
27.5983
27.2912
27.3176
27.6837
27.9836
28.0688
26.8558
139.929
117.868
98.4344
77.4957
65.2391
56.6007
49.4869
44.295
39.3647
35.9009
32.8734
30.5294
28.1499
26.3201
24.9636
23.7577
22.9543
22.2582
21.6414
20.6189
166.403
122.883
81.8263
63.0444
54.9142
52.7609
51.5384
49.2185
45.7746
42.2514
38.5194
34.8669
31.6793
29.1309
27.1941
25.6106
24.5167
23.9757
23.8687
23.5848
248.087
144.223
111.812
76.3896
59.7539
48.9811
41.8136
39.271
37.2624
36.4012
34.5264
32.691
30.5115
28.9693
27.7868
27.1135
26.8413
26.8075
26.8741
26.6357
214.581
148.2
110.664
86.589
61.3945
46.4803
38.9787
36.3052
34.7934
34.2786
33.2966
32.1593
30.5794
29.3899
28.4373
27.8338
27.5116
27.2064
26.9811
26.2164
159.932
130.481
109.166
86.3604
62.6724
46.055
38.1683
33.9916
31.8435
30.8352
30.0765
29.5798
28.9086
28.4027
27.8885
27.4537
27.1132
26.6566
26.374
25.6878
170.906
152.313
111.239
84.7649
65.814
53.7554
44.0731
38.0567
33.967
31.8101
30.3701
29.6055
28.934
28.4346
27.921
27.436
27.0205
26.5248
26.2619
25.7213
194.734
169.447
131.243
97.0926
74.4352
59.5222
46.3133
38.9449
33.5587
30.724
28.8337
28.092
27.4842
27.1504
26.7985
26.4611
26.1725
25.8568
25.6604
25.3291
176.936
134.979
91.9892
75.0172
64.8186
54.5043
45.6329
39.1397
33.7636
30.1613
27.8931
26.8229
26.1779
25.7997
25.4995
25.2298
25.0077
24.756
24.6125
24.3537
179.836
144.73
103.117
78.1717
63.5818
54.3628
51.6197
45.9062
37.1857
30.5323
27.1228
25.0925
24.5725
24.0929
23.4567
23.1837
23.0056
22.778
22.6294
22.2493
260.209
163.065
106.897
75.3366
61.4353
57.2322
53.3663
47.4839
40.8755
33.0453
26.3773
23.8389
22.6748
22.0457
21.4746
21.2403
20.8668
20.5921
20.3536
20.1027
147.794
160.894
127.726
82.004
60.3193
55.39
49.9427
45.9148
42.4565
33.593
26.4965
24.6124
22.5689
20.9253
20.139
20.0337
19.4727
19.308
19.3276
19.5974
158.175
140.92
92.757
68.8089
54.2562
50.481
45.9347
41.0595
38.2938
36.2326
77.2577
66.6179
34.8689
25.6804
21.2949
20.1465
19.5944
19.551
19.6329
20.0187
248.847
129.698
77.7679
56.2125
49.7385
49.3138
51.2091
45.9836
42.0436
43.3836
50.8934
50.1926
44.189
22.6999
20.3049
20.043
19.6111
19.4582
19.3766
19.3515
226.816
179.956
99.8572
64.0991
52.3105
44.8091
45.7978
49.4157
49.8483
51.29
56.1089
62.1774
34.2338
21.3496
19.989
19.4749
19.0615
18.7933
18.6577
18.5405
439.664
279.621
102.472
62.4168
52.291
42.4525
39.3044
33.3383
33.7266
31.3949
29.2452
24.2661
21.3942
20.6834
20.4734
20.2696
20.1185
19.809
19.5915
18.9841
241.7
170.717
96.5337
74.1376
60.3629
47.3161
39.4701
33.5189
30.1475
27.5164
25.7254
24.7821
24.4207
24.6628
24.8925
24.8813
24.6456
23.9071
23.3139
21.5846
302.809
134.293
96.9037
73.621
60.2476
43.4251
36.7233
32.0736
29.9982
28.8325
28.0208
28.0812
28.1113
28.2767
28.2867
28.1754
27.8641
27.1404
26.5458
24.544
90.9592
139.079
120.972
70.1786
51.5276
39.8482
35.8658
32.0876
30.3806
29.4467
28.8351
28.7199
28.5064
28.4391
28.2466
28.0283
27.7811
27.2458
26.691
24.5357
153.817
148.47
105.368
68.6205
55.4562
44.849
37.2738
32.1549
29.3351
27.8902
27.0236
26.7731
26.403
26.3435
26.1654
26.0716
25.8609
25.4124
24.8323
23.0398
257.569
132.527
111.202
86.8186
65.6154
53.0251
43.6736
38.5336
32.9267
30.6795
28.2254
27.4587
26.387
26.1251
25.8049
25.7804
25.7482
25.6045
25.2887
24.3621
113.539
112.489
97.6623
84.2327
73.3606
62.985
54.0932
47.0095
41.2962
37.0907
33.6307
30.9317
28.7026
27.0645
25.7319
24.7125
24.222
23.9438
24.0268
23.9992
86.4477
93.1382
63.2352
55.1911
53.8206
53.3375
52.2138
49.1466
44.8089
40.7108
36.8699
33.2096
30.2968
28.0038
26.5213
25.5035
25.0861
24.9808
25.164
25.0891
201.442
123.34
98.3119
67.5668
57.7464
49.6632
46.2398
42.9513
40.8589
38.9055
37.1904
35.559
34.4093
33.3004
32.6329
31.7946
31.3191
30.7115
30.2458
29.7412
232.648
132.206
108.563
78.5101
61.2476
47.1682
42.8862
39.4319
38.5466
37.385
36.4564
35.2091
34.1239
33.109
32.3402
31.6165
31.1358
30.5143
30.0554
29.3584
209.283
138.365
107.19
79.2941
62.5505
46.7097
41.7578
36.9875
35.7698
34.3078
33.8433
33.0458
32.5351
31.8997
31.416
30.8575
30.4217
29.8545
29.4734
28.9555
172.453
144.78
102.766
72.739
61.8087
49.3432
44.2179
38.8844
36.5883
34.5623
33.7043
32.7887
32.231
31.5759
31.0578
30.4889
30.0795
29.5975
29.3178
28.9895
256.812
172.383
116.591
78.886
65.9824
52.7934
45.4908
39.7088
35.828
33.3323
31.9388
31.09
30.5236
30.0724
29.7114
29.33
29.0961
28.8462
28.6806
28.556
163.82
129.882
89.5609
64.3181
60.7911
50.775
45.2842
38.9336
35.0536
31.8884
30.4884
29.5037
29.1029
28.6916
28.3599
28.0624
27.8954
27.7173
27.5985
27.5112
401.178
204.368
107.732
74.1422
62.7544
54.1138
49.0188
41.3886
35.7717
31.018
29.3956
27.916
27.605
27.0918
27.8388
26.6559
26.1946
25.9028
25.7343
25.5975
263.364
179.592
112.796
70.7978
58.8322
53.1572
49.9561
43.2449
36.1706
31.236
28.1003
26.6906
25.9985
25.5646
26.4892
26.2305
24.7965
24.3594
24.2725
24.4112
226.96
176.684
147.723
85.0577
60.4047
52.8659
48.6456
44.7943
37.5022
31.2955
27.8546
26.6455
25.6634
25.1894
26.1152
26.1223
24.5273
24.2025
24.272
24.4949
252.696
141.672
95.7274
63.5305
53.5966
48.6187
45.1622
41.5471
37.2944
35.3538
46.2648
43.4149
32.0944
27.8175
27.0732
26.5052
24.7416
24.3482
24.3912
24.6068
327.806
180.003
92.0268
57.3209
51.1881
47.4844
48.7278
44.4229
41.7647
44.1798
50.6291
49.874
32.9032
26.3609
26.3494
25.5397
23.9182
23.4765
23.5059
23.7019
167.168
154.824
110.237
64.0629
54.0998
44.169
44.4227
46.7744
45.661
50.8211
53.8269
50.1756
28.892
25.2586
24.8822
23.2164
22.5898
22.4417
22.4799
22.6531
226.604
164.735
92.7183
58.4433
50.5599
40.4434
39.9713
33.146
34.1509
29.2432
28.8689
25.6778
24.7469
23.8634
23.5174
23.0665
22.8606
22.6219
22.4665
22.4032
498.484
154.582
85.7826
61.2273
52.9632
40.9029
38.9013
33.1186
31.1328
28.3845
27.6676
26.9979
26.8486
26.826
26.6631
26.2612
25.8492
25.1574
24.5066
23.4796
255.738
125.466
82.3541
59.4917
52.5296
38.7117
37.5423
32.7208
31.9987
30.1617
30.095
29.8836
29.9242
29.8379
29.5355
29.0348
28.4749
27.549
26.8033
25.305
141.888
158.47
126.522
65.6204
49.4095
38.3265
37.2152
32.9299
32.2954
30.8288
30.7291
30.345
30.2415
29.9494
29.6148
29.146
28.684
27.8682
27.1682
25.6411
247.256
155.854
96.0528
60.8085
54.8973
42.8481
39.0819
33.0992
31.9279
29.9832
29.7708
29.299
29.1839
28.994
28.8073
28.523
28.1644
27.6021
26.9259
26.0795
192.595
120.727
86.9818
65.9439
61.4094
50.3016
44.9791
38.6962
35.2107
32.8819
31.5959
30.79
30.1214
29.8195
29.4909
29.3676
29.195
29.0115
28.9296
29.1206
133.583
130.23
91.5117
77.966
68.6831
59.9509
52.0138
44.4729
38.9705
34.6131
31.7095
29.3782
27.6912
26.3455
25.4351
24.908
24.8957
24.9737
25.4191
25.1826
73.2199
52.6951
47.8899
52.434
54.4925
54.0447
50.8018
45.9702
41.2437
37.1705
33.0084
29.5647
27.3137
25.9762
25.314
24.9292
24.855
24.8589
25.0131
24.8108
172.169
128.184
106.661
74.0388
77.9813
61.7541
68.9547
59.9724
63.1872
58.1092
59.0613
56.2096
56.2747
54.6344
54.1661
52.6752
52.222
51.0103
50.3534
49.7353
209.064
165.551
115.252
76.3583
74.7262
54.1742
59.7466
52.0794
56.5023
53.0958
54.7156
52.5608
52.8259
51.2935
50.9694
49.7044
49.321
48.2597
47.772
47.202
327.888
155.101
113.826
76.6706
73.3937
53.4657
58.3262
49.7347
53.5421
49.8611
51.5714
49.6953
50.2121
49.1128
49.0641
48.1924
47.9117
47.0716
46.6825
46.3478
273.817
149.345
114.523
72.1452
72.8689
54.4672
59.0743
50.1309
53.1228
49.3947
50.7584
48.9076
49.2896
48.1394
48.0278
47.1991
47.022
46.4424
46.2523
46.2287
199.077
183.649
140.535
77.3948
79.9873
58.6887
62.4295
53.5787
53.3777
49.0863
48.7634
46.9578
46.8597
46.1781
46.0625
45.5997
45.6371
45.4583
45.3734
45.6425
238.294
132.281
95.4313
71.8546
73.7212
56.7859
58.1295
49.3599
49.7283
45.7809
46.4837
45.0172
45.4959
44.7758
44.6692
44.2858
44.3882
44.3643
44.3318
44.6842
227.502
152.057
124.606
76.8922
82.6414
67.2218
62.2394
51.0054
50.5538
46.699
47.2551
45.5443
46.0458
45.2748
46.1114
43.4005
42.7657
42.6076
42.5075
42.7556
195.467
161.779
127.224
75.2281
71.2578
63.286
64.7247
55.3283
53.7244
51.1904
50.651
49.8211
50.1135
49.9711
50.4924
44.2242
41.5721
41.3187
41.2276
41.6111
275.978
232.047
190.629
92.7076
79.4777
65.1921
66.4818
64.1746
58.0224
53.6928
51.1364
50.5268
53.1683
53.7092
52.2045
43.8551
41.1297
41.0134
41.0435
41.6231
448.643
167.337
116.367
68.5017
67.2801
56.6519
59.4618
64.2932
60.7123
52.8782
49.3111
47.9065
53.7762
55.4471
52.8103
44.011
41.1928
41.0769
41.1435
41.7279
196.002
164.069
109.548
68.5465
67.7956
55.9486
62.6127
64.722
63.6689
61.0631
57.7789
53.8957
54.5785
54.7013
52.3275
43.139
40.3765
40.0487
40.1179
40.5942
200.191
156.937
124.839
69.6897
74.8676
56.7791
57.3276
52.6195
56.292
53.2134
52.8417
48.8636
48.8809
46.306
43.2093
39.7576
38.8833
38.7511
38.7509
39.1301
201.22
148.178
100.239
67.1041
69.596
49.655
55.6416
43.9716
45.3961
36.8451
42.0864
38.265
41.1631
39.2561
39.652
38.5217
38.7428
38.3597
38.4906
38.6855
286.523
178.619
100.847
64.1497
68.9058
48.2638
56.7379
42.7644
44.488
39.0719
41.6571
40.5305
42.0319
41.2735
41.2794
40.6347
40.615
39.9343
39.6972
39.3149
424.985
169.265
90.6324
71.5967
68.3396
46.8732
56.0672
42.295
48.3191
41.5572
45.8568
43.3764
45.8847
44.4178
45.0578
43.7929
43.6534
42.3974
41.9738
41.1367
358.541
198.534
137.025
70.2897
71.3377
48.6933
58.3775
43.9154
50.6028
43.8314
47.7565
44.898
46.8272
45.1714
45.5548
44.3387
44.1662
42.9774
42.6148
41.8055
363.09
170.855
110.26
70.9481
76.4585
50.1049
59.8387
44.651
51.4652
43.9051
48.2281
44.6487
47.0429
45.1777
46.091
44.8651
45.0148
44.0807
43.8588
43.551
213.068
140.853
91.9302
69.2448
81.252
55.8052
66.7993
50.599
56.6685
47.9682
51.6873
47.536
49.837
47.9018
49.1243
48.3595
48.9765
48.8771
49.3023
50.019
152.97
107.767
71.0398
66.2502
62.7808
54.929
45.8504
38.6512
33.8777
30.6371
28.5591
26.6883
25.6674
24.6238
24.3258
23.774
23.7701
23.6682
23.6588
22.3712
27.521
35.4811
82.8344
30.7162
27.3721
33.9207
72.1508
24.9829
84.1129
63.2662
26.8124
25.8957
68.0366
51.5248
71.5289
42.7493
50.242
34.8696
67.4964
41.5591
48.5091
77.8766
52.5176
49.9131
64.8287
56.5136
49.4019
48.055
250.829
319.267
269.207
99.5079
79.7976
93.8433
74.1965
221.055
264.222
261.984
75.3743
67.1785
71.4653
66.4955
179.338
258.111
197.154
66.0115
61.3581
66.6519
65.2275
169.763
184.459
177.21
56.5729
42.6528
58.4649
41.0946
162.159
176.118
165.954
39.7185
34.5449
38.1892
33.6513
150.127
161.239
147.993
33.4958
31.2112
32.7101
30.2725
142.777
144.877
139.241
30.8995
29.9
29.545
27.6731
125.748
137.886
122.68
29.7024
28.1646
27.2592
25.1261
272.182
312.221
278.841
88.1187
69.927
80.0693
61.869
266.879
279.085
268.294
67.9564
64.018
59.4894
55.3053
182.15
256.151
171.185
64.1022
60.8164
55.359
55.6066
173.504
159.284
158.753
52.9021
39.1316
52.6251
39.4782
161.46
157.149
144.031
37.0907
33.4526
37.7934
36.5248
144.904
141.855
131.377
32.5634
30.1698
36.3414
32.0579
136.863
127.971
123.786
29.4611
27.5314
30.5314
27.6824
121.715
123.058
107.257
27.0768
24.9885
27.1533
24.6054
278.358
317.629
292.348
74.7878
61.5883
76.0061
66.3482
272.091
292.963
295.261
59.2974
55.2264
63.9732
58.9928
188.257
295.712
291.011
55.2259
56.9819
58.1375
58.0911
154.729
279.198
164.667
56.4555
42.3107
60.0156
64.7311
144.109
163.607
180.741
40.0004
40.5475
59.0192
50.5975
137.763
166.468
151.003
41.025
36.0549
50.8203
55.0224
119.237
150.905
121.078
32.779
27.611
52.2328
30.1985
104.656
113.717
97.74
26.9622
24.534
27.5144
23.3895
290.816
301.286
234.264
77.6768
69.2658
82.543
71.9391
296.008
233.553
262.127
66.4719
60.05
69.3006
63.9986
300.714
272.63
293.391
58.889
57.9537
62.716
59.7522
193.515
296.937
290.705
58.6379
65.0154
59.2108
60.1996
201.513
275.227
239.483
63.3909
51.9809
61.1196
60.2408
153.409
234.185
163.647
52.4619
59.6324
61.4057
78.2822
125.436
160.538
124.788
57.2068
31.1788
70.8429
29.6426
96.9934
116.799
100.995
27.9471
23.3592
26.7347
23.5249
68.9617
77.9655
65.1725
57.9734
52.146
55.9402
50.3848
59.8192
63.2226
59.5689
50.4321
45.7851
49.5625
46.992
53.0659
59.6627
57.6134
44.1146
38.0449
46.5212
40.8363
36.8251
51.092
35.7436
35.3772
28.646
36.8275
28.4385
30.1639
33.2581
29.4573
27.2823
24.8669
26.9684
24.6202
27.4435
28.6708
26.6495
24.2961
23.1548
24.0947
22.7026
26.3099
26.0466
24.4741
22.9647
22.3937
22.2877
21.2186
25.5154
24.1163
22.987
22.2594
21.9128
20.9602
20.2672
61.5517
65.6388
54.3004
53.1311
48.7181
48.9402
44.1131
57.2335
52.5028
49.109
48.0528
45.7216
42.9428
40.2587
54.0873
49.1566
49.4488
45.3197
39.7123
40.0937
39.0828
34.5036
46.9962
36.1603
35.8395
28.3577
36.9369
47.4928
29.4853
35.1159
34.9535
27.1208
25.2409
49.6402
47.7467
26.7463
34.8852
30.2191
24.8119
23.2549
45.1503
33.4755
24.4249
28.6018
25.5847
22.7145
21.3113
30.6864
25.2605
22.8319
24.9483
22.9305
20.9612
20.1031
23.9539
21.0222
53.9402
64.4584
58.3959
48.0475
43.7432
51.5413
47.4209
48.9448
56.4115
52.1466
42.5353
40.0714
45.8957
42.81
50.3804
51.4382
51.5691
39.9506
40.1601
42.4437
42.9086
39.1101
53.1416
56.7905
39.1887
47.9195
44.1161
49.5669
39.9656
53.9611
48.9746
51.971
57.2146
51.6019
49.8451
34.1824
48.818
52.1825
53.9399
36.6561
48.6358
48.2922
25.7611
49.5227
27.559
32.6255
26.4781
42.4498
24.7937
23.0066
25.1551
22.0705
25.1532
21.6761
23.3375
21.0215
61.2028
67.8205
63.5563
53.4241
49.668
52.634
51.0151
53.2773
61.938
58.2227
47.8937
44.0109
50.6483
49.706
51.5841
57.0962
54.5525
43.4628
43.5098
49.1119
47.8706
57.2408
54.0993
55.2653
44.3568
49.5312
47.932
50.5564
50.0974
56.3193
56.4807
50.8192
50.1523
51.5491
53.1477
56.1765
57.2765
71.928
49.6995
52.04
54.4236
62.9063
28.3792
66.1538
27.3654
47.3899
24.697
53.9589
23.5906
21.8777
24.4586
22.0522
22.7628
20.4896
21.667
20.0103
49.1608
52.1779
47.8931
49.3107
45.2793
48.599
45.603
42.5733
47.0771
44.067
43.1268
37.4096
44.1451
38.9502
35.2932
43.273
37.3324
35.8911
31.8279
37.4273
32.4817
27.4909
34.1411
27.4012
30.4072
27.1775
30.777
27.0997
24.3386
26.1844
24.1926
26.5857
25.3275
26.4082
25.1231
22.8399
23.7268
22.4624
24.9674
24.2717
24.7805
23.9485
22.1661
22.0886
21.1408
24.1708
23.8066
23.7476
23.2415
21.7499
20.9122
20.2937
23.7098
23.4223
23.1149
22.7157
46.6082
46.3843
42.6052
47.4944
45.0805
44.5091
41.882
43.145
41.4594
38.6721
43.7527
38.7715
40.6295
36.9919
36.6646
38.3629
36.7938
37.3056
32.3642
36.1181
33.5517
30.3209
30.984
33.3342
31.9753
31.1485
29.8863
31.9151
28.0758
25.8093
28.0281
26.2431
27.7194
25.6953
28.2256
23.0979
55.2433
36.5513
25.5839
24.385
48.1471
34.8307
21.2485
32.7022
25.728
24.0465
23.3004
31.7796
26.5554
20.1493
24.2153
21.1639
23.1186
22.6506
25.5338
23.6535
42.2383
49.5372
45.6524
44.3091
41.4038
47.4418
43.8038
38.5364
44.1749
41.2747
40.2132
37.0826
42.4764
39.8824
38.2275
40.9627
41.5412
36.3538
35.1685
39.5798
40.3114
66.1388
54.7373
40.3323
41.2683
46.8734
224.64
39.8893
85.6962
80.1535
75.3329
164.279
75.0673
143.206
97.1138
39.6766
48.8088
46.8484
53.5621
37.2621
47.5529
37.9724
27.317
39.4393
24.6661
33.631
27.7251
32.2773
25.8486
21.8641
23.4625
21.2411
26.5824
24.1872
25.249
23.8236
47.6773
49.5082
48.8462
48.4532
45.1223
46.2223
45.7757
42.4745
48.7012
48.2048
43.6759
40.9886
45.8305
45.665
42.3401
47.7185
46.9856
40.7692
41.7611
45.3383
46.0591
49.2323
47.2431
50.7181
43.2337
49.3543
47.4276
52.864
50.5651
51.7738
53.7479
50.7157
50.7877
54.0168
57.0343
50.9439
55.3421
60.4319
50.6456
42.4333
58.4476
46.2934
24.2663
49.0269
23.0885
34.3988
25.1795
35.2908
23.9271
20.7017
21.5242
20.0698
24.5004
23.3943
23.2295
22.2436
45.6178
49.6618
46.7748
59.2483
53.0237
60.7052
58.7441
37.5148
44.9875
39.0983
50.3185
47.1359
56.1844
50.6582
32.4953
37.504
32.8945
47.0536
45.0151
49.6742
46.0505
28.5353
31.4016
28.2254
44.0824
42.6971
44.7463
42.2845
27.0082
27.6375
26.4678
42.6264
41.8293
41.9619
41.2393
26.0629
26.1741
25.6584
41.5175
41.2005
41.2492
41.8837
25.6543
25.5736
25.2977
41.2922
41.0785
42.276
42.5129
25.0855
25.2128
24.6722
40.9391
40.1302
42.4709
41.9869
46.4412
45.4575
43.2461
59.7927
59.17
54.8627
56.6165
39.0889
41.9854
38.0526
56.9439
51.3781
56.1669
52.8203
32.75
36.9468
33.8594
50.1089
45.2347
51.1461
44.2466
28.3487
33.5672
46.1534
43.6406
40.7722
42.5983
40.77
26.942
45.5697
41.7926
40.3631
39.7099
40.583
39.0305
25.8206
40.1799
32.6696
39.9865
41.2625
38.8845
40.6367
25.2957
30.8089
27.6666
41.9002
42.5354
41.6078
43.3002
24.6027
27.0316
25.4771
42.5055
41.9312
43.2477
42.3155
42.6796
47.919
44.6525
53.6281
55.9453
55.1213
56.6503
38.2314
43.4529
40.9667
55.8556
53.4207
56.6153
55.393
35.3976
40.6167
41.0956
51.8641
45.4835
54.8438
52.0451
46.8733
42.2676
47.6898
44.1132
42.9199
51.7781
51.7839
44.4947
48.2658
47.0004
42.5092
40.0385
50.9649
46.8483
34.3494
46.2569
35.6169
39.2943
40.7497
45.2591
42.2512
28.5107
31.4601
27.3329
41.7944
43.5858
42.6061
43.407
25.9323
26.9737
25.6771
43.5269
42.4846
43.315
42.3094
45.7243
46.4682
46.0841
55.9449
56.7884
54.1755
53.1932
41.968
46.0641
45.6871
56.5219
55.4106
52.627
52.1651
42.7668
45.3807
46.6813
55.2107
53.9214
52.7097
54.3541
49.6375
48.3034
53.437
53.8979
54.1193
54.6372
54.5893
50.3077
54.414
56.8954
53.48
50.2009
54.6686
53.8448
38.9177
57.1237
41.0612
48.761
43.3957
52.0146
42.7743
26.7628
33.1019
25.4693
43.2118
43.1599
41.9802
40.9339
25.306
24.9995
23.8492
42.9895
42.0175
40.4262
38.7243
57.83
66.9586
65.4614
81.5828
75.783
86.2101
86.7043
53.6239
62.9757
58.2432
74.6654
76.2728
85.1411
84.0315
52.035
57.3732
54.7078
77.8913
78.8382
84.6119
88.2879
50.489
53.9146
52.1923
78.3961
80.2739
89.5021
92.032
50.08
51.9035
51.1022
80.8546
80.9764
92.4776
92.4731
49.8328
51.176
52.5383
80.518
81.6048
91.8999
89.0984
50.0535
53.0472
53.3259
81.9703
82.4367
88.5918
88.1879
48.8832
53.3264
52.7157
82.2726
80.7069
88.281
88.0956
66.2974
61.2424
64.6283
88.1157
88.9523
82.9991
90.5795
59.2012
64.416
61.1977
87.5577
85.9807
91.0096
91.0714
54.8415
59.8352
53.9469
86.6462
91.5247
92.1622
99.273
51.4394
51.7179
48.4223
93.1066
95.8707
101.477
103.161
50.5538
48.1815
47.4775
96.3102
96.5117
103.267
104.186
52.2958
48.2452
51.776
95.8995
91.8635
104.042
98.9793
53.7386
53.5777
55.3081
90.5772
89.3325
96.3256
92.28
52.7919
55.1312
53.5745
89.3102
88.0845
91.9236
90.3536
64.1258
61.2371
64.8984
81.6028
90.9026
85.4897
93.3381
61.9561
65.1234
64.1505
91.775
92.3558
93.7264
93.8761
55.0079
63.5681
60.8224
93.4605
100.41
94.2835
97.121
49.9631
59.7373
57.419
102.524
102.814
97.5189
94.3611
47.5312
56.0599
52.391
102.321
103.578
93.3289
95.6062
51.8431
51.699
53.0071
103.958
99.8117
97.6032
97.6799
55.6588
54.363
55.4074
97.1497
92.8503
96.2771
93.5763
53.6885
55.1369
53.4814
92.3833
90.0267
93.1282
91.4774
64.8073
60.531
58.2248
89.9982
93.2054
83.7984
79.7818
63.8898
57.4385
57.9872
93.0424
93.3392
78.7433
86.1596
61.8607
59.1868
59.434
93.4993
94.3092
87.8897
83.057
58.8824
58.6716
56.9177
94.0735
90.8597
80.1185
80.1813
54.7003
57.0127
56.1899
90.132
92.605
81.1291
83.5722
53.7535
54.8048
51.6245
94.7119
96.0338
84.9568
91.0722
55.0166
51.8537
51.5104
95.5448
93.3913
91.7729
89.985
53.0952
50.7695
48.4012
92.9483
90.8767
88.8249
87.1476
29.3524
28.9783
28.6549
27.0747
29.6528
28.2645
28.6579
35.5188
33.6907
52.0151
38.5384
33.6058
32.6206
163.499
38.9264
35.2559
70.2974
187.328
34.5352
39.656
207.953
29.8265
30.9916
29.2996
30.8227
29.2976
31.0452
29.7219
29.1807
27.007
28.1884
28.7925
27.9788
28.7174
29.1529
35.2624
38.598
31.4862
56.1298
31.8583
166.518
32.4831
39.2274
188.552
35.8529
71.9059
40.281
208.348
34.8101
28.1538
25.3428
27.5656
25.0296
27.6541
25.3293
28.0709
39.6948
35.3943
83.2881
168.306
35.6739
39.5345
149.632
41.0621
36.0721
74.3889
77.5187
36.477
39.0993
96.2962
28.3993
26.3332
26.4378
28.6044
25.8923
28.4477
28.5716
28.5245
25.322
26.1606
28.5192
25.5916
28.4161
28.6068
40.994
171.615
36.2323
64.2956
40.4308
156.141
36.6189
42.5101
75.6706
36.5214
57.6226
39.8336
102.559
37.0446
92.2728
65.8091
67.8877
189.846
57.3827
211.937
100.12
44.442
41.7206
44.2791
41.8639
43.9328
40.6021
43.648
52.4593
55.3178
46.7514
50.682
48.3138
59.3971
46.9458
64.8055
41.3621
56.044
37.8852
215.537
39.051
45.8936
86.3178
193.045
68.2265
56.6575
212.084
86.9645
55.5359
43.7532
41.455
39.6132
43.2433
39.8813
43.3232
42.1828
51.4558
49.8252
49.5061
46.1921
55.6913
46.7208
47.1232
69.1235
84.0427
57.801
105.337
68.142
133.175
57.9333
58.906
59.595
52.7465
52.4353
59.1313
60.6556
52.3803
53.8105
50.5995
51.9935
49.5785
55.6004
49.596
51.3946
68.9176
174.739
61.6829
55.017
158.664
81.3834
51.5064
58.741
94.3078
61.5928
46.6657
138.798
52.6448
48.7058
53.5747
51.0389
49.4034
49.3338
55.5184
50.9297
48.4789
50.0249
48.9262
45.3896
48.8009
47.6007
50.1266
46.6974
164.91
191.993
164.702
104.448
93.9275
113.869
96.7717
131.12
148.49
136.181
83.9554
74.2747
84.8386
77.4287
112.947
122.942
113.83
68.0691
62.9806
68.4267
63.045
108.002
109.607
108.023
55.7481
49.3705
57.7329
51.0475
106.934
106.781
104.635
46.6964
43.774
45.4657
42.0299
101.566
100.493
97.4146
41.7201
41.0479
39.628
38.203
98.7115
95.9579
93.9853
41.1483
40.7802
37.6142
36.8734
91.0317
92.6609
84.0695
40.7259
36.0637
36.4702
29.9172
202.242
225.127
197.061
141.768
116.171
141.069
113.904
163.465
292.343
323.922
186.211
166.1
185.331
289.601
110.15
233.333
240.244
120.025
114.625
117.389
234.358
105.072
208.417
232.321
100.61
99.9022
101.79
228.783
88.7245
169.932
186.137
88.9494
83.5592
97.7751
181.222
66.9897
167.279
175.725
72.5965
69.1497
71.1201
173.794
58.6612
156.611
163.461
61.8771
59.8225
60.2896
159.821
53.737
145.939
149.307
56.8974
56.3091
54.6493
147.666
51.123
140.973
142.483
55.3807
55.0224
51.679
141.188
84.6705
88.3605
77.6649
33.1227
30.2569
29.8518
24.7687
198.526
221.099
197.547
137.183
108.025
133.2
102.627
144.57
288.523
316.879
174.568
146.562
175.245
285.986
105.475
270.832
274.659
111.376
108.495
108.75
274.873
100.047
238.159
255.776
104.631
105.837
100.093
223.685
70.7875
172.332
164.189
80.0815
73.7359
77.0093
164.251
63.3653
170.93
166.869
66.4248
64.5059
65.1202
164.073
55.0249
152.236
149.712
58.6305
56.8112
56.9867
145.898
50.3151
140.153
137.75
52.5474
51.3951
51.2053
136.236
47.3259
133.297
132.276
48.7626
47.986
48.0771
130.603
74.7909
77.2371
66.053
28.4704
24.6074
27.4678
22.2774
190.483
200.326
193.338
119.746
91.811
114.392
90.8685
134.971
282.98
305.439
162.651
134.821
161.78
284.553
102.565
278.233
279.518
104.192
101.078
105.567
280.067
98.9039
251.764
275.913
96.7535
97.7508
98.9404
271.075
101.962
156.637
190.368
94.2282
84.8238
105.659
164.597
64.0431
148.488
151.616
64.1405
60.6443
67.1245
146.183
64.2786
143.89
143.521
59.0141
58.9395
63.9418
146.704
51.3979
124.641
140.752
50.7734
47.9384
56.2554
128.686
42.1505
116.372
114.029
44.0975
43.3212
43.5029
112.095
60.9967
68.1214
61.4757
26.3416
20.7053
25.397
20.2287
189.241
185.207
180.269
99.8827
89.6664
101.823
92.8079
148.722
294.626
306.737
162.839
139.427
168.689
281.368
111.604
293.006
274.46
112.623
109.252
116.142
280.058
104.933
300.001
295.868
105.113
104.792
105.491
298.998
105.431
283.956
303.455
104.985
110.996
104.322
299.007
94.4208
180.852
206.013
103.867
83.2648
109.004
196.886
94.7082
170.963
205.427
76.4268
83.9357
80.6166
194.799
65.7525
151.447
157.256
72.4547
63.1844
78.7031
154.084
43.5486
110.43
117.053
46.4939
43.0221
46.6492
111.321
63.8483
73.7863
67.1339
25.4539
20.3926
26.4524
22.835
150.254
166.44
153.873
97.0934
83.4146
93.6862
78.4926
159.229
151.188
146.747
74.4847
73.6556
75.6642
75.1732
167.421
134.36
125.348
73.3564
72.7296
72.7541
69.0194
169.884
122.439
120.628
72.4919
73.1155
69.2798
71.4358
160.196
119.902
116.44
76.5274
83.6884
73.6584