/*--------------------------------*- C++ -*----------------------------------*\
  =========                 |
  \\      /  F ield         | OpenFOAM: The Open Source CFD Toolbox
   \\    /   O peration     | Website:  https://openfoam.org
    \\  /    A nd           | Version:  10
     \\/     M anipulation  |
\*---------------------------------------------------------------------------*/
FoamFile
{
    format      ascii;
    class       volScalarField;
    location    "8.5";
    object      omega;
}
// * * * * * * * * * * * * * * * * * * * * * * * * * * * * * * * * * * * * * //

dimensions      [0 0 -1 0 0 0 0];

internalField   nonuniform List<scalar> 
12920
(
31.4352
136.405
161.486
154.063
124.96
95.6765
83.7077
82.6514
81.5642
79.4711
75.0084
69.1006
61.2445
53.2366
46.4502
41.8651
39.7495
38.8611
38.34
36.4055
228.112
193.783
193.324
193.658
172.918
128.419
94.7382
80.36
74.7985
72.1702
67.4585
62.2088
57.6935
55.0748
54.5535
54.7188
55.2489
55.4614
55.1071
52.6424
101.997
138.91
152.972
156.394
140.708
111.043
89.9239
79.1741
71.2043
66.5826
63.8429
62.7065
62.669
63.0315
63.1153
62.6565
61.507
60.1517
58.4837
55.0105
59.1645
149.704
166.836
159.6
136.263
112.351
93.6959
82.611
75.1799
71.0496
68.1306
66.9728
66.2269
65.799
64.8854
63.8862
62.7738
61.1576
59.4383
56.6672
184.091
160.465
180.889
168.531
132.385
111.808
93.7864
83.6774
76.9465
74.3942
71.9691
70.8797
69.3625
68.2464
66.8211
65.4064
64.1185
62.1894
61.0641
58.6418
172.189
182.802
187.659
181.622
146.177
111.707
90.3515
80.9757
75.9631
73.1084
70.0287
68.7188
67.2484
66.2571
65.042
63.7778
62.5988
61.0333
60.2123
58.1586
317.069
254.056
222.747
185.714
146.662
112.951
93.7155
85.2097
79.6372
75.0372
71.1303
68.2253
65.8085
64.1237
62.3482
60.8103
59.4514
58.3569
57.7033
55.6421
216.747
245.256
239.362
209.841
161.427
125.723
192.787
145.454
122.309
108.449
107.811
103.813
100.641
97.6886
60.1014
56.8143
54.9872
53.8741
52.7937
49.5471
209.461
258.239
231.842
192.777
159.361
227.074
328.912
238.95
216.346
172.017
169.131
159.765
148.061
142.01
91.045
52.443
49.5402
47.2938
45.0198
42.4942
269.817
300.876
254.941
198.81
158.689
224.664
319.426
271.014
259.977
173.8
172.954
156.588
141.932
134.89
83.1073
45.015
41.9182
40.1185
39.3779
39.5569
223.42
215.106
204.526
171.452
140.882
200.868
305.352
278.555
265.722
166.096
152.682
143.76
130.079
117.92
70.0189
41.0982
39.8235
39.3633
39.387
40.0127
159.519
186.8
160.426
131.851
122.289
194.763
312.571
291.495
297.23
296.717
176.299
195.915
152.89
115.746
70.15
44.8092
42.5983
40.938
39.8103
39.3812
136.226
201.772
194.042
157.353
124.384
107.328
166.356
151.808
163.571
169.411
167.183
141.807
92.7678
76.1671
45.8361
43.3171
41.4961
40.4572
40.0127
39.1502
196.405
228.766
200.638
158.499
121.318
100.575
90.1304
73.8451
66.1202
61.5143
58.8286
54.8116
50.9584
49.1479
47.6442
46.7403
46.0424
44.9963
43.943
40.9433
56.2504
198.144
201.911
174.294
137.223
117.164
93.779
77.7673
66.187
62.7058
60.1329
59.9048
60.055
60.924
60.8824
59.7675
57.7228
55.4991
53.3958
46.9801
367.869
260.523
211.522
174.234
138.658
110.93
87.496
73.5227
66.8645
65.7892
65.134
65.578
65.6987
66.1723
66.023
65.1024
63.9571
61.4038
58.9788
51.9732
230.595
243.547
230.652
172.244
126.374
93.1842
75.1912
66.547
64.3125
63.8993
63.733
63.6557
63.3854
62.6757
61.2238
59.218
57.8663
55.4375
53.6745
48.607
361.15
248.491
210.763
156.92
117.388
92.4832
77.1389
69.7798
63.7504
60.55
57.9422
56.3705
54.6945
53.0665
51.1181
49.0412
47.2311
45.7913
45.1845
43.735
327.949
318.738
273.406
223.406
157.965
116.711
98.034
90.0325
78.79
71.5457
64.2325
60.5876
56.9168
54.9761
52.367
50.0722
47.7129
44.9923
41.7987
40.1043
372.486
276.229
188.662
132.713
106.638
93.4438
82.419
74.9038
66.6187
60.3631
55.1183
51.338
47.8171
44.3924
41.4088
39.2532
38.32
37.5408
36.5169
33.9369
100.713
94.5192
80.9076
65.8632
52.8403
48.4273
47.6969
46.8988
44.621
41.7209
38.3905
34.796
31.333
28.5033
26.4094
24.8158
23.5239
22.7585
22.3055
20.9316
353.663
192.477
124.476
103.775
95.6865
73.5047
55.0033
47.4585
45.2292
44.5095
43.0609
40.1553
36.4497
32.8292
30.0113
28.9148
28.7338
28.9721
30.1018
30.6844
267.058
165.011
131.326
95.6985
70.223
53.4738
45.9231
42.6058
41.128
40.2687
39.5513
38.225
36.0596
34.011
32.381
31.4685
31.0657
30.9266
30.972
30.3295
315.092
148.134
137.037
102.755
72.5409
52.8098
44.1716
39.641
37.1945
35.7977
34.9175
34.1644
33.3923
32.7241
32.0615
31.4832
31.1241
30.5907
30.3574
29.5082
227.708
167.234
153.094
109.257
82.109
67.3257
57.221
48.3852
42.3184
38.429
36.0822
34.7688
33.871
33.2194
32.6005
31.9894
31.4723
30.7553
30.4309
29.6157
202.919
178.454
170.034
134.469
97.345
78.6072
62.2864
50.6594
42.4112
37.367
34.0596
32.7643
31.974
31.6103
31.2431
30.8509
30.4865
29.9719
29.7087
29.1252
199.539
137.626
103.937
98.6508
90.117
74.2363
60.1352
51.3067
43.3851
37.8994
33.8222
32.0216
30.8806
30.2939
29.8422
29.4321
29.0777
28.642
28.4421
28.0458
132.777
127.452
115.932
100.831
89.0132
74.1966
72.2025
63.9599
51.1327
40.5871
33.8871
30.4127
29.6434
29.096
26.2133
26.2236
26.1403
25.9399
25.8139
25.305
168.829
154.26
116.019
100.335
90.5698
88.9366
80.1344
65.8645
58.586
48.8886
34.3935
29.2685
27.1325
26.1009
24.1135
22.6345
22.7384
22.6439
22.3854
21.6845
197.608
183.088
128.84
95.5463
81.1029
82.2201
72.6012
60.1143
57.1969
47.4385
32.6706
28.7571
26.127
24.0101
21.6779
19.9115
19.7589
19.644
19.6335
19.9794
264.39
197.051
122.954
91.9227
74.4718
72.0823
62.4952
52.1275
48.8551
49.8359
37.9131
40.1479
30.954
25.0735
21.795
19.2884
19.3464
19.7114
19.9919
20.737
305.204
120.692
92.9906
71.5536
62.5936
64.148
66.2998
58.8001
52.1766
52.0653
56.5055
50.0327
54.1984
25.4837
20.8728
20.0774
20.5375
20.8253
20.8284
20.6143
135.504
147.534
122.654
80.933
65.7294
57.2712
61.2173
58.934
59.0653
57.6842
59.632
70.0843
50.0466
24.3845
21.1739
21.1516
20.9295
20.3985
20.1529
19.8254
279.622
181.507
103.137
82.1952
73.08
56.1971
48.4899
42.968
39.5098
38.7594
36.7086
29.3693
23.7928
22.6371
22.6183
22.6104
22.558
22.2457
22.0358
21.182
227.267
186.463
126.077
98.1124
84.8694
68.765
53.4761
43.4633
36.7695
32.8299
29.9888
28.3891
27.7019
28.1304
28.9099
29.2791
29.2543
28.5829
28.0712
26.0569
322.364
187.888
135.936
110.59
90.1737
64.4905
49.0453
39.7999
35.798
33.9536
32.6277
32.4936
32.6747
32.957
33.4744
33.6975
33.7824
33.5074
33.1713
31.1492
244.571
172.741
118.032
89.6853
73.6389
55.1169
45.2387
38.9651
36.3355
34.9241
34.3413
33.9082
33.8583
33.5368
33.4686
33.2733
33.1981
32.9758
32.7627
30.5532
284.404
168.076
116.787
95.2499
76.3186
56.9596
45.6626
38.2179
34.556
32.2067
31.3517
30.6363
30.3654
29.9264
29.522
29.1849
28.9505
28.5894
28.303
26.3855
226.523
185.721
169.686
149.596
100.071
67.261
51.3554
44.5291
37.9394
34.5956
31.2634
29.7142
28.2388
27.5898
27.2765
27.3001
27.6605
27.9684
28.0605
26.8646
145.031
117.527
98.2157
77.5334
65.2682
56.6154
49.4985
44.3025
39.3726
35.905
32.876
30.5349
28.157
26.3233
24.9634
23.7548
22.9479
22.2514
21.6401
20.6149
165.348
125.249
82.6154
63.2597
54.888
52.6707
51.4542
49.1702
45.7486
42.2422
38.5234
34.8792
31.6907
29.1387
27.1996
25.6139
24.5157
23.9695
23.8605
23.5787
245.517
144.711
111.541
76.3641
59.8638
49.0871
41.8715
39.2847
37.2572
36.3975
34.5364
32.7091
30.5331
28.9846
27.7957
27.1145
26.8371
26.8003
26.8662
26.6352
212.185
147.317
110.356
86.3816
61.4051
46.5228
38.9912
36.2947
34.7776
34.2626
33.2907
32.1633
30.5891
29.3966
28.4402
27.832
27.5071
27.2018
26.977
26.2192
164.296
129.574
108.857
86.1551
62.6824
46.1155
38.1978
34.0047
31.8454
30.8282
30.0697
29.5739
28.9057
28.3994
27.8856
27.4499
27.1093
26.6533
26.3703
25.6873
170.413
151.236
111.165
84.7389
65.7861
53.7454
44.1036
38.083
33.9826
31.8151
30.3689
29.5998
28.9287
28.4291
27.9166
27.4318
27.0164
26.5207
26.2569
25.7181
199.068
168.38
130.908
97.1772
74.529
59.6588
46.4317
39.022
33.6017
30.7409
28.8366
28.0871
27.4787
27.1445
26.7933
26.4557
26.1668
25.8509
25.654
25.3241
171.256
134.907
91.8959
74.9257
64.7858
54.5283
45.6607
39.1688
33.7858
30.1734
27.895
26.8188
26.1719
25.7929
25.493
25.2232
25.001
24.7495
24.6055
24.3488
179.172
146.507
103.068
78.2096
63.6428
54.4329
51.6655
45.958
37.2199
30.5612
27.1251
25.0907
24.5631
24.0847
23.4503
23.177
22.9985
22.7716
22.6232
22.2469
257.125
163.672
106.82
75.27
61.4196
57.2481
53.3993
47.4828
40.8685
33.0975
26.3957
23.8381
22.6674
22.0391
21.467
21.2353
20.8614
20.5876
20.3502
20.1016
150.571
159.558
127.764
82.1046
60.3954
55.4714
50.0107
45.8901
42.4372
33.6953
26.5103
24.6033
22.5691
20.9236
20.1346
20.032
19.4694
19.3034
19.3224
19.5923
155.901
140.417
92.845
68.8014
54.2882
50.5118
45.9557
41.0513
38.2474
36.2542
76.9189
66.719
34.9235
25.6978
21.3011
20.1455
19.5892
19.5443
19.6253
20.0115
259.309
131.55
77.7642
56.1525
49.7044
49.2666
51.1206
45.9506
41.9724
43.2261
50.7655
50.0787
44.6024
22.7411
20.306
20.04
19.6056
19.4523
19.3708
19.3479
224.477
179.07
100.174
64.1982
52.2992
44.7875
45.7578
49.2922
49.7118
51.1045
55.8868
62.0661
34.7325
21.3841
19.9885
19.4717
19.0575
18.7891
18.6534
18.5383
424.447
277.961
103.394
62.4049
52.2475
42.4511
39.2758
33.3239
33.6945
31.3878
29.3018
24.3161
21.4016
20.6768
20.465
20.2615
20.1114
19.8042
19.5878
18.985
236.873
170.603
96.5612
74.0383
60.3055
47.333
39.4755
33.5254
30.138
27.5069
25.7216
24.7692
24.3982
24.6369
24.8707
24.8634
24.6346
23.9037
23.3126
21.5929
298.501
133.651
96.5809
73.4636
60.2205
43.4519
36.7402
32.0662
29.9838
28.8114
27.9961
28.0527
28.0842
28.2515
28.264
28.1575
27.8507
27.1336
26.5416
24.5546
89.4603
139.323
121.774
70.7662
51.6314
39.89
35.8606
32.079
30.3614
29.4265
28.8138
28.6988
28.4869
28.4206
28.2303
28.0139
27.7687
27.2389
26.6882
24.5501
159.554
148.214
105.146
68.611
55.4322
44.8296
37.2761
32.1562
29.3298
27.8801
27.011
26.7597
26.3903
26.331
26.1535
26.061
25.8523
25.4089
24.8328
23.0506
261.257
131.931
110.403
86.6568
65.6923
53.0332
43.6714
38.5369
32.9322
30.6794
28.2228
27.453
26.3802
26.116
25.7938
25.7684
25.7368
25.5978
25.287
24.3672
117.613
112.396
97.6085
84.1411
73.3135
62.9956
54.1168
47.0309
41.312
37.1024
33.6407
30.9396
28.7069
27.0646
25.7296
24.7058
24.2096
23.9301
24.0142
23.9863
91.2131
94.8997
64.1779
55.266
53.7581
53.2518
52.1349
49.1113
44.7973
40.7121
36.8784
33.2212
30.304
28.0081
26.5223
25.5007
25.0793
24.9713
25.1538
25.0809
198.636
122.95
97.9848
67.4819
57.7755
49.7005
46.2697
42.997
40.8997
38.9538
37.2392
35.6071
34.4539
33.3434
32.6775
31.8355
31.3579
30.7464
30.2776
29.7712
224.517
132.123
108.114
78.2752
61.2407
47.1732
42.9008
39.4381
38.5622
37.4088
36.4902
35.2484
34.1671
33.151
32.3816
31.6552
31.1732
30.5501
30.0888
29.3905
219.812
136.584
106.589
78.9687
62.512
46.7213
41.7914
37.0145
35.7993
34.3363
33.8743
33.0799
32.5707
31.9357
31.4525
30.8933
30.457
29.8883
29.5039
28.984
169.89
143.695
102.51
72.6048
61.764
49.3234
44.2446
38.9084
36.6182
34.5908
33.7341
32.8196
32.2641
31.609
31.0921
30.5224
30.1123
29.6284
29.3453
29.0155
248.325
170.572
116.37
78.8422
66.0523
52.8704
45.5736
39.7781
35.8868
33.3771
31.9768
31.1225
30.5561
30.1039
29.7429
29.3603
29.1253
28.8741
28.7057
28.5797
161.804
129.963
89.3826
64.2625
60.7506
50.7468
45.2998
38.9559
35.0889
31.9197
30.5199
29.5323
29.1322
28.7206
28.388
28.0896
27.9218
27.7432
27.6219
27.534
379.636
207.293
107.958
74.1411
62.8
54.1462
49.0668
41.4478
35.8121
31.0574
29.4294
27.9516
27.6405
27.1269
27.8706
26.681
26.2184
25.9261
25.756
25.6196
250.736
180.856
113.195
70.7934
58.7865
53.1545
49.9869
43.2879
36.2173
31.2881
28.1411
26.7267
26.0322
25.5987
26.5282
26.259
24.819
24.3828
24.2962
24.4358
234.011
176.814
147.539
85.2216
60.5147
52.9105
48.6769
44.8535
37.567
31.3445
27.8664
26.6503
25.682
25.2158
26.1407
26.1537
24.5548
24.23
24.2986
24.5197
264.133
141.2
95.6878
63.4644
53.5978
48.6225
45.1891
41.6089
37.3345
35.3413
46.2827
43.3388
32.1143
27.8379
27.098
26.5391
24.7696
24.3745
24.416
24.6291
310.846
181.687
92.1417
57.2471
51.1861
47.4431
48.6711
44.4488
41.7566
44.0557
50.5146
49.765
33.1078
26.3872
26.3756
25.5733
23.9451
23.5014
23.5297
23.7254
164.473
153.708
109.83
64.0337
54.1167
44.1592
44.4053
46.7122
45.6006
50.6858
53.7126
50.3466
29.0407
25.2931
24.919
23.2441
22.6144
22.4648
22.5019
22.675
221.243
164.288
92.7355
58.373
50.5825
40.4309
39.9757
33.1353
34.1527
29.2397
28.9117
25.7101
24.7752
23.8839
23.5392
23.0854
22.8795
22.6397
22.484
22.4223
499.7
159.418
85.9169
61.2153
52.9865
40.9067
38.9312
33.134
31.1461
28.3927
27.6845
27.0085
26.8642
26.8414
26.6811
26.2812
25.8715
25.1802
24.5296
23.5022
245.449
126.034
82.2899
59.4543
52.5469
38.7121
37.5708
32.7245
32.0152
30.1686
30.1073
29.8941
29.9405
29.8574
29.559
29.0595
28.5014
27.5759
26.8309
25.3347
152.187
158.182
127.589
66.1103
49.5416
38.3539
37.2432
32.9484
32.3209
30.8449
30.7505
30.3652
30.2653
29.9738
29.641
29.172
28.7108
27.8968
27.1974
25.673
252.145
154.991
96.365
60.819
54.896
42.8316
39.1171
33.125
31.9599
30.006
29.797
29.3214
29.2089
29.0182
28.833
28.5488
28.1915
27.6305
26.9547
26.1058
195.94
120.708
86.7716
65.8235
61.4005
50.298
45.0108
38.7357
35.2461
32.9134
31.6253
30.8173
30.1494
29.8444
29.5156
29.3904
29.2199
29.0372
28.958
29.1485
130.493
129.417
91.751
77.9593
68.6868
59.9603
52.0402
44.5004
38.9949
34.6281
31.7172
29.3804
27.6902
26.3414
25.4277
24.8948
24.8804
24.9576
25.4053
25.1718
77.1509
53.3387
48.0923
52.2819
54.3893
53.9568
50.7758
45.9624
41.2473
37.1906
33.0348
29.5885
27.3284
25.985
25.3198
24.9328
24.8566
24.8597
25.0152
24.8135
170.496
129.065
106.811
73.9304
77.8899
61.5301
68.7228
59.7598
62.9771
57.9305
58.8776
56.045
56.1049
54.4783
54.0106
52.53
52.0766
50.8696
50.2212
49.6375
199.305
164.218
115
76.2152
74.6226
54.036
59.56
51.8779
56.2947
52.9032
54.5239
52.3878
52.6551
51.1376
50.8166
49.5626
49.18
48.1216
47.6418
47.1049
340.94
155.685
112.664
76.6227
73.1034
53.2798
58.1037
49.549
53.346
49.6917
51.3973
49.5387
50.0519
48.9633
48.9157
48.0523
47.7723
46.9338
46.5513
46.2477
289.756
148.065
113.674
72.0462
72.5841
54.2874
58.8569
49.9297
52.9185
49.2065
50.5729
48.7402
49.1257
47.9874
47.8791
47.0587
46.8821
46.3025
46.1181
46.1244
200.757
180.865
138.919
77.1356
79.6201
58.4616
62.1734
53.3845
53.1943
48.9305
48.6094
46.8136
46.7164
46.039
45.9253
45.4667
45.5032
45.3219
45.2424
45.5385
242.254
131.505
94.9311
71.7397
73.3831
56.5976
57.9045
49.1643
49.546
45.6225
46.3313
44.8754
45.3582
44.6444
44.5369
44.1579
44.2599
44.2329
44.2056
44.5841
234.73
152.653
124.41
76.6618
82.263
66.9009
62.1446
50.9653
50.4704
46.6663
47.2314
45.5431
46.0478
45.2876
45.9765
43.2832
42.649
42.4884
42.3926
42.6649
194.977
161.862
126.83
75.0019
70.9146
63.1082
64.5519
55.2701
53.6954
51.2042
50.6803
49.8644
50.1707
50.0401
50.5202
44.104
41.4687
41.2074
41.1196
41.5246
288.232
228.232
188.619
92.5247
79.0472
65.0212
66.343
64.1213
58.0415
53.7292
51.2149
50.6275
53.2873
53.8278
52.2572
43.7435
41.0294
40.905
40.9375
41.5379
461.364
167.637
115.743
68.402
66.9801
56.5481
59.4507
64.2824
60.746
52.8861
49.3607
48.023
53.9392
55.594
52.8797
43.9032
41.0941
40.9691
41.038
41.644
194.024
163.234
109.239
68.4639
67.4561
55.8768
62.6682
64.738
63.7123
61.097
57.8608
54.0284
54.7274
54.8609
52.4075
43.0328
40.2827
39.945
40.0169
40.5139
198.662
155.105
124.248
69.4624
74.5973
56.658
57.2852
52.5966
56.3183
53.2104
52.8878
48.9595
48.9904
46.4112
43.1108
39.6696
38.7928
38.6538
38.6565
39.0543
202.322
148.384
99.949
66.9608
69.3483
49.5645
55.4361
43.8783
45.2508
36.7615
41.9862
38.1648
41.0764
39.1675
39.5632
38.4337
38.6547
38.2677
38.4018
38.6155
282.495
177.895
101.305
64.0348
68.8107
48.152
56.5918
42.6538
44.3686
38.9704
41.5458
40.4239
41.9253
41.173
41.1815
40.5417
40.5241
39.8428
39.6119
39.2517
413.326
168.887
90.5153
71.6312
68.1432
46.7901
55.9018
42.1723
48.1804
41.4439
45.7268
43.2596
45.7644
44.3093
44.9516
43.695
43.5577
42.3029
41.8864
41.0772
352.475
199.274
138.035
70.2788
71.2881
48.5659
58.244
43.8174
50.4821
43.7351
47.6418
44.7977
46.7194
45.0738
45.4549
44.2453
44.0726
42.882
42.5266
41.7488
346.778
170.616
110.351
70.9298
76.2047
49.9514
59.6995
44.5328
51.3483
43.8044
48.1166
44.5502
46.9365
45.0808
45.9902
44.7711
44.9184
43.9818
43.7661
43.496
205.48
139.905
91.7932
69.1205
81.0706
55.6384
66.6653
50.4946
56.566
47.8836
51.5864
47.4463
49.7332
47.8044
49.0184
48.2569
48.8654
48.7576
49.1821
49.9447
152.953
109.944
71.7043
66.2177
62.7352
54.9307
45.8926
38.687
33.9004
30.6477
28.5645
26.6917
25.6681
24.6235
24.3227
23.7704
23.7667
23.6656
23.6637
22.3843
27.5528
35.5431
82.9148
30.7651
27.3868
33.9243
72.7331
24.9734
84.1237
63.1885
26.817
25.8888
68.3831
51.4067
71.3397
42.5902
50.0789
34.8518
67.5498
41.426
48.3845
77.8195
52.4261
49.9004
64.8169
56.3116
49.3108
47.9516
250.279
318.213
268.693
99.6463
79.821
93.9789
74.1542
220.842
263.753
261.681
75.3627
67.1168
71.3726
66.3621
179.588
258.068
197.986
65.8954
61.4388
66.5023
65.3381
169.451
184.744
177.008
56.7518
42.7755
58.8897
41.2491
162.016
175.935
165.897
39.8067
34.5606
38.2843
33.6621
150.032
161.204
147.936
33.5115
31.2023
32.7139
30.273
142.637
144.799
139.136
30.8959
29.8852
29.5464
27.67
125.631
137.781
122.677
29.6977
28.1478
27.2549
25.121
271.596
311.649
278.423
88.3547
69.8843
80.4177
61.8403
266.742
278.887
268.45
67.8532
63.9318
59.44
55.2225
182.891
256.743
171.806
64.0019
61.0641
55.2619
55.5814
173.288
159.334
158.566
53.2878
39.2327
52.7335
39.5365
161.44
157.119
143.904
37.151
33.4613
37.8075
36.4653
144.821
141.724
131.355
32.5667
30.1688
36.2881
32.0966
136.753
127.904
123.62
29.4604
27.5293
30.5599
27.6838
121.686
122.899
107.226
27.074
24.9849
27.1528
24.6095
277.961
316.686
291.963
74.8588
61.5241
75.9156
66.2359
271.998
292.637
294.81
59.2292
55.1301
63.8728
58.9026
189.159
295.187
290.659
55.1193
56.8634
58.0406
57.9445
154.537
279.334
164.84
56.3695
42.3843
59.7487
64.7297
143.929
163.053
180.775
39.994
40.4102
59.2122
50.4684
137.901
167.364
150.767
40.911
36.1765
50.6357
54.8526
119.112
150.664
121.492
32.8794
27.6252
52.3735
30.3675
104.623
113.837
97.6752
26.9665
24.5378
27.6045
23.4073
290.199
300.825
233.661
77.515
69.1521
82.4003
71.8087
295.46
233.006
261.218
66.3881
59.9807
69.184
63.8918
300.107
271.77
292.686
58.8102
57.8327
62.62
59.6207
194.582
296.246
290.556
58.4754
64.9475
59.0852
60.0134
201.432
275.597
238.846
63.4364
51.8579
60.9651
60.0481
153.209
233.887
163.784
52.261
59.4411
61.0834
78.1386
125.997
160.494
125.342
57.3046
31.3968
71.5991
29.8938
96.9229
117.069
100.935
28.0646
23.3806
26.8502
23.5278
68.9648
78.0916
65.1467
58.0292
52.159
56.021
50.3613
59.7417
63.1552
59.4564
50.4334
45.7653
49.5256
46.9324
53.147
59.5374
57.7257
44.0896
38.1127
46.4626
40.9666
36.9211
51.4434
35.8669
35.4462
28.6899
36.9686
28.4927
30.1739
33.3315
29.465
27.3099
24.8699
26.9987
24.6206
27.4346
28.6726
26.6488
24.2971
23.1467
24.0923
22.7
26.2973
26.0468
24.4715
22.9578
22.3844
22.2859
21.2152
25.5007
24.1128
22.9801
22.2529
21.9013
20.9565
20.2618
61.5201
65.946
54.2812
53.2239
48.6913
49.0172
44.1018
57.1557
52.4693
49.0362
48.0134
45.6803
42.9333
40.222
54.2955
49.0721
49.4168
45.2804
39.8588
40.0441
39.0774
34.5901
47.0827
36.193
35.9782
28.401
36.9952
47.3988
29.4896
35.107
34.8857
27.1425
25.2342
49.5224
47.673
26.7455
34.8324
30.2648
24.8048
23.2543
45.1458
33.5353
24.424
28.6348
25.5911
22.7151
21.3108
30.7266
25.2786
22.8274
24.9533
22.9347
20.9601
20.0996
23.9708
21.0313
53.895
64.4086
58.3187
48.076
43.7244
51.5045
47.386
48.858
56.3383
52.0664
42.5157
40.0216
45.8583
42.7445
50.2738
51.3477
51.4356
39.8894
40.0864
42.3645
42.7909
39.1377
52.9222
56.7317
39.1797
47.8509
43.9509
49.415
39.8411
54.0113
48.8886
51.7923
57.1638
51.4933
49.8435
34.2971
48.6819
52.0331
53.9829
36.7632
48.5353
48.2497
25.7767
49.6573
27.7124
32.7009
26.4931
42.7877
24.8761
23.0121
25.2308
22.082
25.1682
21.6875
23.3721
21.0309
61.1162
67.7253
63.4522
53.331
49.6136
52.5286
50.9214
53.2151
61.8357
58.1322
47.8539
43.9512
50.5587
49.5981
51.4699
57.0077
54.4375
43.3893
43.3993
49.0018
47.7336
57.1563
53.9821
55.0884
44.204
49.3731
47.793
50.3701
50.0034
56.1672
56.3349
50.7036
50.1069
51.3834
52.9935
56.0077
57.037
71.7955
49.5954
51.9478
54.1945
62.8796
28.5834
66.7206
27.608
47.7081
24.8212
54.7687
23.7438
21.894
24.5628
22.0534
22.8177
20.5004
21.7296
20.0103
49.1728
52.2394
47.8751
49.3413
45.316
48.6334
45.6247
42.5623
47.0532
44.0299
43.1613
37.4502
44.1792
38.991
35.3446
43.2404
37.4345
35.9281
31.8743
37.4697
32.5423
27.5229
34.2446
27.4409
30.4497
27.2061
30.8302
27.1217
24.3396
26.2056
24.1911
26.6078
25.343
26.4212
25.1259
22.8317
23.7232
22.4591
24.9805
24.2804
24.7828
23.9523
22.1573
22.086
21.1367
24.1795
23.815
23.7525
23.2459
21.7392
20.9079
20.2881
23.7184
23.4275
23.1196
22.7171
46.5887
46.4301
42.6014
47.5326
45.1052
44.5346
41.9204
43.1228
41.4604
38.6489
43.793
38.8165
40.6804
37.0272
36.7739
38.3272
36.8231
37.3505
32.4226
36.1425
33.548
30.3669
31.0618
33.4143
32.0507
31.2101
29.9444
31.9744
28.0568
25.8109
28.0295
26.2506
27.7057
25.6928
28.2199
23.0971
55.2461
36.6099
25.5783
24.388
48.0449
34.849
21.2474
32.7448
25.7492
24.0506
23.3043
31.8008
26.569
20.1452
24.2339
21.1725
23.1226
22.6515
25.5456
23.6565
42.2295
49.4993
45.627
44.3316
41.4394
47.4119
43.8177
38.5011
44.147
41.2161
40.2555
37.109
42.4927
39.8716
38.1966
40.8897
41.4233
36.3664
35.1268
39.5528
40.2053
66.7983
54.7273
40.2318
41.2667
46.9165
224.546
39.8236
86.1775
79.7913
75.1406
164.437
75.07
143.196
97.4217
39.7564
48.6993
46.8827
53.4004
37.2733
47.4386
38.1891
27.3341
39.7925
24.726
33.6503
27.7379
32.4545
25.8675
21.8753
23.4871
21.2503
26.5943
24.1918
25.2585
23.8286
47.6321
49.4176
48.7628
48.3848
45.1179
46.1506
45.7295
42.4178
48.6178
48.102
43.6826
40.9691
45.7815
45.5923
42.2271
47.6089
46.8495
40.7341
41.6478
45.256
45.9371
49.06
47.0987
50.5251
43.0885
49.1888
47.2803
52.6706
50.5088
51.6022
53.5826
50.5774
50.6797
53.8399
56.8258
50.9175
55.0923
60.5246
50.5126
42.725
58.2437
46.8618
24.3621
49.8512
23.2118
34.6713
25.2137
35.7385
23.9782
20.7111
21.5737
20.0707
24.5158
23.3993
23.2522
22.2473
45.6655
49.683
46.8072
59.1515
53.0284
60.5896
58.7148
37.5655
45.0406
39.1613
50.3149
47.1367
56.1933
50.6985
32.551
37.5664
32.9585
47.0571
45.0737
49.7262
46.1272
28.579
31.4576
28.2545
44.1298
42.7708
44.827
42.376
27.045
27.6599
26.4825
42.6895
41.9162
42.0577
41.344
26.0948
26.1897
25.6791
41.5924
41.2982
41.3515
41.9962
25.6874
25.5962
25.3255
41.3805
41.1888
42.3964
42.6402
25.1142
25.2424
24.6982
41.0365
40.2443
42.6012
42.1141
46.4782
45.4848
43.3003
59.7152
59.15
54.8532
56.6298
39.1558
42.0552
38.1148
56.9611
51.4282
56.2024
52.8951
32.8097
36.9985
33.8798
50.17
45.3057
51.2217
44.3015
28.3688
33.5898
46.2068
43.7103
40.8495
42.6383
40.8027
26.9445
45.5904
41.7161
40.4448
39.813
40.6171
39.083
25.837
40.134
32.6875
40.0973
41.3762
38.9602
40.7565
25.3199
30.8289
27.6852
42.023
42.6681
41.7347
43.4467
24.6265
27.0537
25.4983
42.6398
42.0616
43.3936
42.4528
42.7316
47.8974
44.6822
53.6497
55.9695
55.1373
56.691
38.2855
43.489
40.9842
55.8952
53.499
56.6653
55.4693
35.3907
40.6194
41.013
51.9423
45.5234
54.9197
52.0651
46.9143
42.1517
47.5785
44.1401
42.9499
51.7757
51.8032
44.4159
48.1806
46.9062
42.5427
40.0897
51.011
46.9148
34.3661
46.1711
35.7945
39.3666
40.8679
45.3646
42.405
28.527
31.5914
27.3534
41.9209
43.7337
42.7541
43.5552
25.9534
26.9946
25.7015
43.6743
42.6233
43.4651
42.4524
45.7372
46.4087
46.0525
55.9841
56.8322
54.1902
53.1915
41.9739
46.0326
45.6387
56.5724
55.4803
52.6347
52.2046
42.6734
45.3224
46.5804
55.2815
53.9427
52.751
54.3656
49.497
48.1769
53.2642
53.9032
54.1345
54.6333
54.5782
50.2041
54.259
56.7305
53.5183
50.2491
54.6578
53.885
39.1816
57.0061
41.522
48.85
43.5677
52.1207
42.9597
26.7944
33.4182
25.5145
43.3683
43.3088
42.1326
41.0782
25.3309
25.0311
23.8694
43.1397
42.1567
40.5582
38.8588
57.7856
66.7748
65.3621
80.533
74.9472
85.2191
85.7402
53.5881
62.9152
58.2408
73.7458
75.339
84.2039
83.0684
52.0627
57.3826
54.7453
76.8642
77.8871
83.6468
87.2535
50.5326
53.9588
52.258
77.404
79.3509
88.4583
90.9893
50.1401
51.9746
51.1906
79.868
80.0947
91.4424
91.4842
49.9062
51.2703
52.6402
79.5811
80.7255
90.9333
88.2319
50.1396
53.1507
53.4324
81.0254
81.5609
87.7345
87.3403
48.9759
53.4366
52.8251
81.3451
79.838
87.4313
87.1418
66.2135
61.1884
64.5764
86.9236
87.9333
82.0213
89.4934
59.2094
64.3892
61.2255
86.5721
84.9941
89.9323
90.0075
54.8732
59.8674
53.9573
85.6463
90.4382
91.0769
98.1174
51.5088
51.7317
48.4607
92.0051
94.7648
100.311
101.986
50.6476
48.2276
47.5727
95.2139
95.4594
102.099
103.025
52.4155
48.3656
51.9303
94.8718
90.9587
102.896
97.9772
53.8558
53.7379
55.4533
89.7043
88.4804
95.3874
91.4082
52.9063
55.2737
53.7141
88.4581
87.1909
91.0533
89.3942
64.0883
61.2264
64.8999
80.5451
89.78
84.4528
92.1587
61.9869
65.1313
64.1851
90.6604
91.2752
92.573
92.7861
55.0079
63.6049
60.8361
92.3598
99.2544
93.1931
96.0274
50.0026
59.7526
57.4797
101.359
101.665
96.4343
93.3442
47.626
56.1464
52.5017
101.191
102.419
92.3196
94.5192
51.9982
51.8443
53.1601
102.803
98.7959
96.4904
96.663
55.8088
54.5158
55.5637
96.2007
91.9726
95.3163
92.6671
53.8284
55.2955
53.6374
91.5095
89.1117
92.2248
90.4853
64.8194
60.5405
58.2116
88.6012
92.0032
82.7064
78.808
63.9308
57.4373
58.0407
91.8869
92.2516
77.8669
85.0544
61.887
59.2364
59.4555
92.4251
93.2565
86.7976
82.1281
58.9452
58.6904
56.9568
93.0328
89.8764
79.2827
79.2845
54.7955
57.0491
56.2547
89.1569
91.5581
80.2219
82.6388
53.9062
54.9157
51.7696
93.6387
95.0396
83.9949
90.0498
55.1739
51.9898
51.6596
94.5785
92.4751
90.7537
89.0368
53.2457
50.9117
48.5617
92.0406
89.9103
87.8835
86.1409
29.3818
29.0313
28.6763
27.0969
29.6939
28.3036
28.6708
35.5173
33.7582
52.307
38.5637
33.6636
32.6622
163.413
38.8909
35.2406
70.5767
187.372
34.553
39.6052
207.874
29.8631
31.0491
29.3376
30.8629
29.342
31.0909
29.7546
29.2027
27.023
28.2141
28.7988
28.0081
28.7234
29.1736
35.248
38.5959
31.5152
56.5965
31.8883
166.442
32.506
39.1725
188.539
35.8281
72.6627
40.2069
208.258
34.8131
28.125
25.3363
27.5378
25.0183
27.6319
25.3203
28.0357
39.5851
35.355
83.2802
168.447
35.6028
39.4666
149.822
40.9119
35.9896
74.3164
77.2874
36.3739
38.9826
96.3713
28.3782
26.3371
26.4357
28.5966
25.8883
28.4367
28.5555
28.4926
25.3113
26.1547
28.4911
25.5824
28.3791
28.5824
40.8323
171.658
36.1783
64.4473
40.3239
156.237
36.5473
42.3494
75.45
36.4714
57.5862
39.7232
102.652
36.9786
92.606
65.7713
67.6116
189.966
57.2953
211.811
100.444
44.4006
41.5894
44.1238
41.7129
43.829
40.4797
43.4974
52.4016
55.1309
46.5853
50.5384
48.1978
59.3597
46.7761
65.4802
41.3321
56.1718
37.8408
215.461
39.022
46.007
86.8997
192.943
68.3453
56.7446
211.89
87.4591
55.6391
43.7127
41.3115
39.5042
43.0913
39.7655
43.1729
42.087
51.4194
49.694
49.4687
46.0397
55.6991
46.5563
47.0423
69.6244
83.7336
58.0515
104.952
68.5072
132.883
58.2241
58.9822
59.5668
52.6942
52.3574
59.163
60.6994
52.3207
53.912
50.6343
51.9724
49.5251
55.7202
49.5861
51.3702
69.3625
174.698
61.6331
55.0814
158.67
81.8685
51.5264
58.9325
93.9115
61.4466
46.6093
138.699
52.7007
48.6802
53.6138
50.9531
49.3705
49.2461
55.5389
50.8552
48.4538
50.0274
48.837
45.3113
48.7203
47.5394
50.0715
46.656
165.015
192.343
164.838
104.68
94.1151
114.176
97.0993
131.185
148.503
136.276
84.1131
74.3863
84.9722
77.4987
112.87
123.067
113.86
68.0999
63.0168
68.4704
63.0862
107.855
109.533
107.918
55.8347
49.4143
57.8133
51.1497
106.817
106.695
104.594
46.7091
43.756
45.5213
42.0554
101.482
100.475
97.3829
41.7384
40.9979
39.6378
38.1968
98.6306
95.9193
93.9552
41.1389
40.7256
37.6027
36.8602
90.9929
92.6335
84.074
40.7246
36.0353
36.4598
29.9161
202.045
224.792
196.646
141.671
116.315
140.989
113.992
163.247
291.736
323.05
186.104
166.068
185.235
288.731
110.049
233.088
239.785
120.075
114.703
117.24
233.831
104.643
208.586
232.033
100.532
99.7558
101.46
228.669
89.1612
169.68
186.356
89.1995
83.6822
98.2832
181.145
67.0742
167.102
175.542
72.7688
69.1403
71.3154
173.649
58.6742
156.531
163.418
61.9752
59.7915
60.3058
159.783
53.7308
145.825
149.236
56.9513
56.2303
54.6527
147.576
51.1118
140.856
142.389
55.4277
54.9535
51.6725
141.093
84.6242
88.3156
77.6607
33.1542
30.2233
29.851
24.7704
198.367
221.241
197.391
137.223
108.196
133.297
102.943
144.495
287.875
316.277
174.419
146.414
175.282
285.435
105.374
270.523
274.273
111.132
108.29
108.589
274.604
100.019
239.712
256.558
104.379
105.785
100.003
225.475
70.993
172.196
164.13
80.6157
74.0188
77.4023
164.068
63.4403
170.865
166.721
66.5269
64.5888
65.1773
164.076
55.058
152.187
149.676
58.668
56.8346
57.0494
145.836
50.3054
140.032
137.619
52.558
51.4009
51.1968
136.091
47.3202
133.192
132.153
48.7595
47.9844
48.0693
130.491
74.7874
77.2069
66.065
28.4724
24.6118
27.4736
22.2942
190.11
199.886
192.931
119.846
91.8794
114.321
90.7974
134.593
282.075
304.167
162.187
134.454
161.362
283.528
102.418
278.092
279.268
104.064
100.991
105.396
279.837
98.7388
252.298
275.617
96.6409
97.4971
98.7967
270.892
102.01
156.548
191.42
94.2454
85.0677
105.47
164.946
63.9825
148.534
151.657
64.2981
60.6968
67.2697
146.317
64.0952
143.665
143.226
58.8978
58.8382
63.7208
146.415
51.5733
124.664
141.072
50.8804
48.007
56.4511
129.012
42.1612
116.252
113.941
44.09
43.3145
43.5302
111.996
61.0009
68.0813
61.4399
26.35
20.7285
25.4081
20.2371
188.839
184.674
179.937
99.6211
89.5155
101.557
92.6352
148.31
293.637
305.694
162.223
138.889
168.187
280.419
111.462
292.589
273.658
112.436
109.118
115.941
279.334
104.795
299.298
295.152
104.963
104.645
105.359
298.261
105.18
284.175
302.879
104.761
110.312
104.144
298.731
95.109
179.987
206.423
104.779
83.7538
109.319
196.05
93.4925
172.186
205.224
75.9005
83.289
79.9366
195.45
66.3093
151.354
157.104
72.902
63.5673
79.4643
154.084
43.656
110.46
117.38
46.676
43.1332
46.8228
111.39
63.7783
73.7145
67.0791
25.4587
20.3927
26.4452
22.8251
149.976
166.262
153.68
97.0041
83.3835
93.6056
78.4013
158.878
151.001
146.651
74.384
73.5138
75.5232
74.9951
167.14
134.489
125.487
73.2117
72.5889
72.6422
68.9209
169.677
122.474
120.669
72.3315
72.9254
69.1622
71.2367
160.194
119.957
116.731
76.2
83.2633
73.4613
75.5196
113.84
105.263
88.8671
87.2683
83.3734