/*--------------------------------*- C++ -*----------------------------------*\
  =========                 |
  \\      /  F ield         | OpenFOAM: The Open Source CFD Toolbox
   \\    /   O peration     | Website:  https://openfoam.org
    \\  /    A nd           | Version:  10
     \\/     M anipulation  |
\*---------------------------------------------------------------------------*/
FoamFile
{
    format      ascii;
    class       surfaceScalarField;
    location    "8.5";
    object      phi;
}
// * * * * * * * * * * * * * * * * * * * * * * * * * * * * * * * * * * * * * //

dimensions      [0 3 -1 0 0 0 0];

internalField   nonuniform List<scalar> 
38556
(
3885.68
2170.88
486.726
2362.8
1081.36
441.525
1786.57
-23.1862
599.422
1561.89
-24.1308
248.804
1319.92
-118.453
360.428
1255.79
-56.957
121.086
1212.7
-6.27523
49.363
1237.97
59.7724
-85.0429
1251.91
100.444
-114.384
1271.54
123.178
-142.809
1269.51
129.859
-127.82
1263.85
125.542
-119.89
1249.52
98.9256
-84.591
1234.19
72.8988
-57.5694
1213.64
47.0822
-26.5315
1194.87
39.9946
-21.224
1183.27
42.2363
-30.6383
1176.19
49.0674
-41.9901
1172.7
50.2754
-46.779
47.4299
-32.02
2014.1
2515.32
-340.519
1483.79
944.746
666.917
1608.83
15.4462
-163.673
1784.41
148.984
-348.691
1563.28
38.4878
64.1913
1365.82
48.658
91.8442
1154.47
27.366
177.707
1126.97
23.3628
63.9155
1134.59
39.3617
53.4601
1152.6
73.3344
31.8333
1144.11
94.5024
43.8448
1121.1
103.714
44.8371
1070.95
91.5257
57.5486
1020.68
75.7695
47.4047
991.988
63.5184
12.253
980.512
61.4641
-9.99361
983.625
62.2694
-23.1464
994.265
60.1054
-21.678
996.987
52.132
-4.57783
43.0271
21.4898
1170.3
1824.93
-1310.22
1187.49
380.636
546.926
860.767
-178.171
520.337
873.213
124.948
11.5897
812.691
95.5556
3.45401
801.041
124.024
-63.7166
812.807
-14.4522
30.0531
859.776
-44.0739
20.4675
908.901
-68.0029
58.2393
963.582
-23.0091
41.6625
997.393
11.3235
49.3674
999.042
54.8098
47.2549
983.088
72.9795
34.5008
962.648
79.4873
16.7215
945.124
76.4528
4.59043
935.624
72.1788
-1.21555
932.439
68.211
-2.75654
929.815
60.9665
1.76335
913.241
55.883
12.8227
47.5965
24.7179
1191.31
1011.14
1666.36
1377.74
-132.309
326.517
940.473
-474.529
733.626
887.511
0.187208
177.722
766.959
109.076
107.032
772.175
183.628
-64.8195
765.871
14.5956
-22.7432
774.465
-28.9493
-23.7188
783.09
-87.8788
11.2505
801.49
-53.444
12.0346
819.839
-30.5574
23.5328
842.242
19.4176
12.9884
858.206
47.5622
9.45377
867.165
65.0279
5.50066
870.856
68.9182
3.84335
870.601
71.0366
1.39716
868.358
68.7407
1.71365
862.3
64.058
2.96656
845.296
62.4603
10.4263
52.6106
21.4076
2151.86
-1306
-2389.7
1782.57
-804.491
1041.47
1338.8
-445.721
414.96
1207.7
-25.1244
156.414
1046.84
72.3229
197.612
1032.87
185.727
11.8729
952.871
18.4972
76.0974
904.106
-4.83369
24.6492
855.473
-93.5667
54.3218
844.21
-60.334
18.1531
839.752
-43.7284
17.6289
849.777
8.81157
0.581249
861.003
33.3499
2.98568
861.381
65.2025
-0.552132
861.14
70.5814
-1.4222
858.027
77.1109
-2.96109
851.483
76.6306
-1.34604
840.914
72.9277
1.6986
825.664
70.3576
7.35343
57.9397
17.5348
1679.56
-2619.83
-1039.29
2142.08
-1360.48
93.467
1655.47
-324.669
365.563
1526.05
33.6219
70.6668
1396.1
121.215
81.0566
1309.72
196.676
75.4393
1144.48
32.7035
151.035
1004.43
38.6831
96.5261
879.245
-39.2691
70.8903
810.221
-16.9792
25.669
779.233
-15.9577
3.21746
769.755
18.0336
0.25546
777.032
29.9665
-3.89322
785.357
62.1366
-5.25943
791.579
68.6663
-4.30686
795.766
75.7314
-2.80793
796.737
75.4911
0.168414
793.741
73.1313
2.7928
789.278
70.0028
4.81822
55.5811
17.6589
479.076
-1614.82
-3152.59
491.861
-607.22
-766.043
921.462
-68.8618
-685.408
1077.79
92.39
-215.095
1072.96
97.522
28.5168
999.146
230.264
40.2295
895.705
18.1169
133.344
-19.079
19.5434
-15.7802
826.617
8.67625
74.4865
3.07204
13.2761
8.26024
758.839
2.56386
53.4866
-18.3454
7.25404
-16.4503
721.573
1.73181
28.1182
-8.14733
4.56844
-5.98458
704.354
8.1042
7.88106
-11.7994
8.50797
-11.433
706.232
12.3658
-4.7205
-2.77477
13.0204
-1.73503
714.922
18.1486
-10.6835
-2.06242
17.9985
-2.12425
726.875
22.1413
-6.67127
6.63479
21.7875
6.29082
738.426
60.1392
-3.02355
747.159
69.5345
-2.5365
752.991
68.9408
0.718427
754.876
68.948
2.29827
756.548
63.2308
5.1004
45.2483
21.9171
1891.98
120.184
-3539.39
1574.39
259.9
-549.53
1520.96
186.39
-201.827
1543.89
254.056
-184.589
1462.51
114.808
64.0891
339.494
58.8143
58.0283
354.424
334.255
349.395
71.2084
59.3132
67.8412
317.105
23.5065
17
-278.182
253.247
23.2361
10.3751
-226.419
204.616
14.5553
9.81141
-176.5
165.94
2.68302
9.6092
-152.841
151.866
7.53803
1.5409
-142.266
149.179
6.61974
-1.16682
-146.884
155.556
10.9146
-1.43772
-152.368
160.642
15.304
-1.43734
636.526
22.2998
-12.423
-157.837
-156.506
-151.96
-147.082
2.93669
21.5849
2.59966
653.233
60.1827
-7.35564
667.614
61.816
-7.25644
681.681
57.9329
-3.05116
690.605
50.8103
3.49602
32.3763
22.0585
-16.5285
824.673
-2889.3
592.491
425.122
-774.243
1022.99
286.174
-530.278
1176.79
277.782
-177.529
221.832
204.041
139.829
225.698
248.163
252.033
223.059
35.2882
22.2996
-15.3601
-58.4504
59.0748
12.564
2.17172
-61.5067
-12.8266
63.6032
11.0582
-0.32813
-61.8277
-8.94596
61.5096
8.86004
0.404022
-53.9122
-3.79967
52.6449
3.40374
1.66329
-41.8179
-4.86901
41.3929
4.54783
0.746216
-35.8104
-4.37812
37.271
3.01739
-0.0998962
-34.9187
-4.09161
36.9105
2.07107
0.0287392
-35.579
-4.88988
37.5907
2.96363
-0.0854361
-36.8905
151.22
17.5817
-0.330046
-36.9689
-36.3018
-36.0107
587.789
49.5459
-4.59408
-146.227
-146.551
-140.253
-139.527
603.791
48.3988
-2.58443
616.35
45.055
0.318931
622.602
37.9269
6.63147
18.414
22.5835
-708.09
512.036
941.661
244.817
70.1215
-597.906
964.425
335.861
-769.295
1289.38
290.647
-337.82
260.952
363.995
2.25278
260.015
298.941
307.266
-34.0211
250.166
42.0625
2.74376
-3.75679
-56.5385
57.6315
4.46642
-1.80258
-10.7016
-60.3138
63.2936
10.1714
-2.44957
-7.80201
-67.7359
66.3272
8.9585
0.252254
-11.1865
-49.9171
47.0252
13.0294
1.04903
-9.76686
-41.7251
40.4055
10.6055
0.480929
-4.847
-37.4246
37.0303
5.15826
0.08308
-1.74718
-36.5849
36.4636
1.80268
0.0657307
-1.95792
-36.572
36.6757
1.9482
-0.0939286
-36.7262
-12.2996
144.954
12.5699
-0.481562
-36.4594
-35.8511
-35.7063
564.013
50.9834
-1.74417
-143.818
-143.974
-137.723
-138.191
569.445
44.8517
-1.88567
577.595
39.1966
-2.29096
595.753
22.7441
-2.97514
-0.994519
15.5427
1426.98
28.6372
2152.7
1229.6
157.38
110.121
941.517
460.558
163.387
924.824
369.007
-61.6665
153.863
493.896
134.243
154.479
175.606
176.731
-70.6246
146.504
68.7727
9.21071
-16.97
-38.447
42.2167
14.3361
-1.13573
-11.659
-51.6934
54.4306
11.579
-2.65714
-10.4143
-59.6557
60.3996
10.639
-0.968641
-15.8931
-55.7709
50.3215
17.2874
4.05518
-14.3608
-35.286
31.5756
17.0161
1.05514
-3.00125
-26.661
27.7482
2.24821
-0.334171
0.553896
-34.9422
36.9109
-2.48611
-0.0364467
-1.89942
-39.5327
39.8053
1.87102
-0.244194
-39.1946
-14.1651
151.779
17.0039
-0.236987
-38.5332
-38.4986
-38.1544
575.678
63.3022
-6.824
-148.059
-147.592
-142.925
-142.598
582.278
44.2065
-5.95393
595.941
26.9951
-1.46228
617.69
-0.540938
1.5364
-21.3339
17.4299
-840.798
-844.785
43.9528
-102.853
36.5577
-617.123
287.644
236.246
-166.185
328.24
345.659
-17.2476
105.879
348.106
29.0749
117.168
104.371
117.538
-74.0792
142.905
53.6409
-16.5881
-13.9761
-42.9637
48.4374
11.0744
-2.57198
-12.461
-58.4351
61.3926
12.163
-2.65946
-12.9873
-66.205
67.5516
13.7172
-2.0764
-15.1435
-71.4418
73.2856
15.5281
-2.22848
-28.1004
-66.309
61.8421
29.2089
3.35852
-12.1817
-62.1699
56.2268
20.4535
-2.32867
6.55536
-45.455
46.5176
-5.81605
-1.80192
-2.33056
-44.8566
43.1128
3.49256
0.581755
-39.4013
-20.656
154.95
22.3525
-0.771092
-39.0628
-38.9577
-38.4537
575.766
67.6642
-2.05302
-148.743
-145.942
-143.861
-139.529
580.964
38.6677
0.341014
587.213
11.0079
9.73847
590.965
-16.8845
12.5918
-34.7885
22.7514
1562.7
1622.84
1163.45
1182.41
626.614
-209.769
945.591
588.409
-115.343
856.829
489.947
-55.5253
808.092
359.178
37.6652
200.342
-8.42054
10.1526
-12
15.8344
-6.51892
26.0769
199.726
191.777
191.123
1.32602
203.822
-4.6258
8.48495
-5.4205
1.66139
-4.90597
-2.01905
-185.751
190.821
17.2684
-1.70267
-8.5504
-1.84277
-8.22396
-11.427
-219.521
251.933
25.4875
-4.06272
-16.2328
-10.7599
-15.4174
-15.5024
-264.722
288.655
44.6273
-0.721772
-18.6274
-15.2215
-18.4873
-21.3823
-310.157
324.152
63.6297
16.1691
-24.8502
-22.2234
-25.338
-19.6654
-313.674
280.54
68.3097
40.1655
-18.6166
-19.0365
-18.0225
-2.93065
-228.186
196.13
46.532
7.4363
-7.94202
-3.09466
-7.94476
-5.70484
-170.052
159.603
38.4891
2.73662
-9.8138
-5.6705
-9.58701
544.64
110.282
8.25066
-21.2098
-36.3986
-17.7156
-33.2754
-149.44
-134.211
-141.83
-129.093
543.893
60.2108
8.2003
542.833
36.3344
3.39346
546.309
4.23408
3.29787
552.735
-25.7318
2.42194
-44.0141
16.633
-466.845
514.02
-567.257
41.892
610.341
-492.464
596.692
672.793
-639.184
721.473
484.067
-118.902
619.839
348.933
111.879
522.29
103.137
-14.0096
464.547
203.901
23.9926
-13.7079
-69.1758
-15.1264
-72.1403
407.588
-0.54063
47.1472
1.3229
-0.155454
2.60632
6.5788
373.274
138.645
0.180608
-4.66181
-49.3186
-1.74957
-48.7818
360.407
116.483
13.4993
-18.5703
-39.8538
-18.806
-39.8853
392.223
228.577
5.02051
-51.1058
-82.2779
-50.8641
-81.1657
427.211
213.893
16.4009
-63.7709
-69.1846
-63.2421
-69.0844
469.921
200.315
-8.86864
-50.5859
-67.089
-50.4677
-66.0134
499.997
132.47
-10.9604
-35.0125
-42.9477
-32.9316
-40.694
524.456
98.7053
-12.8823
542.539
57.8885
-15.7603
562.446
30.7813
-14.3537
573.367
5.80085
-12.4883
583.019
-28.1199
-7.26386
-43.322
11.3494
1863.92
-72.4366
944.601
1359.91
880.722
233.628
1076.13
903.043
53.5275
1109.05
569.489
-118.336
943.678
433.329
80.9722
835.458
193.433
17.9237
713.093
228.741
97.5246
570.658
113.503
28.392
472.289
196.663
40.3502
420.565
155.463
12.7449
444.363
212.557
-7.77778
488.998
189.204
-19.9455
548.273
185.168
-44.1279
615.948
120.274
-55.4784
672.252
94.632
-52.2308
710.215
57.4681
-37.5426
731.438
36.9021
-27.3434
735.574
22.7087
-21.0441
724.093
-1.70279
-14.936
-17.3636
5.28533
-511.251
876.449
-1738.92
122.965
408.453
-161.947
607.303
475.324
-56.6194
801.107
378.025
-2.33954
713.221
313.54
207.676
662.553
198.03
46.0709
569.093
215.474
106.728
535.759
124.779
22.058
530.454
169.607
32.361
546.241
132.927
6.74896
592.363
158.189
8.24524
659.494
136.214
-14.1414
721.042
135.612
-11.9923
786.233
90.8891
-35.8071
837.268
75.4699
-31.8724
871.36
50
-26.6242
893.651
36.9421
-22.3312
900.037
28.2803
-11.9573
884.237
14.3139
-0.216992
3.79744
16.4278
737.185
-1117.3
-609.116
931.676
230.564
-16.6022
1032.93
584.356
-210.291
1037.12
453.976
-80.1377
782.512
410.123
158.027
684.851
215.064
80.6262
627.717
176.3
96.3088
618.982
97.4645
36.05
650.612
98.8664
39.1102
688.721
74.3282
20.4899
734.18
87.9663
24.7637
780.818
76.5618
13.0152
819.783
80.6319
16.0155
855.272
55.8958
-0.496218
880.689
47.1195
2.933
897.854
30.5904
2.24447
906.993
22.6809
5.12287
906.303
14.6118
14.3583
882.971
12.6883
24.9582
13.7768
29.9196
84.1041
-913.746
-955.215
157.649
307.412
-150.393
511.114
332.183
-101.293
609.288
216.106
139.696
548.222
204.56
266.629
547.45
140.453
75.3831
550.15
95.4518
78.1485
573.479
53.5853
20.5501
609.713
33.4595
29.1723
648.265
23.1105
12.6659
688.984
22.8274
24.4203
730.469
19.3431
15.734
765.578
19.4531
26.0692
795.623
7.25543
18.5952
816.777
1.83606
24.1291
831.575
-9.03573
24.8284
836.823
-9.46428
26.897
833.911
-12.6993
30.2238
809.626
3.7888
33.1839
19.5697
29.8204
404.823
512.337
-895.102
1139.69
-48.3795
-379.076
1144.14
136.006
191.729
1102.91
29.6175
227.72
813.061
86.5245
407.882
756.735
89.0495
107.729
724.393
78.8577
48.9355
733.233
78.0902
-33.3447
726.7
65.4012
-25.4082
725.673
63.7928
-39.6559
726.716
52.2778
-30.4925
739.246
45.8326
-39.0197
759.711
32.9863
-33.9986
785.135
21.4367
-39.6054
815.62
-0.290958
-28.3582
853.043
-25.3499
-21.1083
876.868
-35.321
2.03113
880.763
-39.9873
23.3936
853.047
-23.5364
55.0408
-0.859564
58.5923
354.885
-2940.36
569.114
-262.609
493.637
211.484
503.389
19.8651
649.324
-59.4103
752.177
-13.8035
839.686
-8.65134
916.66
1.11592
960.003
22.0587
1009
14.7918
1038.83
22.4562
1075.16
9.50157
1096.11
12.0298
1116.78
0.766121
1117.78
-1.29042
1099.32
-6.89084
1076.38
-12.3735
1054.47
-18.0804
1036.94
-6.00271
12.4673
1844.82
-1694.9
3182.39
1478.64
37.5228
770.187
1289.25
-117.532
906.337
1060.93
124.379
352.746
1064.14
-12.3222
369.54
1077.3
1.72811
106.202
1099.82
-5.68983
32.531
1123.61
-7.82513
-101.011
1115.64
7.20961
-113.622
1107.46
6.85068
-141.476
1083.3
11.9478
-115.611
1065.13
7.25462
-108.975
1044.11
9.45675
-73.023
1029.54
11.6428
-54.6437
1017.23
23.0695
-37.2951
995.761
34.9109
-34.6636
950.468
46.2835
-31.629
896.737
44.9628
-33.222
854.133
25.1134
-29.2884
9.72865
-11.3536
1260.22
-1120.41
-1117.84
1206.26
-29.8999
788.297
1001.42
-68.1102
-8.25761
946.117
166.427
-335.436
883.113
39.4668
75.4066
878.739
67.4236
30.5226
883.758
25.2545
141.743
906.734
7.71319
25.4019
915.26
11.3457
40.7977
918.557
18.4672
16.9204
905.811
33.142
35.3964
886.037
39.9029
31.9634
863.262
46.6587
43.121
844.839
47.6809
29.7898
826.326
49.269
4.56633
811.595
51.386
-11.7375
801.244
49.6654
-16.1768
790.414
43.6063
-9.49168
775.142
30.9841
4.82347
19.2902
32.8231
546.362
41.9486
-2913.16
624.162
-183.874
623.1
754.311
-117.207
439.285
758.259
193.716
-19.648
700.923
89.8501
10.4064
671.195
120.442
-87.0066
692.42
-5.36711
39.4492
728.678
-20.3925
12.3152
772.12
-39.5042
65.6475
801.652
-4.61964
35.2176
815.95
15.3562
52.8554
811.934
48.046
43.128
798.123
61.9443
33.0254
780.825
66.8625
14.8379
765.339
64.1082
5.23785
755.126
61.2419
-0.858841
747.639
55.0553
-0.659862
739.047
47.6552
6.30642
724.384
39.9952
18.475
29.1068
36.8131
56.6725
-740.654
298.495
35.5343
-341.471
505.253
631.137
-348.27
369.087
706.959
187.357
108.259
671.905
150.607
81.328
660.584
153.538
-86.5929
655.996
-19.5335
-3.98926
663.816
-32.7841
-19.1475
677.39
-63.5086
21.6812
691.071
-16.9234
10.658
702.453
5.4792
22.0271
709.516
44.2675
9.70406
712.507
57.5131
10.8946
711.828
66.97
6.07143
709.4
65.9392
4.44037
705.986
64.7775
1.27521
700.378
59.6467
2.73065
691.241
53.2701
6.48896
678.545
48.6033
14.5138
35.5674
33.3906
331.298
-2258.09
-3456.75
927.807
-822.464
925.957
879.522
-238.047
353.021
859.309
231.408
132.577
765.012
253.486
189.031
741.912
221.288
-32.7774
702.992
-1.80447
97.2892
684.223
-14.9314
25.5649
676.451
-69.7257
68.3103
679.116
-21.1697
19.7345
681.811
-3.45915
23.8717
686.704
36.1439
3.81212
690.085
53.3978
3.71932
687.387
69.4549
-0.33861
684.702
68.1365
-0.934351
681.074
68.7017
-3.25758
675.346
64.2422
-0.212719
667.108
58.3624
4.84338
659.388
52.878
10.7994
37.4242
30.0806
989.532
-1924.43
-1534.18
1329.45
-938.517
-130.395
1375.11
-97.3872
179.244
1292.69
268.753
115.742
1102.96
296.829
227.443
999.668
272.734
127.281
898.443
34.3279
216.128
810.132
52.903
117.003
728.947
-6.90389
89.2536
681.169
22.1896
30.0871
654.142
16.952
9.83342
639.079
52.1835
-0.720858
637.501
55.176
-4.09297
637.094
69.1117
-4.50977
636.339
67.6901
-3.10494
636.104
68.0549
-1.92687
636.058
63.3508
1.10652
634.338
57.7841
5.09119
634.097
50.3106
7.62611
33.1755
31.0306
924.651
99.4576
-3606.51
487.541
-307.451
-959.998
542.669
-61.093
-776.83
625.499
84.3994
-113.571
707.69
118.076
125.079
657.31
271.535
91.809
641.916
21.8728
168.53
-14.7348
22.0198
-14.6228
602.689
20.4587
89.2988
15.714
22.1652
18.9802
575.998
14.2306
67.5379
-12.5194
15.5301
-11.5052
560.92
12.6406
34.9553
0.537749
14.7368
2.51568
559.476
13.4852
13.3412
-7.95374
14.3771
-6.97265
566.203
17.1429
-0.2868
2.54739
17.9276
3.40496
574.869
20.1219
-5.1789
0.248521
20.2193
0.415341
582.964
22.4979
-5.27327
7.30253
22.3719
7.44564
590.241
58.6254
-1.23536
596.729
60.9675
-1.93749
601.862
57.2636
1.67311
604.569
52.5462
4.82848
609.638
42.3359
8.00621
25.289
35.4749
1593.11
202.462
-3052.01
1123.69
241.09
-628.646
1030.49
28.519
-198.24
1008.89
71.0456
-149.64
1017.65
49.7652
123.643
248.162
65.3772
70.287
260.816
230.442
240.754
79.8641
67.5296
83.9814
-37.0587
236.386
39.2155
31.4918
-26.6167
-205.592
187.832
34.0796
30.7564
-17.4795
-170.099
156.721
23.0993
21.9886
-13.0583
-138.556
139.491
8.94722
15.8172
-0.935802
-132.438
134.133
10.6263
2.09987
3.21379
-125.497
132.579
9.56697
-2.72008
3.42459
-129.49
136.039
13.7618
-3.61269
3.04848
-131.51
138.406
15.6579
-3.10437
532.087
20.8389
-11.6917
-134.279
-132.342
-126.396
-125.297
1.66711
20.2314
1.38335
542.704
49.7126
-6.71823
550.198
49.3467
-6.83313
557.522
41.6761
0.494321
564.239
32.0387
7.07621
17.0442
35.4272
1006.3
1188.81
-571.453
705.293
497.188
-729.333
647.883
200.307
-644.657
636.942
131.885
-227.427
159.793
136.922
83.0303
163.799
139.995
142.996
-30.2152
186.585
47.6998
21.1009
-4.83331
-16.7169
-51.7078
53.2385
15.4523
4.56719
-0.144858
-49.4208
-15.4297
48.7593
15.7439
0.492183
-2.6225
-44.2309
-10.0949
44.0314
9.57964
3.33726
-5.28638
-38.2266
-5.3515
38.0314
5.15191
5.68116
-1.82632
-32.7602
-4.8582
33.3702
4.219
1.85554
0.359417
-29.9541
-4.26462
31.5482
2.66593
-0.354865
0.307913
-29.8205
-4.23928
31.8096
2.29588
-0.353547
0.440149
-30.7499
-4.67651
32.682
2.78426
-0.479998
-32.0274
1.38484
131.653
15.9251
-1.7242
-31.9173
-31.2748
-31.1801
503.073
40.3249
-2.99881
-126.296
-127.815
-119.762
-121.408
512.446
38.1969
-0.808005
519.358
31.7529
3.32972
526.628
21.8786
9.52221
7.67566
35.412
-5.32594
1288.74
1824.43
521.908
88.7861
-716.739
690.826
305.624
-1043.53
820.107
136.405
-471.622
200.392
274.498
-87.4685
206.618
179.202
186.04
-12.1779
-44.6009
220.669
37.3372
-0.834779
0.29632
-11.1696
-52.2199
53.4421
10.2217
-0.57053
3.92286
-15.8983
-52.0073
52.1379
15.5322
-3.68732
-1.71427
-10.8774
-51.0666
49.2771
12.155
2.22621
-5.38003
-10.3101
-40.8593
38.4635
11.9327
6.15331
-1.34577
-7.0023
-33.4363
32.431
7.99777
1.35556
0.200894
-2.86424
-30.4256
30.4466
3.03427
-0.391851
0.274929
-1.41919
-30.9209
31.2167
1.23185
-0.383396
0.306319
-1.51137
-31.7561
31.9686
1.31276
-0.320237
-32.3996
0.532615
-9.79641
127.897
9.03513
-0.181319
-32.0843
-31.63
-31.3731
494.566
37.4028
2.18352
-126.833
-127.353
-120.784
-120.601
499.456
31.7314
-0.310642
506.235
21.6807
1.00279
519.052
4.51153
1.57435
-7.03977
29.365
382.676
830
-442.378
381.184
66.5659
133.833
529.965
288.376
31.8548
492.766
205.602
-93.6641
116.18
347.279
112.025
118.438
102.96
104.624
-6.04624
-56.6528
127.16
58.0273
-6.30792
2.55973
-16.9429
-34.8427
38.4662
13.9209
-3.16131
5.65389
-14.1813
-43.7333
45.1631
12.9188
-5.82122
1.6844
-14.514
-47.0881
47.0275
14.437
-1.54684
-8.27326
-16.7931
-44.7848
42.68
18.885
8.2862
-1.52477
-13.275
-35.1302
32.8268
16.1827
0.920417
3.42675
-3.29781
-28.3573
28.5763
4.03942
-4.38741
0.290993
0.810914
-33.1753
34.5313
-2.0752
-0.38273
0.576302
-1.17296
-35.9415
35.9087
1.19414
-0.564736
-35.0332
0.284065
-9.73903
135.698
12.2833
-0.486402
-34.8184
-34.2134
-33.9749
503.653
40.8212
-0.416238
-131.984
-131.896
-125.018
-124.58
506.716
24.4837
-1.76991
515.232
7.0033
4.69908
527.704
-10.3266
3.90322
-19.5437
30.2149
-808.141
-298.199
-2085.96
-409.719
7.38203
-956.36
209.616
103.181
-600.325
147.138
261.276
-10.4437
75.6713
225.24
-20.6623
91.1178
67.9557
84.1694
11.9465
-51.9697
113.843
11.8863
-10.0345
1.2615
-6.76882
-36.5592
41.8033
1.73162
-1.46843
3.90819
-8.84279
-47.9791
49.6167
7.01463
-3.71768
5.3649
-13.6382
-52.0657
52.9937
13.2538
-5.90849
3.13828
-20.8232
-54.9953
55.781
19.7342
-2.83489
-4.38895
-26.9495
-58.9007
59.3128
28.2466
2.67981
6.41922
-10.4478
-56.0544
52.9269
13.5453
-6.3893
0.956966
5.14449
-45.763
43.8477
-4.41284
0.226671
-1.13628
-2.41623
-39.1546
38.0429
3.47278
1.19149
-35.3681
0.539016
-15.0452
138.426
14.1671
0.201837
-34.6865
-34.4961
-33.7382
491.451
43.6815
5.211
-131.923
-125.952
-124.968
-118.732
492.003
20.6079
3.66455
494.749
1.69201
12.3039
500.436
-18.1023
14.6806
-26.7756
34.6437
1831.48
201.835
-2060.37
1432.13
307.136
-110.182
800.462
461.474
158.036
626.336
372.16
7.71731
603.419
196.568
89.2541
143.912
-113.285
23.3972
22.2056
49.403
31.5173
56.4241
141.422
130.35
128.226
5.24156
-17.8699
145.839
-7.6984
15.2807
-1.58599
5.72708
-1.02193
-2.40289
2.50608
-124.182
135.184
14.0718
-7.00241
-7.88496
-2.53293
-7.75603
-8.47966
5.79815
-165.352
197.322
11.8515
-7.28702
-12.9069
-8.29035
-12.6559
-14.3719
2.5354
-210.008
234.166
42.8127
-5.79086
-17.6302
-14.2785
-17.435
-19.808
-28.3299
-257.741
274.517
55.2034
37.0944
-21.6896
-18.8379
-20.4086
-13.2547
-64.7907
-265.804
242.756
56.7704
79.7122
-12.6066
-11.5493
-11.2341
-3.41597
-20.048
-200.984
170.109
43.7338
30.3375
-8.08461
-3.51828
-8.13008
-4.87927
-5.71474
-143.601
135.382
32.1737
7.98681
-8.42905
-4.73074
-8.18766
461.568
84.8924
14.0492
-11.8399
-28.995
-9.44707
-26.7493
-128.322
-116.319
-120.543
-110.044
460.518
42.7298
10.2021
457.44
23.6332
3.44671
459.165
-1.97149
5.23625
464.593
-25.1868
4.07817
-35.0263
28.6757
146.957
811.678
-3012.46
442.676
721.321
-1202.37
269.247
687.177
-691.457
337.727
345.583
-160.805
367.543
210.831
67.8007
278.515
-24.4114
-13.8554
266.416
215.237
12.6125
-15.9826
-77.2509
-18.6849
-79.8402
219.037
-36.388
57.5653
10.1286
20.3013
16.1197
26.7994
232.804
139.423
-39.342
-0.600409
-53.5437
-1.07911
-58.4436
248.21
87.4896
23.4522
-18.9353
-37.7428
-20.4698
-35.7006
306.7
191.528
0.15934
-47.0631
-77.6525
-44.028
-76.4144
354.975
167.683
33.6707
-57.0505
-63.1904
-53.5928
-59.3942
402.731
155.268
-2.7693
-45.6464
-61.5447
-42.6827
-59.2491
426.883
95.607
-6.97596
-27.9556
-36.4949
-25.2582
-34.035
443.561
69.0503
-13.7182
452.516
35.2234
-17.2089
462.91
11.6146
-12.7285
466.524
-7.10047
-10.9732
472.429
-33.0461
-5.30957
-40.0606
23.3196
408.983
332.377
-1640.99
661.91
1108.95
-406.932
679.556
757.976
-34.9175
692.443
356.336
-141.976
583.117
276.351
124.777
493.945
71.2237
11.4607
484.322
204.779
117.606
385.02
66.7003
24.6056
359.281
163.88
41.6327
341.745
104.7
13.0714
381.401
151.962
-7.86689
428.404
121.618
-20.8834
472.397
111.701
-44.5541
505.272
65.5265
-58.2732
530.74
45.4137
-54.0621
549.549
16.2982
-37.426
560.34
3.92003
-30.4401
559.721
-7.92177
-19.6039
548.691
-26.1783
-10.7732
-31.8591
18.7925
-911.303
604.994
-1523
-288.634
648.449
-324.111
233.888
348.846
-170.012
348.274
204.237
35.3735
396.372
197.874
238.056
369.454
87.9016
56.3102
404.084
158.172
118.705
400.587
62.6435
29.6117
431.347
124.056
41.4255
454.271
81.4885
7.03479
500.979
100.945
12.5543
551.017
74.6655
-17.2267
594.597
65.9709
-9.84251
626.402
36.4695
-38.5556
647.645
21.654
-29.3559
659.315
6.7196
-28.7151
664.319
-0.371598
-23.0439
662.889
-8.01265
-10.4357
647.432
-14.884
3.94553
-16.2006
29.0365
-401.501
-651.285
-1490.1
193.055
650.533
-613.242
573.396
637.764
-879.549
569.884
351.185
-223.573
520.037
304.051
101.696
478.347
127.042
83.1768
508.145
116.286
108.396
508.86
56.2255
41.7532
547.25
77.8667
46.9094
572.705
53.4884
23.0354
608.184
63.0186
27.2116
637.859
46.7771
11.2278
662.545
42.7283
14.5718
676.883
22.0812
-0.445793
685.378
12.2871
3.80483
690.435
3.52934
0.377363
690.683
0.177317
4.32617
686.51
-5.25351
15.7732
666.099
1.37278
29.1125
4.70901
40.3361
-288.948
-18.1308
-4474.68
-276.339
715.817
-228.286
191.463
567.182
-498.513
267.712
271.773
142.859
407.569
187.447
243.375
434.775
90.1364
85.0832
478.807
51.9905
98.4124
497.154
34.0806
24.3477
529.566
32.5125
42.1147
555.808
25.5945
14.3173
587.783
27.4507
28.0129
616.841
18.4847
14.9685
643.597
13.8717
28.1702
662.528
5.25699
16.4876
674.91
0.30111
23.7338
682.21
-2.62841
23.6858
682.289
-0.410401
27.4058
674.648
-0.726998
33.3382
651.695
18.7795
38.7309
21.7502
40.997
59.0357
1965.35
1349.79
257.187
394.601
-256.012
474.018
481.572
60.5079
506.692
204.002
262.816
557.616
131.366
413.04
597.852
69.0949
88.5354
620.922
25.2972
52.5583
629.468
34.8715
-42.6817
628.417
33.9723
-25.8167
629.144
40.6254
-55.4138
635.88
32.1254
-41.9031
647.615
24.8621
-57.1319
664.269
8.01326
-44.7945
679.923
-3.0601
-46.9421
694.488
-18.7171
-23.9056
707.167
-22.8302
-13.5852
715.551
-15.3404
8.57762
718.144
-8.89988
28.9735
705.668
25.8426
60.4535
35.6288
65.2404
-1089.41
-3528.29
-579.577
-377.842
415.641
-302.162
613.828
25.6813
747.754
-61.9709
826.064
-23.019
847.034
-4.32361
890.389
-7.36768
914.438
31.9826
953.472
16.3832
976.135
31.9181
999.051
11.4475
1002.86
16.2375
996.211
4.35141
968.927
7.27682
941.405
-2.1984
914.383
-0.692678
885.644
1.75944
878.452
27.0313
47.7903
3275.24
-2735.57
1947.2
2052.65
-131.283
2124.07
1437.49
-63.1961
1584.69
1088.31
222.232
479.694
1064.81
43.1138
349.925
1062.44
27.8882
80.6824
1049.06
5.49546
40.4143
1037.7
-12.8739
-76.7796
1001.74
-7.34864
-70.3102
973.461
-14.5061
-98.6894
941.492
-10.1791
-73.4625
919.251
-9.20937
-77.5254
898.028
1.82131
-53.6215
878.418
10.985
-46.0184
848.302
25.1556
-32.3338
805.602
33.6648
-25.6293
750.667
32.9469
-9.6408
702.936
22.2563
-7.74684
677.707
3.75946
-7.81915
-3.53843
10.4877
254.389
-1016.06
-2225.16
1037.65
377.384
-503.625
765.522
21.0651
179.605
693.139
262.087
-302.908
681.98
100.918
28.7614
694.973
92.2644
-46.8465
728.783
29.9818
83.4459
740.134
12.2349
-11.0578
740.906
9.24068
23.4361
733.453
10.1313
-0.264349
722.727
14.395
21.5486
709.008
24.6126
11.8595
698.624
33.5088
21.8184
689.513
38.4907
11.3947
676.243
41.2705
1.72116
661.849
42.1043
-5.78253
646.548
36.703
-4.63231
630.289
28.3465
0.676605
614.478
15.4963
8.89765
7.29963
38.0904
-84.8352
325.463
-3637.6
528.635
131.192
255.822
639.685
70.8999
278.402
612.148
292.854
-22.8775
581.658
111.259
30.5554
536.515
122.081
-71.6808
570.006
0.118184
35.8214
591.576
0.392392
2.58764
627.795
-16.025
54.6943
642.237
10.3048
20.6032
650.455
20.8376
38.1943
647.255
45.0787
25.8618
639.722
52.144
21.923
628.276
56.083
8.69164
617.48
52.5295
4.77496
608.675
49.813
0.237388
600.041
42.7252
1.95176
590.047
35.3363
9.31075
578.653
27.8583
17.5076
17.6817
41.2434
-641.646
-142.105
1435.88
-51.0906
-133.883
179.771
374.399
-121.344
135.841
521.935
217.936
35.6399
529.617
104.276
80.6303
523.995
97.2028
-56.0924
543.582
-43.6558
20.1985
552.757
-21.2966
-6.63403
569.925
-40.536
29.0243
577.27
6.03339
7.58419
584.951
15.2511
19.9328
584.456
49.272
6.00607
583.73
54.724
9.0409
580.436
60.7305
4.71761
576.104
57.2297
4.07203
571.002
54.8126
1.37717
564.478
48.7752
3.20507
555.659
42.2704
8.37424
547.296
36.6011
14.1333
23.2519
39.2487
-190.711
-801.681
-1771.47
289.019
-85.5708
397.914
453.088
27.8427
39.766
490.767
266.954
45.8806
503.444
157.437
123.193
486.204
109.908
-28.2433
507.426
-46.2473
78.6591
511.394
-14.7994
15.0991
533.697
-50.2735
55.7449
543.324
2.3516
13.7897
550.484
11.045
20.9176
554.361
46.7279
2.47981
556.166
53.0396
3.59813
553.023
63.8061
-0.271205
549.595
59.1292
0.594548
545.155
57.6607
-1.66611
540.863
51.8685
0.986289
535.414
45.5667
6.99599
532.614
38.8981
11.3024
23.5704
37.5285
128.581
-945.162
-1660.72
484.649
-239.533
-332.501
707.565
26.7061
-42.5354
790.397
233.835
66.0292
748.523
215.655
211.099
691.393
199.832
94.4874
672.893
4.53119
183.85
632.391
56.1122
86.5927
591.953
6.26876
73.1497
560.275
40.7288
23.3875
539.997
29.5327
11.6237
523.998
61.7311
0.275263
519.14
55.6397
-1.83459
515.365
65.0473
-1.97586
512.725
59.7213
-1.05759
511.541
57.5812
-0.663812
512.084
51.1401
1.2919
511.62
44.5104
6.61176
514.032
35.4168
8.69522
19.5658
38.7647
1222.93
-295.044
-2321.2
602.558
-149.121
-430.037
263.794
-64.5506
-346.811
333.352
16.1371
34.5694
471.596
82.9983
119.491
401.548
267.334
94.3541
449.972
18.3463
127.526
-18.2202
17.0884
-20.1027
431.511
24.7887
68.7185
22.1307
25.2866
22.9478
442.22
16.3939
51.9179
-10.4053
15.6164
-10.4263
442.313
17.6802
27.3897
5.598
18.4616
6.46204
450.005
15.7169
14.5616
-5.52019
15.9103
-5.48629
458.068
19.2106
5.12577
4.6978
19.4633
4.88346
465.709
20.2907
2.02869
0.414559
20.0662
0.0196635
471.102
21.974
-1.82356
6.42379
21.6642
6.14343
475.766
52.354
1.46678
480.069
52.0781
-0.737308
484.818
46.3352
1.72928
488.354
39.5466
6.25589
494.645
28.3728
8.7598
14.5667
41.6361
2007.17
741.659
-1049.2
1013.84
559.628
-344.064
780.649
3.29214
-32.8927
723.452
19.4337
-95.7399
766.51
46.7754
116.807
181.471
75.1116
53.925
192.312
165.319
175.412
92.3152
75.4582
92.8083
-36.5787
168.6
41.0787
26.7171
-31.1352
-140.753
132.93
34.7387
29.0084
-21.9943
-124.952
119.477
24.0713
19.7922
-15.33
-107.841
113.815
12.7161
14.32
-2.32741
-110.074
113.048
12.4541
2.61575
2.39362
-105.141
112.297
11.0477
-1.38717
3.59223
-108.953
114.529
14.3233
-3.20024
2.89355
-109.483
115.531
15.3245
-2.29254
437.629
19.2474
-4.35552
-111.125
-111.249
-103.539
-104.037
-0.158943
18.7925
-0.540879
444.373
41.6089
-2.99282
448.732
39.2705
-4.12822
454.413
30.6924
3.66764
460.441
21.2568
8.16488
9.73528
40.9289
718.387
1864.82
-2709.51
628.221
680.87
-760.409
494.894
155.231
-663.268
396.033
83.5696
-192.702
101.956
125.813
16.4481
105.718
86.0537
89.8498
-18.7998
127.218
57.6815
10.9681
-5.61855
-17.8355
-36.7026
38.0747
17.4622
4.6198
-1.54603
-34.0577
-14.1841
33.6647
14.3727
1.75041
-4.54435
-30.9421
-9.55631
31.4241
9.05127
4.56731
-5.34744
-28.072
-5.61995
28.8767
5.19968
4.96304
-1.6221
-26.5428
-4.78124
27.6375
3.80055
1.50808
0.393097
-25.2376
-4.15499
26.903
2.47363
-0.377094
0.459597
-25.4937
-4.19261
27.3963
2.28303
-0.452678
0.471349
-26.3146
-4.44248
28.1599
2.56139
-0.435583
-27.3234
1.82591
112.391
14.3028
-1.61074
-27.3311
-26.5079
-26.499
417.102
32.0691
4.33738
-106.15
-108.659
-99.0367
-101.053
423.762
29.6671
2.13557
429.19
22.919
5.67534
436.495
14.2158
9.25771
3.29533
40.4435
704.92
715.751
3210.58
1057.66
2.49506
-391.101
708.506
285.547
-824.695
664.103
85.3405
-428.989
144.287
238.345
-97.9861
151.823
128.815
137.165
2.66661
-53.2565
161.256
40.4803
-6.85996
-0.990802
-15.1741
-39.0405
40.9525
13.3582
0.894672
2.67165
-15.6155
-40.3376
39.9262
15.62
-2.26484
-3.57839
-10.8492
-36.4108
34.881
12.1094
3.84801
-6.51106
-8.60632
-30.9456
29.9928
9.9971
6.07313
-27.4171
-0.883561
-5.38275
26.8801
6.17662
0.626737
-25.9082
0.987148
-2.13511
2.18948
-1.08186
25.9485
0.658715
-1.17863
-26.5251
26.8781
0.904668
-0.737761
0.389119
-1.26014
-27.5007
27.6627
1.11846
-0.409456
-27.9835
-0.116802
-8.21248
109.985
7.18288
0.63881
-27.6188