/*--------------------------------*- C++ -*----------------------------------*\
  =========                 |
  \\      /  F ield         | OpenFOAM: The Open Source CFD Toolbox
   \\    /   O peration     | Website:  https://openfoam.org
    \\  /    A nd           | Version:  10
     \\/     M anipulation  |
\*---------------------------------------------------------------------------*/
FoamFile
{
    format      ascii;
    class       volScalarField;
    location    "8.5";
    object      turbidity;
}
// * * * * * * * * * * * * * * * * * * * * * * * * * * * * * * * * * * * * * //

dimensions      [0 0 0 0 0 0 0];

internalField   nonuniform List<scalar> 
12920
(
-0.00694427
-0.0361032
-0.0604545
-0.0854499
-0.109579
-0.128348
-0.132961
-0.126376
-0.122086
-0.121627
-0.128163
-0.142385
-0.168446
-0.203298
-0.240086
-0.268296
-0.282835
-0.286178
-0.287265
-0.293707
-0.0263979
-0.033232
-0.0410023
-0.0537287
-0.0807419
-0.121981
-0.161344
-0.181192
-0.186092
-0.189367
-0.198905
-0.218005
-0.246941
-0.279033
-0.305325
-0.32016
-0.329812
-0.343672
-0.366077
-0.392514
-0.0144253
-0.0325541
-0.0552388
-0.0825038
-0.116825
-0.156633
-0.198311
-0.228264
-0.246455
-0.256099
-0.265898
-0.281243
-0.303079
-0.3273
-0.35046
-0.371117
-0.391446
-0.41411
-0.439089
-0.466812
-0.0123389
-0.026818
-0.0465001
-0.0771407
-0.108695
-0.14151
-0.185279
-0.231044
-0.271134
-0.299307
-0.318229
-0.332404
-0.346311
-0.361226
-0.377637
-0.395594
-0.416011
-0.439008
-0.464367
-0.491308
-0.0177376
-0.0246053
-0.044489
-0.0730227
-0.0986309
-0.126411
-0.159181
-0.201021
-0.244739
-0.282158
-0.310885
-0.332412
-0.350394
-0.366733
-0.383708
-0.401854
-0.422437
-0.445197
-0.469413
-0.492802
-0.0151786
-0.0221334
-0.036996
-0.0640048
-0.0911969
-0.121357
-0.159976
-0.206007
-0.249371
-0.28757
-0.319425
-0.344585
-0.36541
-0.384124
-0.402718
-0.421874
-0.441937
-0.462061
-0.482327
-0.502262
-0.0251544
-0.0317311
-0.0480491
-0.0717441
-0.10171
-0.134373
-0.166578
-0.198368
-0.224957
-0.252804
-0.278367
-0.306923
-0.335808
-0.366755
-0.397424
-0.425652
-0.450923
-0.472523
-0.49232
-0.510764
-0.0200094
-0.0334403
-0.0512349
-0.0732722
-0.100039
-0.127427
-0.133603
-0.141324
-0.149444
-0.157645
-0.174827
-0.185059
-0.210979
-0.239721
-0.254623
-0.303213
-0.343012
-0.376314
-0.40543
-0.428136
-0.0274381
-0.0456661
-0.0611167
-0.0788454
-0.0958666
-0.0979642
-0.105904
-0.113174
-0.110107
-0.104714
-0.120622
-0.121125
-0.12123
-0.136414
-0.153995
-0.174475
-0.224016
-0.270011
-0.310873
-0.346142
-0.0304448
-0.0372587
-0.047421
-0.0656005
-0.0869319
-0.0877744
-0.0832685
-0.076529
-0.0722057
-0.0852656
-0.103404
-0.101627
-0.0957612
-0.0918873
-0.0941472
-0.133445
-0.18859
-0.239252
-0.282584
-0.320909
-0.0201832
-0.0369205
-0.0610667
-0.0821229
-0.0988798
-0.0926223
-0.0800205
-0.0656442
-0.0591094
-0.0690138
-0.0967056
-0.0976636
-0.0943953
-0.0858019
-0.0876761
-0.127422
-0.178631
-0.228273
-0.275427
-0.321349
-0.0309562
-0.0580017
-0.0825953
-0.103509
-0.11663
-0.10421
-0.0890629
-0.0715614
-0.0603961
-0.0552543
-0.0691957
-0.0762101
-0.0884751
-0.0960287
-0.096129
-0.144388
-0.203264
-0.268297
-0.340323
-0.409929
-0.022444
-0.0492225
-0.0675167
-0.0900829
-0.116234
-0.146234
-0.146279
-0.131231
-0.105962
-0.087417
-0.0769144
-0.0799998
-0.111419
-0.129338
-0.194441
-0.267415
-0.348938
-0.430091
-0.503132
-0.56525
-0.0516037
-0.0532764
-0.0633033
-0.0861198
-0.116748
-0.162167
-0.1938
-0.229377
-0.226157
-0.225093
-0.212238
-0.234571
-0.26316
-0.307155
-0.357526
-0.414244
-0.466179
-0.511521
-0.554121
-0.599835
-0.00857722
-0.0309808
-0.0547713
-0.0773964
-0.104203
-0.139582
-0.183473
-0.231377
-0.259035
-0.274761
-0.270953
-0.276179
-0.282837
-0.295649
-0.316814
-0.343011
-0.371322
-0.402653
-0.445184
-0.49835
-0.0480596
-0.0542876
-0.0716535
-0.0919701
-0.116715
-0.159494
-0.205832
-0.250951
-0.278353
-0.295114
-0.301559
-0.302837
-0.305741
-0.307838
-0.316137
-0.329103
-0.345957
-0.368219
-0.397431
-0.433028
-0.0319226
-0.0671246
-0.0911683
-0.112698
-0.140348
-0.182195
-0.223421
-0.258819
-0.284806
-0.303171
-0.31533
-0.324541
-0.332519
-0.342039
-0.3532
-0.366985
-0.383501
-0.403811
-0.42974
-0.464676
-0.0294966
-0.0707144
-0.104703
-0.13013
-0.156396
-0.193035
-0.230934
-0.265144
-0.293896
-0.317908
-0.337432
-0.35442
-0.369652
-0.385461
-0.401989
-0.420124
-0.440602
-0.464668
-0.493149
-0.528157
-0.0286915
-0.0656413
-0.0898681
-0.113558
-0.137861
-0.162428
-0.180958
-0.190423
-0.206233
-0.223302
-0.246194
-0.267833
-0.292374
-0.316606
-0.345554
-0.373669
-0.401232
-0.428539
-0.464261
-0.50964
-0.0756648
-0.0862627
-0.100578
-0.123719
-0.142151
-0.166674
-0.188691
-0.206803
-0.222646
-0.237743
-0.252936
-0.268399
-0.283811
-0.298464
-0.310653
-0.31859
-0.323233
-0.329128
-0.346311
-0.375436
-0.0232698
-0.0376895
-0.046165
-0.0531037
-0.0572985
-0.04519
-0.0330344
-0.0258347
-0.0221424
-0.0201966
-0.0195166
-0.0199816
-0.0212365
-0.0224041
-0.0227816
-0.0222023
-0.0213797
-0.0214642
-0.024191
-0.0306682
-0.00651369
-0.00942394
-0.0124945
-0.0239689
-0.0498891
-0.0675332
-0.0738516
-0.0729212
-0.0760933
-0.0809121
-0.0870466
-0.0890039
-0.083501
-0.0682002
-0.0485878
-0.0382528
-0.0385825
-0.0489814
-0.0718156
-0.103775
-0.00853369
-0.0168086
-0.0262168
-0.0158798
-0.018318
-0.0281837
-0.0483873
-0.0665268
-0.084158
-0.0935189
-0.0968674
-0.0910756
-0.0771431
-0.0605734
-0.0493434
-0.0483642
-0.0574022
-0.0744974
-0.0991227
-0.119064
-0.00736205
-0.0122153
-0.0245497
-0.0218127
-0.0188909
-0.0198125
-0.0283632
-0.0364337
-0.0448304
-0.0499797
-0.0525466
-0.0487044
-0.0431091
-0.038114
-0.0367821
-0.0402824
-0.0491891
-0.0617372
-0.0778841
-0.0880075
-0.00484202
-0.0112807
-0.0177561
-0.0218838
-0.0296136
-0.0342798
-0.0522415
-0.0599205
-0.0616241
-0.0520032
-0.0432998
-0.0352736
-0.030562
-0.0281411
-0.0281146
-0.0302739
-0.0343133
-0.0395059
-0.0458722
-0.0494077
-0.00425021
-0.00858948
-0.0133801
-0.0165703
-0.0307507
-0.0515863
-0.0735004
-0.078941
-0.0705055
-0.0543184
-0.0394431
-0.0302857
-0.0254855
-0.023337
-0.022861
-0.0236361
-0.0252634
-0.0274152
-0.0302974
-0.035626
-0.0025357
-0.00812875
-0.0183806
-0.0304595
-0.0513374
-0.065329
-0.0716174
-0.0666089
-0.052773
-0.0376336
-0.0246964
-0.0190242
-0.0169121
-0.0166731
-0.0175305
-0.0191472
-0.0214865
-0.0248106
-0.0319066
-0.0469258
-0.00109266
-0.00589962
-0.0151912
-0.0266508
-0.0436654
-0.0554231
-0.0643496
-0.0722863
-0.0725929
-0.0577895
-0.0273478
-0.0154113
-0.0134887
-0.0137926
-0.0148037
-0.0172463
-0.0210559
-0.0272077
-0.0387072
-0.0545783
-0.00660164
-0.0111137
-0.0179747
-0.0235357
-0.0349039
-0.0416869
-0.0500652
-0.0510139
-0.0686935
-0.0769062
-0.0372733
-0.0131031
-0.0110543
-0.0116453
-0.0130207
-0.0205442
-0.0278202
-0.0368488
-0.0477642
-0.0574912
-0.0103594
-0.00957772
-0.0106809
-0.0146251
-0.0194049
-0.0220092
-0.0200326
-0.0251883
-0.0417933
-0.069571
-0.0417628
-0.0217967
-0.0145929
-0.0115633
-0.0160992
-0.0297782
-0.0365359
-0.0419136
-0.0459869
-0.0500313
-0.0161702
-0.0219421
-0.0211999
-0.0146096
-0.0174741
-0.0135582
-0.0124065
-0.0172958
-0.0312996
-0.0614451
-0.0679839
-0.072678
-0.0659743
-0.0361904
-0.0264302
-0.0367927
-0.0422491
-0.0472379
-0.0518001
-0.0560757
-0.0291351
-0.0236067
-0.0235611
-0.020427
-0.0182848
-0.0159033
-0.0181636
-0.0173894
-0.0215305
-0.0366481
-0.0589022
-0.0654309
-0.0794228
-0.0843027
-0.0565734
-0.0589438
-0.0642753
-0.0716461
-0.0773348
-0.0787792
-0.00482513
-0.0100058
-0.0156077
-0.0201484
-0.0322255
-0.0441931
-0.052115
-0.0474345
-0.0502746
-0.0500808
-0.0552364
-0.0681324
-0.0880136
-0.0921106
-0.0749954
-0.0778368
-0.0789715
-0.0786862
-0.0798616
-0.082748
-0.0177422
-0.0131018
-0.0176327
-0.0304609
-0.0557555
-0.0541753
-0.0594135
-0.0810798
-0.0706311
-0.0685564
-0.0638541
-0.0585386
-0.0540081
-0.0524943
-0.0542424
-0.0577158
-0.0638945
-0.0730112
-0.0860489
-0.098927
-0.0123985
-0.0134546
-0.0170059
-0.025086
-0.0404804
-0.0457237
-0.0669192
-0.0739069
-0.0704885
-0.0548408
-0.0459006
-0.0402009
-0.0390435
-0.0409746
-0.046081
-0.0530703
-0.062098
-0.0745568
-0.0942446
-0.116223
-0.0263513
-0.0260331
-0.0345623
-0.0390484
-0.0583018
-0.0636551
-0.077954
-0.0758913
-0.0698494
-0.0562717
-0.0458041
-0.038685
-0.0365496
-0.0375804
-0.0416968
-0.0487014
-0.0593283
-0.0756174
-0.101701
-0.130935
-0.0280529
-0.0302862
-0.0329775
-0.0542187
-0.0743094
-0.0846201
-0.0944929
-0.0940797
-0.0887295
-0.0801237
-0.0730326
-0.0677409
-0.0685248
-0.0711523
-0.0801263
-0.0928854
-0.109237
-0.12945
-0.153512
-0.168983
-0.0277459
-0.0380739
-0.0509738
-0.0666404
-0.0889581
-0.0868475
-0.084282
-0.0757269
-0.0770714
-0.0787281
-0.0860924
-0.093814
-0.106581
-0.119849
-0.136444
-0.153522
-0.168884
-0.179218
-0.183695
-0.171705
-0.0207387
-0.0387173
-0.0646884
-0.0739493
-0.072909
-0.0461347
-0.0284082
-0.0200679
-0.0187712
-0.0197871
-0.0232627
-0.0273385
-0.0334962
-0.0421615
-0.0564599
-0.0786265
-0.112477
-0.153914
-0.197113
-0.218571
-0.0175469
-0.0357762
-0.0461882
-0.0389579
-0.0306774
-0.0273754
-0.0301681
-0.0344936
-0.0400436
-0.0424234
-0.0454045
-0.0462325
-0.047226
-0.0452743
-0.0421303
-0.0394428
-0.0403019
-0.0485025
-0.0704958
-0.0998675
-0.0387328
-0.0346572
-0.0314313
-0.0294639
-0.0265501
-0.0208408
-0.0184743
-0.0177387
-0.0171158
-0.0160625
-0.014626
-0.0129775
-0.0115204
-0.0104732
-0.00992455
-0.00993019
-0.0107047
-0.0124757
-0.0154813
-0.01934
-0.00210534
-0.00417892
-0.00647247
-0.0124524
-0.0230584
-0.0282515
-0.0324148
-0.0345391
-0.0385669
-0.0399833
-0.0388627
-0.033609
-0.026626
-0.0201904
-0.0171083
-0.0180167
-0.0221584
-0.0290341
-0.038692
-0.0488491
-0.00346375
-0.00865545
-0.0096583
-0.00717084
-0.0105653
-0.0151073
-0.0225683
-0.0291012
-0.0355739
-0.0368884
-0.0349119
-0.0295977
-0.0244035
-0.0217387
-0.0226247
-0.0261797
-0.0315088
-0.0375165
-0.0437019
-0.046937
-0.00184589
-0.00329417
-0.00700101
-0.00728479
-0.0100166
-0.0121298
-0.0143112
-0.0150878
-0.0160062
-0.0165347
-0.0167619
-0.0163208
-0.0164154
-0.0174365
-0.0195095
-0.0222316
-0.0251718
-0.0277886
-0.0300675
-0.0305841
-0.00295851
-0.00713141
-0.0104281
-0.0120884
-0.0180243
-0.0213338
-0.0258214
-0.0233198
-0.0204236
-0.0167015
-0.0147433
-0.0137096
-0.0135086
-0.0139088
-0.0147477
-0.01584
-0.0169064
-0.017757
-0.0184099
-0.0186379
-0.0028926
-0.00517312
-0.0105803
-0.0177488
-0.029091
-0.0373631
-0.038723
-0.0309708
-0.0222282
-0.0157213
-0.0124379
-0.0111426
-0.0106894
-0.0107434
-0.0110673
-0.0116308
-0.012346
-0.0132404
-0.0144826
-0.0163282
-0.0011719
-0.0060952
-0.0153805
-0.0259201
-0.0369674
-0.0368893
-0.0313569
-0.0235955
-0.0161104
-0.0116264
-0.0092933
-0.00860082
-0.00852303
-0.00893517
-0.00981817
-0.011242
-0.0133316
-0.0162421
-0.0202967
-0.0254454
-0.000363556
-0.0045939
-0.00998453
-0.0156355
-0.0242925
-0.0279565
-0.030275
-0.030062
-0.0225269
-0.0135079
-0.00855364
-0.00749374
-0.0076325
-0.00818469
-0.0111314
-0.013683
-0.0166922
-0.0199389
-0.0232647
-0.0258474
-0.00591296
-0.0060531
-0.00714696
-0.00969749
-0.0150743
-0.0191019
-0.0246824
-0.0264762
-0.0317505
-0.0209407
-0.00865264
-0.00683312
-0.00729025
-0.00842439
-0.0117992
-0.0177125
-0.0204429
-0.0225193
-0.0238303
-0.0241948
-0.00381101
-0.00314233
-0.00316654
-0.00511458
-0.00779387
-0.0096681
-0.013462
-0.0186342
-0.0317755
-0.0279623
-0.0125064
-0.00939871
-0.00909273
-0.0111462
-0.0166719
-0.0203333
-0.0222573
-0.0240863
-0.0259167
-0.0278517
-0.00216897
-0.00700639
-0.0054791
-0.00544022
-0.00817427
-0.00952337
-0.0127191
-0.0182071
-0.0304306
-0.0409303
-0.0415462
-0.0494123
-0.0328757
-0.0191678
-0.0208379
-0.0243093
-0.0258815
-0.0273475
-0.02884
-0.0305889
-0.0065955
-0.00952702
-0.00795343
-0.0101105
-0.013766
-0.0174147
-0.0232614
-0.0259899
-0.0340682
-0.0451221
-0.0543316
-0.0595456
-0.0626385
-0.0425165
-0.0325064
-0.0304657
-0.0305407
-0.0309045
-0.030812
-0.0304357
-0.00965859
-0.0116248
-0.00917296
-0.0119369
-0.0199142
-0.0271259
-0.0313725
-0.0420676
-0.0506855
-0.0556035
-0.0587121
-0.0640259
-0.0568021
-0.0444855
-0.0324637
-0.0313614
-0.0302267
-0.0292922
-0.0289573
-0.0289743
-0.013623
-0.0111884
-0.0120598
-0.01938
-0.0303336
-0.0303273
-0.0350179
-0.0362637
-0.0372081
-0.0360586
-0.0357602
-0.0310076
-0.027441
-0.0264082
-0.0269559
-0.028148
-0.029888
-0.0318916
-0.0340287
-0.0350013
-0.00658534
-0.00804543
-0.0132607
-0.0172422
-0.0253658
-0.0286709
-0.0370201
-0.0323444
-0.029133
-0.0236498
-0.023031
-0.0223899
-0.0232306
-0.0251361
-0.0278554
-0.0310607
-0.0347063
-0.0388527
-0.0438081
-0.046256
-0.0226726
-0.018807
-0.0196231
-0.0243813
-0.0353916
-0.0338335
-0.036969
-0.0316066
-0.026621
-0.0222382
-0.0208814
-0.0215332
-0.0237652
-0.0270824
-0.0310961
-0.0357313
-0.0411173
-0.0476569
-0.0561775
-0.0615134
-0.00271075
-0.004535
-0.0095385
-0.0260308
-0.036513
-0.0419503
-0.0432927
-0.0392177
-0.0344112
-0.0309502
-0.0302307
-0.0321042
-0.036167
-0.0412605
-0.0469239
-0.0524881
-0.057886
-0.0630934
-0.0685582
-0.066272
-0.00414037
-0.0107508
-0.0208726
-0.0338315
-0.0450697
-0.0369688
-0.032956
-0.0289309
-0.0303609
-0.0327837
-0.0382267
-0.0446599
-0.0534543
-0.062177
-0.0708361
-0.0767907
-0.0790691
-0.0764117
-0.0704746
-0.0579811
-0.01616
-0.021631
-0.0401105
-0.0391424
-0.0299557
-0.0169187
-0.0123649
-0.0109278
-0.0113426
-0.0126972
-0.0153162
-0.0186116
-0.0234947
-0.0301799
-0.039822
-0.051508
-0.0652755
-0.0788721
-0.0911015
-0.0898795
-0.0061072
-0.0167968
-0.0264524
-0.0247499
-0.0209273
-0.0171423
-0.0142444
-0.0127289
-0.0136479
-0.0149951
-0.0169941
-0.0182137
-0.0189419
-0.0188165
-0.0191114
-0.0211165
-0.0262038
-0.0345873
-0.0467838
-0.0588315
-0.0112361
-0.0207544
-0.0142763
-0.0135799
-0.0132322
-0.0129079
-0.0130306
-0.0125096
-0.0114049
-0.00990935
-0.00849503
-0.00743424
-0.00689151
-0.00694527
-0.00753532
-0.00864002
-0.0101156
-0.0118159
-0.01366
-0.0153877
-0.00161694
-0.00298672
-0.00558173
-0.00924471
-0.0115668
-0.0124982
-0.0142027
-0.0144552
-0.0149651
-0.0139393
-0.0126802
-0.0110352
-0.0102507
-0.0104956
-0.01183
-0.0138808
-0.0164216
-0.0191889
-0.0222474
-0.0249091
-0.00282879
-0.00417853
-0.00458762
-0.00550777
-0.00764573
-0.00947767
-0.0121757
-0.0133969
-0.0144816
-0.013714
-0.0128912
-0.01209
-0.0122241
-0.0131766
-0.0147717
-0.0166035
-0.0185159
-0.0202433
-0.0217704
-0.0224243
-0.001853
-0.00299996
-0.00459155
-0.00558936
-0.007406
-0.00833281
-0.00909963
-0.00927773
-0.00938946
-0.00938209
-0.00954751
-0.00990265
-0.0106091
-0.0115419
-0.0125832
-0.0135992
-0.0145275
-0.0153084
-0.0160253
-0.0164703
-0.00182943
-0.00529731
-0.00800148
-0.00970382
-0.0128621
-0.0123166
-0.0123788
-0.0107102
-0.00972641
-0.00886155
-0.00842
-0.00833191
-0.00854934
-0.00904462
-0.00964158
-0.0102877
-0.0109085
-0.0115328
-0.0122293
-0.0129825
-0.0028732
-0.00501868
-0.0105695
-0.0156441
-0.0215163
-0.0202685
-0.0163987
-0.0116454
-0.00871959
-0.00726228
-0.00667706
-0.00665424
-0.00689633
-0.00736996
-0.00792896
-0.0085779
-0.00931023
-0.0101882
-0.011287
-0.0126119
-0.000697573
-0.00701682
-0.0125001
-0.0174198
-0.020725
-0.0165335
-0.0119959
-0.00892701
-0.00689886
-0.00606904
-0.00581006
-0.00601959
-0.00652733
-0.0072648
-0.00822215
-0.00934586
-0.0106646
-0.0121955
-0.0139927
-0.0158731
-0.00179647
-0.00315222
-0.006592
-0.00990723
-0.0133273
-0.0132367
-0.0132765
-0.0107829
-0.00758556
-0.00591263
-0.00553254
-0.00585564
-0.00644711
-0.00730114
-0.00904075
-0.0100018
-0.0109853
-0.012044
-0.0132542
-0.0144245
-0.00308126
-0.00314208
-0.00401227
-0.00647991
-0.00879952
-0.0102697
-0.0118194
-0.0109077
-0.00937927
-0.00634584
-0.00561754
-0.00631617
-0.0072826
-0.00833212
-0.00977132
-0.0105938
-0.0112407
-0.0119023
-0.0125508
-0.0131822
-0.00330134
-0.00163586
-0.00168671
-0.003679
-0.00623569
-0.00736779
-0.00863722
-0.00927869
-0.0110231
-0.00805261
-0.00754607
-0.00839496
-0.00935995
-0.0104406
-0.0120024
-0.0147196
-0.015777
-0.0166736
-0.0173018
-0.0177153
-0.00338795
-0.00282166
-0.00293878
-0.00520699
-0.00900655
-0.0107422
-0.0124148
-0.0133354
-0.0169818
-0.0220662
-0.0275315
-0.0263651
-0.0173154
-0.0149937
-0.0163923
-0.0178507
-0.018962
-0.0202295
-0.0214763
-0.0225611
-0.00959915
-0.00825538
-0.00660226
-0.0100106
-0.0145759
-0.018141
-0.0216928
-0.0269854
-0.0339523
-0.0450619
-0.057179
-0.0582009
-0.0370504
-0.0216938
-0.0182904
-0.0168742
-0.0173207
-0.0179922
-0.0186652
-0.0193753
-0.00550855
-0.00819681
-0.00648084
-0.0100874
-0.0157102
-0.0180128
-0.0210463
-0.0312845
-0.0386167
-0.0506757
-0.0556059
-0.0474228
-0.0285074
-0.0205857
-0.0159219
-0.0156679
-0.015545
-0.0155398
-0.0157286
-0.016072
-0.00365436
-0.00599248
-0.00846819
-0.0131863
-0.0168351
-0.0164544
-0.0178832
-0.0164543
-0.0207142
-0.0190281
-0.0188455
-0.0164861
-0.0150663
-0.0147369
-0.0148136
-0.0150203
-0.0152884
-0.0155648
-0.0159013
-0.0161532
-0.0200027
-0.0084505
-0.011104
-0.0139415
-0.0178944
-0.0167815
-0.018143
-0.0152709
-0.0153264
-0.0144854
-0.0147726
-0.0150254
-0.0153755
-0.0159315
-0.0163917
-0.0168619
-0.0172835
-0.0176737
-0.0181258
-0.0179176
-0.0123856
-0.0127382
-0.0135026
-0.0168925
-0.0193012
-0.0170636
-0.0168732
-0.0154251
-0.0147751
-0.015313
-0.0161245
-0.0174423
-0.0184994
-0.0194798
-0.020185
-0.0207728
-0.0214046
-0.0220914
-0.0232155
-0.0224898
-0.00206058
-0.00453041
-0.0098086
-0.0161552
-0.017286
-0.0195949
-0.0193908
-0.0188428
-0.0187272
-0.0198826
-0.0215047
-0.0233976
-0.0249186
-0.0258147
-0.026186
-0.0260413
-0.0257808
-0.0253164
-0.024984
-0.0220709
-0.00456292
-0.0103287
-0.0147179
-0.0179431
-0.0185871
-0.0156367
-0.0158225
-0.0167274
-0.0195565
-0.0227011
-0.0265975
-0.0300579
-0.033461
-0.0353505
-0.0361339
-0.0350799
-0.0331221
-0.0304092
-0.0279868
-0.0250503
-0.00593422
-0.0126439
-0.0179752
-0.015552
-0.0121553
-0.0100144
-0.0091601
-0.00922704
-0.0103108
-0.0120351
-0.0144638
-0.0173408
-0.0211095
-0.025292
-0.0298471
-0.0339257
-0.0380552
-0.0416156
-0.0446392
-0.0447997
-0.0102597
-0.0210911
-0.0175032
-0.0162712
-0.0142754
-0.01211
-0.010625
-0.00979859
-0.00991885
-0.0101907
-0.0106193
-0.0107945
-0.0114528
-0.0130342
-0.0161003
-0.0205399
-0.0260623
-0.0321935
-0.0389195
-0.0457565
-0.0104513
-0.00909215
-0.00685987
-0.00850814
-0.0108594
-0.0117328
-0.0107235
-0.00876965
-0.00698867
-0.00600615
-0.00590527
-0.0065487
-0.00770065
-0.00907087
-0.0104795
-0.011849
-0.0132114
-0.0146023
-0.016046
-0.0175209
-0.000521205
-0.00518569
-0.00766988
-0.00910083
-0.00908629
-0.00805163
-0.00733514
-0.00691288
-0.00710662
-0.00752123
-0.00825241
-0.0090513
-0.00988663
-0.0106499
-0.0113395
-0.0119692
-0.0125984
-0.0132397
-0.0139909
-0.014699
-0.00239315
-0.00499185
-0.00593248
-0.0067015
-0.00695864
-0.00718043
-0.00756006
-0.007683
-0.0081515
-0.00858249
-0.00928425
-0.0099998
-0.0107212
-0.0113117
-0.0117872
-0.0121193
-0.012362
-0.0125261
-0.0127135
-0.0128624
-0.00245818
-0.00357059
-0.00589669
-0.00646338
-0.00675088
-0.00685884
-0.00690167
-0.00709018
-0.00747605
-0.0080699
-0.00876699
-0.00946811
-0.0100845
-0.0105848
-0.0109638
-0.0112446
-0.0114633
-0.0116548
-0.0118774
-0.0121124
-0.00259675
-0.00710192
-0.00810017
-0.0077644
-0.00783782
-0.00707607
-0.00667053
-0.00645412
-0.00660253
-0.00710381
-0.00774957
-0.00848682
-0.00914923
-0.00975163
-0.0102568
-0.0106912
-0.0110672
-0.0114086
-0.0117423
-0.0120598
-0.00169354
-0.00727551
-0.00853919
-0.00885162
-0.00938241
-0.00753001
-0.00634212
-0.00569538
-0.00581695
-0.0063823
-0.00710609
-0.00790091
-0.00865083
-0.0093717
-0.0100511
-0.0107004
-0.0113245
-0.01192
-0.0124901
-0.0129988
-0.00159077
-0.00675491
-0.00761703
-0.00834593
-0.0078468
-0.00628189
-0.00529621
-0.00520736
-0.00557352
-0.00620571
-0.00696437
-0.007752
-0.00855536
-0.00935456
-0.01016
-0.0109608
-0.0117587
-0.0125369
-0.0132846
-0.0139393
-0.000653054
-0.003091
-0.00495238
-0.00612145
-0.00641059
-0.00578867
-0.00559644
-0.00519397
-0.00528557
-0.00586365
-0.00655618
-0.00726307
-0.0079806
-0.00868489
-0.0100172
-0.0106913
-0.0113575
-0.0119936
-0.0125794
-0.0130715
-0.000974747
-0.00165539
-0.00280328
-0.00439472
-0.00510393
-0.00534607
-0.00521417
-0.00507906
-0.00521068
-0.00571724
-0.00639224
-0.00696963
-0.00750688
-0.00802958
-0.00899264
-0.0103443
-0.0108214
-0.0112534
-0.0116342
-0.0119495
-0.00135867
-0.00105789
-0.00152129
-0.0037119
-0.00559619
-0.00570816
-0.00536579
-0.00510698
-0.00578789
-0.00695752
-0.00803298
-0.00877691
-0.00932446
-0.00972352
-0.0105622
-0.0114822
-0.0115548
-0.0115707
-0.0115594
-0.0116141
-0.00841119
-0.00253433
-0.00291548
-0.00579555
-0.00867663
-0.00976439
-0.00975174
-0.0091995
-0.0104209
-0.012537
-0.0135279
-0.0129493
-0.0125
-0.0130587
-0.0136497
-0.0129783
-0.0129515
-0.0128121
-0.012602
-0.0125205
-0.00396417
-0.00520872
-0.00553016
-0.00867173
-0.0105971
-0.0123933
-0.0129397
-0.0153502
-0.0184798
-0.0249923
-0.0308772
-0.0240053
-0.0144027
-0.0131211
-0.0125406
-0.0114731
-0.011513
-0.011472
-0.011371
-0.0113825
-0.00794053
-0.00621651
-0.00551639
-0.00859516
-0.0100302
-0.010555
-0.0113947
-0.0142796
-0.0162358
-0.0221774
-0.0237715
-0.0171882
-0.0122085
-0.011034
-0.00989225
-0.0098622
-0.00988354
-0.00995849
-0.0101488
-0.0104427
-0.00287897
-0.00462316
-0.00685611
-0.00875715
-0.00911925
-0.00964365
-0.0101651
-0.0100009
-0.0106887
-0.0103537
-0.0100695
-0.00969684
-0.00941257
-0.00931566
-0.00933415
-0.00941107
-0.00957587
-0.00983565
-0.0102186
-0.0106481
-0.0113741
-0.0065932
-0.00759672
-0.00884606
-0.00962545
-0.00969422
-0.00997268
-0.0099272
-0.00999906
-0.00995152
-0.00978515
-0.00967252
-0.00950796
-0.00941277
-0.00936549
-0.00943371
-0.00960985
-0.00990535
-0.01034
-0.0107691
-0.026235
-0.0102235
-0.00922389
-0.00985041
-0.00966345
-0.0101178
-0.0102358
-0.0107863
-0.0107673
-0.0109696
-0.0107889
-0.0106671
-0.0104322
-0.0102686
-0.0101264
-0.010105
-0.0102144
-0.0104319
-0.0108497
-0.0110585
-0.00706334
-0.00978039
-0.0104513
-0.0100892
-0.00992456
-0.0114326
-0.0118563
-0.0126464
-0.0128753
-0.0131145
-0.0130073
-0.0127461
-0.0123801
-0.0119363
-0.0115624
-0.0112562
-0.0110999
-0.0110792
-0.0112549
-0.0112558
-0.0100656
-0.00969741
-0.00994697
-0.00976229
-0.00918759
-0.0103116
-0.0118568
-0.013504
-0.0149666
-0.0159096
-0.0165475
-0.016645
-0.0166139
-0.0161412
-0.015649
-0.0150114
-0.014498
-0.0140445
-0.0137948
-0.0137107
-0.00877501
-0.00895085
-0.00966054
-0.00882171
-0.00723834
-0.0068813
-0.00765895
-0.00964403
-0.0121539
-0.0148824
-0.0176547
-0.0201594
-0.0222713
-0.0240806
-0.0256527
-0.0270117
-0.0283144
-0.0296078
-0.0306899
-0.0321692
-0.0186412
-0.0121557
-0.00942119
-0.00977762
-0.00852041
-0.00647753
-0.00564837
-0.00534892
-0.00616736
-0.00782377
-0.0107123
-0.0147657
-0.0192374
-0.0239704
-0.028369
-0.0327285
-0.0369037
-0.0411591
-0.0454905
-0.0503099
-0.0147692
-0.0375198
-0.0322865
-0.0104366
-0.00830991
-0.0209065
-0.0240706
-0.00979029
-0.0323304
-0.0363582
-0.00823461
-0.00860772
-0.0248749
-0.0235913
-0.0400205
-0.0443489
-0.051365
-0.0259898
-0.0304734
-0.0421731
-0.0516238
-0.0494706
-0.0538864
-0.0600727
-0.0321982
-0.0341285
-0.0546272
-0.0596171
-0.111024
-0.0895601
-0.0853631
-0.105046
-0.114947
-0.0878437
-0.0789988
-0.112478
-0.0846205
-0.0805958
-0.116535
-0.113581
-0.0769051
-0.0733791
-0.103259
-0.0788315
-0.0799599
-0.11161
-0.10837
-0.0733277
-0.0806291
-0.116406
-0.0841025
-0.100083
-0.108875
-0.103713
-0.0851331
-0.0862427
-0.12231
-0.103429
-0.104062
-0.0992868
-0.0824592
-0.0809914
-0.0657558
-0.118804
-0.102581
-0.0980288
-0.0797733
-0.0817359
-0.0635315
-0.0619789
-0.131093
-0.0969983
-0.0957878
-0.0853454
-0.0946133
-0.0614864
-0.0588107
-0.150415
-0.0958976
-0.0963562
-0.0988372
-0.110415
-0.0581803
-0.0577499
-0.0775622
-0.0793558
-0.0678089
-0.0782458
-0.0640218
-0.071205
-0.0449956
-0.0729706
-0.0651325
-0.0605509
-0.0620498
-0.062277
-0.0413554
-0.0438833
-0.0794068
-0.0603523
-0.0689274
-0.064378
-0.0778809
-0.0484857
-0.066908
-0.100928
-0.0754421
-0.0961789
-0.0833255
-0.0855244
-0.073398
-0.0855298
-0.103037
-0.0997841
-0.100479
-0.0814111
-0.0697446
-0.085814
-0.0844002
-0.0970977
-0.099399
-0.0954932
-0.0675613
-0.0626773
-0.0843224
-0.0808435
-0.0926709
-0.0938507
-0.0881939
-0.0607636
-0.0546563
-0.0773649
-0.0628325
-0.0895752
-0.086249
-0.0805801
-0.0531991
-0.0515503
-0.0586107
-0.0526983
-0.0684806
-0.0818364
-0.0719491
-0.0659486
-0.042457
-0.0659817
-0.0441742
-0.0599419
-0.0691045
-0.0615856
-0.0390806
-0.0399846
-0.0396046
-0.0324094
-0.0637587
-0.059509
-0.056015
-0.0437916
-0.0611115
-0.0321856
-0.040464
-0.0920884
-0.0566699
-0.0709809
-0.0675982
-0.0833145
-0.0465685
-0.0667383
-0.0983926
-0.0775207
-0.0815236
-0.0847022
-0.0842959
-0.0705866
-0.0728589
-0.0956482
-0.0806983
-0.0869831
-0.085082
-0.0867813
-0.0733835
-0.0803587
-0.0881503
-0.0908111
-0.0944402
-0.0852717
-0.0720183
-0.0854238
-0.0945077
-0.0793309
-0.0923726
-0.0834259
-0.0668512
-0.0570729
-0.092495
-0.0772512
-0.0751374
-0.111487
-0.104439
-0.0748157
-0.0520527
-0.111622
-0.103466
-0.062779
-0.0997499
-0.0814391
-0.0459427
-0.0340114
-0.0943907
-0.0636817
-0.055518
-0.0760855
-0.0637487
-0.0323141
-0.0358169
-0.0558296
-0.041489
-0.0638384
-0.0610692
-0.057356
-0.0404214
-0.0596913
-0.0400271
-0.0441983
-0.0765587
-0.0577112
-0.0612733
-0.0644202
-0.0692516
-0.0473705
-0.0560478
-0.0831807
-0.0623485
-0.0767916
-0.0703524
-0.0775837
-0.058669
-0.0727034
-0.0971298
-0.0868584
-0.104765
-0.0834558
-0.0985151
-0.0831091
-0.110612
-0.0869562
-0.10528
-0.0981706
-0.0984476
-0.0856517
-0.113344
-0.108743
-0.0504744
-0.0334925
-0.0293499
-0.0417857
-0.0446679
-0.0282331
-0.0295361
-0.0624156
-0.0301324
-0.037696
-0.0451452
-0.046646
-0.0304204
-0.036508
-0.079205
-0.0448744
-0.0682691
-0.0464446
-0.038474
-0.0396212
-0.0414803
-0.0494364
-0.0710504
-0.0505985
-0.032694
-0.0165393
-0.0365681
-0.0181863
-0.0154694
-0.0391762
-0.0187691
-0.0134036
-0.00937344
-0.0144442
-0.00979666
-0.0110606
-0.0162519
-0.0126823
-0.00903393
-0.00910329
-0.00928762
-0.00884612
-0.0114297
-0.0119794
-0.0109178
-0.00933319
-0.0101199
-0.00895156
-0.00997532
-0.0123752
-0.0109083
-0.0117827
-0.010483
-0.0117375
-0.0105412
-0.0128657
-0.0233961
-0.0157296
-0.0172991
-0.0194631
-0.0242492
-0.0153699
-0.0179025
-0.0342478
-0.019078
-0.0288627
-0.0258264
-0.0339386
-0.0197844
-0.0298967
-0.0666291
-0.0352701
-0.0597395
-0.0377967
-0.0415073
-0.034554
-0.0449384
-0.0513492
-0.0656014
-0.0658878
-0.037241
-0.0205771
-0.0452218
-0.038739
-0.0244208
-0.063062
-0.0629738
-0.0170418
-0.0120711
-0.0377564
-0.0399301
-0.016149
-0.0636488
-0.0559966
-0.0112717
-0.00990339
-0.0395866
-0.0305932
-0.011806
-0.0497286
-0.0295512
-0.00979082
-0.0106336
-0.0262404
-0.0175958
-0.0125347
-0.0248414
-0.0192038
-0.0112737
-0.0141054
-0.0166999
-0.0180532
-0.0155615
-0.0111841
-0.0127392
-0.0130842
-0.0170705
-0.0131714
-0.0170469
-0.0260175
-0.0137018
-0.01878
-0.0190594
-0.0286961
-0.0189288
-0.0268406
-0.0545392
-0.0214897
-0.0348541
-0.0331761
-0.0451653
-0.0301844
-0.0413195
-0.0693013
-0.0418049
-0.0611663
-0.0470568
-0.0459253
-0.0448277
-0.0523645
-0.0706792
-0.0635876
-0.0668696
-0.0459368
-0.0523286
-0.0542969
-0.0601883
-0.0708239
-0.0682521
-0.0763467
-0.0532465
-0.0446054
-0.0617206
-0.0661279
-0.0431068
-0.0805371
-0.0811528
-0.0387301
-0.0238476
-0.0653983
-0.0504618
-0.0248486
-0.0752435
-0.0530388
-0.0213473
-0.0200547
-0.0442899
-0.0332634
-0.0174334
-0.0425605
-0.0440031
-0.0211553
-0.0223056
-0.0357652
-0.0371971
-0.0196666
-0.0406823
-0.0328307
-0.0231081
-0.0286223
-0.0367152
-0.0382969
-0.0314173
-0.0314505
-0.0314476
-0.0314176
-0.0409371
-0.0395008
-0.044043
-0.0551852
-0.032606
-0.0392107
-0.0440656
-0.0517151
-0.0454878
-0.0482312
-0.0638873
-0.0423507
-0.0512617
-0.0537884
-0.0584798
-0.0487872
-0.050547
-0.0739813
-0.054462
-0.0701147
-0.0596773
-0.0660927
-0.0520514
-0.0647729
-0.0878821
-0.0796609
-0.100859
-0.0672846
-0.056964
-0.0687497
-0.064447
-0.0640221
-0.101213
-0.0920314
-0.0510657
-0.0389939
-0.0604348
-0.0527453
-0.0256995
-0.0178573
-0.0189368
-0.0215836
-0.0203114
-0.0168067
-0.0168537
-0.0314308
-0.0201008
-0.0289866
-0.0191315
-0.0157914
-0.0164777
-0.0160094
-0.0254126
-0.0328232
-0.0319689
-0.0143411
-0.00973874
-0.0156535
-0.0112318
-0.0104087
-0.0268783
-0.0126082
-0.00845637
-0.00666182
-0.00950478
-0.00717746
-0.00688955
-0.0102605
-0.00789821
-0.00653131
-0.00666487
-0.00708565
-0.00756012
-0.0071042
-0.00774195
-0.00796407
-0.00683599
-0.00756575
-0.00784349
-0.00892994
-0.00807357
-0.00823874
-0.0096537
-0.00785427
-0.00892336
-0.00934851
-0.0107379
-0.00974729
-0.0103039
-0.0127077
-0.0093391
-0.0107698
-0.011223
-0.0127062
-0.0172349
-0.0120847
-0.015888
-0.0133954
-0.0152729
-0.0118954
-0.0138353
-0.0276425
-0.0175503
-0.026312
-0.0152688
-0.0156953
-0.0144762
-0.0174463
-0.0324814
-0.0305376
-0.0386153
-0.0156577
-0.0120213
-0.0185428
-0.0199202
-0.0191019
-0.0227879
-0.0303124
-0.0199596
-0.0259258
-0.0161869
-0.0223336
-0.0131524
-0.0111477
-0.0169704
-0.0101716
-0.0157238
-0.00955065
-0.0137988
-0.00895494
-0.0353746
-0.0264875
-0.00882658
-0.00974333
-0.0218811
-0.0169581
-0.010436
-0.0227638
-0.0162073
-0.0101214
-0.0114189
-0.0159806
-0.0150264
-0.0138684
-0.0156913
-0.0169498
-0.0118789
-0.0132824
-0.0150925
-0.015758
-0.0165035
-0.0155481
-0.0198808
-0.0130998
-0.0152718
-0.0180166
-0.023233
-0.0264847
-0.0216877
-0.0290165
-0.0160855
-0.0195548
-0.0250549
-0.0304185
-0.0404716
-0.031997
-0.0414947
-0.020947
-0.0245311
-0.0322884
-0.0393052
-0.0405933
-0.0407995
-0.0433003
-0.0352007
-0.0445161
-0.03689
-0.0390229
-0.0518991
-0.0442169
-0.0484912
-0.0443251
-0.0518504
-0.0471908
-0.0484165
-0.0384829
-0.0612858
-0.0626658
-0.032529
-0.0230085
-0.0591301
-0.0470391
-0.020838
-0.0599081
-0.0424226
-0.0204185
-0.0169249
-0.0403454
-0.0259021
-0.018654
-0.0370815
-0.0291013
-0.0166617
-0.0168992
-0.0237164
-0.0213064
-0.0251646
-0.0291096
-0.0332587
-0.0254387
-0.0279097
-0.028793
-0.0328294
-0.0314474
-0.0347832
-0.0403177
-0.028885
-0.033778
-0.0345512
-0.0417579
-0.0425014
-0.0422064
-0.0476455
-0.0358404
-0.0434633
-0.0442601
-0.052124
-0.0521069
-0.0491562
-0.0514481
-0.0464596
-0.05525
-0.0546486
-0.0579583
-0.0586538
-0.0515948
-0.0517848
-0.0575001
-0.0599253
-0.0575672
-0.0562253
-0.0635882
-0.0529246
-0.0630462