/*--------------------------------*- C++ -*----------------------------------*\
  =========                 |
  \\      /  F ield         | OpenFOAM: The Open Source CFD Toolbox
   \\    /   O peration     | Website:  https://openfoam.org
    \\  /    A nd           | Version:  10
     \\/     M anipulation  |
\*---------------------------------------------------------------------------*/
FoamFile
{
    format      ascii;
    class       volVectorField;
    location    "8.5";
    object      U;
}
// * * * * * * * * * * * * * * * * * * * * * * * * * * * * * * * * * * * * * //

dimensions      [0 1 -1 0 0 0 0];

internalField   nonuniform List<vector> 
12920
(
(544.953 276.044 -206.774)
(204.989 104.218 -26.9819)
(229.73 -32.7352 4.30765)
(118.064 -31.5465 4.27981)
(160.819 -34.2988 11.7108)
(101.948 -18.718 5.74779)
(124.27 -11.3602 3.02283)
(109.276 0.585644 -2.26688)
(121.393 5.76643 -3.89385)
(118.648 9.00717 -5.13652)
(123.099 10.6478 -5.03129)
(120.96 11.1572 -4.84641)
(121.588 10.5034 -3.78179)
(119.238 8.99234 -2.67904)
(118.499 5.53823 -1.01976)
(115.896 3.61227 -0.526415)
(114.828 3.29587 -0.761816)
(113.623 3.90258 -1.34497)
(114.404 4.82669 -2.01641)
(123.312 5.26763 -1.82192)
(261.343 205.397 -55.9384)
(75.493 125.756 -5.49082)
(186.303 23.7445 -14.2243)
(135.65 23.1058 -19.0291)
(185.004 6.44969 -2.73204)
(125.231 3.88841 3.22897)
(122.204 7.79271 6.52725)
(99.4821 9.19657 2.82576)
(110.003 12.7004 1.87311)
(107.372 14.289 1.21662)
(111.52 14.3671 1.40497)
(108.127 13.1294 1.54203)
(106.511 8.7007 2.2305)
(99.5659 5.1658 1.97556)
(97.0126 3.50961 0.627296)
(94.8633 4.06442 -0.286146)
(94.7682 4.84617 -0.927135)
(95.2577 5.59393 -1.05666)
(97.4745 4.91507 -0.423376)
(105.785 3.90437 0.492107)
(143.584 241.048 15.3457)
(49.5235 56.2284 20.2324)
(138.721 -24.8233 23.0783)
(39.8406 3.06144 1.4471)
(107.007 -2.27793 0.486843)
(54.466 1.91963 -1.59511)
(86.2382 -7.1019 0.990357)
(70.4281 -8.19721 1.05147)
(88.3637 -8.44814 1.95923)
(86.2945 -2.73684 1.56542)
(96.5034 2.14147 1.75462)
(95.0155 5.80458 1.82054)
(96.2946 8.03434 1.28623)
(93.3572 8.68123 0.705833)
(92.4447 8.14518 0.184036)
(90.7213 7.45098 -0.037884)
(90.5475 7.03131 -0.11692)
(89.8814 5.99324 -0.0248279)
(90.6214 5.18463 0.29647)
(96.3394 4.46124 0.616649)
(110.239 157.546 88.1926)
(68.0238 4.02965 13.7471)
(146.002 -35.037 33.2278)
(53.3427 10.9688 11.68)
(95.8928 12.5745 5.58555)
(55.6604 13.4866 -1.27373)
(81.4617 -2.4451 -1.06925)
(66.1235 -6.31783 -0.864841)
(77.7814 -9.20917 0.199895)
(73.0063 -5.90344 0.469664)
(79.6248 -3.21339 0.857623)
(78.9842 2.4246 0.461774)
(82.9174 4.51393 0.301111)
(83.1542 5.61399 0.200468)
(84.8632 5.92396 0.122551)
(84.7375 6.0613 0.0421876)
(84.781 5.94552 0.0468525)
(83.9043 5.68414 0.0439345)
(83.9591 5.61673 0.253992)
(89.9757 4.84409 0.521174)
(320.521 -34.7135 -54.4225)
(109.535 -35.0222 20.7466)
(182.094 -55.9351 8.30797)
(91.6523 -15.7597 4.24312)
(120.615 2.24888 6.44059)
(84.4696 15.8703 1.53741)
(102.842 -2.01819 2.21962)
(81.9311 -5.29913 0.883582)
(86.7271 -14.0227 1.54983)
(78.5593 -9.54692 0.633751)
(82.6023 -7.40367 0.504745)
(80.1796 -1.48038 0.0883599)
(84.0461 1.79187 -0.0096336)
(83.0229 4.9085 -0.0272885)
(84.2642 5.93677 -0.0516988)
(83.7639 6.73975 -0.104777)
(83.517 6.79836 -0.0576905)
(82.1623 6.45541 0.0115526)
(81.8203 6.42572 0.16336)
(88.5207 5.48807 0.390455)
(193.492 -270.815 68.0823)
(152.845 -162.389 21.0771)
(209.833 -60.1468 14.4427)
(123.594 -6.09335 -1.69467)
(151.381 1.75935 -1.26073)
(121.346 7.80869 0.724554)
(122.866 -2.69368 3.90728)
(98.2277 -3.76392 2.94966)
(91.2887 -10.3484 2.16972)
(78.1854 -7.97271 0.939429)
(77.5261 -5.55194 0.15335)
(74.0093 -0.552637 -0.0607918)
(75.8125 1.80038 -0.189749)
(76.1001 5.18752 -0.203892)
(77.5292 6.06572 -0.182469)
(77.8564 7.09171 -0.114337)
(78.1056 7.38707 -0.00551527)
(77.504 7.33839 0.0718238)
(77.7128 7.12446 0.103603)
(85.8457 5.84701 0.374436)
(106.627 -222.333 -75.4002)
(-39.349 -99.8777 -23.2687)
(111.916 -11.4429 -23.0294)
(72.757 6.45707 -10.9623)
(122.108 13.4283 -2.64025)
(86.2105 20.404 -0.162018)
(97.8041 -0.81989 3.60693)
(77.9287 3.53003 2.35966)
(79.2801 -7.83571 1.4836)
(69.4513 -3.3295 0.57178)
(70.6967 -4.79679 -0.0762187)
(68.0723 0.18645 -0.259655)
(70.9767 0.92286 -0.37425)
(70.5466 3.82247 -0.294874)
(72.7166 4.91264 -0.160356)
(73.3701 6.12065 -0.113931)
(73.955 6.26304 0.0147288)
(73.8264 6.27759 0.0531631)
(74.3208 6.21674 0.101328)
(83.1757 4.95532 0.48782)
(265.583 -114.144 -210.972)
(88.3001 -47.0894 -41.8225)
(178.242 -12.0148 -13.7306)
(127.349 0.444 -9.90825)
(157.733 -6.68167 -1.14522)
(128.525 8.76462 1.0421)
(131.573 -2.30622 0.402217)
(101.369 -9.40898 -0.225979)
(84.771 -4.9753 0.789212)
(65.9709 -7.56487 1.38982)
(60.9074 -2.3598 0.432663)
(58.3708 -1.66254 0.112955)
(61.0768 2.17992 -0.00316742)
(62.5926 3.62174 -0.0242803)
(62.616 4.47419 -0.292661)
(64.9359 5.48387 -0.229706)
(65.6779 5.89871 -0.228609)
(66.7084 6.29279 -0.163314)
(68.0975 5.63995 0.0195026)
(77.104 3.71383 0.499899)
(28.3169 108.393 -155.729)
(-34.2692 78.667 -30.4709)
(117.386 31.6628 -12.9593)
(93.5396 28.3441 -4.99267)
(122.381 15.9029 5.73448)
(74.3431 13.1052 1.8439)
(92.1328 14.6442 1.60459)
(97.5121 9.25263 0.0944216)
(96.6773 5.67379 0.174677)
(83.7689 -2.44816 0.593704)
(66.2843 0.772984 0.327068)
(59.1423 0.635145 0.0122726)
(58.5532 0.406519 0.0901963)
(59.8364 2.22032 0.0221226)
(59.8132 4.53121 0.205106)
(58.8755 3.69892 -0.0789082)
(60.302 4.27778 -0.080354)
(61.0847 3.90279 -0.0144841)
(62.0513 3.60961 0.175919)
(70.6586 2.31388 0.553905)
(-52.3107 5.00094 24.9008)
(-86.3359 -31.9238 -25.2969)
(109.667 -3.94204 -22.5684)
(99.4299 -0.883682 -10.3785)
(138.574 2.99179 1.33628)
(92.6526 6.1398 -1.71148)
(88.8176 -2.24998 -0.244514)
(97.2416 9.21044 -1.02156)
(106.524 7.43838 0.188069)
(76.4145 14.6911 0.212444)
(66.3618 12.045 0.178954)
(60.8986 4.79034 0.0640151)
(59.9983 0.722847 0.04048)
(60.3123 1.11657 -0.0350345)
(59.8603 2.92275 0.0550401)
(57.7182 3.09334 -0.0332086)
(57.8531 3.15352 -0.0391954)
(57.9785 3.51949 -0.0767343)
(58.643 2.95747 -0.127994)
(69.5365 0.971438 0.315979)
(177.069 76.8367 95.4176)
(78.6608 24.8446 -2.53991)
(139.033 55.3139 3.32809)
(71.442 36.7746 -2.31212)
(100.49 50.7327 4.38525)
(50.5556 22.1656 1.0482)
(65.4303 20.005 -0.188605)
(85.4867 11.3465 -1.12383)
(95.9475 9.95289 -0.440908)
(84.6027 21.5024 1.63683)
(55.5267 21.1427 0.44054)
(46.714 1.10483 -0.0370148)
(59.6078 -5.18812 0.00100485)
(65.0488 0.992756 -0.0953806)
(63.2696 3.70732 -0.057064)
(59.3588 3.49921 -0.258534)
(59.1641 3.18884 -0.183714)
(59.6275 2.48143 -0.0806049)
(60.8711 0.442056 -0.0266339)
(71.9738 -1.60757 0.397432)
(23.836 -183.003 117.673)
(-118.243 -38.6588 2.65586)
(99.7904 -2.57721 4.69733)
(-8.7682 8.06967 -0.383845)
(75.9627 23.3404 1.47817)
(40.5726 19.5109 -3.04409)
(74.4294 12.1425 -1.42397)
(96.9412 11.2699 -1.28468)
(107.411 14.6548 -0.826071)
(115.279 18.8339 -1.10441)
(100.649 43.3263 1.22853)
(97.9437 25.3412 -0.831387)
(74.8031 -13.7483 -0.867145)
(71.6782 2.08536 0.224074)
(64.7343 8.04348 -0.0741286)
(59.6393 5.46796 -0.136579)
(59.7894 2.88049 -0.0280476)
(59.4562 1.14665 0.224495)
(59.9273 -1.65849 0.405304)
(68.4103 -3.15467 0.607886)
(219.721 104.46 62.4437)
(82.9819 32.391 -4.67608)
(152.884 25.2081 -16.132)
(65.8869 31.2672 -6.04244)
(105.998 23.359 -0.53601)
(68.3151 -17.6863 -0.0615963)
(91.2646 -7.32612 0.110605)
(76.7952 -1.97928 -0.558362)
(97.946 13.221 -0.641882)
(110.178 20.2363 -0.0977321)
(129.324 29.2359 1.56227)
(123.343 22.939 4.10039)
(84.175 14.2439 0.243088)
(66.9034 12.3438 0.0692341)
(57.3518 9.40117 0.30409)
(57.816 4.7364 0.296332)
(56.6319 2.48883 0.14333)
(56.1293 -0.335602 0.133975)
(56.5471 -2.81213 0.0849119)
(65.1157 -4.29407 0.401848)
(16.7903 172.955 -121.294)
(-103.654 57.9955 -4.86897)
(115.851 48.5678 -18.5877)
(45.5119 35.6959 -3.8561)
(99.7643 20.2218 3.39005)
(43.777 -4.97094 -0.277144)
(69.0057 17.7917 1.03839)
(40.0673 -14.5499 1.40848)
(53.6672 8.0074 1.00513)
(36.6174 3.30103 0.525424)
(48.4421 23.3925 0.365403)
(42.6812 19.0412 0.269429)
(52.1821 19.3731 -0.41136)
(50.7449 11.2121 -0.437138)
(56.6163 9.05959 -0.412623)
(55.6328 4.43307 -0.514658)
(58.8548 2.22344 -0.476539)
(58.1164 -0.368163 -0.44049)
(60.0016 -3.38998 -0.306082)
(67.9986 -4.84215 0.214294)
(360.216 -162.747 85.9502)
(99.9309 25.7775 18.1756)
(156.717 71.1267 2.27104)
(95.3659 43.9036 -4.44007)
(129.093 34.4371 1.48)
(80.0079 6.86494 0.582299)
(94.6496 10.4248 2.6935)
(62.6251 2.26077 1.09381)
(62.5332 10.3433 1.35305)
(46.3022 10.8918 0.473073)
(51.0079 16.83 -0.235005)
(50.1946 18.2218 -0.671902)
(56.8685 17.0153 -1.51532)
(60.5312 11.5528 -1.89458)
(68.3342 7.88709 -1.82563)
(70.9471 4.30096 -1.29283)
(74.5984 1.61839 -0.930968)
(73.8279 -0.075825 -0.759536)
(75.0209 -3.0415 -0.690918)
(80.46 -4.01639 -0.0735331)
(-33.4294 173.718 -82.0887)
(-68.8418 122.289 -10.1047)
(111.843 77.9373 -4.20659)
(54.2578 47.0918 -1.75027)
(112.392 30.5237 5.61843)
(59.3405 14.2152 1.44691)
(83.0431 21.5733 3.18474)
(51.6256 8.13837 0.639513)
(67.169 19.5995 0.924962)
(54.7696 13.4907 0.207864)
(64.9562 19.2078 0.207587)
(64.4911 15.1306 -0.403546)
(74.0353 15.8784 -0.444717)
(76.2563 9.53341 -1.21579)
(84.596 8.21674 -1.18879)
(86.1746 4.90948 -0.949877)
(89.9874 3.84637 -0.809225)
(89.4858 3.2437 -0.504006)
(90.9957 1.75124 -0.133238)
(96.0757 0.326962 0.333786)
(128.248 -97.8114 -34.8434)
(30.1292 -86.9704 27.7715)
(158.397 -13.5355 15.6612)
(95.8726 10.834 4.59454)
(120.842 20.3701 7.85157)
(63.8639 12.7395 3.13527)
(86.1365 13.132 3.02853)
(60.2454 6.84155 1.1807)
(75.8244 8.31955 1.17859)
(68.7925 6.87146 0.715709)
(78.181 7.91797 0.822689)
(77.9887 7.605 0.489624)
(84.1874 7.96338 0.624737)
(85.1741 5.60452 0.0133036)
(89.4618 4.644 0.123473)
(89.9809 3.16713 0.100128)
(91.7462 2.10623 0.19395)
(90.7241 1.26313 0.456356)
(91.4268 0.302651 0.782918)
(95.9117 0.0590561 0.850159)
(120.349 -164.25 29.0875)
(-49.3564 74.1483 -1.39277)
(127.347 98.0786 7.18642)
(38.1539 61.5416 6.19123)
(100.55 44.6664 9.84284)
(44.8888 19.6995 2.94245)
(80.1512 12.4157 2.42344)
(54.0386 3.69111 0.677071)
(74.1049 4.61805 0.804439)
(64.3172 2.38487 0.430557)
(75.4712 4.76285 0.766024)
(73.2599 3.8947 0.582298)
(79.922 4.76753 0.89477)
(80.0973 2.96788 0.680001)
(83.8021 2.62828 0.809511)
(84.1345 1.32317 0.88426)
(85.4386 1.11314 0.954725)
(84.0897 0.624647 1.01922)
(84.5042 1.50181 1.02665)
(89.1831 2.45704 0.818928)
(63.6463 -49.9086 -53.9458)
(79.2992 -35.0839 -17.0821)
(169.58 -43.8167 3.91468)
(111.111 -30.1234 5.80635)
(124.907 -9.25105 12.5916)
(70.8473 2.71205 3.8738)
(93.9882 1.1369 1.30455)
(72.7894 0.849444 -1.14098)
(85.8163 -2.85884 -0.999567)
(74.533 -2.39723 -1.22828)
(80.4206 -3.60723 -0.958)
(75.6602 -2.89679 -1.11921)
(79.8821 -3.33431 -1.03641)
(79.4541 -3.51967 -1.26054)
(83.0049 -3.80624 -1.08901)
(84.9347 -4.33645 -0.906265)
(88.7364 -3.96386 -0.0257266)
(88.4001 -3.83578 0.692242)
(89.2199 -1.28413 1.78006)
(93.3843 1.36449 1.98357)
(194.162 142.98 -161.344)
(-27.1382 24.7926 -28.1441)
(140.377 52.4966 11.6981)
(25.1459 26.4722 0.70457)
(99.3526 18.1415 -1.46872)
(64.8655 9.5905 0.631912)
(99.9911 10.5962 0.649766)
(88.8872 11.6764 0.709538)
(104.567 13.1367 0.897062)
(100.489 12.9799 0.574034)
(108.315 12.1829 0.650357)
(107.489 10.6218 0.303404)
(112.101 8.72558 0.351577)
(111.573 6.90293 -0.00445559)
(114.294 3.03493 -0.0939741)
(111.525 -1.1714 -0.243812)
(109.235 -3.44354 -0.557553)
(106.232 -4.31893 -0.95238)
(104.971 -3.43987 -1.02838)
(114.107 -1.55451 -0.465084)
(278.988 -69.8019 192.635)
(66.1711 -31.239 35.6878)
(198.49 -46.0467 36.4571)
(51.6274 -11.6862 14.9551)
(132.714 -19.0668 16.6055)
(79.3829 -11.4153 4.28869)
(112.616 -10.5681 0.825197)
(99.0551 -7.47878 -4.48108)
(109.544 -4.98375 -5.26248)
(104.06 -3.61717 -6.24634)
(105.863 -2.33921 -5.2078)
(101.977 -1.82282 -4.73314)
(101.815 -1.04744 -3.00321)
(99.0649 -0.244128 -1.96054)
(99.1893 1.49333 -1.14032)
(97.478 3.00933 -1.17135)
(95.0185 4.86644 -1.64449)
(88.5518 4.77077 -1.99507)
(85.3903 2.14388 -1.74259)
(90.0581 0.354527 -0.969125)
(153.792 -234.378 -8.51899)
(56.1502 31.0348 47.5903)
(151.746 17.7495 -1.30669)
(48.9481 33.2864 -8.98806)
(113.131 12.3009 7.45846)
(62.7325 8.53701 4.34292)
(92.3302 6.92017 7.155)
(77.3666 3.68056 2.11931)
(90.1225 4.75631 2.13686)
(85.1759 3.82928 1.38558)
(88.8098 3.71872 2.08503)
(85.0928 2.52936 2.02237)
(84.703 2.1359 2.3166)
(81.9969 1.93379 1.74343)
(81.3736 2.6952 0.302515)
(79.2426 3.63659 -0.524977)
(78.5911 4.08937 -0.867329)
(77.0411 3.91472 -0.643382)
(77.0578 2.56251 0.0794832)
(83.2485 1.29637 1.17651)
(102.656 33.108 -127.032)
(-21.9739 -41.1655 17.6465)
(127.689 -32.4691 19.698)
(28.798 -2.00538 -0.69011)
(98.5023 -7.77747 0.077302)
(41.5013 0.552093 -3.541)
(76.1545 -6.52523 1.26689)
(58.1599 -6.19967 0.832653)
(76.3543 -6.27451 2.76578)
(72.4907 -2.43351 1.76796)
(79.9405 0.508902 2.22086)
(77.3833 3.48412 1.94884)
(78.6934 5.57951 1.4496)
(76.0568 6.32527 0.660396)
(75.5734 6.13269 0.178938)
(73.9387 5.86992 -0.0559818)
(73.5879 5.26063 -0.0637539)
(72.1758 4.36419 0.244959)
(72.3752 3.33591 0.763136)
(78.202 2.38251 1.35053)
(123.838 -34.3145 32.0772)
(-124.88 -13.8586 11.5308)
(112.696 -18.2524 19.819)
(27.9514 26.7627 3.79361)
(88.689 16.6784 2.38192)
(45.3269 14.3368 -3.90279)
(71.7945 -1.20793 -1.03373)
(55.4922 -3.77729 -1.12275)
(68.2238 -5.88748 0.575773)
(63.0431 -2.54618 0.49216)
(69.2809 -0.0268587 1.05041)
(67.5813 3.32733 0.401999)
(69.959 4.70897 0.399887)
(69.2202 5.40097 0.254258)
(70.0601 5.44612 0.191686)
(69.4953 5.44381 0.0560393)
(69.3031 5.09686 0.14869)
(67.9589 4.68372 0.29173)
(67.8321 4.31357 0.659106)
(74.104 3.23692 1.23098)
(62.8833 -140.085 -170.886)
(3.83508 -59.473 47.848)
(131.958 -47.3334 19.9371)
(49.9786 4.03869 7.36924)
(96.9298 6.87292 7.88746)
(54.155 9.10897 -0.80691)
(78.8996 -10.1802 3.47417)
(58.476 -8.54531 1.0228)
(69.3705 -12.5924 2.61207)
(62.5048 -5.77834 0.802644)
(68.0122 -3.26509 0.828504)
(65.5519 1.81222 0.104887)
(68.3775 3.57563 0.0481732)
(67.1463 5.54881 -0.0492508)
(68.024 5.83182 -0.0564718)
(67.3604 6.10929 -0.124296)
(67.1555 5.81536 0.00767683)
(65.7732 5.2908 0.232313)
(65.7261 4.96079 0.510575)
(72.7445 3.67574 1.10267)
(139.929 -311.513 -74.8568)
(36.8661 -128.273 -3.98103)
(175.458 -24.9314 11.3057)
(103.916 24.9503 5.28286)
(126.821 27.9866 7.11112)
(88.2816 21.2085 4.86068)
(96.4189 1.1138 8.05852)
(77.3752 -2.53547 4.83721)
(75.5026 -6.98628 3.53204)
(66.064 -3.90375 1.31614)
(65.9081 -1.62449 0.256551)
(62.482 2.05933 -0.150319)
(63.451 3.4652 -0.249201)
(62.872 5.45407 -0.24387)
(63.5301 5.68729 -0.169937)
(63.3328 6.03906 -0.0966676)
(63.3767 5.91339 0.0846928)
(62.6933 5.5942 0.281369)
(62.981 5.08799 0.40559)
(70.9332 3.56671 1.14726)
(149.238 -57.4086 -168.018)
(-14.5357 -57.4768 -43.6747)
(91.9192 -0.571185 -33.0195)
(21.2619 18.1988 -5.7818)
(89.5357 22.2193 4.50703)
(48.1635 22.7167 3.1798)
(72.8275 -3.30702 6.98234)
(54.8458 5.51821 3.57436)
(61.1524 -4.47482 2.54793)
(53.775 1.61999 1.14552)
(57.1499 -0.529958 0.272928)
(55.415 3.65248 -0.157191)
(58.1896 3.17076 -0.313469)
(57.7901 5.02218 -0.258902)
(59.3512 5.09459 -0.121382)
(59.7193 5.62631 -0.0994989)
(60.2231 5.30156 0.120512)
(59.9478 4.95731 0.272455)
(60.4966 4.32737 0.445264)
(69.0529 2.78625 1.34789)
(265.361 16.0474 -151.107)
(41.6573 -35.0475 -22.3874)
(142.274 -23.1581 -7.83682)
(67.6405 -12.8726 -4.27713)
(113.52 -11.5419 5.72817)
(85.5431 14.4182 3.32333)
(99.7839 2.4743 5.56211)
(74.9089 -3.20721 4.4688)
(65.5898 -0.705548 3.22453)
(55.0858 -4.07166 2.43217)
(54.2336 -1.21153 0.262736)
(52.6623 -0.368538 -0.491182)
(54.499 2.33158 -0.597385)
(54.8851 3.49389 -0.510916)
(53.5471 4.01305 -0.651807)
(55.2728 4.25113 -0.343226)
(55.556 4.5038 -0.243707)
(55.7242 4.32961 0.0404455)
(56.5092 3.35423 0.418713)
(64.8293 1.90177 1.37974)
(189.105 16.2853 -76.2974)
(8.35327 67.2356 -39.4981)
(102.282 13.8349 -24.8176)
(35.3807 11.6449 -7.98731)
(79.6698 8.16268 5.68035)
(59.8415 14.1943 3.98783)
(84.3872 16.4796 2.85503)
(77.8302 16.3432 0.276819)
(70.6519 7.98164 2.00026)
(61.5312 1.49611 3.53993)
(54.4003 1.44037 1.35389)
(51.2053 0.337411 -0.156114)
(51.5262 0.704932 -0.170999)
(53.0908 1.90427 -0.301114)
(52.7084 4.0268 -0.108959)
(51.5829 2.79773 -0.335946)
(52.6343 3.164 -0.0801955)
(52.5128 2.61555 0.211439)
(53.1899 2.15761 0.527847)
(61.5187 1.09236 1.40055)
(39.6867 144.944 -29.409)
(-30.125 -10.2166 -33.1794)
(97.2943 -2.49485 -38.1366)
(56.7711 -7.36087 -16.4012)
(92.232 -0.732917 -1.23628)
(80.5021 8.75671 0.516248)
(85.172 8.69657 -0.193435)
(84.2894 18.3571 -2.28905)
(80.9303 12.713 1.39506)
(64.3929 13.1703 3.8641)
(55.0395 8.02777 1.01604)
(51.3818 2.16771 -0.0308868)
(52.3778 -0.440452 -0.195652)
(53.7049 0.31151 -0.231407)
(53.5512 2.14125 0.0815764)
(51.4917 2.22597 -0.181974)
(51.8035 2.20128 -0.0846733)
(51.63 2.1029 0.0450816)
(52.2351 1.18439 0.0751016)
(61.5242 0.0104511 1.09517)
(134.755 130.901 26.851)
(-48.611 8.16182 9.05678)
(108.704 45.5598 5.73228)
(21.8994 19.8237 -3.63768)
(70.8723 36.1965 5.92039)
(44.1248 17.1379 -0.571257)
(61.7057 18.7833 -2.01318)
(73.5781 15.4154 -3.57018)
(77.1931 17.7575 -0.955925)
(71.8214 24.3041 5.39634)
(57.5834 19.7959 1.1057)
(48.7186 2.62347 -2.43469)
(56.834 -5.04894 -0.17985)
(59.823 -0.287576 -0.32256)
(57.0338 2.12044 -0.0477008)
(52.9716 1.81787 -0.358462)
(52.7723 1.58061 -0.23595)
(52.5848 0.48203 0.0920376)
(53.3818 -1.09655 0.239093)
(62.5832 -1.83815 1.1831)
(62.9159 -43.644 -77.4674)
(-186.023 -33.3802 -41.2524)
(98.4305 -19.5453 -16.721)
(-26.5964 -1.9435 -0.612665)
(63.2601 9.19812 0.100897)
(29.5808 6.02934 -3.06051)
(66.0535 -0.871903 -2.03684)
(81.0968 6.24908 -2.46841)
(86.7555 15.9538 -3.51257)
(90.6407 27.8789 -1.84503)
(96.0718 41.4762 2.47551)
(88.6693 16.0369 -4.08611)
(73.3842 -10.8411 -0.211549)
(64.0375 2.25806 0.771919)
(58.2644 5.11023 -0.0577982)
(52.3058 2.79406 -0.150103)
(52.1784 0.942622 0.0469661)
(51.2242 -0.373218 0.523719)
(51.6687 -2.05184 0.74625)
(59.7363 -2.52056 1.41186)
(269.586 -6.77178 -18.3005)
(120.821 13.9019 -20.5133)
(150.445 16.6414 2.75596)
(39.0409 26.1351 -0.258945)
(90.3766 13.448 3.94906)
(44.419 -28.0141 0.646344)
(71.5003 -9.22753 2.2698)
(55.3861 -0.248509 -0.919297)
(77.7694 7.54869 -1.224)
(89.6201 17.6583 -0.713125)
(109.671 23.564 5.27869)
(105.136 15.6323 11.8494)
(74.5998 13.3289 4.21042)
(57.2657 10.0844 1.01079)
(49.897 6.57362 0.388484)
(50.4376 2.61593 0.306295)
(49.3047 1.14963 0.181685)
(48.4591 -1.03967 0.315173)
(48.7339 -2.65768 0.339967)
(56.5614 -3.32997 1.2084)
(74.7291 19.5912 -12.1135)
(-16.4835 19.3275 -46.3171)
(97.9323 36.6087 -33.535)
(-3.16859 18.2004 -7.52657)
(79.155 1.50159 4.743)
(16.8692 -14.7522 -1.30393)
(52.8116 20.8665 0.879496)
(21.0111 -18.7026 2.76696)
(40.3747 9.79565 -0.643964)
(25.6649 1.14922 0.839021)
(40.2364 20.8248 0.0449368)
(36.1507 15.402 1.13453)
(46.2344 16.2889 -0.226455)
(44.8436 8.50772 -0.444188)
(49.6408 6.81821 -0.602744)
(48.2105 3.0685 -0.739845)
(50.3728 1.28856 -0.572157)
(48.9711 -1.10087 -0.436463)
(50.0161 -3.44827 -0.139329)
(57.3396 -4.02799 1.01789)
(151.785 49.9741 -30.5379)
(-6.98727 93.7808 4.48579)
(129.659 85.618 0.388267)
(45.3304 30.8669 -6.08884)
(100.392 20.0234 4.94446)
(39.0314 -5.53061 0.564935)
(72.8528 10.4139 5.46865)
(41.6518 -0.117104 1.3697)
(50.1841 8.64685 2.00029)
(38.5335 6.76982 0.648711)
(45.0954 11.9063 -0.188046)
(44.9876 12.5207 -0.841865)
(51.3752 11.0316 -1.90873)
(52.4433 6.8837 -2.47357)
(56.4614 4.06338 -2.30905)
(57.0342 1.08286 -1.70035)
(59.2109 -0.765381 -1.24373)
(57.9766 -1.98 -0.781752)
(58.3783 -3.97117 -0.460502)
(63.7781 -4.20462 0.784334)
(-53.5608 32.6463 -93.1349)
(-128.876 99.0957 -10.0392)
(95.8394 37.7251 -2.65567)
(-2.26277 15.348 0.200961)
(87.9317 12.8565 11.0553)
(22.9935 1.30985 2.06683)
(67.3528 16.5185 5.74747)
(36.6969 2.11562 1.1923)
(58.1083 14.4844 1.78646)
(45.7866 6.5027 0.308066)
(57.5181 11.7699 0.544834)
(55.2792 6.99904 -0.639944)
(63.4563 6.9494 -0.423066)
(63.5305 2.81361 -1.63804)
(67.798 1.80703 -1.37255)
(67.7368 0.174905 -1.22607)
(69.1218 -0.326599 -0.919052)
(67.6095 -0.988863 -0.364355)
(68.2326 -2.06035 0.322651)
(73.2282 -2.35346 1.25992)
(53.6311 -33.2161 -148.966)
(-72.2351 -18.4794 -45.8507)
(129.523 0.00452124 -38.6415)
(34.0264 2.06899 -11.9012)
(96.8497 10.2569 4.61576)
(37.8582 1.02444 2.98484)
(75.1911 4.82542 4.79679)
(48.8746 1.07008 1.7612)
(67.2832 3.61684 2.01461)
(58.2011 2.46035 0.953128)
(67.5006 3.38258 1.19902)
(65.2665 2.8126 0.55269)
(70.4036 2.39845 0.680106)
(69.7143 0.959694 -0.0625022)
(71.7167 0.0764851 0.130916)
(71.2835 -0.790997 0.0789287)
(71.7865 -1.28718 0.305068)
(70.1393 -1.80271 0.788265)
(70.5058 -1.65985 1.30404)
(75.0091 -1.19779 1.70093)
(135.591 -114.305 -117.251)
(-113.936 92.7565 -7.5596)
(112.232 96.7421 -20.4647)
(-7.30685 47.9987 3.96953)
(87.472 33.8304 11.9022)
(31.226 10.5198 3.25219)
(74.0211 7.06068 4.047)
(46.8583 1.59829 0.916753)
(67.6332 4.18396 1.60562)
(55.9829 2.05742 0.526855)
(66.9778 3.94717 1.14864)
(63.0188 2.2465 0.605781)
(69.1869 2.50122 1.15885)
(68.1329 0.857736 0.75127)
(71.0306 0.544359 1.06124)
(70.5435 -0.154396 1.1239)
(71.2802 0.00413646 1.30401)
(69.3714 -0.27183 1.48432)
(69.246 1.28957 1.63312)
(74.0694 1.81214 1.62427)
(85.4475 106.967 50.5228)
(-18.1789 39.6757 -11.3421)
(121.993 15.1937 8.44417)
(31.7416 -2.9078 11.4339)
(95.7095 -2.79282 20.5522)
(51.0607 -0.110229 4.92491)
(84.7702 -3.22008 2.60449)
(62.6314 -0.951772 -1.60017)
(76.9119 -2.73912 -1.04279)
(65.092 -1.20965 -1.9947)
(72.0683 -2.05141 -1.48406)
(67.1158 -1.32781 -2.04186)
(71.4429 -1.84243 -1.73144)
(70.1234 -1.78283 -1.91297)
(72.7691 -1.96395 -1.14581)
(72.6639 -1.59561 -0.735353)
(73.8784 -1.11373 0.262284)
(73.0394 -0.678546 1.21786)
(73.8231 2.05378 2.57722)
(80.338 2.45835 2.67856)
(63.1994 204.684 -63.8818)
(-193.188 37.7898 6.39379)
(116.86 55.7756 1.23376)
(35.9457 33.8172 0.719402)
(107.194 20.8758 -3.69002)
(75.8685 8.03068 -1.66448)
(102.797 3.68758 -1.18621)
(87.5324 4.30951 -0.575334)
(100.997 6.64611 0.932127)
(95.3931 7.16292 0.617736)
(102.837 6.56303 1.14074)
(100.967 4.83382 0.455532)
(104.047 2.44385 0.589894)
(101.764 0.262886 0.109085)
(100.871 -2.4112 0.0293948)
(96.3181 -3.42874 -0.258974)
(94.2381 -2.32526 -0.34743)
(90.185 -1.31829 -0.391893)
(88.4226 3.10812 0.558452)
(99.6254 5.03474 1.49389)
(513.572 -351.01 63.3172)
(131.803 -115.611 41.5645)
(229.168 -44.6309 46.7257)
(56.0967 -2.23926 17.1705)
(133.253 -13.3956 14.8849)
(79.0357 -8.88266 4.60141)
(110.038 -9.17786 1.93879)
(91.9069 -7.33159 -3.45278)
(100.111 -5.50195 -3.83261)
(91.5452 -4.64172 -5.05766)
(92.607 -3.43311 -4.07806)
(88.0328 -2.71673 -3.99857)
(87.8872 -1.29519 -2.84181)
(85.1209 0.00692379 -2.38406)
(84.3265 2.03759 -1.86751)
(80.2908 3.28573 -1.59444)
(76.3123 3.32419 -0.776967)
(69.6452 1.8633 -0.608393)
(67.8396 -0.209761 -0.561048)
(73.699 -1.01887 0.0917313)
(12.6416 -172.506 -75.3949)
(42.1371 82.8718 10.6322)
(134.023 23.051 0.251474)
(22.5317 42.0756 -16.2959)
(94.4979 18.7932 -0.153804)
(42.4155 11.8325 -1.54156)
(79.0745 7.64961 4.01367)
(61.5027 2.43864 -0.113358)
(74.8712 2.12283 0.95028)
(67.6289 0.337269 -0.0331802)
(71.6827 0.416121 0.909767)
(67.9455 0.0359564 0.723853)
(68.8469 0.864015 1.12522)
(67.212 1.53303 0.623739)
(67.3222 2.54085 0.00951912)
(65.565 3.09645 -0.412068)
(64.6978 2.96024 -0.333506)
(62.3777 2.29586 0.00244517)
(61.9936 0.803205 0.54443)
(67.663 0.0959491 1.72893)
(15.3607 4.20315 -167.02)
(-29.2867 -5.92 30.378)
(119.624 -16.8348 15.7966)
(13.5849 9.32612 -1.29206)
(89.4203 -3.61904 1.22903)
(28.0855 2.5483 -3.71264)
(66.4687 -5.252 1.5559)
(45.5974 -3.92899 0.199801)
(64.1216 -4.04831 2.49136)
(58.1575 -1.21564 1.2944)
(64.7514 0.612534 1.8931)
(61.9618 2.90904 1.42043)
(63.8159 4.18337 1.1393)
(61.7787 4.90526 0.504551)
(61.8704 4.71136 0.217349)
(60.5651 4.55949 -0.017882)
(60.2447 3.82355 0.0832276)
(58.5349 2.961 0.473389)
(58.6238 2.06479 0.98505)
(64.3116 1.27637 1.96725)
(-3.20441 33.8162 -42.4573)
(-109.998 14.6157 19.6701)
(77.4083 5.86997 6.13921)
(9.5556 33.8252 1.6502)
(76.2382 15.8856 2.95419)
(31.3252 12.6625 -3.38994)
(62.0389 -1.35872 0.460402)
(44.9145 -2.00504 -0.629624)
(58.9649 -3.58175 0.971503)
(52.8739 -0.630327 0.358076)
(58.8746 1.09819 0.902037)
(56.4795 3.32976 0.242339)
(58.4116 4.10201 0.408419)
(57.34 4.63231 0.232623)
(57.9904 4.54226 0.186491)
(57.258 4.48143 0.0399035)
(57.0618 4.07629 0.191779)
(55.5492 3.64919 0.479582)
(55.5293 3.18655 0.852007)
(61.6448 2.08717 1.87676)
(48.0633 -53.2363 -156.7)
(-51.1312 -38.2744 17.5758)
(90.199 -26.1206 7.66566)
(8.00471 5.59861 2.38507)
(75.1347 -1.75201 6.31036)
(27.2433 0.0489778 -1.57876)
(60.7918 -14.7995 3.64117)
(40.8959 -8.0487 0.705946)
(56.213 -10.4035 2.60769)
(49.7997 -3.04419 0.666601)
(56.1763 -1.38257 0.861065)
(53.6942 2.74538 0.0428877)
(56.3079 3.62206 0.0951283)
(55.0001 5.0441 -0.0383987)
(55.8192 4.97321 -0.0160021)
(55.0873 5.06104 -0.103044)
(54.998 4.66359 0.0572409)
(53.6942 4.1273 0.424737)
(53.9134 3.69408 0.731169)
(60.6877 2.36853 1.79086)
(66.9741 -141.123 -65.7382)
(-38.5507 -1.50025 -6.71986)
(102.894 11.5577 0.268722)
(43.25 29.3613 2.90353)
(93.0767 19.4165 9.73316)
(53.4999 11.5353 4.75737)
(73.4055 -3.3856 8.25227)
(58.2411 -2.95259 4.2475)
(61.988 -5.24787 3.45497)
(54.5924 -1.68905 1.04254)
(55.5459 -0.17086 0.372228)
(52.3235 2.64245 -0.0913885)
(53.0635 3.39827 -0.152461)
(52.1124 4.80984 -0.143935)
(52.5514 4.69108 -0.0903148)
(52.2292 4.84203 -0.0663784)
(52.313 4.5755 0.105681)
(51.5786 4.20652 0.430385)
(51.9777 3.5757 0.62694)
(59.4043 2.12269 1.85278)
(178.022 8.50881 -111.977)
(21.2728 -42.0052 -33.948)
(74.8512 -6.93961 -25.5332)
(-9.25896 7.44784 -2.69042)
(71.5836 13.8833 4.31666)
(22.5798 17.2421 3.49422)
(54.954 -7.8679 6.52075)
(37.6307 6.57193 3.237)
(48.4511 -3.10027 2.53536)
(42.6694 3.90087 1.18569)
(47.4895 0.818839 0.49533)
(45.8452 4.56111 0.0275573)
(48.6214 3.3473 -0.161416)
(48.0002 4.82965 -0.211025)
(49.3241 4.4611 -0.0683121)
(49.4741 4.71068 -0.0948052)
(49.923 4.18876 0.144582)
(49.5325 3.68934 0.445473)
(50.1393 2.87157 0.655473)
(57.9227 1.52938 2.01102)
(323.655 -131.576 -45.9495)
(50.6317 -15.5827 -30.8275)
(126.977 -18.8927 -4.95921)
(36.0099 -15.1697 -6.01481)
(91.6122 -9.94 4.06562)
(59.2858 19.5061 2.15343)
(75.2364 2.66281 5.25744)
(52.7205 -0.150165 4.91352)
(50.6575 0.0834531 3.41159)
(45.397 -1.89493 2.35362)
(46.5706 -0.248685 0.363643)
(45.6059 0.525877 -0.353531)
(47.047 2.40444 -0.605592)
(46.9798 3.33498 -0.464831)
(45.4755 3.29922 -0.358589)
(46.8446 3.3296 -0.238428)
(46.8784 3.38438 -0.164675)
(46.7053 3.00144 0.265536)
(47.3204 2.02698 0.626041)
(54.7889 1.03481 2.01638)
(141.608 230.688 -55.265)
(7.92152 94.7098 -39.6646)
(95.1461 2.94815 -28.7327)
(13.0501 3.75823 -8.80176)
(60.266 6.29918 1.51126)
(37.1279 17.8134 2.17489)
(61.4666 19.4548 3.15911)
(55.0783 15.0289 1.11607)
(51.4056 7.56148 3.0406)
(47.5179 2.35459 3.49807)
(45.7461 1.54617 1.18922)
(44.5185 0.274327 -0.221351)
(45.2222 0.815136 -0.290095)
(46.6335 1.6519 -0.354416)
(45.9018 3.40248 -0.379439)
(44.3379 2.05461 -0.154334)
(45.1442 2.26761 0.0563801)
(44.6698 1.7331 0.390555)
(45.2692 1.32711 0.680904)
(52.8645 0.532422 2.01726)
(131.985 68.8293 136.641)
(50.0266 -2.21265 -29.5154)
(110.472 -0.139933 -40.4394)
(46.1866 -9.33573 -19.6352)
(74.6674 -0.610117 -4.43091)
(56.7895 10.1035 -0.812847)
(65.6308 14.8433 0.589577)
(66.3718 19.0019 -1.50544)
(58.8386 13.1452 2.37571)
(50.9574 10.3592 4.05876)
(46.5569 5.6062 0.64204)
(44.7111 1.02791 -0.54425)
(46.1028 -1.00388 -0.416816)
(47.5677 -0.120645 -0.280853)
(47.1261 1.6368 -0.043051)
(44.591 1.53929 0.156067)
(44.8539 1.40618 0.0991305)
(44.517 1.24088 0.303232)
(45.077 0.494691 0.3809)
(53.1726 -0.171381 1.79299)
(112.753 78.997 -5.84273)
(-55.0197 -17.0711 2.80444)
(93.0027 37.5282 -3.45152)
(-5.8583 11.4955 -3.84074)
(56.096 28.7641 2.99254)
(28.4697 10.3098 -1.7007)
(50.5949 15.5305 -1.23089)
(62.3897 15.8752 -2.93825)
(61.8746 19.1417 -0.413042)
(56.9133 20.9742 -0.82177)
(51.4747 16.3844 -0.200067)
(46.5359 -1.13835 -3.03555)
(51.7959 -4.66182 -0.213662)
(52.4315 -0.930669 -0.168352)
(49.3558 1.04131 0.0690329)
(45.6172 0.614236 0.0935594)
(45.4246 0.592686 0.0446822)
(45.0412 -0.380268 0.386336)
(45.6793 -1.27003 0.539023)
(53.6759 -1.47419 1.8497)
(131.04 -1.46069 -47.8226)
(-77.9625 -32.0824 -42.53)
(88.7275 -18.7512 -26.6309)
(-36.085 -7.49903 0.70792)
(53.3118 0.653457 -3.02711)
(19.351 -4.93558 -1.90878)
(55.5399 -8.45331 0.172454)
(67.2868 6.61037 -1.92245)
(70.4007 17.2703 -3.95809)
(72.8173 27.6324 -1.86379)
(81.3312 27.6311 -2.63931)
(73.3806 -0.533207 -1.93545)
(62.2171 -7.7578 2.64582)
(55.5375 1.87184 0.846784)
(50.6249 2.83766 0.0517366)
(44.7589 1.2226 0.308995)
(44.6239 0.018798 0.259992)
(43.5357 -0.804912 0.724539)
(44.0893 -1.7914 0.85526)
(51.4822 -1.80367 2.01615)
(201.83 85.792 -92.884)
(23.3621 34.6125 6.79164)
(117.613 11.9686 12.7235)
(6.29065 18.1341 0.612877)
(79.789 5.75964 2.89426)
(26.3586 -33.2454 0.896012)
(55.2413 -8.05714 2.01011)
(37.0644 -0.96895 -1.57375)
(62.8919 6.62658 -1.71082)
(69.352 14.4272 -1.94812)
(84.9346 14.5555 6.80448)
(75.5709 10.3388 13.9128)
(59.8411 11.5126 5.76955)
(48.9822 7.87154 1.53901)
(42.8551 4.79949 0.693075)
(43.265 1.35909 0.379387)
(42.3342 0.485178 0.202249)
(41.3684 -1.14218 0.446224)
(41.7018 -2.19674 0.512849)
(48.8101 -2.43466 1.84967)
(300.808 -51.4235 -209.759)
(48.7965 -43.1611 -48.865)
(104.185 10.7246 -22.5223)
(-21.2494 3.93676 -5.66809)
(70.3534 -9.72532 0.998521)
(1.24672 -18.3048 0.354612)
(42.1995 22.6173 0.351636)
(9.01849 -21.864 2.44298)
(30.9204 10.9434 -2.43373)
(16.5877 -1.90949 1.41812)
(32.8118 18.2153 -0.465454)
(29.9334 11.3733 1.49007)
(40.341 13.4076 0.074222)
(38.7849 6.08555 -0.10648)
(42.8381 5.19317 -0.46244)
(41.1407 1.96174 -0.653878)
(42.8162 0.661873 -0.444418)
(41.1326 -1.34718 -0.200004)
(42.1085 -3.03024 0.139368)
(48.7879 -3.14024 1.7092)
(129.905 -56.9445 -30.1302)