/*--------------------------------*- C++ -*----------------------------------*\
  =========                 |
  \\      /  F ield         | OpenFOAM: The Open Source CFD Toolbox
   \\    /   O peration     | Website:  https://openfoam.org
    \\  /    A nd           | Version:  10
     \\/     M anipulation  |
\*---------------------------------------------------------------------------*/
FoamFile
{
    format      ascii;
    class       volVectorField;
    location    "8.5";
    object      U_0;
}
// * * * * * * * * * * * * * * * * * * * * * * * * * * * * * * * * * * * * * //

dimensions      [0 1 -1 0 0 0 0];

internalField   nonuniform List<vector> 
12920
(
(514.979 294.53 -181.221)
(162.827 96.153 -22.2368)
(202.076 -39.253 3.6164)
(86.8021 -34.1726 3.96509)
(136.386 -36.0761 11.77)
(79.9495 -19.676 5.72938)
(103.632 -11.9617 2.93484)
(90.3071 0.214768 -2.32439)
(103.128 5.4083 -3.92503)
(101.236 8.72698 -5.1378)
(106.087 10.4256 -5.03063)
(104.351 10.9652 -4.8293)
(105.272 10.3392 -3.74813)
(103.191 8.81197 -2.625)
(102.665 5.36795 -0.989)
(100.182 3.47579 -0.514258)
(99.251 3.17997 -0.767904)
(98.7224 3.79546 -1.37862)
(100.822 4.73976 -2.08774)
(105.42 5.18248 -1.99313)
(227.557 198.755 -61.916)
(21.1008 118.709 -7.53442)
(156.807 12.1559 -15.4013)
(109.244 17.7489 -19.433)
(162.572 2.71974 -2.58755)
(103.9 1.30698 3.55323)
(101.667 5.75961 6.38408)
(80.6847 7.55805 2.75573)
(91.9185 11.3508 1.81258)
(90.1435 13.254 1.24557)
(94.6043 13.5141 1.42554)
(91.5426 12.4067 1.57179)
(90.1559 8.07341 2.23268)
(83.4924 4.65788 1.95297)
(81.1788 3.09708 0.599612)
(79.1718 3.7228 -0.299458)
(79.2189 4.53532 -0.931856)
(80.382 5.30909 -1.0859)
(83.9197 4.64279 -0.480961)
(88.0588 3.69764 0.292988)
(132.803 206.82 48.0462)
(21.4545 35 20.3225)
(111.458 -40.1216 23.7413)
(16.2922 -5.14962 1.19992)
(85.1437 -7.68894 0.451964)
(34.1699 -2.21099 -1.56372)
(66.4039 -10.275 0.897789)
(52.171 -10.6547 1.08998)
(70.683 -10.318 1.95765)
(69.4563 -4.18916 1.57944)
(79.897 0.964462 1.77073)
(78.6977 4.87025 1.82498)
(80.1616 7.20105 1.27348)
(77.4665 7.9553 0.699417)
(76.7457 7.50974 0.174422)
(75.1283 6.90892 -0.0416419)
(75.0674 6.56702 -0.118728)
(75.0589 5.58905 -0.0652571)
(77.1106 4.85221 0.230004)
(78.847 4.25802 0.415128)
(101.946 129.698 68.1652)
(43.344 -11.2397 10.725)
(123.547 -46.2025 32.3495)
(34.8856 2.99323 11.8078)
(76.6676 6.97235 5.33517)
(37.5738 8.61246 -1.27892)
(63.0505 -6.01513 -1.17458)
(48.6761 -9.00196 -0.879872)
(60.5242 -11.2857 0.159397)
(56.3457 -7.64241 0.478331)
(63.2547 -4.70681 0.866784)
(62.908 1.14629 0.428048)
(66.9251 3.42376 0.295134)
(67.4316 4.66052 0.203986)
(69.3114 5.101 0.118241)
(69.2676 5.37336 0.0405921)
(69.4073 5.37493 0.0521278)
(69.1636 5.21285 0.0111035)
(70.5525 5.2561 0.19001)
(72.7586 4.6573 0.315822)
(317.154 -49.026 -78.6249)
(88.3266 -45.5104 16.5116)
(160.599 -64.2074 6.56096)
(72.4946 -22.9838 4.01247)
(102.314 -3.19317 6.07913)
(66.7049 10.8502 1.53621)
(85.2322 -5.77243 2.06277)
(64.8977 -8.31886 0.855593)
(69.7132 -16.351 1.47528)
(62.1279 -11.4892 0.618886)
(66.3916 -9.03535 0.478616)
(64.3399 -2.95395 0.117992)
(68.307 0.520513 -0.0282397)
(67.4701 3.77771 -0.0232943)
(68.8706 4.95807 -0.0525799)
(68.442 5.91794 -0.102182)
(68.2658 6.12439 -0.0576187)
(67.5476 5.91545 -0.0248157)
(68.5777 6.03325 0.0978617)
(71.5998 5.29948 0.173952)
(203.685 -271.439 83.6913)
(149.215 -164.212 21.9306)
(191.656 -63.3479 13.7343)
(106.489 -11.9783 -2.42621)
(135.117 -3.28132 -1.29216)
(105.475 2.82969 0.73124)
(106.52 -7.28315 3.87685)
(81.7549 -7.6259 2.93043)
(74.7407 -13.3803 2.12846)
(61.9951 -10.5022 0.955731)
(61.4877 -7.7008 0.173896)
(58.2562 -2.45297 -0.10296)
(60.2094 0.201095 -0.213439)
(60.6973 3.88864 -0.198958)
(62.2925 4.92881 -0.177971)
(62.6854 6.14907 -0.102885)
(62.9926 6.61583 0.00980347)
(63.0321 6.72919 0.0369939)
(64.6651 6.68665 0.0320714)
(69.2298 5.62885 0.161816)
(91.2969 -218.509 -60.0326)
(-60.2134 -97.9379 -23.8249)
(88.1041 -13.158 -23.2392)
(54.8345 1.30635 -10.7688)
(105.975 8.47192 -2.56831)
(69.0038 15.2979 -0.088451)
(81.3468 -5.73367 3.58768)
(62.3049 -1.09715 2.34375)
(63.4745 -11.479 1.3764)
(53.81 -6.59258 0.435646)
(55.0556 -7.54523 -0.218723)
(52.762 -2.22875 -0.23396)
(55.8757 -1.08229 -0.33026)
(55.475 2.19291 -0.288537)
(57.6903 3.63158 -0.161372)
(58.4189 5.0297 -0.0992598)
(59.0297 5.39373 0.0356126)
(59.5406 5.59364 0.0251474)
(61.483 5.73148 0.0373369)
(66.904 4.70349 0.295117)
(255.542 -139.677 -230.672)
(54.5482 -56.2795 -40.9806)
(153.799 -21.2668 -14.3364)
(108.688 -7.45801 -9.58151)
(141.748 -14.3205 -0.981371)
(112.798 1.97987 1.18895)
(116.698 -4.67663 0.243946)
(85.7728 -11.8914 -0.2614)
(69.5952 -6.6238 0.765749)
(50.2556 -8.70973 1.41172)
(45.5814 -2.83306 0.408733)
(43.16 -1.76303 0.102749)
(46.2135 2.53642 -0.0275449)
(47.9215 4.50785 -0.0234929)
(47.987 2.93424 -0.285254)
(50.1881 4.29521 -0.214318)
(50.9736 4.94584 -0.204261)
(52.6213 5.57763 -0.182491)
(55.4845 5.12184 -0.0344678)
(61.1888 3.43907 0.319726)
(16.7404 64.628 -133.681)
(-47.0096 58.2192 -28.9018)
(96.666 15.8511 -10.983)
(78.6038 18.1713 -4.09404)
(107.73 6.96484 6.04454)
(60.4906 9.17437 1.71364)
(77.6762 12.0158 1.60235)
(82.7067 6.66568 0.0961077)
(82.1482 3.04526 0.189553)
(68.8738 -4.736 0.563219)
(51.5117 -0.697411 0.314132)
(44.5175 -0.0214221 0.00985527)
(44.167 0.261389 0.102775)
(45.6366 2.43123 0.0230061)
(45.4146 5.42622 0.226114)
(44.5559 2.49794 -0.0688758)
(45.852 3.32626 -0.0562205)
(47.2381 3.18521 -0.0228221)
(49.6487 3.09913 0.137508)
(55.1219 2.07098 0.392246)
(-39.1394 10.946 32.2183)
(-86.8894 -42.1987 -26.7272)
(94.6187 -14.9396 -21.8556)
(88.7247 -8.98302 -9.98498)
(126.128 -4.86802 1.64808)
(80.7892 -2.18382 -1.65755)
(76.1355 -9.29344 -0.260132)
(83.3677 3.7973 -0.975485)
(91.9765 2.84584 0.235503)
(61.9509 11.0544 0.196408)
(51.955 8.68329 0.16064)
(46.7685 1.65919 0.0744127)
(46.0013 -2.08219 -0.00545216)
(46.4488 -1.11107 -0.0385834)
(45.8704 1.07278 0.0695306)
(43.7169 1.88624 -0.00702904)
(43.6409 2.23253 -0.0126431)
(44.3275 2.80605 -0.0894088)
(46.4945 2.46828 -0.165779)
(54.3772 0.758896 0.148074)
(160.392 76.1762 51.8223)
(47.0777 15.3504 -7.21563)
(119.497 48.7037 1.81743)
(58.7112 30.7915 -2.27225)
(86.901 44.1851 4.31619)
(38.3143 16.2686 1.00788)
(53.6422 14.4351 -0.178914)
(72.4734 6.20591 -1.08365)
(82.6028 5.62273 -0.427277)
(70.8621 17.7425 1.5984)
(41.4063 18.1203 0.391083)
(32.7796 -1.69211 -0.0656134)
(46.175 -7.07459 0.0280953)
(51.4474 -0.777562 -0.0803131)
(49.5535 2.20198 -0.0525541)
(45.6313 2.23476 -0.25331)
(45.2138 2.20806 -0.166421)
(46.2321 1.78034 -0.0952619)
(49.0038 -0.0317431 -0.0878496)
(57.1431 -1.82897 0.231655)
(34.5981 -209.973 142.874)
(-115.192 -53.9684 8.15843)
(85.9274 -10.6475 5.87802)
(-20.0528 0.72362 0.0793115)
(63.1907 17.0631 1.52947)
(30.3866 13.2785 -3.18731)
(63.4728 6.0219 -1.43064)
(84.6177 6.35671 -1.23965)
(94.8533 10.4274 -0.814966)
(102.644 15.1805 -1.10036)
(87.5968 40.1361 1.07104)
(84.6851 22.136 -0.737209)
(61.6895 -15.4014 -0.840217)
(58.063 0.554917 0.217295)
(51.0771 6.62894 -0.0711227)
(46.1103 4.21727 -0.122281)
(46.1391 1.96887 -0.00305531)
(46.3255 0.467005 0.18158)
(48.2626 -2.08626 0.360843)
(53.8882 -3.36979 0.456205)
(189.127 80.9601 35.3097)
(62.0962 19.8994 -9.20249)
(141.105 14.0811 -17.3849)
(54.7284 22.0647 -6.21115)
(94.3651 16.8797 -0.440636)
(56.3871 -23.0966 0.0456607)
(79.5831 -11.799 0.0607164)
(65.18 -6.49928 -0.632301)
(86.124 9.40347 -0.693322)
(98.2832 17.0659 -0.127516)
(117.182 26.3407 1.57415)
(110.348 20.3689 4.10257)
(70.7836 11.9213 0.202353)
(53.5042 10.5593 0.0505828)
(44.2467 7.83724 0.284609)
(44.6113 3.64742 0.294772)
(43.2264 1.65855 0.16281)
(43.1959 -0.953229 0.120679)
(45.113 -3.15955 0.0380248)
(50.8702 -4.42015 0.238612)
(7.51004 112.767 -122.29)
(-111.328 46.182 -6.18974)
(104.886 40.0501 -17.4003)
(39.1773 28.7738 -3.88104)
(90.6615 14.0558 3.34147)
(33.7524 -9.86806 -0.0918848)
(58.0781 13.606 1.02457)
(28.8515 -17.5652 1.49191)
(42.0652 5.23697 0.913979)
(24.6459 1.01045 0.5127)
(36.1847 21.106 0.304859)
(30.2928 16.9645 0.227735)
(39.5857 17.4724 -0.442716)
(38.0454 9.6133 -0.453773)
(43.8527 7.82782 -0.41181)
(42.7372 3.46154 -0.499641)
(45.689 1.47235 -0.455097)
(45.4688 -0.835376 -0.450324)
(48.8331 -3.60986 -0.354026)
(53.9027 -4.82673 0.0316577)
(386.737 -172.729 85.2701)
(105.891 22.6523 18.1903)
(150.65 67.1611 1.35266)
(87.5346 38.8458 -4.59866)
(119.859 29.0211 1.58039)
(69.9479 2.61915 0.479517)
(84.0047 6.52558 2.64979)
(51.7292 -0.683023 1.14151)
(51.1712 7.63166 1.30558)
(34.605 8.6192 0.449688)
(39.0585 14.7995 -0.24763)
(38.1714 16.4466 -0.671964)
(44.6228 15.4921 -1.50741)
(48.2085 10.2798 -1.87085)
(55.9083 6.89716 -1.79898)
(58.3156 3.47935 -1.27561)
(61.7374 1.03329 -0.9285)
(61.4584 -0.397739 -0.783308)
(64.095 -3.15149 -0.750226)
(66.3675 -3.92057 -0.27364)
(-35.0921 180.279 -59.95)
(-79.5765 122.391 -7.28663)
(104.804 71.7439 -2.53199)
(47.6513 41.5825 -1.62468)
(104.229 25.4989 5.84276)
(50.6524 10.2668 1.4024)
(73.1111 18.0914 3.10677)
(41.4528 5.25102 0.593707)
(56.2064 17.0279 0.875358)
(43.6511 11.3574 0.202256)
(53.4481 17.4558 0.213176)
(52.8679 13.6544 -0.366038)
(62.1276 14.6606 -0.414366)
(64.2108 8.54513 -1.18243)
(72.3584 7.42835 -1.17339)
(73.7412 4.28807 -0.938012)
(77.356 3.41667 -0.797821)
(77.354 3.00816 -0.543782)
(80.289 1.65054 -0.216498)
(81.9751 0.385202 0.125143)
(124.905 -94.2046 -43.6976)
(22.6746 -90.3275 26.0365)
(149.662 -20.1796 16.2025)
(89.5381 5.69618 4.81552)
(112.819 15.9527 7.97847)
(54.889 9.01676 3.05044)
(76.4828 10.1291 2.96951)
(50.3578 4.24464 1.2038)
(65.3216 6.21573 1.18195)
(58.0389 5.12616 0.747265)
(66.9842 6.49708 0.844082)
(66.5708 6.3954 0.517128)
(72.4586 6.96785 0.651786)
(73.2507 4.78483 0.0484136)
(77.3499 4.00376 0.144783)
(77.6516 2.68164 0.116263)
(79.2467 1.77649 0.208289)
(78.7095 1.05728 0.421394)
(80.8128 0.207481 0.719997)
(81.8466 0.0815144 0.664306)
(113.99 -170.874 1.65839)
(-68.4223 68.3993 -2.52265)
(117.273 94.9309 7.4439)
(33.865 57.1182 6.10665)
(94.0592 40.5829 9.90385)
(37.8116 16.5528 2.95251)
(71.4047 9.99542 2.4138)
(44.8135 1.78444 0.68964)
(63.9925 3.15396 0.8388)
(53.8512 1.18143 0.465044)
(64.4537 3.75161 0.781864)
(62.0149 3.03174 0.602393)
(68.3307 4.03736 0.908751)
(68.3309 2.35423 0.696509)
(71.8289 2.13089 0.81629)
(71.9417 0.951504 0.899212)
(73.0523 0.863141 0.967795)
(72.1709 0.507178 0.98571)
(73.9672 1.50569 0.962316)
(75.1256 2.54747 0.654286)
(62.9101 -88.8527 -36.2374)
(72.0041 -44.5602 -16.9714)
(162.377 -50.252 3.09661)
(104.936 -34.6544 5.61118)
(118.281 -11.2872 12.6742)
(63.6162 0.638473 3.86336)
(85.5018 -0.242215 1.21881)
(63.8139 -0.461031 -1.18053)
(75.9465 -3.78174 -1.01879)
(64.1419 -3.22275 -1.23224)
(69.4897 -4.2249 -0.961286)
(64.4563 -3.44544 -1.1148)
(68.3619 -3.76533 -1.03738)
(67.7483 -3.89136 -1.24905)
(71.1204 -4.08238 -1.06558)
(72.8377 -4.55811 -0.875287)
(76.4667 -4.09451 -0.0124862)
(76.5904 -3.84048 0.666283)
(78.778 -1.16294 1.71999)
(79.2287 1.59254 1.86038)
(207.672 98.8358 -163.226)
(-12.7825 17.869 -26.8567)
(135.614 45.9535 10.4446)
(23.6357 22.7866 0.608121)
(95.1658 16.3221 -1.51247)
(58.902 8.23169 0.735901)
(92.2994 9.90222 0.746339)
(80.2605 11.1191 0.77588)
(95.0046 12.7208 0.915111)
(90.3636 12.63 0.588964)
(97.6084 11.9076 0.65451)
(96.4566 10.3862 0.320694)
(100.711 8.52237 0.361613)
(99.9624 6.7282 0.0142281)
(102.437 2.8688 -0.0824016)
(99.3881 -1.3047 -0.237421)
(96.9667 -3.50462 -0.568095)
(94.4885 -4.30418 -0.989164)
(94.6226 -3.37602 -1.10309)
(99.8693 -1.38231 -0.572792)
(267.46 -66.9215 219.732)
(27.7497 -30.7875 45.0256)
(173.732 -50.5627 37.7062)
(20.2048 -13.3949 14.852)
(108.528 -20.7557 16.6867)
(57.6552 -12.517 4.26892)
(92.0692 -11.375 0.70574)
(80.1522 -8.09341 -4.45689)
(91.2268 -5.45336 -5.28384)
(86.6121 -3.96612 -6.2124)
(88.7884 -2.59407 -5.19338)
(85.3359 -2.03488 -4.67699)
(85.4499 -1.20835 -2.93969)
(83.0312 -0.359007 -1.88517)
(83.3859 1.39601 -1.10449)
(81.7717 2.92194 -1.14833)
(79.3942 4.76842 -1.64492)
(73.5398 4.63858 -2.08373)
(71.6519 2.00602 -1.91579)
(72.1815 0.225943 -1.40857)
(139.16 -251.292 -22.7593)
(12.9282 30.5749 45.0105)
(122.8 8.91481 -4.26481)
(21.5598 28.4495 -9.15061)
(89.8392 8.82074 7.50392)
(41.9425 5.92354 4.64161)
(72.1132 4.79459 6.86077)
(58.7555 1.94264 2.06191)
(72.0461 3.32388 2.03115)
(67.943 2.71521 1.44525)
(71.8606 2.83955 2.13693)
(68.5256 1.81586 2.09159)
(68.4118 1.55458 2.30585)
(65.9985 1.46846 1.7145)
(65.5818 2.29717 0.267975)
(63.5652 3.28844 -0.529051)
(63.0205 3.76653 -0.86415)
(62.1166 3.61535 -0.7285)
(63.3814 2.27574 -0.103341)
(65.6108 1.07044 0.681051)
(90.0575 -2.81241 -96.0197)
(-61.1348 -59.5952 18.6621)
(100.729 -47.1976 21.2311)
(5.2559 -10.2237 -1.07393)
(76.7298 -13.2788 -0.212527)
(21.1996 -3.59793 -3.55333)
(56.3223 -9.64123 0.965413)
(39.9444 -8.64213 0.877272)
(58.6421 -8.13751 2.72312)
(55.6452 -3.93423 1.83784)
(63.3233 -0.716586 2.21984)
(61.0579 2.53611 1.94971)
(62.5671 4.74786 1.42363)
(60.1876 5.61005 0.651705)
(59.8943 5.5081 0.159576)
(58.3539 5.33184 -0.059517)
(58.0862 4.79776 -0.0517906)
(57.3146 3.96352 0.154557)
(58.7791 3.00269 0.597049)
(60.8139 2.17493 0.856685)
(113.177 -73.8653 -45.9385)
(-145.762 -30.2637 -4.36008)
(89.6026 -29.1578 17.1191)
(10.3842 18.7102 3.33755)
(69.5336 10.8748 1.81914)
(27.3102 9.48844 -3.91009)
(53.3596 -4.74199 -1.33002)
(38.0941 -6.44168 -1.19739)
(50.9989 -7.96408 0.446825)
(46.4229 -4.28999 0.525189)
(52.9094 -1.5609 1.10178)
(51.4947 2.0509 0.352418)
(54.0016 3.61364 0.388803)
(53.505 4.45129 0.259576)
(54.5243 4.62624 0.184287)
(54.0265 4.75704 0.0693057)
(53.8963 4.52566 0.177312)
(53.1769 4.21491 0.217981)
(54.3414 3.95146 0.50913)
(56.991 3.04082 0.741463)
(59.2802 -130.703 -191.538)
(-4.95476 -69.532 39.3564)
(112.849 -54.7056 17.9854)
(31.8941 -3.42927 7.11355)
(78.7123 1.2509 7.22485)
(36.4452 3.864 -0.699814)
(61.2095 -13.9156 3.09861)
(41.5247 -11.5075 0.936394)
(52.3972 -14.844 2.42096)
(46.1179 -7.69105 0.758417)
(51.8259 -4.88819 0.739278)
(49.707 0.316635 0.13925)
(52.6369 2.27744 0.0170209)
(51.6018 4.41757 -0.040444)
(52.6545 4.85404 -0.0569703)
(52.0459 5.29174 -0.106504)
(51.8833 5.14375 0.0349502)
(51.1238 4.74961 0.155605)
(52.4052 4.56198 0.361757)
(55.9234 3.48083 0.604441)
(145.073 -312.715 -86.6069)
(24.1138 -130.232 -7.0748)
(158.554 -27.2526 10.7565)
(88.0036 19.4109 4.85857)
(110.578 23.304 6.96198)
(72.3848 16.1372 4.78387)
(80.1348 -3.50184 7.72383)
(61.1468 -6.3899 4.74592)
(59.0933 -9.9945 3.42338)
(49.9285 -6.45525 1.31261)
(49.8637 -3.81714 0.245512)
(46.7181 0.146843 -0.217254)
(47.8658 1.88167 -0.286585)
(47.4797 4.14609 -0.229207)
(48.2995 4.54407 -0.158893)
(48.1703 5.09749 -0.0646362)
(48.2559 5.14811 0.134129)
(48.1917 4.98577 0.214634)
(49.8526 4.64752 0.258841)
(54.4155 3.35427 0.662504)
(137.455 -70.157 -151.391)
(-42.8189 -57.9286 -43.9107)
(68.3631 -2.33831 -33.2601)
(2.72499 13.3821 -5.18026)
(72.9935 17.2235 4.47973)
(30.9086 17.553 3.13805)
(56.3535 -8.14724 6.90097)
(39.238 0.900952 3.50508)
(45.3059 -8.05587 2.31672)
(38.1302 -1.61235 0.87493)
(41.5725 -3.2782 -0.00236982)
(40.1804 1.25001 -0.132931)
(43.0757 1.15889 -0.285027)
(42.7002 3.39116 -0.247219)
(44.3387 3.8139 -0.113192)
(44.7774 4.53429 -0.0478744)
(45.285 4.43484 0.186916)
(45.6268 4.27713 0.222552)
(47.5853 3.8424 0.315348)
(52.8682 2.54308 0.894786)
(259.359 -5.08781 -142.733)
(14.2689 -46.6228 -21.3193)
(119.174 -32.5753 -8.00281)
(49.1101 -20.8411 -3.16542)
(97.2918 -19.0406 5.91871)
(69.9854 7.65324 3.45594)
(85.2096 0.536191 5.418)
(59.3846 -5.54735 4.28225)
(50.545 -2.26172 3.08822)
(39.5641 -5.17568 2.34881)
(38.9422 -1.62559 0.160158)
(37.5575 -0.466984 -0.541874)
(39.679 2.71337 -0.649745)
(40.2427 4.39139 -0.508631)
(38.9146 2.49845 -0.631983)
(40.5424 3.05888 -0.303036)
(40.8412 3.54839 -0.170677)
(41.6033 3.61941 0.0162853)
(43.8223 2.84407 0.312284)
(49.0015 1.64138 0.952423)
(168.133 -17.2494 -63.9897)
(-11.2197 47.5597 -39.4255)
(81.1053 -1.54228 -22.1653)
(19.0645 1.31218 -6.07181)
(64.5572 -0.579276 6.17054)
(46.2319 10.5231 3.91209)
(70.1813 13.8316 2.80124)
(63.1213 13.6766 0.442304)
(56.0225 5.43804 2.1338)
(46.889 -0.783412 3.42557)
(39.8951 0.01431 1.3368)
(36.7679 -0.327487 -0.142038)
(37.2948 0.451697 -0.169996)
(39.0482 2.0593 -0.287656)
(38.3498 4.93358 0.0288171)
(37.2383 1.5986 -0.296323)
(38.1783 2.21524 0.00397561)
(38.6406 1.89996 0.200767)
(40.727 1.65377 0.438673)
(46.0626 0.855251 1.01135)
(48.757 134.353 -34.4986)
(-33.3883 -22.3633 -34.3232)
(82.5227 -14.9156 -36.5096)
(45.1516 -15.8568 -15.5143)
(79.4383 -8.74942 -0.608133)
(69.4048 0.69202 0.99789)
(72.7007 1.98108 0.0652087)
(70.4601 13.1096 -2.20843)
(66.6687 8.25872 1.57712)
(50.1815 9.48288 3.74336)
(40.8901 4.68345 0.946806)
(37.4173 -0.989115 0.00744555)
(38.5422 -3.1306 -0.237309)
(39.9862 -1.88978 -0.262755)
(39.5853 0.288199 0.208218)
(37.4864 1.01443 -0.122028)
(37.5796 1.27741 -0.0157356)
(37.9565 1.38369 0.0130682)
(40.027 0.683748 -0.0374794)
(46.4337 -0.197883 0.695014)
(124.859 120.115 -17.411)
(-64.1946 1.34237 4.13935)
(90.0671 38.8142 4.55722)
(9.87528 13.8761 -3.09819)
(57.2921 29.5105 5.73392)
(32.3138 11.3216 -0.595244)
(50.0373 13.2545 -1.97686)
(60.6389 10.4768 -3.4276)
(63.9697 13.6504 -0.838694)
(58.4284 20.6459 5.36632)
(43.7222 16.8499 0.863219)
(34.9406 -0.10685 -2.36459)
(43.4591 -6.95485 -0.0448551)
(46.2873 -2.03509 -0.224648)
(43.3287 0.561011 0.0964129)
(39.2442 0.548157 -0.312235)
(38.8196 0.597364 -0.199006)
(39.1566 -0.234215 0.0153219)
(41.4452 -1.56792 0.110364)
(47.8308 -2.04435 0.795674)
(42.675 -72.8649 -23.3692)
(-199.06 -48.9719 -34.5158)
(83.5866 -27.3779 -14.0641)
(-38.1894 -9.39462 0.327133)
(50.1766 2.99605 0.472241)
(19.0067 -0.187875 -3.67856)
(55.545 -7.38167 -2.97144)
(68.9158 1.34282 -2.5073)
(74.3719 11.8713 -3.44764)
(78.0698 24.4566 -1.70966)
(83.4155 38.4187 2.22303)
(75.5785 12.8833 -3.75112)
(60.1092 -12.3906 -0.160289)
(50.5984 0.661714 0.761752)
(44.6626 3.73868 -0.00958039)
(38.7759 1.54538 -0.102664)
(38.5047 0.0376317 0.103053)
(38.0687 -1.0419 0.456325)
(39.9606 -2.46734 0.649525)
(45.2907 -2.7271 1.05092)
(276.676 -28.486 -40.0927)
(114.176 -0.147594 -25.1482)
(139.801 5.7001 3.16209)
(27.971 16.7627 -0.295353)
(78.8436 6.8891 3.93405)
(32.4399 -33.2643 0.786761)
(59.6668 -13.6535 2.00214)
(43.7425 -4.70627 -1.11288)
(66.0203 3.65833 -1.35245)
(77.7209 14.4959 -0.731853)
(97.5261 20.566 5.38111)
(92.3038 13.1705 11.8622)
(61.2972 11.0411 3.99853)
(43.92 8.31578 0.910562)
(36.8172 4.99298 0.353664)
(37.2535 1.534 0.294917)
(35.9005 0.327208 0.236425)
(35.5016 -1.63481 0.290638)
(37.2355 -3.00086 0.242483)
(42.3955 -3.46286 0.834082)
(65.7343 5.13916 5.20284)
(-23.3019 11.2567 -47.533)
(87.8641 28.5474 -31.7874)
(-10.3198 11.3004 -7.41742)
(70.0131 -4.69681 4.86009)
(6.94621 -19.6229 -0.911716)
(41.8034 16.6666 0.86416)
(9.75199 -21.7209 2.96588)
(28.7256 6.96851 -0.846485)
(13.7501 -1.15867 0.837545)
(28.0122 18.5085 0.00627931)
(23.8058 13.3658 1.03491)
(33.6493 14.4197 -0.309027)
(32.1562 6.93433 -0.484272)
(36.8856 5.61139 -0.597637)
(35.3171 2.11495 -0.705448)
(37.1939 0.54075 -0.536826)
(36.2869 -1.57033 -0.4682)
(38.7588 -3.66548 -0.25749)
(43.3351 -4.02294 0.597771)
(153.402 56.4278 41.1564)
(0.558888 89.2703 11.3767)
(123.178 81.6485 1.26168)
(37.7 25.8372 -5.95134)
(91.0473 14.7162 4.98438)
(28.9507 -9.75012 0.630646)
(62.3046 6.57564 5.37733)
(30.8511 -3.08516 1.50442)
(38.8484 5.92346 1.89766)
(26.8988 4.4765 0.598638)
(33.1763 9.8716 -0.202266)
(32.969 10.7658 -0.829011)
(39.1226 9.52571 -1.87655)
(40.0737 5.63922 -2.4087)
(43.9755 3.08527 -2.24149)
(44.3493 0.264701 -1.69973)
(46.3157 -1.34668 -1.22286)
(45.564 -2.3124 -0.839867)
(47.3478 -4.08611 -0.608665)
(49.7861 -4.1156 0.303994)
(-56.693 32.1285 -59.7382)
(-144.496 97.0061 -3.19815)
(87.6508 31.3642 1.60742)
(-9.5923 9.97643 1.05765)
(79.4456 7.95841 11.5663)
(14.2795 -2.55049 1.94489)
(57.4286 13.0516 5.59715)
(26.5977 -0.773111 1.12676)
(47.1736 11.9198 1.67291)
(34.6904 4.37458 0.319536)
(46.0042 10.011 0.565185)
(43.6344 5.52189 -0.529286)
(51.49 5.73746 -0.3448)
(51.4268 1.83289 -1.55328)
(55.5025 1.02389 -1.35832)
(55.2669 -0.438371 -1.19412)
(56.4557 -0.754565 -0.880463)
(55.4154 -1.23794 -0.450321)
(57.4061 -2.15547 0.133228)
(59.2272 -2.2859 0.777078)
(46.9323 -47.2937 -148.416)
(-74.4566 -23.3654 -50.7449)
(119.051 -7.93166 -37.3014)
(26.9767 -3.46091 -11.6963)
(88.8396 5.71104 4.75745)
(28.97 -2.69395 2.78683)
(65.6354 1.86145 4.76135)
(39.0375 -1.48327 1.83562)
(56.783 1.55418 2.08538)
(47.4383 0.731104 1.01984)
(56.2837 1.95683 1.26612)
(53.8243 1.58744 0.628378)
(58.6491 1.39394 0.748571)
(57.7657 0.130351 -0.00601117)
(59.5792 -0.56469 0.155945)
(58.9417 -1.27479 0.120397)
(59.2554 -1.61977 0.348098)
(58.071 -2.00743 0.705462)
(59.7974 -1.73117 1.14087)
(61.0237 -1.15309 1.25738)
(125.664 -97.9544 -130.781)
(-126.058 89.1272 -10.2613)
(102.389 93.1258 -19.2957)
(-11.5927 43.3337 3.58445)
(80.9441 29.7188 12.0919)
(24.2536 7.46659 3.19858)
(65.2884 4.68493 4.06591)
(37.6583 -0.289958 0.944377)
(57.522 2.73452 1.66621)
(45.5013 0.849155 0.570841)
(55.9454 2.92633 1.18532)
(51.7606 1.37014 0.629658)
(57.5834 1.75483 1.1653)
(56.3533 0.238684 0.792587)
(59.0526 0.0558464 1.09166)
(58.3541 -0.521772 1.16686)
(58.8723 -0.246873 1.34571)
(57.4129 -0.387932 1.40097)
(58.6331 1.29368 1.47238)
(60.0949 1.92292 1.21912)
(58.4524 68.4558 47.3617)
(-34.624 32.1229 -13.3179)
(113.561 8.46636 7.23423)
(25.4834 -7.54538 10.9042)
(89.2664 -5.15799 20.6278)
(44.047 -2.33133 4.87394)
(76.2967 -4.59512 2.46113)
(53.6658 -2.22989 -1.6728)
(67.0459 -3.65004 -1.09213)
(54.7115 -2.03134 -2.00377)
(61.1509 -2.66684 -1.49931)
(55.9198 -1.87317 -2.02086)
(59.9263 -2.27158 -1.7196)
(58.4174 -2.14592 -1.86898)
(60.8659 -2.22726 -1.09657)
(60.5429 -1.80378 -0.677316)
(61.5755 -1.2424 0.286859)
(61.196 -0.675443 1.13792)
(63.3304 2.15893 2.40566)
(66.2819 2.69142 2.34922)
(60.3897 182.79 -52.7621)
(-183.51 31.7577 8.52712)
(109.848 48.7967 0.40206)
(35.6603 30.4176 0.821652)
(103.225 19.0023 -3.70886)
(69.9481 6.54151 -1.56369)
(95.0411 2.93708 -1.09819)
(78.813 3.75165 -0.476231)
(91.3858 6.23835 0.967399)
(85.2477 6.81956 0.662552)
(92.1218 6.28141 1.1548)
(89.9206 4.59318 0.505407)
(92.625 2.23165 0.626012)
(90.1004 0.0727811 0.15474)
(88.9536 -2.53048 0.0507948)
(84.168 -3.49693 -0.244284)
(81.9561 -2.34292 -0.371111)
(78.3973 -1.26506 -0.508301)
(78.0287 3.21135 0.377736)
(85.4711 5.21227 1.24927)
(531.621 -362.937 74.214)
(79.9473 -109.897 55.6365)
(199.967 -47.6135 45.1453)
(23.7148 -3.99594 17.076)
(109.107 -15.3198 14.7344)
(57.3567 -10.0543 4.68973)
(89.4963 -10.0893 1.88663)
(72.9726 -8.00417 -3.34114)
(81.735 -6.0216 -3.83837)
(74.0634 -5.01398 -5.00809)
(75.5128 -3.69037 -4.07088)
(71.4033 -2.92405 -3.93319)
(71.5347 -1.46631 -2.7681)
(69.0841 -0.119965 -2.30046)
(68.5094 1.92179 -1.82753)
(64.5558 3.17725 -1.55789)
(60.642 3.19908 -0.776114)
(54.6031 1.72614 -0.755809)
(54.0212 -0.34328 -0.846009)
(55.9826 -1.14748 -0.545876)
(-5.57771 -182.683 -76.6668)
(3.60191 74.6565 16.3611)
(105.161 13.1599 -3.83858)
(-3.95779 37.1129 -16.6292)
(71.2616 15.2643 -0.301089)
(21.8383 9.17557 -1.18881)
(58.8985 5.42547 3.71064)
(42.9599 0.661344 -0.0734854)
(56.7917 0.649713 0.820186)
(50.422 -0.77576 0.0203512)
(54.7473 -0.468312 0.923472)
(51.4018 -0.668112 0.806121)
(52.5808 0.28471 1.11509)
(51.245 1.06477 0.606255)
(51.5626 2.12791 -0.0162059)
(49.9023 2.73648 -0.41334)
(49.1048 2.63272 -0.326914)
(47.3943 1.99047 -0.12885)
(48.2013 0.525307 0.301016)
(50.1824 -0.132998 1.07907)
(-3.00201 -47.9932 -163.965)
(-67.3349 -27.4361 32.8067)
(92.5462 -31.4001 17.1454)
(-10.194 0.787676 -1.68997)
(67.7282 -9.28229 0.893228)
(7.87415 -1.68409 -3.80715)
(46.6512 -8.37388 1.19578)
(27.461 -6.38144 0.259335)
(46.4101 -5.91496 2.35871)
(41.3172 -2.72736 1.40833)
(48.0881 -0.619833 1.85054)
(45.6546 1.91595 1.41711)
(47.7203 3.35465 1.09971)
(45.9416 4.19337 0.491068)
(46.22 4.0901 0.189294)
(44.9993 4.02708 -0.00897304)
(44.7265 3.36862 0.118813)
(43.6248 2.56652 0.367313)
(44.921 1.74898 0.776207)
(47.0759 1.07484 1.33135)
(10.3327 -8.98626 -131.493)
(-111.478 -2.86227 1.11633)
(59.6612 -5.45925 4.28138)
(-7.05203 25.696 0.678973)
(57.3196 10.0707 2.31334)
(13.4694 7.88808 -3.46079)
(43.6137 -4.84068 0.0341959)
(27.6131 -4.65846 -0.764418)
(41.7979 -5.67258 0.760091)
(36.3239 -2.41 0.434576)
(42.4928 -0.461269 0.92983)
(40.3848 2.04233 0.227213)
(42.4739 3.00538 0.394993)
(41.6329 3.68579 0.23246)
(42.4614 3.72702 0.175318)
(41.7994 3.80041 0.0708224)
(41.6336 3.51122 0.247235)
(40.7236 3.18445 0.392886)
(41.939 2.83011 0.664874)
(44.6747 1.89467 1.2593)
(53.1734 -63.4501 -179.128)
(-57.7803 -46.6536 7.12613)
(72.036 -33.075 7.72503)
(-9.76146 -2.23491 2.581)
(56.9044 -7.53471 6.02743)
(9.54736 -5.30647 -1.49538)
(43.0063 -18.5147 3.23266)
(24.0449 -10.9766 0.588539)
(39.2796 -12.6227 2.34561)
(33.4621 -4.96904 0.585691)
(40.0113 -3.0421 0.712288)
(37.8793 1.23081 0.0319086)
(40.5874 2.3171 0.0695032)
(39.469 3.91332 -0.0231223)
(40.4543 3.99706 -0.0104013)
(39.7953 4.24504 -0.0633268)
(39.7158 3.9958 0.13278)
(39.0027 3.58963 0.347855)
(40.496 3.29807 0.550856)
(44.0039 2.17787 1.18431)
(74.1591 -126.066 -102.453)
(-43.6966 -1.30895 -16.8235)
(86.5472 8.01334 -0.877864)
(27.7659 23.1329 2.74941)
(76.8617 14.4552 9.62792)
(37.6732 6.29059 4.71887)
(57.257 -7.79557 7.67758)
(42.2656 -6.72267 4.06736)
(45.7011 -8.24082 3.27204)
(38.5334 -4.28282 0.955)
(39.54 -2.39372 0.276255)
(36.5819 0.726474 -0.131093)
(37.5114 1.80946 -0.17103)
(36.7418 3.50382 -0.123736)
(37.3469 3.5502 -0.0742259)
(37.0957 3.90891 -0.0178196)
(37.1784 3.81585 0.196477)
(37.031 3.60506 0.37294)
(38.7506 3.14069 0.465816)
(43.0166 1.91888 1.27058)
(157.333 29.1669 -99.6024)
(-8.9439 -38.8679 -35.2317)
(51.3742 -8.55123 -27.3229)
(-27.7231 2.70232 -2.29586)
(54.8128 8.93901 4.11659)
(5.44225 12.1632 3.22691)
(38.5053 -12.4434 6.45743)
(22.044 2.03244 3.12819)
(32.5979 -6.62821 2.30205)
(27.0491 0.676709 0.952092)
(31.9772 -1.92334 0.222949)
(30.6626 2.16033 -0.0416318)
(33.5112 1.34606 -0.258835)
(32.9241 3.20245 -0.21416)
(34.3273 3.17915 -0.0454719)
(34.558 3.6215 -0.0212209)
(34.9743 3.32592 0.251879)
(35.1705 3.01928 0.408158)
(37.1294 2.39374 0.51307)
(41.8578 1.29815 1.45586)
(285.897 -120.624 -33.9814)
(12.7792 -25.2602 -32.1331)
(102.786 -28.1254 -4.64087)
(17.1848 -22.9332 -4.81533)
(75.1564 -17.2241 4.0606)
(43.8595 12.8132 2.26)
(60.9071 0.925094 5.48063)
(37.3083 -2.37385 5.00285)
(35.71 -1.32176 3.33315)
(29.9957 -2.91775 2.16911)
(31.3206 -0.58107 0.19517)
(30.5733 0.444141 -0.450023)
(32.2696 2.83135 -0.637109)
(32.363 4.23502 -0.461878)
(30.8426 1.80993 -0.369268)
(32.1316 2.13123 -0.184072)
(32.16 2.43519 -0.0436984)
(32.5491 2.29793 0.254051)
(34.5312 1.52378 0.507665)
(39.074 0.79159 1.48936)
(137.691 190.809 -24.1)
(-13.0683 74.1997 -40.0025)
(74.7168 -12.733 -25.7396)
(-3.50736 -6.683 -6.56599)
(44.752 -2.20875 2.10096)
(23.5624 14.2547 2.20912)
(47.7312 16.6467 3.18651)
(40.5209 12.2791 1.29556)
(36.8441 5.12064 3.19697)
(33.0849 0.15807 3.55175)
(31.3902 0.229145 1.23056)
(30.1662 -0.388938 -0.245708)
(31.0909 0.507299 -0.310566)
(32.7043 1.78022 -0.355876)
(31.5669 4.33262 -0.254888)
(29.9955 0.857241 -0.12963)
(30.6823 1.31565 0.159862)
(30.7579 1.01247 0.379199)
(32.7141 0.815719 0.566185)
(37.5137 0.303166 1.52566)
(149.584 43.4641 135.523)
(52.5067 -15.4603 -30.5132)
(96.2809 -12.7138 -40.0538)
(34.147 -18.0608 -18.8713)
(61.7993 -8.73227 -3.65033)
(45.7501 2.32084 -0.301771)
(53.3856 8.65178 0.624817)
(52.6459 13.8955 -1.4829)
(44.7392 8.76758 2.4864)
(36.9256 6.74109 3.93502)
(32.5949 2.21213 0.558175)
(30.7066 -2.15159 -0.477553)
(32.3433 -3.60887 -0.40509)
(33.9174 -2.27522 -0.279092)
(33.1862 -0.198064 0.0425103)
(30.5816 0.328594 0.157964)
(30.6139 0.465135 0.143144)
(30.7989 0.496657 0.239347)
(32.7788 -0.00970539 0.207986)
(38.1928 -0.372995 1.30238)
(105.676 112.439 -28.811)
(-67.9785 -22.6909 -3.3759)
(75.1846 31.1437 -3.68528)
(-18.0015 5.64774 -3.25774)
(42.2588 22.0951 2.77868)
(16.8462 4.16726 -1.78845)
(39.1866 10.1893 -1.24407)
(49.4987 11.0821 -2.86099)
(48.6883 15.1 -0.319734)
(43.7913 16.698 -0.683499)
(37.6366 13.1723 -1.01533)
(32.3751 -3.84637 -2.38519)
(38.385 -6.5678 -0.0732099)
(38.9244 -2.63818 -0.100675)
(35.6459 -0.568752 0.279098)
(31.8837 -0.654244 0.136139)
(31.4316 -0.39467 0.0859312)
(31.5748 -1.09478 0.283019)
(33.6724 -1.72681 0.404485)
(39.0272 -1.66648 1.3831)
(115.731 -9.47116 24.3016)
(-109.882 -46.8914 -37.854)
(73.132 -26.1548 -24.2208)
(-48.2098 -15.0777 1.69362)
(39.914 -5.51657 -2.82994)
(8.45655 -10.9576 -2.15477)
(45.1509 -14.371 -0.265382)
(55.3364 1.76404 -2.04674)
(58.0474 13.2306 -3.88015)
(60.3068 24.1291 -1.72964)
(68.7315 24.4596 -2.70467)
(60.3558 -3.36937 -1.49867)
(49.0335 -9.39707 2.65305)
(42.1968 0.151882 0.884777)
(37.088 1.49515 0.0910571)
(31.247 -0.0391333 0.337728)
(30.9302 -0.874927 0.320515)
(30.3473 -1.44659 0.688143)
(32.3053 -2.19506 0.744134)
(37.1336 -2.00234 1.58019)
(205.262 62.6039 -73.2267)
(9.3903 19.5283 6.83343)
(107.366 0.510689 14.1382)
(-5.02099 8.57555 1.23458)
(68.2137 -0.796463 2.7585)
(14.3586 -38.296 1.019)
(43.2887 -12.3753 1.75721)
(25.3771 -5.31593 -1.66896)
(51.1963 2.7719 -1.69088)
(57.3481 11.1727 -1.87517)
(72.6155 11.5256 6.99208)
(62.5802 7.92907 13.8857)
(46.7875 9.26746 5.51211)
(35.7275 6.1378 1.39945)
(29.7988 3.21294 0.676389)
(30.1055 0.276947 0.372862)
(28.9333 -0.338225 0.291621)
(28.3805 -1.7296 0.42135)
(30.1243 -2.54351 0.393599)
(34.7424 -2.57523 1.41932)
(313.963 -74.9561 -182.596)
(36.4446 -53.4171 -46.3581)
(94.9591 2.72214 -21.307)
(-28.8432 -2.94064 -5.10101)
(61.2069 -15.8881 1.46228)
(-8.72219 -23.0786 0.862516)
(31.1227 18.3573 0.280459)
(-2.26934 -24.8685 2.67516)
(19.2161 8.01874 -2.63176)
(4.74949 -4.23681 1.3559)
(20.5964 15.9018 -0.576898)
(17.5921 9.40664 1.37064)
(27.7712 11.5907 -0.0295051)
(26.1159 4.54802 -0.150025)
(30.0974 4.01602 -0.449176)
(28.2481 1.01683 -0.6373)
(29.6259 -0.0869194 -0.399057)