/*--------------------------------*- C++ -*----------------------------------*\
  =========                 |
  \\      /  F ield         | OpenFOAM: The Open Source CFD Toolbox
   \\    /   O peration     | Website:  https://openfoam.org
    \\  /    A nd           | Version:  10
     \\/     M anipulation  |
\*---------------------------------------------------------------------------*/
FoamFile
{
    format      ascii;
    class       volScalarField;
    location    "0.1";
    object      k_0;
}
// * * * * * * * * * * * * * * * * * * * * * * * * * * * * * * * * * * * * * //

dimensions      [0 2 -2 0 0 0 0];

internalField   nonuniform List<scalar> 
12920
(
0.00113414
0.00107092
0.00106014
0.00104008
0.00102125
0.00101276
0.00101149
0.00101139
0.00101139
0.00101139
0.00101139
0.00101102
0.00101138
0.00101134
0.00101139
0.00101139
0.00101137
0.00101139
0.00101126
0.0010113
0.00114437
0.00136386
0.00120626
0.00107523
0.00101466
0.00101155
0.0010114
0.00101139
0.00101139
0.0010113
0.00101139
0.00101129
0.00101139
0.00101139
0.00101139
0.00101139
0.00101139
0.00101139
0.00101126
0.00101133
0.00110086
0.00130578
0.00110008
0.00103577
0.00101512
0.00101195
0.00101146
0.00101139
0.00101139
0.00101134
0.00101139
0.00101135
0.00101139
0.00101139
0.00101139
0.00101139
0.00101139
0.00101139
0.00101127
0.00101136
0.00142823
0.00136543
0.0011401
0.00102612
0.00101488
0.00101157
0.00101137
0.00101138
0.00101138
0.00101134
0.00101139
0.00101133
0.00101139
0.00101139
0.00101139
0.00101139
0.00101139
0.00101139
0.00101128
0.00101137
0.00123628
0.00112199
0.0011121
0.00106449
0.00102435
0.00101264
0.00101118
0.0010113
0.00101134
0.00101118
0.00101138
0.00101139
0.00101139
0.00101139
0.00101139
0.00101139
0.00101135
0.00101137
0.0010113
0.00101138
0.00106887
0.00102705
0.00102422
0.00101534
0.00101203
0.00101147
0.00101143
0.00101139
0.00101137
0.00101138
0.00101138
0.00101136
0.00101138
0.00101138
0.00101138
0.00101139
0.00101136
0.00101134
0.00101132
0.00101139
0.00104844
0.00103208
0.00103031
0.00101617
0.00101229
0.00101141
0.00101324
0.00101165
0.00101044
0.00101081
0.00101067
0.00101085
0.00101087
0.00101095
0.00101124
0.00101137
0.00101134
0.00101131
0.00101136
0.00101139
0.00107983
0.00109136
0.00108444
0.00104109
0.00101602
0.00101165
0.0010166
0.00102186
0.00102234
0.00102232
0.00102248
0.00102248
0.00102254
0.00102252
0.000992916
0.0010073
0.00101065
0.00101121
0.00101138
0.00101139
0.00119364
0.00117396
0.00111553
0.00105305
0.00101739
0.00101809
0.0010235
0.0010435
0.00104476
0.00104477
0.00104474
0.00104472
0.00104473
0.00104478
0.00100278
0.000993318
0.00100751
0.00101068
0.00101131
0.00101138
0.00102308
0.00124786
0.00122751
0.00104406
0.00101284
0.00101779
0.00102427
0.00104479
0.00104661
0.00104663
0.00104647
0.00104664
0.00104669
0.00104669
0.000990982
0.000990528
0.00100703
0.00101065
0.00101127
0.00101138
0.0010825
0.00126156
0.00122551
0.00105117
0.00101785
0.00101877
0.00102394
0.00104449
0.00104662
0.00104649
0.00104654
0.00104654
0.0010465
0.00104655
0.000990826
0.000990531
0.00100707
0.00101071
0.00101123
0.00101138
0.00114826
0.00141636
0.00131429
0.00104555
0.00101452
0.00101732
0.00102211
0.00104425
0.00104668
0.0010467
0.00104669
0.00104667
0.00104662
0.00104669
0.00099201
0.000993094
0.00100757
0.0010108
0.00101121
0.00101136
0.00103622
0.00141827
0.00134637
0.0011062
0.0010241
0.00101119
0.00101661
0.00102198
0.001022
0.00102201
0.00102212
0.00102221
0.0010223
0.00102238
0.000992526
0.00100735
0.00101075
0.00101131
0.00101126
0.00101132
0.00169207
0.00147582
0.00159908
0.00115407
0.00102424
0.00101246
0.00101248
0.00101115
0.00101066
0.00101083
0.00101077
0.00101088
0.00101087
0.00101088
0.00101114
0.00101133
0.00101138
0.00101139
0.00101127
0.00101128
0.00113714
0.00111372
0.00110318
0.00105109
0.0010175
0.00101195
0.00101143
0.00101138
0.00101138
0.00101138
0.00101138
0.00101138
0.00101138
0.00101138
0.00101138
0.00101139
0.00101139
0.00101139
0.00101128
0.00101126
0.0012803
0.00122501
0.00107432
0.0010245
0.00101349
0.00101163
0.00101141
0.00101128
0.00101139
0.00101139
0.00101139
0.00101139
0.00101139
0.00101139
0.00101139
0.00101139
0.00101139
0.00101139
0.0010113
0.00101126
0.00156338
0.00144454
0.00112817
0.00102984
0.00101397
0.00101164
0.0010114
0.00101138
0.00101139
0.00101139
0.00101139
0.00101139
0.00101139
0.00101139
0.00101139
0.00101139
0.00101139
0.00101139
0.00101133
0.00101126
0.00130474
0.00156375
0.00129811
0.0010619
0.00101728
0.00101182
0.00101141
0.00101135
0.00101138
0.00101139
0.00101139
0.00101139
0.00101139
0.00101139
0.00101139
0.00101139
0.00101139
0.00101139
0.00101134
0.00101127
0.00116299
0.00143179
0.00115579
0.00102699
0.0010131
0.00101149
0.00101139
0.00101132
0.00101138
0.00101139
0.00101139
0.00101139
0.00101139
0.00101139
0.00101139
0.00101139
0.00101139
0.00101139
0.00101136
0.00101127
0.00103347
0.00102711
0.00101765
0.00101186
0.00101143
0.00101138
0.00101138
0.00101139
0.00101139
0.00101139
0.00101139
0.00101139
0.00101139
0.00101139
0.00101139
0.00101139
0.00101139
0.00101139
0.00101132
0.00101127
0.00122347
0.00110018
0.00106337
0.00101877
0.00100952
0.00100577
0.00100487
0.00100455
0.0010045
0.00100437
0.00100436
0.00100423
0.00100434
0.00100437
0.0010044
0.00100443
0.00100446
0.00100448
0.00100445
0.0010045
0.00119309
0.00184533
0.0018975
0.00165855
0.00134968
0.0010066
0.000975288
0.000937451
0.000933176
0.000925056
0.000923441
0.000921169
0.000920363
0.000919566
0.000919123
0.000918797
0.00091853
0.000918507
0.000920043
0.00092012
0.00122678
0.00206352
0.00213486
0.00167805
0.00126385
0.00107391
0.000968884
0.000944881
0.000929464
0.000924692
0.000921693
0.0009202
0.000919402
0.000918863
0.000918524
0.000918342
0.000918191
0.000918264
0.000919861
0.000920042
0.00164281
0.00223765
0.00210071
0.00143467
0.00123595
0.00100475
0.000990578
0.00093543
0.000934959
0.000923223
0.000922558
0.000920057
0.00091956
0.000918901
0.000918618
0.000918399
0.000918255
0.00091832
0.000919909
0.000920069
0.00108001
0.00160667
0.00212304
0.00155733
0.00121202
0.00100055
0.00095199
0.000933456
0.000925869
0.000923009
0.000921046
0.000920035
0.00091936
0.000918883
0.000918541
0.000918429
0.000918289
0.00091836
0.00091994
0.000920093
0.00117758
0.00169553
0.00188677
0.00144034
0.00119495
0.000984237
0.00101289
0.000937407
0.000933974
0.000922974
0.000922148
0.000920105
0.00091952
0.000919024
0.000918751
0.000918529
0.000918399
0.000918428
0.000919988
0.00092012
0.00121646
0.00157287
0.00175624
0.0016291
0.00133036
0.00101431
0.000966894
0.000960259
0.000928943
0.000926208
0.000921408
0.000920657
0.000919581
0.000919095
0.00091854
0.000918618
0.00091846
0.000918478
0.000920022
0.000920143
0.00128721
0.0014092
0.00172762
0.00188357
0.00135073
0.00113269
0.00112121
0.00105361
0.000943686
0.000933855
0.000922602
0.000922218
0.000920241
0.00092043
0.000923209
0.000919941
0.000918954
0.000918559
0.000920069
0.000920156
0.00146927
0.00163023
0.0019257
0.00188716
0.00124601
0.0011823
0.00117706
0.0010592
0.000947972
0.000960533
0.000946643
0.000950015
0.000946235
0.000946023
0.000937085
0.000924412
0.000920108
0.000918782
0.000920171
0.000920183
0.0013988
0.00167704
0.0016228
0.00156833
0.00113273
0.00109008
0.00113566
0.000942164
0.00092614
0.000923494
0.000921894
0.000920568
0.000919681
0.000919283
0.000919379
0.000919461
0.000918744
0.000918549
0.00092007
0.00092016
0.00127723
0.00229808
0.00224815
0.00149736
0.00117906
0.00113091
0.00107456
0.000958198
0.000927214
0.000927174
0.000929726
0.000927605
0.000922793
0.000919586
0.000919285
0.000919104
0.000918696
0.00091852
0.00092006
0.000920147
0.00111992
0.00205137
0.00234884
0.00183589
0.00118578
0.00105043
0.00120483
0.000955587
0.000927159
0.000923828
0.000922285
0.000921309
0.000920744
0.000920111
0.000927839
0.000923886
0.000919729
0.000918691
0.000920077
0.000920131
0.00107932
0.00203682
0.00238504
0.00227443
0.00139175
0.0010935
0.00114083
0.000994918
0.000940212
0.000927305
0.000925841
0.000924734
0.000924538
0.00092468
0.000922407
0.000919915
0.000918708
0.000918458
0.000919962
0.000920087
0.00114413
0.00209738
0.00265258
0.00224602
0.00124177
0.00110227
0.000975348
0.000933897
0.000927895
0.000921645
0.000920474
0.000919336
0.000918971
0.000918624
0.000918728
0.000918551
0.000918382
0.00091836
0.000919884
0.000920035
0.00119304
0.00182741
0.00200772
0.00172137
0.00124114
0.00106317
0.000953219
0.000947379
0.00092669
0.000923664
0.000920247
0.000919584
0.000918889
0.000918729
0.000918546
0.000918414
0.000918256
0.000918294
0.000919825
0.000919992
0.00173636
0.00187237
0.00199109
0.00149476
0.00115482
0.000989441
0.000946813
0.00093049
0.000922787
0.000920755
0.000919434
0.000919039
0.000918688
0.000918512
0.000918361
0.000918243
0.000918168
0.000918226
0.000919777
0.000919955
0.00127289
0.00157505
0.00171461
0.00170985
0.00121812
0.00100819
0.000939388
0.000931746
0.000922771
0.000921673
0.000919648
0.000919289
0.000918724
0.000918533
0.000918353
0.00091823
0.000918132
0.000918191
0.000919739
0.000919925
0.00136216
0.00216349
0.00189626
0.00170892
0.00124022
0.00102974
0.000951303
0.000933466
0.000924191
0.000921148
0.000919606
0.000918971
0.000918595
0.000918392
0.00091826
0.000918158
0.000918083
0.000918148
0.000919705
0.0009199
0.00128856
0.00212816
0.00204139
0.00132328
0.00121749
0.000985147
0.000957033
0.00093019
0.000925031
0.000921261
0.000919892
0.000919221
0.000918775
0.000918569
0.00091839
0.000918271
0.00091815
0.000918201
0.000919713
0.000919898
0.00106592
0.00105932
0.00108389
0.00101619
0.00101356
0.00100429
0.00100336
0.00100353
0.00100362
0.00100401
0.00100412
0.00100426
0.00100432
0.00100437
0.0010044
0.00100443
0.00100444
0.00100447
0.00100447
0.00100447
0.00108033
0.00107083
0.00103313
0.00100831
0.00100525
0.00100463
0.00100454
0.00100449
0.00100448
0.00100437
0.00100436
0.00100423
0.00100434
0.00100437
0.0010044
0.00100443
0.00100446
0.00100448
0.00100445
0.0010045
0.00136672
0.00186252
0.00185672
0.00158933
0.0012284
0.000998723
0.000971268
0.000937355
0.000932998
0.000925038
0.00092343
0.000921165
0.000920361
0.000919564
0.000919121
0.000918795
0.000918528
0.000918505
0.000920041
0.000920117
0.00200113
0.0022972
0.00228974
0.00172796
0.00118814
0.00103625
0.000962347
0.00094315
0.00092926
0.000924625
0.000921682
0.000920195
0.0009194
0.000918861
0.000918522
0.00091834
0.000918189
0.000918262
0.000919859
0.000920039
0.00160944
0.00240958
0.00229289
0.00170702
0.00128491
0.000995266
0.000993431
0.000935195
0.000935079
0.000923216
0.000922558
0.000920054
0.000919559
0.000918899
0.000918616
0.000918398
0.000918253
0.000918318
0.000919907
0.000920066
0.00125166
0.002021
0.00231084
0.00203094
0.00123543
0.000999806
0.000950534
0.000933011
0.000925807
0.000922985
0.000921041
0.000920031
0.000919358
0.000918881
0.000918539
0.000918427
0.000918288
0.000918358
0.000919938
0.00092009
0.00137604
0.00203713
0.00195894
0.00139592
0.00116686
0.000979818
0.00101178
0.000937418
0.000933958
0.000922957
0.000922141
0.0009201
0.000919517
0.000919022
0.000918749
0.000918527
0.000918397
0.000918426
0.000919986
0.000920117
0.00126496
0.00213182
0.00201977
0.00146382
0.00126223
0.000997775
0.000965778
0.000959727
0.000928953
0.000926191
0.000921399
0.000920655
0.000919576
0.000919104
0.00091853
0.000918609
0.000918454
0.000918475
0.00092002
0.000920141
0.0011543
0.00196581
0.00218046
0.00197992
0.00125188
0.00113186
0.00112181
0.00105514
0.000943617
0.000933818
0.000922595
0.00092221
0.00092024
0.000920416
0.00092319
0.000919914
0.000918942
0.000918552
0.000920065
0.000920153
0.00131049
0.00180138
0.00212058
0.00202241
0.0013439
0.00128901
0.00120393
0.00106192
0.000947926
0.000960457
0.0009466
0.000949954
0.000946195
0.000945919
0.000937003
0.000924427
0.000920068
0.000918763
0.00092016
0.000920179
0.00146151
0.00200602
0.00211346
0.00162874
0.00110289
0.00107762
0.00112939
0.000942001
0.000926209
0.000924603
0.00092486
0.000921833
0.000920717
0.00091925
0.000919365
0.000919465
0.000918718
0.000918538
0.000920067
0.000920158
0.00175177
0.00223279
0.00224643
0.00162193
0.00115432
0.00115991
0.00109882
0.000958265
0.000927322
0.00108275
0.00152259
0.00122429
0.00102677
0.000920408
0.00091926
0.000919085
0.000918676
0.000918512
0.000920056
0.000920144
0.00131249
0.0021019
0.00239591
0.00200511
0.00123631
0.00107591
0.00120502
0.000955633
0.00092717
0.000924201
0.000922487
0.000921849
0.000920911
0.000920128
0.000927814
0.000923874
0.000919684
0.000918669
0.000920066
0.000920127
0.0014777
0.00234258
0.00247917
0.00246334
0.00160525
0.00115739
0.00116539
0.000996217
0.000940245
0.000927298
0.000925835
0.000924734
0.000924541
0.0009247
0.000922365
0.000919886
0.000918693
0.000918449
0.000919958
0.000920084
0.00110292
0.0022217
0.00270128
0.00246951
0.00141682
0.00113504
0.000972119
0.000933691
0.000927829
0.000921663
0.000920469
0.000919337
0.000918964
0.000918623
0.000918725
0.000918548
0.000918376
0.000918357
0.000919882
0.000920032
0.00132816
0.00189981
0.00230945
0.00216297
0.00146969
0.001108
0.000956764
0.000948152
0.000926678
0.000923668
0.000920241
0.00091958
0.000918885
0.000918724
0.000918544
0.000918411
0.000918254
0.000918292
0.000919823
0.000919989
0.00191711
0.00208914
0.0021776
0.0014958
0.00112529
0.000989502
0.000943758
0.0009303
0.000922616
0.000920734
0.000919422
0.000919036
0.000918686
0.00091851
0.000918359
0.000918241
0.000918166
0.000918224
0.000919775
0.000919952
0.00133098
0.00179481
0.00209856
0.00212443
0.0013675
0.00103786
0.000942409
0.000932458
0.000922789
0.000921682
0.000919644
0.000919284
0.000918722
0.000918531
0.000918351
0.000918228
0.00091813
0.000918189
0.000919737
0.000919923
0.00115807
0.00211177
0.00228364
0.00186823
0.00118844
0.00102406
0.000947885
0.000933233
0.000924017
0.000921129
0.000919595
0.000918968
0.000918593
0.000918391
0.000918258
0.000918156
0.000918081
0.000918146
0.000919703
0.000919898
0.00116451
0.00204406
0.00207639
0.00134555
0.0011645
0.000982818
0.000954762
0.000930112
0.000924944
0.000921254
0.000919886
0.000919219
0.000918773
0.000918567
0.000918388
0.00091827
0.000918148
0.0009182
0.000919711
0.000919896
0.00108899
0.00110475
0.00112401
0.00102153
0.00101239
0.00100422
0.00100333
0.00100352
0.00100361
0.00100401
0.00100412
0.00100426
0.00100432
0.00100437
0.0010044
0.00100443
0.00100444
0.00100447
0.00100447
0.00100447
0.0011509
0.00106075
0.00102508
0.00100835
0.00100469
0.00100454
0.00100453
0.00100446
0.00100447
0.00100437
0.00100436
0.00100423
0.00100434
0.00100437
0.0010044
0.00100443
0.00100446
0.00100448
0.00100445
0.0010045
0.00194932
0.00182763
0.00189249
0.00177317
0.00124349
0.000995593
0.000970605
0.000937193
0.00093308
0.000925039
0.000923439
0.000921167
0.000920363
0.000919566
0.000919124
0.000918798
0.000918531
0.000918508
0.000920046
0.000920121
0.00224669
0.00230799
0.00236857
0.00191212
0.00117031
0.00103832
0.000962247
0.00094328
0.000929286
0.000924631
0.000921687
0.000920197
0.000919402
0.000918863
0.000918525
0.000918343
0.000918193
0.000918266
0.000919864
0.000920043
0.001604
0.00227296
0.00240988
0.0019658
0.00120402
0.00100067
0.000987714
0.000935202
0.000934921
0.000923216
0.000922557
0.000920057
0.000919562
0.000918902
0.000918618
0.0009184
0.000918256
0.000918321
0.000919912
0.00092007
0.00139211
0.00204528
0.00235716
0.00225465
0.00138025
0.00103334
0.000951275
0.00093428
0.000926034
0.000923058
0.000921071
0.000920038
0.000919364
0.000918883
0.000918546
0.000918432
0.000918291
0.000918363
0.000919941
0.000920094
0.00198616
0.00233623
0.00232378
0.00157266
0.00122033
0.000986681
0.00101665
0.000937511
0.000934086
0.000922966
0.000922152
0.000920114
0.000919533
0.000919036
0.000918751
0.000918534
0.000918401
0.000918432
0.00091999
0.000920121
0.00222247
0.00221156
0.00224952
0.00157763
0.00132502
0.00100637
0.00096671
0.000960546
0.000929122
0.000926228
0.00092141
0.000920658
0.000919584
0.00091909
0.00091863
0.000918676
0.000918492
0.000918486
0.000920025
0.000920145
0.00202423
0.00215428
0.0022426
0.00192925
0.00121187
0.00112672
0.00111961
0.00105228
0.000943704
0.000933791
0.000922584
0.000922201
0.000920231
0.000920401
0.000923165
0.000920134
0.000919034
0.000918615
0.000920099
0.00092016
0.00136641
0.00185547
0.00223704
0.00212584
0.00129772
0.00122826
0.00118703
0.00106143
0.000947891
0.00096047
0.000946637
0.000949981
0.00094618
0.000945923
0.000936986
0.000924498
0.000920366
0.000918933
0.00092025
0.000920203
0.00151992
0.00223745
0.00232804
0.00155159
0.00116165
0.00109822
0.0011501
0.000942143
0.000926137
0.000923977
0.000923463
0.000920781
0.00092007
0.000919283
0.000919366
0.00091945
0.000918859
0.000918612
0.000920085
0.000920161
0.00150793
0.00189901
0.0023056
0.00220008
0.00143208
0.00123085
0.00109049
0.000958318
0.000927284
0.000965019
0.000991915
0.00103793
0.000949513
0.000919717
0.000919271
0.000919087
0.000918752
0.000918559
0.000920091
0.000920152
0.00161548
0.00194959
0.00235907
0.00205218
0.00127242
0.00108348
0.0012109
0.000954336
0.000927133
0.000924109
0.000922432
0.000921492
0.000920716
0.00092011
0.000927808
0.000923916
0.000919992
0.000918831
0.000920167
0.000920151
0.00134515
0.00232442
0.00238969
0.00220285
0.00155056
0.00111987
0.00114374
0.000989404
0.000940203
0.000927291
0.000925833
0.000924733
0.00092454
0.000924703
0.000922367
0.000920121
0.000918817
0.000918523
0.000919992
0.00092009
0.00207408
0.00246998
0.00248233
0.00212211
0.00140282
0.00113332
0.000984736
0.000934237
0.000928013
0.000921636
0.000920473
0.000919334
0.000918978
0.000918625
0.000918735
0.000918562
0.000918421
0.000918373
0.000919894
0.000920037
0.00136492
0.00193018
0.002271
0.00215577
0.00138933
0.00107219
0.000952773
0.000946642
0.000926482
0.000923614
0.000920234
0.000919584
0.000918884
0.000918752
0.000918553
0.000918417
0.000918258
0.000918297
0.000919827
0.000919996
0.00142191
0.00226247
0.00220283
0.00146418
0.0011999
0.000984626
0.000948794
0.000930164
0.000922804
0.000920727
0.000919429
0.000919037
0.000918688
0.000918512
0.000918362
0.000918244
0.000918169
0.000918227
0.000919778
0.000919959
0.00144507
0.00224083
0.00232296
0.00200679
0.00122412
0.000999135
0.000939295
0.000931294
0.000922735
0.000921647
0.000919643
0.000919285
0.000918724
0.000918533
0.000918353
0.00091823
0.000918132
0.000918191
0.000919739
0.000919929
0.00124118
0.00198419
0.00203035
0.00163429
0.00116999
0.00100855
0.000948659
0.000932648
0.000924105
0.000921113
0.000919601
0.000918969
0.000918595
0.000918393
0.00091826
0.000918159
0.000918083
0.000918148
0.000919706
0.000919904
0.00140152
0.00209331
0.00222379
0.00138125
0.00122665
0.00098537
0.000957744
0.000930183
0.000925047
0.000921258
0.000919892
0.000919221
0.000918775
0.000918569
0.00091839
0.000918272
0.00091815
0.000918202
0.000919714
0.000919902
0.0010803
0.0010764
0.00111733
0.00102369
0.00101495
0.00100441
0.00100343
0.00100355
0.00100362
0.00100401
0.00100412
0.00100426
0.00100432
0.00100437
0.0010044
0.00100443
0.00100444
0.00100447
0.00100447
0.00100447
0.00123849
0.00112047
0.00101839
0.00100648
0.00100494
0.00100493
0.00100455
0.00100554
0.00100557
0.00100707
0.00100725
0.00100738
0.00100742
0.00100701
0.00100657
0.00100604
0.00100571
0.00100539
0.00100492
0.0010046
0.00188982
0.00132386
0.00151293
0.00197993
0.00215083
0.00221534
0.00231819
0.00223202
0.00228362
0.0022348
0.00228141
0.00226846
0.002295
0.00229605
0.00230996
0.00231286
0.00231829
0.00231992
0.00233487
0.00234869
0.00152618
0.00212974
0.00242131
0.00240156
0.00250425
0.00233533
0.00247594
0.0022823
0.00238141
0.00229187
0.00233632
0.00230874
0.00232734
0.00232117
0.00232895
0.00232774
0.00232949
0.0023284
0.00234122
0.0023526
0.00128092
0.00244666
0.00252767
0.00239241
0.002509
0.00244182
0.00244142
0.00233002
0.0023321
0.0022821
0.00231497
0.00229754
0.00231859
0.00231626
0.00232669
0.00232716
0.00232976
0.00232929
0.00234253
0.00235404
0.00251318
0.00261888
0.00256994
0.00249493
0.00254941
0.00234016
0.00251154
0.0022992
0.00240577
0.0023083
0.00235256
0.00232353
0.00233884
0.00233119
0.00233691
0.00233409
0.00233475
0.0023333
0.00234526
0.00235717
0.00208327
0.00264619
0.00243572
0.00234694
0.00246277
0.00244089
0.00245803
0.00232006
0.00234646
0.00229191
0.00232795
0.00231376
0.00233106
0.00232848
0.0023351
0.00233525
0.00233577
0.00233554
0.00234692
0.00235983
0.00219799
0.00250437
0.00254784
0.00250561
0.00253172
0.00249531
0.00253846
0.00233837
0.00242165
0.00232632
0.00235875
0.00233321
0.00234284
0.00233547
0.0023458
0.00234227
0.0023413
0.00233974
0.00234973
0.00236377
0.00134095
0.00223806
0.00246946
0.00247432
0.00246992
0.00244974
0.00194186
0.00120782
0.000987338
0.000981285
0.000958164
0.000962411
0.00095632
0.00096226
0.00192718
0.00225207
0.00232757
0.00234207
0.00235221
0.00236676
0.00144284
0.00207745
0.00244025
0.00241143
0.00251474
0.0022843
0.00162214
0.00107266
0.000948208
0.000960341
0.000946422
0.000949738
0.000945884
0.000945798
0.000945644
0.00191271
0.00225475
0.00233262
0.00235456
0.00237053
0.00144529
0.00220321
0.00246942
0.00233654
0.00250682
0.00182068
0.00124076
0.000944189
0.000926081
0.000923382
0.000922065
0.000920377
0.000919731
0.000919294
0.000920305
0.00192372
0.00225824
0.00233755
0.00235657
0.00237438
0.0013967
0.0018309
0.0023054
0.00240361
0.00259526
0.00227466
0.00140855
0.000960434
0.000927134
0.000924505
0.000924012
0.00092459
0.000921052
0.000919302
0.00092005
0.00192603
0.00226195
0.00234168
0.00235903
0.00237722
0.0015235
0.00190238
0.00237688
0.00248316
0.00252904
0.00186736
0.00130671
0.00095338
0.000927124
0.000923819
0.000922311
0.000921272
0.000920664
0.000920092
0.000930348
0.00191733
0.00226501
0.0023441
0.00236137
0.00237928
0.00172295
0.00232547
0.00251715
0.00236499
0.00240098
0.00251888
0.00206161
0.00108085
0.000945862
0.000928348
0.000927301
0.00092589
0.000925648
0.000929733
0.00193934
0.00227249
0.00234876
0.00236195
0.00236469
0.00238134
0.00139266
0.00234758
0.00249738
0.00238887
0.00246173
0.00246472
0.00246242
0.00238403
0.00240193
0.00237188
0.00237899
0.00236783
0.00236871
0.00236651
0.00237201
0.00237093
0.00236882
0.00236655
0.00236758
0.00238356
0.00168275
0.0022878
0.00244364
0.00243752
0.00245534
0.00242353
0.00255706
0.00246063
0.00248269
0.00241602
0.00241704
0.00239489
0.0023928
0.00238138
0.00237822
0.00237432
0.00237144
0.00236926
0.0023695
0.00238532
0.00233541
0.00243687
0.00251813
0.00243349
0.00252373
0.00234394
0.00252831
0.00233777
0.00241789
0.00236144
0.00239112
0.00237254
0.00238149
0.00237539
0.00237812
0.0023744
0.00237324
0.00237083
0.00237116
0.00238693
0.00133155
0.00226618
0.00249667
0.00242132
0.00247618
0.00233378
0.00254984
0.00239702
0.00247032
0.00239767
0.00241539
0.00238845
0.00239366
0.00238171
0.0023815
0.00237678
0.00237494
0.00237244
0.00237241
0.0023883
0.00120566
0.00191505
0.00242528
0.00254807
0.00257106
0.00239877
0.00253742
0.00234088
0.00242236
0.00235748
0.00239213
0.00237028
0.00238243
0.00237484
0.00237844
0.00237501
0.00237479
0.00237268
0.00237298
0.00238897
0.00114084
0.0016091
0.00237096
0.00237579
0.00253864
0.00229045
0.00249588
0.00230766
0.00242579
0.002363
0.00240173
0.00237538
0.00238676
0.00237629
0.00237911
0.00237492
0.0023746
0.0023725
0.00237313
0.00238943
0.00100822
0.00101398
0.00104875
0.00105697
0.00107704
0.00104186
0.00103754
0.00102092
0.00101823
0.00101166
0.00100995
0.00100783
0.00100706
0.00100644
0.00100609
0.00100573
0.00100553
0.00100523
0.00100511
0.00100476
0.000924914
0.00103177
0.00121925
0.00092466
0.000924875
0.00103772
0.00122157
0.000922535
0.00126325
0.00131383
0.000924848
0.000922674
0.00126635
0.00133249
0.00140484
0.000923634
0.000924016
0.00108915
0.00142724
0.000923754
0.000923858
0.00135536
0.000924984
0.000923859
0.0015482
0.00135232
0.000924824
0.000923924
0.00104172
0.00102435
0.00104228
0.00115178
0.00128192
0.00118978
0.000998732
0.00104566
0.00104447
0.00104647
0.00108734
0.000961133
0.000954771
0.000930454
0.00104612
0.00104659
0.00104667
0.00094799
0.000961199
0.00092837
0.000926306
0.00104596
0.00104667
0.00104665
0.000960228
0.000946914
0.000925987
0.000923394
0.00104617
0.00104665
0.00104668
0.000946331
0.000950358
0.000923669
0.000922167
0.00104625
0.00104664
0.00104664
0.000949658
0.000946609
0.000922691
0.000921332
0.00104638
0.00104666
0.00104667
0.000945823
0.000946243
0.000921808
0.000921086
0.00105852
0.00104667
0.00106401
0.00094566
0.000937905
0.000921009
0.00092142
0.00104286
0.00102477
0.00104269
0.00119171
0.000964527
0.00122489
0.000987346
0.00104648
0.00104457
0.00104654
0.000944272
0.000928759
0.000953281
0.000928598
0.00104665
0.00104664
0.00104655
0.000926114
0.000924354
0.000926701
0.000924304
0.00104645
0.00104641
0.00104579
0.000923367
0.000922443
0.000924079
0.000925037
0.00104666
0.00104631
0.00104661
0.000922042
0.00092075
0.000924841
0.000926385
0.00104667
0.00104635
0.00104642
0.000920389
0.000920078
0.00092606
0.000922204
0.00104668
0.00104663
0.00104667
0.000919714
0.00091946
0.000921151
0.00091929
0.00106439
0.00104655
0.0010648
0.000919297
0.000920202
0.000919183
0.000918846
0.00104225
0.0010239
0.00104159
0.00115228
0.000994871
0.00108012
0.000963926
0.00104658
0.00104415
0.00104659
0.000960254
0.000929724
0.000944839
0.00092746
0.00104667
0.00104666
0.00104664
0.000927227
0.000923959
0.000925938
0.000923575
0.00104636
0.0010466
0.00104646
0.000924374
0.000924046
0.000922632
0.000921603
0.00104667
0.00104643
0.00104654
0.000924217
0.000924803
0.000921372
0.000920636
0.00104629
0.00104661
0.00104668
0.000924949
0.000922351
0.000920185
0.000919723
0.00104667
0.00104668
0.00104668
0.000921152
0.000919466
0.000919595
0.000919292
0.00106477
0.00104669
0.00106458
0.000919326
0.000919053
0.000919163
0.000919358
0.00104126
0.0010215
0.00104024
0.0012201
0.000996262
0.00119307
0.00106744
0.00104659
0.00104091
0.00104473
0.000958979
0.000929997
0.0010136
0.000945473
0.00104669
0.00104274
0.0010459
0.000927194
0.000926455
0.000943103
0.000949411
0.00104668
0.00104344
0.00104573
0.000923809
0.000923395
0.000941358
0.000939966
0.00104668
0.00104347
0.00104622
0.000922328
0.000922197
0.000936444
0.000943114
0.00104657
0.00104388
0.00104634
0.000921288
0.00092158
0.000938408
0.000940775
0.00104666
0.00104405
0.00104656
0.000920678
0.000921172
0.000937398
0.000941246
0.00106403
0.00104429
0.00106036
0.000920116
0.000921317
0.000939308
0.000937346
0.00124851
0.00108765
0.000986605
0.0011804
0.00124371
0.00108912
0.000986976
0.000961191
0.00095155
0.000930453
0.00105835
0.00096098
0.00095182
0.000930443
0.000961624
0.000928404
0.000926314
0.000947919
0.000961584
0.000928406
0.000926393
0.000947283
0.000925963
0.000923426
0.00096047
0.000947175
0.000926256
0.000923616
0.000950618
0.000923353
0.000922575
0.000946642
0.000950655
0.000923656
0.000922503
0.000946897
0.000923014
0.000921368
0.000949991
0.00094688
0.000922357
0.000921482
0.000946565
0.000921928
0.000921048
0.000946196
0.000946506
0.000921986
0.000921056
0.000938359
0.000920963
0.000921188
0.000945936
0.000938468
0.000920943
0.000921143
0.000957763
0.00116572
0.000981448
0.00112914
0.000957329
0.00115914
0.000980816
0.000928791
0.000951651
0.000928455
0.000941958
0.000928775
0.00095159
0.000928368
0.000924436
0.000926804
0.000923936
0.000926164
0.000924685
0.000926666
0.000933065
0.000922676
0.000930761
0.000929798
0.000923992
0.000923827
0.000962641
0.00102638
0.000920991
0.000929841
0.000935121
0.000923507
0.000921436
0.00103621
0.00105873
0.000920094
0.000928274
0.000927454
0.000920787
0.00092079
0.00103462
0.000996437
0.000919486
0.00092345
0.000919675
0.000920094
0.000919479
0.000955274
0.000920662
0.000920195
0.000919326
0.000918787
0.000919287
0.000920199
0.000919686
0.000918926
0.000986774
0.00103276
0.000955641
0.00107802
0.000985004
0.00103575
0.000955533
0.000929592
0.000942206
0.000927447
0.000957822
0.000929584
0.000942063
0.000927489
0.000923927
0.000925967
0.000923682
0.00092739
0.000928861
0.000925992
0.000923822
0.000927032
0.000922662
0.000921728
0.00096086
0.000986247
0.000923139
0.0009225
0.000934145
0.000921405
0.00092094
0.000992178
0.00104273
0.000922726
0.000921866
0.000924733
0.000920524
0.000919665
0.00103763
0.000981991
0.000921026
0.000920421
0.000919689
0.000919565
0.000919387
0.000948248
0.000920632
0.000920113
0.000919326
0.000919109
0.000919249
0.000919343
0.000919605
0.000919112
0.000919131
0.000919392
0.00098527
0.00129314
0.00104965
0.0012069
0.000985014
0.00130006
0.0010489
0.000929957
0.00100288
0.000945217
0.000955202
0.00092998
0.00100266
0.000945339
0.000926479
0.000943022
0.00094963
0.000927164
0.000926417
0.00094307
0.00094961
0.000923441
0.000942103
0.000940252
0.000924093
0.000923999
0.000942125
0.000940242
0.000922306
0.000937151
0.000943301
0.000922448
0.000922726
0.000937191
0.000943265
0.000921639
0.000939085
0.00094096
0.000921515
0.000921654
0.000939059
0.000940947
0.000921144
0.000938027
0.000941404
0.000920705
0.000921199
0.000937976
0.000941383
0.000921148
0.000939807
0.00093776
0.000920121
0.000921106
0.000939711
0.00093783
0.00125198
0.00110596
0.000988806
0.00120011
0.00125137
0.00109924
0.000989254
0.000961253
0.000952318
0.000930456
0.00106143
0.000961214
0.00095249
0.000930421
0.000961636
0.000928395
0.000926448
0.00094792
0.000961629
0.000928371
0.000926444
0.000947189
0.000926575
0.000923784
0.000960459
0.000947182
0.000926544
0.00092381
0.000950634
0.000923575
0.000923154
0.000946603
0.000950615
0.000923577
0.000923135
0.000946876
0.000922722
0.000921494
0.00094997
0.000946861
0.000922736
0.000921491
0.000946519
0.000922079
0.000921029
0.000946204
0.000946503
0.000922091
0.000921035
0.000938503
0.000920874
0.000921144
0.000945929
0.000938494
0.000920878
0.000921149
0.000957349
0.0011649
0.00098103
0.00112967
0.000957429
0.00116511
0.000980928
0.000928778
0.000951627
0.000928281
0.000942065
0.000928726
0.000951557
0.000928257
0.000924936
0.000926802
0.000934491
0.000926203
0.000924993
0.000926772
0.0009351
0.000941979
0.000925234
0.000930492
0.000923929
0.000930264
0.000925523
0.000936577
0.000957978
0.000924316
0.000934435
0.000925323
0.000934901
0.000924716
0.000953301
0.000922166
0.00120956
0.00105629
0.000921863
0.00092221
0.00123276
0.00107043
0.000919468
0.000983129
0.000921723
0.000920814
0.000919478