/*--------------------------------*- C++ -*----------------------------------*\
  =========                 |
  \\      /  F ield         | OpenFOAM: The Open Source CFD Toolbox
   \\    /   O peration     | Website:  https://openfoam.org
    \\  /    A nd           | Version:  10
     \\/     M anipulation  |
\*---------------------------------------------------------------------------*/
FoamFile
{
    format      ascii;
    class       volScalarField;
    location    "0.1";
    object      nut;
}
// * * * * * * * * * * * * * * * * * * * * * * * * * * * * * * * * * * * * * //

dimensions      [0 2 -1 0 0 0 0];

internalField   nonuniform List<scalar> 
12920
(
3.19262e-06
5.81391e-06
4.04745e-06
1.049e-05
5.12686e-06
1.94183e-05
1.42978e-05
7.33008e-05
2.68664e-05
0.000135303
4.39664e-05
0.000108368
6.02092e-05
8.74178e-05
7.13501e-05
7.7661e-05
7.55842e-05
7.90906e-05
9.4899e-05
7.41897e-05
3.34338e-06
6.15197e-06
7.54359e-06
1.02467e-05
1.04286e-05
2.26819e-05
1.95529e-05
6.71386e-05
3.22018e-05
0.000284186
5.19816e-05
0.000156961
6.91109e-05
0.000102157
7.93726e-05
8.5625e-05
8.22019e-05
8.55309e-05
0.000102523
7.99453e-05
2.74844e-06
8.17726e-06
7.02929e-06
1.25151e-05
1.0699e-05
2.88862e-05
1.76214e-05
6.41907e-05
2.96688e-05
0.000103364
4.66932e-05
9.73926e-05
6.33123e-05
8.86635e-05
7.52457e-05
8.16312e-05
8.04147e-05
8.42208e-05
0.000101598
7.93721e-05
3.13427e-06
6.68928e-06
8.69157e-06
1.11789e-05
1.35015e-05
1.91829e-05
2.32079e-05
4.23877e-05
3.96663e-05
0.000160047
6.07978e-05
0.000198058
7.7574e-05
0.000110868
8.42748e-05
8.7916e-05
8.46906e-05
8.72047e-05
0.000104919
8.08984e-05
2.38193e-06
3.94529e-06
1.26612e-05
1.00328e-05
1.49379e-05
2.52439e-05
2.25645e-05
6.53045e-05
3.65549e-05
0.000119848
5.21722e-05
0.000100691
6.75979e-05
8.94863e-05
7.76526e-05
8.21422e-05
8.22144e-05
8.56756e-05
0.000103825
8.02508e-05
1.87642e-06
6.41544e-06
1.42183e-05
1.0511e-05
1.81756e-05
1.55129e-05
2.63275e-05
3.83423e-05
5.51168e-05
0.000120208
7.18266e-05
0.000153869
8.71848e-05
0.000108898
8.81961e-05
8.67237e-05
8.80101e-05
8.87775e-05
0.000108082
8.19264e-05
6.93521e-06
1.22716e-05
1.3587e-05
9.97827e-06
1.58129e-05
2.1368e-05
1.88171e-05
4.02642e-05
4.05317e-05
9.49512e-05
6.22284e-05
0.000101968
7.68178e-05
8.94284e-05
8.34298e-05
8.32346e-05
8.51924e-05
8.98236e-05
0.000107693
8.17495e-05
3.68332e-06
1.31994e-05
7.65805e-06
2.02944e-05
1.31453e-05
1.50156e-05
1.6241e-05
1.51577e-05
3.22216e-05
2.54288e-05
3.27999e-05
3.02822e-05
3.1248e-05
3.01668e-05
0.000120782
7.68026e-05
9.17792e-05
8.98831e-05
0.000111471
8.30121e-05
2.33394e-06
1.16088e-05
1.3907e-05
1.27193e-05
1.93657e-05
1.25137e-05
8.74517e-06
2.56053e-05
1.56811e-05
1.3799e-05
1.37479e-05
1.34115e-05
1.37653e-05
1.43535e-05
3.05073e-05
0.000129692
7.76435e-05
9.70202e-05
0.000106369
8.35769e-05
1.66333e-06
7.91744e-06
8.76104e-06
1.02706e-05
1.82414e-05
9.27008e-06
1.44015e-05
3.68018e-05
2.86961e-05
2.94082e-05
2.66373e-05
2.53555e-05
2.41633e-05
2.29912e-05
3.96453e-05
9.9561e-05
8.67554e-05
9.56287e-05
0.000110317
8.42692e-05
2.23353e-06
3.1027e-06
1.50973e-05
8.30992e-06
2.17787e-05
2.52664e-05
2.42019e-05
2.33925e-05
2.43641e-05
2.63049e-05
2.39935e-05
2.54073e-05
2.42577e-05
2.43512e-05
3.87072e-05
9.81432e-05
8.66637e-05
9.55859e-05
0.000110822
8.49217e-05
2.26689e-06
4.40203e-06
7.56809e-06
8.56249e-06
1.58795e-05
8.52856e-06
1.68864e-05
2.05959e-05
2.22567e-05
2.45312e-05
2.4542e-05
2.5145e-05
2.44012e-05
2.37511e-05
3.38203e-05
0.000123485
8.18313e-05
9.89908e-05
0.000110887
8.61919e-05
1.55841e-06
9.93728e-06
7.63528e-06
3.52029e-05
1.0533e-05
2.1338e-05
8.93959e-06
3.26484e-05
2.7644e-05
4.71751e-05
3.88723e-05
4.63631e-05
4.29213e-05
4.56151e-05
0.000120899
7.71611e-05
9.52328e-05
9.29927e-05
0.000117067
8.634e-05
1.19883e-06
3.07469e-06
5.85387e-06
1.44958e-05
9.60143e-06
2.13178e-05
3.01154e-05
5.5827e-05
5.73657e-05
0.000117935
7.96679e-05
0.000105203
8.69009e-05
9.15179e-05
8.56261e-05
8.71411e-05
9.01532e-05
9.39573e-05
0.000115876
8.66668e-05
2.2613e-06
5.40875e-06
6.53479e-06
1.89725e-05
1.07563e-05
4.77351e-05
2.14492e-05
5.14715e-05
3.84885e-05
6.69646e-05
5.78512e-05
7.97733e-05
7.36795e-05
8.54645e-05
8.3468e-05
8.45915e-05
8.97086e-05
9.1269e-05
0.000115605
8.63883e-05
4.01329e-06
6.1297e-06
9.3669e-06
1.26324e-05
1.31898e-05
2.55444e-05
2.71372e-05
8.04532e-05
5.10449e-05
0.000293196
7.59479e-05
0.000124341
8.56615e-05
9.85404e-05
8.61792e-05
8.87763e-05
8.97103e-05
9.21205e-05
0.000116131
8.66625e-05
4.17717e-06
6.68118e-06
5.46842e-06
2.27762e-05
1.26779e-05
8.29181e-05
2.33837e-05
0.000102187
3.83414e-05
8.83817e-05
5.7637e-05
8.80494e-05
7.19809e-05
8.68564e-05
8.0712e-05
8.49233e-05
8.79409e-05
9.0362e-05
0.000114961
8.57729e-05
4.79726e-06
1.09932e-05
9.5103e-06
2.01251e-05
1.33385e-05
2.44902e-05
2.59289e-05
6.96283e-05
4.66773e-05
0.000274806
7.04946e-05
0.000126919
8.25209e-05
9.94249e-05
8.59677e-05
8.98173e-05
9.02895e-05
9.2179e-05
0.000116771
8.64178e-05
3.35358e-06
7.17329e-06
1.35399e-05
1.05352e-05
1.85444e-05
2.56063e-05
2.75977e-05
0.000102697
4.1963e-05
0.000169814
6.07304e-05
0.000101417
7.43199e-05
9.04713e-05
8.10214e-05
8.60419e-05
8.80531e-05
9.03966e-05
0.000115485
8.56597e-05
1.66437e-06
4.04227e-06
1.75531e-05
9.55572e-06
1.84151e-05
2.09291e-05
2.59307e-05
6.26447e-05
4.0752e-05
0.000242128
6.04925e-05
0.00010975
7.29124e-05
8.95725e-05
7.83169e-05
8.2521e-05
8.34805e-05
8.53409e-05
0.000108906
8.029e-05
2.08154e-06
1.26468e-05
1.06511e-05
8.7569e-06
1.41007e-05
2.85537e-05
4.74708e-05
0.000101416
8.08499e-05
0.000260099
0.000128809
0.000331082
0.000170236
0.000247827
0.000195575
0.000211197
0.000203751
0.00021001
0.000253274
0.000195769
0.000150787
0.000196266
0.000195155
0.000181795
0.000157466
0.000121048
0.000113365
0.000106255
0.000104177
0.000102461
0.000101653
0.000101039
0.000100654
0.000100353
0.000100138
9.9967e-05
9.98074e-05
9.9704e-05
9.96843e-05
9.95645e-05
0.000172978
0.000172754
0.00017696
0.000152651
0.000124112
0.000110513
0.000103272
0.00010129
0.00010016
9.97915e-05
9.95717e-05
9.94707e-05
9.94145e-05
9.9379e-05
9.93562e-05
9.93442e-05
9.9334e-05
9.93383e-05
9.94352e-05
9.94482e-05
0.000183266
0.000199712
0.000170102
0.000133668
0.000118576
0.00010492
0.00010385
0.000100446
0.00010039
9.96546e-05
9.96073e-05
9.94499e-05
9.94182e-05
9.93769e-05
9.93594e-05
9.9346e-05
9.93371e-05
9.93411e-05
9.94379e-05
9.94498e-05
0.000152312
0.000259146
0.00017715
0.000137472
0.000117599
0.000104633
0.000101507
0.000100302
9.98206e-05
9.96354e-05
9.9511e-05
9.94481e-05
9.94054e-05
9.93757e-05
9.9355e-05
9.93483e-05
9.93391e-05
9.93435e-05
9.94402e-05
9.94512e-05
0.000186984
0.000245638
0.000192613
0.000138509
0.0001183
0.000103919
0.000105438
0.000100575
0.000100353
9.9639e-05
9.95866e-05
9.94537e-05
9.94172e-05
9.93854e-05
9.93676e-05
9.93548e-05
9.93463e-05
9.93479e-05
9.94431e-05
9.94528e-05
0.000245577
0.000243939
0.000204769
0.000148699
0.000125332
0.00010527
0.000102512
0.000102039
0.000100043
9.98355e-05
9.95358e-05
9.94867e-05
9.94201e-05
9.93852e-05
9.93682e-05
9.93684e-05
9.93547e-05
9.93522e-05
9.94451e-05
9.94543e-05
0.000154193
0.000209133
0.0002225
0.00016483
0.000128435
0.000112844
0.000112688
0.000108029
0.000101033
0.000100348
9.96239e-05
9.95857e-05
9.94615e-05
9.94738e-05
9.96432e-05
9.94684e-05
9.93948e-05
9.9363e-05
9.94511e-05
9.94554e-05
0.000252112
0.000290476
0.00020062
0.000162571
0.000120029
0.000115125
0.000115817
0.00010814
0.000101223
0.000102099
0.000101174
0.000101424
0.00010116
0.000101143
0.000100515
9.97135e-05
9.94962e-05
9.93913e-05
9.94651e-05
9.9459e-05
0.00026422
0.000319171
0.000263192
0.000166045
0.000123125
0.000114659
0.000114454
0.000100851
9.98214e-05
9.96589e-05
9.95611e-05
9.94789e-05
9.94244e-05
9.94e-05
9.94083e-05
9.94083e-05
9.93833e-05
9.9365e-05
9.94503e-05
9.9455e-05
0.000358952
0.000174793
0.000170346
0.000132672
0.000115614
0.000112287
0.000108807
0.000101824
9.98875e-05
9.99013e-05
0.000100044
9.99167e-05
9.96172e-05
9.94182e-05
9.94037e-05
9.93858e-05
9.93765e-05
9.93598e-05
9.94504e-05
9.94547e-05
0.000211962
0.000177816
0.000177041
0.000150764
0.000115914
0.000107523
0.000118458
0.000101807
9.98937e-05
9.96874e-05
9.95935e-05
9.95355e-05
9.94996e-05
9.94571e-05
9.99823e-05
9.9684e-05
9.94688e-05
9.93873e-05
9.94593e-05
9.94551e-05
0.000153272
0.00019458
0.000187528
0.000176149
0.00012707
0.00011044
0.000113389
0.000104176
0.000100703
9.9898e-05
9.98057e-05
9.97363e-05
9.97229e-05
9.97375e-05
9.95905e-05
9.94696e-05
9.93821e-05
9.93593e-05
9.94442e-05
9.94507e-05
0.000113242
0.000286123
0.000195947
0.000174452
0.000118335
0.000110993
0.000103218
0.000100465
0.000100003
9.95588e-05
9.94791e-05
9.94034e-05
9.93836e-05
9.93585e-05
9.93707e-05
9.93584e-05
9.93494e-05
9.93459e-05
9.94369e-05
9.94472e-05
0.000116211
0.000219661
0.000206974
0.000170588
0.000128467
0.000111136
0.000102588
0.000101487
9.99151e-05
9.96966e-05
9.94681e-05
9.94226e-05
9.93787e-05
9.937e-05
9.93563e-05
9.93475e-05
9.93375e-05
9.934e-05
9.94331e-05
9.94443e-05
0.000228826
0.000227344
0.000195169
0.000150696
0.000125392
0.000106929
0.000102551
0.000100448
9.97369e-05
9.95216e-05
9.94209e-05
9.93882e-05
9.93649e-05
9.93528e-05
9.93438e-05
9.93363e-05
9.93317e-05
9.93355e-05
9.94301e-05
9.9442e-05
0.000120625
0.000271841
0.000225946
0.000167512
0.000125692
0.000106734
0.000101427
0.000100391
9.9676e-05
9.95685e-05
9.94287e-05
9.94057e-05
9.93668e-05
9.93547e-05
9.9343e-05
9.93355e-05
9.93294e-05
9.93333e-05
9.94277e-05
9.94402e-05
0.000130972
0.00017188
0.00020187
0.000179975
0.000136198
0.000110356
0.000103003
0.000100643
9.98102e-05
9.95424e-05
9.94292e-05
9.93841e-05
9.9359e-05
9.93457e-05
9.93373e-05
9.93313e-05
9.93266e-05
9.93307e-05
9.94257e-05
9.94386e-05
0.00014699
0.000187149
0.000171206
0.000128663
0.000119627
0.000104248
0.000102326
0.000100526
0.000100091
9.97941e-05
9.96509e-05
9.96051e-05
9.95434e-05
9.95402e-05
9.94966e-05
9.94773e-05
9.94327e-05
9.94201e-05
9.94614e-05
9.94563e-05
3.0974e-06
7.65415e-06
1.81665e-05
2.27005e-05
3.92352e-05
6.10552e-05
5.87513e-05
0.000214191
9.38488e-05
0.000360657
0.000145317
0.000250345
0.000183282
0.000225322
0.000201929
0.000214006
0.000218384
0.000221673
0.000285403
0.000208978
3.39066e-06
7.59725e-06
1.36646e-05
3.09434e-05
2.1687e-05
4.53969e-05
4.7837e-05
0.000102124
8.08493e-05
0.000259533
0.000128788
0.000331078
0.00017022
0.000247856
0.000195594
0.000211211
0.000203781
0.000210047
0.000253315
0.000195808
0.000160506
0.000188831
0.000192443
0.000182564
0.000150471
0.000120992
0.000112845
0.000106176
0.000104125
0.000102443
0.000101647
0.000101036
0.000100654
0.000100352
0.000100137
9.99664e-05
9.98069e-05
9.97035e-05
9.9684e-05
9.95624e-05
0.000166936
0.000172598
0.000171087
0.000145983
0.000117007
0.000107033
0.000102254
0.000100983
0.000100066
9.97644e-05
9.95655e-05
9.94684e-05
9.9414e-05
9.93785e-05
9.93559e-05
9.93437e-05
9.93336e-05
9.93378e-05
9.94348e-05
9.94462e-05
0.000148659
0.000178652
0.000169781
0.000141735
0.000120421
0.000104071
0.000103924
0.000100391
0.000100382
9.9645e-05
9.96046e-05
9.9448e-05
9.94178e-05
9.93764e-05
9.93591e-05
9.93455e-05
9.93365e-05
9.93406e-05
9.94375e-05
9.94478e-05
0.000230313
0.000205733
0.000176472
0.000158799
0.000117597
0.000104375
0.000101352
0.000100256
9.98102e-05
9.96313e-05
9.95097e-05
9.94471e-05
9.9405e-05
9.93755e-05
9.93542e-05
9.93473e-05
9.93387e-05
9.93431e-05
9.94394e-05
9.94493e-05
0.000178121
0.00019499
0.000161886
0.000127034
0.000113963
0.000103124
0.000105084
0.000100527
0.000100323
9.96272e-05
9.95808e-05
9.94506e-05
9.94153e-05
9.93839e-05
9.93675e-05
9.93534e-05
9.93454e-05
9.93472e-05
9.94424e-05
9.9451e-05
0.000200337
0.00017353
0.000160229
0.000129388
0.000119153
0.000104216
0.000102345
0.000101909
0.000100016
9.98321e-05
9.95343e-05
9.9486e-05
9.94184e-05
9.93892e-05
9.93539e-05
9.93586e-05
9.93491e-05
9.93503e-05
9.94445e-05
9.94525e-05
0.000125794
0.000173687
0.000173161
0.000157141
0.000119047
0.000112001
0.000111726
0.000107905
0.000101019
0.000100339
9.96216e-05
9.95837e-05
9.94604e-05
9.94697e-05
9.96431e-05
9.94404e-05
9.93794e-05
9.93551e-05
9.94473e-05
9.94532e-05
0.000136275
0.000208975
0.000188915
0.000166027
0.000124677
0.000120833
0.000116166
0.000108082
0.000101203
0.000102086
0.00010116
0.00010141
0.000101147
0.000101128
0.000100505
9.97194e-05
9.94496e-05
9.93683e-05
9.94533e-05
9.94547e-05
0.000129676
0.000187914
0.000175859
0.000140708
0.000110687
0.00010888
0.000112009
0.000100808
9.98256e-05
9.97286e-05
9.9745e-05
9.95572e-05
9.94886e-05
9.93981e-05
9.94066e-05
9.94116e-05
9.93653e-05
9.93541e-05
9.94474e-05
9.94535e-05
0.000191375
0.000167678
0.000166354
0.000137405
0.00011375
0.000113642
0.000110113
0.000101791
9.98942e-05
0.000110369
0.000142145
0.000124053
0.000107214
9.9482e-05
9.94011e-05
9.93882e-05
9.93625e-05
9.93525e-05
9.94468e-05
9.94527e-05
0.000152274
0.000169368
0.000174339
0.000156295
0.000118033
0.000108812
0.000116131
0.000101645
9.98939e-05
9.97131e-05
9.9605e-05
9.95702e-05
9.95099e-05
9.94584e-05
9.99554e-05
9.96858e-05
9.94255e-05
9.93625e-05
9.94475e-05
9.94516e-05
0.000136617
0.000173243
0.000179419
0.000178257
0.000137372
0.00011356
0.000114167
0.000104122
0.000100703
9.98975e-05
9.98052e-05
9.97362e-05
9.9723e-05
9.97362e-05
9.95927e-05
9.94382e-05
9.93639e-05
9.93487e-05
9.94407e-05
9.94491e-05
0.000107618
0.000179092
0.000190108
0.000177614
0.000128086
0.000112435
0.000102687
0.000100295
9.99401e-05
9.95474e-05
9.94753e-05
9.94034e-05
9.93807e-05
9.93596e-05
9.93661e-05
9.93547e-05
9.93442e-05
9.9343e-05
9.9436e-05
9.94458e-05
0.00012313
0.000169824
0.000178017
0.000166333
0.000130761
0.000110895
0.000101747
0.000101192
9.98572e-05
9.96737e-05
9.94595e-05
9.9419e-05
9.93756e-05
9.93657e-05
9.93545e-05
9.93464e-05
9.93366e-05
9.9339e-05
9.94324e-05
9.94432e-05
0.000154139
0.00016931
0.000166283
0.000132765
0.000112284
0.000103797
0.000100935
0.000100091
9.96117e-05
9.94912e-05
9.94099e-05
9.9385e-05
9.93635e-05
9.93524e-05
9.93432e-05
9.93358e-05
9.93312e-05
9.93348e-05
9.94295e-05
9.94409e-05
0.000122828
0.000158758
0.00016651
0.000163267
0.000126096
0.000106812
0.000100851
0.000100223
9.96168e-05
9.95507e-05
9.94225e-05
9.94007e-05
9.93655e-05
9.93538e-05
9.93426e-05
9.93351e-05
9.9329e-05
9.93327e-05
9.94271e-05
9.94391e-05
0.000113281
0.000166594
0.000169258
0.000150001
0.000115767
0.000105844
0.000101169
0.000100276
9.96959e-05
9.95173e-05
9.94207e-05
9.93812e-05
9.9358e-05
9.93453e-05
9.93371e-05
9.93307e-05
9.9326e-05
9.933e-05
9.9425e-05
9.94375e-05
0.000119994
0.000178885
0.000163041
0.000125128
0.000114596
0.000103838
0.000102014
0.000100471
0.000100065
9.97866e-05
9.9648e-05
9.96033e-05
9.95426e-05
9.95395e-05
9.94963e-05
9.94769e-05
9.94323e-05
9.94195e-05
9.94608e-05
9.94553e-05
1.96587e-06
1.1041e-05
2.37457e-05
2.96565e-05
4.16146e-05
6.36432e-05
5.93893e-05
0.000216259
9.39858e-05
0.000359537
0.000145316
0.000250329
0.0001833
0.00022535
0.000201949
0.000214033
0.000218428
0.000221709
0.000285408
0.000209025
2.05873e-06
3.5599e-06
1.05565e-05
1.87571e-05
2.03332e-05
4.94503e-05
4.62766e-05
0.000108634
8.04579e-05
0.000264979
0.000128662
0.000331327
0.000170203
0.000247857
0.00019559
0.000211201
0.000203786
0.000210057
0.000253307
0.000195814
0.000167062
0.000175995
0.000188556
0.000178355
0.000140314
0.000116628
0.000111594
0.000105915
0.000104049
0.00010243
0.000101645
0.000101036
0.000100654
0.000100352
0.000100138
9.99666e-05
9.98071e-05
9.97037e-05
9.96843e-05
9.95627e-05
0.000169885
0.00017306
0.000174225
0.00015274
0.0001151
0.000106969
0.00010221
0.000100985
0.000100067
9.97646e-05
9.95658e-05
9.94686e-05
9.94142e-05
9.93787e-05
9.93561e-05
9.93439e-05
9.93338e-05
9.93381e-05
9.94352e-05
9.94465e-05
0.000140587
0.000178153
0.000177818
0.000154638
0.000116137
0.000104422
0.000103576
0.000100392
0.000100372
9.96451e-05
9.96045e-05
9.94481e-05
9.94181e-05
9.93767e-05
9.93593e-05
9.93456e-05
9.93368e-05
9.93408e-05
9.94378e-05
9.94481e-05
0.000150831
0.000187346
0.000179258
0.000170723
0.000126016
0.000106404
0.000101422
0.000100341
9.98283e-05
9.96363e-05
9.95121e-05
9.94476e-05
9.94054e-05
9.93756e-05
9.93548e-05
9.93477e-05
9.9339e-05
9.93434e-05
9.94396e-05
9.94496e-05
0.000172549
0.000176977
0.000170247
0.000135029
0.000116768
0.000103564
0.000105378
0.000100531
0.000100331
9.96278e-05
9.95815e-05
9.94515e-05
9.94165e-05
9.9385e-05
9.93676e-05
9.9354e-05
9.93458e-05
9.93476e-05
9.94427e-05
9.94513e-05
0.000278139
0.000164875
0.000166391
0.000135425
0.00012261
0.000104758
0.000102407
0.000101961
0.000100029
9.98345e-05
9.9535e-05
9.94861e-05
9.94189e-05
9.93883e-05
9.93611e-05
9.93634e-05
9.93517e-05
9.9351e-05
9.94449e-05
9.94528e-05
0.000186878
0.000165377
0.000167024
0.000152395
0.000116676
0.000111702
0.0001116
0.000107736
0.000101024
0.000100337
9.9621e-05
9.95831e-05
9.94598e-05
9.94686e-05
9.96414e-05
9.94552e-05
9.93857e-05
9.93596e-05
9.94497e-05
9.94537e-05
0.000123694
0.000154926
0.000169459
0.000163408
0.000121529
0.00011761
0.000115308
0.000108052
0.0001012
0.000102087
0.000101163
0.000101412
0.000101146
0.000101128
0.000100504
9.97237e-05
9.94705e-05
9.93805e-05
9.94597e-05
9.94565e-05
0.000131163
0.00017167
0.000171842
0.000134617
0.000113801
0.00011006
0.000113177
0.000100817
9.98212e-05
9.96896e-05
9.96589e-05
9.94922e-05
9.94486e-05
9.94002e-05
9.94067e-05
9.94106e-05
9.93753e-05
9.93595e-05
9.94487e-05
9.94537e-05
0.000141592
0.000153224
0.000169112
0.00016443
0.000129848
0.000117839
0.000109583
0.000101794
9.98918e-05
0.000102292
0.000103837
0.000106888
0.000101322
9.94268e-05
9.94019e-05
9.93882e-05
9.93677e-05
9.93558e-05
9.94493e-05
9.94532e-05
0.000142457
0.000152631
0.000170594
0.000157983
0.000120593
0.000109266
0.000116446
0.000101565
9.98916e-05
9.97067e-05
9.96022e-05
9.95472e-05
9.94972e-05
9.9457e-05
9.9955e-05
9.96882e-05
9.94473e-05
9.93741e-05
9.94548e-05
9.94533e-05
0.00012084
0.000169135
0.000172149
0.000164291
0.000134072
0.00011149
0.000113023
0.0001037
0.000100699
9.98971e-05
9.9805e-05
9.97361e-05
9.97229e-05
9.97364e-05
9.95926e-05
9.94545e-05
9.93727e-05
9.93541e-05
9.94432e-05
9.94494e-05
0.000155443
0.000176584
0.000176913
0.00016109
0.000126843
0.000112365
0.000103459
0.000100328
9.99524e-05
9.95457e-05
9.94756e-05
9.94032e-05
9.93817e-05
9.93598e-05
9.93667e-05
9.93556e-05
9.93475e-05
9.93441e-05
9.9437e-05
9.94462e-05
0.000121753
0.000156943
0.000169686
0.000163277
0.000126657
0.000108759
0.00010149
0.000101098
9.9845e-05
9.96703e-05
9.9459e-05
9.94193e-05
9.93755e-05
9.93677e-05
9.93551e-05
9.93468e-05
9.93369e-05
9.93393e-05
9.94327e-05
9.94436e-05
0.000126019
0.000168646
0.000164579
0.00013059
0.000115902
0.000103455
0.000101245
0.000100082
9.96239e-05
9.94907e-05
9.94104e-05
9.93851e-05
9.93637e-05
9.93526e-05
9.93434e-05
9.9336e-05
9.93314e-05
9.9335e-05
9.94296e-05
9.94414e-05
0.000127681
0.000166429
0.000170158
0.000156418
0.000117719
0.000104417
0.000100654
0.00010015
9.96136e-05
9.95487e-05
9.94224e-05
9.94007e-05
9.93656e-05
9.93539e-05
9.93427e-05
9.93352e-05
9.93291e-05
9.93329e-05
9.94272e-05
9.94396e-05
0.00013036
0.000163851
0.000157578
0.000137995
0.000114512
0.000104879
0.000101217
0.000100239
9.97019e-05
9.95163e-05
9.94211e-05
9.93813e-05
9.93581e-05
9.93454e-05
9.93372e-05
9.93309e-05
9.93261e-05
9.93302e-05
9.94252e-05
9.9438e-05
0.000178975
0.000189847
0.000170267
0.000127169
0.000118027
0.000104083
0.000102238
0.000100481
0.000100072
9.97871e-05
9.96484e-05
9.96035e-05
9.95427e-05
9.95397e-05
9.94964e-05
9.9477e-05
9.94324e-05
9.94197e-05
9.9461e-05
9.94557e-05
3.76726e-06
5.65273e-06
2.96015e-05
2.48555e-05
4.05868e-05
6.11922e-05
5.90677e-05
0.000213113
9.38923e-05
0.000360603
0.000145315
0.00025039
0.000183309
0.000225355
0.000201948
0.000214031
0.000218433
0.000221707
0.000285414
0.000209019
2.12716e-06
5.29826e-06
3.91674e-06
1.18567e-05
9.29627e-06
2.96606e-05
1.53384e-05
8.05667e-05
2.68527e-05
0.000136794
4.35993e-05
0.000107102
5.96252e-05
8.6344e-05
7.05384e-05
7.66852e-05
7.46443e-05
7.80613e-05
9.34807e-05
7.32133e-05
0.00017607
0.000249576
0.000229441
0.0002004
0.000194102
0.000182764
0.000181928
0.000172419
0.000172888
0.000168649
0.000169883
0.000168476
0.000169204
0.000168815
0.000169158
0.000169041
0.000169065
0.000168944
0.000169404
0.00016981
0.000130269
0.000169553
0.000177814
0.000175529
0.000178393
0.000170318
0.000176095
0.00016715
0.000171675
0.000167336
0.000169356
0.000168
0.00016884
0.000168508
0.000168856
0.000168788
0.000168857
0.000168803
0.000169297
0.000169804
0.000114833
0.000174737
0.000178441
0.000172549
0.000177292
0.000174491
0.000174445
0.000169111
0.000169284
0.000166846
0.000168344
0.000167472
0.00016842
0.000168272
0.000168737
0.000168748
0.000168857
0.000168833
0.000169346
0.000169859
0.000175645
0.00018263
0.000180275
0.000175761
0.000178773
0.000169821
0.000177239
0.000167674
0.000172332
0.000167944
0.000169934
0.00016858
0.000169281
0.000168911
0.000169169
0.000169042
0.000169065
0.000168999
0.000169462
0.000169988
0.000158033
0.00018336
0.000174202
0.000170597
0.00017535
0.000174427
0.000174881
0.000168775
0.000169675
0.000167263
0.000168822
0.000168143
0.000168909
0.000168774
0.000169071
0.000169079
0.000169095
0.000169085
0.000169525
0.000170092
0.000174101
0.000176648
0.000178668
0.000177016
0.000178086
0.000176532
0.000178428
0.000169542
0.000173043
0.000168776
0.000170212
0.000169041
0.000169475
0.000169141
0.000169529
0.000169373
0.000169326
0.000169254
0.000169641
0.000170257
0.000123335
0.000165948
0.000175414
0.000175751
0.000175792
0.000174768
0.00015346
0.000117552
0.000103721
0.000103764
0.000102016
0.00010249
0.000102043
0.000102537
0.000152942
0.000165946
0.000168786
0.000169352
0.000169739
0.000170377
0.000127544
0.000159201
0.000174302
0.000172885
0.000177229
0.000168446
0.000138835
0.000108751
0.000101221
0.00010208
0.00010115
0.000101398
0.000101129
0.000101124
0.000101231
0.000152212
0.000166045
0.000168984
0.000169847
0.00017053
0.00012802
0.000165608
0.000175561
0.00017022
0.000177085
0.000147089
0.000118631
0.000100953
9.98179e-05
9.96521e-05
9.9571e-05
9.94676e-05
9.94275e-05
9.94008e-05
9.94747e-05
0.000152805
0.000166179
0.000169192
0.000169926
0.00017069
0.000126831
0.000147406
0.000168825
0.000172757
0.000180322
0.000167503
0.000127734
0.000101935
9.98827e-05
9.97268e-05
9.96925e-05
9.97311e-05
9.95092e-05
9.94007e-05
9.94593e-05
0.000152919
0.000166335
0.000169362
0.000170027
0.000170805
0.000131958
0.000150569
0.00017171
0.000176069
0.000177879
0.000149844
0.00012219
0.000101516
9.9891e-05
9.96868e-05
9.95954e-05
9.95334e-05
9.94944e-05
9.94558e-05
0.000100137
0.000152445
0.000166474
0.000169456
0.000170124
0.000170892
0.000139579
0.000168957
0.000177309
0.00017134
0.000172787
0.000177391
0.00015944
0.00010968
0.000101098
9.99808e-05
9.99145e-05
9.98238e-05
9.98065e-05
0.000100109
0.000153513
0.000166802
0.000169657
0.000170166
0.000170251
0.000170977
0.00012349
0.000170624
0.000176567
0.00017222
0.000175261
0.000175443
0.00017496
0.000171243
0.000171977
0.000170577
0.000170927
0.000170417
0.000170482
0.000170387
0.0001706
0.000170543
0.000170447
0.00017035
0.000170371
0.000171069
0.000140769
0.000166989
0.000174006
0.000173929
0.000175162
0.000172906
0.000179095
0.000174368
0.000175421
0.000172454
0.000172532
0.00017154
0.000171464
0.000170971
0.000170847
0.000170684
0.000170555
0.000170466
0.00017045
0.000171143
0.000168356
0.000174269
0.000177252
0.000174191
0.000177805
0.000170411
0.000177691
0.000169189
0.000172634
0.00017008
0.000171396
0.000170567
0.000170976
0.000170706
0.000170838
0.00017068
0.000170629
0.000170529
0.000170518
0.00017121
0.000123369
0.000167125
0.000176544
0.00017365
0.000176031
0.000169136
0.000178754
0.000171615
0.000174935
0.000171648
0.000172469
0.000171258
0.000171508
0.000170984
0.000170989
0.000170785
0.000170702
0.000170598
0.00017057
0.000171268
0.000142065
0.000163131
0.000175034
0.00017876
0.000179619
0.000172529
0.000178095
0.000169326
0.000172862
0.00016992
0.000171458
0.000170476
0.000171024
0.000170685
0.000170852
0.000170704
0.000170692
0.000170606
0.000170592
0.000171295
0.000298839
0.000257653
0.000185971
0.000175869
0.000179098
0.000168739
0.000177023
0.000168503
0.000173528
0.000170552
0.000172199
0.000170994
0.00017146
0.000171004
0.000171092
0.000170892
0.000170824
0.000170714
0.000170648
0.000171339
1.4548e-06
6.07371e-06
9.66663e-06
1.0943e-05
1.91489e-05
2.20475e-05
2.65309e-05
6.3813e-05
4.09061e-05
0.000238784
6.01034e-05
0.000108323
7.21459e-05
8.84256e-05
7.73644e-05
8.14545e-05
8.23907e-05
8.41783e-05
0.000107168
7.92035e-05
9.97467e-05
0.000105088
0.000125491
9.97331e-05
9.97449e-05
0.000105524
0.000124979
9.96042e-05
0.000130365
0.000135426
9.97444e-05
9.96136e-05
0.00013006
0.00013747
0.000135374
9.96708e-05
9.96916e-05
0.000110782
0.000136603
9.96789e-05
9.96819e-05
0.000134
9.97538e-05
9.96887e-05
0.00014293
0.000133994
9.97436e-05
9.96939e-05
1.0117e-05
2.08831e-05
2.26941e-05
0.000313759
0.000139027
0.000205814
0.000110632
1.68337e-05
3.04583e-05
2.77723e-05
0.000119738
0.000102395
0.000103618
0.000100109
1.36931e-05
2.94296e-05
2.86549e-05
0.00010137
0.000102021
9.99563e-05
9.98398e-05
1.68161e-05
3.02867e-05
2.74207e-05
0.000102025
0.000101092
9.98283e-05
9.9658e-05
1.5236e-05
2.67176e-05
2.63977e-05
0.000101095
0.000101357
9.96842e-05
9.95867e-05
1.5938e-05
2.57736e-05
2.46946e-05
0.000101336
0.000101102
9.9626e-05
9.95339e-05
1.54673e-05
2.41455e-05
2.431e-05
0.000101071
0.000101088
9.95703e-05
9.95203e-05
1.54804e-05
2.3573e-05
3.37869e-05
0.000101065
9.99762e-05
9.95158e-05
9.95411e-05
3.16915e-05
1.98998e-05
2.48439e-05
0.000202123
0.000107455
0.000199841
0.000108759
2.68691e-05
3.01445e-05
2.60929e-05
0.000102656
9.99904e-05
0.000103228
9.99802e-05
2.81176e-05
2.65232e-05
2.67698e-05
9.98064e-05
9.97123e-05
9.98536e-05
9.97098e-05
2.72849e-05
2.68403e-05
2.50173e-05
9.96511e-05
9.95945e-05
9.96959e-05
9.97567e-05
2.58452e-05
2.42229e-05
2.44708e-05
9.95698e-05
9.94913e-05
9.97429e-05
9.98414e-05
2.46231e-05
2.45779e-05
2.42109e-05
9.94678e-05
9.94492e-05
9.98244e-05
9.958e-05
2.41469e-05
2.45533e-05
2.40962e-05
9.94257e-05
9.94107e-05
9.95145e-05
9.94002e-05
2.42704e-05
2.38557e-05
2.80528e-05
9.94004e-05
9.94574e-05
9.93934e-05
9.93721e-05
1.89886e-05
2.91141e-05
2.18662e-05
0.000194699
0.000109106
0.0001858
0.000107158
2.39863e-05
2.31511e-05
2.46243e-05
0.000103545
0.000100036
0.000102624
9.99237e-05
2.61013e-05
2.44374e-05
2.58989e-05
9.98864e-05
9.96896e-05
9.98063e-05
9.96641e-05
2.47804e-05
2.56027e-05
2.46101e-05
9.97181e-05
9.96949e-05
9.96069e-05
9.95424e-05
2.44947e-05
2.4137e-05
2.36629e-05
9.97049e-05
9.9746e-05
9.95295e-05
9.94832e-05
2.43628e-05
2.36492e-05
2.30602e-05
9.97535e-05
9.95895e-05
9.94555e-05
9.94271e-05
2.48513e-05
2.32967e-05
2.27913e-05
9.95145e-05
9.94111e-05
9.94188e-05
9.93999e-05
2.68023e-05
2.28596e-05
2.55999e-05
9.94018e-05
9.93849e-05
9.93916e-05
9.94055e-05
1.94099e-05
6.29538e-06
1.8418e-05
0.000189589
0.000109528
0.00027261
0.000118667
2.34757e-05
1.45933e-05
1.64007e-05
0.000103609
0.000100075
0.000110302
0.000101277
2.49401e-05
1.37769e-05
1.23941e-05
9.98939e-05
9.98553e-05
0.000101067
0.00010137
2.5336e-05
1.48052e-05
1.40907e-05
9.96858e-05
9.96617e-05
0.000100813
0.000100728
2.55997e-05
1.46754e-05
1.31101e-05
9.95958e-05
9.95897e-05
0.000100466
0.000100954
2.46794e-05
1.50822e-05
1.36241e-05
9.95339e-05
9.95517e-05
0.00010061
0.000100795
2.47142e-05
1.51406e-05
1.35447e-05
9.9495e-05
9.95273e-05
0.000100539
0.000100823
3.19652e-05
1.57912e-05
1.42985e-05
9.94567e-05
9.95314e-05
0.000100673
9.99806e-05
0.000119176
0.000109978
0.000103833
0.000114506
0.000118465
0.000109671
0.00010356
0.000102053
0.000101488
0.000100092
0.000107873
0.000102006
0.000101409
0.00010009
0.000102154
9.99721e-05
9.98402e-05
0.000101201
0.000102145
9.99719e-05
9.98455e-05
0.000101196
9.98267e-05
9.96605e-05
0.000102086
0.000101181
9.98485e-05
9.96714e-05
0.000101446
9.96639e-05
9.9613e-05
0.000101162
0.000101442
9.9682e-05
9.96118e-05
0.000101182
9.9646e-05
9.95351e-05
0.000101412
0.000101175
9.96045e-05
9.9543e-05
0.000101159
9.95782e-05
9.95178e-05
0.000101147
0.000101152
9.95815e-05
9.95184e-05
0.000100586
9.9513e-05
9.95283e-05
0.000101128
0.000100614
9.95119e-05
9.9525e-05
0.000101931
0.000115402
0.000103337
0.00011192
0.000101756
0.000113322
0.000103177
9.99837e-05
0.000101418
9.99646e-05
0.000100801
9.99836e-05
0.00010139
9.9959e-05
9.97166e-05
9.98621e-05
9.96854e-05
9.98225e-05
9.97326e-05
9.98537e-05
0.000100244
9.96086e-05
0.000100138
0.00010005
9.96905e-05
9.96805e-05
0.000102084
0.000105862
9.95055e-05
0.000100054
0.000100419
9.9661e-05
9.95355e-05
0.000106386
0.000108236
9.94499e-05
9.99568e-05
9.99051e-05
9.94925e-05
9.94938e-05
0.000107152
0.000104374
9.94122e-05
9.96568e-05
9.94234e-05
9.94492e-05
9.9412e-05
0.00010168
9.94871e-05
9.94568e-05
9.94017e-05
9.93691e-05
9.94e-05
9.94575e-05
9.94245e-05
9.93778e-05
0.000103647
0.00010766
0.000101908
0.00010883
0.000103398
0.000106036
0.000101608
0.000100034
0.000100905
9.99038e-05
0.000101761
0.000100034
0.000100796
9.99049e-05
9.96877e-05
9.98109e-05
9.96706e-05
9.98979e-05
9.99839e-05
9.98121e-05
9.96797e-05
9.98766e-05
9.96089e-05
9.95503e-05
0.000102028
0.000103486
9.96378e-05
9.95984e-05
0.000100326
9.95313e-05
9.95024e-05
0.000103849
0.00010711
9.96147e-05
9.9561e-05
9.97364e-05
9.94767e-05
9.94226e-05
0.000106853
0.000103353
9.95069e-05
9.94698e-05
9.94235e-05
9.94175e-05
9.9406e-05
0.000101257
9.94859e-05
9.94505e-05
9.94027e-05
9.93888e-05
9.93969e-05
9.94051e-05
9.94195e-05
9.93894e-05
9.93899e-05
9.94085e-05
0.000103936
0.000122586
0.000107581
0.000115813
0.000103412
0.000120754
0.000107183
0.000100068
0.000104711
0.000101036
0.000101611
0.000100067
0.000104577
0.00010104
9.98563e-05
0.000100901
0.0001014
9.98928e-05
9.98526e-05
0.000100887
0.000101397
9.96643e-05
0.000100915
0.000100769
9.97053e-05
9.97004e-05
0.000100914
0.000100768
9.95968e-05
0.000100556
0.000100984
9.96027e-05
9.96265e-05
0.000100559
0.000100982
9.95541e-05
0.000100702
0.000100823
9.95485e-05
9.95556e-05
0.000100701
0.000100823
9.95252e-05
0.000100623
0.000100847
9.94963e-05
9.95288e-05