/*--------------------------------*- C++ -*----------------------------------*\
  =========                 |
  \\      /  F ield         | OpenFOAM: The Open Source CFD Toolbox
   \\    /   O peration     | Website:  https://openfoam.org
    \\  /    A nd           | Version:  10
     \\/     M anipulation  |
\*---------------------------------------------------------------------------*/
FoamFile
{
    format      ascii;
    class       volScalarField;
    location    "0.1";
    object      omega_0;
}
// * * * * * * * * * * * * * * * * * * * * * * * * * * * * * * * * * * * * * //

dimensions      [0 0 -1 0 0 0 0];

internalField   nonuniform List<scalar> 
12920
(
0.149719
0.145678
0.144907
0.143567
0.142277
0.141701
0.141615
0.141609
0.141608
0.141608
0.141608
0.141583
0.141608
0.141605
0.141608
0.141608
0.141607
0.141608
0.1416
0.141602
0.150356
0.163888
0.154198
0.145806
0.141821
0.14162
0.141609
0.141608
0.141608
0.141607
0.141608
0.141602
0.141608
0.141608
0.141608
0.141608
0.141608
0.141608
0.1416
0.141605
0.147857
0.160301
0.147616
0.14325
0.141868
0.141647
0.141614
0.141609
0.141608
0.141605
0.141608
0.141606
0.141608
0.141608
0.141608
0.141608
0.141608
0.141608
0.1416
0.141606
0.169119
0.164075
0.150212
0.142625
0.141846
0.141621
0.141608
0.141608
0.141608
0.141606
0.141608
0.141605
0.141608
0.141608
0.141608
0.141608
0.141608
0.141608
0.141601
0.141608
0.155215
0.148853
0.148398
0.145286
0.142498
0.141697
0.141595
0.141603
0.141605
0.141595
0.141608
0.141608
0.141608
0.141608
0.141608
0.141608
0.141606
0.141607
0.141602
0.141608
0.144774
0.142677
0.142506
0.141878
0.141654
0.141614
0.141612
0.141609
0.141608
0.141608
0.141608
0.141606
0.141608
0.141608
0.141608
0.141608
0.141606
0.141605
0.141604
0.141608
0.144245
0.143028
0.142918
0.141942
0.141671
0.14161
0.141731
0.141627
0.141544
0.141568
0.14156
0.141572
0.141573
0.141579
0.141599
0.141607
0.141605
0.141603
0.141607
0.141608
0.145768
0.147067
0.146609
0.143658
0.14193
0.141628
0.28393
0.284665
0.284729
0.284732
0.28475
0.284752
0.28476
0.284759
0.140313
0.141323
0.141557
0.141596
0.141608
0.141608
0.153774
0.152507
0.148661
0.144496
0.142021
0.284143
0.569733
0.575246
0.575617
0.575633
0.575625
0.575623
0.575628
0.575639
0.281999
0.140341
0.141337
0.14156
0.141603
0.141608
0.142201
0.157552
0.155978
0.143842
0.141707
0.284096
0.569927
0.575614
0.576112
0.576129
0.576099
0.576128
0.576134
0.576135
0.280339
0.140145
0.141305
0.141557
0.141601
0.141608
0.145863
0.157739
0.155634
0.144365
0.142045
0.284231
0.569849
0.575532
0.576119
0.576137
0.576201
0.576124
0.576085
0.576095
0.280318
0.140145
0.141307
0.141561
0.141598
0.141608
0.150452
0.166952
0.160894
0.143881
0.141814
0.28403
0.569338
0.575466
0.576131
0.576141
0.576144
0.576132
0.576114
0.576133
0.280483
0.140326
0.141342
0.141568
0.141596
0.141607
0.143477
0.167441
0.162901
0.147898
0.142466
0.141595
0.283945
0.284681
0.284683
0.284684
0.2847
0.284711
0.284725
0.284735
0.140285
0.141327
0.141564
0.141603
0.1416
0.141604
0.183622
0.170456
0.177341
0.150859
0.142479
0.141682
0.141681
0.141592
0.141559
0.14157
0.141566
0.141574
0.141573
0.141573
0.141591
0.141605
0.141608
0.141608
0.1416
0.141601
0.149735
0.148524
0.147892
0.144299
0.14202
0.141647
0.141611
0.141608
0.141608
0.141608
0.141608
0.141608
0.141608
0.141608
0.141608
0.141608
0.141608
0.141608
0.141601
0.1416
0.160273
0.155627
0.145895
0.142515
0.141754
0.141626
0.14161
0.141602
0.141608
0.141608
0.141608
0.141608
0.141608
0.141608
0.141608
0.141608
0.141608
0.141608
0.141602
0.141599
0.17643
0.168578
0.149174
0.14285
0.141784
0.141626
0.141609
0.141608
0.141608
0.141608
0.141608
0.141608
0.141608
0.141608
0.141608
0.141608
0.141608
0.141608
0.141604
0.1416
0.161097
0.175555
0.159983
0.144991
0.142007
0.141638
0.14161
0.141608
0.141608
0.141608
0.141608
0.141608
0.141608
0.141608
0.141608
0.141608
0.141608
0.141608
0.141606
0.1416
0.151129
0.168043
0.150962
0.142662
0.141723
0.141616
0.141609
0.141604
0.141608
0.141608
0.141608
0.141608
0.141608
0.141608
0.141608
0.141608
0.141608
0.141608
0.141607
0.141601
0.14303
0.142706
0.142039
0.141642
0.141612
0.141608
0.141608
0.141608
0.141608
0.141608
0.141608
0.141608
0.141608
0.141608
0.141608
0.141608
0.141608
0.141608
0.141604
0.1416
0.0620504
0.059062
0.0580336
0.0568472
0.0565883
0.0564867
0.0564622
0.0564534
0.056452
0.0564486
0.0564482
0.0564445
0.0564478
0.0564485
0.0564493
0.0564503
0.0564509
0.0564515
0.0564509
0.0564522
8.32237
9.43634
9.76438
9.16858
8.61873
8.34039
8.61837
8.82939
8.96116
9.03046
9.08499
9.11726
9.14365
9.16306
9.17822
9.19063
9.20258
9.21188
9.22904
9.24097
7.18816
12.0366
12.1244
11.0261
10.2049
9.72851
9.38588
9.33125
9.2801
9.26642
9.25609
9.25053
9.24759
9.24548
9.24416
9.24345
9.24288
9.24323
9.25025
9.25093
9.05519
11.2209
12.3962
10.7511
10.4362
9.58062
9.54311
9.31335
9.31437
9.26389
9.26173
9.25091
9.2489
9.24603
9.24482
9.24386
9.24324
9.24353
9.25048
9.25106
7.07445
6.24465
12.0446
11.3283
10.3276
9.56632
9.3815
9.30721
9.27557
9.26362
9.25524
9.2509
9.24801
9.24597
9.24444
9.24394
9.24339
9.24371
9.25057
9.25116
6.2625
7.00035
9.8461
10.4177
10.1108
9.47368
9.62012
9.32151
9.30907
9.2627
9.25969
9.25101
9.24858
9.24647
9.24541
9.24435
9.24383
9.24399
9.25079
9.25128
4.72588
6.51197
8.65115
10.9743
10.6375
9.63963
9.44198
9.41652
9.28711
9.27766
9.25682
9.25364
9.24887
9.24723
9.24322
9.244
9.24367
9.24409
9.25095
9.25138
8.37147
6.75901
7.85008
11.4599
10.5453
10.0492
9.99571
9.797
9.35298
9.31095
9.26197
9.26043
9.2518
9.25246
9.26484
9.24809
9.24492
9.24391
9.25087
9.2514
5.91902
5.66193
9.67584
11.6665
10.3903
10.3182
10.2042
9.81496
9.36977
9.42528
9.36496
9.37977
9.3634
9.36265
9.32388
9.27029
9.24718
9.24354
9.2506
9.25133
2.19897
5.30908
6.2206
9.49898
9.21928
9.52063
9.95029
9.34259
9.27744
9.2661
9.25914
9.25339
9.24949
9.24775
9.24813
9.24882
9.24387
9.24362
9.25095
9.25147
3.9181
13.2138
13.2678
11.3047
10.2371
10.0819
9.88287
9.41128
9.28211
9.28223
9.29299
9.28401
9.26289
9.24911
9.24772
9.24727
9.244
9.2438
9.25084
9.25136
5.12983
11.598
13.354
12.2578
10.2497
9.77973
10.1856
9.38806
9.28183
9.26748
9.2608
9.25657
9.25413
9.25137
9.2828
9.26774
9.24589
9.243
9.2502
9.25116
6.97897
10.4685
12.7914
13.0108
11.0123
9.91794
10.1073
9.55545
9.33786
9.28248
9.27615
9.27138
9.27056
9.27096
9.26164
9.24769
9.24363
9.24323
9.25044
9.25113
10.0677
7.65945
13.6158
12.9955
10.5247
9.96145
9.45758
9.29623
9.27993
9.2568
9.25259
9.24795
9.24613
9.24497
9.24491
9.24422
9.24338
9.24348
9.25032
9.25093
10.1613
8.39591
9.78842
10.1501
9.70536
9.5846
9.29571
9.33815
9.27489
9.26476
9.25116
9.24874
9.24577
9.24496
9.24436
9.24386
9.2432
9.24336
9.25008
9.25076
7.88401
8.33197
10.2948
9.96094
9.24519
9.26015
9.2392
9.26448
9.25271
9.25145
9.24744
9.24638
9.24502
9.24434
9.24367
9.24317
9.24284
9.24308
9.24988
9.2506
10.5593
5.91708
7.71382
10.2586
9.72899
9.45535
9.26433
9.28226
9.25738
9.25646
9.24874
9.24735
9.24518
9.2444
9.24366
9.24313
9.2427
9.24294
9.24971
9.25047
10.4948
12.6748
9.45722
9.5458
9.15961
9.34321
9.243
9.27693
9.25992
9.25363
9.24839
9.24609
9.24463
9.2438
9.24325
9.24279
9.24246
9.24274
9.24957
9.25036
8.74149
11.434
11.9757
10.3053
10.2009
9.45139
9.35606
9.25344
9.24195
9.23139
9.23062
9.22827
9.22937
9.22769
9.22986
9.23048
9.23335
9.23504
9.24633
9.24873
0.0580645
0.0579516
0.05863
0.056779
0.0567006
0.0564459
0.0564208
0.056425
0.0564277
0.0564383
0.0564416
0.0564455
0.0564471
0.0564484
0.0564492
0.0564501
0.0564506
0.0564513
0.0564513
0.0564512
0.0583018
0.0582933
0.0572489
0.056557
0.0564724
0.0564556
0.0564533
0.0564518
0.0564515
0.0564486
0.0564482
0.0564445
0.0564478
0.0564485
0.0564493
0.0564503
0.0564509
0.0564515
0.0564509
0.0564522
8.42793
9.92035
9.6914
8.74875
8.20218
8.27687
8.62138
8.83497
8.96384
9.03188
9.08538
9.11744
9.14367
9.16309
9.17822
9.19064
9.20259
9.2119
9.22905
9.24109
12.0562
13.3947
13.4732
11.9081
10.1768
9.68982
9.4139
9.34199
9.28653
9.26823
9.25656
9.25069
9.24761
9.2455
9.24417
9.24347
9.24289
9.24324
9.25026
9.25104
10.8206
13.5745
13.5937
12.0964
10.6907
9.56554
9.56428
9.31609
9.31638
9.2647
9.26198
9.25105
9.24892
9.24605
9.24483
9.24388
9.24325
9.24354
9.25049
9.25116
5.3922
9.84208
13.1765
12.8607
10.5269
9.58504
9.38158
9.307
9.27591
9.26373
9.2553
9.25094
9.24803
9.24597
9.24449
9.244
9.2434
9.24372
9.25063
9.25126
7.88684
10.5036
12.1388
11.0042
10.2472
9.50298
9.64149
9.32599
9.31158
9.26361
9.26016
9.25125
9.24873
9.24658
9.2454
9.24443
9.24387
9.24401
9.25083
9.25138
6.10127
12.3587
12.6124
11.3278
10.6148
9.57769
9.44678
9.42287
9.28967
9.27782
9.25687
9.25368
9.24898
9.24694
9.24445
9.2448
9.24412
9.24422
9.25098
9.25148
9.19565
11.3752
12.6798
12.6402
10.5328
10.1203
10.0857
9.82257
9.35356
9.31123
9.2621
9.26051
9.25188
9.25269
9.26465
9.2504
9.24622
9.24455
9.25118
9.25154
9.84899
8.67945
11.2904
12.2423
10.7923
10.7231
10.4068
9.8458
9.3711
9.42576
9.3658
9.38043
9.36411
9.36294
9.3238
9.26989
9.25108
9.24546
9.25159
9.25165
11.4636
10.7628
12.097
11.5969
9.96888
9.90319
10.1129
9.34502
9.27774
9.27095
9.27212
9.25886
9.25404
9.2476
9.24815
9.24855
9.24526
9.2445
9.25118
9.25156
9.62897
13.3909
13.5881
11.8387
10.1831
10.2217
9.99098
9.41494
9.28257
9.84889
10.7409
9.879
9.58072
9.2515
9.24769
9.24686
9.2451
9.24438
9.25114
9.2515
8.73432
12.4661
13.8293
12.919
10.4943
9.89717
10.393
9.4033
9.28192
9.26911
9.26165
9.25891
9.25481
9.25145
9.28503
9.26745
9.24942
9.24506
9.25118
9.25142
10.7006
13.5714
13.8944
13.9108
11.7489
10.2144
10.2567
9.57286
9.33825
9.28245
9.27613
9.27139
9.27057
9.27129
9.26099
9.25029
9.24516
9.24411
9.25071
9.25124
10.2157
12.4524
14.2935
13.9885
11.1294
10.1268
9.472
9.30967
9.28485
9.25804
9.25288
9.24795
9.24633
9.24485
9.24531
9.24454
9.24379
9.24371
9.25038
9.25101
10.8726
11.2692
13.0808
13.0767
11.289
10.0122
9.40515
9.37261
9.27988
9.26689
9.25189
9.24903
9.246
9.2453
9.24451
9.24394
9.24326
9.24343
9.25013
9.25083
12.5232
12.4218
13.1897
11.306
10.0424
9.53992
9.35233
9.2955
9.26218
9.25403
9.24831
9.24664
9.24512
9.24436
9.24371
9.2432
9.24287
9.24313
9.24992
9.25067
10.9848
11.4001
12.6773
13.093
10.8871
9.73024
9.34515
9.30482
9.26288
9.25819
9.24928
9.24774
9.24528
9.24446
9.24367
9.24314
9.24272
9.24298
9.24975
9.25054
10.2115
12.743
13.5771
12.4881
10.2868
9.68474
9.37075
9.30839
9.26834
9.25574
9.24905
9.24632
9.2447
9.24383
9.24326
9.24282
9.2425
9.24279
9.24961
9.25043
9.71906
11.4831
12.7735
10.758
10.1741
9.46611
9.36166
9.25776
9.24336
9.232
9.23083
9.22841
9.22942
9.22773
9.22987
9.23049
9.23337
9.23508
9.24637
9.2488
0.0587585
0.0592094
0.0596997
0.0569197
0.0566686
0.0564439
0.05642
0.0564248
0.0564277
0.0564383
0.0564416
0.0564455
0.0564471
0.0564484
0.0564492
0.0564501
0.0564506
0.0564513
0.0564513
0.0564512
0.0602475
0.057964
0.0570298
0.0565604
0.0564575
0.0564534
0.0564531
0.0564511
0.0564512
0.0564484
0.0564482
0.0564445
0.0564478
0.0564485
0.0564493
0.0564503
0.0564509
0.0564515
0.0564509
0.0564522
11.8422
10.4374
10.0998
10.0122
8.89799
8.5548
8.70929
8.8549
8.97093
9.03306
9.08564
9.11749
9.14369
9.1631
9.17824
9.19065
9.2026
9.21191
9.22907
9.2411
13.2869
13.4284
13.6958
12.6037
10.1782
9.71353
9.41626
9.343
9.28671
9.26827
9.25658
9.2507
9.24762
9.24551
9.24418
9.24348
9.2429
9.24325
9.25028
9.25105
11.3842
12.8281
13.6502
12.8126
10.3788
9.58776
9.53989
9.31605
9.31568
9.26469
9.26198
9.25106
9.24893
9.24606
9.24483
9.24389
9.24327
9.24355
9.25051
9.25118
9.4027
10.9854
13.2351
13.303
11.0134
9.72119
9.38162
9.31198
9.27655
9.264
9.2554
9.25097
9.24805
9.24597
9.24452
9.24402
9.24341
9.24373
9.25064
9.25128
11.7172
13.2767
13.7277
11.6834
10.4579
9.53086
9.6615
9.32651
9.31213
9.26364
9.2602
9.2513
9.24879
9.24663
9.24541
9.24446
9.24389
9.24403
9.25085
9.2514
8.07011
13.5147
13.6017
11.6571
10.8352
9.61069
9.44998
9.42589
9.29024
9.27796
9.25692
9.25369
9.24901
9.24689
9.2448
9.24504
9.24426
9.24426
9.251
9.2515
11.0854
13.1356
13.5167
12.7112
10.4005
10.1017
10.0779
9.81135
9.35397
9.31112
9.26205
9.26047
9.25184
9.25263
9.26457
9.25123
9.24656
9.24477
9.25129
9.25156
11.0981
12.0459
13.2812
13.0978
10.6945
10.4906
10.3361
9.84376
9.37094
9.42581
9.36595
9.38055
9.36405
9.36295
9.32372
9.2702
9.25215
9.24605
9.2519
9.25174
11.5293
13.0961
13.6346
11.5512
10.2181
9.98581
10.1926
9.34564
9.27743
9.26819
9.26592
9.25428
9.25118
9.24775
9.24815
9.24849
9.24577
9.24476
9.25125
9.25157
10.8626
12.4873
13.7251
13.4664
11.0915
10.4628
9.96248
9.41521
9.28243
9.44108
9.5534
9.71184
9.37184
9.24961
9.24773
9.24688
9.24538
9.24455
9.25126
9.25153
11.4916
12.8218
13.9128
13.0736
10.5813
9.92341
10.4156
9.39779
9.28176
9.2687
9.26143
9.25736
9.25401
9.25136
9.285
9.26765
9.25053
9.24563
9.25153
9.25151
11.0624
13.806
13.9699
13.4785
11.6048
10.0592
10.1676
9.5453
9.33808
9.28241
9.27613
9.27139
9.27057
9.2713
9.26103
9.25116
9.2456
9.24437
9.25083
9.25126
13.312
14.0573
14.1283
13.2754
11.0926
10.1204
9.52597
9.31198
9.28565
9.25792
9.2529
9.24794
9.24639
9.24486
9.24535
9.24459
9.24394
9.24376
9.25042
9.25103
11.3242
12.3959
13.4787
13.2952
11.0234
9.87511
9.38934
9.36615
9.27906
9.26665
9.25186
9.24904
9.24599
9.2454
9.24454
9.24396
9.24327
9.24344
9.25014
9.25085
11.3024
13.4982
13.4653
11.2723
10.3816
9.52308
9.37497
9.29496
9.26301
9.254
9.24834
9.24664
9.24513
9.24437
9.24372
9.24321
9.24289
9.24314
9.24993
9.25069
11.4123
13.5582
13.7396
12.9126
10.4252
9.57768
9.33276
9.2998
9.26264
9.25803
9.24927
9.24774
9.24529
9.24447
9.24368
9.24315
9.24273
9.24299
9.24976
9.25056
9.69134
12.1825
12.9252
11.858
10.2346
9.62217
9.37456
9.30583
9.26872
9.25567
9.24908
9.24633
9.24471
9.24383
9.24327
9.24283
9.24251
9.2428
9.24962
9.25045
7.81325
11.0954
13.1412
10.8761
10.4137
9.46877
9.37128
9.25763
9.24382
9.232
9.23085
9.22841
9.22943
9.22774
9.22988
9.2305
9.23338
9.23509
9.24638
9.24882
0.0586879
0.0584368
0.0595468
0.056983
0.0567377
0.0564494
0.0564227
0.0564254
0.0564278
0.0564383
0.0564416
0.0564455
0.0564471
0.0564484
0.0564492
0.0564501
0.0564506
0.0564513
0.0564513
0.0564512
0.0628213
0.0593899
0.0567889
0.0565053
0.0564642
0.0564643
0.0564536
0.0564816
0.0564822
0.0565243
0.0565294
0.056533
0.056534
0.0565224
0.0565101
0.0564953
0.056486
0.056477
0.0564638
0.056455
10.9432
5.35468
6.67007
9.95391
11.1572
12.2
12.828
12.9598
13.2617
13.2524
13.4491
13.4667
13.574
13.6057
13.6635
13.6889
13.7195
13.7382
13.7874
13.8397
11.7266
12.6611
13.7111
13.7774
14.1358
13.767
14.1561
13.6671
13.9316
13.701
13.819
13.7477
13.7969
13.781
13.8013
13.7982
13.8029
13.8001
13.8337
13.8633
10.8249
14.0102
14.2651
13.9626
14.2508
14.0909
14.0905
13.8054
13.8098
13.6787
13.7652
13.7195
13.7747
13.7687
13.7957
13.7969
13.8037
13.8025
13.8372
13.8671
14.1821
14.4371
14.3578
14.2199
14.3609
13.8314
14.2678
13.7236
14.0003
13.7477
13.8631
13.7877
13.8274
13.8075
13.8224
13.8151
13.8168
13.813
13.844
13.8752
13.0844
14.5322
14.0752
13.853
14.1421
14.0896
14.1319
13.7792
13.8471
13.7045
13.7991
13.762
13.8071
13.8004
13.8176
13.8181
13.8194
13.8189
13.8483
13.8822
12.8676
14.2705
14.3597
14.2516
14.3151
14.2284
14.323
13.8211
14.0272
13.7882
13.8709
13.807
13.8324
13.8138
13.8446
13.8363
13.8339
13.8298
13.8556
13.8921
10.9708
13.5589
14.1739
14.1756
14.1434
14.1149
12.6971
10.3652
9.53103
9.49184
9.40291
9.41165
9.38695
9.40441
12.6026
13.5791
13.7956
13.8357
13.8621
13.8998
11.4233
13.1348
14.0969
14.0342
14.2864
13.6573
11.754
9.88275
9.37218
9.4252
9.36501
9.3795
9.36275
9.3623
9.35419
12.5671
13.5868
13.8089
13.8677
13.9096
11.4209
13.4103
14.1619
13.8147
14.2524
12.3741
10.4898
9.35347
9.27718
9.2656
9.25992
9.25252
9.24971
9.24779
9.25144
12.5926
13.5953
13.8214
13.8728
13.9193
11.1637
12.4939
13.7433
13.9911
14.4932
13.6262
11.0695
9.42322
9.28176
9.2705
9.26836
9.27087
9.25544
9.24784
9.25041
12.5986
13.6051
13.8322
13.8792
13.9266
11.664
12.7166
13.9285
14.2004
14.3166
12.472
10.7156
9.393
9.28172
9.26743
9.26091
9.25642
9.25379
9.25129
9.29405
12.5787
13.6133
13.8385
13.8853
13.9316
12.2028
13.8256
14.2907
13.9012
13.9902
14.2961
13.0077
9.8616
9.35817
9.28584
9.28121
9.27539
9.2744
9.28843
12.6355
13.6328
13.8503
13.8868
13.8941
13.937
11.2567
13.8683
14.2422
13.9638
14.1373
14.145
14.1361
13.9413
13.9855
13.9107
13.928
13.9002
13.902
13.8962
13.9123
13.9102
13.9048
13.8989
13.9016
13.9427
12.1947
13.7752
14.1322
14.0833
14.1055
14.033
14.3757
14.1387
14.1951
14.026
14.0286
13.9718
13.9668
13.9373
13.9291
13.919
13.9116
13.906
13.9066
13.9472
14.1179
14.0819
14.2976
14.0612
14.2879
13.8361
14.3076
13.8237
14.0305
13.8856
13.9624
13.9145
13.9376
13.9218
13.9289
13.9193
13.9163
13.91
13.9109
13.9514
10.9161
13.6633
14.2405
14.0377
14.1562
13.8053
14.3595
13.9765
14.1642
13.9789
14.0244
13.9556
13.969
13.9382
13.9376
13.9254
13.9207
13.9142
13.9141
13.9549
8.66198
11.8201
13.9492
14.353
14.4141
13.9818
14.3321
13.8322
14.0421
13.8753
13.965
13.9086
13.94
13.9204
13.9297
13.9208
13.9203
13.9148
13.9156
13.9566
4.03042
6.32663
12.8452
13.6024
14.2735
13.6386
14.1773
13.6988
14.0157
13.8589
13.9653
13.8989
13.9321
13.9044
13.9153
13.9058
13.9089
13.9052
13.9121
13.956
0.0565834
0.0567215
0.0576951
0.0579086
0.0584189
0.05749
0.0573488
0.0569104
0.0568286
0.0566526
0.056604
0.0565455
0.056524
0.0565065
0.0564969
0.0564867
0.056481
0.0564726
0.0564694
0.0564595
9.27233
9.83513
9.71935
9.27113
9.2721
9.84978
9.77613
9.26188
9.69557
9.71547
9.27207
9.26247
9.74151
9.70713
10.3958
9.26665
9.26827
9.87247
10.4702
9.26719
9.26758
10.1639
9.27247
9.26769
10.8634
10.1408
9.27175
9.26793
0.574755
0.569958
0.574914
3.68748
9.25265
5.80567
9.03662
0.575831
0.575526
0.576074
9.10475
9.39196
9.217
9.29442
0.575954
0.576108
0.576132
9.3567
9.43765
9.28844
9.27829
0.575917
0.576134
0.576133
9.42888
9.37363
9.27698
9.26562
0.575973
0.576134
0.576136
9.36903
9.38806
9.26695
9.26033
0.575995
0.576122
0.576121
9.38403
9.37089
9.26275
9.25672
0.576032
0.576124
0.576129
9.36721
9.3685
9.25888
9.25568
0.579364
0.576128
0.580879
9.36603
9.38494
9.2554
9.25729
0.575075
0.570068
0.575024
5.91655
8.98134
6.14907
9.08555
0.576077
0.575554
0.576093
9.20003
9.28804
9.23705
9.28746
0.57613
0.576122
0.576125
9.27855
9.26977
9.28015
9.26957
0.576093
0.576112
0.575997
9.26554
9.2615
9.26868
9.27274
0.576138
0.576137
0.576162
9.2598
9.25413
9.27192
9.27879
0.576128
0.576073
0.576064
9.25262
9.25122
9.27735
9.26043
0.576131
0.576117
0.576127
9.2497
9.24854
9.25594
9.24779
0.580979
0.576097
0.581086
9.24786
9.25186
9.24735
9.24593
0.574908
0.569839
0.574729
5.9351
9.12434
5.82576
8.99954
0.576103
0.575439
0.576106
9.27601
9.29355
9.20841
9.28135
0.576156
0.576124
0.576126
9.28236
9.26806
9.27684
9.26639
0.576154
0.57612
0.576097
9.26995
9.26852
9.26228
9.25782
0.576179
0.576088
0.576108
9.26928
9.27187
9.25683
9.2537
0.576028
0.57612
0.576133
9.2725
9.26105
9.25173
9.24966
0.576128
0.576131
0.576131
9.25597
9.24855
9.2492
9.24785
0.581078
0.576133
0.58103
9.24799
9.24683
9.24733
9.2482
0.574645
0.569192
0.574365
6.45618
9.10345
4.41658
8.99763
0.576107
0.574608
0.575597
9.259
9.29359
9.21152
9.33882
0.576137
0.575105
0.575911
9.28217
9.27899
9.33441
9.37921
0.576143
0.575296
0.575865
9.26744
9.26567
9.34783
9.33921
0.576137
0.5753
0.575998
9.26104
9.26048
9.32585
9.35257
0.576102
0.575407
0.57603
9.25653
9.25782
9.33475
9.34221
0.576125
0.575453
0.57609
9.25388
9.25608
9.32982
9.344
0.580883
0.575516
0.579875
9.25145
9.25702
9.33707
9.37859
10.5303
9.92066
9.50774
10.3506
10.5529
9.96226
9.53625
9.42493
9.37723
9.29597
9.83145
9.42715
9.38722
9.29602
9.4298
9.28733
9.27833
9.37117
9.43029
9.28736
9.27866
9.3678
9.27691
9.26578
9.42588
9.36803
9.27818
9.26657
9.3824
9.26556
9.26216
9.36605
9.38321
9.26682
9.26181
9.36641
9.26417
9.25689
9.38065
9.36685
9.26127
9.25737
9.3652
9.25941
9.25552
9.36417
9.36527
9.25969
9.25554
9.33204
9.25519
9.25617
9.36308
9.33045
9.2551
9.25603
9.3992
10.1179
9.50275
10.1145
9.41109
10.2441
9.51122
9.28891
9.38472
9.28745
9.34523
9.28877
9.38658
9.28709
9.27018
9.28041
9.26797
9.27758
9.27123
9.2798
9.30796
9.26259
9.29803
9.29345
9.26826
9.26751
9.43777
9.69719
9.25524
9.29359
9.31676
9.26618
9.25709
9.74207
9.79346
9.25134
9.28669
9.28304
9.25431
9.25435
9.65936
9.54905
9.24869
9.26587
9.24953
9.25137
9.24863
9.39559
9.25359
9.25183
9.24803
9.24562
9.24782
9.25182
9.24955
9.24622
9.52331
9.5984
9.37838
9.91437
9.5287
9.77402
9.40477
9.29238
9.33777
9.28303
9.41328
9.29227
9.34635
9.28335
9.26794
9.27671
9.26685
9.28293
9.28952
9.27685
9.26744
9.28137
9.26241
9.25837
9.42279
9.53005
9.26454
9.26168
9.31269
9.25696
9.255
9.55451
9.73672
9.26273
9.25904
9.27132
9.25319
9.24948
9.71251
9.50294
9.25542
9.25274
9.24965
9.24905
9.24824
9.36531
9.2534
9.25142
9.24794
9.24704
9.24771
9.2481
9.24917
9.24701
9.24718
9.24832
9.48328
10.5903
9.76024
10.4376
9.52844
10.8113
9.78958
9.29383
9.59055
9.35887
9.40215
9.29412
9.6006
9.35976
9.27915
9.34828
9.37871
9.28195
9.27883
9.35001
9.37881
9.26591
9.34615
9.33833
9.26867
9.26832
9.34646
9.33827
9.261
9.32483
9.35162
9.26155
9.26279
9.32504
9.35145
9.25814
9.33336
9.34145
9.25749
9.25816
9.33325
9.34139
9.25597
9.32872
9.34337
9.25399
9.25619
9.32854
9.34328
9.25601
9.33548
9.32793
9.25148
9.25587
9.33613
9.32774
10.5828
10.0211
9.54361
10.3914
10.5807
9.99487
9.54559
9.42835
9.38915
9.29612
9.84398
9.42808
9.38991
9.29593
9.43058
9.28731
9.27892
9.37115
9.43048
9.2872
9.27889
9.36816
9.2796
9.2673
9.42583
9.36807
9.27943
9.26741
9.38318
9.26646
9.2647
9.36588
9.38304
9.26647
9.26461
9.36691
9.26288
9.25743
9.38056
9.36678
9.26294
9.25742
9.3654
9.26007
9.25543
9.36423
9.36526
9.26013
9.25545
9.33071
9.2548
9.25604
9.36304
9.3306
9.25481
9.25605
9.41041
10.2503
9.51117
10.1141
9.41068
10.2511
9.51069
9.2889
9.38663
9.28674
9.34543
9.28855
9.38635
9.28662
9.27235
9.28038
9.31434
9.27775
9.27258
9.28024
9.31694
9.35657
9.2738
9.2973
9.26797
9.29566
9.27532
9.32242
9.35272
9.26981
9.31319
9.27492
9.31786
9.2725
9.32941
9.26053
9.1884
9.414
9.25905
9.26055
9.31819
9.52978
9.24861
9.38991
9.25467
9.2545
9.24859
9.46001
9.2564
9.25184
9.24957
9.24596
9.24761
9.25179
9.25015
9.24587
9.53432
9.77093
9.40624
9.96703
9.53354
9.75903
9.40538
9.29258
9.34768
9.28339
9.4146
9.29215
9.34733
9.28324
9.3159
9.27666
9.26711
9.28245
9.32052
9.27659
9.26716
9.70995
10.3012
9.52734
9.77638
9.63655
0.271017
9.58748
8.65034
10.7652
9.68642
0.301207
9.71413
0.293726
8.86151
9.97667
9.26379
9.25825
9.87919
10.0859
9.26361
9.25857
9.25973
9.25408
9.24773
9.63598
9.26128
9.25422
9.24765
9.24663
9.24725
9.2483
9.25171
9.2466
9.24716
9.24832
9.52727
10.7766
9.79599
10.3946
9.52766
10.7737
9.80037
9.29408
9.60255
9.35986
9.40263
9.29391
9.60494
9.35977
9.27882
9.3501
9.3789
9.28195
9.2788
9.35026
9.37883
9.2689
9.34655
9.33831
9.26918
9.26908
9.34653
9.33829
9.26507
9.32505
9.35132
9.26182
9.26478
9.32502
9.35131
9.25887
9.33322
9.34137
9.25908
9.25876
9.33321
9.34135
9.25612
9.32855
9.34327
9.25502
9.25615
9.32852
9.34326
9.25604
9.33614
9.32782
9.25158
9.256
9.33611
9.32781
10.5795
10.0311
9.54731
10.4081
10.6229
10.0576
9.55114
9.42807
9.39039
9.2959
9.84838
9.42916
9.39117
9.29573
9.43048
9.28722
9.27868
9.37153
9.43058
9.28718
9.27823
9.36819
9.27821
9.26658
9.42623
9.36854
9.27681
9.2657
9.38335
9.26682
9.26207
9.36612
9.38301
9.26546
9.26201
9.36699
9.26141
9.25741
9.38087
9.36689
9.26421
9.25687
9.36538
9.25971
9.25556
9.36443
9.3654
9.25946
9.25535
9.33064
9.25508
9.25606
9.36367
9.32992
9.25511
9.2561
9.4136
10.3217
9.51759
10.2443
9.41853
10.3656
9.51813
9.28876
9.38768
9.2871
9.3472
9.28861
9.38751
9.28709
9.27127
9.27977
9.30421
9.27747
9.27008
9.28023
9.26796
9.26756
9.4401
9.69097
9.26604
9.2624
9.29431
9.29321
9.25709
9.73739
9.78843
9.2592
9.25516
9.29361
9.31424
9.25444
9.64502
9.54821
9.25343
9.25138
9.28608
9.28118
9.24871
9.39214
9.25359
9.24964
9.24859
9.26513
9.24948
9.25183
9.2492
9.24595
9.24786
9.25179
9.24779
9.24553
9.53792
9.69957
9.39814
10.1449
9.53704
9.90633
9.40277
9.2915
9.34487
9.28314
9.41486
9.29155
9.34566
9.28268
9.29189
9.27667
9.26746
9.28191
9.26737
9.27637
9.26701
9.53408
9.26454
9.26169
9.28128
9.28117
9.26249
9.25834
9.73974
9.26281
9.25915
9.29411
9.31042
9.25695
9.25491
9.51865
9.25603
9.25294
9.28358
9.27117
9.25294
9.2498
9.25436
9.25153
9.24801
9.26254
9.24965
9.24918
9.24828
9.24674
9.24717
9.24826
9.24973
9.24689
9.24768
9.24814
9.5182
10.7813
9.79809
10.454
9.5244
11.1349
9.807
9.29381
9.60731
9.36193
9.40001
9.29349
9.61298
9.36173
9.27895
9.35078
9.3789
9.28176
9.27914
9.35095
9.37886
9.2682
9.34656
9.33831
9.26763
9.26595
9.34647
9.33835
9.26299
9.32506
9.35144
9.26098
9.26103
9.32492
9.35158
9.25836
9.33326
9.34141
9.25677
9.25815
9.3334
9.34145
9.25618
9.32857
9.34327
9.25422
9.25591
9.3288
9.34334
9.2559
9.3361
9.3278
9.25145
9.2561
9.33701
9.32744
10.7225
10.6161
9.55734
14.5173
14.4283
14.4769
14.3721
9.42957
9.39258
9.29569
14.3455
14.4269
14.3708
14.4302
9.42906
9.28706
9.27836
14.1896
14.4409
14.434
14.4375
9.3672
9.27698
9.26564
14.312
14.4399
14.4362
14.4362
9.38215
9.26691
9.26022
14.3743
14.4412
14.424
14.4279
9.36591
9.26263
9.25671
14.4241
14.4405
14.3994
14.4039
9.36427
9.2589
9.2557
14.429
14.4406
14.3763
14.3933
9.32822
9.2552
9.25713
14.4295
15.0766
14.3511
14.9745
9.43387
10.8319
9.53367
14.4319
14.3744
14.5243
14.3622
9.28873
9.39156
9.28752
14.3758
14.4311
14.3689
14.4328
9.26992
9.2798
9.26958
14.4339
14.4367
14.4356
14.4315
9.26169
9.26903
9.27357
14.4348
14.4272
14.4246
14.3937
9.25423
9.27255
9.27889
14.414
14.4203
14.4173
14.4149
9.25138
9.27742
9.26013
14.4
14.4002
14.3996
14.3889
9.2486
9.25585
9.24781
14.3738
14.3864
14.3925
14.3878
9.2517
9.24753
9.24599
14.3531
15.0125
14.376
15.0543
9.57114
10.4139
9.40843
14.5289
14.3668
14.5262
14.3657
9.29214
9.34488
9.28261
14.3721
14.4359
14.366
14.4368
9.2678
9.27626
9.26645
14.4355
14.4374
14.4372
14.4365
9.26829
9.26231
9.25781
14.4282
14.4205
14.4334
14.4289
9.27135
9.25689
9.25372
14.4282
14.4236
14.4254
14.4109
9.26051
9.25182
9.24977
14.4074
14.38
14.4178
14.4003
9.24859
9.2492
9.24823
14.3864
14.3834
14.4043
14.3865
9.24689
9.2477
9.24813
14.3714
15.0066
14.3915
15.0624
9.50667
12.3694
9.89486
14.5081
14.4047
14.4689
14.3395
9.29332
9.65703
9.36329
14.3963
14.4355
14.4042
14.3994
9.27918
9.3525
9.37816
14.4368
14.4388
14.4141
14.4255
9.26577
9.34359
9.33722
14.4377
14.4381
14.417
14.414
9.26061
9.32229
9.35079
14.4373
14.4109
14.4192
14.4372
9.25793
9.33065
9.34071
14.4249
14.3918
14.4214
14.4384
9.25597
9.32634
9.3427
14.4053
14.3823
14.4233
14.4393
9.25695
9.33566
9.31496
14.3922
14.919
14.4246
15.0852
9.3055
9.27069
9.30983
9.277
9.29727
9.27606
9.30942
9.7548
9.42748
10.1169
10.0956
9.47211
9.43439
0.204931
9.04365
9.48692
9.94816
0.303184
9.46985
8.54073
0.297621
9.35724
9.26782
9.27381
9.29621
9.27545
9.32715
9.29831
9.307
9.27738
9.27079
9.30944
9.27573
9.31232
9.29802
9.74496
10.1761
9.4457
10.2083
9.43311
0.208781
9.49336
9.0636
0.304738
9.50102
10.0234
8.55424
0.298644
9.47838
9.38679
9.26811
9.32836
9.26583
9.32652
9.27492
9.38876
8.7304
9.52556
9.63407
0.304194
9.53854
8.61634
0.300461
8.28976
9.6039
9.54733
2.27119
9.56958
8.86208
0.206874
9.35246
9.27525
9.26979
9.31376
9.27295
9.33552
9.31711
9.3829
9.26619
9.26847
9.32989
9.27564
9.39605
9.33018
8.70847
0.305779
9.54634
9.74291
8.64711
0.302524
9.55226
8.23133
1.90295
9.62367
9.60112
8.86225
0.210227
9.56565
9.44859
9.7201
9.64502
0.299051
9.54199
0.287345
9.22407
9.37363
9.28227
9.26816
9.26842
9.29527
9.33477
9.26965
9.35496
9.324
9.26455
9.27433
9.30997
9.409
9.26749
9.71746
9.77838
10.3052
9.5693
0.258097
9.6183
9.67418
9.44679
0.298668
9.76279
9.63319
0.287799
9.26085
9.54988
9.39256
9.26815
9.28243
9.2685
9.34556
9.26982
9.29577
9.35997
9.2751
9.32698
9.26444
9.39854
9.26804
9.31116
8.66346
9.4296
9.79052
2.1365
9.84475
0.275588
8.62692
9.44903
9.32957
9.27373
9.28066
9.33253
9.42792
9.27992
9.48329
9.34172
9.27468
9.26647
9.34562
9.41941
9.27703
8.66323
0.300709
10.8548
9.6814
0.293919
8.88764
9.70926
8.67525
1.84388
9.45678
9.81898
0.260683
8.64796
9.8625
9.4433
9.28075
9.33059
9.27387
9.41872
9.27947
9.33398
9.49902
9.26613
9.33879
9.27591
9.44295
9.27581
9.34579
0.284529
0.284261
0.285473
0.857592
2.39427
1.49386
3.78892
0.284693
0.285409
0.284877
5.51857
6.55193
7.1161
8.54276
0.284776
0.284721
0.284698
7.55492
8.05109
9.03243
9.22118
0.284756
0.284716
0.284698
7.87113
8.04943
9.23302
9.22157
0.284781
0.284724
0.284699
8.02368
8.30097
9.22226
9.24253
0.284781
0.284734
0.28471
8.16787
8.40365
9.23656
9.24077
0.284791
0.284743
0.284716
8.30399
8.56875
9.23978
9.25251
0.285675
0.284751
0.285588
8.34764
8.92546
9.22005
10.6406
0.284463
0.284179
0.284546
0.93924
2.3949
0.975829
3.18987
1.00256
0.570985
0.569785
0.576774
0.854934
0.601734
0.570974
7.50151
0.575439
0.575657
4.33245
5.74734
5.52064
0.575838
9.08154
0.575782
0.576037
6.54651
6.85594
9.12366
0.576069
9.14896
0.575794
0.576072
6.87647
7.09909
9.23306
0.576079
9.19353
0.575823
0.576087
7.02637
7.36239
9.25675
0.576091
9.22972
0.575854
0.576096
7.25062
7.60217
9.29882
0.576098
9.26
0.575883
0.576103
7.43394
7.82844
9.32021
0.576104
9.27639
0.57591
0.576115
7.60416
8.00191
9.33859
0.576119
0.284436
0.280495
0.283931
9.21621
9.64207
9.2728
10.9064
0.28421
0.284112
0.28434
0.976012
3.41354
1.02403
3.48181
0.962521
0.571585
0.569997
0.502937
0.789186
0.620198
0.571729
7.67834
0.57587
0.575554
5.53097
7.63178
5.6548
0.575778
9.26079
0.576125
0.576116
9.22371
9.26061
9.22363
0.576118
9.25842
0.576112
0.576133
9.26361
9.26018
9.2587
0.576086
9.23996
0.576125
0.576153
9.25863
9.25146
9.24164
0.576155
9.24526
0.576121
0.576123
9.24391
9.24184
9.237
0.576068
9.24216
0.576125
0.576111
9.23321
9.23914
9.24271
0.576123
9.24106
0.576133
0.576133
9.24325
9.24502
9.24239
0.576131
0.283974
0.280298
0.283945
9.23753
10.719
9.24131
10.6699
0.284368
0.284155
0.284294
1.14479
3.25045
1.09726
3.38216
0.775362
0.571109
0.569892
0.538609
0.829146
0.481104
0.571277
7.68884
0.575842
0.575485
5.56392
7.67287
5.6327
0.575808
9.26079
0.576131
0.576112
9.23032
9.26224
9.22576
0.576123
9.25689
0.576184
0.576112
9.25628
9.25481
9.26509
0.576118
9.25032
0.576208
0.575937
9.21679
9.18006
9.25357
0.575979
9.22968
0.576019
0.576098
9.213
9.23844
9.23163
0.576112
9.15765
0.576127
0.576132
9.22768
9.21049
9.14384