/*--------------------------------*- C++ -*----------------------------------*\
  =========                 |
  \\      /  F ield         | OpenFOAM: The Open Source CFD Toolbox
   \\    /   O peration     | Website:  https://openfoam.org
    \\  /    A nd           | Version:  10
     \\/     M anipulation  |
\*---------------------------------------------------------------------------*/
FoamFile
{
    format      ascii;
    class       surfaceScalarField;
    location    "0.1";
    object      phi;
}
// * * * * * * * * * * * * * * * * * * * * * * * * * * * * * * * * * * * * * //

dimensions      [0 3 -1 0 0 0 0];

internalField   nonuniform List<scalar> 
38556
(
-101.609
-1158.9
-1054.97
657.408
132.155
-891.172
1218.22
-232.764
-328.049
1252.14
-66.5718
32.6498
586.993
164.868
500.283
324.038
97.8475
165.107
156.638
69.0384
98.3619
122.757
26.9361
6.94483
102.656
14.9954
5.10493
91.4088
11.1981
0.0494188
86.962
4.33379
0.112919
82.9488
4.02761
-0.0144326
80.9973
2.10912
-0.157601
79.4802
1.48355
0.0334266
78.4662
1.10047
-0.0864488
77.3455
1.06032
0.0602658
76.4187
0.813246
0.113655
75.5652
0.714809
0.138616
75.1377
0.499093
-0.0716641
0.357106
0.382714
-1101.94
-1070.55
2697.31
-144.79
150.525
-975.524
77.3757
31.4536
-486.384
68.8741
188.46
-246.531
111.651
154.892
-32.8004
85.6897
108.418
15.3907
101.604
48.1121
5.01218
88.2631
39.4364
0.840569
92.092
10.9353
0.231201
87.5387
16.4936
-0.742163
85.8321
5.43827
0.601958
81.9504
8.43659
-0.527445
81.9469
2.24076
-0.128256
79.2006
4.11554
0.114195
78.7195
1.62525
-0.0438382
77.1873
2.48978
0.102705
76.212
1.65265
0.135852
75.2476
1.5364
0.142527
74.8492
0.963614
-0.0661128
0.72944
0.362497
-431.166
408.993
1264.28
120.444
442.18
-843.264
121.6
68.4969
-38.1994
111.886
232.549
-34.3753
158.997
85.7092
22.072
136.735
120.749
9.93046
135.002
43.3934
6.45179
112.394
60.5952
1.44965
104.031
18.5736
0.724109
91.8966
28.5452
0.0832865
88.3845
8.97083
-0.0205366
82.7198
14.1035
-0.00227224
80.1352
4.97226
-0.14701
78.8
5.49322
-0.0426127
77.9102
2.59872
-0.0836761
76.8353
3.50876
0.055854
75.9913
2.39654
0.100051
75.1525
2.25744
0.117807
74.5936
1.59618
-0.0735423
0.781457
0.336181
-392.619
2297.37
375.034
-103.91
836.96
-683.489
-11.1771
143.123
-167.359
-34.9126
284.543
-28.2579
15.1297
79.3165
-43.6498
7.50666
131.38
-3.00747
49.6139
6.22991
-4.94352
45.8653
64.9598
-0.615935
66.617
-2.20901
0.0310457
66.4181
28.7907
-0.0466647
75.4528
-0.0420126
-0.0218909
76.0967
13.4569
0.00253497
80.1048
1.07412
-0.109921
77.9547
8.26443
-0.621063
78.2376
2.34326
-0.0274226
76.0288
5.57572
0.141804
74.6783
3.59552
0.151449
73.7121
3.08028
0.143341
73.2755
2.09778
-0.0650851
1.19471
0.342608
-425.635
2022.68
-2900.89
-624.467
318.814
716.978
-325.71
-74.4006
-81.233
-114.814
123.68
-50.0338
39.5875
13.5928
-88.6776
73.3309
115.11
-17.4736
107.62
-17.124
-10.9356
88.3823
85.828
-1.63016
95.712
-8.56537
-0.973544
82.9233
41.3863
0.192841
85.2216
-2.11086
-0.229501
78.5559
20.0267
0.0958902
77.7669
1.98806
-0.124839
76.5216
9.58912
-0.0795085
76.2594
2.65525
-0.0500879
75.0401
6.73397
0.0610311
73.8113
4.73131
0.0930193
73.1407
3.64042
0.110475
72.4933
2.82525
-0.0800397
1.14965
0.301795
162.21
305.511
-1569.75
-199.194
-95.4752
775.693
-137.072
-252.081
115.559
-81.3507
8.0275
59.9307
-36.8441
-44.8806
13.9671
-63.4162
138.25
3.43201
44.3102
-126.828
1.97706
19.4976
110.229
0.411275
57.9712
-47.416
0.377035
56.843
42.4264
0.0880135
71.9329
-17.2207
0.0198726
73.3146
18.6186
0.0265164
77.2589
-1.69961
-0.256731
74.9147
12.3189
-0.385814
75.1021
2.44869
0.0192042
72.7927
8.93763
0.105937
71.1344
6.25591
0.13364
70.8466
3.79582
0.132455
70.4105
3.33289
-0.0715285
1.36234
0.301084
800.884
1117.61
-355.385
364.163
-188.867
530.113
-166.08
-211.457
489.619
-72.357
-146.804
61.1087
40.847
-175.263
17.1789
-2.78371
184.461
-2.57977
79.3951
-24.9987
-1.98374
-78.8529
-24.745
-78.4259
60.9779
40.6843
0.397552
22.9402
41.4819
23.1427
82.6708
-1.61403
-0.27179
-32.9173
-1.43577
-32.87
72.684
24.1046
-0.377957
2.4396
23.9531
2.29385
76.9986
7.632
-0.128543
-18.2617
7.51934
-18.2964
74.9567
16.9538
-0.0276801
-6.50636
16.8155
-6.57464
73.9982
11.9636
-0.0582983
-12.2514
11.9109
-12.306
73.3747
15.4068
-0.107114
-8.75535
15.4352
-9.0371
71.2738
4.51812
0.0315433
72.1142
7.97661
0.120584
69.0804
9.19756
0.0920513
69.223
3.55185
0.101359
68.9518
3.67378
-0.0697617
1.17465
0.254355
771.813
1437.36
-1917.55
670.853
-6.44241
-81.4643
224.629
-178.462
413.228
153.988
-116.688
40.5244
78.892
-130.995
30.8278
11.442
45.3172
-0.423479
15.4637
12.746
17.6787
59.6362
43.5494
57.9431
4.8439
-19.2585
0.85786
22.7997
3.27538
15.6601
-1.05089
-21.2674
14.9505
4.75327
-0.0503993
-6.55159
13.5029
17.3076
-0.154249
-21.164
18.5099
10.7391
-0.452973
-14.5363
17.0568
14.8244
-0.391187
-19.4987
18.0014
13.2207
0.240137
-17.5681
18.032
14.6248
0.318127
63.7775
16.2307
-0.610256
-18.8356
-17.0183
-18.6943
-17.9512
-9.24325
16.1818
-9.31903
70.2381
1.33838
0.177539
65.916
13.4523
0.0673151
66.8774
2.47571
0.114705
66.4098
4.206
-0.064564
1.02083
0.229047
266.066
532.947
-42.6906
272.444
-165.749
152.929
35.5603
-182.403
240.824
23.9994
-90.0341
-15.0926
-12.8893
-79.7779
-31.3417
-12.6875
16.0205
13.6803
13.3146
24.8885
-5.77533
1.51673
-10.8636
8.12851
0.434511
0.783865
-2.10564
-1.13589
3.11818
0.189949
-0.0665974
-3.36812
-3.49136
4.39131
2.73242
-0.264254
-2.01764
-5.05871
3.89787
3.44005
-0.261576
-3.05918
-4.84282
4.36692
3.65582
-0.120738
-2.38096
-5.32706
3.88527
3.92883
-0.106076
-2.90777
-4.97374
4.08577
3.87592
-0.080187
-2.82881
-4.77219
3.95502
3.72544
-0.079464
-3.4468
16.3155
13.9027
0.0797415
-3.44515
-3.71215
-3.46305
60.6219
6.37669
-0.516553
-17.3497
-14.9252
-17.2319
-15.6368
66.7442
7.06979
0.260281
64.5943
4.4743
0.151308
65.3926
3.43615
-0.0283725
1.62176
0.1997
950.421
-642.258
572.839
674.619
-261.664
371.718
220.073
-241.491
513.635
64.9348
-20.891
85.9947
-38.1742
-32.4257
111.278
-28.7535
-19.2743
-7.49294
-12.0451
-32.5545
1.85722
4.56817
-3.4171
2.74083
-0.637833
1.00927
0.304827
0.608693
-3.70273
4.39432
-1.04545
-0.254821
0.232953
-4.49271
4.69452
-0.386185
-0.0485804
-0.524445
-4.09246
4.31763
0.235123
0.0641555
-1.0193
-3.94659
4.26318
0.689494
0.0132088
-1.13215
-3.81679
4.15197
0.771461
0.0255136
-1.20793
-3.84561
4.13232
0.870835
0.0503869
-1.16923
-3.83028
4.12321
0.837477
0.0388206
-3.90833
-7.35645
17.3052
4.72069
0.231434
-3.41632
-4.02054
-3.55573
59.5575
5.85378
-0.289864
-15.2251
-13.7992
-15.5318
-14.1887
62.2949
4.22989
0.10252
62.4057
4.2523
0.111274
62.813
3.10015
-0.0713156
1.83867
0.148441
-1762.08
-2235.65
3103.53
-954.682
-690.039
-379.025
-471.022
-496.126
-229.025
-180.994
-229.446
-81.4729
-1.23067
-157.581
-65.9437
-2.79728
8.45751
5.67544
2.90982
17.5429
-15.9835
-5.69975
2.75762
-3.82382
4.05529
-2.63241
-0.356674
1.50088
-4.53732
4.60655
-1.40619
-0.163918
0.48586
-4.34007
4.32899
-0.476004
0.00122311
0.000343876
-3.91101
3.993
0.060135
-0.142478
-0.307885
-3.92991
4.03187
0.187738
0.0181835
-0.383442
-3.69392
3.77706
0.336366
-0.0360595
-0.431825
-3.79402
3.91675
0.354854
-0.0457523
-0.412539
-3.66379
3.73032
0.365999
-0.0199899
-3.74396
-1.90973
17.2767
-1.172
0.216213
-3.3435
-3.87731
-3.44637
58.0844
4.22974
-0.314206
-14.4844
-13.1546
-14.896
-13.6112
60.1434
2.15064
0.0203375
60.7096
3.627
0.059087
60.8988
2.95344
-0.0425299
1.88777
0.139852
-1857.47
-473.374
1184.18
-506.825
-913.312
-1127.37
-201.229
-261.664
-540.059
-109.845
-195.137
-125.694
-43.6564
-107.309
-44.2966
-20.5147
-37.4431
-14.2059
26.8159
-27.5026
-42.2082
-0.761383
3.87843
-0.902957
3.22864
-5.79163
-0.412488
1.58844
-4.36102
4.8517
-1.94372
-0.135396
0.805432
-3.97271
4.5204
-1.38408
0.0309575
0.490373
-3.45386
4.05535
-1.11283
0.0209574
0.324939
-3.37823
3.98732
-0.980718
0.0466867
0.227848
-3.21311
3.89082
-0.951035
0.0454789
0.257272
-3.28037
3.93594
-0.937908
0.0250636
0.223067
-3.2869
3.83866
-0.820891
0.0460624
-3.27952
3.28097
19.2412
-10.8809
0.553198
-2.69744
-3.3688
-2.8488
53.3041
8.71043
-0.784363
-14.6809
-13.1275
-15.605
-13.587
59.064
-3.79176
0.182472
58.1839
4.36947
0.137694
59.0197
2.1082
0.00953658
2.07242
0.137021
68.9685
2159.66
-325.389
273.573
-442.223
-675.693
286.002
148.12
-422.213
322.484
-151.554
-80.0648
288.304
-38.999
-34.1299
61.4481
-196.364
-8.12921
51.688
70.7407
51.2112
68.4863
62.9152
63.0012
63.3062
10.3515
50.452
-15.3929
0.36786
2.29928
10.1676
3.20273
5.25025
-18.5345
17.9469
-11.6282
0.21545
0.693268
5.28065
0.77625
4.47706
-21.3464
20.4769
-7.27476
0.0341328
-0.452211
4.45395
-0.368692
4.70228
-12.3066
14.5629
-12.1386
0.0949518
0.184205
4.69809
0.202754
4.44996
-14.8459
15.9307
-9.48361
0.0723561
-0.288608
4.43042
-0.265315
4.47031
-12.197
14.649
-11.132
0.097795
-0.183092
4.45171
-0.156692
4.3453
-13.4347
15.1177
-9.72895
0.104433
-0.376856
4.32238
-0.349244
4.0667
-13.0894
15.7404
-10.4333
0.644224
-0.500241
4.05104
-0.479469
52.1275
5.77605
-0.847956
12.6685
-12.5042
12.5818
-12.4998
-14.5599
-13.2027
-15.745
-13.7944
59.534
1.17275
0.131208
54.8378
0.827998
0.076577
56.5246
2.59794
0.0847792
56.5886
2.07541
-0.0310374
1.33343
0.0922021
3007.19
-322.964
-5858.9
-21.3903
227.151
2359.21
731.679
-14.0171
-590.932
286.335
123.837
169.952
197.497
38.8889
10.9505
24.0791
-30.7387
7.79288
56.602
100.705
10.228
-5.23914
-66.6298
-5.04069
-66.5469
38.2906
-24.5744
0.56645
15.5419
5.99431
15.0389
5.74403
51.172
40.5824
1.22193
2.99843
-30.3289
2.9636
-30.3188
45.7185
-7.28574
0.0125507
14.4545
-8.10144
14.4948
-8.12127
51.1476
18.9456
0.0290647
8.48024
-20.6571
8.45921
-20.6861
52.1516
0.166892
0.0159096
12.9525
-13.524
12.9311
-13.5464
54.3911
9.25567
-0.05537
10.3613
-16.0595
10.3555
-16.0972
55.8426
1.31244
-0.121456
11.858
-13.0802
11.9094
-13.3297
55.4686
6.18688
-0.0368967
55.8637
0.773009
0.00471444
54.2384
2.40947
0.0439362
55.1853
1.61078
0.0403539
55.3579
1.95137
-0.0485019
0.613499
0.0916313
1352.1
-1228.09
-469.799
1162.01
-101.389
518.625
754.953
144.445
248.599
560.589
200.863
117.338
305.803
203.619
90.0559
210.806
43.5768
20.6819
167.542
130.489
13.4803
126.606
14.4146
1.94641
101.348
64.6798
1.16093
84.3086
9.58594
0.167716
73.0239
30.1528
0.0774976
65.694
7.49321
0.00352945
60.7176
14.1739
0.0582055
56.935
5.12664
-0.0315716
56.2972
6.88066
-0.0559792
54.9342
2.12768
0.00824116
54.3242
3.00389
0.0155195
54.665
1.25657
0.0134079
54.5143
2.14686
-0.0447631
0.168356
0.0523718
490.153
-101.011
742.25
217.625
-339.665
510.803
69.8306
2.72208
289.517
107.555
128.579
34.5594
44.3202
146.204
120.65
13.2539
72.8358
1.80749
25.6917
97.491
20.5599
13.6163
26.0427
0.447311
32.8362
43.399
2.06106
31.5129
10.7678
0.1414
41.4455
20.0395
0.18084
43.7636
5.16108
0.0140658
47.9078
10.087
-0.0573396
49.8522
3.20599
-0.0236641
51.7163
5.03426
-0.0177279
52.3344
1.49374
0.0156318
52.7813
2.54012
0.0168149
53.1457
0.882093
0.0102709
53.345
1.99287
-0.0453707
-0.0592437
0.053135
1163.5
-766.937
-1119.12
831.91
-880.067
871.996
450.769
-278.944
662.808
330.783
107.437
141.128
155.782
222.771
98.4335
139.404
85.947
3.2665
99.5399
126.974
10.3813
90.6515
34.5075
0.423585
75.4051
57.6806
0.964795
66.1017
19.9868
0.0844859
62.7276
23.4321
-0.0183573
57.4318
10.3531
0.103975
56.0085
11.5529
-0.0426613
54.1436
5.06726
0.00370335
53.9292
5.26788
-0.0190946
53.1652
2.24742
0.0103866
53.0512
2.64177
0.0123783
52.9768
0.950309
0.00622208
53.1507
1.85594
-0.0370467
-0.126797
0.0396796
112.338
-948.786
-1777.41
764.115
-488.071
-1043.77
362.129
-59.1967
182.238
259.448
96.2784
113.84
-21.4191
251.233
252.406
0.562925
54.5694
9.39548
-6.63887
105.734
28.4414
4.47949
23.2593
0.130062
19.0228
41.1043
2.03299
25.3514
13.5083
0.150088
35.0466
13.6317
0.105265
39.0441
6.34735
0.00806086
43.9145
6.71257
-0.03001
46.2977
2.68552
-0.00126008
48.5468
3.03892
-0.0201183
49.586
1.19006
0.018013
50.6705
1.5402
0.0171251
51.1493
0.462662
0.00874333
51.8705
1.17027
-0.0355302
-0.126638
0.0356583
-743.538
1496.16
-1862.45
-663.92
90.7276
-658.418
-364.057
119.252
-478.312
-231.597
57.4249
-93.606
-75.6024
115.735
-20.4975
-39.7836
22.3124
-3.56173
5.57033
61.0575
-0.676767
19.8503
9.16679
-0.187305
35.2496
25.5344
0.170537
41.196
7.51474
0.0471384
45.2589
9.60107
-0.0322337
47.1033
4.45649
0.0465365
49.3061
4.53018
-0.0202945
49.9745
2.01469
0.00243171
50.9523
2.07929
-0.0181899
51.0339
1.09655
0.011895
51.4766
1.08697
0.0104953
51.5085
0.425713
0.00512833
51.9765
0.737481
-0.0351138
-0.045846
0.0321422
-592.488
129.921
-596.83
95.0691
-308.704
-168.874
-222.09
-29.1894
-102.561
-3.79289
-77.7332
-2.51554
-16.687
0.0112689
-7.88208
0.361999
17.5807
0.0716588
24.9639
0.131412
34.6
-0.0348939
39.0103
0.0463378
43.5622
-0.0217595
45.5699
0.00706051
47.6662
-0.017003
48.748
0.0148138
49.8234
0.0116503
50.2411
0.00800835
51.0132
-0.0347034
0.0318746
559.062
-1663.88
-3707.26
-72.2927
42.1568
-301.973
283.313
-133.006
-550.65
242.878
67.842
5.24349
238.374
134.813
369.975
184.394
78.8303
140.257
143.883
56.8511
82.0215
117.272
26.4353
7.12082
102.847
14.3364
5.19408
91.7566
11.0959
0.0435962
87.1093
4.46344
0.296688
83.2269
3.94757
-0.079514
81.0396
2.12162
-0.0920499
79.5712
1.49696
0.00466452
78.4208
1.11132
-0.0474889
77.3674
1.0675
0.0460798
76.5799
0.818682
0.0825127
75.9179
0.71642
0.0842944
75.3504
0.500658
-0.00476946
0.355897
0.177827
170.281
-1875.99
1386.36
-55.8192
-40.3371
-666.93
87.0524
-32.6899
-729.571
20.834
169.314
-281.785
95.5694
115.382
-88.1049
80.9674
99.7755
9.04746
101.013
42.7739
-0.956391
88.6685
38.8999
0.720523
92.7968
10.5307
-0.0916542
86.933
16.5986
-0.381209
86.5486
5.28844
0.161195
81.6838
8.53327
-0.248282
81.5633
2.23679
-0.122942
79.0434
4.09259
0.0382883
78.5211
1.62066
-0.0310107
77.1386
2.48537
0.0674328
76.3512
1.64965
0.0922143
75.5899
1.53526
0.0848851
75.0635
0.963277
-0.00246123
0.726698
0.167181
542.741
-1012.7
2602.19
156.193
176.564
-673.617
186.376
116.902
-217.974
136.362
298.199
-113.245
171.936
104.287
-2.40722
142.244
126.405
12.9923
135.323
42.9851
13.1619
113.425
60.5716
1.67536
104.506
18.453
1.7207
92.552
28.5644
0.0721196
88.7009
9.00166
0.11746
83.1532
14.1149
-0.0363617
80.3443
4.99594
-0.0975337
79.0451
5.40212
-0.0530434
78.0149
2.61734
-0.0503293
76.9821
3.52787
0.0459348
76.2446
2.4093
0.0777604
75.5593
2.26516
0.073242
74.8611
1.5957
-0.00772827
0.783441
0.154476
494.255
-526.341
-1767.03
107.046
563.251
-682.968
37.4774
226.699
-207.587
54.4869
342.424
-89.4922
34.9014
98.8627
-18.6398
24.6978
134.889
-1.28768
52.5036
7.67294
2.56284
47.3819
65.0713
0.00625573
67.658
-2.18599
0.393964
67.3704
28.8342
-0.0291308
76.3618
-0.0159309
0.00407965
77.0051
13.4661
0.00786304
80.9213
1.08621
-0.116519
77.6563
8.35521
-0.309288
77.9544
2.34023
-0.0483417
75.9716
5.568
0.0846239
74.8422
3.59103
0.0991699
74.0883
3.07931
0.0829686
73.5253
2.09828
-0.00460119
1.19106
0.159671
-215.595
297.511
-1718.32
-454.922
423.363
1096.19
-275.874
75.6474
-109.229
-56.6671
179.353
-106.17
68.5115
35.1946
-150.188
88.4144
119.478
-21.9656
111.45
-13.9871
-12.3111
89.593
86.0686
-0.77048
95.9424
-8.36995
-1.13887
83.4113
41.3966
0.16157
85.4296
-2.06489
-0.198828
78.9339
20.0059
0.0515761
78.0013
1.99173
-0.0978436
76.8146
9.545
-0.0824885
76.4521
2.68673
-0.0339331
75.279
6.75101
0.0510304
74.1445
4.74709
0.0712902
73.614
3.64762
0.0726442
72.8215
2.82972
-0.0189535
1.14435
0.141308
-754.407
-325.19
-190.394
-170.844
-74.3142
689.807
-164.059
-97.9399
282.362
-85.5867
19.1318
141.679
-31.3625
-42.0526
36.9901
-61.7716
138.656
14.6635
45.4127
-125.743
6.54886
20.3464
110.176
1.37025
58.8254
-47.226
0.75398
57.7335
42.426
0.150638
72.813
-17.1618
0.0371078
74.1753
18.6513
0.018669
77.6937
-1.62135
-0.162031
74.659
12.3991
-0.205196
75.0283
2.33312
0.00338145
72.8787
8.93044
0.0759825
71.4154
6.25719
0.0868376
71.3124
3.80292
0.0802444
70.7484
3.33879
-0.0165355
1.36386
0.140104
-691.252
457.932
1861.92
-253.465
-54.6042
72.6155
-155.531
-14.4442
308.189
-67.7498
-81.7097
74.169
52.2341
-158.39
13.532
1.68354
182.969
3.65747
81.0774
-24.8188
-0.788845
-78.3458
-24.8324
-78.3347
61.6345
41.3641
1.10667
23.1017
41.3377
23.1063
83.1944
-1.49773
-0.272587
-32.8924
-1.50594
-32.8889
72.735
23.9883
-0.136821
2.33073
23.9892
2.33616
77.0355
7.51553
-0.111713
-18.2584
7.51375
-18.25
75.184
16.8138
-0.0126364
-6.57058
16.8123
-6.56772
74.2546
11.9442
-0.0399751
-12.3046
11.9525
-12.3023
73.6873
15.46
-0.0433558
-9.02494
15.4895
-9.02207
71.5178
4.5283
0.0058592
72.4697
8.00765
0.0914729
69.4934
9.25751
0.0681387
69.7735
3.56528
0.0587818
69.3627
3.6943
-0.0144974
1.17605
0.116213
-90.9548
-75.4753
-661.982
288.753
-238.138
-277.638
323.142
-15.8593
380.254
227.74
-58.5168
112.734
99.2398
-101.913
102.852
14.7681
45.4075
7.549
18.5297
14.7271
18.5252
58.2715
45.7467
58.2608
-0.80731
7.17077
-19.1167
2.70256
0.275819
19.686
4.79265
16.2348
0.374797
-0.069669
-22.4701
16.1393
4.80558
0.0972461
0.0935798
-7.59006
14.3849
17.1518
-0.0518688
0.192348
-21.8888
18.5605
10.7548
-0.103317
0.180317
-15.1004
17.0532
14.7759
-0.0951693
-0.078991
-19.2607
18.1477
13.1073
0.0289191
-0.135379
-17.3448
18.3561
14.5309
0.0531908
63.7757
16.227
-0.280208
-18.7389
-17.9891
-18.7464
-17.9791
-9.28709
16.2345
-9.29849
70.5388
1.31219
0.10995
66.3046
13.4911
0.0678004
67.433
2.48203
0.0695993
66.8688
4.21338
-0.0193746
1.01645
0.101565
70.3765
-1228.02
1182.1
-43.5426
-621.25
649.96
49.4904
-117.908
249.841
13.0905
-58.1926
20.9828
9.37863
-66.0525
-84.9454
6.7466
8.67088
6.03756
4.22205
33.6201
22.7732
-5.82915
0.817619
0.7475
-14.5058
11.6356
2.25438
-0.949298
0.0392602
-3.23113
-1.55454
3.95554
0.852832
-0.0619558
0.0251619
-3.79123
-3.43681
4.50056
2.71576
-0.0134402
0.0428025
-2.32034
-5.02142
3.86809
3.45681
-0.025944
0.022999
-3.34017
-4.82199
4.48181
3.67314
-0.0157962
0.0192637
-2.64116
-5.30913
4.00332
3.93858
-0.0108811
0.0169992
-3.17815
-4.94465
4.24001
3.87589
-0.0101056
0.0169121
-3.08881
-4.74328
4.10841
3.715
-0.00822643
-3.75131
-0.03405
16.898
13.8573
0.013728
-3.5044
-3.7482
-3.50411
60.6989
6.3058
-0.238783
-17.2931
-15.6898
-17.2996
-15.6878
67.1012
7.21837
0.130854
65.1552
4.49977
0.0797039
65.9125
3.432
-0.00425553
1.62189
0.0843698
328.968
-1025.19
-1402.02
-298.329
-239.236
617.001
40.7371
-187.986
244.647
-93.7889
8.2208
154.108
-27.3389
-41.1984
81.7036
-16.6597
-28.0042
-17.0662
-6.19506
-9.6006
-24.4887
3.44562
9.49994
-0.411506
-5.24713
0.525908
1.87455
2.81991
0.438273
0.170377
0.451427
-4.41675
4.8818
-0.928209
-0.158644
-0.00229538
0.208053
-4.51656
4.69257
-0.395435
0.0136656
-0.112391
-0.5574
-4.03099
4.34095
0.208582
0.151247
0.0785152
-1.04254
-3.94356
4.27431
0.705278
-0.0720022
-0.00629642
-1.14363
-4.01032
4.41087
0.761098
-0.0117258
-0.0388873
-1.18763
-3.97291
4.28011
0.8697
0.0496187
-0.041114
-1.16446
-3.94147
4.2681
0.839955
0.0389949
-4.05425
-0.146515
-7.26439
17.8819
4.75077
0.0731829
-3.59233
-4.05707
-3.59132
59.8955
5.85497
-0.123185
-15.5761
-14.2401
-15.5733
-14.2218
62.8423
4.31534
0.0588107
63.1201
4.27023
0.0629888
63.405
3.1033
-0.0274915
1.83619
0.054926
-1901.42
-1774.57
3149.35
-1147.8
-703.588
-668.288
-484.356
-584.198
-496.259
-194.914
-242.813
-119.881
4.59099
-165.72
-148.82
1.75964
4.52365
1.60957
7.49509
2.27274
22.7724
-17.4345
-10.5146
0.807009
3.27343
-5.46804
6.53468
-4.21019
-0.936882
0.16534
1.29994
-4.83442
4.79668
-1.26897
-0.158577
0.0452567
0.491055
-4.48956
4.47177
-0.474024
-0.0444951
0.831341
-0.113649
-3.99348
4.34733
0.331556
-1.4031
0.0269645
-0.270223
-4.12696
4.15453
-0.0998666
0.315563
0.137532
-0.414956
-3.60267
3.69808
0.393274
-0.211252
0.118556
-0.459821
-3.85093
3.9654
0.442888
-0.216088
0.00741056
-0.376558
-3.90988
3.90141
0.347319
0.0302991
-3.89979
-0.12505
-1.93868
17.9627
-1.16403
0.0475667
-3.48822
-3.8908
-3.5037
58.5605
4.30847
-0.128167
-14.9418
-13.6591
-14.9477
-13.6514
60.7453
2.12942
0.0214856
61.4183
3.62324
0.0330391
61.5312
2.95845
-0.0105574
1.88706
0.0595199
-430.314
-20.5355
3323.39
40.2414
-588.676
-1712.84
-31.7288
-124.266
-928.021
-71.634
-83.2707
-245.33
-36.7911
-74.3695
-107.358
-13.0398
-37.0204
-13.0722
1.39258
27.8375
-22.9398
-41.4074
-1.67397
-0.143077
4.16485
-1.50108
3.73747
-6.38888
0.130732
0.0453572
1.57486
-4.70413
5.12199
-2.01865
-0.019432
-0.0119533
0.805358
-4.1654
4.72415
-1.36279
0.01064
0.0489102
0.47137
-3.64232
4.29795
-1.0934
-0.0825105
-0.0936646
0.315034
-3.56825
4.19944
-0.969895
0.117332
-0.0398762
0.193741
-3.38228
4.12431
-0.921526
0.0256394
0.0445029
0.232211
-3.48289
4.18058
-0.927269
-0.0471377
-0.021975
0.20956
-3.43999
4.03925
-0.806381
0.019535
-3.37069
-0.320583
3.16578
20.2053
-10.7401
0.187606
-2.87793
-3.37013
-2.87922
53.3976
8.87461
-0.325667
-15.6078
-13.6076
-15.5975
-13.6095
59.462
-3.82865
0.0763209
58.8015
4.35138
0.0701322
59.6632
2.10002
0.0064255
2.071
0.0590603
790.277
616.783
-1765.78
1021.11
53.0269
-1548.23
621.212
498.579
-645.157
511.755
96.8991
-150.777
330.636
31.2815
41.3377
64.3
-184.561
13.0138
49.7485
66.3014
50.0789
66.0338
66.7344
64.2057
66.6514
9.7728
0.514029
51.4206
-14.2372
0.99241
3.03177
9.78433
3.02123
5.26117
-0.769337
-19.2849
18.5228
-11.3158
0.877865
0.72377
5.2623
0.722173
4.44701
-0.250135
-21.841
20.9149
-7.20471
0.255104
-0.384116
4.44702
-0.383989
4.70494
-0.121496
-12.6563
14.9623
-12.0526
0.0818149
0.187956
4.70556
0.187845
4.44709
-0.0547834
-15.2203
16.3243
-9.43018
0.0331134
-0.274079
4.44827
-0.273495
4.45524
-0.0524889
-12.5323
15.0397
-11.0646
0.0202355
-0.160352
4.45544
-0.160809
4.33153
-0.0605002
-13.7804
15.5366
-9.68281
0.0316235
-0.354228
4.33251
-0.354365
4.04668
-0.440385
-13.467
16.9905
-10.4275
0.251294
-0.501293
4.04873
-0.501059
52.2878
5.90699
-0.358939
12.6411
-12.4594
12.6607
-12.4595
-15.7502
-13.7916
-15.7377
-13.7872
60.0149
1.20981
0.068949
55.4485
0.757406
0.057106
57.2837
2.56526
0.0357944
57.2926
2.06862
-0.00853692
1.32371
0.0355791
-335.49
234.478
-1610.79
3.71348
771.78
1301.25
319.227
387.747
-795.614
190.542
269.82
125.716
166.606
86.0394
-19.8719
9.05998
-24.2861
5.06382
55.8698
103.428
8.15966
-6.93306
-67.3686
-6.63279
-67.2353
37.4784
-24.3154
0.860174
15.2487
5.90718
15.3409
5.91635
51.6023
40.7471
1.32049
2.87923
-30.3682
2.88622
-30.3664
46.3728
-7.29522
-0.00184064
14.4084
-8.13962
14.4114
-8.14104
51.8372
18.9606
0.0959889
8.45812
-20.7025
8.45926
-20.7068
52.9007
0.179225
0.00854532
12.9466
-13.5638
12.9488
-13.567
55.1634
9.22341
-0.0402013
10.3729
-16.1245
10.3762
-16.1261
56.638
1.28132
-0.0623553
11.9113
-13.3319
11.9329
-13.3274
56.2268
6.30611
-0.0249161
56.6415
0.775552
0.0242777
55.0183
2.40783
0.0167313
56.0031
1.60541
0.0155956
56.0852
1.95593
-0.0179217
0.613717
0.0402013
926.48
-94.9392
3066.28
579.371
510.29
1127.22
410.244
322.363
483.109
384.248
239.693
173.463
257.509
212.9
89.9337
191.912
42.4341
19.5587
164.354
130.978
13.4891
125.954
14.1937
1.83725
101.895
64.7008
1.26675
85.0947
9.594
0.0789
73.9395
30.1304
0.0629136
66.6337
7.52261
-0.0340688
61.5931
14.2069
0.115492
57.7178
5.16106
-0.0358501
57.0815
6.89125
-0.00476627
55.7232
2.1335
0.00860474
55.1308
3.00297
0.0127978
55.4977
1.25632
-0.00443639
55.2716
2.15255
-0.0153304
0.163319
0.0112357
-922.125
-22.8233
656.454
-394.919
29.5612
464.325
-53.7585
4.63433
266.086
-54.6026
111.4
163.696
28.0243
123.922
127.001
-9.19021
72.8824
8.57374
24.0987
98.0807
20.1682
12.2944
26.1096
0.336031
33.2935
43.4753
2.28759
32.1523
10.8147
0.0618014
42.1755
20.0698
0.218423
44.5651
5.14787
-0.00070689
48.7025
10.0587
-0.0464908
50.6469
3.21462
-0.0213784
52.4923
5.04159
-0.0136142
53.1341
1.49645
0.0107037
53.6014
2.5415
0.0109043
53.9908
0.882568
-0.00533149
54.1172
1.99511
-0.0144402
-0.0598546
0.0140518
70.6055
-187.163
668.603
175.455
-78.8307
875.539
232.547
49.8282
560.522
239.074
138.248
107.753
132.34
223.556
105.534
129.089
72.4849
6.91507
97.7216
126.123
13.7061
90.266
34.304
-0.31518
75.9953
57.5851
1.12554
66.98
19.9855
-0.0710063
63.6304
23.4308
-0.0297299
58.3531
10.396
0.133209
56.8357
11.5643
-0.0307547
54.9773
5.076
0.000660437
54.7369
5.27239
-0.00959824
53.9839
2.25052
0.00930569
53.8836
2.64376
0.0105581
53.8282
0.95172
-0.00753025
53.9364
1.85796
-0.00803363
-0.126806
0.00502679
-500.495
-953.402
-1274.46
-394.738
-59.0609
-1169.3
-344.989
230.786
-48.4691
-202.876
148.078
-38.1025
-77.0536
228.438
121.701
-45.4228
50.1893
0.0602076
-9.13981
103.168
15.114
2.23047
23.0725
-0.00876827
19.4067
40.8905
1.55132
25.9929
13.5107
0.038876
35.7852
13.6381
0.105686
39.8701
6.32831
-0.00897178
44.7138
6.71649
-0.0257739
47.1034
2.68935
-0.00414701
49.3285
3.04156
-0.0143045
50.3929
1.19129
0.0129283
51.5001
1.54085
0.0127976
52.0037
0.463168
-0.00626172
52.6625
1.17122
-0.00757179
-0.127022
0.00240257
-465.268
106.458
-4004.11
-563.827
-66.6834
-552.236
-347.673
55.4667
-519.146
-230.039
50.6414
-113.804
-75.9069
100.335
-46.5271
-41.21
19.6778
-7.74712
5.75755
58.9801
-3.45626
20.2092
9.0117
-0.578195
35.9556
25.4272
-0.112463
42.0277
7.54026
-0.0542032
46.0766
9.59269
-0.035604
47.966
4.46001
0.025614
50.144
4.53194
-0.0136501
50.816
2.01842
0.00133363
51.7691
2.08146
-0.0111541
51.8647
1.09795
0.00970712
52.3194
1.08764
0.00890692
52.3695
0.426479
-0.00822618
52.7751
0.737839
-0.0073746
-0.0452621
0.000959191
-1518.75
-1465.7
-768.004
-722.361
-398.702
-482.709
-247.5
-129.75
-106.441
-44.5158
-78.5048
-10.7741
-16.5614
-2.9523
-7.5552
0.36764
18.1825
-0.238602
25.7948
0.0592279
35.3961
-0.0434888
39.8767
0.0258189
44.4022
-0.0153602
46.4235
0.00426279
48.4987
-0.0107009
49.6006
0.0109046
50.6901
0.00982229
51.1313
-0.00669079
51.8413
-0.00691667
-0.000830458
49.2086
-472.08
-6031.96
160.926
145.31
-559.001
270.303
32.5348
-692.561
189.635
143.925
-58.0135
210.509
160.84
188.261
186.131
83.1786
81.4559
144.327
58.6574
65.1683
118.306
27.3218
5.81944
102.902
14.6575
5.9413
91.7784
11.1465
0.0201231
87.1369
4.54204
0.395873
83.2298
3.92455
-0.0971046
81.0582
2.12506
-0.045783
79.5681
1.50237
-0.00767194
78.4303
1.11576
-0.025365
77.3746
1.07086
0.0308592
76.5833
0.820639
0.0529636
75.9019
0.717043
0.0486592
75.3797
0.500695
0.0168394
0.35429
0.0772548
43.4806
-574.613
2023.16
-178.495
29.212
-328.856
68.8415
-80.182
-864.19
46.5767
153.864
-269.458
99.2081
116.01
-95.9056
88.245
95.686
7.50354
101.304
42.876
1.76628
89.5544
38.8644
0.927489
92.9166
10.721
0.482579
87.0253
16.7229
-0.0666143
86.4926
5.25966
-0.0237398
81.7291
8.5694
-0.129831
81.5825
2.23491
-0.0862012
79.0403
4.07797
0.00492885
78.5292
1.61627
-0.0203762
77.144
2.48226
0.0411426
76.3533
1.6467
0.0568462
75.573
1.53375
0.0484983
75.0919
0.962189
0.0171091
0.724362
0.0718329
633.839
-544.22
1413.87
-218.746
162.761
45.4197
149.014
-203.337
-462.579
105.655
198.949
-114.972
152.089
77.6085
-10.4396
130.041
117.76
12.9663
133.936
41.9518
10.1905
111.935
60.5707
1.97056
104.388
18.5294
1.45967
92.4837
28.6278
0.0710193
88.7063
9.01846
0.13597
83.1511
14.1234
-0.0351824
80.3482
4.99978
-0.0593762
79.0501
5.36354
-0.0405449
78.0254
2.62024
-0.0297492
76.9881
3.53402
0.0313366
76.2476
2.41332
0.0515291
75.5431
2.26854
0.0429058
74.8884
1.59456
0.014679
0.783219
0.0651495
-252.308
-155.316
-619.5
-231.673
569.473
-1110.31
-228.893
-71.0072
-342.697
-76.4687
242.847
-285.815
6.5802
62.9797
-87.0598
4.99874
130.319
-12.2649
50.1337
6.6043
-7.2246
46.3236
65.3232
-0.936285
67.5053
-2.2956
0.0372469
67.2826
28.8718
-0.0503734
76.3488
-0.0241915
-0.0194976
76.9965
13.4776
0.00587819
80.8817
1.08352
-0.0855014
77.7013
8.3866
-0.152178
77.9687
2.3458
-0.0412964
75.9758
5.56323
0.0483269
74.844
3.58574
0.0585499
74.071
3.07649
0.0480024
73.5514
2.09627
0.0133415
1.18956
0.0702066
-1000.84
310.34
-207.149
-423.314
292.436
795.708
-222.4
-85.6391
-295.511
-60.2618
106.315
-131.776
51.1288
18.8258
-217.425
83.4332
117.909
-41.8598
108.745
-16.8107
-14.2075
89.216
85.7855
-1.70414
95.8745
-8.56271
-1.53036
83.3803
41.3913
0.136144
85.4197
-2.0723
-0.189929
78.9236
19.9955
0.0296899
77.9952
1.98434
-0.0703917
76.8258
9.53381
-0.0601635
76.4608
2.69994
-0.0229815
75.2854
6.75712
0.0324909
74.1453
4.7504
0.0467307
73.6002
3.64922
0.0449707
72.8438
2.82957
0.00411224
1.144
0.0598017
-536.552
-103.652
-602.179
-155.277
-79.8058
680.773
-151.529
-130.42
323.394
-87.2794
18.7239
165.021
-41.9776
-35.0557
45.5696
-64.6176
139.598
15.6141
44.2936
-125.581
6.40809
19.9777
110.302
1.16912
58.6834
-47.2212
0.706652
57.7038
42.4033
0.118324
72.805
-17.1608
0.0244653
74.1559
18.6504
0.0127516
77.68
-1.60279
-0.0989367
74.6935
12.4167
-0.101568
75.0331
2.36194
0.00176965
72.883
8.93486
0.0483163
71.4152
6.25803
0.0470065
71.2982
3.79971
0.0466596
70.7699
3.3385
0.00288835
1.36035
0.060104
-81.8442
275.781
4540.22
-126.959
98.9395
-61.0146
-261.353
-0.661702
312.825
-94.873
-90.3799
16.7928
37.9634
-165.538
11.178
-2.98296
182.731
1.47072
79.3155
-25.0943
-1.51708
-78.4375
-25.1595
-78.4602
61.3839
41.4554
0.194457
23.1125
41.4562
23.1221
83.0467
-1.48807
-0.400291
-32.8883
-1.49014
-32.8897
72.7655
23.9921
-0.101028
2.33443
23.99
2.33232
77.0355
7.50827
-0.0649089
-18.2464
7.50655
-18.2461
75.1858
16.8049
0.0230662
-6.57165
16.8034
-6.57226
74.2504
11.9555
-0.0127915
-12.303
11.9561
-12.3032
73.6874
15.4925
0.0029689
-9.02529
15.4934
-9.02726
71.5241
4.57143
-0.0403663
72.4636
8.08312
0.00367793
69.4934
9.26015
0.0361557
69.7588
3.5618
0.0313089
69.3832
3.6934
0.00619574
1.17269
0.0484698
-217.051
50.1103
2183.16
-136.978
99.1491
-357.921
127
113.906
1.70812
137.911
-16.9366
28.3791
75.7453
-101.528
101.008
11.1886
44.2663
7.47119
15.5891
11.1044
15.5494
58.17
44.386
58.3009
-4.3187
6.01679
-19.7651
4.16147
-0.978335
20.8575
4.5058
16.2562
0.814238
-0.135903
-22.3578
16.0898
4.80806
0.107722
0.0176556
-7.56695
14.375
17.1561
0.0102968
0.0454378
-21.887
18.5901
10.7711
-0.0113343
0.0434611
-15.0727
17.0614
14.7849
-0.0122388
-0.0108264
-19.2771
18.1316
13.1042
0.00758989
-0.0224284
-17.3583
18.3397
14.5326
0.000945422
63.7753
16.224
0.218533
-18.7555
-17.9946
-18.7565
-17.9941
-9.32362
16.2239
-9.32601
70.5078
1.4253
0.035108
66.3051
13.496
0.0346241
67.4233
2.48677
0.0265595
66.8908
4.21599
-0.00943527
1.01335
0.0401444
-741.097
-29.9069
164.697
27.5728
121.11
-140.671
270.545
131.119
-10.3438
184.095
62.6939
27.8022
22.521
-58.521
-27.7368