/*--------------------------------*- C++ -*----------------------------------*\
  =========                 |
  \\      /  F ield         | OpenFOAM: The Open Source CFD Toolbox
   \\    /   O peration     | Website:  https://openfoam.org
    \\  /    A nd           | Version:  10
     \\/     M anipulation  |
\*---------------------------------------------------------------------------*/
FoamFile
{
    format      ascii;
    class       volScalarField;
    location    "0.1";
    object      turbidity_0;
}
// * * * * * * * * * * * * * * * * * * * * * * * * * * * * * * * * * * * * * //

dimensions      [0 0 0 0 0 0 0];

internalField   nonuniform List<scalar> 
12920
(
-0.0311923
-0.0231227
-0.0314843
-0.0379345
-0.0430374
-0.0473342
-0.0487101
-0.0489609
-0.0489955
-0.0490008
-0.0490017
-0.0490019
-0.0490019
-0.0490019
-0.0490018
-0.0490018
-0.0490017
-0.0490017
-0.0490015
-0.0490015
-0.0298731
-0.0236323
-0.0353724
-0.0428133
-0.0479036
-0.0488242
-0.0489687
-0.0489952
-0.0490004
-0.0490016
-0.0490014
-0.0490019
-0.0490017
-0.0490019
-0.0490018
-0.0490018
-0.0490017
-0.0490017
-0.0490014
-0.0490015
-0.0212117
-0.0252958
-0.0413046
-0.0460699
-0.0482085
-0.0487861
-0.0489512
-0.0489917
-0.049
-0.0490016
-0.0490019
-0.0490019
-0.0490018
-0.0490018
-0.0490018
-0.0490019
-0.0490018
-0.0490017
-0.0490015
-0.0490015
-0.0262758
-0.0308459
-0.0413697
-0.0471691
-0.0481617
-0.0488344
-0.0489488
-0.04899
-0.0489977
-0.0490013
-0.0490013
-0.0490019
-0.0490016
-0.0490019
-0.0490018
-0.0490018
-0.0490018
-0.0490017
-0.0490015
-0.0490015
-0.0327189
-0.0360849
-0.04246
-0.044911
-0.0464472
-0.0481467
-0.0486191
-0.0489142
-0.0489677
-0.0489952
-0.0489989
-0.0490013
-0.0490015
-0.0490016
-0.0490018
-0.0490019
-0.0490017
-0.0490013
-0.0490016
-0.0490015
-0.0352181
-0.0393235
-0.046352
-0.0484035
-0.0488401
-0.0489486
-0.0488645
-0.0489787
-0.048946
-0.0489848
-0.0489802
-0.0489916
-0.0489926
-0.0489961
-0.0489983
-0.0490011
-0.0490016
-0.0490016
-0.0490017
-0.0490015
-0.0223121
-0.0351018
-0.0444713
-0.0479287
-0.0487079
-0.0487945
-0.0463418
-0.0479154
-0.0468046
-0.0477985
-0.0476251
-0.0479993
-0.0480382
-0.0481809
-0.0487371
-0.0489412
-0.0489877
-0.048999
-0.0490013
-0.0490015
-0.0157186
-0.0298078
-0.0403169
-0.0463631
-0.0482202
-0.0481766
-0.02949
-0.0134726
-0.00867669
-0.00789129
-0.00730692
-0.00725938
-0.00698783
-0.0069318
-0.0305392
-0.0427243
-0.047282
-0.0486129
-0.0489274
-0.0489893
-0.018981
-0.0291539
-0.0397507
-0.0449113
-0.0470385
-0.0313314
-0.0164235
-0.000637835
0.00207024
0.00234223
0.00239721
0.00241881
0.00245376
0.00248316
-0.00187924
-0.0304962
-0.042747
-0.0472993
-0.0486195
-0.0489288
-0.0111077
-0.0253904
-0.0386829
-0.0465508
-0.0482844
-0.0280257
-0.0106474
0.00111185
0.00307775
0.0031654
0.00316362
0.00316707
0.0031683
0.00316837
-0.00122733
-0.0302202
-0.0426356
-0.0472711
-0.0486131
-0.0489276
-0.025037
-0.0352593
-0.038736
-0.0449281
-0.0467207
-0.0309227
-0.0126524
0.0010731
0.0030813
0.00316239
0.00316603
0.0031642
0.00316337
0.00316501
-0.00121495
-0.0301753
-0.0426229
-0.0472712
-0.0486137
-0.0489281
-0.0252295
-0.0273537
-0.0354946
-0.0455227
-0.0472547
-0.0280972
-0.011388
0.00102384
0.00308148
0.00316726
0.00316836
0.00316784
0.00316664
0.00316813
-0.00123457
-0.0304141
-0.0427199
-0.0472948
-0.0486192
-0.0489292
-0.0171145
-0.0281822
-0.0349529
-0.0428651
-0.0469237
-0.0482073
-0.0330029
-0.011731
-0.00589628
-0.00507339
-0.00503287
-0.00503286
-0.00504156
-0.00505214
-0.0303645
-0.0426031
-0.0472342
-0.0486024
-0.0489247
-0.0489889
-0.0536517
-0.0395735
-0.0278874
-0.0420682
-0.0470292
-0.0485319
-0.0473498
-0.0481155
-0.0477877
-0.048129
-0.0480335
-0.0481969
-0.0481673
-0.0482414
-0.0486782
-0.0488854
-0.0489693
-0.0489945
-0.049
-0.0490015
-0.0148797
-0.0239046
-0.0344556
-0.0434483
-0.0474808
-0.0487226
-0.0489321
-0.0489783
-0.0489819
-0.0489866
-0.0489887
-0.0489918
-0.0489941
-0.0489961
-0.0489976
-0.0490005
-0.0490015
-0.0490018
-0.0490018
-0.0490011
-0.0202797
-0.038608
-0.0449272
-0.0476797
-0.0486363
-0.0489201
-0.0489831
-0.0489976
-0.0490006
-0.0490015
-0.0490017
-0.0490018
-0.0490019
-0.0490016
-0.0490018
-0.0490019
-0.0490019
-0.0490018
-0.0490018
-0.0490011
-0.0259306
-0.032422
-0.0415643
-0.0465327
-0.0482874
-0.0488389
-0.0489677
-0.0489949
-0.0490004
-0.0490015
-0.0490016
-0.0490019
-0.0490019
-0.0490019
-0.0490019
-0.0490019
-0.0490019
-0.0490018
-0.0490018
-0.0490012
-0.0125146
-0.0223178
-0.0365786
-0.0452676
-0.0481272
-0.0488405
-0.0489673
-0.0489938
-0.0489998
-0.0490013
-0.0490018
-0.0490019
-0.0490019
-0.0490019
-0.0490019
-0.0490019
-0.0490019
-0.0490018
-0.0490018
-0.0490012
-0.016044
-0.0277313
-0.0417295
-0.0469618
-0.0485864
-0.0489213
-0.048982
-0.0489965
-0.0490005
-0.0490015
-0.0490018
-0.0490019
-0.0490019
-0.0490019
-0.0490019
-0.0490019
-0.0490019
-0.0490018
-0.0490018
-0.0490012
-0.0248041
-0.0403858
-0.0451174
-0.0480427
-0.0487307
-0.0489233
-0.0489815
-0.0489966
-0.0490005
-0.0490015
-0.0490018
-0.0490019
-0.0490019
-0.0490019
-0.0490019
-0.0490019
-0.0490019
-0.0490018
-0.0490018
-0.0490012
-0.00353425
-0.00157016
-0.00547122
-0.00901809
-0.0133971
-0.00695258
-0.00265701
-0.000611933
-0.000191128
-4.20178e-05
-1.20607e-05
-3.23818e-06
-1.09477e-06
-7.86054e-07
-6.18892e-07
-6.72806e-07
-6.27512e-07
-6.47824e-07
-6.59541e-07
-1.08992e-06
-0.00433687
-0.00149871
-0.000968705
-0.00116071
-0.00154017
-0.000732236
-0.000257209
-7.25915e-05
-2.72759e-05
-9.42651e-06
-2.97671e-06
-1.6186e-06
-7.03706e-07
-7.32587e-07
-6.17851e-07
-6.68021e-07
-6.2834e-07
-6.51907e-07
-6.57362e-07
-1.12698e-06
-0.00647945
-0.00116826
-0.000888076
-0.000649328
-0.000922373
-0.000508702
-0.00024851
-8.18731e-05
-3.35507e-05
-1.00336e-05
-3.04007e-06
-1.44279e-06
-7.08066e-07
-6.89628e-07
-6.10145e-07
-6.72706e-07
-6.33474e-07
-6.38755e-07
-6.52922e-07
-1.09437e-06
-0.00516334
-0.00381626
-0.000778908
-0.000408491
-0.000190861
-8.72118e-05
-2.83703e-05
-1.41286e-05
-5.52729e-06
-4.00057e-06
-1.64581e-06
-1.28514e-06
-6.88099e-07
-6.94907e-07
-6.17197e-07
-6.55495e-07
-6.33136e-07
-6.53426e-07
-6.54153e-07
-1.08174e-06
-0.00394507
-0.0106939
-0.00282955
-0.000343797
-0.00010713
-2.9466e-05
-1.06649e-05
-3.44136e-06
-1.63925e-06
-9.97817e-07
-7.40489e-07
-7.48431e-07
-6.26022e-07
-6.35923e-07
-7.15093e-07
-7.71925e-07
-6.50533e-07
-6.10751e-07
-8.6509e-07
-1.06965e-06
-0.0055905
-0.0103469
-0.00694975
-0.00191416
-0.000851697
-0.000173811
-8.66552e-05
-2.13125e-05
-1.03021e-05
-4.57537e-06
-2.56013e-06
-1.66222e-06
-1.15827e-06
-1.05532e-06
-6.75579e-07
-7.51879e-07
-7.1749e-07
-6.61204e-07
-7.84066e-07
-1.06359e-06
-0.00772603
-0.0136857
-0.0109516
-0.00201131
-0.000697976
-9.79984e-05
-2.94976e-05
-1.84849e-05
-5.08268e-06
-2.02068e-06
-1.03326e-06
-7.43603e-07
-6.74422e-07
-7.24855e-07
-3.88189e-06
-2.84851e-06
-1.80151e-06
-9.46087e-07
-7.58255e-07
-1.06928e-06
-0.00351897
-0.00817552
-0.00987566
-0.00336308
-0.00115216
-0.000247596
-0.000192349
-1.70211e-05
-2.3744e-06
-4.13719e-07
-2.03141e-07
-1.55631e-07
-1.42305e-07
-6.80574e-07
-3.21494e-07
-5.70441e-06
-3.64127e-06
-2.89333e-06
-1.62542e-06
-1.24142e-06
-0.006231
-0.00814278
-0.0057222
-0.00134871
-0.000405746
-0.000124066
-3.31315e-05
-6.98819e-06
-7.07262e-07
-3.09373e-08
-7.28686e-09
-6.4978e-09
-4.16906e-09
-7.11805e-09
-7.56074e-08
-3.4033e-07
-8.77162e-06
-6.64344e-06
-3.50639e-06
-1.89274e-06
-0.0107714
-0.0106154
-0.0138649
-0.00555215
-0.00307834
-0.00135229
-0.000238425
-5.77747e-06
-7.54771e-08
-7.08307e-10
-1.61121e-12
-1.46516e-13
-2.97011e-14
-8.91058e-15
-6.72313e-10
-3.00455e-07
-4.07294e-06
-2.9697e-06
-1.18965e-06
-1.0656e-06
-0.0121696
-0.000781851
-0.000316436
-0.000144082
-5.63526e-05
-3.36143e-05
-1.16474e-05
-8.71844e-07
-2.07973e-08
-5.35143e-10
-9.56449e-13
1.23213e-12
2.52651e-13
1.36157e-14
-3.93599e-10
-2.97361e-07
-2.29253e-06
-2.37969e-06
-1.44896e-06
-1.20848e-06
-0.0107535
-0.00225833
-0.000848784
-0.000313513
-8.88787e-05
-3.26959e-05
-2.70171e-05
-4.74846e-07
-1.38295e-08
-2.58998e-10
-1.79604e-12
-2.25232e-14
-1.34101e-14
-2.49319e-14
-1.00367e-08
-3.63739e-07
-8.23332e-06
-6.73245e-06
-3.53731e-06
-1.86024e-06
-0.00648297
-0.0041788
-0.00232047
-0.000851137
-0.000282027
-9.85862e-05
-5.38165e-05
-3.58076e-05
-3.13251e-06
-1.76972e-07
-2.12434e-08
-7.51948e-09
-7.79726e-09
-6.37033e-08
-3.13017e-07
-5.86698e-06
-4.90582e-06
-3.63928e-06
-1.51199e-06
-1.1233e-06
-0.00166505
-0.0130046
-0.00175443
-0.00172948
-0.000255535
-0.000205871
-0.000135862
-5.24679e-05
-2.27315e-05
-5.87102e-06
-1.9954e-06
-8.12128e-07
-1.03338e-06
-7.22332e-07
-1.18197e-06
-1.04216e-06
-1.95417e-06
-1.32324e-06
-8.60661e-07
-9.87808e-07
-0.00135921
-0.00518395
-0.00519999
-0.00356581
-0.0026732
-0.001059
-0.000429744
-0.000123637
-4.18577e-05
-1.16845e-05
-4.12802e-06
-1.83866e-06
-2.08964e-06
-1.59923e-06
-8.66058e-07
-8.89434e-07
-7.87672e-07
-8.69413e-07
-7.94995e-07
-9.04248e-07
-0.0097046
-0.00907106
-0.00594586
-0.00296195
-0.00295192
-0.00101546
-0.000526044
-0.000138328
-5.27006e-05
-1.39569e-05
-4.94055e-06
-1.90377e-06
-1.05887e-06
-7.04294e-07
-7.03618e-07
-7.04844e-07
-7.08952e-07
-7.86068e-07
-7.90819e-07
-8.94584e-07
-0.00136036
-0.0124607
-0.0101294
-0.00447367
-0.00219438
-0.000688783
-0.000296393
-8.22658e-05
-3.03963e-05
-8.74429e-06
-3.20088e-06
-2.49873e-06
-1.03784e-06
-8.39452e-07
-6.64389e-07
-6.59657e-07
-6.77183e-07
-7.82228e-07
-8.06186e-07
-8.90782e-07
-0.000641219
-0.000849805
-0.00758641
-0.00694236
-0.00506727
-0.00152247
-0.000653104
-0.000150392
-5.14703e-05
-1.24523e-05
-4.13678e-06
-1.72868e-06
-9.09553e-07
-6.94947e-07
-6.27998e-07
-7.34309e-07
-7.45618e-07
-7.90193e-07
-7.9933e-07
-8.87905e-07
-0.00160351
-0.000620205
-0.00145851
-0.000752419
-0.000479259
-0.000159441
-6.8771e-05
-2.23979e-05
-9.4133e-06
-3.70152e-06
-1.59919e-06
-1.15606e-06
-8.29734e-07
-7.56351e-07
-6.44654e-07
-6.6399e-07
-6.77296e-07
-7.69667e-07
-7.88848e-07
-8.87344e-07
-0.00830727
-0.0048201
-0.00145938
-0.000520071
-0.00025737
-9.54699e-05
-5.66678e-05
-1.99994e-05
-8.71136e-06
-3.52434e-06
-1.49907e-06
-1.13373e-06
-8.31582e-07
-8.17953e-07
-6.70939e-07
-6.54063e-07
-6.66984e-07
-7.75135e-07
-8.00778e-07
-8.97861e-07
-0.000347508
-0.000129923
-0.000430511
-0.00120418
-0.00218545
-0.000622967
-0.000114992
-1.17184e-05
-1.39005e-06
-1.26711e-07
-1.24817e-08
-1.09309e-09
-1.01813e-10
-1.47907e-11
-5.88968e-12
-5.67802e-12
-5.16023e-12
-5.54235e-12
-5.55704e-12
-1.15504e-11
-0.0032616
-0.000234804
-6.15245e-05
-8.64598e-05
-0.000101703
-1.76443e-05
-2.58874e-06
-2.67995e-07
-3.25648e-08
-3.74615e-09
-4.42543e-10
-6.38109e-11
-1.0928e-11
-6.83409e-12
-5.17528e-12
-5.56399e-12
-5.15959e-12
-5.58446e-12
-5.5305e-12
-1.21135e-11
-0.00357107
-0.000340656
-8.61584e-05
-2.39651e-05
-1.32925e-05
-5.00122e-06
-1.74257e-06
-2.58007e-07
-4.62587e-08
-5.39137e-09
-6.6786e-10
-8.34875e-11
-1.37302e-11
-6.73916e-12
-5.16388e-12
-5.63627e-12
-5.22483e-12
-5.45306e-12
-5.47165e-12
-1.1506e-11
-0.00247181
-0.000667974
-0.000217192
-3.27735e-05
-7.46282e-06
-1.79021e-06
-3.46044e-07
-5.73413e-08
-8.92535e-09
-1.32336e-09
-1.79914e-10
-3.47304e-11
-8.37125e-12
-6.16904e-12
-5.26771e-12
-5.45375e-12
-5.27791e-12
-5.58721e-12
-5.49691e-12
-1.1248e-11
-0.00705856
-0.00563473
-0.00101199
-0.000198024
-3.88646e-05
-6.59175e-06
-1.01865e-06
-1.45705e-07
-1.86087e-08
-2.25002e-09
-2.65363e-10
-3.60976e-11
-8.72406e-12
-5.75989e-12
-6.27529e-12
-6.86235e-12
-5.50186e-12
-5.06563e-12
-7.57129e-12
-1.09752e-11
-0.00320896
-0.00309075
-0.0012441
-0.000173549
-3.23406e-05
-4.01439e-06
-6.43709e-07
-9.25548e-08
-1.32666e-08
-1.83607e-09
-2.59661e-10
-4.9764e-11
-1.62189e-11
-9.60566e-12
-6.40495e-12
-7.05201e-12
-6.57367e-12
-5.72859e-12
-6.69654e-12
-1.08368e-11
-0.00409938
-0.00156562
-0.00101524
-8.1341e-05
-1.61314e-05
-1.97531e-06
-3.23842e-07
-4.90505e-08
-6.49823e-09
-9.51563e-10
-1.40502e-10
-2.55359e-11
-8.87982e-12
-7.48622e-12
-1.07662e-10
-7.68854e-11
-2.90644e-11
-1.14807e-11
-7.24469e-12
-1.10158e-11
-0.0011601
-0.00222733
-0.00205085
-0.00035594
-8.4642e-05
-7.73841e-06
-2.23335e-06
-1.15147e-07
-7.28968e-09
-3.26347e-10
-1.6608e-11
-2.00612e-12
-7.24322e-13
-9.74162e-13
-2.612e-12
-3.0854e-10
-1.59653e-10
-7.60803e-11
-2.67447e-11
-1.54424e-11
-0.00218441
-0.00358535
-0.00167933
-0.000650652
-0.000182747
-6.21852e-05
-9.4971e-06
-7.23013e-08
-5.93589e-10
-1.328e-11
-3.68755e-13
-2.81909e-14
-8.26581e-15
-7.29528e-15
1.81772e-13
-3.8086e-12
-5.56179e-10
-3.29635e-10
-1.0555e-10
-3.5824e-11
-0.000676368
-0.003841
-0.00252533
-0.000559712
-0.000125149
-3.4855e-05
-2.92849e-06
-4.83373e-08
-4.65043e-10
-2.56018e-12
-5.35358e-15
-5.85237e-18
-2.76179e-20
-3.66688e-21
1.09064e-18
-2.27151e-12
-1.15146e-10
-7.23526e-11
-2.03015e-11
-1.26802e-11
-0.00697802
-0.000555125
-0.000124709
-3.50821e-05
-7.98848e-06
-2.90216e-06
-4.32198e-07
-9.01487e-09
-9.92064e-11
-1.34073e-12
-8.93898e-15
-1.53483e-17
-9.33783e-21
1.73654e-24
2.57273e-18
-2.20297e-12
-5.40745e-11
-5.35315e-11
-2.12761e-11
-1.41032e-11
-0.00702984
-0.00134832
-0.000454255
-0.000130469
-2.30161e-05
-4.04611e-06
-2.70234e-07
-1.7744e-09
-8.99277e-12
-6.58167e-14
-4.08723e-16
-5.75373e-19
3.55005e-20
1.84135e-20
2.68612e-15
-5.03814e-12
-4.30105e-10
-3.28526e-10
-9.62637e-11
-3.29025e-11
-0.00215638
-0.00100945
-0.000679667
-0.000354079
-0.000117742
-2.35482e-05
-6.43111e-06
-2.47519e-07
-7.56914e-09
-1.90426e-10
-4.29434e-12
-9.64708e-14
-2.33147e-14
-3.88546e-14
-2.30743e-12
-2.72953e-10
-2.03654e-10
-9.94599e-11
-2.43956e-11
-1.31262e-11
-0.000404721
-0.0018069
-0.00073918
-0.00026323
-6.20288e-05
-9.92995e-06
-1.19688e-06
-1.49628e-07
-1.76587e-08
-1.70975e-09
-1.7521e-10
-2.09462e-11
-1.40264e-11
-7.187e-12
-1.90207e-11
-1.90069e-11
-2.75629e-11
-1.69484e-11
-8.3755e-12
-9.46343e-12
-0.000837938
-0.00161674
-0.00109801
-0.000407088
-0.000147809
-3.03834e-05
-5.5054e-06
-7.32125e-07
-9.06975e-08
-9.48273e-09
-1.0048e-09
-1.14663e-10
-4.23756e-11
-2.23428e-11
-1.03708e-11
-9.32971e-12
-8.04557e-12
-8.31967e-12
-7.09387e-12
-8.35649e-12
-0.0017363
-0.00180738
-0.000517575
-0.000259795
-0.000115876
-1.96068e-05
-4.32989e-06
-5.13844e-07
-7.41366e-08
-8.06132e-09
-9.51324e-10
-1.12985e-10
-2.0993e-11
-8.03765e-12
-6.35791e-12
-6.1366e-12
-6.1329e-12
-6.96815e-12
-7.05297e-12
-8.1995e-12
-0.000270938
-0.00268439
-0.00164934
-0.000435053
-0.000132259
-2.32254e-05
-4.20176e-06
-5.48017e-07
-7.04345e-08
-7.72095e-09
-8.48971e-10
-1.25002e-10
-2.08217e-11
-9.30886e-12
-6.2851e-12
-5.7181e-12
-5.94188e-12
-6.92169e-12
-7.41152e-12
-8.17481e-12
-6.58939e-05
-4.80461e-05
-0.000215008
-0.000261119
-0.000149984
-2.21915e-05
-4.27595e-06
-4.63496e-07
-5.97772e-08
-6.0489e-09
-6.52658e-10
-7.7821e-11
-1.46873e-11
-6.84609e-12
-5.42189e-12
-6.54153e-12
-6.75822e-12
-7.06086e-12
-7.33424e-12
-8.14588e-12
-0.000233521
-0.000121605
-5.58827e-05
-2.51969e-05
-9.47852e-06
-1.23594e-06
-1.94697e-07
-2.25016e-08
-2.65343e-09
-3.30013e-10
-4.55883e-11
-1.58904e-11
-8.548e-12
-7.04845e-12
-5.62367e-12
-5.70443e-12
-5.90513e-12
-6.77387e-12
-7.20042e-12
-8.15055e-12
-0.00678064
-0.00127027
-8.27619e-05
-9.15105e-06
-1.36605e-06
-2.04058e-07
-2.9302e-08
-4.86706e-09
-6.7656e-10
-1.26223e-10
-2.36831e-11
-1.34182e-11
-8.78709e-12
-8.28458e-12
-6.079e-12
-5.59402e-12
-5.77585e-12
-6.82998e-12
-7.33868e-12
-8.27893e-12
-0.000222256
-3.06073e-05
-3.5827e-05
-4.7595e-05
-0.000157349
-2.71018e-05
-3.61818e-06
-2.74669e-07
-2.42958e-08
-1.89212e-09
-1.47042e-10
-1.07595e-11
-7.51815e-13
-4.98743e-14
-3.16502e-15
-2.21245e-16
-4.21415e-17
-3.48831e-17
-3.45628e-17
-7.02665e-17
-0.00134776
-9.74985e-05
-2.18515e-05
-3.20192e-06
-3.33732e-06
-3.93166e-07
-4.92984e-08
-3.73295e-09
-3.5295e-10
-3.33209e-11
-3.21648e-12
-3.03039e-13
-2.72904e-14
-2.3784e-15
-2.21864e-16
-4.84463e-17
-3.2626e-17
-3.4755e-17
-3.43749e-17
-7.51626e-17
-0.00148343
-0.000477948
-0.000188318
-2.32799e-05
-3.31107e-06
-4.34955e-07
-5.51183e-08
-5.93874e-09
-6.42632e-10
-6.4941e-11
-6.43058e-12
-6.03536e-13
-5.37323e-14
-4.53443e-15
-3.85559e-16
-6.02532e-17
-3.36949e-17
-3.393e-17
-3.3967e-17
-6.9731e-17
-0.00114515
-0.00113404
-0.000631343
-8.23974e-05
-8.47685e-06
-6.82743e-07
-8.18161e-08
-7.04321e-09
-7.27751e-10
-6.44472e-11
-5.95765e-12
-5.25033e-13
-4.52688e-14
-3.77748e-15
-3.28525e-16
-5.55216e-17
-3.39435e-17
-3.40787e-17
-3.41578e-17
-6.78329e-17
-0.00366433
-0.00301986
-0.00138103
-0.000469582
-9.84714e-05
-1.22146e-05
-1.32537e-06
-1.28061e-07
-1.08639e-08
-8.53183e-10
-6.21292e-11
-4.3333e-12
-2.92406e-13
-1.94229e-14
-1.29979e-15
-1.20062e-16
-3.88882e-17
-3.17549e-17
-4.27278e-17
-6.63286e-17
-0.0013731
-0.000925462
-0.000208067
-1.89107e-05
-2.27876e-06
-3.43803e-07
-3.58506e-08
-5.28122e-09
-5.64129e-10
-6.3302e-11
-6.19522e-12
-5.81128e-13
-4.99173e-14
-4.06157e-15
-3.62668e-16
-7.31549e-17
-4.32709e-17
-3.62218e-17
-3.9868e-17
-6.51747e-17
-0.00562699
-0.000161247
-7.95094e-05
-5.91652e-06
-1.13433e-06
-1.29287e-07
-1.83173e-08
-2.37294e-09
-2.71073e-10
-3.07553e-11
-3.12273e-12
-3.00519e-13
-2.67319e-14
-2.33571e-15
-9.05185e-16
-5.07997e-16
-2.07401e-16
-8.37721e-17
-4.87491e-17
-6.74836e-17
-0.00287287
-0.000888384
-0.000274868
-4.07467e-05
-7.75794e-06
-5.57368e-07
-9.18488e-08
-2.26852e-09
-8.40744e-11
-2.699e-12
-8.06479e-14
-4.78341e-15
-2.99916e-16
-3.41089e-17
-4.40846e-16
-3.15814e-15
-1.49574e-15
-6.19499e-16
-2.05349e-16
-1.11199e-16
-0.000783602
-0.000639184
-0.000377307
-0.000145321
-3.42492e-05
-1.01182e-05
-1.2701e-06
-6.05646e-09
-1.2078e-11
-5.74743e-14
-1.04544e-15
-2.35143e-17
-4.27115e-19
-1.19066e-20
-5.57417e-18
-8.73455e-16
-3.71753e-15
-2.37361e-15
-7.72672e-16
-2.80752e-16
-0.000376889
-0.000912266
-0.00036213
-4.56347e-05
-5.58056e-06
-7.88886e-07
-6.68704e-08
-9.63961e-10
-5.19891e-12
-1.3089e-14
-2.05803e-17
-2.42088e-20
-1.09702e-23
-3.8202e-27
9.44639e-24
-2.10467e-16
-8.48038e-16
-5.23715e-16
-1.79757e-16
-1.02826e-16
-0.00187344
-0.00046662
-0.000107491
-1.42496e-05
-2.36476e-06
-6.94352e-07
-6.73483e-08
-5.08241e-10
-1.6779e-12
-1.21827e-14
-5.46599e-18
-1.29451e-20
-1.25546e-23
-4.74936e-27
-2.07481e-25
-2.3394e-16
-7.1378e-16
-3.89749e-16
-1.52747e-16
-9.53978e-17
-0.0018005
-0.000541069
-0.000133647
-1.16936e-05
-7.79787e-07
-7.91353e-08
-6.21075e-09
-4.84474e-11
-1.97009e-13
-4.97909e-16
-8.62133e-19
-1.96401e-21
-8.27826e-24
-3.94936e-28
-1.61858e-19
-8.61068e-16
-2.89022e-15
-1.87675e-15
-6.75612e-16
-2.34971e-16
-0.000260267
-8.81405e-05
-3.58976e-05
-1.45883e-05
-7.70396e-06
-1.37346e-06
-4.03748e-07
-1.18138e-08
-2.46896e-10
-4.14382e-12
-6.2449e-14
-8.94883e-16
-1.83659e-17
-7.28976e-19
-4.02455e-16
-1.98232e-15
-1.41598e-15
-5.98807e-16
-1.83222e-16
-9.30975e-17
-0.000887264
-0.000468837
-0.000109919
-2.41936e-05
-5.71589e-06
-6.71435e-07
-6.03405e-08
-6.31526e-09
-5.4969e-10
-4.77594e-11
-3.55952e-12
-2.53828e-13
-1.65507e-14
-1.25803e-15
-3.98485e-16
-1.77888e-16
-1.60226e-16
-1.00771e-16
-5.27841e-17
-5.65105e-17
-0.000301233
-0.000554325
-0.00031762
-8.77038e-05
-2.08466e-05
-3.08635e-06
-3.90461e-07
-4.21395e-08
-3.89441e-09
-3.17166e-10
-2.34689e-11
-1.60648e-12
-1.03304e-13
-6.37507e-15
-4.44916e-16
-8.39735e-17
-5.3319e-17
-5.13058e-17
-4.31078e-17
-5.02964e-17
-9.03095e-05
-0.00048752
-5.77844e-05
-2.13567e-05
-5.44415e-06
-5.18339e-07
-7.27037e-08
-6.88189e-09
-7.08009e-10
-6.80157e-11
-6.1815e-12
-5.36138e-13
-4.36427e-14
-3.40939e-15
-2.89003e-16
-5.5012e-17
-3.90941e-17
-4.21594e-17
-4.20111e-17
-4.91891e-17
-4.41759e-05
-0.00018444
-0.000240542
-5.28182e-05
-1.41778e-05
-2.05368e-06
-2.80833e-07
-3.11382e-08
-3.04459e-09
-2.62561e-10
-2.04557e-11
-1.46832e-12
-9.78657e-14
-6.19317e-15
-4.05283e-16
-5.67788e-17
-3.82374e-17
-4.22451e-17
-4.4587e-17
-4.91373e-17
-4.70223e-05
-1.19842e-05
-1.39381e-05
-5.8572e-06
-2.81246e-06
-3.18405e-07
-4.71393e-08
-4.33752e-09
-4.29748e-10
-3.76461e-11
-3.14866e-12
-2.45818e-13
-1.80056e-14
-1.27545e-15
-1.14492e-16
-4.46575e-17
-4.20919e-17
-4.30683e-17
-4.43136e-17
-4.90577e-17
-0.000204625
-7.69342e-06
-2.08126e-06
-4.58298e-07
-1.51723e-07
-1.68539e-08
-2.40901e-09
-2.29829e-10
-2.25152e-11
-1.94099e-12
-1.59496e-13
-1.24196e-14
-9.64829e-16
-1.1117e-16
-4.08245e-17
-3.61007e-17
-3.69434e-17
-4.14445e-17
-4.36211e-17
-4.9113e-17
-0.00164168
-0.000169271
-3.4841e-06
-3.60101e-07
-4.80934e-08
-6.33085e-09
-7.72486e-10
-8.8552e-11
-9.22269e-12
-8.91423e-13
-7.87685e-14
-6.53395e-15
-5.58483e-16
-9.53602e-17
-4.31651e-17
-3.53717e-17
-3.61191e-17
-4.16362e-17
-4.43266e-17
-4.98475e-17
-0.000161438
-8.21168e-05
-1.84149e-05
-1.65609e-06
-1.30463e-07
-2.1751e-07
-2.30691e-08
-1.2951e-09
-8.76472e-11
-5.03044e-12
-3.12442e-13
-1.87355e-14
-1.11725e-15
-6.50085e-17
-3.67285e-18
-2.01398e-19
-1.08198e-20
-7.12192e-22
-1.96027e-22
-2.87018e-22
-0.000570719
-8.5606e-05
-1.16413e-05
-4.16044e-07
-1.49512e-08
-2.78191e-09
-2.91387e-10
-2.38489e-11
-2.78579e-12
-3.38904e-13
-4.03377e-14
-4.44518e-15
-4.52003e-16
-4.2497e-17
-3.70539e-18
-3.01127e-19
-2.30278e-20
-1.79993e-21
-2.77978e-22
-3.16292e-22
-0.000182737
-2.51206e-05
-8.00876e-06
-4.1625e-07
-8.01752e-08
-1.06385e-08
-1.5099e-09
-1.91137e-10
-2.43746e-11
-2.83143e-12
-3.02795e-13
-2.94635e-14
-2.63878e-15
-2.18346e-16
-1.67727e-17
-1.20312e-18
-8.09732e-20
-5.2728e-21
-4.71058e-22
-3.05589e-22
-0.000197452
-0.000152399
-6.59986e-05
-3.5415e-06
-4.34971e-07
-3.37059e-08
-4.33946e-09
-3.37039e-10
-3.44646e-11
-2.80922e-12
-2.52698e-13
-2.15488e-14
-1.84482e-15
-1.52826e-16
-1.22177e-17
-9.33568e-19
-6.81168e-20
-4.86868e-21
-4.76926e-22
-2.98682e-22
-0.00152391
-0.000435832
-0.000137267
-3.54227e-05
-5.78567e-06
-7.87591e-07
-8.73724e-08
-8.5931e-09
-7.21332e-10
-5.54335e-11
-3.90623e-12
-2.60239e-13
-1.65338e-14
-1.01852e-15
-6.09066e-17
-3.55724e-18
-2.02376e-19
-1.13776e-20
-7.94508e-22
-3.0469e-22
-0.000459665
-0.000186534
-2.1215e-05
-2.3581e-06
-2.80432e-07
-4.03378e-08
-4.16872e-09
-5.51366e-10
-5.38619e-11
-5.36424e-12
-4.63121e-13
-3.81539e-14
-2.86827e-15
-2.02382e-16
-1.33928e-17
-8.43421e-19
-5.04744e-20
-3.04805e-21
-3.40172e-22
-2.76263e-22
-0.00136924
-2.40025e-05
-4.15694e-06
-6.82821e-07
-1.19004e-07
-1.59367e-08
-1.94294e-09
-2.3405e-10
-2.34764e-11
-2.36546e-12
-2.16203e-13
-1.90735e-14
-1.5774e-15
-1.24226e-16
-9.27553e-18
-6.55674e-19
-4.44032e-20
-3.19295e-21
-4.18717e-22
-2.93215e-22
-0.000211817
-4.67129e-05
-1.60811e-05
-2.96498e-06
-5.4966e-07
-3.53678e-08
-5.07289e-09
-1.00329e-10
-3.07681e-12
-1.01328e-13
-2.99951e-15
-2.43849e-16
-1.57448e-17
-1.67115e-18
-1.68148e-19
-4.26753e-20
-1.5138e-20
-4.28746e-21
-1.22382e-21
-5.27852e-22
-0.000192753
-0.000137719
-6.24709e-05
-1.73616e-05
-3.15272e-06
-8.82349e-07
-1.14271e-07
-3.73207e-10
-5.28937e-13
-1.65627e-15
-2.70957e-17
-5.85745e-19
-1.01714e-20
-2.61217e-22
-2.09432e-21
-4.12375e-19
-6.4927e-20
-1.87585e-20
-5.18321e-21
-1.43995e-21
-0.000134858
-0.000193197
-3.62051e-05
-4.35215e-06
-5.2249e-07
-6.82798e-08
-4.18534e-09
-3.63616e-11
-1.32722e-13
-2.40128e-16
-2.67479e-19
-1.5718e-22
-6.17427e-26
-1.69088e-29
-2.82579e-27
-5.45128e-20
-1.2077e-20
-4.27977e-21
-1.45098e-21
-6.68895e-22
-0.000814821
-0.000127502
-3.93594e-05
-1.26716e-05
-3.72475e-06
-1.33596e-06
-1.51949e-07
-1.02111e-09
-2.01611e-12
-1.79246e-15
-9.11441e-19
-3.15876e-22
-8.64941e-26
-2.02053e-29
-1.31446e-27
-5.58747e-20
-1.51715e-20
-3.26262e-21
-9.92269e-22
-4.38318e-22
-0.000121249
-4.14138e-05
-1.38213e-05
-3.02776e-06
-4.92782e-07
-9.15695e-08
-6.49085e-09
-4.63123e-11
-1.16839e-13
-1.40087e-16
-9.64461e-20
-6.15985e-23
-1.45977e-25
-8.94064e-28
-5.66992e-23
-3.1989e-19
-4.62383e-20
-1.4109e-20
-4.17757e-21
-1.19185e-21
-7.83434e-05
-4.66576e-05
-1.02806e-05
-1.89516e-06
-3.49014e-07
-6.08826e-08
-1.57181e-08
-3.99299e-10
-7.26569e-12
-1.02643e-13
-1.34202e-15
-1.76065e-17
-3.43652e-19
-1.0528e-20
-1.51183e-19
-2.74388e-20
-1.12723e-20
-3.83626e-21
-1.10139e-21
-4.64417e-22
-5.2784e-05
-0.000119718
-1.55337e-05
-2.818e-06
-4.04544e-07
-4.74716e-08
-3.41149e-09
-3.29578e-10
-2.36361e-11
-1.77651e-12
-1.1077e-13
-6.80062e-15
-3.77852e-16
-2.05289e-17
-1.06319e-18
-5.45424e-20
-3.38773e-21
-5.77705e-22
-2.64463e-22
-2.45133e-22
-5.70448e-05
-0.000173349
-6.56175e-05
-1.29661e-05
-2.43119e-06
-3.16798e-07
-3.53082e-08
-3.45549e-09
-2.8634e-10
-2.08817e-11
-1.37833e-12
-8.39394e-14
-4.77581e-15
-2.55675e-16
-1.29342e-17
-6.30044e-19
-2.98131e-20
-1.57845e-21
-2.57256e-22
-2.28008e-22
-5.03592e-05
-9.34795e-05
-7.23502e-06
-1.231e-06
-1.83546e-07
-1.51463e-08
-1.85538e-09
-1.69374e-10
-1.73545e-11
-1.76813e-12
-1.73694e-13
-1.65321e-14
-1.46869e-15
-1.22742e-16
-9.59866e-18
-7.03254e-19
-4.84501e-20
-3.31875e-21
-3.79143e-22
-2.3127e-22
-7.35465e-06
-1.65103e-05
-2.41639e-05
-5.17024e-06
-1.12605e-06
-1.51577e-07
-1.81603e-08
-1.80689e-09
-1.56092e-10
-1.19027e-11
-8.1826e-13
-5.18349e-14
-3.04791e-15
-1.68915e-16
-8.89464e-18
-4.50311e-19
-2.21702e-20
-1.23758e-21
-2.46502e-22
-2.22847e-22
-1.40734e-05
-3.78905e-06
-2.68709e-06
-6.9916e-07
-1.1718e-07
-1.21883e-08
-1.37357e-09
-1.17263e-10
-1.03988e-11
-8.34654e-13
-6.56247e-14
-4.90836e-15
-3.48347e-16
-2.34186e-17
-1.48601e-18
-8.92602e-20
-5.2464e-21
-4.68135e-22
-2.11446e-22
-2.21358e-22
-3.19962e-05
-4.34978e-06
-5.28104e-07
-6.83377e-08
-1.02929e-08
-9.12248e-10
-9.61904e-11
-8.18104e-12
-7.01467e-13
-5.50034e-14
-4.10574e-15
-2.89093e-16
-1.91778e-17
-1.20925e-18
-7.25927e-20
-4.32716e-21
-4.06897e-22
-2.02922e-22
-1.9647e-22
-2.2097e-22
-6.00328e-05
-2.43921e-05
-2.45959e-06
-1.41042e-07
-1.26727e-08
-1.31744e-09
-1.30451e-10
-1.33862e-11
-1.29735e-12
-1.21429e-13
-1.05167e-14
-8.47614e-16
-6.2942e-17
-4.33725e-18
-2.77743e-19
-1.68014e-20
-1.11097e-21
-2.40799e-22
-2.0028e-22
-2.23896e-22
-2.67483e-14
-3.83692e-12
-9.63578e-14
-1.39963e-12
-1.18697e-14
-1.21487e-12
-1.20872e-14
-3.49724e-17
-2.34085e-14
-2.46379e-16
-2.21901e-15
-1.24397e-17
-2.2541e-15
-1.12488e-17
-3.70216e-14
-2.55749e-13
-2.75237e-15
-2.64259e-13
-2.57838e-15
-7.55339e-14
-7.06857e-16
-1.10779e-16
-5.81728e-16
-5.04907e-18
-5.12095e-16
-3.24719e-18
-1.41105e-16
-1.0093e-18
-0.00280297
-0.0119282
-0.000726627
-0.0154967
-0.00426747
-0.0109477
-0.00197582
0.00194632
0.0010205
0.00293906
-0.00251666
-0.000419392
-0.000939761
-6.62302e-05
0.00247148
0.00307398
0.00316279
-0.000239395
-3.60278e-05
-2.38295e-05
-8.03684e-07
0.00256253
0.00316591
0.00316706
-2.8144e-05
-1.14216e-05
-2.33566e-07
-6.86901e-09
0.00264733
0.0031674
0.0031678
-1.32051e-05
-6.9463e-06
-3.14691e-09
-1.07156e-09
0.00271714
0.00316716
0.00316729
-9.26413e-06
-4.48886e-06
-8.65252e-10
-4.34459e-10
0.00278061
0.0031676
0.00316788
-6.56538e-06
-2.88409e-06
-3.55813e-10
-1.78498e-10
0.00281416
0.00316798
0.00318009
-5.13485e-06
-3.24033e-06
-1.47477e-10
-5.37982e-09
-0.000509197
-0.0106937
-0.000469687
-0.00961346
-0.00185002
-0.00966583
-0.00179786
0.00294663
0.0011206
0.00294535
-0.000899253
-6.34202e-05
-0.000880185
-6.30886e-05
0.00316335
0.00307725
0.00316075
-2.24816e-05
-6.86513e-07
-2.24717e-05
-6.88025e-07
0.00316291
0.00315995
0.00314891
-1.90424e-07
-3.20438e-09
-1.88622e-07
-3.02254e-09
0.00316773
0.00316113
0.00316612
-8.0631e-10
-2.74372e-11
-5.2134e-10
8.73395e-10
0.00316808
0.00316048
0.00316294
-1.59474e-11
-7.42213e-12
1.26147e-10
1.19155e-11
0.00316821
0.00316646
0.00316754
-4.96963e-12
-3.57128e-12
7.70886e-12
1.58142e-11
0.00318403
0.00316545
0.0031871
-2.3802e-12
-6.80724e-12
3.80949e-12
4.10477e-10
-0.000693949
-0.0118517
-0.000580758
-0.0110345
-0.00184897
-0.010368
-0.00175303
0.00295472
0.00109917
0.00295579
-0.000853894
-5.49249e-05
-0.000821674
-5.37607e-05
0.00316422
0.00308306
0.00316321
-1.92135e-05
-5.74692e-07
-1.87339e-05
-5.55767e-07
0.00316162
0.00316497
0.00316325
-1.57977e-07
-2.4418e-09
-1.52897e-07
-2.45154e-09
0.00316834
0.00316244
0.00316484
-2.61768e-10
1.04087e-09
-5.61577e-10
-3.35763e-12
0.00316041
0.00316649
0.00316829
2.09882e-10
5.26952e-11
8.97021e-13
5.45648e-11
0.00316774
0.00316837
0.00316806
4.32703e-11
3.95605e-11
2.69299e-11
3.83373e-12
0.00318839
0.00316823
0.00318546
5.90445e-12
4.14459e-10
1.50386e-12
4.01539e-10
-0.000718493
-0.0204917
-0.00308956
-0.00958943
-0.00177604
-0.0191165
-0.00405179
0.00294994
-0.00145108
0.00195617
-0.000844946
-5.54562e-05
-0.00252261
-0.000336131
0.00316478
0.00159012
0.00267877
-1.917e-05
-5.5189e-07
-0.000228573
-1.6414e-05
0.00316837
0.00201672
0.00268546
-1.49991e-07
-2.36295e-09
-1.89949e-05
-2.30061e-06
0.00316828
0.00205671
0.00282312
-7.2199e-10
-1.56746e-11
-7.36124e-06
-5.99446e-07
0.00316585
0.0021708
0.00287142
-6.41363e-11
-6.09402e-12
-4.61982e-06
-4.57788e-07
0.00316755
0.00223471
0.00293706
-3.52796e-11
-1.75319e-12
-3.6782e-06
-2.42314e-07
0.00318501
0.00231449
0.00295321
-2.16514e-11
-6.45621e-10
-3.5573e-06
-1.23757e-06
-9.72075e-06
-3.84403e-05
-5.42256e-06
-2.91261e-05
-4.35916e-06
-2.92949e-05
-4.05805e-06
-1.2915e-06
-2.28349e-06
-1.14142e-07
-2.137e-06
-2.23507e-07
-1.70305e-06
-7.83718e-08
-5.28967e-08
-3.68533e-08
-1.22534e-09
-1.09447e-07
-8.08825e-09
-2.38291e-08
-5.00193e-10
-5.78903e-09
-4.65841e-10
-1.1322e-11
-4.28293e-09
-3.58134e-10
-1.2156e-10
-1.51679e-12
-4.66325e-09
-1.1206e-11
-3.27747e-12
-2.87774e-10
-5.40633e-11
-3.30235e-13
-7.23879e-15
-3.40557e-09
-1.34944e-12
-3.59308e-13
-6.25849e-11
-1.66904e-11
-3.50057e-15
-8.41375e-16
-1.61166e-09
-2.43459e-13
-1.73613e-13
-2.27565e-11
-6.51056e-12
-5.54864e-16
-1.39095e-16
-2.34168e-09
-1.79732e-13
-6.72567e-12
-1.41031e-11
3.75263e-11
-8.93863e-17
1.03362e-14
-1.491e-05
-0.000173444
-1.06252e-05
-0.000106585
-1.00322e-05
-8.36966e-05
-7.90253e-06
-2.40052e-07
-4.31145e-06
-2.01679e-07
-4.01423e-06
-1.69779e-07
-3.32916e-06
-1.58167e-07
-2.57986e-09
-6.43682e-08
-2.53774e-09
-5.13914e-08
-1.00579e-09
-4.95182e-08
-1.04346e-09
-6.48704e-12
-5.66899e-10
-8.80042e-12
-2.41658e-10
-2.57492e-12
-2.47744e-10
-2.76896e-12
-1.25865e-13
-3.44512e-12
7.92287e-12
-5.19158e-13
-3.66322e-15
-5.75632e-13
-3.88058e-15
-4.31176e-14
8.62199e-13
5.05043e-14
-7.18425e-16
-2.78337e-17
-6.82323e-16
-2.89553e-18
-1.07761e-14
2.67032e-14
1.84075e-14
-1.58916e-17
-3.12626e-18
-4.42557e-19
-1.19922e-21
-5.05657e-13
4.89508e-15
-1.25456e-13
-1.71364e-18
1.62461e-16