/*--------------------------------*- C++ -*----------------------------------*\
  =========                 |
  \\      /  F ield         | OpenFOAM: The Open Source CFD Toolbox
   \\    /   O peration     | Website:  https://openfoam.org
    \\  /    A nd           | Version:  10
     \\/     M anipulation  |
\*---------------------------------------------------------------------------*/
FoamFile
{
    format      ascii;
    class       volScalarField;
    location    "0.1";
    object      turbidity;
}
// * * * * * * * * * * * * * * * * * * * * * * * * * * * * * * * * * * * * * //

dimensions      [0 0 0 0 0 0 0];

internalField   nonuniform List<scalar> 
12920
(
-0.0324029
-0.0232444
-0.0317171
-0.0382786
-0.0434058
-0.0477805
-0.0491985
-0.0494575
-0.0494929
-0.0494983
-0.0494992
-0.0494993
-0.0494992
-0.0494993
-0.0494992
-0.0494993
-0.0494992
-0.0494992
-0.0494989
-0.0494989
-0.0294225
-0.0237138
-0.0355269
-0.0430926
-0.0483494
-0.0493169
-0.0494656
-0.0494926
-0.0494979
-0.0494986
-0.0494989
-0.049499
-0.0494991
-0.0494993
-0.0494992
-0.0494993
-0.0494992
-0.0494992
-0.0494989
-0.0494989
-0.0207903
-0.0253675
-0.0417349
-0.0465096
-0.0487007
-0.0492819
-0.0494483
-0.0494891
-0.0494974
-0.049499
-0.0494993
-0.0494994
-0.0494992
-0.0494992
-0.0494992
-0.0494993
-0.0494992
-0.0494992
-0.0494989
-0.0494989
-0.0258535
-0.0309574
-0.0417317
-0.0476305
-0.0486208
-0.0493277
-0.0494424
-0.0494868
-0.0494952
-0.0494987
-0.0494988
-0.0494993
-0.049499
-0.0494989
-0.0494992
-0.0494993
-0.0494992
-0.0494992
-0.0494989
-0.0494989
-0.0336934
-0.0365717
-0.0429062
-0.045374
-0.0468677
-0.0486281
-0.0491044
-0.0494095
-0.0494638
-0.0494927
-0.0494961
-0.0494987
-0.0494989
-0.0494991
-0.0494993
-0.0494994
-0.0494992
-0.0494988
-0.049499
-0.0494989
-0.0370992
-0.0398146
-0.0468471
-0.048893
-0.0493371
-0.0494441
-0.0493553
-0.049476
-0.0494412
-0.0494822
-0.049477
-0.0494891
-0.0494898
-0.0494933
-0.0494957
-0.0494986
-0.0494991
-0.049499
-0.0494991
-0.049499
-0.0221476
-0.035394
-0.0449132
-0.0484228
-0.0492036
-0.0492885
-0.0467256
-0.0484126
-0.0472393
-0.0482897
-0.0480878
-0.0484809
-0.0485107
-0.0486589
-0.0492326
-0.0494383
-0.049485
-0.0494964
-0.0494987
-0.049499
-0.0162216
-0.0300731
-0.0406743
-0.0468325
-0.0487093
-0.0486736
-0.0295553
-0.0137327
-0.00873352
-0.00808517
-0.00740183
-0.00741114
-0.00711138
-0.0070779
-0.0309842
-0.0432055
-0.047773
-0.0491086
-0.0494244
-0.0494866
-0.019576
-0.0295766
-0.0401864
-0.0453998
-0.047494
-0.0314979
-0.0164743
-0.000618572
0.00207341
0.00233238
0.00238935
0.00240543
0.00244255
0.0024732
-0.00199479
-0.0309538
-0.0432294
-0.0477903
-0.0491151
-0.0494259
-0.0118352
-0.0256604
-0.0389943
-0.047015
-0.0487362
-0.0280224
-0.0106108
0.00113637
0.00310904
0.00319754
0.00319572
0.00319919
0.00320045
0.00320052
-0.00127275
-0.0306801
-0.0431168
-0.0477622
-0.0491086
-0.0494246
-0.0260056
-0.0354835
-0.0390781
-0.0453638
-0.0471529
-0.0309777
-0.0126551
0.00109438
0.00311269
0.00319396
0.00319813
0.00319623
0.00319534
0.00319707
-0.00126036
-0.0306356
-0.0431038
-0.0477623
-0.0491092
-0.0494251
-0.0252392
-0.0274173
-0.0356646
-0.0458989
-0.0476625
-0.0281356
-0.0113737
0.0010442
0.00311283
0.00319938
0.0032005
0.00319999
0.00319878
0.00320028
-0.00128285
-0.0308735
-0.0432026
-0.0477861
-0.0491148
-0.0494262
-0.016671
-0.0284703
-0.0351503
-0.0432485
-0.0473632
-0.0486907
-0.0332147
-0.0118204
-0.00596122
-0.00513354
-0.00509052
-0.00509071
-0.00509801
-0.00510814
-0.0308121
-0.0430841
-0.0477252
-0.049098
-0.0494217
-0.0494863
-0.0522975
-0.0407297
-0.0280709
-0.0423636
-0.047498
-0.0490233
-0.04778
-0.0486127
-0.048241
-0.0486164
-0.0485001
-0.0486746
-0.0486396
-0.0487178
-0.0491736
-0.0493825
-0.0494667
-0.049492
-0.0494974
-0.0494989
-0.0154152
-0.024274
-0.0347188
-0.0438045
-0.0479306
-0.049212
-0.0494262
-0.0494756
-0.0494786
-0.049484
-0.0494859
-0.0494892
-0.0494914
-0.0494935
-0.0494949
-0.0494979
-0.049499
-0.0494992
-0.0494992
-0.0494986
-0.0196894
-0.038846
-0.0453642
-0.0481582
-0.0491273
-0.049417
-0.0494804
-0.049495
-0.049498
-0.0494989
-0.0494992
-0.0494993
-0.0494993
-0.0494991
-0.0494993
-0.0494994
-0.0494994
-0.0494993
-0.0494992
-0.0494986
-0.0259046
-0.0325535
-0.0418626
-0.0469821
-0.0487723
-0.0493342
-0.0494647
-0.0494923
-0.0494978
-0.049499
-0.049499
-0.0494994
-0.0494994
-0.0494994
-0.0494994
-0.0494994
-0.0494994
-0.0494993
-0.0494993
-0.0494986
-0.0130552
-0.0223777
-0.0368315
-0.0456892
-0.0486071
-0.0493373
-0.0494646
-0.0494912
-0.0494973
-0.0494988
-0.0494992
-0.0494994
-0.0494994
-0.0494994
-0.0494993
-0.0494994
-0.0494994
-0.0494993
-0.0494993
-0.0494986
-0.0162118
-0.0280181
-0.0418762
-0.0473747
-0.0490638
-0.0494158
-0.0494789
-0.0494938
-0.049498
-0.049499
-0.0494993
-0.0494994
-0.0494994
-0.0494994
-0.0494994
-0.0494994
-0.0494994
-0.0494993
-0.0494993
-0.0494986
-0.0259244
-0.0409028
-0.0454886
-0.0485114
-0.0492232
-0.0494186
-0.0494789
-0.0494941
-0.049498
-0.049499
-0.0494992
-0.0494994
-0.0494994
-0.0494994
-0.0494994
-0.0494994
-0.0494994
-0.0494993
-0.0494993
-0.0494986
-0.00365741
-0.00158569
-0.00540386
-0.0090178
-0.0136739
-0.00712025
-0.00276225
-0.000625679
-0.00019781
-4.25296e-05
-1.23517e-05
-3.29985e-06
-1.116e-06
-8.33915e-07
-6.31614e-07
-7.33145e-07
-7.14803e-07
-7.51847e-07
-6.7194e-07
-1.35418e-06
-0.0054865
-0.0014977
-0.000955465
-0.00116456
-0.00157053
-0.000758124
-0.000265551
-7.42083e-05
-2.78328e-05
-9.54081e-06
-3.40574e-06
-1.67155e-06
-7.17423e-07
-8.30577e-07
-6.30419e-07
-7.55002e-07
-7.30375e-07
-7.58726e-07
-6.69764e-07
-1.37793e-06
-0.00658637
-0.00120584
-0.000884904
-0.000650414
-0.000942795
-0.000519923
-0.000255647
-8.37153e-05
-3.45485e-05
-1.02087e-05
-3.09185e-06
-1.48861e-06
-7.21586e-07
-7.11722e-07
-6.22582e-07
-7.29501e-07
-7.11845e-07
-7.29042e-07
-6.65293e-07
-1.32792e-06
-0.0052656
-0.00377936
-0.000781484
-0.00040934
-0.000192515
-8.82859e-05
-2.85966e-05
-1.42294e-05
-5.58203e-06
-4.03072e-06
-1.67696e-06
-1.34052e-06
-7.01254e-07
-7.12515e-07
-6.29628e-07
-7.66364e-07
-7.45441e-07
-7.6089e-07
-6.6656e-07
-1.31955e-06
-0.0039226
-0.0108765
-0.00280141
-0.000343577
-0.000107132
-2.97113e-05
-1.07394e-05
-3.48176e-06
-1.65676e-06
-1.14506e-06
-7.53554e-07
-8.38479e-07
-6.38619e-07
-6.52477e-07
-7.27281e-07
-8.30739e-07
-7.24412e-07
-6.96024e-07
-8.78012e-07
-1.28082e-06
-0.00562134
-0.0107417
-0.00702274
-0.00196063
-0.000863376
-0.000176712
-8.85221e-05
-2.17133e-05
-1.05776e-05
-4.70976e-06
-2.6192e-06
-1.7208e-06
-1.17136e-06
-1.07321e-06
-7.01324e-07
-8.35591e-07
-8.1805e-07
-7.61011e-07
-7.96591e-07
-1.27423e-06
-0.00751985
-0.0138981
-0.0112295
-0.00206372
-0.000715773
-9.8696e-05
-2.96658e-05
-1.8938e-05
-5.10228e-06
-2.04008e-06
-1.04585e-06
-7.56094e-07
-6.86236e-07
-7.36674e-07
-3.92304e-06
-2.95466e-06
-1.88372e-06
-1.02664e-06
-7.70959e-07
-1.24908e-06
-0.00354268
-0.00814488
-0.010119
-0.00343794
-0.00118774
-0.000248994
-0.00019554
-1.704e-05
-2.4318e-06
-4.23342e-07
-2.06879e-07
-1.59802e-07
-1.63493e-07
-7.18602e-07
-3.2893e-07
-5.82487e-06
-3.70117e-06
-2.99474e-06
-1.64071e-06
-1.40551e-06
-0.0062791
-0.00823118
-0.00590747
-0.00135997
-0.000409939
-0.000125343
-3.36103e-05
-7.04066e-06
-7.22535e-07
-3.30415e-08
-7.81095e-09
-6.79078e-09
-4.39779e-09
-7.91877e-09
-7.96178e-08
-3.47687e-07
-8.96983e-06
-6.78546e-06
-3.54012e-06
-2.03946e-06
-0.0107865
-0.0106946
-0.0140789
-0.00562237
-0.00316957
-0.0013721
-0.000243141
-5.82812e-06
-7.65581e-08
-7.44909e-10
-1.65098e-12
-1.47755e-13
-3.02147e-14
-9.25147e-15
-7.00729e-10
-3.07676e-07
-4.15284e-06
-3.06507e-06
-1.20494e-06
-1.17599e-06
-0.0129976
-0.000789388
-0.000319026
-0.000144996
-5.63342e-05
-3.36563e-05
-1.17335e-05
-8.81417e-07
-2.1147e-08
-5.47105e-10
-1.01016e-12
1.2726e-12
2.56326e-13
1.41672e-14
-4.13992e-10
-3.04576e-07
-2.3127e-06
-2.43797e-06
-1.46253e-06
-1.31515e-06
-0.0103011
-0.00225237
-0.000846502
-0.000313549
-8.90432e-05
-3.27299e-05
-2.8843e-05
-4.83287e-07
-1.42879e-08
-2.63366e-10
-1.91265e-12
-2.76703e-14
-1.52767e-14
-2.89136e-14
-1.13806e-08
-3.71214e-07
-8.38099e-06
-6.8764e-06
-3.57829e-06
-1.96911e-06
-0.0062914
-0.00413129
-0.00233725
-0.000867794
-0.000287867
-0.000100313
-5.44442e-05
-3.68733e-05
-3.21597e-06
-1.83482e-07
-2.27718e-08
-8.49236e-09
-8.72152e-09
-6.98335e-08
-3.20264e-07
-5.97632e-06
-4.99001e-06
-3.733e-06
-1.52748e-06
-1.1982e-06
-0.00165577
-0.0142248
-0.00175103
-0.00185423
-0.000270452
-0.000213514
-0.000145228
-5.3377e-05
-2.39503e-05
-5.94533e-06
-2.04961e-06
-8.40261e-07
-1.04833e-06
-7.34704e-07
-1.19345e-06
-1.05853e-06
-2.00059e-06
-1.36584e-06
-8.73647e-07
-1.06142e-06
-0.00128639
-0.00541429
-0.0053172
-0.00366253
-0.00275791
-0.00108766
-0.000445084
-0.000126769
-4.32456e-05
-1.19449e-05
-4.22818e-06
-1.86681e-06
-2.21545e-06
-1.62003e-06
-8.79462e-07
-9.12057e-07
-8.10628e-07
-8.91275e-07
-8.09228e-07
-9.51041e-07
-0.0101442
-0.00934239
-0.00618024
-0.00299563
-0.0030608
-0.00102161
-0.000546239
-0.000139456
-5.48233e-05
-1.41878e-05
-5.1347e-06
-1.94524e-06
-1.07746e-06
-7.17948e-07
-7.16379e-07
-7.31282e-07
-7.32594e-07
-8.05668e-07
-8.04885e-07
-9.41906e-07
-0.00131949
-0.0127578
-0.0105543
-0.00461864
-0.00229692
-0.000699649
-0.000308095
-8.3467e-05
-3.14705e-05
-8.91321e-06
-3.22947e-06
-2.65797e-06
-1.05731e-06
-8.61446e-07
-6.78207e-07
-6.82279e-07
-6.97801e-07
-7.99123e-07
-8.20835e-07
-9.29258e-07
-0.00065951
-0.000870865
-0.00769634
-0.00702387
-0.00526314
-0.00153724
-0.000680519
-0.000151397
-5.35931e-05
-1.26796e-05
-4.26699e-06
-1.76163e-06
-9.23436e-07
-7.08809e-07
-6.40402e-07
-7.62224e-07
-7.69446e-07
-8.08902e-07
-8.13818e-07
-9.23674e-07
-0.00153615
-0.000632364
-0.00146318
-0.000763894
-0.000497262
-0.000160668
-6.99946e-05
-2.25156e-05
-9.68054e-06
-3.77464e-06
-1.61707e-06
-1.2144e-06
-8.42948e-07
-7.7379e-07
-6.57264e-07
-6.86901e-07
-6.96681e-07
-7.85818e-07
-8.03208e-07
-9.20786e-07
-0.00873898
-0.00480485
-0.0014415
-0.000518108
-0.000257387
-9.55463e-05
-5.6825e-05
-2.03152e-05
-8.79608e-06
-3.6513e-06
-1.51418e-06
-1.18733e-06
-8.4438e-07
-8.38612e-07
-6.83492e-07
-6.78459e-07
-6.87055e-07
-7.93172e-07
-8.15178e-07
-9.31164e-07
-0.000376123
-0.00012899
-0.00042424
-0.00119952
-0.00226576
-0.000647983
-0.000121138
-1.21191e-05
-1.43747e-06
-1.29431e-07
-1.27915e-08
-1.11474e-09
-1.04021e-10
-1.53375e-11
-6.0667e-12
-6.38557e-12
-6.11729e-12
-6.56977e-12
-5.72436e-12
-1.50699e-11
-0.00327444
-0.000239087
-6.10698e-05
-8.91646e-05
-0.00010841
-1.89308e-05
-2.75025e-06
-2.79814e-07
-3.35282e-08
-3.82955e-09
-4.58781e-10
-6.55955e-11
-1.11898e-11
-7.57211e-12
-5.33435e-12
-6.48696e-12
-6.23194e-12
-6.62952e-12
-5.69739e-12
-1.55027e-11
-0.00376109
-0.000376738
-8.7694e-05
-2.43283e-05
-1.35591e-05
-5.17116e-06
-1.82003e-06
-2.65221e-07
-4.80485e-08
-5.50321e-09
-6.86451e-10
-8.55367e-11
-1.40454e-11
-7.02994e-12
-5.32153e-12
-6.33171e-12
-6.13461e-12
-6.3431e-12
-5.63716e-12
-1.45456e-11
-0.00241237
-0.000674587
-0.000220212
-3.29854e-05
-7.47261e-06
-1.79749e-06
-3.4876e-07
-5.77999e-08
-9.02518e-09
-1.33608e-09
-1.82373e-10
-3.60848e-11
-8.58236e-12
-6.39769e-12
-5.42502e-12
-6.54157e-12
-6.43994e-12
-6.61652e-12
-5.66301e-12
-1.43595e-11
-0.00693375
-0.00564737
-0.0010109
-0.000197834
-3.90922e-05
-6.61234e-06
-1.0263e-06
-1.47361e-07
-1.88262e-08
-2.28258e-09
-2.68845e-10
-3.74061e-11
-8.92631e-12
-5.97087e-12
-6.45478e-12
-7.68409e-12
-6.36815e-12
-5.90691e-12
-7.80279e-12
-1.3686e-11
-0.00327815
-0.00319473
-0.00127317
-0.000178319
-3.29791e-05
-4.06315e-06
-6.53621e-07
-9.35407e-08
-1.34266e-08
-1.86334e-09
-2.63802e-10
-5.16061e-11
-1.65557e-11
-9.92102e-12
-6.62113e-12
-8.11683e-12
-7.71742e-12
-6.72462e-12
-6.89903e-12
-1.35132e-11
-0.00397604
-0.00158618
-0.00106866
-8.44523e-05
-1.65688e-05
-1.99502e-06
-3.25644e-07
-4.99018e-08
-6.53764e-09
-9.61654e-10
-1.41799e-10
-2.58998e-11
-9.06991e-12
-7.66843e-12
-1.0904e-10
-8.17239e-11
-3.14132e-11
-1.25639e-11
-7.44402e-12
-1.32444e-11
-0.00113314
-0.00221901
-0.00211356
-0.00036618
-8.78687e-05
-7.85139e-06
-2.28947e-06
-1.1583e-07
-7.38567e-09
-3.30201e-10
-1.69598e-11
-2.09197e-12
-7.62039e-13
-1.03478e-12
-2.69535e-12
-3.1952e-10
-1.64131e-10
-8.00003e-11
-2.72303e-11
-1.77011e-11
-0.00235782
-0.00363528
-0.00170026
-0.000656227
-0.000184278
-6.22232e-05
-9.71702e-06
-7.31704e-08
-6.20111e-10
-1.48437e-11
-4.24272e-13
-3.07374e-14
-8.74482e-15
-8.15959e-15
1.69244e-13
-3.89611e-12
-5.78189e-10
-3.39782e-10
-1.07262e-10
-3.8722e-11
-0.000710138
-0.00391713
-0.00257689
-0.00057439
-0.000129599
-3.60144e-05
-3.00477e-06
-4.88048e-08
-4.72646e-10
-2.64346e-12
-5.47158e-15
-6.02071e-18
-2.82731e-20
-3.84565e-21
3.85735e-18
-2.34443e-12
-1.19422e-10
-7.57606e-11
-2.069e-11
-1.38401e-11
-0.00778549
-0.000562195
-0.000127922
-3.56697e-05
-8.01489e-06
-2.91306e-06
-4.36609e-07
-9.12368e-09
-1.00523e-10
-1.36075e-12
-9.29509e-15
-1.59563e-17
-9.60112e-21
1.95555e-24
2.61381e-18
-2.27525e-12
-5.52687e-11
-5.56185e-11
-2.16872e-11
-1.54992e-11
-0.00729841
-0.00138791
-0.000455681
-0.000130747
-2.30579e-05
-4.0531e-06
-2.73013e-07
-1.82069e-09
-9.22535e-12
-6.68384e-14
-4.27522e-16
-6.0271e-19
3.79887e-20
2.00271e-20
1.1847e-15
-5.13641e-12
-4.41555e-10
-3.39921e-10
-9.79284e-11
-3.50955e-11
-0.00201364
-0.000997062
-0.000674428
-0.00035672
-0.000120568
-2.42023e-05
-6.64662e-06
-2.52583e-07
-7.73193e-09
-1.93751e-10
-4.39988e-12
-1.01494e-13
-2.66055e-14
-4.91682e-14
-2.38297e-12
-2.80702e-10
-2.09944e-10
-1.03196e-10
-2.48811e-11
-1.4016e-11
-0.000378042
-0.00206346
-0.000761006
-0.000272741
-6.39904e-05
-1.01944e-05
-1.23119e-06
-1.52605e-07
-1.84147e-08
-1.74014e-09
-1.816e-10
-2.15905e-11
-1.43706e-11
-7.37697e-12
-1.92988e-11
-1.97236e-11
-2.85049e-11
-1.76862e-11
-8.60466e-12
-1.02932e-11
-0.00087564
-0.00169355
-0.0011415
-0.000424672
-0.000154775
-3.15378e-05
-5.7295e-06
-7.55066e-07
-9.36514e-08
-9.70874e-09
-1.02875e-09
-1.16781e-10
-4.87282e-11
-2.28935e-11
-1.0658e-11
-9.72273e-12
-8.38991e-12
-8.55167e-12
-7.38888e-12
-8.73247e-12
-0.00180657
-0.00188645
-0.000553504
-0.00026964
-0.000123166
-1.99382e-05
-4.55621e-06
-5.19755e-07
-7.69607e-08
-8.1717e-09
-9.813e-10
-1.15023e-10
-2.1483e-11
-8.25528e-12
-6.54411e-12
-6.45763e-12
-6.42355e-12
-7.17317e-12
-7.34419e-12
-8.60689e-12
-0.000280472
-0.00282891
-0.00175399
-0.000456264
-0.000139229
-2.37979e-05
-4.35025e-06
-5.58314e-07
-7.22738e-08
-7.85667e-09
-8.62675e-10
-1.34257e-10
-2.1345e-11
-9.62971e-12
-6.48207e-12
-6.00401e-12
-6.21398e-12
-7.12428e-12
-7.73705e-12
-8.46588e-12
-6.40238e-05
-4.80527e-05
-0.000217294
-0.000261333
-0.000161682
-2.23875e-05
-4.4886e-06
-4.67143e-07
-6.17206e-08
-6.1229e-09
-6.68233e-10
-7.92548e-11
-1.50083e-11
-7.04756e-12
-5.58246e-12
-6.89513e-12
-7.08221e-12
-7.2672e-12
-7.65275e-12
-8.4025e-12
-0.00021697
-0.000123902
-5.62283e-05
-2.58997e-05
-1.00765e-05
-1.25879e-06
-2.0288e-07
-2.28238e-08
-2.71896e-09
-3.35572e-10
-4.65151e-11
-1.6881e-11
-8.77882e-12
-7.29732e-12
-5.79075e-12
-5.98636e-12
-6.16224e-12
-6.9729e-12
-7.50908e-12
-8.38917e-12
-0.00661094
-0.00131015
-8.4123e-05
-9.20607e-06
-1.38262e-06
-2.04894e-07
-2.95762e-08
-4.9922e-09
-6.82489e-10
-1.30725e-10
-2.41753e-11
-1.42819e-11
-9.00382e-12
-8.58891e-12
-6.25238e-12
-5.87839e-12
-6.03621e-12
-7.03085e-12
-7.65475e-12
-8.50777e-12
-0.000235629
-3.21525e-05
-3.56186e-05
-4.75272e-05
-0.000165027
-2.85181e-05
-3.83166e-06
-2.85466e-07
-2.50448e-08
-1.93762e-09
-1.50307e-10
-1.09909e-11
-7.68096e-13
-5.09913e-14
-3.23931e-15
-2.30355e-16
-4.81805e-17
-4.0738e-17
-3.72506e-17
-8.92135e-17
-0.00143414
-0.000102281
-2.29244e-05
-3.33552e-06
-3.66204e-06
-4.36628e-07
-5.34265e-08
-3.96305e-09
-3.66024e-10
-3.42417e-11
-3.27884e-12
-3.08457e-13
-2.77414e-14
-2.42112e-15
-2.26507e-16
-5.41425e-17
-3.88371e-17
-4.0641e-17
-3.7082e-17
-9.35891e-17
-0.00151515
-0.000489913
-0.000194851
-2.39764e-05
-3.36683e-06
-4.44743e-07
-5.64742e-08
-6.07543e-09
-6.56053e-10
-6.6138e-11
-6.54091e-12
-6.13714e-13
-5.46425e-14
-4.61514e-15
-3.93377e-16
-6.52814e-17
-3.94039e-17
-3.90936e-17
-3.64561e-17
-8.56934e-17
-0.00111461
-0.00111338
-0.000643678
-8.55614e-05
-8.63645e-06
-6.88635e-07
-8.21926e-08
-7.10368e-09
-7.33738e-10
-6.51789e-11
-6.02731e-12
-5.32445e-13
-4.59474e-14
-3.84128e-15
-3.34958e-16
-6.18694e-17
-4.05063e-17
-3.99095e-17
-3.65591e-17
-8.45557e-17
-0.00361838
-0.0030479
-0.00139752
-0.00047891
-0.000101035
-1.24116e-05
-1.3465e-06
-1.30473e-07
-1.107e-08
-8.71406e-10
-6.34439e-11
-4.42969e-12
-2.98796e-13
-1.98501e-14
-1.32929e-15
-1.27145e-16
-4.44987e-17
-3.67064e-17
-4.51317e-17
-8.04e-17
-0.00139088
-0.000946031
-0.000213519
-1.9386e-05
-2.31858e-06
-3.71266e-07
-3.58764e-08
-5.49682e-09
-5.65655e-10
-6.43539e-11
-6.24872e-12
-5.89535e-13
-5.06411e-14
-4.13231e-15
-3.69987e-16
-8.1013e-17
-4.99782e-17
-4.20023e-17
-4.18552e-17
-7.91226e-17
-0.00562455
-0.000176458
-8.546e-05
-6.03527e-06
-1.16328e-06
-1.30653e-07
-1.83799e-08
-2.40107e-09
-2.72954e-10
-3.11451e-11
-3.15944e-12
-3.04784e-13
-2.71298e-14
-2.37454e-15
-9.34353e-16
-5.32454e-16
-2.3059e-16
-9.22602e-17
-5.12597e-17
-7.9143e-17
-0.00300073
-0.000963311
-0.00028036
-4.20496e-05
-8.05333e-06
-5.66115e-07
-9.34011e-08
-2.27567e-09
-8.52498e-11
-2.81309e-12
-8.49661e-14
-5.52771e-15
-3.47101e-16
-3.95096e-17
-4.54781e-16
-3.38847e-15
-1.6146e-15
-6.68756e-16
-2.12709e-16
-1.25048e-16
-0.000801945
-0.000645323
-0.000379617
-0.000147132
-3.46062e-05
-1.0123e-05
-1.30344e-06
-6.13719e-09
-1.25075e-11
-6.90129e-14
-1.30466e-15
-2.88302e-17
-5.11588e-19
-1.44589e-20
-6.66077e-18
-8.98226e-16
-3.8778e-15
-2.45953e-15
-8.01458e-16
-3.02319e-16
-0.000370886
-0.000923636
-0.000369034
-4.6833e-05
-5.74016e-06
-8.0635e-07
-7.13796e-08
-9.79229e-10
-5.29008e-12
-1.33672e-14
-2.12561e-17
-2.51405e-20
-1.13507e-23
-3.99627e-27
-2.30963e-23
-2.17171e-16
-9.00407e-16
-5.44028e-16
-1.85472e-16
-1.10006e-16
-0.00204703
-0.000470985
-0.000107987
-1.42632e-05
-2.3673e-06
-6.97597e-07
-6.83107e-08
-5.17901e-10
-1.71578e-12
-1.33934e-14
-5.61794e-18
-1.33286e-20
-1.3073e-23
-4.9196e-27
-3.84134e-25
-2.42251e-16
-7.59778e-16
-4.0918e-16
-1.58464e-16
-1.05057e-16
-0.00201417
-0.000564556
-0.000139446
-1.22424e-05
-7.94404e-07
-7.9895e-08
-6.37071e-09
-4.96355e-11
-2.0146e-13
-5.13351e-16
-8.98034e-19
-2.12906e-21
-9.39024e-24
-2.81052e-27
-1.83608e-19
-8.98447e-16
-2.99655e-15
-1.96157e-15
-7.01524e-16
-2.52937e-16
-0.000245883
-9.33861e-05
-3.61794e-05
-1.46387e-05
-7.98255e-06
-1.41845e-06
-4.22084e-07
-1.21092e-08
-2.53079e-10
-4.22652e-12
-6.41033e-14
-9.31157e-16
-1.9654e-17
-8.10858e-19
-4.18977e-16
-2.04931e-15
-1.46847e-15
-6.25288e-16
-1.89968e-16
-9.96352e-17
-0.000862585
-0.000503511
-0.000114418
-2.555e-05
-5.98338e-06
-6.9388e-07
-6.13821e-08
-6.42494e-09
-5.56656e-10
-4.85496e-11
-3.61575e-12
-2.58449e-13
-1.68777e-14
-1.284e-15
-4.06714e-16
-1.83971e-16
-1.67284e-16
-1.05424e-16
-5.49767e-17
-6.1821e-17
-0.000333489
-0.000584451
-0.000332928
-9.15054e-05
-2.18849e-05
-3.20184e-06
-4.03424e-07
-4.3459e-08
-4.00677e-09
-3.25792e-10
-2.40733e-11
-1.6465e-12
-1.05909e-13
-6.53394e-15
-4.5703e-16
-8.81104e-17
-5.59185e-17
-5.34916e-17
-4.54768e-17
-5.24323e-17
-9.49066e-05
-0.000512407
-6.27638e-05
-2.28502e-05
-5.90024e-06
-5.28393e-07
-7.62049e-08
-6.96912e-09
-7.20353e-10
-6.88327e-11
-6.26175e-12
-5.43474e-13
-4.42887e-14
-3.46554e-15
-2.94957e-16
-5.7638e-17
-4.12094e-17
-4.39663e-17
-4.44627e-17
-5.13579e-17
-4.52315e-05
-0.000195711
-0.000254646
-5.4414e-05
-1.48011e-05
-2.09678e-06
-2.87705e-07
-3.17864e-08
-3.1116e-09
-2.68227e-10
-2.08956e-11
-1.50121e-12
-1.00047e-13
-6.33649e-15
-4.15536e-16
-5.94842e-17
-4.03334e-17
-4.40347e-17
-4.78708e-17
-5.12172e-17
-5.3051e-05
-1.22858e-05
-1.45764e-05
-6.05337e-06
-3.10032e-06
-3.23571e-07
-4.93489e-08
-4.38145e-09
-4.37257e-10
-3.80988e-11
-3.19258e-12
-2.49483e-13
-1.83036e-14
-1.29945e-15
-1.17437e-16
-4.73938e-17
-4.45609e-17
-4.48997e-17
-4.75459e-17
-5.11244e-17
-0.000206676
-8.20174e-06
-2.10818e-06
-4.72214e-07
-1.61875e-07
-1.71651e-08
-2.50162e-09
-2.33279e-10
-2.30334e-11
-1.97597e-12
-1.62582e-13
-1.26632e-14
-9.85262e-16
-1.14716e-16
-4.23868e-17
-3.82791e-17
-3.89278e-17
-4.31929e-17
-4.67675e-17
-5.11768e-17
-0.00154897
-0.000174314
-3.50481e-06
-3.61134e-07
-4.82697e-08
-6.35175e-09
-7.76753e-10
-8.90577e-11
-9.28536e-12
-8.99961e-13
-7.96748e-14
-6.63203e-15
-5.68534e-16
-9.88758e-17
-4.47907e-17
-3.75e-17
-3.8099e-17
-4.33997e-17
-4.75788e-17
-5.19418e-17
-0.000156932
-8.61533e-05
-2.07934e-05
-1.91854e-06
-1.44029e-07
-2.37058e-07
-2.51344e-08
-1.37691e-09
-9.16787e-11
-5.2017e-12
-3.21736e-13
-1.92397e-14
-1.14623e-15
-6.6694e-17
-3.76931e-18
-2.06862e-19
-1.11384e-20
-7.49295e-22
-2.12794e-22
-3.40477e-22
-0.000638494
-8.94112e-05
-1.2573e-05
-4.7456e-07
-1.64083e-08
-3.16794e-09
-3.19531e-10
-2.50944e-11
-2.84677e-12
-3.4395e-13
-4.08315e-14
-4.50312e-15
-4.58126e-16
-4.31287e-17
-3.76421e-18
-3.06318e-19
-2.34692e-20
-1.8533e-21
-2.96109e-22
-3.69793e-22
-0.000177955
-2.7611e-05
-8.33489e-06
-4.2824e-07
-8.09542e-08
-1.09111e-08
-1.54255e-09
-1.94532e-10
-2.47577e-11
-2.87511e-12
-3.07456e-13
-2.99369e-14
-2.68293e-15
-2.22194e-16
-1.70881e-17
-1.22719e-18
-8.27089e-20
-5.40705e-21
-4.93478e-22
-3.51234e-22
-0.000169288
-0.000153788
-6.69989e-05
-3.66718e-06
-4.36279e-07
-3.38916e-08
-4.35478e-09
-3.401e-10
-3.47766e-11
-2.84422e-12
-2.55856e-13
-2.18654e-14
-1.87289e-15
-1.55361e-16
-1.24259e-17
-9.50538e-19
-6.94272e-20
-4.9835e-21
-4.97443e-22
-3.47011e-22
-0.00144407
-0.000444623
-0.000139794
-3.54984e-05
-5.84009e-06
-7.9426e-07
-8.85016e-08
-8.7466e-09
-7.34999e-10
-5.66448e-11
-3.99188e-12
-2.66322e-13
-1.69194e-14
-1.04274e-15
-6.23827e-17
-3.64526e-18
-2.07479e-19
-1.1682e-20
-8.26427e-22
-3.46159e-22
-0.000438707
-0.000186817
-2.11329e-05
-2.43834e-06
-2.83903e-07
-4.20581e-08
-4.16418e-09
-5.66457e-10
-5.40082e-11
-5.44675e-12
-4.67703e-13
-3.87693e-14
-2.9161e-15
-2.06347e-16
-1.36659e-17
-8.62241e-19
-5.1665e-20
-3.138e-21
-3.56918e-22
-3.16686e-22
-0.00152866
-2.5218e-05
-4.17647e-06
-6.92758e-07
-1.20792e-07
-1.60734e-08
-1.94286e-09
-2.37039e-10
-2.36703e-11
-2.39999e-12
-2.19087e-13
-1.93718e-14
-1.60281e-15
-1.2638e-16
-9.44778e-18
-6.68492e-19
-4.53691e-20
-3.28851e-21
-4.38224e-22
-3.28982e-22
-0.000238519
-4.91387e-05
-1.62827e-05
-3.01922e-06
-5.68764e-07
-3.58785e-08
-5.15422e-09
-1.0145e-10
-3.12597e-12
-1.09845e-13
-3.25983e-15
-2.90438e-16
-1.84973e-17
-1.95394e-18
-1.74495e-19
-4.45897e-20
-1.60666e-20
-4.46574e-21
-1.28047e-21
-5.7739e-22
-0.000202379
-0.000137381
-6.30297e-05
-1.75675e-05
-3.17187e-06
-8.84098e-07
-1.18222e-07
-3.79435e-10
-5.47391e-13
-2.02417e-15
-3.44081e-17
-7.25545e-19
-1.24186e-20
-3.49186e-22
-2.51026e-21
-4.25964e-19
-6.63232e-20
-1.94286e-20
-5.39901e-21
-1.51868e-21
-0.000138614
-0.00020118
-3.73029e-05
-4.46094e-06
-5.29264e-07
-6.8634e-08
-4.55828e-09
-3.69939e-11
-1.35289e-13
-2.45568e-16
-2.7634e-19
-1.62153e-22
-6.3953e-26
-1.76102e-29
-1.56924e-26
-5.62676e-20
-1.23588e-20
-4.42501e-21
-1.50078e-21
-7.06517e-22
-0.000881924
-0.000135086
-3.99944e-05
-1.28057e-05
-3.7705e-06
-1.35247e-06
-1.54689e-07
-1.04132e-09
-2.06699e-12
-1.84679e-15
-9.42163e-19
-3.28005e-22
-8.99974e-26
-2.10417e-29
-1.45117e-27
-5.79922e-20
-1.59994e-20
-3.38087e-21
-1.03444e-21
-4.75855e-22
-0.000123836
-4.24245e-05
-1.41559e-05
-3.08227e-06
-4.97081e-07
-9.14038e-08
-6.52793e-09
-4.72126e-11
-1.1959e-13
-1.43844e-16
-9.96223e-20
-6.53493e-23
-1.65279e-25
-1.05051e-27
-6.43934e-23
-3.35932e-19
-4.73196e-20
-1.46328e-20
-4.36328e-21
-1.25733e-21
-7.40482e-05
-4.88635e-05
-1.0949e-05
-1.96287e-06
-3.58342e-07
-6.2758e-08
-1.63551e-08
-4.08796e-10
-7.45906e-12
-1.04919e-13
-1.38177e-15
-1.84229e-17
-3.69961e-19
-1.17221e-20
-1.58458e-19
-2.81433e-20
-1.16557e-20
-3.99988e-21
-1.1519e-21
-4.9741e-22
-5.02084e-05
-0.00012983
-1.61595e-05
-2.93884e-06
-4.20436e-07
-4.90365e-08
-3.44414e-09
-3.36756e-10
-2.39815e-11
-1.8139e-12
-1.12939e-13
-6.95241e-15
-3.8683e-16
-2.10518e-17
-1.09194e-18
-5.61277e-20
-3.50191e-21
-6.07444e-22
-2.78395e-22
-2.66045e-22
-7.20841e-05
-0.000183353
-6.91342e-05
-1.34742e-05
-2.54389e-06
-3.28589e-07
-3.64746e-08
-3.57283e-09
-2.95443e-10
-2.15196e-11
-1.41836e-12
-8.63085e-14
-4.90882e-15
-2.62782e-16
-1.32926e-17
-6.47931e-19
-3.06762e-20
-1.63107e-21
-2.73289e-22
-2.40902e-22
-5.81813e-05
-9.80443e-05
-7.87395e-06
-1.31905e-06
-2.00061e-07
-1.55197e-08
-1.94978e-09
-1.72077e-10
-1.77464e-11
-1.79008e-12
-1.75968e-13
-1.67393e-14
-1.48852e-15
-1.24545e-16
-9.75226e-18
-7.15518e-19
-4.93629e-20
-3.3919e-21
-3.96967e-22
-2.44058e-22
-7.82483e-06
-1.70665e-05
-2.52172e-05
-5.29349e-06
-1.16513e-06
-1.54763e-07
-1.85889e-08
-1.8488e-09
-1.59924e-10
-1.21965e-11
-8.38347e-13
-5.31534e-14
-3.12537e-15
-1.73322e-16
-9.13029e-18
-4.62557e-19
-2.279e-20
-1.27792e-21
-2.65531e-22
-2.35437e-22
-1.53455e-05
-3.9094e-06
-2.79427e-06
-7.23034e-07
-1.21462e-07
-1.24119e-08
-1.41759e-09
-1.18906e-10
-1.06079e-11
-8.46893e-13
-6.66756e-14
-4.98717e-15
-3.54402e-16
-2.3851e-17
-1.51562e-18
-9.11711e-20
-5.37395e-21
-4.85811e-22
-2.29381e-22
-2.33879e-22
-3.34486e-05
-4.6591e-06
-5.4514e-07
-7.05784e-08
-1.07123e-08
-9.28137e-10
-9.90369e-11
-8.30416e-12
-7.16166e-13
-5.60339e-14
-4.18882e-15
-2.95003e-16
-1.9594e-17
-1.23595e-18
-7.42776e-20
-4.43692e-21
-4.23292e-22
-2.13904e-22
-2.13671e-22
-2.33485e-22
-5.43961e-05
-2.53216e-05
-2.6692e-06
-1.43387e-07
-1.27228e-08
-1.3231e-09
-1.31024e-10
-1.34679e-11
-1.3055e-12
-1.22598e-13
-1.06365e-14
-8.59419e-16
-6.39345e-17
-4.41469e-18
-2.83163e-19
-1.71655e-20
-1.14297e-21
-2.52739e-22
-2.17858e-22
-2.36599e-22
-2.73653e-14
-3.89348e-12
-9.8802e-14
-1.42517e-12
-1.21376e-14
-1.23708e-12
-1.23624e-14
-3.60152e-17
-2.41385e-14
-2.64949e-16
-2.26766e-15
-1.27947e-17
-2.30654e-15
-1.14281e-17
-3.82729e-14
-2.68293e-13
-2.82558e-15
-2.69987e-13
-2.63415e-15
-7.69304e-14
-7.22172e-16
-1.16667e-16
-5.93786e-16
-5.20233e-18
-5.23835e-16
-3.30738e-18
-1.44101e-16
-1.03575e-18
-0.00277703
-0.0119333
-0.000710509
-0.0155766
-0.00427762
-0.0109902
-0.00198737
0.0019816
0.00104251
0.00296953
-0.00252811
-0.000419928
-0.000945442
-6.68364e-05
0.00250792
0.00310508
0.00319488
-0.000243553
-3.59837e-05
-2.40514e-05
-8.13846e-07
0.00259779
0.0031977
0.00319901
-2.94977e-05
-1.13872e-05
-2.36592e-07
-6.94015e-09
0.00268247
0.00319954
0.00319983
-1.38686e-05
-6.92021e-06
-3.22508e-09
-1.07183e-09
0.00275178
0.0031993
0.00319926
-9.83642e-06
-4.47412e-06
-8.9827e-10
-4.34776e-10
0.00281504
0.00319974
0.00319984
-6.97744e-06
-2.87457e-06
-3.73077e-10
-1.78649e-10
0.00284879
0.00320012
0.00321259
-5.54258e-06
-3.23515e-06
-1.55617e-10
-5.36446e-09
-0.000486448
-0.0106626
-0.000447967
-0.00962163
-0.00185789
-0.00968289
-0.00180524
0.00297712
0.00114355
0.00297589
-0.000903978
-6.40218e-05
-0.000885039
-6.36673e-05
0.00319546
0.00310866
0.00319287
-2.27112e-05
-6.95815e-07
-2.26986e-05
-6.97361e-07
0.00319493
0.00319148
0.00318075
-1.9303e-07
-3.25805e-09
-1.91086e-07
-3.07624e-09
0.0031998
0.00319323
0.00319829
-8.20793e-10
-2.73118e-11
-5.30469e-10
1.00339e-09
0.0032002
0.00319234
0.00319497
-1.67028e-11
-7.34757e-12
1.30727e-10
1.21229e-11
0.00320032
0.00319859
0.00319969
-5.05344e-12
-3.50578e-12
7.91686e-12
1.6753e-11
0.00321664
0.00319756
0.00321985
-2.39563e-12
1.13854e-11
3.97529e-12
4.29789e-10
-0.000679349
-0.0118373
-0.000564503
-0.0110673
-0.00186101
-0.0103955
-0.0017641
0.00298522
0.00112052
0.00298624
-0.000859987
-5.54916e-05
-0.000827656
-5.43356e-05
0.00319633
0.00311449
0.00319532
-1.94268e-05
-5.82836e-07
-1.89424e-05
-5.63839e-07
0.00319367
0.00319711
0.00319533
-1.60174e-07
-2.48677e-09
-1.5513e-07
-2.49754e-09
0.00320049
0.00319446
0.00319672
-2.72563e-10
1.16675e-09
-5.72327e-10
-3.34258e-12
0.00319236
0.00319853
0.00320043
2.14746e-10
5.32351e-11
8.15205e-13
5.72988e-11
0.00319989
0.00320052
0.00320013
4.38543e-11
4.21713e-11
2.81486e-11
3.9194e-12
0.00322124
0.00320038
0.00321809
6.12533e-12
4.33704e-10
1.55988e-12
4.19906e-10
-0.00070463
-0.020688
-0.00307067
-0.00961333
-0.00178833
-0.0193324
-0.0040651
0.00298016
-0.00150837
0.0019851
-0.000851531
-5.60979e-05
-0.00257098
-0.000338329
0.00319682
0.00157192
0.00271124
-1.93982e-05
-5.60777e-07
-0.000235601
-1.65391e-05
0.00320043
0.00200179
0.00271805
-1.5234e-07
-2.41108e-09
-2.01843e-05
-2.31297e-06
0.00320043
0.00204479
0.00285546
-7.51308e-10
-1.55905e-11
-8.01194e-06
-6.02778e-07
0.00319782
0.00215901
0.00290363
-7.1103e-11
-6.16578e-12
-5.12387e-06
-4.60214e-07
0.00319957
0.00222425
0.0029692
-3.95826e-11
-1.7893e-12
-4.08332e-06
-2.43615e-07
0.00321754
0.00230662
0.00298554
-2.44427e-11
-6.18531e-10
-3.93387e-06
-1.23942e-06
-9.72872e-06
-3.86872e-05
-5.49628e-06
-2.95293e-05
-4.38238e-06
-2.94744e-05
-4.10382e-06
-1.29432e-06
-2.31131e-06
-1.16055e-07
-2.15021e-06
-2.24199e-07
-1.72041e-06
-7.95717e-08
-5.3752e-08
-3.74084e-08
-1.24967e-09
-1.12118e-07
-8.10654e-09
-2.4152e-08
-5.09428e-10
-6.03483e-09
-4.71021e-10
-1.15571e-11
-4.58922e-09
-3.58739e-10
-1.23533e-10
-1.54922e-12
-4.92264e-09
-1.14905e-11
-3.4642e-12
-3.11771e-10
-5.39622e-11
-3.37471e-13
-7.31309e-15
-3.539e-09
-1.40237e-12
-3.61986e-13
-6.74742e-11
-1.66555e-11
-3.65559e-15
-8.43431e-16
-1.66342e-09
-2.65756e-13
-1.75282e-13
-2.44736e-11
-6.49276e-12
-5.90126e-16
-1.3952e-16
-2.36442e-09
-1.93671e-13
-6.8851e-12
-1.57294e-11
3.72773e-11
-9.7787e-17
1.04525e-14
-1.50252e-05
-0.000176887
-1.06676e-05
-0.000106199
-1.0099e-05
-8.3423e-05
-7.9231e-06
-2.43257e-07
-4.33995e-06
-2.06057e-07
-4.04528e-06
-1.71897e-07
-3.34675e-06
-1.59747e-07
-2.71898e-09
-6.51763e-08
-2.71072e-09
-5.20634e-08
-1.02278e-09
-5.00753e-08
-1.05968e-09
-6.63711e-12
-5.78119e-10
-8.99624e-12
-2.45671e-10
-2.6283e-12
-2.51177e-10
-2.8197e-12
-1.25083e-13
-3.511e-12
9.3752e-12
-5.29692e-13
-3.75258e-15
-5.87422e-13
-3.97064e-15
-4.32791e-14
9.02012e-13
5.15644e-14
-7.37135e-16
-2.79977e-17
-7.00447e-16
-2.9771e-18
-1.092e-14
2.7572e-14
1.96866e-14
-1.65403e-17
-3.13875e-18
-4.55015e-19
-1.23688e-21
-5.26112e-13
5.12882e-15
-1.34737e-13
-1.81617e-18
1.733e-16
-1.40699e-22
1.31521e-16
-1.92828e-06
-1.04204e-05