/*--------------------------------*- C++ -*----------------------------------*\
  =========                 |
  \\      /  F ield         | OpenFOAM: The Open Source CFD Toolbox
   \\    /   O peration     | Website:  https://openfoam.org
    \\  /    A nd           | Version:  10
     \\/     M anipulation  |
\*---------------------------------------------------------------------------*/
FoamFile
{
    format      ascii;
    class       volVectorField;
    location    "0.1";
    object      U;
}
// * * * * * * * * * * * * * * * * * * * * * * * * * * * * * * * * * * * * * //

dimensions      [0 1 -1 0 0 0 0];

internalField   nonuniform List<vector> 
12920
(
(49.4854 -101.871 9.2247)
(-39.4673 -23.2356 -37.2536)
(166.887 -56.8414 -24.7966)
(113.862 -31.1709 -12.46)
(127.685 20.774 15.7025)
(21.0277 15.2164 6.24172)
(40.243 15.8686 3.60219)
(1.75478 5.42562 0.379443)
(21.2179 6.21388 0.257793)
(2.88844 2.73139 0.0223938)
(13.155 2.49406 0.0142083)
(5.28487 1.28586 0.00305268)
(9.6681 0.993549 -0.00131467)
(6.6589 0.586347 0.00177113)
(8.14881 0.411565 -0.00102017)
(7.47897 0.271294 0.00169459)
(7.67911 0.185579 0.000902933)
(7.32173 0.100037 0.000238751)
(6.10004 0.0611964 -0.00183165)
(7.79796 0.019196 0.00184121)
(-90.7985 -110.621 26.0452)
(-101.653 31.0938 -45.2361)
(79.1345 11.0556 -9.87012)
(-49.9563 20.7631 -7.84344)
(56.326 17.0452 0.921501)
(-23.834 7.38968 0.816462)
(31.7904 0.407295 0.370753)
(-8.44785 0.785737 0.0653106)
(19.2142 -1.85301 0.0416672)
(-0.615033 -0.0127723 0.00156777)
(11.9159 -0.929292 0.00318116)
(3.84955 -0.0886904 -0.0028439)
(8.99806 -0.32463 -0.0024297)
(6.08152 -0.00485809 0.00247275)
(7.84791 -0.0412638 -0.000732933)
(7.2762 0.0951962 0.00204945)
(7.58407 0.0516803 0.00107283)
(7.27478 0.0761505 0.000334254)
(6.0686 0.0429002 -0.00156822)
(7.78315 0.0464977 0.00158637)
(-44.8077 -64.7676 102.693)
(-48.8444 10.053 -34.0043)
(85.664 1.09704 7.37752)
(-40.1243 26.2213 4.91112)
(55.638 15.2679 2.21294)
(-11.8353 16.5639 0.686601)
(34.0726 9.50254 0.064885)
(-0.439213 8.63357 0.0183942)
(20.5471 4.18444 0.00783535)
(3.95274 3.90645 0.00181991)
(13.1737 2.12424 -0.00146817)
(5.97922 1.96717 0.00235097)
(9.79362 1.00918 -0.00191806)
(6.9467 0.928033 0.000527265)
(8.26653 0.528056 -0.000977983)
(7.6184 0.480519 0.00156031)
(7.74652 0.308788 0.00091027)
(7.38346 0.237726 0.000100041)
(6.12255 0.153911 -0.001622)
(7.83979 0.0744187 0.00136289)
(19.2649 130.808 94.313)
(-80.5537 84.0813 -17.3713)
(73.6044 19.057 -14.0661)
(-54.1969 30.7568 -4.90897)
(42.7672 9.74724 -3.32343)
(-31.2637 12.4198 -0.578247)
(25.8159 3.18911 -0.33705)
(-13.3313 6.03011 -0.0670624)
(15.2649 1.23273 -0.0250071)
(-2.5327 2.64678 -0.00258048)
(10.1076 0.573954 -0.00119845)
(2.78194 1.29064 0.00386028)
(7.99036 0.349572 -0.00341184)
(5.56742 0.667956 -0.00657934)
(7.37211 0.325806 -0.000868788)
(7.07287 0.445292 0.00228906)
(7.35441 0.285217 0.00117596)
(7.13153 0.245103 0.000431756)
(5.9263 0.164658 -0.001734)
(7.68963 0.0842782 0.0016499)
(111.332 329.678 -170.564)
(-180.229 87.5164 -0.345506)
(30.4318 12.6703 -14.8264)
(-63.4675 24.9099 -6.69512)
(36.8773 5.44128 -4.332)
(-21.7614 13.9682 -1.03167)
(26.7615 -1.29052 -0.654072)
(-3.25791 8.58319 -0.111751)
(16.828 -0.942475 -0.0679762)
(3.25598 3.71892 -0.00231861)
(11.9296 -0.158439 -0.00825918)
(5.81549 1.92299 0.00218851)
(9.21635 0.232226 -0.00235491)
(6.8907 0.919717 -0.000576107)
(8.02155 0.257127 -0.000494258)
(7.5635 0.595109 0.00141569)
(7.57295 0.335613 0.000709818)
(7.25559 0.29604 0.000578817)
(5.98864 0.212108 -0.00217772)
(7.75223 0.0875352 0.00107935)
(129.453 62.9068 -110.344)
(-112.408 -2.92065 22.7376)
(46.4625 -14.5659 6.34333)
(-55.0122 13.2575 1.58831)
(33.0825 5.36223 0.327018)
(-36.9893 15.7091 -0.064675)
(21.4664 0.724427 0.0281504)
(-12.4633 10.0288 -0.011298)
(10.3957 0.77134 -0.00112863)
(-1.65362 4.90795 0.00287294)
(8.44456 0.572274 0.00333547)
(3.31874 2.27244 0.00254049)
(7.08248 0.556227 -0.00407454)
(5.59749 1.14878 -0.00377402)
(7.01326 0.658279 -0.00279201)
(7.15275 0.674812 0.0014867)
(7.05474 0.593401 0.000929197)
(7.0001 0.354251 0.000691016)
(5.74686 0.277786 -0.00200182)
(7.59036 0.0966056 0.00132309)
(103.697 33.3792 -21.8437)
(27.4068 11.0834 33.0454)
(35.606 -12.2925 23.5402)
(-57.0213 -3.93996 1.01779)
(35.1191 -12.1015 0.687082)
(-26.8192 10.4385 -0.430662)
(19.4431 -25.6754 -0.0722187)
(-5.09771 13.1694 -0.00951617)
(11.418 -9.57953 -0.0136133)
(2.82207 5.38785 -0.00660863)
(9.33217 -3.26908 -0.00442249)
(5.77468 1.68082 -0.00152681)
(8.08857 -0.523397 -0.00187729)
(6.90073 0.857118 -0.00425258)
(7.4409 -0.411352 0.00221428)
(7.4247 0.918536 0.00184687)
(7.3009 0.335358 0.0017954)
(6.91718 0.295418 0.000157343)
(5.76887 0.249448 -0.00174674)
(7.60741 0.0977297 0.001006)
(108.189 157.138 -35.6268)
(27.5773 -32.9118 -0.272097)
(79.181 -35.3339 19.151)
(-32.3922 -15.3188 0.867377)
(44.2419 -15.6507 -1.77125)
(-31.12 28.2564 -0.380263)
(16.452 -0.742632 0.0729974)
(-3.85991 17.3253 -0.116551)
(6.73362 4.81014 -0.00815342)
(1.6905 11.9469 -0.0210221)
(6.70523 6.54513 -0.0255638)
(4.71616 9.25472 -0.0244569)
(6.61565 7.57411 0.00782439)
(5.92045 8.57411 0.0293104)
(4.75409 1.27651 -0.0462267)
(8.03683 0.381566 0.00428042)
(6.65588 1.29693 0.000748767)
(6.92057 0.183615 0.00261379)
(5.57002 0.322353 -0.000514887)
(7.48864 0.0574957 0.00116634)
(87.4391 115.479 17.9369)
(-18.8844 24.9198 20.5769)
(48.0486 4.79402 21.5436)
(-45.9859 -9.51823 2.92253)
(32.8012 -9.08383 1.90548)
(-25.2989 16.4389 -0.584396)
(14.472 3.34829 0.786632)
(1.45049 4.64248 -0.0551644)
(3.81209 9.34805 -0.0847736)
(2.37975 11.0588 -0.0866387)
(4.22714 10.7129 -0.047451)
(3.65709 11.1568 -0.0362048)
(4.38625 10.6154 -0.0281782)
(4.39024 10.0908 -0.0232625)
(4.3092 9.02324 0.00348684)
(4.6213 -0.155102 -0.05488)
(7.90893 1.09713 0.00984886)
(6.39159 0.249822 0.00456189)
(5.83854 0.306118 0.00215516)
(7.44388 0.0837803 0.0016712)
(196.146 31.6292 42.75)
(25.8609 -42.2769 25.3028)
(83.8288 -30.9127 33.2116)
(-42.2189 1.26325 4.38194)
(34.9403 -1.02752 5.32265)
(-37.1879 3.87896 0.414781)
(-9.31379 5.39657 0.263843)
(3.78945 -0.477571 -0.114883)
(5.43026 -0.248126 -0.0144795)
(5.26504 0.531711 0.0317465)
(5.78821 1.14373 -0.0545957)
(6.03114 1.27747 0.00251362)
(6.32831 1.47864 0.0217581)
(6.6768 1.53751 0.00514608)
(7.16483 2.58021 0.0292186)
(6.04555 0.756815 -0.0318386)
(7.14811 -0.0587885 0.00431419)
(6.48537 0.356531 0.00297501)
(5.62716 0.245676 -0.000812529)
(7.37849 0.144009 0.000315565)
(-108.732 -151.411 59.3041)
(-212.59 -2.24245 0.35257)
(-6.76235 -8.41116 1.98937)
(-75.149 -5.49193 0.0381752)
(24.0296 -4.3575 0.48631)
(-14.4705 -1.47554 -0.887051)
(-1.32526 -5.24387 -0.0369716)
(5.72725 -3.00533 -0.172153)
(6.28485 -1.37391 0.000554295)
(5.97277 -0.511294 -0.0946781)
(6.54135 -0.417862 -0.274365)
(6.01703 -0.082334 0.0576352)
(6.5642 0.186368 0.0632999)
(6.45596 0.248659 0.00612749)
(7.76438 0.190538 0.0307855)
(6.19467 -0.117105 -0.0305573)
(7.14062 0.480009 -0.000690389)
(6.49645 0.241687 0.00086902)
(5.60344 0.250605 2.19301e-05)
(7.32226 0.129992 0.00148338)
(-173.693 -258.334 -22.6966)
(-173.416 -105.691 -44.6729)
(38.9933 -71.0505 -12.9408)
(-71.9507 -27.8501 -4.59796)
(28.3667 -22.9987 -0.255223)
(-36.8704 -10.7612 -0.257447)
(-3.95989 -7.82735 -0.185644)
(6.56568 -3.6156 -0.168809)
(6.69971 -2.20293 0.00552495)
(6.12499 -1.77186 -0.000886285)
(6.20765 -1.38395 0.00789553)
(6.07974 -1.16072 0.0128996)
(6.2932 -1.10213 0.0122857)
(6.55139 -0.810558 0.0130107)
(8.6216 -1.36274 0.0933593)
(4.83568 0.67887 -0.055724)
(7.56434 -0.543833 0.0084234)
(6.26993 0.252783 0.00574393)
(5.60376 0.210422 0.00388496)
(7.21512 0.169207 0.00212278)
(43.8017 157.143 -15.8314)
(-25.6755 -102.404 -25.6606)
(68.4082 11.7948 -27.9482)
(-7.61958 -23.9587 -9.24673)
(54.5048 -2.18612 -2.03994)
(9.2341 -27.5754 -0.167352)
(31.3201 -10.3916 0.182596)
(6.12909 -7.32606 -0.0215923)
(10.5059 -3.93043 0.00193065)
(5.05488 -4.18601 0.00272903)
(7.38488 -3.10354 0.0040776)
(6.01829 -2.93002 0.00523443)
(6.81797 -2.50338 0.00850284)
(6.42019 -2.23704 0.112092)
(4.97536 0.0798945 -0.0503366)
(8.02347 0.346022 0.00547399)
(6.50891 -0.574861 0.00258413)
(6.68661 0.247187 0.00333298)
(5.3083 0.137229 0.000310815)
(7.19704 0.144212 0.000839832)
(874.912 256.267 -108.92)
(-240.398 42.2817 50.6938)
(194.382 3.7299 -31.2665)
(-30.7115 -7.3087 1.35113)
(67.918 -10.3083 4.72825)
(-18.9844 -13.7098 0.754689)
(18.8932 6.66939 0.841967)
(-3.55555 -10.2939 0.11468)
(10.3592 0.507202 0.075329)
(3.14493 -4.2017 0.00835768)
(7.71856 0.0308104 0.00340375)
(5.66892 -1.68776 0.000529751)
(7.15031 -0.257473 -0.00041646)
(6.73796 -0.927117 -0.00754072)
(7.24918 0.216443 -0.0010742)
(7.12109 -0.618261 -0.000805857)
(6.90388 0.0748108 0.00136166)
(6.61603 0.0167157 0.000167019)
(5.36282 0.132175 -0.00065625)
(7.17208 0.0629476 0.00127945)
(203.095 -347.414 -83.1496)
(84.7785 -43.0968 10.0991)
(123.551 -33.4857 14.423)
(38.8468 10.2535 8.66652)
(61.4464 5.52413 6.1684)
(10.8524 -2.49516 1.71592)
(29.1973 5.62166 0.773313)
(11.444 -1.10791 0.152021)
(15.9424 3.1992 0.060191)
(9.14638 -0.222148 0.00984726)
(10.6851 1.48715 0.00207635)
(7.77549 0.121385 -7.82483e-05)
(8.42714 0.793383 0.0103241)
(7.28515 0.24902 0.000643027)
(7.4644 0.264502 -0.00279444)
(7.36569 0.0484623 0.00041693)
(6.94526 0.0271217 -0.000195144)
(6.8125 -0.0129354 -0.000847431)
(5.37694 0.127806 -0.000560278)
(7.19566 0.00960141 7.76913e-05)
(177.506 49.3822 63.5639)
(-46.3503 -12.901 14.6602)
(70.3083 25.0786 11.8511)
(-34.3783 7.27386 -1.3753)
(45.3316 14.5774 4.88976)
(-20.6361 0.458526 0.304489)
(20.9667 8.95528 0.951503)
(-6.44691 -1.38663 0.0821137)
(11.5916 3.27333 0.0965963)
(1.38725 -0.876667 0.0129712)
(8.08596 1.00969 0.00754066)
(4.94432 -0.654115 0.00211642)
(7.26059 0.252877 -0.000291434)
(6.30777 -0.381154 -0.000798899)
(7.22787 0.134959 -0.000121126)
(7.01621 -0.202656 0.000463665)
(6.94593 0.0491179 3.08408e-06)
(6.74827 -0.0595196 -0.000999187)
(5.35239 0.110008 -0.000797386)
(7.17241 -0.0315469 0.000404992)
(220.891 -131.055 -107.884)
(64.6351 -117.783 -10.1346)
(112.966 -58.1245 17.4034)
(10.2897 -6.23663 7.47611)
(51.5008 -4.19736 5.25035)
(1.25712 -0.922668 0.861234)
(26.9636 0.909625 0.600622)
(5.19824 -1.472 0.0910522)
(16.3177 0.55979 0.0502804)
(6.82112 -0.89024 0.00957266)
(10.8304 0.233257 -0.000971862)
(7.03774 -0.334659 0.0107926)
(8.67019 0.149987 3.13342e-05)
(7.16984 -0.0565246 0.000641509)
(7.72523 0.0999036 -0.000222481)
(7.33798 -0.0238091 0.000351635)
(7.08613 0.0742667 -0.000120003)
(6.87977 -0.024986 -0.000968899)
(5.40775 0.124078 -0.000478634)
(7.24752 -0.0284868 0.000111538)
(58.2408 -100.889 -37.7495)
(39.6919 -97.5586 -61.6953)
(110.375 -32.5685 -9.19098)
(8.71591 9.40124 3.81379)
(39.5318 29.9029 10.0146)
(-16.9249 8.17249 1.29291)
(19.6693 14.4174 1.3509)
(-6.89161 2.59785 0.113287)
(12.2289 5.03963 0.103994)
(1.04645 0.991304 0.0142211)
(8.6598 1.48532 0.00634345)
(4.85941 0.376978 0.00175736)
(7.52572 0.526799 -0.000326386)
(6.26092 0.0731754 7.42132e-05)
(7.24672 0.166189 -0.00030104)
(6.93763 -0.0279058 0.000469446)
(6.90186 0.0545465 -2.99231e-06)
(6.74453 -0.0361399 -0.000890742)
(5.32375 0.0715163 -0.00047317)
(7.19221 -0.0385937 2.358e-05)
(2.65655 -16.4395 -73.8425)
(-126.871 1.44195 -22.8163)
(31.6848 7.53201 -16.1713)
(-62.319 -0.386004 -3.22611)
(30.3692 8.2743 0.478515)
(-23.5998 -3.52751 0.109912)
(21.9807 1.45328 0.180936)
(-5.01589 -2.59543 0.0295023)
(14.7043 -0.615208 0.0249544)
(3.1522 -1.36068 0.00573664)
(10.2318 -0.586294 0.0012478)
(6.07945 -0.679592 0.00191719)
(8.38399 -0.346426 -0.000112976)
(6.87725 -0.313414 0.000272522)
(7.69432 -0.12329 -0.000244374)
(7.24155 -0.0963355 0.000327784)
(7.0778 -0.0113966 -0.000156641)
(6.8767 -0.0318019 -0.000956081)
(5.38446 0.0477301 -0.000500051)
(7.25674 -0.0155614 -8.93401e-06)
(88.2195 221.885 71.7193)
(-131.313 -3.66275 35.9036)
(37.5739 0.569771 4.13009)
(-58.1019 4.24859 1.75111)
(29.2932 9.34049 1.26933)
(-27.4115 4.53401 0.161848)
(20.5874 7.15946 0.205519)
(-9.08408 2.93503 0.0307074)
(13.4257 3.50306 0.0211284)
(1.02794 1.63629 0.00691523)
(9.29625 1.4868 0.000962946)
(5.06454 0.732785 0.00165571)
(7.85387 0.540977 -0.000239868)
(6.39708 0.267964 0.000324058)
(7.35668 0.195957 -0.000231163)
(6.98878 0.102965 0.000348644)
(6.91913 0.0709946 -0.000125714)
(6.75936 0.0252443 -0.000886067)
(5.29714 0.0292325 -0.000527673)
(7.18758 -0.00314682 -0.000157375)
(279.885 -224.698 -54.0878)
(-135.48 -3.9629 -22.551)
(105.722 -13.3074 -3.33544)
(-26.9144 11.7917 14.4988)
(72.5863 27.6406 24.0281)
(-4.1901 14.0358 7.74632)
(37.6783 14.9883 3.78618)
(0.389226 5.35207 0.391622)
(21.2204 6.14563 0.240689)
(2.90957 2.73007 0.00222724)
(13.253 2.49249 0.0153073)
(5.3788 1.28479 0.000569951)
(9.76488 0.993745 -0.0015245)
(6.75602 0.587004 0.00234001)
(8.24446 0.4119 -0.00126081)
(7.57524 0.271576 0.00273038)
(7.77304 0.185745 0.00198726)
(7.41486 0.100143 0.000687222)
(6.19451 0.0613393 -0.00185161)
(7.89159 0.0191179 0.00316162)
(188.974 -158.822 81.9141)
(-107.477 -9.7283 -39.7773)
(88.0453 -13.7405 -30.2655)
(-56.9497 4.44114 -11.4855)
(53.8224 4.24561 -3.25474)
(-24.7171 4.3862 0.544992)
(31.7212 -1.06572 -0.0798921)
(-8.4564 0.657265 0.0306688)
(19.2895 -1.95005 -0.00769822)
(-0.531935 -0.0195938 -0.012884)
(12.0084 -0.934823 0.00165954)
(3.9416 -0.0884906 -0.00613847)
(9.09254 -0.324496 -0.00343723)
(6.17466 -0.00503562 0.00338741)
(7.93942 -0.0409813 -0.000883969)
(7.36863 0.0954006 0.0032459)
(7.67442 0.0518908 0.00220787)
(7.36461 0.0762558 0.000817039)
(6.15961 0.0431035 -0.00143929)
(7.87347 0.0463884 0.00241397)
(142.679 -101.639 59.9669)
(-51.5274 9.07139 -43.8681)
(92.5492 11.5042 -10.608)
(-34.9194 37.6893 -8.85483)
(57.2254 19.9193 -0.617403)
(-10.8174 17.8872 0.0689828)
(34.2733 9.6704 0.497814)
(-0.276504 8.66004 0.0911647)
(20.6482 4.17463 0.0758108)
(4.04899 3.90992 0.00617968)
(13.269 2.12543 0.00336893)
(6.07407 1.97173 0.002447)
(9.88638 1.01007 -0.00243393)
(7.04035 0.925208 0.000494609)
(8.35868 0.528624 -0.00129504)
(7.71067 0.48106 0.00254389)
(7.83698 0.309149 0.00192362)
(7.47335 0.238018 0.000473008)
(6.21351 0.154035 -0.00156121)
(7.93012 0.0745781 0.00209283)
(144.613 -149.313 -39.2979)
(-47.0701 34.2482 -37.1724)
(73.5072 18.1383 -1.43264)
(-44.688 33.1478 1.20098)
(44.7878 9.47813 -0.191928)
(-29.6114 12.2892 0.210302)
(26.0902 3.00902 0.116167)
(-13.1166 5.99614 0.00170521)
(15.3726 1.20736 0.0253953)
(-2.43297 2.64926 -0.000139639)
(10.1999 0.574265 0.00233397)
(2.87296 1.29254 0.00484338)
(8.07701 0.350835 -0.00457785)
(5.65999 0.668514 -0.0097029)
(7.46665 0.326762 -0.00110186)
(7.16486 0.445929 0.0035832)
(7.44446 0.285663 0.00227264)
(7.22112 0.245664 0.000978133)
(6.01714 0.164709 -0.00166408)
(7.77982 0.0843543 0.00258233)
(105.427 62.7589 -36.7473)
(-132.768 79.8457 49.6886)
(30.2937 27.9689 7.40614)
(-56.483 33.6725 1.96968)
(39.9867 9.1375 -2.22305)
(-19.3024 14.8566 -0.281269)
(27.2345 -0.975073 -0.30368)
(-2.88319 8.62688 -0.0456546)
(16.9645 -0.924364 -0.0483191)
(3.37649 3.72311 0.0103848)
(12.0237 -0.15427 -0.00878917)
(5.91117 1.92388 0.004231)
(9.30756 0.233231 -0.00326913)
(6.98406 0.921547 -0.000851318)
(8.11383 0.257228 -0.000823406)
(7.65618 0.595409 0.0024052)
(7.66424 0.336098 0.00145777)
(7.345 0.296518 0.00154593)
(6.07884 0.212278 -0.0030806)
(7.84261 0.0876086 0.00187125)
(-11.6085 -15.8965 -108.848)
(-101.133 20.2091 21.3176)
(42.3172 3.62704 3.22743)
(-55.8966 15.8701 2.93891)
(33.5385 7.22579 0.665855)
(-36.8256 15.8239 0.394066)
(21.5983 0.930234 0.182207)
(-12.3875 10.0669 0.0367601)
(10.4867 0.796321 0.016018)
(-1.56451 4.90959 0.00648236)
(8.5325 0.577113 0.00505655)
(3.40593 2.27313 0.00304964)
(7.17012 0.558335 -0.0060522)
(5.68839 1.14849 -0.00650457)
(7.10581 0.660201 -0.000147447)
(7.24383 0.676144 0.00267274)
(7.14463 0.594412 0.00190227)
(7.08901 0.354522 0.00138119)
(5.83712 0.2783 -0.00270748)
(7.68058 0.0968215 0.00213162)
(-62.53 19.3832 5.88785)
(-100.92 -7.3787 14.8945)
(40.3049 -1.93158 10.4609)
(-58.3569 -3.33324 3.67192)
(37.0674 -12.2388 0.681316)
(-26.5415 10.3547 0.174884)
(19.6876 -25.6523 -0.0355486)
(-5.01661 13.1604 0.0572132)
(11.468 -9.56574 -0.011421)
(2.88853 5.39481 -0.00262533)
(9.40535 -3.26091 -0.00433212)
(5.8536 1.68284 0.00017338)
(8.17004 -0.515146 -0.00182348)
(6.98904 0.864675 -0.00135545)
(7.53088 -0.431127 0.00139851)
(7.51652 0.916429 0.00396864)
(7.39266 0.33581 0.00216821)
(7.00683 0.296322 0.000697209)
(5.85886 0.250227 -0.0020738)
(7.69735 0.0978744 0.00147004)
(20.977 66.3286 -95.002)
(-54.6075 7.92326 -8.24768)
(82.9879 5.71868 13.2411)
(-15.4426 -2.65732 3.74067)
(46.5538 -12.2822 3.51623)
(-29.0463 28.1763 0.36666)
(17.2818 -0.671503 0.2045)
(-3.25702 17.7484 0.0109157)
(7.1842 4.88356 0.0131981)
(2.07627 11.8658 -0.00147099)
(7.02921 6.49414 -0.0124723)
(4.97869 9.19916 -0.0130879)
(6.85796 7.53519 0.00405233)
(6.14192 8.57794 0.00493193)
(4.79742 1.28566 -0.0247582)
(8.10654 0.389974 0.00469297)
(6.72659 1.3088 0.0038484)
(7.00046 0.186818 0.00295335)
(5.65906 0.323814 -0.0012547)
(7.57961 0.0577822 0.00128318)
(128.793 -140.394 -38.5598)
(-91.0719 -70.5847 -11.4481)
(51.6263 -3.20903 -0.36953)
(-45.8907 -10.4466 -3.84012)
(31.0473 -6.55532 -4.904)
(-11.4083 16.7018 -0.480392)
(21.6138 5.15775 -0.638402)
(3.05841 5.46902 -0.0429878)
(4.54998 9.29078 -0.00571932)
(2.94571 11.0461 -0.0198463)
(4.72267 10.7062 -0.0136603)
(4.11513 11.1354 -0.00985327)
(4.84062 10.5805 -0.00992065)
(4.8208 10.0465 -0.00975444)
(4.58195 9.02805 -0.00582932)
(4.66587 -0.182089 -0.0287635)
(7.95526 1.09302 0.00783314)
(6.45774 0.24821 0.00601733)
(5.92229 0.305734 0.0012792)
(7.53439 0.0834621 0.00139699)
(230.512 -31.9214 -32.2137)
(-144.722 -27.7994 6.73024)
(73.3582 -9.14872 12.6703)
(-68.9257 7.53943 3.59834)
(34.8688 -0.885792 3.14601)
(-32.2269 3.79458 1.11322)
(-6.27078 8.21508 0.408779)
(4.75429 -0.195293 -0.0826604)
(5.88188 -0.251392 0.00163253)
(5.75724 0.473318 0.0877501)
(6.06058 1.2564 -0.0556326)
(6.88512 1.33063 0.0149986)
(6.80476 1.41851 0.0380426)
(7.063 1.53515 0.0320792)
(7.40089 2.57155 0.00724403)
(6.11451 0.780447 -0.0137462)
(7.21873 -0.0304106 0.00332087)
(6.57404 0.362485 0.00509012)
(5.719 0.245815 -0.000448886)
(7.46883 0.144225 0.000396559)
(-69.8793 -155.774 190.229)
(-264.674 -9.24873 -21.9006)
(-5.98208 -22.4113 -20.3008)
(-77.8029 -7.03351 -6.85755)
(22.8462 -6.02929 -6.12702)
(-10.2025 -1.78785 -1.75975)
(4.96814 -6.57083 -0.568189)
(6.60516 -2.85332 -0.0846405)
(6.78234 -1.37289 -0.0423463)
(6.58771 0.14023 -0.462877)
(6.95495 -0.979844 -0.561082)
(5.66147 0.0476987 0.00540544)
(6.69252 0.366089 0.0404257)
(6.94387 0.168313 -0.00162887)
(7.98561 0.191739 0.00678999)
(6.27501 -0.140432 -0.0141553)
(7.21942 0.467299 0.000366759)
(6.57717 0.238819 0.00120537)
(5.69131 0.251512 0.00204126)
(7.41187 0.130623 0.00198327)
(1.84211 -130.31 127.549)
(-74.5015 -100.94 -42.545)
(56.6577 -72.5497 -27.0642)
(-63.0536 -28.5584 -5.83572)
(29.5988 -23.0115 -3.56552)
(-33.9484 -10.5282 -0.32807)
(-2.75049 -8.21258 0.120182)
(7.18663 -3.55871 -0.0108469)
(7.11234 -2.21022 0.00568702)
(6.60175 -1.77386 -0.0444271)
(6.68324 -1.3512 0.0666157)
(6.52885 -1.07575 0.0396741)
(6.79527 -1.09771 -0.0325012)
(6.96732 -0.794594 0.0161333)
(8.68697 -1.27544 0.0293836)
(4.84659 0.711906 -0.0324713)
(7.60314 -0.535115 0.00435285)
(6.33044 0.254663 0.00477222)
(5.68518 0.210823 0.00399004)
(7.30454 0.169084 0.00213814)
(89.9192 98.5795 -8.30889)
(69.5593 -37.8863 -25.0761)
(108.81 41.3449 -2.99424)
(23.8578 0.575423 3.65275)
(60.8978 4.79093 -0.359937)
(11.7897 -26.0858 -0.36706)
(31.7135 -10.2646 -0.0504431)
(6.36953 -7.30267 0.161309)
(10.6973 -3.90617 0.0374271)
(5.23891 -4.18127 0.0165837)
(7.56679 -3.10397 0.00486564)
(6.20801 -2.93828 0.00275578)
(7.00717 -2.51413 0.00386332)
(6.61923 -2.21171 0.0374309)
(4.98132 0.0918858 -0.0321001)
(8.07623 0.351843 0.00443289)
(6.57217 -0.590452 0.00304943)
(6.7678 0.241687 0.00171942)
(5.39714 0.135207 0.00199747)
(7.28648 0.143989 0.0012064)
(81.5788 58.2413 -332.703)
(-159.252 53.9259 121.201)
(124.706 47.4763 -29.8883)
(-45.1953 8.84667 11.737)
(63.8227 -5.58658 -4.27679)
(-21.588 -12.8834 0.000569085)
(18.803 7.04266 -0.117727)
(-3.79014 -10.2646 -0.0232057)
(10.4028 0.521436 0.0201032)
(3.20987 -4.21142 -0.00686351)
(7.80021 0.0274049 -0.000356655)
(5.75491 -1.69068 0.000105645)
(7.23487 -0.254678 -0.00171192)
(6.82999 -0.931737 -0.00441641)
(7.34028 0.235838 -0.00102394)
(7.21135 -0.618415 0.00146738)
(6.99368 0.0747533 0.000172299)
(6.7045 0.0156031 -0.000368322)
(5.45175 0.132094 0.000951841)
(7.26088 0.0628195 0.00186528)
(192.523 -70.2049 45.6935)
(7.65485 50.2084 33.6965)
(80.3273 5.35489 5.28438)
(10.9444 20.4113 1.12611)
(54.5973 8.0191 1.10567)
(7.57248 -2.14191 0.0109542)
(28.7261 5.76737 0.290372)
(11.261 -1.11001 0.00636983)
(15.9878 3.20973 0.0304115)
(9.21579 -0.218895 -0.0019059)
(10.7711 1.48921 0.00063169)
(7.86892 0.123158 -0.000788743)
(8.51658 0.793821 0.01052)
(7.36883 0.253057 -0.00112021)
(7.55276 0.265092 -9.72351e-06)
(7.45481 0.0489495 0.000601314)
(7.03316 0.0268504 -0.000154519)
(6.90104 -0.0132796 -0.0021047)
(5.46588 0.127871 -0.000821888)
(7.28453 0.00937582 0.00210708)
(15.8381 -26.4766 -15.3283)
(-161.914 -1.32132 23.7421)
(64.0473 21.9607 13.675)
(-59.9981 4.66444 4.17316)
(43.4268 13.857 4.04378)
(-24.519 0.0565173 0.220324)
(20.8259 8.93544 0.681351)
(-6.7796 -1.40894 -0.0180353)
(11.6505 3.27332 0.0735949)
(1.439 -0.874709 -0.00200958)
(8.16929 1.0093 0.0050221)
(5.03006 -0.648805 0.000737974)
(7.34786 0.249077 -0.001771)
(6.39623 -0.380468 -0.000846954)
(7.31634 0.135899 -0.000493276)
(7.10525 -0.20232 0.000592914)
(7.03426 0.0492376 -0.000292779)
(6.83701 -0.0594371 -0.00227233)
(5.44165 0.110156 -0.00117165)
(7.26135 -0.0314215 0.0025033)
(56.2616 -47.3649 87.4909)
(-19.0269 -62.0528 78.2415)
(81.1036 -55.0844 33.2241)
(-4.76422 -10.0376 3.2261)
(49.0842 -5.13174 1.55849)
(-0.739427 -1.09707 -0.44637)
(26.7929 1.00058 0.131172)
(5.05526 -1.46194 -0.0616059)
(16.3766 0.564954 0.00890692)
(6.88927 -0.887958 -0.00369834)
(10.9189 0.233989 -0.00434881)
(7.12638 -0.333741 0.0104975)
(8.754 0.150707 -0.0010275)
(7.25824 -0.0554091 0.000545339)
(7.81327 0.100348 -0.000189413)
(7.42645 -0.0235049 0.000490366)
(7.17382 0.0744929 -0.000284349)
(6.96818 -0.0247849 -0.00228193)
(5.4966 0.124332 -0.000752631)
(7.33619 -0.0285219 0.00196878)
(33.5742 -50.417 -65.8714)
(-73.3807 12.0404 -24.9331)
(26.1821 29.0377 22.1385)
(-59.2607 20.2145 5.64218)
(29.0344 30.3005 7.95059)
(-24.3456 7.27295 0.402034)
(19.1741 14.1782 0.818546)
(-7.39884 2.5448 -0.0194836)
(12.2762 5.02841 0.063878)
(1.09312 0.991002 -0.0017655)
(8.74124 1.48718 0.00246651)
(4.94457 0.374226 -0.000129493)
(7.61253 0.527134 -0.0013326)
(6.34887 0.0733511 -0.000109762)
(7.3336 0.166316 -0.000540745)
(7.02507 -0.0278305 0.000625001)
(6.9893 0.0545834 -0.000169222)
(6.83297 -0.0360854 -0.00216716)
(5.41267 0.0715488 -0.000730914)
(7.281 -0.0385863 0.00175742)
(84.3078 -119.251 -153.518)
(-114.084 -32.9468 -39.6472)
(31.8026 -4.81922 -26.2223)
(-61.5427 -4.75086 -5.38021)
(30.4432 4.11222 -2.22214)
(-23.83 -4.0256 -0.360801)
(22.0249 0.989127 -0.262573)
(-5.00291 -2.62788 -0.0475992)
(14.7782 -0.646911 -0.00757482)
(3.22828 -1.36224 -0.00388469)
(10.3158 -0.58745 -0.00269315)
(6.16613 -0.678815 0.00157381)
(8.47067 -0.345791 -0.000618502)
(6.96563 -0.312833 0.000192487)
(7.7824 -0.122913 -0.000415955)
(7.32999 -0.0961166 0.000440415)
(7.16554 -0.0112408 -0.000361)
(6.96521 -0.0316661 -0.00222797)
(5.47322 0.0478101 -0.000745646)
(7.34539 -0.015563 0.00165777)
(-49.854 107.253 -78.0236)
(-154.992 1.45524 -30.1099)
(24.7946 3.42884 -17.9601)
(-60.8171 5.22362 -5.71563)
(29.1597 9.551 -1.95569)
(-27.8832 4.54928 -0.395825)
(20.6382 7.17468 -0.223827)
(-9.08419 2.93729 -0.0209707)
(13.5005 3.50222 -0.020465)
(1.10773 1.63713 -0.000101733)
(9.38216 1.48678 -0.00303724)
(5.15415 0.732711 0.00121719)
(7.94326 0.54087 -0.000733842)
(6.4883 0.267911 0.000271578)
(7.4479 0.195862 -0.000410536)
(7.08044 0.102908 0.000508081)
(7.00996 0.0709499 -0.000288107)
(6.8506 0.0252399 -0.0021351)
(5.38923 0.0291908 -0.000790191)
(7.27959 -0.00320924 0.00148631)
(123.138 -71.314 -282.95)
(-83.7426 -3.58182 -13.4674)
(103.887 -4.88383 -41.1974)
(-29.1854 18.9528 -13.8228)
(64.7208 28.7607 6.53232)
(-4.23084 14.0088 3.40337)
(37.8525 14.9474 2.66466)
(0.550403 5.36485 0.395177)
(21.2348 6.13423 0.29647)
(2.91264 2.7312 0.0125804)
(13.257 2.49103 0.027043)
(5.37779 1.28449 -0.00164657)
(9.76608 0.993516 0.000814841)
(6.75603 0.587205 0.00106018)
(8.24467 0.41198 -0.000354399)
(7.5758 0.271666 0.00169315)
(7.77281 0.185785 0.00166101)
(7.41443 0.100168 0.000669176)
(6.19488 0.061408 -6.89463e-05)
(7.89106 0.0189257 0.00197429)
(150.666 -39.4707 76.6443)
(-108.919 13.8741 -9.32782)
(79.5595 7.22912 -30.5641)
(-51.4171 14.0968 -11.192)
(53.1275 8.12039 -4.21676)
(-23.2373 5.04258 0.180148)
(31.6662 -0.66266 -0.0515538)
(-8.29819 0.718345 0.0385289)
(19.2941 -1.91312 0.00581178)
(-0.513763 -0.00996318 -0.00878351)
(12.0119 -0.933351 0.0050931)
(3.94156 -0.087371 -0.00370096)
(9.09412 -0.324543 -0.00150855)
(6.17499 -0.00522114 0.00139179)
(7.93954 -0.0409733 -0.000347783)
(7.36915 0.095404 0.00192873)
(7.67414 0.0518808 0.00172875)
(7.36422 0.076237 0.000736086)
(6.15977 0.0431451 -5.43289e-05)
(7.87306 0.046157 0.00158979)
(241.478 -43.3387 113.923)
(-119.989 -1.68344 0.126084)
(95.5659 -18.715 -11.3444)
(-44.9351 24.3707 -1.89681)
(55.1932 16.0662 1.0616)
(-13.1112 16.4129 0.872987)
(33.8496 9.59128 0.566355)
(-0.596054 8.62941 0.112762)
(20.6106 4.20361 0.0876986)
(4.0284 3.91764 0.00317557)
(13.2703 2.12823 0.00863401)
(6.07265 1.97362 0.000255579)
(9.8864 1.01003 -0.000767278)
(7.04037 0.923607 -0.000109635)
(8.35908 0.528584 -0.000564967)
(7.71121 0.481103 0.00162239)
(7.83674 0.30913 0.00156619)
(7.47298 0.238043 0.000489981)
(6.21367 0.154012 -7.37414e-05)
(7.92978 0.0746206 0.00137527)
(18.163 -58.8996 12.1963)
(-81.2302 46.5869 -15.077)
(45.4322 -11.4806 -12.0779)
(-58.9813 26.124 -9.85847)
(41.392 6.99954 -2.66865)
(-31.4752 11.9697 -0.310582)
(25.8195 2.84006 -0.0749792)
(-13.2934 5.99109 -0.0291237)
(15.3535 1.19047 0.0120701)
(-2.44998 2.65397 -0.000157206)
(10.2001 0.572373 0.00168208)
(2.87115 1.29337 0.00193087)
(8.07539 0.350681 -0.00243373)
(5.66034 0.668419 -0.0045376)
(7.46845 0.326765 -0.000903283)
(7.16543 0.44592 0.00201019)
(7.44418 0.285557 0.00162394)
(7.22072 0.245902 0.000813157)
(6.0173 0.164323 -0.000266919)
(7.7794 0.0843794 0.0017102)
(-72.4722 48.0054 -53.2249)
(-131.648 65.9411 37.0365)
(36.981 2.44617 -20.1435)
(-55.1864 21.1325 -11.2099)
(37.9808 5.4432 -11.0636)
(-20.4084 14.1814 -1.20853)
(26.9961 -1.17877 -1.10474)
(-3.02455 8.61661 -0.125208)
(16.946 -0.937034 -0.0987458)
(3.36867 3.7248 0.00209346)
(12.0201 -0.15449 -0.00983792)
(5.91123 1.92382 0.00164036)
(9.30668 0.232904 -0.00225946)
(6.9843 0.921748 -0.00113123)
(8.11428 0.258321 -0.00044997)
(7.65651 0.595416 0.00138433)
(7.6642 0.336034 0.00113834)
(7.34431 0.296583 0.000810308)
(6.07879 0.211969 -0.000690208)
(7.84263 0.08756 0.00133375)
(20.3245 -21.6901 58.9557)
(-89.4593 9.72369 32.2678)
(42.9385 -5.02952 17.7124)
(-54.9993 15.0872 9.0795)
(32.4961 6.79264 2.72192)
(-37.0818 15.9399 0.800698)
(21.4382 0.857207 0.30985)
(-12.4443 10.0789 0.0481114)
(10.4702 0.794199 0.0281384)
(-1.57052 4.90874 0.00589174)
(8.53159 0.578148 0.00248921)
(3.40451 2.27316 0.00190891)
(7.16884 0.558671 -0.00311761)
(5.69 1.1499 -0.00308169)
(7.10792 0.660036 3.87911e-05)
(7.24399 0.67654 0.00173418)
(7.14442 0.594341 0.00120457)
(7.08838 0.354359 0.000878413)
(5.83719 0.278535 -0.00071796)
(7.68051 0.0966929 0.00145156)
(13.4649 88.4113 195.477)
(-61.0598 4.45331 -10.4752)
(26.1698 0.35684 12.165)
(-60.441 -3.02416 1.94216)
(34.3467 -10.758 0.506011)
(-26.7689 10.3737 0.140107)
(19.3643 -25.5704 -0.0505974)
(-5.04259 13.1989 0.031749)
(11.4447 -9.55866 -0.0160879)
(2.88883 5.39475 -0.000421125)
(9.40474 -3.26173 -0.00287883)
(5.85359 1.68116 0.000484405)
(8.17037 -0.514254 -0.000791645)
(6.9878 0.862786 -0.000269924)
(7.52959 -0.423874 -0.000292203)
(7.51607 0.917024 0.00103351)
(7.39133 0.336711 0.00161203)
(7.00594 0.29624 0.000430954)
(5.85884 0.250244 -0.000494785)
(7.69728 0.0976072 0.0010348)
(61.0788 -28.9361 39.5527)
(-115.653 24.4229 -26.1436)
(64.9716 7.97094 12.2684)
(-36.8335 -5.18745 2.84118)
(44.6112 -14.5303 5.67554)
(-32.233 28.1897 0.422157)
(16.7861 -0.842298 0.787689)
(-3.38577 17.7947 0.151621)
(7.16209 4.88811 0.0290836)
(2.0721 11.8695 0.00493797)
(7.03291 6.49651 -0.000636215)
(4.97641 9.19954 -0.00194106)
(6.85822 7.53863 0.000374194)
(6.14264 8.59287 -0.000793372)
(4.80127 1.28276 -0.000739496)
(8.09891 0.399885 0.000847819)
(6.72563 1.30875 0.00191024)
(7.00006 0.187205 0.0014981)
(5.65953 0.323635 -0.000559024)
(7.57976 0.0575058 0.000786452)
(-0.00426352 -53.874 54.0904)
(-93.0586 -9.49737 46.6797)
(66.5154 16.02 17.4267)
(-15.3804 2.5436 6.04855)
(36.9308 -5.41783 -3.0295)
(-5.65795 16.2246 -0.810935)
(23.2582 5.02502 -0.696444)
(3.14551 5.3177 -0.0508596)
(4.55376 9.26922 0.00518862)
(2.94209 11.0332 0.000589291)
(4.72343 10.7017 0.000450321)
(4.11241 11.132 -0.001404)
(4.83812 10.5755 -0.00138051)
(4.8193 10.0367 0.000624899)
(4.5808 9.03189 -0.00796045)
(4.66845 -0.175914 0.000291551)
(7.94383 1.09226 0.000513462)
(6.45729 0.249199 0.00155504)
(5.92272 0.306419 0.000426848)
(7.53486 0.0835112 0.000584764)
(40.643 80.4086 -127.945)
(-109.098 39.6717 35.4196)
(37.1168 15.0844 3.84075)
(-65.5816 12.0394 6.40243)
(31.7487 -0.141008 2.96029)
(-32.7198 3.78417 1.71762)
(-6.23811 8.31556 0.31446)
(4.7773 -0.198545 -0.0211116)
(5.90559 -0.250727 0.00500494)
(5.93728 0.0583342 0.0112935)
(5.90636 1.45633 0.0622441)
(6.70778 1.45298 -0.0303763)
(6.62046 1.33825 -0.0312045)
(7.02293 1.55973 0.0211071)
(7.39699 2.56637 -0.00371326)
(6.11699 0.778956 -0.000772668)
(7.21222 -0.0283487 0.00067771)
(6.57313 0.362407 0.00206788)
(5.71883 0.247074 0.00038715)
(7.46868 0.144553 0.000559112)
(-3.70563 0.247551 108.3)