/*--------------------------------*- C++ -*----------------------------------*\
  =========                 |
  \\      /  F ield         | OpenFOAM: The Open Source CFD Toolbox
   \\    /   O peration     | Website:  https://openfoam.org
    \\  /    A nd           | Version:  10
     \\/     M anipulation  |
\*---------------------------------------------------------------------------*/
FoamFile
{
    format      ascii;
    class       volScalarField;
    location    "8.8";
    object      k;
}
// * * * * * * * * * * * * * * * * * * * * * * * * * * * * * * * * * * * * * //

dimensions      [0 2 -2 0 0 0 0];

internalField   nonuniform List<scalar> 
12920
(
5846.77
3735.19
1640.89
759.929
583.036
545.183
489.228
437.749
401.353
382.101
351.849
268.079
178.972
140.86
133.602
128.266
122.594
109.249
98.7681
76.174
13019.1
6868.13
2372.4
1101.38
819.913
782.963
709.723
552.733
417.511
346.703
294.059
244.574
206.267
183.088
170.253
158.455
145.184
131.973
125.369
124.157
998.754
1364.66
1071.9
922.851
855.06
876.151
813.025
598.903
384.602
286.626
235.271
206.233
184.085
168.57
159.027
153.269
151.069
151.09
152.23
151.911
2852.74
2292.17
1599.27
1166.45
963.35
860.563
620.968
441.866
324.679
269.675
231.543
205.502
185.132
172.502
164.706
160.571
159.167
157.894
157.108
154.161
115.654
835.619
1094.67
1018.31
828.528
743.415
574.995
436.701
336.646
286.08
244.414
214.655
193.871
183.418
177.49
172.947
170.524
166.46
164.225
158.128
984.846
1047.72
1296.37
1260.58
961.645
792.985
653.416
534.547
410.29
324.313
257.217
212.479
186.84
176.165
171.68
167.969
165.796
161.253
158.615
151.881
3416.35
1991.28
1498.96
1252.85
929.019
760.305
600.797
485.646
372.633
289.005
227.478
190.757
171.646
163.765
157.864
152.784
150.367
145.907
143.681
137.876
710.017
1623.32
1610.95
1431.79
1060.1
902.468
517.302
349.911
275.326
196.637
148.81
114.295
90.2056
86.2482
148.334
136.92
129.531
123.28
121.127
116.107
2991.87
850.641
1278.98
1305.99
1059.78
637.867
348.453
188.513
176.537
130.773
91.6359
84.1311
66.6166
50.4981
89.7329
118.42
106.52
98.4139
95.8845
90.6498
1622.11
1641.81
1673.24
1052.7
733.826
352.333
204.374
148.969
147.779
118.44
99.2937
113.012
96.4971
62.6739
76.8008
89.2457
81.1435
76.0644
72.4065
70.5447
1043.03
1687.86
1513.86
1254.97
926.535
406.534
178.049
140.124
139.773
119.724
121.316
116.656
83.9129
46.4744
63.1374
100.737
76.1803
66.3481
64.1053
65.1848
513.388
2248.14
2414.76
1912.07
964.356
347.889
143.877
105.09
91.4487
102.912
118.385
123.462
111.629
43.586
123.318
197.697
119.899
83.5836
71.8661
68.0902
1643.86
2352.56
2401.56
1835.08
1195.96
822.128
403.011
216.613
159.184
139.374
142.546
161.646
176.169
167.132
233.08
185.619
121.91
86.9195
74.3065
69.9578
3205.4
3072.5
2478.28
1723.36
1269.27
935.464
604.664
408.793
283.263
201.869
160.579
151.47
155.404
155.758
145.73
115.051
94.8392
84.6642
82.3494
82.1664
1692.29
4626.59
3611.69
2351.18
1644.1
1331.15
929.061
638.378
414.926
269.575
187.873
146.264
130.053
122.536
117.389
112.571
110.63
111.873
116.043
116.67
704.061
3774.97
3314.5
2414.11
1550.28
1107.45
780.464
532.481
352.312
237.719
177.627
149.392
136.829
131.722
130.469
132.053
138.551
141.976
142.894
141.312
812.656
2944.63
2654.89
1709
1068.7
735.483
516.452
364.972
258.032
193.312
157.606
142.324
134.47
131.423
130.845
131.263
133.434
134.562
134.347
130.239
498.536
1745.38
1833.42
1524.05
1057.99
747.403
502.946
340.102
236.434
185.192
156.705
142.361
131.322
124.207
119.518
115.827
114.094
110.275
107.741
101.228
1245.6
2257.29
1361.3
934.371
637.356
484.357
360.423
276.429
221.419
197.641
183.558
174.796
161.48
149.696
138.059
130.098
124.052
119.59
117.509
108.035
394.702
841.607
634.37
492.06
399.621
372.98
342.425
280.204
220.463
180.085
151.934
131.891
115.736
102.622
92.1709
82.3494
77.0796
69.4598
65.0998
55.7202
3046.78
3066.98
2280.3
1560
1222.34
1085.38
910.133
803.153
678.97
535.708
400.241
308.824
279.767
275.105
264.958
239.606
215.387
187.959
171.604
146.125
11575
5262.79
2628.71
2187.41
1879.41
1870.23
1508.56
1228.86
985.648
858.343
705.483
626.357
575.086
545.624
523.47
496.914
464.222
428.441
411.128
406.939
2840.19
5844.69
3502.18
2798.69
2351.98
2333.19
1883.31
1324.08
911.175
739.55
632.193
580.598
536.453
510.448
495.262
485.75
483.514
481.923
479.368
468.52
4620.35
6183.96
4126.7
2976.92
2348.29
2076.17
1464.07
1108.94
832.67
724.361
631.863
577.538
530.281
505.407
490.061
483.145
480.673
475.62
472.059
460.548
4878.06
3806.95
3711.09
3058.68
2224.08
1963.54
1394.86
1102.15
857.734
775.036
674.127
610.406
557.395
535.181
517.722
505.998
498.608
487.581
480.874
462.859
4087.2
3570.34
3746.34
3526.72
2547.14
2264.43
1654.5
1339.78
1017.6
848.832
697.271
599.23
537.008
512.935
499.796
486.485
477.298
464.242
457.074
438.488
10856.9
4083.35
3820.86
2930.24
2145.11
1914.25
1465.43
1212.28
937.524
753.344
607.397
521.318
476.596
457.15
443.26
430.38
422.724
413.2
408.296
394.103
5504.83
4822.69
3756.27
3144.66
2290.7
2057.26
1594.47
1296.66
963.853
719.836
565.341
446.736
374.695
348.734
352.637
342.118
336.832
332.594
331.07
324.462
9219.46
4878.97
4303.14
3308.99
2146.24
1867.9
1458.58
1193.06
920.538
693.324
570.76
483.415
361.35
294.592
270.849
256.293
250.674
249.701
250.33
249.234
3350.37
5871.91
4256.89
2510.03
1769.91
1301.93
1133.7
981.12
853.109
684.51
601.333
531.328
415.252
283.489
208.768
185.384
185.49
188.312
191.327
198.679
517.533
4129.1
4258.5
3616.54
2219.6
1422.96
959.048
867.47
761.915
642.43
573.991
482.013
335.562
217.311
181.831
197.272
171.799
170.313
173.411
187.92
4029.24
5350.98
5351.78
4477.19
2566.93
1408.76
910.88
764.141
649.518
590.858
580.152
546.258
423.611
236.199
362.044
364.662
244.18
201.239
192.38
193.184
1974.09
4735.4
5113.55
4398.73
3061.84
2042.08
1281.43
848.277
629.824
548.82
548.197
561.564
554.682
500.982
532.239
422.068
275.276
218.656
203.885
200.206
3921.01
5591.24
5278.52
4115.38
3003.47
2155.49
1380.96
963.588
683.942
507.245
425.806
403.826
406.483
398.016
351.688
287.119
250.901
236.166
234.057
232.575
2559.91
9565.32
6670.28
4901.02
3476.46
2705.18
1782.69
1264.87
835.703
597.971
470.67
391.508
355.939
334.025
320.427
309.129
307.907
310.649
316.584
316.365
7500.93
10479.6
7507.37
5255.6
3280.48
2334.47
1489.84
1038.81
708.988
546.285
455.168
406.896
382.074
370.906
368.698
371.903
381.332
386.073
388.946
386.642
4048.75
8594.88
5266.71
3818.17
2319.46
1667.75
1092.11
800.69
579.635
486.496
422.764
400.09
381.047
374.457
372.647
374.402
382.129
385.952
386.105
377.715
1686.15
3573.76
4203.68
3726.07
2505.86
1746.19
1112.62
770.186
547.945
470.042
416.945
394.536
367.691
353.154
339.35
332.848
330.656
324.219
319.78
308.403
4197.43
4614.27
3535.29
2333.87
1515
1133.29
786.778
616.694
507.408
485.408
465.745
452.349
418.633
391.482
365.589
349.832
337.415
326.365
320.397
306.543
107.385
663.185
1100.81
1154.78
1045.56
908.112
737.486
596.852
488.436
417.225
361.434
316.175
275.387
242.391
216.504
193.478
178.125
158.343
148.335
128.783
3809.42
2988.75
2646.7
1902.69
1471.79
1181.52
925.4
727.794
567.841
452.487
380.762
345.243
326.25
305.048
277.306
246.802
219.521
194.514
176.556
158.204
9844.34
7254.49
4171.05
3282.28
2603.09
2209.22
1571.9
1358.11
1125.16
1028.76
909.787
860.734
810.984
772.6
732.531
693.091
656.029
616.368
587.451
569.081
16714.9
12328.3
5253.89
4115.56
3353.77
2927.47
2042.96
1551.59
1186.93
1039.1
919.94
865.482
817.297
786.782
763.386
742.557
726.772
703.344
687.448
655.94
8177.53
8475.23
6339.59
4363
3336.1
2717.04
1907.58
1494.64
1181.4
1037.38
918.953
852.537
799.651
769.209
748.374
730.598
716.062
696.028
683.063
653.969
10123.5
6563.24
5576.06
4233.66
3231.38
2641.62
1864.73
1504.6
1222.99
1087.61
955.971
877.536
816.859
782.592
756.013
732.844
715.45
693.132
678.964
647.367
19334.4
7447.17
5279.75
4440.43
3373.64
2844.7
2044.31
1655.04
1318.19
1129.64
968.575
866.068
795.199
753.977
722.647
696.861
678.23
655.73
642.42
613.149
13922
6583.12
4943.48
3582.14
2874.39
2401.38
1844.51
1508.12
1210.83
1017.93
859.871
762.975
696.641
658.745
631.078
610.81
597.191
581.69
572.63
551.035
12367.5
5901.87
4626.89
3621.23
2860.23
2444.41
2034.9
1608.56
1228.41
962.736
785.648
646.366
561.618
513.234
488.074
479.843
476.632
472.151
469.096
458.466
8356.74
5585.36
4961.25
3707.13
2624.42
2311.67
1962.12
1582.46
1200.36
944.077
781.468
626.878
489.001
417.294
368.094
347.739
350.037
355.66
360.102
362.28
4273.59
9384.43
5577.71
3571.36
2451
1875.91
1672.37
1404.49
1164.73
947.428
800.95
636.764
468.421
351.536
270.52
256.263
263.62
276.706
284.934
303.307
14722.7
11291.5
7007.73
5051.47
3060.3
2013.09
1435.98
1259.39
1068.32
908.522
596.114
437.242
311.099
261.309
252.381
259.771
249.175
254.818
265.99
292.474
17936
9691.55
7263.97
5786.55
3501.57
2116.47
1433.22
1153.85
966.051
845.636
776.467
673.631
474.689
393.229
517.767
407.17
310.722
286.539
284.719
292.062
7876.65
5637.91
6538.32
5772.27
4128.16
2674.23
1779.52
1167.17
891.187
775.845
745.122
731.865
712.323
695.975
678.213
489.569
361.585
315.178
301.782
297.545
4178.63
6461.36
6450.54
5397.23
3882.86
2648.7
1680.74
1199.71
884.243
685.282
588.883
547.61
535.862
510.065
451.023
393.347
360.419
343.251
338.035
328.759
24156.1
15014.2
7639.18
5763.07
4103.7
2988.17
1917.88
1389.49
1001.03
793.479
653.655
562.244
513.322
481.158
462.516
446.594
442.317
436.173
433.035
418.077
24851.2
11289.8
7488.38
5532.95
3724.96
2658.26
1754.01
1275.66
943.39
782.763
673.709
613.987
574.842
554.062
544.274
540.251
538.628
529.921
522.188
498.694
43217.2
11392.4
6728.84
4705.83
3223.26
2291.47
1539.45
1148.75
872.453
751.412
665.265
625.975
594.194
578.697
568.269
560.181
555.718
542.975
532.974
505.966
2963.64
5465.86
5571.1
4916.24
3462.39
2400.79
1586.92
1163.15
882.948
763.516
670.223
620.399
574.578
549.564
528.654
516.301
506.962
491.229
482.661
462.817
4657.97
5313.38
4417.59
3293.18
2257.26
1673.89
1184.51
978.598
820.945
763.158
688.798
638.242
579.23
542.06
508.646
488.401
471.752
456.541
449.123
434.09
1586.23
1760.25
1720.79
1656.95
1428.19
1165.28
904.134
700.307
566.339
479.866
411.493
353.932
304.804
264.472
232.398
205.362
185.133
168.205
152.6
140.178
3715.29
2772.72
2426.97
1920.38
1528.97
1135.96
833.514
620.498
494.89
425.567
388.21
359.851
332.098
297.309
262.128
230.11
205.543
186.662
174.719
167.782
16005.3
6539.78
5691.47
3733.91
3052.07
2219.49
1681.06
1498.74
1314.12
1254.69
1174.97
1136.55
1090.09
1035.66
982.283
928.665
884.242
838.593
808.649
785.885
20902.8
9835.44
6980.01
4924.72
4116.83
3079.98
2252.55
1774.2
1493.03
1347.91
1248.88
1195.14
1151.85
1113.25
1082.05
1044.45
1013.77
973.49
946.305
902.49
16159
9727.35
7679.56
5186.9
4130.57
3004.6
2256.26
1778.97
1509.33
1338.91
1233.39
1164.4
1117.83
1082.06
1056.95
1025.38
999.902
966.412
943.962
900.891
12164.1
8105.63
7181.21
4992.12
3959.2
2900.84
2223.95
1799.67
1557.13
1379.63
1258.72
1173.71
1118.12
1075.68
1045.58
1010.64
985.074
951.885
928.948
886.429
15744.8
7498.35
6328.56
4732.75
3856.83
2927.89
2307.29
1889.77
1610.6
1403.43
1255.53
1152.12
1081.45
1030.61
991.954
955.762
928.958
898.143
877.546
841.169
19707.2
7538.38
5679.65
4021.41
3457.51
2633.81
2136.33
1741.18
1475.14
1271.06
1119.38
1017.54
946.564
900.023
865.759
839.59
821.537
801.405
787.125
760.542
10052.8
6966.47
5537.5
4129.46
3385.32
2686.52
2291.92
1809.11
1446.22
1173.24
988.733
842.718
757.152
699.596
677.905
669.558
667.016
661.691
655.884
643.022
6807
5891.79
5816.25
4395.52
3163.12
2692.03
2295.49
1815.76
1400.95
1135.83
921.864
741.976
616.172
550.126
505.163
499.591
503.619
513.108
519.418
528.205
36727.3
19593.6
7541.33
4444.85
3025.38
2329.31
2066.13
1722.77
1411.69
1134.63
893.644
661.19
504.519
423.348
382.248
398.373
403.825
420.081
433.79
465.151
14688
13942.5
9481.95
6055.75
3703.8
2474.09
1842.55
1602.41
1346.05
1113.37
786.654
452.279
323.936
338.276
373.341
393.297
389.624
401.334
418.066
455.589
11772.2
11045.7
9993.58
6791.69
4109.13
2606.94
1857.65
1495.01
1242.47
1071.52
936.204
760.322
594.986
639.557
663.535
497.541
438.737
429.076
431.128
447.023
9216.21
7947.64
8669.45
6922.37
4894.55
3061.19
2139.87
1414.49
1135.67
993.147
939.878
924.169
911.505
899.136
749.159
571.059
489.908
458.377
446.354
443.267
10752.9
9615.93
8469.37
6210
4546.33
2882.97
1939.22
1445.2
1124.82
897.273
794.544
724.546
695.905
648.215
593.294
541.616
514.016
494.417
484.337
468.421
12631.4
9782.2
7975.37
5958.03
4513.13
3035.65
2117.39
1611.55
1261.34
1046.02
891.283
780.547
722.935
680.903
660.861
639.394
629.926
609.885
596.978
562.631
16760.9
10157.2
7733.87
5444.1
4155.63
2868.42
2069.61
1564.92
1261.28
1079.12
959.75
881.079
833.073
803.227
788.145
774.179
761.571
731.61
711.208
662.668
31526.2
9312.14
7738.91
5248.2
4004.83
2683.89
1961.52
1498.99
1224.63
1075.91
977.053
917.787
876.931
850.273
832.17
810.742
793.354
759.845
737.745
688.339
11091.9
7930.76
7331.47
5852.66
4310.8
2840.29
2026.79
1557.96
1272.9
1109.78
988.787
908.865
850.008
812.957
786.243
764.092
746.391
719.003
702.415
668.425
16676
9545.55
6086.21
4082.65
2898.54
2071.3
1565.47
1355.72
1177.06
1080.41
961.788
872.137
792.915
744.486
706.409
682.613
665.128
648.227
639.666
622.845
1206.85
2558.55
2096.74
1862.61
1522.23
1183.87
898.533
694.277
565.079
472.075
398.141
334.471
283.833
243.72
213.837
191.449
175.001
160.911
152.423
151.183
1200.76
2435.09
2446.63
1957.68
1475.47
1008.91
681.336
514.803
436.309
394.929
361.82
324.811
285.893
247.902
218.837
197.672
184.53
175.514
169.46
170.699
7794.78
7683.3
7166.64
4008.12
3802.05
2113.36
2061.38
1638.44
1651.79
1509.13
1525.85
1462.34
1444.61
1353.77
1306.28
1237.54
1200.97
1155.93
1134.04
1101.5
36753.5
10667.5
8826.41
5184.75
5014.31
3014.6
2636.09
1921.68
1852.47
1615.16
1606.52
1524.66
1520.01
1461.48
1438.78
1381.54
1350.55
1301.13
1271.66
1223.08
14454.7
10629.5
9214.74
5550.14
4986.07
3057.92
2665.76
1953.51
1849.96
1592.06
1566.86
1475.06
1469.06
1420.24
1403.68
1356.95
1330.92
1290.16
1262.72
1216.65
11751.4
10435.6
9222.17
5550.22
4783.36
3013.8
2647.72
2011.34
1900.46
1628.6
1580.64
1466.51
1451.98
1396.75
1377.64
1330.89
1306.88
1267.45
1238.42
1196.18
16273.1
9212.8
7159.03
5184.61
4406.56
3038.06
2656.19
2073.75
1905.33
1636.72
1550.75
1437.46
1399.14
1342.61
1310.94
1268.06
1239.53
1207.91
1180.64
1148.95
23527.9
9331.02
6468.73
4966.12
4148.49
2914.67
2476.15
1967.82
1755.02
1504.99
1406.71
1292.87
1256.55
1203.74
1172.38
1142.66
1127.28
1107.22
1086.56
1065.45
14670.7
8521.57
6380.52
5085.92
3910.72
3113.66
2533.89
2023.75
1709.46
1432.56
1283
1150.25
1097.31
1047.3
1000.57
978.807
966.768
963.348
949.221
942.568
11799.6
6555.53
6928.12
5270.21
3728.58
3012.15
2616.92
2050.03
1680.99
1410.91
1193.93
1049.86
982.432
945.793
908.312
812.045
804.648
809.03
814.409
829.604
13858.4
9148.69
8057.78
5319.15
3599.49
2765.12
2438.88
2111.56
1774.46
1385.01
1046.01
831.018
842.637
858.456
825.549
723.756
711.793
722.221
737.526
777.994
9682.59
11352
11305.3
6469.48
4344.44
2846.45
2319.08
2077.62
1775.48
1375.67
1001.39
672.031
703.937
813.273
809.104
717.023
703.084
714.167
731.998
775.802
16817.8
12883.6
12257.3
7115.96
4582.63
2934.17
2344.53
1956.19
1680.8
1450.96
1242.55
1070.86
1097.06
1117.96
987.907
786.008
740.326
734.36
737.321
757.609
10805.6
10163.8
10601.7
7469.04
5532.95
3258.71
2440.13
1699.29
1494.16
1332.81
1314.27
1319.93
1311.35
1234.83
935.91
821.803
781.728
762.399
746.826
743.161
14729.8
11543.2
10394.3
6657.2
5234.56
2906.44
2236.72
1703.77
1423.2
1176.43
1099.8
995.686
972.05
911.735
883.688
834.164
816.935
791.977
771.084
749.171
12012.1
10406.8
9022.86
6133.46
4974.43
2969.26
2441.36
1836.98
1615.06
1346.94
1224.96
1095.2
1053.8
1006.51
994.174
969.065
952.813
917.497
887.997
831.971
34707.2
10898.6
8512.87
5640.77
4772.36
2922.14
2489.82
1817.68
1688.45
1427.64
1365.96
1247.05
1223.81
1177.91
1172.97
1143.34
1114.67
1059.26
1021.04
945.737
23596.8
11723.8
8746.7
6049.66
4767.15
2815.05
2443.55
1766.86
1686.68
1454.54
1417.49
1314.95
1294.73
1246.66
1231.02
1190.74
1159.77
1102.01
1063.56
992.695
19203
11009.5
10012.2
6444.11
5250.11
2949.15
2546.13
1867.6
1782.12
1516.44
1454.47
1313.1
1280.71
1215.85
1199.23
1158.03
1132.87
1086.28
1056.69
1010.35
18280
11805.5
8501.68
4636.89
3822.46
2226.62
2134.26
1711.92
1700.24
1485.89
1406.48
1229.28
1172.3
1096.85
1073.74
1038.79
1022.82
997.602
983.621
966.414
1553.12
3839.24
2608.99
1958.76
1455.9
1057.27
785.919
601.202
483.329
386.452
314.633
255.956
218.423
190.543
174.014
161.83
153.34
147.908
147.72
150.33
836.702
921.966
664.674
1087.19
927.601
1057.56
763.456
680.112
602.874
501.407
872.769
706.462
676.948
498.975
657.933
857.698
794.335
1056.57
775.225
1018.56
916.925
475.978
772.406
680.943
690.27
475.673
879.349
735.242
187.5
245.377
154.938
1141.51
1063.41
918.336
875.26
186.864
152.777
156.553
1017.61
856.885
852.992
788.149
142.073
153.945
136.601
800.229
646.208
759.965
646.467
98.0361
124.471
97.565
599.348
500.472
601.996
518.113
85.9739
97.521
105.951
483.901
442.687
511.197
484.138
72.6504
105.806
95.4002
420.105
338.316
466.162
396.139
52.0237
91.613
74.0563
311.749
259.537
371.702
283.386
41.5238
63.2516
41.1531
251.03
241.451
257.473
213.885
148.594
173.352
143.663
914.983
851.201
800.873
780.719
149.236
146.975
148.356
829.738
764.227
774.682
714.899
131.897
144.388
122.161
737.684
629.637
681.543
581.743
98.467
117.262
117.312
587.947
521.75
559.518
527.58
113.2
120.057
121.126
517.157
492.93
517.682
472.562
101.522
118.423
103.177
475.766
407.209
453.728
377.624
74.0581
91.3943
57.4089
380.612
280.614
335.871
230.312
41.71
51.4865
32.0398
252.522
208.116
209.769
160.524
138.212
163.325
110.595
766.129
737.902
714.027
659.159
142.642
108.11
103.153
736.615
690.521
640.694
589.474
121.978
103.871
109.123
659.082
571.952
571.288
529.026
119.623
110.974
119.466
555.234
524.469
522.453
517.69
120.483
122.467
124.531
513.83
465.117
517.013
495.687
98.6532
122.448
110.886
444.733
358.204
478.878
393.424
51.6249
96.6986
45.626
311.769
209.749
340.422
197.836
30.0865
40.7887
43.4865
192.289
153.037
183.49
208.062
106.615
233.694
142.284
710.326
654.23
811.335
711.045
93.6065
139.091
105.64
633.352
560.598
658.91
540.286
98.5118
102.659
88.1412
541.048
508.838
513.423
473.137
114.534
88.3097
90.4061
505.388
507.123
469.314
464.345
123.712
92.1438
106.546
509.537
501.758
468.949
484.259
117.381
110.532
120.567
491.222
429.947
488.513
485.774
53.569
121.128
117.06
393.752
217.422
478.088
414.351
40.7273
106.029
45.2599
196.718
225.785
368.562
301.197
1258.51
1210.2
1046.27
1861.4
1608.13
1620.16
1409.69
988.435
1011.52
913.667
1509.5
1232.18
1352.03
1180.08
741.444
876.498
742.107
1145.97
939.805
1121.02
947.157
590.499
695.97
608.702
892.148
774.464
899.475
794.139
512.039
596.572
548.208
741.979
638.098
764.989
661.512
389.544
523.889
438.596
599.834
490.341
622.077
502.216
303.949
408.581
313.737
462.202
401.925
464.294
373.936
273.728
289.875
238.178
390.725
359.957
352.253
297.983
1013.25
994.565
923.015
1555.89
1371.54
1382.44
1251.72
888.128
909.238
825.712
1317.04
1156.66
1218.16
1079.15
727.086
786.195
674.08
1101.17
938.943
1026.12
886.556
612.014
650.274
599.01
894.413
796.065
861.589
696.326
554.733
580.908
516.65
766.566
662.517
649.264
539.79
447.489
493.776
404.759
623.47
501.946
512.097
408.374
309.975
361.106
257.521
461.923
363.922
372.255
297.474
231.258
236.195
178.032
339.624
284.747
277.503
220.438
874.431
904.335
794.266
1327.72
1196.8
1283.2
1115.4
799.265
770.037
702.587
1173.79
1052.01
1076.56
963.514
661.695
677.624
617.135
1001.54
870.802
923.894
824.812
592.337
606.09
590.386
848.163
684.315
803.076
751.713
506.922
585.975
551.61
637.002
518.91
734.412
658.213
382.618
529.863
423.36
483.345
368.441
618.9
451.948
235.589
367.364
229.23
332.582
269.018
391.434
294.528
171.726
215.107
242.525
254.633
216.999
296.993
363.4
792.863
1090.38
888.972
1315.65
1117.95
1545.35
1228.23
673.983
809.375
647.068
1068.95
934.753
1105.17
883.449
599.02
615.182
563.733
898.306
809.9
844.258
768.637
581.4
557.467
544.191
790.716
748.634
755.273
719.25
561.038
546.025
551.479
736.009
680.103
715.014
695.849
466.719
552.627
539.216
651.135
520.157
689.908
650.072
253.461
527.974
452.284
465.652
348.781
632.905
565.788
264.548
411.991
362.582
350.03
410.444
551.737
567.234
1688.02
1731.25
1502.18
2216.24
1883.68
2021.27
1749.65
1289.62
1438.56
1246.87
1760.01
1441.38
1669.84
1429.49
991.744
1182.13
999.586
1348.12
1137.13
1352.08
1144.62
818.304
950.734
835.222
1084.92
930.047
1086.99
928.325
666.505
800.226
681
882.818
746.047
875.895
717.191
516.264
637.814
511.967
705.081
598.137
667.116
540.47
428.621
474.414
387.994
574.042
516.741
508.318
436.894
382.855
366.895
312.272
505.582
467.765
419.237
371.93
1464.96
1493.25
1342.61
1971.55
1717.07
1792.5
1601.66
1225.51
1303.04
1148.89
1641.88
1418.09
1546.59
1355.51
993.571
1092.23
944.636
1344.64
1144.06
1288.71
1114.23
947.045
907.327
938.078
995.823
901.049
952.214
988.507
769.505
762.517
789.417
828.806
749.43
784.326
816.086
508.075
480.867
389.513
653.991
521.585
445.609
357.715
375.087
361.126
302.057
487.849
412.527
346.798
321.67
296.915
283.802
230.709
393.395
350.124
311.514
281.902
1288.21
1395.32
1206.97
1736.1
1555.2
1704.78
1479.25
1122.39
1163.49
1035.56
1510.15
1332.78
1422.35
1249.57
928.584
991.896
882.609
1268.19
1100.21
1194.4
1054.09
883.612
831.955
887.021
949.896
841.562
781.7
939.944
641.113
552.094
689.35
456.408
644.945
419.816
694.497
336.479
635.128
450.113
397.058
297.44
671.154
472.589
271.752
390.702
321.233
295.458
302.732
438.95
450.524
229.161
329.723
395.779
303.33
291.718
475.175
505.365
1209.01
1674.09
1313.61
1748.44
1475.26
1992.16
1536.89
1006.1
1181.21
949.615
1403.03
1215.27
1385.41
1137.03
867.953
907.838
824.793
1165.12
1039.83
1090.28
990.293
793.072
808.97
765.867
1007.85
921.174
967.455
906.049
707.562
759.386
732.971
891.476
779.97
894.012
851.463
528.894
725.053
678.948
732.391
576.084
840.238
788.297
386.977
661.804
606.729
542.569
540.205
778.466
763.361
451.367
600.641
621.447
564.096
581.754
767.95
774.287
1945.02
2116.99
1831.57
2532.8
2124.8
2398.33
2102.85
1493.95
1747.33
1495.16
1985.71
1681.03
2010.73
1743.05
1190.6
1414.73
1197.06
1599.12
1395.16
1657.76
1401.45
971.292
1134.33
957.594
1329.9
1153.14
1317.7
1086.13
782.21
899.691
731.213
1104.74
978.507
1017.34
846.15
638.71
680.696
560.367
942.78
869.061
805.974
749.209
561.046
531.859
468.635
853.498
819.266
744.762
729.606
509.296
453.046
406.942
807.49
769.465
722.531
690.488
1801.34
1894.91
1693.31
2343.88
2085.62
2213.73
2019.84
1488.7
1634.8
1435.21
2005.23
1758.68
1959.81
1749.54
1197.55
1364.6
1172.45
1672.79
1400.81
1664.25
1387.72
954.591
1116.38
868.164
1312.45
1065.96
1295.68
1030.02
714.94
780.042
550.554
990.545
798.18
936.576
673.544
534.162
484.157
374.751
753.461
694.077
605.35
533.313
439.58
363.294
344.85
695.794
695.848
547.526
612.628
383.065
338.95
315.504
691.988
668.457
622.865
615.622
1651.97
1815.01
1580.62
2190.01
2002.02
2180.51
1951.02
1414.7
1519.32
1332.8
1946
1738.92
1877.11
1661.48
1160.14
1274.12
1120.57
1655.17
1386.09
1594.58
1393.44
873.801
1079.75
961.519
1300.04
1040.6
1329.03
1146.53
532.54
918.024
756.187
947.301
672.581
1086.23
892.586
328.921
688.523
506.406
597.976
520.801
834.065
770.127
334.242
485.858
518.874
538.953
622.551
792.689
864.44
328.217
541.968
550.169
635.999
627.575
869.504
806.67
1572.27
2095.04
1609.78
2212.56
1920.15
2392.95
1833.7
1295.38
1454.63
1205.85
1830.31
1610.44
1681.56
1460.41
1107.91
1158.15
1056.4
1554.68
1392.63
1422.21
1330.39
970.733
1031.45
965.423
1339.88
1190.79
1299.45
1233.3
810.62
952.261
908.236
1144.27
997.313
1223.21
1197.13
616.244
897.342
848.37
954.579
909.199
1190.05
1166.76
616.43
842.072
835.182
924.494
973.454
1166.61
1159.09
632.534
840.787
821.718
975.079
888.18
1148.21
1044.94
2192.16
2496.18
2203.58
2949.25
2489.04
2866.49
2586.23
1757.45
2109.36
1840.61
2335.65
2078.73
2477.89
2205.19
1479.89
1754.4
1484.38
2005.72
1805.7
2113.61
1803.83
1238.87
1394.05
1151.87
1728.47
1588.33
1699.77
1451.5
1081.61
1083.89
926.341
1550.79
1474.99
1394.03
1297.3
994.364
896.415
883.554
1452.03
1435.9
1299.13
1383.47
957.88
890.225
889.132
1429.55
1417.32
1399.99
1402.13
904.883
883.621
847.072
1406.18
1342.49
1399.2
1338.23
2192.62
2330.96
2145.6
2790.75
2589.83
2728.53
2584
1863.98
2085.64
1871.89
2499.56
2244.23
2517.22
2289.64
1482.34
1780.81
1472.09
2142.55
1794.68
2177.39
1788.51
1122.05
1367.86
1082.82
1678.61
1394.18
1653.43
1319.11
866.023
988.102
731.265
1326.2
1209.75
1227.6
1037.34
823.433
674.327
660.953
1212.37
1332.79
1033.9
1201.8
860.46
704.583
793.396
1369.63
1385.63
1279.34
1346.98
827.493
802.011
781.366
1383.67
1320.22
1347.26
1279.44
2136.17
2318.06
2090.57
2742.93
2592.88
2771.92
2556.47
1865.16
2011.95
1790.99
2523.36
2292.19
2461.55
2228.39
1475.05
1722.12
1504.9
2181.69
1801.29
2151.16
1878.05
1096.28
1432.18
1231.21
1669.53
1339.23
1785.99
1555.84
734.16
1168.49
980.63
1245.98
1044.2
1494.44
1357.58
656.143
933.821
930.788
1038
1205.29
1352.4
1467.3
803.602
968.498
1022.83
1283.96
1352.05
1505.04
1494.17
789.81
1018.89
931.338
1351.43
1282.69
1473.66
1351.85
2050.48
2492.97
1915.5
2786.85
2495.5
2872.32
2248.51
1735.98
1768.63
1564.43
2388.12
2166.13
2108.19
1940.51
1509.54
1531.22
1444.27
2111.81
1899.97
1920.86
1835.5
1290.23
1411.75
1351.66
1826.31
1649.99
1797.34
1761.33
1103.02
1345.3
1330.45
1606.79
1510.99
1764.44
1765.39
1073.5
1324.42
1311.66
1509.72
1597.11
1760.4
1765.45
1126.41
1311.23
1293
1614.37
1576.82
1762.33
1701.43
1006.2
1271.55
1136.77
1549.48
1409.67
1655.95
1470.11
904.533
871.247
827.402
870.882
864.155
911.345
861.007
931.645
925.769
851.966
962.595
886.261
977.585
827.797
870.986
789.801
748.579
543.801
836.369
813.933
646.206
989.747
1041.69
1033.36
1083.2
993.563
1036.19
1030.39
941.693
900.524
980.884
918.737
947.284
891.064
976.166
976.94
1002.16
1076.18
978.34
1026.77
858.897
1021.87
912.356
569.424
884.761
871.785
845.944
677.529
955.954
722.165
721.937
666.941
691.822
708.297
738.258
675.354
713.617
745.397
549.06
484.286
703.312
761.688
438.443
662.473
621.947
511.986
434.878
660.813
619.795
422.491
785.689
852.058
816.687
859.793
801.636
839.015
799.915
732.213
699.721
760.806
683.908
750.413
680.006
741.024
727.924
503.147
816.145
604.421
785.066
450.025
749.557
668.94
424.051
628.827
550.443
620.043
422.783
686.436
815.602
733.442
736.547
522.924
787.139
617.26
752.299
892.501
871.33
836.006
910.277
843.724
924.076
885.236
857.58
783.225
815.319
835.023
813.955
821.207
860.51
940.516
996.131
982.856
1047.34
834.96
993.766
999.122
868.715
562.533
873.105
862.212
663.898
798.339
932.548
942.819
963.101
1031.87
985.772
977.282
934.563
993.824
903.678
875.451
904.265
952.352
862.101
905.696
950.745
581.967
498.603
539.052
382.92
593.902
372.137
513.561
744.156
752.115
747.25
808.204
718.43
784.132
777.947
699.058
632.469
717.752
700.19
679.864
643.234
743.056
668.737
491.433
614.376
792.937
442.229
732.995
720.47
597.996
379.488
536.374
554.293
383.85
517.568
640.346
772.024
843.434
855.165
837.653
818.989
807.624
801.165
719.296
717.608
669.398
790.706
655.166
766.835
740.712
406.031
518.707
426.717
923.909
937.988
966.542
989.621
321.116
374.958
322.677
888.938
783.159
948.471
841.992
229.658
278.818
233.678
681.368
600.539
735.28
629.069
169.011
195.755
169.523
498.901
424.239
532.754
467.879
129.211
153.394
141.352
371.609
333.115
425.992
389.528
98.8019
125.224
106.602
285.338
251.62
339.119
283.572
85.5285
91.9327
85.6631
237.47
234.813
245.426
230.522
75.2725
84.1044
71.1344
233.574
255.181
223.902
236.416
520.93
553.975
411.793
1090.99
1004.73
950.612
825.092
455.322
239.835
305.149
498.167
495.894
468.387
231.109
478.627
193.194
169.884
524.233
512.627
477.53
167.363
409.454
166.641
152.603
411.801
383.412
431.486
145.528
306.735
120.346
123.778
313.686
284.573
338.726
111.868
249.799
90.0217
89.6807
235.262
227.323
251.437
89.0301
239.375
83.0049
89.2918
216.467
201.965
248.302
87.7338
184.319
62.3314
73.0161
158.744
145.391
195.81
69.2622
133.516
50.6371
54.1705
130.623
128.887
140.589
51.6855
77.8497
84.6996
66.2073
199.615
211.277
184.097
184.745
313.793
335.697
294.237
775.609
801.098
746.266
730.947
387.984
166.125
185.503
377.452
397.977
353.265
159.036
421.453
149.99
148.778
425.326
428.686
421.628
148.162
383.717
144.74
141.277
415.51
403.169
399.311
137.806
284.877
106.164
109.413
318.882
290.684
302.386
102.398
301.7
103.566
103.157
279.322
291.205
289.433
110.278
295.001
111.496
117.242
297.6
289.318
303.735
115.565
231.08
92.0449
99.19
245.817
231.249
248.652
92.7829
130.819
54.8107
60.4765
150.986
134.344
144.11
53.6209
60.4104
64.4193
45.7164
159.465
163.162
133.607
131.046
300.767
399.814
284.424
767.588
687.373
763.364
670.837
325.489
147.696
174.674
317.672
338.658
309.501
142.885
375.288
142.599
129.449
392.941
400.552
366.97
131.901
347.617
133.671
131.482
381.76
363.405
363.072
127.012
316.685
119.162
118.8
322.349
318.561
318.694
118.777
318.203
122.152
123.257
316.293
315.36
318.89
123.799
284.537
112.848
118.249
292.708
281.793
295.695
114.509
153.681
69.6293
82.9424
202.842
166.13
196.736
66.4482
95.8922
42.0454
42.6512
107.655
99.4263
98.6814
40.151
48.5365
85.0333
88.9864
135.227
135.58
183.851
218.635
256.663
406.666
324.689
785.165
677.147
849.003
750.585
281.106
117.28
149.893
266.986
285.065
268.959
122.135
286.555
103.369
103.893
300.474
293.512
288.355
102.499
249.579
91.9301
87.998
257.94
258.835
254.545
86.1529
264.823
106.493
91.3449
279.736
286.241
258.254
95.8717
298.864
121.274
109.062
308.3
313.265
290.588
113.204
310.706
122.171
121.918
313.771
308.049
311.602
121.953
275.06
98.4007
118.62
270.846
225.533
292.697
113.874
101.58
41.9493
53.9886
95.8194
97.5899
109.309
45.6402
124.981
105.299
125.601
265.59
294.498
268.527
348.247
286.548
407.341
283.182
720.9
667.182
744.314
689.133
180.638
225.064
193.727
556
487.766
561.872
489.39
143.84
165.091
140.262
431.093
393.333
396.15
357.406
139.645
133.62
125.246
382.228
385.981
311.813
307.527
151.218
123.914
124.796
395.269
410.201
303.031
315.087
171.985
128.907
140.051
424.371
431.511
337.079