/*--------------------------------*- C++ -*----------------------------------*\
  =========                 |
  \\      /  F ield         | OpenFOAM: The Open Source CFD Toolbox
   \\    /   O peration     | Website:  https://openfoam.org
    \\  /    A nd           | Version:  10
     \\/     M anipulation  |
\*---------------------------------------------------------------------------*/
FoamFile
{
    format      ascii;
    class       volScalarField;
    location    "8.8";
    object      k_0;
}
// * * * * * * * * * * * * * * * * * * * * * * * * * * * * * * * * * * * * * //

dimensions      [0 2 -2 0 0 0 0];

internalField   nonuniform List<scalar> 
12920
(
5574.64
3682.39
1611.99
749.984
583.965
547.325
490.712
439.031
403.004
383.742
352.387
266.089
177.735
140.729
133.794
128.433
122.679
109.184
98.6035
76.0161
13199.4
6821.19
2323.03
1089.75
821.232
785.98
710.777
551.157
416.635
346.409
293.743
244.073
205.953
182.953
170.175
158.322
144.996
131.847
125.355
124.198
1031.19
1324.37
1062.32
923.079
858.202
880.411
814.491
595.44
382.616
285.926
235.059
206.1
183.943
168.471
158.974
153.273
151.133
151.18
152.344
151.995
2885.64
2287.24
1591.87
1165.17
966.203
862.185
619.759
440.597
324.154
269.525
231.474
205.444
185.107
172.52
164.761
160.661
159.273
158.004
157.214
154.238
109.628
853.538
1098.34
1018.22
829.448
744.241
574.762
436.116
336.406
286.021
244.318
214.581
193.886
183.497
177.599
173.065
170.642
166.567
164.325
158.202
943.555
1051.9
1305.05
1265.25
959.185
792.623
653.905
534.442
409.842
323.844
256.799
212.24
186.811
176.253
171.792
168.081
165.9
161.342
158.696
151.947
3672.35
1944.16
1502.3
1257.3
930.922
761.104
601.337
485.422
372.181
288.513
227.172
190.671
171.73
163.898
157.981
152.895
150.467
145.991
143.758
137.938
802.129
1637.83
1615.69
1435.28
1063.98
904.824
518.248
350.33
274.813
196.03
148.434
114.032
90.14
86.3497
148.49
137.028
129.612
123.353
121.196
116.165
2847.35
826.993
1271.31
1309.04
1062.47
638.839
345.081
188.334
175.873
130.179
91.3062
84.0703
66.4011
50.4906
89.8184
118.481
106.583
98.4725
95.9387
90.6855
1553.07
1640.94
1676.9
1054.75
734.897
352.859
204.098
149.216
147.683
117.688
99.4757
113.215
96.4889
62.2478
76.7515
89.3011
81.1997
76.1051
72.4363
70.5729
997.65
1682.38
1491.78
1251.13
925.657
405.004
177.959
140.412
139.625
119.861
121.702
116.739
83.2409
46.3038
63.1938
100.62
76.0785
66.3368
64.1414
65.2321
548.34
2276.36
2438.8
1913.38
957.426
345.07
143.6
105.31
91.6256
103.331
118.833
123.736
111.531
43.4628
124.387
197.352
119.327
83.3761
71.8334
68.1098
1591.36
2367.75
2415.54
1840.43
1195.41
820.14
402.372
216.271
159.249
139.705
142.993
162.23
176.583
167.174
233.252
185.116
121.368
86.6899
74.2603
69.972
3292.03
3111.65
2494.64
1729.27
1270.95
935.26
603.748
407.89
282.806
201.475
160.539
151.652
155.576
155.854
145.507
114.692
94.7035
84.6552
82.4043
82.2283
1877.72
4643.51
3616.88
2351.37
1647.38
1334.04
929.459
636.999
413.47
268.58
187.388
146.128
130.087
122.603
117.435
112.638
110.769
112.061
116.219
116.801
680.131
3737.11
3324.81
2415.81
1548.01
1106.16
779.3
530.976
350.952
236.935
177.309
149.348
136.903
131.858
130.64
132.276
138.809
142.173
143.063
141.453
840.054
2980
2674.86
1701.75
1066
734.539
515.765
364.278
257.465
192.977
157.495
142.345
134.56
131.558
131.001
131.43
133.611
134.701
134.47
130.287
548.502
1786.44
1846.88
1523.32
1057.73
746.537
501.815
339.128
235.876
184.99
156.66
142.37
131.347
124.248
119.574
115.886
114.145
110.295
107.745
101.204
1205.06
2238.76
1360.95
933.562
636.868
484.414
360.318
276.338
221.502
197.899
183.825
174.987
161.56
149.722
138.067
130.113
124.072
119.623
117.523
107.963
416.675
831.631
631.754
490.157
399.682
373.88
343.134
280.106
220.307
180.026
151.938
131.908
115.749
102.629
92.1652
82.3566
77.0904
69.4463
65.0547
55.6884
2988.12
3082.2
2274.59
1556.03
1224.19
1087.17
911.205
803.623
677.921
533.587
398.189
308.016
280.188
275.59
265.161
239.477
215.226
187.795
171.424
146.026
11694.3
5120.92
2609.38
2193.49
1888.88
1876.27
1504.21
1225.64
983.67
856.243
703.82
625.735
574.788
545.408
523.159
496.363
463.55
427.962
411.019
406.985
2846.43
5768.7
3462.61
2788.54
2358.84
2338.53
1876.92
1316.19
906.972
737.812
631.468
580.229
536.161
510.175
495.085
485.712
483.578
482.037
479.496
468.588
4791.4
6212.92
4111.45
2975.85
2355.01
2077.51
1460.37
1105.59
831.226
723.755
631.575
577.31
530.141
505.352
490.117
483.28
480.817
475.768
472.208
460.658
5161.15
3806.82
3715.27
3058.43
2225.79
1964.33
1392.52
1099.86
857.015
774.796
673.831
610.124
557.381
535.286
517.881
506.18
498.794
487.736
481.018
462.957
3487.49
3577.25
3770.16
3540.37
2546.09
2265.14
1654.28
1338.12
1016.21
847.52
696.232
598.53
536.87
513.062
499.936
486.614
477.433
464.363
457.188
438.585
11281.9
4066.95
3840.45
2931.53
2147.71
1914.11
1465.58
1211.09
936.147
751.968
606.585
521.027
476.708
457.367
443.445
430.545
422.887
413.352
408.435
394.215
5571.47
4833.98
3767.51
3154.23
2295.78
2061.06
1597.65
1297.05
962.44
718.842
564.765
446.231
374.733
349.015
352.823
342.308
337.008
332.756
331.219
324.577
9286.51
4863.5
4312.42
3317.73
2148.06
1866.45
1455.78
1192.04
919.468
692.541
571.083
482.953
360.701
294.681
270.92
256.423
250.83
249.845
250.457
249.33
3217.66
5820.73
4252.36
2511.21
1770.23
1303.58
1133.82
981.754
853.193
683.733
602.036
531.279
414.39
282.864
208.484
185.492
185.624
188.44
191.437
198.779
507.141
4126.09
4232.72
3605.68
2208.53
1417.9
958.516
869.508
761.951
642.946
575.015
482.308
333.875
216.762
181.818
196.98
171.728
170.352
173.509
188.094
4550.47
5455.36
5381.75
4476.41
2551.8
1399.84
910.043
764.903
650.157
591.901
581.364
546.787
422.424
236.563
363.593
363.576
243.367
201.03
192.409
193.274
1671.31
4729.42
5136.49
4415.25
3061.62
2037.81
1279.13
846.947
630.313
549.9
549.538
562.833
555.607
501.422
532.667
420.304
274.218
218.354
203.872
200.277
3774.83
5653.32
5310.07
4127.68
3003.66
2153.05
1378.12
961.25
682.831
506.509
425.8
404.163
406.78
398.057
351.017
286.614
250.752
236.211
234.162
232.691
2619.28
9556.17
6660.72
4913.41
3482.75
2705.88
1780.28
1260.67
832.92
596.553
470.056
391.351
355.985
334.122
320.513
309.328
308.211
311.017
316.879
316.598
7712.32
10497
7559.15
5249.62
3276.69
2327.14
1484.61
1034.98
706.858
545.243
454.847
406.927
382.275
371.241
369.118
372.361
381.807
386.472
389.289
386.918
3706.91
8562.9
5302.17
3817.52
2317.99
1664.7
1090.13
798.968
578.712
486.011
422.646
400.144
381.212
374.722
372.97
374.747
382.501
386.228
386.347
377.831
1760.9
3617.13
4251.59
3738.03
2502.76
1743.05
1109.59
767.777
546.874
469.738
416.905
394.543
367.681
353.178
339.412
332.95
330.745
324.242
319.786
308.385
3862.51
4627.65
3528.89
2332.68
1512.47
1133.03
786.099
616.164
507.634
485.953
466.325
452.684
418.618
391.448
365.555
349.838
337.415
326.365
320.393
306.51
101.768
680.278
1110.1
1158.49
1046.77
909.243
737.845
596.748
488.404
417.306
361.489
316.147
275.296
242.308
216.428
193.42
178.046
158.254
148.234
128.729
3751.55
2991.74
2659.77
1901.04
1472.52
1181.32
924.415
726.343
566.373
451.489
380.407
345.477
326.574
305.156
277.227
246.643
219.341
194.355
176.414
158.161
9385.06
7098.63
4144.29
3287.41
2606.94
2205.93
1567.58
1355.47
1123.52
1027.31
908.994
860.323
810.554
771.997
731.839
692.317
655.255
615.708
587.012
568.838
17338.7
12442.5
5213.37
4114.22
3361.64
2926.6
2036.15
1546.18
1184.28
1037.68
919.237
864.989
816.851
786.324
762.96
742.175
726.399
702.951
687.086
655.61
7810.7
8554.27
6362.95
4366.29
3340.53
2715.91
1904.1
1491.92
1180.13
1036.58
918.457
852.114
799.337
768.958
748.172
730.396
715.832
695.79
682.831
653.719
10072.5
6535.88
5577.59
4238.69
3233.73
2639.92
1861.72
1502.47
1222.22
1086.98
955.397
877.081
816.603
782.403
755.857
732.695
715.287
692.945
678.773
647.152
19476.5
7329.74
5295.7
4454.76
3379.86
2846.91
2043.49
1653.26
1316.9
1128.47
967.635
865.421
794.835
753.721
722.437
696.683
678.064
655.563
642.259
612.99
14471.8
6585.65
4957.93
3588.34
2876.9
2400.19
1843.66
1506.51
1209.55
1016.78
859.082
762.497
696.398
658.594
630.983
610.741
597.122
581.616
572.551
550.943
12818.3
5913.38
4642.57
3631.79
2864.7
2448.38
2036.72
1608.11
1226.81
961.897
784.942
645.831
561.464
513.225
488.106
479.903
476.668
472.167
469.095
458.423
8440.41
5597.41
4978.91
3716.62
2625.94
2308.83
1958.82
1581.62
1199.22
943.85
781.368
626.107
488.504
417.268
368.066
347.793
350.115
355.72
360.13
362.277
4267.99
9061.24
5549.39
3570.73
2450.88
1876.82
1672.06
1404.88
1164.39
947.231
800.91
635.965
467.392
350.987
270.251
256.314
263.723
276.776
284.996
303.368
15013.5
11173.5
6893.7
5033.44
3047
2007.2
1435.08
1261.21
1068.19
908.433
597.022
437.039
310.273
260.93
252.359
259.413
249.073
254.852
266.08
292.6
17449.1
9290.09
7244.04
5787.09
3489.5
2106.59
1431.13
1154.27
966.547
846.35
777.18
673.418
473.524
394.57
518.501
405.545
310.028
286.361
284.675
292.119
6791.69
5583.67
6558.4
5797.09
4133.76
2670.57
1776.83
1165.67
891.719
776.678
746.19
732.775
713.142
697.042
677.594
487.342
360.593
314.815
301.672
297.513
4039.41
6477.22
6475.57
5416.7
3882.49
2644.67
1677.02
1196.99
882.886
684.312
588.562
547.594
535.775
509.689
450.233
392.8
360.141
343.137
337.978
328.71
25558.2
14966
7581.33
5774.98
4108.38
2986.06
1913.55
1385.68
998.735
791.992
652.773
561.818
513.138
481.06
462.456
446.649
442.431
436.257
433.069
417.989
24074.1
11203.2
7510.89
5532.96
3721.12
2651.66
1748.92
1271.82
941.246
781.463
673.093
613.709
574.783
554.165
544.468
540.423
538.747
529.922
522.156
498.545
41028.5
10600.5
6742.36
4713.65
3224.23
2288.75
1536.71
1146.18
871.033
750.491
664.818
625.724
594.082
578.688
568.286
560.193
555.684
542.835
532.808
505.712
3036.35
5558.89
5620.56
4928.08
3461.06
2397
1583.14
1160.14
881.396
762.598
669.638
619.944
574.209
549.305
528.445
516.125
506.745
490.984
482.415
462.562
3950.03
5320.46
4435.14
3300.5
2256.34
1672.98
1183.15
977.672
820.728
763.054
688.569
637.879
578.799
541.689
508.318
488.14
471.509
456.342
448.949
433.905
1621.76
1757.91
1728.33
1665.39
1430.57
1166.38
903.885
699.838
566.213
479.885
411.455
353.794
304.633
264.301
232.247
205.228
185.032
168.105
152.497
140.195
3926.9
2772.58
2431.55
1924.69
1530.33
1134.88
831.537
619.048
494.218
425.479
388.423
360.055
332.13
297.154
261.904
229.9
205.376
186.548
174.667
167.801
16901.9
6485.77
5695.2
3729.11
3049.82
2213.87
1678.26
1497.87
1313.77
1254.73
1175.4
1136.82
1090.04
1035.23
981.655
927.932
883.535
837.96
808.263
785.674
19957
9822.14
7000.66
4936.3
4122.51
3078.02
2248.62
1772.4
1492.6
1348.1
1249.34
1195.6
1152.12
1113.32
1081.99
1044.27
1013.51
973.155
946.043
902.273
15424.2
9718.12
7706.91
5199.43
4135.67
3004.84
2255.13
1778.77
1509.75
1339.49
1233.99
1164.95
1118.27
1082.41
1057.18
1025.48
999.919
966.343
943.908
900.816
11882.7
8068.34
7189.7
4996.92
3961.32
2900.35
2223.34
1799.91
1557.89
1380.27
1259.26
1174.24
1118.6
1076.09
1045.88
1010.83
985.196
951.907
928.97
886.433
16360.8
7458.19
6348.99
4745.55
3863.36
2931.15
2308.39
1890.69
1611.42
1403.98
1255.91
1152.5
1081.77
1030.87
992.146
955.891
929.053
898.168
877.592
841.223
18767.6
7584.16
5695.53
4026.62
3462.03
2634.4
2137.45
1741.58
1475.58
1271.29
1119.53
1017.67
946.692
900.14
865.901
839.71
821.621
801.437
787.173
760.591
10069.2
6997.51
5562.7
4137.32
3393.22
2691.88
2295.26
1809.74
1445.8
1172.98
988.2
842.233
756.797
699.237
677.909
669.65
667.073
661.701
655.898
643.035
6835.16
5906.13
5846.44
4407.72
3168.46
2693.67
2294.09
1816.11
1400.43
1135.66
921.059
740.922
615.416
549.585
504.629
499.473
503.588
513.067
519.393
528.207
36230.2
19147.8
7393.66
4440.43
3027.66
2332.03
2067.04
1723.72
1411.36
1134.03
892.461
659.672
503.361
422.341
381.499
398.159
403.716
420.013
433.763
465.21
15772.6
14081.1
9414.36
6046.95
3694.17
2470.92
1842.58
1604.02
1345.67
1112.89
786.038
450.24
323.587
337.705
372.42
392.802
389.366
401.241
418.061
455.679
11722.5
11081.8
10022.3
6788.12
4101.32
2600.32
1856.38
1495.66
1242.73
1071.64
935.951
759.136
594.76
640.205
661.524
496.025
438.134
428.793
430.965
447.043
9200.01
7913.52
8710.14
6961.93
4906.19
3062.34
2139.82
1414.06
1136.41
993.764
940.392
924.506
911.82
899.033
746.799
569.345
489.059
457.913
446.1
443.131
11099.3
9780.82
8513.41
6232.62
4548.26
2881.88
1938.06
1444.41
1124.35
896.6
794.239
724.244
695.451
647.543
592.515
541.053
513.638
494.116
484.097
468.226
13545.5
9682.39
7978.52
5971.6
4520.41
3037.11
2116.02
1610.66
1260.36
1045.19
890.612
780.11
722.714
680.767
660.788
639.359
629.862
609.692
596.732
562.303
16782.5
10101.2
7751.3
5454.77
4156.7
2867.77
2067.37
1563.29
1260.14
1078.3
959.337
880.848
833.037
803.312
788.25
774.183
761.437
731.278
710.852
662.211
30408.1
9218.25
7737.59
5265.6
4009.8
2685.86
1960.47
1498.05
1223.72
1075.27
976.676
917.509
876.776
850.168
832.036
810.509
792.998
759.365
737.245
687.776
11057.5
7934.14
7367.45
5871.82
4313.43
2839.97
2024.71
1556.51
1271.71
1108.76
987.985
908.18
849.46
812.518
785.83
763.663
745.904
718.468
701.89
667.927
16779.2
9703.22
6100.58
4094.47
2896.88
2072.19
1564.66
1355.51
1176.81
1079.77
961.003
871.255
792.141
743.835
705.863
682.155
664.716
647.847
639.324
622.516
1292.58
2546.38
2097.2
1868.06
1524.83
1184.15
897.859
693.749
564.883
471.915
397.9
334.174
283.547
243.479
213.654
191.321
174.902
160.845
152.44
151.278
1185.82
2445.64
2457.28
1962.58
1477.13
1007.57
679.965
514.314
436.47
395.213
362.014
324.8
285.741
247.722
218.685
197.57
184.471
175.484
169.468
170.745
8253.19
7733.01
7135.71
4013.99
3781.1
2104.36
2053.96
1634.98
1648.81
1507.69
1524.61
1461.27
1442.93
1351.66
1304.24
1235.6
1199.22
1154.37
1132.52
1099.11
35366.6
10621.6
8822.41
5209.23
5003.83
3008.07
2626.15
1919.33
1849.19
1614.16
1605.19
1523.91
1518.7
1460.04
1437.29
1379.97
1349.03
1299.67
1270.13
1220.6
14361.3
10585.8
9216.23
5574.04
4974.6
3058.85
2657.74
1953.43
1847.32
1591.97
1565.88
1474.91
1468.29
1419.51
1402.73
1355.87
1329.89
1289.1
1261.53
1214.5
12631.1
10472.5
9184.99
5560.23
4764.04
3015.64
2640.06
2011.42
1897.95
1628.38
1579.57
1466.42
1451.41
1396.27
1376.99
1330.12
1306.11
1266.64
1237.47
1194.32
17021.2
9216.51
7132.54
5214.28
4393.32
3047.09
2650.03
2074.85
1903.58
1636.82
1550.21
1437.49
1398.76
1342.26
1310.43
1267.47
1239.03
1207.33
1179.99
1147.38
23127.9
9410.97
6459.38
5000.56
4132.3
2922.77
2471.87
1968.87
1754.03
1505.41
1406.44
1293
1256.34
1203.53
1172.18
1142.33
1126.97
1106.84
1086.05
1064.07
13507.7
8562.7
6402.72
5120.77
3903.56
3121.36
2540.64
2027.6
1713.63
1435.96
1286.01
1152.92
1100
1049.8
1000.66
978.574
966.602
963.045
948.821
941.359
11033.7
6611.71
6943.97
5302.45
3725.16
3016.68
2621.14
2055.45
1685.31
1414.46
1196.34
1052.11
984.665
947.93
910.459
812.067
804.422
808.773
814.047
828.528
13399.5
9109.71
8033.52
5352.93
3593.64
2770.47
2446.46
2118.59
1779.33
1387.37
1046.53
831.238
843.959
860.018
827.287
723.774
711.61
721.965
737.255
777.077
9905.28
11322.5
11278.7
6463.64
4328.65
2849.75
2324.9
2084.36
1780.06
1377.96
1001.72
671.621
704.853
814.683
810.659
717.174
702.931
713.939
731.75
774.884
16906.4
12901.4
12230
7094.25
4561.1
2934.23
2349.48
1961.98
1685.89
1454.89
1245.27
1073.22
1100.98
1120.82
988.971
785.531
739.933
734.037
736.968
756.671
11222
10158.3
10618.4
7505.49
5530.59
3270.63
2446.33
1703.1
1498.77
1336.68
1318.36
1323.93
1314.62
1236.39
934.255
820.807
781.031
761.772
746.278
742.046
14971.5
11706.8
10428.6
6680.44
5225.14
2911.37
2234.01
1708.44
1424.28
1178.32
1100.42
996.142
971.999
911.582
883.446
833.761
816.54
791.512
770.541
748.023
11689.6
10389.5
8983.2
6156.69
4971.42
2979.49
2441.43
1842.66
1616.57
1348.86
1225.6
1095.85
1054.22
1006.94
994.488
969.147
952.666
917.067
887.337
830.515
33492.2
10871.7
8521.11
5662.61
4771.2
2930.89
2488.3
1821.3
1688.66
1429.11
1366.38
1247.79
1224.24
1178.39
1173.19
1143.18
1114.26
1058.62
1020.17
943.95
24332.4
11662.4
8747.57
6075.85
4767.97
2826.15
2443.21
1772.29
1687.35
1456.73
1417.98
1315.58
1294.91
1246.74
1230.84
1190.2
1159.04
1101.11
1062.49
990.704
19191.5
11044.5
10006.9
6470.06
5249.55
2955.92
2544.69
1871.36
1782.07
1517.16
1454.03
1312.89
1280.2
1215.41
1198.61
1157.19
1131.96
1085.32
1055.62
1008.36
18787
11778.6
8530.98
4650.98
3820.45
2236.13
2134.16
1717
1700.6
1486.19
1405.49
1228.29
1171.14
1095.86
1072.8
1037.82
1021.91
996.725
982.717
964.639
1685.17
3860.3
2610.94
1963.73
1457.42
1057.26
785.395
600.83
482.96
385.993
314.194
255.596
218.169
190.367
173.903
161.751
153.285
147.896
147.748
150.407
836.83
921.861
665.476
1086.68
926.899
1057.68
763.555
679.488
603.68
501.634
871.857
705.15
676.902
497.673
658.84
858.291
795.054
1056.55
775.012
1018.57
916.861
476.226
773.07
680.794
689.998
474.347
879.188
734.186
187.264
244.796
154.998
1140.06
1063.02
919.553
875.261
186.108
152.999
156.528
1016.89
855.812
853.482
788.382
141.288
153.746
136.174
799.3
644.929
760.084
645.464
97.3499
123.802
97.546
598.387
500.367
600.867
518.512
85.8455
97.5936
106.181
484.189
442.775
511.875
484.385
72.3325
105.974
95.4007
419.775
337.659
466.127
395.81
51.862
91.6498
73.6178
311.117
259.492
371.225
282.428
41.65
62.8417
41.2969
251.147
241.538
256.878
213.657
148.837
173.732
144.123
915.651
851.582
802.24
782.401
149.178
147.29
148.373
830.384
764.532
776.137
715.082
131.313
144.194
121.968
737.795
628.478
681.348
581.572
98.5258
117.304
117.652
586.834
522.345
559.776
528.55
113.477
120.487
121.331
517.97
493.263
518.627
472.988
101.462
118.503
102.883
475.868
406.819
454.034
376.486
73.5385
90.802
57.1111
379.989
279.491
334.177
229.517
41.8226
51.2945
32.0166
251.818
207.762
209.168
160.069
138.558
163.039
110.754
766.492
739.688
714.17
660.068
142.687
108.328
103.438
738.422
690.835
641.835
590.488
121.96
104.208
109.417
659.053
572.115
572.066
529.834
119.951
111.298
119.927
555.706
525.474
523.41
518.899
120.652
122.9
124.799
514.83
465.536
518.192
496.26
98.1741
122.616
110.754
445.072
356.812
479.241
392.316
51.3676
96.0388
45.3368
309.965
209.061
338.603
197.204
30.1127
40.7677
44.0341
191.776
152.76
183.573
209.31
106.882
234.31
143.107
710.346
654.871
808.801
709.487
93.6174
139.598
105.731
634.017
561.133
657.745
540.288
98.9433
102.878
88.4915
541.625
509.755
513.904
474.08
115.02
88.7496
90.8307
506.449
508.412
470.348
465.449
124.009
92.5987
107.025
510.762
502.556
470.312
485.419
117.493
111.021
120.913
491.828
429.696
489.734
486.507
53.025
121.46
117.068
392.689
216.314
478.788
413.309
41.4124
105.55
44.9085
196.922
227.476
367.29
301.783
1257.56
1209.11
1046.23
1858.07
1607.09
1618.76
1409.68
987.242
1011.93
913.913
1508.64
1230.81
1352.22
1180
740.232
876.618
741.285
1144.88
939.07
1120.78
946.706
590.543
695.163
609.202
891.895
774.534
899.22
794.443
511.93
597.199
548.282
742.08
637.558
765.156
661.042
388.808
523.72
438.068
599.137
489.646
621.409
501.272
303.869
407.875
312.978
461.694
401.822
463.348
373.452
273.83
289.395
237.986
390.752
359.907
351.851
297.714
1013.63
995.396
924.878
1555.9
1371.91
1383
1253.56
888.441
910.845
825.932
1317.48
1156.65
1219.72
1079.24
726.174
786.049
674.038
1100.95
938.515
1025.93
886.769
612.634
650.6
599.992
894.207
796.404
861.894
697.177
554.887
581.838
517.048
766.764
662.107
650.074
540.057
446.9
494.029
403.503
622.881
500.918
512.157
407.052
309.052
359.466
256.757
460.856
363.294
371.043
296.85
230.925
235.557
177.58
339.086
284.323
276.845
219.955
876.426
903.65
795.326
1326.97
1198.87
1281.98
1116.43
799.646
771.326
703.59
1175.77
1052.26
1077.8
964.254
661.926
678.36
617.915
1001.52
871.231
924.386
825.391
593.394
607.027
591.581
848.527
685.408
803.802
752.619
507.326
587.135
552.125
638.062
519.297
735.265
658.295
381.214
530.116
422.112
483.498
367.246
618.532
450.347
234.926
365.6
228.681
331.501
268.552
389.888
294.927
171.443
215.276
244.025
254.152
216.769
297.827
364.664
793.548
1087.61
887.751
1313.9
1118.3
1540.73
1226.25
674.659
808.146
647.344
1069.52
935.404
1103.42
883.88
599.912
615.989
564.924
898.901
810.616
845.293
769.785
582.648
558.691
545.422
791.566
749.565
756.463
720.282
561.773
547.466
552.661
736.912
680.412
716.246
696.749
466.215
553.84
539.876
651.159
519.077
690.892
650.431
252.634
528.61
451.402
464.371
349.316
633.349
565.989
266.656
411.258
363.552
351.046
412.217
552.528
568.88
1687.08
1729.7
1502.23
2214.16
1883.54
2020.44
1750.2
1288.19
1438.71
1246.65
1759.81
1440.16
1670.25
1429.12
991.111
1181.75
999.169
1347.27
1136.69
1351.54
1144.06
818.232
950.503
835.325
1084.67
929.421
1086.49
927.631
665.835
800.155
680.335
882.117
745.009
874.993
715.901
515.57
636.969
510.982
704.072
597.281
665.763
539.345
428.469
473.493
387.516
573.402
516.255
507.326
436.144
382.783
366.474
312.027
505.229
467.309
418.527
371.403
1465.33
1493.62
1344.33
1971.76
1717.82
1793.27
1603.24
1225.36
1304.47
1148.86
1642.45
1417.78
1547.75
1355.19
993.178
1091.97
944.687
1344.13
1143.47
1288.18
1113.7
947.003
907.334
937.987
995.565
901.161
952.103
988.313
769.006
762.275
789.408
828.495
749.222
783.81
815.797
507.003
480.534
388.22
652.629
520.435
443.747
356.772
374.481
360.097
301.482
486.821
411.699
346.17
321.049
296.519
283.163
230.292
392.601
349.507
310.821
281.356
1290.16
1393.86
1207.89
1735.56
1556.93
1703.55
1480.16
1122.53
1164.63
1036.15
1511.61
1332.58
1423.34
1249.71
928.803
992.255
883.067
1267.71
1099.65
1194.33
1054.04
884.246
831.768
887.381
949.737
842.092
780.141
940.198
641.961
552.825
690.536
457.005
645.922
420.334
695.651
335.408
634.482
448.447
395.156
296.878
669.653
471.419
271.405
389.305
321.918
295.19
302.512
438.617
451.595
228.999
330.963
396.964
303.012
291.324
476.141
504.903
1209.24
1669.21
1311.52
1746.57
1475.5
1987.6
1535.08
1006.65
1179.39
950.116
1403.37
1215.49
1383.91
1137.45
868.551
908.874
825.869
1165.28
1039.96
1091.13
990.962
793.823
810.056
766.786
1008.05
921.214
968.074
906.378
707.653
760.485
733.738
891.435
779.244
894.496
851.554
527.719
725.88
679.202
731.403
575.105
840.424
788.131
387.82
662.204
607.239
542.181
541.274
778.665
763.858
452.887
601.701
622.986
565.239
581.522
768.815
774.434
1945.56
2117.04
1832.66
2535.55
2129.02
2402.98
2108.15
1493.15
1748.17
1495.02
1989.55
1683.53
2015.52
1746.37
1190.35
1414.4
1196.52
1601.71
1397.35
1660.63
1402.95
970.576
1133.77
956.658
1331.89
1154.1
1318.74
1085.95
781.11
898.542
729.74
1105.51
978.914
1016.88
845.287
637.764
679.203
559.129
943.202
869.387
805.098
748.632
560.385
530.727
467.671
853.882
819.559
744.284
729.21
508.692
452.121
406.238
807.809
769.424
722.16
689.92
1802.59
1896.27
1695.16
2349.19
2091.02
2218.75
2025.13
1488.62
1636.17
1435.04
2010.16
1762.07
1964.64
1752.62
1196.97
1364.19
1171.64
1675.63
1402.07
1666.78
1388.71
953.623
1115.99
867.598
1313.25
1065.49
1296.35
1029.61
713.433
779.273
548.893
989.758
797.084
935.767
672.064
532.915
482.129
373.87
752.37
693.232
603.929
532.296
438.544
362.622
344.039
695.058
695.242
546.623
611.796
382.295
338.076
314.791
691.424
667.71
622.065
614.649
1653.96
1814.34
1581.94
2193.85
2007.31
2184.08
1956
1414.62
1520.57
1333.06
1950.82
1741.99
1881.66
1664.73
1159.26
1274.13
1120.47
1657.68
1387.21
1597.48
1395.45
873.365
1079.66
961.214
1300.83
1040.33
1330.7
1147.12
530.869
917.586
754.849
946.629
671.096
1086.51
892.043
328.359
686.838
505.48
596.518
519.928
833.433
770.538
333.799
485.696
519.573
538.256
621.95
793.665
865.315
327.607
542.415
549.106
635.378
626.627
870.035
805.516
1572.89
2091.25
1608.56
2215.53
1924.54
2393.03
1835.74
1295.73
1453.55
1206.5
1834.36
1613.68
1683.33
1463.42
1108.04
1159.07
1057.15
1557.75
1394.97
1425.38
1333.33
970.584
1032.07
965.712
1341.97
1191.97
1302.22
1235.6
809.649
952.65
908.208
1145.25
997.473
1225.57
1199.22
615.402
897.397
848.127
954.753
910.199
1192.26
1168.6
617.231
842.204
835.449
925.997
974.816
1168.61
1160.51
631.529
841.319
821.32
976.098
887.008
1149.35
1043.94
2197.97
2503.13
2210.92
2943.6
2490.59
2866.28
2584.35
1761.8
2116.2
1846
2337.73
2078.32
2476.83
2203.97
1483.76
1759.29
1487.59
2006.01
1806.4
2112.46
1803.02
1241.42
1396.7
1153.14
1729.99
1588.93
1698.97
1451.52
1083.87
1084.86
926.943
1552.61
1477.06
1394.44
1299.23
996.627
897.132
885.005
1454.9
1438
1301.44
1387.57
960.107
891.846
890.853
1432.31
1419.34
1404.02
1406.07
906.806
885.335
848.66
1408.59
1342.46
1403.08
1341.41
2200.07
2337.71
2152.77
2794.13
2588.53
2733.36
2582.25
1869.49
2092.41
1877.13
2498.56
2242.45
2515.83
2287.12
1485.29
1785.4
1474.75
2140.84
1793.1
2174.94
1785.72
1122.91
1369.99
1083.45
1677.08
1393.52
1650.81
1317.08
866.171
988.265
730.691
1325.98
1211.29
1226.06
1038.18
824.472
673.917
661.322
1214.37
1337.05
1035.43
1206.32
862.015
705.323
794.67
1374.18
1390.08
1284.76
1352.51
828.931
803.307
782.564
1387.92
1322.88
1352.62
1283.87
2143.29
2323.66
2097.39
2745.48
2591.36
2773.01
2555.41
1870.35
2018.35
1796.3
2522
2289.7
2461.19
2227.68
1477.88
1727.1
1508.82
2179.29
1798.57
2150.88
1877.5
1097.1
1435.69
1233.42
1666.92
1337.24
1785.35
1555.4
733.637
1170.37
981.69
1244.52
1045.1
1494.42
1359.13
656.65
935.045
933.55
1039.64
1209.98
1354.51
1471
805.042
971.711
1025.64
1289.57
1357.66
1508.99
1497.76
790.998
1021.34
932.439
1356.79
1286.55
1477.33
1356.12
2056.67
2494.73
1918.81
2787.53
2495.8
2865.68
2253.69
1741.16
1771.66
1568.95
2388.89
2166.73
2111.89
1945.12
1513.8
1535.91
1449.09
2112.7
1900.64
1924.12
1840.52
1293.14
1416.29
1356.05
1826.87
1650.48
1800.31
1764.78
1105.13
1349.77
1334.9
1607.66
1512.9
1766.57
1769.03
1077.1
1328.86
1315.84
1512.03
1600.01
1762.32
1768.08
1129.75
1315.39
1296.34
1617.24
1579.03
1763.52
1702.55
1007.24
1274.32
1137.56
1551.66
1412.13
1655.77
1469.56
904.529
871.389
827.567
870.757
864.379
911.284
860.909
931.435
925.72
851.345
962.53
886.329
977.474
826.612
871.042
790.208
748.839
543.598
836.772
813.951
645.326
989.562
1041.32
1032.89
1082.73
993.29
1035.87
1029.97
941.443
900.119
980.33
918.045
946.99
890.677
975.617
976.677
1002.13
1075.9
977.747
1026.62
857.897
1021.59
912.04
568.92
883.981
871.456
845.465
676.509
955.351
721.528
721.497
666.403
690.973
707.916
737.56
674.569
713.24
745.588
549.799
484.244
703.328
761.516
438.371
661.956
621.463
512.561
434.674
660.661
618.996
421.991
784.862
851.449
815.578
858.894
800.817
838.424
798.788
731.249
698.636
759.559
682.593
749.431
678.945
739.775
726.934
502.695
815.154
603.842
784.416
449.355
748.235
667.855
423.239
627.471
549.496
618.91
421.932
685.021
816.498
734.026
737.648
523.267
787.973
616.678
753.397
892.924
871.813
836.669
910.694
844.349
924.38
885.704
858.083
784.009
816.045
835.511
814.674
821.781
861.022
940.807
996.131
982.036
1047.03
832.982
993.661
998.841
869.268
562.441
872.515
862.246
663.041
799.061
932.422
942.972
963.304
1031.75
985.786
977.356
934.798
993.72
903.895
875.672
904.208
952.359
862.384
905.957
950.666
582.106
498.793
538.986
382.996
594.387
372.322
513.123
744.538
752.893
747.75
808.63
719.026
784.697
778.204
699.08
632.191
717.993
699.766
680.11
642.669
743.041
669.087
491.449
613.643
792.982
442.05
733.758
720.189
597.644
378.629
535.159
552.802
383.468
516.595
639.527
772.073
843.577
855.034
837.292
819.235
807.585
800.823
718.996
716.874
668.071
790.056
654.238
766.517
740.005
406.864
519.229
427.407
926.677
939.103
968.992
990.127
320.76
375.057
322.276
889.508
783.386
947.989
840.475
228.844
278.261
232.991
680.954
599.469
733.882
627.264
168.459
195.226
169.267
497.986
423.586
531.608
467.302
128.915
153.321
141.285
371.229
332.638
425.928
389.188
98.5814
125.009
106.37
284.942
251.514
338.429
282.89
85.5973
91.8323
85.7236
237.668
235.165
245.253
230.662
75.3833
84.2083
71.3159
233.966
255.565
224.191
236.57
518.867
554.119
411.346
1091.07
1002.38
948.717
823.979
455.209
238.467
303.413
497.271
496.021
467.789
230.53
478.131
192.917
169.814
523.867
511.465
477.16
167.297
408.737
165.985
152.162
410.803
382.596
430.488
145.18
305.368
119.704
123.285
313.12
283.815
337.591
111.262
250.14
89.8576
89.6401
235.233
227.489
251.528
89.0969
239.065
82.9866
89.3912
216.72
201.578
248.565
87.7336
184.112
62.1142
72.9441
158.412
145.251
195.64
69.1822
133.603
50.6873
54.0723
130.762
129.147
140.3
51.7239
77.9252
84.7655
66.2533
199.748
211.39
184.095
184.69
314.545
336.23
294.958
777.06
801.776
746.525
731.757
388.566
166.227
185.797
377.831
398.231
354.569
159.529
421.492
150.094
148.958
425.64
428.854
421.745
148.179
383.084
144.631
141.185
415.377
402.806
399.006
137.638
284.49
105.62
108.901
317.116
289.541
301.205
102.213
302.829
104.119
103.54
280.074
292.405
290.605
110.941
295.128
111.601
117.459
297.979
289.392
304.142
115.686
230.472
91.9598
99.1201
245.633
230.897
248.364
92.5491
130.528
54.6437
60.107
149.91
134.006
143.271
53.4761
60.4109
64.3221
45.738
159.304
163.056
133.396
130.968
300.482
398.027
283.921
765.439
686.663
759.979
669.629
325.968
147.916
174.501
318.069
339.066
309.794
143.071
376.018
142.77
129.751
393.744
401.101
367.865
132.102
347.491
133.46
131.498
381.46
363.034
363.04
126.885
317.322
119.372
118.993
322.671
319.089
319.148
119.01
318.977
122.471
123.63
317.08
316.112
319.723
124.116
284.729
112.952
118.365
292.984
282.001
295.995
114.601
151.998
69.047
82.2244
201.099
164.632
194.803
65.7895
95.9727
41.953
42.5666
107.298
99.2483
98.6305
40.1455
48.6693
85.5407
89.2579
135.271
135.609
184.848
218.805
256
405.122
323.75
780.303
675.337
843.27
746.758
281.227
117.448
149.725
267.107
285.377
269.211
122.365
286.475
103.509
104.149
300.63
293.542
288.355
102.658
249.588
92.1784
87.9381
258.398
259.406
254.35
86.231
265.663
106.922
91.7475
280.722
287.237
259.108
96.2753
299.898
121.669
109.535
309.316
314.17
291.693
113.652
311.379
122.369
122.236
314.397
308.453
312.348
122.241
274.709
97.722
118.793
270.335
223.262
292.931
113.847
101.921
42.0577
53.4939
95.9393
98.0466
108.536
45.6338
125.761
106.468
126.865
267.481
295.359
270.65
349.782
286.015
406.549
282.964
719.125
665.184
741.831
687.066
180.519
224.94
193.625
554.748
487.456
560.196
488.736
144.041
165.211
140.472
431.291
393.854
395.436
356.969
140.018
133.836
125.499
383.202
387.062
311.992
308.021
151.769
124.246
125.214
396.51
411.416
303.724
315.997
172.514
129.377
140.644
425.575
432.429