/*--------------------------------*- C++ -*----------------------------------*\
  =========                 |
  \\      /  F ield         | OpenFOAM: The Open Source CFD Toolbox
   \\    /   O peration     | Website:  https://openfoam.org
    \\  /    A nd           | Version:  10
     \\/     M anipulation  |
\*---------------------------------------------------------------------------*/
FoamFile
{
    format      ascii;
    class       volScalarField;
    location    "8.8";
    object      omega_0;
}
// * * * * * * * * * * * * * * * * * * * * * * * * * * * * * * * * * * * * * //

dimensions      [0 0 -1 0 0 0 0];

internalField   nonuniform List<scalar> 
12920
(
323.842
268.638
177.271
121.194
107.706
104.377
98.7878
93.4389
89.5791
87.4169
83.6461
72.3509
59.1557
52.8017
51.5444
50.4973
49.3372
46.5135
44.1773
38.7824
515.764
366.952
212.646
146.307
127.731
125.079
118.788
104.384
90.7952
82.8432
76.2747
69.4933
63.854
60.2076
58.0753
56.0054
53.5846
51.1066
49.8545
49.6355
146.585
160.645
144.455
135.302
130.686
132.449
127.197
108.331
86.8708
75.2008
68.2377
63.9047
60.3688
57.7802
56.136
55.1307
54.7557
54.7693
54.9839
54.9156
243.191
212.414
177.198
151.912
138.62
130.871
110.738
93.3244
80.1018
73.0808
67.7349
63.8139
60.5784
58.4901
57.1672
56.4585
56.2174
55.9938
55.8529
55.3171
45.7633
131.622
147.897
142.067
128.326
121.54
106.718
92.9197
81.6364
75.2953
69.5844
65.2151
62.0051
60.3328
59.361
58.6009
58.1893
57.489
57.0999
56.0219
132.6
144.635
161.423
158.668
137.694
125.326
113.902
102.915
90.0845
80.0661
71.2933
64.8323
60.8567
59.1325
58.3842
57.7502
57.3732
56.5773
56.1109
54.9022
280.773
192.77
172.766
158.146
135.97
122.903
109.227
98.074
85.8431
75.563
67.0649
61.471
58.3676
57.0307
55.9901
55.0814
54.6404
53.819
53.4051
52.3107
133.329
180.963
179.242
168.893
145.499
134.083
202.829
166.809
147.5
124.513
108.382
95.005
84.5463
82.834
54.2888
52.1454
50.7107
49.4707
49.0364
48.0061
222.505
126.293
158.403
161.304
145.303
225.26
328.985
244.657
235.926
202.852
170.026
163.34
144.943
126.626
84.4547
48.4804
45.9845
44.2007
43.6283
42.4136
172.607
179.97
182.51
144.639
120.746
167.318
253.982
217.772
216.409
192.579
177.853
189.7
174.953
140.033
77.9884
42.0921
40.1394
38.8572
37.9069
37.4165
137.572
182.15
170.672
157.235
135.363
178.678
237.267
211.314
210.356
195.146
196.855
192.532
161.799
120.974
70.8281
44.635
38.8106
36.2648
35.674
35.9795
108.957
213.889
220.984
194.716
137.171
164.573
212.993
182.977
170.682
181.47
194.567
198.37
187.999
117.266
99.7746
62.4826
48.5201
40.6055
37.7318
36.756
174.861
217.316
219.499
191.208
153.861
127.316
178.332
130.81
112.388
105.388
106.675
113.65
118.49
115.146
68.0292
60.4944
48.9391
41.4019
38.3605
37.2534
256.93
250.095
223.068
185.423
158.802
136.125
109.287
89.8098
74.8036
63.1318
56.4091
54.8707
55.574
55.6084
53.6671
47.6093
43.3014
40.9686
40.437
40.3953
202.11
303.661
267.984
215.872
180.877
162.779
135.755
112.231
90.3634
72.8262
60.868
53.7989
50.7933
49.318
48.2641
47.2738
46.8965
47.1796
48.043
48.1529
111.582
270.717
257.149
218.788
175.008
147.974
124.182
102.438
83.2396
68.418
59.2353
54.4079
52.1153
51.1597
50.9308
51.2592
52.5143
53.1337
53.2943
52.988
131.14
244.682
231.109
183.2
145.154
120.584
101.038
84.8906
71.3598
61.7979
55.8606
53.1307
51.6721
51.1019
50.9982
51.0839
51.5074
51.7093
51.662
50.838
110.859
190.391
192.021
173.745
144.797
121.588
99.6253
81.8727
68.3011
60.5281
55.7252
53.1332
51.0383
49.6441
48.7048
47.9493
47.5862
46.7705
46.2233
44.7927
152.342
209.826
164.195
135.966
112.307
98.006
84.5057
74.0054
66.2835
62.6833
60.4182
58.9369
56.6132
54.491
52.3246
50.7971
49.6056
48.7108
48.2775
46.253
92.2327
127.664
111.682
98.3865
89.026
86.2086
82.5643
74.5017
66.0631
59.7307
54.8848
51.1422
47.9073
45.1104
42.7464
40.4113
39.0992
37.104
35.9023
33.2206
97.6503
99.1614
84.8805
70.1853
62.3725
58.7765
53.7977
50.5054
46.3367
41.0583
35.4487
31.2197
29.838
29.5956
29.0147
27.5556
26.1204
24.3976
23.3079
21.5165
259.006
170.793
128.758
96.7023
82.5787
73.3582
67.9353
62.5499
59.4071
55.9106
50.6858
44.6503
39.7879
36.7073
35.1888
34.5427
34.0997
33.0381
30.7064
28.4111
153.135
180.624
135.278
103.926
85.1823
75.8286
67.425
57.5412
47.7914
40.8473
37.4414
35.0553
33.473
32.446
32.1617
32.0581
31.8347
31.0906
30.0129
28.7387
177.491
160.846
125.517
95.1349
79.1868
67.5946
57.3132
49.2727
42.7685
37.2584
33.5346
31.1951
30.0657
29.2298
28.968
28.7686
28.7199
28.5261
28.3579
27.8774
274.537
160.395
107.676
89.7703
80.9838
70.7668
61.3775
52.6568
46.2856
40.4967
36.7783
34.0202
32.2338
30.635
29.702
28.9482
28.619
28.2518
28.106
27.6844
146.094
122.604
101.449
89.8384
82.9491
76.6356
65.7623
55.876
49.0519
44.2677
40.8808
37.3656
33.8941
30.7781
28.8182
27.8667
27.5713
27.2928
27.189
26.8635
190.729
144.216
95.5573
81.2069
72.5816
65.589
57.6981
50.8805
45.3756
41.9204
38.6621
35.2247
31.5183
28.71
27.1105
26.2931
26.0373
25.8292
25.7721
25.567
159.019
125.786
92.3404
81.9606
74.925
67.3222
70.9809
63.606
53.3234
46.2551
42.8019
38.8671
32.6774
28.1042
23.5207
23.3438
23.2627
23.1962
23.2101
23.2002
321.398
179.372
108.886
83.0924
72.3363
78.9053
74.6562
58.2206
53.0271
47.9184
44.5564
41.9849
35.4792
28.8784
22.8807
20.4776
20.5471
20.5231
20.5388
20.5305
220.866
140.056
101.508
75.5866
59.997
59.7021
60.8366
50.8507
48.4646
47.2098
41.3448
37.4991
37.5056
32.8924
22.3868
19.6826
19.1478
18.7329
18.4227
18.3903
102.468
156.489
131.848
98.744
71.9809
65.6136
54.1816
47.5715
43.554
39.0576
37.3325
37.2277
36.9191
29.5675
24.4117
22.7786
20.0382
18.5806
18.0758
18.144
307.135
241.852
145.649
99.3341
64.5098
54.5389
50.6562
46.5142
44.8335
38.8117
35.2465
34.1405
35.1079
35.1167
30.3556
30.5431
24.845
20.4496
18.9765
18.7273
209.733
158.447
120.864
94.2751
71.0687
56.6359
55.7317
48.8275
41.0926
37.3546
35.5078
34.8714
34.5263
35.1098
37.8119
37.4803
31.2087
23.1822
20.0293
18.8315
252.373
147.981
111.876
90.1068
71.9733
62.9946
51.6845
45.5531
38.8336
32.7411
29.0435
28.147
28.9982
31.2496
31.3112
28.3679
23.3989
20.7281
19.8815
19.773
178.629
211.822
140.137
104.064
84.4072
75.3939
67.4559
60.0214
51.7425
41.2458
33.1973
27.9851
25.4822
24.5441
23.7852
22.952
22.5627
22.5384
22.9469
23.6689
194.679
189.365
149.868
118.501
92.2372
77.3249
68.7608
58.623
48.6084
38.5923
32.2777
28.5585
26.5693
25.5452
25.0588
24.8921
25.0752
25.6338
26.2868
27.0118
222.696
216.062
157.526
106.541
84.0702
68.1242
58.6996
49.0028
41.386
34.8276
30.9003
28.5357
27.5253
26.9498
26.851
26.661
26.6465
26.7426
27.0078
27.3578
105.535
148.128
128.223
96.0813
78.9231
65.5354
56.3773
47.9402
41.272
35.567
31.491
28.6567
27.0632
26.1549
25.8787
25.6264
25.5131
25.385
25.3682
25.3328
353.433
147.568
102.471
82.8638
70.2663
59.6793
52.5956
46.7148
41.8726
37.6639
33.8098
30.8884
28.6559
27.2025
26.0677
25.3405
24.8171
24.4129
24.2502
24.3294
18.2022
47.1001
59.57
60.7195
57.6626
53.7429
48.394
43.5072
39.3616
36.3888
33.8669
31.668
29.5478
27.721
26.1988
24.7678
23.7613
22.4005
21.6784
20.2049
107.391
97.5234
92.1133
77.6319
68.3679
61.2117
54.1239
47.952
42.3324
37.8036
34.7235
33.1182
32.2041
31.1198
29.6517
27.9632
26.3678
24.8207
23.6476
22.3974
197.788
163.547
97.9143
79.7037
67.0148
59.6367
52.0961
48.8123
44.8663
42.1799
39.036
36.6912
34.7343
33.2994
32.3056
31.3866
30.5778
29.393
28.245
27.1951
299.257
220.685
117.696
93.1908
74.6566
64.2445
52.901
45.241
38.4264
34.9068
32.5395
31.257
30.5022
30.0841
29.8592
29.4797
29.0447
28.2187
27.5749
26.7846
169.616
155.171
120.263
87.723
70.1608
58.7695
48.2093
41.3994
35.6472
32.0483
29.6759
28.409
27.7853
27.4065
27.2726
27.0593
26.9121
26.5813
26.3838
25.9542
274.541
144.546
102.301
81.8774
69.2983
58.815
48.709
42.1971
37.253
33.738
31.1796
29.4594
28.2949
27.4578
26.9864
26.581
26.3796
26.0724
25.9045
25.5315
333.107
156.078
98.9733
80.549
70.2806
62.0145
50.9814
44.3836
39.4171
36.0999
33.1649
30.6212
28.5187
27.0126
26.1076
25.5697
25.3491
25.1104
24.9907
24.7425
186.448
140.273
88.0298
66.224
58.6407
52.4662
45.5947
41.0571
37.2013
34.3388
31.4383
28.8133
26.6867
25.2972
24.5603
24.12
23.9664
23.8422
23.7875
23.6701
230.15
113.938
84.0693
66.0939
58.4067
52.4236
50.193
45.0314
39.5311
35.8177
32.7806
29.2114
25.7229
23.5369
22.966
22.4795
22.1858
22.0413
21.9949
21.9632
232.537
144.113
100.184
67.4774
53.2238
52.795
49.8203
44.3764
40.1109
37.0725
34.3831
30.7377
26.2549
22.7991
20.9069
21.2657
20.6829
20.3056
20.1731
20.1692
227.531
198.845
105.974
65.9711
49.0232
44.308
44.331
40.7565
38.9728
37.0714
33.8204
30.8036
27.9644
23.0938
20.571
21.1055
20.0235
19.3123
19.0063
19.0711
349.84
276.261
153.183
91.586
57.8708
46.3549
40.116
38.6276
36.1216
33.1191
75.4628
62.1366
42.38
28.7171
24.8605
23.2254
20.8616
19.529
18.9984
19.0464
452.282
234.425
140.128
92.1754
59.077
44.7485
39.3562
37.2763
35.5486
32.5141
30.5189
30.3748
33.331
33.7485
31.8827
28.2303
22.7722
20.114
19.1336
18.96
347.377
152.323
114.858
87.452
65.2733
50.098
42.7313
37.0866
33.1533
31.2413
30.8016
30.8596
31.1298
32.5739
34.9661
31.7651
24.4894
20.6495
19.1959
18.6734
188.794
150.407
106.123
80.2347
62.8366
52.5213
42.3032
36.3984
31.3802
27.1955
25.4788
25.1884
25.9875
26.6373
26.0317
23.2308
20.9131
19.7896
19.4425
19.32
492.64
305.577
124.948
87.1054
69.3241
59.1789
49.6958
42.6685
36.2574
30.6109
26.7699
24.1474
23.1737
22.6481
22.2882
21.8773
21.7597
21.7842
22.0535
22.1389
356.87
154.836
112.568
88.1958
69.7269
58.1478
49.3633
41.6017
35.2545
30.2705
27.2568
25.386
24.4716
24.0061
23.9193
23.961
24.2216
24.4377
24.6498
24.6414
682.202
181.777
112.994
80.3914
64.3813
52.6939
44.4182
37.8077
33.0232
29.5078
27.4268
26.1605
25.5847
25.3092
25.2852
25.2699
25.3183
25.3022
25.2947
25.1907
120.014
153.644
119.566
84.1912
65.9447
53.5922
45.0169
38.9157
34.4492
30.9514
28.4777
26.7265
25.7255
25.1679
24.9487
24.8382
24.7986
24.7064
24.6611
24.5265
173.615
142.969
102.545
78.074
61.261
50.6096
43.9919
39.8735
36.4697
33.807
31.2388
29.3255
27.7768
26.7803
26.0251
25.5633
25.2223
24.9682
24.773
24.7373
71.9837
74.6719
74.2161
72.868
67.4224
60.8574
53.5409
47.1021
42.3774
39.0185
36.1271
33.4954
31.0785
28.9471
27.135
25.5079
24.2217
23.0866
21.9879
21.0913
113.559
93.7968
87.8932
78.2301
69.7072
59.973
51.3002
44.2635
39.5694
36.7363
35.1137
33.8072
32.4617
30.6951
28.8121
26.9936
25.5147
24.3199
23.5366
23.0746
266.181
120.469
94.4819
70.7769
65.3873
55.2799
50.3584
48.0786
45.4456
44.2962
43.0845
42.4518
42.0846
41.3407
40.6423
39.6036
38.9648
38.1291
37.7885
37.2635
255.827
150.834
110.575
83.3584
72.8627
59.9667
51.4156
45.2748
41.5112
39.4583
38.5884
38.142
38.1643
38.0493
37.8667
37.3352
36.9296
36.2609
35.8914
35.4297
228.716
143.509
112.672
82.1879
70.0317
56.3593
48.8059
42.4095
39.007
36.5151
35.6261
35.1434
35.3155
35.3742
35.4294
35.2287
35.0702
34.7315
34.5443
34.2943
184.219
128.325
105.205
76.3978
66.5223
54.1282
48.0785
42.3375
39.5891
37.0051
35.7089
34.7094
34.5445
34.3387
34.3636
34.1926
34.1122
33.8818
33.6902
33.5699
218.626
125.61
93.8503
71.2352
64.8543
54.2036
48.8747
43.8119
40.9365
38.2199
36.2506
34.6881
33.9518
33.4973
33.3429
33.0576
32.956
32.8158
32.7092
32.7942
227.003
129.397
82.3683
61.7919
58.539
49.4138
45.721
41.0803
38.8622
36.1891
34.5021
32.9072
32.4973
32.1297
31.9477
31.6987
31.7063
31.7595
31.7601
31.9609
171.579
120.34
87.2342
63.8964
57.6216
50.0658
47.644
42.7844
39.2844
36.3693
34.2985
32.6885
31.7132
31.4237
33.8635
31.8041
30.994
30.8254
30.7391
30.9386
198.514
142.737
107.463
67.6614
53.7986
49.9967
47.4606
44.3596
40.5697
38.246
35.449
33.2281
31.8831
31.455
33.3172
33.3056
30.8878
30.1066
29.9353
30.1695
608.908
375.253
125.834
67.7593
51.9754
45.1299
44.8015
44.1373
42.6658
39.091
35.3756
32.031
30.7167
31.0677
33.8407
33.7287
30.8676
29.8615
29.732
30.0657
245.341
245.856
156.662
90.3028
59.8084
46.9012
42.2649
43.4127
42.1821
38.1987
54.304
48.4312
38.4395
34.2431
35.9196
34.5414
31.4554
30.2662
29.9755
30.2256
187.2
177.019
149.156
91.488
62.5835
47.9254
43.2265
42.7786
41.0243
38.8461
36.9821
36.9083
40.126
41.5395
40.4069
35.3732
31.6673
30.1142
29.5505
29.6629
177.848
158.867
125.908
88.7049
70.3225
53.1292
45.65
38.667
36.9163
36.8649
37.6154
39.2491
39.9529
40.1832
38.4411
32.9972
30.6043
29.6444
29.1477
29.0616
276.605
192.242
116.233
78.9011
65.6175
51.9486
44.1186
38.3945
34.801
31.1091
30.8959
30.2964
30.6779
30.4935
30.4386
29.886
29.6572
29.3741
29.1764
29.0156
233.162
152.32
105.585
78.1347
67.4445
55.2544
48.4306
42.3889
38.1379
34.043
32.2845
30.5671
30.6376
30.7003
31.1146
31.2417
31.4076
31.2657
31.1075
30.5794
220.042
124.55
98.811
73.7514
65.3928
53.9147
48.2366
41.7801
38.8018
35.6144
34.8046
33.5497
33.5939
33.4997
33.842
34.0649
34.0739
33.7417
33.4083
32.6307
364.767
134.452
104.633
73.3408
64.2788
51.9905
46.6739
40.7077
39.0521
36.8987
36.5078
35.613
35.591
35.3852
35.4645
35.4055
35.2789
34.824
34.4407
33.6636
234.334
159.76
121.649
84.1529
68.777
55.1045
48.8838
43.264
41.6229
39.3076
38.6223
37.1599
36.9276
36.3462
36.304
36.092
35.9355
35.5259
35.1771
34.6795
327.59
185.798
111.05
78.9404
64.9171
53.6914
49.6121
46.0226
44.8634
42.8556
41.6767
39.7417
39.0321
38.1892
37.8943
37.4864
37.2668
36.9492
36.5975
36.4885
67.1402
89.6796
81.5636
77.0933
69.6099
61.2963
53.3484
46.8942
42.3246
38.6854
35.5175
32.5447
29.9766
27.7783
26.0234
24.6282
23.5491
22.5849
21.9931
21.915
60.8821
88.2334
88.4466
79.0138
68.4899
56.5007
46.3962
40.3717
37.2159
35.419
33.895
32.0958
30.096
28.0193
26.3263
25.0255
24.1841
23.5896
23.1846
23.274
158.975
132.25
109.855
73.0229
84.3252
59.5604
67.756
57.977
62.0445
58.8642
61.367
60.9138
62.0534
61.3263
61.0235
59.8309
59.2761
58.4451
58.2552
57.5546
405.71
142.995
117.708
78.4921
83.5509
61.5121
63.0776
53.6225
55.4655
52.4151
54.4892
54.0467
55.368
55.19
55.5114
55.0877
54.9448
54.4309
54.2835
53.7772
194.167
136.641
117.104
79.0717
79.1538
58.6189
59.2622
50.292
51.804
48.8988
50.7034
50.3647
51.731
51.828
52.3639
52.2756
52.3576
52.2602
52.306
52.1229
171.841
142.795
118.668
77.3795
75.8096
57.4069
58.2375
50.2567
51.6416
48.5675
49.9421
49.2618
50.4757
50.4703
51.0293
50.9943
51.1784
51.1323
51.1694
51.0877
212.27
128.356
95.5789
72.4473
70.6595
57.0498
57.931
51.4009
51.7045
49.1549
49.6186
49.0817
49.7515
49.7207
49.9374
49.8249
49.8604
49.9566
50.0471
50.2226
287.006
132.535
86.89
74.049
69.8289
55.4654
55.0245
48.9931
49.3166
46.9246
48.0845
47.6383
48.7443
48.6521
48.5632
48.4134
48.6166
48.9039
49.1194
49.4969
260.993
137.105
93.3578
76.4062
66.5435
59.288
55.7382
51.4342
51.5669
50.1177
51.4165
51.823
53.3326
53.7348
52.0604
48.8745
47.9989
48.1485
48.2525
48.6801
261.883
132.666
111.187
76.6457
64.5547
57.5197
59.3638
58.5674
58.6239
58.6005
58.7551
59.9538
61.5998
62.5812
61.5028
51.6988
48.5554
48.0183
48.0445
48.3893
306.989
174.401
114.113
76.2072
63.4295
56.2501
59.74
65.3699
66.2273
63.7621
61.9331
63.5033
67.6441
68.0412
64.5094
52.5852
49.0321
48.5093
48.4219
48.7059
193.24
180.542
147.86
83.6154
72.1911
57.9048
60.3647
67.379
68.6142
63.9455
60.7822
64.2832
71.0763
69.6804
64.8779
53.2577
49.7588
49.1077
48.9382
49.1484
205.44
168.55
143.382
85.1084
71.6631
58.6505
62.8809
66.3421
66.878
67.7098
68.4222
70.2403
72.0899
69.6785
65.4897
54.54
50.4522
49.176
48.7275
48.7484
191.715
150.863
126.473
87.4699
79.848
61.9212
58.9695
52.8431
56.0884
56.9367
60.727
63.047
64.3045
63.1852
55.7563
51.5286
50.1408
49.4078
48.7641
48.4148
239.71
169.934
123.369
78.3106
76.2857
57.439
55.5976
50.3327
48.9842
46.1069
47.0867
46.4975
47.9883
47.9983
48.684
48.431
48.5671
48.5439
48.4164
48.1445
188.652
136.208
107.283
76.558
75.2906
59.8227
60.7404
54.3747
53.3751
49.5332
48.7611
46.9639
47.523
47.7589
48.7081
49.2516
49.9601
50.2038
50.2915
49.8799
401.579
131.264
101.317
71.5873
74.6699
58.8437
61.1523
54.218
55.25
51.9525
52.1848
50.6624
51.3296
51.2705
52.3868
52.8322
53.1763
53.1598
53.0726
52.4911
285.523
158.106
109.253
78.3726
75.4317
59.0668
62.2559
54.9841
57.0661
54.0641
54.8446
53.6597
54.2511
54.0938
54.6667
54.8638
54.9905
54.8009
54.543
53.7969
286.958
173.292
136.98
85.2882
82.1602
62.8294
65.7178
58.6575
60.7999
57.6634
58.3045
56.5862
56.895
56.1937
56.5595
56.3838
56.3256
55.9841
55.6817
55.1252
285.683
181.061
133.849
83.2757
86.0787
66.0082
71.0565
63.9311
66.7935
63.6519
64.2565
62.2489
62.0914
60.9217
60.8429
60.3249
60.116
59.7717
59.5509
59.3825
75.5686
110.81
91.0163
79.0243
68.0267
57.9061
49.8931
43.6415
39.1233
34.9699
31.545
28.4522
26.2896
24.5608
23.478
22.6447
22.0457
21.6582
21.6504
21.8474
34.6836
35.1854
82.1489
37.1602
34.6813
37.0452
86.1833
31.4743
84.0597
64.1287
33.8668
31.3579
85.1567
62.5769
75.0247
32.2484
31.1085
35.7599
80.0135
35.1565
34.1077
66.7985
30.9567
31.5305
78.8978
64.4495
33.9067
34.3073
243.652
278.071
221.781
92.0589
69.0897
89.9989
64.02
242.467
220.488
222.841
65.2542
61.7453
59.6338
55.4592
211.079
220.707
207.482
60.3684
55.6722
54.9474
53.8482
175.088
197.6
175.917
53.9342
50.4686
53.384
48.7643
164.897
176.05
183.75
49.7306
48.0466
46.8179
43.2259
151.099
183.511
173.972
47.5584
43.2037
42.6616
41.7159
128.074
170.554
152.335
40.8094
34.8763
41.6887
41.4216
115.186
140.719
114.716
33.2163
27.6528
39.8674
28.7767
217.493
234.778
214.213
72.5179
59.7854
65.1051
55.7996
217.537
216.446
216.974
57.1046
54.3546
54.1697
50.776
203.609
213.721
196.557
54.0239
53.2316
49.7209
46.4633
176.875
192.967
193.53
52.7967
47.8211
45.5043
42.3997
189.982
195.905
196.382
45.7648
42.1419
41.6235
40.5187
179.357
193.975
180.368
41.7782
41.86
40.4983
41.1261
152.166
169.126
134.245
42.4078
41.94
41.0797
36.1289
115.384
127.321
100.787
39.8012
28.6647
33.8892
26.8693
209.934
226.983
187.568
65.466
54.6721
62.6737
54.0966
212.823
185.576
181.434
53.3781
49.9232
52.9518
51.8152
196.702
182.167
186.595
48.5125
44.5665
50.4732
44.1473
195.398
188.217
195.465
43.4573
41.0922
42.4848
39.6557
195.797
197.836
199.211
40.5921
40.0435
39.0915
38.3516
175.996
197.377
187.303
40.0509
40.595
38.3507
39.1183
127.329
173.874
119.537
40.4915
35.2767
40.0439
39.1904
97.8217
113.713
119.048
33.0227
26.6026
35.5265
28.9029
184.365
272.817
213.54
60.0765
53.7796
71.1051
62.3324
172.351
210.872
183.154
52.5322
51.1758
59.083
49.6385
177.605
180.889
167.812
50.6047
45.0255
47.9247
46.0712
191.466
168.249
170.118
43.3636
40.1716
45.6666
42.4029
198.609
171.857
184.691
39.5336
38.4586
41.5216
39.3556
193.159
188.142
196.136
38.3857
38.6062
39.0803
38.2932
128.994
196.616
192.676
39.1267
40.7891
38.0829
38.5972
115.771
182.546
118.853
39.4152
30.2484
39.1276
37.8442
61.1914
73.0171
56.1621
53.1832
47.6525
50.3387
44.0899
54.4674
52.9369
49.7886
46.2778
43.0687
42.9315
41.231
49.1245
49.3665
48.288
41.9482
39.2392
40.7783
39.452
45.1903
47.8223
43.9197
38.6332
36.6626
38.9027
36.183
42.7701
42.3039
38.9374
36.0066
33.5367
35.141
32.4527
37.4746
38.297
37.1884
32.4366
28.6609
31.7153
29.8291
30.3678
37.0259
35.121
27.3943
24.085
29.0166
25.3283
24.9155
32.9167
25.1854
23.2217
21.1413
23.9268
20.5905
52.8184
55.0706
49.3158
46.5409
42.7457
42.7504
40.4806
48.7778
48.1946
45.4561
41.912
40.5593
40.0487
38.1739
47.6357
44.5113
41.7689
40.1575
38.9972
37.4096
35.3839
43.0575
40.9149
38.8054
38.4758
35.7979
35.2457
49.8144
37.9599
38.3524
37.5429
34.7977
32.3257
51.4329
48.037
37.324
37.4219
37.4551
31.725
30.2573
45.1965
38.4715
35.4145
37.1969
31.7953
29.513
25.4871
35.8096
27.4783
25.1564
29.6738
24.6979
24.0149
20.6072
25.6477
22.8314
48.3866
52.0397
47.5387
41.8287
39.7792
40.717
38.6655
44.8087
46.7782
45.9248
39.5863
37.8138
38.3781
37.6035
40.0904
44.8191
39.5249
36.8589
34.4085
36.7726
33.5933
37.5141
38.0814
35.4177
33.6774
47.9119
32.6882
31.1327
37.2282
34.8728
34.2208
49.3865
49.491
30.8753
31.1228
37.252
34.2709
35.3249
47.9866
41.2275
31.7893
34.5112
31.546
35.8715
34.9355
38.5147
29.8605
34.7417
33.896
24.8239
32.5462
28.6725
28.0429
24.2125
33.0166
29.7139
47.3355
56.0527
52.5886
40.5229
38.5703
43.4705
40.9584
45.3988
50.4958
43.7584
38.1843
37.136
39.4828
36.0159
40.2308
42.5664
40.9976
36.5722
33.8761
35.478
34.2247
35.8775
40.5083
37.6865
33.0397
31.1297
33.7959
32.0096
34.1938
36.9856
35.2286
30.6887
30.1652
31.6556
30.6788
34.5726
34.9801
34.3132
30.2954
32.0711
30.5398
30.2921
35.9292
34.2065
34.7766
32.612
33.2802
30.3097
31.1513
29.7169
35.2734
35.2542
33.1158
30.7332
31.7162
33.093
45.6172
46.9662
42.441
46.7613
44.3363
44.3704
42.6398
41.2019
41.5832
39.9931
43.1988
40.1195
42.2768
40.7913
37.6159
39.4893
38.0016
39.1427
37.1072
40.1771
38.1184
35.0846
37.4177
34.868
36.5449
34.3509
37.322
34.6452
31.798
33.9155
31.3247
33.6062
31.3637
33.7485
31.155
27.3351
30.5579
28.4137
30.6041
28.6052
30.3926
28.4338
23.4801
27.5042
24.1259
28.1023
27.1649
27.8694
26.7057
21.1008
23.0258
20.5005
26.9433
26.2768
26.5414
26.0637
41.4179
41.0376
39.406
43.4188
42.1479
41.0673
40.8372
39.4241
39.0647
37.327
41.8583
40.6536
40.7591
39.6304
37.6368
36.5986
34.7606
40.1076
37.9951
39.0287
36.7221
35.5358
36.3583
36.2561
36.3243
35.852
35.6138
35.6757
34.515
32.982
34.8915
33.297
34.3119
32.4994
35.0843
28.8902
55.3305
41.523
30.5414
28.3704
55.9417
41.088
24.2481
37.5084
27.5296
27.7137
26.3861
36.9324
29.2212
20.512
25.6886
23.073
26.2778
25.9909
28.4739
27.8604
38.7594
39.3034
37.7202
40.3711
40.4964
40.3733
40.1533
37.0058
37.4775
36.5674
40.5275
39.4571
40.0008
38.7602
33.9321
35.7929
33.0315
38.793
36.3326
38.1439
35.8785
45.9449
54.6151
32.9753
39.4704
37.1253
234.778
33.5085
64.6289
74.5054
48.5121
194.876
49.8967
182.522
62.8546
46.7272
32.49
36.1825
60.4727
45.417
35.2343
38.5263
30.8759
36.5976
35.1371
40.7961
31.8037
38.6603
37.0347
24.5535
33.7504
30.1015
30.722
28.9165
36.4434
34.1925
37.6473
42.1565
39.5883
40.882
40.0596
43.2047
39.9609
36.1093
38.0288
34.9437
39.6745
38.1575
38.2183
35.6814
33.2206
34.4807
33.359
37.663
36.0368
35.4627
35.1344
30.8948
33.0014
31.5305
35.4693
34.1263
35.0332
34.506
30.1577
31.2697
30.5149
33.8106
33.477
34.5068
34.6178
32.6741
30.4331
30.2999
33.7107
35.9897
34.7663
35.0017
34.0321
30.3456
31.3508
36.6152
37.4506
35.2148
36.1841
31.229
31.965
33.4884
37.4028
35.5733
36.6647
37.1218
45.5452
45.4757
44.5997
55.0604
54.7313
54.9432
57.9163
41.4412
44.3828
43.0684
53.6471
52.5572
58.3195
58.4326
38.8504
42.4787
40.2068
52.6315
52.674
58.2364
56.2095
36.115
39.268
36.3675
52.1261
51.5426
55.1094
52.8084
33.7553
35.4703
32.992
51.4825
51.9135
52.5129
52.8311
32.1419
32.4187
31.46
51.7405
52.5419
52.9566
54.9582
31.5901
31.3615
31.31
52.6234
53.5707
55.6761
56.8891
30.7336
31.3901
31.0046
53.3736
53.2015
57.0109
57.0392
44.2599
42.8112
43.3627
54.5621
58.1888
54.1993
59.0413
43.1878
43.4555
42.8151
58.8861
59.5099
60.001
61.1293
40.1048
42.2556
39.0865
59.314
56.0701
60.7002
55.6864
36.2425
38.7011
55.6403
54.6274
51.4785
53.6789
51.1201
32.7895
55.5279
49.0367
50.9446
51.0269
50.6093
49.1687
30.7772
46.6123
38.7298
51.9544
54.4981
49.9585
54.8883
30.8451
36.1091
32.3829
55.6908
57.4116
56.7248
59.2777
30.9333
32.4359
32.2786
57.6105
57.5107
59.3145
58.6094
43.2361
42.6349
43.316
54.2814
59.5989
56.0399
60.5398
42.7746
43.237
42.1422
60.4869
61.4107
60.7563
60.7114
38.8634
41.6625
39.1189
60.9812
56.052
60.6626
58.8549
54.3359
38.2187
36.6869
54.0687
51.7716
57.7371
55.7893
50.2063
36.3694
36.3683
51.2758
49.9446
55.6076
56.6982
41.0361
37.0094
39.9068
50.8479
56.1215
58.0516
61.3527
34.3703
40.31
40.5332
57.9333
59.9123
62.2685
61.7834
33.2114
40.3557
37.928
59.7653
58.7045
61.213
59.0644
43.1277
45.153
41.747
56.6227
59.8175
56.1932
52.9344
41.3854
39.9283
37.7749
59.7303
59.4927
51.4064
52.0347
39.551
37.7584
38.1371
59.6762
59.3455
53.2072
55.5705
37.3045
38.1394
38.0355
58.9422
58.3813
55.6702
56.8625
36.6189
38.1799
38.8885
58.491
59.3093
57.5477
59.7717
39.375
39.1727
39.6055
59.881
62.3615
60.0653
60.8172
41.5239
39.8811
40.5275
62.9212
62.3401
60.9223
60.6053
39.2902
40.7201
39.6946
61.8271
59.7594
60.0409
57.5523
59.5237
60.1113
64.1155
71.7809
73.7436
74.4376
79.8815
58.2792
64.6124
65.0581
73.0959
74.2926
80.4554
82.0161
59.0726
65.0065
64.0749
74.9717
76.8443
82.5729
85.9949
58.6195
63.5091
62.5443
76.8903
79.0616
87.1943
90.2844
59.9989
62.5333
63.1533
79.7572
81.9781
91.0918
92.6679
61.4567
63.5915
66.2105
82.063
83.6581
92.6068
90.9417
62.7988
66.7077
67.2466
83.7994
84.6863
90.3101
89.4246
61.9513
67.2594
66.449
84.6012
81.8524
89.4048
87.0238
64.558
59.9715
65.7815
73.95
80.5827
75.4705
82.5312
66.3025
66.8606
68.3368
81.4872
83.4678
83.7058
86.5762
64.699
68.2793
65.1635
84.243
88.9729
88.188
96.2122
61.9984
63.3834
60.2933
90.563
93.9226
98.8444
102.8
62.9605
59.9483
60.708
94.7561
96.2711
103.711
105.082
66.7837
63.3397
68.7702
96.1411
93.2827
104.446
98.7312
68.0767
70.2951
70.0856
92.0395
90.1327
96.0856
91.3829
66.9508
69.6437
67.7034
89.9727
87.0958
90.8258
87.2135
66.4003
62.4029
67.2797
75.9852
83.3521
78.4703
84.0925
68.6651
67.5418
67.8302
84.3796
87.0374
84.4109
85.8759
65.6888
67.9789
67.9679
88.6524
96.7932
86.9435
92.2623
61.1463
67.5423
66.9974
99.531
103.442
94.0574
97.2726
61.4713
67.137
68.4281
104.271
105.558
98.0369
99.5303
69.7305
69.3169
72.0906
104.871
98.8405
99.1517
94.6868
70.2415
72.1952
70.1092
96.0825
91.2019
92.8404
89.4779
67.66
69.4182
67.153
90.6405
87.1648
89.1051
86.5481
66.4031
61.3843
58.2628
78.6579
83.0189
75.1493
73.9683
66.5015
57.0228
58.3249
83.1243
84.5841
73.3602
76.0246
67.635
59.6901
62.3916
85.5603
89.7921
77.8071
80.9214
68.1346
62.521
64.2497
91.1621
94.0785
81.0885
83.7569
69.5892
65.1476
67.6491
94.8562
96.3416
84.8173
86.9009
72.142
67.8547
68.6932
96.0702
92.9458
86.843
87.6052
70.3167
68.7618
68.2525
91.7716
89.1967
87.6825
87.1184
67.5554
67.5509
64.7827
88.8912
86.887
86.6222
83.5819
35.5907
35.5396
35.351
34.0893
35.649
34.86
35.4617
40.3693
35.4467
53.9555
39.7606
37.0266
35.4655
180.429
46.6649
42.2042
73.122
213.723
40.5063
48.5799
230.29
35.6808
36.311
36.3027
36.7774
35.5566
35.8075
36.3288
35.7648
34.0461
35.4862
35.9322
34.804
35.6396
36.1963
41.2966
41.0177
36.6964
60.3071
35.858
187.149
38.8025
47.8371
219.46
44.3081
80.8281
49.6424
236.754
42.796
33.8803
32.1843
32.9948
30.9729
33.6865
31.7118
33.0399
47.4568
42.3932
83.5469
201.737
42.047
48.2459
189.972
46.1688
39.4326
77.6043
88.6345
41.4012
42.3253
129.051
34.6526
33.2651
33.0236
35.4467
32.4621
35.2469
34.8099
33.9734
30.8742
32.1782
33.1402
31.6547
33.0504
34.0597
48.1127
206.29
44.1022
83.35
49.0688
193.032
43.5059
46.7014
89.4995
40.263
75.2018
42.7066
131.309
42.4568
54.6617
70.1287
46.334
208.461
42.5884
220.809
60.0513
33.0813
32.2427
31.6917
32.4177
32.3866
32.4947
31.9634
34.3439
33.8226
31.3474
31.5784
33.047
35.4438
31.7358
47.0466
41.0251
60.1929
35.7832
229.887
34.4298
40.63
56.0089
215.335
77.0369
49.4364
228.32
60.9806
46.3493
34.0366
33.3144
35.1031
34.657
33.3978
32.8918
35.3407
35.3441
32.5254
36.7618
34.3626
36.3863
32.6868
36.1055
66.7559
74.8411
53.6306
107.901
52.4228
162.66
66.3632
36.8204
34.361
30.9607
31.4894
34.8991
36.1361
31.5276
37.7926
37.157
31.0993
32.2447
35.7508
39.4205
31.7162
64.8516
201.309
76.4406
50.7953
186.535
63.367
51.7196
66.024
102.216
73.8181
53.4727
156.218
65.4921
53.0757
37.6187
32.4164
37.1019
33.8441
36.9945
32.4375
37.4845
38.4914
33.1131
39.3484
33.9337
40.054
32.6039
38.1376
179.784
202.972
184.245
114.715
96.264
110.516
92.0938
159.391
172.462
159.745
87.411
80.4067
83.9215
77.6118
134.471
148.379
135.711
72.8786
65.3322
71.2556
65.638
115.376
124.247
115.769
61.155
59.0968
60.7614
58.3487
100.984
110.24
105.821
56.0547
54.0774
56.5326
55.6394
88.3068
99.4751
91.7389
52.0663
48.6678
54.4184
51.5092
82.43
85.2924
82.4865
44.6975
40.3885
46.1628
40.5168
77.3967
81.7766
75.3243
38.6224
32.9144
37.8776
28.794
202.444
209.591
180.468
125.586
106.198
126.734
106.835
146.727
274.186
309.126
179.543
145.07
179.508
269.955
97.0964
247.391
232.088
101.939
102.401
101.493
230.371
90.3168
228.958
219.394
103.879
103.362
91.9964
214.365
79.8122
194.274
197.336
89.8383
87.833
82.7075
187.332
74.1308
168.654
168.616
79.6994
79.5273
74.9782
168.206
72.3583
162.189
168.504
76.3983
76.4338
72.7208
166.827
62.4951
140.069
152.047
68.3899
64.9334
64.916
148.058
59.2215
126.858
130.861
56.8378
55.3525
61.3018
128.159
78.6592
82.0206
72.5259
31.0724
26.5484
30.5816
22.9756
158.115
163.293
153.077
93.4619
82.9122
94.1043
78.2067
113.427
229.682
242.756
138.5
117.82
133.042
225.264
88.5081
218.303
217.529
92.1688
89.1252
91.3061
216.836
85.0495
214.129
211.578
86.2216
86.4262
85.0837
208.823
79.4114
182.583
185.434
85.4838
82.786
81.6319
179.939
71.0449
182.294
181.646
72.6547
71.3281
71.5551
188.219
71.1535
188.258
193.232
70.8717
70.924
71.0299
191.683
72.175
170.709
177.257
71.4568
72.0544
72.2163
171.106
64.1201
131.468
137.658
72.1342
68.3479
70.1772
130.077
69.2273
71.3641
60.2555
30.1567
23.0596
28.8429
21.9768
154.216
177.094
149.837
110.408
80.9995
108.155
78.3851
107.986
216.717
234.925
131.331
107.917
132.787
213.098
84.7745
212.995
203.145
87.0877
85.0256
86.5322
204.896
76.9707
205.607
204.26
80.1159
78.0445
79.262
200.534
71.2552
194.811
194.485
73.1733
72.1533
72.0635
194.533
70.2579
197.417
198.389
70.902
70.6594
70.4141
198.73
69.2057
189.393
193.893
69.8817
69.7354
69.3776
190.754
68.5258
147.346
160.744
69.0643
67.6427
69.7319
143.701
49.7203
115.242
116.098
57.3963
53.0095
55.5943
112.857
62.2267
82.6225
84.2702
28.0238
22.6844
29.965
28.2095
142.233
178.743
159.913
83.6565
71.0791
88.2536
84.3198
107.415
193.089
217.579
121.331
101.845
124.493
197.112
82.593
181.33
181.997
84.6477
83.1092
85.3865
180.603
77.7685
171.281
166.972
82.7701
80.3041
78.3991
165.491
73.2557
184.588
171.033
72.9938
71.9711
73.9051
175.178
69.8968
196.818
186.859
70.3323
70.3138
70.0799
190.299
70.0382
197.203
197.204
70.2095
70.1321
69.9839
197.181
69.7865
175.381
194.281
69.927
72.4656
69.3938
190.008
67.2063
115.68
129.641
68.0052
53.9022
75.1565
120.325
100.204
92.4476
100.828
34.1686
30.4244
38.5161
33.7054
150.386
179.251
149.658
99.2119
80.6803
99.4267
77.7464
119.584
133.503
123.851
68.114
58.6023
66.7766
61.7674
106.949
114.496
105.603
54.5438
52.1656
57.8306
52.4624
105.525
103.122
99.8627
49.3924
47.6471
49.0797
47.0885
109.927
99.414
99.8177
46.3175
45.9201
45.7922
44.7116
117.16