/*--------------------------------*- C++ -*----------------------------------*\
  =========                 |
  \\      /  F ield         | OpenFOAM: The Open Source CFD Toolbox
   \\    /   O peration     | Website:  https://openfoam.org
    \\  /    A nd           | Version:  10
     \\/     M anipulation  |
\*---------------------------------------------------------------------------*/
FoamFile
{
    format      ascii;
    class       volScalarField;
    location    "8.8";
    object      omega;
}
// * * * * * * * * * * * * * * * * * * * * * * * * * * * * * * * * * * * * * //

dimensions      [0 0 -1 0 0 0 0];

internalField   nonuniform List<scalar> 
12920
(
332.479
270.222
178.788
121.95
107.609
104.179
98.6436
93.3047
89.3943
87.2319
83.5922
72.6388
59.3666
52.826
51.5079
50.4655
49.322
46.5302
44.2183
38.8247
511.603
367.778
214.626
147
127.611
124.842
118.72
104.543
90.8937
82.8801
76.3201
69.5689
63.9057
60.2318
58.0902
56.0307
53.6209
51.1318
49.8571
49.6264
142.996
162.054
145.139
135.293
130.452
132.129
127.086
108.661
87.1038
75.2979
68.2721
63.9285
60.3945
57.7987
56.146
55.1301
54.7438
54.7524
54.9628
54.8998
239.209
212.966
177.668
152.002
138.417
130.754
110.858
93.4709
80.1736
73.1064
67.7495
63.8267
60.5852
58.4891
57.1587
56.4431
56.1987
55.9744
55.8343
55.3033
46.6247
130.097
147.579
142.094
128.248
121.482
106.758
92.9943
81.6747
75.3103
69.6038
65.2306
62.0053
60.3212
59.3438
58.5815
58.1699
57.4712
57.0831
56.0095
136.785
144.425
160.868
158.396
137.913
125.369
113.871
102.945
90.1496
80.1352
71.3595
64.8738
60.8636
59.1186
58.3657
57.7318
57.3561
56.5626
56.0969
54.8911
269.853
196.346
172.597
157.897
135.866
122.851
109.198
98.1105
85.9078
75.6377
67.1171
61.489
58.3551
57.0089
55.9703
55.0621
54.6231
53.8045
53.3914
52.2996
126.118
180.215
178.992
168.703
145.252
133.948
202.747
166.696
147.64
124.694
108.506
95.1042
84.556
82.7591
54.263
52.1268
50.6965
49.4573
49.023
47.9947
237.616
128.058
158.775
161.114
145.149
225.103
330.884
244.444
236.219
203.229
170.202
163.319
145.145
126.567
84.405
48.4708
45.9727
44.1889
43.6167
42.4057
175.489
180.386
182.352
144.621
120.717
167.296
254.469
217.582
216.462
193.237
177.661
189.527
174.966
140.533
78.0242
42.0808
40.1266
38.8474
37.8995
37.4089
140.652
182.649
171.992
157.509
135.482
179.232
237.616
211.066
210.474
195.026
196.537
192.462
162.512
121.206
70.7983
44.6682
38.8407
36.2688
35.6636
35.9655
104.275
212.46
219.909
194.785
137.787
165.439
213.448
182.789
170.5
181.065
194.174
198.137
188.11
117.429
99.3284
62.557
48.6436
40.6608
37.7415
36.7502
177.639
216.682
218.858
191.036
153.962
127.526
178.649
130.974
112.389
105.267
106.498
113.436
118.348
115.152
68.0093
60.5867
49.0577
41.461
38.3737
37.2493
255.498
248.4
222.413
185.177
158.752
136.183
109.417
89.9346
74.8859
63.2072
56.4217
54.8377
55.5427
55.5922
53.7152
47.6894
43.335
40.9716
40.4232
40.38
192.962
303.444
267.807
215.932
180.739
162.645
135.76
112.389
90.5477
72.9781
60.9574
53.8298
50.7893
49.3067
48.2563
47.2605
46.8668
47.1392
48.0058
48.1258
116.132
272.222
256.767
218.87
175.203
148.103
124.31
102.611
83.4217
68.5441
59.2954
54.4195
52.1028
51.1338
50.8972
51.2149
52.4643
53.0963
53.2622
52.9616
129.065
243.088
230.307
183.697
145.39
120.688
101.13
84.9908
71.4521
61.8598
55.8842
53.1285
51.6552
51.0756
50.9674
51.0508
51.4726
51.6822
51.6378
50.8284
104.29
188.213
191.371
173.801
144.825
121.669
99.7533
82.0044
68.3908
60.5662
55.7359
53.1331
51.0346
49.6365
48.6937
47.9371
47.5756
46.7663
46.2226
44.7976
154.582
210.698
164.277
136.059
112.378
98.0085
84.5275
74.0246
66.2742
62.6437
60.3751
58.9058
56.6009
54.4876
52.3239
50.7943
49.6013
48.7038
48.2745
46.2693
90.898
128.416
111.926
98.5878
89.0252
86.1036
82.4874
74.5275
66.0952
59.748
54.8894
51.1437
47.9086
45.1119
42.7503
40.4115
39.0981
37.1091
35.9166
33.2306
97.3676
98.8886
84.9508
70.2626
62.3219
58.7306
53.768
50.4942
46.3773
41.1451
35.5435
31.261
29.8154
29.5697
29.0048
27.5643
26.1314
24.4095
23.3212
21.5244
254.67
171.832
128.892
96.8497
82.6018
73.3172
67.879
62.4937
59.3274
55.8758
50.728
44.7204
39.8455
36.7366
35.1944
34.5385
34.1012
33.0624
30.75
28.4333
151.347
180.03
135.58
104.138
85.2507
75.8284
67.4376
57.6352
47.8842
40.883
37.4538
35.0745
33.4877
32.4464
32.1551
32.0517
31.8324
31.1021
30.029
28.7458
179.925
161.773
125.819
95.326
79.2273
67.6068
57.3285
49.3001
42.7959
37.2903
33.5557
31.2042
30.0664
29.2247
28.96
28.7603
28.7125
28.5217
28.3547
27.8771
258.036
162.207
107.605
89.6103
80.8287
70.7344
61.3873
52.6759
46.3035
40.5159
36.7873
34.0208
32.2367
30.6367
29.7006
28.9433
28.6128
28.2453
28.0996
27.6812
153.852
122.44
101.107
89.6731
82.7658
76.5417
65.7701
55.9099
49.0683
44.2723
40.8863
37.3838
33.9227
30.8001
28.8275
27.8649
27.5655
27.2863
27.1823
26.8596
186.152
144.514
95.6943
81.2217
72.4868
65.5692
57.6902
50.8914
45.375
41.9142
38.6655
35.2426
31.5426
28.7256
27.1143
26.2891
26.0305
25.822
25.765
25.5625
162.045
125.789
92.0478
81.6823
74.6871
67.2242
70.8833
63.5659
53.342
46.2379
42.7808
38.8832
32.7219
28.1279
23.5224
23.3398
23.2569
23.1896
23.2035
23.1946
314.294
179.208
108.649
82.9555
72.0921
78.7448
74.6841
58.2197
52.9706
47.8797
44.5124
41.9758
35.537
28.9261
22.9015
20.4757
20.5431
20.5182
20.5335
20.5265
224.488
140.291
101.406
75.5384
60.0129
59.5991
60.8775
50.8197
48.3769
47.1546
41.3803
37.4794
37.4526
33.0162
22.4238
19.6828
19.1482
18.7321
18.4208
18.388
99.8684
158.123
132.505
98.8039
72.1449
65.7885
54.2272
47.492
43.5371
39.0537
37.338
37.207
36.9127
29.6457
24.4112
22.7894
20.054
18.5869
18.0746
18.1406
286.175
241.104
146.375
99.7392
64.8195
54.6556
50.6194
46.4521
44.7873
38.8201
35.23
34.1072
35.0449
35.1362
30.3332
30.5366
24.9157
20.4807
18.9831
18.726
234.009
159.257
120.586
94.2131
71.1072
56.6998
55.7657
48.8335
41.0531
37.3261
35.4729
34.8327
34.4847
35.0561
37.7378
37.4538
31.324
23.2483
20.0516
18.8362
263.013
147.138
111.585
90.006
71.9833
62.9907
51.6906
45.5636
38.8558
32.7714
29.0479
28.1252
28.9552
31.2111
31.3034
28.4354
23.4525
20.748
19.8819
19.7683
179.815
212.107
140.541
103.826
84.2579
75.2983
67.3435
60.0026
51.8185
41.3398
33.2644
28.0147
25.4844
24.539
23.7859
22.9529
22.5571
22.5274
22.9266
23.6538
191.797
188.668
149.181
118.481
92.3223
77.3268
68.743
58.6882
48.7223
38.6868
32.3345
28.5807
26.5732
25.5406
25.0498
24.8774
25.0564
25.6108
26.263
26.9935
237.556
214.7
157.399
106.699
84.2126
68.16
58.7494
49.0532
41.4456
34.8697
30.9229
28.541
27.5198
26.9393
26.8386
26.6465
26.6306
26.726
26.9896
27.3445
103.538
147.28
128.631
96.2278
78.9716
65.5828
56.4284
47.982
41.314
35.602
31.5169
28.6714
27.0673
26.1513
25.8713
25.618
25.5045
25.377
25.3601
25.3269
375.406
147.21
102.407
82.6842
70.1905
59.6749
52.6098
46.7112
41.8761
37.6715
33.8269
30.9004
28.6649
27.2086
26.0718
25.3422
24.818
24.4123
24.2463
24.3229
17.9689
46.4578
59.3468
60.6263
57.6291
53.71
48.3836
43.5122
39.3645
36.3867
33.8659
31.6709
29.554
27.7268
26.2043
24.7723
23.7674
22.4074
21.6865
20.2094
109.099
97.4266
91.8623
77.6625
68.3512
61.2208
54.1563
48.005
42.3903
37.8477
34.7408
33.1074
32.1889
31.1155
29.6574
27.9737
26.38
24.8321
23.6582
22.4009
199.194
165.425
98.4041
79.764
67.0227
59.6647
52.1054
48.8208
44.8742
42.2055
39.0666
36.726
34.7654
33.3249
32.3258
31.4063
30.6012
29.4213
28.2733
27.2143
293.553
219.092
118.064
93.1563
74.6303
64.2747
52.9651
45.323
38.4835
34.9441
32.5631
31.277
30.5166
30.0947
29.8689
29.4919
29.0612
28.2384
27.5936
26.7987
179.775
154.458
119.868
87.6812
70.1277
58.7864
48.2423
41.4409
35.6809
32.0766
29.6939
28.4211
27.7931
27.4128
27.2785
27.0666
26.9203
26.5909
26.3931
25.9637
275.053
147.083
102.361
81.733
69.2264
58.838
48.7449
42.2304
37.2745
33.7573
31.1942
29.4712
28.3056
27.4674
26.9944
26.5881
26.3865
26.0798
25.9118
25.5395
324.713
157.511
98.7716
80.342
70.1266
61.9702
51.0032
44.4101
39.4321
36.1147
33.1847
30.6439
28.5413
27.0309
26.1202
25.5782
25.3558
25.1168
24.9969
24.7491
180.823
139.811
87.9199
66.1581
58.6108
52.4834
45.6062
41.0723
37.2092
34.3495
31.4567
28.8362
26.7074
25.3121
24.5696
24.1263
23.9713
23.847
23.7924
23.6756
220.254
113.554
83.7809
65.9197
58.3165
52.3726
50.1681
45.0267
39.5414
35.8109
32.7887
29.2382
25.7504
23.5552
22.9751
22.4857
22.1912
22.0466
22.0002
21.9694
229.25
143.583
99.8204
67.3651
53.1856
52.8004
49.8893
44.3777
40.1004
37.051
34.3769
30.7645
26.2877
22.824
20.9203
21.275
20.6916
20.3141
20.181
20.1781
226.925
204.378
106.473
66.0053
49.0488
44.2893
44.3576
40.7382
38.946
37.0594
33.8352
30.8059
27.9882
23.1372
20.5832
21.1165
20.0353
19.3234
19.016
19.08
335.91
276.479
155.392
92.1382
58.108
46.4639
40.1262
38.5863
36.1251
33.1174
75.3912
62.1647
42.4245
28.7418
24.871
23.2484
20.8818
19.5441
19.0088
19.0551
464.518
245.45
141.446
92.4794
59.2825
44.8612
39.3618
37.2522
35.5371
32.5149
30.5157
30.3468
33.2782
33.7225
31.8755
28.2832
22.8197
20.1407
19.1481
18.9703
361.833
153.455
114.746
87.2801
65.2401
50.1383
42.75
37.0913
33.129
31.22
30.7753
30.8328
31.0995
32.5237
34.9371
31.8241
24.567
20.6903
19.2171
18.6867
192.146
150.063
105.795
80.0716
62.8362
52.5337
42.3266
36.4347
31.4045
27.2159
25.4798
25.1783
25.9684
26.6309
26.0491
23.2816
20.9458
19.8088
19.4542
19.3295
461.125
306.014
126.443
86.999
69.2363
59.1589
49.7024
42.7134
36.3135
30.6632
26.8053
24.165
23.1805
22.6542
22.2982
21.8868
21.7661
21.788
22.0542
22.142
371.678
156.503
112.329
88.1271
69.7395
58.1854
49.4095
41.6694
35.3209
30.3214
27.2878
25.404
24.4819
24.0114
23.9224
23.9626
24.2203
24.4367
24.6497
24.6427
696.175
195.335
113.049
80.3783
64.405
52.7304
44.4644
37.8568
33.0641
29.5404
27.4483
26.1749
25.5943
25.3152
25.2901
25.2741
25.3217
25.3058
25.298
25.1955
122.989
151.797
119.857
84.2661
65.9748
53.6378
45.0635
38.9597
34.4859
30.9863
28.5067
26.7496
25.7441
25.1817
24.9606
24.8487
24.8088
24.7164
24.6705
24.5366
190.254
141.969
102.141
77.8753
61.2278
50.612
44.0035
39.8818
36.4816
33.8246
31.2622
29.3473
27.799
26.8004
26.0443
25.581
25.2393
24.984
24.7868
24.7488
71.7312
74.6817
74.0507
72.6898
67.3705
60.8324
53.5516
47.121
42.3844
39.0197
36.1307
33.5036
31.0888
28.9577
27.145
25.5173
24.2292
23.0943
21.9961
21.0903
111.62
93.7903
87.833
78.144
69.68
60.0053
51.3637
44.3178
39.5981
36.7413
35.1049
33.7987
32.4616
30.7048
28.8262
27.0075
25.5264
24.3283
23.5408
23.0735
252.468
121.629
94.5851
70.8397
65.3918
55.3199
50.3619
48.0814
45.4464
44.3009
43.077
42.4464
42.0767
41.3441
40.6477
39.613
38.9696
38.132
37.7878
37.2614
269.417
150.374
110.319
83.1941
72.8001
59.9744
51.4427
45.3055
41.5219
39.4656
38.5842
38.1383
38.1555
38.0467
37.8654
37.3403
36.9352
36.2677
35.8945
35.4285
240.941
143.251
112.305
82.029
69.9627
56.3475
48.8068
42.4186
39.0059
36.5157
35.6178
35.1358
35.302
35.3646
35.4206
35.2254
35.0674
34.7306
34.5419
34.2887
187.303
128.881
105.116
76.3267
66.484
54.1293
48.0724
42.3385
39.5802
37.0023
35.7045
34.7069
34.5371
34.3329
34.3564
34.1893
34.1086
33.8806
33.6879
33.5632
209.39
125.737
93.6557
71.1014
64.7611
54.1615
48.8508
43.7954
40.9212
38.2159
36.252
34.6918
33.9513
33.4953
33.339
33.0552
32.9528
32.8132
32.7056
32.7846
236.974
128.492
82.2362
61.7375
58.4766
49.4092
45.6964
41.0713
38.8509
36.1897
34.5064
32.9148
32.4971
32.1289
31.9427
31.6939
31.7003
31.7539
31.7543
31.9494
170.726
119.916
86.8841
63.7957
57.5276
49.9955
47.6079
42.7744
39.2895
36.3765
34.3111
32.705
31.7395
31.4596
33.868
31.8031
30.9909
30.8228
30.7364
30.9312
195.587
142.348
106.94
67.5328
53.7405
49.9908
47.4906
44.3597
40.5801
38.2614
35.4834
33.2773
31.944
31.5233
33.3828
33.3272
30.9018
30.1195
29.9467
30.1746
607.134
378.496
128.701
67.8695
51.9504
45.105
44.802
44.1259
42.6767
39.1244
35.4209
32.0822
30.7936
31.1448
33.9177
33.7602
30.891
29.8836
29.752
30.0775
228.622
242.443
158.435
90.5735
59.9348
46.9506
42.2576
43.3936
42.2017
38.2376
54.3775
48.4235
38.5085
34.3174
36.0101
34.5734
31.4805
30.2923
29.9986
30.2401
191.571
177.598
149.013
91.6131
62.6429
47.9822
43.2137
42.7649
41.0357
38.8688
37.0108
36.9295
40.1579
41.6056
40.4977
35.4164
31.6959
30.1414
29.5746
29.6794
176.799
157.842
125.437
88.3862
70.1743
53.0967
45.6465
38.6744
36.8994
36.856
37.6205
39.2621
39.973
40.205
38.4967
33.0496
30.6301
29.6731
29.1738
29.0816
264.918
189.492
115.997
78.7347
65.5651
51.9313
44.1125
38.4102
34.8131
31.1251
30.8975
30.3038
30.6867
30.5066
30.4465
29.8996
29.6754
29.3971
29.1991
29.0332
220.605
154.637
105.731
77.9884
67.3331
55.2128
48.4233
42.4075
38.1611
34.0722
32.2937
30.5703
30.6322
30.6972
31.1136
31.2454
31.4144
31.2766
31.1196
30.5889
220.082
125.152
98.5578
73.6173
65.3486
53.9012
48.2496
41.8114
38.8146
35.6315
34.7961
33.5441
33.5821
33.4908
33.8325
34.0616
34.0739
33.7482
33.4161
32.6382
375.491
135.354
104.518
73.1813
64.2182
51.9612
46.6787
40.729
39.047
36.9009
36.4946
35.6075
35.5827
35.3807
35.4602
35.4061
35.2826
34.8331
34.4505
33.6719
232.523
159.95
121.406
84.0808
68.7352
55.0903
48.8869
43.2848
41.6143
39.3113
38.6151
37.1622
36.93
36.3522
36.3108
36.1028
35.9473
35.5408
35.1911
34.6901
319.815
183.256
110.666
78.7075
64.8799
53.6592
49.5882
46.0177
44.8393
42.8571
41.6803
39.7571
39.0482
38.2091
37.915
37.5093
37.2896
36.9736
36.6208
36.506
64.039
89.8828
81.5709
76.9859
69.5546
61.2942
53.3728
46.9155
42.3345
38.6943
35.5306
32.5613
29.9936
27.7937
26.0358
24.6375
23.5566
22.5902
21.992
21.908
61.3373
88.087
88.2964
78.9095
68.4582
56.5398
46.4471
40.3952
37.2128
35.4104
33.8905
32.1014
30.1094
28.0348
26.3405
25.0366
24.1924
23.5958
23.1878
23.275
155.62
131.749
110.433
72.8231
84.6452
59.5984
67.9007
57.9782
62.0772
58.8117
61.3215
60.8414
62.0089
61.2818
60.9879
59.7968
59.2373
58.4011
58.2141
57.5564
417.432
143.63
117.63
78.22
83.6615
61.4797
63.1873
53.5894
55.4718
52.3523
54.4385
53.9725
55.3145
55.1322
55.4595
55.0354
54.8921
54.3763
54.2334
53.7641
196.961
137.15
116.987
78.7915
79.2413
58.5411
59.3325
50.2249
51.7873
48.8173
50.642
50.2801
51.6638
51.7565
52.3003
52.2132
52.2941
52.1966
52.2459
52.1001
163.975
142.429
119.209
77.2286
76.0412
57.3179
58.3092
50.187
51.6248
48.4945
49.8863
49.1806
50.4065
50.3961
50.9599
50.9269
51.1107
51.065
51.1055
51.0589
201.235
128.308
95.8249
72.1486
70.7944
56.8776
57.9692
51.3004
51.6591
49.0691
49.5484
48.9956
49.676
49.645
49.8664
49.7569
49.7886
49.8868
49.9786
50.1885
289.114
131.488
86.9889
73.6078
70.0856
55.3032
55.0315
48.9094
49.2635
46.8419
48.0111
47.5535
48.6677
48.578
48.4893
48.3438
48.5447
48.8327
49.0506
49.4616
275.543
137.002
93.0114
75.982
66.5857
59.1004
55.5562
51.3076
51.393
49.9531
51.2395
51.6515
53.1473
53.5558
51.9744
48.8072
47.9256
48.0781
48.1823
48.6428
278.151
131.674
110.761
76.2964
64.5314
57.4191
59.1881
58.3838
58.4199
58.417
58.5781
59.7735
61.4152
62.4031
61.3281
51.6112
48.4827
47.9449
47.9747
48.3507
310.999
176.386
114.566
75.8427
63.429
56.1583
59.5129
65.1062
65.9968
63.5876
61.788
63.3676
67.4565
67.8625
64.3384
52.4967
48.9556
48.4354
48.3496
48.6649
187.716
180.646
148.504
83.6102
72.2645
57.7738
60.1313
67.1154
68.3767
63.8038
60.7126
64.108
70.9151
69.5139
64.7047
53.1596
49.6781
49.0327
48.8656
49.1076
205.479
168.211
143.98
85.2227
71.809
58.543
62.6098
66.1068
66.6411
67.4932
68.2172
70.0061
71.8593
69.4859
65.3125
54.4468
50.3765
49.1009
48.6556
48.7069
193.616
150.868
126.381
87.1422
79.7245
61.6517
58.7663
52.7138
55.9021
56.7725
60.519
62.8496
64.112
63.0321
55.6752
51.4557
50.0697
49.3399
48.6965
48.3774
236.672
168.238
123.093
78.1108
76.2579
57.2575
55.548
50.1632
48.8707
45.9798
46.9836
46.3964
47.8968
47.907
48.5948
48.352
48.4883
48.4668
48.3434
48.1027
194.311
136.67
107.759
76.3045
75.1729
59.5638
60.5921
54.1666
53.2262
49.3923
48.6521
46.8599
47.4254
47.6596
48.6087
49.157
49.8677
50.1176
50.2114
49.8376
410.62
131.933
101.103
71.3758
74.5338
58.6299
61.0346
54.0438
55.1276
51.8155
52.0777
50.5508
51.2244
51.1638
52.2799
52.7328
53.082
53.0691
52.9889
52.4469
277.381
158.881
109.003
78.1173
75.2727
58.8022
62.1005
54.7674
56.9201
53.9039
54.7225
53.5366
54.1409
53.9857
54.5621
54.7667
54.8978
54.7121
54.4612
53.7553
285.478
173.126
136.907
85.068
81.9771
62.6067
65.5556
58.4578
60.6571
57.5117
58.1873
56.4697
56.7891
56.0904
56.4598
56.2908
56.2355
55.8955
55.5997
55.0832
277.707
181.986
133.099
82.9654
85.8285
65.6902
70.8784
63.6861
66.639
63.4805
64.1321
62.1291
61.9869
60.821
60.7443
60.2325
60.0234
59.6782
59.4609
59.3351
73.1203
110.669
91.0151
78.9327
67.9999
57.9171
49.9183
43.6608
39.1445
34.995
31.5729
28.4769
26.3095
24.576
23.4892
22.6537
22.0529
21.6618
21.6509
21.8449
34.6964
35.1783
82.2396
37.1831
34.7133
37.046
86.399
31.4806
84.1827
64.2425
33.9003
31.3917
85.3746
62.5599
74.8976
32.2531
31.1139
35.7674
79.9799
35.1823
34.1385
66.8383
30.9614
31.5082
78.9175
64.4075
33.9375
34.3066
243.749
278.688
221.757
92.1618
69.1976
90.1722
64.1471
242.995
220.323
222.85
65.2494
61.6763
59.6647
55.352
211.723
220.86
207.857
60.3042
55.6692
54.8463
53.7544
175.745
198.191
175.925
53.9172
50.4386
53.3089
48.7947
165.034
175.968
183.545
49.6913
48.0074
46.8548
43.2214
151.489
183.365
173.977
47.5323
43.2783
42.6458
41.6707
128.274
170.522
152.829
40.8881
34.9327
41.6313
41.4052
114.954
141.202
114.465
33.2726
27.6849
39.9532
28.8819
217.305
234.777
213.837
72.6084
59.7952
65.0893
55.7188
217.555
216.173
216.967
57.0673
54.241
54.0837
50.721
204.115
213.89
196.726
53.9162
53.1458
49.6798
46.4442
176.811
192.935
193.239
52.7322
47.8769
45.4968
42.4094
189.749
195.554
196.218
45.8131
42.1329
41.6317
40.4923
179.418
193.911
180.672
41.7504
41.7925
40.4642
41.0808
152.747
169.732
134.61
42.3201
41.9569
41.05
36.2454
115.192
127.571
100.787
39.9421
28.7691
34.003
26.9259
209.668
227.437
187.454
65.5576
54.5877
62.7447
54.0202
212.769
185.39
181.157
53.2839
49.8839
52.8564
51.7467
196.719
181.83
186.321
48.4932
44.5625
50.467
44.1761
195.118
187.918
195.071
43.4555
41.0933
42.4995
39.6406
195.668
197.474
198.989
40.5908
40.0188
39.0723
38.3174
176.488
197.24
187.454
40.021
40.5562
38.3147
39.0438
127.662
174.558
119.934
40.4653
35.3822
39.9653
39.2496
97.7441
113.73
118.198
33.1258
26.6472
35.6747
28.8997
184.148
272.653
213.081
60.0612
53.7181
71.0763
62.245
172.343
210.453
183.154
52.4557
51.0777
59.0423
49.6243
177.178
180.666
167.558
50.544
45.0472
47.8671
46.0022
191.034
167.803
169.759
43.3761
40.1567
45.6138
42.3931
198.356
171.403
184.271
39.511
38.4238
41.5026
39.3244
193.073
187.68
195.863
38.347
38.5549
39.0387
38.261
129.705
196.306
192.724
39.0503
40.7625
38.045
38.5274
114.625
182.997
119.366
39.4809
30.253
39.0704
37.8525
61.2594
73.1215
56.2594
53.2663
47.6771
50.4246
44.1081
54.4189
52.956
49.6995
46.2812
43.0576
42.9225
41.1888
49.0935
49.2799
48.2065
41.9316
39.2151
40.7365
39.413
45.148
47.7589
43.9352
38.6052
36.6427
38.8749
36.1886
42.7381
42.3282
38.9358
35.9913
33.5479
35.1522
32.4584
37.5298
38.2873
37.151
32.4605
28.6991
31.7184
29.8293
30.4141
36.984
35.1651
27.4311
24.1174
29.0285
25.3795
24.9459
33.0231
25.2641
23.25
21.1562
23.9799
20.6153
52.8279
55.051
49.2514
46.5819
42.7406
42.7467
40.4384
48.6856
48.126
45.4127
41.8891
40.5163
40.0076
38.1569
47.5617
44.4771
41.7482
40.1165
38.9631
37.3969
35.3683
43.093
40.9044
38.8174
38.4537
35.8106
35.2369
49.7777
37.9557
38.3655
37.5289
34.8129
32.3282
51.4323
48.0762
37.2691
37.3964
37.4209
31.7213
30.2526
45.1885
38.4726
35.4901
37.184
31.8963
29.5243
25.5456
35.8488
27.5389
25.2365
29.7659
24.7377
24.0714
20.6322
25.6887
22.8329
48.316
52.0523
47.4776
41.8456
39.7286
40.7227
38.6278
44.7767
46.7006
45.8653
39.5347
37.8019
38.3322
37.5752
40.0845
44.8092
39.5454
36.8551
34.4013
36.7653
33.601
37.5208
38.0925
35.4083
33.6773
47.9099
32.6915
31.1326
37.2163
34.8597
34.1926
49.4097
49.5172
30.8742
31.1004
37.2269
34.2392
35.2667
47.9888
41.2521
31.7434
34.4631
31.6339
35.8196
34.971
38.5627
29.9083
34.7049
33.8721
24.8491
32.6176
28.6685
28.0693
24.2127
33.0075
29.7214
47.2846
56.0729
52.5737
40.5238
38.5417
43.5057
40.9614
45.3229
50.4911
43.7372
38.1503
37.1012
39.4878
35.9815
40.2443
42.515
40.9468
36.5521
33.8773
35.4308
34.1886
35.8664
40.4714
37.6774
33.0388
31.1246
33.7676
31.9937
34.1652
36.9688
35.2043
30.6814
30.1446
31.6345
30.6579
34.5242
34.9466
34.2851
30.2666
32.0197
30.5138
30.2666
35.9043
34.1711
34.7172
32.563
33.2419
30.2809
31.0997
29.7079
35.2156
35.2391
33.0829
30.725
31.6542
33.0407
45.6343
47.0369
42.4487
46.8077
44.3445
44.3976
42.6378
41.1986
41.573
39.9645
43.2039
40.1356
42.273
40.7984
37.5965
39.4615
37.9765
39.1535
37.1155
40.1875
38.1361
35.0732
37.4012
34.8765
36.5552
34.374
37.3435
34.6778
31.8157
33.9287
31.335
33.6349
31.406
33.7845
31.1943
27.3695
30.5674
28.4257
30.6493
28.6536
30.4339
28.4843
23.5089
27.5268
24.1693
28.1508
27.2178
27.9228
26.7653
21.1152
23.0677
20.519
26.9948
26.3329
26.5986
26.1227
41.4118
41.0318
39.3717
43.4312
42.1442
41.0647
40.8254
39.3956
39.0325
37.3194
41.8539
40.6614
40.7533
39.6514
37.6158
36.5946
34.7542
40.1194
38.0151
39.0545
36.7459
35.5375
36.3573
36.2471
36.3231
35.8496
35.6199
35.6744
34.5183
32.9955
34.9002
33.3146
34.316
32.5161
35.093
28.8998
55.3376
41.5119
30.5761
28.4188
55.8333
41.0888
24.2957
37.5438
27.5807
27.7677
26.4438
36.9719
29.2691
20.5296
25.7193
23.0716
26.3325
26.0457
28.514
27.9047
38.7173
39.3066
37.6908
40.3781
40.4804
40.3763
40.1431
37.0024
37.4418
36.5509
40.5173
39.4805
39.9929
38.7791
33.9337
35.7918
33.0404
38.8233
36.3635
38.1713
35.9089
46.4609
54.3619
32.9769
39.4484
37.1578
235.279
33.529
64.8539
74.4855
48.6017
194.801
49.9729
182.479
63.134
46.7438
32.4362
36.1189
60.4041
45.4378
35.1991
38.4987
30.9211
36.5471
35.1288
40.8491
31.8582
38.652
37.0816
24.5564
33.7568
30.1114
30.769
28.97
36.4964
34.2705
37.6269
42.1956
39.5975
40.8892
40.0569
43.2471
39.9868
36.087
38.0393
34.9148
39.6748
38.1727
38.2413
35.6789
33.2237
34.4413
33.3304
37.6836
36.0634
35.4536
35.1387
30.8933
32.9789
31.5178
35.4923
34.1504
35.041
34.5244
30.1409
31.2519
30.4987
33.8345
33.4908
34.5227
34.6426
32.6179
30.4119
30.2792
33.7138
35.9758
34.7868
35.0321
33.9961
30.3203
31.3013
36.6091
37.4795
35.2391
36.1968
31.2253
31.9035
33.435
37.4382
35.6379
36.6646
37.1235
45.5457
45.4879
44.5876
54.9574
54.6135
54.8088
57.7462
41.4543
44.3725
43.075
53.5366
52.4343
58.1566
58.2891
38.8622
42.4898
40.2336
52.5093
52.553
58.1034
56.1214
36.1448
39.2992
36.4111
52.018
51.4409
55.037
52.7605
33.8025
35.5173
33.0458
51.4036
51.8472
52.4635
52.8078
32.2007
32.4755
31.5326
51.683
52.4828
52.9496
54.938
31.658
31.4362
31.3898
52.5722
53.5197
55.6524
56.8633
30.8025
31.4681
31.0796
53.3315
53.1721
56.9868
57.0338
44.2466
42.797
43.3415
54.4246
58.0123
54.0369
58.851
43.1924
43.4409
42.8252
58.7131
59.3568
59.8148
60.973
40.1346
42.2742
39.125
59.1757
55.9985
60.5648
55.6452
36.2852
38.732
55.6855
54.577
51.4602
53.6617
51.1522
32.8388
55.5826
49.0389
50.9287
50.9858
50.6464
49.193
30.848
46.5789
38.7656
51.9429
54.4953
49.9518
54.9324
30.9242
36.1698
32.4552
55.6782
57.39
56.7604
59.2755
31.0053
32.5042
32.3488
57.5898
57.5093
59.3091
58.6168
43.2097
42.6174
43.2875
54.1142
59.4056
55.8235
60.3478
42.7852
43.2147
42.1495
60.3023
61.2516
60.5791
60.5543
38.9068
41.6776
39.1509
60.8436
56.0045
60.5109
58.7281
54.4057
38.2488
36.7258
54.0446
51.8066
57.6283
55.7099
50.2189
36.4092
36.3847
51.3159
49.965
55.5283
56.5812
41.0853
37.0003
39.9215
50.8391
56.1664
57.9802
61.3073
34.4463
40.3412
40.6038
57.9692
59.9115
62.2192
61.7455
33.2892
40.4348
38.0359
59.764
58.7124
61.1787
59.0535
43.1067
45.1789
41.767
56.4194
59.6386
56.0719
52.8627
41.392
39.9479
37.7706
59.5663
59.3407
51.3351
51.9103
39.5734
37.7506
38.1397
59.5243
59.2103
53.0747
55.4444
37.3326
38.146
38.0562
58.8108
58.2635
55.5494
56.7513
36.6457
38.2004
38.9223
58.3729
59.2161
57.4326
59.6541
39.3995
39.204
39.653
59.7997
62.286
59.9479
60.7155
41.5851
39.9258
40.5725
62.8449
62.2808
60.8218
60.5261
39.3917
40.7583
39.7299
61.7722
59.7414
59.973
57.5322
59.3307
59.8796
63.8541
71.7749
73.4748
74.3271
79.7955
58.066
64.3584
64.8237
72.7698
74.0865
80.2933
81.7997
58.8735
64.7825
63.8825
74.6917
76.5144
82.3321
85.6902
58.4331
63.3272
62.3798
76.5211
78.7094
86.8711
89.8824
59.8086
62.374
63.0027
79.3506
81.5565
90.6689
92.1756
61.261
63.4365
66.026
81.6149
83.2469
92.11
90.473
62.6074
66.5219
67.0659
83.3617
84.2757
89.8538
88.9725
61.7723
67.0822
66.2769
84.1756
81.5691
88.9553
86.6055
64.2917
59.7341
65.5131
73.6515
80.4796
75.1222
82.4227
66.0599
66.5945
68.0904
81.3273
83.2709
83.5461
86.4086
64.5083
68.0422
64.9983
84.0222
88.6874
88.0042
95.9741
61.8518
63.2514
60.2223
90.2551
93.5263
98.5752
102.456
62.8152
59.8817
60.6024
94.3319
95.7606
103.329
104.555
66.6053
63.1711
68.6314
95.6187
92.7939
103.89
98.2035
67.895
70.1317
69.9119
91.5718
89.6716
95.5887
90.9009
66.7796
69.4733
67.5363
89.5168
86.7063
90.3459
86.776
66.1349
62.1175
67.0194
75.71
83.2405
78.2833
83.9465
68.4198
67.2911
67.591
84.2229
86.8704
84.211
85.6425
65.5153
67.7388
67.7399
88.4689
96.5609
86.6894
91.9777
61.0702
67.3183
66.7899
99.2729
103.109
93.7625
96.932
61.3563
66.9309
68.2303
103.895
105.033
97.6694
99.0898
69.5917
69.1103
71.8777
104.315
98.3127
98.6982
94.2483
70.072
71.9825
69.9234
95.5842
90.7179
92.4155
89.0352
67.4933
69.2383
66.978
90.1597
86.744
88.6501
86.0829
66.1554
61.195
58.1337
78.3965
82.8179
75.3421
73.6188
66.2717
56.9011
58.1465
82.8774
84.3133
73.0258
75.6425
67.413
59.4872
62.1682
85.2676
89.4755
77.4599
80.4815
67.931
62.3068
64.0162
90.8374
93.7254
80.7204
83.3524
69.3677
64.9083
67.3953
94.4831
95.926
84.4669
86.486
71.9067
67.6099
68.4482
95.649
92.5407
86.5011
87.2207
70.1167
68.5254
68.0397
91.3722
88.786
87.35
86.7482
67.3751
67.3606
64.6271
88.4683
86.4583
86.2878
83.2488
35.5963
35.5474
35.3614
34.1055
35.6558
34.8726
35.4695
40.273
35.4409
53.9304
39.7309
36.9753
35.4577
180.683
46.556
42.1663
73.1514
213.783
40.4509
48.4967
230.54
35.6886
36.3216
36.3287
36.7994
35.5716
35.8162
36.3507
35.7756
34.0686
35.516
35.958
34.824
35.652
36.222
41.1836
40.9849
36.7126
60.2465
35.8554
187.387
38.7539
47.7198
219.571
44.2857
80.9492
49.5509
237.03
42.761
33.8793
32.1947
32.9883
30.9847
33.6858
31.7265
33.0351
47.3932
42.3608
83.6973
201.769
42.0134
48.1839
190.001
46.0999
39.4038
77.777
88.728
41.368
42.2732
129.088
34.6617
33.289
33.0581
35.4708
32.4859
35.2605
34.8315
33.9792
30.8951
32.2128
33.1575
31.6776
33.0532
34.0789
48.061
206.396
44.0891
83.5449
49.0133
193.179
43.4935
46.6328
89.5682
40.223
75.337
42.6457
131.408
42.4333
55.0359
69.8886
46.399
208.446
42.6272
221.016
60.3571
33.1031
32.2461
31.6932
32.4268
32.39
32.5029
31.9696
34.3694
33.8445
31.3491
31.5912
33.0519
35.4874
31.7437
47.5455
41.0027
59.9501
35.8104
230.385
34.4621
40.6974
56.4103
215.385
76.8936
49.5657
228.559
61.3292
46.4524
34.0671
33.3312
35.1293
34.6808
33.4144
32.906
35.3691
35.3816
32.5469
36.8149
34.3885
36.4416
32.7031
36.1409
66.8495
74.7853
53.6286
108.186
52.4499
162.658
66.4255
36.8677
34.3934
30.9625
31.5018
34.927
36.1913
31.537
37.8178
37.1327
31.0936
32.2251
35.7609
39.401
31.7169
65.1071
201.333
76.4975
50.9303
186.623
63.6945
51.8226
66.1264
102.35
73.8349
53.4475
156.319
65.5328
53.1214
37.6732
32.4376
37.1616
33.8701
37.0596
32.4551
37.5338
38.5193
33.1
39.3303
33.9521
40.0339
32.6122
38.1613
179.643
202.939
184.122
114.664
96.1051
110.507
91.9619
159.505
172.478
159.882
87.3366
80.4381
83.7889
77.5566
134.727
148.563
135.942
72.9522
65.4138
71.2607
65.6566
115.593
124.438
115.87
61.1926
59.1182
60.7749
58.3089
101.12
110.277
105.86
56.062
54.0668
56.4889
55.5746
88.4266
99.5763
91.8535
52.0796
48.7223
54.3891
51.5551
82.3978
85.346
82.4585
44.7664
40.441
46.2722
40.5876
77.3256
81.7265
75.2106
38.6657
32.9421
37.9395
28.8168
202.868
209.646
180.63
125.364
106.24
126.485
106.735
147.18
275.061
310.265
180.121
145.636
180.038
270.445
96.9637
247.401
232.115
101.849
102.215
101.42
230.388
90.2741
229.483
219.719
103.917
103.352
91.9264
214.62
79.8347
194.881
197.775
90.0259
87.9941
82.7868
187.884
74.1045
168.847
168.642
79.7408
79.5082
74.9611
168.131
72.3321
162.263
168.408
76.3938
76.3974
72.6798
166.839
62.5178
140.382
152.129
68.5621
65.106
65.0466
148.154
59.2779
126.813
130.979
56.8822
55.4189
61.2492
128.103
78.6185
81.9964
72.4919
31.107
26.5643
30.666
22.9829
157.953
163.307
152.956
93.3168
82.8558
94.1006
78.1441
113.265
229.65
242.792
138.61
117.813
133.07
224.976
88.3504
218.221
217.394
92.0484
88.9706
91.1412
216.825
84.8971
214.214
211.646
86.0693
86.2378
84.9241
208.971
79.4572
183.063
185.887
85.4346
82.839
81.6478
180.092
70.9917
181.759
181.262
72.7249
71.3036
71.5599
187.627
71.063
188.171
193.05
70.7954
70.8427
70.939
191.585
72.0873
170.81
177.336
71.2963
71.9369
72.0942
171.357
64.4733
131.67
138.095
72.1019
68.6124
70.2742
130.255
69.2218
71.4275
60.2316
30.2454
23.0821
28.9055
21.9827
154.381
177.681
150.067
110.655
81.185
108.584
78.5685
108.02
216.632
235.296
131.548
107.86
133.084
213.055
84.6013
212.83
202.895
86.8929
84.8722
86.3194
204.725
76.9828
205.777
204.257
80.0983
78.0466
79.2637
200.643
71.2083
194.636
194.315
73.1574
72.1193
72.036
194.334
70.1775
197.153
198.08
70.8382
70.5873
70.3405
198.465
69.1158
189.31
193.796
69.8083
69.6503
69.3058
190.685
68.538
148.009
161.516
69.0025
67.6758
69.6563
144.475
49.9256
115.371
116.212
57.5399
53.1796
55.8145
112.858
62.1317
82.3705
84.1412
28.0389
22.6394
29.9275
28.1529
142.497
179.258
160.247
84.0682
71.1093
88.4812
84.2324
107.34
193.036
217.953
121.599
101.761
124.699
197.035
82.4434
181.219
181.779
84.5051
82.9414
85.2598
180.473
77.618
171.013
167.034
82.6565
80.3269
78.2423
165.404
73.1868
184.185
170.614
72.9768
71.9232
73.8418
174.773
69.8053
196.478
186.421
70.2372
70.2167
70.0088
189.892
69.9455
197.039
196.932
70.1167
70.0477
69.8924
196.936
69.6595
176.081
194.138
69.8017
72.213
69.3101
190.054
67.6424
115.515
130.277
68.3882
54.328
75.1258
120.326
99.8752
91.8959
100.313
34.112
30.3181
38.5332
33.5546
150.619
179.573
149.813
99.3317
80.6534
99.5304
77.6908
119.659
133.573
123.927
68.1349
58.5873
66.71
61.7184
106.888
114.473
105.555
54.4976
52.1106
57.7835
52.3881
105.385
103.032
99.7715
49.3691
47.618
49.0547
47.0534
109.718
99.272
99.6578
46.2831
45.861
45.7465