/*--------------------------------*- C++ -*----------------------------------*\
  =========                 |
  \\      /  F ield         | OpenFOAM: The Open Source CFD Toolbox
   \\    /   O peration     | Website:  https://openfoam.org
    \\  /    A nd           | Version:  10
     \\/     M anipulation  |
\*---------------------------------------------------------------------------*/
FoamFile
{
    format      ascii;
    class       surfaceScalarField;
    location    "8.8";
    object      phi;
}
// * * * * * * * * * * * * * * * * * * * * * * * * * * * * * * * * * * * * * //

dimensions      [0 3 -1 0 0 0 0];

internalField   nonuniform List<scalar> 
38556
(
1619.09
-1696.22
-3204.04
1797.31
-684.808
506.584
1499.48
-171.562
469.397
1476.01
-35.7467
59.2149
1434.31
-72.4198
114.122
1518.52
-129.669
45.4594
1588.44
-168.193
98.2748
1764.22
-205.685
29.9061
1927.73
-178.513
15.0007
2001.18
-96.954
23.506
1871.94
25.8979
103.336
1637.68
83.9663
150.3
1433.06
99.275
105.343
1336.99
87.5062
8.56798
1297.18
87.0338
-47.2318
1277.98
87.2458
-68.0407
1265.82
81.3383
-69.1806
1259.79
66.9019
-60.8756
1249.51
53.2253
-42.944
41.5602
-30.0887
1931.92
-92.7151
-5625.79
1779.46
243.17
-775.514
1514.87
-150.439
243.466
1459.54
-108.764
128.352
1388.1
-164.609
163.629
1407.12
-155.531
6.84242
1386.77
-181.369
33.525
1389.04
-182.139
-25.8163
1362.29
-143.883
-7.88293
1357.25
-73.4235
-18.4934
1317.73
32.4507
32.9684
1262.95
90.7378
48.0138
1223.23
100.024
38.9683
1197.46
90.0705
23.2053
1186.26
85.6494
12.5826
1179.48
83.1131
10.9132
1156.91
83.2977
20.6114
1118.37
71.574
33.8735
1073.54
65.4185
32.6361
52.9204
15.7332
1220.16
19.6948
-360.074
1840.45
203.891
-581.004
1777.71
-112.392
24.6863
1727.08
-64.0175
5.88348
1515.05
-43.4167
90.8418
1450.99
-34.9796
-56.4976
1326.57
-34.3066
-22.6371
1214.16
-21.6729
-48.0546
1041.53
14.2272
14.517
931.273
50.4008
-13.5669
906.03
56.9765
0.717275
919.645
62.7187
14.4038
945.438
50.8385
23.3927
976.08
43.577
15.8514
998.419
44.5672
18.7437
1007.34
51.7
22.4885
1002.95
66.265
21.4268
988.858
67.3836
18.2811
964.777
74.2449
15.2552
62.1954
8.89786
1556.53
-3077.49
-1798.4
2060.5
-143.303
-156.774
1588.07
58.7237
301.32
1294.81
106.369
122.866
1058.38
97.202
95.8168
1012.33
41.8093
-30.7364
967.877
10.7639
-0.62166
911.895
58.2387
-23.9296
845.818
64.8776
15.4264
799.543
88.1114
8.56479
778.209
67.3273
10.9825
780.807
54.955
5.166
795.25
28.4214
7.97353
814.78
20.1139
3.93343
834.158
18.2761
6.91349
851.047
27.5425
7.26803
861.731
48.3285
7.25231
867.123
55.0209
6.97081
869.824
64.661
6.88287
56.7448
7.33759
1411.6
-1599.34
887.884
1073.08
74.5928
120.628
1087.55
129.678
-85.4274
1116.38
57.9519
19.5888
1091.1
55.5503
66.9273
1055.53
50.9314
26.4486
996.825
11.9564
57.5121
957.096
75.4356
22.5321
912.569
68.9586
40.4459
880.024
103.55
17.1068
853.014
75.8703
18.4676
837.835
61.9495
8.18398
830.737
18.4492
17.0701
829.022
12.1987
9.6302
828.205
11.1838
7.90978
832.98
20.2506
2.51686
838.567
40.9728
1.76804
842.746
50.7118
0.130268
844.608
62.7236
0.0758982
56.8841
2.91074
648.491
-701.954
-394.951
732.765
-56.7236
47.0421
986.563
-77.3707
-46.7491
1146.58
-89.7075
-12.3609
1159.57
-11.9565
54.521
1127.21
88.4206
-5.13059
1079.65
12.5457
46.9733
1027.74
130.941
-3.59741
988.758
90.0557
17.8851
960.297
122.802
9.20942
927.311
84.4008
24.455
884.429
75.6729
29.1589
836.216
29.3003
37.3617
803.015
25.071
20.3288
788.044
20.6357
5.51893
782.949
27.3524
-2.00667
785.821
41.3566
-3.25558
792.016
47.1295
-2.6126
797.455
58.6984
-1.41434
53.3625
3.40553
1982.95
-1058.97
256.917
1077.92
208.661
639.646
891.323
15.9199
93.3114
830.818
-77.2045
48.0016
873.005
-91.6846
37.5416
833.685
142.176
-14.4362
858.759
3.63032
20.5662
-24.2644
6.74787
-19.2081
851.205
24.3884
-7.63314
42.6116
31.8243
47.3036
840.553
29.3523
4.529
17.5599
31.4344
17.832
825.66
31.7329
10.106
31.7837
32.6077
31.4653
798.464
26.9581
29.0006
15.3643
25.9449
14.3286
767.071
21.981
35.1355
14.4687
21.348
14.132
738.853
11.3916
29.3141
1.87852
11.7085
3.22574
720.318
8.75609
14.9764
4.32765
9.87396
5.67153
716.112
20.7644
4.07783
721.805
23.7842
-2.12467
733.527
33.4558
-3.82145
747.28
36.7216
-3.34506
759.51
48.7671
-2.29832
45.9598
3.48464
1203.06
1330.53
2186.23
506.134
827.023
78.564
540.72
345.656
-364.322
713.963
-32.1153
-218.333
799.172
-118.702
-58.1914
204.548
34.7679
-53.8358
213.416
195.333
203.695
58.1209
32.0901
53.2141
215.151
-8.16526
1.19335
-210.413
226.133
8.0187
0.649624
-230.089
226.41
33.6625
-0.630476
-213.966
214.786
28.4715
2.44184
-210.818
210.588
23.7275
3.46042
-200.109
196.799
18.6962
6.59452
-184.849
178.861
11.0638
6.31555
-167.565
168.404
4.43654
3.48098
633.995
9.47133
1.0813
-162.039
-162.949
-157.114
-156.442
2.33115
9.5673
2.86244
644.86
19.3071
-6.38793
659.953
26.7851
-8.42177
679.11
25.2337
-7.66999
698.161
35.9738
-6.25732
34.3986
1.71628
272.543
2498.92
-1238.42
302.502
542.42
254.644
706.519
200.877
-259.238
824.569
32.368
-182.533
210.703
-99.3076
-29.7599
202.566
210.997
210.668
239.108
20.3281
-13.9651
-3.36084
-60.0815
57.2857
5.94401
0.212665
-49.4072
-2.89208
50.4507
4.10414
-2.25556
-52.4112
-11.2416
54.0235
10.4233
-0.794012
-53.2085
-9.02566
54.2942
8.08706
-0.147124
-54.1305
-5.87037
55.6189
3.6685
0.713457
-54.566
-5.31344
55.266
3.76906
0.844311
-50.494
-5.33958
49.6413
5.43613
0.756139
-43.729
-2.12716
43.6184
1.55416
0.683603
-40.4437
161.603
7.16216
2.11643
-41.128
-39.7468
-40.0916
611.504
18.5242
1.50798
-154.896
-156.048
-150.277
-151.009
625.259
14.8762
-1.84576
640.025
15.3909
-4.9228
659.236
21.1076
-4.34562
22.7592
2.73551
-1067.57
1604.81
1285.3
-478.919
249.533
-295.768
258.634
-87.2845
-449.392
284.199
-28.6411
35.4445
86.8999
-211.706
29.1854
88.37
89.7974
102.345
-16.926
103.418
4.12002
-3.71258
-9.90512
-32.7471
35.6381
7.19583
-0.181702
-7.93065
-43.8719
46.4019
6.14621
-0.745631
-10.3886
-53.3738
55.5687
8.42414
-0.230334
-7.5703
-59.3922
59.6625
6.51569
0.784346
-3.2433
-57.4597
56.5134
4.02171
0.167867
-5.66332
-55.1332
55.0298
6.04985
-0.283132
-7.15713
-55.3879
55.5295
6.75525
0.260236
-5.04615
-53.4526
50.6281
6.26018
1.6105
-42.4952
-11.5239
160.917
14.7552
2.45841
-41.9399
-41.3197
-40.8515
623.117
11.3128
1.93834
-157.558
-155.673
-152.566
-152.046
632.533
3.5613
1.89877
638.469
12.7164
-3.26136
647.197
15.3283
-2.9495
16.8343
2.06375
13.5722
496.048
-2170
430.688
895.499
-1063.08
1103.7
304.296
-1064.59
1064.35
191.961
-181.258
170.16
55.6647
59.7202
170.622
199.217
197.264
0.379407
163.64
2.03169
4.10874
-0.391892
-36.9976
37.5504
1.43064
-1.59152
-2.4183
-41.1448
42.8657
2.15208
-1.45478
-4.57727
-47.4364
48.5231
3.90332
-0.412768
-4.98896
-49.7848
50.0186
4.8302
-0.0750619
-5.54928
-50.173
50.3597
5.6168
-0.254209
-6.31672
-51.5201
52.1384
6.06143
-0.362995
-7.265
-52.1478
50.6872
8.07262
0.65305
-8.7845
-44.7198
42.8897
9.33813
1.27651
-38.9764
-16.1333
154.99
18.9082
-3.15767
-38.0642
-39.0541
-38.5128
646.616
11.2238
-18.5884
-156.936
-159.047
-154.483
-157.472
659.14
-7.34018
-1.62319
663.63
13.1137
-4.88716
667.247
16.0109
-4.29991
13.2396
2.44359
66.0803
164.974
3153.61
518.668
1003.15
-560.239
853.826
503.029
-533.891
759.787
366.3
-80.3009
132.226
247.299
-13.7604
145.094
144.333
160.26
-8.76991
119.163
16.7904
5.04318
-2.76141
-32.2747
32.5981
1.52752
0.910569
4.93432
-38.2498
40.6188
-8.01362
0.71033
-0.796725
-47.4032
48.4518
-2.21326
1.96138
-5.27367
-47.2804
47.0379
5.02522
0.490957
-5.0235
-48.0315
48.8818
4.56474
-0.391513
-5.3648
-52.0038
52.8555
5.1372
-0.624151
-7.6059
-54.9631
55.9483
6.89274
-0.272096
-11.9729
-49.8474
45.9531
13.2159
2.65127
-43.0873
-33.2349
177.993
50.3899
-17.4133
-44.5216
-44.2066
-45.9188
752.976
66.1764
-26.2324
-182.681
-207.729
-182.32
-208.966
712.79
30.0399
2.80504
686.218
35.0962
4.59009
673.762
25.2615
3.20496
11.5201
7.83402
-1566.92
433.736
-703.404
-510.262
571.029
-624.533
351.197
299.312
-657.742
508.49
273.575
-64.568
672.874
174.766
-91.8505
167.676
-10.7157
-40.3754
-1.59304
37.4278
-2.06619
37.4036
165.086
160.285
159.746
1.46965
174.096
-3.0339
-1.81726
-2.54165
1.55925
-2.05604
8.70563
-161.903
144.031
-18.0415
1.83932
8.13228
8.86856
8.36751
5.63987
-141.183
136.869
-15.972
2.80817
2.94794
5.77797
3.11202
1.55417
-137.14
145.079
-18.4825
4.23886
1.50479
1.76286
1.48244
-0.0826518
-160.573
172.576
-10.4306
1.63589
-1.29951
-0.18908
-1.63675
-3.10784
-186.125
197.896
6.66035
-2.08158
-4.84963
-3.23837
-5.15392
-6.06126
-213.738
225.02
22.1159
-3.53311
-8.2586
-6.61519
-8.92973
-11.8417
-233.872
243.718
44.1228
0.916963
-14.6532
-12.9069
-15.4837
975.657
144.851
24.5223
-48.9576
-43.0034
-42.2282
-36.9513
-251.167
-245.303
-242.126
-235.292
890.397
122.459
28.9771
776.696
103.113
40.6281
709.329
80.1002
22.3634
674.372
50.9647
9.25413
18.3929
8.22296
-1394.32
102.236
2199.88
-38.0367
-112.525
-672.73
528.054
66.6265
-333.405
683.528
131.013
-12.9119
794.856
130.245
-66.808
757.423
87.1709
-60.4532
726.335
133.721
-30.6561
-2.92305
-32.1138
-4.72146
-32.2189
664.55
27.735
-32.1616
12.2425
19.0958
13.1333
21.7401
618.264
15.8238
4.32748
15.4028
-3.44401
16.9432
-2.76776
581.717
-72.0906
3.54626
30.8206
23.0875
29.9758
21.2076
577.942
-60.5955
8.62069
24.7098
5.88959
21.8284
3.3225
616.776
-42.5487
-8.50366
10.9115
-1.06394
7.31943
-4.94908
678.336
28.4775
-16.6076
-8.77298
-25.6823
-11.0537
-27.9204
725.148
68.3085
10.3302
-25.9451
-36.9938
-26.6447
-35.8675
730.982
107.63
31.3865
704.693
115.36
33.3874
671.338
112.77
23.6978
655.416
88.4144
7.60763
654.323
57.0293
-4.97136
21.8483
-3.77202
173.504
2276.42
3012.22
827.945
851.605
-1618.57
986.849
703.083
-795.361
1057.18
375.841
-315.163
1033.22
279.712
-125.501
1074.1
169.291
-123
1096.65
158.43
-47.2646
1064.07
90.3363
-30.02
945.557
74.5786
59.7601
805.376
14.0617
54.0287
687.409
17.2594
40.1115
606.298
15.4715
23.0915
586.793
42.7844
5.19711
588.295
68.9285
-2.12163
604.913
99.9152
-8.90241
627.516
105.229
-12.4716
658.225
97.9131
-15.8523
690.347
76.7349
-20.4425
724.464
49.5727
-26.6602
25.1556
-18.0801
805.617
1287.6
721.138
1465.19
939.665
-747.629
1353.33
860.127
-45.1932
1305.53
475.296
-51.6521
1166.91
351.278
67.0578
1153.51
191.933
-9.24127
1095.86
169.429
46.6452
1039.39
100.398
46.4166
927.045
101.475
85.4437
824.234
59.1658
57.7073
735.64
56.0935
49.7603
676.585
44.5842
29.9423
653.774
49.8583
15.7366
650.378
61.8783
10.4469
666.673
76.5397
7.08031
700.005
79.3055
-7.40853
748.045
69.8544
-19.9815
795.286
54.6013
-25.1076
836.048
32.9685
-24.1578
21.1704
-12.9947
647.14
-646.048
1507.85
1001.71
541.775
43.3242
838.822
523.611
499.4
896.535
329.266
88.317
862.579
208.669
176.564
883.402
118.476
52.6347
861.91
96.3134
94.6069
838.691
69.7022
53.9153
806.474
66.653
67.0384
780.362
48.8235
36.4547
763.735
38.9697
33.7508
758.515
29.9848
19.8188
762.281
26.9284
19.1639
776.177
31.0774
16.9051
796.614
39.0299
17.0722
825.586
41.6068
8.72736
858.404
35.7064
1.3301
884.882
29.4707
-1.3479
903.273
17.0043
-2.42636
11.6395
5.39492
1909.73
161.133
-631.922
1546.34
589.11
316.047
1078.24
745.667
246.045
1022.96
322.391
62.1581
982.083
178.556
70.9908
969.876
71.8619
58.8211
922.681
53.6825
89.8257
894.522
38.5184
59.3434
854.984
38.2299
67.9605
831.178
29.7063
42.9238
812.336
22.5691
35.2421
806.959
13.1728
22.1888
809.272
6.76873
17.8471
819.344
7.21565
13.7898
833.598
8.52897
16.2465
853.375
7.90648
13.9237
871.289
6.22681
11.565
884.329
4.14979
12.2806
893.675
-4.99956
12.6583
-7.21742
18.0067
-2290.07
-113.885
2011.6
-517.489
710.032
-1893.5
406.722
182.032
-360.576
606.651
107.807
14.6549
781.934
-73.3758
76.6493
836.562
-87.5197
104.754
870.494
-106.568
126.319
892.282
-54.5495
71.2798
897.599
-31.9216
64.8343
897.063
-0.55436
30.7965
889.328
8.13523
22.1688
881.781
18.1378
2.58262
873.941
20.412
-5.80393
870.645
25.4688
-14.9571
870.646
26.5191
-17.9905
873.908
26.6016
-21.957
877.584
25.0309
-22.481
883.562
25.4936
-27.3215
901.581
11.9812
-34.9992
-3.6767
-16.2366
-90.844
3085.48
704.086
-84.898
1251.98
-365.858
1484.62
-124.833
1406.33
4.90646
1316.79
2.02023
1169.01
41.2192
1109.72
4.73308
1069.26
8.54336
1063.83
4.87593
1062.39
9.57796
1070.96
9.56637
1081.18
10.1904
1096.58
10.0695
1112.06
11.0411
1128.38
10.2818
1146.91
6.49849
1172.6
-0.201797
1189.73
-5.13986
-5.93257
586.363
-292.831
-3624.26
1311.58
-89.0613
-129.572
1371.46
122.082
287.437
1400.11
60.6804
-30.1178
1306.64
-10.0138
217.606
1335.38
-43.5377
60.2574
1359.13
-56.2367
130.757
1414.81
-52.892
27.1174
1439.22
-33.6919
24.2849
1445.56
-6.87754
24.0415
1393.63
41.0203
114.249
1317.34
68.676
157.909
1229.89
72.4875
120.314
1165.7
53.3175
19.4376
1124.91
38.641
-45.0793
1095.27
26.8188
-65.2241
1071.97
17.1093
-62.9884
1056.94
6.73609
-52.5797
1038.25
10.8848
-35.1445
15.8174
-27.9905
1154.95
-2193.2
-6342.91
533.074
-98.9259
-143.768
1181.82
-103.384
-179.815
1111.81
33.7702
225.276
1105.77
-56.7774
216.431
1089.55
-46.4798
26.0086
1067.22
-66.7916
66.4098
1057.36
-42.3576
-26.4988
1039.8
-22.8183
-1.18992
1024.79
18.2486
-28.6118
1011.73
57.5547
29.4943
1002.89
82.5612
42.9663
991.864
82.5067
39.9756
979.631
70.1291
18.6273
964.326
58.839
7.68975
948.317
49.7521
3.98793
926.107
46.5271
13.4042
903.18
40.0913
23.4451
880.745
43.2592
22.6965
35.3431
12.4297
1103.56
-2146.25
528.302
1201.61
-320.024
-457.96
1161.18
-213.004
174.737
1215.11
-28.1425
13.864
1130.18
-27.6455
146.642
1079.26
-3.89331
-48.1598
977.94
4.33093
7.55574
893.88
40.4938
-46.8464
821.367
49.4407
14.7713
780.369
61.0618
-15.3819
770.008
61.8032
6.8299
786.026
64.8936
16.054
808.433
54.9784
28.5136
826.606
49.0147
18.7929
835.609
47.7152
20.8643
836.523
48.7261
22.6001
828.489
54.6874
21.3004
815.495
53.5521
17.8149
799.582
57.4834
16.9433
45.151
11.0362
973.327
-2780.25
503.98
772.997
-530.043
253.575
877.274
-191.117
175.155
929.897
-42.6646
84.766
888.734
9.16892
100.165
847.495
32.2771
-25.6683
792.587
39.8303
18.7871
736.303
97.9366
-25.0883
695.052
86.4341
19.6835
667.638
94.3901
2.65081
664.973
62.1813
13.2691
675.766
52.8444
6.423
693.418
32.8318
12.4674
710.49
31.3311
4.54518
724.596
32.2287
8.29376
732.115
41.2606
7.21446
734.814
51.8631
7.37742
735.362
52.2132
7.76206
734.827
56.1384
8.76257
45.2432
10.3927
1366.09
-1223.82
351.459
770.797
-75.0412
260.915
1015.17
-43.0964
-477.825
1000.61
2.4237
-10.9354
938.502
64.0551
74.1492
866.177
103.837
27.2139
799.045
85.6692
78.8051
752.477
144.876
22.1616
721.799
108.307
49.2498
698.144
120.379
14.7731
686.543
69.8686
22.3813
683.453
53.4129
10.7055
686.933
25.9345
20.4866
691.8
25.9605
10.1343
696.067
26.3889
9.48248
700.519
36.013
3.31243
703.675
47.7364
2.73904
705.266
49.5434
1.20877
705.35
54.2786
1.85252
44.6822
6.64334
495.361
-568.307
-1673.02
545.728
126.996
-205.362
733.302
-82.6478
-194.772
846.048
-53.8457
-68.8377
858.516
89.9421
16.1662
820.628
154.667
-18.0717
802.73
76.4461
74.0939
754.783
188.909
0.316153
736.056
113.938
30.9818
718.838
134.228
12.5781
705.053
75.5612
32.547
690.152
63.301
34.1715
680.182
35.045
38.2211
670.958
33.119
22.3944
664.408
29.7137
8.74477
661.818
37.3477
-0.751534
663.161
44.9578
-1.81985
666.365
44.9691
-1.24265
669.935
49.6989
-0.404966
40.6574
7.45152
468.409
200.564
779.712
414.704
31.3237
789.023
527.786
-89.4208
-12.997
542.66
-81.0958
60.3769
652.571
-11.908
29.481
585.699
235.983
-28.8804
630.084
20.9333
26.7072
-8.42552
20.7616
-7.34887
619.291
44.9516
-10.5899
54.5067
48.4622
54.7383
627.06
32.423
13.5333
17.9488
30.7298
16.063
626.264
33.1043
18.6741
31.1935
32.2165
29.9419
622.813
23.384
37.4713
12.943
21.7871
12.4278
616.214
19.4472
41.444
12.8604
18.7455
12.5388
614.059
11.9998
33.4281
4.40261
11.9298
4.75337
609.208
11.1478
16.4537
6.90917
11.5582
6.87754
609.166
27.1578
6.67612
615.405
29.2484
-0.264688
623.347
34.852
-1.65709
632.111
34.7431
-1.88302
641.028
39.7759
-1.29239
33.3035
7.89671
387.581
2025.11
141.485
300.827
421.983
-225.342
264.05
6.49554
-423.46
374.418
-193.309
-216.488
514.147
-137.463
-72.3642
134.462
41.5917
-47.9883
143.178
118.438
127.463
67.3884
42.9012
68.8598
-9.98225
148.96
11.3599
5.05749
-0.677676
-139.159
154.876
27.7726
2.13879
-0.973142
-160.785
161.23
30.9306
2.02019
-3.51007
-152.792
159.37
25.0089
5.02755
-6.83035
-159.003
160.615
19.9551
8.64765
-11.2696
-152.896
155.033
15.459
13.1207
-10.0587
-149.69
151.284
9.10858
11.3555
-5.1455
-145.514
149.847
6.05158
5.90854
565.232
10.2924
2.69444
-144.843
-144.895
-138.469
-139.272
3.5831
10.1556
3.76093
573.223
19.7369
-4.868
581.244
25.0535
-6.64441
592.302
21.7801
-5.76485
604.243
26.774
-5.19601
22.3748
6.86401
536.719
1031.23
-1724.25
153.504
366.485
693.357
418.751
-156.673
-361.318
373.226
-173.528
-156.788
128.339
-198.941
-63.9443
127.823
106.962
105.764
22.1023
166.771
8.10312
-27.0456
0.153485
-4.8033
-47.3241
47.1944
6.05095
-1.27142
3.64689
-40.7387
-5.6366
41.0987
4.85388
-3.22421
1.44509
-40.281
-8.68208
41.4546
7.53205
-1.46871
-0.527624
-40.619
-6.62603
42.1076
5.04536
0.619697
-1.85601
-42.3352
-5.58555
43.6349
4.15409
1.98782
-2.17921
-41.7785
-5.36498
42.2622
4.66745
2.39301
-2.41369
-38.9275
-4.24874
39.3251
3.67518
2.58959
-1.91873
-36.7017
-2.41936
37.5428
1.4619
2.03513
-36.0427
-2.40694
145.804
7.11767
3.10016
-36.2811
-35.3862
-35.6126
553.274
15.7688
6.03276
-140.081
-141.681
-135.289
-136.78
563.502
12.4838
0.496519
571.501
12.4089
-3.55137
583.961
13.4988
-3.52988
12.7208
7.41248
-1040.76
587.754
3512.08
-388.557
304.281
-885.768
144.13
-222.773
-915.978
145.154
-111.308
-27.8006
62.5139
-257.019
-40.0054
78.8604
56.5992
74.4496
4.05236
3.25587
81.3656
-15.7635
-10.3964
0.171245
-6.38508
-29.1938
32.7399
2.99398
-0.326233
1.37752
-6.95191
-39.6766
41.1922
5.37578
-1.31696
0.081957
-7.18557
-44.7449
45.7216
6.15796
-0.0311167
-1.60967
-4.95718
-47.0476
47.007
4.90135
1.70607
-0.639052
-4.76619
-46.219
45.8519
5.19128
0.581125
-0.0317069
-6.58583
-44.6471
44.2676
6.82631
0.170723
-1.19863
-5.30815
-43.0265
42.2745
5.71843
1.54034
-3.28787
-3.85057
-39.2319
38.5112
4.64494
3.21416
-37.1034
-3.15039
-9.17186
144.985
10.744
3.31887
-37.0077
-36.3307
-36.2834
565.834
8.73347
8.30736
-143.497
-144.129
-138.733
-138.809
571.59
2.05007
6.57644
574.501
7.6397
-1.40348
580.778
7.79441
-3.52234
5.4772
6.50258
2902.61
1201.81
180.115
1630.47
884.977
-371.636
1013.86
256.158
-926.906
768.709
148.616
-196.033
144.461
7.2878
7.73593
145.769
131.128
135.029
-15.7515
21.4975
150.856
-21.652
9.51034
-1.07889
4.55099
-35.7487
36.0324
-5.0277
1.2719
0.691039
1.48168
-36.7951
38.2934
-3.63602
-0.0349588
-0.230538
-2.43473
-42.3245
43.0653
1.33922
0.585252
-0.356837
-4.49312
-44.0643
44.2375
4.03324
0.643481
0.372529
-5.87489
-44.5048
44.7631
5.57689
-0.332818
0.780374
-7.12446
-45.692
45.8484
7.07037
-0.882693
-2.16045
-7.91823
-43.8876
42.6764
8.88361
2.40632
-2.10892
-6.75373
-39.7268
39.0824
7.66194
1.84513
-37.5007
6.39055
-13.0531
147.851
16.0082
-8.49758
-37.3585
-36.9723
-36.8673
588.024
-6.93611
-8.52943
-147.058
-149.564
-141.761
-144.03
593.099
-9.8637
5.21539
592.474
5.49232
-2.11513
595.072
4.28281
-3.38635
1.10072
6.33488
2217.97
-508.523
3203.62
1505.43
787.134
250.136
967.373
558.573
-298.244
719.919
379.532
-63.7635
129.304
209.091
-30.1561
141.646
126.69
136.872
-2.24637
12.8803
120.447
2.56932
-4.34671
-2.92103
4.67586
-33.0884
33.8776
-5.41907
2.87508
-2.49696
9.06238
-35.753
36.4061
-9.94919
2.73061
-3.64701
1.01862
-39.2448
39.8226
-1.60675
3.65732
-1.76393
-3.02791
-40.9018
41.3322
2.4235
1.938
0.845361
-4.55436
-43.3521
43.9281
4.10706
-0.974036
1.55787
-6.43345
-45.7809
46.2065
6.21353
-1.76353
-0.461252
-10.6912
-47.4104
47.4018
10.4296
0.731414
-3.79459
-11.843
-46.2224
45.4809
13.3061
3.0731
-44.1534
26.4107
-22.9416
176.233
30.4464
-29.844
-46.4401
-43.7209
-45.9898
659.225
27.8148
-4.49428
-172.526
-194.908
-165.791
-182.489
622.528
14.8719
14.7664
602.429
18.864
11.3176
593.84
8.73532
7.34184
0.860013
12.9541
6.07383
-886.114
-2491.4
298.022
528.61
-657.957
370.945
470.471
-642.564
490.048
314.176
-118.316
555.807
171.318
-119.837
130.669
-39.3929
-53.5131
7.57596
42.1097
11.7874
44.5515
130.166
120.834
120.643
2.68289
0.0464698
129.776
-2.64063
-2.66962
0.0445811
2.92305
0.506788
8.43842
-4.31553
-112.572
102.781
-19.6374
3.88818
6.74595
8.27733
6.39412
5.94964
-4.17968
-108.718
109.72
-20.7659
5.12095
3.53355
5.86494
3.47447
2.18739
-5.59786
-112.403
122.655
-16.6783
5.20887
1.26292
2.21089
1.1534
-0.862883
-1.23804
-139.944
151.199
-2.6977
-0.330467
-2.5544
-0.925608
-2.6461
-3.84775
4.34166
-163.342
173.157
11.8754
-6.23055
-5.96608
-3.91698
-6.07026
-7.89606
5.25681
-186.425
196.332
27.2792
-5.74432
-10.3484
-8.01384
-10.4405
-12.6831
-2.0047
-205.815
216.971
41.5146
2.56216
-14.4659
-12.2489
-13.8306
822.05
98.6022
41.9071
-27.6257
-24.5337
-19.0085
-17.7471
-222.476
-214.071
-212.033
-200.542
738.821
79.8445
60.1767
661.109
69.0918
64.1202
618.083
53.723
30.5308
593.988
27.8813
14.2024
7.26354
12.961
-84.7924
-1186.35
447.863
79.0956
135.552
-443.559
425.61
253.264
-462.711
583.209
181.188
-37.5224
645.532
130.347
-88.1599
585.432
21.2667
-61.0135
551.771
88.6588
-22.2647
-2.56237
-29.0209
-3.59464
-28.2109
494.309
-63.238
-26.5366
24.7501
30.351
28.019
31.9544
469.567
-28.544
9.36538
22.8612
1.08259
23.583
0.722072
459.766
-98.3726
7.93299
30.9532
21.9194
29.9631
20.9512
480.597
-58.159
9.79668
18.5807
0.802131
17.0616
-0.292802
524.925
-36.3615
-10.8547
4.84075
-7.1927
4.20459
-7.46827
572.738
25.2018
-12.3491
-12.1341
-27.8424
-11.5221
-25.7748
605.583
49.8814
27.4344
-22.9784
-31.4769
-19.0181
-26.3567
612.427
77.1278
46.0161
600.723
82.0229
42.9137
587.797
76.553
29.1622
581.008
57.9806
10.1389
579.177
29.1367
-4.39526
6.72874
-0.776473
1472.22
101.167
1452.13
1172.73
363.042
-1546.57
842.322
590.097
-801.788
818.981
249.182
-359.816
754.81
175.372
-106.355
736.195
38.3248
-121.444
730.33
58.1808
-10.9213
685.445
-24.833
-23.5409
651.106
0.850898
64.7041
597.7
-39.1368
48.1998
547.323
-10.8051
43.1345
516.141
-5.99517
23.9071
517.644
20.9757
7.92042
527.75
36.6982
0.955358
546.07
54.799
-4.89406
567.88
57.0798
-9.33847
592.714
49.7225
-13.8556
613.987
35.4112
-19.146
629.161
13.689
-26.3857
1.82552
-15.7052
411.738
600.288
1143.45
639.507
335.599
-947.954
758.449
423.31
2.65214
849.28
190.077
-83.3789
831.42
157.615
102.675
822.6
35.2926
2.6104
782.312
65.284
79.8309
741.754
6.75874
55.3832
698.716
34.281
95.0513
653.615
4.92912
58.7421
619.537
17.2345
55.7983
597.691
12.5458
33.2473
592.336
20.3052
21.7627
599.907
26.613
12.9607
618.815
31.7368
11.2353
644.857
30.8892
-7.2606
671.562
22.6557
-19.6193
692.287
13.5927
-24.0139
706.209
0.582251
-24.974
-5.11177
-8.82829
-170.317
666.884
306.764
197.034
311.103
-299.531
487.973
180.367
451.404
561.6
102.914
101.853
640.58
57.8824
197.316
660.248
9.31284
58.9465
673.428
28.2894
118.422
665.522
12.1321
56.4479
664.53
23.1457
79.1651
659.52
7.87107
38.5225
662.785
7.29801
40.4225
668.088
3.71586
23.3465
677.783
6.27507
23.4986
691.4
13.2561
16.6449
707.622
16.0889
16.4979
725.342
14.721
7.17588
740.399
9.6928
-0.76465
750.256
5.41617
-3.02831
754.548
-3.85946
-2.27605
-5.07669
7.6695
1416.15
1573.23
329.635
1154.12
407.007
482.169
924.22
430.75
225.568
866.943
191.403
30.9457
817.574
121.436
56.8065
798.234
41.6295
45.8452
773.941
38.6941
103.713
762.386
22.01
61.0211
747.121
25.2749
81.0965
736.517
14.3146
47.0838
727.895
8.68263
42.4797
725.083
3.7051
25.0113
726.389
1.8412
20.9751
733.746
3.86353
15.8247
744.419
4.63933
17.0231
756.052
5.1279
11.8844
764.686
2.00913
10.6144
770.515
-0.0175502
11.8854
772.35
-6.80394
13.7684
-5.08418
20.8665
193.724
-1447.27
-1271.36
-274.972
-411.085
-606.714
414.444
-229.223
-390.02
501.54
86.7411
32.221
638.436
0.289543
60.9002
684.467
13.0611
87.2918
743.025
-18.2416
124.696
773.588
5.32959
57.3978
794.408
4.41327
64.8753
800.468
14.4954
24.5559
799.209
12.4815
19.6286
795.294
13.7312
-3.52856
790.391
12.4821
-11.5413
788.125
13.7237
-22.5505
788.231
12.5875
-26.045
790.686
12.142
-31.4265
793.25
8.86768
-31.9028
797.424
3.3762
-34.889
802.378
-13.3698
-33.3879
-14.7076
-7.9493
1937.96
517.141
1872.36
-430.382
1210.04
67.2365
1116.91
55.0368
1039
83.1065
1035.88
18.1989
1011.05
47.8101
1018.96
2.1526
1016.08
15.8339
1026.96
8.49404
1031.97
17.0469
1041.68
13.5895
1049.05
15.301
1059.74
13.1092
1069.31
14.0504
1080.85
10.8855
1090.68
5.54042
1094.82
-0.966872
1077.87
-1.56409
-3.63207
813.066
-1042.42
-3347.45
1154.5
-86.5383
-384.471
1169.91
90.5352
181.497
1131.91
43.7435
-35.8668
1077.03
-23.1531
295.639
1097.94
-18.3175
57.6652
1111.21
-13.0741
130.563
1119.89
-3.54842
21.9827
1097.53
11.5948
35.0596
1072.4
24.0206
25.1423
1051.29
46.9719
88.3867
1049.63
57.8394
101.738
1042.24
53.8612
73.839
1016.52
37.6443
7.51652
977.792
25.9739
-32.3284
944.275
14.2263
-45.9342
916.86
8.59079
-44.1636
894.173
6.26981
-36.1633
862.868
15.8592
-19.6984
14.6735
-16.2788
1986.33
-1555.24
-4586.96
1168.61
-93.0195
680.426
1026.57
6.21492
46.5449
916.841
86.7778
291.973
890.732
-22.3165
241.704
852.543
9.87931
36.0009
843.626
-4.48507
66.7377
823.436
25.5934
-35.451
810.845
32.0236
-9.02753
794.436
48.9825
-37.1645
794.072
65.4237
11.4064
802.089
74.2001
18.5887
806.58
66.9403
22.4048
801.548
54.9039
6.39978
788.324
44.1474
2.74009
772.064
35.2992
-0.824699
755.006
32.8306
6.22263
742.172
29.5354
13.0131
731.593
33.6114
15.5237
25.4287
11.4967
1037.87
-1727.77
1311.14
852.842
-295.961
-69.9889
860.538
-134.647
307.903
890.68
50.2842
20.2161
865.138
9.70683
140.159
818.992
42.4883
-34.622
751.331
48.8849
21.8461
692.973
75.0245
-37.9195
658.716
67.1145
13.9379
637.133
69.1989
-14.0153
639.092
61.5478
8.74624
655.219
62.6371
11.4909
675.261
52.7162
22.6954
686.519
48.6416
13.7966
690.751
45.5765
15.2037
689.615
43.816
15.2197
682.965
46.185
14.595
674.61
43.1358
12.5699
666.623
45.4989
13.0426
33.0035
11.1552
588.863
-1994.87
-850.991
697.264
-288.038
137.252
753.606
-133.113
117.279
780.502
36.0797
72.0749
718.662
66.3221
105.39
664.532
91.6121
-20.6619
626.283
80.3775
25.5429
577.429
121.194
-22.4034
560.71
86.305
17.212
546.136
88.1405
-1.71704
555.499
53.5538
11.9006
569.451
50.3495
4.75877
588.406
34.8067
11.4219
602.11
36.3924
3.08969
612.462
36.7733
6.74551
616.377
41.9728
5.1419
617.68
46.6328
5.62725
617.928
44.1749
6.47487
618.711
46.1764
7.30161
34.2078
11.6976
1248.91
-661.308
-189.199
1074.88
-40.6575
187.57
814.952
41.3175
-392.329
762.717
86.7383
-9.35927
700.147
154.093
48.9493
633.092
170.076
15.8055
606.987
119.348
65.9392
571.393
168.7
10.2497
564.009
103.558
39.3813
551.518
107.621
7.78323
553.266
55.0643
19.1224
558.139
47.5748
8.6074
568.341
29.2324
15.8591
576.754
30.9153
7.19867
583.664
31.6685
7.67724
587.97
38.2124
2.76671
590.456
44.0077
2.87784
591.339
42.3313
2.16925
592.728
44.5479
2.09195
33.5013
9.43006
879.661
-149.034
-3516.22
568.66
35.0244
29.9579
547.197
-2.01289
-129.979
559.704
24.6432
-19.25
566.652
157.682
5.6293
529.297
203.243
-13.8852
574.307
86.4167
62.0158
544.468
203.811
-4.95627
551.365
98.8999
28.7431
543.543
118.701
9.32007
546.076
58.6435
26.4341
547.503
54.7838
25.5363
553.257
34.2522
27.4474
555.95
35.5544
15.0621
557.69
31.6974
6.97599
557.78
37.2268
0.144007
559.398
40.6461
-0.0761498
561.928
37.8697
0.689102
565.918
40.0657
0.087019
29.6845
10.6223
374.09
286.675
2494.6
374.782
141.49
681.865
294.071
-28.7373
94.4385
346.237
-31.7974
64.6513
468.045
53.7119
11.6433
383.722
280.946
-22.2593
456.086
19.5958
23.2861
-8.27869
15.8931
-9.73713
444.325
52.0984
-10.0673
55.506
52.9441
54.5006
468.564
26.8911
14.7461
12.3062
24.2876
9.96347
475.281
30.2625
17.4515
27.616
29.0544
26.2741
488.861
18.6234
30.1179
9.18883
17.0664
7.53762
497.417
17.2473
31.0612
11.5821
16.526
11.2551
509.67
11.3429
24.8659
4.25368
11.1072
3.85826
512.846
11.8207
11.3268
6.83606
11.9241
6.92439
517.252
27.8106
6.15645
523.853
28.989
1.37244
530.418
31.6956
0.728513
537.179
29.0307
0.195049
545.252
31.0276
-0.327172
23.3283
11.331
-108.701
1045.69
2043.33
116.861
204.775
-514.189
88.0749
-37.7517
-385.66
184.259
-184.434
-160.035
337.404
-107.498
-64.2994
84.0535
51.5916
-19.7613
93.5116
70.3324
80.1311
76.8188
54.835
78.8492
-7.32846
97.5094
12.5248
0.94364
-2.36882
-83.9084
103.513
31.8618
3.0008
-3.25404
-112.372
116.124
23.3845
3.00865
-6.18659
-109.887
118.835
20.8969
6.60453
-10.1471
-120.305
124.02
15.514
9.54184
-13.4781
-119.271
125.367
12.312
12.3177
-11.157
-123.654
128.582
7.81613
9.75587
-5.93395
-125
130.528
6.59596
5.63108
494.179
10.2405
4.0108
-126.227
-127.77
-119.424
-121.4
3.40742
10.205
3.28342
500.244
19.2355
-1.17879
505.28
22.5846
-2.56925
512.893
17.5171
-1.86452
522.164
19.8234
-3.26297
14.2671
11.2065
-582.976
13.1469
1674.57
-3.98686
93.1219
226.022
177.479
-228.353
-352.182
159.471
-198.748
-124.467
72.8449
-198.876
-77.0422
73.3093
58.092
59.7005
23.2931
105.859
16.8364
-21.5522
0.763694
-4.26521
-32.194
32.3209
4.77748
-1.40279
2.3734
-28.786
-5.50452
29.7482
4.29144
-2.12251
0.905398
-30.3139
-6.1031
31.5779
4.77879
-0.845059
-0.952233
-31.2801
-5.17892
32.7211
3.77094
0.919252
-2.13356
-32.8523
-4.87887
34.0007
3.82694
2.03705
-2.69151
-32.4904
-4.45968
33.3279
3.72563
2.58804
-2.64148
-31.9557
-3.31499
32.94
2.49412
2.47812
-1.88322
-31.9484
-2.40516
33.0776
1.40063
1.75854
-32.1935
-3.34716
130.621
6.87841
3.94321
-32.428
-31.5122
-31.7213
488.919
13.4171
13.505
-124.667
-126.597
-118.794
-120.515
497.159
10.2058
4.63584
502.081
10.1061
-1.06281
511.965
8.69726
-2.28798
6.70169
11.0916
-107.566
-177.96
6303.95
38.9288
107.451
-1046.59
112.723
-266.928
-951.197
80.8529
-114.991
-79.6869
37.8906
-248.729
-82.158
56.6213
29.8518
48.4953
8.16775
0.802361
56.2801
-18.4409
-8.91867
-0.544827
-4.2866
-23.2984
26.6874
0.973914
0.46844
0.667834
-4.94459
-32.8793
34.203
3.31409
-0.361055
-0.212563
-4.35402
-36.8117
37.3031
3.6743
0.400837
-1.92756
-3.92837
-37.9096
37.8652
4.11207
1.78827
-37.5837
-0.37944
-4.86944
37.3392
5.17273
0.32068
-36.2528
-0.382708
-5.46055
5.86745
0.438707
35.7899
-1.99712
-3.99191
-34.4226
34.0122
4.50198
1.89745
-2.37968
-2.8565
-33.3261
33.2399
3.28493
2.03746
-33.0502
-3.34252
-8.14664
129.812
8.60465
3.63548
-32.9812
-32.3249
-32.2064
498.056
5.12091
17.4818
-128.155
-127.969
-121.998
-120.812
503.219