/*--------------------------------*- C++ -*----------------------------------*\
  =========                 |
  \\      /  F ield         | OpenFOAM: The Open Source CFD Toolbox
   \\    /   O peration     | Website:  https://openfoam.org
    \\  /    A nd           | Version:  10
     \\/     M anipulation  |
\*---------------------------------------------------------------------------*/
FoamFile
{
    format      ascii;
    class       volScalarField;
    location    "8.8";
    object      turbidity_0;
}
// * * * * * * * * * * * * * * * * * * * * * * * * * * * * * * * * * * * * * //

dimensions      [0 0 0 0 0 0 0];

internalField   nonuniform List<scalar> 
12920
(
-0.0309055
-0.0462381
-0.0599286
-0.0756586
-0.0905917
-0.10397
-0.115959
-0.127319
-0.137157
-0.14599
-0.157456
-0.176054
-0.197714
-0.211038
-0.212046
-0.210962
-0.21474
-0.226921
-0.248254
-0.274074
-0.0194912
-0.0371174
-0.0549837
-0.0720938
-0.0855439
-0.0988314
-0.115305
-0.134586
-0.15677
-0.175746
-0.193945
-0.216756
-0.241656
-0.263451
-0.280197
-0.294484
-0.310853
-0.332605
-0.358613
-0.384905
-0.00853864
-0.020041
-0.0356674
-0.0538676
-0.0702839
-0.085024
-0.107648
-0.139066
-0.183205
-0.231307
-0.272249
-0.304013
-0.330214
-0.350679
-0.366449
-0.38072
-0.396661
-0.416575
-0.439031
-0.462441
-0.0169482
-0.0264969
-0.0438628
-0.0680125
-0.0905207
-0.110078
-0.137789
-0.170312
-0.212072
-0.257181
-0.302075
-0.343435
-0.379438
-0.408947
-0.431761
-0.449398
-0.464402
-0.479861
-0.496443
-0.514508
-0.00930756
-0.0335174
-0.0574829
-0.0770229
-0.0946391
-0.115472
-0.139385
-0.16837
-0.20076
-0.236979
-0.274713
-0.313469
-0.352048
-0.389283
-0.422693
-0.450924
-0.474031
-0.493479
-0.5114
-0.528602
-0.0170449
-0.0380145
-0.0541842
-0.0677075
-0.0813047
-0.0977154
-0.11967
-0.146863
-0.178601
-0.213888
-0.251582
-0.293352
-0.338708
-0.384287
-0.424893
-0.457182
-0.48345
-0.506191
-0.527417
-0.546846
-0.0210938
-0.04467
-0.0590985
-0.0792113
-0.0986115
-0.11592
-0.134384
-0.158846
-0.18965
-0.224827
-0.262108
-0.299461
-0.33405
-0.368718
-0.404209
-0.43783
-0.469317
-0.498934
-0.527255
-0.552819
-0.0124771
-0.0370769
-0.047986
-0.0652906
-0.0889814
-0.105019
-0.103259
-0.108944
-0.126669
-0.150437
-0.176591
-0.193804
-0.200881
-0.208759
-0.216651
-0.266228
-0.319121
-0.370915
-0.419677
-0.462392
-0.0192057
-0.0340602
-0.0487487
-0.0656342
-0.0930532
-0.093201
-0.0981106
-0.103937
-0.110999
-0.119393
-0.123907
-0.130812
-0.13722
-0.127346
-0.126887
-0.152075
-0.203247
-0.25566
-0.308742
-0.357384
-0.0531323
-0.063792
-0.063022
-0.107729
-0.13803
-0.126426
-0.11723
-0.111269
-0.107338
-0.103226
-0.0940894
-0.0887725
-0.0886935
-0.0854081
-0.0978146
-0.126117
-0.165723
-0.21118
-0.260106
-0.308646
-0.0547755
-0.0346156
-0.0487081
-0.0797397
-0.120921
-0.130828
-0.133731
-0.119919
-0.104791
-0.0914257
-0.0794604
-0.0701554
-0.0661626
-0.0743937
-0.0933198
-0.123029
-0.160965
-0.201761
-0.246478
-0.293426
-0.0238436
-0.0535103
-0.0643516
-0.104148
-0.153257
-0.158662
-0.158411
-0.152295
-0.133433
-0.101342
-0.0809138
-0.0684342
-0.060808
-0.0645552
-0.0776213
-0.108937
-0.153775
-0.204752
-0.259972
-0.319603
-0.0625136
-0.0628842
-0.0632771
-0.0998857
-0.128592
-0.1547
-0.16017
-0.171964
-0.179063
-0.180737
-0.167171
-0.135795
-0.10576
-0.0848665
-0.102439
-0.137167
-0.191493
-0.264036
-0.346973
-0.434272
-0.0888497
-0.0476984
-0.0589893
-0.0869741
-0.106493
-0.128755
-0.163813
-0.204961
-0.2509
-0.291542
-0.316159
-0.313418
-0.287047
-0.265898
-0.264013
-0.290509
-0.338473
-0.401226
-0.464883
-0.52568
-0.0310197
-0.0243257
-0.0367487
-0.0537297
-0.0737298
-0.0940367
-0.123567
-0.155979
-0.196796
-0.248331
-0.302752
-0.344822
-0.361449
-0.358868
-0.354772
-0.3621
-0.37925
-0.401812
-0.424234
-0.447945
-0.0215325
-0.0230632
-0.0375348
-0.0617228
-0.088917
-0.115928
-0.143267
-0.176196
-0.217185
-0.268393
-0.32142
-0.365997
-0.393957
-0.40572
-0.408118
-0.404867
-0.402578
-0.406932
-0.416717
-0.432109
-0.0193398
-0.039004
-0.0615029
-0.0943675
-0.12271
-0.151834
-0.180395
-0.21485
-0.254221
-0.298672
-0.341819
-0.378974
-0.407101
-0.426223
-0.438421
-0.447205
-0.455362
-0.464953
-0.477126
-0.491886
-0.0161027
-0.049434
-0.0830804
-0.11166
-0.135711
-0.162409
-0.192962
-0.228918
-0.268629
-0.310551
-0.350866
-0.386843
-0.417065
-0.441839
-0.461929
-0.479067
-0.494949
-0.510737
-0.527023
-0.544934
-0.0451103
-0.0513907
-0.0920073
-0.119445
-0.142338
-0.171235
-0.201539
-0.231904
-0.259907
-0.284793
-0.305052
-0.319863
-0.330299
-0.340369
-0.353012
-0.367217
-0.383094
-0.398899
-0.417889
-0.448879
-0.0362948
-0.055027
-0.0603766
-0.0727498
-0.0920482
-0.121624
-0.157613
-0.19564
-0.230718
-0.261941
-0.28873
-0.311619
-0.331215
-0.348567
-0.364524
-0.379641
-0.394032
-0.40683
-0.41702
-0.424925
-0.00608527
-0.0198969
-0.0182096
-0.0134711
-0.0207738
-0.0281816
-0.0377085
-0.042899
-0.0517783
-0.0651087
-0.0800998
-0.0854885
-0.0730388
-0.0519598
-0.0367314
-0.0276141
-0.0227868
-0.0205904
-0.0198957
-0.0198713
-0.00362295
-0.019715
-0.028141
-0.025388
-0.0270406
-0.027561
-0.0367349
-0.0460693
-0.0593696
-0.0729576
-0.0865286
-0.0934878
-0.0948545
-0.0944273
-0.0955923
-0.0993483
-0.104525
-0.105231
-0.0940053
-0.0757902
-0.00239269
-0.00642238
-0.0119977
-0.0106359
-0.012883
-0.0174372
-0.0295534
-0.0424625
-0.055347
-0.064455
-0.0768573
-0.0889429
-0.100522
-0.108656
-0.114458
-0.116025
-0.111057
-0.100056
-0.0872809
-0.0770576
-0.00343679
-0.00770093
-0.0145176
-0.0124534
-0.0147559
-0.0188696
-0.0293439
-0.0388169
-0.0482976
-0.0500834
-0.0529334
-0.0567129
-0.0637372
-0.0685267
-0.0721934
-0.072004
-0.0694235
-0.0652027
-0.061909
-0.0616212
-0.0107656
-0.0133324
-0.0110925
-0.0124775
-0.0196882
-0.0246632
-0.0373617
-0.0473159
-0.0581894
-0.0617528
-0.0679368
-0.0715631
-0.0734227
-0.0675267
-0.0599405
-0.0511485
-0.0443442
-0.039921
-0.0389277
-0.0408514
-0.00369696
-0.00857415
-0.00567524
-0.0067557
-0.01392
-0.0164125
-0.0248977
-0.0330347
-0.0478417
-0.063369
-0.081488
-0.0927567
-0.0920841
-0.0764056
-0.0562979
-0.0418127
-0.0336052
-0.029576
-0.0286438
-0.0304456
-0.00422705
-0.0141763
-0.00706937
-0.00831068
-0.0155416
-0.0183771
-0.0278198
-0.0372895
-0.0540813
-0.0722762
-0.0872542
-0.0898184
-0.0769781
-0.0564358
-0.0385574
-0.0280306
-0.0231279
-0.0214316
-0.0220098
-0.0256136
-0.00533657
-0.00644615
-0.00705862
-0.00889021
-0.0141927
-0.0164977
-0.0220363
-0.0298289
-0.0453696
-0.0693903
-0.0923615
-0.104461
-0.0928146
-0.0617523
-0.0220479
-0.0169984
-0.0158396
-0.0166618
-0.0190262
-0.0243221
-0.0108046
-0.0135929
-0.0101852
-0.0124397
-0.0217321
-0.0244401
-0.0256891
-0.0269138
-0.0401382
-0.0672491
-0.0913138
-0.101158
-0.0966817
-0.0714238
-0.0242759
-0.0133442
-0.0144709
-0.0174327
-0.0221167
-0.0295071
-0.0166688
-0.0144623
-0.0123132
-0.0196905
-0.0224974
-0.020377
-0.0241672
-0.0254929
-0.0416205
-0.066229
-0.0667832
-0.0621437
-0.0707851
-0.0679725
-0.0288934
-0.022862
-0.0225794
-0.0246131
-0.0288312
-0.0345271
-0.00179329
-0.00669242
-0.0140163
-0.0213142
-0.0326777
-0.0353741
-0.030413
-0.0269622
-0.0303154
-0.0320854
-0.0287181
-0.0323599
-0.052886
-0.0640711
-0.0549818
-0.0518464
-0.0457164
-0.0410391
-0.0402443
-0.0433382
-0.0343224
-0.028673
-0.0203057
-0.0210518
-0.0251091
-0.0290854
-0.0422686
-0.055002
-0.0776032
-0.0564911
-0.0282738
-0.0227247
-0.0368351
-0.0564377
-0.0573644
-0.0619761
-0.063718
-0.0631287
-0.0643669
-0.0697596
-0.0170996
-0.0177071
-0.0153523
-0.0180808
-0.0202676
-0.0247712
-0.0287955
-0.0495518
-0.0666231
-0.0688482
-0.0583753
-0.0472484
-0.041671
-0.0444553
-0.0595322
-0.0712214
-0.0816431
-0.0850466
-0.0846064
-0.0840796
-0.0208945
-0.01411
-0.0136385
-0.0160726
-0.0193373
-0.0259241
-0.0370186
-0.0527867
-0.0671484
-0.0757033
-0.0747284
-0.0700395
-0.0688638
-0.0739648
-0.0792594
-0.0789895
-0.0743404
-0.0677762
-0.0652319
-0.0680212
-0.00996413
-0.0108258
-0.0108736
-0.0120782
-0.0163809
-0.0257729
-0.041367
-0.0592489
-0.0807858
-0.092727
-0.0910496
-0.0809085
-0.0666727
-0.0588615
-0.0545819
-0.0515155
-0.0497199
-0.0498679
-0.0528906
-0.0596901
-0.00672012
-0.00818736
-0.0103733
-0.0154945
-0.0248321
-0.0373716
-0.0567497
-0.0752528
-0.0936198
-0.10106
-0.100223
-0.0910404
-0.0770785
-0.0637259
-0.0529787
-0.0456063
-0.0429148
-0.0437979
-0.0482428
-0.056863
-0.0161258
-0.0242208
-0.0318775
-0.0353799
-0.0497727
-0.0613571
-0.078864
-0.0929241
-0.108182
-0.115075
-0.118523
-0.115597
-0.110937
-0.103666
-0.0967221
-0.0885334
-0.082562
-0.083046
-0.0904201
-0.103917
-0.00870571
-0.0253223
-0.0284215
-0.0311426
-0.0436583
-0.059518
-0.0827102
-0.10245
-0.118745
-0.123321
-0.121728
-0.11655
-0.114148
-0.115214
-0.120725
-0.127412
-0.13625
-0.148476
-0.163009
-0.178436
-0.0552295
-0.0188592
-0.0278671
-0.0445938
-0.0642612
-0.0791562
-0.0947522
-0.10231
-0.103053
-0.0904711
-0.0717556
-0.0514681
-0.0385168
-0.0323268
-0.031166
-0.0334317
-0.0386203
-0.0473072
-0.0613052
-0.0841569
-0.0090802
-0.0125419
-0.0167688
-0.0253065
-0.0343024
-0.0393998
-0.0427107
-0.0419124
-0.0425478
-0.0427452
-0.0433897
-0.0447159
-0.0471947
-0.0503302
-0.0538746
-0.056004
-0.0552525
-0.0521996
-0.0494614
-0.0477357
-0.00382214
-0.00495421
-0.00662684
-0.00923753
-0.014969
-0.0202634
-0.0265903
-0.0325029
-0.0393804
-0.0454379
-0.0489114
-0.0449107
-0.0347145
-0.0249686
-0.0188822
-0.0153061
-0.0131739
-0.0118893
-0.0112555
-0.011263
-0.00162731
-0.00790732
-0.0106381
-0.0121187
-0.0155598
-0.0190863
-0.025221
-0.029797
-0.0360338
-0.040157
-0.0439234
-0.043937
-0.0423903
-0.0402715
-0.0383276
-0.0363644
-0.0342264
-0.0310715
-0.0273151
-0.0257646
-0.00452193
-0.00515142
-0.00643895
-0.00617429
-0.00831281
-0.0119099
-0.0176125
-0.0215206
-0.0256588
-0.0291346
-0.0339556
-0.0376833
-0.0407538
-0.0416049
-0.0407853
-0.0383098
-0.0347636
-0.0315327
-0.0303664
-0.0316213
-0.00181616
-0.00463506
-0.00659349
-0.00776627
-0.00965683
-0.0119087
-0.0157949
-0.0178495
-0.0197419
-0.0199374
-0.020682
-0.02115
-0.0218519
-0.0219578
-0.0220823
-0.0219426
-0.0221088
-0.0227615
-0.0242209
-0.0261686
-0.00237634
-0.00616223
-0.00657896
-0.00867183
-0.0119538
-0.0146602
-0.0198861
-0.022445
-0.0256232
-0.0257264
-0.0261646
-0.0247236
-0.0227689
-0.0198497
-0.0177675
-0.0165212
-0.0162425
-0.0166123
-0.0174849
-0.0184069
-0.00638333
-0.00532508
-0.00472146
-0.00614823
-0.00945814
-0.0132153
-0.0192216
-0.0243911
-0.0307741
-0.0347573
-0.0370835
-0.0345815
-0.0286385
-0.0213842
-0.0161415
-0.0134963
-0.0125918
-0.0125649
-0.0130287
-0.0137322
-0.0027142
-0.00732773
-0.00528266
-0.00688417
-0.0114079
-0.0163022
-0.0235017
-0.0294707
-0.0351891
-0.0377075
-0.0362791
-0.0302872
-0.022159
-0.0155517
-0.0119011
-0.0104752
-0.0103761
-0.011063
-0.0123982
-0.0144617
-0.00329591
-0.00404593
-0.00454028
-0.00588114
-0.00919709
-0.0143972
-0.0176219
-0.0261423
-0.0340863
-0.0413013
-0.0439918
-0.0383471
-0.0260684
-0.0151872
-0.0089777
-0.00930318
-0.0104654
-0.0122109
-0.0144395
-0.017127
-0.00376685
-0.00953831
-0.00563344
-0.00638194
-0.00859243
-0.0109444
-0.0144541
-0.0221426
-0.0310002
-0.0408983
-0.0456277
-0.0426585
-0.0299668
-0.0153332
-0.0083158
-0.0106988
-0.0129088
-0.0153274
-0.0177475
-0.0200405
-0.0071561
-0.00733824
-0.00845153
-0.00866951
-0.00827619
-0.00848954
-0.0112687
-0.0164946
-0.0238602
-0.029264
-0.0302243
-0.03401
-0.0322043
-0.0186163
-0.0114648
-0.0157714
-0.0170253
-0.0186697
-0.0205403
-0.0224988
-0.00520478
-0.00884958
-0.0127511
-0.0130149
-0.012016
-0.0114678
-0.0130958
-0.0152481
-0.014806
-0.0153066
-0.0184171
-0.0258328
-0.0324301
-0.0301082
-0.0356559
-0.0327417
-0.0281004
-0.0257572
-0.025561
-0.0265725
-0.0198044
-0.0115205
-0.00969238
-0.0104978
-0.0123015
-0.0141323
-0.0187075
-0.0250563
-0.0279575
-0.0238414
-0.0221761
-0.0265895
-0.0354985
-0.0430165
-0.0522957
-0.0474895
-0.0407539
-0.0354908
-0.0329242
-0.0322243
-0.0165952
-0.0105258
-0.00985684
-0.0120109
-0.0139396
-0.0173918
-0.019755
-0.0284168
-0.0362749
-0.0392138
-0.0408129
-0.0423519
-0.0445475
-0.0480168
-0.0553434
-0.0538049
-0.0484428
-0.0412869
-0.0357498
-0.0325571
-0.0149124
-0.011278
-0.0102987
-0.0121345
-0.0146185
-0.019148
-0.0255497
-0.0321866
-0.0363699
-0.0377406
-0.0381154
-0.0395538
-0.0424631
-0.0444781
-0.0431195
-0.0388023
-0.0344113
-0.0312816
-0.0302679
-0.0309545
-0.0184358
-0.0139265
-0.00937531
-0.0108981
-0.0148602
-0.0209614
-0.029563
-0.0365329
-0.0423658
-0.0419924
-0.0376798
-0.0329188
-0.0298072
-0.0284588
-0.0277048
-0.0270978
-0.0272272
-0.0284441
-0.0308594
-0.0342808
-0.0108233
-0.011249
-0.0133519
-0.0162302
-0.020692
-0.0267343
-0.0363608
-0.0434544
-0.0481692
-0.0457772
-0.0407272
-0.0345525
-0.0296065
-0.0265985
-0.025538
-0.0259837
-0.0278863
-0.0310923
-0.0355201
-0.0408138
-0.0327829
-0.0188414
-0.0183289
-0.0182313
-0.02452
-0.0297857
-0.0403517
-0.0470415
-0.0522756
-0.0512672
-0.0487106
-0.0445841
-0.0415064
-0.0393501
-0.0389549
-0.0398239
-0.0424267
-0.0466001
-0.0518023
-0.0571431
-0.00524386
-0.0168942
-0.0175788
-0.0176176
-0.0215683
-0.0296177
-0.0429692
-0.0516785
-0.0559053
-0.0523608
-0.047482
-0.04333
-0.0426217
-0.0448739
-0.0498217
-0.0559471
-0.0629525
-0.070321
-0.0772103
-0.0815743
-0.0106525
-0.011981
-0.0170615
-0.0257415
-0.0360218
-0.0430052
-0.049284
-0.0480455
-0.0429237
-0.0332491
-0.0247206
-0.0189861
-0.0167845
-0.0171155
-0.0192586
-0.0228402
-0.0279145
-0.0347607
-0.0442307
-0.0570132
-0.00513758
-0.00761885
-0.0132949
-0.0195788
-0.0233615
-0.0242574
-0.0243803
-0.0238833
-0.0232441
-0.0219675
-0.0205034
-0.0191455
-0.0184085
-0.0182487
-0.0185828
-0.0189585
-0.0191754
-0.0195253
-0.0206752
-0.0234152
-0.00216304
-0.00442453
-0.00658557
-0.00902167
-0.0132417
-0.0162693
-0.0204044
-0.023236
-0.0258626
-0.0264423
-0.0252321
-0.0209615
-0.0159011
-0.0121129
-0.00995376
-0.00876316
-0.008254
-0.00832888
-0.00894789
-0.0101421
-0.00285055
-0.00709059
-0.00594576
-0.00835092
-0.0114982
-0.0131342
-0.0157772
-0.0161623
-0.0173744
-0.017444
-0.0176218
-0.0163357
-0.0149255
-0.0134487
-0.0125352
-0.0121843
-0.012546
-0.0134122
-0.0148277
-0.0169119
-0.00238461
-0.00404749
-0.00457187
-0.00491886
-0.00661096
-0.00844696
-0.0108389
-0.0119087
-0.0132998
-0.0140627
-0.0151508
-0.0154359
-0.015587
-0.0152012
-0.0148882
-0.0147987
-0.0151351
-0.0159808
-0.0173538
-0.0189338
-0.00169419
-0.00340277
-0.00486981
-0.00565221
-0.00676239
-0.00775237
-0.00949648
-0.0101147
-0.0107001
-0.01066
-0.0107446
-0.0106755
-0.0107687
-0.0108949
-0.0112988
-0.0118948
-0.0127114
-0.0136227
-0.0145934
-0.0154288
-0.00186731
-0.00294387
-0.00432851
-0.00617052
-0.00847362
-0.00987985
-0.0123453
-0.012699
-0.0131494
-0.012151
-0.0114553
-0.0104742
-0.00981864
-0.00934792
-0.0093127
-0.00957227
-0.01005
-0.0106158
-0.0112548
-0.0118621
-0.0019308
-0.00300557
-0.00388569
-0.00648838
-0.00961891
-0.0121993
-0.0155324
-0.0163523
-0.0170545
-0.0157686
-0.0141669
-0.0118083
-0.00971746
-0.0082928
-0.00776021
-0.00783504
-0.00823402
-0.00879271
-0.00948443
-0.0103014
-0.00262371
-0.00450673
-0.00460611
-0.0077433
-0.0115902
-0.0145155
-0.0166585
-0.0171034
-0.0164459
-0.0148274
-0.0124051
-0.00987269
-0.00796542
-0.00708434
-0.00704066
-0.00748491
-0.00822736
-0.00918872
-0.0103597
-0.0117892
-0.00123313
-0.00198867
-0.00339958
-0.00541079
-0.0086483
-0.0125425
-0.0140529
-0.0165429
-0.0170967
-0.0165311
-0.0142586
-0.0107323
-0.00789802
-0.00668302
-0.00727098
-0.00802715
-0.00887731
-0.00980416
-0.0108133
-0.0119546
-0.00130929
-0.00287339
-0.00258293
-0.0042892
-0.00651826
-0.00890399
-0.0114528
-0.0143925
-0.0163752
-0.0172142
-0.0148333
-0.0110527
-0.0077061
-0.00662926
-0.00753704
-0.00922191
-0.00993108
-0.0105757
-0.0112299
-0.0119548
-0.0118906
-0.00673138
-0.00480276
-0.00560525
-0.00678782
-0.0073776
-0.00914621
-0.0117011
-0.0136693
-0.0135529
-0.0122005
-0.0115977
-0.0092552
-0.00837325
-0.0100632
-0.0127677
-0.0136199
-0.0144963
-0.0153854
-0.0162426
-0.00294135
-0.00872396
-0.0125734
-0.0104394
-0.00907877
-0.00956162
-0.0117949
-0.0137067
-0.0128085
-0.0115197
-0.011831
-0.0155278
-0.0175069
-0.0185821
-0.0202791
-0.0188016
-0.0179434
-0.0180432
-0.0188037
-0.019849
-0.0030557
-0.00871785
-0.0101768
-0.00961871
-0.0108143
-0.0124959
-0.0150847
-0.0188758
-0.0221744
-0.0226146
-0.0219136
-0.023811
-0.0305875
-0.0389086
-0.0405886
-0.0262283
-0.0212447
-0.0188785
-0.0182296
-0.0183861
-0.00611474
-0.00912207
-0.00852377
-0.00917118
-0.0107603
-0.0133994
-0.015015
-0.0203326
-0.0228469
-0.0264558
-0.0319708
-0.0389792
-0.0461879
-0.051013
-0.0380128
-0.0307184
-0.0240661
-0.0194801
-0.0171818
-0.0163108
-0.0192409
-0.0115417
-0.00862477
-0.00954264
-0.0116929
-0.014728
-0.0173447
-0.0188976
-0.0198341
-0.0201433
-0.0212203
-0.022456
-0.0237222
-0.0235883
-0.0214489
-0.0187546
-0.0168772
-0.0158202
-0.0155101
-0.0156384
-0.0056121
-0.00584517
-0.00722874
-0.00984007
-0.0131489
-0.0166114
-0.020342
-0.0213044
-0.0216924
-0.0199914
-0.0183402
-0.0172132
-0.0166269
-0.0163083
-0.0161045
-0.0160246
-0.0161455
-0.0164849
-0.0169843
-0.017467
-0.00371744
-0.00832936
-0.0106093
-0.0125438
-0.0158336
-0.0186593
-0.0227999
-0.0236662
-0.0234966
-0.0211274
-0.0192948
-0.0181258
-0.0177634
-0.0179274
-0.0183936
-0.0189574
-0.0196287
-0.0203562
-0.0211177
-0.0217544
-0.0119398
-0.0109081
-0.00971351
-0.0111658
-0.0142685
-0.0171657
-0.021937
-0.0233679
-0.0242174
-0.02302
-0.0224722
-0.0222338
-0.0227887
-0.0236553
-0.0247191
-0.0255592
-0.026119
-0.0264063
-0.026546
-0.0262986
-0.00944706
-0.0125879
-0.0121736
-0.0122062
-0.0136441
-0.016737
-0.0219574
-0.0234746
-0.0238555
-0.022219
-0.0218442
-0.022663
-0.0249216
-0.0278281
-0.0309541
-0.0335435
-0.0353893
-0.0363358
-0.0364527
-0.0350861
-0.0184464
-0.0160286
-0.0169931
-0.0180676
-0.0199199
-0.0191566
-0.0196489
-0.0170336
-0.0151108
-0.0128125
-0.01192
-0.0122199
-0.0134957
-0.0154994
-0.0180619
-0.0211568
-0.0247747
-0.0288604
-0.0335103
-0.038353
-0.00173956
-0.00528816
-0.0111341
-0.0150642
-0.0166812
-0.0160588
-0.0154227
-0.0145852
-0.01407
-0.0133575
-0.0126292
-0.0119206
-0.0114576
-0.0112573
-0.0113788
-0.0118908
-0.0130209
-0.0150356
-0.0182018
-0.0225384
-0.000603253
-0.0034799
-0.00593665
-0.00774728
-0.00999028
-0.0109758
-0.0127058
-0.0129292
-0.0130873
-0.0119503
-0.0105414
-0.00868067
-0.00746178
-0.00718696
-0.00774296
-0.00881993
-0.0101672
-0.0116044
-0.0130421
-0.0144425
-0.000891054
-0.00273691
-0.00475698
-0.0078787
-0.00942323
-0.00980285
-0.00989962
-0.00923571
-0.00869331
-0.00814155
-0.0080527
-0.00815608
-0.00865222
-0.00931362
-0.0100778
-0.0108267
-0.0115434
-0.0122347
-0.012941
-0.013652
-0.00337175
-0.00288089
-0.00388621
-0.00549331
-0.00675965
-0.0075436
-0.00788367
-0.00782553
-0.00800513
-0.00818463
-0.00868809
-0.00917725
-0.00981301
-0.0104081
-0.0109943
-0.0115004
-0.0119208
-0.0122481
-0.0125362
-0.0127767
-0.000715027
-0.00236971
-0.00376972
-0.00507457
-0.00625548
-0.00688766
-0.00720741
-0.00722407
-0.00738096
-0.00763273
-0.00809731
-0.00864575
-0.00925549
-0.0098413
-0.0103705
-0.0108058
-0.0111547
-0.0114259
-0.0116698
-0.0118904
-0.00091924
-0.00281757
-0.00435318
-0.0060527
-0.00722406
-0.00747787
-0.00764359
-0.00722736
-0.00710277
-0.00705042
-0.00735691
-0.00782166
-0.00839293
-0.00899865
-0.00957526
-0.0100942
-0.0105453
-0.0109372
-0.0112935
-0.0116092
-0.00167163
-0.00250989
-0.00442149
-0.00672346
-0.00805679
-0.00809054
-0.00810955
-0.007358
-0.00708268
-0.00682772
-0.00697952
-0.00731338
-0.00784192
-0.00849236
-0.00917735
-0.00984793
-0.010485
-0.0110908
-0.0116661
-0.0121873
-0.00174379
-0.0033064
-0.00484034
-0.00682015
-0.00770497
-0.00766277
-0.00703365
-0.00677482
-0.00650911
-0.00653412
-0.00672018
-0.00711026
-0.00770163
-0.00840892
-0.00916951
-0.00994005
-0.01071
-0.0114793
-0.0122328
-0.0129298
-0.0006456
-0.00151883
-0.00376991
-0.00534232
-0.00639355
-0.00684206
-0.00669611
-0.0067717
-0.00631778
-0.00624823
-0.00622556
-0.00650127
-0.00702558
-0.00769399
-0.00915809
-0.00985408
-0.0105194
-0.0111668
-0.0117896
-0.0123356
-0.0010876
-0.000784276
-0.00234652
-0.0041648
-0.00525409
-0.00601756
-0.00625224
-0.00606886
-0.00604243
-0.00580224
-0.00578595
-0.0061741
-0.00675686
-0.00732842
-0.00825257
-0.00977494
-0.0102829
-0.0107295
-0.0111398
-0.0114955
-0.000336755
-0.0017884
-0.00431995
-0.00514766
-0.00614631
-0.00635863
-0.00668543
-0.00664365
-0.00615712
-0.00574425
-0.00612839
-0.00715369
-0.00827214
-0.00905535
-0.0101703
-0.0113517
-0.0115172
-0.0115858
-0.011616
-0.0116818
-0.000705305
-0.00768084
-0.0083547
-0.00708661
-0.00793952
-0.00900281
-0.0106074
-0.0112774
-0.00999572
-0.00876943
-0.00908959
-0.0106919
-0.0117471
-0.0123377
-0.0128952
-0.0129027
-0.0128933
-0.0128431
-0.0127789
-0.0127822
-0.0038044
-0.00899992
-0.0107694
-0.00978768
-0.00965842
-0.0103845
-0.0111218
-0.012671
-0.0148567
-0.0152726
-0.01592
-0.0183368
-0.0202447
-0.0183003
-0.0140568
-0.0124123
-0.0118429
-0.011628
-0.0115514
-0.0115693
-0.00268915
-0.00653154
-0.00947845
-0.00963681
-0.00940531
-0.00985704
-0.0104419
-0.0122911
-0.0129027
-0.0150905
-0.0178553
-0.0213728
-0.0224943
-0.0212396
-0.01419
-0.0123025
-0.0109878
-0.0103443
-0.0101704
-0.010262
-0.00615347
-0.00671685
-0.00712796
-0.00809135
-0.00903245
-0.00987626
-0.0104701
-0.010652
-0.0108613
-0.0109468
-0.0110069
-0.0110023
-0.010903
-0.0107128
-0.0102271
-0.00981556
-0.00966172
-0.00967196
-0.00985913
-0.0101758
-0.00200426
-0.00427186
-0.00617668
-0.00850905
-0.00991934
-0.010749
-0.011524
-0.0112657
-0.0112728
-0.0108919
-0.0105851
-0.0103053
-0.0100093
-0.00976955
-0.00959224
-0.0095088
-0.00952913
-0.00966349
-0.0099174
-0.0102652
-0.00488552
-0.0058187
-0.00841398
-0.0102439
-0.0111997
-0.0116304
-0.0124257
-0.0121804
-0.0120955
-0.0117574
-0.0115543
-0.0113565
-0.0111169
-0.0108512
-0.0106056
-0.0103739
-0.0102871
-0.0103268
-0.0105054
-0.0107871
-0.0037582
-0.00536102
-0.00703445
-0.00925756
-0.0103396
-0.0112791
-0.012422
-0.0126782
-0.0131818
-0.0133233
-0.0135358
-0.0135332
-0.0134229
-0.013107
-0.0127322
-0.0122549
-0.0118352
-0.0115783
-0.01152
-0.0115551
-0.00903444
-0.00651438
-0.00620183
-0.00779664
-0.00907723
-0.0101718
-0.0116342
-0.0121283
-0.0132107
-0.0140774
-0.0151604
-0.015992
-0.0166245
-0.0168862
-0.0169225
-0.0166228
-0.0161936
-0.015694
-0.0152633
-0.0148307
-0.0163566
-0.0110489
-0.0103473
-0.0103239
-0.0101392
-0.00906768
-0.00879929
-0.0084629
-0.00915648
-0.0104902
-0.0124551
-0.0147754
-0.0172372
-0.0196773
-0.0219453
-0.0239629
-0.0257151
-0.0272611
-0.0286828
-0.0301003
-0.0025719
-0.00894698
-0.0122669
-0.0124988
-0.0121689
-0.0109112
-0.00994192
-0.00876151
-0.00785347
-0.00716676
-0.0071456
-0.00793639
-0.00975035
-0.012585
-0.0162162
-0.0203647
-0.0246491
-0.0289263
-0.0328163
-0.0366101
-0.0300045
-0.0171832
-0.0185861
-0.018382
-0.0178489
-0.0137587
-0.0148742
-0.032837
-0.0195663
-0.0244383
-0.0176306
-0.0170058
-0.0155243
-0.0178349
-0.0172912
-0.0194915
-0.0188658
-0.0135711
-0.0143314
-0.0200817
-0.0195282
-0.023612
-0.0194716
-0.023599
-0.0149582
-0.0178327
-0.0196133
-0.0213924
-0.102593
-0.100743
-0.105638
-0.0938787
-0.0851347
-0.0967555
-0.100544
-0.108554
-0.106409
-0.107245
-0.0836512
-0.0937808
-0.0988541
-0.0987841
-0.117207
-0.107386
-0.106899
-0.0998306
-0.11511
-0.100749
-0.104633
-0.122887
-0.106138
-0.100753
-0.119016
-0.126137
-0.104876
-0.104112
-0.128322
-0.0984913
-0.0945944
-0.128421
-0.133844
-0.104051
-0.105578
-0.137006
-0.0950451
-0.0980038
-0.135456
-0.134829
-0.106258
-0.104531
-0.129902
-0.0980986
-0.093883
-0.132529
-0.120644
-0.102703
-0.0956692
-0.12388
-0.0923466
-0.090687
-0.116386
-0.103577
-0.092825
-0.080081
-0.112403
-0.125507
-0.117521
-0.111557
-0.101329
-0.120449
-0.104145
-0.108146
-0.114657
-0.106419
-0.0985055
-0.0995573
-0.0987954
-0.0920921
-0.104591
-0.103775
-0.0957762
-0.100691
-0.101685
-0.0913918
-0.0886417
-0.0966425
-0.0930667
-0.0850245
-0.101331
-0.0986098
-0.086939
-0.0767998
-0.0891188
-0.0824418
-0.07571
-0.0975348
-0.0956579
-0.072555
-0.0643273
-0.0890442
-0.0739616
-0.0702644
-0.0957898
-0.0943949
-0.0637903
-0.0675791
-0.0857915
-0.0698158
-0.0732037
-0.0933982
-0.0900975
-0.0703199
-0.0790245
-0.0871744
-0.0758025
-0.0839179
-0.0884789
-0.0789514
-0.0808699
-0.0806499
-0.1239
-0.140624
-0.13926
-0.12925
-0.113206
-0.139574
-0.142713
-0.108353
-0.13878
-0.126946
-0.107443
-0.0960792
-0.141568
-0.127341
-0.0946506
-0.120151
-0.100584
-0.0934822
-0.0861008
-0.119898
-0.095857
-0.0822698
-0.0950298
-0.0813123
-0.0828683
-0.0699784
-0.087651
-0.0619463
-0.0721225
-0.077622
-0.0686853
-0.0652487
-0.0562574
-0.0541256
-0.0402197
-0.0663278
-0.0663128
-0.0611575
-0.0558022
-0.0615967
-0.0389133
-0.045145
-0.0711647
-0.0604288
-0.0641936
-0.0652886
-0.0764272
-0.0499771
-0.0647938
-0.0833472
-0.0677172
-0.0777537
-0.0787714
-0.0788281
-0.0677341
-0.0675964
-0.153309
-0.162253
-0.165667
-0.156233
-0.154355
-0.16008
-0.164006
-0.140972
-0.167439
-0.16487
-0.152886
-0.139126
-0.164879
-0.160515
-0.108414
-0.162292
-0.147819
-0.131566
-0.105626
-0.158875
-0.148599
-0.0849985
-0.144926
-0.130395
-0.0968856
-0.0700521
-0.144814
-0.124306
-0.071077
-0.124928
-0.105454
-0.0612121
-0.042359
-0.114906
-0.0814631
-0.0621412
-0.0987242
-0.0809419
-0.0393356
-0.0407662
-0.0712251
-0.0496314
-0.0618314
-0.0758361
-0.0650271
-0.0446008
-0.0596018
-0.046121
-0.0470809
-0.0743322
-0.0631382
-0.0637925
-0.0632136
-0.0649671
-0.0500019
-0.0573619
-0.0258129
-0.0396389
-0.0320353
-0.0228279
-0.0243712
-0.0242743
-0.0251709
-0.0352272
-0.0303743
-0.0354663
-0.0265108
-0.0358732
-0.026489
-0.0321381
-0.0592824
-0.0402328
-0.0610179
-0.0400049
-0.0501248
-0.0340958
-0.0391672
-0.0868532
-0.0670239
-0.0749924
-0.0533328
-0.0596444
-0.0405459
-0.0432455
-0.0997126
-0.0746555
-0.0730489
-0.0610588
-0.0614199
-0.0439236
-0.0457555
-0.100005
-0.0736308
-0.077006
-0.0601448
-0.0507182
-0.0461668
-0.0444742
-0.080348
-0.0780633
-0.0753074
-0.0456885
-0.0296117
-0.0422662
-0.0302578
-0.0425342
-0.0703296
-0.0445957
-0.024695
-0.0149064
-0.0252699
-0.0141823
-0.0241398
-0.0262318
-0.0224527
-0.019045
-0.0221425
-0.019586
-0.019381
-0.0355083
-0.0230072
-0.0280511
-0.0238103
-0.0294753
-0.0194956
-0.0203011
-0.0615876
-0.0310959
-0.0396236
-0.0312176
-0.0355317
-0.0206837
-0.0218312
-0.0689293
-0.0407074
-0.0377233
-0.0365573
-0.038248
-0.0222377
-0.0235447
-0.0617678
-0.0364147
-0.0356545
-0.0387791
-0.0411976
-0.0243853
-0.0291743
-0.0682184
-0.037312
-0.0500688
-0.0421381
-0.0427299
-0.0315674
-0.0379353
-0.0717995
-0.055538
-0.0648486
-0.0413153
-0.030732
-0.0386219
-0.0345285
-0.045834
-0.0644092
-0.0559365
-0.0260679
-0.0154614
-0.0322347
-0.0282913
-0.0264364
-0.0396242
-0.0510388
-0.0227278
-0.021134
-0.0268962
-0.0299174
-0.0291283
-0.057161
-0.0689977
-0.020864
-0.0195686
-0.0308087
-0.0299208
-0.0326159
-0.0671167
-0.0495997
-0.0191961
-0.0188067
-0.0283352
-0.0222777
-0.0293413
-0.0421345
-0.0249973
-0.0189578
-0.0205323
-0.0206704
-0.0188188
-0.0301056
-0.0222802
-0.0213429
-0.0215439
-0.0266624
-0.0192608
-0.0235014
-0.0468668
-0.0230634
-0.0355407
-0.0292387
-0.0371612
-0.0258464
-0.0348392
-0.0639641
-0.0419433
-0.0575792
-0.0386765
-0.0372452
-0.0378775
-0.0433534
-0.0584527
-0.0592598
-0.059005
-0.0358512
-0.0353599
-0.044135
-0.0489234
-0.0491364
-0.0341493
-0.0392605
-0.0290905
-0.032114
-0.0287861
-0.03374
-0.0759492
-0.0455785
-0.0630232
-0.0332425
-0.0340376
-0.0372764
-0.044936
-0.064198
-0.0705787
-0.0825877
-0.0331151
-0.0275608
-0.0478136
-0.049477
-0.0333655
-0.0813671
-0.0670435
-0.0255902
-0.0218407
-0.0487651
-0.0425025
-0.0221991
-0.0603597
-0.0432156
-0.0216666
-0.0242203
-0.0403786
-0.0356341
-0.0314577
-0.0390908
-0.032987
-0.0260523
-0.0338383
-0.0350574
-0.0360797
-0.0535254
-0.0332254
-0.0404828
-0.0367558
-0.0435544
-0.0372137
-0.0418698
-0.0580271
-0.0441227
-0.0519513
-0.0449451
-0.0500175
-0.043537
-0.0480788
-0.0198175
-0.015082
-0.0178556
-0.0149366
-0.0196652
-0.0137302
-0.0174922
-0.0285873
-0.0191494
-0.0242272
-0.0214855
-0.0248455
-0.0185679
-0.0201419
-0.0386138
-0.0261663
-0.0315222
-0.0256805
-0.0263856
-0.0202822
-0.0203057
-0.0451607
-0.0327286
-0.0342441
-0.0263659
-0.0243825
-0.0201893
-0.0191945
-0.0445521
-0.0345059
-0.0361496
-0.0233722
-0.0191012
-0.0187337
-0.0171178
-0.0340799
-0.0366082
-0.0344353
-0.0174434
-0.0123864
-0.0162879
-0.0128047
-0.0185397
-0.0319555
-0.0211917
-0.0109803
-0.00826554
-0.0114885
-0.00880058
-0.009673
-0.0175182
-0.0106197
-0.00785734
-0.00757906
-0.00841865
-0.00854569
-0.0149221
-0.0114687
-0.0129444
-0.0111767
-0.0147297
-0.0108803
-0.012378
-0.0219747
-0.0133006
-0.0146697
-0.0158175
-0.0177428
-0.0125766
-0.0128176
-0.0283985
-0.0152144
-0.0167933
-0.0180289
-0.0183978
-0.0129159
-0.0134137
-0.0210104
-0.0297392
-0.0252261
-0.023879
-0.0255102
-0.0241974
-0.0206927
-0.0234346
-0.0307556
-0.0262272
-0.0251358
-0.0270556
-0.0257842
-0.0224782
-0.0341036
-0.0267156
-0.0316389
-0.0165491
-0.0136784
-0.0185255
-0.0186339
-0.0221535
-0.0316476
-0.0274246
-0.0124052
-0.00965099
-0.0181671
-0.0170561
-0.0118561
-0.0258322
-0.0241416
-0.00926663
-0.00940986
-0.016971
-0.0173863
-0.0149938
-0.0170364
-0.0224634
-0.0121366
-0.0140616
-0.0158042
-0.0202969
-0.014956
-0.0239128
-0.0250374
-0.014234
-0.0137049
-0.021254
-0.0218416
-0.0149525
-0.0241854
-0.0204374
-0.0135098
-0.013385
-0.0215441
-0.0203779
-0.0148743
-0.0158123
-0.0150633
-0.0141673
-0.0152822
-0.0146332
-0.014526
-0.0187158
-0.0198459
-0.0176862
-0.0171912
-0.0191772
-0.0185636
-0.0173279
-0.0316759
-0.0257084
-0.0332052
-0.0188508
-0.020576
-0.0225923
-0.0275994
-0.0307462
-0.0355671
-0.0401437
-0.0207413
-0.0211013
-0.0294255
-0.0345648
-0.0316799
-0.0415298
-0.0475453
-0.0214119
-0.0226589
-0.0362783
-0.0404719
-0.0233774
-0.0186328
-0.0235445
-0.0178213
-0.0216283
-0.0186768
-0.023297
-0.0281121
-0.0266649
-0.0334579
-0.0227267
-0.0242956
-0.0258501
-0.0307114
-0.0249602
-0.0357778
-0.0383969
-0.0243877
-0.0239648
-0.0321575
-0.0340469
-0.022013
-0.0382631
-0.0360961
-0.0237663
-0.0230562
-0.0344309
-0.0341879
-0.0249208
-0.0356735
-0.0349021
-0.0229854
-0.0240427
-0.0343203
-0.0350182
-0.0331625
-0.0351191
-0.0370573
-0.0249984
-0.0296724
-0.0357531
-0.0390961
-0.0412728
-0.0381661
-0.0423334
-0.0316941
-0.0383193
-0.0407784