/*--------------------------------*- C++ -*----------------------------------*\
  =========                 |
  \\      /  F ield         | OpenFOAM: The Open Source CFD Toolbox
   \\    /   O peration     | Website:  https://openfoam.org
    \\  /    A nd           | Version:  10
     \\/     M anipulation  |
\*---------------------------------------------------------------------------*/
FoamFile
{
    format      ascii;
    class       volVectorField;
    location    "8.8";
    object      U_0;
}
// * * * * * * * * * * * * * * * * * * * * * * * * * * * * * * * * * * * * * //

dimensions      [0 1 -1 0 0 0 0];

internalField   nonuniform List<vector> 
12920
(
(223.047 -120.552 -100.507)
(107.527 -89.529 3.86416)
(176.752 -11.8254 15.3504)
(109.048 6.72799 2.90959)
(155.524 5.93493 2.84652)
(135.61 -4.89709 0.906249)
(161.229 -10.5886 2.41289)
(165.659 -18.5202 -0.193311)
(192.076 -15.2041 -0.619849)
(204.713 -4.82915 0.456223)
(204.163 2.20337 3.43659)
(180.877 4.61626 4.8874)
(156.296 5.41797 2.92686)
(141.57 4.77499 0.000718955)
(137.412 5.66111 -1.82753)
(134.521 6.46439 -2.59516)
(133.326 6.65755 -2.83519)
(132.209 6.32648 -2.83898)
(132.586 5.64223 -2.08359)
(133.715 4.41635 -1.30324)
(303.61 -232.001 -167.178)
(87.2338 -62.2976 -31.6425)
(191.227 -41.2859 21.3535)
(108.056 -26.0565 7.61479)
(157.758 -28.8472 5.67414)
(126.641 -26.802 -0.123367)
(149.786 -26.967 0.00279222)
(137.318 -25.293 -1.42613)
(145.434 -22.0362 -0.759475)
(137.958 -15.3539 -0.67492)
(142.706 2.6933 1.2233)
(132.702 11.7649 1.7573)
(130.972 13.7602 1.27328)
(126.054 12.3614 0.814966)
(125.453 11.5536 0.534401)
(124.569 10.8836 0.473407)
(123.751 9.56372 0.822056)
(120.045 7.03944 1.42291)
(116.428 5.0295 1.46812)
(114.615 3.81928 0.710825)
(210.932 89.7917 -29.91)
(123.518 44.1389 -19.7549)
(215.911 -41.2778 -0.0998892)
(157.968 -26.7058 0.253424)
(175.179 -23.2118 1.46355)
(139.569 -17.1855 -2.67869)
(150.041 -17.5448 -1.81256)
(126.993 -16.6699 -2.27678)
(122.121 -10.1092 0.39242)
(97.7444 -1.30128 -0.388704)
(98.5572 2.46717 -0.069265)
(95.5845 5.49881 0.451022)
(100.455 5.56561 0.690296)
(101.896 5.21438 0.505838)
(105.972 5.34652 0.632007)
(106.966 5.67895 0.813908)
(107.323 7.10741 0.788262)
(106.089 7.33242 0.690436)
(104.714 8.09724 0.536571)
(104.629 6.69359 0.272132)
(298.612 -211.912 -131.991)
(196.287 -70.3118 -28.7224)
(231.926 -33.6632 15.5843)
(121.347 -17.4323 6.17937)
(136.383 -6.5633 3.18784)
(92.7907 -5.07309 -1.53158)
(114.808 0.297727 -0.608558)
(93.5252 4.78047 -0.911094)
(98.1416 7.67367 0.45565)
(84.9293 7.85015 0.451647)
(86.7891 6.68562 0.294442)
(82.6639 5.51899 0.0808877)
(86.2663 3.42248 0.166957)
(86.5849 2.71661 0.138773)
(89.5585 3.15374 0.255066)
(90.9704 4.52477 0.2788)
(92.43 6.19938 0.28052)
(93.0177 6.24706 0.237553)
(93.699 6.86745 0.19753)
(96.8405 5.73325 0.180224)
(254.109 -289.851 161.571)
(86.9762 12.2941 11.5209)
(166.429 17.8602 10.0769)
(89.9202 12.6012 2.24415)
(141.283 5.44728 2.15512)
(100.179 -1.60392 0.648472)
(120.267 -9.39942 1.22913)
(98.2263 -1.61041 0.701533)
(104.846 -0.501479 1.28392)
(93.6091 6.35797 0.69647)
(95.3706 4.34497 0.581894)
(89.8102 3.89522 0.208594)
(90.9444 0.264119 0.463899)
(89.2623 -0.22712 0.287283)
(89.9276 -0.469751 0.269275)
(89.5707 1.00387 0.0799192)
(90.3127 3.70495 0.0416759)
(90.6479 5.09459 -0.0192727)
(91.1725 6.3283 -0.0375463)
(94.2094 5.66872 0.00784734)
(142.081 -84.2129 -84.489)
(49.4633 -34.3151 8.29824)
(146.981 -30.1933 4.47845)
(99.6306 -28.7856 3.23609)
(150.274 -14.2196 3.47242)
(111.069 -3.71888 0.722154)
(129.075 1.38134 0.935295)
(108.724 8.228 -0.438623)
(111.563 8.32137 0.133125)
(103.267 11.1162 0.148937)
(103.271 8.76809 0.625369)
(97.1933 7.17438 0.892587)
(93.5115 1.53557 1.311)
(87.8823 1.33857 0.665321)
(86.2711 1.78115 0.112388)
(85.2056 2.99667 -0.124481)
(84.7669 4.94472 -0.153792)
(85.653 5.42157 -0.13753)
(86.0816 6.54005 -0.0763228)
(89.7925 5.82671 0.0151687)
(359.832 -111.629 -9.03097)
(111.939 -2.92642 18.5493)
(168.09 -1.41577 8.35947)
(57.4246 -6.62637 1.64332)
(131.68 -2.2624 2.06969)
(76.8987 7.02694 0.143801)
(107.687 -8.16329 0.949153)
(89.0295 12.6385 -0.131311)
(97.6032 4.72907 -0.100441)
(89.7059 11.703 0.084837)
(90.9421 6.78133 0.685174)
(84.8894 7.74591 1.07843)
(82.9953 2.84792 0.961239)
(79.2223 2.66679 0.44345)
(78.5202 1.61679 0.0490314)
(78.6138 2.80091 -0.0970204)
(79.2449 3.98822 -0.190925)
(80.7199 4.67471 -0.177002)
(81.8996 5.63644 -0.110322)
(86.3132 5.08706 0.00631336)
(197.091 4.79356 93.6996)
(25.2083 55.5149 -1.29569)
(111.493 -9.7962 -12.6611)
(43.6797 -22.0818 -8.48656)
(122.627 -28.3574 -2.19796)
(74.4835 8.59695 -2.65785)
(103.128 -4.97867 -1.3319)
(98.3125 -1.18429 -0.379618)
(103.177 8.77965 -0.308311)
(93.836 7.59129 0.199336)
(93.2708 8.20333 0.227594)
(87.0038 5.25614 0.526032)
(80.1747 1.35633 0.622959)
(73.545 0.0772779 0.465376)
(69.5697 2.38494 0.135277)
(71.1299 2.44339 -0.225661)
(71.3011 3.69045 -0.334057)
(73.8333 3.45125 -0.338814)
(75.0732 4.70841 -0.250748)
(80.675 4.37117 -0.0728948)
(102.501 272.496 -61.1485)
(-54.3913 100.861 -18.2816)
(136.602 57.8594 -1.66439)
(59.9424 0.938826 -7.16004)
(130.644 -4.73252 -0.497259)
(93.0399 2.48126 -1.74072)
(109.572 0.824317 0.663963)
(91.1798 -1.42307 -0.652767)
(95.7618 14.2007 -0.371171)
(94.9553 10.3151 -0.266463)
(96.544 4.67425 0.296188)
(95.9716 4.41023 0.373352)
(87.2382 6.0909 0.171363)
(76.5369 0.246532 0.211501)
(70.3863 2.05131 0.430172)
(66.981 1.7847 0.170851)
(68.2232 2.77905 -0.0620829)
(69.6553 2.52992 -0.228748)
(71.1802 3.25364 -0.185488)
(76.5123 2.92743 -0.0257163)
(11.7394 185.292 44.7475)
(-167.903 -22.0769 -17.4059)
(116.608 -38.4687 -11.2691)
(-10.4903 -8.77933 0.552149)
(101.299 -19.3018 2.43796)
(32.1455 0.906903 -0.974108)
(66.703 13.142 -0.0425425)
(84.3796 10.5218 -0.346687)
(98.1579 15.9582 -0.0718596)
(105.207 11.5587 0.422143)
(99.9154 4.93407 0.14772)
(96.0739 10.4264 -0.158159)
(96.3377 12.3037 0.0969456)
(90.9525 9.93251 0.637413)
(71.9856 6.52393 0.386218)
(68.073 2.63749 0.154987)
(68.8067 0.947477 0.0577441)
(69.7885 1.58261 -0.100123)
(70.2457 1.88909 -0.135784)
(74.561 2.1176 -0.0359325)
(112.617 115.218 -311.982)
(-70.1149 60.7752 -80.2052)
(182.44 11.5407 -36.3839)
(104.716 0.829314 -6.50841)
(129.157 -20.5915 3.41842)
(67.3657 -1.6548 -0.955614)
(70.1085 -1.19101 -0.432512)
(79.6433 1.94951 -0.661643)
(87.676 5.91094 -0.213869)
(89.3857 7.28176 -0.0199571)
(88.9625 9.75613 -0.143135)
(90.8086 11.2289 -0.136354)
(90.1245 13.9655 0.219939)
(77.4489 15.6355 0.529021)
(68.6758 7.35036 -0.322291)
(70.1685 -0.0705823 -0.577323)
(71.1878 0.337274 -0.0988691)
(72.1901 1.57304 -0.217034)
(72.1998 2.16668 -0.1833)
(76.007 1.85149 -0.0286104)
(96.1172 -77.6771 107.02)
(-5.78579 113.238 -63.1025)
(166.058 59.5034 -27.7013)
(66.9034 44.4168 -4.308)
(107.816 35.5941 0.0162145)
(47.1501 6.18853 0.48343)
(62.2639 4.55468 0.271564)
(75.6164 -9.75217 0.0963199)
(87.1709 -0.342515 0.779111)
(84.322 8.7538 0.055029)
(85.5207 8.5838 -0.154065)
(91.5539 9.5681 -0.242906)
(95.8543 12.6851 -0.202392)
(82.824 21.7923 1.0952)
(77.8408 18.929 -1.97521)
(83.399 2.03581 -1.26093)
(78.8349 -1.32084 -0.258749)
(74.8885 1.47867 -0.0385332)
(73.3284 1.90522 0.0148554)
(75.6518 1.35843 0.136665)
(-115.215 133.388 -103.51)
(-164.315 114.185 -35.3719)
(111.434 53.0203 -26.5499)
(19.6844 41.3611 -2.49966)
(105.485 23.0447 -2.68732)
(62.4714 -9.42536 -1.48653)
(84.3346 4.52836 -0.953371)
(70.9836 -7.21357 -0.222411)
(66.0209 -4.06527 0.363656)
(64.2858 -4.03341 0.398506)
(74.0211 -0.603232 0.0911721)
(83.2051 6.18262 -0.20333)
(94.3458 12.46 -0.373863)
(100.582 22.6809 -0.0836401)
(105.345 19.0489 0.855196)
(101.371 13.2637 0.733334)
(87.2213 8.7586 1.00849)
(78.3613 6.82572 0.569544)
(73.9586 4.10615 0.264998)
(74.5433 1.42106 0.189127)
(-129.23 -10.0298 1.67535)
(-85.8522 24.8114 -29.0099)
(122.104 34.6741 -11.5585)
(43.0905 36.1417 0.144759)
(113.346 27.9586 -2.25055)
(76.5697 15.3449 -2.38829)
(91.9431 25.2617 -2.06099)
(72.6445 3.27945 -1.35897)
(75.2562 4.14673 -0.102702)
(64.1677 -6.30626 0.166598)
(65.4704 -4.9599 0.374988)
(63.3908 -3.86437 -0.193414)
(71.1221 4.56245 -0.614493)
(76.6694 9.72447 0.0317921)
(79.3763 12.8775 0.783791)
(77.8881 13.1867 0.907416)
(73.5925 13.2736 0.695365)
(71.1013 10.2484 0.187558)
(70.3751 6.7263 -0.157611)
(73.9798 2.5836 -0.214615)
(-9.53187 125.12 -21.9612)
(19.5501 30.6607 -86.694)
(141.395 30.5041 -29.9563)
(84.9126 22.2166 -12.7554)
(128.456 21.7224 -6.60771)
(100.15 16.9643 -6.31297)
(122.888 16.5199 -3.58065)
(112.112 9.27713 -2.2697)
(110.689 3.96905 1.68906)
(89.4468 -2.17824 1.98847)
(81.68 -2.49182 1.33462)
(67.0943 -1.20339 0.844236)
(65.1533 3.48488 -0.0332317)
(62.9914 7.76913 -0.200227)
(65.1136 11.7052 -0.4325)
(66.6011 12.0628 -0.537574)
(69.3449 10.8874 -0.623541)
(72.4499 8.4576 -0.753314)
(75.7165 5.32324 -0.930925)
(82.333 2.16162 -0.711844)
(88.3161 370.127 3.22073)
(92.7604 176.796 -22.7704)
(182.596 141.646 -6.57515)
(119.548 83.7198 -4.4213)
(138.888 61.6029 -0.408678)
(110.374 37.4284 -1.35495)
(122.957 32.7452 0.390334)
(107.505 19.3065 0.804236)
(106.234 19.1126 2.3266)
(88.3653 10.5011 1.5653)
(84.0132 10.2917 1.20976)
(72.3268 7.67909 0.704659)
(71.4699 8.77811 0.341765)
(68.7603 10.0333 0.224441)
(70.575 11.6331 0.144247)
(72.6082 11.599 -0.287975)
(76.9891 10.5743 -0.722853)
(82.0375 8.18269 -0.933879)
(86.4175 5.37061 -0.889817)
(93.4654 3.41591 -0.540664)
(110.883 -64.1838 -28.5935)
(2.56051 84.3919 12.0493)
(145.601 84.937 13.5379)
(51.5558 56.9043 2.99868)
(109.971 38.9718 5.33557)
(72.8406 22.7365 2.61813)
(99.9703 17.9941 3.37697)
(80.7843 12.4782 2.14422)
(89.421 11.1497 2.26389)
(79.6341 7.95248 1.26962)
(82.0231 6.35073 1.15317)
(78.6251 5.37956 0.759021)
(80.3876 5.06328 0.715375)
(80.3485 5.90097 0.612995)
(82.9355 6.69656 0.588712)
(85.144 6.62458 0.34346)
(88.5987 5.17515 0.0639641)
(91.5924 3.94036 -0.0381136)
(94.1478 2.06024 -0.0345438)
(98.61 1.33182 0.152174)
(257.005 -18.4169 -11.8023)
(100.559 84.9642 13.238)
(128.883 82.9137 7.73276)
(69.4104 48.5556 4.02803)
(110.288 32.6115 3.74217)
(82.1825 17.5366 2.78469)
(101.05 15.5524 3.36057)
(85.5402 11.8241 2.39869)
(92.0421 11.4316 2.40726)
(83.5661 8.30978 1.6462)
(86.1146 6.27639 1.29939)
(82.6617 4.13939 0.875549)
(84.5633 3.39594 0.745369)
(84.4105 3.331 0.608793)
(86.5139 3.74047 0.659739)
(88.1943 3.79731 0.576412)
(90.4333 3.53564 0.480769)
(91.7446 3.03934 0.505778)
(93.4478 2.01739 0.505235)
(97.0714 1.38942 0.628961)
(-224.72 100.204 132.432)
(-255.018 103.298 -76.1814)
(81.8495 73.5713 -5.96176)
(2.97892 35.1016 2.62568)
(96.7753 16.1256 3.88963)
(59.5374 5.9365 3.54743)
(94.5633 2.766 3.81313)
(79.9687 2.46409 2.36936)
(94.2221 2.28482 2.19693)
(88.2168 2.15521 1.28434)
(93.002 1.26129 0.860922)
(90.0115 0.88959 0.138066)
(91.1583 -0.111203 -0.176922)
(89.9447 -0.288657 -0.4502)
(90.5093 -0.666308 -0.533847)
(90.8738 -0.916311 -0.610843)
(91.3141 -1.31423 -0.591593)
(91.6166 -1.56628 -0.790047)
(92.9975 -2.54777 -1.27097)
(98.8872 -2.51521 -0.723118)
(-8.21687 -68.844 34.7914)
(-45.0529 57.0711 -15.5036)
(113.377 -7.40032 -23.0602)
(110.666 -0.129687 -9.85345)
(150.292 -19.3543 -2.1593)
(119.683 -14.7948 0.117292)
(124.655 -16.4139 1.99807)
(105.324 -8.42346 0.738344)
(110.546 -4.89903 0.426315)
(104.421 -0.210252 0.138833)
(108.59 1.85536 0.143908)
(107.487 4.32359 0.245844)
(110.484 5.38215 0.248455)
(111.234 6.34539 0.282305)
(113.64 6.76722 0.318341)
(115.396 6.90361 0.375753)
(117.049 6.82441 0.250322)
(119.153 7.05845 0.0321858)
(122.779 5.21371 -0.0907327)
(126.469 2.0758 -0.195704)
(70.6819 166.828 -79.261)
(39.18 0.694624 31.214)
(159.354 28.72 25.455)
(101.245 13.3329 2.50266)
(148.514 8.56549 6.57442)
(116.818 0.384946 2.74881)
(143.288 -2.07297 5.59532)
(137.091 -3.88789 2.34889)
(150.019 -2.79667 1.70145)
(148.114 -1.85551 1.41595)
(149.623 1.65255 5.11859)
(140.421 3.67298 7.23977)
(133.706 3.78168 5.26725)
(124.105 1.70927 0.535938)
(120.874 0.716859 -2.02468)
(116.749 -0.0489926 -2.88036)
(114.711 -0.818551 -2.70166)
(112.213 -1.53776 -2.03033)
(112.177 -0.689624 -1.33218)
(111.962 0.61838 -1.26381)
(350.566 -221.948 -245.329)
(-130.701 -29.7306 -29.5202)
(171.042 -22.8911 -2.29056)
(61.6589 -12.5944 4.6439)
(134.848 -19.1541 7.46386)
(92.9398 -14.9157 0.530377)
(120.164 -12.9377 2.60029)
(102.876 -9.25811 -0.799883)
(113.676 -5.67841 0.177236)
(105.165 -0.753373 -0.804071)
(109.269 5.91935 1.50875)
(105.324 9.51019 2.11974)
(106.817 10.0509 1.85177)
(104.285 8.53596 1.01731)
(103.951 6.7441 0.460676)
(101.9 5.24705 0.379183)
(100.458 4.15874 0.833963)
(97.4868 2.85805 1.24735)
(96.2842 2.93699 1.10539)
(96.3545 2.51012 0.39399)
(224.669 -342.348 72.8092)
(54.2533 -56.6179 -9.69807)
(152.987 -44.4701 6.42703)
(94.0605 -6.76756 0.770699)
(138.378 -11.1294 5.40978)
(99.6829 -7.2416 -2.43941)
(116.22 -8.65013 -0.0679632)
(91.0554 -4.90902 -2.0248)
(94.7032 -2.60831 0.463934)
(81.7377 1.40944 -0.792946)
(84.8873 4.07981 0.128516)
(82.283 5.99018 0.661677)
(87.2695 5.71518 1.16528)
(87.8713 5.00961 0.758358)
(90.3696 4.74619 0.880453)
(90.2954 4.59967 0.980381)
(90.1021 5.1402 0.933614)
(88.6259 5.24394 0.72851)
(87.7896 5.78845 0.661265)
(88.7197 4.49203 0.27564)
(286.646 -236.781 141.674)
(17.0482 -85.9135 50.1044)
(139.566 -46.4604 18.9161)
(66.7179 -29.0003 5.14957)
(119.859 -15.3381 4.32321)
(75.7631 -8.22007 -1.41013)
(99.1693 -0.327657 0.520517)
(74.3886 5.15251 -1.17569)
(82.584 7.17467 0.808291)
(70.589 7.28614 0.181774)
(75.0738 6.02871 0.457531)
(71.9677 5.45294 0.187079)
(76.2604 4.15276 0.450006)
(76.4322 4.05241 0.194052)
(79.0921 4.40387 0.349158)
(79.6999 4.98553 0.302496)
(80.1453 5.82236 0.293852)
(80.1608 5.53866 0.259859)
(80.477 5.80481 0.295692)
(83.1778 4.48504 0.223129)
(274.601 -277.468 64.954)
(12.6278 -57.469 27.3)
(162.098 -23.7008 -12.9148)
(78.5991 -6.87918 -0.50957)
(129.922 -2.48088 3.11139)
(80.7854 -0.111039 1.23006)
(102.279 -3.11732 3.44888)
(76.652 6.7765 1.12619)
(85.9255 4.60343 2.10839)
(74.5517 8.20253 0.65543)
(78.3796 3.90592 0.816741)
(73.7879 3.53474 0.333756)
(76.4302 0.944756 0.799502)
(75.3589 1.48776 0.453787)
(76.7345 1.78912 0.417191)
(76.5931 3.37602 0.119194)
(77.0838 4.76348 0.0740365)
(77.1398 5.19294 -0.0257787)
(77.4595 5.64251 0.0156255)
(80.2407 4.59961 0.0669624)
(133.128 -100.825 74.9207)
(27.3433 -8.76008 6.81299)
(128.761 -22.9839 -3.93476)
(64.8002 -21.1123 -2.60437)
(124.504 -4.76965 1.56742)
(76.34 5.14846 -0.640105)
(102.781 8.17578 2.97158)
(79.7495 14.7198 0.152452)
(86.386 12.0993 1.32662)
(78.2232 12.6811 0.586287)
(80.4296 7.89274 1.31317)
(75.9985 5.71449 1.44298)
(76.3177 2.43635 1.63579)
(74.2877 2.74064 0.930005)
(73.7982 3.30949 0.289999)
(73.2311 4.11741 -0.108871)
(72.8051 5.23006 -0.149623)
(73.3355 5.07172 -0.142629)
(73.5495 5.52843 -0.0490908)
(76.9962 4.44363 0.0975861)
(150.843 -59.2676 42.5324)
(10.134 -3.52361 45.0988)
(134.492 -10.8548 0.0493952)
(18.1971 -7.40362 3.18094)
(114.423 4.50744 1.71822)
(49.432 14.3983 -0.868741)
(86.2965 -4.01282 1.37778)
(64.5122 18.5679 -0.314115)
(76.2052 6.4483 0.581558)
(68.7103 12.5123 0.791914)
(72.5116 5.6713 1.64801)
(68.6165 6.49202 1.77146)
(69.5905 3.18047 1.46126)
(67.9929 3.57584 0.710654)
(67.8464 2.77467 0.239186)
(68.2 3.91259 -0.0562476)
(68.6465 4.4258 -0.153309)
(69.5517 4.54803 -0.190353)
(70.3393 4.8415 -0.102597)
(74.341 3.91738 0.103193)
(95.7725 141.124 44.3229)
(6.73216 3.8668 -2.62226)
(95.1668 -17.8161 -15.6129)
(1.7549 -22.2273 -9.10322)
(98.6664 -19.4757 -1.90111)
(40.4359 24.1038 -2.3184)
(78.7637 2.03801 1.31141)
(69.8598 9.21136 0.339763)
(76.3931 9.87035 0.231159)
(70.9209 8.08343 0.655602)
(73.2235 6.57978 1.31291)
(69.2599 4.32609 2.02533)
(67.9592 1.75458 1.7874)
(65.7039 1.39271 0.995289)
(62.767 3.1243 0.0235752)
(64.2939 2.81649 -0.286803)
(63.9696 3.54424 -0.34748)
(65.581 3.1572 -0.379575)
(66.2544 3.71202 -0.295915)
(70.8563 3.00419 0.0505766)
(223.052 232.552 -116.218)
(-63.9218 63.6361 22.7014)
(128.014 -1.83056 -16.1447)
(7.51875 -29.0854 -8.66653)
(95.4269 -16.9251 -0.944119)
(60.4206 0.424496 -4.55375)
(91.1494 0.643277 -0.482074)
(76.6566 1.80645 -1.77074)
(75.6953 9.71783 -0.765479)
(75.0701 6.09978 0.568835)
(77.5706 5.21009 1.46728)
(75.0984 5.67819 1.47321)
(69.9146 4.43957 1.53294)
(66.3837 0.872977 1.21472)
(63.8501 2.32779 0.668635)
(61.2485 1.7848 0.114951)
(62.4585 2.56025 -0.00768163)
(63.1974 2.06491 -0.277951)
(64.2035 2.36436 -0.220198)
(68.5728 1.88375 0.0836952)
(-1.44036 -86.781 9.04304)
(-132.302 -28.6238 -16.5803)
(103.094 -42.4595 -26.9714)
(-20.7045 -13.6264 1.0608)
(85.4779 -25.0681 -0.14094)
(24.924 -5.9005 -1.86177)
(61.7996 6.00748 -0.305984)
(76.4087 9.68398 -0.498621)
(83.0049 10.823 0.533548)
(85.0271 7.55822 1.38841)
(82.7052 8.62724 0.482331)
(79.1517 11.8768 0.189983)
(75.9532 9.86868 0.944648)
(69.3486 7.74131 2.10694)
(65.0007 4.71653 0.58992)
(62.5588 2.09318 0.148305)
(63.0281 0.693185 0.169029)
(63.5826 1.22158 -0.121095)
(63.8596 1.14043 -0.173664)
(67.8139 1.14438 0.0412676)
(495.499 195.609 115.122)
(153.359 77.3429 -25.65)
(187.832 -4.56796 -44.7792)
(74.6899 -8.2012 -9.05265)
(101.435 -23.2851 1.35429)
(65.0559 -8.76561 1.62912)
(69.6763 -8.04404 0.597053)
(71.9356 -3.99915 -0.0702342)
(78.7828 2.66107 0.456065)
(80.4098 6.56611 0.467272)
(80.897 10.4002 -0.0206262)
(81.5908 12.7378 -0.291721)
(76.6532 14.8237 1.54608)
(70.3023 12.5823 1.3311)
(66.0348 6.52294 -1.25171)
(64.6513 0.00809706 -0.678906)
(65.1387 0.267385 0.0555054)
(65.3072 0.856416 -0.187325)
(65.2059 0.910797 -0.148459)
(68.7097 0.505941 0.0969038)
(327.006 45.3072 222.929)
(161.001 99.499 13.4231)
(183.206 60.8575 -15.651)
(70.7653 42.9422 -2.45709)
(96.3011 28.3188 -1.34098)
(50.1261 -0.267765 -1.0192)
(64.6187 -5.84319 1.49128)
(69.5762 -13.172 1.71998)
(73.3792 -1.33206 2.38166)
(74.7284 4.87575 1.31066)
(77.9142 7.79995 -0.465528)
(81.2159 11.527 -0.921023)
(83.1356 18.7581 0.487401)
(80.6031 21.707 2.2008)
(78.1745 12.05 -4.71812)
(74.1763 -1.27792 -0.992877)
(69.5481 -1.72333 0.29128)
(66.4367 0.55834 0.169934)
(65.4067 0.189761 0.157978)
(67.7805 -0.0196788 0.281841)
(84.4649 -120.023 -59.5312)
(2.85616 73.4859 -32.5857)
(106.431 63.5757 -24.5336)
(26.5947 45.1854 -3.76824)
(95.2096 21.9798 -5.05496)
(48.9757 -10.4127 -2.33622)
(69.4478 3.43237 -0.691188)
(52.7798 -5.55429 0.97888)
(54.6371 -5.48374 1.04192)
(54.9218 -3.34216 0.836725)
(66.015 1.56678 -0.0619598)
(73.8796 7.6782 -0.922825)
(83.0527 15.0304 -0.963379)
(89.8353 21.3586 0.308659)
(91.7506 12.0964 1.29958)
(84.4827 7.28239 1.87431)
(74.1402 5.21793 2.3833)
(68.7395 4.19477 1.18251)
(65.7432 1.95497 0.506805)
(66.8921 0.436396 0.301944)
(87.0498 13.7669 79.7311)
(-51.3005 66.9645 -22.2515)
(108.337 58.5629 -15.2606)
(35.7575 41.4652 -0.826331)
(100.868 28.0253 -4.07141)
(59.1062 10.7277 -3.16612)
(75.6556 20.8474 -1.60277)
(54.9539 -2.79176 -1.10413)
(59.8407 1.04177 0.55361)
(50.7506 -7.83194 0.497303)
(55.1942 -3.96662 0.556257)
(54.6287 -2.51059 -0.412201)
(61.9703 5.28782 -0.608077)
(65.0436 7.98966 0.845973)
(67.55 10.3064 1.7995)
(66.4218 10.4134 1.75611)
(64.71 9.89929 1.18065)
(63.6326 7.54179 0.339536)
(63.3463 4.23553 -0.207468)
(66.158 1.33849 -0.245433)
(222.527 -131.023 209.407)
(96.7875 35.0907 -77.8489)
(135.119 56.1496 -41.3919)
(62.044 33.1565 -17.5213)
(106.146 20.5349 -5.67206)
(66.9788 7.55718 -5.58423)
(90.117 6.59192 -0.713162)
(71.9849 -1.34429 -0.884318)
(76.5155 -1.57979 2.73184)
(66.1101 -4.94156 2.54514)
(64.6553 -3.0614 2.06783)
(56.8865 -1.63464 1.1583)
(57.7536 1.9585 0.230076)
(57.029 5.32542 -0.0204315)
(59.3119 7.9608 -0.306508)
(60.9173 8.05104 -0.514735)
(63.3714 6.93336 -0.706531)
(65.5755 5.04609 -0.960975)
(67.6238 2.19368 -1.1625)
(71.5203 0.36698 -0.892619)
(83.4009 202.301 48.1015)
(-7.36098 84.8937 -40.2002)
(121.11 94.1057 0.0140382)
(62.5163 44.5239 -1.63449)
(108.054 35.6317 4.88051)
(75.1897 13.8353 0.240495)
(93.3536 15.6743 3.16227)
(74.9272 5.0002 2.346)
(80.4866 8.24695 3.8534)
(69.3848 3.21749 2.27194)
(69.9263 4.81774 2.08823)
(63.9383 3.44566 1.22214)
(64.7385 4.39085 0.821499)
(63.5676 5.07468 0.550311)
(65.9349 5.98588 0.373379)
(67.8699 5.74823 -0.37108)
(70.8906 4.75056 -0.925404)
(73.0426 3.23596 -1.13242)
(75.0991 1.23041 -0.988564)
(78.9685 0.290443 -0.62529)
(66.5756 -44.1958 144.655)
(-101.157 24.9242 -17.2824)
(116.578 33.4668 26.7579)
(8.71037 20.517 5.23446)
(91.4651 15.6064 10.147)
(48.0585 7.51406 3.59748)
(81.704 7.53787 5.36574)
(61.8869 4.50149 2.79353)
(74.6364 4.6061 3.41346)
(66.5854 2.52099 1.74426)
(71.5832 2.09274 1.75792)
(69.3495 1.69424 1.08567)
(71.9464 1.61662 1.06755)
(72.1171 2.54333 0.875416)
(74.4518 2.85186 0.83246)
(76.0881 2.47711 0.396033)
(77.8806 1.27092 0.0493499)
(79.0119 0.422741 -0.0958458)
(80.1931 -0.764198 -0.0839536)
(83.0269 -0.856092 0.151362)
(185.15 212.569 47.9369)
(44.9265 93.9772 1.83706)
(117.873 45.5245 4.76315)
(54.339 25.2232 0.999025)
(96.1581 18.0668 2.34729)
(64.0135 9.11646 2.00922)
(86.4515 9.65104 4.30361)
(71.0646 6.39044 2.8095)
(80.8582 6.38148 3.42055)
(73.6456 3.74889 2.10651)
(77.5818 2.90998 1.83528)
(74.6423 1.79776 1.14747)
(76.6476 1.72517 1.00121)
(76.1738 1.80338 0.815733)
(77.9611 2.02438 0.874745)
(79.1413 1.96899 0.657345)
(80.3116 1.51799 0.561811)
(80.8342 1.12499 0.542477)
(81.8982 0.420681 0.588747)
(84.5186 0.244614 0.722013)
(226.234 58.9289 -27.6517)
(-217.959 58.3572 -54.8402)
(92.2388 49.5691 -25.2699)
(-4.56016 29.0714 1.615)
(84.9475 17.4324 2.71869)
(42.9798 8.25078 3.68782)
(82.5397 5.32856 5.1332)
(67.3872 4.29339 2.8021)
(84.0133 3.31178 2.95343)
(78.2966 2.80807 1.34208)
(83.9872 1.66528 0.949033)
(81.292 1.25765 -0.0779472)
(82.8942 0.447491 -0.395248)
(81.8035 0.428128 -0.791117)
(82.4432 0.0840274 -0.898021)
(82.7211 -0.0368862 -1.07763)
(83.0592 -0.45611 -1.13202)
(83.2288 -0.702738 -1.38142)
(84.4177 -1.29211 -1.49373)
(87.7615 -0.918714 -0.667003)
(248.26 -300.86 160.938)
(118.773 -114.875 20.679)
(135.955 -60.962 -7.27438)
(76.9093 0.172429 -1.04313)
(112.974 -7.58216 3.0873)
(84.7443 0.247039 0.611717)
(105.226 -4.71851 1.69741)
(94.0984 -0.152681 -0.03654)
(104.148 0.122481 0.363601)
(100.425 2.08955 0.183388)
(105.448 2.49517 0.514395)
(104.802 2.90236 0.561511)
(107.453 3.07992 0.615971)
(107.907 3.1614 0.580178)
(109.67 3.10817 0.623229)
(110.876 3.02912 0.479751)
(112.123 2.62702 0.285216)
(112.876 1.56263 -0.0400732)
(113.519 -1.10274 -0.326851)
(113.329 -1.65013 -0.442838)
(110.977 -54.1041 -106.203)
(8.444 -8.11881 -28.1384)
(151.725 15.4973 -3.53924)
(68.5808 5.58798 -5.66918)
(128.546 2.65954 11.1506)
(90.7647 -1.24564 2.00376)
(121.961 -0.770294 4.99942)
(108.79 -1.54887 -0.147407)
(119.198 -0.728581 0.309182)
(110.552 -0.0356041 0.712435)
(112.727 1.88987 4.24814)
(109.435 3.02472 5.39587)
(111.929 2.74979 4.04753)
(108.94 1.35581 0.77025)
(106.487 0.632343 -1.66119)
(101.883 -0.284009 -2.37665)
(99.5807 -0.672327 -2.32467)
(96.4875 -0.607393 -2.17715)
(95.5727 0.889038 -1.4121)
(93.625 1.01842 -1.20262)
(386.936 -191.012 -196.878)
(12.1395 -31.0104 18.8232)
(154.829 -12.7402 -4.57257)
(42.2495 -7.85815 12.2206)
(117.702 -15.6159 10.8304)
(66.322 -8.36629 1.25559)
(99.9111 -5.71029 2.83546)
(78.4074 -1.71392 -1.50695)
(91.6129 0.892004 -0.247715)
(81.6873 3.47562 -1.44048)
(86.9897 6.69301 0.896609)
(84.381 7.92122 1.25976)
(87.9654 7.41206 1.26581)
(86.4252 5.77914 0.425149)
(86.5114 4.29476 0.126549)
(84.4252 2.96004 -0.0559597)
(83.0099 2.31776 0.268892)
(81.0598 1.85537 0.598427)
(80.917 2.31931 0.661233)
(82.1161 1.81019 0.309241)
(224.066 -202.784 53.4689)
(-5.36236 -42.4149 5.46958)
(130.508 -23.7369 17.5327)
(52.9011 1.58931 2.62145)
(114.742 -7.4917 6.39924)
(70.1285 -1.72281 -2.20702)
(94.1724 -3.07631 0.471209)
(68.2382 1.16544 -2.12492)
(77.8738 1.57258 0.482631)
(66.4801 3.81257 -0.694184)
(71.9763 4.7648 0.381785)
(69.3001 5.83583 0.540972)
(74.4503 5.18677 1.05511)
(74.3955 4.67958 0.683742)
(76.126 4.23233 0.753499)
(75.7236 3.96288 0.79625)
(75.4941 4.2261 0.75767)
(74.3893 4.12032 0.612831)
(74.1985 4.46968 0.611375)
(75.8651 3.18072 0.326314)
(173.486 -278.312 70.4348)
(-1.49287 -90.6134 16.2878)
(126.938 -49.0259 7.55213)
(51.4663 -20.2611 3.90434)
(105.707 -10.5841 4.40818)
(55.3836 -3.68941 -1.12305)
(83.6377 2.57896 1.01815)
(56.7884 6.51384 -1.06741)
(69.0095 6.75272 0.806057)
(57.5833 6.56851 -0.0894614)
(64.1847 5.22046 0.426694)
(61.2879 5.11927 0.181169)
(66.0332 4.2228 0.478189)
(65.9419 4.31747 0.171348)
(68.2103 4.49551 0.316607)
(68.4399 4.63305 0.244843)
(68.6065 5.01355 0.262528)
(68.5662 4.55458 0.252279)
(68.9081 4.71577 0.308797)
(71.6325 3.36072 0.33079)
(169.608 -110.891 27.459)
(83.9189 -19.8741 29.3286)
(140.419 -10.6951 -17.9491)
(53.6041 1.71488 0.199934)
(108.724 3.84256 3.41171)
(53.6922 6.07795 1.1605)
(83.6768 1.94112 3.60127)
(56.779 10.3 0.683077)
(70.1717 4.98257 1.92537)
(59.0521 7.63293 0.43004)
(64.961 2.83631 0.780931)
(60.9333 3.3473 0.375073)
(64.6255 1.37977 0.75148)
(63.8351 2.37965 0.395404)
(65.585 2.66497 0.366851)
(65.5659 3.8542 0.125972)
(65.9542 4.49374 0.0949847)
(65.9538 4.50971 0.0166222)
(66.2595 4.6939 0.0732264)
(69.0817 3.5207 0.225756)
(171.136 -105.984 -79.8193)
(26.438 -37.0241 12.0838)
(119.32 -15.669 -2.14581)
(32.5387 -10.9672 -0.830481)
(99.8453 6.29681 1.76884)
(41.3494 12.7018 -0.483069)
(80.4091 10.9721 3.38836)
(56.5849 16.069 -0.103544)
(68.0207 10.6629 1.27452)
(60.07 10.6367 0.477554)
(63.9997 5.58483 1.28961)
(61.0967 4.62509 1.27696)
(63.1652 2.69721 1.40826)
(62.4373 3.31185 0.743774)
(63.0667 3.63877 0.318749)
(62.978 4.05728 -0.0260549)
(62.5977 4.71273 -0.0666973)
(63.0536 4.28692 -0.0900258)
(63.2522 4.50678 -0.0206218)
(66.6547 3.28525 0.260239)
(109.528 -15.9022 52.037)
(24.4588 5.11461 36.0893)
(109.554 -6.00824 -1.636)
(-5.13379 -2.2866 3.12742)
(99.6952 9.00991 1.39787)
(26.6086 17.2382 -1.34751)
(70.1747 -4.62925 1.43764)
(45.8708 20.2383 -0.429806)
(60.6701 4.61689 0.860396)
(52.9482 11.3037 0.896635)
(58.6816 3.84088 1.60052)
(56.0538 5.61083 1.5996)
(58.8417 2.78686 1.22881)
(58.2305 3.74202 0.564166)
(58.7252 2.955 0.302058)
(59.2507 3.95292 0.0125001)
(59.6008 4.05408 -0.0411513)
(60.2912 3.87822 -0.129606)
(60.953 3.90886 -0.0571277)
(64.7578 2.87182 0.277542)
(9.40133 89.8657 -10.7381)
(-18.5038 10.2137 -19.7391)
(75.6445 -12.8887 -18.3282)
(-19.0025 -17.8018 -7.44878)
(83.4368 -13.0924 -2.67934)
(19.4114 30.5451 -1.67242)
(59.9372 1.9611 0.940635)
(48.7884 12.8654 0.824252)
(57.9154 7.2572 0.652669)
(54.3762 7.00979 1.17279)
(58.3607 4.448 1.69896)
(56.7594 3.40536 2.12108)
(58.4781 1.55048 1.72336)
(57.9829 1.81244 0.972258)
(55.8222 3.23216 0.344917)
(57.2573 2.73151 -0.0192061)
(56.6534 3.25704 -0.188332)
(57.9195 2.64615 -0.26741)
(58.3327 2.87278 -0.246265)
(62.5407 2.05484 0.244831)
(4.33345 73.7441 -66.0246)
(-71.1993 9.45953 23.5531)
(99.2187 -16.9642 -20.3807)
(-13.4933 -33.1223 -7.13766)
(77.3196 -17.9472 -3.6294)
(35.2274 4.39818 -4.00062)
(65.2252 -0.270575 -0.640127)
(57.6774 2.29557 -0.88349)
(59.5407 5.30686 -0.220566)
(59.9426 3.84064 0.885697)
(62.1156 4.52893 1.52009)
(60.4079 4.37358 1.64541)
(59.3184 2.67339 1.56893)
(59.0851 0.952365 1.16312)
(57.858 2.32725 0.715656)
(54.996 1.64643 0.606633)
(56.084 2.34177 0.217047)
(56.4512 1.63056 -0.125125)
(57.2857 1.74733 -0.185174)
(61.2722 1.20343 0.243994)
(86.1243 -135.753 194.354)
(-42.5835 -29.8973 -90.3293)
(92.9279 -39.2472 -48.0457)
(-18.8025 -13.9262 -4.8345)
(72.6451 -24.5585 -3.81379)
(16.6452 -6.03474 -1.77046)
(51.2949 2.83925 0.24153)
(65.0348 5.93346 0.0564559)
(69.4421 5.63394 0.622071)
(69.6863 5.78435 1.31789)
(68.454 8.71347 0.253521)
(65.4711 9.96394 0.360051)
(62.3459 7.61444 1.20834)
(60.6196 5.57805 1.31178)
(58.8954 3.90302 0.59181)
(55.9289 1.78583 0.776383)
(56.3318 0.452489 0.464209)
(56.8242 0.911345 0.0555788)
(57.1235 0.657086 -0.116728)
(60.9501 0.60206 0.21452)
(358.89 103.713 -148.802)
(248.403 39.513 -24.0261)
(201.783 -14.1106 -28.4693)
(68.1556 -8.15939 -6.73571)
(89.1978 -22.2355 -0.640075)
(49.3526 -10.1762 0.647405)
(57.8563 -10.8865 1.58761)
(64.4335 -5.94444 1.25783)
(70.1484 1.23004 1.14823)
(70.8234 7.60279 -0.861548)
(73.5504 10.68 1.11251)
(71.94 13.4267 0.0781351)
(66.3775 12.4493 1.3959)
(62.947 9.18904 0.260921)
(59.5972 3.90907 -1.2844)
(57.0721 -0.377685 0.376821)
(57.5524 0.00680339 0.49393)
(57.858 0.270771 -0.0185995)
(57.9633 0.190575 -0.075694)
(61.5019 -0.101352 0.249729)
(391.276 253.99 -24.2439)
(137.737 139.521 14.5978)
(181.933 77.2355 -12.4688)
(67.3766 46.2143 -3.83147)
(88.0192 25.6183 -2.05091)
(44.5952 -3.99248 -1.86171)
(58.1734 -10.5923 1.34941)
(60.132 -11.7311 1.81257)
(62.8987 -0.758955 2.1618)
(66.2624 4.27398 1.35791)
(69.4707 8.12397 -0.614249)
(71.4246 12.5033 -1.17694)
(72.1552 18.5092 0.581355)
(72.3949 16.5832 -0.144201)
(69.7505 3.27531 -4.34881)
(62.6456 -2.49653 0.714076)
(60.1614 -2.05267 0.794602)
(58.332 -0.233071 0.360514)
(57.8785 -0.626255 0.210911)
(60.49 -0.497615 0.391685)
(113.092 -227.959 -168.857)
(0.350858 91.1481 -16.0149)
(111.695 65.2642 -25.8379)
(25.8301 44.152 -6.12983)
(86.9516 19.632 -5.36559)
(36.9902 -12.0672 -2.42769)
(57.1351 3.2264 -0.616473)
(41.149 -5.01217 1.01083)
(46.9528 -5.04126 1.27335)
(47.8802 -1.83389 0.612065)
(58.5699 2.49845 -0.276755)
(64.9801 7.96655 -1.13783)
(72.7914 13.6322 -0.845224)
(78.4367 14.2953 0.478971)
(73.5852 5.84637 2.36103)
(67.0953 3.25829 2.98366)
(62.2704 2.87923 2.64356)
(59.8712 2.49665 1.16539)
(58.1029 0.868396 0.457667)
(59.8151 0.0659921 0.346698)
(95.821 77.1129 -82.9417)
(-30.5909 72.2444 -10.77)
(99.0177 63.4253 -21.5584)
(28.4092 40.2116 -4.18973)
(89.5552 26.0889 -4.20205)
(42.9384 6.51753 -2.94317)
(62.9124 18.5396 -0.673339)
(41.6116 -6.78198 -0.597773)
(49.2691 0.0696792 0.751646)
(41.5896 -8.12458 0.656247)
(47.5915 -2.87859 0.638222)
(47.0406 -2.12506 -0.256746)
(53.0118 4.04388 0.057388)
(54.3096 5.40938 1.48003)
(56.718 7.48813 2.02988)
(56.6112 7.66098 1.63873)
(56.6222 7.20103 1.09507)
(56.4476 5.46514 0.333514)
(56.5184 2.77379 -0.189437)
(59.0276 0.74997 -0.0627684)
(383.327 34.0603 -67.9857)
(138.162 62.1429 -43.7513)