/*--------------------------------*- C++ -*----------------------------------*\
  =========                 |
  \\      /  F ield         | OpenFOAM: The Open Source CFD Toolbox
   \\    /   O peration     | Website:  https://openfoam.org
    \\  /    A nd           | Version:  10
     \\/     M anipulation  |
\*---------------------------------------------------------------------------*/
FoamFile
{
    format      ascii;
    class       volScalarField;
    location    "6";
    object      k_0;
}
// * * * * * * * * * * * * * * * * * * * * * * * * * * * * * * * * * * * * * //

dimensions      [0 2 -2 0 0 0 0];

internalField   nonuniform List<scalar> 
12920
(
12592.7
4134.53
1236.26
915.801
689.425
388.252
250.636
224.281
226.126
225.525
201.074
164.025
132.018
106.642
84.1248
68.2987
57.7612
52.4151
51.723
51.7578
4213.86
2014.76
1454.97
1072.75
688.109
506.097
337.104
287.995
244.169
202.237
154.63
121.323
99.4185
90.1683
88.4819
89.917
94.5597
99.1668
106.376
108.178
5323.88
2579.16
1560.45
966.276
585.597
422.431
306.969
260.194
205.238
167.817
133.356
114.778
101.978
96.5496
92.2473
90.8543
88.5131
86.8846
85.9009
82.6679
2035.83
1949.92
1649.86
1008.68
640.037
478.19
352.813
295.275
233.651
191.398
148.541
121.609
103.286
93.7344
86.472
82.1532
78.4137
76.8046
76.074
75.8846
2171.38
1548.89
1305.09
808.095
574.844
397.16
313.406
278.525
228.39
190.998
153.733
129.279
112.496
102.974
95.6452
90.4427
86.6283
84.1058
82.9114
81.4607
6081.95
3014.86
2108.81
1715.71
1280.83
719.032
425.37
299.756
233.854
191.771
161.751
139.921
129.719
122.506
118.315
111.238
102.651
94.4895
89.4055
83.9695
998.608
4128.55
3836.93
2299.71
1353.48
860.474
580.203
377.414
274.225
212.415
188.155
171.765
163.075
154.28
145.832
139.781
133.242
122.345
108.085
91.7562
1339
2801.41
2130.81
1481.4
1038.84
824.842
550.203
348.93
222.435
149.011
139.564
126.097
122.387
110.067
137.318
131.099
130.955
127.59
110.836
88.8767
11828
5552.89
2669.35
1872.36
1449.66
846.502
461.877
268.001
183.452
104.211
92.862
91.2056
86.8312
76.0948
89.738
133.842
125.392
108.212
92.0862
81.2482
8806.62
4998.29
2821.31
2033.43
1402.45
830.02
378.826
205.947
137.153
86.9815
103.984
103.181
93.5889
64.8102
95.1297
109.971
95.9429
87.8359
80.5574
76.676
526.369
1475.19
1450.4
1258.82
891.348
558.525
285.884
139.617
107.301
106.843
106.123
85.8136
69.3653
60.999
109.992
103.226
83.2447
76.5402
74.5674
76.5357
184.496
1138.55
1172.45
902.934
618.503
309.081
146.273
94.0489
94.2193
84.412
91.166
102.469
102.035
90.7074
118.581
96.0229
87.5764
81.0919
79.2759
81.9211
1559.38
1547.08
1441.91
800.58
508.819
418.046
252.913
203.533
209.509
188.399
173.875
181.502
162.606
131.127
100.951
92.2408
88.4725
86.0179
86.1691
90.1048
2404.65
2180.71
1478.9
742.597
492.506
413.283
372.847
325.298
309.867
266.896
237.18
190.924
145.594
117.219
106.105
102.763
101.097
101.429
102.674
107.152
801.204
1663.44
1515.17
1140.31
673.711
449.85
366.802
280.467
247.511
204.064
177.175
154.678
136.328
130.927
131.158
134.122
138.412
140.582
140.686
138.071
879.02
1358.76
1457.71
1283.63
871.895
587.167
378.073
285.088
229.278
202.956
176.994
166.977
160.692
162.755
164.859
168.273
171.568
173.914
174.087
168.501
2500.21
2065.72
1689.14
1124.95
751.888
499.601
342.386
284.823
240.622
229.357
211.428
208.043
199.976
196.527
192.9
193.304
195.773
199.5
199.566
188.125
3108.67
1929.46
1304.33
768.523
605.612
499.794
379.661
361.471
333.899
331.871
321.229
318.593
310.678
304.075
288.657
268.6
249.62
227.647
217.321
192.092
4309.62
2206.56
1360.68
844.949
622.349
513.113
406.999
374.024
327.91
305.246
271.891
248.956
227.269
214.357
203.948
199.603
195.619
187.135
177.046
152.276
1729.71
1417.52
1266.98
1099.78
856.533
613.258
418.111
325.016
262.251
221.686
185.966
167.565
155.977
145.011
130.16
112.139
102.47
94.0079
89.6255
77.87
11595.6
8334.5
3309.52
1626.01
865.498
547.109
476.076
503.396
531.343
509.641
420.921
335.352
274.166
227.61
191.764
162.844
140.975
129.437
127.438
123.464
19951.8
6134.8
3321.09
2458.1
1571.21
1346.38
910.849
827.976
679.598
585.446
423.406
342.408
280.637
267.158
265.987
273.83
281.561
289.806
300.32
304.984
14228.3
6528.01
3279.95
2174.13
1351.14
1089.51
797.675
704.755
542.733
462.4
357.714
321.144
287.617
279.391
267.37
263.587
257.655
256.244
255.577
252.459
2177.52
4532.93
3930.09
2373.69
1498.78
1187.78
879.587
761.578
584.018
492.17
379.352
328.766
284.801
266.24
248.547
240.137
231.756
230.666
230.616
230.819
5221.48
5341.47
3257.78
1937.77
1415
994.918
807.412
716.4
568.889
490.42
398.894
352.852
315.002
294.864
276.046
265.694
255.428
251.482
248.615
246.689
9852.48
8741.43
6654.72
4679.7
2462.95
1430.63
917.617
736.148
588.779
501.028
433.078
386.24
361.846
341.465
330.677
318.67
301.219
283.174
268.427
257.276
8350.09
9877.87
5590.75
4402.65
2367.71
1796.66
1205.85
850.852
660.135
547.55
502.629
462.391
430.311
409.69
399.466
396.244
384.754
357.317
315.178
277.967
8002.84
5784.71
3382.19
2812.35
1960.84
1964.43
1674.35
1335.72
777.841
582.022
501.986
449.985
419.288
367.626
359.63
368.071
372.308
357.588
298.03
259.375
17877
13003.1
5944.36
4070.13
2581.41
2170.13
1723.06
1493.26
820.451
583.673
499.235
453.563
408.578
342.515
289.302
308.823
302.923
274.906
245.187
237.897
10698.7
10199
5935.89
4166.54
2546.34
2250.96
1614.59
1278.07
776.681
586.456
538.414
474.751
397.993
305.212
255.456
247.412
240.855
226.971
224.073
230.423
3854.94
6244.52
4165.64
2900.33
1732.89
1632.07
1255.85
894.491
688.237
614.592
514.521
388.245
308.194
270.553
283.479
230.958
213.367
213.585
220.706
243.637
2846.88
4491.23
3196.94
2206.41
1254.28
1027.94
947.638
742.117
634.674
557.018
535.625
506.976
451.864
388.279
293.095
235.76
227.752
230.063
237.678
258.001
7706.37
5064.02
3702.43
1822.91
1220.57
1016.81
891.488
967.302
894.419
778.223
671.789
606.459
488.451
374.784
262.902
251.165
250.238
253.397
260.976
280.305
3716.95
5949.65
3477.2
1732.79
1257.32
1095.87
1013.36
896.315
780.027
665.791
555.219
459.987
366.974
327.094
308.379
305.549
305.662
309.208
315.812
330.489
2082.77
4700.93
3355.36
2291
1407.87
1086.88
943.947
751.019
644.539
535.859
465.441
421.184
385.132
383.978
387.177
394.802
402.809
408.316
409.729
406.985
1558.92
3574.08
3717.27
2920.67
1926.89
1339.25
892.19
749.384
613.067
556.671
490.631
478.11
465.562
469.54
472.536
478.611
484.659
489.614
490.647
482.387
2994.28
5378.37
4051.28
2513.87
1641.02
1176.78
867.723
770.066
676.084
650.551
612.257
605.741
587.171
582.554
574.107
573.516
575.118
574.116
569.003
541.209
6189.78
6511.93
3128.88
1689.92
1567.06
1287.11
1038.76
988.169
911.579
906.943
884.724
886.78
879.256
873.019
845.825
805.052
749.949
685.88
634.345
564.095
6005.25
6813
3413.85
1925.53
1492.16
1264.78
1047.81
982.87
860.689
830.844
756.678
737.926
695.785
677.156
635.068
612.634
577.653
544.386
493.099
431.373
6948.7
4401.25
2463.2
1790.13
1226.05
845.059
624.942
576.124
519.018
482.727
438.444
408.02
377.559
352.013
325.069
291.62
256.423
217.442
199.363
174.755
7687.16
8637.75
5906.66
2935.13
1362.38
857.454
740.125
712.387
662.242
542.692
427.118
343.801
284.51
241.268
209.022
184.35
167.376
153.88
148.427
135.975
6401.17
7663.84
4591.91
3030.11
1992.43
1706.83
1205.97
1089.89
850.209
747.195
575.536
513.341
441.957
424.499
404.969
404.342
402.933
405.466
408.303
408.967
14501.8
8186.85
4318.52
2677.76
1885.6
1436.44
1097.46
923.586
720.07
617.778
505.573
461.907
416.216
399.39
380.991
375.014
368.547
367.897
367.727
368.351
5895.66
6490.01
5336.83
2997.78
2027.73
1521.52
1177.45
963.039
743.522
617.209
501.368
444.764
398.854
376.806
358.169
349.772
342.817
342.334
342.705
345.069
4539.92
7886.85
4796.17
2584.74
1971.52
1374.5
1166.86
945.57
752.542
626.259
526.309
468.143
428.492
403.741
385.23
374.484
365.455
361.71
358.868
358.207
7972.1
8992.61
6423.38
4483.62
2646.17
1745.75
1294.63
1018.25
808.542
663.414
576.715
512.846
482.8
456.216
440.752
423.666
406.63
392.56
381.413
373.128
14226.8
8550.64
6044.82
4287.24
2669.37
2067.89
1547.15
1123.18
888.441
726.211
649.587
589.64
552.951
531.635
515.493
501.966
476.682
448.628
416.364
392.131
6443.27
7397.75
5221.42
3826.79
2800.22
2519.03
2170.19
1555.2
1042.58
803.408
683.559
601.904
555.881
504.719
499.521
492.977
474.131
432.211
391.934
374.395
18665.3
16854.3
8021.54
4432.17
2839.61
2468.44
2263.04
1733.96
1044.71
816.644
684.779
600.239
531.836
459.85
417.954
413.602
388.938
359.117
346.834
351.025
39159.5
11022.6
6337.28
4094.38
2653.69
2289.7
1975.03
1543.53
1030.65
837.442
715.069
598.417
487.161
398.172
339.514
340.297
328.216
324.189
328.197
348.063
17254.6
9303.83
5257.25
3099.98
2086.24
1857.96
1590.44
1232.01
1001.53
874.925
552.473
360.083
351.232
349.815
345.109
316.663
311.892
319.666
340.152
366.916
12314.9
7877.46
4147.22
2617.08
1866.13
1565.68
1536.37
1162.42
975.911
861.413
769.789
661.014
559.464
469.619
359.232
331.585
332.057
344.645
365.903
388.765
4189.61
7396.94
4837.42
2494.19
1922.98
1544.87
1429.17
1449.67
1191.28
1042.81
848.756
725.024
558.505
430.763
374.242
369.932
373.349
386.8
402.234
420.363
3765.58
7231.7
4491.12
2416.64
1926.06
1542.02
1406.15
1140.63
979.826
801.363
662.475
565.297
484.188
460.798
446.648
446.935
449.927
458.44
467.647
478.017
5486.64
7406.38
4927.74
2934.71
1966.7
1398.12
1262.33
992.69
844.284
701.531
618.53
571.961
539.923
540.687
541.279
545.368
550.742
554.559
555.991
553.75
4307.01
6501.11
5755.89
3767.05
2460.67
1593.19
1196
980.567
835.776
749.344
676.175
660.501
643.671
644.897
644.769
646.572
648.314
648.044
645.545
632.538
5691.86
8703.45
5703.5
3162.05
2156.48
1456.29
1213.67
1038.92
938.688
889.165
842.92
826.223
798.295
789.979
776.592
767.61
761.111
745.172
731.102
695.022
13613.1
10139.5
4113.28
2357.76
2177.09
1654.04
1420.17
1298.92
1199.6
1179.67
1137.42
1126.74
1089.05
1061.08
1004.55
955.012
897.921
837.413
786.913
726.177
9246.43
10517.4
4996.21
2304.37
1785.84
1499.55
1325.42
1263.63
1153.29
1142.36
1090.63
1069.86
1007.88
963.28
891.418
845.288
778.315
721.442
646.542
590.812
2015.08
3303.41
2459.24
1713.51
1146.62
846.674
709.445
658.041
592.573
549.579
502.347
469.178
433.809
400.11
367.069
329.372
295.848
261.292
245.59
209.453
2182.43
7498.73
5512.4
2378.6
1267.09
1001.5
900.581
787.248
635.086
480.328
374.225
305.553
260.438
225.797
199.683
179.548
164.338
151.303
139.701
127.769
8151.7
8278.83
5394.59
3209.75
2392.82
1922.1
1432.09
1215.35
939.303
819.818
681.304
628.53
566.142
542.611
515.964
510.235
501.37
499.864
496.161
498.874
9130.81
8264.44
5325.16
3044.78
2397.4
1667.06
1355.3
1056.11
858.012
717.658
621.563
563.879
521.607
497.131
480.287
472.44
467.847
467.722
468.447
473.946
15354
10429.4
6400.72
3473.95
2548.32
1792.9
1450.86
1103.1
874.18
706.524
602.914
536.824
497.494
471.339
455.998
446.792
442.61
442.533
443.592
449.503
10229.5
9484.77
5873.08
3159.42
2498.06
1677.85
1483.7
1110.51
903.95
728.451
633.581
561.778
526.025
495.424
479.893
467.159
460.372
456.637
455.326
457.667
19753.2
8846.35
6594.02
4105.38
2990.32
2022.37
1642.23
1232.97
982.311
788.002
692.098
612.745
581.526
546.792
529.221
507.829
493.191
481.823
474.36
472.845
12682
8120.47
6947.43
4284.77
3170.68
2301.04
1825.71
1318.51
1052.6
857.728
762.296
685.8
651.614
621.233
596.619
569.219
541.94
517.787
497.868
489.819
18388.7
11153.2
6572.13
4668.57
3558.44
2929.5
2417.8
1638.24
1190.88
924.926
789.733
693.962
642.958
603.337
592.35
562.316
528.761
496.797
478.513
478.512
15563.8
13281.5
7944.34
4423.37
3174.62
2738.69
2514.13
1721.63
1184.98
931.177
780.049
674.195
600.725
543.761
511.755
481.384
453.616
440.879
442.252
459.736
28101.5
11690.6
6725.93
3970.92
2941.14
2427.34
2169.07
1611.36
1183.89
963.735
791.655
638.747
519.979
453.063
421.046
418.166
412.622
417.013
432.677
461.147
25509.8
12907.9
6349.72
3379.28
2487.3
2075.53
1839.11
1453.69
1198.08
1018.27
697.101
466.288
413.228
404.787
401.469
407.077
410.352
428.518
452.744
475.115
14774.7
9780.24
5255.45
3166.29
2425.41
1973.68
1923.87
1449.03
1211.69
1047.23
873.043
701.097
574.962
485.893
417.989
427.251
434.673
457.781
480.155
498.274
3296.14
7503.6
6507.07
3300.33
2574.45
1951.84
1824.08
1712.96
1337.55
1142.81
888.638
726.499
565.128
476.234
473.926
476.492
487.166
506.053
520.701
533.477
21934.5
12620.2
5535.55
3030.2
2555.79
1853.89
1751.61
1329.67
1149.73
875.519
743.208
642.238
583.546
569.366
561.482
563.383
569.657
579.021
586.604
592.463
12365.4
13020.1
6983.33
3567.7
2428.22
1678.64
1573.29
1195.54
1018.79
825.493
742.423
690.666
668.789
665.417
663.774
664.404
666.86
668.152
667.918
664.31
17697.9
11124.8
8057.18
4558.11
2981.78
1813.2
1512.51
1181.19
1039.15
905.924
838.946
804.474
787.896
779.059
776.565
771.717
769.853
763.533
757.386
742.322
20455.4
13173.7
6914.26
3640.3
2619.41
1732.84
1549.01
1264.49
1177.58
1072.28
1029.09
981.117
955.015
931.209
916.959
897.16
885.044
858.929
841.109
804.631
52878.6
18354.1
5300.72
2995.03
2658.52
1881.71
1763.74
1515.15
1455.51
1373.82
1333.36
1278.24
1223.63
1164.3
1106.01
1045.91
992.823
934.773
891.977
841.32
13757.5
13278.6
6813.56
2749.29
2016.5
1607.26
1548.96
1419.01
1376.02
1346.27
1301.36
1257.65
1179.61
1111.14
1033.54
968.101
890.812
822.515
748.443
715.681
1914.27
2584.37
1839.94
1326.94
990.294
813.429
712.685
637.568
574.773
526.228
487.494
454.29
419.475
378.817
342.082
305.819
281.944
249.467
227.295
183.579
3210.65
4968.96
2635.87
1490.71
1179.84
1028.75
877.652
679.029
479.758
355.149
281.893
239.963
204.99
175.041
152.295
136.441
126.851
121.962
119.97
121.387
9047.92
8346.08
6423.45
3478.09
3209.96
2116.89
1917.86
1314.92
1185.89
915.888
888.93
780.268
760.364
698.302
687.483
659.67
657.596
650.037
650.31
661.073
10693.7
9358.32
6483.88
3613.77
3227.15
1933.39
1839.94
1250.34
1162.4
882.571
850.62
731.255
718.551
665.253
662.606
642.76
645.298
641.336
644.874
658.575
19791.9
12147.8
7939.12
4064.48
3427.57
2147.66
1975.7
1343.93
1178.94
885.696
826.907
710.231
693.472
644.832
639.858
620.967
621.933
618.31
620.877
632.828
34749.9
10996.4
6913.96
3850.52
3239.67
2057.48
2003.15
1357.21
1226.34
918.455
865.653
741.394
724.353
668.881
662.322
637.262
635.317
626.923
628.052
635.856
22454
11131.3
7218.85
4281.95
3802.1
2423.42
2262.71
1570.08
1323.63
1020.13
929.42
809.756
780.681
725.496
704.926
672.799
660.501
647.327
644.219
650.274
12298.5
10883.5
8567.6
4485.24
4190.01
2651.35
2314.54
1645.61
1363.37
1104.7
1001.93
886.748
860.14
797.587
763.281
716.083
690.986
668.453
660.037
666.021
15242.1
9242.15
8935.83
5067.4
4660.42
3466.72
2773.03
1871.78
1446.84
1123.97
987.621
861.032
813.418
762.781
759.797
701.87
664.729
646.063
643.799
659.517
14066
10837.1
8747.46
4432.51
3931.69
3233.42
2904.83
1861.46
1412.51
1095.28
929.332
797.194
728.06
676.995
659.625
625.519
596.021
596.592
608.594
642.042
31750.3
12354.2
7631.42
4453.58
3577.89
2795.03
2561.33
1842.86
1422.63
1113.09
867.171
678.961
596.379
564.539
564.029
572.995
567.758
580.664
606.522
639.48
23358.8
11643.4
7848.82
4235.36
3153.65
2404.7
2212.22
1784.68
1471.57
1160.01
832.407
568.57
500.139
513.671
535.071
574.781
577.156
600.566
625.137
648.949
9527.34
11489.7
7151.55
4147.04
3149.27
2350.44
2318.88
1820.98
1522.93
1238.43
951.694
723.545
618.071
559.631
553.555
605.892
611.525
636.086
657.818
676.452
12367.6
10776.8
8247.03
3929.82
3658.63
2517
2313.23
1950.39
1605.16
1272.86
998.094
781.651
663.895
603.399
666.824
666.97
675.652
694.271
704.876
717.28
22821.6
9781.62
6785.39
3799.73
3565.98
2208.93
2383.22
1615.63
1499.14
1043.32
978.131
812.797
800.152
762.476
765.379
760.556
769.011
772.347
776.293
780.689
41412.1
15540.3
8865.12
4043.55
3268.4
2060.05
2161.69
1472.21
1340.51
1021.3
986.708
891.303
895.759
872.713
874.699
866.065
867.313
862.092
857.068
851.933
12623
11622.1
9829.73
4999.2
3848.43
2089.19
2097.05
1458.79
1426.55
1142.89
1139.4
1031
1040.79
997.387
1003.76
980.069
978.601
959.628
948.925
932.515
25087.7
14833.7
8229.87
4094.17
3381.12
2123.79
2128.46
1550.66
1586.79
1318.85
1337.92
1208.65
1213.24
1148.6
1145.81
1104.39
1091.21
1049.42
1027.1
991.348
48482.7
17511.2
6653.11
3920.04
3475.93
2188.92
2395.85
1808.62
1924.83
1649.63
1680.21
1508.37
1480.07
1350.56
1312.51
1218.85
1180.92
1109
1075.17
1023.66
8077.46
10782.5
6807.38
2927.13
2583.56
1815.88
2079.35
1643.77
1817.6
1583.77
1631.7
1463.2
1418.06
1267.3
1206.77
1092.17
1035.15
955.652
909.512
879.454
818.693
2869.68
1938.75
1189.39
909.539
757.011
642.467
566.424
504.832
463.042
421.847
375.846
331.173
285.045
250.343
218.572
197.159
176.263
165.449
148.303
745.002
871.958
636.258
939.632
818.654
979.418
707.578
627.091
560.128
417.012
779.821
669.027
615.331
462.294
634.609
855.983
775.204
990.309
720.8
998.15
877.369
396.72
741.901
644.809
618.421
444.217
829.223
695.577
282.508
414.554
234.684
1160.26
1277.74
1200.32
1221.71
208.241
221.757
171.139
1249
876.807
1192.46
843.568
112.835
139.703
85.8953
713.834
515.763
699.293
498.397
91.8773
83.9507
94.5836
483.912
435.695
484.364
465.917
91.6134
98.1144
101.84
425.311
403.543
459.097
433.698
87.1164
101.789
96.0969
394.294
369.249
422.465
383.294
79.0643
94.7299
82.9208
359.342
318.687
368.829
308.974
46.5026
73.326
44.4051
301.763
250.436
285.831
242.53
215.751
332.712
166.645
1149.9
1123.89
1059.93
895.182
170.02
151.917
124.65
1091.94
808.05
827.2
643.028
87.1083
112.37
102.482
677.775
502.721
597.458
538.263
101.843
104.109
108.007
493.347
478.941
526.787
488.034
104.147
107.281
97.2083
470.836
437.07
467.173
393.101
95.6145
91.5445
75.3391
423.056
376.837
367.509
300.811
75.7775
69.8219
57.2515
359.71
292.134
281.902
239.159
44.3284
55.7527
48.4995
269.359
238.144
230.811
226.09
153.374
169.21
102.303
974.99
828.636
733.637
645.894
112.892
98.0088
97.2462
759.309
605.923
610.465
544.444
105.44
98.123
98.7836
579.059
538.086
529.591
489.931
107.524
98.0562
97.1711
526.647
481.438
479.798
462.353
91.4915
97.7645
96.8766
457.806
378.361
456.496
428.83
73.018
96.8436
96.1504
353.437
294.932
418.401
387.271
61.2615
95.2327
89.532
280.044
247.753
376.698
344.5
51.9394
87.0578
67.1747
241.665
238.166
333.392
306.897
95.8732
170.658
91.3913
727.785
639.853
769.818
723.231
94.4275
86.7864
96.9274
605.89
542.45
700.439
661.408
86.0286
105.133
105.599
527.356
473.854
649.608
580.259
86.3521
99.3492
76.7605
460.593
451.261
552.962
502.602
100.644
78.3014
106.176
454.092
451.701
502.226
510.829
103.247
112.33
113.166
445.845
416.954
507.282
468.137
94.2462
111.119
95.2649
404.582
364.549
448.17
383.557
70.4251
90.7999
61.1042
349.792
312.979
361.411
278.807
1593.98
1706.54
1476.87
2151.8
1935.47
2047.51
1778.57
983.325
1394.07
940.82
1722.32
1126.52
1614.82
1095.31
622.681
793.832
597.556
1000.31
822.666
981.036
810.933
514.613
577.659
539.444
772.94
674.24
777.96
697.142
465.65
527.415
489.888
649.261
590.773
673.005
604.972
421.088
475.26
427.338
572.437
525.441
582.197
512.91
360.337
409.525
343.933
508.123
452.002
488.939
418.575
286.443
321.375
271.403
434.63
395.099
398.471
350.67
1349.92
1403.71
1060.56
1921.04
1651.59
1640.41
1326.11
906.556
971.809
755.632
1516.38
1081.54
1231.57
1003.92
602.628
707.659
632.464
979.978
820.776
953.727
843.684
551.728
615.795
554.905
789.392
708.389
818.485
657.814
492.271
525.334
432.491
682.045
603.267
597.287
453.57
418.617
403.101
330.268
577.02
497.87
419.229
360.419
326.73
310.937
267.967
471.524
399.274
349.334
323.585
264.828
259.263
249.214
380.038
339.357
317.618
308.93
978.507
936.915
789.689
1529.14
1249.75
1355.78
1133.39
719.351
743.554
654.859
1164.81
978.101
1064.05
927.906
630.689
634.823
582.755
937.818
841.306
895.995
815.704
546.778
569.835
541.854
818.873
648.064
794.987
727.798
416.915
530.902
488.898
582.419
432.361
699.885
615.866
323.412
474.525
434.101
396.111
346.813
591.008
528.025
276.542
421.147
383.52
343.34
334.816
509.535
458.888
262.699
370.986
332.022
332.636
324.509
442.406
386.049
788.486
992.144
887.924
1398.46
1147.04
1422.65
1290.34
654.747
861.642
799.149
1073.22
934.712
1252.76
1122.38
572.312
775.431
683.149
902.306
818.137
1067.87
933.544
538.301
658.316
605.38
797.214
743.673
909.551
831.263
517.316
598.787
582.292
724.01
657.125
802.864
726.34
467.125
573.42
519.677
634.075
565.144
702.739
612.088
404.919
495.731
422.28
542.68
479.057
578.324
486.609
335.908
398.136
299.106
457.748
386.071
456.202
354.082
1968.15
2107.24
1803.63
2449.3
1969.8
2237.47
1822.61
1156.77
1628.52
1131.49
1721.11
1243.3
1639.73
1226.44
867.906
1028.27
861.031
1152.35
962.742
1141.68
968.935
711.967
824.914
733.808
907.71
792.182
924.377
807.836
619.818
706.545
630.231
760.72
681.453
772.922
676.575
549.998
605.316
530.912
659.188
604.003
646.617
563.459
475.842
506.088
436.971
585.804
536.177
538.904
479.671
423.519
417.906
370.822
524.356
502.884
464.72
430.499
1688.27
1688.21
1384.17
2111.17
1747.21
1836.09
1533.65
1123.32
1290.61
1066.17
1592.01
1228.76
1438.8
1215.42
872.445
1015.14
896.46
1150.15
983.888
1159.69
1020.7
857.915
806.029
850.914
877.882
819.656
842.943
892.422
701.45
685.618
713.412
742.229
678.481
709.646
740.065
514.082
390.505
361.955
634.465
541.343
437.73
403.475
416.55
356.815
338.838
515.164
455.193
396.578
381.68
357.608
333.948
323.262
440.751
412.813
378.621
370.671
1315.76
1476.3
1224.63
1771.92
1487.37
1762.58
1448.09
1044.27
1149.83
1002.61
1401.4
1204.32
1362.2
1189
895.506
967.561
879.475
1154.41
1024.55
1145.34
1031.87
857.655
810.326
864.625
912.498
821.117
765.94
913.499
528.554
489.099
608.467
423.758
547.517
365.615
592.002
346.541
616.829
547.286
416.2
399.993
659.307
572.376
351.371
527.273
473.254
398.718
394.263
549.604
492.569
339.492
455.744
395.027
392.538
381.024
474.63
420.449
1242.52
1556.53
1394.07
1833.97
1476.42
1852.04
1634.79
1011.81
1352.56
1200.52
1383.87
1204.19
1578.88
1366.94
884.758
1136.86
994.885
1158.79
1043.76
1286.93
1129.2
795.231
970.239
879.002
1010.25
900.055
1096.41
959.597
687.85
844.172
753.497
858.18
736.333
909.803
787.29
583.802
726.663
626.324
700.051
604.212
752.005
632.692
491.99
590.438
495.984
577.051
506.578
595.299
505.166
394.216
465.127
368.059
484.2
419.862
478.016
413.957
1963.12
2290.82
1830.65
2769.8
2010.56
2552.59
1936.65
1274.16
1648.7
1256.4
1793.61
1415.74
1755.49
1394.82
987.347
1173.94
995.769
1323.22
1088.49
1311.55
1099.1
812.631
948.141
823.307
1025.95
898.235
1037.11
878.576
697.048
786.167
684.292
862.677
765.255
833.222
712.473
618.419
653.086
569.221
739.629
684.392
678.177
602.636
554.204
545.74
491.554
669.404
629.133
585.812
548.54
523.948
478.226
447.559
619.905
599.276
539.268
515.946
1767.22
1897.84
1582.41
2427.42
1903.87
2150.83
1788.96
1261.13
1485.66
1258.74
1743.96
1407.9
1684.51
1434.8
1011.42
1200.58
1050.65
1326.34
1113.62
1362.5
1155.54
833.087
1005.85
786.224
1049.63
879.581
1086.27
872.07
674.721
699.814
516.759
828.649
690.879
793.495
593.592
544.901
480.394
419.548
651.454
567.551
544.997
462.282
465.727
409.47
394.876
551.408
519.316
454.804
455.609
428.913
392.635
385.451
511.586
495.977
456.001
452.152
1541.62
1848.07
1513.2
2092.98
1758.68
2113.89
1754.4
1250.93
1424.84
1243.83
1663.99
1436.29
1661.08
1453.45
1056.55
1197.08
1072.39
1367.95
1167.13
1392.89
1208.62
791.914
1033.64
897.715
1101.21
878.753
1145.99
951.351
501.333
845.195
701.193
794.673
588.244
884.872
710.008
418.909
662.489
571.839
540.922
465.217
664.83
575.667
406.355
549.188
494.379
459.463
462.202
559.092
520.888
393.836
477.421
428.432
461.999
454.641
508.92
477.352
1544.12
1951.15
1701.73
2192.3
1792.85
2266.93
1933.33
1260.4
1639.45
1408.31
1691.54
1471.45
1841.7
1561.07
1085.82
1324.94
1162.2
1409.79
1227.59
1476.87
1283.32
920.049
1125.13
971.245
1165.28
974.629
1221.9
1012.79
739.852
917.508
787.176
911.619
744.406
950.372
794.578
601.866
749.813
627.619
699.365
602.779
749.491
630.064
506.96
591.346
506.841
581.35
530.127
601.257
539.53
428.594
482.685
428.638
515.255
479.777
523.939
495.512
2068.31
2691.62
2025.47
3204.96
2307.45
3051.83
2342.19
1505.75
1844.8
1490.57
2122.68
1888.87
2185.77
1916.82
1160.51
1405.89
1172.95
1809.32
1540.67
1846.42
1582.83
965.116
1103.31
928.203
1464.03
1389.24
1501.17
1315.64
823.769
878.961
749.349
1356.65
1231.26
1264.38
1125.44
741.732
714.443
648.589
1192.97
1170.07
1096.6
1086.9
686.268
635.371
601.819
1158.93
1107.93
1082.7
1047.33
650.96
592.925
566.446
1093.6
1070.4
1039.98
1019.43
2003.14
2274.17
1907.88
2909.76
2350.14
2625.55
2317.62
1508.01
1802.45
1543.85
2211.67
1949.62
2232.28
2011.03
1185.65
1463.64
1225.05
1867.99
1591.03
1917.17
1617.87
922.787
1144.4
910.366
1503.11
1290
1515.24
1244.61
719.102
829.602
621.205
1229
1070.57
1160.34
939.234
606.417
570.694
496.463
1037.33
1034.43
897.282
907.811
571.52
495.872
508.653
1043.73
1022.46
945.47
974.142
545.756
509.377
501.061
1016.08
992.332
971.711
949.74
1879.53
2236.19
1882.96
2547.01
2297.12
2606.66
2331.12
1547.88
1788.97
1572.16
2224.71
2021.03
2250.17
2050.25
1238.36
1504.69
1290.32
1929.41
1633.13
1973.76
1691.95
918.029
1216.22
994.502
1531.64
1251.86
1597.06
1343.17
618.053
921.891
733.439
1163.12
936.808
1265.31
1059.39
499.536
686.351
606.332
895.378
908.726
1019.38
1008.07
513.676
595.402
564.488
946.754
975.445
1019.32
994.035
502.346
553.825
522.448
972.514
947.302
986.975
960.458
1924.21
2413.31
2047.16
2704.49
2372.49
2827.35
2375.14
1589.33
1943.4
1653.64
2274.22
2054.94
2252.49
2017.14
1311.75
1572.74
1361.77
1987.92
1711.84
1974.03
1702.4
1020.86
1288.35
1061.5
1618.28
1376.34
1600.92
1402.96
770.166
997.706
830.703
1303.5
1103.94
1361.1
1157.17
635.558
781.842
665.158
1063.58
1038.23
1104.41
1026.56
572.711
639.504
583.212
1033.54
993.495
1021.84
961.27
525.607
569.533
542.368
985.073
960.488
955.991
937.541
819.746
775.201
749.339
775.409
785.084
808.931
779.906
870.893
861.474
814.056
910.945
832.941
905.527
792.75
814.764
732.848
729.082
537.719
783.508
757.642
644.547
889.128
911.575
897.834
955.569
873.228
927.041
913.727
848.488
799.849
858.054
824.403
836.374
805.168
870.622
899.12
943.75
971.279
913.557
941.89
814.52
925.087
844.121
551.62
809.665
819.952
783.925
662.713
870.546
662.501
656.029
609.302
645.732
643.063
677.312
625.44
655.796
684.327
493.331
462.301
640.145
703.786
402.517
600.749
554.117
442.236
364.494
592.964
562.002
363.469
719.81
763.712
741.868
777.968
728.288
761.777
733.146
678.032
659.588
705.079
646.407
693.575
637.65
689.382
673.025
472.084
748.92
547.985
726.02
411.491
691.665
616.2
373.312
591.571
501.483
574.637
374.605
638.765
765.601
724.564
679.4
514.474
755.199
626.594
671.188
877.493
859.092
832.687
910.155
830.077
910.007
883.355
831.832
743.006
806.096
816.249
789.857
778.627
852.338
905.852
950.247
934.124
993.847
814.892
957.687
948.662
809.156
539.085
835.571
779.501
663.779
710.1
869.9
920.344
957.466
992.805
963.388
954.831
927.063
955.547
871.87
850.503
844.675
923.222
813.92
891.586
905.499
489.338
426.902
459.774
315.742
499.537
312.622
450.141
675.215
694.951
708.121
777.737
649.44
724.922
739.169
633.569
575.35
675.791
667.835
610.462
594.843
702.527
560.414
442.972
540.062
695.446
380.977
627.198
622.761
517.861
335.644
475.107
524.165
329.494
478.326
567.288
701.422
807.004
782.543
781.608
755.426
763.766
724.497
655.503
684.742
628.745
736.708
613.313
722.834
673.595
443.425
549.041
457.459
846.944
884.15
868.958
968.07
283.425
387.126
309.346
823.812
631.838
969.343
824.262
171.876
231.3
179.877
461.679
405.905
565.835
469.644
145.02
150.023
141.97
363.794
316.52
407.232
378.019
130.208
137.111
134.786
309.63
309.662
362.252
357.688
124.489
130.028
126.866
302.252
287.7
342.769
330.001
116.414
124.389
118.793
283.565
280.013
320.221
304.272
87.6145
108.728
77.4066
258.589
263.982
262.677
242.503
668.389
884.528
653.921
1179.94
1040.92
1257.62
1074.95
527.526
368.537
444.471
565.249
522.21
572.803
351.071
562.98
253.512
239.568
526.874
521.109
560.808
222.973
296.709
152.875
155.733
335.539
275.355
374.245
130.543
216.222
94.1331
86.2514
198.589
193.086
214.635
82.5995
233.283
91.583
87.1915
192.505
194.988
230.648
88.4627
234.462
88.7655
90.3483
198.432
200.221
235.027
90.1283
219.921
84.5819
87.8363
192.106
192.78
224.94
86.5456
176.293
67.9379
77.9394
177.799
169.186
190.932
69.0689
67.2616
93.346
73.761
209.134
226.256
206.322
212.719
599.034
781.332
562.722
1277.58
1060.83
1231.23
1030.72
449.699
292.564
363.62
514.119
485.481
495.719
273.192
486.165
200.557
187.38
526.67
531.846
479.026
183.691
293.054
109.167
134.192
369.21
292.714
361.151
108.361
276.917
90.0777
92.2692
248.014
259.932
263.911
97.3306
282.442
104.457
106.939
279.257
278.259
286.185
106.627
252.546
100.886
101.966
265.823
258.11
262.595
98.5683
208.675
90.7839
89.5273
235.138
224.967
223.097
84.8698
136.703
56.9449
57.5984
161.923
145.263
144.645
53.9948
79.8286
97.0402
80.4858
197.962
205.603
200.583
198.805
441.918
405.833
304.848
962.53
902.764
755.918
714.999
378.644
217.826
259.858
430.032
399.684
402.473
195.256
319.588
129.348
119.727
376.049
357.944
335.383
111.977
292.485
104.986
104.314
300.456
294.339
293.124
104.412
290.571
107.883
106.923
293.174
292.744
291.716
107.437
261.068
102.929
104.241
276.3
264.915
272.35
100.29
210.057
80.8858
85.8819
218.57
205.29
220.647
81.8509
183.169
65.8275
74.0504
174.262
165.515
187.822
72.8649
171.812
61.1578
71.1614
150.733
149.86
173.626
70.5359
87.1582
124.157
84.5356
226.696
210.934
245.304
212.265
243.788
287.427
244.77
611.842
668.147
622.621
661.207
272.027
116.862
142.685
269.132
280.251
258.913
114.265
281.589
93.9704
92.9284
284.089
280.737
282.638
93.2825
268.51
93.0398
95.0335
270.584
262.338
276.015
93.7856
222.73
84.1255
80.0159
233.525
232.186
228.284
78.3506
254.558
95.0006
85.2283
248.323
257.251
238.327
92.6559
281.081
103.406
106.016
269.226
268.98
279.953
107.573
261.683
99.6968
106.479
257.759
250.875
270.281
103.414
220.334
86.303
92.1038
225.817
217.562
231.057
86.8088
74.1015
99.9172
60.8845
233.463
189.719
200.227
178.525
206.045
258.462
182.414
455.512
530.693
441.263
515.163
207.26
195.827
216.692
605.07
628.523
680.408
685.269
206.663
212.918
191.998
619.02
585.116
646.122
592.703
174.477
179.006
174.364
544.534
513.848
575.029
553.271
180.447
170.667
164.713
491.107
484.316
513.498
483.386
177.738
160.863