/*--------------------------------*- C++ -*----------------------------------*\
  =========                 |
  \\      /  F ield         | OpenFOAM: The Open Source CFD Toolbox
   \\    /   O peration     | Website:  https://openfoam.org
    \\  /    A nd           | Version:  10
     \\/     M anipulation  |
\*---------------------------------------------------------------------------*/
FoamFile
{
    format      ascii;
    class       volScalarField;
    location    "6";
    object      nut;
}
// * * * * * * * * * * * * * * * * * * * * * * * * * * * * * * * * * * * * * //

dimensions      [0 2 -1 0 0 0 0];

internalField   nonuniform List<scalar> 
12920
(
11.2172
15.4537
4.70109
5.60862
3.40442
2.33156
1.46317
1.62839
1.63519
1.80052
1.58482
1.37573
1.12138
0.975024
0.78123
0.673256
0.575234
0.537142
0.528701
0.502038
6.14154
5.43866
8.48764
7.30353
5.86547
5.05257
4.123
3.80956
3.38632
3.19596
2.26932
2.02693
1.661
1.73845
1.74066
1.95256
2.0663
2.23365
2.31396
2.29711
10.7892
11.342
7.61227
6.95336
5.41648
4.60681
3.92729
3.61781
3.21437
2.90748
2.59129
2.40396
2.26559
2.20469
2.15512
2.13906
2.11153
2.09224
2.08051
2.04129
3.30635
9.86292
8.92235
7.12232
5.66869
4.89784
4.20895
3.85143
3.42644
3.10249
2.73373
2.47422
2.28045
2.17276
2.08702
2.03442
1.98755
1.96712
1.95778
1.95538
5.07185
7.08422
8.05879
6.36197
5.39127
4.46467
3.96653
3.73873
3.38652
3.09866
2.78081
2.55086
2.37971
2.27703
2.19459
2.1343
2.08875
2.05818
2.04351
2.02572
9.27965
12.6283
7.74758
9.30324
7.43696
6.02913
4.63303
3.88312
3.42907
3.10588
2.85279
2.65349
2.55484
2.48281
2.44049
2.3671
2.27435
2.18204
2.12238
2.05681
0.765015
13.7105
13.57
10.8355
7.99972
6.58564
5.40398
4.35849
3.71321
3.26783
3.07542
2.93819
2.86332
2.78531
2.70803
2.65177
2.58052
2.3634
2.16984
2.11156
3.37609
11.4111
10.2924
8.61466
6.1293
6.43889
1.70559
1.52302
1.37803
1.36733
1.32245
1.25837
1.23915
1.17598
2.62925
2.56776
2.47701
2.44077
2.33495
2.1167
23.9012
16.8799
10.7427
9.7369
6.87628
2.24184
0.700016
0.527363
0.424512
0.371185
0.459924
0.505578
0.439993
0.344012
0.856858
2.59271
2.51086
2.33443
2.15402
2.02368
20.3166
14.7647
11.8202
10.0984
8.36494
3.21187
0.731838
0.421123
0.348065
0.306513
0.428948
0.407668
0.340913
0.23538
0.854891
2.34426
2.19712
2.10262
2.01441
1.96568
0.994636
4.26716
7.04482
7.94466
6.67914
2.63855
0.74885
0.367094
0.302981
0.334361
0.350669
0.292922
0.254841
0.234619
0.851948
2.12742
1.96464
1.88992
1.92513
1.9637
0.311926
4.27697
6.09215
6.72111
5.55527
1.95841
0.673654
0.348915
0.314784
0.279667
0.307042
0.361409
0.367415
0.327687
0.92493
2.19874
2.09926
2.02053
1.9978
2.03104
4.46353
8.11469
8.07215
6.36099
4.3431
4.57885
1.56713
1.59773
1.15508
1.13643
1.05497
1.33489
1.19285
1.06316
2.25605
2.15467
2.11041
2.08112
2.08305
2.13011
5.15129
9.66586
8.62315
6.1021
4.58891
4.554
4.32484
4.04289
3.94776
3.66353
3.45475
3.10126
2.70941
2.43013
2.31127
2.27457
2.25613
2.25997
2.27388
2.32297
2.88175
9.10912
6.66482
7.56922
5.06158
4.75633
4.29388
3.75654
3.52919
3.20411
2.98634
2.79047
2.61979
2.56677
2.56884
2.59776
2.63924
2.66018
2.66133
2.63698
1.607
8.21171
8.53589
8.00691
6.61373
5.43325
4.36101
3.7887
3.39704
3.19586
2.98454
2.89857
2.84285
2.86136
2.87973
2.90974
2.93815
2.95859
2.9603
2.91312
5.52096
10.2224
7.84969
7.53604
5.66802
5.01697
4.10764
3.78658
3.47985
3.39687
3.26139
3.23542
3.17245
3.14524
3.11565
3.11912
3.13879
3.1688
3.16993
3.07892
5.42938
5.94776
7.12149
6.18087
4.57612
5.00848
4.19489
4.25968
4.09384
4.0828
3.97693
4.00175
3.43637
3.37736
3.00252
2.85425
2.67634
2.59946
2.60848
2.48536
8.06874
10.5207
8.29034
6.50845
5.59739
5.07877
4.39583
4.33421
3.26211
3.38322
2.55234
2.45867
2.11856
2.08603
1.96932
1.99455
1.95948
1.93148
1.85671
1.68734
3.13798
7.97149
5.04408
6.61014
3.94276
4.10714
2.46152
2.40503
1.70333
1.51452
1.16678
1.07119
0.966421
0.920265
0.824736
0.726639
0.67193
0.639025
0.607753
0.533448
23.8861
37.6921
24.3202
22.8399
13.2311
10.6491
9.22885
12.5323
12.8915
12.6416
11.4487
9.86525
8.10212
7.32131
6.32329
5.79879
5.09594
4.81763
4.62585
4.13681
39.5223
36.732
33.0399
31.0249
25.6719
23.7584
18.9843
18.5221
17.3725
15.998
12.5597
10.8008
9.63722
9.8938
10.627
11.5126
12.1342
12.4963
12.8688
13.0076
49.4544
46.5751
35.4991
29.5875
22.9386
21.9934
18.9944
18.6192
16.0446
14.6438
12.2823
11.8319
11.6356
12.2049
12.4137
12.5811
12.5382
12.6009
12.6128
12.4214
5.69675
33.3194
38.2646
32.2593
26.1836
24.4449
21.0794
19.8883
17.1342
15.7031
13.5194
12.982
12.3961
12.4477
12.2092
12.1405
11.8801
11.9665
11.9969
11.9656
12.8445
33.987
33.4774
29.1882
24.6144
20.2338
18.7469
18.3903
16.384
15.6566
14.1771
13.8738
13.3689
13.2066
12.6302
12.3776
11.9322
11.8533
11.7917
11.9338
20.5889
45.8417
38.7651
30
23.1071
19.8249
17.2089
17.0594
16.3958
15.9642
15.3828
14.933
14.4976
14.0459
13.5993
13.0944
12.3394
11.6623
11.2498
11.5594
18.3412
32.6161
30.4892
34.0438
23.8645
21.8942
17.8781
16.2744
15.9836
16.0921
16.5403
16.1339
15.2941
14.5661
14.0965
13.6168
13.0498
12.1858
11.074
11.2295
23.909
37.0987
25.2745
25.1722
20.6001
24.46
20.9807
17.5044
13.3606
14.2464
14.6373
14.3533
13.682
12.3463
13.0013
13.2789
13.1904
12.6609
10.9115
11.1819
76.6116
61.9292
41.6535
32.9939
22.419
15.4229
13.5273
18.861
12.4573
12.6043
14.5468
14.4924
13.5543
11.5793
10.9258
12.8227
12.594
11.6756
11.1422
11.578
25.5799
59.3543
47.2014
39.501
25.4969
19.1965
13.7871
17.7129
13.3401
14.6342
15.9412
14.7179
12.6028
9.91908
9.64549
9.83076
10.4081
10.4644
10.8115
11.3291
7.69969
42.3528
35.8936
36.7222
23.9347
20.2573
15.3417
15.2934
15.3178
16.1248
14.2659
10.9442
9.33839
8.8238
9.89531
9.08674
9.52089
10.0994
10.5855
11.651
6.53211
27.5759
40.7185
30.7248
19.1519
17.1715
16.0461
15.9507
15.8133
14.8928
15.3043
15.3456
14.3925
12.6732
9.49599
10.5005
10.9339
11.1297
11.3086
11.9872
17.6904
38.11
47.1859
27.7212
19.7411
17.751
15.4145
17.8289
18.2119
16.7304
16.3981
16.4714
14.146
10.9978
10.6819
11.627
12.0309
12.1526
12.293
12.8026
12.0055
45.6196
44.0587
28.6214
22.1324
22.1431
21.5187
20.9147
20.2687
17.8319
16.1882
14.2313
12.6601
12.3806
12.718
13.1556
13.2809
13.3895
13.5286
13.8518
9.59824
31.6809
28.4393
25.3334
21.6559
23.2525
22.7899
20.4175
19.0118
16.7165
15.6149
14.9488
14.4831
14.9227
15.3491
15.654
15.838
15.8654
15.7014
15.3415
5.9637
24.6215
32.4237
34.1699
30.5386
26.14
21.0618
20.2014
18.4333
17.8862
16.8489
16.9701
17.0193
17.1988
17.2502
17.3394
17.4039
17.4252
17.2374
16.7836
6.4554
37.643
41.0117
33.5385
28.0232
23.7765
20.8526
20.9545
20.1849
20.1141
19.6676
19.4653
18.9027
18.6632
18.3579
18.4127
18.4601
18.4701
18.3119
17.6078
15.1099
52.364
40.1018
23.9157
25.4998
24.7379
23.3432
23.6603
23.1245
22.9255
22.3026
22.0125
21.4782
21.0575
20.4217
19.7636
19.0992
18.728
18.3722
17.6743
16.0367
45.2258
38.5383
29.7213
26.8538
24.2028
21.3431
20.8907
19.0024
18.7332
17.4843
17.4893
17.0392
17.1341
16.7208
16.6698
16.4036
16.2985
15.5333
14.8044
8.81967
34.598
23.9988
23.289
13.1037
12.9662
10.3098
13.4354
10.6983
10.7528
8.6708
8.24695
7.32604
7.02627
6.51363
6.06366
5.47604
4.83324
4.32216
3.7986
11.1927
51.1626
42.6636
30.4282
20.8623
16.4667
15.2267
14.9296
14.4063
13.0706
11.5057
9.78681
8.37272
7.84725
7.03582
6.60064
5.98072
5.41284
4.93133
4.04319
12.1112
56.818
53.7689
44.8045
36.0147
33.213
27.3437
26.0923
23.3443
21.7816
18.7865
17.7371
16.69
16.7881
16.8292
17.088
17.2577
17.3975
17.5488
17.7345
56.9553
57.0343
53.8362
45.6519
39.2443
35.227
31.0349
28.6932
24.9656
22.7118
20.3336
19.6424
19.0605
19.0512
18.8505
18.7733
18.6737
18.712
18.7172
18.6777
28.2986
44.9536
54.6883
49.1319
43.6674
38.9937
34.2174
30.7054
26.5696
24.0282
21.6681
20.7071
19.8717
19.512
19.0734
18.8458
18.6026
18.5801
18.5734
18.5614
17.5595
57.5461
58.3119
48.9616
42.9473
36.0841
33.5249
30.3344
26.9345
24.6536
22.7232
21.6985
20.8224
20.198
19.5001
19.0933
18.6951
18.5832
18.518
18.5798
29.9638
59.7919
52.2195
48.527
39.1384
36.1751
33.4289
31.006
28.4109
26.0225
24.4541
23.0972
22.0619
21.1008
20.328
19.5614
18.8634
18.4818
18.2694
18.5104
29.7829
53.5203
50.5529
49.4275
39.4463
37.76
33.8695
31.0544
28.9509
27.3313
25.7014
24.1271
22.5661
21.4647
20.4896
19.8076
18.9241
18.3709
17.9506
18.3345
18.6014
51.5999
48.0766
43.5818
38.73
42.3466
38.193
31.3397
27.6869
26.4905
25.269
23.2154
21.7203
19.7895
19.3656
19.1315
18.6417
17.8216
17.3865
17.9999
52.7237
70.7989
55.5486
48.926
38.6134
35.7538
32.849
33.4285
25.6817
25.4386
24.5847
22.6311
20.5479
18.1515
17.2638
17.2662
16.9771
16.5188
16.7733
17.4195
57.6141
71.1736
61.6889
53.5492
40.74
36.3939
33.9895
32.1195
26.4793
26.2868
24.4175
20.8306
17.3497
14.8028
12.9399
13.9
14.6093
15.2176
15.8624
17.0815
42.3003
48.766
66.375
52.1684
40.4544
36.1199
31.9517
30.1422
28.3146
27.3725
7.87605
5.83696
8.56071
10.9213
12.7417
13.0082
13.8826
14.8679
16.1664
17.7819
37.431
54.1178
59.4315
46.7994
37.7957
33.9552
31.914
29.9273
28.0787
26.1882
24.3832
21.9595
19.9088
17.5218
14.1534
15.1925
15.8876
16.7246
17.7589
18.8527
14.385
30.4386
60.474
45.9492
38.4677
34.637
31.1241
31.7029
29.478
27.2863
25.8432
23.8698
20.0761
16.3574
17.4926
18.1951
18.5945
19.1889
19.7186
20.2294
8.15463
46.3425
59.3727
47.786
40.831
38.187
35.8045
33.1809
30.5373
27.1887
24.3452
22.2747
20.6134
20.723
20.8863
21.1667
21.2797
21.4423
21.5431
21.6082
18.882
43.9486
51.5039
47.6483
41.7836
38.2273
36.3125
32.7302
29.7647
27.0241
25.0729
24.2848
23.6177
23.9934
24.092
24.1492
24.0523
23.8948
23.6051
23.1271
12.5397
40.8709
50.4054
50.2424
46.4129
39.9849
35.004
32.6536
30.1154
28.7152
27.1564
27.0453
26.7197
26.6453
26.4166
26.2354
26.0096
25.7441
25.3494
24.6084
14.9358
56.2372
56.6522
49.9472
44.6053
38.2215
35.4106
33.835
32.3354
31.4724
30.521
29.8361
28.8594
28.4106
27.9009
27.5807
27.2982
26.7806
26.3247
25.2818
34.2023
64.7734
55.7807
43.9018
43.654
39.5598
37.4438
35.8031
34.3876
33.627
32.4939
31.8732
30.8417
30.0872
28.8705
28.126
27.2574
26.4871
25.6281
24.8195
39.4588
55.1459
50.076
39.5229
35.6414
33.3339
31.2957
30.7578
29.2926
29.0951
28.3262
28.112
27.4064
26.7938
25.668
24.9061
23.5405
22.4344
20.5369
19.0458
2.81563
32.1667
21.8297
20.4835
13.9051
15.3696
14.1642
14.3618
13.2345
12.8104
10.6733
10.0964
9.13286
8.653
8.01142
7.39317
6.69079
5.74083
5.07785
4.14413
5.55168
44.9618
41.3643
27.0023
18.9134
15.6982
16.531
14.1989
12.466
8.99573
7.78121
6.484
6.1358
5.47409
5.01672
4.41715
4.0058
3.57822
3.27166
3.0731
25.943
62.7982
60.6951
49.621
40.4832
37.2099
30.3859
28.3473
24.6595
22.2872
21.2722
19.9475
19.4141
18.7159
18.2647
18.1103
17.9451
18.0061
18.1122
18.4533
26.9376
67.3627
66.551
54.7987
48.0638
42.1637
36.2705
32.6607
28.2274
25.7747
23.4437
22.2591
21.182
20.6371
20.1888
20.0394
19.94
19.9627
19.9879
20.1219
35.1155
66.2483
64.8301
59.0726
52.9419
46.7498
40.4159
35.6157
30.335
27.2925
24.6371
23.2641
22.1012
21.4072
20.8303
20.4917
20.2741
20.1599
20.1051
20.1182
32.3566
64.614
65.6001
58.8364
53.2436
45.548
41.5451
36.2606
31.598
28.4222
25.9198
24.3346
23.1149
22.1896
21.5004
20.9852
20.646
20.4266
20.3077
20.2423
70.6232
67.0615
65.9986
61.0158
52.9264
48.3918
43.3879
38.688
33.9085
30.3692
27.8094
25.8275
24.5187
23.2247
22.4055
21.5824
21.0415
20.6807
20.4612
20.4207
36.2297
59.9757
64.2808
60.4061
53.0077
50.4665
44.966
39.9035
35.0061
32.0537
28.8689
26.7027
24.9578
23.7756
22.6913
21.7861
21.1341
20.7335
20.4549
20.4619
43.8661
49.2736
57.8721
58.0004
53.5281
54.6359
49.4055
41.7836
36.1102
31.8982
28.8119
25.7626
23.9637
22.3596
20.8771
20.5661
20.1457
19.771
19.6752
19.9306
39.3843
73.3555
65.6534
60.7436
52.8514
51.138
46.3494
41.6479
34.5195
30.3089
26.881
23.6468
21.5272
19.7979
18.4228
17.6107
17.6741
17.8879
18.3094
19.0891
75.1718
77.4776
70.4145
62.0765
53.1643
49.1998
46.213
39.8151
33.4863
29.6824
25.4005
20.8003
17.3711
15.4943
14.4365
15.1249
15.9623
16.6968
17.6205
18.9713
66.5248
69.1172
74.874
60.2288
50.9136
46.6365
43.0503
38.0823
33.8162
30.3121
13.3984
10.2872
11.7529
12.8498
13.4287
14.5519
15.69
17.0148
18.4108
19.6517
39.3004
65.6402
68.4149
57.9618
49.9258
45.0682
42.2091
37.4401
33.554
30.474
26.5169
22.3623
19.477
17.1572
15.1703
16.3241
17.505
18.9047
20.0212
20.8153
12.7291
39.0052
62.3992
57.9828
50.2553
45.5658
41.7748
39.5193
35.0704
31.6411
28.1306
24.3083
20.7221
18.3853
19.1192
19.9795
20.6969
21.4788
21.9937
22.2737
55.0515
56.3014
65.8576
58.8447
51.866
46.3875
43.0865
39.5707
35.2594
31.0263
27.3726
25.6646
23.8081
23.919
23.674
23.7845
23.8819
23.9509
23.9118
23.7716
27.913
59.1229
63.8771
60.9721
52.4415
45.2022
42.7565
38.7246
34.8173
31.7362
29.0781
28.2525
27.4016
27.3807
27.1456
26.9159
26.5566
26.2352
25.8216
25.2927
46.4671
55.1162
62.1028
62.208
55.6268
47.2467
42.0916
38.9778
35.5252
33.7389
31.713
31.1806
30.426
29.982
29.5076
29.083
28.5813
28.0807
27.5031
26.6646
70.7673
72.3962
69.2938
59.8183
53.4272
45.7136
42.5571
40.1116
37.9123
36.4468
34.9815
33.7805
32.701
31.8941
31.2444
30.5267
29.9652
29.087
28.4447
27.3139
83.6358
70.0728
56.9062
53.9759
51.8901
46.3161
43.8235
40.8163
39.4007
38.0827
36.9072
35.6783
34.3094
33.0201
31.6959
30.4982
29.2809
28.1626
27.2071
26.4435
50.5391
60.3935
50.9879
40.999
37.2249
35.9981
34.8561
34.2346
33.5437
33.5565
32.798
32.0532
30.6322
29.1355
27.4518
25.5966
23.4671
21.0324
18.7049
18.2979
6.04779
21.8545
14.7236
20.4669
16.1614
15.984
14.9549
13.7297
12.4407
10.1592
9.65145
8.45545
8.04921
7.02679
6.3494
5.38868
4.79046
3.95839
3.53392
3.00843
12.5817
16.9239
16.5573
21.6963
12.2104
17.9402
11.803
13.5934
8.06163
9.30567
6.754
7.89557
5.70292
5.4773
4.33635
4.21555
3.88646
4.07175
4.31634
5.21617
22.6017
42.7347
59.9082
27.5711
40.2845
35.145
28.741
25.4648
21.7032
20.0762
18.4734
17.7216
16.5878
15.9321
15.446
15.2847
15.2297
15.3181
15.4222
15.7553
24.9303
46.223
68.9495
27.5363
47.6626
23.3438
33.7939
23.3281
25.4288
23.4217
20.8381
19.8896
18.6545
18.256
17.777
17.7293
17.5833
17.6292
17.6265
17.7996
87.5836
73.3287
68.1734
43.8012
51.4855
30.896
37.5498
28.3073
27.0386
24.4994
21.6779
20.5896
19.3543
18.8249
18.2507
18.0334
17.8016
17.7394
17.6893
17.7528
83.8943
71.6011
69.393
28.6109
52.1563
21.4501
39.0012
22.3803
28.7546
22.0804
22.9915
21.7746
20.3731
19.7036
18.9826
18.6049
18.2499
18.0563
17.9349
17.8809
78.8865
38.456
70.9425
30.487
54.3912
34.5487
41.7292
37.342
30.7726
27.495
24.6881
23.023
21.7399
20.6282
19.835
19.1176
18.6481
18.2995
18.1146
18.0219
23.1053
43.4565
71.3374
43.6348
55.924
39.5268
45.1345
32.1695
32.4615
29.6765
25.9234
24.1995
22.6
21.4765
20.3494
19.4585
18.8368
18.4705
18.255
18.2165
59.5979
58.5008
65.37
60.3751
57.1654
54.6466
48.8065
41.8489
32.3848
28.6537
24.3596
22.4512
20.5822
19.838
18.592
18.3194
17.9235
17.7203
17.7155
17.923
42.2346
76.3993
70.6125
50.7273
55.2363
53.3881
48.1491
38.954
29.4871
24.5466
20.8809
18.4524
16.9994
16.1331
15.4004
15.9689
16.3034
16.5212
16.8734
17.5963
100.279
45.1086
74.3352
26.7718
53.6806
50.5301
43.9922
33.9554
27.2862
22.7612
18.7989
15.2911
13.4157
12.8469
13.1136
14.75
15.4609
15.9502
16.678
17.4807
69.9817
75.4614
58.1665
27.081
50.2343
47.3555
41.3702
32.2799
27.3373
23.9876
17.8575
12.8291
11.2477
11.5815
12.4244
14.6878
15.6321
16.4751
17.2763
17.9221
43.607
36.2207
53.7211
24.6854
51.1805
47.7054
41.1535
32.4862
28.2143
24.5267
20.2104
16.2831
14.1399
12.9828
13.05
15.9057
16.9332
17.7788
18.3934
18.797
24.8167
57.4003
55.0297
54.4979
50.9819
30.2586
40.9276
39.0457
31.8122
28.5825
22.8959
19.73
16.8082
15.7892
17.7035
18.665
19.1864
19.6743
19.922
20.0379
53.2221
63.801
66.4921
35.1406
51.4184
28.6219
41.0533
27.4858
33.1283
27.5452
25.2141
23.8229
22.1872
22.1588
21.7311
21.8526
21.7347
21.7245
21.5535
21.3729
75.995
73.5733
63.426
63.6854
50.8813
34.7284
39.9441
35.4354
32.9172
30.3291
27.236
26.6959
25.49
25.4265
24.8347
24.5464
24.0883
23.7253
23.2454
22.7423
30.7982
67.5679
72.473
69.0564
54.5392
36.8157
39.4757
38.1722
33.1362
32.289
29.4694
29.3609
27.9388
27.8167
26.9772
26.622
25.9783
25.4196
24.7644
23.9873
55.251
81.5498
73.9376
59.4092
51.6799
41.9182
39.8619
39.5267
35.4403
35.3871
32.5021
32.0368
30.2219
29.6331
28.5938
27.9214
27.1747
26.3225
25.6121
24.6532
95.4859
75.7225
60.7645
31.6164
49.7596
40.6025
40.8613
40.0504
36.912
36.7347
34.4277
33.512
31.495
30.0856
28.6995
27.4201
26.4268
25.3511
24.6289
23.8692
28.3142
53.7779
50.343
39.3159
35.9459
35.6627
32.673
33.4081
31.2971
31.8292
29.8831
29.0059
26.7701
24.8851
23.1907
21.5485
20.3465
19.3159
18.6283
18.7083
1.37205
10.0642
13.4274
19.3247
7.77171
15.4161
6.77543
12.2987
6.62002
9.65885
6.60448
7.65909
5.72724
5.59507
4.49749
4.20598
3.68062
3.52746
3.33648
3.95739
25.1536
26.5625
7.79267
29.7264
26.9164
27.6006
8.19905
21.7639
6.881
6.43059
25.7784
22.2928
7.28623
7.471
9.06774
26.5316
23.806
28.9779
9.42042
30.2765
26.1014
6.17862
22.5363
19.6645
8.19455
7.07241
24.4409
20.8373
0.549437
0.738341
0.438081
9.34711
12.9036
9.34317
12.9448
0.473166
0.424145
0.394116
13.7085
10.8012
13.8257
11.5343
0.375445
0.353235
0.281837
9.23273
8.23652
9.9614
9.52617
0.534533
0.302131
0.44214
8.74019
10.4404
10.3131
12.1588
0.53409
0.467648
0.480694
10.7212
11.0497
12.3337
12.2358
0.501301
0.465949
0.398894
11.0379
10.6996
12.0588
11.1426
0.363295
0.380014
0.306559
10.5104
9.56776
10.7634
9.00745
0.191799
0.272528
0.19641
9.08923
7.92846
8.3532
8.02958
0.439341
0.765584
0.395241
9.44102
12.6616
9.57005
11.3205
0.391483
0.375884
0.328237
13.4993
11.5704
11.7921
11.3114
0.283947
0.302181
0.309469
10.1684
10.1447
11.0657
11.9231
0.419862
0.32707
0.357883
10.9346
12.459
12.2025
12.3285
0.420662
0.35576
0.325854
12.5147
12.0437
11.8948
10.1862
0.356991
0.306647
0.256903
11.7665
10.6825
9.61159
8.24171
0.267302
0.242008
0.219222
10.225
8.3383
7.84799
7.16792
0.197005
0.217756
0.189706
7.76556
7.96937
7.09868
7.49722
0.390717
0.725289
0.35548
10.0239
11.0317
10.4258
11.411
0.315743
0.333431
0.316856
11.41
11.5449
11.5592
11.9439
0.320122
0.319241
0.316715
11.546
12.2012
11.9386
11.7508
0.35222
0.316128
0.319801
12.3627
12.1096
11.738
11.9106
0.309659
0.324851
0.338749
11.6033
9.79071
11.9018
11.5935
0.263163
0.3447
0.351816
9.25482
8.195
11.4799
11.1058
0.234921
0.348119
0.325867
7.97219
7.51702
10.9379
10.2607
0.200733
0.314452
0.239684
7.45444
7.85691
9.97849
9.40579
0.3607
0.726283
0.271554
11.1138
11.8552
11.0009
11.8938
0.320309
0.279451
0.262189
11.9218
12.1056
12.1426
13.1098
0.282355
0.289738
0.265308
12.0585
11.4234
13.1146
12.1227
0.289784
0.265856
0.208261
11.2791
11.596
11.5502
10.8244
0.349916
0.230266
0.330987
11.8244
12.2126
11.3139
12.9695
0.372397
0.384994
0.375666
12.2187
11.861
13.1243
12.4691
0.339273
0.390561
0.327094
11.6126
10.6689
11.9926
10.4345
0.26263
0.328942
0.216608
10.2588
9.42827
9.81004
7.57631
18.5348
13.2948
17.6604
28.418
32.2262
29.689
30.4371
14.0373
18.167
14.6075
30.3757
23.3586
29.534
23.9568
11.9233
12.9839
13.144
22.2847
22.4253
22.8391
23.2713
14.3198
14.0232
15.7142
22.7519
23.0058
23.6299
23.5526
14.5903
15.8093
15.4131
22.7881
21.7778
23.1782
21.5576
13.8384
15.1148
13.832
21.3369
19.9636
20.8914
18.7169
12.1504
13.3032
11.2244
19.4448
17.5822
17.9448
15.7266
9.92468
10.553
9.8578
16.9722
15.9095
15.1593
14.1562
17.1855
14.9123
15.3553
29.3687
29.7279
27.7831
27.4207
14.7102
15.7037
14.9486
28.9614
24.3151
27.125
25.4551
13.8035
14.746
15.6501
23.3817
23.7385
25.1538
24.9925
15.9846
15.9401
15.4451
24.0189
23.6145
24.8366
14.1422
15.1282
14.6495
12.1597
23.0724
20.88
12.4269
9.68225
13.2107
11.4158
9.80109
20.0548
17.5589
9.31801
9.42157
10.4699
9.39677
8.62333
16.7365
14.5988
9.61533
9.95546
9.65217
8.51045
8.58746
14.0864
13.3248
10.0472
10.6943
14.9718
15.4076
15.533
27.8291
26.9958
27.9764
27.0703
15.3028
15.5885
15.7683
26.7917
25.7868
26.728
25.8442
15.9478
15.7186
15.3762
25.5682
25.0783
25.5197
24.5211
15.1601
15.3343
15.3646
25.2943
14.4882
24.3164
22.5562
11.6475
15.2357
14.5039
12.5391
9.16347
21.5903
19.1141
9.5961
14.2694
13.6453
8.48871
8.53583
18.5597
17.6384
8.88237
13.4228
12.5996
8.99229
10.1782
17.422
16.5866
9.03054
12.2643
10.9651
10.5074
11.4375
16.1984
14.5057
15.9955
15.7721
15.7092
28.0699
27.2656
26.2012
26.7943
15.9136
16.0076
16.7753
26.8717
25.8938
26.9764
26.5036
15.0621
16.6481
15.2344
25.5173
24.2021
25.8979
23.8042
15.1455
14.6858
13.9868
23.9132
23.1837
23.2856
22.7343
15.432
14.5311
16.1439
22.8309
21.4978
22.922
23.2483
14.7201
16.2893
15.3222
21.0398
19.6835
22.9347
20.8903
13.1869
14.7544
12.75
19.1984
17.5445
20.0158
17.2989
10.8814
12.0059
8.85914
16.8863
14.4369
16.2802
13.2946
35.7194
34.5529
33.9355
41.3883
42.9228
45.0442
41.2849
26.6103
32.6483
26.9949
40.2102
34.3258
39.2851
33.7322
25.3891
25.9906
25.91
33.2373
30.7778
32.5974
30.3169
24.961
25.9716
25.1707
29.977
27.7947
29.5655
27.0454
23.1549
24.6287
22.6117
27.0021
24.6479
26.1343
23.3187
21.0937
21.8463
19.4905
23.9641
22.303
22.3952
19.8811
18.6976
18.7006
16.5742
21.7622
20.2139
19.1519
17.4217
17.1861
16.0416
14.9412
19.8489
19.273
17.0068
16.1171
33.2327
32.0318
31.0114
44.119
40.6029
41.7012
38.6352
27.3544
30.4716
28.4364
38.8145
33.8438
37.4469
34.2026
26.2873
28.019
27.2546
32.7573
30.4753
33.3396
31.0126
27.552
26.1273
26.6278
28.0209
26.2511
27.6096
28.3368
22.1663
23.5871
23.0861
25.3009
21.8918
24.3174
23.533
18.1742
6.78024
8.60652
21.2111
18.4665
8.12296
10.2973
15.3027
9.17897
10.1464
17.7143
16.0258
10.8288
11.7303
13.9682
10.3616
11.1387
15.627
15.0721
11.949
12.4864
30.5691
31.8077
30.328
41.1521
38.1512
40.364
37.4121
28.6734
29.8431
28.5537
37.0801
34.1826
36.4323
33.8419
27.2583
28.1186
26.8575
33.3765
31.0221
33.056
30.9436
15.7528
15.2202
26.5052
24.1403
20.9927
3.25568
27.4666
6.95068
7.06082
11.1336
2.24866
9.94068
2.14072
7.51287
7.65578
19.0748
18.2263
7.35617
9.95103
20.1555
18.8784
10.4727
18.0282
17.2012
10.7413
12.2071
18.5354
17.4563
11.9307
16.8065
15.0671
12.5345
13.0016
17.0388
15.6218
30.4402
28.4423
30.0153
40.2194
37.3436
31.9577
37.5183
28.571
30.0738
29.0997
36.3919
33.8134
37.0591
34.6703
26.5246
28.3522
26.1278
32.9956
30.7749
33.6051
31.0014
24.9541
25.6194
24.9233
30.2065
27.6891
30.3682
28.6817
22.5252
24.9267
24.6151
26.61
23.5771
28.0679
25.9469
20.4263
24.147
21.8062
22.7586
20.6902
25.0979
22.3098
18.1911
20.8891
18.1136
20.0734
18.2809
21.3827
18.8716
15.0095
17.1155
14.4741
17.6678
15.7751
18.1204
16.7385
44.2633
47.2572
42.4721
45.0052
43.8982
47.4286
40.2433
35.8116
40.3252
34.7065
41.3404
34.2157
37.7273
31.6671
31.2938
33.4409
30.4944
32.2677
28.0489
30.1015
26.474
27.7738
29.5529
26.6924
26.9763
24.0764
25.4513
22.4745
24.3387
25.7175
22.8039
23.091
20.7504
21.513
18.8242
22.0482
21.8772
19.4061
20.2266
18.9974
17.9947
16.0585
20.1063
18.7222
17.1607
18.563
17.6062
15.633
14.7633
19.3418
16.7983
16.06
17.4485
17.2212
14.5704
14.1327
41.7567
43.7182
39.8165
46.2913
39.2378
43.9735
37.1115
34.7019
38.4466
34.8235
36.9494
31.4042
35.3166
31.0602
30.6085
33.8237
31.1584
29.9544
26.7167
30.0399
27.5804
26.5829
29.8368
14.8603
25.7709
22.6195
26.5622
21.1782
21.8754
12.9819
10.7689
21.5277
18.4121
19.1411
14.8018
18.0881
10.7876
11.4791
17.4369
15.1127
13.9212
12.0984
15.8368
11.7048
12.1986
14.6662
13.8746
11.8862
11.9204
15.0724
12.3524
12.7381
13.7175
13.5194
11.985
12.1635
39.3459
42.2716
38.6426
43.4524
36.7065
43.0525
36.2777
34.7541
37.4692
34.4471
34.9721
30.9782
34.6273
31.0985
31.2075
33.5581
31.2085
30.0391
27.7363
30.1446
27.9887
15.4925
30.464
26.3969
26.7945
21.1043
27.237
23.6367
10.3968
24.7379
20.974
19.0037
14.641
22.2128
18.5706
11.3361
20.2025
18.5908
13.7957
12.1664
17.6342
15.4086
12.6345
18.1647
16.9939
12.009
12.1188
14.9836
14.0867
13.1215
16.5855
15.3461
12.176
12.2449
13.8182
13.1242
38.5881
33.9581
38.9994
43.1807
36.4717
35.7578
38.8274
34.4592
38.3715
35.618
34.8807
31.4307
37.9841
34.2613
31.147
34.4569
31.6489
30.4519
28.0428
32.6219
29.4657
27.6898
30.9547
28.8747
27.2913
24.1816
28.776
25.6705
23.2477
28.0731
25.4785
22.9506
19.5447
24.4039
21.2023
20.1163
24.5683
21.7833
18.5535
16.2192
20.3929
17.9347
17.7228
20.8849
18.545
15.703
14.4866
17.1906
15.5713
15.5485
17.9079
16.8051
14.1395
13.2974
15.2282
14.6994
41.6663
45.0554
37.1688
20.5454
12.0886
18.5301
15.9017
31.4173
34.6936
28.8697
12.2148
12.7351
14.9659
14.8493
25.5402
27.4031
23.6911
13.3318
9.93082
14.8496
12.2016
21.7852
22.6444
19.7663
10.8736
10.7947
11.6256
10.5419
18.9018
18.8918
16.5748
11.6085
9.29809
10.2963
9.40147
17.3802
15.9135
14.5631
10.0826
9.74852
9.5106
11.0797
16.2675
14.2804
13.6929
10.549
9.2034
10.8996
10.3425
15.9369
13.549
13.2048
9.88018
9.35982
10.3359
10.3113
36.2073
41.8109
34.2769
17.1668
16.5988
13.9216
17.5486
28.6754
32.5477
28.4911
15.8663
15.6402
17.3095
17.15
23.7486
27.2913
24.5219
15.0669
12.3918
16.0367
13.2157
19.7736
23.7358
19.6465
11.7226
10.2321
12.2495
10.2758
16.1105
17.9523
13.8733
9.85708
8.80882
9.61197
7.68123
13.6716
12.8941
11.2256
8.87042
10.5417
7.56499
9.3187
12.9525
11.1519
11.4015
10.9956
10.3476
10.4392
10.3905
12.714
11.4687
11.6299
10.2952
9.99448
10.2935
10.1875
33.941
41.0442
33.6901
14.9155
17.8143
15.007
19.5648
28.4773
32.1537
28.8339
17.6864
17.6062
19.0065
19.1066
24.7021
27.8647
25.1151
16.4719
13.6062
18.1338
14.6681
19.6216
24.2779
20.8715
12.6913
10.4965
13.6856
11.9234
13.7766
19.6078
16.3457
9.70533
7.6805
11.2842
9.46934
11.2894
15.4949
13.8068
7.53634
9.36687
9.30537
10.9424
11.5285
13.5438
12.9393
10.4998
10.4702
11.4746
10.6792
11.6678
12.7393
12.263
10.3592
9.89587
10.5623
10.6561
33.9785
39.1863
36.9809
18.0167
20.5548
16.7495
16.0746
29.1908
36.088
32.0001
19.4507
19.2438
14.7208
18.9485
25.4037
30.3092
27.3339
18.9919
15.0549
17.5918
14.0557
21.3646
26.6414
23.2908
14.0044
12.563
12.2374
14.124
17.1318
22.003
19.086
12.0014
10.2248
12.7263
10.9527
14.5156
18.3666
16.1641
10.0176
11.7048
9.60565
10.6199
13.2433
15.525
14.2886
11.352
10.5966
9.82972
9.48673
12.4137
14.0417
13.7422
10.4421
10.0102
8.89292
9.8476
26.3124
25.744
24.2691
26.2105
25.3874
27.001
24.9274
23.9524
26.8107
15.1711
24.5267
25.0256
28.2943
4.44803
19.7867
19.656
10.1077
2.51227
21.9651
17.6044
2.77427
28.4257
29.1749
28.9085
29.9792
28.5406
29.4644
28.913
26.9993
26.795
27.9787
25.7887
27.7478
25.4098
27.4506
24.456
24.8069
30.0422
15.7948
29.3604
4.43142
27.194
20.0773
2.53508
20.3522
10.3742
17.7204
2.8029
23.258
20.7746
22.6884
19.566
22.2486
20.6716
23.2829
19.6192
14.8327
17.9744
6.1191
2.33267
16.5389
16.1214
2.20105
13.3473
14.4251
5.92417
4.05535
15.2096
13.2738
3.03005
22.355
25.7477
24.6073
24.1386
24.6472
23.8593
22.5587
20.8758
22.4118
23.4369
19.8001
23.5197
19.6638
21.0925
14.6653
2.34796
18.3062
6.69351
16.1333
2.21685
16.5412
13.1787
4.17295
14.4749
6.8106
13.1879
3.02289
15.2313
10.4083
11.0358
12.9045
2.47302
15.8211
2.78876
8.44485
25.7354
26.6787
25.9457
28.2844
25.1582
28.2189
27.442
22.0653
20.003
25.026
24.6599
22.5771
19.2351
26.2287
16.7535
24.3825
16.3984
29.735
3.54413
28.5426
23.3009
11.0206
2.54005
11.5155
14.0608
2.878
9.04936
17.2291
26.7532
29.5438
30.1294
29.2788
29.3841
28.5695
28.1152
22.8739
25.4335
21.7932
27.8718
19.9082
27.1847
24.8472
6.96553
6.07324
8.55581
2.98689
9.11435
2.09386
6.79
16.0298
18.0162
21.4408
23.1884
16.5772
17.286
21.9816
15.1901
14.7538
20.4949
20.0611
15.584
14.4505
20.9478
7.56434
2.30619
7.36308
12.3513
2.19029
8.10631
11.1997
7.60585
3.30029
6.64141
10.1532
2.26933
7.51003
10.4468
16.6287
23.8378
19.6204
23.0376
17.9069
22.532
18.1316
15.7323
20.4706
16.1444
21.8142
14.9963
21.4034
16.983
1.64778
1.70864
1.54873
7.17179
8.27203
7.37885
9.17383
1.47695
1.56704
1.47413
8.06343
6.88866
9.54584
8.64055
1.46727
1.20648
1.18228
5.7413
5.89221
6.80076
6.31748
1.34715
1.37252
1.33446
6.37497
6.03438
6.79086
7.6285
1.27662
1.31166
1.30064
6.19025
6.77684
8.00434
8.36993
1.24894
1.27805
1.26219
6.86188
6.57592
8.33608
8.17401
1.20796
1.25012
1.22226
6.55631
6.80553
8.02198
7.80771
0.847154
1.09099
0.708383
6.4225
7.39017
6.80785
7.0326
1.82235
2.50399
1.85421
7.39858
7.44948
7.79715
7.5791
2.78195
0.635397
0.712175
2.64545
2.66968
2.68314
0.58729
4.53587
0.524068
0.465636
3.69377
3.82051
4.22351
0.454811
2.71024
0.390503
0.378877
2.69271
2.28709
3.30611
0.334964
2.64379
0.434422
0.311167
1.99024
2.08299
2.38715
0.352945
3.54164
0.534208
0.471794
2.36664
2.50651
3.39839
0.497068
3.80642
0.526477
0.517229
2.7332
2.88959
3.74669
0.510406
3.71055
0.42415
0.440692
2.83063
2.96261
3.74357
0.40907
3.11744
0.285262
0.330197
2.95885
2.96214
3.32596
0.278666
0.597139
0.872628
0.706874
6.0929
7.98328
6.32534
8.54971
2.05108
3.11614
2.13343
8.41887
8.01097
8.29865
8.17247
2.66157
0.586796
0.771217
2.57768
2.82427
2.5134
0.577896
4.64542
0.415259
0.40236
4.51836
4.89063
4.25586
0.394707
3.28096
0.305474
0.334021
3.6642
3.13094
3.72909
0.293007
4.0283
0.343075
0.310806
3.37439
3.74762
3.67929
0.343595
4.25881
0.431708
0.390607
4.27712
4.27771
4.29483
0.388429
3.9207
0.391363
0.361835
4.17052
4.07731
4.03627
0.347656
3.35621
0.323145
0.305818
3.80437
3.64963
3.57582
0.286857
2.43455
0.222122
0.215151
2.67233
2.47507
2.4037
0.215257
0.745058
0.790327
0.663992
6.2113
7.48512
6.11195
6.69878
2.18684
2.25162
1.95841
8.07184
8.50585
6.99045
8.31038
2.64086
0.556589
0.828995
2.49971
2.63347
2.42016
0.560272
3.79215
0.349385
0.338339
3.77259
4.01525
3.57928
0.323618
3.92119
0.300341
0.315103
3.84864
3.86236
3.88083
0.316985
4.12599
0.343611
0.338848
4.04984
4.13682
4.05067
0.344436
3.86097
0.342867
0.344399
3.99169
3.86761
3.98537
0.335908
3.37242
0.280909
0.301447
3.30066
3.17557
3.42203
0.293535
3.25803
0.246723
0.276385
2.95983
2.92572
3.27704
0.274093
3.22039
0.235288
0.265952
2.88144
2.92352
3.22614
0.262958
0.697521
0.930168
0.67849
6.43838
6.16748
6.3937
5.76309
1.74939
1.88909
1.72028
7.04551
8.82289
7.15229
8.68859
2.58558
0.493372
0.664175
2.21807
2.72342
2.11643
0.463964
3.90623
0.333456
0.349421
3.77596
3.90029
3.7296
0.333014
4.01648
0.306291
0.32018
3.91871
3.82046
4.10876
0.306454
3.4659
0.279479
0.262924
3.53907
3.56851
3.51439
0.257265
3.98114
0.320879
0.285282
3.86812
4.00314
3.75234
0.309607
4.33892
0.368162
0.36768
4.20826
4.22342
4.31944
0.374069
4.12966
0.357681
0.375556
4.11888
4.04602
4.22461
0.36225
3.6277
0.310807
0.326474
3.72743
3.63351
3.7435
0.307853
0.65999
0.820432
0.570696
5.72288
5.01934
4.82322
4.94611
1.60578
1.79552
1.36727