/*--------------------------------*- C++ -*----------------------------------*\
  =========                 |
  \\      /  F ield         | OpenFOAM: The Open Source CFD Toolbox
   \\    /   O peration     | Website:  https://openfoam.org
    \\  /    A nd           | Version:  10
     \\/     M anipulation  |
\*---------------------------------------------------------------------------*/
FoamFile
{
    format      ascii;
    class       volScalarField;
    location    "6";
    object      omega;
}
// * * * * * * * * * * * * * * * * * * * * * * * * * * * * * * * * * * * * * //

dimensions      [0 0 -1 0 0 0 0];

internalField   nonuniform List<scalar> 
12920
(
499.707
286.331
156.57
134.758
116.923
87.743
70.498
66.6887
66.9624
66.8733
63.1442
57.0309
51.165
45.9853
40.843
36.8012
33.8434
32.2392
32.0256
32.0364
289.065
199.879
169.857
145.849
116.811
100.178
81.7593
75.5697
69.5827
63.3266
55.3736
49.0486
44.4006
42.2846
41.8873
42.2257
43.3021
44.3444
45.928
46.3154
324.915
226.149
175.906
138.422
107.759
91.5236
78.0194
71.8297
63.7947
57.6864
51.4236
47.7073
44.9686
43.7553
42.7693
42.4452
41.8947
41.5075
41.2719
40.4878
200.922
196.637
180.875
141.427
112.657
97.3768
83.6426
76.5189
68.0674
61.6062
54.2724
49.1065
45.2561
43.1127
41.4088
40.3615
39.4322
39.0256
38.8395
38.7911
207.503
175.253
160.87
126.586
106.765
88.7439
78.8332
74.3169
67.2967
61.5418
55.2127
50.6313
47.2307
45.1875
43.5499
42.3489
41.4463
40.8384
40.5474
40.1911
347.278
244.506
204.491
184.45
159.368
119.407
91.8415
77.0973
68.097
61.6661
56.6342
52.6741
50.7174
49.2872
48.4369
46.9659
45.1167
43.286
42.1054
40.8053
140.719
286.124
275.834
213.546
163.825
130.624
107.262
86.5096
73.741
64.9005
61.0821
58.3611
56.8656
55.3109
53.7751
52.6477
51.4015
49.2548
46.2953
42.6553
162.947
235.692
205.555
171.392
143.525
127.891
208.904
166.362
132.827
108.716
105.214
100.009
98.5264
93.4359
52.1819
50.9864
50.9585
50.2995
46.8809
41.9807
484.296
331.83
230.069
192.686
169.547
259.119
382.806
291.597
241.255
181.832
171.646
170.109
165.979
155.379
84.3672
51.517
49.8644
46.3226
42.732
40.1386
417.888
314.823
236.527
200.803
166.763
256.584
346.685
255.619
208.602
166.126
181.643
180.934
172.317
143.396
86.8648
46.6976
43.6176
41.7341
39.9676
38.9929
102.165
171.033
169.59
157.993
132.947
210.478
301.169
210.468
184.509
184.131
183.527
165.012
148.35
139.116
93.4042
45.2429
40.6288
38.9583
38.453
38.9572
60.4852
150.256
152.476
133.808
110.746
156.575
215.426
172.74
172.896
163.652
170.075
180.307
179.924
169.643
96.9823
43.6358
41.6725
40.1
39.6484
40.3045
175.845
175.151
169.092
125.996
100.447
91.0474
141.635
127.058
128.91
122.243
117.437
119.985
113.567
101.984
44.7415
42.7678
41.8851
41.3
41.3363
42.2697
218.364
207.948
171.248
121.348
98.8238
90.5273
85.9847
80.3149
78.3868
72.7489
68.5795
61.5298
53.7312
48.2119
45.8695
45.1414
44.7738
44.8473
45.1218
46.0951
126.045
181.618
173.335
150.372
115.583
94.4473
85.2848
74.5755
70.0573
63.6119
59.2729
55.3822
51.9934
50.953
50.998
51.5711
52.3893
52.7983
52.8178
52.3247
132.025
164.145
170.017
159.542
131.488
107.904
86.5852
75.1874
67.4275
63.4391
59.2427
57.5419
56.4485
56.8097
57.1757
57.7648
58.3276
58.725
58.7541
57.8039
222.661
202.391
183.015
149.356
122.105
99.533
82.3975
75.1525
69.0754
67.4391
64.7495
64.2291
62.9716
62.4262
61.8474
61.9122
62.3063
62.8966
62.9069
61.0772
248.281
195.602
160.823
123.448
109.585
99.5522
86.7668
84.6627
81.3697
81.1223
79.8111
79.4829
78.4894
77.6507
75.6565
72.9808
70.3551
67.1872
65.6457
61.7177
292.331
209.177
164.261
129.441
111.089
100.87
89.8363
86.1202
80.6367
77.8002
73.4265
70.2614
67.1314
65.1965
63.5939
62.9128
62.2818
60.9163
59.2515
54.9504
185.201
167.656
158.504
147.676
130.325
110.275
91.0545
80.2801
72.113
66.3016
60.7256
57.6431
55.6143
53.6236
50.8035
47.1556
45.0768
43.1755
42.1572
39.2953
191.806
162.613
102.47
71.8252
52.4021
41.6632
38.8645
39.9641
41.0585
40.2113
36.544
32.6187
29.4932
26.8727
24.666
22.7301
21.1488
20.2649
20.1078
19.7918
429.924
165.357
99.9096
78.7312
61.0229
56.6114
47.9353
44.6849
39.0895
36.6142
33.7494
31.7375
29.1287
26.9926
25.0129
23.7657
23.1891
23.1761
23.3234
23.4375
228.857
139.821
92.2952
73.3193
58.7554
49.4437
41.9125
37.7931
33.7871
31.5565
29.106
27.1233
24.6988
22.8759
21.5248
20.9397
20.5395
20.3261
20.2553
20.3199
85.9049
114.826
103.103
73.5756
57.0799
48.474
41.6244
38.2176
34.027
31.3028
28.0319
25.3051
22.9583
21.3755
20.3458
19.7698
19.4983
19.2672
19.2147
19.2843
179.24
129.121
96.7778
66.309
57.46
49.0418
42.972
38.8654
34.6532
31.2789
28.1007
25.4089
23.541
22.3095
21.8407
21.4528
21.3939
21.2046
21.0729
20.6638
224.899
188.255
170.507
145.241
106.338
72.22
53.2658
43.0785
35.8496
31.3426
28.1193
25.8368
24.9325
24.2855
24.2942
24.3197
24.4028
24.2743
23.854
22.2533
254.993
258.694
183.07
129.348
99.189
82.1003
67.3693
52.214
41.2193
33.9655
30.3392
28.6145
28.0975
28.0888
28.298
29.0672
29.4615
29.3144
28.4614
24.7561
251.829
157.442
134.141
111.598
94.885
80.19
79.0615
76.3033
58.1492
40.776
34.2305
31.3052
30.5963
29.7504
27.63
27.6828
28.2004
28.2314
27.3244
23.1994
226.46
209.574
143.943
123.451
114.925
113.794
99.9472
79.1368
65.9443
46.2425
34.2617
31.2566
30.1131
29.5715
26.465
24.0618
24.0336
23.5419
22.0038
20.546
183.394
169.698
124.684
104.871
99.4567
106.216
102.663
72.1986
58.3079
40.0038
33.7252
32.2209
31.5584
30.7655
26.4787
25.1575
23.1346
21.6864
20.722
20.3374
279.975
145.05
90.4447
78.7782
72.2578
80.4721
81.8438
58.577
44.9005
38.0694
36.0182
35.4331
32.9622
30.6287
28.6266
25.4273
22.4109
21.1465
20.8475
20.9065
216.642
133.139
78.322
71.6213
65.2244
59.8037
58.9391
46.5063
40.1084
37.3805
34.9398
32.9824
31.3572
30.6118
30.8939
22.4464
20.8204
20.6628
21.01
21.514
266.499
115.421
78.7864
65.8102
61.7837
57.1577
57.6734
54.1489
49.0378
46.4658
40.9092
36.7817
34.5116
34.0979
24.5989
21.5874
20.7856
20.8385
21.218
21.8812
198.596
130.128
78.6779
60.4477
56.7147
49.4214
46.9661
42.768
38.4277
37.2853
34.2612
32.3022
28.9726
26.4005
24.2262
23.2071
22.9955
23.0758
23.3275
23.8441
175.772
147.318
118.627
90.5474
64.9057
46.7214
41.3404
36.7497
33.8578
32.0156
29.7744
28.1445
26.5622
25.7009
25.1933
25.1901
25.4042
25.7098
26.071
26.5098
156.344
143.181
114.363
85.1704
62.9747
51.1749
42.3122
37.0629
33.2176
31.0873
29.0822
28.1381
27.3157
27.265
27.3563
27.5677
27.8135
28.0667
28.4352
28.7191
136.119
142.575
99.3856
75.1423
58.5977
49.4813
41.5706
36.7125
33.4484
32.2981
31.0834
31.0754
31.0215
31.1752
31.2349
31.1132
31.1221
31.0522
31.0467
30.7202
236.635
111.971
77.9122
70.6237
61.3769
51.9209
44.4006
41.6668
39.3286
39.4723
39.5797
40.1989
40.8535
41.3844
41.3652
40.6988
39.2436
36.613
34.5202
31.9112
207.83
140.923
89.0555
64.7761
55.4903
52.1546
48.9986
46.9559
45.2227
44.2976
43.2395
42.1642
40.8034
39.4966
37.9585
36.7265
35.1956
33.3978
31.7615
29.1556
148.48
118.169
88.4027
75.363
62.3692
51.7796
44.5282
42.7537
40.5795
39.1351
37.2969
35.9796
34.6105
33.4191
32.1147
30.4175
28.5229
26.2656
25.15
23.5467
156.17
165.545
136.895
96.5004
65.7454
52.158
48.4583
47.5416
45.8378
41.4946
36.812
33.027
30.0444
27.6672
25.752
24.1845
23.0442
22.0957
21.7006
20.7704
165.712
133.541
84.9805
67.2323
55.2095
51.3081
44.0326
41.7372
36.3957
34.3054
30.6431
28.9455
26.4759
25.2768
24.0514
23.65
23.3342
23.2921
23.2535
23.0505
236.186
141.263
80.1638
58.543
47.9377
40.6832
35.2997
32.1405
28.8095
27.1778
24.8427
23.4981
21.8198
20.9499
20.1977
19.9634
19.7236
19.6488
19.635
19.7113
144.022
125.663
97.8519
60.988
46.3279
38.9374
34.3431
31.3115
27.9448
25.6593
23.1164
21.4615
20.0556
19.2974
18.7651
18.547
18.416
18.4127
18.4397
18.5801
137.803
136.35
81.6671
52.7724
45.8551
37.9967
34.7439
31.1106
27.8961
25.3721
23.1359
21.5545
20.5593
19.9719
19.7391
19.598
19.5332
19.4502
19.366
19.2677
163.22
148.343
122.185
92.1281
67.4978
48.2947
38.6819
32.802
28.4219
25.4668
23.5573
22.1805
21.8612
21.5989
21.6629
21.6416
21.5425
21.2274
20.8651
20.1478
279.598
160.128
119.221
86.7686
67.6418
54.7753
45.6381
36.13
30.6406
26.5346
25.2406
24.4066
24.4734
24.7368
25.128
25.3165
25.1705
24.4072
23.1854
21.3793
175.465
146.845
108.546
87.601
72.1052
59.4576
56.7217
49.5704
37.5999
30.277
27.004
25.8922
25.5551
25.476
25.7637
25.7388
25.4136
24.2449
22.5364
20.7923
224.455
232.745
145.111
90.6634
73.4653
69.0019
61.9455
51.862
40.6485
32.0621
27.8122
26.4939
25.8579
25.319
24.1876
23.9335
22.8977
21.7337
20.6696
20.1428
562.727
156.107
102.217
76.0077
64.9741
62.8907
58.1394
48.0843
38.8905
31.8126
29.2439
28.6929
28.0571
26.885
26.2298
24.4708
22.4594
21.2951
20.6834
20.3681
415.984
147.356
79.1454
59.2732
51.5154
51.3891
49.7709
40.8698
35.3296
31.2151
69.9395
61.6286
41.0044
32.02
27.0812
24.3417
22.4601
21.4931
21.0306
20.6234
302.979
128.256
69.6538
55.7862
49.2738
46.0861
48.0352
38.7971
34.7124
32.8486
31.5191
30.0609
28.0725
26.7866
25.3772
21.8155
20.8889
20.5946
20.5899
20.6071
138.419
143.714
80.5281
54.3977
49.9393
44.5265
45.8472
45.6309
40.3575
38.1625
32.801
30.3467
27.8072
26.3345
21.3789
20.3155
20.0623
20.1403
20.3812
20.7627
178.176
156.234
75.5937
50.5136
47.091
40.3353
39.1964
34.3128
32.047
29.4359
27.1875
25.359
23.4691
22.2144
21.3623
21.0934
21.1214
21.3587
21.6861
22.1027
237.057
168.239
96.3399
61.6711
47.0396
36.5715
34.7165
30.3035
28.3313
25.9287
24.6409
23.5254
22.8318
22.5072
22.4384
22.5557
22.8706
23.1822
23.5291
23.9219
213.638
158.51
113.97
74.7752
52.9539
39.8058
34.1299
30.001
27.7192
26.0656
24.8673
24.3907
24.0564
24.1713
24.3748
24.614
24.8951
25.143
25.4379
25.6802
149.392
154.197
101.428
63.5098
48.3561
38.0892
34.2374
30.6732
28.9912
28.2142
27.5775
27.6535
27.6237
27.7696
27.7986
27.7991
27.8501
27.7968
27.7466
27.4703
301.639
159.326
73.7196
53.6829
49.851
41.7226
37.8596
36.2062
34.8169
35.014
34.936
35.2871
35.2517
35.2171
34.7548
33.9236
32.9159
31.5966
30.6867
29.2428
198.328
189.924
100.921
58.5227
50.0099
44.8764
42.2465
40.9855
39.2908
39.1972
38.4404
38.0085
36.7356
35.9223
34.7053
33.9204
33.0522
32.1562
31.4854
29.9751
79.9579
102.376
88.3316
73.7325
60.3151
51.8291
47.4433
45.6922
43.3597
41.7571
39.9225
38.582
37.0992
35.6291
34.1263
32.3265
30.6373
28.7924
27.9139
25.7786
83.212
154.244
132.247
86.8713
63.4043
56.3692
53.4536
49.9771
44.8882
39.0377
34.4574
31.1357
28.7454
26.7655
25.1702
23.8674
22.8342
21.9098
21.0531
20.1339
179.14
130.803
88.2963
64.3397
58.9931
51.5766
47.0924
42.8669
38.1016
35.05
32.0419
30.6111
29.1676
28.7189
28.2522
28.1754
27.9402
27.7618
27.3943
27.039
157.227
122.422
79.9391
55.3993
49.8043
39.438
37.3357
32.3064
30.3883
27.8366
26.5101
25.33
24.6239
24.0885
23.7894
23.5754
23.462
23.4291
23.4359
23.5547
222.656
156.145
98.5344
58.608
48.0459
38.2649
35.8671
30.9427
28.8087
25.8791
24.4694
23.072
22.5082
22.0156
21.8898
21.802
21.83
21.9496
22.0624
22.3428
187.972
145.029
88.8663
53.546
46.8222
36.737
35.6861
30.5799
28.5949
25.6164
24.4383
23.0797
22.7531
22.3225
22.3171
22.2579
22.2954
22.3523
22.4189
22.6086
273.22
130.206
99.4275
66.984
56.4502
41.7609
37.8421
31.8575
28.9654
25.9431
24.8834
23.7197
23.7137
23.5389
23.6175
23.5276
23.4379
23.297
23.1827
23.1557
262.278
136.1
107.857
70.8738
59.8185
45.5836
40.5799
33.0135
30.0495
26.7453
26.395
25.6726
26.0995
26.1191
26.2855
26.1237
25.642
24.9744
24.3409
23.9393
391.261
231.123
113.977
80.2643
66.3806
53.6012
48.9149
39.1612
32.9444
28.9701
27.3781
26.9106
26.8011
26.9547
28.3618
27.337
26.2496
25.1316
24.3222
24.0098
211.203
180.019
121.333
72.8506
60.0621
53.5915
50.8555
41.3278
34.2886
30.6936
28.9802
28.4832
27.8749
27.4392
27.7497
27.3322
25.6678
24.6479
24.1541
24.0832
327.766
149.827
95.2044
63.6358
55.243
49.3395
46.96
40.4677
35.3156
32.4245
31.1223
30.6668
29.9017
29.2148
29.139
27.6463
25.8501
24.9758
24.5554
24.3064
351.495
186.963
85.0435
56.005
48.8243
44.4762
42.6948
38.1503
35.3889
33.5482
51.8931
45.2364
35.1334
31.4854
29.8777
27.9735
26.1534
25.1835
24.5887
24.1754
318.75
147.255
76.7437
54.5289
48.4806
43.7947
45.4882
38.6658
36.0708
34.3171
32.8776
31.3149
29.4933
28.3023
27.5318
26.1682
24.8289
24.2109
23.9776
23.935
112.883
143.778
104.922
57.0198
51.2182
42.7797
43.651
43.2717
38.1085
36.0833
31.5653
29.8712
27.261
25.8871
24.7796
23.8446
23.5322
23.5537
23.6683
23.9465
370.227
224.174
84.2748
51.4295
49.2201
39.9149
40.6212
33.5386
32.5918
28.1947
27.1484
25.0159
24.5043
23.7951
23.7089
23.6786
23.8444
24.1668
24.524
24.9182
211.645
217.23
111.429
58.7084
46.3579
37.1231
36.7931
30.8492
29.2515
25.993
25.5248
24.4338
24.396
24.2905
24.441
24.6736
25.1014
25.4586
25.8582
26.26
296.138
201.446
129.437
73.0781
53.6023
38.3287
35.9273
30.2839
29.2468
26.8377
26.446
25.7883
25.8846
25.9724
26.3063
26.5247
26.9256
27.1811
27.5298
27.8352
257.159
182.406
100.389
60.9502
49.064
37.8698
36.3946
31.4959
31.052
29.4013
29.4061
29.0303
29.1931
29.1866
29.3386
29.3826
29.5293
29.5247
29.5657
29.4588
625.768
261.979
93.1761
55.4236
51.224
40.5417
40.2172
37.0795
36.9166
36.0483
36.1077
35.8104
35.6539
35.2543
34.8924
34.2948
33.9089
33.1954
32.7868
31.822
206.52
213.888
134.554
67.2121
54.0882
44.5295
44.3541
41.3828
40.9754
40.0864
39.6546
39.2262
38.5063
38.14
37.6545
37.4031
37.0804
36.5073
35.7568
34.207
77.9323
90.5509
76.4043
64.8846
56.0528
50.8013
47.5515
44.9758
42.7035
40.8604
39.3279
37.9649
36.4812
34.6681
32.9443
31.1492
29.9087
28.1334
26.8541
24.1339
100.928
125.559
91.4486
68.772
61.1826
57.1308
52.7687
46.4151
39.0145
33.5676
29.906
27.5923
25.5025
23.566
21.9815
20.806
20.0614
19.6711
19.5097
19.6246
256.703
156.809
105.587
70.221
78.787
58.6351
66.1741
51.4312
54.2946
45.4453
47.8639
43.8347
45.609
43.6325
44.2962
42.963
42.9783
42.2429
41.9779
41.7742
165.782
133.705
93.4822
64.8114
67.0611
46.5816
54.0316
40.2875
45.4314
37.6091
40.6172
36.6581
38.3523
36.3199
37.1258
36.1263
36.5592
36.2443
36.4504
36.8554
219.263
163.632
114.574
66.2535
65.8106
46.6927
52.1914
39.9006
43.3394
36.0749
37.9702
34.4071
35.6913
34.1524
34.9323
34.3224
34.8128
34.7343
34.978
35.5156
381.814
152.615
98.3064
65.0146
61.489
44.2497
51.0215
37.707
42.4075
35.1233
37.4803
33.9746
35.4172
33.8529
34.7652
34.144
34.6891
34.6019
34.8983
35.4314
282.946
154.107
100.323
65.9513
69.2303
48.364
53.8293
41.8854
42.7652
36.9734
37.478
35.0576
35.7733
35.0484
35.4103
35.0696
35.2908
35.2474
35.4369
35.9475
247.086
159.134
119.144
68.2616
74.3066
50.0273
51.0056
41.4667
41.7895
37.1194
38.4796
36.5251
37.9061
37.0005
37.3585
36.6622
36.5427
36.0565
36.0246
36.422
256.459
157.668
135.752
76.8019
80.8213
63.1114
56.5935
44.6111
44.588
39.2028
40.5369
38.3619
39.5497
38.4742
40.6988
38.1596
36.9454
36.3245
36.2077
36.6543
190.145
141.334
123.479
68.4805
70.7187
60.3947
60.188
47.7522
47.9223
44.6738
44.5819
43.2864
42.9186
42.0488
42.8781
39.0187
36.4283
35.9818
35.944
36.3477
300.11
152.093
101.448
69.7713
66.037
55.2069
58.1553
54.2846
52.1918
48.9514
46.1754
44.4579
44.56
44.0408
43.053
38.6995
36.5891
36.273
36.237
36.442
309.817
155.089
105.209
71.1604
62.2794
50.6495
53.3722
55.3209
53.8862
48.3902
46.631
44.3327
44.5696
44.4624
43.1128
38.9801
36.7842
36.3177
36.054
36.0737
233.453
164.744
101.098
70.4045
61.0553
49.2737
56.2325
56.0809
54.0359
50.5449
47.1562
44.5176
43.8227
43.1989
42.4571
37.9469
35.9808
35.6459
35.6334
35.8517
275.597
187.554
124.501
65.7294
71.4041
53.2315
56.4121
49.8173
50.4325
44.4956
43.6389
39.6443
39.5568
38.2415
37.5235
35.5984
35.0852
35.1561
35.2521
35.662
353.208
153.894
97.5483
61.5972
68.9515
47.0452
57.6391
40.978
44.9929
35.4423
38.6137
34.032
35.9146
34.2958
35.0821
34.6761
35.2441
35.4155
35.8787
36.3863
427.423
210.24
124.379
63.4296
64.0921
47.6696
53.7975
38.4527
40.5027
33.6085
36.0667
33.2899
34.9978
34.2015
35.0825
35.1487
35.863
36.193
36.7251
37.3135
182.045
171.214
134.927
72.0375
70.0528
45.394
52.7996
38.1562
42.8157
35.2989
38.4729
34.9939
37.0835
35.7197
37.047
36.6669
37.5116
37.5965
38.1598
38.7173
239.909
181.695
110.803
68.7211
65.1998
47.2957
53.1275
39.1515
44.5432
37.1522
40.9648
37.5854
39.9599
38.6012
39.8926
39.3844
39.9796
39.6984
39.9323
40.0465
546.71
229.379
108.766
71.4044
69.4514
47.2261
58.3105
44.9565
51.8659
44.6866
48.5502
44.7938
46.7621
44.6843
45.5169
44.2503
44.4799
43.5492
43.4572
42.7021
173.878
198.929
136.1
74.2205
71.5515
50.7101
63.3013
48.9437
57.7786
49.5008
54.3325
50.1995
52.7225
50.6946
51.8013
50.4611
50.6485
49.2549
48.6049
46.8077
50.9655
95.4184
78.429
61.4297
53.7188
49.0079
45.1483
42.3922
40.0211
38.3288
36.5841
34.5319
32.4148
30.0727
28.1827
26.3337
25.0106
23.6481
22.9112
21.6915
29.5763
32.7523
81.3396
31.5637
30.3701
33.3915
86.0059
28.7762
81.1617
64.7876
30.2064
29.9697
84.2371
61.8345
69.7298
32.2199
32.5127
32.3704
76.21
32.9199
33.5604
64.1293
32.8699
32.745
75.213
62.8021
33.8747
33.3343
299.386
362.665
272.871
124.161
99.0076
128.681
94.3353
257.039
265.25
233.018
91.0682
81.3789
86.2457
73.3383
189.207
210.532
165.083
77.5022
62.5993
70.3894
52.2462
170.734
163.204
173.233
55.2952
41.6677
46.8805
38.2528
170.489
176.437
179.754
39.602
36.4728
37.1621
35.3985
166.251
179.709
174.61
35.6758
34.4691
34.9924
34.3653
158.382
173.364
162.199
34.1519
33.2898
34.239
34.3032
121.466
152.526
118.695
33.1916
31.5723
34.224
30.1712
261.633
324.9
229.939
121.989
88.7658
111.035
79.1182
232.255
219.542
198.867
80.909
70.0437
70.2431
56.9358
166.246
188.818
180.328
66.8303
49.4764
54.0114
45.077
179.763
181.76
185.149
45.0274
38.3767
43.1114
39.5302
181.781
184.526
175.633
37.5651
36.2472
39.2207
38.5507
174.172
170.433
154.606
35.9158
35.2442
38.2028
36.4721
155.055
148.837
134.775
35.1542
35.0447
35.8956
33.3309
118.592
132.999
124.046
34.6922
29.8386
32.4754
30.0983
220.593
231.701
180.16
97.5251
75.2038
70.4508
56.6297
189.255
176.339
175.651
66.6705
52.5097
52.834
45.5646
182.912
176.442
177.037
50.13
44.0415
44.342
41.6867
184.735
176.385
175.591
42.546
39.7061
40.8647
38.7742
170.39
176.127
175.321
39.4061
38.6014
38.3021
36.9271
152.206
175.29
174.659
38.1482
35.9428
36.3841
34.8151
139.415
173.823
168.541
35.0844
32.9176
34.3879
33.5328
128.37
166.195
145.988
32.3764
30.2549
33.373
32.5791
174.407
232.691
170.282
65.562
53.965
69.9381
60.655
173.087
165.936
175.363
50.8182
44.784
57.5544
50.3221
165.211
182.636
183.04
43.7144
41.4808
49.415
47.8054
165.524
177.541
156.057
40.8289
38.8655
47.8513
46.352
178.695
157.616
183.539
38.3364
36.9168
44.2958
39.3123
180.99
188.783
189.484
36.4237
35.1035
38.5831
37.5084
172.921
187.763
173.853
34.7947
34.135
37.3314
36.7516
149.479
169.73
139.236
34.0671
33.1418
36.83
36.845
84.9025
109.7
83.6257
69.0882
60.0076
68.9797
58.4594
70.1678
76.7754
64.5432
56.6979
48.2357
54.7174
45.7345
52.1686
61.241
45.3982
44.8701
36.638
42.9376
34.7986
35.8753
41.1255
34.2735
33.9279
29.2632
32.8753
29.5569
31.8677
33.3098
31.7427
28.4485
27.0932
28.9949
28.0273
30.3885
31.4064
30.8651
26.7983
26.2885
27.8347
27.3776
29.6361
30.7595
30.6374
26.1068
25.6884
27.225
26.6028
28.868
30.4496
27.535
25.5952
24.8039
26.2723
24.7618
78.5731
92.5592
69.1201
65.459
55.5911
59.0453
48.3896
61.7607
61.9666
50.5879
52.4013
44.4893
45.4285
39.4163
43.5906
47.9821
40.359
41.8924
34.5255
37.8787
33.7242
34.4628
38.5845
35.8735
32.8182
29.9558
32.9047
46.389
32.5008
35.8073
35.5258
29.5198
28.8557
47.9537
46.8069
31.6599
35.2765
33.6706
28.7384
28.3296
44.957
38.2317
31.2053
33.0663
31.0483
28.1533
27.3373
36.3166
32.497
27.433
30.435
28.9937
26.967
25.4509
31.6055
28.8724
65.4373
60.7295
50.8392
54.9524
46.3132
48.4145
41.8343
47.0087
47.6981
41.5034
43.4894
37.8997
39.7785
35.8641
39.4977
40.3615
37.8819
36.6398
33.5151
35.0708
33.2283
36.0178
37.1394
35.221
32.3396
44.6244
32.6546
32.2173
35.7499
34.7952
33.6539
46.3547
47.1142
32.3674
32.1745
33.6583
33.2006
31.7655
46.6116
40.5887
31.7981
29.898
31.1006
31.3313
30.4038
38.1497
32.8808
29.2118
27.6407
29.0625
30.2167
30.2681
31.643
28.3625
27.29
26.6086
49.2704
62.7425
56.3802
49.782
42.0226
53.0213
48.0242
41.1123
53.7204
47.5221
39.8982
36.0549
46.3347
42.252
37.9802
46.4798
44.7889
35.3201
33.7655
41.149
39.1648
35.4901
44.8
43.205
33.2967
32.0259
39.0102
36.498
33.4641
41.1269
36.0124
31.66
30.5223
34.9619
31.2088
31.6916
35.1542
33.8868
30.0948
28.6787
30.61
29.2795
30.6771
33.571
33.1166
28.2367
27.2847
28.8718
28.1324
30.8622
33.1591
33.8347
27.0907
26.7426
28.0207
26.65
55.0497
60.9845
53.1676
52.2966
45.8406
49.6732
44.147
43.4631
49.9092
41.9087
42.7889
36.1879
41.7381
36.326
34.1394
39.5339
33.1853
34.6289
31.2422
34.9829
31.9161
28.4792
31.7168
29.1118
30.2478
28.4585
31.221
29.8271
26.735
28.6475
27.8362
28.132
27.6139
29.5328
28.975
26.0414
27.6744
27.213
27.4779
27.0452
28.8345
28.3094
25.4278
27.0399
26.3493
26.888
26.4961
28.1091
27.508
24.6191
26.036
24.8191
26.3923
26.0445
27.3011
26.689
50.8264
52.6992
44.6485
47.8835
43.0344
44.0262
39.6858
41.0553
42.3636
37.4624
41.0152
36.2728
38.4056
35.4955
33.1409
36.1898
32.8526
35.0693
32.2386
34.7402
32.8692
31.0924
30.8069
31.9133
31.2846
31.1774
30.4877
31.4509
31.597
29.0278
30.8552
29.2941
30.9466
29.142
31.3992
28.2609
57.5461
42.04
29.8718
29.2826
53.8196
39.1611
27.2062
38.8648
33.3925
29.0526
28.3806
36.6064
32.5288
25.5939
32.2259
29.0235
28.1825
27.3585
31.6772
29.6732
43.0453
46.3485
40.3411
43.035
38.9665
43.614
38.6667
36.3838
38.4924
35.0705
37.7701
35.1907
37.3515
35.0897
32.8167
34.3677
32.7051
34.5435
32.9838
34.6034
33.2998
54.3201
53.1136
32.57
37.7524
39.0213
233.127
33.2083
75.9763
69.1008
54.563
187.582
55.0131
170.187
78.6913
45.2345
32.2927
29.9906
56.4773
40.1646
32.6673
30.2846
33.5404
29.2139
27.4893
37.0963
32.2845
29.6204
28.1954
28.4524
27.0975
26.2201
31.304
29.2932
27.8369
26.8996
40.7685
50.4426
46.3209
45.5316
39.487
46.5742
43.4746
35.3685
44.8788
41.1668
37.9832
35.5665
42.5257
39.3588
33.3135
40.0193
38.028
35.0737
33.8671
38.2324
36.3823
31.8159
37.8243
35.2062
33.3948
32.4548
36.0606
33.4074
30.4941
33.8082
30.5818
32.2013
31.1908
32.367
30.3217
28.5494
30.067
28.7029
30.7213
29.1726
29.9412
28.3424
27.0269
28.2457
27.3862
28.7197
27.693
27.822
26.7684
26.2732
27.1763
25.4448
27.3902
26.6037
26.3735
24.7134
44.3137
48.4743
43.1029
55.0413
45.7779
53.805
48.143
35.5494
40.8831
36.1708
43.3963
41.3845
46.5561
44.0761
31.5188
35.0684
32.6132
41.0181
38.8307
43.6011
41.532
29.2194
32.0409
30.8024
38.0569
37.3296
40.7598
39.0982
28.6065
30.5281
29.9677
37.3853
36.902
38.7372
37.8508
28.0118
29.8128
29.2982
36.5956
36.0446
37.6917
37.5448
27.5323
29.1178
28.6157
36.0857
35.7521
37.4938
37.1737
27.0438
28.4405
27.8488
35.5496
34.7975
37.0279
36.5153
42.3245
43.4049
39.7337
52.4641
48.5495
48.8965
48.2374
36.3103
38.6265
36.11
47.232
44.8634
47.7338
46.2274
33.0008
35.4554
33.6705
44.3075
41.6931
45.3814
41.895
31.2952
33.6745
52.7624
40.7358
38.8835
40.8926
41.1555
30.8015
53.7717
47.9105
38.488
37.5142
41.4274
40.0677
30.0907
44.4472
36.5204
37.3546
37.5658
39.1142
38.2137
29.3813
34.9611
32.3567
37.6147
37.4479
38.2786
38.2469
28.4291
31.7719
30.2509
37.3118
36.6807
38.0706
37.1769
39.1636
43.6582
39.1263
48.1396
47.9412
49.078
48.3894
35.9569
37.9952
36.07
47.6174
46.3982
48.0059
46.7727
33.8079
35.632
34.3175
45.5659
42.0787
46.2393
43.1933
50.9733
33.8842
33.9578
41.099
41.6174
42.0818
40.2482
48.1476
34.1154
33.3865
41.7881
40.1441
39.8347
38.2295
36.9192
32.7504
30.7257
39.1728
38.2403
37.7014
37.3788
32.146
30.2035
29.0692
38.2747
38.1654
37.3383
37.0004
30.0039
28.7652
27.9033
37.9676
37.1332
36.8499
36.3733
39.9745
46.2632
43.5518
50.7205
49.1782
52.5767
49.7472
36.5363
42.6599
39.4827
48.5262
46.8496
48.4597
45.5807
34.8152
38.3998
36.6884
46.33
43.7907
45.2971
43.5903
33.1793
36.3125
33.5938
42.7103
40.3134
42.4899
39.4827
31.7867
32.6419
30.8793
39.7308
38.0977
38.9765
37.5192
29.8899
30.5007
28.7966
37.7077
37.1903
36.7869
35.1642
28.5864
28.2979
27.3277
37.0503
36.6173
35.0038
34.6727
27.5535
26.9452
25.4891
36.4601
36.0836
34.422
33.7057
49.5689
59.6347
54.4709
75.8038
66.8243
78.4564
77.0769
47.9374
53.1739
51.6781
66.5371
74.9798
77.1951
81.5185
45.4878
51.3597
49.5675
76.602
75.3331
82.8853
86.9198
44.3703
48.7786
47.0178
74.8383
79.4897
88.0997
91.1445
43.6575
46.5887
45.2744
80.3543
78.6495
91.6107
90.3806
42.7594
44.9666
44.6369
77.8941
79.8266
89.2702
85.3284
42.2661
44.5994
44.0475
80.3928
79.136
84.6831
83.439
40.9261
43.8562
43.001
78.7983
77.7752
83.3919
83.2412
55.3176
54.2957
55.672
76.9278
78.9531
73.1858
81.2765
52.6402
55.4101
54.2441
79.3323
83.0451
82.5516
86.1575
49.9766
53.6868
49.9878
84.56
90.2355
88.141
96.444
46.7145
48.243
46.3597
91.7661
94.8765
98.8873
102.701
44.6831
46.2296
44.7898
95.279
94.1758
103.316
102.105
44.4513
44.2772
44.3094
92.8866
87.3904
100.182
91.6482
44.2251
44.5697
44.7269
85.8631
84.093
88.9829
85.2151
43.014
44.5226
43.1841
83.9181
82.7474
84.8587
83.1562
55.3891
54.396
55.914
71.4803
81.2038
73.5414
82.2559
54.4136
55.6757
54.5833
82.736
86.3526
83.1466
84.7531
50.1627
54.0605
51.4243
88.2703
96.515
85.632
89.8046
46.8104
50.1415
47.6969
99.1161
102.691
91.1528
94.0064
44.8751
47.0675
44.9258
103.13
101.86
94.5339
93.6072
44.3309
44.3593
44.0191
99.9557
91.5832
92.3305
86.9461
44.6716
44.0743
43.729
88.9483
85.2513
85.5104
83.7597
43.1555
43.5727
42.6952
84.8918
82.9282
83.6979
82.9922
56.6429
58.2649
55.2637
75.9148
82.3759
76.4464
73.1922
54.5016
53.7838
51.709
82.6612
83.6925
72.1245
75.7148
51.6891
51.9369
49.8797
84.24
86.5973
78.3805
75.6404
47.8448
48.4067
45.6571
87.4264
90.1035
74.0406
77.4429
45.0301
45.4339
43.6217
90.6644
89.642
79.2696
77.0033
43.8929
42.6563
41.2438
88.5021
84.7235
75.99
77.6758
43.3438
41.2829
40.8953
84.185
83.0324
78.7648
77.4374
42.4315
40.63
39.5349
82.9892
82.4571
77.2498
76.2404
31.105
30.0697
30.8283
29.5417
30.8753
29.9169
31.2378
36.2979
32.0896
53.4652
37.0778
33.2156
31.9632
176.943
41.0834
37.2098
71.8074
212.623
35.5972
42.9373
230.401
31.2348
31.1996
31.0136
31.8289
30.5523
31.4193
31.559
31.3781
29.8073
30.6241
31.9186
30.0988
31.6381
31.6689
36.7075
38.0158
32.2881
57.7495
32.0369
182.588
33.9633
41.9477
216.206
39.6914
78.7516
44.1312
234.6
37.3509
31.8456
28.8768
31.1047
28.9854
31.066
29.0516
31.8414
44.1221
38.0018
80.449
197.145
38.6418
43.5631
182.066
44.9158
38.3566
74.6082
89.9025
38.9259
42.2722
119.803
32.1498
29.618
30.1044
32.1799
29.5064
31.8788
32.4492
32.4316
29.3908
30.0415
32.5989
29.4483
32.3847
32.6342
45.775
200.013
40.8155
81.6779
44.8977
184.861
41.7094
46.6394
89.4919
40.7973
73.5304
43.4938
123.819
41.8315
73.3803
65.383
52.5425
206.687
47.6186
222.786
79.328
34.0406
32.162
32.0471
32.1329
32.9441
32.2048
32.1408
37.6324
37.0841
32.1611
33.0478
34.9268
40.4125
32.445
53.952
38.9279
56.7949
33.3816
227.87
33.5034
40.6294
73.2444
210.865
72.2238
55.3057
228.686
78.3097
50.3599
34.3421
32.3608
32.9026
32.8536
32.4477
32.3988
33.929
38.0476
33.3868
38.6927
33.0718
40.8149
32.7448
36.3781
70.187
70.1883
53.6866
105.749
54.7496
149.048
66.278
42.0616
38.5136
32.9775
33.4882
39.1164
41.8728
33.5766
41.6597
38.9509
32.9267
33.244
39.1151
41.1263
33.4895
74.0044
191.146
73.1275
56.1943
173.252
77.2556
55.5051
68.0157
101.727
71.4788
51.5698
144.901
63.6727
54.2117
42.1245
33.8012
39.8208
33.8759
42.121
33.8458
39.9017
41.621
33.4031
38.8945
33.7223
40.8573
33.7225
39.6135
187.541
208.683
190.485
118.1
106.982
117.793
105.528
149.936
175.231
156.642
102.211
91.8856
101.6
95.513
116.76
135.448
119.447
80.3936
68.8406
83.3435
74.3066
107.251
109.085
106.117
56.936
52.4134
59.8328
49.4465
101.626
104.285
103.397
49.9441
45.6647
45.1733
42.6708
99.3691
101.556
100.313
43.9682
43.7173
41.0551
40.3084
96.0924
99.329
97.069
43.1796
41.1091
39.8678
38.9216
83.363
92.866
78.3564
40.2298
35.6827
38.6022
34.4584
230.25
264.875
227.745
159.247
139.498
160.895
141.546
188.939
341.945
375.524
212.967
194.874
212.793
333.744
124.189
283.606
275.696
142.518
136.419
132.662
265.975
109.99
220.234
222.283
125.115
120.906
113.772
203.513
81.5806
172.817
165.424
99.6742
92.5632
89.7098
161.884
65.7617
170.46
166.323
81.2142
77.765
67.7287
167.531
61.5145
167.818
169.307
72.5149
69.2959
62.6396
169.101
59.208
163.815
166.937
67.7789
65.0559
60.0274
165.706
56.5924
146.815
157.251
60.0716
57.1536
57.4183
148.032
73.0414
86.0465
76.489
34.3078
28.2971
32.6008
24.8451
217.977
248.945
211.267
151.841
132.437
148.658
126.069
168.85
304.667
339.656
199.33
171.722
197.291
294.408
104.817
252.252
243.824
116.578
108.893
112.546
241.412
89.6243
186.107
206.338
101.365
93.8638
97.4894
185.419
68.5251
169.059
171.105
73.2925
69.0981
71.5113
175.738
66.2332
182.054
184.214
65.178
64.9415
66.5273
183.943
64.3612
178.909
179.868
63.6728
63.242
64.9971
176.844
62.1916
169.715
168.536
61.7473
61.6038
62.3462
164.094
56.091
134.413
135.183
60.7179
58.728
60.2086
130.886
79.5728
87.7327
79.8997
31.8564
27.4351
32.7811
29.6631
187.222
179.415
155.499
119.518
106.138
108.226
85.9356
143.613
262.888
287.133
172.12
151.949
166.547
248.896
84.5293
202.58
194.9
99.9431
89.4517
94.0169
188.487
74.5027
182.51
181.924
78.1049
76.1306
75.4744
182.01
70.3246
185.032
184.196
72.2689
70.6522
71.9055
184.645
67.5642
180.74
181.885
69.1373
68.4394
68.2758
178.402
62.2062
160.2
165.076
66.1738
64.5861
64.4081
161.152
56.1119
144.517
153.278
58.8134
56.5132
57.2107
152.046
53.248
139.297
150.258
52.2107
51.1537
53.7138
149.596
83.1456
99.2364
81.8852
35.1794
34.191
38.3787
36.8449
139.057
150.99
139.336
86.8689
75.7819
86.9588
75.9776
105.484
192.554
212.767
121.845
103.224
122.726
190.403
72.1417
172.668
171.708
75.3426
72.0386
75.8818
172.035
66.8862
171.811
173.642
69.0614
68.7095
67.1875
172.498
64.2867
163.375
159.333
66.0355
65.0802
65.0485
157.666
63.7564
173.614
164.441
64.0638
64.1247
63.3412
171.457
64.6572
181.13
183.401
63.8469
63.5606
64.6755
184.743
63.2954
177.851
183.801
62.4866
61.9202
63.9037
181.136
60.6997
165.473
170.944
60.5266
59.8205
61.6828
165.958
76.6653
89.0237
69.4926
40.8519
37.8235
41.614
36.103
127.84
143.181
120.286
82.6131
72.0213
83.3644
69.9516
128.216
124.63
131.101
65.8917
64.3073
65.9656
64.1727
128.032
129.955
123.405
60.478
57.9903
59.2351
54.1582
117.64
119.157
117.602
57.1545
55.6589
54.1644
53.6015
119.635
116.348
114.301
52.4113
50.0424
51.3222
48.4941
118.734
112.957
108.518