/*--------------------------------*- C++ -*----------------------------------*\
  =========                 |
  \\      /  F ield         | OpenFOAM: The Open Source CFD Toolbox
   \\    /   O peration     | Website:  https://openfoam.org
    \\  /    A nd           | Version:  10
     \\/     M anipulation  |
\*---------------------------------------------------------------------------*/
FoamFile
{
    format      ascii;
    class       volScalarField;
    location    "6";
    object      p;
}
// * * * * * * * * * * * * * * * * * * * * * * * * * * * * * * * * * * * * * //

dimensions      [0 2 -2 0 0 0 0];

internalField   nonuniform List<scalar> 
12920
(
-2.32833e+06
-1.69963e+06
-1.64985e+06
-1.42749e+06
-1.32813e+06
-1.20491e+06
-1.1147e+06
-1.01635e+06
-932031
-844513
-763447
-680655
-601608
-521800
-444243
-366253
-289970
-213242
-137380
-57247.3
-1.91854e+06
-1.65869e+06
-1.61488e+06
-1.39355e+06
-1.31993e+06
-1.19488e+06
-1.1106e+06
-1.01233e+06
-929282
-842155
-761680
-679273
-600495
-520788
-443380
-365387
-289254
-212594
-136885
-56151.2
-1.7767e+06
-1.55262e+06
-1.54437e+06
-1.35978e+06
-1.2985e+06
-1.17399e+06
-1.09958e+06
-1.00166e+06
-923744
-836809
-758587
-676312
-598523
-518908
-441995
-364073
-288165
-211655
-136169
-55054.6
-1.52018e+06
-1.46401e+06
-1.47956e+06
-1.33953e+06
-1.27815e+06
-1.1648e+06
-1.08873e+06
-994690
-916479
-832149
-753965
-672934
-595136
-516219
-439611
-362211
-286660
-210559
-135386
-54269
-1.55059e+06
-1.42921e+06
-1.43627e+06
-1.28759e+06
-1.25842e+06
-1.13695e+06
-1.07656e+06
-980789
-909348
-825181
-749448
-668448
-591860
-513142
-437369
-360432
-285211
-209564
-134696
-54189.8
-1.64602e+06
-1.39993e+06
-1.449e+06
-1.28675e+06
-1.23531e+06
-1.13294e+06
-1.06194e+06
-975838
-900289
-820078
-742963
-664059
-587177
-510041
-434492
-358564
-284035
-208870
-134171
-54386.5
-1.60726e+06
-1.37218e+06
-1.37477e+06
-1.23868e+06
-1.20461e+06
-1.10928e+06
-1.04822e+06
-964983
-893556
-813076
-738737
-659433
-584192
-507084
-431974
-356874
-283009
-208374
-133769
-54662.7
-1.56972e+06
-1.40707e+06
-1.40442e+06
-1.23273e+06
-1.19814e+06
-1.09977e+06
-1.05467e+06
-978172
-904133
-827249
-751464
-674567
-599285
-523697
-429492
-355642
-282112
-207831
-133383
-54541.3
-1.26429e+06
-1.22968e+06
-1.29599e+06
-1.18014e+06
-1.16365e+06
-1.10189e+06
-1.04958e+06
-978233
-905709
-831566
-756771
-681510
-606600
-531904
-446697
-354182
-281373
-207082
-132880
-54268
-1.55569e+06
-1.24567e+06
-1.31343e+06
-1.16345e+06
-1.16189e+06
-1.08832e+06
-1.03754e+06
-968617
-897662
-825545
-752307
-678664
-604952
-531128
-446123
-353310
-280114
-206173
-132219
-54047.9
-1.21145e+06
-1.10175e+06
-1.2449e+06
-1.13941e+06
-1.14145e+06
-1.07528e+06
-1.02817e+06
-960873
-891247
-819986
-747758
-674979
-601563
-527791
-444086
-351886
-278831
-205161
-131497
-53825.8
-1.374e+06
-1.19788e+06
-1.29497e+06
-1.16751e+06
-1.15464e+06
-1.07121e+06
-1.02216e+06
-956445
-887199
-816419
-744721
-672248
-599260
-525619
-441277
-349576
-277671
-203977
-130647
-53236.3
-1.54683e+06
-1.29256e+06
-1.3035e+06
-1.18283e+06
-1.15055e+06
-1.06049e+06
-1.01868e+06
-946802
-877035
-804655
-733051
-660235
-587502
-513816
-422324
-349368
-276387
-203070
-129887
-52783.6
-1.50462e+06
-1.4248e+06
-1.34394e+06
-1.21611e+06
-1.17259e+06
-1.07281e+06
-1.01404e+06
-929740
-864030
-785243
-716396
-640888
-569712
-495068
-422647
-348357
-275730
-202335
-129510
-52822.7
-1.48668e+06
-1.38402e+06
-1.3347e+06
-1.22001e+06
-1.16682e+06
-1.07505e+06
-1.01348e+06
-931667
-863337
-786999
-715562
-641038
-568846
-494921
-421908
-348015
-275286
-202073
-129391
-53158.4
-1.16631e+06
-1.35874e+06
-1.35893e+06
-1.24661e+06
-1.19078e+06
-1.08764e+06
-1.0224e+06
-934887
-867169
-787504
-717258
-640884
-569321
-494478
-422070
-347765
-275242
-202133
-129505
-53515
-1.52562e+06
-1.37122e+06
-1.35733e+06
-1.23972e+06
-1.17674e+06
-1.08193e+06
-1.0184e+06
-934267
-866277
-787894
-717167
-641139
-569248
-494649
-422078
-348230
-275549
-202495
-129813
-53910.3
-1.57669e+06
-1.45e+06
-1.38325e+06
-1.2464e+06
-1.19279e+06
-1.0856e+06
-1.0229e+06
-936349
-868144
-789252
-718316
-642056
-570015
-495351
-422982
-348748
-276148
-203018
-130162
-54483.3
-1.58941e+06
-1.38409e+06
-1.34647e+06
-1.23785e+06
-1.18218e+06
-1.08334e+06
-1.021e+06
-935895
-867987
-789525
-718601
-642500
-570215
-495688
-422879
-349004
-276390
-203353
-130551
-55004.2
-1.56664e+06
-1.32478e+06
-1.35571e+06
-1.24766e+06
-1.19064e+06
-1.08844e+06
-1.02351e+06
-938211
-868655
-790240
-718912
-642954
-570541
-495936
-423198
-349267
-276657
-203657
-130889
-55565.6
-2.26302e+06
-1.74754e+06
-1.65201e+06
-1.42841e+06
-1.32824e+06
-1.20445e+06
-1.11476e+06
-1.01626e+06
-932076
-844546
-763557
-680707
-601648
-521815
-444262
-366272
-290027
-213281
-137407
-56952.9
-2.00861e+06
-1.65668e+06
-1.61932e+06
-1.39584e+06
-1.32127e+06
-1.19443e+06
-1.11084e+06
-1.01211e+06
-929401
-842116
-761785
-679280
-600556
-520770
-443386
-365390
-289281
-212632
-136893
-55653.3
-1.8912e+06
-1.55314e+06
-1.54699e+06
-1.36125e+06
-1.29951e+06
-1.173e+06
-1.09995e+06
-1.00114e+06
-923807
-836605
-758652
-676243
-598547
-518858
-442006
-364051
-288179
-211647
-136130
-54257.9
-1.56352e+06
-1.46687e+06
-1.4816e+06
-1.33975e+06
-1.2795e+06
-1.16465e+06
-1.08918e+06
-994411
-916552
-832045
-754024
-672858
-595082
-516115
-439572
-362163
-286666
-210534
-135370
-53415.4
-1.54646e+06
-1.42976e+06
-1.43692e+06
-1.2922e+06
-1.25835e+06
-1.13845e+06
-1.07737e+06
-980448
-909430
-825021
-749532
-668347
-591848
-512998
-437362
-360384
-285187
-209520
-134666
-53312.1
-1.7076e+06
-1.4402e+06
-1.45081e+06
-1.28225e+06
-1.23747e+06
-1.13246e+06
-1.0622e+06
-975671
-900447
-820076
-742922
-663965
-587081
-509954
-434374
-358539
-284046
-208862
-134132
-53535.9
-1.7983e+06
-1.3992e+06
-1.37876e+06
-1.23829e+06
-1.20588e+06
-1.10844e+06
-1.04889e+06
-964729
-893714
-812935
-738434
-659197
-583972
-506918
-432030
-356903
-283082
-208388
-133736
-53808.5
-1.72091e+06
-1.4312e+06
-1.40353e+06
-1.23039e+06
-1.1981e+06
-1.09909e+06
-1.05522e+06
-978087
-904186
-826842
-751405
-674418
-599312
-523557
-429374
-355714
-282217
-207856
-133356
-53734.4
-1.32691e+06
-1.26211e+06
-1.29665e+06
-1.18109e+06
-1.16577e+06
-1.10146e+06
-1.05017e+06
-978290
-905626
-831371
-756737
-681692
-606874
-531565
-446388
-354175
-281447
-207096
-132810
-53505.3
-1.50804e+06
-1.2518e+06
-1.31267e+06
-1.16336e+06
-1.1626e+06
-1.08743e+06
-1.03785e+06
-968525
-897548
-825481
-752314
-678777
-605091
-531042
-445787
-353229
-280095
-206138
-132171
-53306.3
-1.22966e+06
-1.09184e+06
-1.24418e+06
-1.13621e+06
-1.14137e+06
-1.07416e+06
-1.0282e+06
-960754
-891126
-819873
-747621
-674918
-601635
-527973
-443993
-351796
-278851
-205167
-131439
-53002.2
-1.36979e+06
-1.2034e+06
-1.29172e+06
-1.1688e+06
-1.15362e+06
-1.07146e+06
-1.02232e+06
-956417
-887144
-816342
-744620
-672228
-599283
-525619
-441196
-349496
-277662
-203948
-130588
-52494.1
-1.42693e+06
-1.29037e+06
-1.30026e+06
-1.18216e+06
-1.15085e+06
-1.06074e+06
-1.01929e+06
-946320
-876725
-804431
-732886
-660088
-587309
-513670
-422288
-349345
-276364
-203043
-129800
-52041.1
-1.66458e+06
-1.43477e+06
-1.34993e+06
-1.21688e+06
-1.1727e+06
-1.07251e+06
-1.01465e+06
-928982
-864078
-784797
-716361
-640679
-569616
-494887
-422619
-348318
-275706
-202328
-129418
-52050.8
-1.40124e+06
-1.38209e+06
-1.3329e+06
-1.22084e+06
-1.16813e+06
-1.07611e+06
-1.01405e+06
-932535
-863513
-786885
-715482
-640932
-568801
-494868
-421892
-348056
-275206
-201959
-129310
-52326.3
-1.39051e+06
-1.37894e+06
-1.36254e+06
-1.24846e+06
-1.19171e+06
-1.08769e+06
-1.02288e+06
-934686
-867441
-787349
-717308
-640809
-569339
-494438
-422083
-347679
-275213
-202073
-129427
-52813.7
-1.53503e+06
-1.3955e+06
-1.35927e+06
-1.24216e+06
-1.17712e+06
-1.08175e+06
-1.01849e+06
-933999
-866318
-787797
-717168
-641088
-569246
-494642
-422148
-348165
-275540
-202499
-129772
-53319.3
-1.57632e+06
-1.45198e+06
-1.38436e+06
-1.24675e+06
-1.19296e+06
-1.08471e+06
-1.02278e+06
-936171
-868209
-789277
-718389
-642035
-570096
-495281
-422854
-348789
-276159
-203025
-130107
-53990
-1.56958e+06
-1.40986e+06
-1.3487e+06
-1.23979e+06
-1.18262e+06
-1.08335e+06
-1.02104e+06
-935835
-868102
-789548
-718680
-642488
-570178
-495613
-422940
-349011
-276419
-203360
-130477
-54644.1
-1.65449e+06
-1.32485e+06
-1.35779e+06
-1.24709e+06
-1.19081e+06
-1.08824e+06
-1.02338e+06
-938102
-868679
-790216
-718921
-642917
-570560
-495949
-423219
-349304
-276694
-203683
-130849
-55386.3
-2.40533e+06
-1.71459e+06
-1.65794e+06
-1.42925e+06
-1.32945e+06
-1.20447e+06
-1.11506e+06
-1.01607e+06
-932293
-844575
-763683
-680748
-601673
-521792
-444309
-366312
-290091
-213376
-137505
-56302.6
-1.9655e+06
-1.64624e+06
-1.61323e+06
-1.40031e+06
-1.3221e+06
-1.19381e+06
-1.11112e+06
-1.01172e+06
-929612
-842008
-761945
-679245
-600674
-520744
-443420
-365396
-289329
-212660
-136914
-54583.8
-1.88049e+06
-1.55002e+06
-1.54492e+06
-1.36338e+06
-1.2999e+06
-1.17393e+06
-1.10058e+06
-1.00069e+06
-923903
-836311
-758759
-676132
-598605
-518790
-442043
-364038
-288217
-211643
-136063
-52719.4
-1.62298e+06
-1.46727e+06
-1.48476e+06
-1.34019e+06
-1.28071e+06
-1.165e+06
-1.08973e+06
-994219
-916616
-831879
-754074
-672752
-594985
-515990
-439536
-362126
-286694
-210523
-135275
-51771.1
-1.58956e+06
-1.42153e+06
-1.44068e+06
-1.29632e+06
-1.25651e+06
-1.13987e+06
-1.07854e+06
-981428
-909977
-825056
-749668
-668297
-591892
-512812
-437330
-360337
-285179
-209490
-134578
-51652.6
-1.60166e+06
-1.43475e+06
-1.44678e+06
-1.2792e+06
-1.23937e+06
-1.13108e+06
-1.06244e+06
-975503
-900552
-820068
-742839
-663840
-586945
-509871
-434337
-358559
-284060
-208837
-134052
-51957
-1.6158e+06
-1.41851e+06
-1.3775e+06
-1.23707e+06
-1.20749e+06
-1.10732e+06
-1.04982e+06
-964350
-893802
-812938
-738023
-658764
-583792
-506738
-432059
-356922
-283152
-208454
-133652
-52230.8
-1.77822e+06
-1.46472e+06
-1.40335e+06
-1.23184e+06
-1.19895e+06
-1.09815e+06
-1.05619e+06
-977746
-904180
-826342
-751182
-674117
-599142
-523186
-429321
-355816
-282421
-207928
-133276
-52161.8
-1.42365e+06
-1.28065e+06
-1.29571e+06
-1.18142e+06
-1.1666e+06
-1.09957e+06
-1.05088e+06
-978183
-905418
-831052
-756657
-681944
-606528
-531352
-446033
-354302
-281566
-207071
-132647
-51854.4
-1.55941e+06
-1.21795e+06
-1.30707e+06
-1.16613e+06
-1.16269e+06
-1.0857e+06
-1.03764e+06
-968370
-897350
-825353
-752391
-678965
-605284
-530952
-445491
-353445
-280087
-206108
-132039
-51652
-1.08061e+06
-1.10732e+06
-1.23686e+06
-1.13778e+06
-1.1389e+06
-1.07393e+06
-1.02748e+06
-960532
-890938
-817548
-747491
-675228
-602356
-528343
-443920
-351482
-278849
-205161
-131231
-51407.3
-1.45061e+06
-1.20506e+06
-1.29081e+06
-1.17574e+06
-1.15108e+06
-1.07228e+06
-1.02199e+06
-956331
-887014
-816132
-744421
-672166
-599409
-525841
-440989
-349526
-277661
-203946
-130503
-50988.7
-1.3983e+06
-1.28335e+06
-1.29392e+06
-1.18208e+06
-1.15043e+06
-1.06101e+06
-1.01993e+06
-945288
-876043
-803962
-732555
-659792
-587201
-513505
-422281
-349350
-276366
-203021
-129651
-50543.5
-1.67103e+06
-1.42997e+06
-1.35432e+06
-1.21822e+06
-1.17479e+06
-1.07233e+06
-1.01505e+06
-928750
-864134
-784169
-716279
-640405
-569587
-494866
-422603
-348296
-275690
-202249
-129199
-50475.8
-1.54848e+06
-1.40101e+06
-1.33751e+06
-1.22338e+06
-1.1703e+06
-1.07723e+06
-1.0149e+06
-932997
-863681
-786935
-715342
-640793
-568784
-494839
-421903
-348080
-275112
-201796
-129048
-50679.7
-1.48973e+06
-1.39295e+06
-1.36982e+06
-1.2514e+06
-1.1934e+06
-1.08875e+06
-1.0238e+06
-935007
-867981
-787103
-717426
-640700
-569396
-494393
-422134
-347477
-275151
-201969
-129272
-51321.6
-1.74408e+06
-1.42754e+06
-1.36194e+06
-1.24482e+06
-1.17739e+06
-1.08163e+06
-1.01841e+06
-933593
-866427
-787594
-717227
-640965
-569305
-494414
-421989
-348117
-275522
-202465
-129665
-52101.3
-1.65381e+06
-1.4716e+06
-1.39039e+06
-1.24805e+06
-1.19385e+06
-1.08414e+06
-1.02272e+06
-935936
-868341
-789254
-718471
-641902
-569944
-495138
-422803
-348758
-276155
-202992
-129963
-52971.3
-1.71193e+06
-1.42847e+06
-1.35233e+06
-1.24147e+06
-1.18245e+06
-1.08305e+06
-1.02098e+06
-935599
-868265
-789527
-718751
-642444
-570251
-495610
-423025
-349057
-276440
-203369
-130361
-53844.5
-1.50976e+06
-1.35077e+06
-1.36206e+06
-1.24723e+06
-1.19113e+06
-1.08809e+06
-1.02344e+06
-938003
-868770
-790162
-718929
-642905
-570588
-495942
-423280
-349334
-276709
-203716
-130830
-54956.4
-2.34208e+06
-1.74108e+06
-1.65929e+06
-1.42743e+06
-1.3293e+06
-1.20399e+06
-1.11537e+06
-1.01597e+06
-932587
-844664
-763928
-680741
-601724
-521747
-444344
-366359
-290257
-213554
-137817
-55043.2
-1.95283e+06
-1.66036e+06
-1.61344e+06
-1.4049e+06
-1.32459e+06
-1.19366e+06
-1.11168e+06
-1.0114e+06
-930006
-841904
-762227
-679228
-600909
-520720
-443456
-365424
-289388
-212709
-136976
-52842
-1.82254e+06
-1.55097e+06
-1.53939e+06
-1.36734e+06
-1.29898e+06
-1.17455e+06
-1.10121e+06
-1.00141e+06
-924184
-836479
-758938
-676146
-598735
-518813
-442131
-364117
-288330
-211710
-135965
-50625.5
-1.55472e+06
-1.45023e+06
-1.48401e+06
-1.34124e+06
-1.2804e+06
-1.16537e+06
-1.09034e+06
-994587
-916832
-831838
-754142
-672735
-595159
-516149
-439723
-362342
-286869
-210664
-135019
-49932.3
-1.56323e+06
-1.41807e+06
-1.44125e+06
-1.29787e+06
-1.25421e+06
-1.14224e+06
-1.07836e+06
-981987
-910816
-825182
-749565
-668313
-592065
-513169
-437574
-360592
-285394
-209622
-134378
-49795.5
-1.55031e+06
-1.44363e+06
-1.44181e+06
-1.28227e+06
-1.23923e+06
-1.13172e+06
-1.06286e+06
-975480
-900514
-819739
-742791
-663830
-587073
-510083
-434551
-358795
-284178
-208911
-133898
-49898.9
-1.83499e+06
-1.44317e+06
-1.3855e+06
-1.23996e+06
-1.20767e+06
-1.1064e+06
-1.04949e+06
-964035
-894174
-813240
-738179
-659256
-584179
-506903
-432263
-357053
-283271
-208471
-133488
-50029.4
-1.75942e+06
-1.46337e+06
-1.39736e+06
-1.23164e+06
-1.19965e+06
-1.09706e+06
-1.05659e+06
-978023
-904374
-827375
-751611
-674788
-598802
-522890
-429283
-356002
-282675
-208077
-133146
-49830
-1.44389e+06
-1.29132e+06
-1.29308e+06
-1.18194e+06
-1.1662e+06
-1.09787e+06
-1.05122e+06
-978202
-905082
-831118
-756709
-681507
-606017
-531153
-445703
-354380
-281559
-206991
-132295
-49502.5
-1.42336e+06
-1.24912e+06
-1.30001e+06
-1.17271e+06
-1.16052e+06
-1.08866e+06
-1.03733e+06
-968242
-897116
-825253
-752411
-679252
-605483
-530939
-445281
-353442
-280193
-206088
-131668
-49195.9
-881505
-1.08723e+06
-1.22514e+06
-1.13952e+06
-1.1345e+06
-1.07611e+06
-1.0277e+06
-960362
-890723
-819131
-747707
-675961
-602725
-528470
-443840
-351424
-278829
-205111
-130975
-48991.8
-1.43655e+06
-1.20465e+06
-1.28592e+06
-1.17882e+06
-1.14729e+06
-1.07292e+06
-1.02086e+06
-956184
-886818
-815877
-744208
-672333
-599745
-526181
-440684
-349498
-277670
-203944
-130291
-48690.6
-1.47114e+06
-1.29056e+06
-1.28843e+06
-1.18303e+06
-1.15122e+06
-1.06125e+06
-1.02057e+06
-945032
-875210
-803183
-732020
-659487
-587045
-513278
-422318
-349476
-276409
-203038
-129425
-48345.8
-1.77859e+06
-1.41615e+06
-1.35744e+06
-1.21974e+06
-1.17577e+06
-1.07145e+06
-1.01466e+06
-928504
-864223
-784685
-716161
-640653
-569784
-495040
-422714
-348365
-275780
-202190
-128884
-48109.3
-1.5772e+06
-1.39171e+06
-1.3373e+06
-1.22527e+06
-1.17188e+06
-1.07803e+06
-1.01563e+06
-932093
-863942
-786846
-715698
-641060
-569126
-494978
-422052
-348106
-275117
-201620
-128755
-48200.4
-1.45147e+06
-1.39196e+06
-1.3744e+06
-1.25351e+06
-1.1948e+06
-1.08915e+06
-1.02479e+06
-934955
-868740
-787173
-717656
-640717
-569561
-494193
-422040
-347355
-275096
-201855
-129178
-49082.9
-1.72074e+06
-1.4407e+06
-1.36366e+06
-1.24681e+06
-1.17757e+06
-1.08298e+06
-1.01882e+06
-933796
-866653
-787532
-717416
-640704
-569352
-494218
-421841
-348078
-275528
-202403
-129609
-50021.4
-1.81224e+06
-1.45548e+06
-1.39232e+06
-1.24654e+06
-1.19452e+06
-1.08391e+06
-1.02268e+06
-935644
-868507
-788971
-718309
-641726
-569825
-495063
-422815
-348766
-276157
-202941
-129799
-51183
-1.6424e+06
-1.44125e+06
-1.35955e+06
-1.24242e+06
-1.18204e+06
-1.08327e+06
-1.02105e+06
-935565
-868583
-789666
-719003
-642402
-570336
-495596
-423078
-349071
-276439
-203327
-130192
-52377.2
-1.60852e+06
-1.34714e+06
-1.36162e+06
-1.24549e+06
-1.1907e+06
-1.08767e+06
-1.02339e+06
-937818
-868884
-790226
-719094
-642915
-570642
-495939
-423346
-349395
-276813
-203774
-130854
-53983.8
-2.33283e+06
-1.75396e+06
-1.66315e+06
-1.42401e+06
-1.32995e+06
-1.20365e+06
-1.11579e+06
-1.01581e+06
-933013
-844791
-764263
-680655
-601733
-521666
-444437
-366457
-290516
-213871
-138552
-52879.7
-1.85206e+06
-1.6419e+06
-1.60983e+06
-1.40738e+06
-1.32337e+06
-1.19518e+06
-1.11234e+06
-1.0115e+06
-930448
-841769
-762635
-679285
-601442
-520774
-443494
-365438
-289412
-212722
-136887
-51065
-1.85692e+06
-1.54919e+06
-1.53306e+06
-1.36876e+06
-1.2965e+06
-1.1765e+06
-1.09942e+06
-1.00182e+06
-924270
-836624
-759135
-676169
-598960
-518858
-442275
-364186
-288461
-211811
-136142
-50181
-1.37924e+06
-1.42797e+06
-1.47598e+06
-1.34402e+06
-1.27856e+06
-1.16661e+06
-1.08949e+06
-994833
-916942
-831840
-754169
-672760
-595302
-516269
-439853
-362498
-286965
-210779
-135088
-49732.6
-1.54582e+06
-1.40363e+06
-1.43669e+06
-1.29923e+06
-1.25254e+06
-1.14346e+06
-1.07647e+06
-982639
-910449
-825225
-749581
-668388
-592082
-513405
-437698
-360769
-285582
-209757
-134452
-49593.2
-1.62957e+06
-1.44813e+06
-1.43999e+06
-1.2852e+06
-1.23658e+06
-1.13258e+06
-1.06241e+06
-975611
-900483
-819499
-742825
-663838
-587279
-510202
-434700
-358875
-284296
-209046
-134015
-49488.3
-1.81292e+06
-1.4468e+06
-1.383e+06
-1.24179e+06
-1.20607e+06
-1.10839e+06
-1.04819e+06
-964597
-893779
-813700
-738317
-659418
-584442
-507041
-432484
-357207
-283326
-208533
-133627
-49467.7
-1.78293e+06
-1.46671e+06
-1.40073e+06
-1.23426e+06
-1.19793e+06
-1.09762e+06
-1.05555e+06
-978848
-904775
-828572
-751985
-675896
-599342
-523620
-429257
-356013
-282416
-208089
-133255
-49159.4
-1.29791e+06
-1.2925e+06
-1.28609e+06
-1.18227e+06
-1.16481e+06
-1.10006e+06
-1.05104e+06
-979246
-906119
-832280
-757171
-681692
-606238
-531633
-445748
-353924
-281429
-207006
-132366
-48911.1
-1.42097e+06
-1.24381e+06
-1.29701e+06
-1.17566e+06
-1.15986e+06
-1.09154e+06
-1.03909e+06
-968470
-897127
-825207
-752437
-679422
-605510
-530754
-445238
-352948
-280126
-206077
-131704
-48467.8
-828938
-1.07955e+06
-1.21832e+06
-1.14236e+06
-1.13252e+06
-1.07691e+06
-1.02931e+06
-960587
-890549
-819542
-748269
-676235
-602801
-528420
-443749
-351108
-278762
-205088
-130962
-48236.8
-1.49708e+06
-1.23086e+06
-1.28218e+06
-1.1801e+06
-1.14616e+06
-1.07464e+06
-1.02231e+06
-955976
-886603
-815692
-744323
-672576
-599921
-526270
-440708
-349141
-277708
-204013
-130321
-47839.4
-1.57746e+06
-1.31336e+06
-1.29338e+06
-1.18438e+06
-1.15096e+06
-1.06051e+06
-1.01939e+06
-944920
-874745
-802976
-731727
-659537
-587022
-513591
-422228
-349517
-276487
-203107
-129433
-47532.8
-1.87062e+06
-1.41711e+06
-1.36309e+06
-1.22175e+06
-1.17635e+06
-1.0719e+06
-1.013e+06
-928566
-863591
-784978
-716077
-640791
-570132
-495079
-422808
-348461
-275853
-202172
-128856
-47212.2
-1.83574e+06
-1.39524e+06
-1.34718e+06
-1.22722e+06
-1.17237e+06
-1.07731e+06
-1.01616e+06
-931325
-864249
-786669
-716031
-641100
-569521
-495000
-422117
-348044
-275045
-201645
-128776
-47219.8
-1.54685e+06
-1.40139e+06
-1.37864e+06
-1.25468e+06
-1.19456e+06
-1.08938e+06
-1.02539e+06
-934763
-869301
-786793
-717947
-640513
-569756
-494164
-422035
-347427
-275190
-201911
-129278
-47608.3
-1.67544e+06
-1.43984e+06
-1.36481e+06
-1.24762e+06
-1.17798e+06
-1.08432e+06
-1.01899e+06
-933788
-866696
-787193
-717539
-640389
-569406
-494012
-421947
-347997
-275590
-202291
-129664
-48038.4
-1.86207e+06
-1.46285e+06
-1.39524e+06
-1.24829e+06
-1.19434e+06
-1.08474e+06
-1.02293e+06
-935599
-868684
-788893
-718373
-641672
-569842
-495028
-422829
-348762
-276135
-202869
-129666
-48814.3
-1.6847e+06
-1.44962e+06
-1.36382e+06
-1.24333e+06
-1.1823e+06
-1.08344e+06
-1.02169e+06
-935324
-869169
-789817
-719348
-642344
-570395
-495543
-423105
-349054
-276427
-203299
-130126
-50148.5
-1.51709e+06
-1.35082e+06
-1.36003e+06
-1.24603e+06
-1.19079e+06
-1.08746e+06
-1.02348e+06
-937673
-869042
-790266
-719227
-642886
-570699
-495940
-423429
-349474
-276941
-203918
-131074
-52550.7
-770775
-818594
-766711
-825270
-770825
-818335
-766757
-697429
-748742
-696832
-752428
-697634
-748952
-697172
-765496
-816867
-763080
-817169
-765503
-816693
-762930
-695596
-744996
-690872
-747702
-696135
-744853
-691034
-996927
-1.03964e+06
-988623
-1.04969e+06
-997144
-1.03966e+06
-988622
-924876
-970907
-917680
-978292
-924912
-970868
-917615
-851256
-899559
-845542
-905640
-851301
-899479
-845498
-776883
-827092
-772168
-831421
-776834
-827040
-772157
-701599
-753503
-698233
-756731
-701509
-753513
-698324
-626406
-679522
-624203
-681603
-626525
-679620
-624282
-551583
-605504
-550166
-606795
-551656
-605533
-550113
-476667
-531372
-475238
-531612
-476624
-531303
-475030
-986146
-1.02989e+06
-979719
-1.03746e+06
-986106
-1.02973e+06
-979659
-915613
-962556
-910288
-968557
-915533
-962478
-910211
-843799
-892643
-839168
-897587
-843743
-892566
-839137
-770758
-821216
-766967
-825502
-770753
-821146
-766923
-697155
-748803
-694136
-752312
-697209
-748755
-694133
-623438
-675862
-620789
-678736
-623543
-675843
-620816
-549622
-602360
-546914
-605051
-549710
-602433
-547109
-474902
-528451
-472780
-531066
-474690
-528634
-472850
-977957
-1.02244e+06
-974239
-1.02805e+06
-977894
-1.02246e+06
-974218
-908834
-957177
-905504
-960799
-908761
-957134
-905463
-837901
-887964
-835011
-891163
-837865
-887926
-834972
-765887
-817145
-763396
-819919
-765804
-817098
-763332
-693230
-745325
-691063
-747671
-693211
-745256
-691032
-619964
-672854
-618185
-674929
-619917
-672830
-618208
-546228
-599819
-544709
-601540
-546301
-599846
-544749
-472157
-526230
-470783
-527868
-472242
-526265
-470790
-973661
-1.0259e+06
-974327
-1.0223e+06
-973663
-1.02568e+06
-974324
-904803
-955840
-904236
-956430
-904770
-955801
-904192
-834366
-885928
-833580
-887164
-834327
-885906
-833546
-762824
-814542
-761721
-816372
-762773
-814452
-761702
-690532
-742876
-689721
-744655
-690529
-742855
-689732
-617702
-670343
-616853
-672240
-617718
-670351
-616864
-544218
-597525
-543636
-599277
-544214
-597681
-543555
-470209
-524116
-469729
-525611
-470179
-524074
-469604
-997300
-1.04003e+06
-988639
-1.05046e+06
-997775
-1.03974e+06
-988701
-924928
-970852
-917577
-978226
-925009
-970789
-917453
-851347
-899440
-845477
-905470
-851350
-899298
-845389
-776820
-827014
-772152
-831112
-776652
-826905
-772171
-701645
-753521
-698373
-756645
-702230
-753585
-698536
-626635
-679671
-624289
-681931
-626716
-679733
-624319
-551678
-605532
-550100
-606663
-551731
-605575
-550107
-476557
-531274
-474848
-531419
-476578
-531196
-474639
-986087
-1.02996e+06
-979622
-1.03757e+06
-986049
-1.02935e+06
-979491
-915488
-962432
-910169
-968407
-915345
-962261
-910017
-843718
-892524
-839111
-897407
-843618
-892383
-838978
-770749
-821099
-766889
-825389
-770756
-820922
-766811
-697239
-748726
-694159
-752354
-697374
-748703
-694208
-623588
-675849
-620934
-678909
-623749
-676071
-621532
-549715
-602593
-547290
-605235
-549750
-603205
-547694
-474546
-528787
-472824
-530975
-474343
-529076
-472852
-977862
-1.02249e+06
-974207
-1.02755e+06
-977717
-1.02213e+06
-974179
-908723
-957114
-905441
-960591
-908576
-957042
-905348
-837838
-887903
-834948
-890991
-837690
-887808
-834845
-765755
-817068
-763291
-819675
-765561
-816929
-763139
-693225
-745215
-691007
-747435
-693300
-745052
-690903
-619967
-672814
-618222
-675057
-620471
-672765
-618333
-546424
-599866
-544780
-602180
-546837
-600027
-545026
-472219
-526301
-470701
-528279
-472308
-526493
-470820
-973661
-1.02546e+06
-974301
-1.02219e+06
-973654
-1.02519e+06
-974309
-904750
-955733
-904114
-956358
-904664
-955561
-903882
-834304
-885866
-833517
-887054
-834198
-885709
-833469
-762740
-814379
-761663
-816195
-762605
-814201
-761593
-690517
-742816
-689711
-744479
-690463
-742761
-689759
-617723
-670329
-616836
-672179
-617771
-670396
-616801
-544217
-597700
-543485
-599354
-544400
-597509
-543430
-470162
-523887
-469448
-525766
-470379
-523576
-469432
-998017
-1.0399e+06
-988742
-1.05101e+06
-998467
-1.03954e+06
-988896
-925055
-970771
-917406
-977985
-925176
-970722
-917271
-851461
-899238
-845355
-905092
-852225
-899040
-845282
-776623
-826865
-772197
-830996
-776895
-826782
-772268
-702437
-753627
-698584
-756672
-702882
-753630
-698700
-626723
-679756
-624348
-681673
-626799
-679837
-624490
-551789
-605601
-550124
-606141
-552130
-605687
-550217
-476543
-531181
-474517
-531201
-476865
-531164
-474595
-986047
-1.02928e+06
-979451
-1.03722e+06
-986070
-1.02903e+06
-979398
-915293
-962202
-909963
-968268
-915134
-962061
-909795
-843576
-892328
-838890
-897169
-843469
-892156
-838729
-805608
-807297
-823729
-825313
-805678
-807286
-823641
-732941
-734106
-751082
-752441
-732879
-734144
-751113
-623809
-676313
-621682
-679173
-624015
-676819
-622018
-549752
-603329
-547768
-605435
-549812
-603602
-547880
-474226
-529126
-472781
-530940
-474215
-529182
-472785
-977668
-1.02208e+06
-974180
-1.02719e+06
-977594
-1.02166e+06
-974230
-908523
-957018
-905310
-960385
-908361
-956951
-905184
-837582
-887767
-834796
-890774
-837415
-887627
-834640
-800607
-800587
-818606
-815868
-800762
-798387
-818480
-728374
-729631
-746515
-747372
-728429
-729939
-746448
-620676
-672766
-618429
-675812
-621068
-673000
-618798
-546925
-600119
-545146
-602665
-547087
-600434
-545449
-472262
-526577
-470800
-528453
-472367
-526834
-470987
-973655
-1.02529e+06
-974279
-1.02092e+06
-973650
-1.02519e+06
-974088
-904628
-955452
-903713
-956227
-904505
-955189
-903272
-834151
-885598
-833444
-886871
-833997
-885303
-833459
-762549
-814104
-761528
-815939
-762392
-813921
-761376
-690447
-742722
-689752
-744244
-690457
-742630
-689801
-617814
-670401
-616763
-672250
-618167
-670109
-616762
-544532
-597402
-543447
-599661
-544921
-597154
-543717
-470389
-523498
-469420
-526105
-470656
-523300
-469745
-998258
-1.03955e+06
-988950
-1.05068e+06
-998272
-1.04033e+06
-988985
-925285
-970708
-917245
-978932
-925329
-970818
-917445
-852539
-898985
-845275
-905800
-852568
-898992
-845358
-777110
-826775
-772254
-832071
-777483
-826746
-772209
-703035
-753565
-698751
-757038
-702816
-753472
-698898
-626892
-679873
-624551
-681573
-626927
-679962
-624681
-552315
-605712
-550263
-606066
-552443
-605742
-550256
-476963
-531162
-474559
-531468
-477121
-531092
-474653
-986096
-1.02967e+06
-979435
-1.03848e+06
-986312
-1.03163e+06
-979942
-915091
-962039
-909743
-968366
-915069
-962123
-909602
-843449
-892102
-838716
-897051
-843436
-891955
-838729
-770812
-820485
-766977
-825216
-770795
-820737
-767206
-697720
-749066
-695229
-752434
-697930
-749324
-695535
-624090
-676939
-622102
-679439
-624254
-677312
-622203
-549842
-603658
-547889
-605531
-549779
-603692
-547812
-474157
-529177
-472698
-530827
-474204
-529097
-472801
-977620
-1.02156e+06
-974264
-1.02899e+06
-978017
-1.02234e+06
-974395
-908310
-956932
-905139
-960429
-908171
-956873
-905013
-837419
-887576
-834593
-890587
-837444
-887428
-834494
-765561
-816642
-762910
-819451
-766042
-816551
-763069
-694432
-744874
-691188
-748172
-694566
-745111
-691683
-621150
-673141
-618904
-676291
-621278
-673447
-619151
-547114
-600525
-545542
-602807
-547103
-600725
-545659
-472306
-526906
-470969
-528448
-472406
-526982
-471035
-973645
-1.02521e+06
-973933
-1.02152e+06
-973698
-1.02516e+06
-973279
-904464
-955027
-903071
-956023
-904356
-954560
-902755
-833947
-885179
-833442
-886653
-833825
-884678
-833324
-762360
-813834
-761242
-815721
-762439
-813151
-760987
-690555
-742431
-689803
-744290
-690997
-741783
-689754
-618288
-669902
-616842
-672561
-618565
-669436
-617160
-545037
-597053
-543854
-599920
-545192
-596937
-543659
-470699
-523205
-469835
-526272
-470738
-523364
-469917
-998478
-1.04084e+06
-988993
-1.05159e+06
-998614
-1.04163e+06
-989025
-925500
-970875
-917586
-979346
-925511
-970936
-917592
-852575
-899126
-845355
-906396
-852399
-899219
-845241
-777548
-826766
-772185
-832369
-777291
-826723
-772066
-702647
-753480
-698830
-757192
-702260
-753474
-698698
-626871
-679962
-624652
-681902
-626681
-679964
-624594
-552353
-605737
-550179
-606560
-552129
-605749
-550015
-476898
-531046
-474506
-531842
-476329
-530975
-474175
-986407
-1.03223e+06
-980265
-1.03968e+06
-986464
-1.03253e+06
-980328
-915181
-962340
-909554
-968528
-915207
-962481
-909586
-843434
-891909
-838757
-897140
-843327
-891887
-838666
-770790
-820806
-767258
-825112
-770695
-820805
-767188
-697901
-749391
-695452
-752399
-697806
-749313
-695316
-624208
-677252
-622186
-679383
-624149
-677145
-622194
-549697
-603666
-547757
-605481
-549513
-603665
-547693
-474059
-529054
-472691
-530622
-473766
-528998
-472475
-978306
-1.02302e+06
-974509
-1.02933e+06
-978430
-1.02381e+06
-974563
-908126
-956874
-904981
-960727
-908139
-956977
-904944
-837486
-887396
-834514
-890508
-837413
-887341
-834441
-766123
-816551
-763129
-819560
-766085
-816495
-763116
-694458
-745182
-691766
-748238
-694319
-745212
-691653
-621277
-673456
-619123
-676161
-621324
-673481
-619108
-547069
-600707
-545639
-602841
-547044
-600711
-545566
-472288
-526970
-470899
-528396
-472060
-526915
-470591
-973774
-1.02522e+06
-973044
-1.02352e+06
-973813
-1.02583e+06
-972706
-904323
-954406
-902692
-956103
-904255
-953927
-902191
-833870
-884327
-832807
-886541
-833779
-884235
-832112
-762486
-813011
-760965
-815637
-762425
-812778
-760650
-691092
-741560
-689347
-744354
-690981
-741677
-689096
-618521
-669448
-617018
-672613
-618454
-669603
-616852
-545174
-597021
-543504
-599936
-545065
-597332
-543489
-470593
-523469
-469753
-526236
-470237
-523735
-469153
-787460
-788977
-769315
-770808
-787486
-788990
-769321
-804801
-822457
-801676
-817717
-804706
-822314
-800878
-786375
-768019
-784507
-766860
-786286
-768063
-784406
-805594
-825284
-807281
-823624
-807281
-823597
-805622
-787465
-770833
-789021
-769366
-789009
-769343
-787484
-804801
-817333
-822373