/*--------------------------------*- C++ -*----------------------------------*\
  =========                 |
  \\      /  F ield         | OpenFOAM: The Open Source CFD Toolbox
   \\    /   O peration     | Website:  https://openfoam.org
    \\  /    A nd           | Version:  10
     \\/     M anipulation  |
\*---------------------------------------------------------------------------*/
FoamFile
{
    format      ascii;
    class       surfaceScalarField;
    location    "6";
    object      phi_0;
}
// * * * * * * * * * * * * * * * * * * * * * * * * * * * * * * * * * * * * * //

dimensions      [0 3 -1 0 0 0 0];

internalField   nonuniform List<scalar> 
38556
(
2165.91
-1762.74
-6020.84
1495.02
687.995
-17.1026
1437.09
29.5661
28.363
1390.35
-198.338
245.073
1245.53
-111.412
256.233
1165.01
-96.3322
176.858
998.149
26.3206
140.538
896.094
49.7309
52.3249
844.819
80.0937
-28.8191
825.486
80.7515
-61.4183
806.339
82.6882
-63.5417
790.858
76.1798
-60.6985
764.971
61.8511
-35.9643
745.887
48.8077
-29.7232
721.465
34.5667
-10.1452
700.052
20.6827
0.730123
680.901
6.47314
12.6782
669.852
-5.19955
16.2481
682.217
-17.2043
4.8394
-19.7916
5.57648
-906.792
-1879.61
365.918
-85.9789
-241.011
108.193
224.089
-575.882
295.379
320.442
-326.52
31.8286
412.9
-191.347
-12.5224
474.408
-69.469
-88.3714
500.491
33.7573
-33.5192
516.833
70.2828
-36.8951
520.692
93.3197
-17.0847
521.046
91.3983
-11.0002
505.856
80.5454
17.3324
483.299
69.8333
28.9032
449.309
49.6629
46.1789
418.473
37.2926
42.3508
393.724
26.0736
33.2421
377.322
19.5631
17.5211
369.906
16.261
-2.37168
369.226
10.4026
-14.923
378.531
7.42728
-33.9367
7.792
-35.8373
-656.773
-646.051
-2300.62
143.69
-357.387
-684.087
233.044
-431.057
-234.179
248.992
-248.702
-93.7658
220.846
-200.58
37.3797
240.223
-73.2256
-15.6206
268.058
-9.31171
15.2339
282.985
57.2736
-1.91789
301.962
59.4691
14.8737
308.316
73.9301
11.1144
307.961
56.6625
24.2376
297.768
58.5719
21.4546
284.142
44.3589
18.9302
270.92
42.7325
7.78261
264.656
30.2914
2.04566
263.792
25.3107
-4.88364
268.649
16.9501
-5.54627
277.183
8.98633
-7.11716
292.942
-0.958178
-7.3738
-2.52049
-0.0124002
1036.87
1420.41
-3332.13
915.431
344.41
-580.361
621.542
166.525
-303.693
513.397
-103.917
-36.6399
355.122
-103.471
61.1658
310.973
-37.8371
8.7601
297.983
-17.4747
21.153
296.906
60.4286
-2.07761
299.801
53.0097
3.56429
287.535
87.9086
-1.71213
268.841
67.0591
8.29645
244.354
76.8458
6.2137
228.296
51.1998
9.21765
218.41
47.5963
5.02205
217.765
26.679
4.25691
220.94
19.2802
2.85585
228.385
5.76304
3.74211
237.679
-2.26065
1.9531
248.899
-14.9605
2.78138
-15.0695
5.34118
-152.819
1058.45
-746.05
90.9756
173.176
-72.5609
-6.76695
65.858
198.41
24.5496
-144.289
9.05459
72.6447
-220.374
68.8082
90.8022
-88.0225
32.0278
168.387
-133.765
38.7053
204.444
5.25249
19.119
242.135
-2.98003
18.2986
246.19
80.2928
3.56132
246.104
56.6498
10.4952
238.11
82.9882
1.85128
235.79
50.6076
2.91281
237.789
46.9531
-1.35551
246.877
16.1017
1.48941
255.816
10.9999
-0.658583
268.348
-11.7175
4.94796
277.274
-15.3422
4.15614
285.145
-28.8107
5.97852
-25.1769
6.33251
1158.47
-1628.7
-2871.31
1701.66
-505.707
135.686
1795.53
-153.126
125.114
1548.17
-24.7852
127.862
900.138
54.6002
373.055
574.649
88.6687
148.797
438.295
-103.483
106.072
348.402
21.7651
73.3799
311.768
-7.31909
40.9731
279.511
96.1958
16.354
265.337
64.5864
6.2374
257.075
91.5889
-0.337575
263.281
47.9588
-3.5572
276.202
41.2399
-7.20862
300.367
1.85616
-9.91939
330.215
-9.96289
-8.88475
348.872
-31.7843
1.41002
354.823
-30.2952
9.00136
348.336
-36.9891
14.6649
-29.5232
11.3676
3666.54
-664.592
3674.91
2383.27
-494.906
1272.47
1573.88
-6.57172
662.842
1343.78
67.7694
137.541
1006.91
185.003
206.47
800.824
223.235
71.5174
570.285
23.2166
132.868
-27.9649
25.8594
-26.923
431.21
6.1421
117.702
8.22594
11.557
17.2128
332.745
25.2236
75.0058
-20.3414
29.6329
-18.3746
292.124
23.0878
42.2919
22.8981
24.9853
23.5533
284.462
34.7542
11.9036
-2.07635
32.9162
-5.24884
294.941
28.2237
2.336
13.8027
26.0064
10.7403
320.719
25.6016
-6.20281
-6.55392
21.5339
-12.1972
360.541
15.3784
-6.80624
-6.6894
10.4887
-10.9541
410.497
-44.455
-3.64495
457.358
-52.0274
-4.79581
481.19
-57.2402
1.62352
480.474
-36.3388
6.75988
445.424
-20.9786
19.0394
-12.7019
14.3888
280.373
532.134
631.142
677.905
-1071.34
178.899
911.322
-370.401
130.413
1149.95
-210.58
39.7188
1094.63
41.8496
198.475
267.275
49.6558
73.5509
269.159
259.403
258.575
50.1589
41.1354
48.9518
249.872
34.4827
6.13721
-216.633
193.455
14.5333
14.7872
-155.782
124.396
40.9193
15.6911
-86.4705
80.5795
20.8991
8.07971
-74.0815
74.2259
35.3303
-0.720493
-65.2046
75.5832
21.2735
-3.42837
-78.2026
87.063
21.2885
-4.5474
-85.9401
99.1635
4.82448
-2.66948
423.973
-10.3064
12.2119
-100.507
-105.648
-92.6803
-94.0781
-34.8057
-10.5507
-32.0638
454.082
-85.4324
3.29585
476.427
-67.1825
-12.4026
467.375
-19.7598
-7.52756
417.142
13.9357
15.319
13.892
9.52873
785.211
1214.08
-3029.78
806.256
-891.271
-201.111
1320.82
-336.833
-548.129
1575.04
-277.498
-187.304
302.775
111.505
220.549
281.404
356.321
344.335
273.27
54.7374
24.4239
-13.4053
-63.1888
59.3313
14.9295
2.33331
-49.906
-10.983
50.5676
11.6853
-1.36387
-44.5732
-14.6548
43.1869
14.1976
1.84355
-29.9817
-11.7984
26.8733
13.2433
1.6635
-19.5419
-11.1306
20.4451
10.4264
-0.198995
-18.8492
-8.10819
20.4719
7.38797
-0.90245
-21.1962
-6.70276
23.6043
5.22219
-0.927622
-25.2467
-2.18651
27.4832
0.457474
-0.50745
-26.634
104.806
-11.3302
2.18083
-27.7645
-25.5408
-26.0233
370.121
-71.0573
-14.4401
-95.5673
-95.9522
-89.5839
-88.953
361.313
-42.7709
-15.6029
345.386
11.9775
-15.8112
329.806
35.5434
-6.02691
23.9777
-5.0239
-607.043
381.292
-1116.83
-247.18
-591.785
-659.35
470.307
-580.506
-473.815
823.772
-311.882
-319.08
209.932
96.5733
23.7953
176.874
224.326
203.777
-56.2116
214.926
49.0223
2.19526
-19.2639
-48.8194
46.4475
19.3612
2.27456
-19.7372
-46.2659
46.8925
21.1875
-2.07686
-16.6104
-41.7883
37.2558
19.2597
1.8832
-17.2292
-27.9622
26.568
17.6315
0.991811
-10.2087
-26.0812
26.6626
10.1562
-0.528942
-6.59388
-28.437
29.3721
6.60219
-0.943446
-3.41173
-31.5626
32.4822
3.30335
-0.811208
1.70383
-33.3475
31.8307
-0.777361
0.590329
-26.8818
9.20418
107.029
-3.89676
-4.95576
-27.4535
-26.1188
-26.9263
397.901
-46.9448
-7.19414
-103.751
-111.595
-95.6281
-103.844
367.745
-7.17538
-5.4401
347.077
36.6543
-4.00805
342.594
46.9555
-6.9292
27.7618
-4.19493
1652.59
1593.45
2885.9
374.066
97.3173
589.421
414.189
-604.838
-15.791
471.213
-179.381
-189.526
114.966
156.299
37.754
58.016
127.339
73.4116
-44.5954
124.496
47.5279
-12.4623
-22.3296
-31.6364
30.899
21.0677
1.99923
-22.5902
-31.3014
31.4057
23.4872
-1.00134
-23.4589
-30.7444
30.733
22.8572
0.613156
-16.3646
-31.7825
32.3891
15.2875
0.470552
-8.89731
-33.39
33.4575
8.37641
0.453411
-5.5261
-33.3883
33.1246
5.12863
0.661183
-2.43208
-31.6242
31.0643
2.61526
0.376731
-1.31367
-30.1179
30.0866
1.62805
-0.283134
-30.4376
-0.123277
123.062
1.21704
-2.20475
-31.467
-29.6856
-30.3604
411.008
-14.4435
3.90837
-116.454
-117.883
-107.204
-105.877
375.243
33.0159
-4.42628
363.643
52.6794
-4.4248
358.603
57.3354
-5.33985
30.1148
-0.0762961
571.434
15.1087
3422.68
218.468
-62.292
512.575
156.575
-629.183
86.2394
161.205
-121.401
-62.6103
-5.70488
135.8
163.45
0.815913
6.89483
16.249
-49.3992
8.7767
44.0336
-9.11584
-18.1278
-12.8228
14.9509
15.7994
0.200198
-20.9058
-20.3292
22.31
18.9856
-0.0606091
-17.5232
-27.4517
28.9813
15.3895
0.604139
-11.9527
-31.4219
31.925
10.6656
0.784025
-8.12118
-32.5039
32.7395
7.70226
0.183294
-6.19741
-32.0246
31.9577
6.69686
-0.432547
-4.24801
-31.8055
32.1369
4.67295
-0.756358
-3.09857
-32.2615
32.501
3.43235
-0.573246
-31.4094
-0.125275
121.115
-3.0485
5.17855
-31.9197
-29.7078
-30.0826
328.905
23.8075
8.22259
-101.268
-97.9924
-90.0453
-86.0728
319.714
43.9253
-1.7186
327.724
46.4171
-1.74709
335.939
44.9128
4.2073
14.8938
10.7346
-391.242
-502.61
-846.988
100.286
-70.7678
-483.052
439.907
-439.113
-529.691
468.791
-83.3698
-66.9155
475.396
69.0767
60.118
120.367
-135.533
80.9628
-1.41188
32.6768
5.18435
37.5954
112.15
115.764
107.641
-0.538989
120.382
11.3953
11.8284
-10.9159
-0.919525
-10.8642
-11.6298
-106.186
116.733
38.4509
3.73274
-15.1747
-11.2604
-14.6656
-8.0046
-142.099
162.813
17.392
1.72757
-11.9335
-7.99469
-11.9002
-7.1863
-156.181
156.061
34.742
1.22325
-10.7608
-7.25238
-10.6453
-6.25927
-152.183
149.802
35.1423
0.225019
-10.5855
-6.01138
-10.1302
-5.96779
-135.206
131.826
34.32
-0.877189
-9.77152
-5.3594
-8.96462
-3.35077
-130.286
133.597
17.8704
-1.26539
-7.39681
-2.58469
-6.58408
-1.56921
-126.038
121.897
13.743
3.08955
-5.54679
-0.82881
-4.74694
296.015
56.2359
31.2734
2.73613
-17.2422
5.8209
-16.2302
-101.564
-91.6145
-86.4563
-78.9739
271.154
37.7661
10.9016
268.458
42.8227
3.79946
280.781
28.3753
5.718
298.446
19.77
7.47776
-8.23445
11.5941
-507.923
793.248
926.121
-91.2263
69.5411
-557.006
233.085
-318.047
-445.378
243.591
-98.3055
4.42978
379.258
-119.936
53.3459
314.249
-91.335
20.811
300.936
212.971
22.4454
-24.2268
-86.4026
-24.9408
-86.5338
295.176
-16.51
11.4972
-12.3039
15.1389
-8.27585
16.214
298.762
159.408
-18.8714
-10.0624
-58.5318
-12.9132
-62.6152
323.076
75.7335
8.52076
-23.4723
-32.6382
-24.5011
-27.9574
342.746
144.577
10.0905
-32.5813
-59.371
-27.6828
-54.7018
343.793
81.3643
18.9622
-25.6691
-31.1094
-19.8677
-24.7276
327.494
96.246
16.4461
-14.815
-37.0931
-10.1874
-34.2972
306.591
55.233
21.927
-8.6402
-22.6264
-5.41307
-19.5772
291.059
58.9653
12.8021
285.871
35.0949
7.85954
294.92
23.8755
9.89792
310.389
3.94256
8.96362
332.493
-11.3798
9.04647
-32.592
9.51958
767.129
230.587
741.945
1145.43
2.74809
-311.503
1208.27
-105.155
-275.736
957.4
95.2392
57.3245
511.821
141.857
183.786
355.191
64.9801
0.315036
339.23
222.374
6.55775
263.982
64.1098
-5.37151
270.08
160.814
-7.50373
255.746
81.4998
8.56791
268.779
125.38
6.16441
265.761
72.661
11.7207
273.968
80.6198
7.41936
275.585
46.934
6.68195
287.604
44.2429
2.70382
308.635
16.8175
-2.75311
336.624
1.71937
-5.83333
357.371
-11.6251
-5.17959
383.968
-34.5388
-3.43761
-53.1895
4.18635
354.945
-308.987
2980.23
450.781
-354.922
261.833
602.376
38.7072
-295.457
626.873
158.679
-87.9359
491.691
302.536
-25.4976
437.42
162.303
-43.0512
382.92
260.327
16.546
340.723
115.287
-8.97898
313.869
179.012
8.65572
296.879
99.5123
-1.02281
297.546
121.044
3.66883
297.05
75.0257
-1.86904
306.45
72.8207
-1.60077
318.298
41.4826
-6.39699
335.013
34.126
-6.59795
352.527
11.3271
-12.0236
374.384
-6.13602
-14.0013
398.298
-15.9714
-19.5677
433.197
-50.4957
-18.9424
-68.3904
-5.78417
850.999
1001.74
-3635.12
631.626
414.059
-549.607
728.482
575.023
-633.172
658.785
360.63
-132.254
489.512
501.295
-29.4877
410.842
259.361
-18.3884
358.622
298.251
14.296
309.788
180.813
-16.6934
318.689
187.967
-17.8552
307.593
133.265
-22.6562
332.745
121.46
-25.5676
349.189
76.9816
-18.4002
379.016
56.174
-13.1799
403.712
22.6012
-5.81507
428.956
7.47432
1.40805
450.521
-6.66266
-3.57567
470.639
-15.3598
-10.8933
488.43
-12.9688
-20.7942
512.099
-47.9399
-26.225
-65.5182
-15.2404
-1978.59
-96.4361
-552.308
-518.993
18.9402
-1064.48
247.294
158.051
-349.315
264.298
267.167
76.4588
395.693
296.055
73.8449
409.769
243.091
2.19398
452.914
242.171
12.9354
465.662
194.985
-26.9197
511.586
176.046
-34.0033
558.368
133.516
-47.033
613.856
103.229
-37.2567
676.275
56.0674
-41.5047
728.29
30.79
-26.6312
766.443
5.57986
-21.1316
785.284
-1.23121
-10.1353
779.691
5.05419
-6.12405
751.087
12.309
0.935155
709.762
26.7888
1.56742
665.954
6.62054
-10.753
-25.1703
-15.5664
139.325
-889.856
-3783.92
97.2204
30.1121
30.9333
313.768
398.336
-456.833
260.7
497.662
-177.427
364.975
371.035
-179.255
407.51
288.292
-87.7355
534.054
142.195
-26.5683
616.971
126.348
-14.2791
691.781
93.4597
7.77561
746.341
71.017
7.93862
780.703
36.8793
31.9876
800.716
10.4238
25.6309
802.331
-10.3987
39.5729
794.24
-17.6947
31.366
778.316
-17.9052
32.5975
766.311
-11.9941
29.054
752.711
2.77064
23.1378
735.803
33.6719
10.0253
708.084
45.577
-11.2381
28.2985
-32.366
794.401
-1676.69
1012.34
-187.832
872.951
537.73
1056.75
313.862
1061.14
366.645
1073.7
275.729
988.922
226.975
974.627
140.643
977.008
91.0785
1010.01
38.0168
1026.56
20.3296
1042.21
-5.22899
1039.13
-7.31778
1033.25
-11.8157
1018.63
-3.28073
1002.73
3.89789
970.451
35.0531
946.682
57.4405
942.93
49.3296
32.0582
892.692
-2783.91
-3570.14
1156.01
-579.96
299.536
1031.67
-291.417
444.122
1096.84
-155.638
335.537
1069.82
-0.106784
283.367
1064.51
4.10782
178.053
986.476
64.7872
153.789
936.339
45.6263
56.8354
870.422
58.3866
-21.289
834.144
45.1867
-70.3278
797.688
41.8342
-68.9191
768.239
30.1046
-61.3549
728.091
22.9489
-18.7643
695.624
13.759
-11.0153
669.155
8.37662
7.94622
653.961
4.3775
11.546
648.439
3.2437
14.9569
651.025
0.438931
13.2231
662.197
-0.467817
-5.86425
0.723141
-4.03374
-15.8337
-1571.5
-3818.97
-526.639
-271.456
310.495
63.8512
-530.063
-56.4643
122.158
-213.202
31.0858
270.731
-102.623
-58.58
330.429
-26.1151
-117.847
371.469
42.6391
-52.411
389.863
54.8869
-64.5502
399.393
66.1087
-34.3361
400.07
59.725
-26.2167
390.593
50.869
17.7752
374.029
42.2962
33.2762
356.167
33.475
53.5141
340.778
27.8293
43.6694
329.44
22.2563
30.7003
322.448
18.8697
10.0215
317.54
15.0809
-9.30126
316.028
10.0565
-23.0287
317.955
6.84659
-43.1782
3.55001
-40.4628
-174.997
-827.105
-2503.43
93.5396
-467.797
-756.283
23.9836
-519.906
-174.78
33.6678
-230.046
-86.6066
85.1441
-151.841
35.121
106.359
-44.9427
-18.0071
154.161
-5.37941
15.4495
170.293
44.5648
-7.72726
196.618
35.6836
18.9737
202.439
53.5887
11.4297
207.013
38.6361
31.8964
200.413
46.6157
23.7356
195.909
34.4272
22.4822
189.774
35.0869
6.65969
189.707
23.077
1.29193
191.408
19.3016
-7.01623
196.918
10.6011
-6.5762
203.339
4.76523
-8.2479
214.389
-3.10782
-8.46888
-4.88487
1.27794
1994.92
479.469
-2276.88
1202.54
-148.866
-106.912
394.662
33.8517
-49.574
240.348
-123.766
11.3943
156.794
-79.2721
72.1511
141.84
-26.434
5.20558
160.417
-33.5799
30.777
160.679
42.1752
0.0491726
169.624
20.9951
9.30844
158.718
63.5511
-0.768169
153.996
39.7411
11.9138
143.015
57.4737
6.33655
143.079
33.2353
10.3451
142.737
35.7789
4.67263
148.536
17.0334
4.50149
154.329
14.1278
2.23612
162.514
1.99481
4.16394
170.344
-2.5681
1.45631
179.659
-12.2609
2.61936
-12.4922
6.754
-1133.43
991.571
745.447
-520.916
-60.7363
-773.201
-175.47
166.442
-279.626
-186.344
-79.1208
-24.7164
-35.9646
-150.255
-10.5881
-19.639
-55.4221
44.6903
68.7696
-126.986
43.7029
89.3547
14.3663
26.3427
124.664
-25.8879
29.8722
124.171
62.1813
5.42427
132.744
27.0147
14.6487
130.986
59.8217
1.26106
138.541
24.9195
3.67326
144.796
30.4321
-2.26333
156.818
4.72306
1.77841
165.839
5.2095
-0.762004
176.991
-10.1144
5.90554
183.954
-9.89311
4.51754
191.705
-20.9179
6.88437
-18.9518
8.16431
-977.393
-864.206
-2638.26
120.591
-569.257
-453.777
490.915
-30.3261
-48.4413
569.492
-57.9747
28.138
409.38
-10.7594
393.672
299.846
30.28
172.628
256.314
-116.923
139.542
209.369
49.3752
85.316
193.492
-19.0842
50.0461
166.467
86.5453
19.0146
159.941
32.8411
6.93752
155.641
64.6375
-0.853452
167.918
13.8158
-4.73009
180.578
17.2159
-6.65222
196.741
-13.7017
-7.6579
212.516
-13.0428
-6.40798
222.416
-21.5681
2.96403
228.409
-16.1986
9.31432
229.571
-23.5253
16.1104
-20.3418
12.9845
670.645
-102.848
1438.72
770.05
-354.088
957.894
634.869
105.8
661.898
623.168
-15.5505
106.817
489.297
103.985
225.598
351.233
180.935
58.9258
248.432
23.6555
142.6
-31.8533
20.3901
-36.046
187.339
20.5965
128.043
26.0515
24.6555
28.8231
159.704
26.8325
78.2605
-21.856
24.4937
-24.1734
151.681
24.9836
45.5618
21.1796
25.3642
19.771
162.61
26.1028
11.9303
-12.6126
23.1556
-14.7601
181.516
20.6226
1.33442
4.53785
18.8123
2.76079
209.436
14.1026
-8.48155
-17.8547
11.4806
-19.554
242.257
5.44252
-4.33972
-14.7357
5.20851
-13.9862
272.494
-46.0273
-1.55613
292.527
-33.9367
-3.93486
300.209
-30.224
2.59697
294.556
-12.0144
8.2292
277.014
-8.93262
21.989
-9.73492
16.3486
-1382.78
-129.456
763.779
-193.511
-791.231
-573.226
431.314
-62.2153
-326.396
624.446
-63.3659
-105.597
647.917
118.597
160.391
159.81
62.9002
48.0103
159.494
138.594
137.37
63.9902
64.7989
67.4347
-18.9985
145.045
43.056
14.3625
-32.6001
-110.143
98.6594
25.0922
39.5883
-28.9749
-81.5727
67.0911
39.8571
30.432
-14.0166
-43.4871
48.106
19.4251
14.9562
-0.172381
-46.3884
49.3001
25.1942
-1.83077
3.66351
-42.8295
54.0703
10.484
-4.76575
4.493
-57.0814
65.6402
6.96522
-5.9144
0.819365
-63.8082
75.4856
-6.43299
-0.621226
310.696
-7.77538
9.29129
-75.1023
-76.7987
-66.144
-67.5351
-28.4014
-6.50164
-25.5435
321.488
-44.8252
3.39154
314.782
-25.7494
-10.1705
294.902
3.98303
-3.64569
269.927
12.4713
18.8904
0.987944
11.0546
466.127
951.993
-4373.98
730.693
-709.12
-547.789
639.469
15.8637
-534.984
694.458
-109.36
-196.299
182.096
226.654
185.057
168.011
146.666
125.121
-45.6418
195.886
64.4058
30.3458
-9.43462
-15.8046
-48.8941
47.5523
17.9339
8.64712
-1.24163
-33.5545
-12.4245
31.6266
13.0854
2.50859
-6.57527
-24.5618
-13.7474
24.2638
13.3752
7.24547
-5.10095
-16.9489
-9.19066
16.9156
9.33371
4.99117
0.177806
-14.8553
-7.78586
16.3538
6.60189
-0.492349
2.09719
-15.5443
-4.10182
17.1869
2.86865
-2.50658
1.57932
-17.9834
-2.11237
19.9322
0.467115
-1.88279
0.365364
-19.8794
1.1593
21.2602
-2.46636
-0.439086
-19.8172
-1.96928
81.5547
-11.4445
2.27185
-20.3134
-18.7762
-19.2813
276.458
-39.5842
-12.2256
-74.8838
-74.9889
-67.1149
-66.9254
260.213
-11.7748
-13.3329
244.684
15.7943
-12.0937
237.012
18.7661
-4.64875
-1.21317
-1.76433
-884.012
386.47
971.31
-516.677
-1039.01
-696.795
53.203
-413.615
-614.216
185.422
-232.397
-328.263
90.5583
152.842
26.7387
70.2881
56.8327
38.6109
-0.458257
-64.8167
121.225
51.6237
-17.0158
-8.43232
-20.2682
-36.829
38.4375
20.2189
6.87309
-1.60669
-18.6736
-34.3488
32.4458
19.2761
2.90732
-5.68933
-14.7001
-25.9042
24.2702
15.7608
6.26259
-2.17167
-10.2909
-22.0376
22.0946
10.3085
2.09706
1.3643
-5.0932
-22.5787
22.9512
4.95202
-1.59552
2.21072
-1.17888
-23.9318
24.2689
1.10487
-2.47379
1.56064
1.89819
-24.7607
24.7723
-1.84882
-1.62166
-0.551044
2.95484
-23.6276
23.1568
-2.31277
0.379833
-21.7736
6.2858
13.3223
85.0986
-11.1972
-6.23305
-22.9331
-20.7326
-21.8372
290.428
-25.763
2.32248
-79.951
-87.5238
-70.1259
-76.1649
266.479
11.6397
-4.90572
256.38
25.6985
-3.8124
253.924
21.1321
-6.83947
-4.28257
-0.610583
-313.1
-368.313
-315.091
-576.745
-474.808
288.863
197.369
-619.172
-584.348
55.9455
-126.842
-153.657
57.7859
139.898
-1.26644
14.9482
34.7872
0.388811
34.4739
-35.2994
72.1445
34.4682
-48.0013
-1.656
-19.2483
-23.8286
25.9448
17.9873
0.800776
-3.03424
-19.3732
-26.6125
25.9049
19.1199
3.99517
-3.24457
-16.3407
-25.0236
25.335
15.6094
3.66439
-1.0673
-9.4428
-26.73
27.2037
9.03949
0.996996
-1.43043
-4.5553
-27.5048
27.5967
4.36543
1.52841
-0.825974
-1.59368
-27.7722
27.7611
1.90817
0.522613
0.324694
0.13809
-27.1576
26.8073
0.598401
-0.710896
1.45508
0.370163
-25.9341
25.7543
0.0882126
-1.73363
-24.6382
1.57697
10.379
95.0559
-10.274
-0.183171
-24.9266
-23.3809
-23.609
298.285
3.39079
4.74611
-89.1191
-86.1349
-77.3416
-75.6804
276.99
30.6537
-2.14539
268.822
32.6498
-3.20807
260.911
25.1369
-1.43374
-3.62942
4.04246
-350.603
-906.175
4706.88
-248.226
-213.711
149.1
-41.1739
-696.893
-43.0911
-138.443
-72.4663
-19.7168
-10.4192
76.6126
122.054
-1.9828
-14.5749
-6.78523
16.7872
-27.6064
6.30674
11.6468
-17.5537
-0.601844
-10.7908
-13.0637
16.0977
7.60088
0.757814
-1.77016
-14.7589
-20.9969
22.3815
12.8634
2.28102
-1.51693
-12.2704
-25.7701
26.8192
11.047
1.69131
-1.57377
-7.86058
-27.9719
28.1263
7.64754
1.63242
-0.591813
-4.57133
-27.6724
27.547
4.686
0.602528
1.20128
-3.26316
-26.3992
26.2204
3.60253
-1.36176
1.85428
-1.80683
-25.4679
25.4812
1.90736
-1.96814
1.06154
-0.494031
-24.6738
24.6037
0.499289
-0.996625
-22.5634
-8.18279
9.54456
85.2055
-9.56296
10.0388
-22.4844
-21.0718
-20.9236
241.741
23.1243
6.72606
-72.0852
-67.472
-62.0201
-58.4004
238.111
31.6462
0.919202
240.407
26.2378
2.36857
242.689
17.7874
9.27472
-7.38978
12.4102
-703.343
-999.418
-846.687
-80.7131
-142.371
-1177.02
180.943
-445.476
-1042.76
227.479
-53.8528
-132.064
352.827
4.28764
7.0953
87.4027
-203.107
94.5355
36.8188
65.5401
48.6232
79.0938
79.0438
76.8091
69.0294
5.50376
-22.5486
85.5316
-4.38815
25.4678
-5.09569
6.565
-3.63299
-7.47745
-7.36098
-65.166
77.2502
20.9526
9.12621
-10.7161
-6.68736
-9.92114
-6.18815
-3.65589
-102.622
117.367
16.1659
4.69303
-10.1201
-5.85857
-9.78119
-6.00448
-1.72092
-104.752
103.496
30.0768
2.31576
-9.04135
-5.71603
-8.65307
-4.02769
-1.45404
-103.69
104.233
21.9923
2.03924
-7.85833
-3.73208
-7.50219
-2.81035
1.30998
-91.7804
90.4037
18.582
-1.4761
-6.09944
-2.4549
-5.67455
-0.155387
1.19531
-88.8477
90.4913
5.16931
-0.406216
-3.99105
0.183063
-3.63867
1.46411
-4.87312
-78.5049
75.2708
3.61136
5.82129
-2.43386
1.78427
-2.13996
201.592
38.8416
28.9763
7.8874
-15.1939
7.29435
-15.3305
-64.4965
-58.2386
-51.6556
-48.4037
200.946
24.9781
9.69454
201.983
28.6674
5.74158
210.04
14.8711
9.02715
219.85
5.13399
10.3206
-15.832
12.9547
-378.656
-222.555
1394.24
-34.4147
-62.4844
-981.133
4.65838
-374.266
-555.661
69.932
-93.9947
-20.7019
257.123
-141.067
11.5095
156.761
-109.113
27.179
141.418
222.173
22.1201
-18.2503
-84.9728
-19.2522
-84.0292
129.504
-67.2237
15.27
7.59405
24.8321
16.6688
26.2691
147.936
147.783
-28.533
-13.0808
-63.6561
-15.4847
-64.3307
170.937
23.5542
19.7083
-17.0246
-16.6576
-13.2339
-10.8275
192.479
110.375
10.3852
-20.5031
-48.4276
-17.2782
-46.0022
194.009
36.9146
24.1578
-10.8898
-15.0746
-6.80485
-10.8716
193.396
67.9907
16.0844
-4.53413
-30.346
-2.73935
-29.3971
191.21
26.3262
23.2476
-0.310408
-14.5964
1.59017
-12.1439
193.149
38.5898
11.1151
197.338
20.0133
8.63504
209.553
15.5358
10.8153
223.069
0.323688
9.99437
238.598
-11.2148
9.8664
-27.5652
10.9823
703.597
822.599
744.772
704.922
220.131
-595.444
579.022
-56.6356
-467.467
466.261
100.955
-24.8636
283.441
92.5307
133.008
187.517
-4.17996
-8.69376
210.005
205.864
0.379746
136.344
11.4882
-10.4231
154.53
133.602
-11.5088
142.055
36.0429
8.55503
162.314
91.7563
4.52431
162.134
36.9757
11.8388
176.642
54.1313
6.7712
180.633
23.0082
6.00889
194.32
24.3049
3.3024
211.237
3.67693
-3.33344
231.545
-5.15234
-5.4535
245.772
-14.9437
-4.13917
265.558
-31.7769
-2.66177
-42.3742
6.98178
327.789
419.578
4262.67
458.792
238.954
112.008
412.63
231.255
-537.186
402.802
168.943
-146.098
285.106
239.942
-55.2124
238.738
55.1088
-55.9724
233.95
202.775
24.4219
203.098
46.3755
-13.0148
203.525
131.662
10.1694
192.487
50.0785
-4.02062
201.834
82.3657
3.71199
202.839
38.8062
-4.70381
214.86
43.1221
-2.61259
224.228
16.1637
-8.92026
238.709
10.5473
-7.32114
250.873
-6.85709
-13.6541
265.047
-17.6116
-15.7155
280.317
-30.1729
-19.6086
302.448
-55.6131
-17.2371
-59.0043
-1.99551
1369.28
1181.57
-1619.32
890.884
685.588
-517.846
517.081
631.588
-659.701
417.685
269.943
-133.858
305.024
388.185
-65.0696
235.545
125.217
-19.0178
246.309
202.124
4.18387
207.851
90.7706
-22.6309
237.246
109.881
-25.4688
230.442
62.4603
-28.2342
258.282
56.1862
-27.2281
269.28
31.2181
-21.8105
292.896
19.3693
-13.0421
307.792
3.16414
-7.71185
324.608
-5.5552
0.694652
335.23
-13.053
-8.00147
344.518
-24.1793
-13.6135
349.922
-32.3134
-24.0579
358.777
-63.1183
-27.5754
-64.7605
-13.7114
-1521.2
-90.9912
3821.27
-537.333
118.514
-1481.26
-132.318
225.728
-348.469
17.6277
165.681
30.7756
293.411
161.17
25.0753
290.334
113.825
16.663
367.292
117.641
20.4607
381.365
80.2916
-30.5141
421.124
72.0239
-35.9054
445.686
44.1561
-53.2903
476.267
27.4722
-39.1239
499.054
9.3484
-42.4215
516.222
-1.13544
-23.295
525.168
-5.2053
-21.7079
524.296
-4.75393
-10.0637
517.531
-2.38304
-10.0296
505.158
-5.44077
-5.43116
490.055
-7.0095
-8.63324
472.549
-36.6338
-19.7316
-48.794
-19.2744
-243.38
1039.8
-1041.28
-110.203
358.774
-342.505
150.914
484.943
-977.165
142.571
376.907
-380.31
280.027
210.471
-366.011
321.291
123.831
-139.006
453.479
31.0346
-72.1499
517.959
40.0193
-38.4871
575.99
30.7695
-9.0011
608.484
32.1932
-12.5917
627.898
21.8273
18.2178
635.097
17.662
10.119
632.887
12.027
28.6202
627.053
11.71
20.284
619.165
10.885
24.8462
614.007
13.9243
17.9039
607.183
13.0691
11.4523
601.705
15.3317
-6.8383
591.761
1.09395
-39.0217
-14.9725
-54.7103
1231.58
-6185.3
601.331
801.196
731.536
892.467
906.731
515.574
918.339
565.508
929.991
387.908
878.238
309.762
893.273
165.628
905.414
109.707
934.838
40.7855
946.127
30.8677
956.458
2.10243
951.685
9.4815
946.536
5.0433
935.914
18.2264
927.427
26.3086
921.22
54.3295
926
67.9922
929.566
46.8577
21.6168
485.904
-2696.39
-5990.72
658.689
-796.339
923.091
951.568
-392.051
543.293
1044.44
-110.477
353.145
967.379
107.705
252.72
936.049
76.9676
132.414
867.272
97.969
124.597
832.286
56.8228
34.9977
775.82
53.5041
-18.3262
736.77
31.3607
-62.6391
689.067
24.8127
-46.0289
653.622
11.4699
-37.3787
621.943
9.67822
3.23548
601.949
4.93287
4.04593
590.645
6.10406
13.1468
586.407
6.48058
9.30313
583.708
8.52435
9.13067
584.206
9.14361
3.58154
575.448
14.1486
-11.2545
15.0691
-10.3964
184.645
-382.572
-1841.61
-365.998
-121.46
186.26
-77.1492
-409.126
-328.239
11.3716
-125.418
-42.4941
178.286
-42.7327
-75.0565
228.826
2.47782
-93.8968
265.413
44.5283
-35.5567
273.288
43.1491
-58.7522
277.56
47.4573
-32.5612
270.964
39.2087
-27.4687
265.771
31.9166
15.8634
257.547
27.7278
25.2424
254.967
24.7767
40.9961
251.978
23.936
27.6546
250.629
21.091
17.0624
248.49
18.9336
-0.291749
245.553
14.8245
-12.6651
243.144
11.1174
-22.5933
240.437
8.55264
-34.875
3.40614
-27.2033
-145.741
-698.293
-4305.13
-171.011
-389.918
-462.555
-85.3257
-478.839
-190.752
-103.407
-176.346
-17.597
-15.1377
-114.316
18.4348
0.342738
-26.4902
-4.51957
57.4815
-13.4598
16.2991
69.0423
31.1412
-7.28017
98.4562
16.2997
20.717
101.798
38.7633
8.53287
112.494
24.4259
28.6913
110.375
37.2208
16.3623
114.374
25.7906
17.4694
113.084
29.2035
2.68238
116.743
18.0727
0.651079
118.746
16.1537
-6.23925
124.031
7.43102
-4.46791
128.561
4.03703
-5.69759
136.554
-2.5004
-5.40829
-4.01471
3.45411
1167.11
-1201.01
394.057
1000.01
-431.577
101.847
233.702
-16.6899
254.58
84.4172
-103.969
88.3021
29.0123
-68.1426
81.383
24.3578
-26.7686
10.1382
56.5172
-46.313
31.4709
57.3172
27.2014
3.18894
72.2137
-5.36653
16.0784
63.0484
46.7558
0.40467
67.4311
20.3199
11.6371
62.4367
44.9273
3.62488
69.7026
21.125
7.74485
72.1773
28.8941
2.50718
79.8561
11.5462
3.34892
85.3333
11.8195
1.09321
93.1719
0.380543
3.37614
99.4857
-1.99396
1.17354
107.098
-9.89393
2.40024
-9.75342
6.79786
137.434
-547.698
1912.96
-206.808
-411.208
-449.329
-250.391
101.696
-354.429
-245.242
-131.636
-2.1984
-134.732
-148.171
-41.0696
-121.682
-46.0019
50.8731
-22.3248
-132.247
30.2803
-6.23772
14.3556
23.1016
32.984
-42.6073
27.8912
32.2312
49.0307
3.90199
47.044
5.53916
14.617
47.9828
45.5155
-0.265895
59.8287
9.08369
3.86837
66.2721
22.6244
-2.43698
78.3356
-0.605163
1.8664
85.5664
4.59428
-0.767475
95.4453
-8.47625
4.88329
101.509
-7.00087
3.46074
109.236
-16.1375
5.4011
-14.2547
7.46764
-410.788
-1386.77
-971.541
-279.875
-848.937
-146.961
29.8646
-151.074
-105.411
89.1984
-196.659
33.8273
103.554
-70.4804
301.625
82.863
24.44
122.878
119.311
-142.405
113.251
93.8733
60.1913
64.9178
95.6075
-37.9554
43.6601
74.8844
74.2385
14.5299
75.2688
5.96571
6.12658
72.8318
48.0882
-0.98937
86.2051
-6.25319
-2.76648
95.4701
10.9949
-4.28748
106.321
-14.8358
-4.27774
115.859
-8.09604
-3.2561
121.999
-14.645
2.99194
127.04
-9.52008
6.79331
131.767
-16.7957
12.0412
-14.7695
10.1906
106.262
698.181
1087.07
26.865
-307.137
495.491
342.727
-74.5089
269.471
280.603
-125.945
98.2271
211.707
35.8485
188.164
80.9758
178.553
35.5436
50.8675
12.1544
101.521
-42.8613
6.59089
-47.1016
27.6969
29.3712
90.6892
30.6601
31.1822
29.5027
42.3266
19.0211
50.941
-28.3556
14.6696
-30.6009
50.9633
23.9657
31.8374
16.768
23.4666
15.126
69.9589
17.5939
7.55305
-19.3122
14.5623
-21.4966
89.6767
15.7635
0.527198
-0.234502
14.6615
-1.01283
113.493
7.61318
-7.38842
-22.25
6.27742
-22.8026
137.62
5.23678
-1.5559
-13.9366
5.28239
-12.4984
156.549
-35.0052
-0.316463
164.115
-17.2912
-2.3051
165.15
-16.0157
2.93275
160.371
-2.27853
5.76688
155.51
-6.78006
16.8336
-8.65346
12.4558
-107.65
85.0219
2426.83
278.981
-540.094
-726.901
308.495
-67.8774
-362.542
397.12
-126.861
-193.305
362.538
105.011
125.811
80.6452
69.1666
22.7178
79.3356
63.2527
60.7877
72.6479
68.0044
72.5443
-24.6958
63.847
35.7317
17.9168
-41.6129
-29.9025
30.8002
30.0766
40.0098
-28.1455
-27.6783
24.5873
28.4459
21.8118
-13.801
-12.3234
22.7213
15.6334
11.7353
2.57696
-24.1636
28.1585
15.3483
-4.32638
4.31528
-22.593
33.358
4.50611
-3.82295
5.66333
-35.8617
43.1606
0.646358
-5.99538
-0.493229
-39.95
50.0936
-5.92075
1.5072
191.886
-3.23368
6.42793
-48.2655
-49.8831
-39.1004
-40.4394
-22.2109
-1.03759
-19.8569
193.959
-18.6859
2.7128
181.472
-8.77014
-4.92878
166.721
9.36736
-0.540157
158.884
5.92265
14.0251
-5.17069
9.02987
1215.55
205.297
-1914.83
986.985
-525.179
-334.144
459.322
166.653
-241.851
314.986
-41.9568
-136.867
77.2719
257.541
127.943
55.3177
55.9541
31.0271
-30.0133
88.3345
72.5647
15.5525
-9.53238
-15.6444
-23.4801
22.6675
18.5097
7.47969
-5.20639
-12.5806
-11.2082
12.4644
10.8883
5.64252
-7.48818
-10.9742
-10.5337
12.149
9.97943
6.86762
-3.81836
-9.1715
-6.18636
10.4225
5.55858
3.19517
1.02387
-10.5051
-5.05832
12.1366
3.67928
-1.27639
2.83234
-11.1999
-1.70694
12.7313
0.245732
-2.90251
2.04987
-12.8904
-0.57927
14.5817
-1.23243
-1.92943
0.362514
-13.544
1.08912
14.8276
-2.42375
-0.311456
-13.5101
-1.41124
57.0727
-7.26293
1.25257
-14.0386
-12.4087
-12.9274
171.708
-15.0248
-6.50258
-50.0318
-50.189
-40.6426
-40.2286
157.334
1.4752
-9.20442
148.715
11.4774
-5.58497
147.017
4.79007
-1.81776
-10.8037
2.33421
-143.156
-2320.01
-2492.54
-679.023
-854.144
168.038
-157.277
-287.541
-681.768
-204.66
-182.438
-140.398
4.93753
147.703
-22.3915
-11.3701
-12.3359
-26.924
17.081
-70.7854
28.1802
53.5247
-23.063
-6.93752
-21.6281
-14.3193
16.8712
20.3781
5.63566
-4.9597
-13.7052
-17.7707
17.0864
14.234
5.11518
-6.03291
-9.80919
-15.694
15.9085
10.0718
5.55586
-1.40493
-5.40946
-16.7976
17.1292
5.42787