/*--------------------------------*- C++ -*----------------------------------*\
  =========                 |
  \\      /  F ield         | OpenFOAM: The Open Source CFD Toolbox
   \\    /   O peration     | Website:  https://openfoam.org
    \\  /    A nd           | Version:  10
     \\/     M anipulation  |
\*---------------------------------------------------------------------------*/
FoamFile
{
    format      ascii;
    class       volScalarField;
    location    "6";
    object      turbidity_0;
}
// * * * * * * * * * * * * * * * * * * * * * * * * * * * * * * * * * * * * * //

dimensions      [0 0 0 0 0 0 0];

internalField   nonuniform List<scalar> 
12920
(
-0.0374207
-0.0312205
-0.046735
-0.0695713
-0.0881899
-0.106927
-0.126665
-0.144443
-0.153623
-0.158608
-0.168891
-0.187677
-0.2199
-0.262216
-0.313959
-0.365821
-0.410269
-0.443937
-0.464253
-0.475344
-0.0400125
-0.0595727
-0.0863423
-0.104405
-0.120456
-0.136203
-0.160262
-0.186001
-0.213989
-0.245274
-0.281163
-0.324694
-0.373919
-0.42029
-0.452468
-0.462606
-0.45114
-0.429252
-0.406527
-0.400548
-0.0246195
-0.0595995
-0.0878352
-0.118927
-0.151076
-0.180937
-0.208922
-0.239292
-0.272829
-0.31043
-0.353428
-0.401562
-0.452558
-0.498659
-0.535951
-0.563105
-0.588675
-0.614617
-0.642031
-0.671406
-0.0125582
-0.0311135
-0.0595325
-0.0992884
-0.14069
-0.179055
-0.214441
-0.244584
-0.27744
-0.31439
-0.362512
-0.421383
-0.488075
-0.552468
-0.610205
-0.658627
-0.700075
-0.736617
-0.768689
-0.796842
-0.0204006
-0.0462953
-0.0827251
-0.132919
-0.1693
-0.20758
-0.238985
-0.264759
-0.294419
-0.329046
-0.374679
-0.426928
-0.48013
-0.52657
-0.564488
-0.595908
-0.622261
-0.649142
-0.677769
-0.707962
-0.0231955
-0.0259637
-0.0323383
-0.0487011
-0.0825344
-0.136364
-0.193538
-0.251372
-0.30385
-0.347473
-0.390679
-0.428375
-0.456412
-0.475048
-0.486289
-0.500166
-0.516127
-0.540144
-0.572894
-0.613895
-0.00893868
-0.0353802
-0.0530409
-0.0693077
-0.0874873
-0.113027
-0.141669
-0.195764
-0.253999
-0.312907
-0.351238
-0.375866
-0.377685
-0.373869
-0.358568
-0.35336
-0.360967
-0.385292
-0.425053
-0.476717
-0.014579
-0.0394636
-0.0510486
-0.064344
-0.0788885
-0.0973552
-0.101645
-0.113404
-0.165268
-0.222218
-0.273103
-0.274946
-0.270612
-0.234054
-0.163473
-0.182016
-0.208626
-0.245992
-0.294969
-0.353338
-0.0389129
-0.0429271
-0.0471913
-0.0571439
-0.0707043
-0.0763683
-0.0860308
-0.0955407
-0.117681
-0.159658
-0.193087
-0.185018
-0.163986
-0.134315
-0.103565
-0.131112
-0.174891
-0.224428
-0.278187
-0.327405
-0.0263272
-0.0463391
-0.0627054
-0.070527
-0.0839084
-0.0825957
-0.0836034
-0.0885775
-0.106214
-0.138474
-0.142934
-0.130075
-0.115182
-0.101774
-0.0945032
-0.124127
-0.171697
-0.220774
-0.266834
-0.309242
-0.00610251
-0.0386202
-0.0784742
-0.0946267
-0.114364
-0.107087
-0.100239
-0.105329
-0.118597
-0.126155
-0.117156
-0.105959
-0.0983069
-0.092983
-0.0870419
-0.12453
-0.175071
-0.222594
-0.266799
-0.309
-0.00956496
-0.0487275
-0.0859317
-0.113187
-0.137057
-0.129435
-0.125382
-0.124459
-0.122198
-0.11397
-0.105201
-0.100229
-0.0955662
-0.0881279
-0.0845674
-0.148628
-0.200375
-0.245635
-0.286854
-0.328711
-0.0297099
-0.0608925
-0.0842981
-0.123054
-0.150914
-0.174071
-0.163639
-0.144335
-0.134657
-0.126328
-0.119199
-0.114921
-0.113237
-0.113845
-0.187109
-0.249321
-0.300012
-0.344223
-0.388563
-0.442021
-0.0516342
-0.05641
-0.0731934
-0.125581
-0.159923
-0.184468
-0.192501
-0.216767
-0.214025
-0.22861
-0.235253
-0.264937
-0.294356
-0.340264
-0.388989
-0.442603
-0.48933
-0.531888
-0.567842
-0.595719
-0.0244025
-0.0484305
-0.0672779
-0.0931711
-0.130093
-0.17472
-0.208112
-0.253337
-0.272119
-0.30697
-0.328868
-0.366181
-0.397244
-0.43165
-0.457904
-0.476247
-0.487643
-0.497355
-0.509275
-0.524247
-0.0338652
-0.0659438
-0.0713369
-0.0891572
-0.117611
-0.153959
-0.202312
-0.253578
-0.296561
-0.337823
-0.368192
-0.393462
-0.411034
-0.418177
-0.419813
-0.414223
-0.40851
-0.407359
-0.417029
-0.438741
-0.0416728
-0.0578339
-0.0670822
-0.0974426
-0.130467
-0.173664
-0.220712
-0.265447
-0.304154
-0.332374
-0.356519
-0.375631
-0.391398
-0.399843
-0.403044
-0.397803
-0.38706
-0.377283
-0.379069
-0.396548
-0.0706118
-0.0539552
-0.0790198
-0.115219
-0.146459
-0.178544
-0.21467
-0.237243
-0.258227
-0.268369
-0.278737
-0.282414
-0.287516
-0.291954
-0.300371
-0.312067
-0.328041
-0.345944
-0.361406
-0.379088
-0.0442544
-0.0461476
-0.0696245
-0.10205
-0.137311
-0.17007
-0.199762
-0.218678
-0.234337
-0.245228
-0.254405
-0.263246
-0.273951
-0.287817
-0.304611
-0.322701
-0.340216
-0.354849
-0.359554
-0.35894
-0.0273852
-0.0489882
-0.0719176
-0.0966601
-0.119439
-0.14341
-0.166983
-0.189386
-0.205813
-0.216739
-0.223622
-0.227329
-0.232941
-0.242885
-0.25994
-0.281488
-0.305696
-0.330523
-0.353095
-0.372904
-0.0134433
-0.0228033
-0.0310628
-0.0385995
-0.044383
-0.0462859
-0.0441191
-0.0343671
-0.0241841
-0.0181952
-0.0160518
-0.0168492
-0.0201457
-0.0259039
-0.0347617
-0.0477435
-0.0614459
-0.0691421
-0.0659406
-0.0614153
-0.0164653
-0.0210512
-0.0241094
-0.0251318
-0.0326685
-0.0399401
-0.0466032
-0.0489679
-0.054256
-0.0680107
-0.0936563
-0.11887
-0.134258
-0.128174
-0.10346
-0.0707585
-0.0470475
-0.0371812
-0.0359756
-0.041585
-0.00595407
-0.0133081
-0.0211152
-0.0307802
-0.0472342
-0.0514493
-0.0597943
-0.0639716
-0.0762314
-0.0873288
-0.101034
-0.101929
-0.0928547
-0.0739473
-0.0596025
-0.0545979
-0.0580949
-0.0678823
-0.0831977
-0.10655
-0.000805962
-0.00491536
-0.0119437
-0.0208065
-0.0330104
-0.0363635
-0.0443072
-0.0484523
-0.0571895
-0.0669675
-0.0824924
-0.0898358
-0.0940137
-0.0917249
-0.0932312
-0.0971656
-0.104708
-0.107939
-0.110395
-0.11432
-0.0105021
-0.0202306
-0.0293599
-0.0413567
-0.0528253
-0.0627324
-0.0667737
-0.0626854
-0.0675185
-0.0701331
-0.0785693
-0.0799771
-0.0820613
-0.0846701
-0.0932463
-0.101342
-0.110491
-0.112789
-0.112061
-0.106948
-0.0080354
-0.0125272
-0.0194483
-0.0267915
-0.0405111
-0.0570866
-0.0716626
-0.0754528
-0.0728763
-0.0675812
-0.0637062
-0.0631076
-0.0658276
-0.0730103
-0.0836784
-0.0982824
-0.117264
-0.134817
-0.144923
-0.139828
-0.0108155
-0.0219558
-0.0252789
-0.021446
-0.0308622
-0.0413634
-0.0572872
-0.0720105
-0.0708843
-0.0623017
-0.0493726
-0.0469415
-0.0500237
-0.057959
-0.0683066
-0.0824132
-0.100414
-0.120994
-0.141625
-0.145074
-0.0135125
-0.0175032
-0.024865
-0.0249175
-0.0282408
-0.0292166
-0.0342492
-0.0574604
-0.0830618
-0.0707585
-0.0440478
-0.0393687
-0.0452814
-0.0588403
-0.0727137
-0.0750894
-0.0787952
-0.0862521
-0.095143
-0.0909823
-0.00733182
-0.0134014
-0.0176252
-0.0202861
-0.0307535
-0.035643
-0.0392187
-0.0399719
-0.0822835
-0.0878323
-0.0417817
-0.0358735
-0.0456877
-0.0654271
-0.0750111
-0.0596914
-0.0601469
-0.0633057
-0.0649392
-0.0637192
-0.00314261
-0.0173171
-0.0188661
-0.0181268
-0.0287289
-0.0338223
-0.0442837
-0.0467299
-0.0862127
-0.0825679
-0.0421623
-0.0385996
-0.0554157
-0.0710701
-0.056456
-0.0560061
-0.0558131
-0.0558128
-0.0557672
-0.0554628
-0.0111359
-0.0221075
-0.0191588
-0.0247558
-0.0441716
-0.0439248
-0.0520613
-0.0659155
-0.0822816
-0.066907
-0.052153
-0.0541842
-0.0474852
-0.037973
-0.0454397
-0.062233
-0.0606548
-0.0580991
-0.0561657
-0.0547091
-0.0151609
-0.0213238
-0.0227182
-0.0301398
-0.0571131
-0.0549672
-0.0611284
-0.0714753
-0.0748218
-0.077495
-0.0654361
-0.0390425
-0.0266326
-0.0301672
-0.0648557
-0.061042
-0.0546008
-0.0527132
-0.0553163
-0.0571872
-0.0117969
-0.0143128
-0.02093
-0.0411891
-0.0611777
-0.0687365
-0.0744153
-0.066993
-0.0634005
-0.0657785
-0.0580478
-0.0438048
-0.0489017
-0.0734372
-0.0833714
-0.0720889
-0.0661549
-0.0676538
-0.0718567
-0.0736751
-0.00943329
-0.00886881
-0.0127149
-0.0325196
-0.048501
-0.0433441
-0.0470358
-0.046032
-0.0463821
-0.0564381
-0.0642021
-0.0854955
-0.103214
-0.117003
-0.118552
-0.119883
-0.123433
-0.126139
-0.12461
-0.116445
-0.0172453
-0.0192924
-0.0314204
-0.0343337
-0.0387637
-0.0321443
-0.0390657
-0.0467112
-0.0509472
-0.0653262
-0.074312
-0.0840381
-0.088234
-0.0839384
-0.0775072
-0.0713539
-0.0684695
-0.0682374
-0.072023
-0.0796913
-0.0207846
-0.0264658
-0.0207621
-0.0181008
-0.0204387
-0.0289175
-0.0460671
-0.0529195
-0.0583034
-0.0570328
-0.0576694
-0.0516854
-0.0480124
-0.0422122
-0.0391163
-0.0374407
-0.0382034
-0.0413699
-0.0470824
-0.0563784
-0.00971342
-0.016849
-0.0155494
-0.0217569
-0.0294017
-0.0394957
-0.0518314
-0.0487827
-0.047795
-0.0448887
-0.0447332
-0.0438588
-0.0439495
-0.0422004
-0.0397259
-0.0365845
-0.0356585
-0.0371676
-0.0413625
-0.0482056
-0.0315134
-0.0110712
-0.013248
-0.0357999
-0.0378588
-0.035025
-0.0397188
-0.0361895
-0.034796
-0.033454
-0.0341184
-0.035271
-0.037653
-0.0401948
-0.0434419
-0.0456529
-0.0473272
-0.0461294
-0.0456276
-0.0479137
-0.00675893
-0.00893673
-0.0100424
-0.0165993
-0.0239833
-0.0285229
-0.0380474
-0.0438358
-0.0547162
-0.0633154
-0.0745834
-0.0800484
-0.0834263
-0.0807364
-0.0751351
-0.0664141
-0.0561636
-0.0470649
-0.0443451
-0.0478614
-0.0344766
-0.0383725
-0.0449731
-0.0558364
-0.0733981
-0.083879
-0.086622
-0.0773304
-0.0668442
-0.0540788
-0.0433177
-0.0342591
-0.0287592
-0.0270477
-0.0313306
-0.0446832
-0.0687721
-0.0943188
-0.11158
-0.116991
-0.00683954
-0.0137446
-0.0194694
-0.0213628
-0.0224171
-0.0222003
-0.0207285
-0.0172595
-0.014385
-0.0132121
-0.0136949
-0.0154437
-0.0179111
-0.0206743
-0.0234402
-0.0258544
-0.0275155
-0.0280375
-0.0278666
-0.0282469
-0.0010116
-0.0101921
-0.0115963
-0.0160574
-0.0205992
-0.0235219
-0.0248748
-0.0267286
-0.0317023
-0.0401971
-0.0508786
-0.0563445
-0.0541611
-0.043785
-0.0323365
-0.0245222
-0.0215167
-0.0214467
-0.0232338
-0.0269547
-0.00478631
-0.00988426
-0.0112996
-0.0168339
-0.0234371
-0.0265204
-0.0297338
-0.0321403
-0.0369648
-0.039073
-0.0399502
-0.0351587
-0.0290761
-0.0236397
-0.0214544
-0.0220036
-0.0245627
-0.0283966
-0.033382
-0.0399158
-0.00139416
-0.0033969
-0.0063693
-0.0107481
-0.0150623
-0.0185528
-0.0224816
-0.0253657
-0.0290159
-0.0309331
-0.0325324
-0.030999
-0.0296847
-0.0282133
-0.0285104
-0.0294316
-0.0310829
-0.0319059
-0.0330066
-0.0348212
-0.00158404
-0.00574754
-0.00905404
-0.0172067
-0.0198484
-0.0258545
-0.0267909
-0.0270974
-0.0290001
-0.0293333
-0.0302303
-0.0297104
-0.0303801
-0.031105
-0.0328251
-0.0336061
-0.0342928
-0.0335085
-0.032713
-0.0318283
-0.00129672
-0.00568762
-0.00987633
-0.0133209
-0.0214207
-0.0262162
-0.0279925
-0.0276922
-0.0268939
-0.0269112
-0.028268
-0.0303734
-0.0338388
-0.0368044
-0.0398771
-0.0420564
-0.0442248
-0.0443083
-0.0424805
-0.0377094
-0.00468486
-0.00810967
-0.0104072
-0.00899936
-0.0145575
-0.0183258
-0.0236883
-0.0272177
-0.0258231
-0.025853
-0.0282658
-0.0324505
-0.0381633
-0.0433009
-0.0475533
-0.0506883
-0.053108
-0.0535637
-0.0526513
-0.0456657
-0.00348977
-0.004511
-0.00642832
-0.00735981
-0.00947558
-0.0114103
-0.013954
-0.0257867
-0.0286694
-0.0260443
-0.0279436
-0.0354587
-0.0429198
-0.0515797
-0.0497842
-0.0470763
-0.0437579
-0.0402489
-0.0357427
-0.0287167
-0.00518817
-0.0117389
-0.0109406
-0.00882072
-0.0136404
-0.0148135
-0.0154229
-0.021616
-0.0312738
-0.026341
-0.0293959
-0.0379436
-0.047702
-0.0562035
-0.0488853
-0.0287731
-0.0264822
-0.0246358
-0.0222968
-0.0204833
-0.0162577
-0.0152145
-0.0123031
-0.0101998
-0.015169
-0.0157475
-0.0186769
-0.0230861
-0.027292
-0.0216261
-0.0247552
-0.0315853
-0.0380028
-0.0431623
-0.0408375
-0.0274962
-0.0236781
-0.0216096
-0.0203166
-0.0194532
-0.0185368
-0.0134744
-0.0125576
-0.0143797
-0.0213288
-0.0204761
-0.0235407
-0.0262587
-0.0230864
-0.0202061
-0.0218749
-0.0232858
-0.02699
-0.0366853
-0.0499757
-0.0321846
-0.0264583
-0.0230835
-0.0210396
-0.0195366
-0.0145581
-0.012399
-0.0171422
-0.0205084
-0.0286356
-0.0264304
-0.0283115
-0.0299859
-0.028911
-0.0281372
-0.0221346
-0.0204311
-0.0298402
-0.0460688
-0.0510044
-0.0237071
-0.0203269
-0.0192485
-0.0190538
-0.0186054
-0.00237314
-0.00752521
-0.0127265
-0.0236336
-0.0298528
-0.0324861
-0.0346361
-0.0308764
-0.0301735
-0.0283558
-0.026449
-0.0338394
-0.0484535
-0.0558505
-0.0299368
-0.0227625
-0.0201827
-0.0198594
-0.020125
-0.0202314
-0.00218775
-0.00547531
-0.00853913
-0.0165367
-0.0214359
-0.0201393
-0.0221456
-0.0227356
-0.0242724
-0.0323474
-0.0384611
-0.0452677
-0.0463724
-0.0443713
-0.0393979
-0.0369359
-0.0357128
-0.0343705
-0.0323312
-0.029859
-0.0102403
-0.0105671
-0.0138245
-0.0134731
-0.0169361
-0.0182864
-0.0200809
-0.0223035
-0.0253604
-0.0299555
-0.0339082
-0.0341916
-0.0337408
-0.0306835
-0.0285673
-0.0270203
-0.0263733
-0.0263925
-0.0272481
-0.0287704
-0.0193285
-0.013576
-0.0118401
-0.0116332
-0.0139825
-0.0177818
-0.0217111
-0.0215246
-0.0230595
-0.0219748
-0.0229456
-0.0212263
-0.0208955
-0.0199752
-0.0199767
-0.0202592
-0.0210813
-0.0224575
-0.0244829
-0.0273355
-0.00658842
-0.0108418
-0.010563
-0.0123637
-0.0155662
-0.0178007
-0.0194905
-0.0174822
-0.0177545
-0.0170327
-0.0174463
-0.017351
-0.0177116
-0.0178964
-0.0183649
-0.0190396
-0.0201297
-0.0215462
-0.023448
-0.0258609
-0.0260104
-0.00866524
-0.00896471
-0.0134423
-0.0142051
-0.014118
-0.0148655
-0.0139196
-0.0141911
-0.014574
-0.0154796
-0.0163808
-0.0175366
-0.0186592
-0.019952
-0.0211761
-0.0225139
-0.0239035
-0.0254532
-0.0266553
-0.00724225
-0.00926445
-0.00853701
-0.0127938
-0.0147654
-0.0140951
-0.0160617
-0.0177902
-0.021718
-0.02438
-0.0278433
-0.0283871
-0.0285236
-0.0269838
-0.0258353
-0.0250627
-0.0254523
-0.027056
-0.0295637
-0.0313184
-0.00829902
-0.0392972
-0.0439425
-0.0516091
-0.057912
-0.051936
-0.0425097
-0.0304503
-0.0227414
-0.0169191
-0.0136934
-0.0117581
-0.0114328
-0.0126451
-0.016213
-0.0226719
-0.0322078
-0.0418427
-0.0475902
-0.048584
-0.0024674
-0.0114555
-0.0140547
-0.0121965
-0.0115995
-0.0113249
-0.0108968
-0.0099791
-0.0101413
-0.0119294
-0.0147879
-0.0179975
-0.0207081
-0.0224878
-0.0233016
-0.0232605
-0.0227062
-0.0219119
-0.0212681
-0.0209352
-0.00104068
-0.00506276
-0.00867194
-0.0116682
-0.013502
-0.0150962
-0.0159038
-0.0178027
-0.0206358
-0.0235287
-0.026011
-0.0250393
-0.022327
-0.0188309
-0.0167539
-0.015989
-0.0160534
-0.0163905
-0.0169317
-0.0176264
-0.00111548
-0.00685577
-0.00944456
-0.0137522
-0.0160157
-0.0177995
-0.0186723
-0.0190464
-0.0195697
-0.0184213
-0.0171238
-0.0149366
-0.0134645
-0.0127474
-0.0128326
-0.0133952
-0.0142645
-0.0153375
-0.0166788
-0.0184
-0.00294432
-0.00495734
-0.00637934
-0.0095438
-0.0121579
-0.0143195
-0.0156182
-0.0160894
-0.0161182
-0.0153097
-0.0147019
-0.013806
-0.0135865
-0.0135969
-0.0141434
-0.0148425
-0.015781
-0.0166573
-0.0177037
-0.0189335
-0.00278865
-0.00611824
-0.00769371
-0.0112042
-0.0125471
-0.0153648
-0.0154502
-0.0157413
-0.0156928
-0.0149751
-0.0147671
-0.0143734
-0.0146166
-0.0148241
-0.0153488
-0.0157608
-0.0163167
-0.0167722
-0.0173545
-0.0180445
-0.00309554
-0.00350116
-0.00644052
-0.00850191
-0.012382
-0.0141429
-0.0148255
-0.0152671
-0.0156276
-0.0154836
-0.0159464
-0.0160782
-0.0167224
-0.016856
-0.0170289
-0.0170067
-0.0171042
-0.0168735
-0.0166004
-0.0163034
-0.00118476
-0.00248026
-0.00474163
-0.00591605
-0.00888095
-0.0110077
-0.0136163
-0.0153322
-0.0164277
-0.0169218
-0.0183326
-0.0192322
-0.020682
-0.021273
-0.0210835
-0.0202574
-0.0194254
-0.0181616
-0.0172468
-0.01582
-0.00320384
-0.00259849
-0.00319373
-0.00434917
-0.00622078
-0.00870224
-0.0103018
-0.0154448
-0.0167355
-0.0190927
-0.0205301
-0.0245713
-0.026639
-0.0291207
-0.0198029
-0.016932
-0.0147517
-0.0133043
-0.0123002
-0.011678
-0.00242521
-0.00566373
-0.00574269
-0.00634155
-0.00936701
-0.00990982
-0.0104258
-0.0147255
-0.0179903
-0.0217559
-0.0254017
-0.0298636
-0.032242
-0.0292603
-0.0172304
-0.0103669
-0.00968389
-0.00938506
-0.00956409
-0.0103181
-0.00965248
-0.00948777
-0.00721593
-0.00788449
-0.0108136
-0.0113099
-0.0118947
-0.0137121
-0.0169238
-0.0215763
-0.0252707
-0.0255018
-0.0235775
-0.0187892
-0.0114663
-0.00927279
-0.00906344
-0.00923145
-0.00981687
-0.0107828
-0.0170168
-0.0114592
-0.0101678
-0.0108383
-0.0125396
-0.0130288
-0.0137971
-0.0140945
-0.0154893
-0.0177342
-0.0189374
-0.0196802
-0.0221695
-0.0238012
-0.0172345
-0.00994362
-0.00943056
-0.00962101
-0.010373
-0.0114149
-0.00667944
-0.0110641
-0.0142812
-0.0149889
-0.0153367
-0.0156017
-0.0164064
-0.0160145
-0.015179
-0.0148648
-0.0158906
-0.0193664
-0.0252298
-0.0271779
-0.0143142
-0.00870992
-0.00909566
-0.00987162
-0.0108415
-0.0119181
-0.000537421
-0.00270935
-0.00821308
-0.0149628
-0.0157473
-0.0164746
-0.0165256
-0.0156408
-0.0154368
-0.0167639
-0.0200051
-0.0225799
-0.0220626
-0.0171494
-0.00925495
-0.00900047
-0.00949313
-0.0102837
-0.0112045
-0.0122757
-0.00606437
-0.00521294
-0.00694144
-0.0114958
-0.012628
-0.0125813
-0.0128297
-0.0136812
-0.0145182
-0.0166892
-0.0163984
-0.0164055
-0.0143532
-0.0132907
-0.0121431
-0.0120274
-0.0122046
-0.0124754
-0.0128824
-0.0135631
-0.00537038
-0.00653532
-0.00712482
-0.00910798
-0.0112874
-0.0119019
-0.0122466
-0.0127872
-0.0137995
-0.0139329
-0.0139177
-0.0130257
-0.0122874
-0.0116282
-0.0114848
-0.011739
-0.012301
-0.0130816
-0.0140831
-0.0152072
-0.0143984
-0.00982048
-0.00694478
-0.00750443
-0.00969536
-0.0108152
-0.0120309
-0.0115992
-0.0121475
-0.0115782
-0.0116014
-0.0112477
-0.0112725
-0.011513
-0.0120164
-0.0127937
-0.0137706
-0.0148692
-0.016078
-0.0173963
-0.0105403
-0.00780247
-0.0070411
-0.00888073
-0.00993761
-0.0103633
-0.0107186
-0.010383
-0.0107529
-0.0108332
-0.0110973
-0.0113321
-0.011673
-0.0121389
-0.0127932
-0.013675
-0.014757
-0.0159373
-0.0171994
-0.0186032
-0.0342094
-0.0107203
-0.00687964
-0.00820104
-0.00874682
-0.00889839
-0.00934199
-0.00953465
-0.0101022
-0.0106702
-0.011382
-0.012076
-0.012823
-0.0135346
-0.0142841
-0.0150638
-0.0159293
-0.0167113
-0.017456
-0.0181673
-0.00525642
-0.00988549
-0.0088673
-0.0106837
-0.010295
-0.00916113
-0.00961271
-0.0103482
-0.0115991
-0.0123938
-0.0134832
-0.0139889
-0.0148607
-0.0155346
-0.0164936
-0.0175452
-0.0187484
-0.0196519
-0.0200871
-0.0196284
-0.00401403
-0.0229046
-0.0316534
-0.0339707
-0.0322311
-0.0224119
-0.0156069
-0.0103516
-0.00817524
-0.00703373
-0.00697293
-0.00749463
-0.0087266
-0.0106615
-0.0134659
-0.0169872
-0.0208388
-0.0238203
-0.0251452
-0.0246284
-0.00403494
-0.0102649
-0.00879677
-0.00723081
-0.00723995
-0.00685957
-0.00707747
-0.00880474
-0.012192
-0.0154403
-0.0171476
-0.0171723
-0.0164296
-0.0151339
-0.0139762
-0.0131796
-0.0128618
-0.0128493
-0.0130706
-0.0133617
-0.000622952
-0.00388167
-0.00778123
-0.0101626
-0.0111629
-0.0124969
-0.0128856
-0.0134188
-0.0136283
-0.0130117
-0.0127891
-0.0121412
-0.0119904
-0.0121732
-0.0129047
-0.0140278
-0.0154263
-0.0169992
-0.0185898
-0.0200274
-0.00143079
-0.00596199
-0.0090517
-0.0123773
-0.0129516
-0.0129239
-0.0120304
-0.0111509
-0.0106368
-0.0102532
-0.0103703
-0.0107245
-0.0114461
-0.0123594
-0.0133825
-0.0143902
-0.0153213
-0.0161285
-0.0168152
-0.0173455
-0.00393718
-0.00483889
-0.00600163
-0.00942169
-0.0110706
-0.0111706
-0.0104858
-0.0100059
-0.00988673
-0.0100005
-0.0104809
-0.0110667
-0.011825
-0.0126022
-0.0133949
-0.0141543
-0.0148767
-0.0155609
-0.0162323
-0.0168459
-0.00617479
-0.00398029
-0.00685707
-0.00973031
-0.0101245
-0.010572
-0.00987493
-0.00982456
-0.00981861
-0.0100151
-0.0105049
-0.0110728
-0.011744
-0.0124332
-0.0131442
-0.0138663
-0.0146138
-0.0153836
-0.0161874
-0.0169131
-0.00223729
-0.00276558
-0.00589809
-0.00787066
-0.00915425
-0.00975912
-0.00974671
-0.00975204
-0.00982277
-0.0100285
-0.0104759
-0.0110212
-0.0116391
-0.012286
-0.0129725
-0.0137293
-0.0145452
-0.0154212
-0.0163241
-0.0171222
-0.000530765
-0.00167622
-0.00446517
-0.00666649
-0.00817282
-0.00906532
-0.00967604
-0.0098918
-0.00986789
-0.010155
-0.0105208
-0.0111026
-0.011661
-0.0122715
-0.0127952
-0.0134346
-0.0141748
-0.0150008
-0.0158548
-0.0166086
-0.0013898
-0.00181358
-0.00351397
-0.00612331
-0.00795822
-0.00905449
-0.00967429
-0.0109033
-0.0100231
-0.010487
-0.0103416
-0.0107521
-0.0110467
-0.0114291
-0.0119742
-0.0125727
-0.0132738
-0.0140488
-0.0147811
-0.0154195
-0.00144784
-0.00419486
-0.00563666
-0.0078834
-0.00937
-0.0095732
-0.00978546
-0.0121072
-0.0114615
-0.0109575
-0.0101661
-0.00939431
-0.00900768
-0.0089821
-0.00978097
-0.0117065
-0.0123827
-0.0130977
-0.0137512
-0.0142858
-0.0101183
-0.00701978
-0.00739227
-0.00867011
-0.00968278
-0.0103352
-0.010769
-0.0126579
-0.0131772
-0.0116416
-0.00957627
-0.00803954
-0.00728947
-0.00733215
-0.00886747
-0.0114563
-0.012198
-0.0129083
-0.013557
-0.0140867
-0.00632494
-0.00653986
-0.00954473
-0.00956957
-0.00961455
-0.0106847
-0.0116522
-0.013061
-0.0128227
-0.0105216
-0.00865277
-0.0078653
-0.00760977
-0.00737407
-0.00873244
-0.01164
-0.0125461
-0.0134323
-0.0142453
-0.0149026
-0.00158543
-0.0104713
-0.0143617
-0.0120283
-0.00983616
-0.0102135
-0.0100407
-0.0106744
-0.0102486
-0.00880886
-0.00714965
-0.00676253
-0.00669411
-0.00677459
-0.00862894
-0.0125863
-0.0137431
-0.014864
-0.0159029
-0.0167208
-0.000766164
-0.00371036
-0.00767335
-0.0103363
-0.00938736
-0.00900377
-0.00860783
-0.00888242
-0.00833299
-0.00776172
-0.00729224
-0.00731496
-0.00761428
-0.00835167
-0.0122018
-0.0136066
-0.0150683
-0.0165191
-0.0178882
-0.0189612
-0.00212743
-0.00355982
-0.00628223
-0.00843497
-0.00822511
-0.00792643
-0.00753051
-0.00741403
-0.00739038
-0.00807386
-0.00830035
-0.00912595
-0.00992598
-0.0110633
-0.0123829
-0.0138776
-0.0155053
-0.0172111
-0.0188971
-0.0202628
-0.00567753
-0.00572824
-0.00654017
-0.00757219
-0.00780446
-0.00756706
-0.00725948
-0.00724546
-0.00733701
-0.00774725
-0.00824986
-0.00902113
-0.00999483
-0.0112058
-0.0126195
-0.014205
-0.0159086
-0.0176684
-0.0193872
-0.0207929
-0.00286735
-0.00413851
-0.00591628
-0.00741515
-0.00758165
-0.00743045
-0.00737477
-0.00741804
-0.00756944
-0.00798772
-0.00856124
-0.0093978
-0.0103905
-0.011584
-0.0129385
-0.0144531
-0.0161133
-0.0178546
-0.0195954
-0.0210566
-0.006635
-0.00759004
-0.00730699
-0.00774254
-0.00759992
-0.00763781
-0.00754698
-0.00780375
-0.00808452
-0.00862468
-0.00926131
-0.0100901
-0.0110386
-0.0121253
-0.013354
-0.0147285
-0.0162704
-0.0179757
-0.0197687
-0.0214418
-0.0157424
-0.00731234
-0.00614264
-0.00699712
-0.00735685
-0.00757001
-0.00777014
-0.00804918
-0.00843861
-0.00888185
-0.00945402
-0.0101387
-0.0109784
-0.0119421
-0.0130431
-0.0142684
-0.0156408
-0.0171696
-0.0188261
-0.0203768
-0.00112702
-0.00257448
-0.00403179
-0.00589701
-0.00653705
-0.00685174
-0.0073474
-0.00795967
-0.00867618
-0.00932668
-0.00997549
-0.0104798
-0.0110354
-0.0116754
-0.0125281
-0.013642
-0.0150825
-0.0168672
-0.0188663
-0.0208602
-0.000749132
-0.00342688
-0.00492435
-0.0104703
-0.0100315
-0.00729942
-0.00633997
-0.00594771
-0.00623376
-0.00694887
-0.00799858
-0.00924774
-0.0104589
-0.0114774
-0.0123039
-0.0129473
-0.0138181
-0.0150945
-0.016991
-0.0190764
-0.0232945
-0.0198554
-0.0209535
-0.021458
-0.025977
-0.0185547
-0.0210114
-0.029872
-0.0217361
-0.0240616
-0.0272509
-0.0298265
-0.0216977
-0.0230797
-0.0213818
-0.025744
-0.0225478
-0.0176526
-0.0194658
-0.0159938
-0.016318
-0.0229423
-0.0212672
-0.0195317
-0.0199807
-0.0214218
-0.0167457
-0.0192768
-0.0927098
-0.0794236
-0.0847248
-0.0839976
-0.0920982
-0.0763048
-0.0831448
-0.108297
-0.0871267
-0.098662
-0.0954749
-0.113559
-0.0868331
-0.10515
-0.146778
-0.105378
-0.133285
-0.125449
-0.15291
-0.11399
-0.139435
-0.187181
-0.141753
-0.151862
-0.16004
-0.162152
-0.142627
-0.126188
-0.189791
-0.150899
-0.141941
-0.156064
-0.122466
-0.115209
-0.0883414
-0.169408
-0.137668
-0.124573
-0.112216
-0.0938193
-0.0833224
-0.0808934
-0.141977
-0.120453
-0.108824
-0.0913621
-0.0891995
-0.0832331
-0.0934848
-0.110613
-0.105165
-0.095329
-0.0909582
-0.0949443
-0.0950899
-0.0889739
-0.086508
-0.0893636
-0.0968625
-0.0812432
-0.0847832
-0.0862827
-0.0941792
-0.0997678
-0.0999145
-0.110762
-0.0880729
-0.105718
-0.0983941
-0.114298
-0.131644
-0.11528
-0.127608
-0.114122
-0.136591
-0.119803
-0.128538
-0.144541
-0.129304
-0.12579
-0.138823
-0.123613
-0.127537
-0.117078
-0.133854
-0.123008
-0.11393
-0.11481
-0.0941568
-0.113223
-0.105348
-0.1187
-0.110968
-0.103199
-0.0906466
-0.0903619
-0.104052
-0.101435
-0.104992
-0.101027
-0.0956677
-0.0925356
-0.0977919
-0.0998936
-0.0885407
-0.0934149
-0.094165
-0.0900866
-0.0969116
-0.0845817
-0.0821098
-0.0633094
-0.102572
-0.117335
-0.119785
-0.0972585
-0.0998847
-0.113543
-0.117979
-0.115116
-0.120831
-0.122843
-0.103728
-0.117634
-0.119917
-0.123397
-0.126027
-0.122698
-0.118883
-0.121645
-0.125438
-0.12318
-0.118506
-0.120141
-0.116629
-0.109116
-0.123532
-0.113688
-0.116148
-0.109053
-0.10849
-0.106834
-0.101705
-0.110556
-0.104373
-0.106578
-0.0935899
-0.0998727
-0.100526
-0.0973411
-0.103008
-0.0961647
-0.0865499
-0.0635616
-0.0942728
-0.0960339
-0.0909326
-0.0917714
-0.0738326
-0.0571479
-0.0452854
-0.0886175
-0.0889525
-0.0828568
-0.0674048
-0.0536754
-0.0439585
-0.0486302
-0.124351
-0.136295
-0.132603
-0.121723
-0.122885
-0.132144
-0.13047
-0.123358
-0.130899
-0.124526
-0.123754
-0.123896
-0.129392
-0.124161
-0.116389
-0.122191
-0.115002
-0.122854
-0.117379
-0.122067
-0.115854
-0.107071
-0.112571
-0.105949
-0.115173
-0.108419
-0.113832
-0.107642
-0.101192
-0.104207
-0.100749
-0.10565
-0.0898275
-0.104957
-0.0903748
-0.0970007
-0.099941
-0.0970918
-0.0818964
-0.0591602
-0.0832856
-0.0678102
-0.0901599
-0.0958473
-0.0912059
-0.0536985
-0.0460061
-0.06622
-0.0711056
-0.0819187
-0.0894424
-0.0848195
-0.0463682
-0.0562479
-0.0753756
-0.0900877
-0.0361904
-0.0430869
-0.043386
-0.0279485
-0.0280801
-0.0295956
-0.0298735
-0.0710331
-0.0446136
-0.0739117
-0.0322113
-0.0453066
-0.0315059
-0.0388957
-0.0946323
-0.0861751
-0.0953381
-0.0469939
-0.0394435
-0.0393559
-0.0308349
-0.050803
-0.0861089
-0.0480254
-0.0352818
-0.0307271
-0.0278663
-0.0258442
-0.0350006
-0.0409513
-0.0350125
-0.0311452
-0.0350798
-0.0268155
-0.0317256
-0.0422651
-0.0361645
-0.0456056
-0.0372884
-0.0446065
-0.0337009
-0.0399245
-0.0596967
-0.0504116
-0.0662005
-0.0473202
-0.0554406
-0.042012
-0.0477964
-0.0793842
-0.0699892
-0.0701227
-0.0580038
-0.0629259
-0.0493003
-0.0513267
-0.0452344
-0.0478463
-0.0573229
-0.0308817
-0.0310672
-0.034797
-0.0355996
-0.074688
-0.0607278
-0.0792363
-0.0322925
-0.0372809
-0.0354987
-0.0334423
-0.0920878
-0.0843634
-0.0780385
-0.0371285
-0.0289705
-0.0317114
-0.0256595
-0.0484821
-0.0705147
-0.0494921
-0.0265157
-0.0251866
-0.0245638
-0.0245611
-0.0370003
-0.0470262
-0.0501639
-0.0261588
-0.0308212
-0.0253059
-0.0276256
-0.0500907
-0.0528981
-0.0593303
-0.0326215
-0.0380143
-0.0282015
-0.0298129
-0.0694733
-0.0594006
-0.0518978
-0.0397404
-0.0444472
-0.0304864
-0.0341066
-0.0651577
-0.0486041
-0.043352
-0.0457276
-0.0484363
-0.036052
-0.0440665
-0.0621431
-0.0624476
-0.0724179
-0.0389613
-0.0372098
-0.0448824
-0.0417237
-0.0796482
-0.0745274
-0.0773279
-0.0364814
-0.0325829
-0.0403213
-0.0362266
-0.0734265
-0.0773789
-0.0747882
-0.0306967
-0.0257015
-0.035224
-0.0332339
-0.0534278
-0.0730967
-0.0652269
-0.0249036
-0.0251606
-0.0325254
-0.0289764
-0.0537953
-0.0610585
-0.044921
-0.0256515
-0.0264702
-0.0273617
-0.0230423
-0.0501175
-0.0398422
-0.0292477
-0.0264856
-0.0270828
-0.0224142
-0.0244365
-0.0396775
-0.0274635
-0.0269918
-0.0277715
-0.032476
-0.0264308
-0.0357401
-0.037918
-0.0283999
-0.0393128
-0.0350148
-0.0448147
-0.0397152
-0.0523147
-0.0698175
-0.0646925
-0.0734263
-0.0478944
-0.0437723
-0.0550733
-0.0496966
-0.074062
-0.0724946
-0.0661933
-0.0423736
-0.0388405
-0.0479138
-0.0446916
-0.077429
-0.0658016
-0.0720995
-0.0381161
-0.0367441
-0.0443463
-0.0441152
-0.0707842
-0.0753926
-0.0786272
-0.0359997
-0.0311309
-0.0437273
-0.0381096
-0.0449873
-0.0748432
-0.0522225
-0.0288495
-0.0232777
-0.0348927
-0.0273264
-0.0280471
-0.0447364
-0.0329192
-0.0226139
-0.0253881
-0.0268777
-0.0329463
-0.0278967
-0.0326503
-0.0420884
-0.0277734
-0.0383237
-0.0370091
-0.0521773
-0.0455813
-0.0493689
-0.0773861
-0.0427067
-0.055895
-0.0578303
-0.0690032
-0.0175933
-0.0181217
-0.0206371
-0.0119369
-0.0135666
-0.0129111
-0.0136416
-0.030793
-0.0226694
-0.0290752
-0.0157691
-0.0195018
-0.014304
-0.0166806
-0.0275369
-0.028894
-0.0237062
-0.0200744
-0.0223349
-0.0174442
-0.0207288
-0.0276643
-0.0226704
-0.0244564
-0.0238843
-0.0280316
-0.0222544
-0.0270174
-0.0354855
-0.0260489
-0.0316008
-0.029491
-0.033986
-0.0284203
-0.031479
-0.0452315
-0.0335112
-0.0390993
-0.0357052
-0.0401457
-0.0321327
-0.0331237
-0.0544265
-0.040884
-0.0454679
-0.0411229
-0.0412738
-0.0330273
-0.0303931
-0.0579868
-0.0464242
-0.04635
-0.0403744
-0.0358696
-0.0286848
-0.0224111
-0.0213611
-0.0216938
-0.0249072
-0.0137261
-0.013828
-0.0156031
-0.0146779
-0.0277504
-0.025424
-0.0246911
-0.0142252
-0.0159618
-0.0145306
-0.0148758
-0.0224816
-0.0235527
-0.020342
-0.0166742
-0.0199653
-0.0152977
-0.0175483
-0.0200687
-0.0215329
-0.0208287
-0.0200603
-0.0207802
-0.0210247
-0.0191882
-0.0256164
-0.0264018
-0.0236576
-0.0256684
-0.0251283
-0.0273563
-0.0241601
-0.0364662
-0.0248471
-0.0275156
-0.0302932
-0.0308323
-0.0236038
-0.0257699
-0.0421454
-0.0287435
-0.0341119
-0.0306712
-0.0283684
-0.0266236
-0.0284889
-0.0445491
-0.0364606
-0.0446307
-0.0269623
-0.0218349
-0.02878
-0.0287308
-0.0261946
-0.027523
-0.0297538
-0.0168366
-0.0151176
-0.0194922
-0.0181143
-0.0242303
-0.0294722
-0.0277334
-0.0148362
-0.0148566
-0.0176738
-0.0167309
-0.0205915
-0.02731
-0.0263298
-0.0151616
-0.0167984
-0.0165413
-0.0160972
-0.0187094
-0.0204931
-0.0216258
-0.0178907
-0.0216356
-0.0185189
-0.0185234
-0.0191628
-0.0222773
-0.0215404
-0.0201153
-0.0214048
-0.020439
-0.0190412
-0.025564
-0.020067
-0.0252976
-0.0221355
-0.025312
-0.020632
-0.0264327
-0.0337258
-0.0281481
-0.0391144
-0.0266348
-0.0303211
-0.0287969
-0.0350984
-0.0464503
-0.0431896
-0.053542
-0.0312415
-0.0322498
-0.0362552
-0.0346976
-0.0301562
-0.0330451
-0.034463
-0.0231776
-0.0200795
-0.0274989
-0.0238656
-0.0289919
-0.0335365
-0.0323018
-0.0193203
-0.0177709
-0.0229187
-0.0210365
-0.0287212
-0.0327077
-0.034433
-0.0174282
-0.0165568
-0.0204977
-0.0187591
-0.0238919
-0.0342842
-0.0291728
-0.0163151
-0.0164151
-0.0183081
-0.0188619
-0.0197713
-0.0266234
-0.023188
-0.0168964
-0.0199655
-0.0199221
-0.025188
-0.0266095
-0.0244487
-0.0342627
-0.0216096
-0.0283081
-0.0277453
-0.0353108
-0.0418149
-0.0388889
-0.0530178
-0.0308418
-0.036599
-0.0369699
-0.0369347
-0.0558188
-0.0570587
-0.0601952
-0.0371647
-0.0333675
-0.0351696
-0.0256059
-0.013037
-0.0113349
-0.0130016