/*--------------------------------*- C++ -*----------------------------------*\
  =========                 |
  \\      /  F ield         | OpenFOAM: The Open Source CFD Toolbox
   \\    /   O peration     | Website:  https://openfoam.org
    \\  /    A nd           | Version:  10
     \\/     M anipulation  |
\*---------------------------------------------------------------------------*/
FoamFile
{
    format      ascii;
    class       volScalarField;
    location    "6";
    object      turbidity;
}
// * * * * * * * * * * * * * * * * * * * * * * * * * * * * * * * * * * * * * //

dimensions      [0 0 0 0 0 0 0];

internalField   nonuniform List<scalar> 
12920
(
-0.0397041
-0.0319746
-0.0468457
-0.0696417
-0.0882873
-0.107052
-0.126729
-0.144607
-0.153893
-0.158855
-0.169037
-0.187684
-0.219777
-0.261966
-0.313677
-0.365618
-0.410184
-0.444004
-0.464475
-0.475667
-0.0411173
-0.0598327
-0.0868367
-0.104945
-0.12099
-0.136496
-0.160473
-0.186129
-0.214081
-0.245302
-0.281139
-0.324586
-0.373797
-0.420261
-0.45263
-0.462993
-0.451691
-0.429776
-0.40692
-0.400799
-0.0250436
-0.0592607
-0.0876777
-0.119039
-0.151395
-0.181273
-0.20929
-0.239573
-0.273064
-0.31062
-0.353585
-0.401701
-0.45272
-0.498878
-0.536235
-0.563393
-0.588958
-0.614882
-0.642283
-0.671663
-0.0122535
-0.0309152
-0.0592336
-0.0993578
-0.140867
-0.179356
-0.214764
-0.244911
-0.277765
-0.31468
-0.362764
-0.421591
-0.488271
-0.552679
-0.610452
-0.658906
-0.700386
-0.736951
-0.76903
-0.797154
-0.0207886
-0.0466893
-0.0830912
-0.13311
-0.169335
-0.207877
-0.239304
-0.265163
-0.294801
-0.329378
-0.374972
-0.427202
-0.480424
-0.526887
-0.564858
-0.596288
-0.622627
-0.649483
-0.67807
-0.708234
-0.0242977
-0.0265392
-0.0327289
-0.0486483
-0.0820072
-0.135938
-0.1933
-0.251409
-0.30401
-0.347705
-0.390952
-0.428693
-0.456779
-0.475446
-0.486669
-0.500509
-0.516433
-0.5404
-0.573077
-0.614061
-0.00811248
-0.0340523
-0.0526823
-0.0692944
-0.087498
-0.11306
-0.141681
-0.195702
-0.253989
-0.313121
-0.351576
-0.376337
-0.378134
-0.374347
-0.358975
-0.353694
-0.361227
-0.385475
-0.425148
-0.476767
-0.0141904
-0.0398208
-0.0513541
-0.0645749
-0.0790847
-0.0975264
-0.101652
-0.1132
-0.164948
-0.222169
-0.273382
-0.275411
-0.271147
-0.234662
-0.163815
-0.182285
-0.208829
-0.246134
-0.295052
-0.353399
-0.0383802
-0.0432737
-0.0473944
-0.0573104
-0.0707854
-0.076309
-0.0859361
-0.0954528
-0.117442
-0.159437
-0.193276
-0.185328
-0.164337
-0.134597
-0.103676
-0.131333
-0.175065
-0.224558
-0.278335
-0.327569
-0.0280356
-0.0464044
-0.0629584
-0.0707485
-0.0841533
-0.082611
-0.083491
-0.0883947
-0.105839
-0.138288
-0.143055
-0.130231
-0.115305
-0.101866
-0.0945732
-0.124309
-0.171842
-0.220939
-0.267027
-0.309443
-0.00637348
-0.038097
-0.0786819
-0.0947461
-0.114602
-0.107092
-0.100034
-0.105036
-0.118336
-0.126182
-0.117308
-0.106061
-0.0983407
-0.0930005
-0.0871096
-0.124656
-0.175189
-0.22276
-0.266989
-0.309202
-0.00949695
-0.0487879
-0.0862788
-0.113509
-0.137391
-0.129363
-0.125193
-0.124323
-0.122213
-0.114067
-0.105257
-0.100239
-0.0955913
-0.0881746
-0.0846014
-0.148759
-0.200555
-0.24585
-0.287094
-0.328951
-0.0316625
-0.0609056
-0.0839762
-0.123129
-0.151123
-0.174368
-0.163737
-0.144402
-0.134721
-0.126407
-0.119259
-0.114945
-0.113245
-0.113833
-0.187163
-0.249452
-0.300189
-0.34443
-0.388759
-0.442237
-0.0500322
-0.0564549
-0.0731518
-0.125856
-0.160219
-0.184791
-0.192804
-0.217105
-0.214241
-0.228806
-0.235308
-0.264957
-0.294343
-0.340266
-0.388995
-0.442685
-0.489437
-0.532064
-0.568064
-0.596008
-0.0247639
-0.0484531
-0.0671874
-0.0930848
-0.129927
-0.174807
-0.208333
-0.253559
-0.272315
-0.307181
-0.328994
-0.366339
-0.3974
-0.431884
-0.458196
-0.47661
-0.488025
-0.497724
-0.509599
-0.52453
-0.0319916
-0.0660687
-0.0715048
-0.0893561
-0.11779
-0.154071
-0.202465
-0.253699
-0.296725
-0.338037
-0.368434
-0.393774
-0.41141
-0.4186
-0.420287
-0.414677
-0.408939
-0.407707
-0.417274
-0.438932
-0.0417321
-0.0576882
-0.0668614
-0.0973178
-0.130434
-0.173669
-0.220775
-0.265564
-0.304335
-0.332597
-0.356763
-0.375923
-0.39174
-0.400257
-0.40353
-0.398304
-0.387552
-0.377713
-0.379353
-0.396724
-0.0730855
-0.0539525
-0.078924
-0.115458
-0.146667
-0.178799
-0.214949
-0.237556
-0.258579
-0.268727
-0.279142
-0.282812
-0.287938
-0.292332
-0.300709
-0.312361
-0.328304
-0.34619
-0.361626
-0.37923
-0.045318
-0.0466462
-0.0695916
-0.102158
-0.13732
-0.170159
-0.20004
-0.219016
-0.234743
-0.245649
-0.254827
-0.263637
-0.274289
-0.288091
-0.304843
-0.322923
-0.340458
-0.355135
-0.359911
-0.359228
-0.0288377
-0.0491778
-0.0719584
-0.0968079
-0.119616
-0.143585
-0.167098
-0.189542
-0.206062
-0.217075
-0.22401
-0.227742
-0.233298
-0.243136
-0.260088
-0.281568
-0.305733
-0.330578
-0.353192
-0.373038
-0.0132005
-0.0226793
-0.0308706
-0.0385637
-0.044489
-0.0464606
-0.0443946
-0.0346627
-0.0243605
-0.0182866
-0.0160825
-0.0168358
-0.0200977
-0.0258246
-0.034647
-0.0475875
-0.0613698
-0.0691726
-0.066014
-0.0614919
-0.016001
-0.0210813
-0.0244274
-0.0252344
-0.0326822
-0.0398805
-0.0465425
-0.048912
-0.0541723
-0.0678572
-0.0934798
-0.118757
-0.134328
-0.128431
-0.103828
-0.0710814
-0.0471768
-0.0372286
-0.0359713
-0.0415399
-0.00587844
-0.0131616
-0.0209644
-0.0307114
-0.0472653
-0.0514223
-0.0598222
-0.0639423
-0.0762333
-0.0873165
-0.101107
-0.102066
-0.0930477
-0.0740985
-0.0596845
-0.0546143
-0.058077
-0.0678391
-0.0831344
-0.106453
-0.00075522
-0.00480619
-0.0117838
-0.0208071
-0.0331526
-0.0363966
-0.044394
-0.0484532
-0.057198
-0.0669607
-0.082516
-0.0898667
-0.0940729
-0.0917572
-0.0932542
-0.097169
-0.104726
-0.107949
-0.110422
-0.114318
-0.0104331
-0.0201297
-0.0294768
-0.0414189
-0.0529289
-0.0628596
-0.0669452
-0.0627529
-0.0675979
-0.0701384
-0.0786223
-0.0799932
-0.0820873
-0.0846656
-0.0932406
-0.101319
-0.110516
-0.112829
-0.112139
-0.106991
-0.00820238
-0.0126419
-0.0194929
-0.0267599
-0.0406729
-0.0571923
-0.0718107
-0.0756883
-0.0730799
-0.0676943
-0.0637637
-0.0631275
-0.065825
-0.072993
-0.0836373
-0.0982252
-0.117202
-0.134819
-0.145004
-0.139887
-0.011036
-0.0221315
-0.0255972
-0.0216242
-0.0309882
-0.0413664
-0.0573838
-0.0722354
-0.0711657
-0.0625404
-0.0494646
-0.0469737
-0.050017
-0.0579388
-0.0682684
-0.0823407
-0.10032
-0.120916
-0.141618
-0.145097
-0.0139507
-0.0174089
-0.0248116
-0.0248923
-0.0284029
-0.0293412
-0.034414
-0.0575137
-0.0832877
-0.0711213
-0.0441358
-0.0393932
-0.0452648
-0.0587745
-0.072698
-0.0750711
-0.078759
-0.086208
-0.0951569
-0.0910136
-0.00697978
-0.0133585
-0.0174901
-0.0202011
-0.030786
-0.0357177
-0.039474
-0.0400044
-0.0822743
-0.0882317
-0.0419237
-0.0358731
-0.0456249
-0.0652998
-0.0749941
-0.0596965
-0.0601352
-0.0632843
-0.0649349
-0.0637131
-0.00333605
-0.0173874
-0.0187842
-0.0181074
-0.0287317
-0.0337769
-0.044486
-0.0467025
-0.0860581
-0.0830121
-0.0422969
-0.0385373
-0.0552554
-0.0710366
-0.0564458
-0.0559977
-0.0558109
-0.0558123
-0.0557654
-0.0554557
-0.0120434
-0.0222326
-0.0191182
-0.0247032
-0.0441466
-0.0438368
-0.0519713
-0.0658093
-0.0824069
-0.067232
-0.0522681
-0.0542196
-0.0475669
-0.0380168
-0.0453427
-0.0622131
-0.0606604
-0.0581076
-0.056173
-0.05471
-0.0147063
-0.0215748
-0.0227238
-0.0302141
-0.0573087
-0.054932
-0.0611639
-0.0716137
-0.0749329
-0.0775206
-0.0656101
-0.0392128
-0.0266737
-0.0301046
-0.0647227
-0.0610965
-0.0546304
-0.0527241
-0.0553228
-0.0572079
-0.0116299
-0.0141557
-0.0206948
-0.0410762
-0.061202
-0.0687775
-0.0746654
-0.0670941
-0.0634375
-0.0657828
-0.0581629
-0.0438604
-0.0488114
-0.0732882
-0.0834445
-0.0721588
-0.0661838
-0.067671
-0.0718792
-0.0737245
-0.0107802
-0.00882189
-0.0128149
-0.0325378
-0.0485989
-0.0434037
-0.0471893
-0.0460553
-0.0463855
-0.0564309
-0.0641656
-0.0854643
-0.103181
-0.117038
-0.118588
-0.119903
-0.123459
-0.126183
-0.124669
-0.11649
-0.0166811
-0.0191697
-0.0311059
-0.0343732
-0.039084
-0.0321889
-0.0391199
-0.0466932
-0.0509204
-0.0653277
-0.0742995
-0.0840781
-0.0882896
-0.0840145
-0.077579
-0.0713906
-0.0684897
-0.0682285
-0.0719892
-0.0796431
-0.0210362
-0.0266861
-0.0207203
-0.0181442
-0.0204602
-0.0288701
-0.0460382
-0.0528852
-0.0583185
-0.0570404
-0.0577262
-0.0517277
-0.0480692
-0.0422493
-0.0391449
-0.0374461
-0.0381939
-0.0413457
-0.0470407
-0.0563141
-0.00891362
-0.0166733
-0.015533
-0.0216644
-0.0292842
-0.0394226
-0.0518138
-0.0487845
-0.047813
-0.044897
-0.0447419
-0.0438573
-0.0439465
-0.0422045
-0.039748
-0.0366011
-0.035665
-0.0371566
-0.0413321
-0.0481524
-0.0304255
-0.0111048
-0.0133466
-0.0358488
-0.037964
-0.0350527
-0.0397968
-0.0362225
-0.0348208
-0.0334592
-0.0341116
-0.0352506
-0.0376245
-0.0401637
-0.0434078
-0.0456271
-0.0473156
-0.046145
-0.0456228
-0.0478832
-0.00641695
-0.00904168
-0.0100285
-0.016623
-0.0239498
-0.0284777
-0.0379699
-0.0437562
-0.0546093
-0.0632148
-0.0745488
-0.0800663
-0.0835308
-0.0808959
-0.0753525
-0.066663
-0.0564118
-0.0472254
-0.0443641
-0.0478227
-0.0333897
-0.0380684
-0.0448579
-0.0556562
-0.073232
-0.0838856
-0.0869038
-0.0777672
-0.0672657
-0.0544256
-0.0435952
-0.034439
-0.0288736
-0.0270927
-0.0312648
-0.044472
-0.0685119
-0.094129
-0.11151
-0.117052
-0.00665138
-0.0136791
-0.0194491
-0.0214302
-0.0225219
-0.0222897
-0.020827
-0.0173353
-0.0144285
-0.0132276
-0.0136893
-0.0154233
-0.0178813
-0.0206425
-0.0234113
-0.0258333
-0.027508
-0.0280431
-0.0278673
-0.02824
-0.00096513
-0.0102471
-0.0115857
-0.0160745
-0.0205953
-0.023498
-0.0248569
-0.0267003
-0.0316558
-0.040133
-0.0508289
-0.0563532
-0.054251
-0.0439007
-0.0324279
-0.0245645
-0.0215289
-0.0214458
-0.0232234
-0.0269326
-0.00460185
-0.00980031
-0.01125
-0.0168249
-0.0234334
-0.0265147
-0.0297378
-0.0321342
-0.0369714
-0.03908
-0.039995
-0.035208
-0.0291265
-0.0236641
-0.0214635
-0.0220026
-0.0245566
-0.0283867
-0.0333685
-0.0398966
-0.00135397
-0.00337122
-0.00631384
-0.0107493
-0.0150957
-0.0185612
-0.0224996
-0.0253665
-0.0290201
-0.0309366
-0.0325462
-0.0310101
-0.029698
-0.0282171
-0.0285133
-0.0294309
-0.0310864
-0.0319065
-0.033008
-0.0348188
-0.00182539
-0.005756
-0.00908836
-0.0172068
-0.0198637
-0.0258997
-0.0268388
-0.0271235
-0.0290231
-0.0293398
-0.0302456
-0.029713
-0.0303835
-0.0311025
-0.0328245
-0.0336042
-0.0343021
-0.0335174
-0.0327266
-0.0318334
-0.00137328
-0.00575077
-0.00986989
-0.0133065
-0.0215513
-0.0263069
-0.0281004
-0.0277739
-0.0269417
-0.0269294
-0.0282713
-0.0303702
-0.0338345
-0.0367972
-0.0398737
-0.0420527
-0.0442285
-0.044326
-0.042518
-0.037727
-0.00487148
-0.00837181
-0.0105936
-0.00903078
-0.0146051
-0.0183366
-0.0237658
-0.0273267
-0.0258948
-0.0258881
-0.0282697
-0.0324442
-0.0381604
-0.0432945
-0.0475459
-0.0506788
-0.0531021
-0.0535735
-0.0526886
-0.0456862
-0.00347047
-0.00456346
-0.00640193
-0.00734661
-0.00952465
-0.0114353
-0.0140035
-0.0258806
-0.0287874
-0.0260843
-0.027938
-0.0354395
-0.0428905
-0.0515558
-0.0497826
-0.0470809
-0.043764
-0.040259
-0.0357755
-0.0287345
-0.00481039
-0.0115768
-0.0109299
-0.00883544
-0.0136684
-0.0148297
-0.0155076
-0.0216467
-0.0313807
-0.0263957
-0.0293815
-0.0379187
-0.0476655
-0.056169
-0.0489082
-0.028785
-0.0264853
-0.0246412
-0.0223026
-0.0204845
-0.0177025
-0.0151583
-0.0122232
-0.0102255
-0.0151679
-0.0157446
-0.0187518
-0.0231005
-0.0273955
-0.0216584
-0.0247315
-0.0315482
-0.03796
-0.0431334
-0.0408437
-0.0275186
-0.0236887
-0.0216151
-0.0203193
-0.019453
-0.018704
-0.0134821
-0.0125677
-0.0144068
-0.0212965
-0.0204489
-0.0235347
-0.0263067
-0.0231551
-0.0202064
-0.0218657
-0.0232763
-0.026959
-0.0366297
-0.0499558
-0.0322164
-0.0264747
-0.0230923
-0.0210449
-0.0195389
-0.0149062
-0.0124209
-0.0170921
-0.0205604
-0.0286837
-0.0264397
-0.0283595
-0.0300346
-0.0289183
-0.0281497
-0.0221766
-0.0204167
-0.0297775
-0.0459922
-0.0510426
-0.0237377
-0.0203378
-0.0192535
-0.0190602
-0.0186091
-0.00222078
-0.00733837
-0.0125578
-0.0235816
-0.0298253
-0.0324886
-0.0347503
-0.0309054
-0.030188
-0.0283768
-0.0264476
-0.033789
-0.0484
-0.0558536
-0.0299896
-0.022785
-0.0201925
-0.0198678
-0.0201337
-0.0202381
-0.00233302
-0.00544764
-0.00857245
-0.0165339
-0.0214302
-0.0201517
-0.0221853
-0.0227426
-0.0242658
-0.0323483
-0.03845
-0.0452782
-0.0463915
-0.0444071
-0.0394167
-0.0369491
-0.035727
-0.034387
-0.0323488
-0.0298678
-0.0104575
-0.0105296
-0.0137166
-0.0134696
-0.0169841
-0.0182816
-0.0200898
-0.0222965
-0.0253535
-0.0299587
-0.0339169
-0.0342059
-0.0337626
-0.0306973
-0.0285797
-0.0270247
-0.0263751
-0.0263908
-0.0272445
-0.028765
-0.0199898
-0.0136413
-0.0118031
-0.0116249
-0.0139703
-0.0177666
-0.021715
-0.0215222
-0.0230732
-0.0219775
-0.022964
-0.0212328
-0.0209068
-0.0199779
-0.0199787
-0.0202568
-0.0210773
-0.0224512
-0.0244744
-0.027323
-0.00651573
-0.0107215
-0.0105441
-0.0123444
-0.0155382
-0.0177941
-0.0194977
-0.0174863
-0.0177622
-0.0170338
-0.01745
-0.0173505
-0.0177116
-0.0178952
-0.0183639
-0.0190369
-0.0201258
-0.0215405
-0.0234407
-0.0258497
-0.0253393
-0.00875783
-0.00899862
-0.0134546
-0.0142218
-0.0141273
-0.0148873
-0.0139243
-0.0141927
-0.0145701
-0.0154739
-0.0163748
-0.01753
-0.0186519
-0.0199441
-0.021168
-0.0225058
-0.023895
-0.0254457
-0.0266493
-0.00733085
-0.00925055
-0.00854905
-0.0127699
-0.0147766
-0.0141213
-0.0160752
-0.0177769
-0.0216846
-0.0243527
-0.0278318
-0.0283913
-0.0285544
-0.0270187
-0.0258703
-0.0250844
-0.0254551
-0.0270406
-0.029546
-0.0313058
-0.00790136
-0.039238
-0.0437585
-0.0515283
-0.0580073
-0.0522561
-0.0429097
-0.0307698
-0.0229502
-0.0170354
-0.0137611
-0.0117904
-0.0114432
-0.0126306
-0.016166
-0.0225858
-0.032101
-0.0417634
-0.0475578
-0.0485909
-0.0024615
-0.0114134
-0.0140753
-0.0122794
-0.0116633
-0.0113571
-0.0109273
-0.00999524
-0.0101399
-0.0119131
-0.014761
-0.0179696
-0.0206858
-0.0224734
-0.0232951
-0.0232613
-0.0227116
-0.0219188
-0.0212729
-0.0209349
-0.00109072
-0.00513397
-0.00868897
-0.0116785
-0.0134947
-0.0150879
-0.015893
-0.0177894
-0.0206189
-0.0235152
-0.0260123
-0.0250567
-0.0223592
-0.0188518
-0.0167645
-0.0159917
-0.0160551
-0.0163919
-0.0169333
-0.0176271
-0.00112293
-0.00685858
-0.00944646
-0.0137529
-0.0160126
-0.0178
-0.018674
-0.0190468
-0.0195764
-0.0184267
-0.0171392
-0.0149466
-0.0134734
-0.0127506
-0.0128342
-0.0133959
-0.0142645
-0.0153371
-0.0166781
-0.0183991
-0.00297707
-0.00496046
-0.00638609
-0.0095567
-0.0121676
-0.0143242
-0.0156234
-0.0160912
-0.0161216
-0.0153108
-0.0147059
-0.013808
-0.0135894
-0.0135981
-0.0141447
-0.0148432
-0.0157822
-0.0166577
-0.0177037
-0.0189333
-0.00273046
-0.00608586
-0.00771411
-0.0112035
-0.0125589
-0.0153785
-0.0154556
-0.0157479
-0.0157007
-0.0149768
-0.0147713
-0.0143735
-0.0146186
-0.0148244
-0.0153502
-0.0157613
-0.016319
-0.0167735
-0.0173553
-0.0180445
-0.00313262
-0.00352403
-0.00644414
-0.0085109
-0.0124322
-0.0141742
-0.0148524
-0.0152835
-0.0156383
-0.0154867
-0.0159488
-0.0160777
-0.0167237
-0.0168554
-0.0170299
-0.0170067
-0.0171066
-0.0168775
-0.0166059
-0.0163049
-0.00129522
-0.00255053
-0.00476772
-0.00591467
-0.00890044
-0.0110164
-0.0136355
-0.0153552
-0.0164399
-0.016928
-0.0183366
-0.0192321
-0.0206838
-0.0212736
-0.0210835
-0.0202576
-0.0194277
-0.0181662
-0.0172573
-0.0158229
-0.00322338
-0.00263309
-0.00319002
-0.00435218
-0.00622427
-0.0087023
-0.0103033
-0.0154695
-0.01675
-0.0190948
-0.0205241
-0.02456
-0.0266281
-0.0291147
-0.0198062
-0.0169369
-0.0147537
-0.0133059
-0.0123067
-0.0116792
-0.00247731
-0.00563605
-0.0057413
-0.00634271
-0.00937074
-0.00990015
-0.0104254
-0.0147367
-0.0179981
-0.0217542
-0.0253872
-0.0298415
-0.032224
-0.0292616
-0.0172411
-0.0103684
-0.0096848
-0.00938594
-0.00956406
-0.0103178
-0.010066
-0.00952061
-0.0072288
-0.00791493
-0.0108101
-0.0113043
-0.011892
-0.0137105
-0.0169157
-0.0215623
-0.0252576
-0.0254888
-0.0235724
-0.0187983
-0.0114728
-0.00927563
-0.00906372
-0.00923135
-0.00981651
-0.0107824
-0.0156815
-0.011518
-0.0102032
-0.0108552
-0.0125356
-0.0130286
-0.0138019
-0.0140955
-0.0154832
-0.0177292
-0.0189345
-0.0196686
-0.0221508
-0.0237924
-0.0172494
-0.00994855
-0.00943154
-0.00962085
-0.0103729
-0.0114146
-0.00719562
-0.0110217
-0.0142034
-0.0149922
-0.0153464
-0.0156324
-0.0164453
-0.0160276
-0.0151849
-0.0148677
-0.0158838
-0.0193474
-0.0252057
-0.0271814
-0.0143366
-0.00871316
-0.00909624
-0.00987211
-0.0108422
-0.0119179
-0.000556268
-0.00261462
-0.00806089
-0.014925
-0.0157364
-0.0164744
-0.0165608
-0.0156547
-0.0154404
-0.0167594
-0.0199967
-0.0225761
-0.0220655
-0.0171712
-0.00926368
-0.00900269
-0.00949397
-0.0102848
-0.0112054
-0.0122759
-0.0058653
-0.00523577
-0.00694089
-0.0114903
-0.012621
-0.0125828
-0.0128393
-0.0136822
-0.0145187
-0.0166948
-0.0164028
-0.0164164
-0.0143601
-0.0133009
-0.0121461
-0.0120301
-0.0122078
-0.0124781
-0.0128845
-0.0135641
-0.00517345
-0.00649827
-0.00711053
-0.00909186
-0.0112868
-0.0118991
-0.0122486
-0.0127844
-0.0138004
-0.013933
-0.0139221
-0.0130295
-0.0122915
-0.01163
-0.0114864
-0.011739
-0.0123008
-0.0130814
-0.0140831
-0.0152076
-0.0140453
-0.00988624
-0.00698441
-0.00750127
-0.00968724
-0.0108133
-0.0120383
-0.0115979
-0.0121537
-0.0115779
-0.0116051
-0.0112478
-0.0112731
-0.0115129
-0.0120159
-0.0127934
-0.0137703
-0.0148689
-0.0160778
-0.0173959
-0.0103783
-0.00785145
-0.00705241
-0.00887011
-0.00993261
-0.0103624
-0.0107206
-0.0103829
-0.0107539
-0.0108326
-0.0110973
-0.0113316
-0.0116725
-0.0121385
-0.0127927
-0.0136743
-0.0147563
-0.0159364
-0.0171982
-0.0186015
-0.0351139
-0.0109647
-0.00688639
-0.00820555
-0.00875137
-0.00890113
-0.00934623
-0.00953434
-0.0101013
-0.0106685
-0.0113801
-0.0120739
-0.012821
-0.0135326
-0.0142823
-0.0150622
-0.0159284
-0.0167111
-0.0174571
-0.0181674
-0.00492341
-0.00981924
-0.00885743
-0.0107248
-0.0103655
-0.00919589
-0.0096231
-0.0103438
-0.0115899
-0.0123864
-0.0134776
-0.0139851
-0.01486
-0.015532
-0.0164903
-0.017539
-0.0187423
-0.0196493
-0.0200912
-0.0196366
-0.00429048
-0.0229221
-0.0317246
-0.0340979
-0.0324955
-0.0226796
-0.0158071
-0.0104507
-0.0082228
-0.00705042
-0.00697754
-0.00748941
-0.00871441
-0.0106412
-0.0134366
-0.0169508
-0.020804
-0.0238008
-0.0251399
-0.0246328
-0.0042223
-0.0102238
-0.00885185
-0.00725247
-0.0072543
-0.0068662
-0.00708182
-0.00879772
-0.0121795
-0.0154314
-0.0171442
-0.0171713
-0.0164315
-0.0151367
-0.0139795
-0.0131811
-0.0128627
-0.0128498
-0.0130715
-0.0133613
-0.000612811
-0.00390209
-0.00780987
-0.0101656
-0.0111598
-0.0124924
-0.0128784
-0.0134162
-0.0136254
-0.013011
-0.0127914
-0.0121444
-0.0119957
-0.0121756
-0.0129067
-0.0140294
-0.0154277
-0.0170003
-0.0185906
-0.0200266
-0.00136451
-0.00597118
-0.00906697
-0.0123764
-0.0129479
-0.0129192
-0.012025
-0.0111484
-0.0106382
-0.0102547
-0.0103741
-0.0107274
-0.0114493
-0.0123623
-0.0133851
-0.0143926
-0.0153233
-0.0161302
-0.0168165
-0.0173454
-0.00386857
-0.00484057
-0.0060281
-0.0094329
-0.0110705
-0.0111671
-0.0104842
-0.0100064
-0.00988925
-0.0100026
-0.0104837
-0.0110693
-0.0118275
-0.0126046
-0.0133971
-0.0141564
-0.0148786
-0.0155627
-0.0162339
-0.016846
-0.00639118
-0.00399195
-0.0068831
-0.00972827
-0.0101259
-0.0105716
-0.00987446
-0.00982714
-0.00982106
-0.0100176
-0.010508
-0.0110753
-0.0117465
-0.0124356
-0.0131464
-0.0138685
-0.014616
-0.0153858
-0.0161893
-0.0169131
-0.0022732
-0.00278853
-0.00591466
-0.00787496
-0.0091631
-0.00976377
-0.00975216
-0.00975615
-0.0098268
-0.0100308
-0.0104782
-0.0110232
-0.0116412
-0.012288
-0.0129746
-0.0137315
-0.0145476
-0.0154236
-0.016326
-0.0171219
-0.000519392
-0.00168303
-0.00447059
-0.00666939
-0.00817734
-0.0090694
-0.00968062
-0.00989682
-0.0098716
-0.010159
-0.0105236
-0.0111048
-0.0116626
-0.0122733
-0.0127966
-0.0134364
-0.0141768
-0.015003
-0.0158566
-0.0166083
-0.00139448
-0.00184119
-0.00352224
-0.00613565
-0.00795896
-0.00905634
-0.00968107
-0.0109087
-0.0100276
-0.0104954
-0.0103418
-0.010756
-0.0110467
-0.0114342
-0.0119758
-0.0125742
-0.0132755
-0.0140505
-0.0147821
-0.0154191
-0.00141362
-0.00418268
-0.00563545
-0.00789138
-0.00937134
-0.00957016
-0.00978885
-0.0121208
-0.0114728
-0.0109667
-0.0101649
-0.00939367
-0.00900786
-0.00898514
-0.00978324
-0.0117079
-0.0123844
-0.0130993
-0.0137523
-0.0142856
-0.00999421
-0.00702998
-0.00741035
-0.00868326
-0.00968579
-0.010337
-0.0107705
-0.0126645
-0.0131892
-0.011644
-0.00957606
-0.00803888
-0.00728994
-0.00733253
-0.00886846
-0.0114579
-0.0121998
-0.0129098
-0.0135582
-0.0140866
-0.00604321
-0.00657813
-0.00957872
-0.0095787
-0.00961717
-0.01069
-0.011659
-0.0130656
-0.0128307
-0.0105335
-0.00865338
-0.00786313
-0.00760914
-0.00737447
-0.0087336
-0.011642
-0.0125482
-0.0134343
-0.0142468
-0.0149027
-0.00190429
-0.0104843
-0.0142629
-0.0120054
-0.0098324
-0.0102185
-0.0100559
-0.010679
-0.0102527
-0.00881447
-0.00715078
-0.00676191
-0.00669392
-0.00677472
-0.00863024
-0.0125887
-0.0137456
-0.0148662
-0.0159044
-0.0167207
-0.00079025
-0.00368333
-0.00762288
-0.0103286
-0.0093829
-0.0089996
-0.00860829
-0.00888643
-0.00833498
-0.00776567
-0.00729282
-0.00731736
-0.00761571
-0.00835487
-0.0122041
-0.0136097
-0.0150713
-0.0165217
-0.01789
-0.0189607
-0.00264914
-0.00361309
-0.00629552
-0.00843468
-0.00822223
-0.00792507
-0.00753138
-0.00741427
-0.00739287
-0.0080774
-0.00830312
-0.00912976
-0.00992916
-0.0110669
-0.0123863
-0.0138813
-0.0155089
-0.0172145
-0.0188995
-0.0202622
-0.00599696
-0.00572082
-0.00653174
-0.00756976
-0.00780724
-0.00756621
-0.00726006
-0.00724606
-0.00733808
-0.00774905
-0.00825207
-0.00902412
-0.00999784
-0.0112095
-0.0126232
-0.0142089
-0.0159124
-0.017672
-0.0193899
-0.0207926
-0.00270392
-0.00412019
-0.00589789
-0.00741454
-0.00758124
-0.00743083
-0.00737754
-0.00741901
-0.00757154
-0.00798947
-0.00856318
-0.00940018
-0.0103928
-0.011587
-0.0129416
-0.0144566
-0.0161167
-0.017858
-0.0195981
-0.0210563
-0.00628432
-0.00757434
-0.00731009
-0.00774147
-0.00760015
-0.00763835
-0.00754722
-0.00780441
-0.00808521
-0.00862588
-0.00926247
-0.0100917
-0.0110403
-0.0121273
-0.013356
-0.0147309
-0.016273
-0.0179784
-0.0197709
-0.0214412
-0.0179598
-0.00728273
-0.00614739
-0.00699857
-0.00735615
-0.00757022
-0.00777043
-0.00804923
-0.00843884
-0.00888238
-0.00945455
-0.0101394
-0.010979
-0.0119429
-0.013044
-0.0142695
-0.015642
-0.0171712
-0.0188278
-0.0203764
-0.00107491
-0.00254658
-0.00401376
-0.00590493
-0.00654937
-0.00685275
-0.00734479
-0.007957
-0.00867318
-0.00932494
-0.00997454
-0.0104793
-0.0110354
-0.0116752
-0.0125278
-0.0136416
-0.0150817
-0.0168663
-0.0188656
-0.0208589
-0.000696611
-0.00340549
-0.00492049
-0.0105686
-0.0101435
-0.00735186
-0.00636546
-0.00595256
-0.00623383
-0.00694567
-0.00799412
-0.00924299
-0.0104542
-0.0114738
-0.0123013
-0.0129455
-0.0138167
-0.0150938
-0.0169906
-0.0190729
-0.023277
-0.0198585
-0.0209381
-0.0214395
-0.0259546
-0.0185407
-0.0209994
-0.029837
-0.0217176
-0.0240456
-0.0272277
-0.0298008
-0.0216861
-0.0230642
-0.0213736
-0.0257547
-0.0225817
-0.0176439
-0.0194583
-0.0159985
-0.0163148
-0.022939
-0.0213001
-0.0195339
-0.0199729
-0.0214056
-0.0167391
-0.019258
-0.0925912
-0.0793209
-0.0845938
-0.0838985
-0.0920222
-0.0762095
-0.0830196
-0.108045
-0.0869743
-0.0983614
-0.0954148
-0.11331
-0.0866744
-0.104861
-0.146381
-0.105017
-0.132939
-0.125252
-0.152706
-0.113677
-0.139295
-0.187095
-0.141517
-0.151929
-0.160027
-0.162321
-0.142615
-0.126402
-0.189914
-0.151025
-0.142112
-0.156455
-0.122552
-0.115389
-0.0883667
-0.169555
-0.137844
-0.124716
-0.112448
-0.0937933
-0.0832919
-0.080766
-0.142142
-0.120588
-0.108932
-0.0914823
-0.0891235
-0.0830846
-0.0933912
-0.11075
-0.105264
-0.0953932
-0.090897
-0.0949205
-0.0950508
-0.089054
-0.0863492
-0.0892192
-0.0966028
-0.0811554
-0.0846308
-0.0861739
-0.0939406
-0.0994445
-0.099631
-0.110433
-0.0878836
-0.10541
-0.0981205
-0.114014
-0.131347
-0.114957
-0.127484
-0.113798
-0.136476
-0.119562
-0.128556
-0.144619
-0.129272
-0.125925
-0.138823
-0.123773
-0.127631
-0.117246
-0.134011
-0.12316
-0.114076
-0.11493
-0.0941422
-0.113376
-0.105419
-0.118829
-0.111101
-0.103281
-0.0905864
-0.0902375
-0.104099
-0.101472
-0.105092
-0.101093
-0.0956971
-0.0924047
-0.0977725
-0.0999512
-0.0887063
-0.0934614
-0.0941873
-0.090104
-0.0969393
-0.0846935
-0.0822941
-0.0634185
-0.10229
-0.11718
-0.119575
-0.0971018
-0.0996225
-0.113433
-0.117792
-0.114828
-0.120636
-0.122758
-0.103445
-0.117401
-0.119746
-0.123356
-0.125976
-0.122661
-0.118967
-0.121472
-0.125506
-0.123188
-0.118602
-0.120288
-0.116732
-0.109212
-0.123655
-0.113841
-0.116249
-0.109141
-0.108611
-0.106915
-0.101735
-0.110689
-0.104437
-0.10667
-0.0937679
-0.0999199
-0.100545
-0.0973562
-0.103062
-0.0962796
-0.0867481
-0.0637427
-0.0942889
-0.0960551
-0.0909734
-0.0919182
-0.0740088
-0.0573007
-0.0453402
-0.0886437
-0.0889976
-0.0829055
-0.0675677
-0.0537353
-0.0439784
-0.0485324
-0.12419
-0.136287
-0.132577
-0.121599
-0.122755
-0.132175
-0.130469
-0.123333
-0.130894
-0.124577
-0.123647
-0.123901
-0.12941
-0.124236
-0.116481
-0.122253
-0.115079
-0.122894
-0.11747
-0.122149
-0.115941
-0.107143
-0.112646
-0.106006
-0.115264
-0.108507
-0.113914
-0.107731
-0.101207
-0.104248
-0.100753
-0.105753
-0.0900361
-0.105058
-0.0905548
-0.0970191
-0.0999403
-0.0971003
-0.0821114
-0.059319
-0.0834445
-0.0678429
-0.0902037
-0.0958597
-0.0912328
-0.0538177
-0.0460092
-0.0662192
-0.0709463
-0.0819653
-0.0894712
-0.0848232
-0.0463324
-0.0561127
-0.0752571
-0.0899212
-0.0363636
-0.0433279
-0.0435374
-0.0279984
-0.028059
-0.0296329
-0.0298455
-0.0709504
-0.0446177
-0.0736719
-0.0321936
-0.0453153
-0.0314655
-0.0389486
-0.0950278
-0.0860054
-0.0956856
-0.0470869
-0.0395781
-0.0394772
-0.0309751
-0.0511209
-0.0865804
-0.0482595
-0.0354012
-0.0307407
-0.0279586
-0.0258395
-0.0350087
-0.0410916
-0.0350027
-0.0311592
-0.0350539
-0.0267983
-0.0316869
-0.0422115
-0.0361243
-0.0454923
-0.0372666
-0.0445625
-0.0336589
-0.0398718
-0.0595758
-0.0502785
-0.0660719
-0.0472793
-0.0553794
-0.0419577
-0.0477452
-0.0793094
-0.0698961
-0.0701428
-0.057954
-0.0628895
-0.0492567
-0.0513089
-0.0453347
-0.0479017
-0.0572684
-0.0308743
-0.0310339
-0.0347631
-0.035585
-0.0744437
-0.0606099
-0.0791498
-0.032256
-0.0373438
-0.0355036
-0.0335375
-0.0924394
-0.0843995
-0.0784065
-0.0372529
-0.029092
-0.0318273
-0.0257265
-0.0486991
-0.0708829
-0.0496777
-0.0265928
-0.0251767
-0.0245967
-0.0245469
-0.0369764
-0.0471427
-0.0501343
-0.0261362
-0.0307789
-0.0252859
-0.0276095
-0.0499447
-0.0528339
-0.0593144
-0.0325764
-0.0379642
-0.0281811
-0.0297936
-0.069376
-0.0594312
-0.0520014
-0.0396901
-0.0444036
-0.0304648
-0.034068
-0.0652022
-0.0486909
-0.0433606
-0.0456894
-0.0484088
-0.0360062
-0.0440037
-0.0620565
-0.0625292
-0.0724803
-0.0388951
-0.0372115
-0.0448801
-0.0417458
-0.0796618
-0.0746069
-0.0774616
-0.0365075
-0.0326766
-0.0403488
-0.0362443
-0.0737845
-0.0775142
-0.0748771
-0.0307969
-0.0257483
-0.0352328
-0.0332314
-0.0536046
-0.0731661
-0.0653355
-0.0249213
-0.0251522
-0.0325287
-0.0290125
-0.0538414
-0.0611989
-0.0450914
-0.0256397
-0.0264728
-0.0274037
-0.0230685
-0.0501996
-0.0399967
-0.029328
-0.0264843
-0.0270706
-0.0224272
-0.0244061
-0.0397398
-0.0275183
-0.026979
-0.0277524
-0.0324299
-0.0263872
-0.0356637
-0.0378907
-0.028364
-0.0391752
-0.0349601
-0.0447445
-0.0396325
-0.0522317
-0.0699423
-0.0649387
-0.0735918
-0.0478925
-0.0437867
-0.0551757
-0.0497318
-0.0742006
-0.0726676
-0.0663388
-0.0423897
-0.0388434
-0.0479471
-0.0446999
-0.0774589
-0.0659098
-0.0720517
-0.0381118
-0.0367388
-0.0443473
-0.0441046
-0.0709142
-0.0753179
-0.0787062
-0.0360058
-0.0311827
-0.0437315
-0.0381872
-0.0451861
-0.0749984
-0.0524608
-0.0289065
-0.0233072
-0.0349775
-0.0273545
-0.0281184
-0.0449318
-0.0329639
-0.0226254
-0.0253494
-0.026879
-0.0328664
-0.0278616
-0.0326574
-0.0419196
-0.0277213
-0.0382374
-0.0369417
-0.0520503
-0.0454019
-0.0492217
-0.0771485
-0.0426164
-0.055813
-0.0577577
-0.0689701
-0.0176268
-0.0182325
-0.0206704
-0.011936
-0.0135618
-0.012912
-0.0136413
-0.0308854
-0.0226813
-0.0291527
-0.0157872
-0.0195154
-0.0143074
-0.0166913
-0.027643
-0.0290026
-0.0237774
-0.0200912
-0.0223284
-0.0174503
-0.020714
-0.0276515
-0.022709
-0.0244401
-0.0238802
-0.02802
-0.0222378
-0.0269952
-0.0354562
-0.0260275
-0.0315673
-0.0294746
-0.0339578
-0.0283964
-0.0314489
-0.0451905
-0.0334753
-0.0390542
-0.0356748
-0.0401116
-0.032102
-0.0330977
-0.0543776
-0.0408381
-0.0454292
-0.0410941
-0.041254
-0.0330061
-0.0303972
-0.0579712
-0.0463944
-0.0463514
-0.0403711
-0.0358715
-0.0286947
-0.0224321
-0.0213905
-0.0217348
-0.0249377
-0.013713
-0.0138281
-0.0155993
-0.0146848
-0.0278281
-0.0254603
-0.0247709
-0.0142285
-0.0159691
-0.0145388
-0.0148786
-0.0225429
-0.0236354
-0.0203769
-0.0166768
-0.019949
-0.0152962
-0.0175362
-0.0200564
-0.0215411
-0.0208538
-0.0200605
-0.0207851
-0.0210124
-0.0191862
-0.0255898
-0.0263734
-0.0236323
-0.0256439
-0.0250984
-0.0273293
-0.0241355
-0.0364236
-0.0248273
-0.0274901
-0.0302674
-0.0308119
-0.0235899
-0.0257504
-0.0421102
-0.028714
-0.0340688
-0.0306557
-0.0283734
-0.0266041
-0.0284755
-0.0445377
-0.0364134
-0.0445793
-0.0269716
-0.0218502
-0.0287691
-0.0287373
-0.0262325
-0.0275973
-0.0298083
-0.0168254
-0.0151258
-0.0194984
-0.0181208
-0.0243033
-0.0295205
-0.0277556
-0.014845
-0.0148586
-0.0176793
-0.0167344
-0.0206147
-0.0273225
-0.0263351
-0.0151601
-0.0167903
-0.016545
-0.0161025
-0.0187112
-0.0204943
-0.0216299
-0.0178867
-0.0216416
-0.0185201
-0.0185231
-0.0191624
-0.0222672
-0.021542
-0.0201091
-0.0214074
-0.0204338
-0.0190415
-0.0255399
-0.0200561
-0.025251
-0.02212
-0.0252873
-0.0206082
-0.026395
-0.033675
-0.0280921
-0.0390382
-0.0266083
-0.0302982
-0.0287578
-0.0350721
-0.0463944
-0.0431142
-0.0534928
-0.0312218
-0.0322546
-0.0362402
-0.0347275
-0.0302116
-0.0331877
-0.0345362
-0.0231928
-0.020086
-0.0275294
-0.0238759
-0.0290105
-0.0335965
-0.0323157
-0.0193257
-0.0177748
-0.0229276
-0.0210442
-0.0287242
-0.0327068
-0.0344205
-0.0174324
-0.0165631
-0.0205063
-0.0187685
-0.0239363
-0.0342882
-0.0292372
-0.0163208
-0.0164111
-0.0183157
-0.0188485
-0.0197726
-0.0266853
-0.02318
-0.0168877
-0.0199416
-0.0199047
-0.0251457
-0.0265555
-0.0244246
-0.0341763
-0.0215803
-0.0282665
-0.0277127
-0.0352782
-0.0417328
-0.0388262
-0.0529276
-0.0308015
-0.0365813
-0.036956
-0.0369551
-0.0557801
-0.056996
-0.0602348
-0.0371593
-0.0334144
-0.0352008
-0.0256747
-0.0130364
-0.0113395
-0.0130004
-0.010405
-0.0138117