/*--------------------------------*- C++ -*----------------------------------*\
  =========                 |
  \\      /  F ield         | OpenFOAM: The Open Source CFD Toolbox
   \\    /   O peration     | Website:  https://openfoam.org
    \\  /    A nd           | Version:  10
     \\/     M anipulation  |
\*---------------------------------------------------------------------------*/
FoamFile
{
    format      ascii;
    class       volVectorField;
    location    "6";
    object      U_0;
}
// * * * * * * * * * * * * * * * * * * * * * * * * * * * * * * * * * * * * * //

dimensions      [0 1 -1 0 0 0 0];

internalField   nonuniform List<vector> 
12920
(
(480.067 42.6022 -229.011)
(46.4154 118.769 -34.6607)
(204.589 27.7841 -8.87927)
(130.965 -29.657 7.7697)
(146.126 -35.9175 9.08684)
(120.56 -32.6727 6.20154)
(119.06 -15.5682 4.1959)
(94.1593 -6.15572 1.09436)
(94.1204 -0.884736 -1.41428)
(86.7898 2.51882 -2.19541)
(88.1817 4.54068 -2.25723)
(84.3795 6.152 -2.14448)
(83.8757 6.84653 -1.65715)
(79.9522 7.10629 -1.54983)
(79.3668 5.84698 -0.896854)
(75.5595 3.96033 -0.375466)
(74.5264 1.08425 0.297053)
(72.0883 -1.20566 0.613356)
(72.0266 -4.13991 0.18606)
(77.4412 -5.03829 0.173438)
(-53.3882 -331.688 233.165)
(-100.793 16.4367 -3.69498)
(84.951 -21.8067 12.8465)
(0.754372 -11.4062 -0.113758)
(62.6701 11.3705 -0.388084)
(39.7105 12.3644 -2.53883)
(61.9892 20.2756 -0.754581)
(51.9997 15.6208 -0.617563)
(60.7212 16.7977 -0.235073)
(55.4203 13.5117 -0.136346)
(58.8979 12.0699 0.514604)
(53.6099 9.1074 0.814947)
(53.3335 5.64411 1.4159)
(47.4625 2.75176 1.42239)
(46.5395 1.17484 1.21701)
(42.9858 0.268905 0.747922)
(42.7216 0.27463 0.0321015)
(41.8303 0.189887 -0.438948)
(42.319 0.681342 -1.10169)
(46.483 1.01466 -1.25103)
(10.6195 -133.1 -113.137)
(-67.7773 -72.2203 -24.1166)
(85.5041 -92.1106 -12.0223)
(-2.39861 -54.3008 -3.41036)
(54.4818 -48.7707 1.41412)
(11.1052 -24.8925 -0.197854)
(44.0383 -12.9185 0.584019)
(24.539 -0.693195 0.123709)
(41.1277 1.84337 0.483246)
(32.014 5.12216 0.379279)
(39.6751 4.05241 0.67048)
(33.6282 5.06241 0.669277)
(36.2468 4.32866 0.577992)
(31.7342 4.81361 0.283632)
(32.8444 4.07674 0.0842362)
(30.9937 3.68341 -0.130539)
(32.108 2.99596 -0.172948)
(32.2564 1.89326 -0.232413)
(33.5405 0.796678 -0.246618)
(38.1486 0.524748 -0.0063826)
(198.243 21.8715 -150.627)
(54.3388 -0.92911 -29.7972)
(118.097 1.39063 -11.9965)
(41.8591 -2.08683 -0.805548)
(64.3562 5.9437 2.49203)
(26.0356 8.3044 0.558412)
(44.77 11.6053 0.615878)
(29.1719 11.0918 -0.0728165)
(40.3059 10.2703 -0.0204983)
(31.9099 9.55595 -0.104877)
(36.0953 7.69404 0.170177)
(29.1637 6.83838 0.183073)
(30.2876 4.93257 0.279378)
(26.4413 3.98177 0.174599)
(27.7563 2.2599 0.14144)
(26.6765 1.57206 0.107715)
(27.908 0.564442 0.122437)
(28.4009 0.0421625 0.0794213)
(29.475 -0.873411 0.102736)
(33.3966 -1.02641 0.175267)
(65.2638 241.399 11.2407)
(-53.8697 56.2834 22.1906)
(76.7835 32.4845 20.4468)
(-43.6204 -13.5416 2.28365)
(50.981 -27.6296 3.85817)
(-10.5452 -13.374 1.14722)
(36.357 -14.154 1.259)
(14.5139 1.78522 0.518656)
(36.0057 0.263671 0.41762)
(25.4875 8.59165 0.0565137)
(33.8944 5.75314 0.249299)
(27.1794 8.90356 0.0663285)
(30.8312 5.44496 0.0927815)
(27.4996 5.83025 -0.0285102)
(30.4378 3.26988 0.044877)
(29.7634 2.48567 -0.0197513)
(31.6931 0.775279 0.144712)
(32.4154 -0.244481 0.141609)
(33.3708 -2.09147 0.186084)
(36.623 -1.98779 0.188441)
(242.361 -60.426 -180.85)
(63.5629 -27.6164 5.40381)
(244.827 -28.6416 9.70419)
(170.36 -22.3187 8.29654)
(139.634 -19.7512 11.4748)
(61.1175 -6.75466 3.75258)
(63.523 -12.465 2.81084)
(38.8429 -0.89228 2.22747)
(41.8614 0.0714572 1.21604)
(32.5445 7.65302 0.495865)
(34.2804 6.47899 0.199909)
(30.0826 8.14207 -0.010848)
(32.0604 5.41469 -0.0972436)
(31.4257 4.01144 -0.285866)
(34.2672 0.520244 -0.423164)
(36.4072 0.119644 -0.426537)
(39.6741 -2.71632 -0.0270803)
(40.4805 -2.67533 0.269631)
(40.6922 -3.59573 0.476684)
(41.7839 -3.03892 0.394679)
(561.072 -209.93 68.1446)
(230.924 -58.2554 22.1008)
(231.054 10.811 8.9619)
(133.073 22.2758 3.59528)
(138.256 33.9419 5.8975)
(88.188 28.0313 2.62109)
(80.4282 -7.80875 4.34382)
(49.283 6.55734 3.83381)
(47.0106 -0.550243 2.51522)
(32.573 12.3853 1.38659)
(36.2047 6.59141 0.424489)
(32.3927 10.754 0.100418)
(36.9387 4.4551 -0.20586)
(38.1966 4.75926 -0.389238)
(43.9143 0.360683 -0.238695)
(48.6377 -1.36639 -0.211115)
(52.8705 -3.42219 -0.0152007)
(53.5112 -3.24468 0.210082)
(52.6676 -3.74425 0.580079)
(49.0224 -2.89438 0.495793)
(114.104 53.5176 72.5926)
(-18.2924 -74.1329 13.7603)
(142.362 -23.0104 14.4507)
(93.4025 -14.4421 5.11068)
(136.316 0.626632 8.36668)
(108.122 16.2724 3.66549)
(113.312 17.1902 -0.292406)
(88.8388 0.0755744 0.113543)
(62.8512 15.0841 1.0585)
(36.8807 6.77779 0.573887)
(35.9648 17.2886 -0.383201)
(32.8061 10.9012 -0.657177)
(38.7509 12.5342 -0.843165)
(41.9017 5.97831 -0.698303)
(46.0664 -8.55009 0.684117)
(48.7109 -8.61989 0.168318)
(52.0717 -7.77496 -0.453089)
(53.2224 -3.91784 -0.360952)
(50.3217 -0.413767 0.39796)
(45.6703 0.346258 0.32903)
(221.667 171.662 -149.321)
(-25.354 -80.3678 -18.1452)
(178.485 -20.1555 -21.068)
(134.017 -13.005 -7.3847)
(176.718 16.8137 7.31444)
(110.833 23.8837 0.656145)
(105.295 27.0905 3.32914)
(86.2223 19.4352 -0.276084)
(75.5899 25.3551 0.708994)
(50.088 21.7859 0.459747)
(37.0827 19.685 -0.275365)
(36.5872 14.4767 -0.537119)
(40.9504 11.782 -0.652226)
(47.2789 4.64254 -0.495894)
(47.3465 -2.57006 0.521079)
(42.0736 -8.137 -0.405623)
(41.6225 -5.51396 -0.500449)
(40.7061 0.1478 -0.680582)
(38.4416 3.22202 -0.268505)
(39.9873 2.33876 -0.21507)
(111.332 13.3806 -182.105)
(-172.96 -86.5315 -42.8482)
(108.152 -39.7255 -16.5465)
(32.8434 -32.027 -10.8283)
(121.575 8.91697 -0.0597734)
(83.8413 24.1356 -0.566204)
(80.7934 33.399 2.39051)
(80.3632 34.5376 -1.1566)
(68.7044 29.5267 0.613261)
(48.8065 28.8357 0.359542)
(47.5768 16.9854 -0.219765)
(51.4997 11.0269 -0.415919)
(56.3171 5.94666 -0.387025)
(57.7336 -1.10006 0.212707)
(48.3117 -1.55078 -0.62402)
(46.2313 -5.75593 -0.233754)
(43.1167 -2.70164 -0.17361)
(40.313 2.42966 -0.124553)
(39.1481 3.90271 -0.228564)
(41.7316 2.40828 -0.200402)
(405.081 188.034 98.3136)
(-86.4352 31.8306 38.9391)
(120.322 -42.7384 12.3971)
(-1.42496 -13.0653 -4.44166)
(87.0699 20.6949 2.0263)
(42.0471 21.6132 -0.476669)
(54.6824 37.3258 1.91428)
(55.6199 38.903 -0.781197)
(54.4242 38.6361 0.0652558)
(56.5681 26.3606 0.183289)
(58.688 14.4677 0.154485)
(58.4303 8.96474 0.299717)
(55.2379 4.52277 0.214267)
(53.1739 2.80286 -0.0781712)
(54.7292 1.31233 -0.363247)
(48.2931 -3.196 0.284884)
(43.3298 2.02972 -0.084251)
(41.7401 4.95841 -0.129884)
(40.9599 5.49968 -0.225832)
(42.9769 3.0842 -0.0548255)
(203.496 55.9367 94.8888)
(-86.2281 -15.0184 15.8493)
(89.4969 -82.8775 4.47522)
(-30.029 -14.7825 -2.08305)
(57.6703 12.4445 5.64939)
(-19.3192 23.7736 -1.10491)
(25.6193 29.1937 0.123346)
(38.7974 32.7185 -0.203852)
(50.374 27.7292 0.238346)
(55.7826 18.9424 0.33018)
(57.2721 13.6029 0.0675249)
(56.1949 11.0285 -0.161824)
(56.201 7.91042 -0.304665)
(56.7648 5.96386 -0.258721)
(55.4722 0.890293 0.578063)
(38.6086 1.59835 0.480294)
(36.6742 4.73732 -0.045489)
(37.3312 5.69094 -0.106744)
(38.1139 5.98623 0.0623225)
(41.2352 2.91768 0.355073)
(53.2595 -67.104 -68.7436)
(-113.887 4.39827 -9.47706)
(106.814 -33.8034 -11.1825)
(5.66953 0.571273 -1.75457)
(84.548 22.6769 2.93767)
(29.9445 -16.3547 2.60839)
(61.0873 8.19817 0.977084)
(48.6956 18.0884 0.26311)
(69.5348 17.2159 0.120183)
(66.8235 15.3637 0.176604)
(65.8761 16.6854 -0.00296953)
(56.9569 14.2679 -0.0462494)
(58.3144 9.51112 -0.144141)
(55.174 6.18943 0.166156)
(36.1012 4.87288 1.30487)
(32.9568 3.4437 0.448825)
(31.2155 4.29088 0.100007)
(32.3947 3.65276 0.147906)
(33.6884 3.01795 0.233696)
(38.0888 0.0180655 0.403036)
(27.9653 -39.1144 104.523)
(-104.284 -31.2771 -3.67531)
(103.42 -56.9354 -14.1073)
(-32.3342 -12.0219 0.299546)
(78.4966 -8.85656 2.80222)
(16.4405 -6.83174 0.565326)
(50.15 30.406 0.873593)
(24.5371 -4.78205 0.197596)
(41.3028 21.0287 -0.406929)
(30.5202 6.99865 0.127676)
(42.2633 18.3806 0.338755)
(37.1142 8.27844 0.510039)
(40.587 11.4021 0.543859)
(35.2233 5.02587 0.721491)
(35.6234 6.51878 0.493624)
(32.9412 4.42797 0.271678)
(33.8978 4.37426 0.3237)
(35.0563 2.17428 0.300457)
(36.7488 0.905113 0.29987)
(41.7588 -1.73348 0.337183)
(114.732 157.398 70.2872)
(48.4455 58.6951 -6.70814)
(176.462 5.33708 -7.45627)
(90.6516 2.89212 2.78212)
(101.522 -4.83226 7.42002)
(18.6274 -4.649 0.282335)
(58.585 15.3187 0.270527)
(21.9317 4.76578 -0.105569)
(39.3583 12.8145 -0.212215)
(25.3881 8.71224 0.218901)
(34.853 11.6894 0.228428)
(29.1091 8.35583 0.384797)
(33.4763 8.50788 0.261006)
(31.317 6.30079 0.249384)
(33.5156 5.70511 0.0917908)
(34.0846 2.76078 -0.0753547)
(37.3313 0.59564 -0.227843)
(39.6545 -1.16336 -0.233373)
(41.6262 -3.16986 -0.150076)
(47.0441 -4.88503 0.126243)
(61.8955 -46.5308 17.9537)
(-14.7024 -48.1614 -2.90254)
(109.026 -19.8318 -6.75956)
(38.2575 15.2863 -2.21084)
(86.7165 29.6555 0.0806619)
(30.8695 17.6089 -1.25024)
(61.2144 28.0991 0.401308)
(29.3548 9.16334 -0.267748)
(45.7536 19.3775 0.272038)
(28.6318 8.35848 0.0026407)
(38.9633 13.5747 0.136865)
(31.2369 6.74512 0.00342618)
(37.1063 7.84825 -0.0248934)
(34.4225 3.49586 -0.163139)
(38.5532 3.24334 -0.206937)
(38.4976 0.764478 -0.414121)
(41.3942 0.0882519 -0.489936)
(43.2922 -0.985027 -0.689454)
(46.0941 -3.79854 -0.735082)
(52.3741 -5.81972 -0.247065)
(179.647 6.06138 -166.398)
(-29.9176 -5.0163 -22.7962)
(130.675 36.4596 -20.474)
(44.884 23.4925 -4.83094)
(90.6718 41.4025 -0.0206182)
(24.6179 19.8194 -0.484823)
(62.7587 27.7071 0.717052)
(22.36 15.4993 -0.386529)
(46.716 17.9527 -0.4192)
(28.1832 12.2149 -0.641108)
(41.6082 11.3738 -0.826736)
(35.3839 8.62732 -0.57112)
(43.3558 7.11275 -0.44356)
(42.4626 4.99703 -0.151742)
(47.5402 3.80916 0.0299947)
(48.0591 1.68375 -0.0125442)
(51.4156 -0.796272 -0.292388)
(52.489 -2.14694 -0.693831)
(54.8323 -6.29846 -0.951273)
(59.3476 -7.8805 -0.562423)
(-127.006 110.648 -68.2535)
(-199.403 59.068 -23.7738)
(99.3736 68.4883 -12.3446)
(-29.677 48.4882 2.29244)
(79.7249 54.7184 4.41245)
(18.8549 31.7884 0.0395039)
(65.5729 31.2363 0.354466)
(38.7226 20.817 -0.829401)
(60.4733 19.5607 -1.1621)
(52.9616 14.5549 -1.55713)
(66.3952 12.8808 -1.31276)
(66.6711 6.79315 -1.46423)
(77.0769 4.05293 -1.03933)
(78.4154 -0.462977 -0.81572)
(83.7833 -2.16785 -0.384202)
(83.0822 -2.58336 -0.188842)
(82.1353 -2.22272 0.16067)
(77.67 -0.425001 0.273159)
(73.8316 -3.28949 -0.225835)
(71.0131 -5.25127 -0.43321)
(164.022 -105.96 -82.5362)
(-93.7444 -34.6749 -2.04067)
(101.645 -21.7926 -5.84286)
(-21.5381 9.18313 -3.37389)
(73.8857 10.4581 -2.58135)
(16.8641 19.1157 -1.79788)
(67.8499 18.9029 -0.00162053)
(52.4813 19.1565 -0.0552927)
(76.6482 16.2246 0.545382)
(72.6956 12.497 0.665898)
(84.0428 7.94395 1.38866)
(82.2551 4.48628 1.23102)
(86.3117 2.12808 1.61775)
(83.8748 1.80369 1.4017)
(83.9858 2.3357 1.35429)
(81.5103 3.69276 1.25056)
(81.062 4.7273 0.915401)
(79.0478 5.80745 0.466063)
(77.6506 4.58541 -0.0908813)
(75.6027 0.17166 -0.767504)
(108.575 14.489 136.607)
(42.3888 75.1616 -13.6842)
(118.02 97.4388 8.11299)
(77.8912 84.7007 5.61116)
(130.635 59.0817 8.18445)
(101.176 36.6408 6.93057)
(115.415 8.55635 6.03651)
(95.6829 5.58354 4.15389)
(105.072 2.33013 2.5867)
(101.092 1.62756 1.01556)
(108.326 -0.58353 0.313169)
(107.01 -2.35289 -0.481095)
(109.797 -4.0737 -0.71592)
(107.781 -5.23381 -0.921321)
(107.86 -5.83018 -0.765539)
(105.624 -6.04629 -0.570644)
(104.13 -4.16089 0.712225)
(99.4645 0.916819 1.77263)
(99.3428 4.52297 1.36009)
(100.866 5.49061 0.856447)
(190.661 -240.41 -183.797)
(50.2538 -95.6576 19.7743)
(152.425 -45.3711 11.8327)
(94.8509 -30.1488 11.5928)
(124.142 -17.5876 11.8447)
(107.422 -11.4559 8.31308)
(112.173 -5.80236 7.09466)
(98.7651 -3.20003 3.08366)
(97.5549 -1.17411 -0.854175)
(88.4602 0.160469 -2.72485)
(88.2113 0.856416 -2.8566)
(82.6172 1.47432 -2.72204)
(81.1203 1.36434 -1.2354)
(75.3367 1.06444 -0.841733)
(73.9463 0.273229 0.0878602)
(70.5326 -0.277663 0.432126)
(70.3429 -0.539541 0.69911)
(69.7936 -0.945407 0.687061)
(70.5752 -1.24356 0.19657)
(74.9048 -0.654024 0.302546)
(226.467 -299.642 -258.935)
(-195.234 -11.6675 10.5276)
(77.5222 -15.914 8.0089)
(-25.5284 -2.00177 2.5235)
(51.1069 17.0763 -0.936572)
(23.0616 11.9621 -4.54084)
(50.0475 18.0881 -1.98099)
(38.2197 11.8682 -2.31436)
(49.1962 12.7445 -1.1417)
(42.7563 8.76895 -0.748114)
(47.4469 7.58453 0.855853)
(42.0746 4.57937 1.48796)
(43.1027 3.34187 2.27272)
(39.1304 1.78481 1.96742)
(39.4011 1.50502 1.44594)
(37.3086 1.23454 0.643183)
(37.4765 1.24847 -0.231395)
(36.6257 1.06498 -0.787459)
(36.9382 1.19023 -1.63225)
(39.75 0.840982 -1.6191)
(92.0112 -61.4233 -54.9778)
(-67.7069 -51.0521 -21.4371)
(72.6345 -88.2746 -7.63994)
(-32.1493 -41.1683 -4.36839)
(43.4614 -36.6094 1.64163)
(-5.10248 -15.2154 -0.955099)
(34.0427 -8.92291 0.668773)
(11.9029 -0.00044714 -0.248452)
(31.4323 0.478513 0.746113)
(20.7461 3.53878 0.533679)
(29.9104 2.61232 1.26269)
(23.3029 4.08243 1.04595)
(27.235 3.40576 0.938453)
(23.1977 3.89299 0.341263)
(25.2579 2.98736 0.0775887)
(23.6778 2.58572 -0.265605)
(25.0468 1.78867 -0.27696)
(25.0487 0.958536 -0.347673)
(26.0772 0.179187 -0.346291)
(29.9355 -0.134906 0.0604422)
(326.127 -80.5604 -79.7624)
(121.297 -45.5969 -3.58186)
(105.512 -20.2004 -10.8284)
(7.37765 -11.1564 -2.2618)
(45.4233 3.683 2.41843)
(5.11263 6.09872 -0.054791)
(32.4524 8.11904 1.13204)
(14.1002 7.9277 -0.0678206)
(28.3384 6.89456 0.337545)
(17.9668 7.08178 -0.0161386)
(24.4627 5.52647 0.490442)
(17.9748 5.43311 0.315224)
(21.3724 3.86582 0.454544)
(18.44 3.37293 0.229357)
(20.7448 1.9066 0.197583)
(19.9376 1.46483 0.112449)
(21.4334 0.500219 0.168916)
(21.786 0.126379 0.0736944)
(22.7216 -0.712745 0.149346)
(26.3323 -0.860029 0.341341)
(-10.2887 181.184 9.61465)
(-170.995 23.672 -19.2258)
(62.6461 27.9257 -6.64649)
(-70.3699 -9.463 -2.36813)
(42.541 -19.5601 1.23882)
(-24.2816 -8.79717 1.64275)
(28.937 -13.9503 2.0301)
(2.08613 1.26387 1.10768)
(25.7238 -2.67433 1.10471)
(12.4102 6.20339 0.267947)
(22.8019 2.49958 0.608779)
(15.7469 6.44108 0.0883873)
(21.0281 2.94605 0.152649)
(17.9914 4.08609 -0.072884)
(21.4905 1.70872 0.0731237)
(20.8157 1.57067 -0.03444)
(22.7733 0.122488 0.231733)
(23.1973 -0.373513 0.190649)
(24.0308 -1.70519 0.282953)
(27.3297 -1.6406 0.393978)
(-24.6563 -25.3003 -113.154)
(-93.1323 -46.4256 -5.18951)
(108.77 -8.09705 0.851885)
(38.26 -9.08705 3.22647)
(76.3919 -13.473 17.9666)
(26.7505 -3.17298 8.03361)
(43.3194 -11.4009 5.73523)
(22.7216 1.25817 3.68481)
(30.3306 -0.90273 2.06001)
(20.5477 6.44121 0.846559)
(23.8234 3.79554 0.324371)
(19.6006 6.00244 -0.0283932)
(22.3937 2.79019 -0.178486)
(22.1335 2.47105 -0.284762)
(24.5551 -0.156631 -0.386117)
(25.5043 -0.102586 -0.317892)
(27.1943 -1.65282 0.125146)
(27.7858 -1.37046 0.421285)
(28.2411 -2.40128 0.687702)
(30.5622 -2.13242 0.571209)
(185.941 -98.8175 157.219)
(13.3485 -50.4995 68.8849)
(133.632 10.1271 42.3615)
(39.3517 1.96249 7.16768)
(88.9995 14.0891 10.3443)
(33.8366 12.6102 2.97055)
(45.4505 -11.6783 6.35455)
(19.9907 9.92917 5.60968)
(27.9482 -1.49735 3.60397)
(17.143 11.6517 2.03562)
(23.775 3.05324 0.58636)
(20.6211 7.53042 0.12615)
(26.1369 0.434282 -0.262892)
(26.8436 1.52976 -0.22972)
(31.7472 -1.72457 -0.0941586)
(33.3315 -1.75246 -0.202197)
(35.3125 -2.39581 0.121601)
(35.0232 -1.67281 0.348984)
(34.0999 -2.2295 0.938161)
(34.0117 -1.95068 0.72526)
(-47.4287 29.426 -95.9923)
(-133.586 -53.8075 -11.1486)
(105.101 -4.10529 -4.15515)
(30.4081 -7.92633 -2.50361)
(96.1619 4.91137 7.53069)
(59.2459 23.3626 2.20808)
(73.2431 19.2878 2.22769)
(47.1878 6.3482 6.02095)
(37.5319 16.5546 5.0284)
(22.7152 8.35055 2.4354)
(25.4125 13.6412 -0.208085)
(24.1418 7.70224 -0.776431)
(30.2515 7.45689 -0.926381)
(32.7554 1.8022 -0.044711)
(35.002 -6.73643 0.37838)
(37.1514 -4.57253 0.0931988)
(37.2343 -3.37215 -0.543497)
(35.8328 -0.370213 -0.257874)
(33.332 0.534659 0.806424)
(33.2865 -0.0188202 0.516408)
(132.243 43.1862 -189.55)
(14.1233 -53.4513 -13.2602)
(130.929 10.7431 -23.5478)
(39.9706 4.02333 -9.03366)
(97.4415 27.5949 9.67664)
(77.727 28.3376 5.8895)
(84.5663 30.3549 6.11306)
(57.3554 22.0399 1.25968)
(44.3876 24.2828 4.50411)
(32.0319 16.9133 3.28053)
(30.0418 13.8137 -0.240874)
(31.1288 7.71205 -1.52945)
(35.3222 4.46571 -1.1113)
(37.9087 -0.661786 -0.259576)
(36.6497 -1.7914 0.498827)
(33.1847 -4.01189 -0.700651)
(31.8574 -1.44121 -0.686887)
(30.3066 1.42526 -0.6162)
(28.8328 2.00448 -0.187708)
(31.0828 0.26019 -0.0932688)
(96.5466 119.498 73.6558)
(-204.314 -73.8037 -27.8398)
(82.5207 -6.44793 -20.5546)
(-32.7632 -16.9005 -14.5889)
(64.8832 20.312 2.24986)
(39.7271 28.0976 -1.68706)
(67.1114 34.5854 5.04611)
(58.8872 32.0999 1.54471)
(45.3366 25.4912 3.91361)
(40.5365 17.4341 1.39241)
(41.6771 8.8118 -0.937196)
(43.6675 2.64659 -1.51659)
(44.7228 -2.02083 -1.07259)
(42.5158 -3.4475 0.304013)
(39.5952 -4.35023 -1.06537)
(35.3638 -3.37965 -0.229777)
(32.4093 0.0117007 -0.291402)
(30.9715 1.91008 -0.176667)
(30.429 1.78097 -0.307813)
(32.7446 -0.38169 -0.0541401)
(229.958 41.8457 -6.14189)
(-273.257 -61.4724 -1.28708)
(129.188 -45.8569 -15.6151)
(-53.6689 -12.2623 -9.14313)
(62.1465 20.4869 1.40973)
(19.3618 16.5345 -7.48106)
(45.2 31.6362 0.647654)
(47.1155 32.3436 2.36427)
(45.3366 26.8725 2.2793)
(48.4846 15.8959 0.705221)
(49.6669 8.01194 1.05072)
(49.5828 3.52835 0.478274)
(48.1996 1.26005 -0.289991)
(46.2598 0.64601 -1.04291)
(42.7153 -3.36711 -0.14427)
(36.1794 -0.609053 0.10123)
(33.1296 2.68646 -0.242873)
(32.3063 3.31081 -0.215705)
(31.5367 2.48845 -0.148462)
(32.9062 -0.42527 0.14893)
(113.468 -115.835 168.129)
(-157.271 -27.205 16.5411)
(85.708 -83.4777 -1.01325)
(-68.7327 -6.49724 -3.10831)
(47.5375 9.34162 7.78384)
(-19.2928 12.4417 -2.88992)
(26.7094 16.6863 0.398226)
(39.4736 23.4988 1.34781)
(47.0564 20.0658 1.06116)
(49.7843 13.3501 1.05836)
(49.0998 8.35466 0.426133)
(46.9039 6.23074 -0.800216)
(45.5923 3.74577 -1.21733)
(44.1873 1.67213 -0.642619)
(39.4611 -2.24368 1.58086)
(29.1372 2.19773 0.192117)
(28.7965 3.59136 -0.0663603)
(28.9465 3.35505 -0.00219428)
(29.1179 2.56589 0.298997)
(31.6324 -0.20032 0.592084)
(0.0730442 -80.2814 9.35837)
(-115.176 -13.5666 -32.3218)
(89.1433 -44.7252 -31.9642)
(-30.606 0.536413 -3.73307)
(74.5009 13.5713 1.72397)
(15.081 -29.3567 4.10798)
(48.9157 0.460564 4.12639)
(31.8056 12.1397 1.50022)
(52.5319 13.9918 0.808616)
(45.1048 12.5906 0.395217)
(47.2484 11.4845 0.39042)
(40.0256 8.03307 -0.175599)
(41.26 4.18263 -0.0731816)
(34.5938 1.77758 0.839709)
(24.7599 3.49961 1.28367)
(25.5027 2.68881 0.441565)
(24.7091 2.9956 0.201289)
(25.675 1.98552 0.312687)
(26.3477 1.06416 0.390076)
(29.7392 -1.27873 0.625007)
(29.374 -149.484 -37.6816)
(-74.9376 -25.5967 -45.7642)
(73.448 -48.6249 -23.8699)
(-58.0154 -6.90619 -0.0970897)
(71.3089 -10.8889 1.51696)
(-0.834763 -8.84128 0.709103)
(36.3902 31.0393 0.916103)
(6.30289 -11.4265 0.707543)
(27.026 20.1022 -0.912248)
(14.6683 1.18872 0.70654)
(27.9374 14.4817 0.51542)
(21.5045 3.06635 1.07814)
(26.4521 8.245 0.796631)
(22.6577 1.83981 1.0648)
(25.2788 4.48065 0.554435)
(23.7798 2.66111 0.35311)
(25.4667 2.8702 0.45458)
(26.4986 1.19391 0.398997)
(27.9311 0.0879746 0.430025)
(31.8553 -1.96646 0.566969)
(100.733 147.541 30.8179)
(31.1204 32.4939 -13.9054)
(120.653 -11.6754 -12.6317)
(18.8016 -1.35112 1.73368)
(77.3498 -8.17753 7.51781)
(-3.37815 -6.95461 -0.838779)
(47.4732 16.6028 0.0590396)
(7.35079 1.64504 -0.60309)
(28.5569 11.3617 -0.392552)
(13.1902 4.78401 0.535209)
(24.5119 8.73341 0.286735)
(18.2705 4.92482 0.580065)
(23.7481 6.02666 0.345733)
(21.6914 3.88997 0.311212)
(24.2729 3.68216 0.141208)
(24.7551 1.61075 -0.147388)
(27.2981 0.495145 -0.259792)
(28.7568 -0.766323 -0.1787)
(30.3341 -2.2956 -0.0582531)
(34.6901 -3.63896 0.390069)
(76.1915 14.75 117.133)
(-7.95448 14.5142 24.9975)
(94.6781 5.65718 -18.1013)
(11.68 20.4757 -5.30581)
(69.8694 24.2422 -2.09039)
(5.42708 8.14902 -2.19299)
(47.7089 23.5838 1.03952)
(12.8561 2.64183 -0.446687)
(35.0438 15.4127 0.452831)
(17.2716 3.47829 -0.0787282)
(29.6549 9.85635 0.187274)
(21.4474 3.12982 -0.143584)
(28.1998 5.0735 -0.0840597)
(25.0799 1.20143 -0.335332)
(29.196 1.37486 -0.299481)
(28.6522 -0.403596 -0.571819)
(30.9948 -1.01455 -0.669409)
(31.9394 -2.14734 -0.869958)
(33.9396 -4.11853 -0.765617)
(38.4267 -4.89911 -0.0615915)
(233.957 87.3353 -149.048)
(41.2114 45.2871 -33.2975)
(116.279 50.9163 -30.6455)
(12.4718 20.1073 -6.8387)
(76.8037 34.0187 -2.41407)
(0.781452 7.59478 -1.00766)
(52.1658 20.5887 0.47257)
(10.3648 8.50872 -0.889042)
(38.5542 12.4339 -0.933743)
(20.0263 7.3492 -1.14633)
(34.4938 7.37199 -1.16104)
(27.5953 5.09241 -0.88551)
(35.2778 3.98601 -0.564968)
(33.3258 2.40114 -0.327142)
(37.554 1.10799 0.0358285)
(37.1926 -0.383955 -0.249977)
(39.4001 -2.33375 -0.552616)
(39.2938 -3.85041 -0.987387)
(40.431 -7.00408 -1.15471)
(43.1449 -6.92512 -0.539047)
(-124.87 105.518 88.765)
(-158.824 64.411 -48.2912)
(62.1006 64.6345 -15.8681)
(-75.4374 34.7085 3.66427)
(73.9616 40.4287 2.35461)
(3.34053 18.1427 0.303312)
(57.3405 19.3933 0.950604)
(29.7214 9.9965 -1.20219)
(52.7298 9.53632 -1.50468)
(42.5619 5.35362 -2.23479)
(54.385 3.90565 -1.68441)
(51.1496 1.31655 -1.87254)
(57.2572 0.0170121 -1.10375)
(55.8301 -1.3107 -0.924499)
(58.2286 -1.65898 -0.415287)
(56.5181 -1.96467 -0.28562)
(56.3675 -2.48916 -0.0731307)
(54.3095 -2.61412 -0.156147)
(53.345 -5.62622 -0.648726)
(52.8729 -6.0608 -0.713684)
(73.8887 -101.462 -162.069)
(-100.375 -22.0383 -0.712104)
(79.4922 -5.02643 -34.0117)
(-36.6689 1.48988 -12.0376)
(66.5457 -3.36354 -12.1659)
(6.36929 6.06346 -5.37261)
(61.4263 5.54292 -2.12891)
(42.6533 6.84622 -1.16188)
(66.7963 5.34295 0.00646684)
(59.3647 3.7632 -0.0933718)
(69.8959 1.77843 1.10493)
(65.86 0.898884 0.728577)
(69.6427 0.339867 1.45737)
(66.7402 0.790179 1.12272)
(67.735 1.1246 1.27618)
(65.9434 1.78053 1.05842)
(66.2026 1.56165 0.910119)
(64.8147 1.24197 0.319574)
(65.0977 -1.72081 -0.805166)
(64.8977 -3.75209 -1.7654)
(310.279 336.211 -374.338)
(-31.3054 124.245 -5.57879)
(106.853 97.9844 35.3254)
(60.7959 69.7187 20.1741)
(117.682 41.5712 21.17)
(85.4818 17.1944 15.17)
(102.545 0.0832809 12.2394)
(86.3399 0.782205 7.09552)
(98.1882 0.741247 4.67014)
(93.6568 2.65201 1.96827)
(100.756 2.61826 1.27616)
(98.5274 2.68028 0.0835078)
(101.145 2.13959 0.135301)
(98.9368 1.644 -0.0353447)
(99.3513 1.12303 0.502624)
(97.5736 1.0415 0.853455)
(97.1412 1.05013 2.07431)
(96.6107 1.82171 2.81317)
(98.0643 1.93037 2.60089)
(99.4405 0.746819 1.72323)
(247.078 -269.974 -183.536)
(-53.3811 -143.538 24.8211)
(141.932 -72.8934 21.4615)
(90.6601 -28.802 14.187)
(117.181 -1.19133 9.67104)
(94.0265 2.72092 5.50625)
(99.8195 2.15178 5.15343)
(87.3975 1.3183 1.56004)
(88.0539 0.377312 -0.885523)
(79.1058 0.472778 -2.86615)
(78.1266 0.0942639 -2.62341)
(70.9899 -0.0967457 -2.18399)
(69.8824 -0.409233 -0.238889)
(65.3767 -0.614843 -0.0239791)
(65.2038 -0.619789 0.536837)
(63.6043 -0.384284 0.481257)
(63.8101 0.00647537 0.511323)
(63.3912 0.338147 0.34315)
(63.6626 1.26447 -0.679472)
(64.4875 2.13384 -0.60324)
(215.73 -210.009 -40.0798)
(-137.302 -11.0983 23.8122)
(58.0736 -5.66055 -9.38939)
(-38.3134 6.3977 0.375165)
(43.9437 20.5821 -3.32685)
(11.6476 11.7235 -4.70104)
(41.3694 16.8139 -2.09274)
(25.8183 9.60435 -2.72176)
(38.3823 10.2497 -1.56741)
(29.3296 5.71054 -1.30187)
(35.1714 4.93864 0.587216)
(29.4983 2.43823 1.19416)
(32.4944 2.44846 2.01156)
(29.5983 1.68931 1.52592)
(31.2638 1.93763 0.999273)
(29.7646 1.75943 0.158232)
(30.3191 1.75383 -0.522522)
(29.4605 1.50374 -1.06078)
(29.6122 1.53882 -1.84045)
(31.6257 0.840635 -1.54556)
(129.552 90.2658 -158.985)
(-107.051 -15.163 -23.6713)
(65.9781 -77.0209 -4.74172)
(-49.0145 -31.9717 -2.20261)
(36.0084 -27.6389 1.23658)
(-17.687 -9.84797 -0.229061)
(26.209 -7.24303 0.725141)
(0.553421 -0.0833359 -0.244788)
(22.8208 -0.757429 0.843374)
(9.90085 2.49012 0.431866)
(20.8221 1.46742 1.28241)
(13.6461 3.29848 0.854574)
(19.0626 2.56651 0.850848)
(15.2074 3.21817 0.195178)
(18.0514 2.32529 0.0193864)
(16.4172 2.07727 -0.302341)
(17.9164 1.23795 -0.256292)
(17.7145 0.731523 -0.331711)
(18.6012 0.182245 -0.324946)
(21.8972 -0.139952 0.164396)
(206.919 -197.451 -30.8077)
(87.4588 -68.7819 5.85394)
(89.2105 -23.2819 8.02984)
(-11.3676 -8.30721 3.27085)
(34.0442 2.46448 3.22645)
(-8.93271 4.34888 0.47494)
(23.5644 5.21119 1.51242)
(2.45427 5.4848 0.17743)
(19.5037 4.307 0.542164)
(7.51793 5.21 -0.0179131)
(15.9661 3.83841 0.47)
(9.34877 4.34774 0.200911)
(14.0814 2.98012 0.373949)
(11.2221 2.86969 0.149322)
(14.0173 1.56891 0.160956)
(13.07 1.3405 0.0540013)
(14.663 0.409422 0.134399)
(14.8131 0.181735 0.0645722)
(15.673 -0.546644 0.167242)
(18.9532 -0.666573 0.449841)
(128.387 -40.719 118.241)
(-98.9986 -20.693 -21.4948)
(49.6718 23.4775 -20.3972)
(-71.6262 -9.74061 -0.757533)
(31.6037 -15.5401 -1.88811)
(-35.2196 -7.12219 2.03993)
(21.4227 -14.4138 1.75876)
(-8.50786 0.644545 1.20958)
(17.5569 -4.90827 1.29781)
(2.48919 4.70145 0.248348)
(14.5963 0.362454 0.602548)
(7.0186 5.0335 0.015756)
(13.3743 1.43887 0.149684)
(10.0835 3.22161 -0.0993377)
(13.8803 0.965314 0.0646389)
(12.8882 1.23476 -0.0365849)
(14.8177 -0.0933743 0.202846)
(15.0189 -0.304779 0.129902)
(15.8758 -1.37327 0.290945)
(19.0753 -1.28603 0.505345)
(85.8826 -112.697 -53.6539)
(-122.451 -78.1254 -16.3875)
(66.7089 -12.0928 -2.71913)
(-23.6234 -20.9094 0.415898)
(44.4965 -17.2135 14.4635)
(-2.05758 -2.28956 6.04254)
(29.3522 -12.1241 5.54273)
(9.43859 1.84503 3.23757)
(20.7253 -2.46089 2.0567)
(10.7353 5.34134 0.754749)
(15.5136 1.69082 0.246919)
(11.1638 4.58299 -0.0621898)
(14.4511 1.18814 -0.177519)
(13.8856 1.78607 -0.229082)
(15.9385 -0.442196 -0.25948)
(16.2078 0.091913 -0.204942)
(17.3687 -1.10064 0.120727)
(17.6722 -0.734122 0.317276)
(18.2452 -1.7827 0.587061)
(21.0882 -1.55282 0.637391)
(126.895 -99.6823 80.9272)
(-90.4352 -80.2912 11.69)
(116.517 -8.65093 13.9128)
(-4.34671 -13.1963 2.37001)
(65.809 6.01132 8.30958)
(1.15009 10.5684 1.7755)
(25.0526 -16.1319 5.25653)
(1.07274 11.4987 4.67686)
(15.5311 -3.69701 2.79335)
(6.26206 10.2665 1.69836)
(14.7505 0.123091 0.450094)
(11.376 5.67769 -0.0113637)
(17.1112 -1.56801 -0.377017)
(16.8592 1.011 -0.114187)
(20.9905 -1.62745 -0.0737485)
(21.077 -0.945034 -0.166094)
(22.0279 -1.38143 0.099093)
(21.4453 -0.758667 0.254178)
(21.0574 -1.48152 0.808847)
(22.8519 -1.41151 0.72944)
(100.842 129.779 90.9995)
(-20.7936 -16.8231 -61.2231)
(94.9935 -18.4003 -25.927)
(11.5002 -18.1145 -8.4946)
(72.441 0.266743 5.8027)
(25.5779 24.9394 1.51552)
(42.5679 14.8017 3.46476)
(16.8699 10.9205 6.6897)
(18.0599 12.6982 4.01675)
(11.9143 8.41149 2.0343)
(16.8296 9.77332 -0.607063)
(16.0257 5.65359 -0.704233)
(21.6026 4.88412 -0.944894)
(22.9695 1.52683 0.149309)
(23.6319 -4.55284 0.364236)
(24.9154 -1.74737 0.194067)
(24.1212 -1.26347 -0.292956)
(22.4244 0.690931 -0.10194)
(21.2953 0.314145 0.670576)
(23.2063 -0.346761 0.575164)
(225.258 16.8615 -178.212)
(80.7516 -40.8083 -38.7849)
(129.183 24.3645 -19.5285)
(3.06999 5.19337 -8.09327)
(61.8114 29.4577 5.91898)
(32.4701 31.3333 3.56683)
(43.9787 30.4371 5.34457)
(24.9356 19.5396 3.48063)
(23.8054 19.0858 4.60049)
(20.5649 11.3441 2.20493)
(23.1043 9.28876 -0.791751)
(24.0229 3.80819 -1.86614)
(26.861 1.77651 -1.16798)
(27.5849 -0.798897 -0.18355)
(26.66 0.38091 0.318908)
(22.8111 -1.11414 -0.311542)
(21.4159 0.265633 -0.449684)
(20.3583 1.3903 -0.348185)
(19.7298 0.979895 -0.0781164)
(22.2614 -0.710462 0.158968)
(276.124 -26.5482 -26.4348)
(-237.299 -43.1925 -13.5752)
(73.2967 12.8415 -28.922)
(-73.4824 -8.1966 -10.6329)
(38.7316 24.5021 0.110655)
(-0.189942 29.9036 -3.23043)
(30.1886 35.8439 3.94268)
(33.1152 23.9981 3.29868)
(30.3413 17.0679 3.74648)
(32.1029 9.54132 0.702436)
(33.3197 3.54316 -1.4372)
(33.8859 -1.58234 -1.83032)
(33.0995 -4.16038 -1.03386)
(31.0914 -3.9384 -0.137961)
(27.8008 -3.54219 -0.473547)
(23.6001 -0.758704 0.305236)
(21.8316 0.647327 -0.064175)
(21.3443 1.11543 -0.118243)
(21.1396 0.148659 -0.102398)
(23.4107 -1.45941 0.2142)
(165.626 -250.234 -38.7689)
(-212.398 -68.8662 4.75571)
(103.392 -42.9265 -32.6861)
(-80.4833 -12.3323 -3.55343)
(46.1249 16.1289 -1.19414)
(-8.3317 11.3344 -7.01381)
(20.2004 23.6819 1.19808)
(31.9116 22.5032 3.21328)
(36.1007 16.9009 2.41285)
(39.5587 7.72822 1.25277)
(40.7322 4.05441 0.548514)
(40.8297 -0.0160185 -0.511603)
(36.652 -0.565095 -1.07124)
(34.0205 -1.35514 -1.17984)
(29.9637 -3.53407 0.287631)
(24.4731 0.860999 0.380366)
(22.5856 2.00524 0.0880702)
(22.2507 1.63568 -0.0268496)
(21.5334 0.290852 0.188487)
(23.0636 -1.64262 0.371916)
(80.4565 -305.991 146.015)
(-191.927 -41.9964 -10.3402)
(63.95 -81.7105 -6.55815)
(-92.8564 -5.22907 -1.30811)
(36.1251 -0.40374 4.35671)
(-27.8868 -0.0687194 -0.644366)
(21.2701 3.63171 1.90518)
(33.5639 14.7224 2.18719)
(38.625 13.601 1.29369)
(39.2752 9.27173 0.989095)
(38.426 5.42883 0.264386)
(35.9992 3.36919 -0.952044)
(34.107 0.981003 -1.15554)
(31.773 -0.834346 -0.269184)
(26.8504 -1.39874 1.52124)
(19.923 1.9443 0.324879)
(19.9753 2.24838 0.156032)
(19.975 1.57034 0.22573)
(19.9276 0.552263 0.478373)
(22.2441 -1.29689 0.67703)
(192.802 -121.986 -114.418)
(-16.3613 -45.9263 -66.2993)
(87.4855 -50.4283 -47.9783)
(-37.8106 -4.15863 -6.40488)
(66.0645 1.14565 -1.45537)
(-0.185193 -38.1561 3.71664)
(34.4954 -3.10495 3.99196)
(15.0085 7.64671 1.83787)
(36.5387 11.5121 0.946586)
(27.0893 8.90802 0.538362)
(32.9401 7.66032 0.350129)
(25.8234 4.15118 -0.147708)
(27.5628 1.78102 0.143643)
(20.489 0.0561422 1.26316)
(16.0306 2.98831 1.07208)
(17.6586 1.67546 0.361438)
(17.1436 1.99982 0.229376)
(17.8678 0.90726 0.387343)
(18.1919 0.129034 0.474523)
(21.0488 -1.60876 0.690405)
(257.082 -40.3453 173.804)
(-24.5492 -27.8834 -28.5366)
(71.8766 -46.2722 -21.8334)
(-57.3223 -9.61879 -1.79856)
(62.5866 -16.1996 -0.37726)
(-15.2499 -12.5793 1.31401)
(26.05 29.2487 0.855965)
(-5.92035 -16.8185 0.825072)
(17.3682 18.3805 -1.08755)
(3.5486 -3.41375 1.14528)
(17.8001 12.0672 0.389884)
(10.308 -0.174555 1.05276)