/*--------------------------------*- C++ -*----------------------------------*\
  =========                 |
  \\      /  F ield         | OpenFOAM: The Open Source CFD Toolbox
   \\    /   O peration     | Website:  https://openfoam.org
    \\  /    A nd           | Version:  10
     \\/     M anipulation  |
\*---------------------------------------------------------------------------*/
FoamFile
{
    format      ascii;
    class       volScalarField;
    location    "2.1";
    object      k;
}
// * * * * * * * * * * * * * * * * * * * * * * * * * * * * * * * * * * * * * //

dimensions      [0 2 -2 0 0 0 0];

internalField   nonuniform List<scalar> 
12920
(
134.224
899.828
872.203
829.909
748.552
698.011
611.95
437.553
282.601
200.334
170.782
164.587
163.296
159.209
142.965
110.854
83.5372
65.93
55.0808
45.873
2691.88
2162.38
2178.26
2016.59
1525.8
1263.02
918.428
634.004
397.209
254.437
197.129
174.134
160.551
146.058
131.097
117.346
112.258
106.425
104.064
96.4345
11969.2
5578.09
3340.05
2193.73
1297.54
939.662
668.257
559.088
440.108
350.098
270.982
210.536
172.314
147.655
132.672
120.682
116.077
108.356
104.386
91.431
5160.96
2927.88
1969.66
1035.24
699.237
606.089
512.323
463.063
398.812
332.039
256.406
195.496
153.148
124.024
103.006
88.7284
83.2675
80.3069
78.5125
68.5935
7793.8
1627.48
1603.32
1163.05
852.932
717.65
588.239
506.392
439.228
381.33
302.843
225.697
168.463
124.359
89.0047
60.7172
43.0853
34.0004
31.3849
25.4886
1037.97
2208.32
1947.52
1464.88
1112.18
907.861
720.453
595.163
472.198
380.011
312.448
251.733
189.703
132.986
84.1676
45.5441
22.5451
12.2232
9.19465
5.43822
1217.99
2898.54
2414.06
1666.66
1234.34
1019.67
764.438
708.052
614.831
440.6
337.885
264.275
188.148
110.238
48.1945
21.1511
13.7937
11.5905
11.7818
11.507
1909.28
3397.12
2382.19
1681.29
1256.78
1029.32
586.067
325.64
364.041
358.217
243.4
189.377
142.662
77.9015
37.5364
31.3146
35.0701
40.8286
44.6158
40.9059
2081.83
2348.44
1626.15
1338.81
1181.59
762.894
379.641
131.365
207.668
270.354
223.701
146.171
103.104
63.7304
33.9339
63.5897
79.4305
90.0571
93.4407
82.7619
1286.18
1089.09
1262.16
1201.38
1082.53
703.17
422.931
189.424
135.077
227.531
248.714
202.466
126.859
98.774
91.4445
144.676
144.553
136.74
129.62
108.998
527.978
1860.28
2160.91
1901.86
1242.4
657.234
349.887
165.692
94.4549
142.778
202.693
204.267
165.731
142.582
137.871
136.475
128.719
126.068
124.027
113.819
1358.91
4428.94
4097.33
3170.95
1588.06
608.641
275.622
149.539
111.301
114.468
130.885
157.941
154.456
145.132
137.192
140.352
154.256
158.969
156.212
133.154
2697.45
3790.36
3238.04
1696.71
868.099
567.468
309.932
202.371
175.492
169.926
158.421
136.918
110.688
92.6554
175.492
158.494
139.702
128.731
124.876
106.929
660.586
1806.26
1792.46
1365.66
847.84
541.72
395.888
306.099
270.379
228.708
206.647
184.792
171.448
154.977
141.53
116.422
93.1575
70.7346
63.7761
51.5016
2176.81
2615.11
2191.87
1691.03
1048.86
554.18
324.551
257.647
226.518
198.304
174.774
155.324
139.343
121.766
106.198
88.6566
72.9296
59.426
51.7619
49.6935
2215.27
1668.69
1779.62
1537.4
945.242
605.284
364.234
292.223
238.311
209.833
177.864
156.335
135.883
118.925
104.516
88.3214
77.6886
65.2503
60.01
47.7051
6223.21
3145.77
1824.08
1044.41
709.391
496.819
385.96
325.9
265.608
227.14
181.007
150.265
125.834
109.833
96.6084
82.7803
68.2321
51.7668
39.4817
24.3833
6946.35
3135.9
2121.17
1208.86
766.076
628.238
508.668
452.592
364.143
324.869
274.074
234.988
184.331
144.364
115.857
94.5446
82.4168
68.0927
60.9108
45.3068
3189.68
2396.74
1899.2
1046.02
601.962
495.705
408.184
354.321
274.145
234.407
199.123
178.321
151.602
126.349
105.483
88.6758
78.2252
63.3853
56.7328
42.8671
2423.3
1649.43
1555.55
1399.48
1229.97
811.222
433.537
263.654
190.323
150.207
119.097
95.405
79.9294
71.4927
67.4544
62.2007
58.465
52.1915
48.6803
38.5414
332.965
2699.85
2826.61
2473.79
1728.8
1181.42
750.178
481.495
364.961
354.814
372.412
386.98
384.819
365.633
313.629
252.846
203.018
157.589
135.264
113.616
14124.5
6894.48
5615.23
4330.33
2895.81
2536.87
1664.62
1028.36
614.975
507.871
472.34
452.616
424.667
393.486
363.461
340.025
329.015
308.16
296.825
265.409
17031.6
9665.68
5906.56
4097.31
2467.36
2162.02
1587.64
1432.8
1095
889.8
677.451
551.403
471.053
418.157
384.922
358.558
344.68
318.127
300.767
249.014
9145.17
7058.82
4627.98
2416.87
1656.34
1512.59
1261.16
1187.68
997.597
847.945
646.951
511.783
413.565
345.757
295.344
267.644
257.715
241.096
225.112
170.379
15533
5848.64
4145.95
2553.36
2038.97
1785.49
1408.81
1309.81
1108.7
989.418
752.337
566.759
431.896
310.839
217.522
154.301
119.303
93.021
79.0308
46.7481
4982.72
7716
4984.22
3285.16
2502.54
2202.44
1766.69
1537.86
1212.3
998.142
815.486
653.495
466.325
290.416
157.883
80.1775
40.0765
21.0539
14.0018
6.80573
1801.36
6539.6
5543.1
3787.72
2787.07
2455.41
1950.49
1810.57
1493.46
1112.19
859.655
642.247
403.925
198.681
83.5533
38.0855
23.7054
20.0545
21.9441
22.7205
6136.16
7607.24
5412.51
3834.2
2885
2477.32
1887.87
1634.72
1512.07
1218.77
889.72
660.867
433.342
202.161
82.1669
68.181
73.8727
86.8534
101.127
92.1743
1953.34
5299.18
4261.05
3518.56
2900.29
2486.48
1813.58
1330.7
1336.48
1266.61
1008.28
732.019
492.876
246.285
117.073
187.494
221.467
238.881
246.69
215.538
1622.39
2804.43
3223.27
3132.89
2763.69
2457.94
1969.44
1352.79
1089.83
1168.61
1062.49
837.326
627.439
434.57
292.284
377.907
388.511
387.543
382.258
339.666
408.733
3868.74
4583.96
4073.46
2848.14
2234.66
1645.82
1143.33
808.977
920.091
909.502
774.495
698.16
584.141
383.49
352.045
359.88
370.159
368.408
347.259
3347.94
9291.05
7116.18
4374.2
2177.15
1809.78
1297.95
1015.32
766.85
726.2
755.844
701.474
613.588
558.409
374.066
386.562
412.496
423.571
419.502
372.58
21361.5
8845.9
4929.98
2713.48
1577.93
1339.62
1040.2
936.733
745.458
676.898
623.398
556.016
481.557
414.353
437.96
396.196
373.751
359.613
349.395
293.398
2086.52
5369.69
4958.02
3292.7
1635.88
1283.24
979.82
823.716
705.226
596.696
525.431
471.373
433.345
393.121
363.957
311.947
264.298
203.676
179.424
136.318
9966.26
12856.5
7351.1
3947.04
1824.91
1205.78
768.056
696.205
605.598
526.849
457.229
409.284
365.986
326.775
293.108
249.193
208.142
170.152
156.005
155.889
6417.37
6663.22
4829.99
3260.48
1725.78
1342.51
813.106
745.331
614.077
544.883
458.375
406.155
352.612
312.616
276.337
237.729
207.316
173.032
158.655
129.577
14952.6
8288.97
4107.59
2372.42
1671.29
1207.37
969.258
797.127
652.271
559.082
449.896
384.088
321.16
276.221
231.371
187.911
149.428
109.179
83.4608
49.2491
10990.3
6383.81
4179.35
2476.18
1681.82
1502.21
1166.54
1010.72
801.621
730.705
613.655
545.96
434.331
353.088
283.583
235.64
201.059
160.753
144.154
106.05
11514.2
6718.42
3655.68
1995.6
1083.64
1034.04
877.509
749.74
579.287
520.651
447.487
407.223
348.492
300.178
251.151
210.506
178.657
136.975
116.625
76.8525
2562.13
2696.21
2392.38
1875.65
1315.17
805.098
516.166
401.265
328.718
277.792
224.374
184.65
157.157
144.355
135.113
124.218
118.051
107.979
99.4678
71.5658
1454.6
2564.35
2633.84
2068.7
1354.36
907.002
645.109
546.582
514.753
510.452
499.365
475.122
439.603
390.351
332.696
269.826
220.783
177.602
157.963
131.475
4005.63
6862.64
6162.72
4345.04
2588.08
2173.84
1500.89
1346.85
1117.61
1047.26
906.994
817.647
729.555
657.213
593.277
543.568
509.49
466.303
442.1
382.432
12948.1
9729.48
6098.14
4005.89
2680.49
2403.53
1935.19
1793.98
1470.68
1251.4
1006.5
856.531
737.495
658.571
602.183
558.467
523.99
475.748
441.149
345.893
13276.9
9215.74
5588.04
3094.22
2381.4
2088.66
1823.33
1689.89
1402.14
1190.51
938.339
771.458
636.852
545.607
481.095
441.803
414.063
368.461
324.749
207.692
48800.8
12337.5
5156.09
3273.46
2766.9
2337.65
1985.42
1845.1
1545.24
1312.26
1012.65
786.597
597.399
450.28
348.648
280
225.231
169.282
121.663
58.4187
10117.9
10690.2
6468.09
3991.53
3112.52
2587.62
2152.92
1914.52
1581.61
1345.04
1070.11
809.001
562.33
373.601
231.119
139.086
78.2883
40.9374
22.5322
11.7096
10767.8
9493.97
6413.46
4503.72
3423.03
2854.58
2338.43
2082.31
1693.45
1382.63
1095.53
799.217
485.122
251.633
122.957
63.3408
38.4033
30.7654
31.9628
36.3981
4522.71
9448.97
6921.42
4765.62
3531.84
2939.04
2414.72
2183.12
1836.29
1470.92
1143.1
844.202
521.156
247.084
132.659
107.787
107.432
115.17
140.117
137.153
3057.64
8067.28
5980.5
4728.54
3547.08
3059.97
2434.91
1990.21
1823.05
1564.8
1215.98
910.455
591.337
299.777
203.909
312.28
334.163
336.123
337.762
290.928
9205.82
5187.12
4922.82
4376.4
3414.77
3005.29
2404.64
1801.28
1639.69
1531
1280.76
1003.94
760.762
532.534
478.997
602.765
621.522
620.796
612.156
521.552
6287.13
5733.69
5527.59
4799.8
3457.26
2746.11
2146.15
1571.67
1335.06
1348.8
857.799
709.458
817.429
690.928
577.549
644.227
682.381
696.874
691.588
634.33
16302.7
8700.86
5511.83
3976.15
2698.19
2324.06
1842.75
1425.85
1162.32
1110.85
1061.69
885.833
751.22
675.001
586.967
675.897
688.299
692.207
682.47
602.97
8982.37
9111.2
5354.34
3114.19
2333.55
1828.33
1565.76
1339.06
1060.9
963.029
878.962
816.349
735.921
674.754
633.237
581.903
562.312
550.254
539.714
471.659
9899.06
13026.2
8866.33
4098.39
2218.49
1665.26
1375.91
1095.16
946.028
785.842
713.095
644.949
600.783
551.065
515.161
468.457
433.114
385.808
367.168
326.3
36108.7
27983.2
11653.4
4697.94
2186.77
1411.21
1179.14
975.219
844.267
705.192
625.852
556.108
509.485
465.244
432.195
394.594
361.391
329.473
319.594
309.962
14645.5
11890.2
6558.28
3540.9
2112.77
1489.41
1158.51
972.091
820.014
697.819
593.324
515.937
452.33
400.384
358.99
316.48
288.046
255.557
241.58
210.301
24062.4
11955.7
5458.04
3008.62
2153.93
1525.58
1252.49
994.268
826.03
690.253
561.431
473.599
391.73
328.646
269.808
217.444
176.603
136.523
120.604
88.4666
10240.1
7808.47
4918.07
3040.51
2305.8
1863.63
1417.39
1179.33
944.091
834.851
687.572
591.236
475.447
400.911
328.88
274.826
223.733
174.678
149.514
99.6778
22130.7
5976.26
3576.44
2128.48
1539.51
1329.26
1009.21
850.913
668.654
614.806
530.87
481.985
411.631
357.323
298.228
248.173
202.908
153.322
127.846
83.4529
3717.28
2377.89
2026.93
1480.86
1059.26
775.91
598.579
481.908
387.851
314.284
255.463
216.063
190.741
174.563
160.647
144.591
132.581
112.358
100.098
66.6169
821.29
1720.57
1985.33
1489.52
1005.33
803.059
688.638
659.148
623.823
589.233
547.792
495.128
435.043
369.075
307.699
250.959
210.123
177.71
156.786
135.166
2400.74
5730.25
5757.69
3853.48
2425.16
1978.27
1756.65
1685.43
1551.03
1411
1242.38
1116.65
1008.5
915.737
838.382
771.957
719.132
653.577
613.713
529.129
12080.2
9275.08
6452.59
3878.13
2974.68
2473.38
2268.24
2001
1720.14
1458.77
1242.54
1090.45
978.246
894.865
835.511
777.488
722.17
651.516
597.441
472.538
13842.3
10361.2
6566.17
3635.58
2940.42
2383.88
2237.34
1934.57
1653.2
1371.89
1135.16
964.09
838.316
751.922
691.747
640.924
589.875
516.739
438.034
308.649
27230.2
12703.1
6091.05
3845.69
3316.07
2593.16
2399.57
2073.02
1760.68
1436.04
1148.83
920.121
741.957
611.116
522.454
449.303
378.591
301.668
229.322
167.951
11727.4
10402.4
6849.71
4310.58
3594.08
2737.22
2481.85
2124.85
1798.71
1473.15
1154.43
866.792
631.687
473.817
355.524
265.603
186.843
133.611
102.2
98.5274
9188.97
9453.16
7163.44
4732.02
3913.72
2963.1
2607.11
2211.35
1834.68
1490.36
1151.83
812.316
514.736
324.966
212.925
149.439
115.767
106.036
106.383
125.09
13568.4
12460.2
7789.77
5210.97
4049.2
3095.58
2668.83
2403.42
1967.15
1571.61
1218.58
853.045
535.028
310.338
239.53
199.25
187.058
189.971
209.686
223.835
10476.9
10383.8
7339.12
5352.07
3976.88
3254.25
2714.02
2315.22
2024.23
1668.63
1274.87
934.861
610.521
388.113
362.265
471.851
455.253
418.804
407.871
352.538
7351.41
6489.03
6522.55
5119.97
3855.15
3158.76
2530.52
2093.5
1930.76
1690.04
1352.2
1060.07
830.221
687.228
733.375
877.67
868.438
818.919
757.146
583.305
4637.43
6631.24
7052.05
5722.9
3916.51
2970.04
2322.7
1838.08
1684.65
1602.72
1132.48
903.207
902.856
841.905
883.91
1021.81
1029.97
1011.83
955.603
771.314
12673.1
8219.11
5853.83
4049.03
3160.14
2639.75
2160.76
1664.84
1444.82
1384.87
1263.74
1059.69
944.31
893.693
923.841
974.855
972.642
949.793
895.773
723.736
9628.54
9978.86
6116.26
3593.75
2987.46
2159.33
1877.29
1553.77
1264.75
1157.35
1061.23
1004.05
933.552
894.056
805.853
763.036
752.11
736.122
718.063
638.35
26031.6
21478
11620
4723.34
2824.3
1926.64
1668.43
1279.25
1127.43
907.336
859.281
766.219
738.665
688.206
667.092
638.198
619.181
603.707
603.425
600.996
24135.5
19436.1
10134.5
4578.51
2555.51
1664.91
1516.06
1159.29
1022.34
815.895
751.871
661.244
631.427
591.359
571.652
549.273
534.333
526.489
528.734
531.91
18734
12113.8
7133.39
3809.93
2526.79
1683.94
1454.05
1114.68
985.209
790.541
697.96
591.967
540.365
483.081
451.271
414.537
394.307
370.382
359.743
334.702
13389
12283
6671.49
3609.01
2580.86
1761.88
1471.3
1099.82
953.847
754.35
639.418
522.869
444.808
374.203
325.658
286.069
259.71
240.254
232.681
217.382
16816.8
9160.79
5379.63
3396.88
2815.95
2019.48
1611.46
1248.99
1051.92
876.811
737.038
615.001
517.041
446.347
385.094
337.953
294.173
262.959
245.332
214.333
7416.03
5602.29
3529.34
2264.98
1907.63
1415.03
1100.54
892.193
752.028
681.646
602.29
535.514
466.009
409.545
351.848
303.656
257.697
216.632
180.724
149.438
2477.8
2662.84
1900.49
1340.17
1006.52
781.041
613.539
480.113
379.013
300.708
248.434
213.102
190.156
171.686
155.982
138.822
124.733
101.089
87.4673
52.5949
1549.39
1318.75
1685.07
1209.21
882.103
790.143
729.164
680.729
624.02
553.858
478.189
392.532
317.965
258.893
218.894
188.398
166.727
148.543
136.15
134.166
6580.92
6491.55
6571.63
3791.2
2930.35
2098.44
2253
1871.09
1929.98
1616.45
1536.87
1324.98
1256.49
1133.46
1080.85
995.941
931.694
843.04
785.088
704.589
15004.3
10603.4
7413.66
4337.32
3654.11
2641.18
2718.4
2115.85
1995.37
1568.02
1472.24
1268.5
1214.71
1112.74
1073.73
987.684
915.843
818.071
746.142
663.137
16551.1
11278.7
7715.52
4282.63
3750.39
2711.45
2747.77
2102.6
1934.74
1471.19
1331.51
1117.24
1049.41
956.729
918.193
840.573
768.131
674.939
605.233
561.813
24883.2
11507
7134.5
4808.93
4051.01
2886.8
2898.46
2217.28
1996.14
1493.67
1279.17
1022.37
908.744
798.025
741.154
655.251
587.589
522.28
490.785
497.647
20239.9
11355.5
8268.18
4988.15
4431.63
2996.9
2999.89
2319.32
2029.18
1524.51
1206.46
898.573
728.309
619.14
548.424
477.196
417.447
390.204
381.954
415.105
23070.3
10335.8
8259.94
5240.05
4765.39
3170.94
3073.09
2396.33
2017.81
1545.57
1150.73
796.425
592.974
483.487
415.432
362.872
338.958
334.703
340.423
393.084
42313
14045.7
9642.18
5834.24
4935.55
3315.2
2978.97
2555.87
2104.67
1638.36
1229.41
838.044
609.29
473.314
439.349
384.487
359.806
359.22
367.438
402.151
38138.3
21666.5
11095
6118.14
4721.47
3432
2998.1
2542.82
2172.77
1723.18
1301.64
949.943
724.502
614.158
616.172
651.133
584.621
509.261
476.686
443.256
19001.9
9847.81
8873.36
5752.44
4457.8
3279.45
2752.04
2397.99
2156.89
1783.1
1387.53
1103.45
975.878
951.778
1031.44
1149.12
1068.41
914.062
777.937
601.987
2912.15
9332.05
10498.4
6702.29
4675.86
3173.37
2536.04
2136.49
1983.15
1757.66
1380.17
1107.24
1056.83
1105.31
1219.33
1339.1
1302.5
1189.82
1029.6
761.077
17166.3
10131.5
7202.95
4552.98
3793.59
2926.55
2504.29
1910.3
1721.97
1599.3
1420
1227.06
1165.62
1179.96
1230.47
1234.09
1197.37
1085.91
962.762
747.387
16472.5
12556
7691.3
4445.08
4074.69
2720.72
2171.47
1715.14
1484.33
1317.86
1246.69
1158.86
1124
1075.03
994.853
957.386
938.116
898.59
856.021
775.819
36553.9
23815.1
12263
4866.21
3854.9
2261.33
2207.72
1592.07
1408.03
1072.62
1054.21
902.061
909.998
847.762
853.746
828.676
831.713
832.091
845.392
870.547
21354.4
14708.6
10611.7
5017.92
3397.71
2165.73
2056.81
1385.56
1276.47
951.535
920.266
783.725
786.792
739.689
741.674
728.705
734.66
742.337
752.815
755.678
15385.7
12653.1
8348.51
4540.94
3299.67
2060.83
1936.9
1310.89
1256.05
914.769
864.812
685.752
671.924
591.676
586.706
546.539
541.887
521.266
513.156
511.063
17415.2
12853.6
7470.65
4460.95
3215.97
2161.5
1835.71
1253.95
1178.39
836.948
775.69
581.758
543.973
455.259
445.341
417.089
417.972
415.858
418.915
430.391
23514.5
11907.5
6410.02
4080.51
3606.92
2210.37
2043.86
1350.44
1286.36
939.516
867.267
659.077
620.53
524.128
513.217
474.588
471.512
459.361
456.779
455.588
9943.49
8570.06
4013.94
3090.71
2436.3
1512.23
1450.27
958.87
968.207
760.837
745.451
600.345
581.219
501.356
491.927
455.933
449.723
432.184
426.369
433.106
2266.9
3105.71
2239.7
1444.49
1002.61
728.372
551.383
410.264
316.145
250.174
212.276
181.278
160.524
140.238
124.055
106.925
91.7417
73.1248
64.0523
43.8241
1351.81
1407.3
1004.8
1662.77
1424.53
1573.43
1113.45
1069.94
905.983
840.772
1342.55
1118.55
1000.21
934.585
974.436
1157.77
1112.07
1551.24
1121.39
1381.46
1282.54
698.828
1061.05
860.294
992.178
813.351
1214.33
992.774
140.847
409.676
223.174
1435.66
1148.82
1535.35
1248.97
178.479
181.628
141.801
1087.6
1114.69
1104.37
934.058
267.449
149.275
228.235
1148.39
1166.23
952.722
1062.75
248.668
244.844
256.239
1139.18
993.219
1068.73
1008.06
164.842
252.284
211.816
912.051
715.889
964.242
799.246
107.926
193.863
126.794
638.474
484.073
738.586
568.071
75.8983
111.462
89.0205
421.651
279.365
523.895
395.586
30.5441
81.0486
47.3831
212.709
95.1593
346.339
219.198
231.78
379.773
214.232
1562.2
1283.41
1356.97
1142.36
131.661
172.693
97.5217
1134.77
878.749
999.034
682.539
207.204
96.753
141.584
886.793
1009.12
678.544
799.909
250.198
167.091
217.895
1028.46
1000.74
850.558
901.956
217.823
223.565
218.978
964.182
818.03
888.537
797.8
143.08
208.284
172.882
761.681
602.247
762.456
665.276
104.662
161.788
143.204
560.976
441.575
639.678
560.066
54.3125
137.244
79.7947
395.944
252.219
516.98
366.096
202.584
307.997
176.384
1289.17
1083.83
1156.47
975.542
96.4225
156.413
112.194
953.239
657.596
887.481
668.012
117.237
105.455
104.698
641.063
725.106
627.345
605.18
195.768
105.754
135.379
777.668
838.786
615.499
685.618
208.173
150.147
170.36
830.094
754.101
696.165
669.151
174.354
170.863
162.84
725.871
655.957
646.333
581.733
147.696
159.44
150.047
635.579
571.923
567.375
537.182
84.7935
146.542
98.4295
536.43
387.433
523.349
409.528
166.167
285.203
156.98
1025.81
925.509
815.614
828.458
112.84
141.902
122.031
855.209
668.1
797.36
679.823
115.116
115.138
115.402
637.033
607.92
640.835
593.624
120.499
117.539
115.802
608.253
639.604
588.688
561.012
155.468
112.096
103.411
652.132
649.063
550.867
529.148
156.381
102.551
96.0792
633.3
578.17
526.315
496.076
148.209
94.9567
86.2621
563.312
528.521
481.396
411.946
100.08
82.7907
47.3463
515.229
414.437
387.263
291.072
1394.67
1921.88
1466.49
2334.6
1930.07
2322.61
1832.77
1323.43
1317.69
1145.76
1870.36
1779.82
1724.55
1608.3
1306.61
1156.1
1212.98
1738.11
1583.49
1596.7
1530.31
1093.04
1208.52
1112.96
1513.86
1272.85
1490.41
1309.5
808.578
1060.86
877.59
1181.9
967.193
1237.44
1018.97
565.396
813.503
637.58
885.335
671.591
949.2
754.215
324.572
588.336
436.921
582.027
364.016
691.397
502.154
114.41
382.441
242.092
289.48
161.941
445.025
334.424
1511.36
1766.91
1366.7
2363.35
1846.83
2202.38
1714.42
1086.65
1209.92
868.642
1717.79
1546.72
1565.72
1310.94
1162.7
860.922
954.851
1534.82
1493.54
1298.05
1316.63
1107.31
995.01
1002.78
1464.9
1310.39
1320.35
1098.65
897.278
971.211
860.458
1244.67
1041.69
1020.02
894.559
672.875
826.097
733.121
976.572
797.284
894.271
852.961
486.425
706.69
613.004
740.039
563.558
824.376
706.143
279.089
564.462
404.206
508.474
385.438
655.618
535.209
1284.4
1436.29
1149.29
2070.64
1631.44
1838.87
1494.53
829.429
1048.99
807.292
1493.05
1242.99
1378.26
1134.68
877.712
762.789
734.234
1224.3
1243.38
1094.44
1063.72
937.365
744.503
794.909
1251.16
1035.81
1068.61
1046.53
804.496
794.384
732.898
945.648
770.936
1006.91
833.509
716.794
701.26
625.526
762.787
805.064
772.801
675.369
624.826
610.725
579.924
799.495
712.699
670.907
653.312
424.196
564.124
434.43
667.705
545.024
633.383
521.417
1100.14
1158.46
1018.13
1734.97
1455.55
1593.44
1387.74
804.043
960.771
813.895
1347.7
1118.84
1298.78
1100.46
726.015
763.852
697.445
1078.01
1027.49
1038.35
944.289
750.929
688.049
656.431
1026.27
1018.2
932.51
894.688
725.238
643.401
614.751
998.756
887.105
877.443
830.383
631.08
609.73
574.07
843.992
737.166
820.239
765.689
574.3
557.637
482.669
713.91
664.797
743.734
662.806
436.318
456.204
347.492
642.927
530.287
637.211
567.958
2047.97
2384.79
1916.36
2654.07
2313.77
2521.87
2138.24
1878.33
1823.51
1717.57
2251.09
2070.28
2073.15
1957.42
1641.17
1698.16
1601.06
1988.07
1746.34
1915.4
1742.5
1308.24
1551.54
1348.01
1652.89
1363.17
1668.46
1411.9
995.554
1271.14
1045.58
1268.23
1028.65
1325.7
1088.6
683.969
974.629
773.91
935.68
693.043
1015.81
812.303
371.386
708.614
518.562
603.25
406.365
749.531
594.024
179.42
464.77
366.526
355.07
263.857
558.68
516.557
1913.12
2264.5
1776.11
2493.49
2097.25
2360.34
1932.97
1656.99
1640.36
1424.51
2023.61
1906.05
1838.1
1699.22
1569.94
1410.78
1408.28
1871.89
1728.24
1680.97
1627.61
1509.79
1480.69
1500.45
1584.99
1460.09
1525.83
1560.19
1229.13
1209.35
1271.16
1308.26
1203.72
1233.82
1299.64
820.218
889.152
876.802
1051.49
867.116
963.757
931.73
584.009
847.435
728.937
810.37
669.245
903.941
813.088
422.093
682.121
576.274
637.182
587.735
787.3
754.541
1700.93
1930.65
1571.99
2282.98
1871.41
2134.39
1753.27
1352.69
1455.23
1223
1773.4
1625.28
1642.63
1451.32
1337.78
1186.18
1155.98
1608.01
1574.75
1423.41
1388.73
1288.07
1280.64
1270.36
1412.28
1231.82
1209.21
1349.75
681.706
771.767
888.31
621.308
786.166
539.783
801.095
820.266
792.932
693.731
822.887
881.272
931.08
834.717
733.138
692.612
678.471
877.098
814.184
826.21
804.159
582.176
658.161
554.025
792.083
762.377
792.602
766.406
1536.43
1721.25
1476.11
2085.12
1721.81
1984.54
1660.04
1201.49
1379.95
1172.93
1610.64
1411.87
1554.65
1339.66
1113.18
1108.24
1012.46
1379.6
1333.39
1277.74
1188.52
1090.61
1000.79
960.193
1325.47
1265.28
1176.54
1122.14
932.711
940.821
888.727
1220.76
1065.19
1098.9
1038.84
775.415
876.797
817.953
1017.7
915.695
1023.65
959.24
697.631
794.411
715.696
893.634
842.884
937.631
878.455
567.471
692.168
627.257
827.515
788.529
864.756
831.072
2383.14
2570.8
2208.29
2910.91
2568.58
2744.62
2426.82
2112.62
2146.52
2018.28
2479.07
2222.87
2362.54
2183.47
1766.73
1968.81
1772.79
2123.65
1812.17
2111.98
1846.06
1370.62
1691.5
1421.26
1700.14
1385.69
1744.02
1440.48
1028.81
1333.31
1094.83
1286.78
1024.09
1348.94
1111.34
694.678
1022.38
825.555
935.253
730.904
1045.05
898.247
432.863
767.672
634.441
677.996
566.378
865.056
806.553
305.746
606.775
576.254
543.383
489.066
797.312
793.188
2160.63
2390.45
1987.43
2678.69
2371.74
2514.99
2180.45
1971.64
1903.17
1776.74
2310.78
2153.77
2116.91
1999.55
1763.63
1755.37
1678.86
2091.66
1849.6
1962.82
1807.49
1436.29
1627.95
1270.75
1753.34
1461.12
1731.04
1440.47
1126.65
1164.54
1018.72
1372.59
1146.85
1344.9
1142.7
882.113
1007.8
950.243
1085.31
953.268
1100.6
1024.24
711.329
924.71
852.596
926.081
882.432
1014.44
1012.55
649.804
835.757
820.498
877.899
874.81
1019.02
1052.22
1926.89
2198.05
1806.93
2467.52
2118.3
2407.36
1983.18
1703.93
1699.45
1520.53
2049.38
1932.88
1884.91
1733.01
1630.89
1494.39
1453.81
1901.98
1774.73
1706.83
1629.1
1256.25
1441.72
1328.84
1713.82
1435.62
1597.1
1446.74
914.996
1259.07
1042.55
1332.13
1105.58
1376.91
1178.43
909.282
984.617
891.033
1063.45
1009.26
1129.81
1058.6
854.796
881.04
863.829
1007.18
1021.41
1055.54
1070.61
830.096
858.131
847.235
1031.62
1071.23
1079.53
1111.6
1774.74
2072.75
1707.93
2401.27
1943.81
2321.73
1831.21
1475.2
1599.8
1386.28
1837.67
1671.4
1719.37
1523.42
1396.54
1326.31
1240.47
1644.05
1570.97
1477.25
1389.59
1311.34
1226.9
1166.1
1543.16
1430.07
1363.99
1285.31
1105.81
1141.97
1081.65
1377.47
1221.99
1264.06
1203.02
963.8
1065.66
1002.13
1181.33
1112.45
1182.66
1129.03
903.768
982.093
933.665
1104.52
1102.71
1118.6
1097.94
869.122
922.9
889.646
1106.61
1122.07
1090.89
1064.8
2639.98
2827.67
2515.64
3610.1
3094.68
3348.93
3046.41
2275.3
2447.83
2250.94
2974.55
2688.09
2958.98
2709.86
1839.56
2172.22
1880.68
2576.39
2147.58
2609.37
2235.33
1402.35
1771.29
1456.3
2012.55
1672.85
2102.4
1742.03
1032.99
1363.31
1126.74
1558.22
1268.04
1639.82
1390.03
766.042
1064.61
941.584
1197.56
1072.94
1336.9
1272.26
632.814
917.384
878.208
1048.26
991.756
1265.91
1258.69
557.663
872.585
864.808
981.32
911.23
1260.16
1249.59
2460.01
2578.24
2264.43
3230.81
2988.52
3020.06
2788.58
2226.58
2205.03
2084.86
2915.34
2699.72
2728.77
2589.3
1887.2
2041.13
1856.55
2607.84
2255.9
2527.81
2258.44
1477.68
1771.92
1480.5
2125.87
1770.03
2144.41
1821.05
1161.77
1386.3
1176.73
1670.2
1428.13
1722.21
1484.49
993.767
1131.27
1062.7
1375.67
1318.59
1433.54
1388.67
952.492
1060.16
1079.59
1323.17
1334.19
1406.67
1468.2
948.087
1090.74
1125.94
1341.26
1336.23
1486.69
1528.44
2200.84
2498.79
2058.64
3045.73
2725.62
3048.28
2562.39
2020.18
1962.93
1816.46
2658.17
2527.47
2457.33
2306.14
1828.14
1788.38
1691.82
2474.99
2241.68
2266.34
2113.77
1480.06
1652
1489.35
2141.91
1832.51
2051.63
1851.29
1152.77
1419.55
1225.53
1728.78
1478.94
1775.19
1569.38
1054.42
1179.4
1119.62
1428.14
1390.53
1522.66
1490.43
1090.58
1120.35
1145.8
1412.61
1485.63
1504.84
1548.32
1147.07
1157.28
1188.64
1507.62
1554.63
1564.29
1604.14
2015.45
2430.9
1879.26
3095.43
2497.53
2972.93
2232.63
1749.72
1766.1
1580.05
2380.01
2222.23
2112.19
1980.29
1634.06
1538.83
1445.14
2188.06
2046.33
1946.7
1792.46
1473.61
1413.59
1331.24
1992.04
1834.33
1744.32
1675.39
1266.03
1311.12
1248.1
1774.6
1605.87
1657.08
1565.63
1169.55
1225.26
1176.83
1566.39
1540.55
1537.32
1512.65
1174
1168.84
1153.04
1543.89
1567.17
1510.13
1489.35
1195.08
1144.87
1116.66
1576.75
1597.83
1480.06
1460.16
1444.85
1419.53
1339.17
1383.79
1403.78
1457.46
1372.89
1473.63
1458.18
1337.17
1461.46
1421.72
1523.03
1295.72
1388.97
1278
1164.9
857.397
1351.03
1305.52
1012.02
1549.32
1628.37
1587.9
1648.99
1561.04
1609.26
1579.92
1477.2
1407.61
1507.59
1418.67
1486.4
1399.06
1501.56
1517.27
1508.95
1623.36
1464.81
1577.14
1317.03
1555.2
1427.4
880.884
1367.4
1284.58
1335.41
1036.37
1463.58
1160.72
1138.4
1076.54
1091.35
1137.38
1160.98
1098.74
1169.2
1209.72
832.415
779.205
1148.78
1231.51
735.948
1106.18
1043.77
824.565
801.428
1090.08
1059.05
756.584
1248.68
1328.47
1264.2
1338.06
1251.76
1321.55
1263.51
1179.78
1107.2
1189.38
1131.25
1177.66
1116.78
1194.87
1190.73
799.74
1283.09
935.993
1255.87
756.069
1212.82
1128.26
821.818
1099.3
930.638
1076.77
771.793
1153.63
1135.12
1124.66
1011.73
748.147
1135.16
935.275
961.821
1276.01
1211.21
1155.95
1239.43
1199.28
1294.29
1234
1225.49
1093.62
1143.93
1172.85
1162.05
1139.88
1214.98
1368.62
1477.71
1472.94
1493.71
1280.19
1426.94
1448.02
1211.56
809.376
1290.23
1176.16
996.377
1028.07
1329.55
1350.11
1314.21
1439.48
1367.19
1371.34
1304.72
1414.85
1292.64
1230.26
1262.33
1336.48
1199
1279.65
1354.94
572.824
706.447
637.448
561.916
692.434
481.417
563.987
927.218
1003.22
997.996
1113.37
905.946
1034.57
1042.94
822.706
718.997
930.748
895.07
810.495
717.26
969.97
752.612
687.623
900.22
1037.72
610.124
868.768
929.094
648.539
623.776
829.113
784.853
551.421
635.888
836.381
979.206
1165.22
1154.65
1138.52
1088.83
1090.75
1047.86
876.206
941.555
864.94
1063.47
778.172
1015.58
949.169
370.789
533.06
380.606
1053.46
1066.13
1044.05
1021.52
334.577
342.728
359.388
1112.96
1166.33
990.987
1035.85
370.78
405.936
423.412
1161.67
1122.49
1083.95
1084.67
308.749
415.819
384.194
993.398
829.346
1038.32
927.096
217.677
308.303
242.153
613.081
513.766
767.941
630.623
170.953
195.389
164.722
403.659
334.981
505.462
404.581
110.555
138.255
107.321
254.585
192.894
320.625
224.438
43.5841
76.0763
41.4631
123.683
76.8482
134.671
81.1169
570.854
729.964
620.657
1384.8
1397.73
1361.3
1424.68
562.227
235.349
361.357
568.947
536.378
572.885
281.255
453.218
134.44
160.624
492.181
508.566
455.492
153.953
634.881
235.704
189.944
663.499
711.916
569.961
219.577
712.085
268.26
271.268
740.421
724.019
714.154
272.141
579.899
206.735
244.408
578.377
522.097
624.011
225.361
349.667
130.592
155.593
319.087
276.226
409.262
134.505
197.879
94.3402
93.2537
179.141
163.67
224.862
85.8863
93.1469
54.7728
62.1738
95.0157
79.2993
120.543
52.5808
25.1393
50.0535
31.908
66.357
58.1998
117.209
121.171
622.363
685.921
568.886
1308.85
1422.3
1253.62
1258.38
616.624
336.994
417.643
647.911
644.511
623.718
333.05
379.464
151.105
188.572
475.845
409.862
445.626
148.525
395.826
148.365
119.56
404.85
458.975
357.49
128.696
610.829
241.426
207.908
622.036
643.733
578.335
226.203
612.637
242.766
242.31
638.658
615.164
626.349
240.187
487.629
183.366
209.217
511.495
467.144
525.411
193.461
357.898
116.553
143.358
346.911
322.382
380.274
133.16
266.517
86.4108
114.88
257.349
224.876
293.29
102.839
45.3137
120.445
82.332
194.825
194.337
259.808
267.628
526.678
631.218
497.781
1182.22
1182.86
1178.18
1154.9
535.947
276.139
342.389
536.084
535.938
535.598
269.203
377.76
132.436
168.615
411.609
332.45
449.609
141.146
287.535
95.8856
97.5558
278.073
288.088
286.509
96.6647
416.342
166.863
117.093
420.789
470.385
366.026
141.992
498.7
207.234
187.165
531.742
533.162
494.846
192.755
462.227
194.892
194.164
503.107
481.836
479.646
189.31
401.853
158.269
165.779
418.398
403.971
414.165
159.877
344.414
132.011
144.716
358.061
337.298
361.685
136.352
87.3789
144.336
88.2252
278.938
276.994
284.596
233.147
433.056
601.723
440.008
1029.85
935.122
965.923
775.545
421.414
217.78
276.539
435.641
443.801
422.445
217.821
393.475
134.06
150.613
421.14
382.265
416.721
138.193
343.082
111.791
119.04
320.196
320.563
344.204
119.019
333.215
114.264
120.945
325.042
327.496
341.02
117.831
356.47
142.452
119.27
372.686
390.923
341.899
126.64
380.155
158.61
145.984
405.171
401.961
380.788
148.164
357.549
152.36
147.25
378.553
371.579
363.245
145.824
320.182
138.514
139.927
351.032
337.362
335.21
133.878
77.6148
90.4587
61.7988
267.547
199.08
211.216
231.381
237.237
324.923
223.555
549.491
610.542
558.669
607.042
193.675
206.024
208.147
593.627
562.155
572.28
482.464
174.314
191.759
156.222
504.367
500.878
474.884
451.541
165.715
157.094
158.531
478.819
467.502
440.916
415.555
150.195
148.791
125.834
443.162
412.411
399.407
361.499
122.965
115.925
111.659
378.305
344.538
344.615
329.767