/*--------------------------------*- C++ -*----------------------------------*\
  =========                 |
  \\      /  F ield         | OpenFOAM: The Open Source CFD Toolbox
   \\    /   O peration     | Website:  https://openfoam.org
    \\  /    A nd           | Version:  10
     \\/     M anipulation  |
\*---------------------------------------------------------------------------*/
FoamFile
{
    format      ascii;
    class       volScalarField;
    location    "2.1";
    object      k_0;
}
// * * * * * * * * * * * * * * * * * * * * * * * * * * * * * * * * * * * * * //

dimensions      [0 2 -2 0 0 0 0];

internalField   nonuniform List<scalar> 
12920
(
148.672
908.252
872.023
825.256
748.767
699.063
611.674
434.571
280.37
199.632
170.98
165.118
163.837
159.588
142.782
110.488
83.2379
65.7642
54.9622
45.8453
2375.38
2145.84
2190.25
2024.86
1529.55
1264.4
917.727
631.195
394.144
253.15
196.904
174.208
160.617
146.025
130.995
117.286
112.251
106.422
104.051
96.3877
12225.5
5715.65
3382.31
2213.73
1304.16
941.894
669.456
558.994
439.928
349.655
270.464
210.118
172.059
147.507
132.571
120.624
116.042
108.311
104.327
91.3242
5196.53
2979.32
1978.09
1035.8
700.161
607.268
513.453
463.965
399.209
331.793
255.896
195.034
152.813
123.773
102.807
88.603
83.2058
80.2596
78.4445
68.4746
7905.17
1618.94
1601.98
1165.27
853.078
717.766
588.251
506.748
439.727
381.352
302.311
225.091
167.956
123.935
88.6243
60.4115
42.8914
33.9071
31.3128
25.4306
1000.98
2181.04
1933.75
1465.86
1111.98
906.983
720.268
594.118
471.212
379.611
312.137
251.255
189.113
132.424
83.6605
45.1662
22.3413
12.1393
9.14774
5.40797
1209.6
2907.1
2410.57
1668.26
1235.91
1020
764.774
708.774
613.017
438.825
337.224
263.669
187.315
109.351
47.6512
20.9664
13.7506
11.585
11.7874
11.4993
1999.26
3427.23
2380.94
1684.82
1258.75
1028.82
584.754
327.07
365.477
357.595
242.612
189.3
142.177
77.1227
37.3297
31.3369
35.2127
40.9529
44.6832
40.8824
2180.37
2365.22
1615.23
1340.19
1184.09
765.065
376.035
131.924
210.766
271.166
222.836
145.681
103.021
63.277
33.7753
63.9184
79.7509
90.259
93.5445
82.6741
1336.06
1083.95
1258.55
1198.44
1084.22
706.457
421.95
186.915
135.752
229.14
248.916
201.621
126.215
98.5887
90.6098
145.071
144.81
136.728
129.567
108.806
556.679
1881.39
2167.3
1878.55
1227.7
652.873
348.24
163.51
94.3851
144.526
203.533
204.283
165.578
142.465
136.556
136.24
128.754
126.125
124.061
113.729
1415.26
4483.19
4130.85
3167.62
1559.93
598.928
274.182
148.506
111.078
114.267
131.494
158.294
154.695
145.166
135.032
140.796
154.876
159.247
156.337
132.887
2927.12
3852.56
3266.73
1673.85
858.867
565.195
308.219
202.221
175.39
169.99
158.248
136.359
110.095
92.3136
175.893
158.474
139.635
128.717
124.852
106.739
736.661
1847.61
1803.03
1358.05
844.197
539.278
395.162
306.075
270.516
228.848
206.804
184.943
171.562
155
141.405
116.151
92.8618
70.5529
63.6566
51.4182
2246.92
2568.47
2153.58
1690.74
1045.52
549.541
323.146
257.486
226.627
198.373
174.857
155.387
139.348
121.702
106.066
88.4873
72.7619
59.3022
51.7082
49.6992
1959.24
1651.12
1776.13
1539.34
941.689
602.643
363.038
292.009
238.274
209.828
177.842
156.323
135.847
118.87
104.421
88.202
77.5836
65.159
59.9133
47.5884
5895.76
3159.93
1819.83
1041.01
708.519
496.702
385.927
325.983
265.523
226.97
180.805
150.117
125.765
109.803
96.5511
82.6823
68.0826
51.6069
39.3084
24.2751
6936.65
3060.79
2135.22
1208.54
766.424
629.625
509.562
452.985
364.198
324.983
274.026
234.72
183.951
144.043
115.633
94.4102
82.3267
68.0102
60.8216
45.2338
3129.01
2382.73
1902.75
1040.03
600.536
496.801
409.087
354.569
273.965
234.286
199.031
178.217
151.406
126.136
105.329
88.5705
78.1169
63.2762
56.6275
42.7873
2268.88
1653.88
1571.37
1417.54
1240.18
803.74
427.597
261.84
189.807
149.947
118.858
95.2236
79.8513
71.5048
67.4904
62.2251
58.4689
52.1831
48.6569
38.4636
281.22
2721.05
2842.02
2476.68
1724.38
1172.76
743.346
477.978
364.964
356.183
374.361
388.367
385.904
365.913
313.082
252.226
202.395
157.126
134.992
113.52
12918.4
6917.26
5682.17
4350.89
2902.06
2534.54
1652
1016.65
611.274
507.951
472.652
452.731
424.558
393.255
363.222
339.875
328.86
307.969
296.607
265.111
16133.8
9911.59
5962.33
4130.47
2479.46
2167.49
1589.17
1432.38
1093.49
887.98
675.974
550.407
470.422
417.742
384.606
358.327
344.435
317.824
300.401
248.474
8499.25
7148.44
4653.54
2418.62
1657.68
1515.59
1263.43
1189.51
997.85
847.073
645.527
510.567
412.722
345.085
294.84
267.376
257.488
240.791
224.686
169.749
15199.3
5699.5
4135.87
2561.56
2036.34
1785.55
1408.49
1310.05
1109.42
988.531
750.406
565.184
430.527
309.558
216.489
153.567
118.777
92.6304
78.6558
46.4337
5351.18
7712.29
4946.73
3273.31
2499.98
2199.71
1764.08
1534.39
1209.36
996.766
814.372
651.941
464.205
288.604
156.669
79.4652
39.7014
20.8778
13.8986
6.75299
1957.36
6630.87
5550.06
3786.85
2786.66
2456.56
1952.38
1811.39
1490.52
1108.45
857.514
639.972
401.257
196.748
82.6283
37.7561
23.6162
20.0445
21.9769
22.7129
6441.44
7666.09
5395.47
3835.16
2884.75
2474.94
1886.47
1637.7
1512.49
1214.28
886.872
658.551
430.442
199.844
81.7309
68.1863
74.0786
87.1052
101.219
92.0515
2186.32
5349.2
4244.94
3518.73
2902.81
2485.29
1805.98
1332.28
1341.06
1266.19
1005.36
729.314
490.463
243.522
116.77
188.192
222
239.223
246.785
215.143
1514.09
2779.38
3214.36
3131.46
2768.56
2467.68
1969.16
1345.52
1093.15
1171.06
1061.74
835.359
626.483
432.839
291.955
378.396
388.653
387.558
382.053
338.805
475.227
3958.57
4599.59
4040.14
2830.2
2225.27
1644.31
1137.47
810.274
924.34
910.893
775.296
698.62
582.61
381.843
351.863
359.947
370.052
368.189
346.679
3660.4
9398.55
7121.46
4319.09
2166.13
1805
1298.58
1012.24
766.112
727.031
757.323
702.077
614.613
558.306
371.08
387.241
413.236
423.741
419.448
371.777
20357.9
8568.82
4922.17
2691.09
1576.1
1339.85
1039.31
936.064
745.255
677.103
623.091
555.391
480.577
414.007
438.091
396.088
373.665
359.554
349.218
292.597
2367.44
5434.24
4921.27
3265.35
1624.04
1280.36
978.892
823.963
705.249
596.982
525.575
471.619
433.484
393.084
363.654
311.352
263.547
203.046
178.872
135.931
10330.4
12850.3
7127.49
3913.64
1805.89
1198.5
766.626
696.177
605.786
526.878
457.307
409.369
365.956
326.609
292.767
248.725
207.649
169.826
155.935
155.909
6365.6
6642.37
4767.77
3250.06
1716.29
1338.38
811.313
745.204
614.104
544.767
458.24
406.024
352.453
312.414
276.069
237.369
206.97
172.736
158.389
129.326
15807
8200.13
4072.25
2365.42
1670.11
1207.73
969.159
797.154
651.989
558.687
449.47
383.73
320.884
275.92
231.001
187.482
148.956
108.725
83.0148
48.9514
11020.6
6381.12
4188.85
2474.39
1684.36
1505.46
1167.5
1011.19
801.7
730.928
613.599
545.528
433.539
352.325
283.037
235.266
200.709
160.464
143.894
105.791
11491.8
6643.14
3609.29
1974.02
1080.98
1036.2
879.174
749.95
578.997
520.532
447.368
407.018
348.146
299.765
250.75
210.16
178.27
136.601
116.269
76.5894
2676.5
2698.69
2396.58
1877.77
1308.14
796.432
513.221
400.841
328.512
277.474
223.942
184.347
157.071
144.413
135.171
124.275
118.108
107.98
99.3837
71.2763
1503.55
2587.94
2643.22
2063.93
1348.87
903.644
643.403
547.361
516.615
512.148
500.585
475.86
439.943
390.261
332.253
269.229
220.227
177.217
157.706
131.356
4202.8
6979.97
6218.38
4345.75
2583.61
2167.21
1495.67
1344.2
1117.86
1047.09
906.281
816.95
728.782
656.398
592.548
543.009
508.999
465.845
441.615
381.839
12556.1
9886.08
6134.79
4028.43
2685.81
2407.93
1937.39
1795.44
1470.98
1250.61
1005.39
855.492
736.669
657.931
601.694
558.061
523.537
475.206
440.467
344.88
12726.2
9231.36
5614.43
3097.89
2383.41
2092.35
1826.12
1692.04
1402.33
1189.62
936.938
770.15
635.803
544.789
480.514
441.389
413.578
367.751
323.757
206.407
48769.9
11722.4
5126.31
3279.96
2764.74
2340.56
1987.31
1847.11
1546.01
1311.08
1010.77
784.691
595.646
448.829
347.545
279.081
224.321
168.379
120.746
57.848
10556.2
10861.3
6453.53
3978.26
3109.59
2586.04
2152.39
1914.52
1581.4
1344.3
1068.42
806.563
559.972
371.707
229.713
138.086
77.6105
40.5221
22.3022
11.6037
11504.4
9497.72
6408.66
4497.45
3422.02
2855.07
2339.99
2081.85
1692.17
1381.32
1093.82
796.309
481.965
249.479
121.854
62.818
38.176
30.6764
31.9442
36.3569
5016.94
9492.42
6883.64
4755.98
3528.33
2936.16
2415.04
2184.84
1835.27
1468
1141.37
841.247
517.414
244.639
132.094
107.651
107.437
115.33
140.216
136.999
3198.71
8156.55
5959.26
4723
3543.86
3055.4
2429.86
1993.27
1825.13
1563.41
1213.65
907.883
587.936
297.206
203.728
312.861
334.542
336.358
337.76
290.341
8520.09
5120.15
4927.62
4379.33
3416.8
3008.98
2399.67
1799.81
1643.02
1531.9
1279.65
1002.58
759.227
530.942
479.204
603.418
621.895
621.038
612.075
520.432
6140.14
5729.69
5546.43
4785.48
3442.57
2737.26
2142.56
1568.43
1337.66
1352.58
858.2
711.867
817.982
688.97
576.663
644.6
682.723
696.938
691.457
633.56
17115.8
8626.19
5496.19
3964.63
2698.86
2321.75
1843.07
1423.02
1162.78
1112.71
1062.36
885.734
751.631
673.871
586.029
676.24
688.621
692.34
682.351
601.961
9290.62
9150.5
5282.01
3094.11
2333.71
1826.26
1563.73
1338.81
1060.74
963.914
879.223
816.453
735.55
674.732
632.945
581.647
562.24
550.222
539.541
470.73
10344.7
13238.6
8725.97
4043.22
2203.8
1662.91
1375.44
1095.03
946.223
786.294
713.5
645.338
600.965
551.003
514.918
468.078
432.609
385.305
366.689
325.836
37784.8
28512.2
11430.8
4620.32
2163.44
1405.6
1179.12
974.878
844.489
705.257
626.069
556.263
509.534
465.181
432.011
394.317
361.06
329.241
319.488
309.889
14584.9
11859.8
6470.02
3513.46
2103.42
1485.95
1157.93
971.925
820.016
697.664
593.18
515.766
452.126
400.123
358.689
316.134
287.747
255.283
241.323
209.991
22739.7
11810.4
5409.27
2999.86
2152.43
1525.66
1252.25
994.042
825.711
689.763
560.969
473.109
391.248
328.099
269.219
216.848
176.033
136.036
120.153
88.0758
10108.6
7798.99
4910.85
3039.87
2308.95
1865.83
1417.74
1179.5
944.079
834.821
687.178
590.57
474.708
400.236
328.251
274.192
223.062
174.079
148.877
99.1401
22230.5
5866.64
3550.87
2116.46
1540.22
1332.01
1009.97
851
668.525
614.881
530.823
481.78
411.25
356.819
297.67
247.587
202.268
152.738
127.317
83.0424
3733.06
2374.3
2024.87
1475.36
1053.31
773.72
597.949
481.41
387.272
313.728
255.045
215.863
190.714
174.609
160.657
144.574
132.499
112.218
99.9006
66.2926
839.218
1734.85
1989.37
1487.9
1004.87
804.412
690.41
661.102
625.505
590.326
548.383
495.291
434.862
368.669
307.209
250.462
209.733
177.433
156.565
135.097
2305.05
5775.7
5771.52
3853.26
2419.18
1975.98
1756.9
1687.38
1552.28
1410.84
1241.74
1116.04
1007.83
915.068
837.775
771.473
718.663
653.103
613.18
528.492
11897.2
9352.6
6486.15
3893.59
2977.49
2478.75
2271.12
2003.69
1720.72
1458.56
1242.03
1089.98
977.926
894.648
835.369
777.289
721.813
651.015
596.682
471.5
13296.1
10413.8
6599.09
3642.51
2941.87
2387.96
2239.86
1936.35
1653.21
1371.15
1134.2
963.315
837.805
751.62
691.571
640.693
589.389
515.916
436.714
307.519
27588
12932.5
6076.43
3854.78
3314.3
2597.77
2401.85
2074.83
1760.74
1434.85
1147.41
918.731
740.797
610.217
521.743
448.553
377.686
300.636
228.296
167.32
11633.4
10444.2
6833.28
4301.21
3590.09
2736.8
2482.46
2125.38
1798.62
1471.9
1152.51
864.662
629.961
472.553
354.5
264.635
186.028
133.008
101.865
98.3339
9216.02
9436.94
7147.4
4724.36
3910.94
2962.78
2608.76
2210.97
1834.24
1489.19
1149.85
809.499
512.318
323.374
211.985
148.849
115.42
105.847
106.26
125.104
14288.9
12442.5
7777.67
5196.99
4044.54
3092.47
2671.07
2404.69
1967.05
1569.9
1217
850.028
532.093
308.623
238.987
198.98
186.971
189.984
209.81
223.799
10761
10337.6
7303.65
5345.45
3969.5
3249.02
2713.73
2318.45
2025.41
1667.41
1273.09
932.362
607.659
386.667
362.124
472.144
455.366
418.751
407.705
352.105
7427.96
6395.39
6534.93
5114.66
3852.31
3158.08
2528.2
2096.38
1933.77
1690.32
1351.41
1059.23
829.204
687.187
734.43
878.645
869.035
818.793
756.472
581.972
4785.51
6658.57
7075.25
5697.4
3896.32
2956.77
2317.61
1838.2
1688.06
1604.92
1132.63
905.076
903.244
841.76
884.961
1022.94
1030.73
1012.12
955.129
769.757
12175.7
8218.47
5840.31
4046.01
3159.14
2635.68
2159.56
1663.34
1446.77
1387.29
1264.43
1060
944.765
893.802
924.76
975.559
973.171
949.882
895.212
722.208
9871.15
10011.7
6018.65
3570.69
2984.94
2154.98
1874.16
1554.42
1265.07
1158.78
1062.21
1004.85
934.163
894.617
805.722
763.115
752.298
736.25
717.962
637.631
25229.3
21885.2
11401.9
4652.69
2808.27
1923.18
1667.75
1278.83
1127.74
907.91
859.978
766.823
739.124
688.467
667.3
638.351
619.306
603.909
603.704
601.2
24016.7
19374.1
9985.01
4526.28
2537.39
1660.44
1516.14
1158.44
1022.57
816.003
752.296
661.63
631.805
591.665
571.923
549.512
534.581
526.812
529.113
532.212
18917.2
12033.6
7070.7
3787.06
2517.57
1681.17
1453.42
1114.15
985.194
790.294
697.916
591.909
540.355
483.036
451.239
414.481
394.298
370.368
359.712
334.545
13387.1
12281.8
6610.42
3598.78
2578.05
1761.04
1470.33
1099.27
953.42
753.739
638.987
522.345
444.359
373.746
325.28
285.75
259.47
240.083
232.506
217.18
16510.8
9174.72
5359.04
3398.44
2818.34
2020.37
1611.03
1248.5
1051.68
876.332
736.472
614.323
516.487
445.837
384.621
337.457
293.697
262.587
244.947
213.959
7470.43
5568.99
3511.86
2262.27
1909.09
1416.52
1100.52
892.102
752.19
681.769
602.294
535.287
465.687
409.088
351.319
303.054
257.064
215.998
180.127
149.028
2482.99
2664.39
1899.68
1340.28
1006.29
780.825
613
479.397
378.33
300.199
248.149
212.988
190.133
171.674
155.939
138.751
124.572
100.873
87.1964
52.2674
1384.25
1317.71
1680.19
1209.67
882.762
791.983
730.731
682.083
624.779
554.185
478.014
392.084
317.477
258.539
218.7
188.263
166.642
148.497
136.182
134.272
6600.18
6451.2
6638.16
3798.72
2942.2
2105.43
2260.8
1878.62
1933.38
1616.91
1536.11
1323.82
1255.04
1132.08
1079.35
994.387
930.02
841.389
783.49
703.734
15311.9
10539.5
7465.11
4309.28
3668.18
2642.97
2726.7
2123.21
1998
1569.25
1472.02
1268.22
1213.98
1112.03
1072.72
986.373
914.279
816.449
744.586
662.387
16481.2
11344.4
7764.72
4259.74
3756.71
2716.42
2752.4
2106.49
1934.78
1470.76
1330.32
1116.53
1048.57
956.066
917.277
839.382
766.647
673.411
603.919
561.245
24522.7
11405.1
7139.02
4778.04
4049.81
2890.41
2900.29
2221.5
1995.15
1493.14
1277.54
1021.27
907.627
797.119
740.054
654.019
586.32
521.169
489.948
497.274
19999.1
11269
8209.78
4957.95
4412.71
2996.49
2996.75
2319.68
2026.86
1522.58
1203.64
896.544
726.878
618.143
547.428
476.16
416.516
389.455
381.372
414.897
22335.7
10280.7
8205
5219.46
4748.38
3170.23
3066.64
2396.9
2014.19
1543.64
1147.28
793.964
591.284
482.427
414.494
362.115
338.358
334.201
340.069
393.121
41408.6
13427.8
9519.9
5786.69
4908.56
3314.02
2977.96
2553.54
2101.52
1634.79
1226.08
835.374
607.937
472.887
438.467
383.857
359.363
358.845
367.169
402.134
41428.3
21347
10896
6062
4689.2
3421.08
2996.6
2543.51
2171.61
1720.89
1299.73
948.396
724.042
614.567
616.208
649.756
583.315
508.13
475.71
442.925
19479.1
9775.25
8816.82
5720.15
4431.74
3276.59
2751.73
2400.54
2157.59
1782.09
1386.86
1103.47
976.938
953.713
1032.59
1147.04
1065.7
911.016
774.837
600.443
3058.83
9374.32
10435
6606.14
4623.87
3152.28
2530.47
2137.8
1985.36
1758.37
1380.45
1108.51
1058.56
1107.69
1220.59
1336.58
1299.6
1185.92
1025.12
758.28
16757.7
10218.3
7159.32
4558.81
3777.19
2922.61
2499.82
1909.75
1724.18
1601.03
1420.83
1228.22
1167.44
1182.14
1230.99
1231.23
1194.28
1082.16
958.735
744.745
16402
12531.2
7557.23
4443.64
4044.9
2705.1
2165.38
1715.6
1484.28
1318.97
1247.3
1159.46
1124.52
1075.14
992.224
955.063
935.779
896.128
853.409
773.912
38872.8
23414.4
11979.1
4800.77
3824.95
2254.46
2202.06
1586.38
1403.95
1070.39
1052.29
900.105
908.369
845.884
851.985
826.856
829.987
830.383
843.809
869.163
21957.9
14631.2
10518.9
5006.42
3365.69
2171.47
2047.48
1381.3
1271.93
949.159
918.041
782.043
785.258
738.151
740.229
727.24
733.262
740.893
751.282
754.297
16347.9
12628.6
8259.89
4543.25
3274.57
2065
1928.63
1306.79
1251.49
911.286
861.914
683.644
670.104
590.113
585.274
545.186
540.624
519.998
511.943
510.094
18073.3
12890.9
7413.52
4479.42
3199.05
2169.9
1825.98
1253.95
1173.43
833.956
772.594
579.532
541.996
453.83
444.064
416.031
416.974
414.91
418.003
429.708
23651.9
11953.7
6392.4
4095.48
3597.39
2210.94
2035.18
1344.86
1280.93
935.057
863.41
656.171
618.055
522.216
511.501
473.06
470.108
458.057
455.539
454.702
9653.12
8616.08
4000.98
3106.58
2426.19
1515.75
1445.28
955.006
965.123
757.852
742.836
597.779
579.09
499.382
490.192
454.265
448.171
430.694
425.016
432.08
2357.89
3109.73
2245.66
1446.82
1002.89
727.884
550.733
409.615
315.742
249.989
212.215
181.247
160.489
140.18
123.967
106.804
91.5738
72.9702
63.8826
43.6636
1350.96
1410.86
1004.69
1663.11
1423.7
1574.07
1112.13
1068.56
906.811
843.489
1341.62
1117.62
1000.03
937.441
974.22
1160.15
1112.83
1553.14
1121.17
1384
1283.05
701.212
1061.04
859.324
992.72
815.091
1214.15
992.091
140.225
407.47
220.392
1427.2
1144.65
1531.62
1239.91
181.521
178.847
142.191
1087.8
1119.79
1095.83
936.49
268.816
150.403
230.112
1153.2
1167.35
957.553
1066.07
248.323
246.212
256.654
1138.86
990.782
1070.93
1007.53
164.317
252.192
210.98
908.81
712.728
963.167
796.963
107.738
192.748
125.714
635.238
481.976
736.121
566.494
75.4754
110.823
88.8859
419.481
276.96
522.714
394.262
30.2682
80.8052
47.0789
210.165
94.2805
344.841
217.774
229.432
379.643
212.742
1562.15
1276.07
1358.46
1137.75
131.903
170.725
97.2725
1127.07
880.794
993.022
682.623
209.221
96.8536
143.676
890.093
1013.19
680.325
805.108
250.597
168.88
218.835
1031.34
1000.75
855.12
904.195
217.216
224.253
218.865
963.634
816.187
890.003
797.864
142.087
207.975
172.48
759.601
600.987
762.232
665.258
104.651
161.491
143.217
560.119
440.418
639.799
559.381
53.9898
137.061
78.9309
394.464
250.643
515.467
363.806
200.937
306.895
175.626
1288.78
1078.69
1158.65
973.475
95.9538
155.47
111.541
946.662
656.052
884.493
666.008
118.808
105.082
104.536
641.967
729.828
626.234
605.902
196.77
105.693
136.391
782.229
841.23
617.063
687.861
208.566
151.035
170.826
831.933
754.754
698.02
670.034
174.141
171.239
162.979
726.393
656.315
647.095
582.676
147.718
159.629
150.2
635.948
571.632
568.417
537.883
83.8287
146.58
97.4086
535.245
384.893
523.453
406.101
165.379
283.376
155.829
1028.39
923.978
818.858
829.771
112.381
141.14
121.135
852.332
666.527
797.876
679.973
114.963
114.562
115.092
636.236
608.24
640.976
594.183
120.935
117.325
115.13
608.795
641.243
589.102
561.098
155.901
111.592
102.865
653.735
649.971
550.863
529.125
156.591
102.029
95.6114
634.076
579.073
526.33
495.262
148.373
94.4736
85.5681
564.326
529.231
480.292
409.843
99.0966
81.999
46.5944
515.397
410.963
384.732
289.026
1392.85
1917.11
1457.76
2328.3
1930.83
2316.17
1828.52
1328.61
1310.22
1148.71
1872.99
1783.02
1722.89
1611.85
1307.4
1160.4
1215.73
1740.58
1583.25
1600.19
1531.72
1090.8
1210.47
1112.2
1512.53
1270.67
1490.95
1308.23
806.061
1059.57
875.333
1179.38
965.063
1235.82
1017.01
563.327
811.162
636.057
882.778
668.782
947.265
752.496
321.956
587.019
435.281
578.73
361.004
689.544
500.121
113.615
380.688
240.842
286.755
161.077
443.155
333.915
1504.28
1768.59
1362.33
2358.16
1841.93
2201.08
1710.03
1089
1204.32
868.995
1714.68
1549.8
1561.75
1312.66
1166.18
863.119
959.654
1538.24
1495.59
1301.02
1319.92
1107.08
999.158
1004.65
1466.09
1309.63
1323.54
1099.69
895.441
972.533
860.754
1243.59
1040.17
1021.32
896.365
671.702
826.204
733.226
975.079
795.996
895.975
853.165
484.937
706.83
611.969
738.613
561.682
824.279
704.534
277.834
562.679
402.172
506.691
385.065
653.679
533.981
1279.57
1436.78
1146.86
2067.79
1626.89
1838.96
1491.33
828.181
1045.83
805.462
1489.04
1243.9
1375.04
1134.06
882.224
761.833
735.308
1226.67
1246.88
1094.66
1065.62
939.605
746.42
796.941
1254.42
1036.3
1070.93
1047.66
805.245
796.098
733.554
946.087
772.317
1007.27
832.863
717.405
701.876
626.537
764.561
806.166
772.346
676.298
624.174
611.821
580.462
800.077
711.201
671.855
653.013
421.813
563.932
431.088
665.681
543.39
632.232
518.714
1098.09
1159.02
1017.85
1735.48
1452.71
1595.48
1387.06
802.541
960.553
813.539
1344.69
1118.21
1298.35
1100.29
726.589
763.732
697.646
1078.09
1028.88
1038.34
945.066
752.566
688.37
656.486
1027.93
1019.73
933.52
895.354
725.925
643.392
614.644
999.643
887.092
878.019
830.768
631.971
609.782
573.207
844.026
737.646
820.768
765.33
574.852
556.716
480.642
714.545
664.518
743.317
661.455
432.815
453.781
345.871
641.965
527.54
635.814
567.364
2049.54
2379.02
1913.77
2652.34
2316.5
2518.97
2139.58
1881.33
1823.45
1721.14
2254.24
2072.46
2075.98
1960.81
1640.8
1701.42
1602.14
1989.27
1745.86
1918.15
1742.97
1306.24
1551.81
1346.66
1651.55
1361.6
1668.27
1410.6
993.51
1269.51
1043.74
1266.3
1026.73
1324.3
1087.16
681.08
972.804
772.119
933.114
690.279
1014.31
810.643
368.536
706.649
516.612
600.09
404.158
747.804
592.935
178.559
463.072
366.231
353.263
263.426
557.945
516.828
1909.53
2261.88
1772.13
2490.03
2097.67
2355.58
1931.32
1660.26
1637.35
1426.71
2025.67
1909.52
1838.07
1702.4
1571.62
1413.87
1411.59
1874.93
1729.25
1684.4
1629.94
1510.38
1480.88
1502.08
1585.65
1460.91
1525.82
1561.52
1228.46
1208.08
1270.59
1307.17
1202.96
1232.63
1299.09
818.869
891.84
876.97
1050.5
865.896
965.908
931.918
582.226
847.22
727.339
809.051
668.378
903.734
812.317
421.967
680.344
575.339
636.652
588.345
786.701
754.822
1696.72
1930.55
1568.72
2277.78
1869.08
2133.11
1750.39
1354.19
1452.21
1222.86
1772.69
1628.07
1640.72
1452.65
1341.45
1186.85
1158.13
1611.25
1577.34
1425.32
1391.36
1288.18
1282.83
1273.22
1415.32
1233.43
1210.54
1352.6
678.256
772.605
887.015
621.476
785.31
540.111
797.096
821.416
792.118
694.459
824.735
882.149
930.596
834.995
731.555
693.315
677.854
877.465
813.315
826.45
803.592
580.839
656.778
551.773
791.277
762.504
791.882
766.045
1533.5
1722.4
1475.11
2084.32
1719.12
1985.31
1659.1
1201.28
1379.4
1172.65
1608.73
1412.94
1554.44
1339.84
1114.83
1108.28
1013.35
1381.18
1335.71
1278.19
1190.13
1092.03
1001.94
960.921
1327.8
1266.52
1178.35
1123.36
932.558
941.476
889.126
1221.38
1065.23
1099.98
1039.77
775.715
877.35
817.617
1017.81
915.978
1024.61
959.513
697.068
794.04
714.552
893.893
842.532
937.829
878.421
565.147
691.092
627.013
827.059
788.397
864.894
831.464
2386.25
2569.11
2210.58
2911.49
2571.46
2745.1
2430.4
2114.74
2149.98
2021.64
2481.45
2224.21
2366.44
2186.04
1766.36
1971.48
1773.22
2124.11
1811.65
2113.81
1846.06
1369.22
1691.31
1420.11
1698.89
1384.7
1743.65
1439.81
1026.95
1332.07
1093.56
1285.4
1022.86
1348.31
1110.85
692.114
1021.04
824.137
933.555
729.645
1044.61
898.359
431.173
766.266
633.828
676.878
566.137
865.395
807.713
305.58
606.498
576.78
543.305
489.543
798.661
794.674
2162.17
2385.77
1986.73
2679.21
2375.18
2511.67
2182.06
1975.18
1904.04
1780.2
2314.7
2156.73
2119.63
2003.18
1764.56
1758.92
1681.58
2093.97
1850.05
1966.15
1809.35
1435.56
1629.5
1270.86
1753.41
1460.79
1732.3
1440.89
1125.87
1165.38
1020.82
1372.32
1146.75
1345.61
1144.15
881.119
1009.64
950.546
1085.25
953.714
1101.97
1025.47
710.959
924.696
852.368
926.751
883.911
1015.76
1014.42
650.707
835.765
821.27
879.579
876.883
1021.13
1054.67
1925.39
2196.49
1804.37
2463.05
2118.97
2404.72
1981.84
1707.07
1698.05
1522.33
2051.43
1936.47
1885.08
1735.89
1633.82
1496.68
1456.53
1905.4
1777
1709.89
1631.85
1255.98
1444.3
1329.45
1715.56
1436.02
1599.58
1447.78
916.384
1259.07
1042.23
1332.71
1106.79
1377.69
1179.22
910.195
984.472
891.424
1064.82
1010.72
1130.8
1060.14
854.482
881.415
863.743
1008.68
1023.29
1057.24
1072.6
830.793
858.05
847.604
1033.73
1073.81
1081.65
1113.94
1772.31
2073.1
1706.99
2398.83
1942.38
2321.11
1831.04
1476.7
1599.74
1386.55
1837.63
1674.06
1720.12
1524.78
1399.03
1326.92
1242.25
1646.95
1573.68
1478.8
1391.95
1312.63
1228.85
1167.45
1545.67
1431.64
1366.39
1287.35
1106.05
1143.18
1082.7
1378.68
1223.07
1265.8
1204.85
964.263
1066.74
1002.61
1182.55
1114.07
1184.42
1130.76
903.871
982.512
934.022
1106.27
1104.67
1120.29
1099.73
869.682
923.413
890.292
1108.7
1124.39
1092.61
1066.28
2641.38
2826.91
2517.83
3584.18
3079.22
3334.84
3034.3
2275.04
2450.17
2251.81
2964.65
2682.99
2948.11
2701.88
1837.85
2172.42
1879.42
2570.32
2144.18
2601.85
2230.28
1400.66
1769.9
1455.14
2010.27
1672.57
2098.29
1739.79
1031.64
1362.33
1126.26
1556.75
1268.44
1637.92
1389.5
765.362
1064.32
942.114
1197.8
1074.16
1336.84
1273.16
633.169
918.184
879.723
1048.83
993.061
1266.92
1259.88
558.455
874.229
866.413
981.947
911.9
1261.22
1248.48
2462.31
2574.29
2265.38
3211.94
2975.97
2996.53
2773.82
2227.93
2206.93
2087.22
2903.97
2691.28
2716.1
2580.23
1886.41
2043.14
1857.21
2600
2250.06
2519.61
2251.24
1476.84
1772.17
1480.46
2120.77
1766.82
2138.06
1816.25
1161.64
1386.62
1177.9
1667.43
1426.87
1717.9
1481.5
994.569
1132.47
1064.13
1374.93
1319
1431.03
1387.4
954.288
1061.77
1081.76
1323.75
1335.02
1405.66
1467.66
950.25
1093.09
1128.45
1341.98
1336.65
1486.16
1526.28
2200.94
2494.19
2056.68
3013.52
2709
3020.22
2544.16
2022.65
1962.59
1818.65
2644.43
2518.18
2442.53
2295.99
1829.27
1790.65
1693.67
2466.66
2234.29
2257.29
2106.89
1480.08
1653.61
1489.95
2135.26
1827.4
2045.12
1845.28
1153.84
1420.05
1226.33
1724.15
1475.69
1769.51
1564.81
1056.04
1180.47
1121.32
1425.37
1388.94
1518.62
1487.16
1092.79
1122.23
1148
1411.21
1484.62
1501.78
1545.67
1149.71
1159.58
1191.03
1506.66
1553.48
1561.63
1599.63
2013.4
2427.6
1878.54
3061.5
2479.87
2950.63
2222.37
1751.8
1766.53
1580.94
2365.74
2212.08
2104.54
1969.85
1635.98
1539.93
1447.04
2178.82
2039.63
1938.46
1787.75
1474.68
1415.56
1332.92
1985.81
1828.47
1739.95
1669.21
1267
1312.5
1249.67
1768.93
1601.09
1651.62
1561.49
1171.22
1226.78
1178.52
1562
1536.59
1533.54
1508.26
1176.09
1170.45
1154.74
1540.27
1563.94
1506.03
1485.66
1197.34
1146.49
1118.1
1573.53
1593.72
1476.25
1454.9
1444.82
1419.08
1338.9
1382.9
1403.94
1456.89
1372.53
1474.95
1460.48
1339.09
1463.86
1423.29
1525.02
1295.34
1390.01
1278.97
1163.67
860.139
1352.14
1306.66
1013.02
1549.76
1628.85
1587.67
1649.91
1560.88
1610.37
1580.21
1477.04
1406.72
1506.95
1418.24
1485.76
1398.62
1501.34
1518.5
1510.54
1624.84
1463.73
1578.87
1315.64
1555.96
1428.03
883.392
1367.77
1282.29
1336.22
1037.08
1463.78
1160.1
1137.03
1075.86
1090.13
1136.61
1159.73
1098.24
1170.06
1210.52
834.276
782.603
1149.37
1232.6
739.849
1106.84
1043.72
827.007
805.251
1090.43
1059.55
760.496
1248.06
1327.45
1263.24
1337.56
1250.67
1321
1263
1179.23
1106.12
1188.41
1130.97
1176.54
1116.42
1194.42
1191.51
802.918
1283.66
937.065
1256.78
759.776
1213.41
1128.88
826.15
1100.19
933.133
1077.61
775.298
1154.24
1131.72
1123.57
1010.61
747.898
1134.75
934.607
957.823
1277.78
1213.91
1158.23
1241.86
1201.37
1296.92
1236.34
1225.74
1093.35
1145.7
1173.33
1163
1138.79
1216.55
1368.85
1480.01
1474.29
1496.55
1281.43
1429.81
1449.51
1207.89
809.327
1289.56
1174.03
995.833
1023.8
1328.28
1351.9
1316.71
1442.04
1369.43
1373.95
1307.03
1416.71
1292.73
1230.72
1261.56
1337.92
1197.76
1281.07
1355.3
570.938
708.721
638.037
565.576
692.254
482.125
564.574
924.614
1001.74
997.393
1113.11
903.88
1032.38
1042.11
819.934
717.506
929.827
893.907
808.305
715.097
968.853
749.357
688.094
901.415
1035.92
610.691
864.903
927.827
646.527
627.126
831.122
785.166
552.585
636.403
835.862
976.779
1164.92
1153.02
1137.91
1086.64
1089.94
1046
873.874
940.545
863.859
1062.72
776.313
1014.57
947.46
370.66
532.072
379.867
1052.08
1066.19
1041.16
1020.47
336.371
343.568
361.006
1114.56
1167.81
993.856
1040.43
371.463
407.461
423.624
1162.15
1121.2
1087.04
1086.21
306.732
415.494
382.599
988.005
822.591
1037.61
923.738
217.629
305.912
240.569
607.364
510.307
764.062
626.839
170.701
194.498
164.181
401.175
332.976
502.52
402.415
109.832
137.688
106.646
252.687
191.281
318.539
222.312
43.0687
75.3335
41.0102
122.318
75.9771
133.043
80.2946
569.307
731.458
620.093
1386.49
1393.03
1367.66
1425.4
557.687
233.35
357.823
565.248
531.339
569.25
277.852
454.045
135.558
159.595
491.895
510.345
454.745
154.139
640.216
238.513
192.512
667.697
714.881
576.27
221.918
712.963
268.794
271.972
739.98
722.288
715.715
272.564
577.277
206.125
243.443
573.432
516.625
621.952
224.067
346.031
130.185
154.183
314.778
272.823
405.393
133.394
196.824
94.2289
92.8893
177.989
162.658
223.455
85.6735
92.1594
54.3387
61.8073
94.0704
78.4642
119.391
52.2305
25.0769
49.6905
31.795
66.0346
58.2837
116.864
121.42
623.944
687.835
570.144
1318.15
1427.01
1257.32
1261.82
616.959
335.468
417.438
647.602
643.462
624.848
332.179
377.238
149.286
186.28
470.941
407.35
441.366
146.447
400.937
150.294
120.103
407.753
465.033
359.876
129.962
613.55
242.573
209.623
625.229
645.863
582.049
227.555
612.459
242.586
242.76
638.669
614.577
627.163
240.371
485.955
182.26
208.644
509.703
464.956
524.162
192.609
357.643
116.288
142.803
345.928
321.954
379.526
132.94
265.363
86.0904
114.711
256.65
223.955
292.612
102.414
45.1556
119.635
81.9765
194.29
194.621
259.088
267.401
525.829
626.975
497.458
1180.96
1183.61
1176.97
1156.13
535.686
275.076
341.117
535.883
535.644
535.348
268.337
372.954
130.578
166.681
404.228
327.92
443.263
139.536
287.726
95.9851
97.1559
278.527
289.251
286.277
96.5195
419.765
168.369
118.507
424.873
473.811
369.633
143.559
500.198
207.918
188.017
533.48
534.611
496.694
193.453
462.423
194.589
194.465
503.248
481.614
480.042
189.23
402.156
158.211
165.735
418.461
404.162
414.426
159.875
343.825
131.524
144.703
357.746
336.331
361.697
136.034
86.8401
142.615
87.1062
277.296
275.945
281.743
231.407
431.649
591.874
436.882
1024.89
937.789
959.409
775.925
422.635
216.814
275.154
436.407
445.329
423.215
216.852
391.423
133.013
149.926
418.936
379.793
415.899
137.417
343.336
111.67
118.942
319.88
320.484
344.192
118.986
332.837
114.139
120.78
324.981
327.745
340.634
117.457
357.432
143.051
119.356
374.11
392.252
342.588
127.076
380.821
158.909
146.266
406.031
402.704
381.514
148.418
358.159
152.602
147.463
379.347
372.372
363.842
146.036
319.284
138.27
139.919
351.333
336.95
335.181
133.54
76.2895
89.0755
61.5212
263.584
197.649
210.101
232.023
236.931
323.015
222.706
549.775
612.466
558.949
608.626
193.492
205.873
207.86
593.971
562.18
572.677
483.003
174.458
191.296
156.007
504.386
501.063
475.532
451.87
165.681
157.11
158.364
478.767
467.413
441.425
416.385
149.843
148.551
125.508
442.683
411.544
399.299
361.339
122.397
115.821
111.554
377.226
343.321
344.562
329.787