/*--------------------------------*- C++ -*----------------------------------*\
  =========                 |
  \\      /  F ield         | OpenFOAM: The Open Source CFD Toolbox
   \\    /   O peration     | Website:  https://openfoam.org
    \\  /    A nd           | Version:  10
     \\/     M anipulation  |
\*---------------------------------------------------------------------------*/
FoamFile
{
    format      ascii;
    class       volScalarField;
    location    "2.1";
    object      p;
}
// * * * * * * * * * * * * * * * * * * * * * * * * * * * * * * * * * * * * * //

dimensions      [0 2 -2 0 0 0 0];

internalField   nonuniform List<scalar> 
12920
(
-694667
-592282
-614283
-480485
-426911
-351755
-307959
-254458
-221435
-185717
-160463
-134597
-114209
-93606.2
-76125.5
-59015.3
-43509
-28605.5
-16353.5
-9972.91
-1.05424e+06
-656187
-624540
-480299
-422599
-346263
-301360
-249261
-216111
-181379
-157156
-131922
-111879
-91828.4
-74686.3
-57873.5
-42582.9
-27850.5
-15712.5
-9681.76
-944732
-638421
-589529
-436629
-402261
-323594
-286339
-236850
-207917
-175092
-152031
-127258
-108000
-88705.4
-72318.8
-55894.8
-41062.5
-26619.6
-14881.8
-9293.56
-789661
-578911
-532301
-395333
-364617
-295031
-261004
-217535
-191444
-162033
-141321
-119037
-101397
-83687.8
-68551.9
-52877.5
-38685.1
-24839.2
-13724.9
-8849.05
-553252
-446590
-473054
-316012
-321581
-257350
-235224
-196876
-175863
-149656
-131745
-110628
-94297
-77620.2
-63025.3
-48772.2
-35805.2
-22701.4
-12334.6
-8287.59
-589017
-419955
-367869
-273174
-268592
-223508
-203448
-173913
-155392
-133350
-116590
-99683.1
-85110.7
-70295.1
-57363.1
-44008.6
-31695.7
-19989.6
-10419
-7543.55
-372059
-277343
-296946
-215621
-221086
-186149
-174226
-149308
-135731
-117543
-103863
-88094
-75408.3
-61691
-49826.8
-38662.6
-27944.1
-17129.8
-8615.94
-6736.45
-98844.4
-189609
-238220
-177259
-179711
-148570
-150758
-132880
-120133
-107063
-94709.3
-81686
-70362.4
-58449.6
-43032.9
-33087.9
-23669
-14298.4
-6858.53
-6159.45
-107142
-83699
-134996
-112286
-123747
-117735
-118939
-108430
-98710.1
-89697.2
-80362.8
-70149.6
-60622.3
-51292
-40213.1
-27473.4
-19348.5
-11519.8
-5355.56
-5667.35
86737.8
13487.9
-83271.5
-60943.9
-86023.3
-74927.3
-79887.4
-76186
-71238.6
-66576.5
-60325.9
-53937.6
-47383.5
-40746.8
-31784.5
-21610.6
-14963
-8569.68
-3837.82
-5260.18
-25662.2
57312.3
-11478.3
-3502.52
-28352.5
-31790.1
-41587.3
-44358.2
-44195.3
-42693.1
-40513
-37433
-33755.4
-29750.8
-23356.9
-15514.9
-10322.9
-5494.41
-1960.99
-4392.96
139883
96386.7
28243.5
49785
9193.3
6099.86
-5681.03
-12817.2
-16975.9
-19686.5
-21399.6
-21525.6
-20476.4
-18647
-14779.8
-8197.28
-5123.88
-1865.33
113.363
-3410.1
166983
133978
91345.7
102408
66605.3
57104.5
29500.1
19709.9
10686.1
4869.3
-1274.12
-4702.32
-6454.2
-6206.11
-2951.67
-1839.7
-554.683
1493.61
2238.55
-2397.46
372317
218981
164605
152936
103065
85474.4
59355.5
48937.5
32296.4
26131.4
16171.2
12395.1
7369.41
6139.04
3864.45
3837.2
3665.96
4961.94
4230.15
-1380.46
277197
242135
196792
172400
132257
110346
81166.2
67408.5
49095.6
40056.8
28761.3
23437.2
16722.9
13094.8
9976.83
8825.34
7806.24
7735.18
6065.12
-673.898
463881
355461
220509
191878
141900
124924
94037.9
81390.3
61034.7
52245.3
39587.7
33073
24694.7
20713.9
16069.1
13900.4
11429.2
10222.9
7662.56
29.9755
226568
347942
238335
206179
159600
139013
105178
93564
69992.4
60883.3
46499.1
39415.7
30597.8
26115.2
20404.4
17331.5
14100.3
12184.3
8920.31
539.571
768527
448170
224111
208805
157079
141605
110037
98360.2
76331.7
66855.1
52033.2
44527.1
35212.5
29849.6
23543.7
19900.9
15998
13472.9
9576.63
810.609
234988
318085
257190
227225
169696
150814
115341
103531
79743.7
70336.5
54895.7
47336.6
37423.1
31872.1
25323.6
21356.5
17121.5
14156.4
9906.91
928.439
426595
344277
203695
206543
160363
149640
117653
105977
82180.1
72180.6
56708.6
48815.6
38763.2
33012.6
26267.2
22145
17706.9
14510.8
10042.1
817.064
-874677
-619842
-627682
-479709
-427716
-351721
-308041
-254108
-221151
-185359
-160441
-134544
-114182
-93583
-76152.5
-59026.6
-43502.1
-28575.7
-16305.1
-9948.72
-1.0453e+06
-628859
-629573
-481049
-424245
-346634
-301667
-248970
-216000
-181082
-156932
-131774
-111811
-91817.2
-74701
-57869.1
-42584.4
-27814.2
-15636.7
-9643.93
-1.02297e+06
-643726
-596846
-437843
-404126
-322981
-286318
-236328
-207833
-174692
-151867
-127158
-108003
-88695.6
-72290.7
-55897.3
-41052.2
-26565.2
-14786.9
-9232.23
-953816
-579725
-537467
-394749
-365312
-294833
-261145
-217319
-191267
-162171
-141246
-119029
-101414
-83690.8
-68492.9
-52909.9
-38628.8
-24784
-13640.4
-8777.7
-664622
-460201
-469958
-320253
-322818
-256994
-235045
-196631
-176030
-149652
-131354
-110527
-94326
-77650
-63024.6
-48720.9
-35731
-22637.1
-12249
-8236.83
-574035
-413287
-373349
-274251
-269180
-223393
-203384
-173858
-155382
-133303
-116830
-99690.1
-85055.7
-70201.5
-57250.3
-43924.7
-31716.4
-19930
-10355.4
-7509.16
-478319
-291656
-301229
-216916
-221519
-186230
-174405
-149256
-135788
-117550
-103776
-88092.8
-75311.2
-61589.8
-49850.5
-38672.1
-27929.6
-17083.6
-8575.98
-6716.51
-196909
-210904
-241791
-177829
-180189
-148628
-151032
-132734
-120079
-107168
-94651.4
-81751.7
-70339.8
-58435.3
-43035.7
-33122
-23690
-14275.3
-6791.56
-6077.05
-169318
-97817.1
-139339
-113412
-124614
-117733
-119225
-108451
-98878.5
-89847.6
-80367.2
-70211.5
-60708.3
-51330.5
-40237
-27488.6
-19362.9
-11504.6
-5299
-5633.94
-83885.1
-6149.8
-83524.3
-62944.8
-86202.3
-74949.5
-79800.8
-76186.8
-71307.8
-66590.6
-60522
-54050.4
-47441.9
-40827.7
-31898.3
-21675.4
-14974.9
-8529.21
-3733.98
-5184.71
94428.2
62860.5
-8747.7
-3470.41
-28660.3
-31819
-41548.9
-44414
-44172.7
-42899.2
-40685
-37455.7
-33771.8
-29822.1
-23513.7
-15523.9
-10281.7
-5397.41
-1885.18
-4330.24
147784
87194.7
30513.8
43040.4
7700.82
6210.41
-5599.84
-12885.9
-16973.8
-19653.4
-21449.1
-21595.4
-20511
-18695.8
-14845.6
-8172.51
-5136
-1844.65
173.39
-3355.73
-117779
155996
89663
100676
65739.2
57274.9
29894
20078.6
10697.9
4672.18
-1487.76
-4613.36
-6380.39
-6207.93
-2990.84
-1856.9
-563.917
1574.04
2278.6
-2344.65
358049
224731
166350
150467
103080
85312.8
59191.6
48746.5
32411.6
26172.8
16226.8
12445.1
7400.43
6152.29
3892.56
3871.14
3704.25
4876.88
4280.87
-1356.56
253843
253719
198466
170777
131914
110451
81413.8
67395.2
48958.8
40014.9
28782.5
23329.6
16811.1
13262.1
10096.8
8783.76
7738.99
7793.66
6079.33
-636.575
446805
334211
221142
189207
141515
124323
93970.7
81405.2
61018
52218.3
39447.5
33109.3
24687.4
20677.7
15980.3
13884.7
11456.5
10277.8
7686.51
34.2684
366298
352632
241727
205594
159483
138948
105322
93190.9
69807.1
60807.4
46511
39438.2
30584.2
26017.8
20363.6
17304.9
14080.3
12212.7
8979.91
552.355
649955
415323
221141
207409
156533
140666
109743
98401.9
76399
66730.9
51869.8
44441.1
35091.1
29796.5
23533.9
19913.7
16015.2
13500
9620.24
821.902
307427
316497
256814
226292
169431
151305
115269
103526
79742.5
70304.9
54897.1
47302.1
37396.6
31888
25305.8
21359.4
17119.1
14182.8
9938.96
954.249
319445
292420
196162
203003
159778
149394
117629
105902
82320.1
72200.4
56713.6
48817.6
38762.7
33018.3
26268
22145.6
17719.3
14535.3
10077.1
844.252
-848024
-623411
-621260
-478750
-428453
-350565
-307397
-253376
-221114
-185133
-160338
-134493
-114123
-93563.1
-76171.7
-59019.9
-43483.1
-28513.8
-16196
-9905.03
-953764
-653129
-631472
-480014
-425429
-345796
-300395
-247662
-215681
-180757
-156892
-131669
-111826
-91812.5
-74702.6
-57876.2
-42581.2
-27719.8
-15485.2
-9568.11
-937053
-643153
-595956
-438795
-406557
-322018
-286429
-235245
-207493
-174143
-151697
-127066
-108008
-88663.8
-72264.5
-55890.5
-41033.4
-26454.7
-14627.9
-9146.03
-762552
-569512
-536475
-395590
-367093
-294479
-261199
-216662
-190785
-161782
-141146
-118974
-101406
-83673.6
-68411
-52832.6
-38564.5
-24684.4
-13474.6
-8684.73
-695651
-416349
-467676
-324560
-324780
-256455
-234677
-196248
-176060
-149442
-131144
-110455
-94328.6
-77659.6
-63063.4
-48791
-35676.8
-22539.7
-12103.6
-8173.54
-603271
-416584
-378148
-275460
-269991
-223126
-203030
-173570
-155254
-133447
-116856
-99650.6
-84970.6
-70022.2
-56970.3
-43789.4
-31711.6
-19822.6
-10224.1
-7474.3
-519591
-314333
-312430
-217461
-222670
-186045
-174377
-149187
-135854
-117401
-103681
-87975.5
-75147
-61493.4
-49949.9
-38673.6
-27906.8
-17001.4
-8486.25
-6694.97
-292105
-217447
-241739
-176238
-180181
-148277
-151394
-132566
-120173
-107704
-94669.4
-81787.9
-70243.1
-58385.3
-43112.5
-33173.4
-23714.5
-14211.6
-6687.22
-5976.61
-249586
-103220
-141091
-113041
-124574
-117245
-119114
-108718
-99220.3
-89820.9
-80362.8
-70295.2
-60800.9
-51382.9
-40453.9
-27583.8
-19378.8
-11429.1
-5198.04
-5564.52
-134619
-7186.81
-80922.3
-63168.7
-85575
-74430
-79054.9
-76334.6
-71632.6
-66719.1
-60810.1
-54097.4
-47524.6
-40937.5
-32224.3
-21824.5
-14981.6
-8444.93
-3518.04
-5093.36
55248.6
70416.4
-8982.41
-2582.45
-28933.6
-31635.9
-40969
-44422
-44172.8
-43301.3
-40816.6
-37437.6
-33781.9
-29891.9
-23738.5
-15644.7
-10283.8
-5306.78
-1763.24
-4282.19
-6397.41
66487
35192
46923.6
8075.93
7066.26
-5088.06
-12907
-16947.9
-19703.5
-21522.8
-21658.8
-20559.8
-18762.1
-14974.9
-8210.58
-5133.6
-1759.45
303.53
-3298.99
-55358
110647
92863.2
96937.3
64632.9
57166.8
30474
20451.1
10452.2
4682.55
-1412.94
-4540.35
-6339.94
-6241.81
-3126.25
-1860.05
-562.315
1674.61
2390.1
-2292.04
167775
209000
165081
148268
102983
84978.1
59013.8
48469.8
32601.1
26214.6
16275.1
12485.7
7445.96
6161.63
3950.61
3927.41
3781.88
4974.67
4370.73
-1340.58
403207
276418
202587
170835
131924
110553
81690.8
67236.4
48889
39899.2
28793.8
23413
16905.2
13447.3
10230.2
8902.75
7822.07
7824.98
6187.89
-575.182
247537
310427
223126
187477
141515
123939
93880.2
81136.5
60899.6
52091.5
39368
33044.7
24718.1
20691
15937.8
13751.3
11357.8
10323.1
7732.84
66.1014
90231.7
346287
237069
204165
159245
138707
105193
92867.6
69669.4
60723
46494.9
39456.5
30579
25972.4
20332.1
17287.6
14064.7
12293.1
9082.81
565.558
567807
388755
222375
206022
155785
139978
109839
98354.2
76458
66669
51792.3
44394.1
35045.3
29794.4
23546.7
19946.9
16071.8
13580.3
9716.39
837.299
285308
329245
250778
227459
169377
151434
115147
103500
79797.1
70318.8
54944.5
47340.3
37433.6
31930.2
25324
21373.5
17136.2
14241.8
10014.6
958.377
70435.1
265282
188407
200697
159783
149502
117152
105816
82287.3
72204.3
56700.6
48816.1
38744.7
33021.8
26263.5
22147.3
17726.9
14578
10133.2
886.028
-836308
-629028
-625038
-476977
-430364
-349472
-307018
-252553
-220817
-184781
-160201
-134416
-114063
-93552.8
-76165.4
-59006.9
-43471
-28431.3
-16046.9
-9831.49
-866779
-646502
-633390
-478470
-428067
-345453
-300252
-246622
-215123
-180414
-156728
-131555
-111841
-91798.3
-74705.7
-57880.2
-42574
-27589
-15257.2
-9482.08
-991317
-653068
-593598
-444437
-410121
-321584
-286626
-234181
-206756
-173606
-151595
-126975
-108017
-88646.7
-72221.7
-55884.6
-41033.3
-26309.1
-14390.8
-9090.12
-876028
-577459
-531900
-398918
-369466
-294350
-261163
-215769
-190524
-161444
-141082
-118874
-101424
-83661.8
-68303.3
-52751
-38507.1
-24533.7
-13224.2
-8649.39
-553340
-440503
-462506
-331412
-327467
-256412
-234126
-195543
-175883
-149255
-130958
-110369
-94294.8
-77507.1
-63103.7
-48766.9
-35648
-22403.2
-11877.2
-8113.9
-690170
-409675
-374422
-276452
-271112
-222735
-202610
-173467
-155245
-133560
-116806
-99635
-84938.5
-69998.5
-56842.2
-43760.1
-31654.6
-19658
-10007.8
-7414.88
-593115
-324635
-312119
-218506
-223710
-185983
-174298
-149212
-135905
-117215
-103695
-87871.6
-74920.9
-61398.4
-49956.9
-38651
-27876.5
-16878.2
-8321.14
-6721.11
-314559
-237794
-244359
-176052
-180593
-148201
-151575
-132597
-120257
-107757
-94813
-81838.8
-70175.1
-58347.2
-43166.9
-33227.3
-23738.4
-14117.7
-6550.44
-6206.94
-90620
-109611
-144876
-114530
-125161
-117173
-119174
-109023
-99531.9
-89852.5
-80417.4
-70326.4
-60834.5
-51459.8
-40690.6
-27678.4
-19392.5
-11316.8
-4950.27
-5546.21
688.695
-19542.4
-77306
-65052.4
-84478.3
-74229
-78751.9
-76573.1
-71971.3
-66806.4
-60955.6
-54196.3
-47591.3
-41026.2
-32481.9
-21985.1
-15009.6
-8372.17
-3313.39
-5015.21
172457
64437.7
-5247.48
-2457.43
-28949.7
-31669.3
-40504.6
-44398
-44201.1
-43741.6
-40692.5
-37556.9
-33879.1
-29968.7
-23977.3
-15856.7
-10374.1
-5229.21
-1572.04
-4235.66
-61914.7
42453.9
41326.2
43592.7
7712.3
7023.7
-4762.08
-12717.7
-16918.4
-19719
-21470.2
-21626.6
-20550.8
-18798.8
-15152.9
-8215.97
-5144.54
-1641.6
494.661
-3289.91
-121737
88791.1
90151
93318.7
63614.4
56894.6
31249
20396.9
9872.47
4795.04
-1359.91
-4481.28
-6312.97
-6313.77
-3276.33
-1903.99
-558.633
1800.13
2571.28
-2275.86
91915.5
216338
167622
146884
102494
84603.8
58944
48196.1
32708.8
26210.6
16310.2
12622
7428.14
6110.95
4006.29
3975.48
3841.37
5089.48
4524.95
-1333.62
332402
283544
204155
169903
131730
110396
81765.7
67090.5
48894.8
39758.9
28864.8
23356.9
16991.7
13647.2
10344.5
8996.95
7900.49
7916.83
6324.97
-597.648
150250
296595
221572
185259
141103
123152
93682.6
80848.3
60764.2
51860.5
39360.5
32909.3
24768.1
20769.3
15967.6
13664.1
11310.2
10380.5
7858.61
27.1443
165374
320586
237968
202759
158984
137914
105033
92262.8
69497.1
60549.9
46394.2
39447.8
30626.1
25918.4
20318.2
17339.7
14141.9
12437.5
9200.64
530.423
386782
365718
215076
203426
155199
139652
109905
98195.3
76413.9
66564.6
51729.2
44301
34997.3
29785
23580.6
19925.7
16061.2
13672.5
9834.8
818.034
248238
332353
246468
227950
169532
150648
115156
103507
79879.5
70324
54958.3
47366.7
37454.3
31987.1
25344.4
21372.7
17144.4
14310.8
10109
977.368
-57046.3
238180
176898
195509
159434
149290
116999
105761
82274.9
72188.6
56661.1
48801.1
38713.6
33022.4
26249.2
22142.3
17713.2
14611.5
10215.8
951.127
-946859
-623166
-626917
-475124
-432888
-347993
-306101
-251670
-220494
-184551
-160166
-134329
-114017
-93519.8
-76153.6
-58995.2
-43482
-28362.7
-15860.9
-9716.47
-861166
-653192
-629014
-479998
-430392
-345558
-300291
-245095
-214411
-179971
-156559
-131391
-111741
-91699.1
-74701.5
-57881.6
-42564.4
-27470.3
-15020.5
-9365.22
-1.00295e+06
-656213
-591104
-447844
-412079
-323705
-286875
-233787
-205906
-172831
-151240
-126767
-107923
-88536.4
-72113.3
-55885.2
-41068.3
-26175.6
-14142.7
-9062.01
-868996
-583019
-525120
-402073
-370535
-295394
-261170
-214392
-190123
-161192
-140955
-118890
-101377
-83540.3
-68151
-52644.4
-38445.2
-24386.3
-12950.9
-8707.63
-520938
-422790
-460753
-335286
-329028
-258831
-233854
-194332
-175470
-149075
-130781
-110290
-94181.3
-77370.8
-63073.6
-48811.9
-35688.6
-22288
-11645
-8069.88
-591077
-396845
-374550
-279675
-272005
-222080
-201871
-172831
-155175
-133736
-116860
-99693.2
-84874.3
-70150.2
-57007.6
-43705.7
-31553.9
-19462.9
-9746.15
-7349.58
-714535
-341250
-312779
-219094
-224857
-186066
-174267
-149261
-135879
-116934
-103532
-87737.5
-74993.9
-61385.9
-49867.6
-38627.5
-27869.8
-16763
-8123.14
-6752.16
-391558
-245555
-238316
-174733
-180959
-148096
-151483
-133178
-120332
-107114
-94771.9
-82160.1
-70297.5
-58444.2
-43252
-33290.5
-23788.1
-14029.8
-6405.84
-6390.85
-57962.6
-108197
-141097
-114330
-124897
-117910
-119145
-109251
-99778.5
-89925.6
-80500
-70413.9
-60945
-51637.3
-41124.9
-27805.5
-19407.3
-11211.2
-4708.2
-5498.31
-32587.4
-23942.9
-72987.2
-64870.6
-82866.4
-74827.4
-79034.6
-76760
-72194.1
-66888.4
-60953.7
-54298.5
-47602
-41077.7
-32750.8
-22041.8
-15038
-8290.82
-3102.97
-4917.89
183258
70019.8
-6085.39
-3225.19
-28934.1
-31537.4
-40464.9
-44388
-44261.1
-43406.9
-41015.2
-37717.9
-33874.7
-29910.5
-24261
-15939.2
-10500.8
-5170.1
-1344.93
-4157.91
-67834.7
39611.3
42887.4
45905.9
8514.09
6551.46
-4657.23
-12405.4
-16936.4
-19696.2
-21329
-21482.6
-20460
-18828.1
-15568.2
-8423.24
-5152.26
-1510.53
706.412
-3269.38
-92941.1
78423
94972.6
92098
63062
56608
31782.3
20105.7
9671.59
4251.42
-1464.84
-4390.4
-6346.75
-6431.32
-3472.3
-1985.57
-556.432
1947.85
2768.52
-2302.5
231356
237412
170580
145123
102196
84360.5
58939.7
47951.9
32793.6
26126.9
16174.2
12608.3
7344.74
6183.06
4096.09
4017.78
3889.02
5148.85
4689.21
-1317.26
399008
293477
205558
170788
131684
110611
81716.7
66944.4
48985.6
39669.5
29046.3
23320.6
17110
13768.6
10456.5
9078.32
7992.55
8046.89
6464.91
-758.509
165635
301783
224147
184940
140810
122902
93526.2
80644.9
60695
51720.9
39428.9
32809.8
24867.4
20802.5
16049.1
13672.9
11358.4
10524.7
7974.96
-16.7804
66525.6
301082
236437
200599
158503
137317
104922
91736.6
69499.1
60357.8
46398.9
39437.6
30765.3
25905.3
20410.6
17317.5
14153
12522.2
9317.74
514.849
295145
351270
215188
202139
154847
138884
109744
98026.6
76305.6
66440
51670.5
44282.3
34994.3
29746.1
23549.3
19900.6
16050.7
13756.7
9963.65
814.777
304845
329096
241500
228099
169027
149903
115186
103426
79891.1
70273.8
54923.6
47355.6
37425.2
31982
25356.7
21361.9
17154.8
14376.2
10230.7
1002.64
-161322
223759
170334
194360
159614
149068
116921
105687
82257.9
72157.6
56642.6
48795.3
38701.5
33024.9
26240.1
22141.6
17714.2
14638.9
10275.8
993.414
-62338.6
-48593.8
-46941.6
-66764.2
-62474.6
-48733.6
-46971.5
-55739.8
-46187.2
-42599.3
-60939.5
-55815.2
-46249.1
-42855.4
-41394.5
-25416.7
-26158.3
-43263.8
-41300.1
-25437.6
-26144.5
-38720.5
-26244.2
-25793.6
-40797.6
-39033.1
-26223.9
-25796.2
-110822
-89739.5
-85734.3
-119072
-110910
-89547.8
-85779.5
-100836
-84214.4
-79474
-108506
-101014
-84239.7
-79501.8
-91790.3
-78081.1
-73880.2
-98889.4
-92012.3
-78117.4
-73945
-82456.6
-72475
-67202.1
-89889.5
-82508.6
-72490.6
-67165.3
-72169
-65510.2
-59760.5
-80462.5
-72377
-65445
-59905
-62655
-58051.3
-52514.1
-70198.1
-62676
-58136.5
-52544.9
-53169.9
-50738.3
-45174.6
-60674.4
-53192.4
-50774
-45226.5
-44131
-43429.8
-37714.9
-51309.1
-44149.6
-43474.8
-37766.6
-77310.7
-52002.5
-52435.6
-79744.1
-77349.7
-51753.5
-52473.6
-72436.7
-52302.3
-51353
-76174.9
-72441
-52350.3
-51353.2
-67822
-50886.8
-49280.4
-71261.5
-67851.7
-50880.1
-49303.9
-62029.8
-48677.9
-46181.7
-66568.6
-62019
-48736.3
-46412.4
-55487.3
-45312.3
-42519.8
-60444.4
-55622.8
-45559.5
-42574.5
-49016.5
-41515.4
-38287.6
-54028.2
-49049.5
-41567.3
-38304.2
-42403
-37159.3
-33733.2
-47422.1
-42455.9
-37177.2
-33795.7
-35531.3
-32548.6
-28619.1
-40801
-35598.9
-32600.5
-28745.3
-44047.5
-14960.9
-19529.3
-41441.6
-44085
-14778.3
-19563
-44418.8
-20723.8
-23168.5
-44400
-44414.6
-20750.8
-23148.3
-43131.9
-23800.2
-25002.9
-44174.5
-43178.1
-23773.4
-24959
-41134.7
-25270
-25991.3
-42832.1
-41293
-25283.7
-26044.8
-38259.6
-26118.3
-25691
-40635.4
-38287.6
-26164.3
-25749.5
-34723.7
-25448.7
-24208.3
-37466.7
-34735.2
-25500.4
-24239.7
-30797
-23736.2
-22007.4
-33772
-30851.7
-23766.1
-22046.4
-26345.9
-21386.3
-19164.4
-29803.8
-26444.6
-21443
-19224.4
-11198.5
18002.2
12692.1
-5493.62
-11248.8
18351.1
12958.1
-15986.1
9730.4
5108.01
-12866.7
-15991.3
9997.04
5279.61
-19024.1
2143.86
-1118.31
-16975.6
-18971.9
2238.79
-1046.5
-20745.7
-3212.23
-5602.12
-19641
-20986
-3250.66
-5636.58
-21513.9
-7936.83
-8956.67
-21422.9
-21567.2
-7884.04
-8908.87
-20745.5
-10225.7
-10311.2
-21572.5
-20766.4
-10165.3
-10261.6
-19095.8
-11114
-10168.8
-20501.8
-19119.2
-11057
-10126.1
-16774.4
-10570.3
-9367.72
-18682.2
-16800.7
-10538.2
-9367.14
-110895
-89649.3
-85802.2
-118992
-111261
-88950.2
-85898.2
-100963
-84260.5
-79546.4
-108710
-101327
-84395
-79801.2
-91996.8
-78172.1
-73956.8
-99197.4
-92149.7
-78419.1
-74019.9
-82386.1
-72484.8
-67212.9
-89878.6
-82550.7
-72621
-67352.2
-72389.5
-65492.8
-59939.6
-80354.9
-72450.7
-65634.4
-60011.7
-62690
-58158.8
-52557.9
-70270.8
-62716.4
-58210.5
-52602.2
-53217.7
-50794.4
-45253.6
-60770
-53249.5
-50849.5
-45327.6
-44158.1
-43498.6
-37759
-51355.5
-44246.5
-43574.2
-37943.1
-77363.7
-51930.8
-52489.5
-79042.9
-77391.1
-51388
-52494.2
-72471.8
-52369.5
-51372.8
-76284.1
-72702.6
-52415.4
-51487.2
-67852.3
-50900.7
-49323.6
-71542.5
-67915.8
-51003.6
-49576.5
-62070.1
-48788.2
-46512.9
-66737.1
-62266.9
-49298.5
-46922.5
-55657
-45658
-42555.2
-60740.8
-55727.4
-46095.7
-42262.9
-49062.1
-41562.2
-38301.3
-54092.2
-49102.7
-41480.1
-38286.3
-42480.5
-37181.8
-33818.2
-47503.9
-42551.4
-37201.5
-33862.6
-35602.7
-32619.2
-28752.2
-40911.8
-35839.2
-32678
-28940.8
-44092.1
-14827.3
-19556.5
-40938.2
-44067.7
-14237.7
-19536.4
-44418.1
-20756.1
-23128.4
-44425.9
-44435.4
-20738.9
-23025.1
-43231.5
-23747.9
-24951.3
-44178
-43573.3
-23634.1
-25041.6
-41354.9
-25305.8
-26074.8
-43649.9
-41379.7
-25409
-26158.7
-38262.3
-26197.1
-25772.2
-40704.6
-37882.2
-26256.2
-25803.4
-34728.1
-25521.2
-24247.7
-37350.4
-34700.1
-25564.2
-24276.6
-30873.5
-23773.4
-22059.8
-33775.2
-30913.9
-23804.2
-22102.9
-26453.1
-21464.8
-19220.4
-29874.4
-26645.5
-21530.8
-19361.6
-11266.5
18190
13010.1
-5101.82
-11299.7
18701.2
13244.2
-15990.7
10103.6
5342.02
-12915.2
-15964.6
10459.5
5492.39
-18956.4
2227.94
-1090.06
-16952.7
-19012.7
2239.33
-1073.77
-21016.4
-3226.78
-5784.58
-19702.8
-21102.3
-3183.24
-5935.53
-21591
-7888.62
-8896.94
-21517.9
-21640.3
-7865.87
-8854.38
-20775.8
-10136.6
-10241.5
-21650.7
-20808.8
-10080.4
-10231.4
-19128.1
-11034.7
-10101.8
-20547.4
-19160.6
-11029.8
-10090.5
-16776.7
-10520.3
-9315.6
-18745.3
-16885
-10540.8
-9486.3
-111313
-88964.1
-85935.8
-119019
-111689
-88508.6
-86083.5
-101295
-84459.8
-79904
-109011
-101558
-84679
-80209
-92163.6
-78513.6
-74057.2
-99475.5
-92316.5
-78800.1
-74171.4
-82536.1
-72666.8
-67394.6
-89869.2
-82491.7
-72678.7
-67493.5
-72464.6
-65675.9
-60026.3
-80377.4
-72442.6
-65773.7
-60080
-62735.3
-58222.1
-52616.1
-70299.7
-62722.2
-58270.3
-52653.2
-53276.9
-50871.6
-45351.2
-60811.4
-53304.3
-50931.2
-45399.3
-44263.7
-43602.5
-37962.1
-51429.3
-44413
-43690.2
-38233.5
-77409.9
-51447.4
-52493.8
-78561.3
-77501.1
-50977.9
-52498.8
-72799.9
-52429.8
-51527.7
-76513.3
-73078.8
-52472.5
-51634.7
-67957.9
-51035.9
-49624.9
-71895.9
-68081.9
-51122.3
-49902.1
-59688.3
-65196.8
-60962.7
-66703.4
-59647.5
-65187
-60977.2
-54350.6
-59130.8
-55844.3
-60874
-54306
-59179
-55932
-49114.9
-41536.7
-38286.7
-54159.3
-49161.1
-41644.3
-38354.6
-42570.8
-37213.3
-33874.7
-47577.7
-42614.8
-37275.8
-33912.9
-35854.4
-32698
-28946.9
-41006.4
-36087.7
-32758.2
-29190.9
-44053.6
-14279.3
-19518.2
-40436.5
-44009.2
-13872
-19445.3
-44439.6
-20720.7
-22981.4
-44403.8
-44438.9
-20627
-22876.9
-43596.7
-23604.4
-25049.9
-44183.8
-43822.4
-23549
-25132.6
-36821.6
-42466.7
-37468.5
-42242.4
-37059.8
-40432
-37386.8
-34893.7
-40173.2
-35626.3
-39776
-35114.1
-39513.2
-35378
-34698.9
-25567.7
-24291.3
-37556.2
-34777
-25587.8
-24334
-30924.6
-23821.1
-22121.8
-33848.7
-30964
-23869.7
-22166.1
-26638.4
-21552
-19346
-29948.3
-26868.7
-21611.7
-19586.4
-11300.4
18633.5
13287.2
-4732.6
-11240.8
19139.3
13573.6
-15948.3
10543.4
5499.01
-12790.5
-15889.9
10708.7
5435.97
-19032
2206.54
-1073.36
-16922
-19069.4
2088.83
-1036.33
-21116.3
-3203.22
-5920.59
-19703.4
-21099.9
-3066.25
-5673.53
-21641.7
-7843.93
-8827.59
-21491.3
-21621.1
-7751.54
-8765.7
-20819.3
-10048
-10203.9
-21646.3
-20815.3
-10008.6
-10139.8
-19171.8
-11007.5
-10066.7
-20564.9
-19186.5
-10993.3
-10046.6
-16846.4
-10532.8
-9444.15
-18795.2
-16995.9
-10586.2
-9669.83
-111739
-88725.6
-86144.5
-119090
-111993
-88764.5
-86314.7
-101572
-84750.5
-80298.7
-109226
-101769
-84927.3
-80505.8
-92329.9
-78888.3
-74203
-99713.6
-92311.8
-79085.5
-74269.7
-82477.7
-72716.3
-67516.7
-89852
-82325
-72723
-67529.1
-72452.5
-65797.8
-60102.9
-80507.6
-72334.4
-65850.6
-60152.3
-62740.3
-58292
-52665.3
-70326.9
-62681.5
-58343.8
-52687.1
-53329.5
-50946.8
-45411.8
-60840
-53341.8
-50979.6
-45445.8
-44414.7
-43714.6
-38203.7
-51527.7
-44661.8
-43784.3
-38498.3
-77541.5
-51049.1
-52507.4
-78750.1
-77669.1
-50846.8
-52546.4
-73159.6
-52486.5
-51661.8
-76723.1
-73352.3
-52527.2
-51717.4
-68117.1
-51154.3
-50003.6
-72145.2
-68187.6
-51236.7
-49867.8
-62492.7
-49528.8
-46990.7
-66875.9
-62493.9
-49344.8
-46912.3
-55853.9
-46199.7
-42358
-60966.2
-55946.7
-46054.9
-42917.1
-49178.5
-41667.4
-38393.9
-54282.9
-49205
-41877.3
-38478.8
-42626.3
-37302.2
-33926.4
-47608.6
-42656.7
-37357.3
-33946.6
-36063.6
-32778.9
-29172.8
-41073.1
-36331.9
-32822.5
-29491.4
-44001
-13980.1
-19418.4
-40292.1
-43996.3
-13859
-19299.7
-44438.5
-20582.5
-22853.7
-44388.2
-44449.6
-20409.9
-22823.9
-43907.6
-23533.2
-25158
-44247.5
-43766.7
-23533.1
-25169.2
-41272.9
-25489
-26145.5
-43452.5
-41644.6
-25516.9
-26085.6
-38016.8
-26228.8
-25801.6
-40988.4
-38610.8
-26195.6
-25750.2
-34818.5
-25588.9
-24340.6
-37766.2
-34884.6
-25501.3
-24255.9
-30980
-23878.3
-22174.8
-33928.4
-31009.9
-23816.4
-22120.8
-26819.2
-21628.3
-19552.2
-29982.3
-27038.3
-21613.4
-19790.6
-11192.8
19137.6
13632.1
-4559.21
-10923.6
19740
13803.2
-15875.7
10715.1
5371.77
-12467.8
-15860.2
10705.8
5234.66
-19074.6
2019.87
-1033.54
-16930.2
-19049.9
1949.33
-1165.36
-21077.9
-2949.76
-5512.66
-19698.6
-20899.9
-2917.06
-5422.49
-21601.1
-7703
-8703.18
-21356.7
-21481.5
-7663.02
-8625.99
-20796.1
-9964.49
-10051.9
-21515.5
-20661.2
-9928.82
-9954.58
-19181.6
-10953.9
-9997.61
-20474
-19155.5
-10966.1
-9966.91
-16923.9
-10578.9
-9588.57
-18825.5
-17207.7
-10703.2
-9906.7
-112003
-89019.4
-86355.4
-119032
-112163
-88934.1
-86391.6
-101829
-84967.1
-80555.2
-109402
-101979
-85004.6
-80606.3
-92320
-79127.8
-74290
-99899.1
-92394
-79174
-74350.4
-82369.3
-72728.9
-67514.5
-90005.7
-82498.9
-72762.9
-67504
-72348.5
-65837.6
-60160.5
-80364.9
-72517.9
-65833.5
-60125.7
-62729.4
-58353.8
-52685.2
-70347.1
-62704.1
-58336.5
-52619.4
-53403.4
-50981.9
-45454.8
-60911.4
-53431.1
-50946.9
-45419.9
-44671.8
-43805.8
-38404.8
-51733.4
-44940.7
-43783.2
-38590.1
-77706.8
-50994.8
-52562.5
-79068.5
-77750.8
-50842.5
-52590.2
-73398.9
-52541.1
-51740.6
-76804
-73448.6
-52567
-51767.6
-68211.6
-51264.9
-49815.9
-72254
-68289.1
-51315.4
-49789.3
-62479
-49303.9
-46935.6
-66936.6
-62467.3
-49229.6
-46906.2
-55969.2
-46050.3
-42918.4
-60946
-55923.4
-46007.7
-42912.4
-49199.4
-41868.7
-38481.6
-54272
-49145
-41852.7
-38427.9
-42660.5
-37346.5
-33901.3
-47558.4
-42617.9
-37294.5
-33895.5
-36243.1
-32778.6
-29317
-41041.8
-36443.9
-32784.4
-29616.3
-44000.7
-14041.3
-19250.7
-40390.5
-44017.9
-13874.1
-19119.2
-44457.3
-20355.5
-22826.2
-44375.5
-44458.3
-20267.7
-22828.1
-43691.1
-23549.2
-25141.6
-44279.2
-43589.2
-23597.6
-25099.3
-41686.3
-25512.3
-26058
-43281.8
-41689.4
-25501.3
-26035.3
-38584.4
-26179.9
-25722.3
-41021.9
-38577.9
-26170
-25711.6
-34829.3
-25454.5
-24203.8
-37700.9
-34806.3
-25459.2
-24165.3
-30940.2
-23777.9
-22133.4
-33844
-30953.3
-23752.6
-22149.7
-26898.4
-21627
-19713.2
-29978.8
-27246.8
-21651
-19955.6
-10823.3
19869.7
13848.3
-4372.87
-10705.6
20794.6
14016.3
-15859.9
10685.5
5180.02
-12333.1
-15845.2
10674.9
5194.86
-19038
1982.3
-1176.72
-16991.2
-19039.9
2153.61
-1161.51
-20841.6
-2923.89
-5520.07
-19735.3
-20837.7
-3204.34
-5470.97
-21436.2
-7602.46
-8606.45
-21316.9
-21416
-7434.97
-8555.86
-20640.9
-9864.43
-9911.81
-21460.3
-20610
-9766.77
-9860.52
-19152.2
-10954.3
-10025.5
-20438.3
-19142.3
-10832.3
-10044.3
-17141
-10720.9
-9827.69
-18843.9
-17369.8
-10651.9
-10110.6
-58703.1
-63847.7
-57203.4
-62405
-58577.9
-63908
-57309.5
-54599.4
-55400.3
-47872.6
-47878
-54469.8
-55404.6
-47248.1
-53746.7
-52265.1
-47851.6
-47910.9
-53449.4
-52533.8
-48914.5
-59741.1
-66721.6
-65309.9
-61072.4
-65231.6
-61014
-59822.3
-58753.3
-62449.9
-63988
-57355.5
-63954.5
-57356.3
-58739.7
-54654.8
-47729.2
-55570.7
-47837.5
-55447.1
-47084.9
-54651.2
-53792.3
-47892.1
-52426.2
-47843.6
-52590.8
-48877.4
-53597.7
-52823.6
-57497.4
-51223.9
-55749.8
-52819.8
-57531.1
-51178
-50008.2
-51126.6
-45265.4
-47218
-49793.2
-51399.2
-46323.5
-48445.5
-46844.3
-44383.3
-42700.7
-48355
-46725.4
-45854.6
-54385.3
-60916.7
-59239.6
-55986.2
-59214.7
-55974.3
-54425.2
-52857.5
-55774.5
-57594.2
-51307.7
-57563.2
-51204.1
-52926.8
-50053.1
-47187.8
-51288.3
-45324.4
-51454.7
-46295.3
-49931
-48493.4
-42785.9
-46944.7
-44457.7
-46751.9
-46002.9
-48476.6
-36234.4
-41923.7
-36029.6
-40249
-36511.5
-40439.9
-35762.5
-31752.6
-31517.2
-25701.6
-25397.6
-31687.6
-31554.7
-25685.5
-31648.5
-31339.1
-26046.4
-26142.6
-31607.2
-31344.8
-26036.1
-36761
-41998.1
-42203.8
-37551.3
-40210.2
-37386.1
-36978.1
-36201
-40170.5
-41743.8
-35996
-40380
-35738.9
-36446.5
-31740.7
-25395.6
-31592.8
-25728.8
-31572.2
-25692.8
-31701.7
-31633.1
-26135.8
-31333.2
-26048.9
-31329.7
-26034.4
-31602.6
-34277.3
-39435.8
-33947.4
-38718.9
-34507.7
-39457.3
-33845.9
-30630.5
-31076.2
-26119.5
-26222.6
-30669.6
-31063.3
-26092.6
-30128.4
-29801.6
-26021.6
-25778.9
-30228.4
-29708.5
-25992.4
-34899
-39769.7
-40273
-35642.4
-39521.7
-35375.7
-35161.6
-34280.9
-38937.1
-39817.6
-34042.6
-39679.1
-33902
-34589.8
-30622.9
-26214.4
-31083.6
-26101.7
-31054.8
-26084.4
-30683.7
-30133
-25781.2
-29834.1
-26011.6
-29722.8
-25988.8
-30251.1
-140311
-135256
-126025
-150794
-140330
-135330
-126118
-126137
-119296
-112583
-133024
-126229
-119346
-112572
-113224
-107873
-102005
-120222
-113344
-107926
-102094
-100506
-96936.2
-91147.1
-107257
-100809
-96978.5
-91227.6
-86853.3
-86014.3
-79784.5
-94788.4
-87086.8
-86069.4
-79838.5
-75286.1
-74647.4
-68899.8
-81705.7
-75262.8
-74672.6
-68930.9
-63239.9
-64174.8
-58366.5
-70331.1
-63223.6
-64202.7
-58394.1
-52233
-53886.9
-48203.7
-58447.7
-52245.6
-53916.4
-48230.6
-116662
-97600.7
-97490.2
-117708
-116543
-97550.6
-97319.2
-107069
-115760
-108418
-119204
-115759
-108501
-107116
-97994.5
-105655
-100300
-108439
-105698
-100332
-97974.4
-89757.9
-96280
-91791.1
-98767.1
-96333.3
-91805.8
-89735.3
-81970.2
-87228.2
-84042.8
-89775.7
-87299.2
-84080.1
-81906.5
-72932.3
-77381.6
-75365
-80452.8
-77342.6
-75436.7
-72958.2
-63763.3
-67323.7
-66085.3
-70160
-67349.6
-66108.8
-63748.2
-54954.7
-57843.1
-57278.8
-60628.8
-57847.5
-57288.8
-54949.2
-46325.1
-48599.3
-48648.4
-51280.8
-48593
-48652.4
-46327.5
-35016.6
-36249.2
-31421.8
-40219.2
-35053.3
-36268.2
-31482.4
-77186.4
-55191.1
-58247.1
-74879.1
-77112.8
-54983.7
-58187.2
-70229.3
-78931.9
-70190.1
-80005.1
-78919.7
-70255.9
-70243
-67229.2
-74960.3
-68090.3
-76178.1
-74964.9
-68100.9
-67219.6
-63504.3
-70082.8
-64413.2
-71222
-70082.4
-64399.3
-63502
-59453.1
-65208.3
-60666.1