/*--------------------------------*- C++ -*----------------------------------*\
  =========                 |
  \\      /  F ield         | OpenFOAM: The Open Source CFD Toolbox
   \\    /   O peration     | Website:  https://openfoam.org
    \\  /    A nd           | Version:  10
     \\/     M anipulation  |
\*---------------------------------------------------------------------------*/
FoamFile
{
    format      ascii;
    class       surfaceScalarField;
    location    "2.1";
    object      phi;
}
// * * * * * * * * * * * * * * * * * * * * * * * * * * * * * * * * * * * * * //

dimensions      [0 3 -1 0 0 0 0];

internalField   nonuniform List<scalar> 
38556
(
863.204
697.314
1959.03
953.007
-3.83768
-85.9651
1134.75
-128.824
-52.9188
1442.87
-209.542
-98.582
1560.33
-248.691
131.232
1691.83
-278.973
147.476
1668.69
-241.713
264.848
1639.6
-198.918
228.014
1492.48
-71.1214
218.241
1371.82
-1.9772
122.636
1283.35
30.2299
58.2414
1233.03
41.5966
8.72055
1193.57
49.083
-9.62669
1153.72
56.6001
-16.7474
1118.61
55.1835
-20.0687
1099.62
38.935
-19.9462
1091.86
16.8241
-9.06704
1086.81
1.15842
3.89675
1088.06
-5.26571
4.0118
-2.05657
-1.34404
-34.4967
-692.896
-914.311
475.853
-537.686
23.4995
756.514
-366.362
-43.1222
1104.14
-396.854
-160.317
1287.45
-307.435
-124.56
1508.96
-345.71
-154.782
1577.82
-287.952
-22.6136
1541.47
-214.179
51.6069
1284.67
-63.8782
249.56
1092.33
2.14705
188.212
1026.72
-11.9327
107.777
1001.91
-5.19309
71.5941
990.168
8.89187
51.9357
980.099
25.4261
41.2433
973.366
32.3403
29.5763
967.572
28.1754
16.5536
959.464
20.5539
4.3785
951.255
14.3263
-4.95919
944.526
18.9033
-17.4395
27.6283
-27.8898
100.99
-1499.96
-570.503
104.567
-746.99
205.727
629.181
-546.311
-344.665
894.145
-515.396
-146.422
921.905
-376.949
41.7547
993.319
-343.469
-73.6554
1020.79
-285.489
-29.9364
1071.16
-183.728
-80.8206
1080.9
-87.3314
13.7193
1067.76
-15.8921
31.1742
1004.23
-17.8219
69.425
949.35
-1.84065
51.524
915.074
6.93577
36.2314
902.207
15.7777
22.5156
904.258
18.8817
11.4078
909.13
16.336
6.96761
913.163
16.6658
-0.144764
916.01
18.2375
-6.75861
920.118
30.7775
-15.982
41.6367
-19.0969
-6.56163
-2217.65
618.074
160.907
-648.251
-266.208
362.791
-482.244
-265.952
497.934
-698.712
48.1734
601.895
-594.153
113.243
710.577
-541.723
89.5721
817.341
-482.702
90.4494
907.447
-342.335
68.5012
970.788
-223.693
73.0207
983.369
-88.8959
60.4233
935.046
-30.8252
61.3258
870.442
18.4275
44.3358
822.045
18.2982
37.0347
803.43
14.73
19.663
810.3
-1.39171
13.4033
827.364
-13.4738
12.7459
847.918
-6.05245
2.16358
867.104
11.6647
-12.6133
886.379
35.5339
-24.0305
45.1242
-17.1962
-816.53
-1994.65
-1187.62
-576.511
-819.153
-69.1161
357.179
-1120.83
-295.103
393.493
-879.472
144.445
656.735
-927.416
70.0207
787.387
-722.848
50.4734
923.023
-716.325
97.9863
1027.8
-518.165
71.0497
1103.19
-391.195
92.1201
1109.18
-152.179
57.2862
1014.5
-3.16621
67.0228
913.597
66.792
52.5391
857.313
48.8671
25.7153
836.863
16.9955
18.1845
831.129
-18.1671
22.5093
818.792
-23.1999
22.0636
805.459
-4.63961
11.9201
796.201
17.5711
3.35119
788.843
35.4381
7.45387
32.9347
15.1923
-605.453
-1517.69
-27.0994
190.31
-1195.26
-419.651
702.298
-1316.42
-316.401
813.682
-1028.35
37.4914
886.998
-997.716
-3.01638
942.44
-771.359
-6.93174
1013.65
-807.855
20.3206
1062.34
-576.625
9.76885
1106.79
-473.624
37.9769
1100.13
-196.417
50.8982
1030.33
12.6825
53.9534
955.73
116.188
25.2028
918.266
75.7335
10.5976
858.56
32.0135
44.6873
771.527
-2.57246
71.438
686.401
7.54717
54.3794
631.925
18.5751
31.2609
599.58
29.0955
20.8215
586.305
22.5339
26.1793
3.20477
27.4701
191.67
-1211.71
-216.225
545.951
-1146.24
-403.311
917.368
-1260.98
-426.857
1005.77
-1037.55
-79.195
1055.96
-995.114
-52.7989
1048.7
-705.636
-58.4636
1035.1
-188.309
-20.7894
-203.854
-185.353
-195.945
1057.56
-164.253
-44.462
-131.018
-150.424
-108.931
1083.61
-126.944
-57.0543
-117.645
-103.992
-94.0356
1101.8
-77.6531
-18.8985
-42.9808
-53.7498
-21.3215
1080.17
-17.5663
36.4677
6.19891
-1.801
11.0108
1022.54
20.4985
55.5951
36.1312
24.8677
36.7268
911.558
25.2187
80.7474
29.6378
24.7047
26.4052
744.361
20.0397
110.757
26.4433
17.1707
24.8006
608.859
61.5955
71.3334
537.927
52.9036
25.5762
516.978
24.7936
14.7303
510.37
18.8354
16.8683
523.756
-12.4891
21.6366
-36.5635
21.9517
511.559
227.936
435.009
719.469
-652.703
-701.441
915.854
-970.859
-486.504
1071.8
-996.277
-197.223
1117.76
-965.805
-75.269
288.93
-180.428
-57.5497
280.901
282.078
275.365
-144.912
-184.902
-147.356
278.592
-174.614
-3.35659
-258.165
258.049
-164.42
0.28232
-263.301
263.299
-122.853
-4.08817
-259.28
265.983
-77.2309
-7.12514
-274.037
274.664
-20.3982
2.20566
-272.836
267.525
19.1003
6.70962
-260.033
239.798
36.6828
8.77019
-213.919
183.813
34.5926
15.5532
590.862
29.7117
15.7077
-164.084
-167.205
-170.121
-167.409
31.2306
30.3639
32.5393
573.057
93.8973
-23.1883
585.233
52.5883
-39.9714
610.191
31.2859
-37.4079
624.024
-17.0703
-9.25241
-50.6458
9.94281
870.203
772.889
313.247
1237.54
-179.5
-840.54
1374.28
-623.654
-483.943
1425.03
-777.529
-269.496
324.684
-757.607
-92.8107
314.978
341.243
328.735
320.394
-158.815
-17.3234
40.764
-81.7757
77.3361
-36.5833
0.258899
-62.6827
40.1501
61.3517
-38.659
-0.160087
-61.5235
31.8009
61.6712
-31.6591
-0.289496
-62.6284
18.9566
63.5584
-18.1581
-1.72845
-67.2386
7.16255
67.9613
-6.98495
-0.900351
-70.3882
-3.60365
70.0314
3.59452
0.365868
-66.4506
-10.6928
64.46
11.5759
1.10755
-57.5324
-11.2299
54.1221
12.7888
1.85144
-44.8754
169.599
42.0989
5.0895
-46.6334
-46.5285
-49.0383
702.822
138.637
-32.6332
-166.444
-187.601
-171.054
-189.83
706.274
91.7663
-42.6292
715.745
77.6052
-55.7909
702.036
43.5766
-46.9374
8.1594
-34.0712
-362.843
1246.7
2431.46
331.099
-338.605
-534.836
928.026
-902.07
-318.511
1105.11
-836.514
-118.099
296.08
-837.144
-2.49288
295.175
297.947
297.939
142.648
320.926
-158.71
-8.7841
32.2918
-86.0162
86.571
-32.2533
-0.593395
32.7088
-82.2864
76.9799
-30.1424
2.74016
27.8308
-67.4982
66.4015
-25.4543
-1.27978
13.7615
-64.6396
64.4508
-12.3571
-1.21562
2.27619
-65.3101
65.7743
-0.367669
-2.37278
-5.89443
-67.3854
67.8056
7.20123
-1.72697
-15.6734
-67.4797
66.444
16.8443
-0.135164
-17.0876
-62.7954
61.8492
18.3719
-0.338096
-59.3237
-51.6954
227.438
55.3098
4.39733
-60.462
-57.2856
-58.3782
969.705
110.565
-27.6788
-224.644
-238.418
-218.301
-232.591
1012.36
57.7819
-8.67248
1025.88
55.1632
8.92636
988.813
68.5334
12.1073
61.7513
-9.11929
1863.44
94.8206
-28.4312
2681.39
-300.476
-856.073
2423.54
-297.349
-346.877
2122.79
-355.742
-180.015
384.767
-353.876
78.4003
354.068
420.157
402.126
181.845
346.165
-145.709
2.46645
37.3235
-83.9289
82.3961
-34.6682
-1.12251
24.7979
-78.1263
74.2201
-24.0276
3.13594
19.3489
-64.4953
62.6015
-17.8247
0.369535
10.236
-61.5466
63.0277
-11.1447
-0.572417
-3.02678
-65.1707
65.4613
3.38553
-0.649323
-11.4635
-66.4936
66.9
12.5911
-1.53396
-19.7345
-67.7421
67.9113
20.3344
-0.76909
-21.9822
-67.6593
67.4082
22.6213
-0.388045
-64.1474
-56.9189
255.62
60.1937
-0.900602
-66.3771
-62.3739
-65.0957
1127.28
50.2708
9.59941
-262.59
-279.789
-257.545
-276.657
1160.56
9.99781
14.4964
1185.04
3.74528
26.9374
1171.34
44.4976
37.735
64.2102
20.2586
1824.65
-204.639
-1131.37
2661.73
-204.859
-932.694
2709.32
-26.2428
-318.702
2335.26
40.9117
-22.5929
312.278
60.5166
573.605
314.43
362.175
358.382
108.724
255.683
-102.72
50.5918
29.022
-68.3961
69.0552
-28.8706
-0.810486
21.6689
-69.3924
67.7464
-20.6372
0.614355
14.4839
-64.8111
64.4199
-14.7861
0.693424
12.1953
-63.1324
61.5837
-11.3305
0.683956
-2.47411
-62.8938
64.1304
1.52573
-0.288248
-13.7629
-67.2003
67.8299
13.4568
-0.323564
-21.1016
-70.3173
71.0079
20.9405
-0.529515
-22.8081
-73.7975
74.4445
22.4267
-0.265564
-74.6575
-59.4483
291.206
51.8663
16.7946
-76.6354
-73.4671
-75.659
1058.39
47.7916
46.7411
-279.431
-272.693
-278.501
-272.025
1049.72
16.3415
2.32309
1067.28
6.97877
-20.7896
1074.21
55.2618
-17.6919
84.0536
-14.4652
1427.3
-877.506
2918.94
1724.03
-203.928
-297.664
1669.09
-78.3476
107.052
1499.35
-70.6397
281.292
1272.65
-44.5469
331.759
272.782
-334.437
87.8877
100.495
151.483
53.7536
140.4
270.044
266.31
263.932
22.8812
235.431
-61.2986
6.92492
20.4969
26.4074
21.94
12.7534
-189.845
170.905
-40.9324
3.74524
15.1363
13.0423
15.1948
12.1623
-188.665
188.493
-51.0813
0.817453
13.5889
11.7425
12.9414
5.12055
-174.055
169.057
-16.9864
-1.40071
7.53987
4.39393
6.33067
-0.850659
-190.666
204.952
-8.66295
-2.28203
0.36973
-1.93022
-0.929405
-9.80943
-212.736
220.013
24.5659
6.12213
-9.00009
-10.0126
-9.14276
-14.4596
-236.296
241.847
33.3714
15.9415
-13.6496
-13.8414
-12.9137
-14.0213
-242.242
237.501
39.5199
17.2462
-12.3809
-13.5101
-12.1124
877.506
94.1689
38.9156
-42.6111
-23.5415
-38.6758
-24.4566
-232.659
-209.177
-231.248
-208.222
871.786
44.0651
9.44622
875.738
19.0158
-6.62583
896.24
1.40353
-14.927
924.422
33.761
-6.68143
48.08
15.7947
2475.8
-35.7335
452.639
1944.55
41.6572
285.667
1506.16
296.08
63.961
1377.46
11.9554
46.0994
1264.69
-56.356
124.585
1136.09
-254.765
48.922
987.602
7.57943
95.3759
28.601
-3.20458
25.6518
-5.51261
856.346
-194.835
57.1428
40.5408
92.7509
44.7534
90.9025
761.041
4.42658
32.0792
33.7957
1.46235
25.505
-1.96442
717.917
-93.4409
18.5045
15.716
48.924
12.2479
41.1729
705.169
24.1839
11.7158
5.46155
-9.8964
-4.96923
-13.7471
720.149
3.75148
15.8491
-16.1777
1.58923
-18.6005
-1.39167
751.492
57.1144
16.6794
-25.0714
-25.3232
-27.7195
-27.0229
795.892
37.9659
14.3467
-29.6238
-17.5775
-30.5884
-18.9234
832.111
44.0865
13.8644
854.352
9.91058
11.9127
864.497
-18.6861
27.5574
865.694
-45.1474
45.3538
875.99
-37.2951
60.7603
-36.2177
70.9754
601.441
110.42
551.239
772.629
192.009
-321.541
1371.65
365.696
-668.632
1263.63
166.538
-46.5691
1148.05
117.976
-58.747
974.991
-78.088
-3.62114
852.963
37.9407
91.6667
735.896
-106.849
29.0823
721.012
-1.42233
20.732
695.756
-77.7633
9.57893
712.566
-6.49819
13.8722
731.962
-29.6805
14.0356
761.554
9.80717
17.7151
789.137
0.544875
9.83822
813.323
5.32398
14.5767
815.604
-18.3416
25.9708
799.038
-35.0484
32.9283
773.595
-57.9185
38.2145
758.106
-57.6352
35.8295
-51.5375
12.7993
1456.72
352.172
-3847.57
698.015
686.14
264.57
1096.15
432.01
-464.451
1054.2
280.924
-72.4308
1068.3
168.356
-64.4803
985.187
32.2008
-27.1787
893.626
75.4694
54.0331
824.484
-45.118
7.41027
804.53
2.01038
16.5215
789.503
-60.7137
-2.02242
792.337
-13.8525
4.52005
794.47
-28.4569
-3.35624
799.205
4.20991
0.861709
802.489
1.65432
-4.39318
800.997
11.5845
-4.76845
784.833
9.66902
-11.8468
751.951
12.7437
-14.9103
716.216
5.28766
-27.4702
701.659
4.59079
-47.669
12.2884
-67.9837
-121.701
-969.146
-1577.18
635.825
628.556
-699.942
737.283
719.438
-388.887
631.429
461.795
-75.0167
642.831
243.126
-86.1726
591.76
103.027
-19.756
678.577
46.641
-57.988
673.07
-16.1107
-23.5008
738.182
-30.0592
-33.0424
747.023
-47.3738
-22.1811
771.349
-31.0765
-7.10198
772.179
-25.1093
-4.17776
775.491
-0.276791
1.17471
772.961
7.95891
-3.77426
766.998
33.2079
-15.6605
758.698
43.6918
-25.7226
749.976
53.785
-32.3194
737.15
59.5397
-41.4265
730.28
58.8935
-47.4327
62.2997
-53.5437
1689.32
-253.076
-1856.66
996.479
767.441
553.956
1084.74
651.032
-19.855
982.739
474.491
89.3056
894.359
232.721
98.7845
882.733
111.76
2.89375
914.728
39.7874
-25.1415
940.766
21.2709
-63.4203
966.153
3.08332
-58.529
989.453
-14.5579
-56.1162
1006.15
-11.5726
-36.1983
1015.39
-5.7992
-28.5562
1004.27
13.1087
-2.26222
979.895
26.9353
5.39886
938.695
55.0456
19.362
905.996
65.8816
10.5093
892.129
68.8377
-1.18537
892.235
68.652
-9.21855
902.351
53.2257
-4.44756
48.0835
4.57102
1529.16
-613.733
-1333.36
1452.58
433.058
410.959
1216.56
823.302
63.7536
1032.86
633.275
24.9156
813.201
345.036
107.342
797.622
149.643
-22.3046
837.787
-18.4417
18.0649
865.459
35.3751
-41.7762
878.411
41.1487
-51.017
879.755
50.2663
-66.1688
883.992
40.899
-56.7086
892.052
39.5026
-53.3621
902.741
37.0488
-34.6283
911.613
41.8361
-23.7739
918.536
48.2733
-0.149684
923.978
52.836
7.60293
927.978
51.801
13.0366
934.147
46.7415
15.7422
941.804
14.9976
30.5707
5.54926
35.9118
1042.83
-5211.28
1193.61
282.271
1790.48
226.431
2132.03
291.73
2067.04
410.023
1832.95
383.736
1429.06
385.447
1246.01
218.422
1169.13
118.03
1148.7
70.6993
1128.85
60.7546
1117.7
50.6524
1097.58
57.1594
1084.54
54.8768
1074.42
58.3967
1073.53
53.726
1077.17
48.1636
1087.94
35.9701
1066.53
36.4062
31.5226
-689.484
-205.723
2352.49
-274.041
-121.245
-380.162
530.486
-283.774
-573.671
915.136
-315.487
-167.745
1179.78
-263.1
129.692
1374.86
-147.337
99.7337
1366.03
-44.7696
318.441
1313.75
18.5549
261.743
1220.9
19.509
291.584
1176.37
11.5208
155.64
1157.49
-5.20044
82.3227
1156.69
-10.9833
20.5061
1152.27
-2.51245
-2.69859
1143.17
5.4007
-13.0429
1115.65
15.8408
-8.39253
1088.71
14.5158
-7.52424
1071.06
9.93329
-1.34232
1061.25
6.34705
7.35931
1055.07
9.20484
0.986356
10.6351
-9.87226
607.113
-1505.15
-5832.01
589.06
-111.256
31.5635
652.783
-302.012
-88.6089
745.802
-401.699
-167.124
801.211
-296.811
-146.258
946.498
-254.824
-192.583
1015.35
-148.696
12.4637
1042.79
-61.2809
104.004
1002.91
15.3009
293.65
959.789
28.5592
214.29
920.254
3.92642
138.186
901.964
-0.503907
79.4045
894.527
2.11832
54.7413
890.033
11.1707
39.9685
886.372
19.3081
29.7698
881.757
20.4701
15.2139
873.802
21.4615
0.805393
865.785
21.6318
-12.2268
857.129
28.5378
-28.1162
25.9012
-38.653
-691.381
-1842.8
-3732.63
-133.928
-750.227
287.245
206.283
-621.111
-365.776
378.886
-590.322
-130.402
497.32
-435.606
62.1155
614.963
-351.157
-94.9659
698.343
-250.211
-11.8017
760.036
-128.477
-75.3179
798.068
-46.1184
37.1068
815.907
2.71889
39.176
813.232
1.32129
74.705
804.521
9.26244
50.4694
796.183
6.9346
39.7526
795.013
11.085
23.7718
798.627
12.9487
14.1525
804.412
13.9556
7.6978
808.333
18.1717
-0.776583
810.578
22.8592
-10.2305
813.847
29.5023
-20.216
26.7107
-23.9687
-37.6811
-1687.56
-1309.76
193.04
-836.985
-410.17
211.83
-589.655
-316.199
329.328
-707.515
47.8686
456.952
-534.352
84.3656
547.849
-422.033
69.5518
647.936
-339.6
79.7515
713.524
-186.439
60.875
767.226
-109.144
82.3452
775.809
-9.79863
64.3573
762.666
2.89093
72.8992
740.586
27.855
47.823
727.337
17.9589
39.2599
725.026
9.74364
23.3147
735.847
-3.20952
18.7407
752.891
-4.59266
14.2494
769.077
1.33164
2.81846
780.66
12.9701
-14.3075
789.174
23.4522
-26.4941
22.6444
-19.1708
-1893.58
-1909.43
167.536
-583.62
-1104.3
-1111.76
85.2921
-1123.41
-430.257
201.018
-829.183
150.388
480.774
-797.205
53.1177
579.617
-520.411
50.0086
725.215
-486.791
99.5785
800.954
-255.077
63.9494
842.316
-152.754
94.3672
832.661
-1.29809
58.4407
794.67
29.8462
78.0581
758.203
62.7541
54.1069
737.943
27.454
36.4801
735.254
0.697602
29.9194
744.898
-22.7708
32.4269
748.875
-14.6614
28.1552
745.809
2.02991
14.2883
739.42
17.1932
5.51679
728.968
25.5038
15.8545
18.4591
24.6456
533.416
-927.468
643.677
476.766
-1200.02
-267.284
522.531
-1230.87
-254.712
599.338
-938.808
70.3095
650.467
-865.846
14.4946
687.234
-563.565
-0.544907
787.14
-585.9
19.5243
825.676
-287.045
3.20021
862.524
-185.605
33.9812
849.903
14.8899
47.3314
811.978
68.3796
53.3448
769.386
102.773
27.7754
746.239
36.7357
24.4637
724.389
10.5322
56.702
693.347
-3.25368
82.9631
652.128
15.9887
64.9487
615.732
27.4985
42.188
588.235
32.6829
32.8284
578.167
15.5496
46.2022
-7.25353
48.5676
2430.24
-255.406
285.883
1351.17
-851.746
327.485
830.508
-1104.59
-32.4684
808.728
-967.514
-28.7097
781.343
-887.311
-3.94887
735.884
-528.881
-47.6883
759.742
-152.614
-14.2838
-164.566
-145.519
-153.564
796.059
-110.274
-43.0849
-67.3859
-94.3604
-52.7177
833.794
-66.3155
-54.5098
-57.0048
-55.4618
-47.1037
843.206
-20.5094
-15.6896
12.768
-8.11519
18.1256
838.583
13.348
37.2687
21.1117
15.9749
21.7671
809.171
26.5084
62.7759
36.6379
26.1564
35.7012
742.642
20.7651
103.076
21.3479
18.8231
20.0002
652.297
14.9351
135.723
22.9388
14.6642
23.3731
572.788
65.0953
82.493
523.818
63.4677
27.0672
511.439
40.5901
14.0182
509.929
32.921
18.1398
528.326
-8.97579
27.7659
-40.7834
33.5472
1078.74
324.703
1556.72
972.53
-433.063
-1013.92
772.737
-876.984
-514.316
829.17
-971.39
-249.781
823.998
-887.511
-69.8969
213.957
-157.468
-44.7813
209.072
197.649
191.824
-118.901
-147.373
-106.412
-2.2754
208.756
-144.376
-0.761567
2.351
-192.328
201.606
-122.228
0.324624
16.3829
-214.344
215.781
-69.8957
-14.2389
21.1385
-213.251
216.756
-26.471
-18.6823
6.28029
-220.736
219.404
14.7034
-6.30378
-7.32084
-217.544
214.545
28.782
8.04667
-13.6789
-210.479
197.539
31.9635
15.4203
-26.3127
-183.203
167.849
26.9453
29.6567
562.008
28.6283
9.65344
-156.504
-156.094
-147.936
-147.695
31.2406
27.1056
30.3966
544.543
92.1716
-34.4271
543.743
53.3144
-51.8955
558.411
34.0973
-53.2526
580.71
-16.4081
-24.1188
-48.9193
2.43088
2806.32
262.428
2147.07
1809.94
-59.8324
-217.395
1342.08
-591.693
-301.367
1167.58
-784.204
-282.188
270.793
-720.006
-103.875
257.112
248.637
234.601
21.1236
273.73
-154.63
-26.8994
0.275931
35.6576
-70.4713
67.3648
-32.1607
-0.666312
-2.19166
-58.0666
31.9285
56.3464
-31.1698
3.15302
1.62118
-55.4008
20.2779
55.5222
-20.7121
-1.30835
5.90038
-54.9282
8.19408
54.8774
-8.12783
-5.9158
4.91096
-55.5572
-2.17233
55.3868
2.20648
-4.7747
0.726313
-54.878
-7.65533
54.1021
8.46256
-0.757617
-2.36928
-51.9647
-10.0049
50.583
11.3194
2.43651
-4.2835
-46.8778
-9.45133
44.9606
11.0636
4.58832
-41.8568
-4.87177
161.618
36.3349
3.6118
-43.2325
-40.9801
-41.9951
665.459
108.507
-45.3467
-161.345
-179.027
-157.074
-171.635
662.814
70.3407
-57.0106
653.779
57.4803
-70.1382
636.529
21.6377
-67.7333
-10.4367
-55.1414
-45.1878
-34.9805
154.844
474.791
-180.203
-934.444
770.889
-756.61
-449.692
837.423
-743.647
-225.191
228.695
-725.652
-27.5142
228.358
205.446
205.591
14.0915
146.23
250.65
-156.245
-26.0324
2.09384
29.6397
-69.158
70.7196
-30.0282
-3.26701
-5.80376
27.0734
-69.3728
67.4677
-25.6522
6.28777
-2.12928
19.4347
-60.248
58.7521
-18.4706
2.66114
3.22589
6.25146
-56.4434
55.9612
-5.41519
-3.58004
5.05148
-3.437
-54.9254
54.6433
4.10788
-5.44028
3.62987
-10.644
-53.7613
53.2997
11.2567
-3.78099
0.914858
-14.1902
-52.015
51.6026
14.9065
-1.21873
0.55009
-13.2098
-50.5947
50.3012
13.5425
-0.589258
-50.3195
-3.40706
-42.6752
203.293
44.1625
0.190871
-51.761
-48.9537
-50.5303
891.062
71.5618
-37.1312
-207.188
-222.331
-199.992
-215.154
915.17
52.1701
-14.6098
920.163
59.2113
2.20178
884.692
70.2233
-1.00666
54.1625
-33.6975
2747.86
-10.5738
1139.64
2395.44
-302.366
-381.49
1815.72
-304.273
-219.49
1500.47
-395.063
-213.348
321.109
-349.495
6.38068
300.979
295.045
279.195
-18.9581
170.488
305.788
-140.517
4.30842
-1.20526
34.8339
-74.1586
72.8194
-32.9295
0.640086
-5.23506
21.3326
-68.4992
67.2162
-20.2483
5.43373
-4.5982
14.6054
-61.4066
59.6003
-13.4224
5.22152
0.434924
3.37735
-57.382
57.2503
-3.49778
-0.182817
1.60585
-5.93339
-57.1329
57.2325
6.04975
-1.82185
3.85843
-12.7965
-57.721
57.8382
13.2668
-4.44591
2.23308
-16.2923
-57.8815
57.9212
16.6308
-2.61127
1.27023
-14.888
-57.8587
57.6553
15.3585
-1.5374
-57.5229
1.62371
-41.6084
237.897
38.2319
-2.70725
-60.2947
-56.445
-59.1743
1044.6
35.9862
7.28013
-246.929
-265.577
-239.074
-255.125
1062.04
34.733
14.4942
1076.39
46.1228
25.6785
1064.97
85.3831
33.9949
88.7929
5.12629
1921.51
271.801
2060.14
1511.21
-702.076
-122.687
1233.28
-451.574
106.535
1030.03
-286.169
71.7651
226.94
-102.745
501.75
221.649
205.739
200.802
-57.7074
100.444
226.799
-81.6485
39.0534
-2.41027
28.4117
-62.7817
63.2932
-28.5061
1.99318
-1.27667
18.0914
-60.3559
59.0016
-16.7567
1.29631
-2.25226
10.5637
-57.2252
56.7886
-10.2831
2.40824
-0.499162
3.34784
-55.7534
55.5347
-2.78227
0.152294
0.927016
-5.58755
-57.1787
57.7891
5.21709
-1.16693
0.679764
-12.8569
-60.1959
60.9388
12.153
-0.71874
0.759789
-16.2835
-63.8092
64.5908
15.232
-0.489849
-0.711662
-15.1677
-66.8391
67.3062
14.0782
1.33404
-67.9638
-23.1833
-31.6046
269.871
30.6498
25.85
-69.4043
-66.56
-67.6549
995.016
50.1816
52.9287
-265.399
-256.911
-250.489
-242.6
990.725
42.5251
-1.1779
997.594
44.3967
-25.9323
998.106
89.9121
-22.7329
100.149
-19.1211
1680.5
-853.141
-3802
780.515
-534.826
435.073
1066.07
-498.259
-131.819
1011.49
-258.208
307.911
1016.57
-111.745
335.677
219.226
-347.259
106.591
91.9422
152.042
102.605
152.779
215.582
207.51
203.444
23.1079
-21.1817
186.813
-52.1903
22.9879
18.944
22.4871
18.2577
11.4352
-6.48001
-150.061
148.474
-46.6022
6.13152
13.3178
10.9744
12.8101
8.37631
-1.18175
-170.607
171.183
-32.2408
-0.259229
8.86476
7.75938
8.10452
0.556183
4.52049
-161.565
162.603
-3.72595
-6.32099
2.16473
0.109338
1.65813
-3.86068
4.35533
-183.103
191.48
6.92795
-4.70743
-3.46203
-4.03152
-3.59834
-9.08298
-10.1608
-194.779
199.164
26.4023
12.3595
-7.88535
-8.64219
-7.37508
-10.7663
-22.823
-213.15
218.641
31.5268
25.0971
-9.64841
-10.0003
-8.87758
-10.5397
-25.3675
-220.301
220.013
35.2962
28.1945
-9.1361
-9.78658
-8.37297
818.435
85.7125
49.1142
-32.1038
-20.6632
-27.5909
-17.6922
-217.996
-199.076
-206.981
-192.242
821.055
46.2363
10.7709
828.477
37.7221
-9.24413
850.666
24.2141
-16.9338
879.4
61.81
-7.31303
76.5074
19.3408
2615.75
-614.896
5094.65
1562.42
10.4873
793.684
1217.17
159.8
-248.848
1069.51
17.5903
-82.0385
974.133
12.292
95.9223
827.998
-202.126
49.9238
739.662
103.461
103.27
9.38242
-16.2801
1.94363
-18.0644
646.964
-187.851
54.0331
51.1735
90.3695
54.3414
87.7745
610.11
31.0337
28.5186
16.1209
-6.4733
7.91792
-8.18509
599.48
-86.8285
22.9494
10.1713
37.2722
10.016
35.5547
613.597
39.4549
11.7553
-8.99278
-16.6227
-11.2321
-16.7642
638.344
7.44129
22.2667
-18.6989
-1.75423
-17.4406
-0.712277
675.804
61.3332
23.1063
-27.6869
-26.2269
-26.6711
-24.6347
716.607
36.7718
22.9635
-28.6579
-16.8763
-26.483
-14.1743
747.901
48.932
19.3509
770.941
17.9778
17.131
795.933
12.5533
27.7342
815.79
0.603912
49.1069
849.754
17.5527
71.0541
34.1202
82.1994
1934.87
28.4038
366.668
1486.85
275.037
-138.073
1207.36
395.267
-624.607
998.175
191.007
-10.8018
818.619
162.819
-29.7176
677.486
-74.3483
9.73284
701.871
93.6715
77.0714
606.067
-94.8747
31.9108
615.021
21.3546
21.4573
591.44
-63.431
9.76251
614.243
12.7435
17.7804
631.858
-10.1069
13.9679
663.106
24.5153
23.2855
686.204
8.70553
14.8062
711.458
18.7468
19.5087
729.234
-0.150635
26.3231
741.791
0.298944
32.6254
749.844
-8.25664
39.0225
766.634
0.786539
35.8054
11.7797
15.7897
1271.89
797.095
-1661.44
784.981
679.273
347.245
846.884
445.289
-576.377
746.519
243.221
-24.2787
759.027
151.152
-65.3219
678.77
-4.71202
-16.5575
707.316
68.171
50.9873
669.635
-60.1068
10.3232
679.928
8.98802
18.5956
664.636
-51.181
1.01883
668.996
4.77082
8.13291
667.573
-12.0027
-0.037465
672.459
16.0186
4.47236
674.793
6.27138
-4.29235
676.188
15.9502
-3.36735
670.564
8.86132
-15.2347
665.023
11.8799
-20.95
658.372
7.79715
-36.8736
664.512
1.86652
-54.8888
1.47009
-69.8821
780.322
154.541
835.171
719.691
681.493
-641.532
608.706
584.03
-416.642
497.276
338.936
-59.3019
533.071
155.063
-125.878
499.015
22.8578
-13.2693
598.291
-15.3672
-73.7264
588.592
-52.6042
-21.3042
644.175
-45.6661
-33.9709
641.198
-52.272
-18.1134
661.157
-21.5017
-0.788293
657.307
-10.9106
-1.41926
660.705
11.4651
2.32989
655.112
16.6189
-8.52936
650.338
24.5923
-19.5287
643.513
23.3248
-33.3608
640.191
23.9147
-41.0315
636.917
22.9996
-53.3557
645.905
11.6163
-66.1704
9.08525
-73.5715
850.099
281.236
-2699.94
672.795
632.012
780.741
790.766
508.226
-62.0221
760.128
349.167
109.712
761.432
143.333
109.211
758.843
32.4258
-4.08563
786.894
-34.1652
-34.3947
790.386
-48.4153
-71.1004
798.943
-51.9833
-60.7689
798.483
-48.0866
-59.8415
800.786
-26.0737
-33.93
798.392
-10.2389
-26.8339
792.711
13.3975
1.48598
784.235
26.129
4.36485
776.053
36.8689
15.2683
768.927
37.816
3.14322
765.131
34.2588
-7.73317
766.833
31.7716
-19.6921
780.052
16.014
-22.0643
14.1967
-13.2136
1655.72
-631.607
-1604.81
1552.87
337.553
808.261
852.957
726.443
545.453
692.842
466.688
67.5092
678.694
177.353
87.471
714.983
1.09302
-27.261
771.799
-69.3156
-3.60091
782.971
-24.5292
-76.8339
787.991
-20.3129
-87.7074
779.811
-6.14967
-99.9256
780.162
-7.77714
-75.3566
781.55
-0.0353257
-64.9536
791.085
5.11452
-35.8808
801.615
14.8685
-23.0432
814.578
22.1019
1.65424
826.636
25.5803
7.7808
837.736
22.0557
14.1396
849.704
19.1751
16.3705
863.257
-1.76876
34.8012
-3.51781
44.3601
327.927
-2034.81
749.484
198.266
1213.29
489.07
1537.61
434.094
1545.53
579.455
1445.44
484.919
1275.09
486.483
1203.82
265.165
1142.94
158.596
1121.76
85.7267
1093.11
81.631
1073.45
70.2805
1049.65
86.0684
1037.72
81.6809
1031.93
86.2829
1034.68
76.5599
1036.67
68.2324
1038.94
52.8668
1014.04
59.5398
52.7713
417.488
-504.744
2023.95
444.495
-106.21
-300.959
435.743
-220.709
-344.21
592.608
-198.291
-126.319
681.858
-120.744
161.186
761.161
-28.5197
48.9508
792.51
26.8693
260.222
847.229
31.0561
175.968
910.423
8.04007
220.35
973.425
-14.9166
107.554
1017.58
-25.1428
63.3087
1052.39
-27.0651
12.7669
1069.11
-19.3508
-0.0689712
1073.18
-9.74077
-7.37371
1056.04
4.61714
4.1263
1033.31
10.2164
4.99302
1013.9
13.7627
4.30796
1002.11
14.7511
4.39354
988.83
19.6411
-5.37353
14.6848
-15.7653
109.488
-997.449
-4128.75
477.209
-186.554
-255.813
336.356
-257.427
88.9614
414.092
-332.43
-110.721
428.726
-202.93
-78.7059
507.303
-155.516
-144.164
580.488
-69.8779
36.0262
639.663
-0.136926
76.0217
702.698
28.6582
209.996
738.373
25.1741
138.524
753.204
4.86478
93.3476
759.623
-0.069903
45.99
764.015
-0.30809
31.3064
768.137
6.66927
19.4369
772.601
13.9678
15.9548
774.582
18.1414
5.30812
771.702
22.4805
-5.0325
765.757
24.6142
-16.1449
755.271
28.4675
-26.4561
15.4863
-32.637
-1240.88
-816.645
-3427.52
-346.757
-733.891
-59.5407
-54.5346
-578.695
-336.731
72.5358
-547.391
-42.5106
255.378
-378.517
54.8605
351.655
-274.388
-72.3698
453.757
-181.431
-2.35017
514.07
-85.087
-50.681
576.202
-23.8001
27.4334
612.28
6.59648
21.675
639.531
0.309467
52.0098
653.705
6.5409
29.6839
664.612
2.71283
25.8251
674.427
6.77668
13.8495
684.678
8.88839
8.98112
693.775
13.0363
3.70618
699.196
18.703
-2.42091
701.927
22.68
-11.0271
704.692
24.0863
-18.5996
10.062
-21.3976
-87.0655
-1078.96
-203.475
144.66
-1093.49
-282.295
98.7825
-612.15
-236.866
197.251
-656.375
58.3842
302.999
-451.985
52.086
371.876
-323.831
50.1167
468.559
-248.053
49.6908
516.96
-111.044
38.4307
577.116
-64.8727
63.2619
593.364
11.0203
43.685
606.872
7.8188
51.8822
607.914
23.6174
29.7048
616.008
8.97777
24.9006
626.344
4.4455
15.3097
642.899
-2.66237
13.7361
661.343
0.251781
8.59065
676.229
6.34137
0.294139
685.051
12.569
-13.0184
690.284
13.2174
-20.8588
1.78985
-14.2089
935.112
-2873.12
-3205.87
-353.662
-1165.66
249.18
52.5085
-1036.79
-411.788
90.9772
-735.828
191.372
319.404
-666.86
39.5659
379.938
-376.407
42.051
517.15
-348.631
62.9446
562.967
-125.971
33.0589
605.087
-74.5999
61.974
605.763
31.6745
37.1102
608.977
27.5263
55.1373
609.145
44.7753
32.7807
619.215
8.73142
26.6559
633.831
-2.35586
22.1049
652.005
-12.864
24.4546
662.744
-0.999976
18.668
665.55
8.28231
9.54154
662.687
15.7357
5.21345
656.02
14.5423
21.1964
2.93416
26.6181
882.519
-1795.24
2214.42
589.696
-1270.6
130.474
405.385
-1098.18
-9.00723
438.037
-802.122
103.951
470.177
-716.724
32.2182
488.544
-404.865
9.54618
597.896
-447.991
9.53228
608.587
-133.818
0.356661
639.505
-93.0065
21.4697
631.67
59.0564
27.7846
622.882
55.3286
34.3309
607.84
70.885
16.7077
605.426
11.7802
23.8288
607.181
7.6961
44.895
611.403
4.97601
60.9012
598.943
27.1794
49.2287
575.255
36.0619
38.097
553.526
36.9819
33.3103
551.251
15.7722
47.2482
-5.1784
47.1907
795.347
-1997.8
2613.18
560.644
-1199.35
490.937
515.638
-1102.06
16.41
545.036
-856.41
-3.81987
571.297
-754.358
7.42496
519.085
-373.114
-27.229
572.461
-124.925
-10.2491
-133.565
-120.268
-126.643
594.253
-67.3996
-26.0381
-28.7893
-56.2728
-20.1955
622.13
-39.8463
-37.485
-32.1312
-36.3546
-29.576
623.708
0.765006
-11.9294
24.8629
3.21582
24.874
625.884
14.9649
26.7724
19.4432
12.53
16.7108
608.363
21.8311
50.0474
31.1233
19.2162
28.9638
587.183
14.2268
79.2753
16.0011
11.8214
14.7114
565.614
13.493
94.5254
21.9751
12.9248
22.07
532.232
63.9335
56.9176
499.684
67.8215
18.9731
489.992
50.9728
8.79932
488.735
44.7407
11.6385
508.365
3.68411
20.2237
-24.1574
29.2738
2511.28
-1166.44
2827.8
1305.25
-770.291
-236.934
696.75
-901.802
-106.073
628.697
-897.678
-140.459
613.762
-783.851
-25.4682
157.437
-120.546
-14.3734
151.241
144.401
137.345
-80.0336
-109.952
-69.651
-2.05232
153.416
-117.813
-1.03849
3.59751
-138.879
153.071
-83.5231
-1.66547
16.373
-167.448
167.517
-42.5403
-13.7486
16.6346
-164.311
165.028
-2.98561
-13.6015
6.47378
-168.037
164.978
18.1952
-6.64514
-8.08091
-162.578
159.976
25.422
7.09268
-16.8034
-158.102
149
25.3113
14.8208
-28.7419
-143.751
138.973
23.3536
23.6596
506.955
24.3851
-4.6091
-135.37
-136.451
-127.953
-128.283
27.3099
21.9544
25.6482
493.066
79.3035
-32.0196
487.084
47.2816
-42.2228
492.502
31.2495
-45.179
512.301
-15.2724
-24.9618
-34.84
-5.9272
2101.13
241.152
-154.867
1488.42
-102.729
-272.249
1141.7
-622.974
-233.482
909.619
-746.013
-201.769
204.277
-651.202
-76.451
189.266
185.86
170.142
22.9243
203.482
-123.714
-18.9618
-0.508811
28.6687
-52.9474
49.6188
-25.1247
0.293356
-2.85143
-43.7536
23.8051
43.4148
-23.477
2.86203
1.80382
-45.3385
13.0533
45.5068
-13.4693
-1.55603
5.94061
-44.1701
3.17159
43.6692
-3.24176
-5.36954
4.22484
-43.4845
-3.99878
42.886
4.2882
-3.91575
0.643943
-41.5481
-7.00159
40.7089
7.8677
-0.670934
-2.43911
-39.8358
-8.1213
38.9504
9.26526
2.18063
-4.6744
-37.5996
-7.60842
36.8189
8.85863
4.20489
-36.8247
-0.620395
144.936
29.7044
-1.91138
-37.9133
-36.0119
-36.9733
582.009
75.511
-35.9036
-144.598
-158.131
-137.461
-147.47
571.096
48.6535
-47.4695
554.029
38.148
-59.9694
536.977
-1.16276
-64.7911
-24.3667
-52.6881
767.519
186.7
-4671.92
446.385
-241.01
-475.029
660.925
-787.628
-499.578
595.479
-747.973
-157.784
161.179
-661.832
-27.0048
161.841
140.901
141.679
23.534
123.764
176.167
-137.624
-24.6627
1.49402
24.2738
-49.852
50.8784
-25.1575
-1.63664
-6.42686
21.1651
-49.9597
49.5712
-20.3838
6.03407
-2.509
12.8984
-48.9574
48.6667
-12.293
2.19428
3.9761
2.11371
-47.3847
46.6978
-1.53523
-3.86768
-45.0887
5.35652
-4.72469
44.5458
4.95109
-5.04