/*--------------------------------*- C++ -*----------------------------------*\
  =========                 |
  \\      /  F ield         | OpenFOAM: The Open Source CFD Toolbox
   \\    /   O peration     | Website:  https://openfoam.org
    \\  /    A nd           | Version:  10
     \\/     M anipulation  |
\*---------------------------------------------------------------------------*/
FoamFile
{
    format      ascii;
    class       surfaceScalarField;
    location    "2.1";
    object      phi_0;
}
// * * * * * * * * * * * * * * * * * * * * * * * * * * * * * * * * * * * * * //

dimensions      [0 3 -1 0 0 0 0];

internalField   nonuniform List<scalar> 
38556
(
1050.87
466.558
1319.05
1157.25
30.8413
-137.225
1286.1
-91.8463
-36.9971
1538.77
-162.262
-90.4058
1634.3
-224.794
129.259
1740.72
-258.346
151.929
1698.8
-225.567
267.489
1653.03
-185.617
231.384
1493.78
-60.1808
219.427
1365.24
5.56203
122.979
1272.94
35.3576
56.9465
1219.48
45.4018
8.05285
1177.04
52.5036
-10.0614
1134.7
59.2196
-16.8766
1098.07
56.9819
-20.3517
1077.98
40.0441
-19.9562
1069.19
17.6014
-8.8064
1063.15
1.79584
4.24026
1063.41
-4.62952
4.37375
-1.72477
-1.17286
266.717
-263.805
-476.061
675.271
-348.581
-29.1328
905.423
-235.356
-86.6414
1201
-301.436
-156.402
1363.13
-251.983
-134.946
1558.79
-301.324
-152.674
1608.76
-255.814
-19.7282
1552.51
-188.297
58.9341
1282.02
-44.8749
255.185
1083.05
14.6921
189.842
1014.7
-5.08574
108.792
987.497
-0.204729
72.8077
972.832
15.007
52.1612
960.625
30.2875
41.1395
952.374
35.9102
29.3231
945.288
30.8559
16.2742
936.119
22.543
4.22716
926.873
15.934
-4.89281
919.141
20.1009
-16.9983
28.2283
-27.7
70.2945
-1321.82
-1358.63
184.089
-548.813
86.4377
735.831
-393.62
-393.478
958.821
-386.738
-137.688
973.033
-296.598
30.4039
1023.91
-285.976
-66.2249
1038.89
-242.484
-28.3142
1077.18
-151.086
-75.5009
1078.58
-61.7258
15.4577
1059.87
-2.73684
36.1383
991.499
-8.50753
71.7891
932.321
6.79853
52.1744
896.007
15.3055
36.0153
881.649
22.3275
22.3183
882.725
23.5008
11.3333
886.55
20.0832
6.94786
889.562
19.624
-0.0931344
891.325
20.6672
-6.49655
894.326
32.5007
-15.4008
42.4556
-18.6891
110.33
-1652.17
1435.59
142.018
-396.952
-183.548
392.243
-324.068
-319.777
518.149
-569.924
57.2794
624.2
-507.84
105.191
721.426
-477.213
94.0115
821.937
-434.163
91.1685
904.426
-305.179
71.6039
962.469
-194.184
74.4155
969.993
-68.4474
58.1869
918.077
-18.8364
62.2446
849.684
31.2526
43.9394
799.81
28.3607
36.8181
779.984
22.838
19.3152
787.099
2.61186
13.7746
803.446
-8.8401
12.5764
823.272
-2.80615
2.60455
841.327
14.9386
-12.327
859.51
37.72
-23.4017
45.984
-16.6471
-1079.41
-2011.11
-2380.1
-679.01
-693.949
-103.409
241.737
-971.721
-273.094
364.037
-798.312
106.087
647.427
-849.182
57.9524
781.105
-666.998
56.1071
915.755
-670.165
101.351
1017.29
-481.184
74.4651
1090.11
-359.144
92.1491
1091.88
-127.179
56.9557
994.714
7.71284
70.6178
890.823
82.2191
52.9238
833.815
60.3465
25.0225
813.042
26.1588
17.4528
805.882
-12.7002
22.4721
792.492
-17.6526
22.2019
778.833
-1.57989
12.4334
768.605
21.462
3.70462
760.139
38.0293
8.15639
33.8996
15.5931
-883.275
-1372.81
-1198.26
-4.18755
-1112.41
-460.625
643.012
-1243.03
-375.886
775.15
-967.672
37.2215
869.537
-935.73
-7.83795
925.568
-719.8
-3.2294
998.213
-765.97
23.1597
1044.84
-539.741
11.9266
1088.26
-442.447
39.8893
1079.16
-170.47
52.3932
1005.75
29.9298
51.1874
931.057
132.141
24.7723
892.799
87.6347
10.9695
831.171
41.5642
46.2224
743.645
1.95653
72.8699
657.286
13.7072
54.9988
601.711
23.4222
30.5729
569.109
32.803
21.2612
555.553
24.8122
26.7728
4.09581
27.6953
-229.759
-1187.16
-1378.9
402.979
-1088.24
-656.907
862.417
-1200.7
-501.772
963.83
-988.478
-80.6064
1028.63
-942.868
-57.6583
1022.76
-656.911
-57.0271
1012.71
-174.192
-20.4192
-198.999
-171.244
-191.066
1034.27
-150.424
-43.5977
-126.46
-136.449
-104.366
1059.8
-114.662
-56.145
-114.416
-91.8549
-90.9021
1077.05
-66.2803
-17.5603
-40.537
-42.8787
-20.4627
1055.45
-9.5606
38.8268
3.81539
7.77131
10.683
996.092
29.2049
56.1066
36.1211
33.3912
36.6716
883.009
32.7016
82.1749
28.5349
32.0652
25.2409
714.041
26.7344
111.855
24.8775
23.8175
23.2486
576.251
69.3504
70.3957
505.728
59.124
25.1067
484.862
29.5354
14.7521
478.287
22.1001
17.2778
491.754
-10.6559
22.0012
-35.6768
22.131
154.864
64.7208
-100.034
634.016
-688.65
-878.745
877.568
-933.669
-510.584
1036.57
-954.799
-192.682
1088.37
-918.822
-75.8406
282.112
-164.827
-54.902
272.895
274.748
267.296
-137.078
-169.16
-139.63
274.229
-163.127
-3.18173
-248.8
253.259
-155.363
0.479707
-254.067
258.475
-114.954
-4.11584
-250.067
261.322
-70.3379
-7.19744
-265.234
270.742
-17.1175
2.04851
-263.306
262.471
23.47
6.56965
-250.72
234.148
40.3131
8.95967
-203.906
178.005
37.1134
15.5217
557.897
35.3907
14.6041
-154.677
-159.279
-160.697
-159.481
29.087
36.0668
30.4378
540.567
100.344
-23.8893
552.977
57.4281
-40.3022
577.889
34.324
-37.1361
591.183
-15.5565
-8.39347
-50.2865
10.8266
675.957
774.491
-1139.56
1178.11
-159.178
-1031.63
1341.66
-585.633
-511.578
1388.8
-728.775
-273.172
315.793
-707.632
-93.6189
304.521
332.507
318.412
313.426
-145.563
-16.898
37.1415
-79.1704
75.2499
-33.604
0.38294
-59.8665
36.7094
59.7489
-36.3771
-0.214616
-58.9498
28.6696
60.1514
-29.5477
-0.323529
-60.1606
16.21
62.1731
-16.4126
-1.80989
-64.9671
4.93482
66.819
-5.82219
-0.964519
-68.0236
-5.85697
68.7392
4.76604
0.375325
-64.0279
-12.6979
63.0241
12.6113
1.09042
-55.0431
-12.9175
52.5883
13.5245
1.84783
-42.2696
163.844
44.1675
4.83798
-44.4071
-43.9515
-46.8309
670.176
144.288
-33.3277
-157.067
-179.809
-161.826
-182.091
673.868
96.6194
-42.8839
682.874
81.0451
-55.727
668.277
45.441
-46.3999
8.58369
-33.6318
-650.01
1258.7
1506.97
237.496
-341.441
-705.243
867.445
-885.79
-329.793
1064.68
-798.445
-127.564
290.371
-796.259
-0.282299
284.263
292.108
286.847
132.159
313.115
-146.107
-8.7952
30.0063
-84.0621
84.0542
-29.4737
-0.524666
30.5586
-79.3589
74.0147
-27.947
2.73257
25.7477
-64.951
63.9028
-23.4444
-1.25508
12.0412
-62.2495
62.1327
-10.6916
-1.23281
1.49966
-63.2153
63.7328
0.147789
-2.1649
-7.22778
-65.2764
65.7078
8.55363
-1.75727
-16.829
-65.3274
64.2645
18.0296
-0.137702
-17.9044
-60.6386
59.7343
19.1807
-0.371901
-57.2179
-53.9477
219.379
57.6876
4.1056
-58.4434
-55.185
-56.3781
938.303
116.85
-28.4327
-216.503
-230.683
-210.334
-224.912
980.469
62.8389
-8.38605
993.146
58.9534
9.4153
954.308
71.189
13.0896
62.8608
-8.86995
1753.29
-245.133
536.32
2638.5
-337.815
-888.842
2359.38
-273.716
-332.954
2061.84
-330.648
-170.25
373.667
-323.005
80.8793
340.17
407.558
386.309
172.12
333.443
-134.699
2.80375
34.7365
-81.0478
79.1926
-31.8833
-0.997954
22.4364
-75.0512
71.1167
-21.7165
3.21466
17.5177
-61.6397
59.8124
-16.0634
0.372949
8.58112
-59.0389
60.5936
-9.50494
-0.630902
-4.32394
-62.7262
63.052
4.72647
-0.728357
-12.8307
-64.1693
64.5953
13.9447
-1.53992
-20.9125
-65.4699
65.6448
21.4859
-0.74822
-22.8555
-65.4797
65.2509
23.5135
-0.429286
-61.9146
-59.2937
247.46
62.3519
-1.16153
-64.2704
-60.1797
-62.9924
1094.27
57.5067
9.09674
-254.398
-271.719
-249.348
-268.56
1127.35
14.7657
14.9926
1151.43
7.0578
27.8196
1136.26
47.9121
38.4411
65.9695
20.459
1778.03
-300.431
-958.223
2636.89
-201.249
-995.422
2647.82
0.207988
-284.859
2269.55
51.3001
-3.6766
300.003
73.5422
585.768
298.642
347.607
340.982
100.021
243.579
-92.4488
48.8508
26.7911
-65.6114
65.8746
-26.3471
-0.707204
19.5102
-66.1955
64.6007
-18.5512
0.635825
12.8062
-61.8288
61.5006
-13.1391
0.661055
10.7422
-60.2504
58.7285
-9.94502
0.72481
-3.78116
-60.1191
61.5307
2.63288
-0.263259
-15.0779
-64.7062
65.3777
14.7491
-0.342673
-22.1872
-67.9162
68.6263
22.0125
-0.535345
-23.6811
-71.4673
72.1275
23.2711
-0.250135
-72.367
-61.382
282.521
53.5989
16.6732
-74.4171
-71.1729
-73.4541
1021.28
54.3503
45.9168
-270.339
-262.388
-269.478
-261.836
1013.44
20.9992
1.61043
1031.28
10.1947
-20.9808
1037.65
58.8214
-17.279
85.8486
-14.1283
1485.81
-665.136
2169.44
1706.85
-141.962
-280.33
1605.82
-14.6975
115.935
1437.54
-48.1702
267.754
1201.94
-11.8649
321.002
257.625
-304.481
83.8485
94.7124
139.664
50.4774
129.177
252.967
251.193
246.761
21.6383
219.698
-52.8437
7.30901
17.8183
24.8315
19.1738
11.6777
-175.567
157.211
-34.9025
4.05234
12.7889
11.927
12.8131
11.3215
-175.955
175.494
-44.6802
0.742163
11.4106
10.8828
10.7837
4.4082
-161.946
156.613
-12.1177
-0.675721
5.53265
3.86881
4.31681
-0.458253
-178.98
193.142
-4.15384
-3.27718
-1.53678
-1.73028
-3.00469
-9.96046
-201.404
208.933
28.3244
6.35651
-10.9771
-10.1748
-11.0981
-14.4304
-225.681
231.263
36.657
16.0498
-15.3894
-13.8189
-14.6501
-13.8594
-231.748
227.271
42.2661
17.154
-13.966
-13.3851
-13.7322
837.078
102.327
37.708
-41.2517
-28.9182
-37.4955
-29.9158
-222.493
-198.373
-221.18
-197.486
832.716
49.8522
8.85979
837.214
23.3887
-6.88713
858.416
3.23465
-14.2425
886.404
36.8829
-6.04883
49.4057
16.3123
2359.72
-247.283
274.256
1828.36
115.828
273.575
1406.56
343.812
63.2841
1293.52
40.201
24.6739
1185.16
-33.5155
130.005
1072.05
-237.175
45.8068
923.71
40.933
91.0097
23.3143
-13.0803
21.7136
-15.5517
799.307
-178.14
54.7205
38.366
84.3515
42.7174
82.3872
706.164
22.4319
32.5332
31.3161
-6.03959
22.5522
-9.65037
666.813
-80.7299
18.4485
14.3238
41.7285
11.417
34.1629
656.324
36.3453
11.6358
5.13046
-17.8068
-3.17231
-21.6433
674.177
12.0298
16.283
-15.5179
-4.60084
-18.163
-7.88401
707.748
67.3861
17.0042
-24.5714
-32.217
-27.2954
-33.8775
753.528
45.3804
14.4167
-28.3333
-23.2788
-29.3548
-24.6114
790.96
50.7178
14.1779
814.208
14.2784
12.3259
824.974
-15.3193
27.9413
826.008
-41.9518
44.1526
836.524
-34.9394
61.3063
-35.1942
71.1617
673.868
437.002
978.681
689.347
306.147
-205.798
1298
391.022
-655.859
1183.53
199.686
-45.019
1072.63
141.615
-64.2317
902.365
-58.975
-7.93314
787.606
58.8095
96.882
676.271
-94.37
27.5653
664.146
16.4889
18.0685
643.022
-68.7584
9.15249
663.793
2.62283
12.9512
683.166
-20.5276
13.1843
715.547
16.1487
18.8558
745.454
3.8448
11.6293
770.781
9.45943
15.9312
773.588
-13.7581
25.2299
757.321
-31.3535
32.301
731.771
-55.314
38.9121
716.795
-55.6932
35.7299
-50.7365
12.7956
1131.74
290.055
-4459.98
589.718
743.647
104.525
994.71
437.499
-451.469
979.145
292.511
-77.261
998.574
180.672
-58.4853
916.049
49.275
-25.7249
831.561
86.023
57.275
764.447
-32.7032
5.44639
749.384
14.067
17.4857
737.761
-54.51
-2.62583
741.825
-4.78788
3.3465
745.708
-21.6301
-2.77997
752.888
7.94945
1.01968
757.521
3.94559
-4.73398
756.836
15.6939
-5.54918
741.165
13.2321
-11.3192
708.573
15.6397
-14.4015
673.253
7.27748
-27.2715
659.174
6.06131
-47.675
13.0411
-68.1892
-26.0314
-356.488
-1269.43
623.026
740.373
-645.784
661.994
765.994
-367.463
552.066
479.991
-77.5511
571.27
245.665
-84.1982
526.978
110.907
-17.3406
615.025
55.3836
-57.4073
613.754
-4.60701
-26.8255
683.823
-22.378
-33.6236
694.588
-42.4836
-22.7915
721.053
-25.6948
-5.55851
723.685
-19.8422
-4.41991
728.842
1.825
0.968058
726.772
10.7596
-4.7437
722.003
36.6067
-16.144
714.493
46.6604
-25.919
706.433
56.2067
-32.5064
693.785
61.2165
-41.2911
687.029
59.7968
-46.9792
62.8587
-53.6021
1219.15
-332.424
-2666.07
803.325
714.244
441.953
974.152
625.29
-30.1231
907.641
464.794
81.7079
826.817
231.189
95.3007
822.058
116.171
-0.505649
857.062
47.5728
-27.1933
886.125
28.7371
-62.4065
913.122
9.44519
-58.8206
937.883
-9.93011
-57.3146
956.819
-7.62316
-37.0069
967.891
-1.76003
-29.1546
957.116
15.4849
-2.88456
933.136
29.4612
5.27802
892.859
57.395
19.4887
861.221
67.7704
10.5286
848.386
70.1761
-1.13484
849.243
69.5352
-9.17496
859.488
53.5542
-4.00234
48.2497
4.81921
1659.15
-472.556
-1039.17
1387.85
519.1
466.448
1127.4
830.671
55.0717
941.458
625.448
25.2841
734.463
332.188
105.996
732.407
142.485
-24.2574
778.863
-16.4944
17.6113
809.656
39.3708
-41.4265
824.685
43.8236
-49.4075
827.79
52.5358
-65.5709
833.71
42.6004
-56.1435
843.895
41.1641
-53.1091
855.596
38.2717
-34.4881
865.54
43.0372
-23.52
873.389
49.3746
0.172516
879.593
53.7738
7.79261
884.148
52.4341
13.1864
890.643
47.034
16.0061
898.486
14.7004
31.0105
5.36039
35.9997
747.721
-5605.07
1097.83
168.992
1737.4
191.101
2086.44
276.407
2004.73
413.9
1764.33
382.883
1362.4
385.436
1186.78
214.989
1113.71
116.9
1096.42
69.8181
1078.46
60.5664
1069.22
50.3989
1050.22
57.2727
1038.37
54.8934
1029.26
58.4762
1029.27
53.7692
1033.51
48.1935
1044.64
35.8989
1022.75
36.5895
31.5816
-356.364
-145.866
2805.05
-140.278
-50.8555
-302.455
666.691
-233.272
-610.693
1010.67
-271.636
-162.744
1255.36
-236.31
120.873
1422.45
-122.849
107.685
1392.43
-27.4184
324.935
1324.37
31.286
268.15
1221.91
28.2071
293.68
1171.09
17.7208
156.077
1148.24
-2.06693
81.8649
1143.85
-8.02292
20.4648
1136.72
-0.496743
-2.43116
1124.96
7.98448
-13.1035
1095.3
17.8853
-8.57467
1066.91
15.9272
-7.48978
1048.26
10.9777
-1.13921
1037.48
7.25983
7.75706
1030.19
9.98062
1.69289
10.9712
-9.60163
828.44
-998.117
-4853.97
819.359
58.0162
-128.923
800.159
-185.128
-115.586
836.882
-308.39
-156.372
871.502
-242.006
-163.868
990.95
-208.451
-186.52
1042.85
-115.251
16.2062
1053.22
-37.6686
117.514
1002.68
32.8708
301.06
952.263
40.5813
217.402
908.285
12.4243
138.279
887.1
6.43843
79.5307
877.105
7.72499
53.9345
870.61
15.8022
39.8171
865.329
22.9166
29.5732
859.322
23.273
14.9347
850.274
23.6026
0.651079
841.231
23.333
-11.9227
831.665
29.7449
-27.1973
26.3887
-38.1968
-521.103
-1405.86
-3973.27
16.5116
-524.262
131.101
275.169
-468.301
-368.962
434.255
-465.64
-139.524
538.851
-357.268
41.068
640.861
-294.788
-81.8971
712.405
-207.482
-7.62786
763.007
-96.5203
-67.251
794.335
-24.143
41.1436
806.526
19.5505
44.9785
800.274
13.6973
76.7683
787.878
19.8772
51.1314
777.157
15.0468
39.4148
774.18
17.4472
23.6506
776.701
17.5121
14.2164
781.498
17.7083
7.71627
784.499
21.3077
-0.799152
785.639
25.3248
-9.6291
787.927
31.1309
-19.0752
27.401
-23.2037
84.9132
-1248.42
-657.061
284.106
-623.432
-283.571
204.247
-420.917
-287.302
343.789
-586.205
38.3025
475.613
-449.549
65.6488
555.764
-358.09
77.1624
650.045
-291.919
81.3244
708.229
-150.845
67.7448
756.493
-83.4537
85.4622
761.682
4.28442
68.2648
745.329
18.0744
74.22
720.324
40.5559
48.2661
705.259
27.8018
39.1275
701.438
17.4611
23.1224
712.297
0.82607
19.6016
728.635
-1.19492
15.1413
743.959
5.23987
3.34832
754.628
16.0545
-13.7249
762.227
25.4553
-25.3251
23.3736
-18.0287
-1985.19
-1825.41
-467.698
-676.592
-983.071
-1052.37
6.42965
-990.172
-386.86
171.646
-744.17
98.8357
466.67
-718.311
31.6905
570.775
-465.189
59.1008
715.51
-440.613
105.31
788.498
-219.242
69.8738
827.004
-124.361
94.5513
814.477
13.7528
60.0142
774.612
47.9124
80.645
735.831
77.5283
54.7321
714.209
38.3851
36.0614
711.179
8.34631
29.5978
719.515
-17.1302
32.0916
722.689
-9.35308
27.1863
719.144
6.58912
14.6293
711.698
20.9389
6.26591
700.125
27.9865
17.1982
19.3771
25.3747
243.436
-992.842
133.235
335.844
-1149.76
-386.341
449.985
-1162.36
-317.834
556.637
-879.694
66.0939
629.553
-804.103
5.03853
668.112
-512.515
5.5379
769.909
-543.54
24.2888
806.444
-250.336
6.48571
842.352
-156.166
35.7859
827.595
34.8155
46.0865
787.487
86.4981
52.7103
743.987
118.289
27.512
720.255
47.9874
25.0991
696.938
19.1624
58.7229
665.609
1.21673
85.8523
622.908
22.4877
65.8594
585.655
32.4892
41.9257
557.743
36.3263
33.7859
547.336
17.68
47.4858
-6.37243
49.0011
2475.34
-327.551
612.039
1284.2
-812.9
197.372
775.902
-1046.25
-109.588
765.17
-920.917
-28.6516
750.923
-835.873
-11.6416
707.33
-480.928
-45.0212
735.535
-138.828
-13.1073
-159.677
-131.871
-148.682
771.17
-96.4518
-40.7395
-63.1051
-80.7497
-48.523
807.967
-54.6358
-51.7735
-54.2193
-44.0464
-44.4328
817.86
-12.0362
-12.2362
13.1623
-0.682221
19.1544
812.88
22.8192
38.3875
21.5652
25.3507
22.1824
782.031
34.8794
63.8668
36.5132
34.4338
35.5516
713.994
27.9843
105.469
20.0375
26.0131
18.6957
622.127
21.5456
136.87
21.368
21.2739
21.826
540.332
73.0585
80.3494
491.663
69.8006
26.4633
479.403
45.4506
14.0501
477.912
36.2386
18.8563
496.314
-7.4295
28.7094
-39.8931
33.9136
858.507
-85.0422
-78.496
898.357
-487.026
-1244.47
731.386
-841.598
-548.263
792.302
-931.749
-242.767
792.196
-841.064
-70.5433
206.695
-142.117
-40.6127
200.673
190.495
183.523
-111.283
-131.984
-99.0221
-2.66578
204.188
-133.226
-0.428286
1.94408
-183.029
196.842
-113.276
1.06672
16.3542
-205.121
210.894
-62.5943
-14.1693
21.2491
-204.04
212.232
-21.5608
-19.9162
5.62882
-211.856
215.291
19.6268
-5.87193
-7.26124
-208.468
209.551
32.9606
8.09668
-14.061
-201.218
192.109
35.2713
15.8832
-26.384
-173.45
162.246
29.3968
29.7374
529.118
34.2818
8.04979
-147.148
-148.223
-138.657
-139.944
29.1624
32.7269
28.2964
511.746
98.6349
-35.3514
511.068
58.177
-52.3512
525.818
37.1727
-52.8198
547.94
-14.9906
-22.9541
-48.5372
4.19882
2727.32
314.633
1994.05
1750.15
-100.144
-441.34
1305.91
-558.572
-350.366
1130.65
-738.306
-291.346
262.069
-671.467
-105.061
246.555
240.019
223.847
20.204
267.084
-141.406
-25.9298
-0.212991
32.2416
-68.1384
65.6744
-29.3953
-0.169222
-2.19415
-55.6593
28.6928
55.0339
-29.0161
3.1429
1.75916
-53.222
17.4075
54.3591
-18.8222
-1.48159
5.98686
-52.8227
5.82954
53.7557
-6.77988
-5.96961
4.70054
-53.4365
-4.45257
54.4426
3.40019
-4.65432
0.734698
-52.752
-9.74892
52.9355
9.59213
-0.76149
-2.34108
-49.6961
-11.876
49.2689
12.2318
2.41245
-4.26568
-44.5029
-11.0892
43.5439
11.7451
4.56875
-39.3632
-4.37456
156.17
38.4278
2.94949
-41.0879
-38.5299
-39.9101
632.772
114.249
-46.2941
-152.153
-171.408
-147.891
-163.967
630.147
75.2845
-57.3667
620.455
60.9883
-69.8505
602.664
23.4368
-67.0365
-9.9459
-54.632
-64.306
168.301
168.759
422.812
-151.247
-1141.26
721.266
-735.248
-451.57
798.254
-707.135
-235.722
222.812
-687.708
-19.7622
217.272
199.435
194.455
14.222
135.773
242.651
-143.895
-25.9392
1.84361
27.4119
-67.3339
68.4112
-27.3455
-2.98735
-5.91403
25.0163
-67.0278
65.0913
-23.5912
6.42542
-1.98749
17.4938
-58.0235
56.6074
-16.5642
2.47398
3.29281
5.03017
-54.5056
54.0681
-4.22314
-3.6623
5.25737
-4.80234
-53.1229
52.8275
5.4781
-5.63776
3.67011
-11.9038
-51.8935
51.4122
12.5297
-3.81462
0.944844
-15.1904
-50.0841
49.6629
15.9227
-1.25591
0.604482
-13.9632
-48.6397
48.3471
14.2906
-0.639295
-48.3218
-2.88
-44.9424
195.634
46.4837
-0.393019
-49.8933
-46.9985
-48.6886
859.344
78.4171
-38.2362
-199.306
-214.732
-192.104
-207.566
883.016
57.6775
-14.4504
887.436
63.3497
2.63362
850.413
72.765
0.784826
55.2951
-33.3863
2554.58
-273.917
1271.41
2314.02
-336.721
-462.802
1752.71
-273.743
-233.159
1449.06
-362.858
-210.867
310.899
-316.22
7.56284
287.722
285.87
266.392
-19.149
161.431
293.448
-129.488
4.65643
-1.36803
32.4072
-71.6319
69.9954
-30.2386
0.835799
-5.44663
19.1874
-65.9183
64.6491
-18.1378
5.66632
-4.55485
12.8897
-58.8878
57.1589
-11.771
5.16508
0.686444
2.04123
-55.1828
55.1351
-2.15151
-0.528415
1.76525
-7.32508
-55.0587
55.1579
7.43199
-1.97136
3.83645
-14.05
-55.6347
55.7627
14.4943
-4.40876
2.21481
-17.3049
-55.8539
55.9131
17.6316
-2.60076
1.2933
-15.6637
-55.8266
55.6174
16.1385
-1.55892
-55.4339
2.01804
-44.0429
229.94
40.6002
-3.18755
-58.3015
-54.3843
-57.2077
1011.52
44.0679
6.18994
-238.797
-257.524
-230.936
-247.009
1028.72
40.9863
14.4865
1042.67
50.8879
26.3296
1030.16
88.7236
34.9927
90.3447
5.55816
1723.18
216.948
1155.68
1454.77
-684.716
-379.01
1169.13
-405.979
133.017
977.484
-250.097
75.2056
216.592
-67.568
507.392
207.484
196.001
187.13
-56.8517
92.2647
215.392
-72.4466
38.2328
-2.36994
26.3324
-60.1523
60.3324
-26.1114
1.96887
-1.30919
16.0984
-57.5763
56.2948
-14.8454
1.33767
-2.21772
9.04148
-54.5977
54.191
-8.79706
2.38
-0.421024
2.07025
-53.2653
53.1022
-1.60204
0.115976
0.955389
-6.92654
-54.8441
55.493
6.52461
-1.20243
0.708545
-14.0418
-57.9509
58.7092
13.3161
-0.741247
0.761922
-17.2362
-61.616
62.408
16.1658
-0.483492
-0.754891
-15.9325
-64.6708
65.1367
14.8348
1.38667
-65.7473
-22.9264
-33.9394
261.397
32.8621
25.5507
-67.2762
-64.3608
-65.5598
958.379
57.4427
51.9339
-256.478
-246.901
-241.64
-232.753
954.735
48.1453
-1.9047
961.757
48.6956
-25.8106
961.771
93.3856
-21.9545
101.778
-18.599
1400.5
-885.291
-5248.9
754.998
-453.68
134.141
1009.5
-408.773
-135.774
952.134
-209.521
284.544
952.056
-73.5906
327.103
204.803
-316.063
101.794
86.6384
140.91
96.9828
141.581
199.128
193.203
186.928
21.6173
-21.9494
171.881
-43.7401
23.9321
16.3686
20.9844
15.709
10.3454
-6.84472
-136.308
135.321
-40.5072
6.39512
11.1144
9.86412
10.6199
7.50591
-0.971387
-158.302
158.497
-25.8392
-0.512435
6.77248
6.85694
5.99229
0.644971
4.3845
-150.099
150.74
-0.19841
-6.26201
0.564626
0.194536
0.0310029
-4.17889
4.26654
-171.314
180.092
11.0204
-4.43797
-5.4829
-4.36468
-5.60051
-9.26387
-10.4761
-183.696
188.315
30.1812
12.6853
-9.72601
-8.82445
-9.19475
-10.7693
-22.9808
-202.828
208.352
34.8732
25.2641
-11.3424
-10.0083
-10.561
-10.457
-25.2749
-210.171
210.105
38.1133
28.1021
-10.7399
-9.70978
-9.96819
778.371
94.1263
47.5679
-31.0586
-26.1709
-26.5809
-23.2933
-208.055
-188.427
-197.131
-181.641
782.159
52.4049
10.11
790.225
42.674
-9.48231
812.97
27.9913
-16.2827
841.565
64.9923
-6.25021
77.9154
20.1101
2272.78
-603.418
4258.41
1410.66
25.0369
656.986
1123.11
207.295
-265.243
987.202
49.7498
-98.6848
896.03
47.5811
100.005
763.121
-183.665
46.3163
677.98
126.043
101.684
4.82596
-26.6049
-1.49157
-28.3048
590.678
-171.823
50.9665
49.2478
81.9253
52.3635
79.342
555.942
47.9069
30.7501
13.5067
-14.1728
5.10009
-15.8218
548.546
-73.9625
22.8175
9.0815
30.3416
8.91197
28.6543
565.036
52.4955
11.8002
-8.7742
-24.4661
-11.4104
-24.4992
592.226
16.7059
23.0588
-18.3487
-8.21653
-17.05
-7.05615
631.919
71.8048
23.4737
-27.3122
-33.0162
-26.2938
-31.3458
674.042
44.2809
23.0731
-27.4687
-22.5181
-25.2957
-19.7772
706.551
55.8932
19.9011
730.673
22.8693
17.7402
756.244
16.5483
28.496
776.46
1.99788
49.929
810.446
20.1253
72.1871
35.3664
82.4664
1899.47
51.0018
656.697
1386.89
352.614
-20.7904
1124.37
420.669
-606.712
915.405
220.711
-7.01878
746.233
183.579
-31.0562
605.137
-56.3373
5.83468
638.254
110.106
79.703
546.71
-82.4767
29.7624
559.081
33.41
20.1946
538.442
-53.1522
8.98099
565.495
20.382
18.0127
583.199
-2.36267
14.5483
617.145
32.352
24.3629
642.266
14.12
16.6694
668.419
24.7561
20.9149
687.32
1.66701
27.5314
700.713
1.91693
33.5393
708.625
-5.97246
38.9707
725.879
2.12675
36.4743
12.6387
16.1749
1001.38
874.248
-2952.82
661.294
723.288
73.9334
757.245
450.171
-576.922
671.903
261.721
-32.9299
690.054
170.415
-63.4721
610.153
15.8747
-18.0367
646.205
79.0986
52.2304
610.983
-50.3098
8.50186
624.948
19.3151
17.6155
612.748
-43.8535
0.275208
618.701
10.3191
7.45648
618.444
-4.18206
-0.703471
625.775
21.2971
4.74335
629.362
10.1142
-4.31534
632.059
20.2877
-3.77772
627.022
12.0554
-16.6702
621.935
14.6503
-22.0473
615.68
9.90928
-36.8984
622.191
3.0666
-55.1261
2.11008
-70.0978
660.183
590.976
325.472
641.531
764.402
-668.246
532.891
624.737
-433.39
421.549
359.856
-64.3434
463.649
167.35
-123.234
434.58
44.7249
-17.1212
534.958
-1.61896
-77.0679
529.742
-48.0927
-23.8272
589.703
-39.7141
-34.5551
589.191
-47.5496
-18.5832
610.286
-16.1745
-0.160161
608.566
-5.35737
-1.52454
613.653
14.9103
2.26811
608.59
19.819
-9.38506
605.017
27.7645
-20.0475
598.924
25.977
-33.7477
596.389
26.1008
-41.4212
593.442
24.4811
-52.9161
602.685
12.3383
-65.4946
9.61258
-73.712
551.446
107.857
-2975.25
502.415
581.21
674.175
690.489
492.361
-85.82
688.017
345.98
98.056
695.821
148.782
106.065
698.829
46.2756
-5.06362
730.622
-26.277
-34.3288
735.113
-42.8358
-72.154
745.727
-48.4719
-60.6766
746.395
-44.5756
-60.9574
750.875
-22.7696
-34.8911
750.279
-6.35439
-27.5623
745.396
15.8791
1.02987
737.825
28.5051
4.16357
730.685
38.9697
15.4235
724.402
39.5106
3.27803
721.359
35.5194
-7.51021
723.51
32.6632
-19.5087
736.954
16.383
-21.4908
14.4614
-12.8993
1774.98
-409.782
-856.754
1481.14
390.722
950.784
758.225
728.629
541.714
599.251
453.335
76.9025
603.214
164.875
85.9403
650.967
1.62671
-27.3609
712.841
-67.8098
-2.73027
726.739
-20.5046
-77.655
733.987
-17.6783
-87.4489
727.558
-3.17768
-100.54
729.716
-5.87071
-75.1999
733.071
2.12192
-64.9408
743.724
6.27237
-35.5344
755.223
16.0639
-22.5778
769.094
23.2038
2.06754
781.989
26.4822
7.92601
793.743
22.6691
14.2834
806.088
19.4911
16.8326
819.904
-1.91033
35.4882
-3.5792
44.485
128.1
-3639.63
688.622
-0.807489
1156.75
451.6
1482.81
403.679
1479.38
582.213
1379.63
484.256
1212.26
485
1145.7
261.036
1087.6
157.33
1069.27
84.9665
1042.37
81.5944
1024.63
70.2592
1002.02
86.1595
991.368
81.6074
986.67
86.3788
990.413
76.5079
993.04
68.235
995.523
52.9077
970.172
60.0307
52.9714
726.698
-612.336
3090.95
647.213
-101.045
-121.925
587.196
-181.272
-369.405
680.401
-147.239
-108.711
750.47
-90.9214
141.726
802.835
-7.38471
62.704
817.43
43.3707
266.97
858.493
42.9568
184.13
913.186
16.6603
222.327
969.564
-9.6091
109.308
1008.82
-20.5058
63.1184
1039.71
-23.3679
12.9359
1053.59
-16.2378
-0.0733388
1055.16
-7.31912
-7.34949
1035.78
6.63505
4.17162
1011.42
11.7975
5.06918
990.982
14.9416
4.35767
978.158
15.7885
4.79261
963.702
20.5169
-4.36786
14.9879
-15.2987
542.184
-743.303
-4086.37
730.78
-16.7716
-401.792
483.027
-140.664
91.5581
499.106
-238.851
-80.8383
493.588
-147.995
-101.277
544.358
-106.812
-137.862
602.601
-38.9808
40.3142
647.144
24.0911
91.837
701.639
45.1831
218.042
730.602
37.1718
141.658
741.133
13.6095
93.6324
744.236
7.07084
45.9892
746.228
5.23581
30.4689
748.298
11.2047
19.2236
751.192
17.5826
15.7313
751.822
20.9961
5.10543
747.916
24.6868
-5.18772
740.968
26.3617
-15.5479
729.593
29.6493
-24.9547
15.8458
-31.7814
-1004.66
-328.51
-4225.9
-252.474
-445.957
-191.898
-22.1337
-419.825
-320.141
116.016
-426.024
-90.5006
282.75
-299.743
26.083
370.67
-218.565
-58.0651
461.827
-138.527
0.761706
513.31
-57.7215
-36.9212
569.968
-7.30584
36.9746
600.728
23.4052
27.9852
625.218
12.4846
53.4037
636.116
16.9067
30.3966
644.866
10.3416
25.5596
652.965
12.9637
13.7922
662.101
13.4784
9.18487
670.182
16.9729
3.65887
674.758
21.96
-2.64863
676.541
25.1427
-10.1926
678.412
25.6682
-16.9658
10.6477
-20.3438
-201.165
-723.812
-232.57
149.551
-866.996
-213.247
82.5196
-446.036
-194.061
207.182
-540.048
27.6632
313.888
-368.517
27.7176
374.612
-260.515
58.3883
466.66
-201.089
51.8386
508.199
-81.6506
50.1349
564.425
-45.0257
66.9556
577.132
31.1097
47.8542
588.29
23.0818
52.4647
586.788
36.0791
30.5958
593.271
18.4492
24.5367
602.339
11.733
15.2853
618.837
1.58777
14.9941
636.373
5.05603
9.52215
650.53
10.3956
0.755293
658.629
15.5208
-12.2017
662.996
15.1188
-19.1433
2.4171
-12.3835
546.494
-2956.55
-2895.98
-499.528
-1090.5
217.164
-31.6349
-923.011
-377.779
50.4601
-647.018
123.711
294.982
-586.842
5.49333
365.313
-322.582
50.8364
502.756
-302.849
69.6272
546.559
-96.737
41.1572
587.067
-55.3851
64.4028
585.751
53.0777
39.3619
587.527
44.6872
57.2636
585.965
58.9162
33.4574
594.925
18.6735
26.8765
609.315
3.10657
23.8345
625.971
-7.00617
24.0297
636.171
3.22344
18.819
638.47
13.203
9.52255
634.759
19.3679
6.13028
626.985
16.9209
23.1698
3.81696
27.645
938.941
-1736.68
1861.17
541.27
-1192.96
113.789
330.437
-1019.06
-10.9509
394.212
-741.704
97.0053
445.492
-654.879
21.7958
465.289
-356.214
19.373
577.098
-406.638
16.2694
586.601
-104.575
4.82028
617.059
-73.0047
22.9479
607.731
81.4669
27.0255
597.468
72.8421
34.8185
581.568
85.8558
16.4721
578.893
22.2364
24.2112
579.475
16.1073
45.1401
583.462
12.5703
62.2895
569.531
33.7199
49.2936
545.056
41.0761
38.5277
522.862
40.5605
34.7873
520.179
17.8583
49.2309
-4.22748
47.7067
551.774
-2025.28
1539.96
489.742
-1148.82
215.264
457.118
-1038.22
-57.8084
499.972
-809.65
-3.55966
537.696
-702.86
-1.38444
487.628
-327.781
-23.3865
545.934
-111.519
-8.80582
-128.829
-106.967
-121.931
567.227
-54.3089
-24.694
-26.5548
-43.5686
-17.481
593.454
-29.2752
-37.1583
-30.533
-25.9819
-28.0572
596.436
10.439
-8.97913
25.9773
12.8638
25.9476
598.708
24.095
27.1073
19.5742
21.5676
16.6139
580.163
29.9664
51.4907
30.8384
27.3194
28.6525
558.122
21.3421
81.6807
14.5406
18.9538
13.2289
535.29
20.0528
95.3746
20.3876
19.5002
20.4947
500.042
72.0319
56.1362
467.389
74.2013
18.6353
457.797
55.8964
8.82158
456.554
48.1145
12.5448
476.109
5.23215
21.7814
-23.2027
29.8163
2441.07
-1220.95
2196.21
1262.36
-769.591
-444.987
651.644
-853.292
-122.471
587.838
-857.247
-131.365
579.428
-737.004
-27.9892
150.009
-105.758
-9.49521
142.543
137.001
128.672
-73.349
-95.376
-63.2122
-2.41104
148.731
-107.012
-0.816884
2.63398
-129.576
148.475
-75.1433
-0.698402
15.9681
-157.742
162.258
-36.254
-13.5049
18.7147
-154.231
160.821
-0.788143
-14.0777
6.22468
-158.926
160.519
22.924
-6.64677
-8.22646
-153.293
154.848
29.4114
7.22701
-17.3136
-148.69
143.673
28.4358
15.2369
-28.8162
-134.03
133.492
25.6893
23.718
473.759
29.9338
-5.97691
-126.036
-128.658
-118.613
-120.494
25.1732
27.4863
23.5075
459.699
85.7732
-32.8623
453.788
52.1945
-42.7382
459.316
34.3794
-44.6133
479.203
-13.7528
-23.8558
-34.3802
-3.43352
2172.84
171.427
896.388
1475.08
-139.102
-374.069
1108.77
-583.419
-253.938
870.096
-700.357
-209.557
195.765
-603.345
-79.2862
178.342
177.417
159.139
21.8801
196.95
-110.742
-18.0814
-0.959199
25.4433
-50.7905
48.174
-22.5126
0.644886
-2.84268
-41.7318
20.7953
42.3979
-21.4536
2.83486
1.94599
-43.4022
10.4409
44.5073
-11.7901
-1.70184
5.87281
-42.2365
1.34544
42.7002
-2.32233
-5.3597
4.19185
-41.5367
-6.20858
41.9436
5.50781
-3.89793
0.626944
-39.5264
-8.99128
39.6273
8.91532
-0.651807
-2.44072
-37.6979
-9.90364
37.7456
10.1051
2.19156
-4.65478
-35.3381
-9.1984
35.5044
9.50525
4.18161
-34.4048
0.0263827
139.591
31.7401
-2.52687
-35.9049
-33.6087
-34.978
548.645
81.3335
-36.8406
-135.344
-150.434
-128.154
-139.727
537.667
53.6452
-47.8394
520.042
41.6331
-59.4796
502.718
-0.95032
-62.5141
-23.8125
-52.2641
740.898
567.957
-4574.67
386.858
-226.73
-699.59
613.018
-766.885
-494.264
551.629
-709.389
-165.302
154.993
-623.209
-18.4401
150.347
134.75
130.08
23.3078
113.903
168.017
-125.694
-24.5403
1.0951
22.2085
-48.1248
48.723
-22.6328
-1.26909
-6.54202
19.1563
-47.9591
47.6226
-18.4004
6.12255
-2.26812
11.1531
-47.1304
46.8641
-10.578
1.95937
3.97741
1.2937
-45.6372
45.044
-0.787338
-3.89054
-43.3866
5.50188
-6.05663
42.8402
6.27257
-5.17143
-41.4318
3.84388
-10.6237
11.0006