/*--------------------------------*- C++ -*----------------------------------*\
  =========                 |
  \\      /  F ield         | OpenFOAM: The Open Source CFD Toolbox
   \\    /   O peration     | Website:  https://openfoam.org
    \\  /    A nd           | Version:  10
     \\/     M anipulation  |
\*---------------------------------------------------------------------------*/
FoamFile
{
    format      ascii;
    class       volScalarField;
    location    "2.1";
    object      turbidity_0;
}
// * * * * * * * * * * * * * * * * * * * * * * * * * * * * * * * * * * * * * //

dimensions      [0 0 0 0 0 0 0];

internalField   nonuniform List<scalar> 
12920
(
-0.0110168
-0.0253912
-0.037464
-0.0480739
-0.0589905
-0.0710938
-0.0859629
-0.107474
-0.135867
-0.16916
-0.200656
-0.225063
-0.244007
-0.263285
-0.288827
-0.325548
-0.372017
-0.418657
-0.458278
-0.484878
-0.0174762
-0.0326042
-0.0446749
-0.0519786
-0.060122
-0.0702858
-0.0850441
-0.106703
-0.144557
-0.19997
-0.252001
-0.289749
-0.318338
-0.345434
-0.375614
-0.408249
-0.437114
-0.455524
-0.459847
-0.452176
-0.0648396
-0.0415567
-0.0436119
-0.055407
-0.0709963
-0.087715
-0.108533
-0.13084
-0.161213
-0.198505
-0.243592
-0.29454
-0.343695
-0.386869
-0.424274
-0.456082
-0.47987
-0.493953
-0.497384
-0.496073
-0.0696561
-0.0537678
-0.0675176
-0.101051
-0.121869
-0.137024
-0.150244
-0.165018
-0.185465
-0.217128
-0.263387
-0.322849
-0.386385
-0.444311
-0.493101
-0.531143
-0.554771
-0.56098
-0.559354
-0.565758
-0.0826749
-0.0756984
-0.0759999
-0.102189
-0.117826
-0.131879
-0.144519
-0.157766
-0.17261
-0.194549
-0.230561
-0.28656
-0.352875
-0.417898
-0.479202
-0.538382
-0.592994
-0.637622
-0.670936
-0.69954
-0.0323026
-0.0678505
-0.0662617
-0.0857442
-0.100873
-0.117723
-0.132964
-0.148996
-0.167213
-0.192293
-0.225204
-0.270463
-0.323243
-0.380701
-0.45075
-0.538637
-0.629943
-0.70486
-0.759552
-0.799856
-0.0295089
-0.0547632
-0.052703
-0.0692494
-0.0845836
-0.101152
-0.115653
-0.127569
-0.143212
-0.175644
-0.212771
-0.255662
-0.311499
-0.387918
-0.471284
-0.530324
-0.56075
-0.574268
-0.565576
-0.55226
-0.0296914
-0.0389478
-0.044154
-0.0588841
-0.0762311
-0.0918345
-0.0937901
-0.0991068
-0.103778
-0.11022
-0.140075
-0.187415
-0.242029
-0.311647
-0.342115
-0.330115
-0.303868
-0.296319
-0.305891
-0.330629
-0.0251984
-0.0341095
-0.0421914
-0.0543985
-0.0717466
-0.0726681
-0.0757625
-0.0843402
-0.0950618
-0.095762
-0.100106
-0.126941
-0.174709
-0.230329
-0.262607
-0.23217
-0.224054
-0.217352
-0.226642
-0.260102
-0.0277231
-0.0393206
-0.0499479
-0.0629994
-0.0797457
-0.0771133
-0.0746393
-0.0757239
-0.0911191
-0.099583
-0.0943061
-0.0981936
-0.122919
-0.157749
-0.175255
-0.180844
-0.194818
-0.20579
-0.219153
-0.241139
-0.0147784
-0.0248486
-0.0382681
-0.0569369
-0.0808974
-0.0855217
-0.0862842
-0.0822879
-0.091831
-0.103182
-0.101209
-0.0965299
-0.104546
-0.120974
-0.128451
-0.143639
-0.163145
-0.180518
-0.198063
-0.219502
-0.0137777
-0.0201906
-0.0293099
-0.0446754
-0.0735178
-0.0907277
-0.105463
-0.0993211
-0.0992311
-0.108956
-0.108974
-0.101338
-0.0985098
-0.10225
-0.105105
-0.127613
-0.14889
-0.16716
-0.189031
-0.216153
-0.0217438
-0.0415401
-0.0599925
-0.0862831
-0.114605
-0.144015
-0.145275
-0.145331
-0.156647
-0.147837
-0.137856
-0.124669
-0.116125
-0.112637
-0.147609
-0.187147
-0.221373
-0.245426
-0.261709
-0.2796
-0.0172468
-0.0419401
-0.064927
-0.0844888
-0.103021
-0.129011
-0.159614
-0.206199
-0.235012
-0.265014
-0.261748
-0.264579
-0.262121
-0.277748
-0.308167
-0.354944
-0.39921
-0.429849
-0.435657
-0.43958
-0.0258611
-0.0507908
-0.0567903
-0.0705017
-0.0927019
-0.132251
-0.187056
-0.242471
-0.279799
-0.307544
-0.321286
-0.338631
-0.352543
-0.377392
-0.406731
-0.439372
-0.46394
-0.473844
-0.470962
-0.45725
-0.0201196
-0.0419912
-0.0578648
-0.0703976
-0.0916228
-0.123319
-0.171788
-0.218678
-0.259322
-0.285654
-0.312179
-0.334567
-0.359342
-0.381801
-0.40291
-0.414023
-0.411786
-0.390428
-0.355426
-0.321588
-0.0322743
-0.0412113
-0.0665186
-0.100744
-0.128389
-0.163659
-0.186513
-0.207469
-0.233497
-0.260293
-0.297652
-0.330646
-0.359681
-0.376593
-0.384861
-0.386608
-0.386
-0.381686
-0.375767
-0.369702
-0.0336926
-0.043514
-0.0661576
-0.0990136
-0.130055
-0.149633
-0.158616
-0.160391
-0.170552
-0.183763
-0.206266
-0.233339
-0.269636
-0.307801
-0.346513
-0.381378
-0.408476
-0.426961
-0.446865
-0.464347
-0.0275877
-0.0448252
-0.0680899
-0.0952158
-0.12327
-0.151946
-0.172835
-0.180477
-0.19344
-0.208334
-0.232826
-0.260874
-0.297453
-0.336243
-0.375775
-0.409797
-0.440239
-0.468523
-0.497013
-0.525417
-0.0308052
-0.0480829
-0.0635867
-0.0781992
-0.0907073
-0.11018
-0.140869
-0.176781
-0.206205
-0.230872
-0.254271
-0.278418
-0.304259
-0.332037
-0.36066
-0.38899
-0.416383
-0.443628
-0.472987
-0.512438
-0.00371991
-0.00776785
-0.0116635
-0.0149075
-0.0242184
-0.0352935
-0.0505891
-0.0661592
-0.0782814
-0.0786713
-0.0689451
-0.0563456
-0.0479529
-0.0443355
-0.0458899
-0.0533031
-0.0666239
-0.0842314
-0.096994
-0.101194
-0.00980009
-0.0161019
-0.0145528
-0.014571
-0.0200473
-0.0305379
-0.0477593
-0.0723978
-0.102186
-0.121969
-0.126649
-0.120084
-0.107802
-0.0939578
-0.0803691
-0.0674199
-0.0568023
-0.0510925
-0.0486483
-0.0477894
-0.00917402
-0.0130976
-0.0108884
-0.0137612
-0.0193498
-0.0231043
-0.0314657
-0.043857
-0.0630805
-0.0792879
-0.093198
-0.0957666
-0.091086
-0.0843903
-0.0779046
-0.0726677
-0.0688834
-0.0675318
-0.0674744
-0.0699219
-0.00647796
-0.0074903
-0.00883696
-0.0232348
-0.0332517
-0.0363343
-0.0448996
-0.0527155
-0.0666565
-0.0815761
-0.101069
-0.113271
-0.120709
-0.126308
-0.133802
-0.135772
-0.131066
-0.126924
-0.12763
-0.140019
-0.0145552
-0.0161573
-0.012437
-0.0233021
-0.031466
-0.0383355
-0.0498968
-0.0562498
-0.0651295
-0.0736777
-0.0894996
-0.102153
-0.116211
-0.143816
-0.179252
-0.209062
-0.22736
-0.2396
-0.262088
-0.296083
-0.015875
-0.0182234
-0.013118
-0.0173786
-0.0228766
-0.0304806
-0.0406604
-0.0499794
-0.0627801
-0.0728948
-0.0823614
-0.0932676
-0.121533
-0.173173
-0.229555
-0.267892
-0.290713
-0.310561
-0.332068
-0.33861
-0.00854
-0.0193366
-0.0118798
-0.0116327
-0.0172387
-0.0236202
-0.0294097
-0.0345054
-0.0440465
-0.0617335
-0.0832169
-0.112074
-0.157696
-0.202111
-0.210365
-0.196394
-0.192321
-0.19395
-0.183724
-0.169095
-0.0218158
-0.0130614
-0.00657546
-0.00740269
-0.0136837
-0.0225747
-0.0295594
-0.0352587
-0.0357043
-0.0474757
-0.0679593
-0.0994577
-0.14729
-0.199957
-0.138867
-0.104131
-0.0803058
-0.0676998
-0.0648958
-0.077605
-0.003735
-0.00460085
-0.00425592
-0.00555795
-0.0107806
-0.0159057
-0.0288573
-0.0513071
-0.0391496
-0.0354902
-0.0516758
-0.0794028
-0.124153
-0.172944
-0.149273
-0.0881947
-0.0708491
-0.0589126
-0.0531498
-0.0551193
-0.01216
-0.00413447
-0.00535221
-0.00681751
-0.0108873
-0.0141278
-0.0242024
-0.0533121
-0.0620379
-0.0369763
-0.0383712
-0.0574146
-0.0804792
-0.108518
-0.122074
-0.0785409
-0.0716586
-0.0692674
-0.0702171
-0.069555
-0.00268438
-0.00324944
-0.0056095
-0.00889087
-0.0142444
-0.0168459
-0.0258106
-0.054949
-0.0754898
-0.0585253
-0.0380337
-0.0395695
-0.0501088
-0.0660638
-0.0850357
-0.0817394
-0.080761
-0.0799433
-0.0813867
-0.0818005
-0.0016818
-0.00804187
-0.0157175
-0.0256686
-0.0365669
-0.0345756
-0.0318938
-0.0441004
-0.0650351
-0.0757506
-0.0637429
-0.0471435
-0.0439915
-0.0564551
-0.0853928
-0.0719595
-0.0595574
-0.0540619
-0.0557059
-0.0604362
-0.0158448
-0.0220577
-0.0287761
-0.0404898
-0.0489677
-0.0472745
-0.0565045
-0.0558879
-0.0518757
-0.0611086
-0.0755921
-0.0864825
-0.0906266
-0.0889215
-0.0556175
-0.049235
-0.0498711
-0.0546047
-0.0633692
-0.080554
-0.0075496
-0.0215016
-0.0207533
-0.0244132
-0.0438673
-0.055305
-0.0666424
-0.0624405
-0.0551107
-0.0472547
-0.0499408
-0.0536732
-0.0597886
-0.068362
-0.0840255
-0.110297
-0.142717
-0.172881
-0.192111
-0.206905
-0.00762952
-0.0179632
-0.0151334
-0.0211242
-0.0449273
-0.060141
-0.076641
-0.0614649
-0.0545859
-0.0515946
-0.0594876
-0.0675047
-0.0812881
-0.0969608
-0.11799
-0.142776
-0.163143
-0.17487
-0.17454
-0.158768
-0.00637408
-0.013621
-0.0129752
-0.0193095
-0.0378403
-0.043058
-0.0605164
-0.0426334
-0.0394138
-0.0345349
-0.0406003
-0.0453033
-0.0532683
-0.0568278
-0.0590981
-0.0564352
-0.0540968
-0.0515325
-0.0521979
-0.054296
-0.00501275
-0.00776907
-0.0121488
-0.0167168
-0.0207393
-0.0189812
-0.0217918
-0.0202477
-0.024072
-0.0284987
-0.0353889
-0.0388948
-0.0408341
-0.0399864
-0.0395944
-0.0394864
-0.0407923
-0.0438355
-0.0492638
-0.0564177
-0.00499311
-0.00948706
-0.0232216
-0.03416
-0.03652
-0.0218817
-0.0162583
-0.0155873
-0.0184107
-0.024014
-0.033096
-0.0441715
-0.0584862
-0.0690494
-0.0727021
-0.0653416
-0.0594416
-0.0629703
-0.0792519
-0.108784
-0.0107188
-0.0148623
-0.0278867
-0.0447914
-0.0608727
-0.04578
-0.0336595
-0.0233804
-0.0226136
-0.0253622
-0.0308825
-0.0382787
-0.0486811
-0.0607016
-0.0765747
-0.0942583
-0.116146
-0.143797
-0.18421
-0.224929
-0.00763
-0.0195757
-0.0359236
-0.0493506
-0.0637275
-0.0780029
-0.0912232
-0.0954528
-0.0957945
-0.0951205
-0.0998049
-0.107473
-0.119751
-0.131523
-0.143155
-0.15186
-0.159145
-0.167593
-0.190507
-0.229328
-0.0047361
-0.00698169
-0.0118325
-0.0176892
-0.0256219
-0.0347214
-0.0448634
-0.0503115
-0.0511576
-0.0456235
-0.0394465
-0.0348651
-0.0326653
-0.0325194
-0.0343848
-0.0382325
-0.0435994
-0.0491259
-0.052321
-0.0527194
-0.00117169
-0.00548333
-0.00843756
-0.0147606
-0.0261599
-0.0381457
-0.0524319
-0.0644331
-0.0739376
-0.0706796
-0.0610236
-0.0498909
-0.0415317
-0.0359289
-0.0326595
-0.0309182
-0.0304595
-0.030863
-0.0318054
-0.033414
-0.00229266
-0.00489265
-0.00735395
-0.0114331
-0.0175895
-0.0224409
-0.028799
-0.0325354
-0.036968
-0.037978
-0.0390327
-0.0371093
-0.0356083
-0.0350517
-0.035426
-0.0362222
-0.0374193
-0.0393441
-0.0425632
-0.0488291
-0.00340403
-0.00472413
-0.00596582
-0.0095456
-0.013326
-0.0166796
-0.0226577
-0.0274889
-0.034719
-0.0402471
-0.0475801
-0.0519422
-0.0566488
-0.0611998
-0.0653142
-0.066718
-0.0667433
-0.0682334
-0.0740454
-0.0873808
-0.0218661
-0.00923776
-0.00713817
-0.00969558
-0.0132607
-0.0160173
-0.0221154
-0.02566
-0.0319229
-0.0377296
-0.0472976
-0.056674
-0.0695969
-0.0857891
-0.101499
-0.112473
-0.120047
-0.128552
-0.144925
-0.164125
-0.0132146
-0.0140122
-0.00897524
-0.0100073
-0.013461
-0.0169129
-0.0220758
-0.0254723
-0.0315363
-0.0377328
-0.0471369
-0.0604617
-0.0825714
-0.110256
-0.134612
-0.144837
-0.150235
-0.159463
-0.171028
-0.169297
-0.016385
-0.0106943
-0.00609967
-0.00816699
-0.0120773
-0.0154327
-0.0192154
-0.0238102
-0.0301551
-0.0396945
-0.0546802
-0.0757721
-0.100456
-0.113457
-0.104082
-0.0927028
-0.0904928
-0.0913016
-0.0867694
-0.0794277
-0.00343471
-0.00324214
-0.00369195
-0.00625997
-0.0109854
-0.0149205
-0.0171621
-0.0203215
-0.0261126
-0.0356752
-0.0491984
-0.0716257
-0.0987414
-0.112659
-0.0660665
-0.0531484
-0.0467235
-0.0438442
-0.0417526
-0.0442563
-0.00168389
-0.00182317
-0.00257934
-0.00469413
-0.00930853
-0.0125967
-0.0178329
-0.0220237
-0.0206587
-0.0285171
-0.0414517
-0.0603026
-0.0861674
-0.103217
-0.0705183
-0.048449
-0.0424974
-0.0377489
-0.035946
-0.0374724
-0.00731282
-0.00225041
-0.00298292
-0.00475502
-0.00907151
-0.0123979
-0.019477
-0.0320685
-0.0239939
-0.0207147
-0.0288628
-0.0413903
-0.0571304
-0.07278
-0.0637715
-0.0471447
-0.0449632
-0.0442573
-0.0450048
-0.0454016
-0.00299555
-0.00191295
-0.00321427
-0.0053787
-0.00900102
-0.0123243
-0.0200712
-0.035823
-0.0398763
-0.0234591
-0.0213248
-0.027247
-0.0377661
-0.0490277
-0.0510245
-0.0462179
-0.0446477
-0.0450043
-0.0472653
-0.0492619
-0.00422239
-0.00821839
-0.0133906
-0.0135968
-0.0170461
-0.0167362
-0.0190806
-0.026818
-0.0380051
-0.0396939
-0.0327178
-0.0323125
-0.0396231
-0.0523896
-0.0677678
-0.0438476
-0.0404833
-0.0419917
-0.0457413
-0.0504127
-0.00282999
-0.0128166
-0.0146051
-0.0207403
-0.0228207
-0.0226044
-0.0237493
-0.0218591
-0.0244805
-0.0342261
-0.043632
-0.0533139
-0.0586399
-0.056302
-0.0362121
-0.0386373
-0.0436076
-0.0491489
-0.0550076
-0.0634029
-0.00989019
-0.0109577
-0.0105058
-0.0166451
-0.0284853
-0.029336
-0.028598
-0.0232111
-0.0215202
-0.022253
-0.0260963
-0.0300874
-0.035101
-0.0427244
-0.0530591
-0.0679232
-0.0842572
-0.101532
-0.114627
-0.125206
-0.015604
-0.0212248
-0.0137491
-0.0165779
-0.0315831
-0.0288571
-0.0286753
-0.0231493
-0.0230028
-0.0263263
-0.0313945
-0.0378285
-0.0454753
-0.054569
-0.0649734
-0.0762949
-0.08691
-0.0951555
-0.100122
-0.100763
-0.00615442
-0.00955146
-0.00924136
-0.0134922
-0.0212825
-0.0189349
-0.0226037
-0.0193319
-0.0214132
-0.0243775
-0.0291426
-0.0330658
-0.0377112
-0.0409723
-0.0447269
-0.047249
-0.0505608
-0.0527832
-0.0555897
-0.0574744
-0.00247073
-0.00459579
-0.00789429
-0.0108214
-0.0131296
-0.0129268
-0.0151177
-0.0164499
-0.0194507
-0.0221472
-0.0255233
-0.0279778
-0.0307729
-0.0332728
-0.0362244
-0.0393967
-0.0434052
-0.0487239
-0.0573612
-0.0677189
-0.00225576
-0.00657538
-0.0148781
-0.0177175
-0.0173811
-0.0143431
-0.0140859
-0.0155464
-0.0182947
-0.0219096
-0.0259397
-0.0297503
-0.0336997
-0.0365653
-0.0397968
-0.0450587
-0.0543962
-0.0680753
-0.0873398
-0.108247
-0.0125318
-0.01408
-0.0254977
-0.0290747
-0.0317297
-0.0233412
-0.0212187
-0.0205127
-0.0224352
-0.0247624
-0.0279243
-0.0315972
-0.036391
-0.0431796
-0.0532158
-0.0668721
-0.0848312
-0.106808
-0.133898
-0.162504
-0.00984434
-0.0219096
-0.0330037
-0.0366529
-0.0472636
-0.0539565
-0.0581181
-0.0548397
-0.051193
-0.0480887
-0.0501983
-0.0550877
-0.0628553
-0.0694671
-0.075488
-0.0803393
-0.0867548
-0.0986291
-0.123949
-0.161203
-0.002714
-0.00596372
-0.0138266
-0.0204148
-0.0271387
-0.0307135
-0.0350862
-0.0339008
-0.0319482
-0.0283192
-0.0258439
-0.0245609
-0.0246181
-0.0257394
-0.027754
-0.0302657
-0.0325076
-0.0336929
-0.0335075
-0.0320654
-0.00094294
-0.00360255
-0.00736451
-0.0156644
-0.0264461
-0.0319339
-0.0399076
-0.0399827
-0.0392688
-0.0325395
-0.0274926
-0.0242933
-0.0232673
-0.0231782
-0.023509
-0.0237802
-0.02392
-0.0238988
-0.0239066
-0.024226
-0.0016092
-0.00437182
-0.00687803
-0.0108868
-0.0164908
-0.0178886
-0.0199632
-0.0197224
-0.020585
-0.0204189
-0.0212812
-0.0217854
-0.0227233
-0.0236499
-0.0245665
-0.0254057
-0.026378
-0.0275897
-0.0293728
-0.0322666
-0.00210941
-0.00321433
-0.00489763
-0.00756268
-0.0101404
-0.0121892
-0.0151292
-0.0174923
-0.0213641
-0.0243159
-0.0284309
-0.0312082
-0.0339039
-0.0356191
-0.03678
-0.0371062
-0.0378565
-0.0399557
-0.0442035
-0.0501085
-0.00496404
-0.00590538
-0.00565241
-0.00674341
-0.00850621
-0.0100798
-0.0134973
-0.0164465
-0.0216137
-0.0267456
-0.0339073
-0.0401698
-0.0470498
-0.0530956
-0.0578358
-0.0609523
-0.0645387
-0.0700904
-0.0790514
-0.083188
-0.00488908
-0.0068927
-0.00685916
-0.00790541
-0.00987538
-0.0113723
-0.0147591
-0.0174822
-0.0232008
-0.0296981
-0.0384757
-0.0469501
-0.0567672
-0.0650909
-0.070268
-0.0702967
-0.0713068
-0.0748433
-0.0787168
-0.0744127
-0.00434543
-0.00492331
-0.00565432
-0.0074674
-0.0100613
-0.0123796
-0.0158224
-0.0195582
-0.0260785
-0.0343071
-0.0452525
-0.0549893
-0.0598741
-0.0574336
-0.0495094
-0.0446264
-0.0439114
-0.0439983
-0.0419096
-0.0378366
-0.00432053
-0.00353522
-0.00484557
-0.00745014
-0.0101571
-0.012008
-0.0133432
-0.0178187
-0.023597
-0.0327089
-0.0430475
-0.055331
-0.0609364
-0.0540611
-0.0321584
-0.0296103
-0.0290476
-0.0287597
-0.0277463
-0.0270256
-0.00222327
-0.0015867
-0.00321619
-0.00659313
-0.0103136
-0.0117332
-0.0131358
-0.0146445
-0.0192211
-0.0277602
-0.0391607
-0.0508571
-0.0581799
-0.0528843
-0.0346284
-0.0291375
-0.025523
-0.0222268
-0.0208266
-0.0197879
-0.00164008
-0.0014646
-0.00300533
-0.00608261
-0.0103684
-0.0124051
-0.0149879
-0.0161837
-0.0153173
-0.0204786
-0.030093
-0.0406073
-0.0485408
-0.0508582
-0.0476944
-0.0440132
-0.0426768
-0.0399266
-0.0364592
-0.0310653
-0.000545665
-0.000788491
-0.00218535
-0.00537095
-0.00981827
-0.0128061
-0.017862
-0.0229498
-0.0195504
-0.0180438
-0.0227746
-0.0293728
-0.0341586
-0.0355234
-0.033632
-0.0398206
-0.0431149
-0.0447623
-0.0453423
-0.0422685
-0.00191394
-0.00521626
-0.00782673
-0.00955506
-0.0127281
-0.0137754
-0.0149805
-0.0202245
-0.0237821
-0.0233953
-0.0247607
-0.0299149
-0.037108
-0.041655
-0.0338595
-0.0387262
-0.043105
-0.0457493
-0.0470866
-0.0455647
-0.00142136
-0.00775241
-0.0102877
-0.0132045
-0.0140293
-0.0142176
-0.0142625
-0.0149216
-0.0167282
-0.0202611
-0.02349
-0.0274699
-0.0287412
-0.0282487
-0.036192
-0.0419118
-0.0462708
-0.0498192
-0.0530525
-0.0570697
-0.011529
-0.0118787
-0.00948558
-0.0118502
-0.0168077
-0.016254
-0.0152358
-0.0166671
-0.0179957
-0.0216285
-0.0241255
-0.0289623
-0.0336253
-0.0408042
-0.0483628
-0.0575533
-0.0662194
-0.0750713
-0.0810168
-0.085289
-0.00404882
-0.00953631
-0.00753951
-0.0121436
-0.0174245
-0.0171692
-0.0164241
-0.0188035
-0.0209833
-0.0252418
-0.0289391
-0.0340637
-0.0392926
-0.0453158
-0.0516008
-0.0577177
-0.0633264
-0.067321
-0.0695251
-0.0690406
-0.00445486
-0.0068991
-0.00770748
-0.0105877
-0.01386
-0.0151833
-0.0171616
-0.0196955
-0.0225124
-0.0257036
-0.0290915
-0.0321272
-0.0356074
-0.0381178
-0.0409216
-0.0423679
-0.0440271
-0.0442857
-0.044796
-0.044364
-0.00168545
-0.00344445
-0.00680165
-0.00973057
-0.012769
-0.0145303
-0.0176381
-0.0199709
-0.0230979
-0.0258757
-0.0289824
-0.0320642
-0.0351848
-0.0381188
-0.0408608
-0.0435304
-0.0460653
-0.0484548
-0.0512905
-0.0529992
-0.00311718
-0.00524073
-0.00993371
-0.0117709
-0.0120799
-0.0128637
-0.0151432
-0.0179214
-0.0209932
-0.0244421
-0.0279977
-0.032205
-0.0369933
-0.0431174
-0.0501902
-0.0580323
-0.065846
-0.0729182
-0.0799528
-0.0838149
-0.00398718
-0.012121
-0.0156824
-0.0168989
-0.0174824
-0.0170387
-0.0186734
-0.0198959
-0.0222305
-0.0256034
-0.0298448
-0.0348789
-0.0406722
-0.0476436
-0.0559777
-0.0658476
-0.0776039
-0.0911701
-0.106634
-0.118084
-0.00347511
-0.0110552
-0.0137902
-0.0176981
-0.0276012
-0.0307576
-0.0326762
-0.0295248
-0.0272491
-0.0259395
-0.0284922
-0.0323333
-0.0375166
-0.0420124
-0.0470094
-0.0532278
-0.0631667
-0.0792097
-0.103929
-0.132314
-0.00166396
-0.00483057
-0.013095
-0.0180373
-0.0213639
-0.0199164
-0.0208077
-0.0183708
-0.0174692
-0.0163822
-0.0165432
-0.0174188
-0.0188037
-0.0200516
-0.0207271
-0.0204002
-0.0191788
-0.0175228
-0.0157648
-0.0142033
-0.000587868
-0.00286656
-0.00741694
-0.0135799
-0.0176643
-0.0181139
-0.0200795
-0.0189997
-0.0189328
-0.0178734
-0.0177482
-0.0176135
-0.017409
-0.0167441
-0.0157101
-0.0143255
-0.0127626
-0.0112489
-0.0100694
-0.00958448
-0.00124696
-0.00295301
-0.0062872
-0.00928019
-0.0115887
-0.0125155
-0.0140721
-0.0151529
-0.0163711
-0.0171528
-0.0177971
-0.0178538
-0.0175405
-0.0167309
-0.0156134
-0.0142532
-0.0128412
-0.011438
-0.0101219
-0.00919964
-0.000877508
-0.00210526
-0.00454313
-0.00730562
-0.00959338
-0.0118344
-0.0142072
-0.0161952
-0.0182691
-0.0194339
-0.0204623
-0.0204459
-0.0202368
-0.0195006
-0.0186833
-0.0175997
-0.0167691
-0.0159855
-0.0149422
-0.0134623
-0.00234529
-0.0038433
-0.00464439
-0.00652318
-0.00890113
-0.0114402
-0.0147071
-0.0174612
-0.0205235
-0.0223469
-0.0242855
-0.0247843
-0.0254902
-0.0257539
-0.0258888
-0.0258499
-0.0261461
-0.0262698
-0.0260567
-0.0223156
-0.00241829
-0.00462747
-0.00591418
-0.00776399
-0.0103023
-0.013109
-0.0168729
-0.0195529
-0.0227965
-0.0244314
-0.0256873
-0.0253574
-0.0253948
-0.0249713
-0.0242294
-0.0229217
-0.0223454
-0.021424
-0.0200172
-0.0163682
-0.00414825
-0.00468506
-0.00647272
-0.0087199
-0.0113855
-0.0144653
-0.0184638
-0.0216134
-0.0249664
-0.0267699
-0.0269261
-0.0250755
-0.0210221
-0.0171402
-0.0138412
-0.0122307
-0.0113343
-0.0103152
-0.00915473
-0.00784205
-0.0048281
-0.00269816
-0.00555561
-0.00907784
-0.0116274
-0.0142103
-0.015976
-0.0208521
-0.0240318
-0.0269228
-0.0270351
-0.0255493
-0.0193565
-0.0138973
-0.0087771
-0.00834532
-0.00792747
-0.00746019
-0.00691627
-0.00661813
-0.00317466
-0.00162281
-0.00358043
-0.00889417
-0.0125425
-0.0139802
-0.0151251
-0.0183683
-0.0229043
-0.0268004
-0.0284183
-0.0265727
-0.0210917
-0.0146104
-0.00896752
-0.00587525
-0.00454543
-0.0035838
-0.0027883
-0.00241077
-0.00193736
-0.00112347
-0.00335222
-0.00885359
-0.0129579
-0.0144557
-0.0153706
-0.0170309
-0.0207127
-0.0254783
-0.029897
-0.0327945
-0.0335232
-0.0323215
-0.0251195
-0.0160234
-0.0107958
-0.00637643
-0.00372958
-0.00228789
-0.000100146
-0.000269703
-0.00201473
-0.00748305
-0.0123462
-0.0142963
-0.0157552
-0.0168929
-0.0188649
-0.0220129
-0.0253438
-0.0286615
-0.0324022
-0.0371532
-0.0363707
-0.0234006
-0.0190592
-0.0139328
-0.0100353
-0.00601179
-0.00144127
-0.00375513
-0.00745712
-0.01059
-0.012947
-0.0139455
-0.0145576
-0.0156788
-0.0168853
-0.0184144
-0.019994
-0.0216332
-0.0244889
-0.0299166
-0.0333198
-0.0214093
-0.0173343
-0.0134182
-0.0107088
-0.00782741
-0.00105738
-0.00414756
-0.00854373
-0.0110004
-0.0124613
-0.0145209
-0.0149593
-0.0176389
-0.0182124
-0.0193696
-0.0208957
-0.0230677
-0.0255978
-0.0279241
-0.0264397
-0.0257475
-0.0241991
-0.023269
-0.0223977
-0.0226279
-0.00554833
-0.00537337
-0.00732827
-0.010621
-0.0131077
-0.0159509
-0.0179576
-0.0222116
-0.0242738
-0.0277974
-0.0295329
-0.0330861
-0.0353416
-0.0389744
-0.0409024
-0.0429568
-0.0431595
-0.0430826
-0.0409577
-0.0392408
-0.00184601
-0.00467737
-0.00738377
-0.0122418
-0.0158067
-0.0190563
-0.0203971
-0.0239157
-0.0262681
-0.0288142
-0.0309095
-0.0325144
-0.0342539
-0.0346443
-0.0349109
-0.0336135
-0.0320255
-0.0293302
-0.0267964
-0.0240996
-0.00152177
-0.00432033
-0.00767748
-0.0122647
-0.0165626
-0.0201635
-0.0224747
-0.0254741
-0.027153
-0.0289113
-0.0294871
-0.0294518
-0.0287457
-0.0271194
-0.025261
-0.0228861
-0.0206474
-0.0183783
-0.0165906
-0.0151973
-0.00249422
-0.00540341
-0.00866479
-0.0129242
-0.0175871
-0.0218076
-0.0255462
-0.0289804
-0.0314269
-0.0342549
-0.0358213
-0.0380539
-0.0387132
-0.0396734
-0.0389669
-0.0378695
-0.0352782
-0.0319973
-0.0282291
-0.0243067
-0.0048485
-0.00654764
-0.00911183
-0.0113614
-0.0140132
-0.017827
-0.0225584
-0.0278034
-0.0327475
-0.0373248
-0.0414357
-0.045874
-0.0499638
-0.0541146
-0.0572129
-0.0589017
-0.0586406
-0.0558972
-0.0510477
-0.0430818
-0.0043913
-0.00799937
-0.00940346
-0.0113707
-0.0128331
-0.0147953
-0.0176962
-0.0222179
-0.0275763
-0.0332282
-0.0382517
-0.0430474
-0.0480593
-0.0535686
-0.0597958
-0.0663946
-0.0728533
-0.077827
-0.0800284
-0.0759358
-0.00397694
-0.00755944
-0.00805096
-0.00986519
-0.0141211
-0.0158403
-0.0169626
-0.0162031
-0.017613
-0.0202429
-0.0240887
-0.0279515
-0.0324701
-0.0376285
-0.044375
-0.0532625
-0.0648993
-0.0791015
-0.0950061
-0.107094
-0.0262976
-0.021018
-0.020825
-0.0205454
-0.02729
-0.0182934
-0.0213162
-0.0379497
-0.0219309
-0.0268789
-0.0300437
-0.0390178
-0.0228863
-0.0285221
-0.0208666
-0.037547
-0.0294438
-0.018883
-0.0209117
-0.0253849
-0.0242044
-0.0252112
-0.0279153
-0.0272563
-0.0223213
-0.0275471
-0.0247022
-0.0283357
-0.0814178
-0.0741954
-0.0754062
-0.070701
-0.078254
-0.0674737
-0.0726032
-0.0930692
-0.0773112
-0.0880958
-0.0814493
-0.0818988
-0.0749099
-0.0841185
-0.096311
-0.091991
-0.0982409
-0.0757356
-0.0560671
-0.0845084
-0.0644181
-0.097143
-0.0979309
-0.0939321
-0.0547368
-0.0682075
-0.0568724
-0.0502922
-0.117465
-0.0932266
-0.0972049
-0.0785506
-0.11433
-0.0537876
-0.0787771
-0.159963
-0.101075
-0.121627
-0.129632
-0.168057
-0.0913073
-0.1324
-0.214642
-0.131316
-0.162653
-0.1829
-0.219334
-0.144124
-0.170263
-0.262151
-0.171913
-0.190072
-0.23297
-0.256713
-0.17707
-0.191911
-0.0741254
-0.0797181
-0.0787853
-0.0692449
-0.0713336
-0.0769929
-0.0767691
-0.0868203
-0.0792624
-0.0873637
-0.0731156
-0.0831583
-0.0773999
-0.084457
-0.0992512
-0.0914992
-0.101149
-0.0856287
-0.0705795
-0.0883935
-0.0885887
-0.0956513
-0.102542
-0.101261
-0.0620708
-0.0494809
-0.0821376
-0.0583518
-0.0954457
-0.0996105
-0.0958134
-0.0509866
-0.0705634
-0.0536673
-0.055021
-0.114776
-0.096023
-0.10321
-0.0814155
-0.118375
-0.060036
-0.0813757
-0.149976
-0.107675
-0.123476
-0.128902
-0.150788
-0.0882441
-0.103755
-0.171705
-0.127939
-0.133976
-0.156807
-0.17197
-0.108284
-0.122943
-0.0826181
-0.0939958
-0.092606
-0.0824991
-0.0802545
-0.0866093
-0.086735
-0.0880882
-0.0914391
-0.0922764
-0.0803642
-0.0855854
-0.0864818
-0.0896687
-0.101664
-0.0945678
-0.1039
-0.0891624
-0.0935993
-0.0926897
-0.103312
-0.102611
-0.106484
-0.10769
-0.0890519
-0.0670739
-0.104812
-0.0940937
-0.0969175
-0.106428
-0.101221
-0.0607361
-0.0545321
-0.0873351
-0.0692334
-0.101146
-0.0997178
-0.098349
-0.0569908
-0.0722956
-0.0656176
-0.0630607
-0.117248
-0.0991333
-0.103911
-0.0780509
-0.0928753
-0.0642777
-0.0729441
-0.125864
-0.105646
-0.108095
-0.0973731
-0.111637
-0.0774372
-0.0917496
-0.101347
-0.124653
-0.126091
-0.0984553
-0.0950453
-0.121029
-0.122161
-0.0977186
-0.124879
-0.131101
-0.0935684
-0.0948489
-0.120662
-0.125066
-0.106646
-0.133275
-0.132486
-0.0972317
-0.106137
-0.125335
-0.117476
-0.11035
-0.130445
-0.123568
-0.108036
-0.101615
-0.115363
-0.114902
-0.103162
-0.120321
-0.110938
-0.0963089
-0.0792267
-0.114383
-0.108195
-0.0984115
-0.108176
-0.101829
-0.0748655
-0.0684625
-0.10529
-0.0990007
-0.101133
-0.10038
-0.097871
-0.068413
-0.0741398
-0.097836
-0.0973355
-0.103798
-0.0974156
-0.096168
-0.0778895
-0.0907837
-0.0978255
-0.100284
-0.0483602
-0.0259081
-0.0457851
-0.0258295
-0.0320237
-0.0248895
-0.0348067
-0.0435739
-0.0532758
-0.0602754
-0.0318748
-0.0271392
-0.0367558
-0.032799
-0.0338608
-0.0551519
-0.0367522
-0.0262202
-0.0293706
-0.0292743
-0.0238463
-0.0460904
-0.0340646
-0.037203
-0.0326457
-0.0452623
-0.0246421
-0.0325776
-0.0698926
-0.0408372
-0.05638
-0.0514948
-0.0689405
-0.0366755
-0.0515053
-0.110614
-0.0627648
-0.0838095
-0.0770543
-0.0980733
-0.056877
-0.0729065
-0.159819
-0.0908891
-0.114745
-0.107363
-0.128463
-0.078263
-0.094278
-0.183196
-0.125065
-0.152819
-0.133869
-0.130613
-0.0988417
-0.103974
-0.0452699
-0.0280357
-0.0489597
-0.0233475
-0.035662
-0.0228054
-0.0356573
-0.0653123
-0.0566341
-0.0725829
-0.0389019
-0.0374936
-0.0404126
-0.0472733
-0.0415541
-0.0740182
-0.0589575
-0.0335555
-0.0242942
-0.0452665
-0.0322249
-0.0356515
-0.051506
-0.0369908
-0.0238928
-0.0292761
-0.0285841
-0.0240319
-0.051836
-0.035736
-0.0398713
-0.0326401
-0.0452549
-0.0246582
-0.0302203
-0.0748543
-0.0428466
-0.0528485
-0.0498358
-0.0634232
-0.0328832
-0.041874
-0.0998886
-0.0562207
-0.068362
-0.0679806
-0.0819908
-0.0451403
-0.0553564
-0.136117
-0.0738636
-0.0935145
-0.0862985
-0.0929195
-0.0585637
-0.0646167
-0.0464653
-0.024285
-0.0364637
-0.022012
-0.0342636
-0.0230144
-0.0304126
-0.0727508
-0.0435542
-0.0644566
-0.0391079
-0.0487681
-0.0337961
-0.0445558
-0.0658211
-0.069554
-0.0786769
-0.0483123
-0.0371134
-0.0474143
-0.0494177
-0.0409266
-0.0776985
-0.062209
-0.0327445
-0.0255878
-0.0471529
-0.0370408
-0.0377395
-0.0561124
-0.0430879
-0.0250755
-0.0276526
-0.0342989
-0.0303972
-0.0472262
-0.0409486
-0.0399158
-0.0295922
-0.0373187
-0.0304563
-0.0339357
-0.0610484
-0.0409775
-0.0487467
-0.0403582
-0.0502531
-0.0360621
-0.0448901
-0.0846011
-0.0534294
-0.0731526
-0.0534858
-0.0604662
-0.048539
-0.0604318
-0.0384027
-0.04888
-0.0530415
-0.0264541
-0.0291995
-0.0345813
-0.0317677
-0.0612474
-0.0534881
-0.0571278
-0.0315392
-0.0404336
-0.0321746
-0.0349966
-0.0741478
-0.0568703
-0.0592887
-0.0433984
-0.0491949
-0.0362643
-0.0431519
-0.0685674
-0.063293
-0.076997
-0.0487932
-0.0422058
-0.0460105
-0.0528404
-0.0501845
-0.0799921
-0.0832977
-0.0397956
-0.035477
-0.0542872
-0.0580658
-0.0434922
-0.0835928
-0.0851826
-0.0351998
-0.0376865
-0.059692
-0.0663587
-0.0513991
-0.0858522
-0.0895861
-0.0395767
-0.0481511
-0.0687057
-0.0759233
-0.0759779
-0.0912177
-0.0962739
-0.0519314
-0.0649268
-0.0780993
-0.0815426
-0.022488
-0.0185533
-0.026904
-0.0159093
-0.0169381
-0.0165322
-0.0176306
-0.0198627
-0.0283229
-0.0232241
-0.0172335
-0.0194827
-0.0174251
-0.016756
-0.0257962
-0.0208179
-0.020594
-0.0209452
-0.0264247
-0.0170438
-0.0204255
-0.0372777
-0.0221207
-0.0290822
-0.0294943
-0.0385625
-0.022376
-0.0301467
-0.0537472
-0.0320394
-0.0422949
-0.0428617
-0.0541956
-0.0332293
-0.0431934
-0.0788677
-0.0461923
-0.0593451
-0.0598172
-0.071793
-0.0467067
-0.0565502
-0.10139
-0.0641289
-0.0782031
-0.0752136
-0.0777557
-0.0591487
-0.0633518
-0.0904295
-0.0818496
-0.082869
-0.075399
-0.0633648
-0.063264
-0.0585882
-0.0297079
-0.0205018
-0.0323488
-0.0176749
-0.0194124
-0.0195286
-0.0241883
-0.0276414
-0.0363284
-0.0390786
-0.0191556
-0.017239
-0.0246598
-0.0218624
-0.0198944
-0.0358099
-0.0234555
-0.0169855
-0.018973
-0.0203167
-0.0179343
-0.0207468
-0.0221496
-0.0199597
-0.0207795
-0.0207322
-0.0224273
-0.0196028
-0.028848
-0.0316855
-0.0259821
-0.0294133
-0.0283743
-0.0322715
-0.0264117
-0.0529344
-0.0293774
-0.0379177
-0.0421339
-0.0508411
-0.0309319
-0.0371882
-0.0694649
-0.0410431
-0.0500405
-0.0532073
-0.0576235
-0.038804
-0.0418031
-0.0756116
-0.0524505
-0.0558184
-0.0580552
-0.0562539
-0.0422005
-0.0420517
-0.031596
-0.0189813
-0.0264371
-0.020026
-0.0257878
-0.0189832
-0.0243463
-0.0418048
-0.0300059
-0.0398724
-0.0267315
-0.024893
-0.0261159
-0.0292593
-0.0274265
-0.0418684
-0.0403868
-0.0231457
-0.0191534
-0.0292587
-0.0265203
-0.0225265
-0.0219367
-0.0283448
-0.0211453
-0.0253163
-0.0205534
-0.0243327
-0.0222393
-0.0222589
-0.0219367
-0.0209547
-0.0222454
-0.0217978
-0.0215783
-0.0348509
-0.0281432
-0.0333587
-0.0294971
-0.0349087
-0.0300902
-0.0359585
-0.0465301
-0.0358223
-0.0447945
-0.036334
-0.0388587
-0.0378738
-0.0427684
-0.0533238
-0.0481793
-0.0582258
-0.0390812
-0.038258
-0.0439678
-0.0456272
-0.0239629
-0.0219263
-0.0230422
-0.0182976
-0.0222536
-0.018645
-0.0190173
-0.035618
-0.0238138
-0.0256428
-0.0238932
-0.0277037
-0.0196041
-0.0210224
-0.0407937
-0.0271326
-0.0350319
-0.0283863
-0.027961
-0.0220331
-0.0262699
-0.0341406
-0.0379423
-0.0450397
-0.0273277
-0.0266147
-0.027711
-0.0320388
-0.0316136
-0.046836
-0.0525525
-0.0270971
-0.0308158
-0.0335688
-0.0396726
-0.0372006
-0.0548971
-0.0628938
-0.0327124
-0.0392864
-0.0421174
-0.0488781
-0.0488041
-0.0654234
-0.072337
-0.041485
-0.0472852
-0.0504803
-0.0523956
-0.0635301
-0.0740755
-0.0747517
-0.0487467
-0.0502809
-0.0516773
-0.0446498
-0.0142662
-0.0137337
-0.014974
-0.0129364
-0.0146827
-0.0130928
-0.013956
-0.0175785
-0.0149148
-0.0149546
-0.0158236
-0.0202486
-0.0144564
-0.0173337
-0.02483
-0.0156277