/*--------------------------------*- C++ -*----------------------------------*\
  =========                 |
  \\      /  F ield         | OpenFOAM: The Open Source CFD Toolbox
   \\    /   O peration     | Website:  https://openfoam.org
    \\  /    A nd           | Version:  10
     \\/     M anipulation  |
\*---------------------------------------------------------------------------*/
FoamFile
{
    format      ascii;
    class       surfaceScalarField;
    location    "0.2";
    object      phi;
}
// * * * * * * * * * * * * * * * * * * * * * * * * * * * * * * * * * * * * * //

dimensions      [0 3 -1 0 0 0 0];

internalField   nonuniform List<scalar> 
38556
(
1353.81
-675.656
-2723.11
1522.35
125.014
-293.556
1828.19
-31.7509
-274.089
1937.09
115.903
-224.801
1867.79
162.903
-93.6018
1764.7
106.229
-3.13637
1391.09
164.413
209.189
1109.66
116.267
165.163
942.604
76.6161
90.4438
872.145
42.1508
28.308
840.994
22.0261
9.12474
822.267
16.648
2.07945
813.677
7.94909
0.64058
805.52
8.01463
0.142705
801.623
3.85836
0.0385537
797.451
4.15168
0.0199585
795.347
2.09479
0.00983237
793.393
1.95731
-0.0040596
792.66
0.771515
-0.038478
0.487972
-0.0338971
-18.973
-853.261
-61.3873
331.548
134.575
-360.082
477.472
158.795
-336.47
643.773
146.054
-196.452
799.967
190.622
-183.912
827.309
170.246
-91.3592
860.097
143.598
-11.974
839.044
121.198
16.1221
842.559
61.3984
11.7031
824.634
56.0095
4.06613
822.482
22.5657
1.61297
810.8
27.8891
0.440664
807.979
10.6307
0.138915
801.386
14.5643
0.0432969
799.171
6.06325
0.0104422
795.68
7.62978
0.0127524
794.244
3.52754
0.00364298
792.635
3.57192
-0.00600467
792.18
1.25037
-0.0240056
0.82469
-0.022824
397.143
-412.26
417.847
602.893
269.697
-340.871
908.23
309.455
-455.996
931.672
277.147
-154.535
945.342
276.098
-99.1457
914.732
215.033
-14.1774
901.391
146.757
10.1824
874.058
137.366
11.1652
858.215
70.4364
6.80462
836.882
74.9012
2.44123
826.666
31.7195
1.06212
814.558
39.7001
0.296593
809.217
15.8744
0.0978598
802.819
20.9322
0.0297531
799.859
9.02228
0.000888778
796.611
10.8665
0.0113014
794.82
5.33357
-0.0151847
793.224
5.1844
-0.0160245
792.423
2.06152
-0.0104257
1.27796
-0.0177295
-64.9397
479.106
2916.42
142.553
524.894
-462.69
410.401
412.758
-371.151
440.708
301.92
-55.0801
602.837
193.422
-79.4536
641.073
184.912
-8.11422
742.69
53.3477
-8.20865
752.963
125.985
1.10841
792.407
30.17
0.822245
788.41
78.3049
0.593916
799.445
20.378
0.306302
793.929
45.0983
0.11796
796.351
13.4257
0.0263707
792.81
24.4621
0.0111148
792.705
9.1273
-3.60614e-05
790.892
12.6697
0.0103431
790.321
5.89836
0.00562371
789.554
5.9581
-0.00698019
789.335
2.30035
-0.0195615
1.39082
-0.0183455
-671.841
-181.163
44.8124
64.1913
80.0763
-291.215
401.885
162.73
-87.6659
589.853
115.046
-1.09287
778.208
51.6766
-46.61
769.779
201.361
-8.02042
834.589
8.95561
-20.4174
812.189
151.131
-2.74675
817.269
27.8981
-2.80835
803.502
92.3825
-0.310556
803.559
20.5344
-0.213498
797.341
51.3263
-0.00993183
796.987
13.7965
-0.016992
793.805
27.6426
0.00124782
793.234
9.7109
-0.012779
791.824
14.0769
0.00358009
790.588
7.158
-0.0241644
789.713
6.85703
-0.0237253
789.173
2.83391
0.00625295
1.65257
0.00300777
1724.42
1838.29
12.5964
968.889
1067.95
-232.346
271.251
506.291
354.077
307.12
111.904
-32.7276
470.589
-181.625
69.8316
514.309
144.924
12.7177
722.3
-201.641
2.60527
709.763
162.329
1.33921
762.197
-24.6261
0.0898283
762.402
91.911
0.266564
778.739
4.10678
0.0905801
779.381
50.5912
0.0936191
785.209
7.92978
0.0384596
784.888
27.9268
0.0369452
785.276
9.33384
-0.010692
786.076
13.2891
-0.0119328
785.89
7.35843
-0.014607
785.804
6.95387
-0.0108276
785.518
3.09717
0.02286
1.46074
0.0105268
1543.62
1339.19
-712.021
1985.31
1259.22
-632.96
1818.36
677.684
-4.44545
1383.29
182.774
364.193
1019.65
-75.2208
257.244
836.303
270.501
57.7669
762.013
0.362387
18.5973
-72.8163
0.676169
-74.1706
727.505
27.6344
0.893577
70.9171
25.4016
71.9909
747.916
14.4854
-0.667598
-37.8082
15.733
-36.7803
760.327
7.21775
-0.541249
32.7169
7.44408
32.663
775.436
8.39559
-0.605161
-13.6062
8.32586
-13.5131
778.185
8.48118
-0.217768
15.5344
8.48737
15.5577
782.824
4.37391
-0.221543
-2.55726
4.27175
-2.57646
781.985
6.43887
-0.0682772
8.00157
6.45956
7.93404
784.867
6.42853
0.0232248
786.041
12.1044
0.0113884
785.363
8.03135
0.00465974
784.794
7.51142
0.0110704
784.793
3.0722
0.026496
1.39343
0.00501317
1881.83
-108.844
301.776
2258.46
670.063
212.521
1567.49
443.322
925.335
1183.98
176.925
389.356
790.519
-65.4877
383.732
175.453
60.8259
53.3147
180.788
176.104
181.823
102.856
43.9013
85.9546
149.377
18.593
7.8459
-106.925
140.007
-4.4582
-0.989724
-172.228
180.432
6.15729
0.123649
-167.704
180.412
-5.04777
-0.442497
-190.475
193.813
5.18429
-0.125954
-184.138
191.721
1.06529
-0.167186
-193.475
195.303
2.54512
0.000447931
-190.106
195.305
1.23618
0.00371578
779.645
0.542817
-0.294052
-194.505
-193.185
-195.484
-194.135
1.66046
0.58714
1.59628
782.861
9.05918
-0.169849
782.46
8.52468
-0.0923168
782.858
7.09108
0.0222403
782
3.84607
0.0838903
1.36946
0.0350336
2148.17
-237.966
-133.139
2476.31
628.074
-286.144
1778.47
696.437
444.718
1290
287.054
378.344
202.99
125.747
240.804
193.562
229.663
231.748
203.119
59.8346
0.861895
-11.4324
-55.6844
51.5539
14.341
1.22195
-43.8463
3.27425
44.8531
-3.99125
-0.289779
-47.8677
1.20778
48.4905
-1.54173
-0.288905
-45.874
0.938052
46.4288
-1.38531
-0.107531
-47.6609
-1.17254
48.3524
0.469846
0.0111436
-46.9753
-0.479948
47.5512
-0.0717479
-0.0241808
-47.8094
-0.964935
48.3509
0.416307
0.00711886
-47.5674
-0.512639
48.0515
0.0529584
-0.0243981
-48.4377
195.701
-0.514398
0.0509892
-48.3725
-48.9272
-48.9574
775.432
7.77574
-0.57583
-193.232
-192.334
-194.497
-193.51
778.405
5.87591
-0.324457
780.598
4.95991
-0.0613556
781.856
2.47965
0.107924
1.03158
0.0636523
490.277
-283.639
-22.7744
986.786
231.332
-99.768
829.888
249.948
603.387
747.161
96.385
273.397
105.833
77.1968
312.417
94.4618
144.813
138.186
-61.3248
124.159
16.4483
26.5503
-10.6514
-37.063
39.4241
6.32769
1.96265
-2.31798
-44.4764
45.881
1.54489
-0.631555
-0.660436
-48.4638
48.6713
0.739601
-0.286646
-0.481671
-48.3467
48.1242
0.726135
-0.0219605
-0.972118
-48.049
48.0091
1.01451
-0.00251628
-1.06285
-48.008
47.9842
1.06093
0.0257204
-0.957236
-48.0267
48.0512
0.931745
0.000994773
-0.867358
-48.2037
48.2385
0.822876
0.00958456
-48.4339
-2.27799
193.967
2.60411
0.00828077
-48.2171
-48.8639
-48.7861
778.056
8.91175
-0.211097
-194.784
-193.754
-195.633
-194.809
778.278
5.87712
-0.22384
779.107
4.21682
-0.0855142
779.507
2.0537
0.0262802
0.774683
0.0186548
-65.546
216.799
771
16.0164
-109.765
259.535
691.628
-61.3096
-364.354
644.413
18.451
125.149
146.61
2.37954
17.4475
197.317
153.54
204.317
18.4818
140.259
-5.23114
-6.8999
1.6707
-39.8529
41.718
-3.2488
-0.287004
-0.838429
-46.8184
48.0959
0.58266
-1.02177
-1.3295
-49.2381
49.4497
1.61629
-0.498471
-1.36731
-49.271
49.1073
1.52868
0.00230714
-1.25021
-48.6876
48.5564
1.3556
0.0257759
-1.10046
-48.4968
48.4887
1.15956
-0.0510157
-0.956016
-48.3307
48.3582
1.00232
-0.0737659
-0.827135
-48.4353
48.3915
0.808356
0.0626288
-48.2815
-2.68018
193.746
2.9965
-0.254925
-48.0313
-48.8504
-48.6444
775.7
9.97444
-0.085673
-194.419
-193.102
-195.25
-193.905
776.298
5.43938
-0.160931
777.873
2.71237
-0.0699692
779.011
0.896036
0.0199859
0.377739
0.0133751
-371.223
167.82
-919.716
72.1887
-15.0864
-538.09
369.15
334.147
-692.418
381.842
220.747
-214.988
108.292
136.344
-233.46
122.004
120.805
130.237
-1.67551
145.515
-26.1757
-9.37154
5.78788
-47.8079
49.8577
-7.97745
0.13981
-1.23367
-50.6472
50.6485
2.34026
-1.10783
-2.40792
-50.4395
50.0011
3.02031
-0.17392
-2.13032
-49.0159
48.6507
2.50459
-0.00903019
-1.5302
-48.4979
48.3801
1.63877
0.00919367
-1.28725
-48.232
48.0404
1.44947
0.0293927
-1.03739
-48.0848
48.0176
1.09693
0.00765866
-0.883858
-48.1435
48.0904
0.944723
-0.00775093
-48.5231
-3.21887
192.806
5.24301
-0.00452521
-48.4447
-48.9834
-48.8741
771.171
8.94912
-0.538712
-193.113
-190.675
-194.136
-191.683
774.608
2.21612
-0.213752
776.793
0.546799
-0.0199234
778.115
-0.538302
0.112404
0.0545605
0.0652019
1901.06
1143.61
198.992
1281.87
819.743
-215.643
879.014
1105.28
-368.275
974.723
636.349
-511.311
996.264
409.183
-294.379
215.224
-57.4805
-116.373
52.3694
97.643
54.8587
96.5847
218.078
214.969
220.391
13.3798
188.39
-15.1133
5.51361
2.67144
15.1658
5.2177
-3.29131
-168.486
166.985
14.6291
2.58769
-4.81478
-3.06534
-4.54479
-2.47344
-188.918
196.679
3.31273
0.741715
-3.4488
-2.40898
-3.48391
-2.53151
-190.445
187.584
13.9158
0.27245
-3.14311
-2.51853
-3.13431
-1.60006
-195.34
196.259
7.23495
-0.0321315
-2.4506
-1.55245
-2.51873
-1.46746
-192.969
191.044
8.80619
0.0412289
-2.01498
-1.46533
-1.9748
-1.05757
-194.924
194.644
6.20572
-0.0313918
-1.90327
-1.00089
-1.93203
-0.950674
-192.887
191.97
5.89911
0.194654
-1.6535
-0.927185
-1.64505
776.012
11.3294
-0.418375
-3.52993
-5.23144
-3.50718
-5.49267
-193.599
-190.052
-194.641
-190.87
779.033
6.12229
-0.193706
778.556
2.7326
-0.039277
778.543
0.512127
0.0472791
777.581
0.361999
0.0614864
0.0279224
0.023153
306.563
2636.7
-2735.42
433.144
1388.6
-695.441
851.84
1452.06
-765.483
1171.4
941.839
-625.046
1223.98
323.246
33.3483
1106.05
-20.9255
81.3829
912.38
99.503
197.624
-6.08779
-45.1693
-6.99975
-45.204
827.469
-35.4581
74.1246
-2.69767
26.1957
-2.22634
24.9734
786.812
56.1642
36.1807
-0.23317
-25.0813
-1.4749
-24.899
781.204
-5.3152
9.49162
-6.54404
7.16906
-6.48729
7.29394
781.532
35.3646
3.3881
-4.17954
-15.3718
-4.16812
-15.361
778.582
5.45698
0.815304
-4.7094
3.07621
-4.73256
3.04306
783.191
22.9663
0.196727
-3.69127
-10.1901
-3.6824
-10.2082
780.703
6.41139
-0.13462
-2.81155
1.14424
-2.83171
0.709775
780.246
11.7555
0.0315515
780.429
5.94332
-0.00393258
778.893
4.25853
0.00981848
777.735
1.66954
0.000248861
777.382
0.745504
-0.0305599
0.0843797
-0.0331461
289.896
1392.47
195.705
1701.24
699.186
-721.924
2394
802.829
-43.5281
2636.84
545.926
153.07
1840.08
270.23
849.779
1276.67
40.6465
501.84
1009.14
152.928
214.105
876.864
29.4535
67.3619
824.095
83.8131
25.12
793.748
18.3947
6.63706
785.326
41.533
2.25359
778.539
11.6765
0.566874
779.236
22.0849
0.184575
777.911
7.68819
0.0487415
778.289
11.3831
-0.00619331
778.812
5.43344
-0.0126871
778.402
4.67705
-0.00906188
778.083
2.01076
-0.0216985
777.548
1.33103
-0.0510026
0.160056
-0.0458184
1259.5
589.975
-517.476
2038.47
198.979
-278.767
1680.07
-80.1903
1241.41
1611.96
-127.622
741.659
1071.88
122.775
687.542
891.762
37.8625
182.898
796.745
148.553
99.3928
775.332
28.2685
22.5979
770.667
77.0168
11.4617
769.745
16.6397
2.67708
772.192
37.8932
1.19268
772.854
10.7063
0.308242
774.88
19.9488
0.109896
775.067
7.46955
0.0313856
776.216
10.2298
0.0047005
777.015
4.63077
0.00344966
777.016
4.67865
-0.00229118
776.889
2.15554
-0.017507
776.814
1.46346
-0.0572833
0.281238
-0.0502643
2261.32
17.2521
-3005.09
1660.92
-166.167
965.544
1003.25
-656.742
1234.22
995.786
-512.408
392.252
822.071
-187.476
483.966
819.39
-69.412
109.956
789.551
93.2093
85.1822
773.89
28.7134
15.2167
772.11
69.4924
9.30419
767.746
19.438
1.56571
769.937
34.8854
0.816834
769.549
10.9263
0.167886
771.866
17.57
0.0620279
772.782
6.53451
0.0193128
774.191
8.82193
-0.0016182
774.841
3.98197
-0.00151686
775.331
4.19342
-0.00460581
775.773
1.72911
-0.0153877
776.099
1.18953
-0.0517772
0.201722
-0.0499137
818.132
672.978
279.584
617.093
122.404
-87.5319
876.082
-578.662
-337.069
859.821
-336.173
-159.975
774.076
-210.94
109.209
758.194
-52.1248
-1.40503
731.684
52.6368
67.0822
730.058
18.2775
12.0615
744.723
44.9426
9.88497
749.935
12.455
1.77147
759.982
23.9696
0.868152
763.137
7.57987
0.19139
768.182
12.4596
0.0660301
769.926
4.76532
0.024368
772.413
6.33703
-0.00150713
773.549
2.8415
0.00422333
774.659
3.08361
-0.000371831
775.135
1.26161
-0.00841837
775.443
0.929064
-0.0474342
0.150502
-0.0489614
1379.37
-133.944
-2487.78
1278.66
293.178
-70.0649
973.741
38.121
-311.862
830.601
28.2759
-221.309
688.559
11.7419
-80.6398
682.35
15.7625
-61.678
709.005
35.3844
-9.40309
717.625
13.476
-3.81817
739.573
23.1951
-0.200502
745.012
7.15344
-0.13774
756.476
12.4446
0.0608457
759.979
4.04523
0.0323419
766.015
6.41564
0.00732374
768.386
2.38113
0.0136315
771.491
3.23497
-0.00296525
772.856
1.47261
0.00356348
774.227
1.71992
-0.00711441
774.753
0.746048
-0.00987997
775.13
0.594644
-0.0434123
0.132062
-0.0479784
861.38
-1285.08
1047.56
107.001
789.296
296.382
715.107
102.465
644.718
82.1312
665.923
-5.44312
697.976
3.33181
711.454
-0.00190846
734.044
0.604715
741.036
0.161074
753.341
0.14029
757.317
0.0688313
763.713
0.0196239
766.074
0.0207235
769.308
0.000397753
770.774
0.00688508
772.498
-0.00443928
773.253
-0.00898732
773.891
-0.0436086
-0.0493602
1662.64
-85.1746
-4088.55
2525.51
-326.602
-829.829
2653.63
-386.01
-16.1946
2389.72
-179.464
218.568
1716.87
121.571
457.676
1298.47
145.672
269.599
1084
163.524
260.128
974.021
106.932
168.213
902.602
69.9944
91.8692
862.536
39.9242
28.4497
840.299
21.2362
10.1255
823.508
16.4815
2.38851
815.433
7.90932
0.806503
807.381
8.00973
0.184307
803.501
3.86083
0.0582968
799.348
4.15251
0.0208515
797.256
2.09447
0.00696518
795.299
1.95666
-0.00344313
794.51
0.775278
-0.0252573
0.490163
-0.0204383
1580.86
-260.027
1504.58
1092.05
-405.034
207.158
587.275
-186.186
-31.5202
589.416
53.6636
-431.72
734.874
162.872
-370.672
766.719
163.833
-141.366
828.443
131.228
-41.4018
826.177
113.834
11.4851
840.502
57.2891
10.0839
825.219
54.8492
4.4238
823.985
22.1804
1.90323
812.536
27.8036
0.567444
809.755
10.6217
0.207458
803.187
14.5602
0.060895
800.971
6.06844
0.0189969
797.495
7.6289
0.0118259
796.062
3.52884
0.00306211
794.446
3.5702
-0.00443774
793.961
1.25332
-0.0171134
0.826218
-0.0144043
2730.59
38.4944
2294.57
1746.47
99.2328
138.975
1138.48
148.997
-183.182
1025.31
223.033
-210.736
964.508
280.72
-156.194
923.147
235.85
-44.8332
904.122
158.24
2.19459
876.338
141.739
11.0448
860.054
71.3118
9.06549
838.749
75.148
3.44757
828.53
31.7772
1.68455
816.436
39.7215
0.472496
811.072
15.9037
0.180049
804.674
20.9397
0.0479532
801.698
9.03443
0.0107381
798.46
10.8685
0.0100786
796.645
5.33833
-0.0103647
795.026
5.18446
-0.0114072
794.212
2.06463
-0.00758145
1.28064
-0.010856
264.932
896.059
3482.96
299.215
260.827
-658.566
341.796
348.935
-613.671
426.901
303.717
-220.869
608.607
218.973
-199.412
650.483
199.096
-13.2366
745.22
59.0318
-3.73644
755.504
127.946
4.61691
793.996
30.6906
2.9512
790.075
78.3776
1.28568
801.15
20.4288
0.579683
795.71
45.0928
0.186282
798.128
13.4553
0.0574152
794.602
24.4592
0.0174302
794.497
9.13602
0.0034933
792.704
12.6636
0.00818895
792.144
5.89978
0.00386947
791.37
5.95662
-0.00505266
791.124
2.30465
-0.0136246
1.39395
-0.0107629
102.083
930.137
3254.18
124.256
117.574
-170.135
423.795
138.515
-176.785
602.053
131.008
-6.64137
793.029
96.7967
-115.41
783.932
211.49
-11.3172
841.129
17.6018
-36.1849
817.429
152.63
-3.73075
820.021
28.7194
-3.42887
805.84
92.4551
-0.207711
805.553
20.6236
-0.121211
799.299
51.3106
0.0268749
798.906
13.8256
0.00562816
795.728
27.6314
0.00728722
795.136
9.72293
-0.00787172
793.727
14.0745
0.00182123
792.457
7.16299
-0.0175447
791.546
6.86041
-0.0168564
791.014
2.8392
0.00361866
1.65535
0.00364311
697.885
1708.11
1713.07
297.996
514.734
-229.617
289.213
229.983
271.391
293.313
23.2846
70.8955
501.439
-159.514
118.017
527.919
147.538
50.1901
727.079
-195.369
16.416
712.957
162.176
5.91487
764.219
-23.9266
1.47383
764.288
92.0475
0.605567
780.516
4.32991
0.156428
781.173
50.6722
0.0750907
787.007
8.00554
0.0237612
786.703
27.9622
0.0107104
787.083
9.3404
-0.00870204
787.89
13.2605
-0.00496873
787.701
7.34639
-0.00843649
787.602
6.95536
-0.00723162
787.348
3.10205
0.0145063
1.46277
0.00860311
833.371
222.621
-1614.92
919.351
511.097
-715.303
1047.21
374.659
-276.975
1071.22
37.7796
325.686
976.569
-75.1482
267.526
837.408
278.716
65.7505
767.975
4.62549
24.7437
-70.7391
4.59092
-70.5592
731.628
26.3928
5.36194
70.521
26.5869
70.5539
750.311
14.762
1.4903
-37.1454
14.7583
-37.1423
762.473
7.22061
0.145807
32.3719
7.22923
32.3766
777.17
8.07791
-0.0702363
-13.5348
8.08338
-13.5289
779.924
8.47887
-0.0598866
15.3985
8.48282
15.4009
784.578
4.16968
-0.0624022
-2.57918
4.17577
-2.57431
783.845
6.45054
-0.0272583
7.87158
6.4585
7.87374
786.755
6.45259
0.000991367
787.946
12.0849
-0.00397757
787.247
8.05557
-0.00581793
786.661
7.54946
0.00324996
786.678
3.0942
0.0173418
1.40317
0.00584047
1303.5
598.634
1693.1
871.149
576.751
579.219
699.252
125.948
1345.94
682.809
-21.2708
464.849
725.64
-114.865
380.618
178.064
45.9673
58.3349
183.42
178.079
183.405
91.4435
46.9156
92.0402
-10.1685
158.165
24.1149
10.578
1.31519
-116.108
144.145
-3.94553
0.985404
-1.21329
-174.443
182.948
6.3933
1.07638
0.476971
-170.538
182.57
-5.06061
-0.227585
-0.455362
-192.218
195.499
4.95995
0.292115
0.149772
-185.85
193.212
1.05669
-0.0901676
-0.136285
-194.846
196.638
2.43422
0.0803437
0.00319617
-191.423
196.608
1.27433
-0.011092
781.706
0.594622
-0.12881
-195.617
-194.332
-195.608
-194.33
1.63352
0.604159
1.63593
784.608
9.08604
-0.0729254
784.09
8.52672
-0.0448852
784.542
7.10714
0.0119678
783.827
3.85265
0.040834
1.37219
0.017031
1670.54
803.441
1629.67
1303.68
9.77488
647.689
999.915
185.929
688.506
919.815
56.8939
380.28
205.767
76.2179
145.711
205.618
206.427
206.013
-6.94548
221.457
35.622
1.60136
0.374623
-10.9958
-60.226
56.5084
14.9571
-0.618317
1.34193
-50.4075
2.04774
50.5037
-2.15134
-1.33454
0.292134
-50.0568
1.08261
50.1409
-1.16731
-0.29152
0.0672035
-46.8883
0.988994
47.3235
-1.43445
-0.0569647
-0.0304236
-48.3668
-1.17234
49.0922
0.459603
0.0177513
0.0141262
-47.668
-0.466707
48.2027
-0.0722599
-0.0098526
-0.0165007
-48.439
-0.980258
49.0029
0.421689
0.0111106
0.00769426
-48.2076
-0.532369
48.6742
0.062115
-0.00404456
-49.0254
-0.0452119
197.292
-0.521663
0.0190953
-49.0527
-49.0226
-49.0487
777.636
7.76337
-0.24984
-194.698
-193.643
-194.681
-193.618
780.1
5.88332
-0.145179
782.18
4.99421
-0.0282629
783.593
2.49486
0.0528084
1.03296
0.0297782
-503.984
72.8282
-344.159
53.5307
-716.247
68.7392
382.594
-29.9009
490.154
391.559
31.586
289.74
126.479
62.7788
229.486
119.338
123.762
118.349
-31.8126
-52.1826
153.668
25.5417
31.265
-2.88627
-10.7078
-43.9117
45.8172
8.76637
2.92224
0.0978227
-3.28167
-47.94
48.4741
2.53296
0.116798
0.219443
-0.864768
-49.6752
49.6084
0.903866
-0.191671
0.0798783
-0.442561
-48.8928
48.6271
0.659716
-0.0313719
0.0659231
-0.962199
-48.4591
48.4481
1.01353
-0.106303
-0.0155003
-1.0984
-48.503
48.5637
1.09175
-0.0384997
-0.0643148
-0.963297
-48.7874
48.8045
0.936063
0.0744285
0.0179747
-0.846593
-48.7762
48.7904
0.812998
0.0014411
-48.9119
-0.077908
-2.20168
195.152
2.57973
0.0804025
-48.8697
-48.8993
-48.852
780.338
8.88422
-0.0853805
-195.856
-194.984
-195.82
-194.924
780.228
5.88335
-0.114377
780.955
4.23719
-0.0551215
781.403
2.06639
0.00687309
0.776066
0.00776252
3146.43
380.246
1124.34
1751.36
-204.199
1142.56
860.68
41.5896
454.833
701.38
62.1382
253.896
148.237
22.6645
54.6861
203.337
149.127
203.554
7.57649
6.30941
142.301
-0.521013
-7.42876
1.15346
0.661558
-41.2319
43.6905
-2.98022
-1.29333
0.835565
-0.772113
-50.1881
51.1797
-0.19196
-0.863079
0.213051
-1.21198
-50.9266
50.5538
1.51771
-0.145961
-0.0962272
-1.3183
-49.7793
49.3525
1.45766
0.3836
-0.0904225
-1.25157
-48.6924
48.6529
1.34309
0.0383651
0.221227
-0.981374
-49.0001
49.0038
1.04581
-0.289371
0.101718
-0.969702
-48.6896
48.6449
1.02525
-0.112493
-0.0204003
-0.863231
-48.9533
49.0344
0.851688
-0.0491423
-48.9653
0.128689
-2.65371
194.901
2.9358
0.0165332
-48.7921
-48.8784
-48.6921
777.838
9.93667
-0.0362613
-195.413
-194.086
-195.423
-194.019
778.199
5.43648
-0.0754971
779.7
2.69908
-0.0321497
780.89
0.88719
0.00868856
0.375683
0.00576804
1646.56
1785.45
139.24
1090.04
254.417
-440.192
616.154
517.969
-694.907
638.588
242.512
-417.796
134.936
214.012
-346.591
143.298
136.241
145.897
14.7469
-8.42385
168.509
-16.1162
-23.7801
1.84244
6.10553
-53.3927
56.2403
-8.12795
-2.66759
0.316251
0.765737
-54.3833
53.2317
0.153121
-0.0834913
-0.0784336
-2.36104
-51.4899
50.8523
2.93828
0.138756
-0.0565049
-2.12425
-49.6174
49.222
2.48636
0.0897955
-0.0273342
-1.50648
-49.0396
48.927
1.62819
0.0181858
-0.0840453
-1.26053
-48.8066
48.627
1.42867
0.095465
-0.0335078
-1.03223
-48.7314
48.6774
1.09306
0.0267402
0.0575762
-0.874256
-48.7912
48.7241
0.935079
-0.0512448
-49.0637
-0.0126301
-3.24318
194.041
5.22925
0.0128212
-48.9452
-49.0744
-48.9443
773.062
8.92136
-0.230565
-194.336
-191.851
-194.325
-191.843
776.148
2.24064
-0.103314
778.319
0.526855
-0.0193667
779.845
-0.567698
0.0413456
0.0377114
0.0247145
686.848
1306.95
-651.293
296.278
764.369
-335.023
833.976
937.239
-1325.24
972.542
452.32
-859.686
967.583
349.848
-425.256
212.648
-80.0352
-157.695
38.498
79.7738
35.1278
77.5484
216.357
212.673
216.313
10.9962
-8.87991
189.692
3.2207
4.28193
1.22024
10.9408
1.17631
-3.68472
-3.70258
-171.789
170.266
17.0798
5.81247
-5.13601
-3.69593
-5.15063
-2.47145
-0.983467
-190.903
197.435
4.49385
2.01446
-3.55605
-2.47364
-3.55613
-2.53048
-0.83995
-191.271
188.613
13.9057
0.943529
-3.14642
-2.52951
-3.14564
-1.58897
-0.157344
-196.356
197.186
7.33987
0.212367
-2.52343
-1.58962
-2.52328
-1.46109
-0.0859028
-193.964
192.105
8.81601
0.0782919
-2.01417
-1.4604
-2.01448
-1.02574
0.00745102
-195.952
195.656
6.2098
0.0104625
-1.94003
-1.02613
-1.93968
-0.931861
-0.147886
-193.879
193.262
5.88851
0.0854471
-1.67347
-0.931428
-1.67293
777.969
11.3188
-0.15122
-3.49632
-5.41278
-3.49456
-5.406
-194.822
-191.061
-194.808
-191.054
780.637
6.15987
-0.100156
780.162
2.70547
-0.0287658
780.274
0.448234
0.0134789
779.439
0.309477
0.019618
0.00288324
0.00780409
131.669
2075.8
-2258.12
229.931
677.276
-706.61
442.653
902.694
-943.66
602.978
249.073
-582.124
768.131
82.364
135.679
754.437
-101.984
117.025
778.492
110.709
201.407
-16.2098
-52.8482
-16.5842
-52.9047
777.343
-35.6077
70.5786
-5.41471
25.3979
-5.23093
25.5513
774.665
57.8289
36.9223
-2.16444
-25.8137
-2.10036
-25.8143
778.777
-5.08167
9.5333
-6.58688
7.05321
-6.59026
7.05185
782.294
35.3362
3.79796
-4.1893
-15.4369
-4.19491
-15.4414
780.265
5.44994
0.89981
-4.76917
3.01639
-4.76686
3.01406
785.03
22.9122
0.292777
-3.68891
-10.1969
-3.68955
-10.1984
782.677
6.4031
0.00214511
-2.83226
0.739424
-2.82817
0.734792
782.236
11.7633
0.0275561
782.426
5.96379
0.00238261
780.882
4.25593
0.0038299
779.682
1.65506
-0.00669293
779.261
0.728483
-0.0280167
0.0745588
-0.0232796
-513.228
951.748
-1156.22
734.232
-424.232
-867.876
1158.54
97.5756
337.278
1338.4
-102.611
324.902
1122.07
106.544
1041.93
992.551
11.6055
517.765
912.786
157.422
247.157
844.556
28.3247
71.6591
816.895
83.0163
27.594
793.069
18.2058
7.17608
786.716
41.401
2.54173
780.417
11.6703
0.645545
781.228
22.0704
0.215012
779.926
7.69859
0.0557771
780.301
11.3777
0.00379136
780.819
5.43527
-0.00204135
780.397
4.67418
-0.00466313
780.042
2.00389
-0.0153952
779.431
1.32696
-0.0386457
0.15604
-0.0295996
-91.2304
499.32
-1479.65
593.562
-656.256
-731.535
801.369
-384.836
1516.02
932.607
-239.356
747.166
802.353
177.615
746.724
776.348
36.7419
183.767
766.316
154.205
112.643
764.703
27.3522
25.1829
769.16
76.4914
13.5295
770.476
16.5316
3.03591
773.819
37.8266
1.42316
774.738
10.7141
0.346024
776.84
19.94
0.138124
777.057
7.47565
0.0375888
778.203
10.227
0.00948956
779.006
4.63235
0.0028191
779.004
4.67707
-0.00341249
778.85
2.15478
-0.0140785
778.7
1.46234
-0.0424178
0.279686
-0.0329252
-318.792
-73.7689
-4221.46
-231.699
-510.661
732.857
371.573
-532.506
778.622
537.482
-192.727
179.715
693.464
70.8539
434.746
726.972
21.1452
92.0443
768.144
118.116
80.0988
764.938
30.9584
14.8172
771.545
69.5852
9.60345
768.762
19.3461
1.53356
771.705
34.8186
0.881966
771.494
10.9384
0.154518
773.858
17.5698
0.0682943
774.792
6.54426
0.0167086
776.193
8.82329
0.00101493
776.84
3.98475
-0.00108656
777.323
4.1935
-0.00400031
777.745
1.72887
-0.0115225
778.004
1.19001
-0.0386241
0.201833
-0.0325733
-274.568
168.541
2616.04
-33.8931
-347.833
-491.035
370.243
-650.114
-623.597
354.025
-121.469
-215.015
609.918
-27.1394
-48.6902
617.26
11.7965
0.601334
699.484
65.0794
37.8953
714.821
19.2772
8.40606
743
44.3377
6.95256
750.509
12.3284
1.28036
761.613
23.8599
0.722847
765.01
7.58049
0.152537
770.127
12.4559
0.0632041
771.903
4.7727
0.0202652
774.386
6.33773
0.000863776
775.528
2.84361
0.00297426
776.639
3.08337
-0.00112544
777.105
1.26088
-0.00653228
777.354
0.929742
-0.0356795
0.150912
-0.0319799
1564.27
-964.454
-1774.03
1215.02
-101.623
32.9744
609.729
-119.923
-236.765
593.931
-4.32954
-322.65
665.847
6.35252
-186.048
665.578
17.508
-67.1199
711.187
32.1483
-22.0813
718.836
12.8921
-5.08199
741.482
22.5977
-1.10683
746.893
7.08552
-0.305427
758.401
12.4008
0.011673
761.951
4.05114
0.0117606
767.991
6.41646
0.00662783
770.382
2.38605
0.00971667
773.482
3.23592
-0.00166092
774.853
1.47406
0.00223879
776.215
1.71986
-0.00576822
776.727
0.746355
-0.00742663
777.052
0.594788
-0.033036
0.132195
-0.0314181
1276.96
977.193
776.91
505.431
408.571
544.799
481.458
25.2484
631.808
-61.8662
653.617
-9.74426
699.811
-10.7139
712.66
0.0415301
735.84
0.0222353
742.853
0.233048
755.262
0.132135
759.32
0.0619811
765.735
0.0213187
768.125
0.0172095
771.359
0.00164756
772.835
0.00518711
774.554
-0.00360077
775.298
-0.00678781
775.883
-0.033311
-0.032417
1235.85
-427.281
-3896.21
1149.37
-309.399
-433.949
1359.68
-411.558
185.052
1249.04
-31.502
360.711
1079.48
219.945
407.286
1003.27
194.734
151.076
956.545
178.221
128.635
924.285
103.984
96.4884
889.209
66.4077
60.5384
858.472
38.7817
20.4049
839.345
20.8597
8.3925
823.213
16.4027
2.11829
815.358
7.88172
0.778831
807.357
8.00473
0.181298
803.495
3.85941
0.0609922
799.344
4.15283
0.0182672
797.252
2.09495
0.00441146
795.294
1.9571
-0.00261337
794.507
0.775176
-0.0136677
0.490163
-0.0105601
1253.07
-803.509
-124.259
1042.6
-322.273
430.498
622.723
-277.179
253.98
600.817
-72.7451
-368.571
723.17
123.267
-396.347
765.161
153.189
-141.813
826.912
125.107
-50.0385
826.549
108.427
7.40647
840.049
54.5932
8.39842
824.999
54.017
4.238
823.863
21.9335
1.96555
812.484
27.7494
0.600085
809.735
10.6052
0.232388
803.179
14.5567
0.0653743
800.968
6.06744
0.0215826
797.494
7.62905
0.00968189
796.061
3.52903
0.00217948
794.446
3.57049
-0.00262769
793.961
1.25334
-0.0100505
0.826206
-0.00797166
1050.01
-105.707
248.079
1014.73
190.614
-338.629
986.249
-30.2256
-401.656
971.91
12.0738
-281.217
942.765
161.669
-165.451
909.386
189.576
-47.842
897.328
141.466
-2.10678
871.943
135.32
9.53713
858.262
69.2142
8.12524
837.915
74.5432
3.26861
828.287
31.6194
1.62658
816.349
39.6882
0.472038
811.051
15.8952
0.188174
804.666
20.9384
0.050494
801.696
9.03395
0.0144739
798.459
10.8684
0.00782587
796.645
5.33829
-0.00591767
795.026
5.18455
-0.00648764
794.212
2.06476
-0.00480264
1.2807
-0.00593445
122.852
1290.19
2486.52
174.832
273.719
-793.651
380.852
97.4319
-947.349
429.778
120.324
-378.046
605.481
112.046
-325.492
642.874
158.848
-19.9011
743.345
48.543
-11.2845
754.157
124.184
4.94076
793.624
29.6485
3.04965
789.9
78.1143
1.43828
801.106
20.357
0.636495
795.694
45.0786
0.207693
798.124
13.4511
0.0713853
794.601
24.4576
0.0216208
794.497
9.13631
0.00511799
792.704
12.6644
0.0053611
792.144
5.90008
0.00199035
791.37
5.9568
-0.00304768
791.124
2.30486
-0.00766418
1.39416
-0.00533227
296.927
1010.87
129.28
487.145
-48.7869
-37.8475
623.575
-16.6987
-199.085
716.92
43.6656
-23.3272
810.805
33.4767
-130.725
787.684
189.602
-18.9503
839.049
9.11694
-48.124
815.313
150.918
-6.72832
819.247
28.2085
-5.92241
805.44
92.386
-0.672486
805.439
20.6113
-0.374614
799.251
51.3146
-0.0210065
798.893
13.8287
-0.0141705
795.722
27.6334
0.0022974
795.134
9.7234
-0.00665884
793.726
14.0743
-0.00017804
792.457
7.16314
-0.0115698
791.546
6.86123
-0.0106403
791.014
2.83985
0.00115566
1.65571
0.00207565
-340.305
1219.56
-954.685
81.6167
-148.436
-551.889
246.198
-91.4458
181.556
280.821
-22.3188
102.258
470.326
-144.263
106.251
511.737
152.112
46.2685
722.571
-198.674
13.3726
710.859
163.231
5.31534
763.595
-23.8981
0.84371
764.063
92.1497
0.37397
780.454
4.35562
0.0209196
781.155
50.6838
0.00555143
787.007
8.00959
-0.00901085
786.708
27.9592
-0.0159832
787.09
9.34497
-0.0122475
787.894
13.267
-0.00182464
787.702
7.35027
-0.00378012
787.603
6.95637
-0.00368152
787.347
3.10201
0.00809128
1.46267
0.00516322
1166.22
-1047.69
-599.96
940.152
-180.533
-457.139
858.888
109.422
-396.579
940.019
36.5064
185.73
931.996
-42.0351
173.321
811.078
293.93
44.8507
759.207
3.19361
18.4241
-73.4444
3.19244
-73.4242
727.832
26.9417
4.16609
70.9311
27.0064
70.9215
749.172
14.7715
1.15804
-37.2275
14.7742
-37.2238
762.057
7.20484
0.205019
32.4
7.20404
32.3969
777.056
8.08285
0.199325
-13.5383
8.08121
-13.5389
779.879
8.47568
0.046935
15.4017
8.47529
15.4015
784.559
4.17348
0.06993
-2.57434
4.17296
-2.57479
783.823
6.45498
0.00883964
7.87509
6.45475
7.87415
786.733
6.45118
-0.0155363
787.919
12.096
-0.0184931
787.221
8.07146
-0.0299167
786.645
7.5555
-0.0190427
786.671
3.0933
0.000153259
1.40171
0.000483038
1065.01
-152.731
3495.06
522.021
461.53
480.147
471.82
135.403
1370.16
547.086
85.4378
340.652
676.588
-50.2213
259.302
167.929
53.8787
46.5698
173.976
167.821
173.795
95.4011
53.9267
95.5552
-10.8083
151.943
23.2105
6.77737
-2.97939
-111.932
142.475
-3.66798
3.0463
-0.9695
-173.897
182.652
6.32335
0.662303
-0.0038003
-170.347
182.507
-5.07491
0.123864
-0.146411
-192.239
195.487
4.94749
0.0333498
0.0365328
-185.835
193.217
1.05769
-0.0011438
-0.0371145
-194.86
196.635
2.42968
0.00578355
0.00407677
-191.416
196.595
1.27757
-0.0053256
781.72
0.603552
0.0153969
-195.615
-194.336
-195.612
-194.334
1.63794
0.605232
1.63733
784.603
9.08686
0.0533489
784.083
8.53842
0.00788757
784.544
7.1145
-0.00807523
783.833
3.85308
-0.00828593
1.37197
-0.00600916
1138.76
-244.82
-1020.35
1026.49
425.668
795.822
961.558
315.718
573.118
1004.83
186.665
235.781
228.796
163.346
22.5569
228.36
228.76
228.502
2.39947
235.888
43.3709
1.01599
0.524634
-11.6009
-61.4687
57.4514
15.7965
-0.70288
1.2204
-51.5808
2.02587
51.3362
-2.10247
-0.899236
0.240252
-50.2235
1.1339
50.2294
-1.21669
-0.163434