/*--------------------------------*- C++ -*----------------------------------*\
  =========                 |
  \\      /  F ield         | OpenFOAM: The Open Source CFD Toolbox
   \\    /   O peration     | Website:  https://openfoam.org
    \\  /    A nd           | Version:  10
     \\/     M anipulation  |
\*---------------------------------------------------------------------------*/
FoamFile
{
    format      ascii;
    class       surfaceScalarField;
    location    "0.2";
    object      phi_0;
}
// * * * * * * * * * * * * * * * * * * * * * * * * * * * * * * * * * * * * * //

dimensions      [0 3 -1 0 0 0 0];

internalField   nonuniform List<scalar> 
38556
(
1533.29
-416.433
-2363.17
1571.72
120.17
-158.596
1848.84
-21.2082
-255.916
1975.38
104.161
-230.695
1910.9
154.02
-89.5435
1810.83
98.89
1.184
1437.16
160.764
212.906
1161.68
112.056
163.416
999.617
73.359
88.7073
932.453
39.9112
27.252
903.083
20.4145
8.95604
885.498
15.6031
1.98157
877.804
7.08092
0.61318
870.166
7.50284
0.135499
866.724
3.40553
0.0362288
862.802
3.90176
0.0198868
860.914
1.87856
0.00944591
859.066
1.85269
-0.00424331
858.4
0.704514
-0.0388684
0.489633
-0.0318693
243.241
-595.224
-101.185
457.685
207.671
-301.945
547.007
175.828
-286.359
700.898
140.971
-190.701
855.788
180.981
-181.851
881.936
162.175
-89.4334
917.23
136.158
-10.6872
897.4
115.709
16.177
903.184
56.1751
11.3997
886.311
52.8355
3.94862
885.533
19.6217
1.57053
874.476
26.2347
0.42497
872.426
8.99791
0.133004
866.183
13.7035
0.0424086
864.374
5.205
0.00981323
861.072
7.19088
0.0131477
859.831
3.1161
0.00337267
858.305
3.38461
-0.00612715
857.904
1.13007
-0.024269
0.83175
-0.0207767
335.55
-414.866
422.069
634.498
287.942
-379.218
959.881
314.645
-464.198
980.33
271.579
-151.058
995.887
262.754
-97.3298
967.28
203.942
-13.1592
956.641
136.082
10.7139
931.969
129.291
11.0902
918.631
62.7848
6.72879
898.832
70.261
2.37345
889.993
27.417
1.04384
878.606
37.3328
0.28829
873.97
13.5386
0.0950556
867.869
19.7759
0.0296531
865.228
7.84477
0.000664532
862.112
10.2952
0.0117865
860.461
4.78251
-0.0156342
858.909
4.95363
-0.0159917
858.136
1.91241
-0.0101735
1.29959
-0.0158633
-306.906
299.443
1776.89
107.486
458.639
-585.089
430.786
373.525
-382.18
481.097
270.813
-49.5449
655.458
166.496
-78.1018
700.376
166.596
-7.57171
803.922
40.848
-8.31132
816.173
115.876
1.16326
857.146
21.0398
0.772706
853.088
73.7367
0.582075
864.725
15.4866
0.29334
859.056
42.8874
0.114739
861.846
10.7244
0.0239079
858.212
23.3991
0.0112313
858.275
7.78209
-0.000487459
856.451
12.1084
0.010426
855.953
5.27519
0.00527572
855.193
5.72165
-0.00716482
854.964
2.16032
-0.0196535
1.42804
-0.0157598
-427.655
-189.391
-326.248
197.177
90.4044
-256.597
481.717
152.243
-63.2577
657.903
91.3698
3.25626
839.971
31.7652
-47.3372
831.828
182.941
-8.20224
896.664
-3.54057
-20.4475
875.647
139.54
-2.6474
881.483
17.986
-2.78252
868.345
87.16
-0.285262
868.822
15.224
-0.214438
862.796
48.9212
-0.00727631
862.905
10.6344
-0.0196443
859.37
26.9325
0.00167549
858.926
8.23921
-0.0133575
857.448
13.583
0.00414331
856.187
6.56038
-0.0243352
855.28
6.65162
-0.0236201
854.737
2.69702
0.00720936
1.72758
0.00357777
1861.76
2307.61
685.469
951.07
1050.24
-49.1424
305.912
422.081
375.32
357.263
57.8632
-17.8451
533.688
-217.993
73.3341
582.835
120.021
13.772
795.296
-218.722
2.72048
781.537
151.955
1.34437
831.055
-31.6088
0.0763285
831.309
86.6403
0.26653
846.109
0.38665
0.0366979
846.592
48.3463
0.0920257
852.016
5.1718
0.0388703
850.734
28.1767
0.0375141
851.017
7.96852
-0.0121505
851.779
12.8343
-0.0137187
851.527
6.82923
-0.0162934
851.26
6.92822
-0.0102234
850.801
3.13279
0.0238865
1.59777
0.01057
1457.41
1139.1
-1570.08
2052.95
1108.92
-654.223
1881.35
574.953
18.7338
1447.32
118.987
372.904
1088.79
-110.283
250.817
906.428
248.368
54.0193
833.311
-3.86733
17.5036
-77.2103
-3.56055
-78.4704
796.247
22.7116
0.69621
71.9416
20.6939
72.9751
820.42
9.75556
-0.622764
-38.3561
10.8279
-37.3864
828.245
5.87232
-0.50938
33.7488
5.99565
33.7081
844.762
6.16367
-0.448788
-14.0332
6.11501
-13.927
845.342
6.89677
-0.217202
17.0788
6.89847
17.1091
851.436
4.14117
-0.151402
-4.4856
4.0839
-4.50942
848.458
5.80376
-0.0964107
9.86453
5.81643
9.76596
850.695
5.70912
0.0224882
851.715
11.8001
0.0140565
850.595
7.94321
0.00667292
849.81
7.69671
0.0155982
849.794
3.11778
0.0317269
1.56347
0.0059964
1864.26
-502.035
686.079
2315.76
399.187
258.236
1637.55
296.196
956.966
1268.62
88.8001
399.114
876.064
-93.9932
376.268
198.108
51.8804
50.6654
198.552
198.74
199.631
103.696
36.6382
86.5209
170.748
15.9085
7.58352
-128.334
157.499
-5.42134
-1.03191
-193.29
198.226
4.7229
0.0973495
-186.46
196.976
-4.24369
-0.399438
-209.524
211.214
4.644
-0.17049
-202.391
207.832
1.61701
-0.160804
-211.7
212.523
3.35199
-0.0339804
-207.321
210.713
2.4055
0.00560488
845.143
2.53293
-0.23909
-211.293
-211.112
-212.28
-211.947
1.19914
2.56444
1.14166
848.386
8.69885
-0.141311
847.574
8.84496
-0.0900669
847.624
7.62227
0.0240159
846.397
4.25881
0.0857219
1.64553
0.0376654
2541.86
-413.938
-587.986
2720.27
498.124
-277.352
1908.56
652.443
455.468
1376.73
252.03
368.594
228.365
107.708
233.433
211.745
253.104
248.386
222.436
57.7208
0.0880513
-9.71407
-61.7597
56.4867
13.6407
1.34633
-48.8602
3.81795
49.4721
-3.96965
-0.460169
-52.5727
0.986501
53.221
-1.26557
-0.369229
-50.3561
0.227905
51.1516
-0.912955
-0.110532
-52.2418
-1.18039
52.6664
0.742435
0.0134101
-51.3477
-0.825919
51.7876
0.413508
-0.0274752
-52.1927
-1.10351
52.4829
0.801915
0.0113372
-51.7642
-0.865857
52.1068
0.543932
-0.0206299
-52.3299
211.517
1.69444
0.0517264
-52.5101
-52.8251
-53.0656
840.066
8.12564
-0.549026
-209.377
-208.932
-210.631
-210.003
842.629
6.59684
-0.314451
844.538
5.76644
-0.0533977
845.677
3.00169
0.117617
1.45998
0.0718632
702.281
-362.786
-1126.98
1215.81
150.587
-165.995
987.749
191.641
688.865
875.019
59.8844
304.876
139.644
57.6413
318.304
122.444
178.579
166.114
-55.0603
150.512
17.5471
26.6452
-9.6925
-43.6745
44.9883
6.35087
2.02787
-1.79978
-49.7485
51.0659
1.29851
-0.816225
-0.624993
-53.364
53.5009
0.724395
-0.236218
-0.520508
-53.132
52.9211
0.765103
-0.0336578
-0.975524
-52.6197
52.5361
1.05298
0.00608856
-1.06452
-52.3713
52.281
1.11721
0.0375518
-1.01348
-52.2715
52.2363
1.05568
-0.00702776
-0.961033
-52.3358
52.3432
0.9341
0.0195295
-52.414
-3.3152
210.751
3.19967
0.0705409
-52.4692
-52.8217
-53.0006
840.936
10.8748
-0.157906
-210.475
-210.375
-211.318
-211.358
840.94
6.80154
-0.208493
841.647
5.14658
-0.0880263
841.987
2.63278
0.0297173
1.22715
0.0220471
245.598
-241.839
683.522
290.298
-118.308
224.196
877.697
-47.0904
-348.667
770.277
32.132
135.172
172.784
11.657
19.389
218.608
179.805
225.677
15.7153
164.476
-1.27454
-6.13279
0.992095
-46.1992
47.1556
-1.77577
-0.172763
-0.935579
-51.8345
53.0602
0.651639
-0.941712
-1.41685
-54.0669
54.2328
1.76994
-0.519032
-1.50235
-53.9658
53.7698
1.72223
-0.0239192
-1.3897
-53.1972
53.0356
1.5378
0.013414
-1.25286
-52.8417
52.7769
1.34991
-0.0322019
-1.16948
-52.5246
52.5332
1.23574
-0.0748341
-1.0609
-52.5326
52.5059
1.03291
0.054722
-52.2183
-3.47138
209.967
3.72916
-0.229704
-52.2177
-52.7552
-52.8043
836.937
12.912
-0.00805189
-209.843
-208.897
-210.589
-209.638
837.66
6.21019
-0.130651
839.295
3.5873
-0.0758371
840.273
1.64333
0.0115877
0.882909
0.0147812
148.723
851.862
-836.721
297.565
310.785
-577.934
530.463
458.672
-738.661
502.459
292.946
-232.81
137.465
163.743
-239.169
147.003
150.025
155.048
-2.79208
168.629
-18.739
-9.6329
4.55553
-53.9756
55.2141
-5.72827
-0.0657248
-1.14355
-56.0201
56.0138
2.37334
-1.22346
-2.84769
-55.2987
54.7143
3.5925
-0.160434
-2.55515
-53.4775
53.0363
3.01566
-0.0193196
-1.89481
-52.7854
52.628
2.04378
0.00843703
-1.62657
-52.4128
52.1648
1.854
0.0205541
-1.38104
-52.0838
51.9683
1.49286
0.00367501
-1.24357
-52.0402
51.9544
1.33477
-0.00539508
-52.1701
-3.90969
208.602
5.09949
0.00203245
-52.2935
-52.6317
-52.6983
832.014
9.53229
-0.441322
-207.341
-205.8
-208.361
-206.691
834.967
3.43231
-0.17493
836.825
1.74235
-0.0135688
837.925
0.426086
0.117298
0.635545
0.0723263
2031.55
1662.15
1258.31
1406.34
1121.94
-185.948
1005.33
1268.04
-408.349
1086.8
730.648
-519.176
1085.34
460.05
-294.847
235.961
-32.031
-104.113
40.9514
94.1599
43.4866
92.8335
237.931
235.636
240.526
10.9856
209.522
-8.31047
5.85653
1.3594
12.8033
3.74474
-4.84473
-186.809
187.731
15.4149
2.72854
-5.00976
-4.44185
-4.76892
-3.24256
-205.631
215.249
3.5692
0.615247
-3.71161
-3.0926
-3.75543
-3.57102
-207.123
205.173
15.6859
0.251747
-3.43314
-3.55938
-3.42381
-2.07094
-210.765
213.281
7.0415
-0.0211091
-2.68377
-2.02687
-2.75464
-2.04392
-208.282
207.483
9.13745
0.0413801
-2.17747
-2.01944
-2.13843
-1.58248
-209.406
210.406
6.18642
-0.0214974
-2.01415
-1.52579
-2.04307
-1.3844
-207.522
207.847
5.6639
0.155553
-1.70284
-1.36177
-1.6952
835.047
15.242
-0.376817
-4.92352
-5.91394
-4.92421
-6.10313
-207.621
-205.524
-208.627
-206.275
837.427
7.32991
-0.177528
836.902
3.98417
-0.0263894
836.721
1.87145
0.0516225
835.686
1.39955
0.061114
0.65669
0.024806
114.598
2600.21
-2263.38
453.081
1491.97
-708.514
927.565
1545.44
-751.89
1261.88
1019.03
-622.696
1308.32
375.901
37.7113
1184.88
-1.48044
92.8868
979.495
134.49
197.722
-13.4128
-49.2777
-14.9092
-49.2226
895.261
-17.1925
72.3344
-6.05724
20.9825
-5.53079
19.6975
847.509
78.5138
35.2261
-5.07799
-27.3709
-6.35132
-27.1874
844.057
5.68349
8.89423
-10.5434
4.78953
-10.2934
4.92096
838.641
50.4491
3.03288
-7.561
-16.403
-7.71189
-16.3899
838.653
13.0297
0.75307
-6.6868
-0.183269
-6.71371
-0.211301
838.956
32.967
0.150301
-6.29799
-10.3552
-6.3975
-10.3691
838.75
12.4693
-0.116745
-4.33724
-1.52631
-4.36717
-1.91569
837.251
16.7082
0.0319257
836.954
7.63093
-0.00352665
835.078
5.8542
0.00620575
833.954
2.99902
-0.00442307
833.715
1.67457
-0.0352543
0.651661
-0.0299381
319.689
1216.43
-1072.6
1839.54
720.169
-748.047
2520.95
931.168
-67.139
2734.2
632.62
173.165
1886.46
335.122
888.516
1327.15
68.7052
489.122
1060.99
195.553
205.096
931.886
47.5998
64.3145
876.611
109.688
24.1005
848.342
27.7774
6.17454
838.627
58.0457
2.11865
833.18
17.9518
0.52505
833.387
32.5877
0.171689
833.873
11.9351
0.0485992
833.736
16.8531
-0.00767391
834.091
7.28793
-0.0117574
833.038
6.91557
-0.00872468
832.839
3.22174
-0.0235676
832.268
2.30113
-0.0563292
0.665183
-0.042798
1301.16
568.573
286.679
2043.79
94.575
-117.044
1695.31
-100.973
1380.63
1641.07
-112.118
798.978
1102.38
179.749
694.058
935.354
53.8688
181.862
844.021
190.116
96.7705
825.129
44.1873
22.3047
821.17
102.355
11.2917
819.711
26.5299
2.70672
823.42
53.1595
1.17695
823.911
17.1527
0.307581
827.325
29.0671
0.106846
827.647
11.5844
0.0293443
829.383
15.1122
0.00416976
829.971
6.69691
0.00386761
829.993
6.89449
-0.00172532
830.049
3.18502
-0.0188773
830.109
2.29955
-0.0589345
0.664017
-0.0467325
2422.12
224.078
-1879.33
1671.32
-188.723
1034.1
990.336
-626.312
1206.32
1004.85
-487.124
360.49
846.491
-149.864
487.973
847.651
-57.4078
110.117
827.135
124.297
86.3354
811.968
43.3106
16.0438
815.594
89.3482
9.38125
811.435
29.0729
1.61513
816.885
46.897
0.813329
817.256
16.6126
0.169056
821.487
24.7742
0.0615768
823.114
9.93773
0.0199039
825.41
12.8176
-0.0016024
826.313
5.79444
-0.00111969
827.09
6.12195
-0.00389562
827.782
2.50835
-0.0154055
828.234
1.90077
-0.0532469
0.492745
-0.0459772
797.86
383.225
213.698
612.772
0.258316
-3.89345
906.286
-564.715
-355.112
885.369
-309.33
-156.877
794.111
-178.538
119.933
780.789
-43.4004
-0.685586
761.158
75.9215
68.0062
765.107
27.5238
11.8373
783.84
60.8892
9.72668
791.321
19.9052
1.68642
804.428
32.9513
0.838639
808.891
11.9668
0.182814
816.01
17.592
0.0626568
818.568
7.35666
0.023135
822.254
9.13393
-0.00221855
823.835
4.20965
0.00408446
825.492
4.46536
-0.000621102
826.127
1.88144
-0.00859763
826.66
1.41803
-0.0494692
0.336994
-0.0450684
1515.72
-407.172
-2700.32
1310.14
224.041
-18.2039
990.718
32.7575
-278.048
848.53
22.1161
-189.259
697.326
17.3376
-44.6713
691.614
17.1566
-54.8449
730.144
45.9343
-8.54256
742.768
19.3135
-4.41478
773.258
30.5406
-0.141491
782.159
11.1049
-0.100613
798.085
16.9542
0.071239
803.665
6.35036
0.0364571
812.201
9.04924
0.00705819
815.842
3.70238
0.0135501
820.293
4.68576
-0.00348894
822.316
2.1833
0.00345204
824.335
2.45374
-0.00749792
825.156
1.07006
-0.00971452
825.757
0.863206
-0.0455051
0.229769
-0.0441192
1152.82
-663.559
1098.35
278.513
808.307
322.801
724.735
105.688
651.868
90.2047
674.507
-5.48169
716.97
3.47138
736.259
0.024024
766.193
0.606281
777.126
0.172276
793.935
0.144749
800.217
0.0683676
809.249
0.0181719
812.931
0.0194085
817.618
-0.000867714
819.795
0.00638831
822.253
-0.0047629
823.332
-0.00899637
824.241
-0.0456695
-0.0452001
1857.11
-62.0107
-1990.2
2604.04
-394.565
-510.968
2691.98
-420.991
77.142
2414.09
-190.591
237.78
1744.59
118.208
461.754
1340.54
139.67
265.559
1133.58
159.291
260.58
1028.7
102.703
165.592
960.775
66.7967
89.8364
923.012
37.7033
27.3117
902.489
19.6216
9.85766
886.751
15.4431
2.27666
879.548
7.04215
0.774178
872.011
7.49822
0.174732
868.583
3.408
0.0553671
864.681
3.90256
0.0202533
862.806
1.87812
0.00640951
860.953
1.852
-0.00357512
860.232
0.708391
-0.0259883
0.491802
-0.01705
1784.45
9.09866
2048.65
1189.14
-428.786
327.59
650.508
-179.917
11.2003
643.577
57.9274
-432.288
790.463
154.736
-365.265
822.059
155.918
-137.277
886.483
123.711
-39.5314
885.085
108.452
11.8255
901.314
52.1313
9.83657
886.936
51.724
4.30587
887.031
19.2412
1.85591
876.198
26.1522
0.548995
874.184
8.9894
0.200296
867.966
13.6992
0.0588527
866.156
5.21019
0.0181973
862.87
7.18978
0.0117078
861.631
3.11727
0.0026935
860.099
3.38273
-0.00442694
859.668
1.13299
-0.0177738
0.833326
-0.0111642
2734.45
-141.317
1949.34
1751.3
113.461
61.6839
1176.14
147.334
-216.288
1072.58
217.884
-207.454
1014.5
268.652
-153.162
975.622
225.187
-43.5557
959.35
147.463
3.23462
934.239
133.587
11.0669
920.447
63.6217
9.03081
900.681
70.5005
3.36238
891.836
27.4719
1.65863
880.465
37.3532
0.457953
875.806
13.5678
0.175713
869.705
19.783
0.046715
867.049
7.85687
0.0102844
863.943
10.2969
0.0101265
862.268
4.78735
-0.0106163
860.693
4.95349
-0.0115213
859.909
1.91549
-0.00766593
1.30239
-0.00766819
272.946
584.795
3514.25
297.444
195.733
-691.86
359.067
320.214
-616.684
466.85
275.335
-214.778
660.895
191.676
-195.171
709.719
180.541
-11.75
806.387
45.0454
-2.56239
818.69
117.757
4.68969
858.712
21.4129
2.95941
854.738
73.7994
1.25701
866.413
15.533
0.557283
860.821
42.8806
0.179601
863.605
10.7536
0.0541575
859.987
23.3954
0.0170296
860.049
7.79064
0.00309232
858.247
12.1017
0.00825822
857.759
5.27654
0.00368635
856.991
5.71998
-0.00521812
856.736
2.16472
-0.0141765
1.43193
-0.00708442
319.831
987.387
3606.01
199.81
138.55
-79.3924
495.937
127.109
-166.28
669.538
108.532
-3.54102
854.895
72.4203
-113.439
845.928
193.157
-11.8513
903.107
5.07458
-37.6548
880.856
140.994
-3.63426
884.188
18.7468
-3.44868
870.657
87.2252
-0.1799
870.794
15.2984
-0.116613
864.735
48.9037
0.0290365
864.806
10.6583
0.0045523
861.275
26.9203
0.00749266
860.81
8.25055
-0.00804023
859.334
13.5803
0.00207772
858.038
6.56594
-0.017793
857.096
6.65485
-0.0170426
856.562
2.70213
0.00371332
1.73057
0.00633718
773.417
1850.79
3225.69
302.605
484.581
75.6378
327.193
158.221
319.621
341.158
-19.1525
95.874
563.235
-195.027
118.704
596.013
122.331
51.8201
799.959
-212.523
16.3718
784.671
151.753
5.87372
833.047
-30.9082
1.35544
833.17
86.7812
0.587197
847.871
0.506975
0.127181
848.366
48.4283
0.0725322
853.796
5.24248
0.0246808
852.532
28.211
0.01112
852.807
7.9731
-0.00986375
853.578
12.8014
-0.00601136
853.322
6.81507
-0.00933851
853.042
6.93097
-0.00678869
852.616
3.13819
0.0144942
1.59962
0.0109862
717.778
84.4131
-1600.05
980.028
365.527
-797.419
1120.08
283.315
-246.413
1146.56
-0.728769
328.001
1051.02
-108.845
260.171
908.786
256.602
61.9856
839.358
0.361612
23.6901
-75.0918
0.331822
-74.8823
800.311
21.5591
5.06696
71.546
21.7447
71.5791
822.75
10.015
1.4528
-37.7302
10.0173
-37.7255
830.362
5.85566
0.146793
33.396
5.86051
33.4017
846.434
5.95566
-0.0212929
-13.9581
5.96063
-13.9509
847.065
6.89271
-0.0546608
16.9211
6.89551
16.9247
853.147
4.03443
-0.0437682
-4.51204
4.03883
-4.50759
850.303
5.81108
-0.0315417
9.68017
5.81665
9.68177
852.566
5.73519
-0.00225521
853.598
11.7847
-0.00166496
852.45
7.97367
-0.00336366
851.653
7.7387
0.00402873
851.662
3.1421
0.018767
1.57278
0.00909089
1153.34
357.042
1363.39
893.065
299.584
584.458
767.5
-1.14878
1367
774.473
-77.4548
468.867
815.937
-135.229
361.187
200.966
38.7514
54.733
201.515
200.963
201.489
92.2327
39.6777
92.8772
-9.71456
179.487
21.3892
10.1663
1.36048
-137.294
161.559
-4.97871
0.912306
-1.20081
-195.483
200.699
4.94652
1.05306
0.507257
-189.241
199.106
-4.27088
-0.245841
-0.410054
-211.236
212.889
4.44853
0.264661
0.158015
-204.084
209.309
1.60423
-0.0949261
-0.105543
-213.045
213.856
3.26423
0.0638318
0.00485762
-208.62
212.013
2.4253
-0.0118244
847.144
2.572
-0.109321
-212.394
-212.139
-212.386
-212.138
1.18111
2.58173
1.1831
850.109
8.7399
-0.0618411
849.185
8.85042
-0.0424065
849.292
7.64235
0.0133457
848.211
4.26715
0.0414747
1.6491
0.0208401
1967.93
294.489
998.298
1525.99
-133.294
597.464
1139.21
149.063
692.042
1022.66
16.2493
391.435
230.733
62.7289
148.086
223.701
231.468
224.152
-6.14322
239.916
34.5422
1.1689
0.347659
-9.38644
-66.2778
61.4384
14.4735
-0.595301
1.33873
-55.2306
2.32805
55.1054
-2.2306
-1.31103
0.308968
-54.7125
0.73308
54.8859
-0.911833
-0.303572
0.0764521
-51.3635
0.281689
52.0352
-0.96329
-0.0665576
-0.0252855
-52.9399
-1.18183
53.3967
0.735066
0.015205
0.0115789
-52.0289
-0.818247
52.4299
0.4131
-0.00739397
-0.0143144
-52.8128
-1.11288
53.1253
0.805188
0.00951608
0.00913725
-52.3983
-0.875117
52.7176
0.551194
-0.00454678
-52.9178
-0.0415229
213.076
1.66856
0.0130085
-53.1581
-52.915
-53.1536
842.209
8.10558
-0.23822
-210.834
-210.129
-210.818
-210.104
844.284
6.60179
-0.140745
846.081
5.81611
-0.0244126
847.388
3.02191
0.0560672
1.46094
0.0350478
-339.535
-93.6832
-243.729
88.7058
-711.506
-16.0231
522.191
-68.2197
472.662
512.259
8.7936
322.263
160.039
46.5967
236.989
146.804
157.271
145.592
-31.9064
-46.6617
179.991
27.1895
31.4271
-2.88821
-9.7871
-50.4309
51.2801
8.88867
2.93742
0.11935
-2.90054
-53.0892
53.5924
2.16822
0.109787
0.18799
-0.784994
-54.5604
54.4517
0.87195
-0.166231
0.0503107
-0.489691
-53.7081
53.4213
0.728668
-0.00250366
0.031232
-0.968625
-53.0049
52.9548
1.0598
-0.0723047
-0.0579114
-1.1099
-52.8615
52.8369
1.18247
0.0100148
-0.0692864
-1.013
-53.0336
53
1.03877
0.0771207
0.00220238
-0.941774
-52.8947
52.8768
0.939394
0.0180108
-52.8639
-0.0975031
-3.2188
211.901
3.2194
0.0875431
-53.0961
-52.8522
-53.0798
843.185
10.8599
-0.051811
-211.537
-211.536
-211.501
-211.471
842.869
6.8089
-0.0999001
843.475
5.17584
-0.0533361
843.867
2.6511
0.00879406
1.22918
0.0123355
3421.61
73.5118
1072.67
1980.11
-179.203
1133.39
1036.55
58.8326
467.842
821.019
90.4171
269.077
174.215
28.751
59.8309
224.38
175.203
224.626
6.9037
5.09191
166.318
2.26614
-6.36496
1.2405
0.0617222
-47.367
49.0969
-1.56875
-1.4634
0.827582
-0.912502
-55.2247
56.0809
0.0984934
-0.869769
0.238025
-1.28201
-55.7712
55.3696
1.6166
-0.170946
0.00336393
-1.49409
-54.3626
53.889
1.65105
0.313328
-0.122347
-1.40291
-53.0962
53.024
1.48638
0.111005
0.216157
-1.11403
-53.2622
53.2593
1.1895
-0.288675
0.095905
-1.1755
-52.8996
52.8082
1.28171
-0.110722
-0.034221
-1.10035
-53.074
53.1629
1.09608
-0.0503836
-52.8354
0.105424
-3.44825
210.961
3.78452
0.0153431
-52.9647
-52.7519
-52.8663
839.055
12.883
-0.01292
-210.747
-209.821
-210.752
-209.753
839.567
6.21731
-0.0507956
841.119
3.57822
-0.0308441
842.137
1.63832
0.00659544
0.881307
0.00950636
2048.8
2711.04
-392.9
1342.49
562.692
-613.518
788.028
629.232
-754.603
767.32
315.17
-436.855
163.931
247.612
-358.987
168.39
164.941
171.016
16.5526
-7.60797
192.134
-10.7074
-26.4402
1.78102
4.86267
-59.5781
61.6175
-6.05519
-2.62792
0.320577
0.404463
-59.7235
58.5826
0.474776
-0.0589027
-0.102497
-2.73624
-56.3561
55.5542
3.47827
0.162323
-0.0150585
-2.56381
-54.0626
53.5987
3.00209
0.040712
-0.0257722
-1.86734
-53.3161
53.1589
2.03491
0.0154147
-0.0784057
-1.60075
-52.9778
52.7429
1.83438
0.0796477
-0.0298674
-1.40322
-52.717
52.6242
1.49191
0.0340024
0.0608982
-1.22086
-52.6782
52.5656
1.33243
-0.0598049
-52.7126
0.0129357
-3.94258
209.788
5.12408
-0.00882368
-52.7703
-52.7215
-52.7695
833.803
9.51939
-0.189532
-208.509
-206.846
-208.497
-206.839
836.477
3.44837
-0.0806596
838.328
1.72585
-0.0124664
839.637
0.403793
0.0430778
0.622423
0.0298028
701.82
1631.39
-1229.81
425.437
1036.52
-383.396
950.257
1096.18
-1400.12
1085.52
543.306
-882.575
1057.8
402.096
-421.614
233.21
-43.5923
-146.61
28.9393
75.7278
25.5149
73.4605
236.816
233.285
236.939
9.03026
-9.56169
211.261
7.59404
6.70945
-0.373366
8.9611
-0.410909
-5.41787
-4.12207
-190.078
190.853
18.6062
6.16644
-5.28224
-5.43159
-5.29429
-3.23695
-0.950154
-207.561
215.977
4.68141
1.9275
-3.80222
-3.23567
-3.80012
-3.57797
-0.83627
-207.954
206.212
15.6602
0.93987
-3.43455
-3.57578
-3.43376
-2.06388
-0.166124
-211.778
214.193
7.17798
0.221951
-2.76018
-2.06446
-2.76007
-2.0213
-0.0808857
-209.269
208.536
9.1443
0.0722911
-2.1796
-2.02201
-2.18012
-1.55202
0.005413
-210.426
211.404
6.2121
0.010619
-2.05074
-1.5527
-2.05043
-1.36463
-0.117601
-208.492
209.074
5.63507
0.0650324
-1.71814
-1.36423
-1.71764
836.949
15.2345
-0.153837
-4.90569
-6.04788
-4.89811
-6.04635
-208.811
-206.454
-208.798
-206.445
839.013
7.36565
-0.0875418
838.494
3.95923
-0.0186307
838.44
1.81563
0.0160667
837.532
1.35429
0.0186711
0.635522
0.0116862
-132.763
1809.5
-2599.32
232.712
785.598
-823.065
499.056
973.909
-895.96
674.652
321.209
-576.194
852.34
114.368
147.751
833.184
-55.5577
124.008
848.504
148.261
202.181
-27.2002
-56.7997
-27.2926
-56.7473
846.57
-17.2826
68.3195
-8.71738
20.1271
-8.50379
20.3262
835.794
80.3105
35.8648
-7.05656
-28.07
-6.98099
-28.0657
841.778
5.89307
8.90741
-10.645
4.68832
-10.6255
4.69164
839.464
50.4319
3.50011
-7.84543
-16.4451
-7.84766
-16.4466
840.336
13.0237
0.826348
-6.75016
-0.234831
-6.74757
-0.236551
840.789
32.9116
0.259774
-6.37835
-10.3571
-6.38025
-10.3583
840.706
12.4611
0.00533566
-4.37066
-1.87961
-4.36614
-1.88362
839.227
16.7178
0.0272141
838.937
7.65062
0.00186203
837.052
5.84924
0.00062928
835.885
2.98651
-0.00842377
835.575
1.65996
-0.0309608
0.644059
-0.0183485
-473.449
979.03
-1543.35
848.472
-323.936
-960.434
1246.73
150.324
358.193
1420.33
-74.2981
395.064
1174.39
168.72
1080.11
1054.58
36.5366
516.835
967.683
201.898
238.358
900.647
45.4108
68.6571
869.769
108.907
26.3823
847.781
27.3977
6.65705
840.04
57.9164
2.37575
835.054
17.9483
0.58619
835.369
32.5718
0.196728
835.874
11.9542
0.0495952
835.734
16.8464
0.00374515
836.084
7.29136
-0.00240663
835.018
6.9105
-0.00384598
834.783
3.21506
-0.0168597
834.134
2.29419
-0.0420564
0.661857
-0.0245795
-378.147
332.873
-1442.79
535.297
-670.982
-683.443
799.895
-309.853
1576.21
967.786
-178.827
735.615
840.505
240.651
749.41
823.046
51.0225
184.835
814.815
196.063
110.837
814.827
41.9536
25.7499
819.764
101.826
13.4357
820.454
26.2804
3.13372
825.045
53.0886
1.41388
825.786
17.1677
0.347269
829.272
29.0564
0.135262
829.623
11.5959
0.0367535
831.356
15.1085
0.00907092
831.949
6.69994
0.00316034
831.969
6.89164
-0.00300318
831.997
3.18305
-0.0148375
831.979
2.29739
-0.0443879
0.662551
-0.0277785
-288.222
11.0246
-4549.37
-268.049
-497.85
840.795
355.084
-488.294
761.629
535.569
-187.882
189.06
719.033
100.209
444.952
755.621
25.295
99.257
806.183
150.077
81.7587
802.988
45.9967
15.1961
815.07
89.3831
9.74245
812.452
28.9145
1.59925
818.646
46.8228
0.885586
819.19
16.6298
0.162329
823.466
24.7731
0.0691738
825.111
9.95326
0.0177173
827.398
12.8187
0.00126349
828.298
5.79885
-0.000681218
829.068
6.12171
-0.00350086
829.74
2.50739
-0.0116603
830.123
1.90135
-0.0402545
0.492825
-0.027013
-396.976
-199.333
1270.53
-13.8957
-387.674
-497.149
385.593
-619.089
-623.804
332.155
-116
-175.322
628.883
-34.9795
-41.6073
638.189
14.5737
0.730107
729.496
89.1805
37.5958
750.056
29.3957
7.87782
782.219
60.1552
6.79151
791.925
19.6961
1.19941
806.058
32.8325
0.695452
810.755
11.9687
0.146553
817.943
17.5875
0.0606575
820.532
7.36789
0.0195506
824.213
9.13444
0.00041812
825.801
4.21275
0.00285009
827.458
4.46475
-0.00130715
828.084
1.87996
-0.00674482
828.554
1.41903
-0.0377171
0.337391
-0.0264455
1797.29
-880.572
-594.579
1225.52
-118.666
284.558
612.299
-118.322
-165.592
594.92
-12.4186
-275.461
671.174
9.58874
-165.494
673.561
17.8231
-60.4812
732.258
42.4437
-20.5021
744.047
18.6478
-5.45611
775.16
29.9169
-1.01592
784.026
11.0098
-0.281218
799.996
16.9076
0.0260697
805.626
6.35851
0.0173153
814.163
9.04981
0.00729262
817.825
3.70972
0.00977883
822.271
4.68664
-0.00185646
824.3
2.18548
0.00221347
826.309
2.4536
-0.00599997
827.117
1.07041
-0.00739639
827.662
0.863297
-0.035171
0.229724
-0.0259799
1271.41
2411.52
721.374
709.887
399.583
526.27
467.626
25.2268
638.165
-70.7461
662.197
-11.6898
718.855
-10.7437
737.469
0.0581126
767.977
0.0146876
778.93
0.228893
795.844
0.138539
802.21
0.0613739
811.257
0.0203785
814.97
0.0161914
819.655
0.00084813
821.842
0.00466271
824.295
-0.00386858
825.363
-0.00675297
826.216
-0.0353575
-0.0265329
1129.49
-780.136
-2297.44
1125.54
-413.107
-93.912
1380.97
-457.268
278.987
1275.99
-28.1464
370.902
1118.03
214.634
405.08
1051.53
187.735
144.319
1010.11
173.22
128.786
980.902
99.6008
95.1959
948.108
63.2722
59.3578
919.163
36.6041
19.6533
901.585
19.2479
8.18729
886.468
15.3674
2.02605
879.477
7.01485
0.750103
871.987
7.49339
0.171679
868.578
3.40659
0.0581749
864.678
3.90288
0.0175034
862.801
1.8786
0.0039127
860.948
1.85249
-0.00269168
860.228
0.708343
-0.013963
0.491791
-0.00813526
1425.21
-864.082
921.642
1115.87
-364.13
587.955
680.125
-286.982
276.655
653.936
-71.9959
-362.249
778.133
116.709
-391.538
820.849
145.368
-137.626
885.05
117.444
-47.9556
885.521
103.085
7.86945
900.877
49.505
8.24863
886.727
50.925
4.13392
886.912
19.0006
1.91867
876.148
26.1001
0.580379
874.165
8.97328
0.224902
867.959
13.696
0.0629882
866.154
5.20921
0.0207326
862.869
7.18994
0.00935703
861.631
3.11751
0.00189769
860.099
3.38302
-0.00266718
859.666
1.13294
-0.0102656
0.83326
-0.00569505
1193.67
-46.9887
150.727
1073.66
195.879
-378.317
1034.78
-48.8829
-415.51
1018.55
24.791
-288.011
993.427
150.676
-162.002
962.164
179.557
-46.4824
952.681
131.223
-1.06042
929.893
127.324
9.61576
918.695
61.614
8.11937
899.865
69.9215
3.19611
891.601
27.3203
1.60283
880.38
37.3214
0.457751
875.786
13.5596
0.184025
869.698
19.7817
0.048927
867.047
7.85642
0.0139046
863.943
10.2968
0.00771785
862.268
4.78728
-0.00610312
860.693
4.95352
-0.00669755
859.908
1.91566
-0.00452097
1.30253
-0.00376505
133.649
930.338
3540.05
164.34
205.659
-732.331
397.428
70.2128
-968.867
470.585
96.8968
-360.042
658.047
90.314
-322.271
702.213
141.036
-17.3958
804.456
37.0642
-10.646
817.384
114.034
5.05209
858.335
20.5019
3.12073
854.568
73.535
1.40963
866.372
15.4622
0.611826
860.806
42.867
0.200221
863.602
10.7493
0.0680394
859.986
23.3938
0.021016
860.05
7.79095
0.00477631
858.247
12.1025
0.00533474
857.759
5.27685
0.00183184
856.991
5.72022
-0.0032174
856.735
2.16488
-0.00761947
1.43209
-0.0028492
519.448
1214.84
650.978
591.104
9.52356
45.087
693.903
-8.8438
-190.023
782.649
25.5477
-20.9381
872.236
22.1472
-134.859
849.276
172.205
-20.06
901.255
-2.4868
-50.0823
878.729
139.416
-6.49093
883.447
18.3198
-5.98359
870.26
87.1655
-0.623671
870.682
15.2827
-0.359879
864.687
48.9073
-0.0156441
864.793
10.6592
-0.0118496
861.27
26.9221
0.00295335
860.808
8.25086
-0.00636167
859.333
13.58
-0.000123346
858.038
6.56619
-0.0118665
857.096
6.65571
-0.0109505
856.56
2.70272
0.00147983
1.73098
0.00427725
-574.933
1199.17
273.686
67.4716
-197.324
-359.919
267.845
-168.104
278.507
327.07
-62.6176
124.815
530.864
-177.656
114.713
580.045
126.715
48.1295
795.447
-215.918
14.4006
782.615
152.823
5.29956
832.447
-30.882
0.725061
832.949
86.8915
0.359289
847.817
0.519604
0.0219709
848.349
48.4422
0.00573858
853.795
5.24778
-0.0101207
852.536
28.208
-0.0160765
852.813
7.97781
-0.0136434
853.581
12.8081
-0.00227921
853.323
6.81928
-0.00408635
853.043
6.93238
-0.0035815
852.614
3.13836
0.00799232
1.59954
0.00719509
1107.01
-1111.42
-1536.45
1012.04
-273.419
-626.356
937.619
30.4137
-370.51
1019.44
0.388285
183.17
1008.17
-74.8122
168.598
883.137
271.432
42.3046
830.845
-1.11693
17.6923
-77.7074
-1.11894
-77.6847
796.615
22.0953
3.95693
71.9576
22.1594
71.9503
821.652
10.0297
1.08431
-37.8082
10.0325
-37.8038
829.963
5.84321
0.196673
33.4235
5.84241
33.4204
846.315
5.9594
0.157809
-13.9639
5.95835
-13.9645
847.027
6.88993
0.0462681
16.9246
6.88962
16.9245
853.122
4.03758
0.0536687
-4.50948
4.03727
-4.51011
850.284
5.81419
0.0206253
9.68357
5.8139
9.68209
852.544
5.73247
-0.0163308
853.572
11.8
-0.0220555
852.427
7.99274
-0.0319807
851.639
7.7448
-0.0198436
851.654
3.14085
0.00101005
1.57138
0.00292405
917.26
-688.379
3577.3
535.878
197.371
495.05
532.77
13.3656
1387.15
641.933
24.9634
335.129
768.568
-76.7679
236.508
190.882
46.1065
43.7823
192.155
190.775
191.965
96.2983
46.2624
96.5066
-10.4404
173.343
20.382
6.48064
-2.87332
-133.227
159.94
-4.71305
2.96885
-0.95085
-194.955
200.406
4.88256
0.646337
0.0128146
-189.052
199.05
-4.27986
0.112428
-0.133681
-211.257
212.881
4.43747
0.0318931
0.0395066
-204.068
209.316
1.60481
-0.0018385
-0.0287733
-213.055
213.856
3.261
0.00494273
0.0050628
-208.614
212.004
2.42634
-0.00714369
847.154
2.58082
0.0123996
-212.394
-212.146
-212.391
-212.144
1.18411
2.58252
1.18353
850.102
8.74446
0.0458385
849.18
8.8662
0.00674537
849.295
7.65067
-0.00814451
848.218
4.2681
-0.00811591
1.64942
-0.00315468
1549.21
-484.92
-507.201
1272.09
252.083
819.871
1114.45
278.645
584.407
1112.5
166.469
251.879
253.784
150.394
33.662
246.063
253.75
246.161
2.30668
254.131
42.1066
1.34563
0.428906
-10.0092
-67.4918
62.4077
15.3037
-0.639358
1.20733
-56.3718
2.31378
55.9177
-2.18582
-0.881214
0.257489
-54.8683
0.787202
54.9725
-0.967228
-0.181664
0.0306667
-51.3814
0.279999
52.0498
-0.959607
-0.0194614