/*--------------------------------*- C++ -*----------------------------------*\
  =========                 |
  \\      /  F ield         | OpenFOAM: The Open Source CFD Toolbox
   \\    /   O peration     | Website:  https://openfoam.org
    \\  /    A nd           | Version:  10
     \\/     M anipulation  |
\*---------------------------------------------------------------------------*/
FoamFile
{
    format      ascii;
    class       volScalarField;
    location    "0.2";
    object      turbidity_0;
}
// * * * * * * * * * * * * * * * * * * * * * * * * * * * * * * * * * * * * * //

dimensions      [0 0 0 0 0 0 0];

internalField   nonuniform List<scalar> 
12920
(
-0.0239706
-0.0317972
-0.0406469
-0.0480597
-0.059807
-0.0728365
-0.0837861
-0.0925407
-0.0969442
-0.0983541
-0.0986746
-0.0987344
-0.0987442
-0.0987458
-0.0987458
-0.0987459
-0.0987458
-0.0987443
-0.0987432
-0.0987427
-0.0270145
-0.0365867
-0.056328
-0.0628556
-0.0707773
-0.08456
-0.0940559
-0.0975441
-0.098495
-0.0987001
-0.0987382
-0.0987444
-0.0987453
-0.0987457
-0.0987455
-0.0987459
-0.0987458
-0.0987447
-0.0987445
-0.0987435
-0.0389136
-0.0446666
-0.0546076
-0.070969
-0.0835481
-0.0931679
-0.0971327
-0.0983185
-0.0986416
-0.0987215
-0.0987407
-0.0987444
-0.0987453
-0.0987449
-0.0987448
-0.0987451
-0.0987451
-0.0987434
-0.0987445
-0.0987436
-0.054885
-0.0510909
-0.0641874
-0.0854436
-0.0873958
-0.094804
-0.0968763
-0.0982039
-0.0985925
-0.0987054
-0.0987349
-0.0987431
-0.0987438
-0.0987447
-0.0987446
-0.0987455
-0.0987458
-0.0987446
-0.0987447
-0.0987438
-0.0538709
-0.0672886
-0.082948
-0.0911021
-0.0900557
-0.0938439
-0.0950358
-0.0972339
-0.0980151
-0.0985032
-0.0986495
-0.0987156
-0.0987327
-0.0987403
-0.0987424
-0.0987448
-0.0987441
-0.0987428
-0.0987445
-0.0987434
-0.015052
-0.0477264
-0.0799689
-0.0941438
-0.0968681
-0.0977751
-0.0957633
-0.0976081
-0.0974384
-0.0981904
-0.0982321
-0.0984926
-0.0985272
-0.0986229
-0.0986697
-0.0987134
-0.098734
-0.0987407
-0.0987442
-0.0987434
-0.0181135
-0.0334214
-0.0523774
-0.0746649
-0.0901019
-0.0963896
-0.0859453
-0.0918005
-0.0849549
-0.0908184
-0.0896106
-0.0926788
-0.0926689
-0.0942564
-0.095834
-0.0973843
-0.0982367
-0.0985845
-0.0987014
-0.0987334
-0.0163587
-0.0343714
-0.0521368
-0.0723991
-0.0866834
-0.0944046
-0.075947
-0.0401792
-0.0286465
-0.0184595
-0.0180186
-0.0155922
-0.0156404
-0.0148566
-0.0429032
-0.0696883
-0.0856582
-0.0936315
-0.0969924
-0.0982129
-0.0127453
-0.0275782
-0.0454107
-0.0698525
-0.0858767
-0.0739079
-0.061548
-0.0196321
-0.000591583
0.00474635
0.00473726
0.00511916
0.00490656
0.00512927
-0.00107662
-0.0415517
-0.0696845
-0.0858032
-0.0937024
-0.0970139
-0.0433124
-0.0429276
-0.0516784
-0.0692003
-0.0839652
-0.0666623
-0.0399635
-0.0106761
0.00196952
0.00581595
0.00634165
0.00637155
0.00637348
0.00637859
0.000148404
-0.0407289
-0.0690576
-0.085503
-0.0935854
-0.0969754
-0.0151039
-0.0581735
-0.0582062
-0.0789522
-0.084215
-0.0598499
-0.0383692
-0.0137933
0.000969339
0.00570874
0.00631312
0.00635038
0.00634754
0.00636767
0.000157165
-0.0406759
-0.0689669
-0.085433
-0.0935448
-0.0969573
-0.0287937
-0.0413158
-0.0351927
-0.0601158
-0.070846
-0.0650495
-0.0536764
-0.0202514
-6.4852e-05
0.0055989
0.00631948
0.00636812
0.00637413
0.00637349
5.78324e-05
-0.04162
-0.0695383
-0.0856761
-0.0936308
-0.096982
-0.00862342
-0.0230771
-0.0303676
-0.0454533
-0.0635011
-0.0820433
-0.0734888
-0.0445288
-0.0262026
-0.0148273
-0.0120398
-0.0107115
-0.0105983
-0.0103202
-0.0439758
-0.0700321
-0.0856584
-0.0935482
-0.0969356
-0.0981867
-0.0190281
-0.0274023
-0.0359817
-0.0490475
-0.0659071
-0.0791328
-0.0876582
-0.0939058
-0.0932808
-0.0952892
-0.0945996
-0.0958953
-0.0955385
-0.096272
-0.0970998
-0.0979642
-0.098424
-0.0986275
-0.0987045
-0.098731
-0.0208094
-0.025207
-0.0332762
-0.0436232
-0.0584001
-0.0785675
-0.091656
-0.0967934
-0.0980816
-0.0985488
-0.0986014
-0.0986824
-0.0986818
-0.098711
-0.0987203
-0.0987337
-0.0987406
-0.0987424
-0.0987405
-0.0987411
-0.0222903
-0.0356284
-0.0468708
-0.0651385
-0.0819894
-0.093335
-0.0970398
-0.0983276
-0.098636
-0.0987214
-0.0987386
-0.0987442
-0.0987451
-0.0987458
-0.0987457
-0.098746
-0.0987458
-0.0987443
-0.0987406
-0.0987408
-0.0221191
-0.0346594
-0.0522284
-0.0706588
-0.0848506
-0.0934937
-0.0970604
-0.0982758
-0.0986282
-0.0987184
-0.09874
-0.0987449
-0.098746
-0.0987462
-0.0987458
-0.0987459
-0.0987457
-0.0987446
-0.0987411
-0.0987408
-0.0260666
-0.0341978
-0.042481
-0.0593709
-0.0793898
-0.0912554
-0.0964728
-0.0981661
-0.0986146
-0.0987178
-0.0987403
-0.098745
-0.098746
-0.0987463
-0.0987458
-0.0987461
-0.098746
-0.098745
-0.0987414
-0.098741
-0.0212251
-0.0302331
-0.0464582
-0.0650034
-0.0851388
-0.0927623
-0.0972206
-0.0983278
-0.098667
-0.0987291
-0.0987426
-0.0987454
-0.098746
-0.0987462
-0.0987459
-0.0987462
-0.0987456
-0.0987452
-0.0987418
-0.0987409
-0.0242328
-0.0473844
-0.0685938
-0.0855514
-0.0936568
-0.0969123
-0.0982279
-0.0986045
-0.0987094
-0.0987368
-0.0987438
-0.0987456
-0.098746
-0.0987462
-0.098746
-0.0987462
-0.0987458
-0.0987452
-0.0987418
-0.0987408
-0.0130813
-0.0187209
-0.0186552
-0.0149434
-0.0132889
-0.0169704
-0.0261133
-0.0206567
-0.0112665
-0.00409335
-0.00131447
-0.000352666
-9.52337e-05
-2.60963e-05
-8.35003e-06
-5.5955e-06
-4.91559e-06
-3.63444e-06
-4.00706e-06
-5.13058e-06
-0.0136545
-0.0144716
-0.00528443
-0.00151626
-0.00331264
-0.00382985
-0.00470432
-0.0032902
-0.00155637
-0.000552295
-0.000187557
-6.03501e-05
-1.86654e-05
-8.18723e-06
-4.11885e-06
-4.29538e-06
-4.10908e-06
-3.41518e-06
-4.27909e-06
-5.60323e-06
-0.00448363
-0.00476942
-0.00302578
-0.00144993
-0.00121152
-0.00157782
-0.00242176
-0.00172334
-0.000949648
-0.000385383
-0.000152099
-5.1178e-05
-1.80189e-05
-7.64472e-06
-5.04737e-06
-4.63042e-06
-3.93516e-06
-3.28968e-06
-4.10919e-06
-5.53975e-06
-0.0135633
-0.00298025
-0.00152765
-0.000790051
-0.000477417
-0.000431532
-0.00029048
-0.000247845
-9.34353e-05
-5.80646e-05
-2.74702e-05
-1.48345e-05
-6.05301e-06
-4.49666e-06
-3.14859e-06
-4.13651e-06
-4.16762e-06
-3.36074e-06
-4.46982e-06
-5.99283e-06
-0.0136529
-0.0105367
-0.00927761
-0.00390597
-0.00142697
-0.000469025
-0.000163
-6.60609e-05
-2.25991e-05
-1.38591e-05
-6.37501e-06
-5.29987e-06
-4.88786e-06
-3.82054e-06
-3.47688e-06
-3.67928e-06
-3.02636e-06
-2.84961e-06
-4.64491e-06
-6.53614e-06
-0.00703543
-0.017226
-0.0301631
-0.0151247
-0.00972777
-0.00326568
-0.000984822
-0.000346256
-0.00010682
-5.23133e-05
-2.27242e-05
-1.54347e-05
-9.1796e-06
-7.99367e-06
-4.47685e-06
-4.42501e-06
-3.40009e-06
-3.00546e-06
-6.04089e-06
-7.23602e-06
-0.00332584
-0.0154308
-0.0350541
-0.0337913
-0.0224478
-0.00778746
-0.00220724
-0.000444396
-8.50086e-05
-2.24133e-05
-7.55083e-06
-4.13724e-06
-3.63614e-06
-2.99408e-06
-5.16773e-06
-8.698e-06
-7.96691e-06
-5.87421e-06
-5.95978e-06
-6.50793e-06
-0.0103401
-0.0218756
-0.0366797
-0.0294881
-0.0212392
-0.00721459
-0.00408957
-0.00043149
-0.000121714
-2.46392e-05
-9.19958e-06
-1.87825e-06
-1.73697e-06
-2.37671e-06
-9.74958e-07
-3.5318e-06
-5.59746e-06
-9.74751e-06
-1.27829e-05
-1.05047e-05
-0.00394075
-0.0114267
-0.0242768
-0.0227453
-0.0132504
-0.00545902
-0.00204157
-0.000238712
-2.27977e-05
-2.27458e-06
-4.81827e-07
-6.0468e-08
-3.32438e-08
-2.31589e-08
-2.1146e-07
-7.388e-07
-4.78072e-06
-1.21629e-05
-2.01099e-05
-1.68927e-05
-0.0201099
-0.0178667
-0.029428
-0.0271346
-0.0252846
-0.0202442
-0.00933137
-0.00104441
-6.63892e-05
-3.18559e-06
-1.44333e-07
-2.3329e-09
-2.94992e-11
-1.65446e-13
-1.25274e-09
-6.61503e-07
-2.68873e-06
-5.27624e-06
-8.11284e-06
-7.86668e-06
-0.0286138
-0.031004
-0.00896387
-0.00853242
-0.00222457
-0.00110969
-0.000580857
-7.97047e-05
-8.14571e-06
-1.06108e-06
-9.76745e-08
-1.86359e-09
-2.46355e-11
5.49465e-12
-2.69524e-10
-6.78208e-07
-2.06642e-06
-3.60489e-06
-6.37828e-06
-7.49258e-06
-0.00370782
-0.00367483
-0.00248546
-0.00197238
-0.00109191
-0.000782589
-0.000514034
-0.000184158
-4.22166e-05
-2.40992e-06
-7.99726e-08
-2.97163e-09
-1.58175e-10
-2.69209e-11
-3.73365e-08
-7.93937e-07
-4.7276e-06
-1.26385e-05
-2.08742e-05
-1.74124e-05
-0.00779077
-0.00345227
-0.00184978
-0.00184413
-0.00226728
-0.00371161
-0.00500636
-0.00112918
-0.000269377
-7.51799e-05
-1.29728e-05
-2.11833e-06
-4.20442e-07
-7.18231e-07
-9.92753e-07
-3.49932e-06
-8.39646e-06
-1.37481e-05
-1.35491e-05
-1.01425e-05
-0.00417653
-0.00653497
-0.00949173
-0.0139839
-0.0230024
-0.0235386
-0.0176556
-0.00844541
-0.00333926
-0.00106642
-0.00032462
-9.05959e-05
-2.17598e-05
-5.76073e-06
-3.83386e-06
-3.1955e-06
-4.40284e-06
-4.72927e-06
-3.76349e-06
-3.81935e-06
-0.00223428
-0.0112675
-0.0197908
-0.0298535
-0.0381622
-0.0304928
-0.017463
-0.00742168
-0.00287701
-0.000937212
-0.000304407
-9.19893e-05
-3.01173e-05
-1.1321e-05
-5.00108e-06
-3.37203e-06
-2.89942e-06
-2.82158e-06
-2.76679e-06
-3.22403e-06
-0.00182584
-0.0171666
-0.0344838
-0.0373633
-0.0334664
-0.0176086
-0.00979606
-0.00394159
-0.00167645
-0.000580345
-0.000208402
-6.88757e-05
-2.35565e-05
-9.15789e-06
-4.19941e-06
-3.2377e-06
-2.78686e-06
-2.72083e-06
-2.69854e-06
-3.11189e-06
-0.00477012
-0.0227428
-0.0334417
-0.0290454
-0.0324877
-0.0176488
-0.00999483
-0.00374581
-0.00147157
-0.000463921
-0.000157762
-4.96964e-05
-1.72139e-05
-7.4167e-06
-3.81416e-06
-2.93186e-06
-2.69343e-06
-2.70085e-06
-2.6893e-06
-3.04621e-06
-0.00203281
-0.00199294
-0.00183709
-0.00460719
-0.0171377
-0.0114823
-0.00942042
-0.00405673
-0.0017534
-0.000578842
-0.000194005
-6.06325e-05
-1.97962e-05
-8.09811e-06
-3.86668e-06
-3.27255e-06
-2.92622e-06
-2.84217e-06
-2.75025e-06
-3.17018e-06
-0.00147369
-0.00335598
-0.00414614
-0.00163152
-0.00243415
-0.00154699
-0.00117827
-0.00048034
-0.000221687
-8.24693e-05
-3.4213e-05
-1.53776e-05
-6.88154e-06
-4.94552e-06
-3.27943e-06
-3.04104e-06
-2.69194e-06
-2.71571e-06
-2.68758e-06
-2.99806e-06
-0.00241724
-0.0162438
-0.0233785
-0.0107466
-0.00531985
-0.0012767
-0.000599971
-0.000240823
-0.000129577
-5.70626e-05
-2.85036e-05
-1.51305e-05
-7.20795e-06
-5.43858e-06
-3.49988e-06
-3.36374e-06
-2.79478e-06
-2.75129e-06
-2.70695e-06
-3.02737e-06
-0.0123338
-0.00597204
-0.00551503
-0.00459956
-0.00612894
-0.0060459
-0.00690928
-0.00362556
-0.00122811
-0.000278465
-5.08357e-05
-7.93724e-06
-1.1263e-06
-1.49586e-07
-1.89124e-08
-2.39796e-09
-3.84138e-10
-1.11973e-10
-1.05563e-10
-1.55729e-10
-0.0102439
-0.00655612
-0.00181839
-0.000512612
-0.00117905
-0.000981623
-0.000812426
-0.000312998
-7.99776e-05
-1.52961e-05
-2.38771e-06
-3.38921e-07
-4.40017e-08
-5.68549e-09
-7.54881e-10
-1.83357e-10
-1.08983e-10
-7.62186e-11
-1.14508e-10
-1.77626e-10
-0.00321241
-0.00277899
-0.00152877
-0.000620106
-0.000279791
-0.000141602
-9.13946e-05
-3.98536e-05
-1.26948e-05
-3.0513e-06
-6.29591e-07
-1.13478e-07
-1.88893e-08
-3.02556e-09
-5.46991e-10
-1.7514e-10
-1.00387e-10
-7.30517e-11
-1.07511e-10
-1.73077e-10
-0.00828371
-0.00267902
-0.00141611
-0.000411941
-0.000147505
-4.23675e-05
-1.26452e-05
-4.39793e-06
-1.07544e-06
-2.63231e-07
-5.29277e-08
-1.06745e-08
-1.93074e-09
-4.08408e-10
-1.1159e-10
-1.05905e-10
-1.0181e-10
-7.28078e-11
-1.24117e-10
-1.99515e-10
-0.00990147
-0.00509689
-0.00306965
-0.00127049
-0.000479546
-0.000151345
-4.25116e-05
-1.09853e-05
-2.59096e-06
-5.65744e-07
-1.14284e-07
-2.16533e-08
-3.91699e-09
-7.21379e-10
-1.74673e-10
-9.33242e-11
-6.24897e-11
-5.57923e-11
-1.27548e-10
-2.21926e-10
-0.00465111
-0.00682915
-0.00685778
-0.00361744
-0.00123787
-0.000292345
-5.86274e-05
-1.22901e-05
-2.28292e-06
-4.31982e-07
-7.73572e-08
-1.41875e-08
-2.61968e-09
-6.16197e-10
-1.73164e-10
-1.29144e-10
-8.12728e-11
-6.35367e-11
-1.98426e-10
-2.56599e-10
-0.001357
-0.00615804
-0.0163308
-0.0111747
-0.00454416
-0.00101321
-0.000168786
-2.42688e-05
-3.31117e-06
-4.77773e-07
-7.17292e-08
-1.11861e-08
-1.79693e-09
-3.26133e-10
-1.91564e-10
-3.20609e-10
-2.81578e-10
-1.93566e-10
-1.90763e-10
-2.17119e-10
-0.00396618
-0.0123632
-0.0187711
-0.0091564
-0.00386492
-0.000955034
-0.000403255
-3.25398e-05
-2.90359e-06
-2.3202e-07
-2.21943e-08
-1.43894e-09
-1.81167e-10
-2.07578e-11
-1.24572e-11
-1.92863e-10
-3.21281e-10
-5.12724e-10
-6.59638e-10
-4.64599e-10
-0.000958872
-0.00673089
-0.0105436
-0.00627896
-0.002363
-0.00101713
-0.000381691
-6.82135e-05
-4.27251e-06
-1.07168e-07
-2.75925e-09
-7.99357e-11
-5.46063e-12
-2.67211e-13
-9.53565e-13
-1.09673e-11
-3.20994e-10
-9.64262e-10
-1.64687e-09
-1.1504e-09
-0.00906399
-0.0081729
-0.0131924
-0.00831199
-0.00496505
-0.00315486
-0.00108579
-7.95313e-05
-2.24348e-06
-5.91276e-08
-1.28281e-09
-1.68147e-11
-1.43068e-13
-6.90505e-16
-6.39427e-16
-8.32932e-12
-9.24202e-11
-2.13271e-10
-3.09572e-10
-2.81611e-10
-0.021905
-0.0137077
-0.0042727
-0.0017979
-0.000511345
-0.000265286
-9.97479e-05
-7.66032e-06
-3.09927e-07
-1.96752e-08
-6.91693e-10
-1.1409e-11
-1.23631e-13
-6.54772e-16
-2.95147e-16
-8.37918e-12
-5.7202e-11
-1.24489e-10
-2.29408e-10
-2.60936e-10
-0.0022604
-0.00317307
-0.00203239
-0.00131582
-0.000784899
-0.000487751
-0.000215773
-2.33921e-05
-8.44666e-07
-1.63263e-08
-2.11842e-10
-2.76242e-12
-3.37943e-14
-5.72024e-16
-2.26889e-13
-1.39588e-11
-2.62351e-10
-8.49445e-10
-1.51892e-09
-1.0966e-09
-0.000757116
-0.00136968
-0.00130478
-0.000975984
-0.000762462
-0.000690768
-0.000443413
-7.5502e-05
-1.2429e-05
-1.44905e-06
-1.25348e-07
-8.31266e-09
-4.66423e-10
-2.78822e-11
-2.05017e-11
-1.6603e-10
-4.59659e-10
-7.846e-10
-6.83259e-10
-4.24811e-10
-0.00222811
-0.0058574
-0.00534277
-0.00560899
-0.00770331
-0.00563213
-0.0028014
-0.000809422
-0.000173962
-2.90203e-05
-4.2101e-06
-5.47847e-07
-6.59493e-08
-7.57086e-09
-9.03922e-10
-1.69027e-10
-1.20997e-10
-1.17581e-10
-8.81078e-11
-8.48052e-11
-0.000833887
-0.0105409
-0.0192065
-0.0197515
-0.019245
-0.00910959
-0.003022
-0.000715302
-0.000142359
-2.45714e-05
-3.96516e-06
-6.08863e-07
-9.01248e-08
-1.2942e-08
-1.82568e-09
-2.93778e-10
-8.56435e-11
-5.80384e-11
-5.28569e-11
-6.49534e-11
-0.000676639
-0.0100999
-0.0235832
-0.01591
-0.0106152
-0.00342648
-0.00113352
-0.000266283
-5.96627e-05
-1.14429e-05
-2.05452e-06
-3.38647e-07
-5.26694e-08
-7.81556e-09
-1.14217e-09
-2.02358e-10
-6.84685e-11
-5.15123e-11
-4.95314e-11
-6.17117e-11
-0.00215435
-0.00971634
-0.013922
-0.00827647
-0.00854898
-0.00312346
-0.00109247
-0.000269295
-5.91954e-05
-1.13669e-05
-2.01343e-06
-3.32022e-07
-5.1582e-08
-7.6691e-09
-1.12055e-09
-1.93476e-10
-6.5862e-11
-5.07053e-11
-4.91968e-11
-6.0007e-11
-0.000641104
-0.000387916
-0.000207284
-0.000245587
-0.000968379
-0.000590536
-0.000410777
-0.000124061
-3.29176e-05
-6.96438e-06
-1.32557e-06
-2.28284e-07
-3.64499e-08
-5.52902e-09
-8.22679e-10
-1.6231e-10
-6.72113e-11
-5.46845e-11
-5.12503e-11
-6.40148e-11
-0.000979053
-0.00169178
-0.00117136
-0.000314081
-0.000146527
-6.94689e-05
-3.75609e-05
-1.02724e-05
-2.70061e-06
-5.44042e-07
-1.04949e-07
-1.78845e-08
-2.93819e-09
-5.23321e-10
-1.23667e-10
-6.55004e-11
-4.93513e-11
-4.92202e-11
-4.88664e-11
-5.84431e-11
-0.00299991
-0.00658582
-0.00631781
-0.00140742
-0.0002704
-5.62051e-05
-1.15631e-05
-2.34924e-06
-4.65572e-07
-8.77829e-08
-1.63612e-08
-3.15581e-09
-6.40187e-10
-2.19006e-10
-8.98241e-11
-7.11219e-11
-5.21859e-11
-5.0361e-11
-4.95475e-11
-5.93802e-11
-0.00366924
-0.00200029
-0.00185848
-0.00122944
-0.00127574
-0.000620505
-0.00070251
-0.000315137
-8.66271e-05
-1.65145e-05
-2.5826e-06
-3.55382e-07
-4.50455e-08
-5.40185e-09
-6.1665e-10
-6.73366e-11
-7.02056e-12
-7.00784e-13
-6.84016e-14
-8.9298e-15
-0.00355341
-0.00185191
-0.000646752
-0.000231442
-0.000157115
-7.16995e-05
-5.67629e-05
-1.98619e-05
-4.42478e-06
-7.39853e-07
-1.00282e-07
-1.24139e-08
-1.40083e-09
-1.54145e-10
-1.61598e-11
-1.65976e-12
-1.65008e-13
-1.67851e-14
-3.36314e-15
-3.38485e-15
-0.00154281
-0.00189052
-0.00146625
-0.000698508
-0.000250541
-7.50947e-05
-2.02991e-05
-4.90179e-06
-9.85219e-07
-1.74384e-07
-2.72317e-08
-3.93882e-09
-5.29498e-10
-6.77119e-11
-8.25849e-12
-9.71975e-13
-1.11472e-13
-1.31722e-14
-3.06428e-15
-3.26035e-15
-0.00560738
-0.00395429
-0.00226473
-0.000876238
-0.000358496
-0.000101467
-2.50013e-05
-5.5113e-06
-1.06508e-06
-1.9069e-07
-3.08548e-08
-4.64985e-09
-6.47096e-10
-8.46142e-11
-1.03948e-11
-1.21334e-12
-1.36008e-13
-1.53583e-14
-3.57372e-15
-3.88082e-15
-0.00234846
-0.00177603
-0.00123651
-0.000960014
-0.000651027
-0.000329337
-0.000117584
-3.26254e-05
-7.63796e-06
-1.55432e-06
-2.83033e-07
-4.66036e-08
-7.02672e-09
-9.77346e-10
-1.26363e-10
-1.5291e-11
-1.74318e-12
-1.88461e-13
-2.13099e-14
-6.04718e-15
-0.00116129
-0.00159
-0.00145078
-0.000721388
-0.000177056
-5.4267e-05
-9.34761e-06
-3.1147e-06
-5.35674e-07
-1.12523e-07
-1.65219e-08
-2.63439e-09
-3.46872e-10
-4.7063e-11
-5.77705e-12
-7.0584e-13
-8.3138e-14
-1.02285e-14
-4.6326e-15
-4.99262e-15
-0.000411985
-0.00149877
-0.00436469
-0.00263826
-0.000818998
-0.000156426
-2.38854e-05
-3.3001e-06
-4.12041e-07
-5.33699e-08
-6.88254e-09
-9.29607e-10
-1.24052e-10
-1.65793e-11
-2.1553e-12
-2.78644e-13
-3.85282e-14
-7.1882e-15
-3.19781e-15
-3.67878e-15
-0.00254973
-0.00594149
-0.00767145
-0.00311942
-0.00113063
-0.000294724
-0.000113778
-6.53061e-06
-3.67236e-07
-2.11816e-08
-1.61182e-09
-7.30206e-11
-8.86666e-12
-5.15811e-13
-2.80757e-14
-2.37771e-14
-1.51888e-14
-1.09107e-14
-9.0515e-15
-6.87291e-15
-0.00145391
-0.00417436
-0.00327692
-0.00154055
-0.000579971
-0.000270378
-0.00010441
-1.39971e-05
-7.08738e-07
-1.45676e-08
-2.52857e-10
-4.26287e-12
-1.69771e-13
-3.92932e-15
-1.37366e-16
-2.04542e-15
-4.07104e-14
-3.07839e-14
-2.45319e-14
-1.62545e-14
-0.00338808
-0.00343717
-0.00371538
-0.00168544
-0.000687214
-0.000361123
-8.88159e-05
-4.33131e-06
-1.22079e-07
-2.0537e-09
-2.47922e-11
-2.3944e-13
-1.46262e-15
-5.857e-18
-1.78928e-20
-4.46869e-16
-4.83399e-15
-5.94965e-15
-5.1353e-15
-4.2916e-15
-0.00445041
-0.00487068
-0.00206255
-0.000667266
-0.00020307
-8.43011e-05
-2.02635e-05
-1.17347e-06
-5.00844e-08
-1.2269e-09
-1.80963e-11
-2.44661e-13
-1.30236e-15
-4.48551e-18
-1.04179e-20
-8.29103e-16
-5.55993e-15
-6.77085e-15
-4.62664e-15
-3.83982e-15
-0.0038595
-0.00342552
-0.00160452
-0.00089147
-0.000563652
-0.000381545
-0.000156529
-1.13866e-05
-1.90513e-07
-1.55849e-09
-1.04851e-11
-9.91841e-14
-1.15014e-15
-1.51162e-17
-1.74067e-17
-2.96485e-15
-1.7494e-14
-1.95853e-14
-2.06258e-14
-1.42477e-14
-0.00272972
-0.00174868
-0.00097405
-0.000513386
-0.000281272
-0.000157818
-7.24592e-05
-9.46047e-06
-1.30059e-06
-1.29801e-07
-9.45177e-09
-5.37841e-10
-2.55091e-11
-1.09351e-12
-3.11827e-13
-5.96745e-14
-1.88214e-14
-1.35381e-14
-9.36528e-15
-5.59823e-15
-0.00126055
-0.00202228
-0.00220669
-0.00177341
-0.00203271
-0.00104463
-0.000372611
-8.4401e-05
-1.48103e-05
-2.16482e-06
-2.8092e-07
-3.35453e-08
-3.74346e-09
-3.98233e-10
-4.04896e-11
-3.97276e-12
-3.79083e-13
-3.64355e-14
-4.41443e-15
-1.50797e-15
-0.0019522
-0.00453193
-0.0109275
-0.00819139
-0.00659293
-0.0020773
-0.000490669
-9.23698e-05
-1.5142e-05
-2.33048e-06
-3.43857e-07
-4.9418e-08
-6.81136e-09
-8.98605e-10
-1.1229e-10
-1.32726e-11
-1.48289e-12
-1.57062e-13
-1.63451e-14
-2.39471e-15
-0.00096913
-0.00314079
-0.0103901
-0.00430851
-0.00247715
-0.00058393
-0.000146588
-2.74083e-05
-4.8791e-06
-7.67109e-07
-1.13401e-07
-1.54188e-08
-1.97643e-09
-2.372e-10
-2.70389e-11
-2.92972e-12
-3.04956e-13
-3.1051e-14
-3.5967e-15
-1.13721e-15
-0.0003567
-0.000910119
-0.00243205
-0.00127258
-0.00163331
-0.000436657
-0.000124108
-2.67954e-05
-5.21112e-06
-9.28414e-07
-1.52851e-07
-2.37205e-08
-3.44493e-09
-4.72339e-10
-6.09045e-11
-7.41727e-12
-8.53378e-13
-9.34932e-14
-1.02539e-14
-1.78114e-15
-0.00125098
-0.000593804
-0.000156436
-7.85961e-05
-0.000143309
-4.15277e-05
-1.78925e-05
-4.1811e-06
-9.44673e-07
-1.72586e-07
-2.91754e-08
-4.41385e-09
-6.23086e-10
-8.13903e-11
-1.00196e-11
-1.16239e-12
-1.28775e-13
-1.41563e-14
-2.04161e-15
-1.028e-15
-0.00194346
-0.00208192
-0.000829447
-0.000115278
-1.75833e-05
-3.95905e-06
-1.32608e-06
-2.92563e-07
-6.6326e-08
-1.17352e-08
-1.99725e-09
-2.97095e-10
-4.18941e-11
-5.42187e-12
-6.65371e-13
-7.72335e-14
-9.00987e-15
-1.51543e-15
-7.36909e-16
-8.16972e-16
-0.00160371
-0.00413025
-0.00166723
-0.000449547
-0.000103313
-1.85601e-05
-2.93286e-06
-4.29613e-07
-5.66616e-08
-7.0043e-09
-8.15458e-10
-9.22726e-11
-1.03303e-11
-1.16697e-12
-1.33969e-13
-1.62014e-14
-2.43121e-15
-8.58363e-16
-6.83164e-16
-8.26109e-16
-0.000887115
-0.000989227
-0.000869187
-0.000594288
-0.000327898
-0.000124679
-3.49567e-05
-9.57131e-06
-2.15145e-06
-3.61392e-07
-5.04127e-08
-6.16844e-09
-6.92359e-10
-7.3546e-11
-7.47962e-12
-7.33472e-13
-6.91398e-14
-6.25714e-15
-5.42212e-16
-4.50257e-17
-0.00211623
-0.000938073
-0.000408232
-0.000211129
-9.66844e-05
-2.69234e-05
-5.57284e-06
-9.73183e-07
-1.48612e-07
-1.98702e-08
-2.29816e-09
-2.47473e-10
-2.46109e-11
-2.39296e-12
-2.2431e-13
-2.08155e-14
-1.89024e-15
-1.7017e-16
-1.51978e-17
-1.39357e-18
-0.000525968
-0.000727294
-0.000420969
-0.000133597
-3.30865e-05
-6.94394e-06
-1.34309e-06
-2.50445e-07
-4.24785e-08
-6.6392e-09
-9.48796e-10
-1.28033e-10
-1.64458e-11
-2.0523e-12
-2.50109e-13
-2.99667e-14
-3.52583e-15
-4.06513e-16
-4.57454e-17
-5.03416e-18
-0.00603766
-0.00470649
-0.00333788
-0.00098341
-0.000146143
-1.64657e-05
-2.0326e-06
-3.17181e-07
-5.38448e-08
-9.31717e-09
-1.51005e-09
-2.29973e-10
-3.24589e-11
-4.29802e-12
-5.33418e-13
-6.25486e-14
-6.94567e-15
-7.34255e-16
-7.42262e-17
-7.24731e-18
-0.00199552
-0.00109153
-0.000713651
-0.000265921
-8.32067e-05
-2.78391e-05
-7.87237e-06
-1.95241e-06
-4.29631e-07
-8.54023e-08
-1.55047e-08
-2.57537e-09
-3.9422e-10
-5.58304e-11
-7.35628e-12
-9.0643e-13
-1.04987e-13
-1.14635e-14
-1.18506e-15
-1.16379e-16
-0.00177068
-0.000461597
-0.000171261
-5.84914e-05
-1.33679e-05
-4.48574e-06
-7.70474e-07
-2.1968e-07
-3.73083e-08
-7.51841e-09
-1.13832e-09
-1.83956e-10
-2.53483e-11
-3.53812e-12
-4.50466e-13
-5.60713e-14
-6.61418e-15
-7.50614e-16
-8.12857e-17
-8.48701e-18
-0.000204336
-0.000284698
-0.000278847
-0.000186277
-6.28746e-05
-1.24698e-05
-1.91596e-06
-2.60251e-07
-3.19818e-08
-4.11466e-09
-5.39599e-10
-7.48794e-11
-1.03253e-11
-1.41619e-12
-1.86827e-13
-2.37939e-14
-2.91094e-15
-3.4114e-16
-3.828e-17
-4.14876e-18
-0.00281094
-0.00146197
-0.00110694
-0.000314125
-0.000126626
-2.97092e-05
-1.14998e-05
-6.00957e-07
-2.99873e-08
-1.60262e-09
-1.20273e-10
-5.35131e-12
-7.12025e-13
-4.26591e-14
-2.32092e-15
-2.76167e-16
-2.98995e-17
-3.24071e-18
-4.03676e-19
-9.81158e-20
-0.00128828
-0.00100835
-0.000455799
-0.000160905
-6.83162e-05
-3.24134e-05
-1.48338e-05
-2.66063e-06
-1.14755e-07
-1.80381e-09
-2.27003e-11
-3.12861e-13
-1.10797e-14
-2.27941e-16
-8.61181e-18
-2.52326e-18
-7.79201e-18
-2.53109e-18
-6.88012e-19
-2.41469e-19
-0.00270425
-0.00116003
-0.000765414
-0.000349363
-0.000113372
-4.80786e-05
-9.92559e-06
-4.69849e-07
-1.39519e-08
-2.05841e-10
-1.81432e-12
-1.0029e-14
-3.78172e-17
-1.03468e-19
-3.48803e-22
-1.37876e-19
-6.12693e-19
-3.21064e-19
-1.11799e-19
-5.56743e-20
-0.00424346
-0.00176819
-0.000704428
-0.000267486
-9.21136e-05
-4.03536e-05
-1.03031e-05
-1.54212e-06
-1.03506e-07
-2.64167e-09
-3.1843e-11
-2.01669e-13
-7.73252e-16
-1.86147e-18
-1.88801e-21
-2.07114e-19
-8.00987e-19
-5.35039e-19
-1.65692e-19
-6.11123e-20
-0.00143944
-0.00184891
-0.0012302
-0.000493997
-0.000175907
-8.11535e-05
-2.54836e-05
-2.2176e-06
-3.61151e-08
-3.95972e-10
-3.53984e-12
-2.3109e-14
-1.15909e-16
-7.26147e-19
-8.08758e-19
-1.11891e-17
-3.98368e-18
-1.05583e-18
-3.84588e-19
-1.78004e-19
-0.00106388
-0.00142897
-0.000998772
-0.000423612
-0.000129555
-3.76838e-05
-1.23493e-05
-8.66153e-07
-7.73222e-08
-6.57412e-09
-4.54199e-10
-2.53163e-11
-1.24174e-12
-5.70717e-14
-2.16405e-14
-2.97725e-15
-3.58487e-16
-3.79454e-17
-3.6537e-18
-3.59178e-19
-0.00142648
-0.00103921
-0.000768331
-0.000410558
-0.000383504
-0.000137162
-3.69109e-05
-7.4626e-06
-1.23954e-06
-1.78986e-07
-2.3164e-08
-2.75994e-09
-3.05394e-10
-3.19505e-11
-3.1667e-12
-3.00362e-13
-2.73944e-14
-2.40049e-15
-2.02456e-16
-1.64688e-17
-0.00166037
-0.00125816
-0.00277663
-0.00174073
-0.00120358
-0.000297063
-5.82235e-05
-1.02644e-05
-1.63873e-06
-2.53484e-07
-3.75007e-08
-5.36079e-09
-7.26527e-10
-9.35139e-11
-1.13428e-11
-1.2976e-12
-1.40022e-13
-1.42535e-14
-1.37378e-15
-1.25686e-16
-0.000233461
-0.000928657
-0.0020774
-0.000644498
-0.000328506
-6.41871e-05
-1.37624e-05
-2.29758e-06
-3.76533e-07
-5.44496e-08
-7.54848e-09
-9.5399e-10
-1.14907e-10
-1.28636e-11
-1.37511e-12
-1.39116e-13
-1.35175e-14
-1.26315e-15
-1.14669e-16
-1.01698e-17
-4.9885e-05
-0.000303748
-0.000364399
-0.000133811
-0.000167914
-3.79512e-05
-9.37177e-06
-1.91632e-06
-3.59992e-07
-6.33335e-08
-1.03592e-08
-1.59948e-09
-2.30355e-10
-3.11866e-11
-3.95079e-12
-4.70507e-13
-5.26782e-14
-5.56441e-15
-5.56217e-16
-5.27975e-17
-0.000238562
-0.000530956
-0.000286056
-6.4552e-05
-2.25867e-05
-5.10558e-06
-1.30598e-06
-2.572e-07
-5.08608e-08
-8.54285e-09
-1.36797e-09
-1.958e-10
-2.64303e-11
-3.28165e-12
-3.85268e-13
-4.24287e-14
-4.44601e-15
-4.42803e-16
-4.22579e-17
-3.88038e-18
-0.00184276
-0.0014237
-0.000884135
-0.000333224
-6.1017e-05
-7.87884e-06
-9.55712e-07
-1.16441e-07
-1.40832e-08
-1.68475e-09
-2.03532e-10
-2.40331e-11
-2.80767e-12
-3.1591e-13
-3.44823e-14
-3.60883e-15
-3.63889e-16
-3.52276e-17
-3.28998e-18
-3.03298e-19
-0.00147493
-0.00305218
-0.00281301
-0.00136601
-0.000391937
-5.89245e-05
-7.63076e-06
-9.18233e-07
-1.02121e-07
-1.08347e-08
-1.07746e-09
-1.02739e-10
-9.35515e-12
-8.27062e-13
-7.14688e-14
-6.14337e-15
-5.3175e-16
-4.68702e-17
-4.21489e-18
-3.91269e-19
-3.50263e-09
-6.44962e-08
-3.95303e-09
-3.19055e-08
-1.63302e-09
-1.65957e-08
-9.77131e-10
-5.15893e-11
-1.65222e-09
-1.34485e-10
-5.76396e-10
-2.13992e-11
-3.567e-10
-1.52056e-11
-1.90484e-09
-1.04582e-08
-5.42343e-10
-7.12533e-09
-4.26637e-10
-7.56042e-09
-3.01837e-10
-3.29308e-11
-1.86362e-10
-6.21327e-12
-1.5144e-10
-5.94212e-12
-9.77183e-11
-2.89987e-12
-0.0285253
-0.0426332
-0.0185913
-0.0560642
-0.0290384
-0.0408689
-0.0208756
-0.00424973
-0.0127874
-0.00085102
-0.0219996
-0.00807918
-0.0156015
-0.00506354
0.00424027
0.00155642
0.00531175
-0.00510408
-0.00109931
-0.00315675
-0.0005582
0.00421375
0.00579856
0.00630775
-0.000620025
-0.000237275
-0.000282033
-2.7513e-05
0.00495268
0.0063452
0.00637405
-0.000123082
-3.99504e-05
-1.16965e-05
-7.20823e-07
0.00450552
0.00637642
0.00637748
-2.76654e-05
-3.81649e-05
-2.66579e-07
-1.50921e-08
0.0048917
0.00637519
0.00637505
-2.35397e-05
-1.70554e-05
-6.9721e-09
-2.22854e-09
0.00464789
0.00637704
0.0063845
-1.39666e-05
-2.21234e-05
-1.67786e-09
-9.83415e-10
-0.0159484
-0.0403373
-0.0182827
-0.0431029
-0.0198301
-0.0426984
-0.0209025
-0.000148037
-0.0127498
-0.00105821
-0.0143351
-0.00449073
-0.0155338
-0.00509725
0.00535932
0.00137156
0.00523027
-0.00282215
-0.000521425
-0.00321369
-0.000589832
0.00630658
0.00573982
0.00628026
-0.000267329
-2.67852e-05
-0.000302721
-3.0427e-05
0.00636644
0.00632276
0.00635421
-1.1352e-05
-6.81112e-07
-1.29679e-05
-7.7779e-07
0.00637532
0.0063622
0.00636628
-2.46853e-07
-9.48218e-09
-2.71672e-07
-6.15542e-09
0.00637712
0.00635332
0.00635788
-2.97015e-09
-9.17108e-11
-1.01847e-09
3.09257e-10
0.00638955
0.00636758
0.00637939
-4.0663e-11
1.39494e-10
2.41139e-10
2.30859e-10
-0.0190275
-0.0453151
-0.0229874
-0.0330834
-0.0190936
-0.0412527
-0.0245286
-0.00166464
-0.0164293
-0.0021731
-0.0150611
-0.00548251
-0.0187289
-0.00606869
0.00516691
0.00068261
0.00512079
-0.00347519
-0.000624176
-0.00375734
-0.000653769
0.00627459
0.00569163
0.00628815
-0.000315909
-3.06448e-05
-0.000329447
-3.19125e-05
0.00634452
0.00633134
0.00635759
-1.28484e-05
-7.42453e-07
-1.3452e-05
-8.101e-07
0.0063578
0.00635827
0.00637023
-2.65861e-07
-9.00039e-09
-2.97629e-07
-1.48106e-08
0.00635924
0.00637363
0.00637845
-2.30902e-09
5.83671e-10
-6.49615e-09
-1.13597e-09
0.00638273
0.00637887
0.00638438
6.28883e-10
5.90948e-10
-7.81168e-10
-4.09572e-10
-0.0280316
-0.0658866
-0.0427156
-0.0476378
-0.0288193
-0.0610722
-0.043231
-0.00339739
-0.0332127
-0.0134582
-0.0223864
-0.00718259
-0.0346751
-0.0148861
0.00496431
-0.00967582
-0.00167096
-0.00440602
-0.000757805
-0.0109391
-0.00361673
0.00626806
-0.000131619
0.00120025
-0.000382623
-3.80905e-05
-0.0022908
-0.000771627
0.00636445
0.00147049
0.00236871
-1.64566e-05
-1.19104e-06
-0.00055959
-0.00021639
0.00637354
0.00261054
0.00274442
-4.99503e-07
-7.47579e-08
-0.000155896
-0.000114676
0.00637359
0.00288549
0.00332288
-5.62088e-08
-2.63468e-08
-0.000102247
-6.85018e-05
0.00637878
0.0034794
0.00349661
-2.06489e-08
-1.19072e-08
-5.8014e-05
-5.50672e-05
-0.000435945
-0.0027479
-0.000836988
-0.00189384
-0.000375865
-0.00167447
-0.00046277
-4.34087e-05
-0.000489459
-7.75184e-05
-0.000199943
-3.09036e-05
-0.000268715
-4.29085e-05
-4.03616e-06
-3.98438e-05
-4.36112e-06
-1.50153e-05
-1.66899e-06
-2.22379e-05
-2.53433e-06
-9.55285e-07
-2.06601e-06
-1.9383e-07
-7.67901e-07
-1.70876e-07
-1.13199e-06
-7.83328e-08
-1.15911e-07
-8.14546e-08
-5.21469e-09
-7.31419e-08
-1.19597e-08
-2.9974e-08
-1.35303e-09
-4.47883e-08
-2.11572e-09
-1.07017e-10
-5.09482e-09
-1.86914e-09
-4.47638e-10
-1.33341e-11
-2.35458e-08
-3.88165e-11
-5.11194e-12
-7.56574e-10
-1.96665e-10
-3.89685e-12
-9.18921e-14
-5.07031e-08
-3.62422e-12
-9.52072e-12
-1.13218e-10
3.25964e-10
-2.75849e-14
5.08307e-15
-0.00204881
-0.00599026
-0.00100556
-0.00440316
-0.000872463
-0.00401993
-0.000738753
-0.000133908
-0.000525305
-7.10075e-05
-0.000476293
-6.92764e-05
-0.000382384
-4.57933e-05
-6.84766e-06
-3.53764e-05
-3.98604e-06
-3.50515e-05
-3.82392e-06
-2.20339e-05
-2.3121e-06
-3.46689e-07
-2.60701e-06
-2.63901e-07
-1.70046e-06
-1.19868e-07
-1.05304e-06
-8.07131e-08
-6.7675e-09
-1.35697e-07
-1.72259e-08
-4.59032e-08
-2.07324e-09
-3.20427e-08
-1.5662e-09
-9.38348e-11
-7.07576e-09
-2.55869e-10
-6.86734e-10
-2.08564e-11
-5.32678e-10
-1.76943e-11
-6.51167e-13
-6.5333e-11
1.71393e-12
-6.11288e-12
-1.31052e-13
-5.32235e-12
-1.18752e-13
-4.05485e-13
1.57357e-12
2.56759e-13
-3.43667e-14
7.99965e-18
-3.13001e-14
-4.22266e-16
-0.000143479
-0.000706672
-0.000289126
-0.000434283
-0.000101662
-0.000183795
-5.66632e-05
-1.45725e-05
-0.000220531
-3.725e-05
-5.40659e-05
-8.70904e-06
-3.34409e-05
-5.75803e-06
-1.41515e-06
-1.84245e-05
-2.98823e-06
-4.73382e-06
-6.43966e-07
-3.0501e-06
-3.67184e-07
-2.38324e-07
-1.62248e-06
-1.84074e-07
-3.08825e-07