/*--------------------------------*- C++ -*----------------------------------*\
  =========                 |
  \\      /  F ield         | OpenFOAM: The Open Source CFD Toolbox
   \\    /   O peration     | Website:  https://openfoam.org
    \\  /    A nd           | Version:  10
     \\/     M anipulation  |
\*---------------------------------------------------------------------------*/
FoamFile
{
    format      ascii;
    class       volVectorField;
    location    "0.2";
    object      U;
}
// * * * * * * * * * * * * * * * * * * * * * * * * * * * * * * * * * * * * * //

dimensions      [0 1 -1 0 0 0 0];

internalField   nonuniform List<vector> 
12920
(
(211.862 -17.0112 -90.5132)
(72.9943 6.43151 16.2686)
(204.994 -12.073 -10.7645)
(185.103 5.76184 -17.7216)
(199.708 11.7261 -20.2749)
(183.853 3.85769 -15.4574)
(171.768 16.187 1.69748)
(115.584 11.8189 4.17798)
(111.178 9.55818 2.69863)
(86.4344 4.4201 0.888515)
(94.3668 2.96574 0.297805)
(82.915 1.65487 0.0673582)
(88.7869 1.06376 0.019444)
(82.9155 0.803314 0.00426723)
(86.0344 0.484389 0.000960563)
(83.1345 0.437828 0.000629881)
(84.4756 0.245714 0.00036708)
(83.1914 0.22863 -0.000156687)
(84.2478 0.0950612 -0.00149148)
(88.6696 0.0776426 -0.00114557)
(62.3757 -115.616 -121.448)
(-40.5953 13.3229 -47.61)
(93.8088 -0.13373 -17.8336)
(20.582 9.37912 -2.36946)
(109.99 15.4601 -3.79622)
(60.9504 14.6129 -3.03917)
(107.878 14.5459 -0.140661)
(74.1348 10.3904 0.610393)
(98.8653 5.04151 0.442735)
(79.0594 3.64868 0.146317)
(92.3567 1.20734 0.0553331)
(81.3009 1.52818 0.0145946)
(88.1702 0.385992 0.00404182)
(82.4223 0.713092 0.00131911)
(85.7406 0.183525 0.000249745)
(82.9488 0.331847 0.000458817)
(84.3301 0.105233 0.000154592)
(83.1202 0.122726 -0.000213224)
(84.1858 0.0224393 -0.000889032)
(88.6546 0.0104253 -0.000732379)
(98.5218 -48.9662 -3.65145)
(0.705498 17.769 -34.7767)
(130.568 32.784 -21.2163)
(66.7094 23.1877 -1.72826)
(121.787 26.9259 0.693714)
(77.8306 21.4111 2.03596)
(109.367 15.9749 1.3381)
(80.6799 14.3861 0.691974)
(99.5395 7.37916 0.267553)
(81.5786 7.46468 0.0833234)
(92.3581 2.98793 0.0275703)
(82.1887 3.82793 0.00738231)
(88.0834 1.38413 0.00192942)
(82.7845 1.99695 0.000702853)
(85.7083 0.762787 -0.000113352)
(83.1301 1.04619 0.000401601)
(84.3626 0.435032 -0.00057044)
(83.2103 0.50111 -0.00060452)
(84.2332 0.140885 -0.000333455)
(88.7004 0.135917 -0.000544)
(49.3863 33.987 -50.5831)
(-77.4886 56.6213 -8.17986)
(110.808 27.1828 -8.43188)
(-12.7435 28.0855 1.68563)
(100.854 20.7693 -2.08499)
(33.6667 17.0106 0.0160793)
(97.2721 8.50092 -0.430978)
(62.5791 10.4539 -0.00802772)
(93.2361 4.72821 -0.00954188)
(75.1966 6.42408 0.0104003)
(89.3099 2.54404 0.00648848)
(79.8934 3.65681 0.00340398)
(86.4782 1.28479 0.000580791)
(81.8342 1.93107 0.000376087)
(84.7917 0.698014 -5.84271e-05)
(82.6259 0.950215 0.000361032)
(83.7984 0.424038 0.000211941)
(82.8758 0.418658 -0.000258612)
(83.8877 0.163421 -0.000703306)
(88.481 0.0903897 -0.000546718)
(8.06311 -2.33033 -141.718)
(-102.25 32.9889 -20.2437)
(86.2091 44.8356 -4.25492)
(5.62625 28.0966 -2.95126)
(113.231 19.7351 -3.26848)
(54.3809 20.1657 -1.1884)
(103.968 0.94304 -1.27591)
(73.3325 14.9948 -0.288413)
(95.2222 0.0915997 -0.199391)
(78.213 9.20097 -0.0381844)
(89.4564 0.500578 -0.0199996)
(80.7247 5.06541 -0.00353055)
(86.3729 0.558791 -0.00194524)
(82.1571 2.64243 -0.000379869)
(84.7075 0.568307 -0.000627821)
(82.8351 1.30395 0.000144521)
(83.8202 0.425759 -0.000897413)
(82.9135 0.586283 -0.000916001)
(83.91 0.124116 0.000318208)
(88.515 0.145271 0.000287972)
(317.699 -0.729419 -25.5991)
(84.5633 -4.06064 -13.1249)
(98.1213 -4.31447 13.9768)
(-38.2403 -9.77274 -2.2334)
(99.8054 -17.8218 2.4505)
(10.6807 14.6762 -0.0245106)
(94.9665 -5.37363 -0.109623)
(61.4454 11.6889 -0.0446851)
(87.2823 2.20264 -0.0358894)
(75.2137 7.43398 -0.00127074)
(85.063 1.79341 -0.000901397)
(79.9573 4.34226 0.00330141)
(84.1314 1.10426 0.00184215)
(81.9019 2.46373 0.00190547)
(83.4573 0.704249 -0.00069179)
(82.4578 1.20416 -0.000888904)
(83.1314 0.65141 -0.000808508)
(82.596 0.587452 -0.000425143)
(83.4837 0.264199 0.00104427)
(88.2788 0.136222 0.00063866)
(218.221 333.336 -79.6337)
(122.394 199.738 -54.0823)
(247.568 93.7686 -3.37974)
(131.99 20.7279 11.2672)
(144.307 -19.7067 7.84082)
(73.9979 11.1424 1.48336)
(98.1276 -35.7252 0.360356)
(66.359 20.3024 -0.115053)
(86.244 -11.3411 -0.0952888)
(74.3185 10.0076 -0.0418808)
(85.498 -4.1172 -0.0303647)
(79.4157 4.68647 -0.0123712)
(84.3393 -1.68149 -0.00812418)
(81.6182 2.31277 -0.00494209)
(83.3486 0.222543 0.00115458)
(82.5647 0.971962 0.000919306)
(83.1542 0.354167 0.000311923)
(82.5024 0.541241 0.00041628)
(83.4411 0.130726 0.00109044)
(88.2857 0.0865223 0.000351911)
(183.718 -47.1791 -3.23002)
(202.699 41.7579 -30.0879)
(229.793 21.3426 9.14326)
(111.564 0.50956 9.45819)
(122.483 -12.0089 11.141)
(54.1493 35.5491 1.34068)
(85.062 9.58375 1.01697)
(50.1937 -1.56829 0.012762)
(79.3373 7.07681 -0.0501814)
(72.0115 -7.36343 -0.0518226)
(83.2104 1.16865 -0.0685718)
(78.8462 -3.05257 -0.0253014)
(83.0637 -0.829776 -0.0191335)
(80.9202 -1.81782 0.00037901)
(82.6138 -0.297031 -0.0165767)
(82.5363 0.859612 -0.00955487)
(82.6027 0.760415 -0.00502854)
(82.3951 0.720216 0.000878659)
(83.1297 0.261202 0.00371612)
(88.0912 0.123456 0.00195897)
(253.872 -129.438 -38.7858)
(253.445 30.0407 -35.5243)
(257.833 48.7463 3.05135)
(125.853 19.1732 15.9073)
(139.481 -8.13948 12.2993)
(70.4407 13.795 -0.589992)
(96.0064 21.3924 0.689084)
(76.1089 -13.2648 0.362975)
(82.8912 -5.83486 -0.149628)
(78.552 -6.46809 -0.0481533)
(81.9651 -1.88548 -0.00178976)
(80.3277 -3.22101 -0.0191768)
(81.7841 -1.79164 0.00325649)
(81.152 -2.35994 -0.00957445)
(82.7526 -2.64953 -0.00466456)
(82.0258 0.0610888 -0.030001)
(81.998 0.463462 -0.0167183)
(82.0474 0.398152 -0.00310933)
(83.0886 0.286344 0.00465905)
(88.2073 0.0698176 0.00329143)
(63.5919 75.8503 -27.7207)
(97.4715 70.0283 -12.0565)
(148.586 61.4421 26.7456)
(58.5262 22.6496 12.8332)
(96.9011 18.7347 11.9509)
(35.9787 17.4477 3.77024)
(65.3738 12.0208 1.05245)
(77.2997 0.879677 -0.378778)
(82.8064 -0.664012 -0.101768)
(82.1523 -0.580485 -0.0140344)
(81.8521 0.338103 0.00678527)
(81.4323 0.768082 -0.0638203)
(81.4939 0.769907 0.013452)
(81.7 0.805211 0.0265006)
(82.3009 0.581835 -0.00487593)
(82.1753 0.819213 -0.0127692)
(82.0101 0.170384 -0.0111399)
(81.9217 0.301441 -0.00379746)
(82.8408 -0.0197563 0.00127341)
(88.0448 0.0734349 0.00116868)
(165.598 -135.039 -0.661307)
(-128.395 -38.2124 -51.3521)
(165.386 -16.6624 -21.0178)
(14.7644 -10.4795 2.987)
(125.864 -6.84184 0.819604)
(43.7329 -11.0053 -1.02325)
(69.2902 -7.61087 -0.0737846)
(81.1593 -1.1422 -0.549991)
(84.2555 0.678505 -0.294077)
(83.7148 1.10681 0.00209952)
(82.6918 1.05871 -0.0333531)
(82.349 0.882893 -0.35603)
(81.9277 0.978715 0.0201792)
(81.9587 0.95908 0.0952561)
(82.1257 0.744215 -0.0389995)
(81.8649 0.459819 -0.00402807)
(81.7431 0.429911 -0.00729092)
(81.7128 0.147321 -0.00337127)
(82.7544 0.138369 0.000452913)
(88.083 -0.00456193 0.000828141)
(81.69 122.546 -37.3825)
(-62.934 5.02353 -9.13927)
(112.703 -2.07084 -24.7981)
(0.929442 6.17521 -6.8834)
(88.0727 -0.563508 -7.71769)
(40.5283 -3.90968 -2.11388)
(84.2867 -13.0321 -0.0463652)
(86.8452 -0.0285689 -0.624267)
(85.678 3.67286 -0.121635)
(83.0064 3.20702 -0.0207639)
(82.3565 1.95318 -0.00624236)
(81.6853 1.69427 -0.000211584)
(81.4111 1.2701 -0.00134908)
(81.4275 1.15116 0.00262178)
(81.9215 1.05347 -0.00172766)
(81.4738 0.897874 -0.0280167)
(81.4964 -0.0149539 -0.0112055)
(81.5681 -0.0691409 -0.000943525)
(82.6464 -0.252988 0.00518877)
(88.0445 -0.0196183 0.00364274)
(310.009 5.02085 150.89)
(87.4137 28.7662 61.9785)
(152.009 79.3011 23.4767)
(62.6643 44.9581 -7.06768)
(135.413 31.4649 -10.1053)
(84.6085 -17.3767 -5.35454)
(93.7162 -9.47507 -0.0856651)
(71.0718 3.06687 0.261739)
(85.2642 2.95589 0.0736938)
(79.1202 2.85283 -0.0227618)
(84.2684 2.03549 -0.0215867)
(80.6709 1.18173 -0.00083791)
(82.7869 1.10023 -0.00510388)
(80.9758 0.478007 0.02481)
(81.6563 0.628826 -0.0250303)
(82.1114 0.250355 -0.0112026)
(82.0293 -0.105599 -0.00157679)
(81.8224 -0.231384 0.00217093)
(82.5975 -0.124483 0.00285786)
(88.0063 -0.0488642 0.00149736)
(121.855 251.615 -68.9803)
(-71.4907 156.598 -14.1765)
(133.382 156.119 -33.9624)
(71.4015 89.2531 -31.5833)
(157.865 51.2112 -9.06769)
(112.11 1.3825 -0.602605)
(112.524 15.6172 5.73231)
(84.0634 -10.1976 2.64693)
(88.8404 5.74573 1.29252)
(79.6138 -4.39366 0.364468)
(84.9803 3.40944 0.11901)
(80.8074 -1.3474 0.0313116)
(83.5652 2.0896 0.00578915)
(81.8815 -0.0985054 -0.00467634)
(82.7088 1.02229 0.000732453)
(82.059 0.155812 -0.00051054)
(82.1982 0.120031 0.000268044)
(81.5992 -0.0233477 0.000102484)
(82.5665 -0.014934 -0.000974622)
(88.0213 -0.0141997 -0.000937186)
(37.8581 220.693 51.458)
(39.4448 118.361 -66.2513)
(257.376 141.338 -43.8425)
(258.597 106.36 -25.2913)
(259.664 23.6211 22.4006)
(131.372 -6.75916 17.3479)
(125.551 9.18444 7.67984)
(88.9941 1.68406 2.74944)
(92.9859 7.48524 1.03302)
(81.7931 1.88742 0.286937)
(84.9776 4.29231 0.0939957)
(81.1281 1.23833 0.0246049)
(82.8835 2.50146 0.00772581)
(81.6624 0.711427 0.00239391)
(82.3874 1.22765 -0.00069772)
(81.8476 0.434039 -0.000973063)
(81.9905 0.321348 -0.000553284)
(81.5936 0.0650521 -0.000874645)
(82.5373 -0.000434935 -0.00203569)
(88.0525 -0.0142298 -0.00145705)
(106.86 93.8241 75.3972)
(150.113 33.3614 -28.9245)
(234.322 30.6279 20.1962)
(146.967 16.4748 21.6735)
(162.135 36.0653 22.3494)
(76.6579 13.3182 6.82063)
(102.165 23.2259 3.45847)
(71.736 3.36672 0.880105)
(88.6081 10.5771 0.435611)
(76.3659 1.12215 0.116019)
(84.6567 5.04297 0.0480333)
(79.1096 0.719152 0.0135969)
(83.1651 2.62619 0.00447178)
(80.6394 0.603527 0.00120833)
(82.4203 1.24456 0.000160143)
(81.3583 0.281812 0.000158319)
(81.9645 0.482222 1.27695e-05)
(81.3588 0.126591 -0.000594681)
(82.4672 0.15826 -0.00217918)
(87.9861 0.00750648 -0.00159286)
(333.091 -23.0038 -64.6308)
(145.796 -18.2449 -16.5971)
(167.646 -53.4298 28.3316)
(62.3966 -47.639 8.73814)
(131.227 -6.45098 15.0713)
(58.622 -6.569 4.04098)
(104.169 12.1652 3.5335)
(68.8023 2.92575 0.875307)
(89.7443 7.94408 0.480847)
(75.5049 2.327 0.11504)
(84.477 4.08831 0.048286)
(78.6129 1.35 0.0124109)
(82.7241 2.11435 0.00412817)
(80.2746 0.751875 0.00130863)
(82.1487 1.03235 7.71206e-05)
(81.0738 0.423626 -3.57033e-05)
(81.6898 0.445924 -0.000152825)
(81.1855 0.156649 -0.000531909)
(82.3372 0.0863993 -0.00196837)
(87.9381 0.0233582 -0.00157697)
(213.946 55.3271 -24.0463)
(-38.8243 -27.9756 -17.7616)
(157.739 -88.7243 -9.28947)
(43.9558 -56.0017 -11.0336)
(127.646 -32.8225 1.92146)
(52.2435 -10.9373 -1.92393)
(98.7642 8.10352 2.32938)
(62.2155 2.32128 0.462817)
(87.5023 7.35341 0.403733)
(72.2453 1.73821 0.0844521)
(83.8545 3.81221 0.0381612)
(77.1664 0.91589 0.00933084)
(82.6274 1.93088 0.00310339)
(79.5664 0.536137 0.00110627)
(82.0886 0.947617 1.90267e-05)
(80.7141 0.285021 0.000185435)
(81.6723 0.434169 6.44189e-06)
(81.0546 0.0874046 -0.000289147)
(82.282 0.124963 -0.0018362)
(87.8692 0.000296662 -0.00155179)
(235.4 26.1091 -122.586)
(78.8595 32.2319 -47.9627)
(163.951 -15.9242 -34.7045)
(51.5713 -5.62834 -10.5466)
(120.24 -3.78766 0.519377)
(39.4581 -0.255788 -2.03288)
(97.7001 5.63533 0.0643015)
(58.8637 1.96772 -0.0918181)
(87.5293 3.75735 0.034501)
(71.1749 1.37562 0.00514387)
(83.5416 2.00107 0.00637484)
(76.6434 0.819259 0.00250471)
(82.3428 1.03048 0.000723897)
(79.3096 0.460929 0.000641557)
(81.9427 0.505966 -5.95081e-05)
(80.5984 0.251755 0.000146124)
(81.5827 0.2329 -0.000236497)
(80.9957 0.108071 -0.000322645)
(82.2342 0.051984 -0.00167698)
(87.8364 0.0160076 -0.00150784)
(113.404 -59.6513 -111.78)
(63.0217 18.5773 5.97845)
(151.865 15.3818 12.6116)
(35.851 7.55728 8.57321)
(114.424 2.73642 8.31679)
(37.4166 1.28189 0.560423)
(96.0893 1.62256 0.678531)
(58.2761 0.54545 0.0548121)
(86.9652 1.42061 0.0552457)
(70.4727 0.177997 0.0110521)
(83.3482 0.854104 0.00734866)
(76.146 0.0693065 0.00305204)
(82.2157 0.459083 0.000976879)
(78.9498 0.039078 0.00081606)
(81.7766 0.233505 3.65559e-05)
(80.3081 0.0346932 0.000266829)
(81.4145 0.141373 -0.000116782)
(80.8074 0.0241003 -0.000292075)
(82.1033 0.0670026 -0.00167265)
(87.7261 0.00736295 -0.00154161)
(176.18 -69.7406 -150.574)
(180.065 -17.2704 -34.7362)
(296.191 -44.7219 -12.5438)
(254.187 -41.0567 -2.23783)
(221.767 8.89795 13.1055)
(131.431 15.9672 15.1969)
(131.243 20.6014 14.7085)
(94.9833 12.2379 8.98018)
(104.902 9.28911 4.48968)
(84.7691 4.27813 1.35235)
(94.14 2.89739 0.441708)
(82.9954 1.64305 0.0991746)
(88.9512 1.0619 0.0311528)
(83.0991 0.804564 0.00700199)
(86.2185 0.48565 0.00205875)
(83.3217 0.43866 0.000917243)
(84.663 0.246252 0.00038536)
(83.3814 0.228982 -0.000181852)
(84.4344 0.0956031 -0.00151076)
(88.8496 0.0779466 -0.0014472)
(264.709 46.3377 109.192)
(80.9773 -70.4601 19.2184)
(118.712 -47.8231 -7.00384)
(15.4848 -3.88736 -14.2063)
(104.99 10.0468 -11.3733)
(53.0517 10.2732 -4.31504)
(103.744 10.0514 -0.86385)
(71.9651 8.13907 0.673296)
(98.4819 4.00939 0.476049)
(79.043 3.35584 0.18014)
(92.4843 1.11217 0.072885)
(81.4714 1.50607 0.0206457)
(88.3424 0.379589 0.00696981)
(82.6014 0.71085 0.00211647)
(85.917 0.182822 0.000586844)
(83.128 0.331196 0.000533582)
(84.5093 0.104623 0.000139601)
(83.3002 0.122239 -0.000255625)
(84.3638 0.0227686 -0.00100146)
(88.8297 0.0105861 -0.00109074)
(373.679 -59.3515 32.8586)
(195.828 -11.0772 6.40183)
(161.207 16.7317 -13.2786)
(83.4413 14.7317 -10.3259)
(123.935 26.5783 -8.43005)
(79.3147 24.4104 -3.18322)
(109.606 17.9045 -0.503803)
(80.9646 15.1398 0.198373)
(99.7123 7.56914 0.279134)
(81.7686 7.51799 0.111549)
(92.5377 3.00247 0.05808)
(82.3782 3.83255 0.0164378)
(88.265 1.38852 0.00599858)
(82.97 1.99832 0.00166758)
(85.8893 0.764673 0.000221769)
(83.3124 1.04665 0.000480535)
(84.5453 0.435937 -0.000619549)
(83.3882 0.50122 -0.000638905)
(84.4114 0.14125 -0.000509645)
(88.8768 0.136101 -0.000909875)
(107.392 87.2246 178.535)
(-34.2705 39.1115 -37.0107)
(98.6012 12.8398 -20.2649)
(-14.6022 26.0841 -6.02252)
(100.233 21.9564 -4.29173)
(35.4341 18.1518 -0.665823)
(97.3944 8.83414 -0.198158)
(62.9418 10.5709 0.0890741)
(93.38 4.70694 0.0751054)
(75.3667 6.41939 0.0355962)
(89.469 2.54076 0.0177018)
(80.0721 3.65637 0.00586686)
(86.6516 1.28686 0.001495)
(82.0123 1.93125 0.000468431)
(84.9676 0.698903 4.513e-05)
(82.8041 0.950158 0.00042037)
(83.978 0.424228 0.000224009)
(83.0563 0.418555 -0.00027645)
(84.066 0.16379 -0.000826533)
(88.6572 0.0907987 -0.000918705)
(144.553 52.4763 131.093)
(-78.9604 6.05217 0.06396)
(88.95 47.9987 0.320233)
(7.15251 30.2884 3.26513)
(113.904 23.9703 -0.430832)
(56.6973 21.96 0.605935)
(104.475 2.07255 -0.350975)
(74.1123 15.2838 0.0617239)
(95.4922 0.233462 -0.0202954)
(78.4826 9.22098 0.012049)
(89.6511 0.515761 0.00313843)
(80.9244 5.0647 0.00256719)
(86.5602 0.563671 0.000551864)
(82.3492 2.64161 0.000438702)
(84.895 0.569497 -0.000420157)
(83.0232 1.30268 0.000132087)
(84.0078 0.425927 -0.000976943)
(83.0951 0.586054 -0.000916199)
(84.0906 0.124791 0.000219413)
(88.6992 0.145718 -9.41349e-06)
(256.12 188.081 35.3705)
(-71.3527 32.7044 -0.924502)
(109.655 -13.551 16.5877)
(-45.9218 -7.97849 0.352918)
(104.183 -14.3082 3.34979)
(12.7524 14.9665 1.16712)
(95.4779 -4.75551 0.34873)
(61.8806 11.7009 0.146885)
(87.4812 2.24831 0.0418171)
(75.4145 7.42848 0.02256)
(85.2349 1.79758 0.00592995)
(80.1356 4.33971 0.00407667)
(84.3076 1.10623 0.00175753)
(82.0805 2.46232 0.00102241)
(83.6368 0.706051 -0.000279599)
(82.6351 1.20478 -0.000300782)
(83.3122 0.652373 -0.000545589)
(82.7727 0.588447 -0.000387604)
(83.6621 0.264798 0.000899524)
(88.4629 0.136432 0.000328735)
(181.104 111.18 21.8226)
(6.75515 49.6656 11.6159)
(143.05 44.8878 3.56983)
(78.4989 0.795539 17.2869)
(136.293 -19.4033 12.3945)
(73.5135 11.3367 3.04451)
(98.7334 -35.1755 1.0644)
(66.9625 20.2548 0.19241)
(86.4451 -11.2407 0.0466091)
(74.5903 10.0419 0.000599689)
(85.6551 -4.07022 -0.00833517)
(79.5979 4.70597 -0.00518642)
(84.5033 -1.66269 -0.00368059)
(81.8002 2.32026 -0.0023838)
(83.5342 0.222343 0.000923511)
(82.752 0.964873 0.000215857)
(83.3444 0.350213 5.00383e-05)
(82.6874 0.540747 0.000724021)
(83.6264 0.131439 0.00131715)
(88.4736 0.0868299 0.000217627)
(236.821 -63.6853 67.2774)
(14.2797 34.5951 49.1434)
(144.463 7.59264 62.4172)
(23.0631 -9.41072 22.8166)
(110.931 -12.2056 19.0322)
(53.3627 37.083 2.89487)
(86.9047 11.8539 1.688)
(52.3863 -2.36951 -0.14567)
(80.082 7.16846 0.212474)
(72.9832 -7.37216 -0.067009)
(83.8414 1.01161 0.0876167)
(79.4681 -3.06184 -0.0179055)
(83.5834 -0.904898 0.021192)
(81.4177 -1.81472 -0.00353436)
(82.8401 -0.287708 -0.00417538)
(82.7186 0.862849 -0.00340429)
(82.7645 0.770813 -0.00244272)
(82.5549 0.729684 0.00105254)
(83.303 0.266197 0.00295479)
(88.28 0.125437 0.00132232)
(285.048 43.059 42.9443)
(113.916 14.8456 19.9108)
(162.691 -9.7305 30.9407)
(66.0865 -10.9058 13.3912)
(125.84 -16.8033 6.387)
(79.1143 3.11673 0.831581)
(103.76 19.0429 -0.356526)
(85.8848 -10.3989 -0.935792)
(85.8977 -5.30397 -0.181576)
(80.015 -6.58748 -0.0425963)
(83.1085 -1.86967 0.0163684)
(81.3933 -3.22958 -0.00684721)
(82.8006 -1.76201 0.00886455)
(82.1511 -2.33956 -0.00521014)
(83.2764 -2.6174 -0.000945723)
(82.2715 0.0675558 -0.0152285)
(82.1804 0.454027 -0.00943377)
(82.2017 0.392867 -0.00123384)
(83.2481 0.283237 0.00427652)
(88.3907 0.0686313 0.00251496)
(45.6396 84.1262 7.44221)
(-77.0343 -48.0326 1.07787)
(122.224 18.5183 25.0627)
(-4.79378 4.49007 12.203)
(91.5912 17.4799 13.2169)
(50.8933 19.1874 5.03161)
(77.5615 14.1535 1.95204)
(82.0488 2.84008 0.0465623)
(84.4915 -0.272098 -0.11387)
(83.1187 -0.620227 -0.0610329)
(82.7265 0.387425 -0.0252386)
(82.3817 0.836451 0.0189328)
(82.6511 0.766558 0.0637772)
(82.5961 0.776652 0.00243292)
(82.7109 0.550007 0.00634523)
(82.4158 0.811636 1.24392e-05)
(82.2119 0.181419 -0.0051606)
(82.1047 0.31736 -0.00306434)
(83.024 -0.0118809 0.000961046)
(88.2371 0.0749023 0.000756546)
(448.26 -94.2317 43.9374)
(201.744 -95.3705 61.5768)
(181.664 -36.1892 -2.853)
(28.5987 -6.1514 7.44761)
(124.767 -8.49482 1.25324)
(45.1254 -8.8907 -1.4938)
(72.3316 -6.9942 -0.981517)
(86.4047 -1.82975 -0.554188)
(86.1814 0.529747 -0.118056)
(84.7815 0.937853 -0.171509)
(83.7452 1.00087 0.160173)
(83.4715 0.425628 -0.131231)
(82.4438 1.12034 0.100011)
(82.9239 1.11513 0.110361)
(82.5324 0.705312 -0.0169001)
(82.0866 0.463067 0.00406134)
(81.9384 0.420939 -0.00313125)
(81.8938 0.137773 -0.00232004)
(82.9354 0.134735 0.000539767)
(88.273 -0.00554874 0.000466737)
(271 131.765 -15.6691)
(116.984 51.3566 -33.6982)
(117.403 37.9823 -34.4439)
(44.8556 13.6189 -12.5293)
(92.775 4.81126 -10.9599)
(53.267 -0.398697 -3.79093)
(94.5752 -14.2684 -1.61466)
(91.3439 -3.32696 -0.145674)
(87.141 3.5576 0.0853966)
(83.989 3.21807 0.0109964)
(83.3318 1.93751 0.00962729)
(82.6338 1.64564 0.0601256)
(82.4416 1.27499 0.0327041)
(82.4564 1.10437 -0.0468266)
(82.2874 1.06843 -0.00328336)
(81.6832 0.88664 -0.0116896)
(81.6551 -0.00518264 -0.00546935)
(81.7126 -0.0621129 -0.000708794)
(82.8028 -0.250727 0.00373487)
(88.2296 -0.0191298 0.00232463)
(265.041 291.167 -84.0213)
(-100.227 40.9316 -71.0839)
(147.609 74.3365 -62.2241)
(63.2277 42.507 -34.7539)
(133.543 43.3202 -14.0769)
(81.2688 -8.74599 -3.42073)
(93.6629 -1.4287 1.2477)
(72.4427 4.26963 0.670901)
(85.6103 3.0294 0.188756)
(79.499 2.84046 0.158856)
(84.6344 1.99106 0.037576)
(81.083 1.15767 0.0140691)
(83.1755 1.06852 0.00136693)
(81.3435 0.454264 0.0130452)
(81.8778 0.622237 -0.00978061)
(82.2764 0.25432 -0.0055655)
(82.1802 -0.110904 -0.00117632)
(81.9865 -0.242359 0.00159642)
(82.7735 -0.13275 0.00194918)
(88.1967 -0.0526879 0.000765397)
(96.3628 49.6429 -156.025)
(-90.5876 127.691 -48.3946)
(120.886 133.576 -29.7559)
(1.32719 55.6192 -19.1382)
(118.995 27.06 10.5873)
(61.2489 -10.498 7.37765)
(94.3791 17.2554 9.72762)
(76.0559 -10.2548 3.27543)
(86.9741 6.21434 1.54901)
(79.1217 -4.30021 0.378485)
(84.9848 3.42716 0.135085)
(80.9594 -1.34605 0.0318814)
(83.7406 2.07969 0.00826267)
(82.0708 -0.103211 -0.00335867)
(82.9045 1.02509 0.00128732)
(82.2544 0.159469 0.000183624)
(82.3945 0.119508 0.000346783)
(81.7934 -0.0252844 -0.000268423)
(82.7547 -0.0172515 -0.00150222)
(88.2032 -0.0155843 -0.00160805)
(11.4856 221.983 -145.067)
(-66.3239 1.58521 -2.60652)
(165.602 48.8448 34.4629)
(105.125 -2.31916 32.3113)
(157.964 -7.13962 45.2592)
(89.2021 -10.1376 22.8392)
(111.822 10.2174 9.24089)
(83.826 1.68885 2.57205)
(91.8094 7.41999 0.947766)
(81.5582 1.84324 0.231237)
(85.0763 4.27527 0.0812662)
(81.3022 1.23601 0.019632)
(83.0764 2.50011 0.00669011)
(81.8602 0.71482 0.00170039)
(82.5844 1.22698 8.84927e-05)
(82.0452 0.43446 -7.3219e-05)
(82.1865 0.320839 -0.000149901)
(81.7889 0.0640801 -0.000824455)
(82.7266 -0.00155684 -0.00220146)
(88.2339 -0.014824 -0.00201965)
(43.8155 47.1318 -76.6056)
(-50.6954 -84.2485 19.3467)
(159.242 -31.0504 73.7989)
(48.488 -19.3483 39.0949)
(127.954 31.3627 32.4186)
(58.0207 9.2533 8.13973)
(98.1611 23.1319 4.3193)
(69.896 2.94082 0.943657)
(88.3294 10.4797 0.470329)
(76.3601 1.08567 0.102562)
(84.7969 5.032 0.0463619)
(79.289 0.720236 0.011269)
(83.3535 2.62424 0.0042707)
(80.8351 0.604749 0.0012233)
(82.6143 1.24383 0.0002236)
(81.5539 0.282187 0.00012179)
(82.1591 0.481731 -0.000136891)
(81.5541 0.126232 -0.000726762)
(82.657 0.15789 -0.00241074)
(88.1677 0.00732058 -0.00215776)
(105.202 -16.269 -112.871)
(-159.094 -47.2454 89.9605)
(124.463 -43.6291 61.4425)
(-11.2733 -29.0492 19.1535)
(121.785 11.0101 22.676)
(43.1496 -2.83039 5.30883)
(101.747 13.529 3.22513)
(67.1393 2.89137 0.466006)
(89.6174 7.93111 0.262067)
(75.535 2.30985 0.0187935)
(84.6373 4.08404 0.0163201)
(78.8 1.35184 0.00133136)
(82.9164 2.11421 0.000858799)
(80.4724 0.753093 0.000271399)
(82.3443 1.03238 -0.000169501)
(81.2704 0.423922 -7.46698e-05)
(81.8846 0.445892 -0.000187669)
(81.381 0.156622 -0.000592188)
(82.5287 0.0863293 -0.0021586)
(88.1217 0.0232405 -0.00212876)
(79.6549 -4.58259 88.5399)
(-139.11 -51.1278 13.295)
(148.218 -72.8461 -19.3656)
(-35.7947 -14.8807 -1.00342)
(120.247 -0.571135 6.22046)
(28.9143 2.07809 2.26604)
(95.3279 11.9123 2.82415)
(59.5301 2.93643 0.562019)
(87.2172 7.37211 0.365813)
(72.2093 1.72444 0.0600595)
(83.9958 3.80123 0.0296669)
(77.3451 0.917463 0.0059844)
(82.8136 1.93086 0.00213821)
(79.761 0.538168 0.000791952)
(82.2807 0.947873 -0.00011996)
(80.9085 0.285698 0.000168155)
(81.8655 0.434208 -3.95152e-05)
(81.2496 0.0872436 -0.000376699)
(82.4736 0.125164 -0.00202556)
(88.0536 0.000420199 -0.0021185)
(238.866 -45.9192 -74.9717)
(98.1175 -24.3999 37.5347)
(137.564 -43.9137 13.431)
(10.7836 -10.7213 -5.94971)
(119.35 -6.11162 -5.89016)
(35.8102 -0.459311 -2.34427)
(98.0995 4.76785 -0.868083)
(58.9142 1.77853 -0.213232)
(87.7189 3.61134 -0.0501914)
(71.3569 1.3473 -0.0134351)
(83.7231 1.98863 -0.000984711)
(76.8378 0.818029 0.000330338)
(82.5327 1.02969 -4.72359e-05)
(79.5061 0.461244 0.000433957)
(82.1365 0.50586 -0.000146448)
(80.7946 0.251759 0.000139208)
(81.7774 0.232767 -0.00029966)
(81.1908 0.107948 -0.00042553)
(82.4267 0.051997 -0.00185982)
(88.0221 0.0159637 -0.00207836)
(206.845 -102.695 28.6449)
(45.1519 -4.53996 8.39944)
(127.581 15.2341 14.7445)
(-4.88791 5.56442 -0.353349)
(114.967 3.16007 -2.22546)
(34.6457 1.69499 -0.752585)
(96.4493 1.76373 -0.469103)
(58.3104 0.600649 -0.0465236)
(87.1475 1.43544 -0.0116418)
(70.6452 0.187094 0.00479697)
(83.5265 0.856828 0.00441907)
(76.3427 0.072128 0.00252893)
(82.4092 0.459999 0.000683853)
(79.1516 0.0402872 0.0007819)
(81.9758 0.233821 -3.18014e-05)
(80.5105 0.0351507 0.000265982)
(81.6156 0.141491 -0.000212448)
(81.0093 0.0243068 -0.000402198)
(82.3027 0.0670244 -0.00187554)
(87.9186 0.00741404 -0.00213734)
(213.238 -65.2897 -80.6236)
(29.3099 -9.05068 -8.40764)
(176.46 -35.6431 13.1062)
(113.404 -0.785794 19.8778)
(135.683 27.0996 23.2448)
(90.3229 22.9963 6.57597)
(113.618 22.9589 6.40137)
(87.0969 11.9019 4.47553)
(102.929 8.85794 2.83436)
(84.1013 4.13386 0.922635)
(93.997 2.84934 0.37114)
(82.9462 1.63301 0.0916304)
(88.9408 1.05855 0.0333611)
(83.0949 0.803971 0.0076844)
(86.2177 0.485493 0.00259403)
(83.3213 0.438696 0.000739175)
(84.6627 0.246312 0.000136094)
(83.3809 0.22903 -0.00018154)
(84.4339 0.0956024 -0.000632989)
(88.8498 0.0779434 -0.00067651)
(217.752 -93.5993 -4.02245)
(70.8076 -82.3175 -0.860013)
(120.223 -61.4733 5.14074)
(20.7953 -9.07714 -19.7186)
(102.296 11.4937 -17.6601)
(53.3223 13.0801 -6.8488)
(103.231 10.6478 -2.33559)
(72.1226 7.90448 0.252861)
(98.4204 3.75002 0.340849)
(79.0151 3.27672 0.175448)
(92.4679 1.08392 0.0814281)
(81.4633 1.5002 0.0250245)
(88.3398 0.377252 0.00976485)
(82.6001 0.710425 0.00274509)
(85.9167 0.182677 0.000930131)
(83.1278 0.331228 0.000392268)
(84.5093 0.104671 7.2021e-05)
(83.3001 0.122294 -0.000165361)
(84.3637 0.0227423 -0.000530676)
(88.8299 0.0105752 -0.000578885)
(186.072 -63.7072 114.13)
(58.1983 19.109 1.32503)
(141.992 10.442 -5.39605)
(75.183 -2.36176 -6.8935)
(121.421 16.2715 -4.23744)
(77.306 19.3215 -0.455153)
(108.891 16.01 0.655767)
(80.317 14.2699 0.688001)
(99.4884 7.26768 0.445212)
(81.6361 7.426 0.165424)
(92.5042 2.97817 0.0772033)
(82.3636 3.8273 0.0217139)
(88.2621 1.38716 0.00846115)
(82.9687 1.99803 0.00219694)
(85.889 0.764589 0.000649155)
(83.3123 1.04665 0.000320124)
(84.5453 0.43594 -0.000246702)
(83.3882 0.501229 -0.00031215)
(84.4113 0.141255 -0.000366644)
(88.877 0.136094 -0.000511175)
(105.045 84.7614 102.615)
(-66.7314 23.8491 -28.0493)
(108.086 -14.3322 -32.9861)
(-15.0157 4.98724 -11.7084)
(100.873 9.32389 -11.8354)
(34.1385 14.1478 -0.334094)
(97.2598 7.44282 -0.0752761)
(62.7059 10.1635 0.306667)
(93.3394 4.58069 0.16683)
(75.3365 6.38803 0.0694722)
(89.4633 2.53115 0.0292193)
(80.0691 3.65453 0.00917919)
(86.6511 1.28625 0.00312016)
(82.0121 1.93122 0.000919007)
(84.9676 0.698867 0.000244301)
(82.804 0.950127 0.000219626)
(83.978 0.424212 6.50338e-05)
(83.0563 0.418564 -0.00017922)
(84.0659 0.163833 -0.000459686)
(88.6575 0.0908262 -0.000490901)
(152.936 101.503 23.9549)
(-29.8879 26.4234 -17.6159)
(109.356 29.3508 -14.3003)
(27.7363 14.5897 -3.82811)
(116.121 13.1998 -8.52565)
(57.6793 17.5801 -1.58844)
(104.336 0.569727 -2.57519)
(73.803 14.9019 -0.350833)
(95.3977 0.105537 -0.25627)
(78.4195 9.1981 -0.0279008)
(89.6362 0.508449 -0.0128532)
(80.9167 5.06367 -0.000179813)
(86.5584 0.563227 -0.000168823)
(82.3484 2.64129 0.000188436)
(84.8947 0.56961 -0.000200686)
(83.0231 1.3029 1.78658e-05)
(84.0078 0.42602 -0.000453841)
(83.095 0.586091 -0.000440316)
(84.0905 0.124807 -7.83711e-05)
(88.6994 0.145746 -0.000181319)
(58.0795 195.427 103.937)
(-110.106 -12.0303 -3.50291)
(101.053 -27.6375 10.4902)
(-45.6154 -9.82579 6.54716)
(100.785 -13.3636 6.29185)
(10.0449 15.0468 2.91077)
(94.93 -4.88755 0.940314)
(61.5439 11.743 0.333178)
(87.3961 2.25568 0.0734819)
(75.3784 7.43687 0.0273902)
(85.2258 1.8009 0.00502692)
(80.1329 4.34157 0.00210437)
(84.3071 1.10737 0.000416539)
(82.0806 2.46312 -0.000122693)
(83.6376 0.70601 -0.000430634)
(82.6355 1.20445 -0.000171228)
(83.3124 0.652278 -0.000261552)
(82.7728 0.588592 -0.000203428)
(83.662 0.264949 0.000239721)
(88.4631 0.136498 -3.02987e-05)
(231.726 -12.6506 -104.956)
(23.9035 -46.5375 -60.7334)
(124.429 -7.85564 -27.9719)
(57.0826 -7.8449 7.85808)
(131.765 -17.8204 8.66237)
(69.3516 12.1505 2.20966)
(97.6048 -35.6793 0.909875)
(66.3677 20.4311 0.220962)
(86.2876 -11.2407 0.0650151)
(74.5237 10.0556 0.0112926)
(85.6393 -4.06577 0.00439096)
(79.5906 4.70658 0.000242219)
(84.5016 -1.66201 0.000292051)
(81.7979 2.31843 -0.000414941)
(83.5324 0.223549 -0.000453554)
(82.7494 0.966747 -0.000501538)
(83.3411 0.3513 -0.000660451)
(82.6849 0.540934 -0.000292392)
(83.6251 0.131338 0.000172337)
(88.4738 0.0867317 -0.000167355)
(233.856 -160.984 78.3529)
(-30.4599 -9.82339 7.26104)
(121.876 6.65913 50.842)
(-1.62539 -0.873203 12.9327)
(108.735 -8.5055 10.836)
(46.5204 39.4414 1.92824)
(84.2506 11.219 1.52559)
(51.3922 -2.09193 0.503659)
(79.9362 7.17316 0.14657)
(72.925 -7.38685 0.0151426)
(83.8467 1.00982 0.0291283)
(79.4651 -3.06399 0.000135864)
(83.585 -0.904978 0.00714495)
(81.4133 -1.81222 -0.000818326)
(82.8427 -0.288878 -0.00321811)
(82.7183 0.864237 -0.00113772)
(82.7636 0.773912 -0.000933431)
(82.5546 0.730825 -9.25615e-05)
(83.3036 0.265997 0.000312819)
(88.281 0.125224 -7.82002e-05)
(240.39 -64.2523 35.9849)
(68.4765 29.5017 33.7496)
(145.634 -7.47752 27.6952)
(74.9467 0.371014 18.8452)
(133.384 -8.77175 6.33347)
(88.869 7.46313 -0.371558)
(105.547 20.7457 -0.238539)
(87.4448 -10.3091 -0.723638)
(86.0899 -5.42376 -0.155053)
(80.0275 -6.59149 -0.0159071)
(83.1135 -1.8627 0.00349304)
(81.3886 -3.22928 0.00473979)
(82.8038 -1.7629 0.00173761)
(82.1498 -2.3357 -0.00170382)
(83.2676 -2.61256 -0.00408535)
(82.2738 0.0665982 -0.00447534)
(82.1783 0.45424 -0.00181927)
(82.1979 0.393576 -0.000834774)
(83.2458 0.283636 0.000104465)
(88.3912 0.0688612 -0.0001276)
(30.8557 23.9484 3.66486)
(-73.7712 26.1078 1.59997)
(84.3133 42.5542 15.3985)
(-31.2071 23.1088 12.1659)
(89.637 26.7407 5.30086)
(43.3503 22.1599 3.61701)
(75.6383 14.3727 1.87738)
(81.9394 3.0015 0.319826)
(84.5686 -0.243519 -0.030301)
(83.1086 -0.471926 -0.00825815)
(82.9804 0.490707 -0.147418)
(82.2427 0.922398 0.165883)
(82.5222 0.856045 -0.0160941)
(82.4458 0.740287 -0.0355988)
(82.7051 0.548366 -0.00116192)
(82.4176 0.809292 -0.00395826)
(82.2155 0.181108 -0.00272429)
(82.1045 0.318174 -0.00135126)
(83.0232 -0.011001 -0.000458486)
(88.2377 0.0752687 -0.000410321)
(252.095 -165.908 -60.617)
(44.8942 -52.2441 35.2491)
(143.342 5.23706 35.044)
(4.4991 6.40218 13.6262)
(122.206 -5.36792 3.23538)
(43.4976 -4.57528 -1.02435)
(73.4289 -4.9426 -1.15237)
(87.1926 -1.43389 -0.65292)
(86.2728 0.559414 -0.0474746)
(83.5454 2.1768 -0.104194)
(83.6389 1.1918 -0.811625)
(83.2028 2.62879 -0.126191)
(82.655 0.202194 0.479274)
(82.3822 0.569385 0.246628)
(82.5018 0.695092 -0.0135372)
(82.0912 0.466276 -0.00222608)
(81.9389 0.422086 -0.00106815)
(81.8918 0.138042 -0.000438948)
(82.9339 0.134434 -0.000231577)
(88.2735 -0.00585684 -0.000423346)