/*--------------------------------*- C++ -*----------------------------------*\
  =========                 |
  \\      /  F ield         | OpenFOAM: The Open Source CFD Toolbox
   \\    /   O peration     | Website:  https://openfoam.org
    \\  /    A nd           | Version:  10
     \\/     M anipulation  |
\*---------------------------------------------------------------------------*/
FoamFile
{
    format      ascii;
    class       volScalarField;
    location    "5";
    object      k_0;
}
// * * * * * * * * * * * * * * * * * * * * * * * * * * * * * * * * * * * * * //

dimensions      [0 2 -2 0 0 0 0];

internalField   nonuniform List<scalar> 
12920
(
217.497
291.742
795.144
1014.87
1005.23
875.875
546.479
301.989
214.737
185.776
156.813
135.618
116.107
100.024
88.5974
80.229
76.2036
73.0124
71.6095
67.6806
2022.13
1588.03
1467.61
1078
739.37
485.454
317.033
248.281
207.129
191.269
175.507
168.838
157.745
148.513
139.294
134.949
133.443
132.789
131.695
131.334
521.78
1638.17
1569.07
1078.92
715.34
476.674
320.186
256.68
210.161
192.637
175.084
166.536
154.7
148.046
141.467
138.661
136.056
133.689
132.819
133.37
4141.55
3241.12
2207.99
1127.01
675.433
439.099
303.927
241.462
200.8
184.244
169.904
161.947
152.798
146.419
139.997
135.742
132.157
129.343
127.835
127.957
1201.15
3652.43
3168.63
1591
825.762
535.621
388.361
294.189
246.267
218.714
200.677
188.331
172.916
161.74
152.476
146.137
140.45
135.473
130.488
127.074
4299.44
3265.4
2086.59
1115.15
682.637
525.958
418.349
356.392
303.411
277.39
244.022
212.308
183.213
165.376
157.37
152.465
148.426
143.211
137.494
126.002
3335.17
2176.97
1316.94
972.295
745.276
548.324
436.558
381.98
327.929
280.852
232.548
193.316
175.699
170.955
168.639
162.837
154.217
146.07
141.172
127.688
1476.15
1984.3
1697.87
1164.34
912.29
725.009
468.185
277.705
223.77
165.549
149.769
132.148
130.109
126.174
206.319
174.4
156.033
145.624
141.451
130.593
395.804
2205.1
2462.61
1602.69
931.185
536.862
399.348
227.376
147.313
100.912
85.6869
90.3472
91.8164
83.9152
125.135
152.175
138.577
134.056
133.987
132.216
1175.42
1370.39
1250.59
846.571
555.162
300.34
261.505
221.963
164.521
93.668
90.874
75.9941
71.2641
66.6914
99.4634
154.155
140.616
133.013
133.44
133.756
1082.69
753.971
1012.85
1015.19
712.632
346.092
201.247
128.325
115.178
100.81
86.7184
92.6563
83.1817
75.659
123.593
188.708
164.865
143.216
134.113
130.65
795.843
352.128
804.844
1027.23
783.487
365.409
234.099
164.21
156.276
151.151
136.973
109.074
95.9746
83.1289
149.763
209.749
178.05
152.467
137.079
128.983
3238.82
890.366
765.492
796.737
686.76
598.021
368.029
254.488
220.698
191.619
173.258
163.351
153.147
149.384
253.19
215.848
188.194
165.214
150.451
132.8
1916.44
1560.64
1060.94
760.208
633.819
515.275
461.859
393.807
346.46
318.584
299.885
291.47
285.734
276.802
257.405
219.531
191.005
167.635
154.751
134.529
138.577
1472.37
1532.29
1036.2
647.767
489.168
418.463
402.884
384.377
374.531
354.229
343.093
328.431
307.815
268.713
221.55
184.61
157.14
146.769
129.909
7746.67
5004.5
3704.64
2211.69
1083.09
557.717
379.772
349.161
349.931
351.61
347.296
336.929
323.596
296.038
236.749
185.488
152.733
132.769
125.963
117.817
8223.3
7060.08
4218.71
2604.68
1301.46
632.658
431.256
393.372
373.916
357.278
325.11
305.216
288.097
260.095
213.744
171.88
143.953
125.614
114.037
104.599
3193.21
3376.72
2455.34
1611.98
1089.18
826.603
622.012
530.117
452.367
411.46
365.808
340.145
324.276
303.522
255.137
199.157
162.734
139.029
118.822
99.0707
2377.13
1416.06
1424.82
1090.91
818.907
632.449
483.955
388.848
310.89
266.638
239.003
220.584
196.428
173.627
157.116
148.49
147.468
149.566
148.684
131.096
847.015
864.976
977.325
801.878
579.77
451.705
337.463
258.313
191.355
151.54
123.877
108.724
94.4198
82.1433
76.3118
76.1105
80.7751
86.3758
87.361
83.6946
936.109
1674.39
2044.02
2036.99
1755.65
1190.76
706.099
499.887
415.797
350.036
299.724
273.437
253.315
237.447
221.608
206.525
196.879
189.414
187.004
180.446
2038.79
3933.4
3649.04
2375.52
1524.59
1111.17
745.734
641.358
539.508
519.874
484.427
472.345
439.504
425.365
404.331
400.574
397.583
397.63
395.507
395.108
3145.58
4653.21
4076.95
2549.15
1723.68
1174.24
803.098
676.608
552.587
520.792
471.646
458.904
432.13
423.521
408.32
404.553
398.109
394.518
393.284
395.181
6795.39
8746.99
5599.28
2651.46
1670.62
1109.01
803.605
648.242
541.631
507.292
467.498
451.791
427.112
414.965
399.39
392.292
384.72
381.61
380.836
382.675
8095.76
11081.8
7748.33
3568.04
1958.05
1345.54
988.314
794.468
660.332
609.793
552.941
522.168
476.548
451.363
426.217
414.106
400.934
392.384
384.476
379.967
9833.83
9118.91
5512.17
2689.18
1692.28
1354.61
1086.92
951.844
802.25
736.187
634.723
565.646
494.954
456.193
436.241
425.532
414.224
404.154
391.049
370.93
10626.8
5084.62
3662.82
2450.64
1736
1367.5
1133.6
1047.8
887.627
743.278
608.081
516.007
470.067
452.913
440.789
430.622
420.386
411.536
401.098
372.548
6690.72
6848.28
4475.4
2775.82
2160.39
1788.49
1373.17
1110.53
856.741
645.222
549.954
488.977
468.334
448.742
463.947
432.776
419.523
413.839
408.713
387.604
7143.52
6423.84
3663.31
2617.02
1999.15
1728.79
1443.02
1197.83
788.08
579.184
492.403
465.834
448.552
418.223
375.756
364.994
367.691
378.419
394.888
396.089
2364.6
3680.88
2479.28
1816.22
1293.32
1175.23
1225.78
1140.25
803.118
557.796
479.061
414.622
357.417
307.266
290.944
349.55
354.879
361.048
375.908
390.012
2479.26
3340.09
3445.79
3033.29
1648.96
1196.88
1005
847.685
658.605
562.586
483.213
397.739
348.279
332.348
357.278
407.941
395.797
377.43
373.971
375.462
2381.76
2320.7
3324.4
3186.45
1994.54
1331.68
1158.71
979.003
778.469
691.646
602.509
519.406
449.23
410.651
435.388
475.491
445.446
407.885
387.72
374.037
7898.71
3464.72
2397.21
2123.83
1677.28
1504.34
1230.51
978.985
825.619
683.543
629.22
584.361
558.976
543.187
589.478
549.242
508.708
462.505
427.95
385.243
9966.57
5037.79
2864.21
1859.15
1608.98
1384.32
1254.69
1044.98
925.924
848.935
798.626
769.943
741.314
704.381
657.703
590.812
532.685
481.264
444.604
389.325
6102.6
6634.6
4403.26
2438.81
1450.04
1305.83
1138.9
1123.15
1066.35
1018.61
944.786
895.344
832.198
764.488
685.972
601.03
522.201
456.756
421.574
373.488
13811.7
11805.1
6624.07
3672.54
1751.77
1270.72
1018.13
1010.89
997.567
989.276
955.332
919.991
851.291
761.769
632.767
520.772
443.099
396.876
377.347
347.92
34542.3
15462.2
6101.87
3697.82
1853.1
1398.91
1158.51
1112.53
1037.35
998.773
911.152
866.125
808.137
737.258
607.783
493.001
418.01
370.283
338.877
312.245
5755.19
5412.91
3701.23
2441.86
2194.91
1956.71
1532
1357.98
1188.06
1115.81
1006.62
955.41
899.751
845.573
713.119
565.049
467.268
406.552
349.792
299.607
1816.8
3071.22
3772.78
2501.61
1915.05
1453.77
1142.75
990.946
848.81
786.223
715.413
668.203
592.094
524.621
469.875
439.729
424.337
417.46
407.932
370.28
245.03
471.942
1634.68
1593.55
1188.97
865.463
627.126
465.426
371.666
320.493
289.594
262.248
236.369
212.367
200.016
196.948
194.881
183.225
168.541
152.892
4850.02
3873.45
2637.43
2126.52
1643.1
1069.64
708.724
552.549
450.312
372.104
327.193
305.775
291.307
277.009
266.655
253.505
247.442
237.686
233.09
220.421
3919.55
5605.84
4220.11
2627.6
1695.95
1245.42
914.625
825.453
719.379
695.082
649.137
634.376
602.286
593.784
581.017
580.085
578.557
577.005
572.763
568.058
681.913
5069.61
5571.7
3594.67
2240.19
1480.55
1100.39
916.021
781.942
726.567
663.109
639.225
606.526
595.248
581.361
577.226
570.357
565.621
561.64
559.097
13730.3
12359.9
7341.97
3515.23
2237.7
1450.09
1141.81
913.674
792.541
718.839
658.277
621.045
589.376
571.824
557.861
551.076
544.224
540.582
537.992
538.101
29718.1
18861.4
9300.12
4253.54
2543.56
1732.6
1345.03
1077.83
919.313
819.727
736.577
677.353
626.044
595.588
571.286
557.024
543.982
534.434
526.713
521.004
10478.9
10827.9
6290.58
3385.62
2364.05
1808.29
1492.56
1243.85
1043.57
912.718
791.211
706.891
644.603
608.621
584.216
565.089
548.228
532.214
517.09
498.249
12671
7730.68
5307.52
3662.6
2628.05
2139.41
1737.74
1444.87
1144.91
927.07
780.151
687.111
641.913
617.635
596.731
577.7
560.468
542.558
524.655
492.538
4572.59
7418.12
6118.93
4153.99
3039.76
2417.45
1986.69
1489.8
1177.68
888.864
761.091
677.829
643.18
611.375
606.474
583.014
570.841
557.987
545.232
510.322
7299.29
6660.14
5127.99
3723.12
2788.77
2344.13
1988.63
1504.13
1044.55
813.956
710.714
657.144
624.276
579.463
524.501
515.246
525.014
538.583
542.245
531.921
3405.91
6058.39
4262.77
2871.71
2094.46
1794.56
1713.53
1425.73
1004.22
783.182
677.577
587.006
507.1
443.613
425.924
480.9
495.583
508.245
522.576
527.684
7898.42
6588.18
5679.78
3668.82
2276.71
1689.05
1474.97
1188.38
932.32
805.893
545.58
375.585
409.502
443.933
478.08
517.68
509.081
502.305
502.952
506.701
12225.2
6957.41
6284.69
4449.85
2644.05
1888.55
1661.01
1307.95
1021.74
874.347
757.981
661.975
589.675
554.938
564.683
582.741
552.288
523.079
508.366
496.688
8763.7
6651.2
4453.86
3167.99
2489.03
2048.34
1727.77
1338.93
1102.54
908.529
833.207
768.19
735.068
705.726
715.633
667.72
621.534
574.141
538.627
501.085
15393.1
8060.73
5020.18
2999.41
2461.92
2020.02
1727.46
1447.02
1253.21
1134.11
1044.39
984.099
920.365
855.31
784.276
711.074
652.44
596.069
552.275
503.869
12113.9
11591
6596.61
3438.69
2403.87
2038.27
1766.98
1643.11
1465.02
1343.41
1212.5
1108.76
1001.54
898.604
804.485
721.101
647.179
580.421
535.895
490.857
14511.2
13719.4
7629.22
3778.32
2312.68
1937.22
1691.28
1612.01
1480.63
1382.11
1254.96
1146.74
1017.15
884.762
758.3
660.1
587.967
534.361
501.814
467.717
23289.3
10526.1
5788.12
3602.91
2486.86
2023.79
1732.73
1622.83
1473.68
1379.7
1237.33
1140.4
1016.24
890.857
752.36
632.734
551.03
494.226
458.609
429.436
10960.6
13169.3
9429.09
4708.35
3275.81
2539.45
1992.47
1767.14
1557.86
1439.53
1279.78
1179.12
1055.08
939.82
792.738
664.12
572.984
505.305
456.125
414.046
4970.08
7323.23
5773.33
3238.83
2364.69
1767.56
1444.57
1277.73
1144.29
1052.45
941.194
841.194
733.376
651.827
591.016
551.048
522.04
498.341
477.506
437.118
1950.34
2596.73
2582.5
1987.46
1333.85
912.24
653.151
494.374
428.738
375.702
343.367
302.136
268.718
239.174
225.396
210.179
188.042
167.632
165.732
166.077
2687.97
3030.81
2568.74
1864.73
1278.23
872.101
666.99
534.865
433.454
361.989
331.858
311.835
301.009
286.138
276.54
262.792
256.977
245.261
239.76
224.418
7108.28
7194.64
4666.35
2753.22
1885.24
1338.61
1098.2
964.479
895.487
846.105
806.737
779.133
757.311
748.997
745.45
746.646
746.573
745.445
740.682
730.485
4208.18
8421.83
7407.5
4026.91
2713.62
1711.13
1401.08
1117.76
1006.77
903.62
845.72
799.342
774.019
755.545
747.642
741.488
736.429
730.195
723.606
716.429
19707
15040.1
8902.82
4237.48
2827.47
1739.22
1480.53
1134.24
1029.23
896.539
835.016
772.389
744.906
719.463
710.366
701.304
696.82
692.465
688.01
686.013
19541.9
15371.8
10319.4
4796.76
3213.43
2067.54
1721.59
1332.24
1171.95
1000.92
908.669
818.339
771.805
732.192
711.756
693.496
681.923
671.326
662.509
656.817
25148.4
11962.2
7043.1
3857.08
3081.02
2183.52
1899.7
1494.72
1268.69
1062.62
940.674
838.454
787.002
744.949
719.317
691.646
672.866
652.622
635.381
620.207
25727
9225.58
6794.11
4319.46
3456.96
2706.37
2180.06
1690.2
1343.6
1079.91
943.531
841.703
802.431
764.944
739.571
709.008
685.643
658.344
633.624
604.768
11448.6
10569.2
7895.22
5135.12
3816.05
2904.03
2378.95
1678
1360.51
1046.46
920.611
829.772
785.942
746.024
744.667
721.595
704.541
682.124
657.961
618.01
17482.8
7708.29
6657.1
4566.5
3444.32
2795.66
2338.63
1627.66
1211.13
967.932
867.118
801.027
751.99
696.885
647.378
669.026
680.718
681.599
674.623
646.168
21760
7763.89
5984.94
3622.98
2722.56
2235.37
2040.3
1578.21
1140.37
936.563
826.722
719.392
624.213
560.008
551.479
621.129
640.085
652.978
657.69
652.924
17085.6
9421.35
7272.27
4172.3
2844.96
2077.15
1799.62
1407.32
1115.6
956.968
732.38
532.215
517.227
539
574.111
625.35
624.201
624.571
627.702
629.995
16361.9
9546.19
8414.72
5335.36
3315.68
2346.18
2014.69
1505.15
1166.66
981.072
848.492
743.73
679.388
648.824
648.475
675.725
649.401
629.764
620.061
612.754
13802
8691.94
6353.45
3962.88
3247.15
2544.09
2096.68
1575.54
1294.03
1074.39
984.394
903.477
860.992
814.102
817.211
765.264
714.895
671.289
638.363
611.53
22142.9
11629.5
6838.76
3881.4
3293.68
2562.47
2175.55
1792.62
1551.75
1378.5
1260.36
1162.58
1068.04
978.802
892.697
813.956
751.281
694.013
649.985
613.891
12557.2
14244.9
8243.22
4181.3
3309.41
2604.45
2335.05
2080.12
1836.33
1622.36
1442.72
1279.93
1138.22
1012.51
910.966
822.073
747.459
683.234
637.415
602.456
6912.88
13077.8
8730.44
4242.13
3113.07
2527.7
2308.03
2095.57
1904.46
1694.19
1501.97
1308.42
1134.05
975.993
858.671
765.784
699.527
646.709
609.47
580.416
24607.4
9560.42
6598.81
3979.85
3272.52
2553.32
2286.85
2067.81
1882.4
1691.03
1493.7
1304.77
1127.98
963.437
831.834
724.598
652.277
598.489
562.599
538.128
15124.4
12977
8863.63
5605.07
4110.09
3032.92
2473.14
2153.5
1920.38
1705.64
1495.9
1301.14
1125.5
965.778
832.329
725.68
650.667
590.762
548.227
516.275
9163.87
8949.11
7293.15
3854.5
2783.3
2020.58
1757.79
1552.23
1424.05
1251.59
1098.57
930.05
811.159
721.968
668.059
628.904
596.755
566.272
539.339
507.343
4915.29
4070.63
3481.42
2494.32
1486.86
886.434
636.45
498.275
450.668
384.624
343.636
287.034
254.003
222.197
201.234
176.488
165.99
164.175
169.537
167.03
4993.57
2588.9
1805.58
1301.28
951.384
739.606
587.212
463.186
371.675
324.164
305.737
283.161
270.723
253.071
242
229.481
223.291
210.351
203.802
185.786
21690.9
9590.93
6081.36
3165.05
2619.15
1634.55
1688.52
1332.04
1400.13
1213.29
1241.41
1141.92
1159.5
1120.48
1138.03
1127.24
1134.73
1129.37
1117.37
1097.25
18447.1
15296.3
10402.5
4976.81
4051.42
2250.56
2182.38
1606.88
1576.18
1315.45
1302.57
1179.92
1182.82
1131.2
1139.6
1118.63
1119.29
1109.53
1094.71
1082.26
22570.3
16975.2
11209.7
4924.83
4064.44
2235.34
2224.7
1599.09
1574.87
1287.03
1261.92
1126.49
1121.98
1068.99
1072.86
1053.42
1055.17
1048.85
1038.64
1036.52
27171
15855.8
11935.6
5347.96
4708.73
2734.29
2595
1883.75
1774.89
1414.62
1350.18
1170.71
1149.11
1075.92
1067.07
1034.36
1027.1
1011.45
997.431
992.363
35862.7
15204.7
9232.38
4422.56
4479.36
2874.29
2758.73
2022.57
1823.26
1419.74
1344.14
1175.12
1148.94
1082.17
1058.46
1011.41
994.28
965.472
942.872
932.544
25803.5
10740.8
8710.32
4537.9
4906.66
3467.98
3041.53
2162.2
1854
1452.16
1372.11
1208.64
1191.55
1124.65
1099.26
1039.17
1008.41
963.304
928.469
902.808
34692.3
12183.1
10409
5752.01
5304.78
3716.44
2825.38
1952.88
1654.21
1300.29
1204.31
1089.67
1049.76
991.383
1113.51
1068.17
1034.03
992.339
948.78
908.852
12049.9
8547.59
8369.51
5017.13
4423.92
3324.17
2785.75
1813.2
1447.67
1198.53
1111.84
1032.25
969.041
903.431
897.775
1043.86
1032.91
1014.39
982.243
939.933
16949
10553.8
7601.22
4154.73
3731.42
2697.12
2476.9
1832.09
1388.34
1170.9
1038.74
906.217
815.558
770.442
805.208
983.558
985.969
989.708
981.517
956
21076.7
12147.4
8662.85
4789.59
3653.5
2486.78
2184.98
1727.03
1402.39
1163.34
958.878
758.682
707.547
739.136
796.665
949.911
937.767
941.822
941.254
935.644
18786.4
10880.8
10544.4
6136.51
4391.5
2887.12
2478.95
1807.97
1424.18
1180.19
1012.32
897.347
859.11
829.897
848.45
977.559
939.98
930.228
919.831
914.053
29727
11532.8
8297.77
4638.3
4480.92
3223.91
2585.95
1884.3
1616.57
1360.77
1273.96
1164.27
1114.77
1035.91
1132.89
1065.31
1001.15
963.607
928.514
910.314
23518.1
14863.9
8994.06
4655.2
4705.83
3303.79
3036.85
2366.92
2171.29
1858.53
1758.4
1578.88
1462.18
1325.23
1214.51
1120.35
1047.13
988.408
940.2
915.24
18994.7
16353.4
10069
4879.64
4713.8
3273.89
3310.11
2780.33
2552.46
2143.82
1953.56
1691.96
1522.74
1356.1
1236.35
1129.19
1045.61
980.617
928.566
904.76
6739.54
12919
9997.38
4804
4535.65
3335.73
3372.05
2868.2
2707.62
2266.7
2052.85
1693.96
1499.55
1284.91
1172.37
1065.87
1002.49
947.302
902.568
882.219
19218.2
11407.9
7579.84
4443.47
4499.35
3185.04
3262.06
2764.61
2653.05
2250.77
2035.8
1659.24
1459.88
1232.35
1114.25
1004.9
940.835
884.853
843.054
825.661
12202.6
10891
10904.4
6664.72
5788.46
3791.53
3523.53
2865.95
2698.95
2240.56
2022.25
1614.85
1430.2
1194.73
1087.68
982.519
920.583
861.673
817.298
794.975
12488.7
12879
10127
4469.09
3922.3
2546.94
2581.79
2141.47
2058.26
1679.26
1514.77
1174.81
1089.16
955.576
930.724
885.1
853.883
810.558
773.998
749.56
7715.6
7397.71
4722.29
2951.16
1589.89
836.423
589.566
470.049
421.171
336.069
284.737
227.278
195.931
167.996
155.665
148.922
150.081
151.137
152.456
138.813
701.662
802.213
607.787
899.598
816.893
907.585
728.639
608.928
539.092
400.889
791.354
713.496
646.255
487.452
616.079
859.769
775.444
921.922
728.418
948.502
848.753
402.93
745.33
663.29
639.794
475.584
814.763
723.139
259.557
316.382
233.667
1115.44
1090.15
1109.56
1085.71
166.154
225.385
196.353
1032.39
768.663
1057.68
844.045
107.752
164.146
97.1142
677.005
519.957
728.681
500.148
85.7929
88.0437
84.2431
485.089
421.381
468.07
422.251
89.8096
84.6657
80.1975
413.091
403.126
411.423
379.543
92.7674
77.5779
71.704
399.555
392.746
368.954
340.084
86.6484
70.6243
68.334
389.363
372.461
330.576
302.588
65.7954
67.521
48.3494
364.006
349.954
293.074
258.62
226.86
214.472
158.844
999.872
1041.46
855.936
837.059
193.203
155.032
143.181
1012.41
823.93
789.889
647.626
102.498
136.032
112.467
719.449
507.469
606.342
513.109
91.2326
106.316
87.326
476.438
428.453
487.435
424.917
79.2075
82.514
81.2476
413.113
369.516
403.986
352.398
71.9045
82.7723
81.8648
356.599
321.183
338.126
300.209
67.5877
78.5909
73.3497
309.447
276.279
289.748
273.565
48.7149
72.884
57.3219
266.661
244.841
270.986
274.675
132.299
231.86
167.841
805
769.863
905.284
874.761
119.911
161.622
138.833
721.497
594.896
811.389
662.004
105.48
133.937
125.703
563.101
498.393
632.904
584.009
87.2752
126.259
132.2
480.582
435.687
574.841
543.378
92.4897
131.705
115.372
421.145
375.733
526.071
469.355
87.1227
110.465
98.5469
362.012
325.558
452.575
401.463
76.68
93.2435
81.1325
315.91
298.764
384.17
348.499
57.0533
79.6244
66.2047
294.889
289.49
342.608
341.886
169.911
301.952
178.066
942.653
909.892
923.029
897.05
157.651
159.684
150.555
847.75
709.816
836.841
735.69
152.334
151.178
145.863
683.994
631.935
707.968
622.983
142.618
141.001
116.023
616.788
563.511
598.091
530.431
113.767
108.214
103.176
540.714
478.1
515.231
483.947
100.403
103.366
100.197
462.155
413.531
475.259
445.702
84.4128
96.9626
92.0931
397.396
364.267
436.738
419.043
67.9102
91.0243
72.9265
359.282
356.062
415.848
424.641
1287.77
1371.26
1240.46
1868.55
1609.39
1751.25
1527.15
884.464
1196.91
929.54
1455.7
1084.1
1433.89
1076.75
621.138
812.097
585.595
992.799
816.654
971.769
772.757
504.883
551.136
493.733
766.552
682.964
734.782
659.461
472.678
479.639
442.312
665.02
627.184
640.463
591.328
454
430.347
396.893
616.397
595.664
575.751
531.324
427.804
385.779
352.382
587.216
557.212
516.8
472.503
389.317
341.148
291.513
545.49
518.146
457.199
408.285
1184.24
1024.71
967.085
1606.17
1462.63
1363.56
1243.7
909.039
910.616
742.121
1375.71
1061.72
1166.31
950.33
591.473
695.424
591.768
964.844
775.022
894.494
770.142
497.005
564.529
493.059
737.378
657.978
746.488
609.862
429.731
466.147
393.775
634.894
570.268
556.462
424.949
371.368
373.817
327.177
549.619
490.831
392.308
348.362
318.772
316.931
304.497
473.141
425.991
350.047
374.802
274.884
303.436
306.344
411.465
383.638
381.818
404.295
905.393
1132.8
1014.35
1371.96
1198.9
1523.16
1305.15
695.557
938.071
764.085
1120.47
923.452
1201.16
984.022
582.053
730.522
669.678
876.307
772.193
940.465
847.036
505.638
655.842
609.845
752.368
620.256
821.656
744.34
415.949
588.789
525.403
567.643
439.782
715.903
637.581
356.774
506.714
451.028
412.591
391.362
614.993
555.141
335.145
433.514
397.743
397.51
416.312
539.195
507.472
323.634
391.557
383.929
419.087
424.368
501.591
495.263
1054.28
1189.36
1056.78
1549.77
1351.14
1599.81
1386.52
810.562
979.991
843.861
1245.53
1021.42
1279.29
1075.83
711.207
805.205
700.876
975.465
870.429
1015.91
872.215
627.194
672.482
603.96
840.521
755.697
837.48
764.688
537.104
587.977
552.084
728.423
656.227
746
697.731
465.737
541.306
509.329
635.082
577.083
683.055
646.55
415.954
499.982
482.683
561.64
531.264
636.948
617.249
398.852
478.758
473.987
525.658
513.798
611.48
603.76
1672.53
1851.51
1588.12
2251.36
1792.55
2090.78
1726.36
1131.87
1479.35
1110.14
1600.11
1252.9
1579.61
1199.43
864.319
1010.37
819.52
1170.87
980.676
1110.92
936.56
729.704
781.222
703.85
930.157
849.267
898.419
819.294
668.861
684.064
632.061
828.406
779.12
798.099
738.67
633.968
615.511
568.224
765.081
733.13
719.099
662.015
591.713
552.789
505.856
720.597
681.044
643.58
590.915
547.711
489.861
437.53
667.848
638.13
574.787
533.756
1525.42
1466.99
1312.01
1953.86
1673.76
1711.06
1482.07
1096.92
1229.01
1003.11
1541.09
1190.23
1384.62
1137.16
820.906
945.609
816.636
1105.64
936.764
1075.73
945.161
798.973
753.223
786.199
824.564
757.627
794.371
827.6
667.422
654.535
662.786
717.567
630.277
693.478
701.695
525.392
364.152
344.938
687.884
617.713
451.858
441.683
458.306
357.956
398.717
597.108
545.238
452.776
479.397
413.061
407.385
428.903
531.64
509.454
486.666
507.537
1271.7
1635.78
1374.11
1722.27
1451.27
1891.26
1542.41
981.661
1264.14
1037.48
1355.16
1126.92
1418.45
1167.29
820.783
991.042
888.018
1071.46
950.308
1112.36
983.612
820.859
760.289
817.946
844.014
787.022
745.867
860.724
623.217
487.469
651.377
434.37
609.193
374.237
666.355
391.001
639.878
580.498
454.521
471.522
698.209
641.913
439.805
565.373
535.563
485.364
509.508
629.228
605.175
449.064
529.916
520.496
514.511
523.552
600.104
589.794
1420.52
1723.58
1463.4
1925.15
1588.7
2013.37
1649.8
1071.27
1349.32
1132.18
1457.77
1190.65
1516.67
1266.74
906.557
1067.19
914.759
1131.5
992.361
1192.21
1022.77
785.743
878.901
804.635
954.855
857.14
983.731
903.515
683.682
784.809
733.463
827.233
747.192
881.139
821.721
604.447
717.938
681.104
724.526
670.591
804.304
766.549
560.583
671.201
650.51
657.874
632.426
756.015
730.95
539.737
644.102
631.998
626.496
608.369
722.199
703.206
1820.92
2173.43
1767.65
2628.35
1937.41
2471.86
1935.02
1292.21
1610.88
1230.42
1740.34
1439.47
1751.4
1371.27
1017.68
1144.64
973.781
1362.56
1165.83
1292.99
1127.93
888.236
935.675
855.786
1116.16
1043.45
1087.26
1000.37
816.168
834.177
772.225
1024.38
969.694
976.837
904.345
765.714
751.386
690.382
949.441
903.334
878.616
810.059
710.623
670.987
617.602
888.152
842.208
790.729
740.278
664.232
601.943
560.659
825.591
791.315
726.224
693.306
1719.29
1789.16
1534.97
2325.57
1902.08
2054.17
1741.25
1222.84
1433.51
1180.5
1735.7
1372.75
1630.1
1365.2
973.84
1117.87
982.267
1294.45
1126.96
1296.73
1130.47
852.61
946.5
810.593
1085.22
990.308
1083.14
956.178
746.322
740.23
567.609
961.627
869.668
901.71
739.716
645.521
530.341
489.864
837.814
757.751
697.381
626.117
572.658
491.604
508.053
738.626
697.027
622.524
635.408
537.31
514.432
530.499
687.21
671.167
641.234
650.967
1506.43
1973.02
1594.79
2057.64
1718.46
2242.54
1803.44
1172.84
1467.09
1208.33
1612.18
1364.44
1666.47
1386.16
986.599
1150.62
1013.35
1298.46
1132.89
1318.93
1145.24
807.513
975.675
870.791
1085.67
948.738
1095.41
967.17
562.051
835.66
741.45
891.472
733.026
928.175
826.198
511.632
716.188
661.171
694.384
637.137
800.091
754.923
534.209
649.376
627.359
636.511
652.766
749.073
735.958
545.467
622.364
608.756
657.57
660.39
730.336
709.256
1641.18
2116.96
1706.13
2322.61
1849.71
2460.49
1909.8
1228.39
1566.64
1308.1
1696.82
1394.31
1747.18
1468.61
1020.35
1231.57
1058.63
1325.1
1151.6
1393.68
1213.97
879.246
1018.35
935.888
1102.07
980.306
1167.19
1076.25
766.535
912.405
850.799
945.954
857.646
1051.48
982.121
691.334
832.59
794.618
834.375
792.453
960.666
920.908
655.034
783.61
756.664
784.676
763.834
908.884
872.894
627.117
746.854
723.378
755.789
725.64
858.714
824.118
2011.31
2628.47
2033.59
3638.62
2621.78
3544.62
2843.99
1521.47
1840.81
1459.06
2420.39
2308.24
2633.03
2333.76
1249.11
1383.33
1215.75
2277.08
2085.3
2299.69
2094.63
1128.6
1173.13
1082.23
2042.48
2084.61
2041.7
1968.73
1055.23
1057.74
979.81
2110.52
2037.26
1953.82
1882.66
983.852
952.02
887.092
2016.78
2012.41
1875.18
1978.37
921.541
869.81
821.423
2032.14
1966.13
1978.37
1934.09
862.154
807.687
769.9
1962.78
1961.73
1929.71
1985.69
2006.19
2188.81
1854.85
3310.55
2849.23
2979.33
2776.03
1465.94
1741.2
1471.48
2667.58
2384.69
2683.82
2467.25
1215.33
1398.85
1216.52
2314.8
2082.59
2351.97
2061.27
1068.99
1162.95
1024.49
2024.16
1919.57
1980.08
1800.49
940
970.612
806.801
1891.03
1786.55
1737.67
1542.2
829.886
762.949
695.129
1771.39
1882.74
1514.09
1656.91
779.513
696.058
719.365
1930.58
1904.33
1766.97
1850.02
748.229
725.076
725.403
1902.52
1960.15
1857.52
1909.47
1834.06
2374.46
1920.02
2892.25
2766.48
3128.89
2848.72
1473
1780.29
1491.81
2687.86
2481.37
2722.61
2486.45
1217.79
1419.76
1227.87
2363
2058.27
2391.83
2077.73
1014.96
1171.81
1031.46
1973.45
1779.12
1992.47
1827.38
798.827
990.639
884.899
1715.28
1530.6
1784.8
1679.33
704.358
858.579
822.042
1507.78
1661.66
1678.95
1829.63
734.364
821.325
812.071
1772.44
1856.53
1892.72
1881.29
733.314
805.683
775.57
1861.41
1911.4
1876.74
1898.14
1966.05
2633.69
2015.73
3362.88
2879.59
3547.51
2706.3
1495.41
1843.62
1560.29
2718.8
2452.52
2544.52
2384.43
1235.03
1487.85
1304.32
2399
2103.55
2373.82
2186.92
1048.07
1253.39
1160.12
2021.56
1881.03
2133.95
2095.54
920.685
1134.88
1062.26
1848.3
1765.14
2099.2
2013.35
864.038
1038.74
998.691
1768.29
1911.53
1994.56
1974.31
838.809
986.131
946.232
1917.33
1892.74
1979.29
1916.09
791.188
929.989
886.931
1885.82
1921.93
1909.3
1872.7
768.789
726.397
695.677
742.322
727.373
767.492
736.026
808.451
788.548
765.354
841.323
764.966
831.187
762.045
763.053
672.385
692.753
514.615
722.269
706.547
628.611
836.925
862.893
868.814
902.814
832.503
866.038
872.669
808.068
780.604
842.217
812.833
805.881
775.534
844.597
844.667
870.941
907.033
871.19
869.895
787.013
878.148
806.025
549.549
797.55
816.645
750.851
660.567
845.57
631.114
631.384
565.926
645.298
596.827
669.097
598.036
595.22
621.305
476.55
437.87
572.263
648.793
372.858
529.525
478.369
426.341
334.78
519.914
488.056
332.719
705.308
755.425
765.723
778.042
730.488
740.676
742.148
667.774
680.04
739.743
668.576
705.165
632.503
705.133
636.27
468.425
742.688
584.907
692.083
406.909
688.493
570.017
357.586
584.351
535.405
525.783
361.485
633.506
765.896
691.128
695.453
511.938
742.949
617.447
712.447
847.745
837.291
832.614
892.508
812.059
875.405
863.213
816.047
751.503
804.908
802.421
783.657
780.534
833.539
861.582
880.351
889.29
929.647
793.177
897.834
899.512
806.428
546.222
819.309
798.808
659.981
750.276
853.834
880.031
921.485
939.598
915.452
909.089
890.371
908.726
846.339
826.493
833.92
882.544
808.098
859.027
873.756
595.352
434.744
550.279
333.799
578.398
349.99
561.2
708.007
717.572
715.923
770.92
684.066
743.892
740.249
676.297
626.43
688.582
685.413
654.24
646.966
711.727
652.228
461.974
568.908
743.354
402.198
699.232
691.756
619.53
360.668
505.818
612.934
370.683
582.438
649.924
730.74
793.73
792.785
781.831
768.912
761.889
752.757
696.819
704.991
685.17
751.13
666.275
732.225
716.724
358.284
471.226
372.397
703.945
706.918
761.671
802.844
247.644
304.802
245.399
671.738
571.228
777.511
664.888
192.679
204.461
179.508
509.341
462.692
536.083
484.464
159.203
153.942
143.463
408.292
365.286
418.924
385.287
137.885
137.211
134.959
349.825
343.991
369.708
367.623
131.675
135.272
137.353
339.454
329.681
363.662
362.126
128.088
138.852
138.507
333.293
334.05
359.167
353.623
104.904
136.358
112.724
332.987
358.177
337.777
354.82
510.78
485.005
440.439
949.718
988.223
896.031
962.995
527.696
333.295
355.685
513.485
518.706
515.695
294.041
556.054
209.024
217.973
504.851
484.565
562.897
207.155
327.439
129.144
145.144
323.806
278.213
388.066
125.008
218.163
92.997
87.2459
209.979
196.359
232.178
81.422
213.543
85.3684
78.5094
182.896
185.222
210.555
79.5312
222.506
90.9564
83.8154
203.328
209.98
221.537
84.8809
212.846
90.6219
83.8129
224.37
225.192
217.161
81.7826
190.122
81.4823
75.0971
218.14
215.259
193.908
73.9066
98.3226
103.718
74.6117
274.871
288.924
228.136
238.998
299.549
274.317
274.978
588.895
743.138
574.822
715.234
462.704
238.94
222.48
425.491
512.438
375.517
202.727
547.941
216.952
208.245
584.815
578.982
557.607
204.953
366.806
139.44
157.243
442.205
371.151
419.357
138.137
266.009
90.9539
102.052
255.976
249.26
273.301
99.0359
222.883
87.9552
90.9493
240.565
230.269
237.56
85.3511
189.229
73.9674
74.6152
199.094
192.572
193.185
73.9745
169.329
70.3653
72.6473
177.353
172.205
175.364
71.0378
153.915
64.9868
66.8202
157.096
153.867
156.626
65.5508
73.3495
110.538
91.0181
213.754
229.446
236.672
266.853
299.396
354.1
322.126
648.786
693.621
679.317
746.717
350.919
163.435
202.978
322.41
355.498
329.646
165.065
332.877
126.816
120.336
370.958
359.579
344.861
117.008
283.281
112.586
107.197
308.388
297.539
291.924
104.87
257.224
95.1352
97.8224
262.865
251.443
261.518
94.9855
266.486
87.7
99.4871
234.715
235.527
265.798
102.765
247.675
92.3083
101.369
232.006
227.507
254.101
99.2861
207.645
79.7632
86.9193
202.311
195.267
216.67
82.9699
187.36
73.9796
76.7884
184.609
181.557
192.093
74.6687
98.8523
135.939
114.257
270.866
294.448
299.595
330.132
332.753
384.155
371.315
754.005
813.187
763.277
763.3
430.55
200.146
239.369
388.564
440.332
398.265
203.922
432.392
161.516
154.954
459.226
445.108
434.542
154.44
429.152
154.709
161.465
411.747
404.481
430.818
163.51
397.609
148.327
161.195
388.888
381.38
410.06
156.198
325.284
128.784
135.519
351.976
333.368
349.111
124.879
277.445
105.954
106.572
285.934
276.763
281.694
105.34
242.745
91.0664
97.8522
246.335
234.205
252.233
93.8729
225.234
82.6466
87.431
215.177
213.049
227.349
86.6917
121.005
153.233
136.794
332.008
357.795
350.8
363.546
294.443
370.169
287.162
671.121
705.789
661.066
736.033
235.554
252.361
241.225
678.941
648.971
721.011
662.722
207.463
225.246
198.019
597.248
545.996
617.52
553.573
179.153
181.554
175.858
501.756
477.628
519.104
495.533
170.035
172.177
168.528
463.835
453.353
481.27
466.299
157.026
164.03
164.106
435.445
424.367
454.809
440.332
150.68
163.318
163.719
414.701