/*--------------------------------*- C++ -*----------------------------------*\
  =========                 |
  \\      /  F ield         | OpenFOAM: The Open Source CFD Toolbox
   \\    /   O peration     | Website:  https://openfoam.org
    \\  /    A nd           | Version:  10
     \\/     M anipulation  |
\*---------------------------------------------------------------------------*/
FoamFile
{
    format      ascii;
    class       volScalarField;
    location    "5";
    object      omega_0;
}
// * * * * * * * * * * * * * * * * * * * * * * * * * * * * * * * * * * * * * //

dimensions      [0 0 -1 0 0 0 0];

internalField   nonuniform List<scalar> 
12920
(
57.8947
76.9887
128.649
142.997
141.857
131.543
103.192
76.7845
65.1099
60.656
55.7145
51.8148
47.9366
44.4986
41.8909
39.8762
38.8735
38.0551
37.6865
36.6323
202.586
177.682
170.828
145.914
120.653
97.6198
78.903
70.0028
64.0275
61.568
58.9892
57.8649
55.9202
54.2516
52.5446
51.7308
51.4481
51.3208
51.1082
51.0406
107.066
181.227
176.275
145.464
118.591
96.8409
79.4454
71.2368
64.4969
61.7888
58.9135
57.4611
55.377
54.1773
52.9636
52.4413
51.9459
51.4934
51.3296
51.4408
287.215
254.274
208.935
148.922
115.299
93.0221
77.4487
69.1015
63.0556
60.4317
58.0388
56.6665
55.0403
53.8791
52.6849
51.8807
51.1915
50.645
50.3533
50.3819
150.6
269.685
250.311
176.286
127.298
102.778
87.5919
76.2798
69.8469
65.8479
63.082
61.1041
58.54
56.6201
54.9806
53.8277
52.7686
51.8221
50.8593
50.1999
299.369
253.726
201.856
147.875
115.975
102.021
91.0195
84.0382
77.5527
74.165
69.5323
64.836
60.2323
57.2521
55.8678
54.9934
54.2565
53.2874
52.1951
49.9715
262.188
207.259
161.312
138.85
121.565
104.161
92.9919
87.0073
80.5906
74.5574
67.8207
61.8567
59.0278
58.2511
57.8513
56.83
55.2962
53.8152
52.8976
50.2931
167.628
198.792
183.294
151.715
134.46
119.873
192.4
147.909
132.93
114.284
108.824
102.323
101.587
100.037
63.9268
58.7715
55.6071
53.7321
52.9547
50.8684
76.2885
213.93
223.282
177.294
135.53
206.341
355.627
267.22
215.023
178.247
164.727
169.152
170.419
162.856
99.4792
54.9045
52.4106
51.5686
51.5554
51.2052
150.888
165.405
157.648
129.226
104.726
154.198
288.667
264.867
226.745
172.126
169.708
154.937
150.227
145.288
88.7476
55.287
52.7932
51.3629
51.4541
51.5119
145.035
121.327
142.685
142.144
118.594
165.715
252.667
201.423
190.694
178.36
165.871
171.485
162.153
154.791
99.0146
61.1511
57.1344
53.2547
51.5606
50.9064
115.793
81.3606
127.795
143.05
124.311
170.001
273.061
228.194
222.911
219.224
208.044
185.737
174.128
162.257
109.005
64.4402
59.3595
54.9306
52.1034
50.5696
238.947
128.377
123.39
126.04
116.753
108.954
170.935
142.032
132.208
123.144
117.241
113.799
110.213
108.863
70.8249
65.367
61.0349
57.1918
54.574
51.2911
194.187
175.915
144.911
122.817
112.167
101.104
95.7065
88.3682
82.8946
79.5171
77.1621
76.0836
75.3232
74.1119
71.4023
65.9096
61.4868
57.6125
55.3536
51.6212
60.955
175.399
174.802
142.279
112.959
98.3895
91.135
89.464
87.376
86.2458
83.8644
82.5323
80.7347
78.1108
72.9188
66.1892
60.4236
55.775
53.9186
50.736
391.38
313.958
270.76
207.92
145.088
104.3
86.5526
83.2592
83.4017
83.5966
83.0519
81.791
80.1315
76.5537
68.3724
60.5236
54.9499
51.2693
49.9611
48.3292
410.062
375.604
289.216
226.516
159.241
111.128
92.2502
88.3152
86.1449
84.178
80.2818
77.8015
75.5704
71.7318
64.9674
58.2593
53.344
49.8533
47.5144
45.5292
254.219
257.092
218.461
177.92
146.572
127.809
110.878
102.448
94.6663
90.3029
85.1455
82.1359
80.2029
77.5326
70.9615
62.6799
56.6961
52.4189
48.4567
44.2781
213.67
166.988
168.298
147.031
127.462
111.954
97.8826
87.7143
78.43
72.6698
68.8264
66.1114
62.3608
58.6223
55.7803
54.2514
54.0833
54.4766
54.3002
50.9225
127.221
131.784
139.571
125.951
107.035
94.5281
81.6625
71.4273
61.4615
54.724
49.5111
46.4048
43.239
40.3443
38.919
38.883
40.0937
41.4251
41.6382
40.7348
54.5488
73.9202
81.385
80.7824
74.4247
61.0664
46.977
39.709
36.2734
33.2889
30.8173
29.4508
28.3485
27.4447
26.5101
25.5933
24.9926
24.5192
24.3631
23.9304
150.676
122.188
92.2646
68.7124
53.2223
46.3893
40.2293
37.4009
34.0868
32.7221
32.1108
32.0233
31.8506
31.3535
30.4908
29.4929
28.6755
27.9709
27.508
27.2404
206.574
165.549
104.245
72.6456
54.315
45.4205
39.8869
36.5195
34.0078
32.5807
31.1128
29.9581
28.7655
27.7963
27.0989
26.5664
26.2399
25.9762
25.7217
25.6542
146.157
165.834
111.5
71.5554
52.8381
44.0753
39.2179
36.0163
33.5358
31.2567
29.1282
27.4433
26.3404
25.7733
25.6031
25.5288
25.5063
25.4723
25.4396
25.3787
177.151
179.971
136.766
87.4514
63.5889
50.708
43.7107
39.4729
37.0714
34.7497
32.5125
30.4081
28.7041
27.6254
27.0144
26.6274
26.3914
26.1611
25.9824
25.4533
179.509
168.515
117.02
84.975
67.6946
55.6396
48.4321
43.8059
40.1831
37.5169
34.9893
32.4085
30.6838
29.176
28.0778
27.3267
26.9341
26.5049
26.2755
25.4299
201.595
146.304
114.396
94.0074
79.4503
68.5005
60.8028
54.4101
46.835
40.3446
34.6878
31.3424
29.3558
28.6051
28.2513
27.7093
27.497
27.1893
27.0691
26.1735
161.07
176.24
145.183
101.014
77.3692
66.8781
67.673
65.0493
56.0502
44.3711
35.9151
30.9604
29.6409
29.177
27.781
27.7878
27.698
27.5251
27.6245
27.2702
244.133
190.606
146.738
101.667
74.3446
68.8807
66.1403
61.8157
57.4238
44.9005
34.5472
31.0711
29.8833
29.8224
28.5036
26.2097
26.1931
26.3012
26.7718
27.2218
127.763
134.478
121.44
86.0465
63.8057
56.5493
53.8727
51.5897
50.7528
38.2504
32.1723
30.7359
30.9148
30.7962
28.4653
25.4817
25.5575
25.6525
25.8133
26.371
135.039
129.475
113.102
89.2565
70.2732
63.9084
54.6586
47.3382
40.7877
37.4429
35.0417
34.6497
33.0843
29.3399
26.0948
25.7358
26.2291
26.1456
25.8076
25.718
152.853
131.639
113.401
84.3673
58.3852
54.8697
55.6851
51.6142
43.5878
41.2853
39.7927
35.2072
31.1891
28.4776
27.8044
28.8601
28.8404
28.4091
27.3865
25.8031
180.334
123.987
110.381
80.5332
62.4505
50.6336
53.8138
47.7745
42.2387
38.401
35.9508
34.1467
33.0209
32.8145
32.0523
31.9949
31.4975
30.0957
28.9306
26.2001
202.698
146.473
102.864
76.3866
61.338
53.4411
46.7245
43.8631
39.7812
38.3441
36.6048
35.9354
35.4733
35.0256
34.7081
34.2032
32.9526
30.6709
28.9688
26.0441
147.636
150.188
109.726
85.6414
72.8576
63.2889
54.7973
49.1495
44.5672
42.0981
40.194
39.1709
38.279
37.4465
36.5084
35.4431
33.4629
30.1115
27.4492
25.1201
193.284
174.742
119.59
103.801
86.9173
70.0738
59.0386
52.4285
47.6771
44.72
42.4908
41.3072
40.3761
39.1973
37.7598
35.296
31.9531
28.4623
26.0796
24.2116
453.574
259.755
180.099
145.425
93.6755
60.9379
50.1593
46.6817
45.2072
44.3078
43.3213
42.8814
42.579
42.1312
40.8994
36.5842
30.8868
26.9226
24.9915
23.1428
206.735
187.05
146.699
115.844
85.4825
63.8
52.7503
49.1298
46.3248
44.9779
43.3166
42.8742
42.8839
43.4031
43.5209
42.1862
35.8385
29.4252
27.2565
24.2018
183.961
118.483
97.4553
78.0172
63.1387
53.9752
47.1197
42.8968
40.347
38.951
37.644
36.2189
35.0665
34.1988
33.2663
31.2295
29.2021
28.3955
28.5719
29.0463
26.1763
39.2223
72.8681
71.1866
61.2219
52.2891
44.5007
38.3494
34.2965
31.8701
30.3056
28.8358
27.3719
25.9494
25.1952
25.0092
24.8719
24.0942
23.1075
22.0169
125.475
110.708
91.3206
82.0485
71.9223
57.8761
47.2089
41.7909
37.745
34.3267
32.2137
31.1563
30.4086
29.6517
29.0903
28.364
28.0232
27.4649
27.1966
26.444
138.597
115.352
83.7628
60.7374
50.2498
42.9089
37.6368
34.2349
30.4706
28.9883
27.6209
27.3561
26.9666
26.761
26.262
25.9488
25.6324
25.5125
25.4802
25.5814
88.4194
130.864
110.351
66.4064
48.6993
38.3353
33.5033
30.5347
28.2373
27.051
25.6609
24.9873
24.1885
23.8213
23.4726
23.3356
23.2261
23.221
23.2278
23.3422
189.199
174.536
109.803
61.9353
46.1142
36.5398
33.2316
29.9865
27.9463
26.0056
24.4044
23.2928
22.6259
22.3692
22.3217
22.3519
22.427
22.5252
22.5697
22.6629
336.445
232.18
125.245
72.3762
53.5753
41.8206
36.7548
32.9663
30.6374
28.3294
26.4079
24.829
23.7887
23.2429
22.9573
22.8623
22.7789
22.7169
22.6121
22.4043
142.771
151.51
101.515
72.7521
59.0194
46.4487
40.4767
35.7702
32.2928
29.6697
27.4533
25.7695
24.7127
24.0914
23.678
23.3739
23.1586
22.8934
22.6953
22.164
173.287
137.005
107.583
85.4431
69.7315
59.2459
50.0346
42.2331
35.3876
30.2897
27.0142
25.2333
24.5198
24.3199
24.2442
24.0667
23.9313
23.6298
23.3828
22.5851
103.871
134.692
122.556
91.1923
68.6209
57.7345
54.1478
47.4695
39.663
31.7186
27.5592
25.4512
24.9531
24.8846
25.4354
25.2117
25.0615
24.789
24.5931
23.8061
180.414
129.279
103.197
75.9349
58.4465
54.1283
51.3595
45.8189
38.7454
31.3385
27.3024
26.0084
26.0181
26.1874
26.3358
25.8495
25.4173
25.1061
25.0296
24.7114
134.008
126.941
93.5489
62.9526
47.5357
43.8518
43.2516
40.7705
35.71
29.893
27.7805
28.7678
30.1563
30.0394
27.5794
24.9532
24.6173
24.5338
24.5898
24.6965
180.768
130.561
99.6877
67.8105
50.2365
43.7811
41.1021
37.0042
32.7732
29.5709
68.3014
66.1121
38.3128
27.4144
24.0636
24.0554
23.9061
23.768
23.7534
23.8828
298.124
150.058
116.47
73.997
49.3604
42.5833
42.651
39.0013
34.334
32.3553
30.2672
27.6867
25.5243
24.3182
24.5214
25.1457
24.6824
24.1252
23.6361
23.2558
165.359
131.059
93.2501
62.6127
49.6923
42.2118
41.1105
37.0612
33.5505
30.4062
28.7099
27.4988
26.9698
26.8356
27.0305
26.6192
25.8829
24.8555
23.9727
22.8288
195.535
132.487
90.3108
61.3604
50.4582
44.0733
39.417
35.859
33.0218
31.4953
30.3411
29.8334
29.3652
28.9405
28.465
27.6645
26.5192
25.0577
23.8287
22.466
143.809
156.338
107.813
69.8876
56.8486
49.6235
43.5434
40.2265
36.7642
34.9657
33.3309
32.3355
31.3888
30.4379
29.4174
28.241
26.4966
24.456
22.9926
21.8902
176.423
163.068
108.474
72.6521
59.1991
51.6145
45.7911
42.0195
38.7088
36.9291
35.2488
34.2496
33.1118
31.6699
29.9345
27.7782
25.5256
23.5307
22.2264
21.349
263.537
160.601
119.178
81.5454
60.0317
47.8444
42.475
40.2318
38.3346
37.6301
36.6172
36.2425
35.6247
34.458
31.8179
27.8517
24.6574
22.5767
21.4642
20.5991
206.773
262.917
207.771
109.506
71.1265
54.5599
45.9054
42.7237
40.059
38.9881
37.5803
37.1777
36.7639
36.2578
34.811
30.8347
26.569
23.7926
22.5822
21.1681
134.704
154.767
112.196
71.3678
57.4769
47.5398
41.4189
38.1111
35.6156
34.5023
33.1101
32.2093
30.9381
29.6754
28.0538
26.5091
25.3405
24.7373
24.6478
24.5531
77.8117
90.9972
90.6422
79.1013
64.8338
53.6522
45.4181
39.5495
36.8659
34.5172
32.9972
30.9443
29.1819
27.538
26.739
25.811
24.4033
23.0511
22.9333
22.9599
90.3966
98.1879
90.0401
76.551
63.3236
52.38
45.9005
41.1333
37.036
33.8693
32.4524
31.4665
30.9118
30.1367
29.6244
28.8783
28.556
27.8959
27.5793
26.6786
165.065
142.025
97.0456
64.8158
57.4358
44.1887
40.7234
34.7964
32.7009
30.2626
29.681
28.9378
28.8824
28.7245
28.8006
28.8757
29.0721
29.377
29.56
29.9821
163.183
157.866
113.012
64.5797
52.1669
38.5433
36.1728
31.5023
30.3668
28.1006
27.4633
26.3656
26.1559
25.8333
25.8872
25.9194
26.0743
26.2833
26.4179
26.7208
231.282
193.4
118.408
63.8388
50.5282
37.144
35.5468
30.897
29.7001
26.965
26.1382
24.7472
24.6048
24.3813
24.5286
24.6418
24.9079
25.1157
25.2432
25.5103
208.293
171.53
124.486
69.582
56.548
41.6873
38.9268
33.582
31.9147
28.5702
27.3414
25.5958
25.2051
24.7555
24.7921
24.7884
24.8677
24.9147
24.9165
24.9651
264.857
136.648
95.5377
65.3975
58.7935
44.591
41.4496
35.3191
32.4197
28.9788
27.4976
25.9528
25.6012
25.2412
25.1902
25.0612
24.9964
24.85
24.6831
24.4982
281.827
131.534
105.43
76.9792
68.2444
55.0044
47.31
38.7351
33.7041
29.1429
27.5561
26.2293
26.2638
26.1645
26.2215
26.1012
25.9294
25.5636
25.2261
24.6761
184.111
148.992
121.109
84.5974
67.5282
54.9321
49.9738
40.0548
35.0731
29.7187
27.8791
26.9989
26.8507
26.9212
29.0372
28.0837
27.624
27.0544
26.6
25.6851
341.372
133.484
104.311
72.4837
58.9307
52.7373
48.7652
39.9845
33.9111
30.059
28.694
28.4855
28.5381
28.5827
29.6136
30.1179
28.9921
28.2442
27.8201
26.9742
330.972
117.636
89.1384
59.1449
48.2824
44.1269
43.8774
39.3881
33.6085
30.6693
30.1069
31.5296
32.1671
31.6371
30.6249
29.7311
28.6812
28.1982
28.0168
27.5989
227.421
137.406
102.712
64.4176
49.7476
41.6384
40.0216
36.5602
33.4692
31.5189
50.4399
48.9266
35.1207
29.3178
28.1886
28.2113
27.1848
26.9484
26.9821
27.0204
279.066
155.3
127.463
75.9664
52.9143
43.1939
42.0452
37.8269
34.2124
31.964
30.0205
28.488
27.4545
26.9216
27.7244
27.7831
26.6739
26.2083
26.0542
26.0695
225.045
129.315
92.7234
60.4568
52.7802
44.1665
41.5904
36.8436
33.7196
30.9945
29.742
28.7543
28.3823
28.0634
28.7359
27.6193
26.7892
26.118
25.5744
25.2437
227.965
145.737
96.2932
61.3424
54.9011
45.1766
41.586
36.5167
34.355
32.2885
31.4968
30.7312
30.2139
29.559
28.832
27.9145
27.0197
26.0435
25.2366
24.7522
142.751
163.274
109.158
66.9129
58.5347
48.2407
44.8473
40.8739
38.0714
35.8114
34.2287
32.8553
31.7235
30.4871
29.3777
28.1163
26.7775
25.5472
24.6789
24.2988
148.564
157.277
110.261
66.6143
58.0848
48.9208
46.1772
42.0065
39.9404
37.6811
36.1589
34.455
32.8931
30.9868
29.3497
27.5938
26.176
25.0329
24.2627
23.9773
287.426
130.384
99.0509
66.7873
58.8604
47.8877
45.3762
41.9804
40.678
39.0867
37.8962
36.449
34.7863
32.3476
29.8739
27.3123
25.55
24.3766
23.646
23.3602
260.347
226.35
150.171
93.1185
70.9314
55.704
49.2771
44.7678
42.6846
40.6255
39.2061
37.7087
36.1955
34.0006
31.5242
28.73
26.6509
25.2087
24.3232
23.7496
205.054
164.691
124.748
75.8028
62.7978
49.1293
44.7516
40.3159
38.6176
36.4173
35.0725
33.3314
31.8569
30.418
29.1518
28.2006
27.4731
26.9613
26.5285
26.2694
125.419
112.747
104.769
88.625
68.2831
52.8105
44.8438
39.7231
37.802
34.9146
32.9965
30.1505
28.3688
26.5351
25.2498
23.647
22.9444
22.8264
23.2001
23.0193
116.907
89.5874
75.2686
64.0065
54.7912
48.3733
43.11
38.2899
34.3133
32.0739
31.1587
29.9866
29.3206
28.3465
27.7195
26.9938
26.6259
25.8398
25.4324
24.2779
313.001
164.103
129.416
76.3459
85.0151
57.9171
69.0098
52.1564
60.6579
51.1636
55.8487
51.1392
53.6995
51.8273
53.4678
53.2154
54.2683
54.863
55.3369
56.0154
242.214
206.293
148.8
78.4173
84.3176
56.1799
66.0716
49.9462
56.51
47.5379
51.0257
46.4011
48.3641
46.3581
47.6973
47.1892
48.0264
48.3292
48.6246
48.9621
271.298
191.216
135.844
71.2033
77.0672
50.3275
61.6833
45.3399
53.081
43.8612
47.6136
43.0657
45.1876
43.5375
44.9837
44.7796
45.7003
46.0959
46.4223
46.8426
299.936
163.092
137.786
74.7535
85.5871
57.7127
66.3877
50.5925
55.2746
46.3968
48.7043
44.1941
45.8531
44.0797
45.347
44.9191
45.6327
45.7259
45.9119
46.0711
322.163
165.679
119.172
67.5235
83.4223
55.9224
65.0754
49.5378
51.9809
44.6295
46.1255
43.2674
44.6299
43.9675
44.7317
44.666
45.1523
45.2174
45.2423
45.2291
250.481
134.843
117.35
71.4881
89.7617
64.2965
66.2641
52.8088
52.1131
45.4096
46.986
44.598
46.5823
45.9408
47.0422
46.5883
46.7288
46.4042
46.0664
45.6044
378.14
149.787
137.533
82.5169
90.4081
70.8718
58.4803
45.4359
45.7637
40.5311
42.5429
41.1549
42.6963
42.2912
52.1144
49.5024
48.7846
48.2323
47.5636
46.6436
217.03
144.358
119.985
72.1635
73.5589
62.2907
60.1475
47.0424
45.8872
44.6582
45.714
45.9342
46.0691
45.9719
49.912
53.0257
50.4501
49.863
49.1611
48.0478
230.836
136.478
98.6998
62.8209
67.8758
54.8615
57.5286
53.8811
50.823
49.643
49.0651
49.4182
49.4888
48.9326
50.8336
52.6101
50.0056
49.7492
49.335
48.4435
251.012
151.893
109.72
69.1991
63.9244
49.8913
52.7674
54.7742
53.4726
49.1825
47.9891
48.1144
49.08
48.1964
49.4127
50.5609
47.9308
48.0656
48.0694
47.7841
265.22
173.931
146.919
81.3392
72.4867
53.9553
57.455
55.7823
53.2508
50.616
48.6927
47.7132
47.365
46.7361
48.3135
49.1405
46.6069
46.7653
46.7888
46.7077
346.409
159.699
107.511
67.1172
74.8174
57.1735
55.5177
47.8717
49.1375
46.3001
46.8086
45.3659
45.4312
44.2253
49.5737
47.139
46.1575
46.2445
45.9687
45.7779
221.798
168.838
115.419
68.3455
81.1147
57.5883
61.424
50.8264
53.1603
49.398
51.1773
49.5361
49.7089
48.478
47.5222
46.7592
46.3621
46.0711
45.5065
45.3215
232.152
175.458
122.318
71.3529
81.2039
58.4769
67.022
56.9092
58.2181
54.03
54.0713
51.7796
51.0395
49.2292
48.2618
47.1569
46.3296
45.7654
45.0695
44.9224
188.382
165.614
125.736
71.9518
82.7535
62.4938
70.0486
59.9139
62.7884
57.3885
57.8691
54.1898
53.0608
49.6942
48.5208
46.8367
46.369
45.7497
45.1313
44.9658
223.229
146.45
101.319
68.7238
81.6512
59.5174
69.9806
59.8106
64.2733
59.4073
60.2311
56.5371
55.0309
50.8758
49.2582
47.2562
46.4768
45.4758
44.6386
44.2558
199.092
155.884
149.153
94.8197
100.058
75.91
78.3426
66.7936
68.6442
62.5191
62.7558
58.2077
56.7514
52.2523
50.6712
48.5254
47.9098
46.8492
45.8705
45.2174
218.074
200.939
158.358
82.0681
91.3078
65.9427
74.8156
62.1366
66.4463
59.3176
60.7266
55.8385
55.715
52.8545
52.8591
52.1192
51.9313
51.218
50.3185
49.6961
160.378
152.959
121.303
96.2364
70.521
51.26
43.1829
38.6019
36.5469
32.6306
30.0318
26.8316
24.9185
23.0782
22.2244
21.7448
21.8313
21.9066
21.9959
20.9746
27.9105
30.716
67.5668
29.6045
28.8606
30.6715
76.8751
28.3506
68.2438
59.8081
28.9836
30.2251
77.0163
63.9851
64.2651
32.1381
31.1841
30.0383
72.2014
31.1902
30.2882
68.2134
30.8189
29.2074
75.4482
70.7761
30.0785
29.0158
285.639
317.027
271.854
82.2121
72.489
72.6227
63.095
228.299
266.963
247.956
70.2197
66.9907
62.1032
61.8739
184.205
226.289
174.671
65.8505
57.4217
61.1817
47.86
164.798
166.671
163.559
53.0577
42.6886
44.158
37.1548
168.772
163.917
159.171
40.1115
36.5304
35.8809
34.1651
171.34
156.54
150.598
35.5265
33.8378
33.901
33.739
165.471
149.506
147.072
33.4828
33.1791
33.7782
33.8102
144.237
146.179
123.571
33.0908
31.8862
33.7226
31.6827
267.902
261.574
223.956
63.4101
58.607
58.7342
54.5701
245.921
221.23
212.37
58.0282
58.3526
52.8971
48.6922
179.592
207.02
188.426
57.8512
46.4586
47.5776
43.6383
170.191
183.329
165.856
43.3474
37.1709
42.7689
39.1892
158.096
161.465
160.706
35.9762
34.3226
38.1568
36.3667
150.893
162.154
160.994
34.1114
33.9237
36.1796
35.7497
146.267
157.589
152.469
33.9185
33.6981
35.4831
33.5779
124.006
151.965
134.675
33.5122
31.3693
32.864
29.8553
204.489
271.844
230.714
65.6165
56.2084
68.0744
60.1076
194.531
226.354
209.975
53.53
47.0991
57.1722
49.897
182.542
206.377
200.177
45.8165
42.8008
48.2549
45.0789
166.23
200.651
204.985
42.2678
39.1225
44.5465
43.9764
171.397
204.44
190.934
38.2012
37.1099
43.646
41.1262
165.929
186.907
176.462
36.9697
36.3092
40.0039
36.6271
155.847
171.577
160.223
35.8522
33.1296
35.4752
32.2806
134.408
158.788
144.921
32.2558
29.5321
31.5586
29.5382
232.155
310.201
237.471
66.5983
62.0298
70.9438
62.1549
223.818
224.794
218.624
58.6381
50.5864
57.5441
49.5498
220.143
219.042
214.849
49.1081
46.8148
48.2572
45.9567
212.544
211.1
191.167
46.5337
46.1156
45.5355
44.0862
189.557
184.849
181.017
45.5984
41.9531
43.3427
40.2618
178.207
181.152
178.211
40.5127
36.7329
39.479
37.863
163.427
175.238
170.885
35.6048
32.717
37.4055
36.6431
146.773
169.886
152.147
32.1113
29.8935
36.5323
35.2942
63.2784
60.1977
55.4456
53.7668
50.8187
48.1406
45.0444
58.9896
54.9789
54.5331
48.7374
44.1549
44.3333
41.0964
48.9372
53.4546
41.8678
41.9917
35.5591
39.1377
32.6267
36.5354
38.8168
33.0717
33.2713
28.9818
31.0392
28.053
31.762
32.0301
30.5745
28.0861
26.6519
27.5283
27.0016
30.0329
30.3803
30.3616
26.3615
26.1962
27.0456
27.6658
29.8362
30.4743
30.6592
26.2098
26.3402
27.9166
28.3746
29.5908
30.6322
29.9021
26.3619
26.2107
28.3888
28.0599
51.8563
49.9317
48.3641
44.575
42.9923
41.3641
39.9087
51.5764
47.0196
43.3075
42.3587
39.6793
38.7837
35.392
40.829
42.2268
38.6018
37.9953
32.3574
34.4005
31.7541
33.1414
37.7517
35.055
30.9594
28.3202
31.2717
41.1984
30.8532
34.5549
33.9886
27.972
28.0373
43.1249
44.6494
30.8176
33.9182
33.4584
28.3451
29.3569
44.3775
40.2511
30.9122
33.0786
31.1213
29.6262
29.7754
37.8671
31.4358
29.7464
30.3986
28.0603
29.6818
28.4567
29.8037
25.8282
49.376
57.3574
52.7276
42.9255
39.8254
45.4857
41.7996
41.9559
50.2853
44.2151
38.4343
34.7319
39.9537
35.9871
38.0368
42.8675
40.3808
33.8383
31.9107
35.2026
33.6748
35.3446
39.9724
39.1198
31.0932
41.614
33.2924
32.2031
34.7789
38.6411
36.0781
44.5454
47.5388
31.7646
29.8961
33.7045
35.0597
32.1292
47.0342
38.9174
29.1679
26.9731
30.2227
31.156
28.5828
35.6829
28.715
26.2813
24.6915
27.4557
28.0192
27.1937
27.312
24.7026
24.3665
23.9106
54.3158
56.2207
54.0136
44.4528
42.8079
43.7561
42.1239
44.8404
50.6993
44.3878
40.8291
36.4482
40.2717
36.4691
41.5686
43.1609
40.6875
35.6456
34.0544
35.4301
32.9368
40.4948
40.1931
38.5865
33.6681
32.2019
32.3853
30.8524
36.3932
37.8548
35.2927
31.5269
29.2316
30.2906
28.6995
32.1103
34.6577
33.2131
28.5156
26.5914
28.2985
27.3656
28.929
32.8173
32.1199
26.0269
24.7901
27.1207
26.7098
27.6795
32.0327
32.0888
24.5708
24.2008
26.6734
26.6938
48.2339
46.4044
43.3877
48.9723
43.4691
45.1751
41.4773
40.7945
42.3985
38.3645
40.6517
35.5216
39.6867
34.5603
33.193
36.5098
31.1631
34.068
30.4854
33.1704
30.1466
27.9902
29.8911
27.5297
29.4646
27.8762
29.4649
28.322
26.1977
27.1433
26.9001
27.5884
27.1922
28.2193
28.4636
25.985
27.029
27.7994
27.1674
27.2619
28.7066
29.4053
26.1618
28.0586
28.5005
27.2991
27.3763
29.575
29.7636
26.0672
28.5084
28.1581
27.3949
27.2745
29.7381
29.307
41.6514
40.0664
38.6142
42.8768
40.4767
39.3248
37.4694
37.3212
37.4568
34.0836
38.8898
34.2864
36.2698
33.1474
31.0314
33.1395
30.7986
33.0277
30.2482
32.3732
30.6625
29.079
28.9809
29.9614
29.3023
29.3063
28.5758
29.3883
32.2303
27.815
30.0101
27.9172
30.8507
28.0833
31.0171
29.9089
58.4343
46.1061
30.6546
31.4532
59.672
43.4457
30.1904
41.6079
32.1253
31.4921
31.2036
39.4055
31.8999
28.6327
30.1492
25.8623
30.9475
29.6442
30.4086
27.2905
38.3167
43.4414
39.9597
39.4568
36.8902
41.3706
37.9767
33.5946
38.2181
34.6594
35.7503
33
36.502
33.7072
31.0865
33.9712
32.5508
32.3417
30.9898
33.1448
31.6882
46.5557
44.7544
31.2349
34.7998
34.7675
229.97
31.1815
50.7697
68.7379
43.057
189.456
42.7608
171.866
53.5995
43.9163
28.5503
26.4948
64.1637
41.4602
28.543
27.029
28.9685
25.8569
24.4588
36.7848
29.5409
26.5982
25.7368
24.7165
24.1818
23.7833
28.3639
26.4025
25.5758
25.325
40.8778
41.9164
40.3516
41.2174
38.7177
41.0989
38.5837
35.0613
38.6189
35.1775
37.0833
33.929
36.9549
33.916
32.776
34.1484
31.7264
33.2846
31.6715
32.9615
30.7886
30.8728
31.1806
29.7166
31.1683
29.7132
30.2713
28.9517
28.2995
29.199
27.8004
29.2741
27.9793
28.5569
27.5723
26.0081
27.4492
26.6295
27.5751
26.5084
27.3169
26.7339
24.4937
26.4197
26.0771
26.2269
25.6634
26.6017
26.3755
24.0544
26.0456
26.1259
25.5677
25.424
26.3333
26.2618
42.8303
45.8891
41.9183
54.2807
45.7341
53.3909
49.0734
35.1476
39.9319
34.7874
42.8562
39.9789
46.8686
43.1073
30.8888
33.5666
31.0923
39.9502
38.9451
42.7437
41.8423
28.8667
30.5202
29.5699
38.5021
38.5343
41.3468
40.7563
28.5076
29.5057
29.7602
39.0567
39.5052
40.8081
41.0337
28.5212
29.9673
30.5479
39.3773
39.1143
41.1694
41.6226
28.5884
30.6734
30.7707
39.2647
39.3586
41.6317
41.4583
28.2746
30.7268
30.1109
39.2314
38.9486
41.3453
41.3473
41.1273
40.0341
38.1693
51.5699
49.0825
47.2355
47.5122
34.7234
37.0229
34.1321
47.3086
44.0369
47.0924
45.8722
31.2356
33.4244
31.6347
43.638
41.9338
45.2723
41.7813
29.9997
31.4832
47.8559
41.2087
40.2223
40.7654
40.8742
31.1801
50.4722
49.5704
40.2364
40.6613
41.8479
42.2447
32.1508
47.798
39.5379
40.9211
41.8723
41.9174
42.064
31.8781
37.0513
32.0293
41.9436
41.7426
42.0345
41.3815
30.3518
30.9329
28.3094
41.5874
41.3915
41.0798
40.4409
37.5963
41.906
38.6611
46.9332
47.4258
49.2355
48.7832
34.0827
37.2988
34.7039
47.2084
46.242
48.1442
46.4946
31.8978
34.1577
32.5548
45.6204
41.9807
45.9917
43.0433
47.3242
31.9941
30.8841
40.8942
40.8562
41.8558
39.8098
51.205
30.667
29.6806
41.7138
41.8049
39.5074
38.7508
37.954
29.2634
28.0661
41.448
41.4771
38.7869
39.6433
30.2095
27.7522
27.0937
41.4347
40.8021
39.7352
39.4835
27.5658
26.9584
26.5593
40.5032
40.0541
39.3353
39.2
39.3737
42.0969
39.246
50.7215
49.2607
51.232
47.2597
34.8438
37.5903
34.5775
48.2029
46.1154
45.5026
43.1474
32.5204
33.6721
31.6371
45.6095
43.3635
42.9899
41.8572
30.4354
31.1089
29.7922
42.3607
40.4435
41.147
39.9195
28.8408
29.436
28.5584
40.1143
39.3091
39.8713
39.266
27.662
28.3101
27.7552
39.2835
39.6432
38.9448
38.3502
27.0091
27.6375
27.406
39.6266
39.3103
38.3302
37.8864
26.6317
27.3407
27.0643
39.1588
39.0867
37.6858
37.1108
49.7473
59.6609
55.2058
95.3099
84.6385
98.852
100.43
45.4302
53.0304
49.9152
84.3523
97.9151
99.9807
105.549
45.1697
49.7263
49.3693
101.144
103.126
108.068
117.608
44.9231
49.1882
49.1353
104.272
112.384
120.471
127.751
46.1111
49.2923
49.3427
115.285
115.041
129.504
130.781
45.7316
49.2294
49.1334
115.874
119.257
130.111
124.61
46.1191
49.0919
48.7674
121.581
120.769
124.327
124.208
45.1761
48.6418
48.2986
122.086
123.883
124.624
129.189
55.5322
53.1785
54.7091
93.7129
102.357
89.703
106.065
51.1484
54.5392
53.4322
102.781
108.069
108.144
114.781
50.0994
53.0447
50.4604
110.985
122.769
118.623
133.19
49.0038
49.1029
47.6973
126.18
133.479
137.259
144.987
49.2759
48.1881
48.4871
135.124
136.445
146.358
146.857
49.4873
48.5568
49.5683
135.508
127.858
145.024
133.416
49.0763
49.4918
48.9048
125.484
124.482
128.533
123.867
48.3571
48.641
47.6597
124.74
128.906
124.085
127.23
54.8045
55.3269
56.3284
85.3238
106.532
89.7334
107.052
53.8736
55.8289
54.1893
108.964
115.551
108.501
112.702
50.6616
53.6387
51.5131
119.344
133.625
114.971
125.004
47.6193
50.4228
48.4512
137.753
144.572
127.69
132.712
48.0175
48.1667
47.5057
145.8
146.8
133.73
134.631
49.1654
47.5414
47.6166
145.064
133.278
133.529
125.434
48.4562
47.6167
47.1627
128.334
123.606
122.752
121.549
47.3094
46.9934
46.3881
123.764
127.348
121.78
124.939
56.7214
58.1343
53.2933
96.1578
106.342
96.6904
89.8017
53.7391
51.5552
49.6977
107.094
110.869
91.4731
100.704
51.4362
49.8386
48.6976
112.245
120.184
105.161
106.211
48.9635
47.8836
46.7948
122.417
127.025
107.161
111.223
47.9084
46.8242
46.1889
128.105
129.036
113.585
113.449
47.4316
45.8163
45.2322
128.289
121.722
114.289
115.614
46.8922
45.2389
44.7591
121.152
120.923
117.084
116.404
46.2479
44.5457
43.5076
121.218
125.679
117.412
117.395
29.1983
28.2986
29.3348
27.9017
29.1311
28.084
29.8583
32.6128
30.151
45.4048
34.2227
30.7053
29.852
173.404
37.7779
35.7822
59.6604
207.39
32.6749
42.7937
227.117
29.1613
29.1896
29.11
29.7336
28.6019
29.2957
29.5712
29.4144
28.2153
28.8649
30.6004
28.2636
30.3544
29.7796
32.8449
34.7826
30.1245
48.1255
29.824
179.434
31.0891
38.776
215.242
39.1905
67.6218
44.7809
233.849
34.2703
33.6705
27.9962
32.7621
28.9196
31.8233
28.4592
34.7362
50.7315
38.6282
67.9386
191.288
41.1096
46.7481
174.623
55.5405
44.8603
65.4305
93.1707
43.8801
55.1428
114.391
33.1079
28.3048
29.3155
31.8853
28.5968
31.7134
33.1648
34.6133
29.5489
29.7585
35.2246
29.0523
35.6061
34.3533
53.6829
198.675
42.9051
76.4769
49.0722
183.274
46.2382
57.8309
96.2867
48.471
72.4215
56.6384
121.411
48.4506
55.4489
58.1411
42.4855
205.696
39.9186
220.814
55.586
31.6844
31.5569
31.773
31.3712
31.7382
31.0328
31.0266
32.8551
32.9117
31.4693
30.5584
32.3263
33.5013
30.7803
45.8429
35.6229
46.7802
31.092
224.678
31.1086
34.8401
55.1233
211.711
63.9435
43.4629
227.611
55.2926
40.5571
31.4677
31.0303
31.0445
30.7725
30.8306
30.6674
31.2422
32.6514
30.2409
32.5949
30.4755
33.34
30.4257
31.8965
46.971
72.4794
41.2718
125.999
42.0314
157.676
46.862
33.3585
32.9958
30.373
30.2599
32.8994
33.5205
29.8869
32.9246
32.0046
29.8231
28.8656
32.594
32.3902
29.405
51.2935
194.723
75.4757
44.3538
177.672
53.8209
44.0977
47.5681
119.434
76.9088
42.4401
153.63
47.1603
43.4093
33.319
29.9993
32.884
29.8067
33.4556
29.6872
32.8425
32.9386
28.7939
32.2209
29.443
32.4581
29.2696
32.641
168.077
192.958
171.476
109.007
92.1231
107.719
90.8268
139.803
155.052
139.053
84.1472
79.1658
81.8606
78.3797
123.155
127.027
119.049
74.1216
70.8912
71.9787
68.0228
112.181
110.299
106.582
62.2656
56.0155
61.1925
52.525
104.426
104.293
103.497
51.7104
47.1223
47.0148
43.4234
102.181
103.653
104.464
42.6593
41.9293
41.0816
40.1369
100.783
105.001
104.855
40.5404
39.4914
39.5783
39.4998
91.2543
103.998
94.545
38.888
32.3888
39.3472
32.8176
201.201
196.059
187.04
113.568
95.005
111.977
88.5539
150.671
324.408
335.751
179.847
156.583
178.781
305.061
107.197
256.003
262.318
119.574
114.551
112.72
255.492
98.6603
201.36
213.241
105.943
104.159
102.52
197.96
77.4048
171.205
165.685
92.4206
88.9746
81.6066
160.306
64.2152
164.516
157.787
78.7934
76.6638
66.2582
158.9
59.7729
169.737
163.04
69.8083
67.6062
60.528
164.015
58.3153
169.27
162.756
61.2277
59.7836
58.3053
160.745
58.9365
160.516
154.117
56.2447
55.7282
58.9873
152.926
88.0896
90.5897
76.868
35.4492
29.7579
34.9892
27.8714
154.3
147.401
147.915
91.0406
70.6736
88.4486
67.3746
116.64
275.459
266.122
139.583
120.652
136.776
253.892
93.4269
261.746
256.552
99.1006
96.9849
95.3252
254.192
84.6586
208.877
221.888
94.1662
90.962
88.3336
208.174
70.3054
169.915
179.684
73.3532
69.5993
74.0208
177.197
62.0715
166.619
169.432
61.7932
60.5246
63.2319
163.98
59.3325
152.949
153.681
59.4048
59.1599
60.0106
153.097
57.8972
149.252
151.697
58.4131
58.0204
58.3992
149.919
53.4736
143.364
145.464
56.3389
55.0527
54.9971
144.02
76.261
93.6138
84.973
33.9255
27.8127
33.7752
28.4029
154.307
167.618
160.116
100.646
79.4742
100.931
79.9374
120.505
227.399
253.862
139.118
118.647
139.98
228.671
86.2131
200.208
195.111
88.3902
84.5832
91.5656
192.468
75.749
188.548
184.199
78.2974
76.7293
77.8361
182.225
70.0237
173.215
175.928
74.0974
72.9066
71.9396
173.422
64.2297
167.045
178.126
63.8973
62.2425
64.3323
180.747
64.6423
171.093
179.218
61.9139
61.8934
64.8012
177.31
61.4622
158.855
165.718
61.1572
60.2858
63.1224
161.96
55.0177
153.042
155.913
55.6468
54.5879
55.9063
153.753
88.5748
103.871
95.1902
33.7073
27.4691
34.4505
29.2022
162.613
174.408
171.752
96.585
75.9703
98.891
81.7932
128.571
252.24
276.136
145.265
125.897
147.466
254.525
94.5274
226.388
221.724
96.9123
91.1311
101.838
221.441
83.8943
221.861
226.662
83.4278
82.3607
84.7505
228.031
82.8457
217.031
226.143
80.5224
80.2923
83.0755
222.478
80.8791
201.582
206.724
79.5101
78.4215
81.5055
198.3
70.522
183.15
183.738
73.5891
71.0559
73.7143
182.738
63.0074
169.608
175.885
64.6325
62.5725
64.8137
172.269
58.8714
161.833
166.399
57.6947
57.0278
59.299
165.725
97.9396
110.242
104.222
36.8202
31.7437
42.3827
41.1881
152.808
171.406
150.852
93.2695
76.7825
94.785
75.7465
136.631
141.446
138.384
65.122
60.2794
63.9432
61.1972
128.152
133.654
125.25
56.8166
54.0223
58.5397
54.4269
119.147
119.996
118.165
52.5715
51.306
51.5404
50.9037
116.144
116.943
115.676
49.3233
47.7753
49.9618