/*--------------------------------*- C++ -*----------------------------------*\
  =========                 |
  \\      /  F ield         | OpenFOAM: The Open Source CFD Toolbox
   \\    /   O peration     | Website:  https://openfoam.org
    \\  /    A nd           | Version:  10
     \\/     M anipulation  |
\*---------------------------------------------------------------------------*/
FoamFile
{
    format      ascii;
    class       volScalarField;
    location    "5";
    object      p;
}
// * * * * * * * * * * * * * * * * * * * * * * * * * * * * * * * * * * * * * //

dimensions      [0 2 -2 0 0 0 0];

internalField   nonuniform List<scalar> 
12920
(
-1.57911e+06
-1.48835e+06
-1.36304e+06
-1.18671e+06
-1.06061e+06
-932407
-827072
-729353
-648235
-570179
-503117
-436972
-377510
-319176
-264609
-211164
-159940
-108817
-59502.7
-16992.2
-1.80593e+06
-1.53588e+06
-1.36143e+06
-1.16889e+06
-1.04809e+06
-917116
-818850
-720923
-641380
-564433
-498003
-433026
-374432
-316782
-262694
-209693
-158818
-108056
-58983.2
-16835.3
-1.88498e+06
-1.53294e+06
-1.30077e+06
-1.11613e+06
-998632
-880935
-789326
-699863
-624888
-551583
-487606
-424731
-367830
-311524
-258679
-206633
-156567
-106537
-58084.3
-16506.1
-1.78111e+06
-1.38134e+06
-1.23363e+06
-1.05722e+06
-952538
-840080
-757515
-673157
-603530
-534252
-473586
-413439
-358543
-304347
-253000
-202398
-153434
-104454
-56852.1
-16075.1
-1.34347e+06
-1.16107e+06
-1.08055e+06
-953527
-875228
-781069
-710233
-636574
-574335
-511178
-455006
-398642
-346360
-294982
-245641
-196846
-149395
-101713
-55247.9
-15561
-919524
-925970
-911878
-832754
-786863
-712766
-657890
-596127
-541632
-485849
-434161
-382548
-333254
-284372
-237579
-190776
-144879
-98675.8
-53443.9
-14977.2
-672167
-737262
-772131
-725789
-708657
-647694
-604482
-552512
-507365
-457346
-411884
-364140
-319445
-273291
-228859
-184102
-139915
-95264.8
-51434.9
-14342.1
-698738
-599661
-657603
-618718
-611592
-575405
-567664
-530961
-490859
-447724
-405178
-361824
-318767
-276132
-220224
-177238
-134710
-91679.2
-49297.8
-13649.4
-680927
-463601
-532084
-512401
-536409
-529253
-523811
-495519
-462921
-426557
-388721
-349593
-310034
-270397
-223523
-170118
-129085
-87976.3
-47037.7
-12856.6
-376258
-330118
-467593
-455592
-473423
-471390
-469276
-451265
-426652
-396925
-364209
-329402
-293411
-256462
-212888
-162807
-123728
-84230.4
-44810.3
-12058.7
-159892
-236760
-334933
-365533
-417159
-417849
-423314
-412882
-394089
-369717
-341391
-310247
-277523
-243523
-202844
-155610
-118373
-80515.1
-42616.9
-11323.5
-156258
-212362
-338204
-341008
-383305
-384821
-389945
-381717
-366571
-345828
-321013
-293158
-262983
-231627
-193605
-148659
-113128
-76966.5
-40477.2
-10637.9
-202430
-192591
-319297
-314068
-365129
-358079
-363660
-354543
-340121
-321048
-298677
-273123
-245296
-216077
-175064
-142312
-108503
-73608.7
-38551.2
-10013.9
-426973
-291340
-364417
-337739
-362755
-351202
-348143
-332422
-319512
-297975
-277773
-252892
-227327
-198284
-168299
-136732
-104230
-70612.2
-36804.5
-9347.52
-493218
-300193
-354217
-343484
-362157
-347028
-341084
-326607
-311462
-291432
-270265
-245980
-220105
-192019
-162669
-132051
-100645
-68058.8
-35294.1
-8735.46
-569084
-338361
-385659
-358177
-366343
-345965
-337557
-319448
-304903
-283717
-263275
-238882
-213814
-186307
-157926
-128180
-97576.2
-65868.6
-34013.9
-8264.98
-587325
-374925
-397207
-364779
-367799
-343521
-338328
-318391
-303355
-281180
-259791
-234827
-209615
-182299
-154470
-125154
-95178.9
-64190.5
-33054.5
-7927.79
-797170
-424308
-421987
-376717
-370918
-344489
-334604
-314651
-298942
-276664
-255662
-230887
-206156
-179228
-151783
-122949
-93394.7
-62859.2
-32296.2
-7717.77
-606586
-367945
-426385
-368245
-378412
-347586
-338196
-314328
-298012
-274899
-253686
-228874
-204221
-177383
-149973
-121440
-92353.5
-62133
-31962.7
-7640.98
-400058
-407587
-422208
-367512
-376445
-346411
-335607
-312725
-296219
-273452
-252310
-227649
-203039
-176272
-149132
-120659
-91724.4
-61634
-31734.3
-7503.81
-1.55215e+06
-1.50743e+06
-1.36612e+06
-1.1869e+06
-1.06078e+06
-932214
-827183
-729463
-648364
-570277
-503145
-437026
-377579
-319156
-264623
-211167
-159942
-108809
-59498.6
-16994
-1.83212e+06
-1.54536e+06
-1.36196e+06
-1.16971e+06
-1.04844e+06
-917487
-818507
-720836
-641430
-564463
-498069
-433035
-374494
-316793
-262718
-209704
-158823
-108047
-58957.2
-16821
-1.82423e+06
-1.5381e+06
-1.30001e+06
-1.11651e+06
-998907
-881028
-789387
-699873
-624894
-551573
-487607
-424689
-367676
-311543
-258675
-206636
-156558
-106530
-58065.1
-16499.1
-1.6282e+06
-1.37101e+06
-1.2308e+06
-1.05736e+06
-952441
-840087
-757526
-673125
-603520
-534224
-473557
-413427
-358487
-304320
-253007
-202389
-153430
-104449
-56834.2
-16069.7
-1.45735e+06
-1.17834e+06
-1.08255e+06
-954902
-875480
-781108
-710292
-636556
-574296
-511147
-454997
-398630
-346503
-294911
-245636
-196837
-149384
-101711
-55228.4
-15550.1
-1.13954e+06
-943617
-914273
-834128
-786870
-712694
-657985
-596141
-541614
-485824
-434181
-382551
-333316
-284452
-237577
-190763
-144869
-98680.1
-53421.1
-14952.1
-686282
-731375
-774245
-726096
-708278
-647292
-604198
-552478
-507343
-457403
-411952
-364236
-319541
-273382
-228836
-184095
-139911
-95258.6
-51405.4
-14330.1
-609792
-581979
-658403
-618565
-611491
-575359
-568136
-530975
-490967
-447851
-405287
-361897
-318687
-276109
-220138
-177238
-134712
-91668.7
-49264.7
-13651.3
-584963
-452257
-539553
-513184
-537719
-529363
-524156
-495902
-463132
-426712
-388823
-349666
-310123
-270410
-223593
-170126
-129086
-87959.7
-47017.9
-12869.5
-375141
-352552
-475441
-456524
-473609
-471198
-469117
-451499
-426691
-396968
-364219
-329425
-293405
-256492
-213018
-162818
-123753
-84217.3
-44815.2
-12082.4
-124981
-238888
-336943
-366866
-418461
-418118
-423094
-412916
-394122
-369735
-341408
-310259
-277516
-243565
-203118
-155614
-118394
-80518.1
-42622.2
-11322.6
-144300
-227722
-339677
-342486
-384685
-385160
-389758
-381914
-366660
-345845
-321036
-293190
-263139
-231700
-193744
-148644
-113142
-76961.1
-40473.4
-10616
-192193
-210445
-320294
-315038
-365511
-357801
-363702
-354535
-340107
-320959
-298562
-273036
-245385
-216100
-175027
-142331
-108510
-73617.2
-38556.3
-9964.58
-409483
-283694
-363284
-336550
-362868
-351004
-348049
-332873
-319670
-298010
-277788
-253103
-227352
-198300
-168326
-136745
-104236
-70618.8
-36803.2
-9303.82
-419400
-298888
-361595
-345330
-362273
-346896
-340769
-326292
-311415
-291554
-270337
-245977
-220113
-192034
-162667
-132069
-100640
-68046.9
-35297.3
-8711.21
-543145
-334493
-386034
-359306
-366485
-346063
-337529
-319073
-305041
-283648
-263299
-238907
-213842
-186323
-157924
-128163
-97582.5
-65860.4
-34001.4
-8248.19
-513233
-361467
-395996
-365115
-368913
-343930
-338776
-318603
-303155
-281101
-259683
-234716
-209613
-182321
-154405
-125127
-95211.4
-64190.6
-33043.3
-7931.03
-708294
-410620
-420684
-376197
-369805
-344771
-334938
-314824
-299005
-276686
-255692
-230890
-206163
-179219
-151758
-122949
-93390.9
-62884.9
-32285.1
-7716.19
-557909
-366402
-430251
-370932
-379401
-347593
-338090
-314406
-298157
-274994
-253752
-228940
-204239
-177382
-149984
-121417
-92397
-62118.4
-31933.2
-7651.35
-494625
-437004
-423158
-369850
-376353
-346538
-335545
-312749
-296280
-273526
-252376
-227667
-203077
-176294
-149124
-120662
-91742.7
-61649.1
-31722.3
-7526.74
-1.65468e+06
-1.51786e+06
-1.36943e+06
-1.18573e+06
-1.06053e+06
-931430
-827234
-729633
-648446
-570394
-503135
-437084
-377583
-319150
-264629
-211161
-159938
-108807
-59492.2
-16996.8
-1.80674e+06
-1.53587e+06
-1.3605e+06
-1.16887e+06
-1.04823e+06
-917192
-817893
-720729
-641482
-564465
-498069
-432970
-374512
-316796
-262757
-209720
-158831
-108046
-58946
-16814.6
-1.98052e+06
-1.54506e+06
-1.29716e+06
-1.11633e+06
-999119
-881008
-789368
-699837
-624887
-551556
-487590
-424647
-367526
-311430
-258672
-206651
-156561
-106528
-58049.7
-16484.4
-1.64701e+06
-1.37803e+06
-1.23099e+06
-1.05723e+06
-952169
-839952
-757407
-673052
-603491
-534189
-473536
-413421
-358484
-304278
-253023
-202383
-153420
-104446
-56816.3
-16059.4
-1.36131e+06
-1.16169e+06
-1.08097e+06
-954425
-875259
-780954
-710271
-636479
-574227
-511107
-454987
-398620
-346589
-294903
-245645
-196820
-149372
-101714
-55207
-15535.1
-983715
-923701
-908366
-833027
-786468
-712515
-658208
-596161
-541554
-485787
-434150
-382529
-333353
-284574
-237574
-190731
-144860
-98682.4
-53398.5
-14952.8
-788815
-724930
-777922
-727382
-707004
-646891
-603942
-552545
-507409
-457521
-412023
-364326
-319636
-273567
-228806
-184079
-139909
-95259.5
-51373.1
-14294.4
-725004
-584478
-664974
-619001
-611207
-575288
-568447
-531226
-491182
-448064
-405436
-361951
-318627
-275937
-220107
-177225
-134706
-91667.4
-49240.5
-13622
-538747
-452748
-533859
-515651
-539529
-529680
-524391
-496215
-463489
-426984
-389002
-349559
-310151
-270396
-223750
-170229
-129084
-87957.2
-47004.9
-12876.6
-410105
-351490
-476499
-457906
-474454
-471305
-468681
-451691
-426783
-397044
-364287
-329398
-293373
-256548
-213166
-162928
-123772
-84223.4
-44813.2
-12083
-33342
-211612
-336766
-369346
-419876
-418726
-422933
-413105
-394251
-369576
-341316
-310191
-277475
-243646
-203344
-155730
-118424
-80529
-42629.1
-11319.7
-107583
-211173
-338105
-341792
-385662
-385300
-389479
-382154
-366844
-345972
-321104
-293277
-263297
-231838
-193962
-148736
-113136
-76964.5
-40477.2
-10604.2
-91347.8
-206628
-312502
-316512
-365524
-357664
-363730
-354592
-340215
-320971
-298551
-273006
-245409
-216122
-175130
-142341
-108502
-73624.5
-38563.2
-9933.23
-359853
-280148
-363885
-336194
-363510
-350882
-347942
-333197
-319791
-298437
-277997
-253231
-227344
-198330
-168338
-136726
-104226
-70624.5
-36807.9
-9272.1
-393861
-283927
-362146
-344276
-361508
-346708
-340690
-326182
-311363
-291614
-270466
-245975
-220117
-192016
-162642
-132038
-100639
-68048.7
-35301
-8692.24
-470707
-314808
-382043
-357771
-366347
-345872
-337572
-318972
-305161
-283546
-263174
-238841
-213838
-186300
-157879
-128121
-97593.8
-65869.9
-34006.5
-8233.92
-475023
-362326
-395218
-360376
-368904
-344066
-339165
-318664
-302953
-280924
-259548
-234612
-209573
-182310
-154366
-125111
-95241.7
-64201.1
-33047.7
-7925.78
-403810
-369865
-412698
-374057
-369740
-345278
-335518
-314974
-299033
-276647
-255745
-230841
-206151
-179207
-151688
-122910
-93415.2
-62905
-32286.8
-7715.38
-416063
-365248
-428024
-371429
-378977
-347220
-337734
-314410
-298360
-275094
-253875
-229014
-204246
-177369
-149967
-121409
-92375
-62117.4
-31904.7
-7641.88
-434499
-429077
-424823
-368071
-375259
-346399
-335377
-312733
-296341
-273590
-252418
-227692
-203106
-176304
-149129
-120673
-91747.2
-61653.5
-31704.8
-7522.57
-1.81695e+06
-1.56106e+06
-1.37358e+06
-1.18641e+06
-1.06038e+06
-931012
-827322
-729709
-648587
-570465
-503119
-437113
-377563
-319149
-264635
-211170
-159938
-108799
-59483.2
-17009.1
-1.77039e+06
-1.52584e+06
-1.35769e+06
-1.16804e+06
-1.04721e+06
-916673
-817442
-720682
-641527
-564484
-498057
-432919
-374480
-316780
-262785
-209729
-158831
-108043
-58924.5
-16791
-2.07255e+06
-1.54163e+06
-1.30108e+06
-1.11827e+06
-999179
-881074
-789409
-699832
-624885
-551544
-487572
-424633
-367493
-311368
-258644
-206674
-156560
-106530
-58041.5
-16478.7
-1.56958e+06
-1.3803e+06
-1.22554e+06
-1.05609e+06
-951769
-839866
-757364
-673016
-603466
-534173
-473533
-413415
-358488
-304270
-253064
-202383
-153415
-104449
-56805.3
-16046.4
-1.40547e+06
-1.17604e+06
-1.0838e+06
-954814
-875256
-780927
-710298
-636451
-574197
-511091
-454969
-398616
-346630
-294896
-245664
-196816
-149370
-101720
-55194
-15518.3
-1.09089e+06
-931359
-911503
-833463
-786012
-712428
-658293
-596188
-541511
-485769
-434117
-382518
-333391
-284666
-237564
-190684
-144850
-98686
-53384.6
-14951.8
-730164
-704470
-786036
-727549
-705793
-646738
-603880
-552655
-507460
-457629
-412111
-364407
-319680
-273695
-228760
-184066
-139899
-95267
-51357.8
-14303
-669259
-551037
-674233
-619744
-612124
-575413
-568617
-531547
-491365
-448260
-405473
-361971
-318546
-275757
-220078
-177225
-134711
-91682.3
-49223.6
-13604.8
-613047
-461870
-544915
-520095
-541934
-530473
-524493
-496398
-463729
-427145
-389106
-349445
-310005
-270332
-223886
-170306
-129086
-87959.9
-46995.8
-12852.9
-604681
-375861
-485025
-459834
-475669
-471683
-468587
-451781
-426857
-397104
-364307
-329312
-293305
-256615
-213289
-163031
-123804
-84239.6
-44806.9
-12085.1
12700
-193045
-337112
-373268
-421634
-419638
-423091
-413330
-394379
-370384
-341466
-310283
-277507
-243726
-203527
-155880
-118491
-80569.1
-42650.7
-11326.5
-140277
-208536
-339406
-345243
-387814
-386170
-389543
-382401
-367002
-346021
-321136
-293348
-263432
-231985
-194024
-148805
-113149
-77007.1
-40513
-10601.1
-101975
-213820
-307692
-319331
-366565
-357954
-364091
-354815
-340399
-321033
-298620
-273048
-245403
-216141
-175240
-142357
-108526
-73644.2
-38582.2
-9914.13
-282224
-280167
-361873
-336618
-364212
-350909
-347985
-333444
-319871
-298745
-278125
-253276
-227320
-198426
-168384
-136749
-104238
-70637.6
-36815.8
-9251.74
-314403
-271970
-358605
-343566
-361289
-346640
-340664
-326141
-311366
-291701
-270482
-245986
-220135
-192041
-162644
-132047
-100649
-68055.2
-35301.7
-8678.1
-418124
-307371
-377729
-357441
-366144
-345888
-337670
-319019
-305154
-283511
-263162
-238841
-213836
-186299
-157878
-128119
-97605.5
-65880.3
-34006.9
-8222.98
-662638
-364459
-399074
-360845
-369848
-344467
-339447
-318608
-302757
-280768
-259489
-234560
-209537
-182314
-154345
-125111
-95261.9
-64212.5
-33047.3
-7904.17
-361539
-335142
-407738
-373282
-370347
-345811
-335959
-315124
-299151
-276617
-255730
-230813
-206131
-179202
-151674
-122900
-93444.4
-62922.5
-32288.9
-7709.47
-367689
-369525
-431117
-373185
-378189
-347121
-337586
-314477
-298553
-275280
-253958
-229069
-204245
-177353
-149956
-121395
-92382.8
-62124.6
-31914.6
-7607.09
-488573
-433051
-427515
-370025
-374348
-346350
-335216
-312744
-296427
-273656
-252476
-227729
-203134
-176326
-149117
-120682
-91779.9
-61677.6
-31685.8
-7511.35
-1.90223e+06
-1.57614e+06
-1.37531e+06
-1.18573e+06
-1.06023e+06
-930785
-827373
-729741
-648620
-570481
-503089
-437068
-377561
-319158
-264652
-211164
-159927
-108790
-59466.4
-17019.5
-1.83174e+06
-1.53477e+06
-1.35766e+06
-1.16687e+06
-1.04668e+06
-916456
-817372
-720727
-641552
-564487
-498055
-432951
-374370
-316712
-262749
-209716
-158833
-108041
-58906.8
-16736.8
-1.92781e+06
-1.53565e+06
-1.30397e+06
-1.11907e+06
-999042
-881026
-789422
-699800
-624866
-551524
-487554
-424630
-367540
-311369
-258626
-206646
-156552
-106524
-58026.2
-16438.4
-1.53867e+06
-1.37812e+06
-1.22218e+06
-1.0547e+06
-951512
-839716
-757329
-672968
-603437
-534157
-473531
-413404
-358471
-304286
-253035
-202367
-153408
-104445
-56788.8
-16016.7
-1.35425e+06
-1.16534e+06
-1.0788e+06
-953786
-874809
-780746
-710250
-636395
-574166
-511074
-454949
-398613
-346647
-294896
-245671
-196816
-149369
-101715
-55175.1
-15475.2
-920171
-905011
-909837
-833412
-785476
-712315
-658250
-596173
-541465
-485750
-434082
-382514
-333430
-284724
-237573
-190693
-144840
-98682.7
-53367.2
-14887.9
-611237
-685711
-787359
-726985
-704727
-646719
-603832
-552642
-507442
-457650
-412158
-364423
-319669
-273701
-228787
-184066
-139890
-95267
-51344.9
-14238.3
-720356
-537277
-676134
-618801
-612486
-575315
-568306
-531693
-491328
-448381
-405361
-361948
-318464
-275655
-220181
-177219
-134713
-91687.5
-49212.9
-13551
-631377
-472536
-542541
-523483
-543287
-531537
-524262
-496457
-463701
-427161
-389033
-349390
-309769
-270091
-224031
-170387
-129075
-87958.8
-46976.2
-12808.9
-575586
-386347
-482062
-461729
-476463
-472475
-468897
-451868
-426876
-397104
-364275
-329244
-293212
-256677
-213412
-163159
-123849
-84266.8
-44797.6
-12055.2
-169126
-193881
-341144
-376296
-423662
-421033
-423573
-413442
-394452
-369848
-341548
-310396
-277514
-243810
-203730
-156076
-118596
-80625.7
-42667.3
-11306.4
-105968
-202863
-336616
-345681
-389196
-387242
-389936
-382549
-367078
-346041
-321099
-293260
-263461
-232166
-194016
-148883
-113138
-77025.3
-40539.5
-10579.7
-232408
-229444
-303097
-321187
-367941
-358232
-364638
-355085
-340576
-321139
-298710
-273111
-245492
-216053
-175304
-142354
-108518
-73641.6
-38586
-9889.21
-222134
-281186
-353097
-336204
-364308
-350846
-348010
-333530
-319827
-298782
-278156
-253284
-227220
-198479
-168412
-136742
-104229
-70635.4
-36811.4
-9229.13
-142078
-250626
-355703
-342312
-361117
-346505
-340550
-326119
-311351
-291781
-270430
-245998
-220146
-192058
-162643
-132036
-100644
-68052.2
-35296.1
-8641.4
-457500
-319131
-378951
-357193
-365468
-345769
-337628
-319008
-305074
-283478
-263222
-238833
-213820
-186290
-157872
-128109
-97597.1
-65878
-33997.6
-8168.33
-666775
-375036
-400659
-359780
-369899
-344548
-339406
-318538
-302601
-280649
-259378
-234507
-209474
-182294
-154330
-125103
-95257.8
-64213.9
-33041.4
-7850.49
-307909
-326166
-407574
-372280
-370349
-346006
-336065
-315180
-299169
-276600
-255686
-230759
-206096
-179185
-151649
-122872
-93439.7
-62934.8
-32293.7
-7653.63
-378682
-373455
-428114
-373554
-377677
-347040
-337596
-314528
-298619
-275348
-253974
-229098
-204244
-177334
-149961
-121419
-92383.4
-62144.3
-31909.5
-7550.68
-373060
-413953
-427604
-370118
-373910
-346330
-335172
-312755
-296467
-273671
-252516
-227752
-203145
-176328
-149126
-120692
-91780.8
-61682.2
-31689.2
-7451.23
-372672
-375358
-354946
-397087
-372712
-375342
-354899
-338162
-347374
-323387
-364303
-338134
-347423
-323375
-348647
-351578
-332661
-369485
-348703
-351621
-332703
-319110
-325970
-304780
-341382
-319220
-326008
-304827
-503027
-482550
-467446
-524040
-503352
-482494
-467616
-471663
-461816
-442551
-495840
-471820
-462014
-442600
-435977
-435398
-412183
-463059
-436051
-435411
-412213
-398449
-404140
-378829
-426637
-398483
-404157
-378844
-359503
-370198
-343421
-388764
-359539
-370201
-343384
-319958
-334409
-306985
-349648
-320026
-334401
-306885
-280537
-297574
-269273
-310084
-280530
-297581
-269290
-240081
-259860
-231218
-270417
-240235
-259875
-231290
-456489
-434344
-425697
-469202
-456648
-434169
-425718
-433348
-421790
-407337
-451448
-433413
-421816
-407399
-404637
-401741
-383021
-426674
-404659
-401790
-383029
-372579
-376253
-354514
-396948
-372601
-376237
-354537
-338180
-346892
-323018
-364206
-338162
-346915
-323009
-302489
-314908
-289858
-329423
-302479
-314935
-289851
-265721
-281363
-255429
-293408
-265729
-281357
-255438
-228181
-246658
-220109
-256476
-228274
-246682
-220271
-416492
-397930
-391637
-423062
-416494
-397810
-391680
-399393
-388783
-377553
-412891
-399411
-388870
-377608
-376218
-372993
-357256
-394102
-376243
-373037
-357277
-348781
-351463
-332564
-369726
-348793
-351467
-332568
-318200
-325870
-304615
-341399
-318217
-325877
-304650
-285819
-297235
-274165
-310256
-285821
-297224
-274257
-252133
-266482
-242594
-277525
-252145
-266522
-242621
-217162
-234454
-209543
-243551
-217326
-234505
-209733
-384529
-372336
-366232
-389805
-384644
-372289
-366191
-370901
-363878
-353322
-381846
-370973
-363907
-353317
-351418
-349686
-335559
-366606
-351435
-349684
-335558
-327493
-330608
-313537
-345839
-327500
-330556
-313492
-300327
-307654
-288248
-321025
-300349
-307583
-288295
-270554
-281633
-260838
-293169
-270639
-281654
-260786
-239575
-253443
-231080
-263108
-239623
-253398
-231129
-206988
-223449
-200460
-231672
-207143
-223526
-200609
-503423
-482484
-467675
-524261
-503711
-482177
-467898
-471863
-462104
-442617
-496146
-472082
-462280
-442682
-436118
-435430
-412236
-463392
-436329
-435517
-412333
-398526
-404178
-378855
-426909
-398645
-404268
-378885
-359579
-370204
-343373
-388945
-359599
-370228
-343354
-320064
-334406
-306863
-349593
-320084
-334379
-306827
-280540
-297577
-269303
-310157
-280565
-297557
-269336
-240225
-259889
-231276
-270418
-240555
-259935
-231418
-456685
-434111
-425735
-468706
-456805
-433825
-425849
-433438
-421842
-407426
-451654
-433511
-421969
-407532
-404681
-401813
-383041
-426759
-404760
-401906
-383131
-372614
-376232
-354569
-397032
-372658
-376512
-354795
-338173
-346948
-323011
-364266
-338192
-347158
-322682
-302476
-314942
-289837
-329432
-302447
-314831
-289771
-265740
-281342
-255441
-293382
-265781
-281290
-255446
-228256
-246692
-220286
-256537
-228388
-246725
-220469
-416513
-397776
-391747
-422873
-416634
-397471
-391908
-399433
-388925
-377638
-413049
-399537
-389086
-377760
-376269
-373066
-357300
-394217
-376439
-373180
-357385
-348805
-351474
-332567
-370348
-348787
-351565
-332615
-318241
-325877
-304685
-341348
-317903
-325932
-304764
-285818
-297239
-274278
-310159
-285787
-297325
-274369
-252149
-266541
-242648
-277486
-252161
-266631
-242745
-217359
-234540
-209743
-243619
-217578
-234650
-210030
-384701
-372320
-366153
-389459
-384854
-371998
-366074
-371020
-363901
-353322
-382091
-371174
-363904
-353531
-351444
-349694
-335531
-366799
-351560
-349825
-335570
-327504
-330515
-313459
-345948
-327565
-330508
-313508
-300362
-307547
-288317
-321084
-300415
-307590
-288471
-270675
-281662
-260736
-293253
-270816
-281749
-260719
-239646
-253369
-231138
-263260
-239739
-253361
-231182
-207138
-223534
-200577
-231801
-207354
-223553
-200753
-503781
-482214
-467946
-524327
-503920
-482177
-468023
-472156
-462303
-442705
-496329
-472302
-462345
-442765
-436426
-435549
-412363
-463668
-436593
-435632
-412436
-398699
-404295
-378896
-427106
-398771
-404361
-378953
-359619
-370253
-343334
-389073
-359605
-370278
-343299
-320083
-334365
-306826
-349461
-320017
-334311
-306797
-280560
-297547
-269342
-310065
-280508
-297507
-269346
-240542
-259949
-231398
-270379
-240706
-259989
-231540
-456851
-433860
-425899
-468495
-456963
-433835
-426073
-433530
-422021
-407568
-451763
-433579
-422177
-407669
-404780
-401936
-383104
-426843
-404830
-402022
-383154
-382500
-389065
-390072
-397051
-382497
-389061
-390068
-350022
-355644
-358479
-364291
-350020
-355639
-358497
-302433
-314791
-289740
-329319
-302399
-314753
-289711
-265789
-281270
-255449
-293345
-265814
-281252
-255480
-228366
-246747
-220454
-256596
-228516
-246791
-220600
-416690
-397516
-391978
-422949
-416880
-397556
-392221
-399577
-389150
-377808
-413277
-399692
-389356
-377947
-376425
-373222
-357409
-394351
-376508
-373343
-357468
-357274
-362564
-363814
-368446
-357233
-360328
-363856
-328279
-333952
-335882
-340325
-328380
-333415
-335887
-285773
-297360
-274407
-310257
-285801
-297450
-274531
-252171
-266667
-242777
-277492
-252218
-266747
-242868
-217577
-234686
-210020
-243703
-217749
-234789
-210216
-384922
-372043
-366089
-389409
-385141
-371854
-366160
-371225
-363907
-353566
-382344
-371366
-363984
-353758
-351582
-349856
-335570
-366968
-351634
-350015
-335641
-327589
-330497
-313523
-346014
-327622
-330548
-313689
-300424
-307603
-288502
-321136
-300455
-307689
-288568
-270868
-281764
-260730
-293338
-271007
-281810
-260819
-239774
-253382
-231201
-263402
-239883
-253517
-231251
-207335
-223558
-200732
-231948
-207527
-223551
-200874
-503985
-482338
-468044
-524127
-504049
-482473
-468103
-472346
-462356
-442781
-496429
-472322
-462395
-442799
-436654
-435652
-412453
-463703
-436681
-435676
-412475
-398797
-404376
-378958
-427156
-398771
-404392
-378954
-359612
-370280
-343304
-389056
-359579
-370279
-343304
-319983
-334297
-306736
-349399
-319889
-334242
-306577
-280441
-297477
-269344
-309830
-280329
-297371
-269355
-240572
-260007
-231514
-270173
-240672
-260063
-231679
-456996
-433990
-426134
-468641
-457086
-434211
-426274
-433592
-422225
-407696
-451844
-433605
-422317
-407746
-404843
-402046
-383196
-426875
-404851
-402091
-383151
-372708
-376643
-354854
-397109
-372694
-376313
-354684
-338148
-347266
-322662
-364292
-338124
-347078
-323151
-302354
-314834
-289737
-329269
-302256
-314981
-289756
-265820
-281257
-255502
-293225
-265816
-281286
-255575
-228499
-246810
-220586
-256660
-228700
-246886
-220770
-416947
-397703
-392302
-423328
-417103
-397969
-392489
-399724
-389420
-377986
-413434
-399788
-389554
-378060
-376542
-373377
-357481
-394438
-376409
-373446
-357506
-348865
-351636
-332695
-369826
-348942
-351656
-332670
-318005
-326005
-304832
-341565
-318411
-325977
-304771
-285823
-297469
-274558
-310436
-285819
-297416
-274560
-252243
-266776
-242895
-277526
-252316
-266805
-242984
-217744
-234820
-210191
-243808
-217919
-234901
-210344
-385210
-371977
-366238
-389694
-385367
-371889
-366395
-371405
-364024
-353819
-382527
-371477
-364117
-354139
-351647
-350063
-335666
-367068
-351680
-350262
-335806
-327618
-330565
-313747
-346037
-327590
-330694
-313916
-300466
-307718
-288579
-321114
-300430
-307819
-288609
-271029
-281819
-260868
-293291
-271027
-281834
-261017
-239920
-253603
-231279
-263467
-240042
-253702
-231349
-207482
-223569
-200834
-232132
-207603
-223648
-200996
-504115
-482720
-468124
-523607
-503971
-482780
-468161
-472315
-462437
-442792
-496247
-472055
-462398
-442698
-436689
-435673
-412477
-463444
-436573
-435605
-412444
-398757
-404390
-378943
-427038
-398617
-404356
-378899
-359566
-370270
-343294
-388850
-359511
-370222
-343266
-319852
-334220
-306549
-349344
-319788
-334193
-306539
-280269
-297360
-269373
-309712
-280198
-297362
-269407
-240561
-260085
-231630
-270018
-240873
-260104
-231965
-457112
-434471
-426296
-468976
-457121
-434504
-426223
-433601
-422324
-407755
-451814
-433531
-422241
-407707
-404850
-402102
-383159
-426824
-404813
-402061
-383137
-372678
-376345
-354650
-397069
-372636
-376342
-354576
-338107
-347041
-323119
-364222
-338056
-346965
-323034
-302226
-314945
-289736
-329186
-302196
-314845
-289719
-265825
-281277
-255575
-293194
-265855
-281280
-255577
-228667
-246894
-220759
-256701
-229017
-246893
-221096
-417128
-398204
-392519
-423658
-417058
-398053
-392454
-399800
-389571
-378069
-413360
-399756
-389507
-378036
-376404
-373460
-357515
-394418
-376374
-373444
-357505
-348926
-351662
-332660
-369839
-348863
-351644
-332623
-318370
-325963
-304714
-341483
-318247
-325909
-304616
-285794
-297370
-274539
-310284
-285764
-297286
-274503
-252321
-266798
-242993
-277509
-252311
-266783
-242978
-217908
-234918
-210324
-243795
-218264
-234916
-210677
-385392
-372186
-366443
-389895
-385333
-372131
-366556
-371479
-364136
-354251
-382502
-371432
-364184
-354348
-351689
-350309
-335850
-367054
-351676
-350352
-336126
-327576
-330732
-313932
-346020
-327525
-330840
-314002
-300391
-307842
-288615
-321041
-300320
-307915
-288613
-271007
-281844
-261052
-293203
-270959
-281861
-261082
-240064
-253754
-231437
-263433
-240041
-253805
-231642
-207566
-223762
-200956
-232156
-207949
-223875
-201280
-374842
-381003
-366676
-372692
-374793
-381003
-366718
-376370
-383372
-368855
-374679
-376373
-383363
-368217
-368825
-360867
-362474
-355945
-368801
-360863
-363508
-382503
-397065
-389099
-390105
-389072
-390074
-382517
-374852
-372707
-381041
-366710
-381016
-366739
-374821
-376371
-374482
-383429
-368705
-383367
-368093
-376375
-368810
-355959
-360862
-362423
-360846
-363523
-368789
-341598
-346992
-332933
-338135
-341563
-346980
-332924
-344498
-352879
-339647
-348543
-344569
-352862
-341038
-335759
-327588
-332017
-323801
-335957
-327354
-334067
-350028
-364295
-355664
-358509
-355646
-358506
-350037
-341594
-338118
-346993
-332932
-346977
-332929
-341574
-344467
-348565
-352889
-339662
-352861
-341020
-344568
-335744
-323939
-327524
-332124
-327346
-334020
-335933
-350273
-355767
-343091
-347521
-350211
-354276
-343126
-351383
-357539
-345500
-351590
-351316
-357571
-345513
-344799
-337869
-339214
-332701
-344737
-337911
-339240
-357287
-368295
-362505
-363837
-360183
-363866
-357247
-350304
-347514
-355785
-343148
-354279
-343158
-350258
-351411
-351604
-357594
-345534
-357588
-345527
-351362
-344836
-332711
-337933
-339248
-337939
-339252
-344795
-320411
-326576
-313088
-320152
-320635
-327414
-312953
-323639
-330866
-319055
-326001
-323658
-330890
-319083
-316290
-308970
-312029
-304799
-316344
-308940
-312054
-328291
-340359
-334050
-335950
-333471
-335914
-328432
-320435
-320398
-326705
-313180
-327602
-313017
-320691
-323661
-326013
-330934
-319088
-330910
-319092
-323715
-316313
-304819
-309051
-312062
-308983
-312066
-316394
-550445
-542689
-524689
-567736
-550453
-542863
-524918
-512055
-508193
-490661
-530977
-512131
-508442
-490783
-469407
-472471
-452846
-490899
-469454
-472557
-452939
-427037
-433115
-412943
-447765
-427036
-433186
-413049
-383615
-393197
-372426
-405207
-383657
-393228
-372481
-340380
-352115
-331211
-361848
-340378
-352097
-331274
-297653
-311200
-290730
-318732
-297659
-311255
-290732
-255220
-270350
-249348
-276136
-255267
-270381
-249427
-525746
-500137
-495596
-529187
-525644
-499985
-495421
-503248
-517353
-508665
-524082
-517454
-508949
-503155
-476815
-487770
-483815
-495611
-487861
-483895
-476734
-445101
-454078
-453400
-462957
-454106
-453412
-445088
-409993
-417257
-418967
-426559
-417271
-418964
-409986
-373083
-379070
-382429
-388725
-379075
-382430
-373076
-334907
-339742
-344492
-349606
-339752
-344493
-334893
-296426
-300221
-305938
-310032
-300223
-305962
-296447
-256912
-260247
-266814
-270410
-260253
-266812
-256902
-202813
-218130
-198384
-223537
-202900
-218149
-198462
-469550
-445288
-444051
-471177
-469360
-444938
-443823
-453979
-465828
-457490
-469392
-465860
-457599
-453973
-435894
-445629
-441036
-451334
-445696
-441081
-435851
-411432
-419516
-418098
-426669
-419531
-418106
-411427
-382217
-388951
-389861
-396924
-388951
-389865
-382209
-349982
-355615
-358333
-364209
-355611
-358332
-349984
-315877
-320533
-324483
-329404
-320539
-324487
-315853
-280305
-284197
-289297
-293411
-284197
-289295
-280307
-243954
-247140
-253095
-256465
-247137
-253096
-243952
-193605
-207792
-189445
-212923
-193670
-207871
-189516
-422330
-399960
-403927
-417673
-422284
-399881
-403759
-412235
-422052
-413844
-423380
-422042
-413983
-412264
-400587
-408830
-404287
-412883
-408832
-404286
-400590
-381347
-388440
-386738
-394088
-388438
-386735
-381348
-356862
-362956