/*--------------------------------*- C++ -*----------------------------------*\
  =========                 |
  \\      /  F ield         | OpenFOAM: The Open Source CFD Toolbox
   \\    /   O peration     | Website:  https://openfoam.org
    \\  /    A nd           | Version:  10
     \\/     M anipulation  |
\*---------------------------------------------------------------------------*/
FoamFile
{
    format      ascii;
    class       surfaceScalarField;
    location    "5";
    object      phi;
}
// * * * * * * * * * * * * * * * * * * * * * * * * * * * * * * * * * * * * * //

dimensions      [0 3 -1 0 0 0 0];

internalField   nonuniform List<scalar> 
38556
(
3645.61
-603.821
-733.702
3379.06
-185.968
452.51
2678.7
70.352
630.009
2421.62
-95.7806
352.861
2322.81
-79.4031
178.212
2232.13
-79.837
170.523
1895.68
114.502
221.943
1564.14
195.85
135.689
1392.7
182.137
-10.695
1328.11
131.184
-66.588
1312.64
87.289
-71.8237
1318.84
52.4359
-58.6302
1329.01
26.2952
-36.4735
1348.03
0.961446
-19.9739
1367.91
-15.4891
-4.39478
1387.51
-27.1948
7.59827
1406.88
-36.4851
17.1169
1426.12
-39.7126
20.4692
1453.16
-41.6669
14.6213
-33.4645
10.7603
600.369
-546.79
-1954.64
496.37
-84.0368
2.06833
799.122
-61.3202
-171.081
847.778
-4.68772
-139.749
991.749
58.0009
-281.374
1006.19
126.104
-220.386
1084.07
176.246
-139.62
1132.54
196.51
-49.128
1175.75
153.014
-14.0931
1198.11
114.877
-6.04645
1211.81
61.262
12.3215
1219.49
29.4607
15.3014
1219.02
-1.50858
28.2743
1212.51
-17.5811
25.046
1201.31
-34.2427
29.96
1189.3
-40.6688
25.4762
1178.7
-49.1435
23.2567
1173.63
-50.9065
16.264
1175.47
-56.7766
13.2722
-51.1776
11.1876
1080.22
532.747
1542.11
1114.77
13.0426
-131.63
1284.93
155.086
-386.565
1227.9
184.568
-132.223
1201.77
177.594
-93.4631
1148.46
205.234
-25.8162
1136.89
180.054
7.75637
1127.87
190.135
15.3947
1128.51
128.048
24.3304
1123.12
99.1985
21.0667
1113.48
44.7602
26.1387
1101.36
21.642
19.9451
1087.66
-7.30613
19.4912
1077.44
-23.6354
16.2742
1072.11
-42.7497
13.8405
1071.61
-51.2949
11.1296
1075.52
-63.7412
10.6793
1082.42
-65.3772
7.57341
1093.09
-73.6832
6.23612
-65.952
4.78635
-53.6901
66.5995
-1827.68
305.579
-86.7656
-259.461
828.787
57.2052
-425.327
876.137
150.838
-13.6203
922.19
174.134
-42.5932
915.02
224.586
-12.1812
957.189
137.704
0.18048
975.643
158.654
13.0274
1002.93
80.9225
19.8402
1005.34
81.4501
15.3405
1007.07
30.9338
12.0938
1000.88
23.7152
4.1104
1001.79
-9.74129
1.53441
1004.76
-27.3001
0.691988
1013.79
-54.9039
3.12194
1025.69
-68.0274
4.83511
1041
-85.8668
6.80885
1056.1
-86.5632
6.09464
1069.99
-93.8435
6.26602
-82.1302
6.46532
462.657
-131.439
387.038
804.495
-8.0308
-420.572
1106.35
174.435
-419.086
1181.29
194.838
-118.943
1163.91
220.262
-28.7391
1142.96
257.144
-11.6122
1145.01
146.048
-10.3966
1150.36
157.995
-4.68745
1149.55
78.2089
3.5245
1138.47
87.2842
5.23839
1117.33
45.1658
6.91151
1093.68
45.5805
1.78429
1072.38
8.52351
3.0331
1058.58
-10.4649
-3.03598
1055.87
-55.4701
3.28009
1057.9
-72.603
2.54844
1065.4
-97.3145
3.9479
1074.1
-99.3221
4.05835
1080.66
-104.748
4.34421
-89.593
3.47431
866.318
222.236
1265.26
822.706
210.531
-174.949
1091.58
182.957
-277.398
1092.93
164.823
28.671
1119.66
153.651
39.8724
1124.38
235.203
17.2233
1159.65
109.309
1.4748
1154.71
161.016
1.91186
1153.03
76.8625
3.03575
1137.39
102.598
0.322927
1118.96
58.5572
5.0402
1097.6
66.0915
0.844023
1074.44
21.1129
10.5726
1056.31
-4.81376
12.4839
1050.13
-55.9977
6.70776
1054.97
-79.2445
1.79837
1065.13
-109.217
1.7383
1075.35
-110.354
0.815692
1080.39
-111.726
1.93847
-91.6871
0.741764
1071.92
166.328
1199.93
874.206
-105.936
514.179
1012.11
-175.104
220.154
1152.2
-132.873
157.606
1281.71
-109.377
133.526
1342.26
101.212
73.4353
1356.28
15.0103
58.2266
3.01299
15.4684
3.57036
1326.21
19.6775
52.8027
44.2576
24.2017
50.1516
1240.36
34.6141
34.3788
29.5308
37.1082
27.0796
1164.11
30.0094
32.0698
45.4298
28.8704
42.4644
1088.64
33.2116
24.2573
27.2205
28.262
21.075
1048.54
19.5566
23.2769
25.7785
15.653
21.9232
1033.32
9.30846
17.1297
3.7226
6.00633
0.173656
1044.8
-10.2548
18.0271
-5.55971
-10.8495
-7.6592
1062.92
-84.8749
10.7541
1081.26
-101.218
3.631
1099.31
-128.891
1.62897
1112.82
-126.67
2.80675
1117.42
-121.244
4.91573
-92.4892
2.49695
1931.55
1060.56
-1713.06
1956.22
169.954
-300.56
1635.13
-15.204
161.186
1560.08
-165.44
107.623
1483.91
-127.873
94.659
363.445
23.0607
4.4947
357.157
359.973
348.761
62.1158
11.6049
54.5143
345.178
30.3307
2.94592
-328.937
322.81
18.4715
7.33351
-317.058
302.228
42.221
7.22262
-279.011
262.963
34.8397
11.2182
-256.829
246.544
41.4569
2.04018
-238.255
238.677
21.5379
-2.40317
-244.089
248.136
8.11585
-2.85402
-254.605
261.583
-16.1355
-1.0965
1103.31
-32.7797
4.99473
-267.479
-275.979
-260.901
-265.326
-30.6981
-31.4849
-28.5302
1120.08
-123.806
5.81485
1134.41
-147.082
3.85913
1150.79
-145.238
2.18743
1161.53
-136.677
4.69242
-97.8575
3.79659
2433.3
478.4
-2306.64
2348
92.3604
162.896
1690.7
66.6927
575.403
1392.67
-69.5315
202.116
262.222
-28.6258
250.431
234.774
282.192
263.806
267.71
19.361
-1.78829
-13.69
-75.3211
75.1209
16.5972
-2.70698
-79.8065
-10.1505
79.7157
12.7361
-2.49476
-77.6095
-10.24
76.3441
10.0851
1.42034
-70.9079
-11.5212
68.4085
13.0707
0.949905
-63.0761
-11.3192
61.952
12.007
0.436416
-61.9959
-7.17397
62.0005
7.63889
-0.46955
-65.093
-1.93871
66.1278
1.56049
-0.656525
-69.9979
3.8485
70.7781
-4.6007
-0.02799
-72.6128
288.254
-33.0163
2.06056
-73.6419
-71.4979
-72.3257
1126.79
-133.533
7.92057
-286.246
-284.994
-277.853
-275.886
1132.15
-156.042
3.59955
1146.41
-159.158
-0.345656
1166.2
-152.299
-4.16295
-109.429
0.46567
1215.2
243.589
-1951.99
1399.93
-320.374
228.005
1178.48
-444.775
732.912
1095.69
-303.048
316.308
217.202
-99.4872
288.289
187.527
247.05
226.484
-5.51817
205.979
4.82539
11.9158
-10.8278
-57.3134
60.4514
11.1348
-3.44501
-17.9629
-75.5071
78.817
17.9382
-3.28508
-16.3347
-79.8731
76.8384
18.9062
0.463177
-16.7633
-67.308
65.375
17.7022
0.994055
-11.792
-63.543
64.3742
11.2337
-0.272788
-3.95178
-68.1675
69.1572
2.51293
0.449198
3.75558
-71.8195
72.4706
-4.94423
0.5375
7.72598
-73.6409
73.7308
-8.21941
0.403558
-72.8594
29.4784
283.233
-26.479
1.24989
-71.7857
-71.9731
-70.8644
1066.63
-136.299
6.25567
-275.625
-266.673
-268.934
-258.885
1072.5
-162.239
0.322702
1084.1
-166.452
-4.30246
1111.04
-160.63
-18.6092
-118.361
-11.8413
2629.35
35.572
-3003.64
1924.76
-370.086
754.308
1303.88
-315.42
491.526
1067.7
-184.004
117.128
187.514
-56.8063
226.945
184.957
211.909
213.697
-5.76925
184.322
-2.63602
11.5977
-7.72112
-51.4148
53.116
6.07866
-0.0587668
-12.3772
-59.9404
61.4118
10.365
0.540781
-19.0043
-65.5155
66.891
16.5071
1.12176
-17.9331
-69.2432
69.2743
16.6786
1.22339
-9.0002
-69.5193
70.1987
7.98551
0.335259
0.112707
-71.7832
71.8467
0.107966
-0.284216
5.73891
-71.0719
70.3988
-5.19505
0.129175
6.84304
-67.9648
67.3033
-5.99036
-0.1912
-65.6963
22.9447
259.062
-21.9424
-0.38954
-64.8783
-65.0212
-64.0792
1033.39
-146.842
-7.17464
-258.235
-257.97
-250.463
-249.004
1049.5
-170.011
-8.34366
1062.93
-174.932
-4.9461
1078.88
-168.376
-8.20534
-120.938
-9.6797
2016.52
-1797.14
-2100.69
1798.6
-356.443
204.275
1367.63
-43.042
158.592
1141.45
80.2721
-38.0924
203.824
153.136
37.6491
219.036
228.423
242.576
16.2398
195.306
-8.01367
0.291664
4.37373
-54.5643
57.1531
-6.17865
-0.78387
-7.2758
-67.7891
69.5619
5.79499
-0.29196
-12.695
-72.3219
73.0369
12.3853
-0.405258
-12.9734
-75.8256
76.7806
12.5975
-0.579168
-8.74229
-78.4569
78.1964
9.44544
-0.442655
-2.98827
-74.8339
73.2866
4.16243
0.373088
1.96373
-69.9862
68.8012
-0.824864
0.0461181
4.25749
-66.067
65.6427
-3.77174
-0.0613791
-65.8892
22.2263
263.77
-21.4552
-2.2725
-66.7816
-64.4006
-65.197
1072.06
-155.52
-10.1024
-265.004
-273.078
-252.746
-262.448
1080.71
-173.572
-5.09246
1085.02
-180.977
1.73247
1083.42
-173.429
6.65939
-116.3
-3.76014
1307.49
-2406.07
-4583.2
1086.27
-455.667
320.446
1004.42
-139.818
178.628
902.42
71.563
110.708
870.601
62.6842
122.27
213.533
-107.446
2.57022
13.1685
53.9597
8.49985
49.9309
217.425
207.364
211.596
6.12268
216.053
-17.1142
-3.47332
2.69528
6.28856
2.96155
-4.1145
-211.415
213.604
17.3418
-0.000744395
-5.47167
-4.35784
-5.58586
-10.1468
-232.718
249.389
21.4737
1.63624
-10.4415
-9.54398
-9.64921
-11.5418
-255.62
257.6
37.4577
3.02505
-10.9556
-10.3377
-9.62818
-9.13456
-264.025
269.078
24.6067
2.41202
-8.31853
-7.69995
-6.91899
-4.93868
-272.088
272.145
14.319
1.38207
-3.89136
-3.91453
-3.01329
-0.275065
-274.767
277.029
-1.2957
-1.32877
-0.106557
0.378369
0.366118
2.98796
-277.567
277.933
-10.8425
-2.43674
3.3187
3.08878
3.51836
1116.63
-101.731
-20.6921
21.5402
30.399
21.386
29.1286
-277.993
-284.071
-262.388
-272.206
1127.07
-152.301
-13.6657
1130.25
-172.525
-4.22096
1123.12
-178.157
4.30544
1101.89
-163.002
10.8076
-96.5244
-4.06675
813.077
-1192.96
-896.032
792.035
-668.999
234.373
826.468
-470.398
296.148
922.093
-190.475
166.414
1001.51
-146.382
129.651
958.906
-118.258
53.4145
945.343
41.1689
7.09493
7.40254
-21.3123
4.00676
-24.7977
954.646
-29.1745
30.3099
-14.287
5.45184
-12.089
10.4856
992.482
27.5457
4.84863
-13.4226
-24.3823
-10.3409
-22.085
1041.47
4.35388
13.0742
-26.7253
-11.4646
-21.6775
-6.54376
1080.68
9.65438
1.31667
-17.7963
-11.8674
-12.3585
-8.15935
1116.12
-19.8786
-6.76465
-9.81105
0.888403
-5.34175
5.4606
1137.49
-31.1972
-17.9976
2.45463
8.70726
6.18703
10.4814
1155.97
-58.3148
-26.6407
11.1574
20.7763
12.3851
22.1509
1178.43
-92.9906
-31.1951
1182.3
-147.788
-8.38119
1166.9
-162.093
4.96814
1138.54
-157.261
7.45616
1100.55
-132.794
7.7866
-70.0163
-3.99359
4445.99
1118.31
-348.587
2541
626.379
609.613
1550.29
233.654
286.654
1384.36
-165.437
140.893
1276.87
-258.878
219.99
1235.5
-236.614
159.727
1221.76
-61.8491
116.753
1189.93
-38.402
41.0592
1187.87
6.586
23.0154
1193.14
-1.59064
0.678616
1205.18
6.35015
-8.73556
1216.84
-7.07798
-24.4665
1228.47
-12.4536
-30.3701
1240.46
-30.6099
-39.6987
1242.36
-69.4438
-25.4407
1224.77
-129.11
-1.09451
1179.09
-128.236
11.8255
1116.68
-110.836
15.9863
1067.52
-88.4315
4.79959
-47.9949
-2.84136
839.776
2283.76
-3123.83
1250.91
1414.15
-1198.91
1800.88
759.469
-1075.79
1916.73
260.66
-541.941
1741.3
-121.822
38.3695
1600.92
-220.377
124.145
1472.32
-75.266
142.017
1388.68
-46.2237
91.4601
1339.32
-11.7654
67.713
1320.13
-17.9915
35.5912
1314.2
-8.75561
21.0388
1314.23
-10.3899
3.27622
1312.54
-0.975974
-9.78296
1308.73
-9.21882
-17.5817
1282.55
-40.244
-3.02138
1227.74
-94.6757
20.3712
1162.2
-95.47
32.7791
1103.65
-75.5286
23.2445
1061.54
-57.6726
11.3506
-31.4309
1.69921
1456.32
2070.03
-1077.94
1972.56
1299.32
-401.413
2150.21
728.535
-146.718
2112.33
407.759
-109.222
1589
64.6874
336.824
1294.46
-78.8504
153.016
1249.29
-92.7749
62.6752
1269.79
-90.2725
23.5457
1310.09
-79.3908
27.3272
1346.44
-77.6548
23.3125
1373.48
-65.2097
29.4196
1395.45
-54.7196
22.3569
1407.87
-36.3265
22.9334
1402.2
-23.9887
20.4341
1344.08
-11.4199
29.3032
1239.83
-29.1201
38.6881
1144.78
-37.2403
36.8208
1083.23
-32.6745
18.7006
1039.59
-27.1729
13.1327
-14.8003
4.42442
1612.3
2300.09
-1034.76
2248.02
766.354
-102.75
2176.1
550.24
250.216
2015.75
140.555
427.555
1710.04
116.725
253.668
1560.34
18.0378
52.8179
1494.36
-15.8931
-10.9069
1474.78
-42.1512
-28.5386
1459.66
-51.2394
-13.0334
1456.88
-64.5149
-10.3588
1457.56
-61.3213
-4.57275
1467.16
-57.2756
-7.0408
1485.73
-46.2049
-8.69542
1501.87
-31.5064
-8.61901
1482.12
0.814227
7.52114
1397.14
26.6232
29.2306
1275.14
38.4015
46.356
1189.36
30.7723
22.3334
1117.39
21.9011
22.9004
13.0697
14.7956
301.192
1034.99
-2208.54
374.019
-34.8695
728.396
910.015
4.80343
9.44121
919.145
-98.5876
230.012
1089.67
-70.3276
16.5311
1172.41
-56.7596
-7.94291
1237.08
-64.0041
-16.5578
1273.91
-65.0926
-13.8903
1288.22
-73.5205
7.9667
1290.35
-80.0981
13.4557
1283.48
-71.9948
17.5443
1277.48
-60.1883
8.90945
1269.14
-40.0878
2.22579
1263.41
-20.794
-4.98257
1253.42
4.85628
5.95106
1233.98
36.5515
9.50981
1221.24
62.1005
-10.9629
1222.72
59.0363
-29.7453
1229.71
47.3851
-32.4724
19.4279
-10.2064
502.508
-859.32
404.777
62.8617
1228.12
-818.534
1271.27
-141.744
1381.41
-180.463
1420.61
-95.9665
1430.31
-73.6976
1436.55
-71.334
1413.73
-50.7027
1381.17
-47.5328
1328.5
-19.3303
1287.19
-18.8772
1259.55
-12.4451
1246.27
-7.51277
1255.62
-4.50091
1286.42
5.75721
1362.5
-13.9832
1452.76
-31.2211
1559.08
-58.9355
-54.5198
2798.19
-747.275
659.237
2768.99
-211.641
693.349
2418.9
-59.2809
1039.38
2225.72
-106.035
652.08
2070.07
-51.9973
385.859
1945.52
-16.7428
311.816
1701.69
168.234
297.543
1501.21
174.748
161.417
1350.95
129.642
9.92086
1268.15
72.024
-55.811
1230.06
28.424
-62.1516
1217.83
2.30969
-48.7153
1219.93
-17.0194
-21.5544
1232.82
-27.6912
-5.17471
1250.65
-33.9495
11.7237
1274.96
-36.5026
19.7964
1302.23
-38.5559
28.4033
1328.26
-35.9513
30.3924
1355.8
-35.7783
22.8547
-29.1284
18.774
4.68056
-1069.78
-2487.02
292.816
-79.9063
-417.802
741.754
-147.537
-531.764
832.686
-22.9322
-313.783
918.168
35.718
-454.572
923.65
101.522
-344.133
1000.95
142.831
-191.518
1039.79
149.475
-62.6979
1066.49
101.142
-12.2937
1070.8
68.3951
-6.72741
1074.19
23.9371
13.4196
1074
5.60908
12.1903
1072.72
-13.7998
26.3349
1069.41
-21.2056
21.8706
1067.09
-28.8727
27.2076
1066.04
-31.3674
21.3875
1067.24
-36.3747
19.8755
1070.85
-35.8904
12.5996
1077.96
-39.4299
9.81217
-33.7037
7.71945
1362.65
-822.409
4031.2
1304.92
17.4115
-171.217
1245.04
167.234
-641.457
1151.65
164.537
-226.295
1087.83
145.577
-139.509
1028.47
175.1
-40.0305
1027.35
144.423
7.2798
1017.21
155.976
19.0407
1017.67
94.1722
30.8404
1007.69
76.0207
23.4159
998.909
29.4518
29.4074
987.003
17.4461
20.0141
978.344
-5.81496
20.1652
971.626
-11.8878
13.6751
970.883
-28.5742
14.2845
972.705
-33.05
10.9907
978.139
-42.3599
11.2304
985.181
-42.2174
6.85774
994.37
-47.6571
5.27523
-40.3876
3.54849
1145.2
0.852615
973.426
754.798
61.0253
87.3319
711.257
125.455
-340.007
756.487
139.989
-34.3024
816.063
121.387
-77.9787
819.317
171.81
-12.1449
873.08
90.9322
-0.0914332
889.412
134.365
18.3055
916.797
63.3012
23.3261
914.769
77.5473
15.8418
915.661
27.7311
12.9223
907.381
26.7398
3.09732
908.044
-7.18452
2.24113
909.495
-13.0674
0.420346
917.97
-38.3077
4.38029
928.105
-44.1695
5.81964
940.666
-55.7319
7.62011
952.401
-53.9946
6.1366
963.402
-58.2486
5.85638
-47.5184
5.87315
902.245
-287.158
-628.002
1236.02
19.1256
-712.447
1109.24
194.705
-361.559
1079.07
137.819
-86.5994
1038.44
127.158
6.1181
1012.47
176.565
9.60457
1011.87
76.827
4.31182
1006.13
130.92
4.49034
1001.14
62.3078
9.51035
985.363
91.2249
7.34006
967.5
43.096
9.40913
948.684
44.4748
2.86527
937.609
2.92685
3.99651
932.212
-9.82187
-0.883997
935.026
-42.9114
5.06944
939.994
-50.0475
3.45878
947.18
-64.1674
5.1975
954.177
-61.8385
4.9051
960.209
-64.3092
4.37264
-50.6401
2.97163
1163.71
8.63853
-2298.93
1092.19
182.334
-266.638
989.682
196.795
-176.978
993.22
103.113
59.8385
1005.98
83.1357
71.1304
989.262
176.75
33.7605
1007.58
50.9073
9.07187
982.747
146.656
11.014
974.433
63.1844
10.473
954.792
107.35
3.83806
942.985
51.2595
8.6843
930.532
55.3279
2.44417
925.854
5.6388
12.5381
924.841
-9.19102
12.8659
927.961
-46.9599
7.6365
935.257
-58.6492
3.10363
943.156
-73.8073
3.47933
950.037
-70.1897
2.28621
954.052
-69.053
2.66734
-51.3083
0.193909
617.586
869.782
2094.28
547.013
131.958
635.129
870.252
6.45072
87.2602
1020.87
-73.9686
184.066
1154.82
-57.2783
139.997
1168.89
159.157
76.9511
1139.01
25.7517
69.2345
8.43493
27.1345
8.4642
1083.41
32.5388
70.3378
56.9987
35.1513
60.0305
1009.78
38.8103
48.7019
23.9767
38.3588
21.3433
962.393
28.9037
45.9133
42.2898
28.0059
41.6949
928.539
25.051
29.422
17.0421
23.1564
14.6991
919.956
12.6153
26.9212
18.6893
11.3931
17.5688
924.034
3.38093
18.4031
-2.77773
2.97149
-3.28714
942.522
-10.4011
22.116
-7.49345
-9.3251
-4.54818
958.348
-65.0424
13.0103
968.786
-71.659
6.20281
977.538
-85.6918
4.76189
982.762
-78.628
6.02089
981.968
-70.4914
7.14786
-47.4094
2.1216
1920.98
777.197
2283.09
1554.88
242.325
-44.835
1339.18
37.5553
345.788
1341.5
-128.219
159.554
1286.15
-29.7288
122.455
310.55
35.5372
12.3724
299.64
298.774
286.011
78.8208
42.2751
85.8236
-8.60682
288.047
52.9043
3.95749
-16.2434
-265.049
258.644
36.4912
18.6962
-13.4361
-257.028
243.872
49.5077
15.8948
-15.9322
-229.37
226.862
30.7161
16.6272
-3.96657
-227.661
222.944
30.3689
3.36586
1.50531
-220.391
223.492
9.42795
-1.41945
2.64114
-229.235
232.404
0.730935
-3.15977
0.776861
-236.044
241.489
-16.2139
-0.408135
998.239
-26.7849
10.5406
-245.718
-248.846
-238.207
-240.453
-23.6566
-24.6616
-20.5009
1012.05
-88.1352
8.48281
1021.47
-97.8889
6.63486
1027.48
-88.359
5.91077
1024.35
-71.1658
8.49607
-40.9732
3.56927
-88.1081
-378.866
-2133.32
343.172
23.8913
-49.9508
763.979
-56.1652
248.315
764.63
-85.1475
158.394
217.974
21.3871
152.906
197.855
208.433
186.776
-5.8646
242.645
19.6665
-2.93573
5.80406
-17.4106
-68.3739
67.2225
19.1492
-6.39122
5.90026
-63.5364
-13.3408
61.5397
14.8536
-5.4163
-3.23333
-60.0459
-12.5592
59.5324
12.6932
3.61278
-3.3954
-57.6721
-9.92206
56.632
10.8288
3.52871
-1.31822
-56.6624
-7.92592
56.8113
7.96168
1.13354
0.707422
-58.5101
-2.89231
58.7919
2.85792
-0.954808
0.673375
-61.5057
0.45826
62.2202
-1.07265
-0.773449
0.0196918
-64.3148
4.34522
64.5905
-4.64491
0.00423609
-65.6867
-2.33614
261.781
-28.2897
3.88346
-66.4227
-64.4991
-65.2152
1029.5
-100.887
15.3868
-261.402
-260.396
-252.05
-250.37
1034.03
-104.566
5.75372
1041.51
-97.7235
1.53142
1044.12
-76.1845
-1.74993
-38.6647
-0.720753
427.531
-733.321
-928.882
517.483
-283.574
445.518
718.455
-345.647
821.421
759.979
-120.147
309.783
214.961
3.73121
246.336
200.643
207.643
196.341
-12.6635
-9.51742
215.634
16.4362
5.07115
8.57774
-14.1942
-57.1703
59.0792
12.9301
-9.22253
6.26342
-18.1696
-64.4844
64.94
17.5329
-6.08234
-2.52052
-14.8228
-62.4006
61.1986
15.638
2.90732
-2.17392
-11.7936
-59.3965
59.3014
11.8232
2.23944
0.00417589
-6.32901
-60.393
60.9925
5.68396
0.0414561
-0.814162
-0.82657
-63.4381
64.1723
0.214401
0.692161
-1.00912
3.62773
-66.4201
66.9914
-4.159
0.969109
-0.82259
5.40493
-68.0283
68.0519
-5.51119
0.905172
-67.1517
-2.88927
25.4905
261.304
-23.3996
4.20508
-66.3862
-65.8831
-65.2899
987.12
-105.789
12.8644
-255.959
-246.787
-246.712
-239.369
994.408
-111.126
-0.404524
1006.34
-106.639
-7.31725
1020.32
-87.9759
-20.7998
-44.375
-13.7651
946.083
470.144
-2419.26
877.775
-163.486
702.529
744.246
-127.205
406.612
622.795
10.614
107.819
158.661
35.6758
205.097
158.77
147.95
147.317
-31.3412
-16.4355
171.77
6.22867
28.4393
-2.75708
-8.93465
-48.7656
50.8254
6.81265
2.81928
-2.90795
-12.4609
-56.9107
58.2923
10.6461
3.34118
-3.43863
-14.2812
-60.9086
61.5213
13.2367
3.87057
-2.69258
-10.8069
-62.8077
63.1396
10.2505
2.91716
-1.02563
-4.25802
-63.843
64.1323
3.81471
1.17961
0.416138
1.02712
-65.0579
65.2131
-0.970534
-0.62788
-0.0254444
4.33126
-64.5985
64.194
-3.82998
-0.0712741
0.298786
4.67232
-62.8307
62.4032
-4.30407
-0.239477
-61.2178
-0.76394
20.8645
239.972
-20.4322
1.97082
-60.4519
-60.3415
-59.5999
941.497
-116.279
-4.52202
-238.178
-235.947
-231.077
-228.459
951.352
-120.815
-8.50941
964.072
-117.223
-7.08161
980.718
-100.337
-12.4907
-51.5028
-13.1229
1586.11
-430.856
-353.65
1401.63
-106.491
331.757
1012.88
43.2235
376.914
881.772
112.924
-9.28919
195.619
116.568
43.9087
207.717
190.033
201.251
6.63804
6.03578
199.518
-5.64026
-10.9331
1.55258
4.82371
-54.0065
55.9442
-6.71169
-1.6023
-0.369155
-6.43869
-60.575
61.1768
5.49484
0.711185
-0.12497
-11.0199
-62.4707
62.9431
10.2682
0.404374
0.630125
-8.8922
-64.4409
64.7167
8.4249
-0.438589
0.00054277
-3.785
-64.4087
63.926
4.03938
0.227805
-0.60846
-0.243162
-62.4667
61.949
0.781131
0.588235
0.016059
2.19879
-60.591
60.14
-1.72448
-0.0393764
0.253774
3.66107
-59.5626
59.523
-3.58023
-0.295058
-59.6878
2.12855
20.8295
236.298
-20.4676
-1.59795
-59.9293
-58.7155
-58.8579
940.21
-127.314
-6.11982
-235.337
-240.272
-226.754
-230.796
947.33
-127.992
-5.03479
955.587
-124.798
1.05
962.595
-104.607
3.92083
-51.4673
-7.45846
-172.777
-497.552
-5028.01
304.077
-50.1251
-212.775
607.277
11.5295
-92.8776
635.136
128.951
66.8216
743.601
37.495
92.8787
181.628
-141.568
12.4459
18.9653
57.2581
21.5167
58.2472
185.439
174.369
177.87
5.98674
0.232324
181.999
-15.8325
-0.713784
2.13672
5.92894
1.89086
-5.45609
-2.0299
-176.104
182.905
15.9224
2.6386
-6.13687
-5.59657
-6.1418
-7.20866
-3.20193
-203.197
218.677
11.5068
4.26841
-7.15596
-6.87731
-6.81154
-6.98822
-4.55668
-221.725
224.019
22.4077
5.52208
-6.27862
-6.54314
-5.85693
-4.15032
-2.87525
-231.293
235.87
9.98392
3.04463
-3.5939
-3.7292
-3.25647
-1.5576
-1.7065
-236.705
237.505
4.27353
1.64005
-1.14893
-1.30399
-0.996295
1.5966
2.2125
-240.396
242.287
-7.58317
-2.75657
1.45636
1.68601
1.49658
3.42579
2.83396
-242.308
242.174
-13.6165
-3.44677
3.78132
3.41721
3.73894
959.334
-102.903
-17.8758
21.0156
28.2052
19.7099
26.8415
-241.246
-246.845
-230.763
-236.166
961.212
-131.131
-11.7271
963.615
-132.4
-2.21582
963.431
-126.009
5.70014
956.631
-96.4826
9.48358
-43.4902
-5.96466
481.679
483.635
-230.397
400.451
15.6074
249.869
644.256
-137.273
201.145
771.163
-12.0997
180.558
889.501
-74.2987
123.106
848.161
-105.094
58.281
849.711
20.6591
16.4704
7.97867
-22.0806
5.66703
-23.1503
862.385
-57.0104
42.0771
-4.30895
18.6412
-2.19222
20.4289
895.177
0.458855
11.1797
-4.12295
-16.3636
-3.66414
-15.4309
933.581
-24.9105
22.9111
-14.1149
-0.150645
-11.3657
2.30137
960.958
-12.3362
4.01989
-5.78296
-4.65658
-3.82805
-3.47648
977.502
-35.5409
-8.7392
-0.518329
9.76762
0.980924
10.7411
984.945
-49.2648
-20.5588
9.11522
12.8316
9.54332
12.8924
986.733
-78.6279
-25.7126
14.3091
23.5833
14.2987
23.7201
985.306
-106.072
-26.5989
982.908
-132.841
-4.2726
978.865
-129.612
6.22223
966.348
-114.802
8.7664
949.304
-78.2804
6.62922
-33.3828
-4.21139
1295.11
1524.21
-340.291
1139.61
695.132
85.5849
946.504
354.584
-12.095
965.106
37.1793
73.0118
983.345
-60.0779
187.53
997.065
-98.6694
139.583
1043.85
-27.1885
117.814
1029.71
-38.6461
36.834
1036.39
-8.91196
25.7078
1035.87
-22.7809
-0.925085
1039.82
-16.6654
-8.36006
1039.67
-33.1312
-26.7298
1037.9
-46.4243
-31.4343
1031.22
-74.1991
-37.4485
1020.49
-101.245
-19.5449
1007.89
-123.657
2.3208
985.704
-108.374
12.778
955.011
-84.5882
16.465
932.132
-55.0427
4.4409
-24.9305
-2.44206
589.47
1438.75
-5197.02
1107.27
852.593
-1874.17
1114.22
391.235
-1119.38
1122.66
-67.1253
-446.076
1172.01
-113.809
42.7507
1201.64
-110.822
106.673
1196.42
-21.723
141.766
1177.85
-19.8339
91.2152
1157.39
8.44074
70.8264
1144.92
-10.4125
35.6899
1133.09
-4.40514
20.6059
1120.9
-18.0682
0.41
1104.48
-27.3177
-12.4738
1080.64
-48.0779
-19.8587
1050.17
-74.187
0.383357
1020.32
-96.201
22.7672
988.503
-77.2668
33.4912
955.328
-52.9523
24.784
932.926
-33.6093
12.3193
-15.4219
2.16041
736.99
605.067
-1513.06
807.176
4.83453
376.159
946.877
-131.548
236.363
949.705
-236.896
57.7201
1014.74
-163.579
321.556
1042.73
-111.329
125.531
1085.76
-67.518
65.4463
1116.68
-49.4703
22.2559
1152.69
-32.6251
32.3897
1174.73
-32.0222
22.8767
1190.49
-19.9047
29.1594
1194.45
-19.0051
19.3339
1187.6
-13.0417
15.5137
1164.77
-18.3019
13.486
1105.33
-21.9758
36.5353
1035.59
-35.1396
47.36
983.536
-28.1897
39.8003
947.056
-18.5836
20.8112
921.593
-9.29923
14.2859
-2.17897
3.99391
700.831
-999.344
-314.249
1021.62
-601.679
182.973
1274.14
-180.487
46.6393
1409.35
-169.682
225.133
1385.16
-51.5939
165.863
1341.99
-38.1104
22.7759
1298.73
-26.138
-9.03061
1280.11
-30.2311
-29.1551
1265.32
-22.5721
-8.29842
1258.4
-25.4702
-9.99381
1251.42
-15.3094
-2.18461
1246.82
-12.0676
-9.37535
1239.93
-2.74708
-12.102
1224.95
-1.11433
-10.8306
1180.02
15.8901
14.5891
1112.29
21.6358
40.1808
1049.33
28.3113
52.8199
1005.5
21.9524
25.6268
970.6
23.3092
25.1924
19.248
13.5776
468.545
-1485.78
-3419.15
479.181
-894.994
1011.08
732.356
-358.569
-65.6519
827.259
-178.891
144.318
994.978
-112.281
-90.5006
1070.06
-65.9081
-55.2255
1117.19
-55.8719
-33.9526
1135.71
-39.986
-22.6565
1141.25
-29.3053
9.1587
1139.23
-18.5189
8.52596
1133.66
-4.49336
12.2985
1124.79
6.40189
-0.6899
1112.06
18.2939
-6.09024
1096.69
22.2639
-12.9864
1080.77
36.7875
0.973865
1066.16
44.9055
0.848451
1056.1
44.3915
-16.9883
1051.57
24.2549
-27.5151
1047.41
18.3281
-23.3287
16.5512
-3.97128
2951.78
-2791.89
2328.05
-208.4
1479.28
-328.331
1330.47
-171.826
1316.2
-278.476
1286.55
-132.223
1230.34
-73.3632
1183.9
-64.8804
1142.82
-38.9281
1117.75
-40.9799
1109.05
-15.1276
1109.5
-12.9219
1116.5
-1.14936
1126.34
4.9108
1145.97
12.6543
1186.78
9.85462
1237.76
-20.5708
1271.22
-40.4323
1286.49
-55.8771
-46.7468
1606.61
-888.865
318.808
1670.87
-181.695
810.78
1846.59
-2.21063
865.874
1878.1
20.6268
599.943
1763.6
117.591
382.768
1636.63
157.906
280.875
1473.42
219.553
241.21
1359.89
163.079
111.864
1249.42
100.145
20.2479
1178.17
47.8319
-32.3983
1136.65
9.79813
-30.4312
1121.01
-8.93773
-24.1366
1123.48
-23.1307
-0.886551
1135.85
-26.4138
8.86668
1153.76
-29.1387
22.9529
1178.17
-27.488
22.8739
1207.16
-28.1963
27.603
1235.22
-24.0956
26.4349
1262.97
-24.4242
19.5312
-19.2337
17.6091
422.171
-418.328
341.267
494.241
-172.196
-499.37
774.474
-139.681
-674.528
840.309
11.4176
-370.408
897.936
66.5497
-461.159
890.02
119.053
-297.364
933.761
134.272
-149.978
951.021
126.618
-43.4966
968.066
75.1436
-4.33815
963.234
50.0983
-4.16115
962.634
12.5622
11.2553
957.392
2.71196
5.78254
955.643
-11.3205
16.2736
953.813
-13.9063
11.1933
956.356
-19.8479
15.3734
959.969
-20.4277
10.7147
966.294
-24.8136
10.1675
973.726
-23.5069
4.5792
982.314
-26.639
3.43875
-21.4928
2.45547
3574.87
44.6177
3838.65
2487.78
215.421
528.262
1519.24
311.826
-124.432
1161.79
208.118
-65.5365
1023.55
160.201
-94.9262
944.278
177.81
-19.5137
940.439
132.113
13.2788
924.738
141.255
20.1038
924.514
78.4078
27.8
910.862
69.251
17.9155
902.94
26.5808
23.3101
890.74
21.4778
13.4488
885.147
-0.386166
14.8235
880.169
-3.28526
8.03255
881.387
-16.2315
9.45027
883.946
-19.0576
7.06095
889.931
-27.3562
7.78848
896.149
-26.7437
3.87635
903.545
-31.2116
2.45228
-25.0116
1.06331
483.136
221.329
-269.976
667.797
218.324
-100.232
659.599
268.172
-288.155
700.671
170.573
-37.8294
737.801
117.168
-72.0766
742.216
158.545
2.70552
798.149
73.2802
2.80723
809.799
127.031
20.8798
836.767
54.6473
20.1192
832.228
77.5395
12.0921
834.837
26.6318
10.2624
826.648
31.2618
1.50289
828.309
-1.91438
2.10793
829.093
-3.62726
-0.0220927
836.779
-23.4561
3.91897
844.688
-25.6507
4.50364
854.671
-35.5184
5.79956
863.136
-33.2361
4.16405
871.336
-37.1915
3.63639
-28.1635
3.2506
1556.67
-1194.77
-1385.13
1222.3
40.9647
-200.712
1004.76
211.021
-86.8693
946.171
121.411
21.1501
922.014
101.923
45.52
899.897
159.626
30.6394
905.22
56.5853
15.6843
894.458
131.258
11.0244
889.997
56.8509
11.7683
873.454
94.5587
6.86324
861.147
39.2822
9.06684
847.193
45.3308
2.74966
842.089
3.16666
4.01896
839.826
-2.91795
0.670066
844.371
-27.6615
4.72985
848.811
-29.7321
3.10045
854.675
-40.81
4.62462
859.661
-37.1829
3.86626
864.388
-40.447
2.90063
-29.2565
1.29306
1808.73
155.093
384.215
1094.32
311.147
177.585
873.934
178.718
75.7149
862.02
74.4655
118.698
887.364
65.4819
82.2271
862.462
173.937
44.3521
883.374
31.0511
13.6941
854.37
156.017
15.2585
850.407
57.3287
13.9585
833.125
110.423
5.25568
829.019
42.754
9.31884
822.077
51.7817
2.93519
825.006
2.68023
10.0951
828.137
-2.19494
9.01276
833.443
-31.306
5.97496
841.133
-37.1712
2.85247
848.096
-47.7232
3.42921
853.184
-42.4274
2.44208
856.143
-42.9714
2.23331
-29.1806
-0.666992
388.758
1337.19
1993.49
595.731
248.886
490.416
741.749
-17.9917
137.952
891.241
-66.174
175.214
987.375
-16.6223
125.968
959.245
209.821
69.1963
928.514
28.918
62.09
7.37026
27.624
5.01453
886.802
38.5623
63.6387
62.9764
39.2116
63.6784
848.17
35.6746
41.832
18.2516
32.9732
15.9305
830.088
27.3167
40.4818
40.5468
26.3744
39.6983
820.628
19.9773
21.707
11.7143
18.1185
10.1197
825.085
10.1538
21.5439
16.503
9.5997
16.4449
835.407
2.15513
13.2286
-3.49952
1.99726
-3.12011
851.872
-7.13692
18.735
-2.72243
-5.4139
-0.00550084
865.012
-42.6006
11.1644
870.827
-43.3537
6.57098
875.868
-53.0237
5.02149
877.821
-44.2857
5.92568
875.239
-39.7343
6.49329
-23.9728
0.516536
1593.69
448.348
3514.34
1489.11
136.532
172.093
1178.31
5.92016
632.673
1168.33
-84.1632
187.531
1101.67
33.3813
139.104
257.717
59.0323
16.1
246.559
244.805
233.658
98.7982
64.8787
102.319
-9.26432
230.385
60.3616
5.15296
-18.705
-204.742
203.669
40.2078
18.1323
-16.5544
-207.449
200.116
45.8393
13.723
-15.3035
-194.053
197.9
25.5184
13.255
-2.51687
-202.892
201.483
23.0391
0.863811
1.11025
-201.462
205.545
5.72919
-0.768836
2.87191
-211.408
214.023
-0.566575
-2.7645
-0.0708325
-216.094
220.321
-12.1391
0.846006
898.588
-19.713
14.2758
-223.478
-224.644
-215.578
-215.555
-15.7676
-17.1209
-13.0682
906.26
-51.4763
8.93392
910.88
-58.2863
7.27679
912.019
-46.3736
6.86027
905.206
-32.5425
8.11722
-14.6867
1.56029
303.167
-1182.58
-760.929
554.706
-46.005
-118.953
590.876
25.7956
192.27
615.092
-31.0537
81.0683
182.517
71.5763
64.4776
161.612
171.381
149.815
6.88175
203.047
42.3645
-10.7437
6.1023
-20.5369
-56.7781
54.8814
22.6426
-6.31136
2.92902
-49.248
-12.6315
47.6821
13.3696
-2.10122
-3.86855
-48.9613
-11.68
49.3107
11.5924
3.60676
-3.14921
-49.8094
-7.53144
49.7481
7.97677
2.76524
-0.704282
-51.8886
-5.65351
52.3719
5.44622
0.428234
1.19001
-54.0924
-1.34338
54.3586
1.1553
-1.26815
0.841127
-56.4074
0.816734
56.8902
-1.29303
-0.847652
-0.0120598
-58.1325
3.28024
58.2952
-3.52302
0.092146
-58.9914
-4.56558
235.017
-21.5981
6.0018
-59.526
-57.7894
-58.2611
923.147
-63.9477
19.5607
-234.743
-233.083
-224.685
-222.339
926.592
-62.3613
6.38356
930.074
-51.2867
2.96332
925.715
-30.3473
0.413828
-8.4818
-1.79375
908.972
-807.1
1393.7
413.203
-114.679
1009.96
531.393
-109.998
839.025
583.794
-29.3493
255.677
183.969
52.9055
149.089
174.576
174.514
166.652
-3.21141
-25.1119
187.674
26.7006
-2.08263
8.0399
-16.9604
-50.6779
52.1775
15.0667
-7.64577
4.11591
-15.0667
-54.3006
53.904
14.6796
-3.33216
-3.21816
-11.2735
-52.7747
52.8257
11.3294
3.11124
-2.19968
-7.75429
-53.9708
54.3979
7.5609
1.96596
-55.9969
0.126103
-3.68377
56.5262
3.23887
-0.210526