/*--------------------------------*- C++ -*----------------------------------*\
  =========                 |
  \\      /  F ield         | OpenFOAM: The Open Source CFD Toolbox
   \\    /   O peration     | Website:  https://openfoam.org
    \\  /    A nd           | Version:  10
     \\/     M anipulation  |
\*---------------------------------------------------------------------------*/
FoamFile
{
    format      ascii;
    class       volScalarField;
    location    "5";
    object      turbidity;
}
// * * * * * * * * * * * * * * * * * * * * * * * * * * * * * * * * * * * * * //

dimensions      [0 0 0 0 0 0 0];

internalField   nonuniform List<scalar> 
12920
(
-0.0134336
-0.0233029
-0.0445105
-0.0710976
-0.0925874
-0.112089
-0.13215
-0.151559
-0.160481
-0.165313
-0.180155
-0.205555
-0.241036
-0.281786
-0.323129
-0.360232
-0.392784
-0.42131
-0.446074
-0.466812
-0.0481341
-0.0717944
-0.0761093
-0.0932303
-0.106825
-0.138418
-0.170314
-0.194313
-0.215447
-0.237998
-0.265308
-0.296321
-0.329638
-0.36352
-0.397673
-0.432435
-0.4674
-0.50067
-0.530518
-0.554884
-0.0211981
-0.0708361
-0.0851762
-0.11081
-0.138472
-0.17397
-0.207491
-0.23571
-0.264339
-0.294156
-0.328218
-0.36376
-0.400356
-0.435565
-0.468915
-0.499528
-0.527299
-0.552392
-0.574786
-0.593243
-0.0550402
-0.0710643
-0.0812528
-0.115455
-0.152276
-0.194981
-0.236217
-0.271375
-0.307067
-0.344587
-0.383789
-0.421852
-0.454177
-0.481055
-0.501328
-0.518027
-0.532515
-0.548199
-0.56583
-0.586651
-0.0199124
-0.0463704
-0.0674634
-0.0979188
-0.132776
-0.1691
-0.201481
-0.234359
-0.262974
-0.293864
-0.324768
-0.358061
-0.390042
-0.417997
-0.438429
-0.453276
-0.46519
-0.479845
-0.499405
-0.526364
-0.0382233
-0.0653578
-0.0765201
-0.106643
-0.13556
-0.162375
-0.186012
-0.211276
-0.23625
-0.262339
-0.290675
-0.322881
-0.352716
-0.374918
-0.383747
-0.387117
-0.390914
-0.401778
-0.421341
-0.452187
-0.0315805
-0.0602394
-0.0799894
-0.0998846
-0.118489
-0.140043
-0.159948
-0.187118
-0.220346
-0.261126
-0.302282
-0.334066
-0.33818
-0.322205
-0.300865
-0.291908
-0.294773
-0.308856
-0.331601
-0.364495
-0.0109618
-0.0305595
-0.056573
-0.084093
-0.106598
-0.125286
-0.127924
-0.135861
-0.161137
-0.19371
-0.238541
-0.245932
-0.222462
-0.178895
-0.144952
-0.169222
-0.200556
-0.233344
-0.264651
-0.295221
-0.00832217
-0.0253404
-0.0486277
-0.0813911
-0.114463
-0.118591
-0.119322
-0.121377
-0.130731
-0.153629
-0.186617
-0.193898
-0.166226
-0.129832
-0.107911
-0.14608
-0.192282
-0.234376
-0.267662
-0.29327
-0.0230143
-0.0419194
-0.0622651
-0.101122
-0.155198
-0.16233
-0.14184
-0.123803
-0.126943
-0.140659
-0.151226
-0.139172
-0.115755
-0.102266
-0.10912
-0.174066
-0.230982
-0.27705
-0.305299
-0.322018
-0.0227502
-0.0352679
-0.0579553
-0.0853284
-0.113869
-0.121285
-0.128872
-0.134485
-0.137791
-0.140454
-0.132624
-0.110509
-0.10052
-0.104965
-0.13367
-0.213347
-0.277602
-0.331964
-0.365829
-0.377303
-0.0241011
-0.0268327
-0.0473666
-0.0859264
-0.128323
-0.131949
-0.127241
-0.113283
-0.105979
-0.103012
-0.0966915
-0.0927956
-0.10033
-0.118495
-0.164234
-0.254097
-0.32212
-0.381441
-0.425409
-0.442991
-0.0333223
-0.0441858
-0.0665322
-0.104196
-0.136072
-0.159718
-0.155564
-0.13973
-0.123558
-0.1167
-0.120975
-0.132779
-0.151235
-0.174194
-0.243907
-0.301673
-0.359322
-0.413243
-0.460675
-0.491699
-0.0220816
-0.0585091
-0.0884883
-0.117779
-0.146589
-0.175124
-0.195555
-0.21737
-0.231196
-0.24581
-0.258712
-0.268912
-0.276871
-0.28668
-0.305986
-0.339411
-0.380955
-0.428223
-0.477478
-0.520239
-0.0055011
-0.0267558
-0.0562809
-0.0812135
-0.107353
-0.137423
-0.17105
-0.20068
-0.225116
-0.239068
-0.244629
-0.244453
-0.246562
-0.257402
-0.284356
-0.324669
-0.372413
-0.427405
-0.484108
-0.533612
-0.022288
-0.0283298
-0.0344201
-0.0491532
-0.0759475
-0.110338
-0.144829
-0.179095
-0.209527
-0.232454
-0.247527
-0.25587
-0.262924
-0.277116
-0.30467
-0.343293
-0.392547
-0.450603
-0.511284
-0.565732
-0.0220216
-0.029248
-0.0353259
-0.0498376
-0.0810987
-0.127499
-0.165386
-0.189695
-0.207984
-0.223844
-0.239439
-0.255063
-0.271789
-0.291687
-0.318439
-0.35704
-0.410337
-0.472484
-0.535156
-0.59216
-0.0128705
-0.024972
-0.0366771
-0.0551007
-0.0785734
-0.10057
-0.120199
-0.139211
-0.161246
-0.184342
-0.207711
-0.228926
-0.248342
-0.267616
-0.289116
-0.318403
-0.361383
-0.417378
-0.479536
-0.543941
-0.0693435
-0.062646
-0.0665611
-0.0908864
-0.107839
-0.125145
-0.145587
-0.167746
-0.192414
-0.217776
-0.244445
-0.271164
-0.297675
-0.32264
-0.344975
-0.36112
-0.367525
-0.370341
-0.384667
-0.415111
-0.078457
-0.0562859
-0.0583248
-0.0816395
-0.0991545
-0.115225
-0.129986
-0.143379
-0.161426
-0.183512
-0.212712
-0.243393
-0.274369
-0.302599
-0.325709
-0.338237
-0.335858
-0.325573
-0.313505
-0.307412
-0.0101512
-0.0199707
-0.0281104
-0.0336458
-0.0426965
-0.0550917
-0.0599312
-0.0454874
-0.0261577
-0.0178275
-0.0189267
-0.026065
-0.0374848
-0.0510081
-0.0663135
-0.0820266
-0.0950902
-0.101373
-0.0994532
-0.0924152
-0.00962055
-0.0203837
-0.0130158
-0.0125127
-0.0157328
-0.0200726
-0.0258461
-0.0261382
-0.028841
-0.0348454
-0.0496055
-0.0658873
-0.0859368
-0.10309
-0.118147
-0.125566
-0.126764
-0.121121
-0.112305
-0.100147
-0.0229935
-0.0263874
-0.0193551
-0.0165219
-0.0162088
-0.0202468
-0.031886
-0.0378547
-0.0485735
-0.0555436
-0.0662625
-0.0742628
-0.0850179
-0.0934587
-0.101884
-0.106553
-0.109196
-0.106642
-0.0992815
-0.0867477
-0.0100632
-0.0243195
-0.0213932
-0.0242999
-0.0290289
-0.0385382
-0.0551573
-0.0661211
-0.0753957
-0.0743603
-0.0707165
-0.0658587
-0.0674861
-0.0752266
-0.0879954
-0.1012
-0.112657
-0.11995
-0.121742
-0.116507
-0.0106136
-0.0178132
-0.0219096
-0.0258851
-0.0316683
-0.0390015
-0.0484963
-0.0578919
-0.064868
-0.0652837
-0.0616582
-0.0558198
-0.0539905
-0.0561548
-0.0627879
-0.0711112
-0.0813279
-0.0915998
-0.100215
-0.103654
-0.00935124
-0.0141301
-0.0186722
-0.0299488
-0.0368587
-0.0396978
-0.0432927
-0.0448004
-0.043826
-0.0414267
-0.0430203
-0.0465474
-0.0542733
-0.0564958
-0.0527567
-0.0491067
-0.0497999
-0.0546344
-0.0639464
-0.0723295
-0.0087016
-0.0269146
-0.0243661
-0.0315348
-0.0398262
-0.0477989
-0.0565809
-0.0606855
-0.0617247
-0.0584551
-0.0581873
-0.0594661
-0.0560029
-0.0502747
-0.044431
-0.0399495
-0.0390854
-0.0416602
-0.0489521
-0.0572707
-0.0070126
-0.0187045
-0.025532
-0.0282498
-0.0276135
-0.0311956
-0.0382027
-0.0609852
-0.0760211
-0.0806983
-0.0589373
-0.0463736
-0.0419853
-0.0414906
-0.0352644
-0.0355666
-0.036812
-0.0391703
-0.0443797
-0.0502411
-0.0101429
-0.0208773
-0.0375184
-0.0422585
-0.0404265
-0.0336702
-0.0328096
-0.0451144
-0.0806753
-0.0976274
-0.0814719
-0.0715146
-0.0813753
-0.0852926
-0.0657819
-0.0424551
-0.0406982
-0.0403395
-0.0423538
-0.0474535
-0.00394847
-0.0229875
-0.0453085
-0.0623637
-0.0781053
-0.0678065
-0.0468183
-0.0420281
-0.0729653
-0.0981149
-0.103538
-0.108101
-0.0962738
-0.0849053
-0.0603923
-0.0387398
-0.0372204
-0.036232
-0.0355906
-0.036619
-0.00469834
-0.0197806
-0.0299522
-0.0323407
-0.0486299
-0.0531472
-0.0544232
-0.0704165
-0.0898641
-0.102677
-0.0899035
-0.0668908
-0.06084
-0.0588115
-0.0439441
-0.0355874
-0.0383903
-0.0400625
-0.0390104
-0.0364797
-0.00372325
-0.00548714
-0.0104308
-0.0160657
-0.0199948
-0.0203919
-0.0203055
-0.0285323
-0.0383531
-0.043909
-0.0521339
-0.0549913
-0.055269
-0.0517938
-0.0371474
-0.0414481
-0.0487522
-0.0559111
-0.0576381
-0.051164
-0.00896589
-0.0180335
-0.0353846
-0.0331059
-0.0286145
-0.0188785
-0.016327
-0.0252413
-0.0334123
-0.0368671
-0.0335341
-0.0307609
-0.0292232
-0.0294094
-0.0359884
-0.0466967
-0.0573124
-0.066976
-0.0727508
-0.0677177
-0.0112748
-0.0326889
-0.0414041
-0.0402705
-0.034588
-0.0306204
-0.0225026
-0.0252384
-0.0217291
-0.0200187
-0.0167074
-0.0161519
-0.0193403
-0.0271409
-0.0395058
-0.0552427
-0.0683977
-0.0730684
-0.0728255
-0.0708789
-0.007716
-0.0191478
-0.0269845
-0.0372518
-0.051175
-0.0549135
-0.0543413
-0.0433075
-0.031125
-0.0204555
-0.0150268
-0.0150222
-0.0205332
-0.0326188
-0.0507041
-0.0715004
-0.0862594
-0.0866892
-0.0758349
-0.0693247
-0.00867521
-0.0139841
-0.0194903
-0.0317793
-0.0493034
-0.0606917
-0.0695146
-0.0672558
-0.0580942
-0.0444993
-0.0333688
-0.0289628
-0.034622
-0.0504919
-0.0754592
-0.101703
-0.116931
-0.114257
-0.0996016
-0.0854003
-0.0204072
-0.0143192
-0.0198837
-0.0303986
-0.0463109
-0.0460197
-0.0452208
-0.0434292
-0.046518
-0.0506714
-0.0579346
-0.0657574
-0.0765273
-0.0908955
-0.110017
-0.123788
-0.126653
-0.120628
-0.113265
-0.100939
-0.00952095
-0.0166161
-0.0223115
-0.0254781
-0.0222016
-0.0151643
-0.0124728
-0.0120437
-0.0129419
-0.0153117
-0.0196677
-0.0269721
-0.0386153
-0.0561785
-0.0811153
-0.103489
-0.113597
-0.11566
-0.128621
-0.135869
-0.0124993
-0.0229335
-0.0126565
-0.0146911
-0.0104821
-0.00993603
-0.0113324
-0.0148062
-0.0232142
-0.0324576
-0.0421921
-0.0501477
-0.0595948
-0.0681934
-0.0735576
-0.0699749
-0.0629926
-0.0627341
-0.077197
-0.105139
-0.0044852
-0.00649869
-0.0130244
-0.0152403
-0.0135924
-0.012399
-0.0138183
-0.0183254
-0.0252701
-0.0325751
-0.0396202
-0.0454524
-0.0501347
-0.0525584
-0.0530406
-0.0502542
-0.0448977
-0.0407173
-0.03973
-0.043011
-0.0153759
-0.0190274
-0.0226954
-0.026424
-0.0320021
-0.0350946
-0.0307242
-0.0202091
-0.0133977
-0.0124751
-0.0154578
-0.0202401
-0.025612
-0.0304392
-0.0348967
-0.038033
-0.0396234
-0.0389686
-0.0362353
-0.0326347
-0.00780608
-0.0108769
-0.00969957
-0.0098121
-0.012145
-0.0134951
-0.0139529
-0.014289
-0.0168537
-0.0205357
-0.0258638
-0.0305343
-0.0354902
-0.037781
-0.0381163
-0.0352174
-0.0312428
-0.0265789
-0.0228819
-0.0201756
-0.0075007
-0.0099833
-0.0112478
-0.00994914
-0.00925443
-0.00996673
-0.0126614
-0.0145017
-0.0178779
-0.0200554
-0.0233976
-0.0255441
-0.0282741
-0.0294187
-0.030404
-0.0300307
-0.0295347
-0.0280896
-0.0266151
-0.0255162
-0.0140535
-0.0177392
-0.0147083
-0.0129041
-0.0123935
-0.0145885
-0.0194298
-0.0221555
-0.0241229
-0.0235194
-0.0238653
-0.0251568
-0.02821
-0.0319277
-0.0359829
-0.0390827
-0.0410236
-0.0411891
-0.0400794
-0.0382822
-0.0181908
-0.0173608
-0.0158313
-0.0153473
-0.0162186
-0.017486
-0.0203528
-0.0227599
-0.024214
-0.0238965
-0.0238004
-0.0246659
-0.0266379
-0.0295869
-0.0327975
-0.0360536
-0.0387827
-0.0405058
-0.0409794
-0.0404081
-0.00311795
-0.00988759
-0.0129077
-0.0171716
-0.0192185
-0.0180548
-0.0178084
-0.0175868
-0.0172806
-0.0176089
-0.0185919
-0.0198963
-0.0210961
-0.0220131
-0.02273
-0.0241552
-0.0261716
-0.0285033
-0.0308076
-0.0322939
-0.00399067
-0.0132169
-0.0128193
-0.0164515
-0.0218822
-0.0252753
-0.0269929
-0.0247795
-0.0224206
-0.0202577
-0.0189258
-0.0183842
-0.0170892
-0.0163785
-0.0162919
-0.0171498
-0.019004
-0.0217149
-0.0251403
-0.0282057
-0.00225439
-0.00654105
-0.0114169
-0.012835
-0.0135185
-0.0169239
-0.0196722
-0.0268565
-0.0264286
-0.0230919
-0.017254
-0.0141661
-0.0128011
-0.0123416
-0.0123789
-0.0137954
-0.0156671
-0.0181898
-0.0216513
-0.0253341
-0.00431964
-0.00845288
-0.0151005
-0.0151488
-0.0140907
-0.0146608
-0.0170108
-0.0228267
-0.0316396
-0.0280591
-0.0214863
-0.0197519
-0.0198954
-0.0193559
-0.0164312
-0.0145561
-0.0157025
-0.0175283
-0.0204918
-0.0244641
-0.00236332
-0.0149301
-0.030717
-0.0314984
-0.0284657
-0.0222922
-0.0179121
-0.0184708
-0.0283958
-0.0318979
-0.0352313
-0.0358343
-0.0327574
-0.0275717
-0.0176916
-0.0138877
-0.0147737
-0.0162246
-0.0184331
-0.0216459
-0.00663361
-0.013986
-0.0156612
-0.0150249
-0.0195572
-0.020905
-0.022327
-0.029512
-0.036401
-0.0371054
-0.032562
-0.0250894
-0.0203828
-0.0167486
-0.0136598
-0.0153059
-0.0167305
-0.018031
-0.0194433
-0.0214417
-0.00986064
-0.0105385
-0.0113984
-0.0107241
-0.00999714
-0.00960286
-0.00906786
-0.0138181
-0.0183
-0.0206622
-0.0210542
-0.0187889
-0.0159703
-0.0137212
-0.0147828
-0.0191073
-0.0211107
-0.0227275
-0.0237498
-0.0245798
-0.00552702
-0.0111979
-0.0184335
-0.0124956
-0.00920423
-0.00717614
-0.00661331
-0.00816701
-0.00966875
-0.0107583
-0.0108006
-0.0110183
-0.0117736
-0.0135391
-0.0183319
-0.0213108
-0.0240182
-0.0264601
-0.0282458
-0.0291195
-0.0123398
-0.0158549
-0.0151763
-0.0140053
-0.010997
-0.0098628
-0.00743316
-0.00713698
-0.00654005
-0.00678416
-0.00774015
-0.0098552
-0.0128918
-0.0167489
-0.0206124
-0.0239514
-0.0259508
-0.0269982
-0.0284146
-0.0303638
-0.00775846
-0.014778
-0.0151558
-0.0174224
-0.0219473
-0.020616
-0.0173238
-0.0124097
-0.00899669
-0.00776914
-0.00857702
-0.0115218
-0.0160252
-0.0215242
-0.0265729
-0.0299188
-0.0300702
-0.0277949
-0.0258359
-0.0264427
-0.00518977
-0.00992553
-0.0127937
-0.0189756
-0.0285575
-0.0307817
-0.0300375
-0.023744
-0.0176552
-0.0138665
-0.0136516
-0.017082
-0.0232038
-0.0305666
-0.0376113
-0.0416536
-0.0406629
-0.0350679
-0.0292141
-0.0261124
-0.0106983
-0.0119268
-0.0163094
-0.0183856
-0.0218746
-0.0179819
-0.0164355
-0.0153563
-0.0167442
-0.0192421
-0.0235556
-0.0288789
-0.0359431
-0.0433126
-0.0495409
-0.0494755
-0.0439958
-0.037053
-0.0317708
-0.0276967
-0.011608
-0.0189987
-0.0174211
-0.0127385
-0.00922539
-0.00760777
-0.00747618
-0.00827683
-0.0100656
-0.0134282
-0.018629
-0.0255795
-0.033905
-0.0418863
-0.0483611
-0.0492759
-0.0450276
-0.0405732
-0.0404287
-0.0381422
-0.00994236
-0.017194
-0.0113155
-0.00846485
-0.00772881
-0.0083521
-0.0102441
-0.0135251
-0.0181509
-0.0233177
-0.0283927
-0.0318494
-0.0335357
-0.0326627
-0.0308184
-0.0290022
-0.0293442
-0.0327703
-0.0406335
-0.0500678
-0.0108126
-0.0171661
-0.0147639
-0.011991
-0.00994227
-0.00961818
-0.0117027
-0.0154691
-0.0198881
-0.0234126
-0.0260823
-0.0272807
-0.0274096
-0.0263999
-0.0250653
-0.0237944
-0.0242626
-0.0274669
-0.0337266
-0.042219
-0.00409321
-0.00946626
-0.0141061
-0.0176162
-0.0201626
-0.018768
-0.0145163
-0.0104073
-0.00942495
-0.0108959
-0.0134069
-0.0158574
-0.0180737
-0.0197136
-0.0208751
-0.0210854
-0.0205349
-0.0192164
-0.017454
-0.0156723
-0.00958286
-0.0109326
-0.00960156
-0.00973485
-0.0102803
-0.00984665
-0.00963109
-0.010215
-0.0115061
-0.01234
-0.0132407
-0.0132249
-0.0134297
-0.0129936
-0.0128093
-0.0127507
-0.0133051
-0.0143396
-0.0158757
-0.0176982
-0.00713132
-0.0122054
-0.0114756
-0.00955721
-0.00842737
-0.00819881
-0.00881076
-0.00936564
-0.0103058
-0.010694
-0.0115271
-0.0118919
-0.0127535
-0.0134462
-0.0146007
-0.0158555
-0.0174783
-0.0192379
-0.021185
-0.0230929
-0.0186883
-0.0221809
-0.0156142
-0.0113157
-0.00942436
-0.00943871
-0.0102928
-0.0109627
-0.0117893
-0.0121801
-0.0131978
-0.0142438
-0.015774
-0.0172175
-0.0188016
-0.0201503
-0.0214312
-0.0225902
-0.0238038
-0.0250927
-0.00919698
-0.0145528
-0.0138959
-0.0116146
-0.0101474
-0.0100158
-0.0108389
-0.0116652
-0.0125206
-0.0131808
-0.0141581
-0.0153817
-0.016746
-0.0181534
-0.0194112
-0.0204457
-0.0212263
-0.0217957
-0.0223246
-0.0230515
-0.00937901
-0.0129894
-0.0129036
-0.0129903
-0.011864
-0.0101089
-0.00967394
-0.0101421
-0.0106408
-0.0115284
-0.0122425
-0.0132461
-0.0140884
-0.0150971
-0.0159465
-0.016771
-0.0174695
-0.0180541
-0.0186236
-0.0192064
-0.0119591
-0.0109353
-0.0102655
-0.0130034
-0.0157538
-0.0147913
-0.0131013
-0.0115754
-0.0107433
-0.0107055
-0.0105114
-0.0109787
-0.0113719
-0.0122722
-0.0133424
-0.0145798
-0.0157841
-0.0168073
-0.0177035
-0.0183394
-0.00428497
-0.00629733
-0.00729291
-0.00731655
-0.00859134
-0.0101364
-0.0107275
-0.0117768
-0.010903
-0.00993056
-0.00908237
-0.00829843
-0.00842519
-0.00871508
-0.0110474
-0.0128197
-0.0147077
-0.0165171
-0.0181518
-0.0194103
-0.00451052
-0.00388526
-0.00567371
-0.00575564
-0.00662784
-0.00804639
-0.00937669
-0.0106715
-0.0115711
-0.009961
-0.00815856
-0.00730451
-0.00714246
-0.00757831
-0.00883118
-0.0122909
-0.0143346
-0.0165527
-0.0187666
-0.0206182
-0.0118047
-0.0121736
-0.0172566
-0.012697
-0.00936354
-0.00835654
-0.00836082
-0.00897582
-0.0111778
-0.0119717
-0.0113423
-0.0098861
-0.00869485
-0.00844719
-0.00940827
-0.0129228
-0.0147605
-0.0167391
-0.0187082
-0.0203569
-0.0100143
-0.0152254
-0.0136937
-0.0100777
-0.00850462
-0.00918728
-0.0102664
-0.0128794
-0.0145396
-0.0134012
-0.0107871
-0.0089965
-0.00785944
-0.00810675
-0.0102496
-0.0141792
-0.0157288
-0.0172981
-0.018831
-0.0201585
-0.00677661
-0.00816437
-0.00862046
-0.00803368
-0.00662502
-0.00606704
-0.00565868
-0.00797593
-0.00930019
-0.00879207
-0.00771608
-0.00722668
-0.00777869
-0.00916739
-0.0119872
-0.015117
-0.0166481
-0.0180617
-0.0193117
-0.0203596
-0.00544631
-0.00901435
-0.0100113
-0.00691982
-0.00534033
-0.00458964
-0.00440653
-0.00511691
-0.0057808
-0.00638639
-0.00705489
-0.00790494
-0.00904926
-0.0103528
-0.0129668
-0.0145806
-0.0162917
-0.0179688
-0.0194941
-0.0208108
-0.0120175
-0.0153108
-0.0108839
-0.00789343
-0.00600639
-0.00532358
-0.00471398
-0.00494696
-0.00558728
-0.00662506
-0.00782165
-0.0091575
-0.0103723
-0.0115003
-0.0125636
-0.013732
-0.0150813
-0.0166408
-0.0184914
-0.0204817
-0.00541067
-0.0130376
-0.0122864
-0.0108204
-0.0104483
-0.00875775
-0.00705065
-0.00602225
-0.00602245
-0.00712514
-0.00870153
-0.010529
-0.0119544
-0.0129356
-0.0133978
-0.0137945
-0.0141911
-0.0149716
-0.0164057
-0.0184097
-0.00202009
-0.00714854
-0.00947033
-0.0114704
-0.0142391
-0.0129932
-0.0111268
-0.00892452
-0.00821613
-0.00919755
-0.0110851
-0.0133008
-0.0150845
-0.0161359
-0.0166512
-0.0165192
-0.015885
-0.0153547
-0.0156986
-0.0169129
-0.00985594
-0.00996544
-0.0104904
-0.0106448
-0.0104341
-0.00881537
-0.00855613
-0.00910199
-0.0107416
-0.0129795
-0.0155926
-0.0177956
-0.0196167
-0.020319
-0.0202728
-0.0187197
-0.0169596
-0.0160829
-0.0163238
-0.0172645
-0.00754824
-0.0107477
-0.00963353
-0.00775628
-0.00672587
-0.00663384
-0.0073715
-0.00914016
-0.011787
-0.0150567
-0.0184036
-0.0208745
-0.0224303
-0.022454
-0.0220423
-0.0202601
-0.0183852
-0.017557
-0.0180938
-0.0186793
-0.0105602
-0.0115854
-0.00988099
-0.0080339
-0.00753442
-0.00869118
-0.0109337
-0.0134975
-0.015981
-0.0174814
-0.0180335
-0.0175234
-0.0168223
-0.016437
-0.0167422
-0.0177893
-0.0195629
-0.022161
-0.0258756
-0.0298203
-0.00998273
-0.0104347
-0.0103104
-0.00935123
-0.00811022
-0.00860534
-0.0109053
-0.013081
-0.0146739
-0.0151885
-0.0152741
-0.0148831
-0.0147714
-0.0150969
-0.0166806
-0.0201772
-0.0258812
-0.0335309
-0.0423493
-0.052712
-0.00629407
-0.00559041
-0.0076598
-0.00912912
-0.00938675
-0.00780478
-0.00697086
-0.00788222
-0.00997342
-0.0116424
-0.0124327
-0.0123646
-0.0120954
-0.0115137
-0.0111385
-0.0109056
-0.0112207
-0.0121522
-0.0138826
-0.0163795
-0.0197176
-0.010111
-0.00817211
-0.00744339
-0.00696879
-0.00699177
-0.00761787
-0.00847171
-0.00937636
-0.0102907
-0.0116176
-0.0132606
-0.0151469
-0.0171807
-0.0191217
-0.0209907
-0.0226322
-0.0241012
-0.0252973
-0.0262083
-0.0130857
-0.0155772
-0.0114722
-0.00837582
-0.00727527
-0.0073826
-0.00796943
-0.00869875
-0.00972547
-0.0108945
-0.0122261
-0.0135854
-0.0147843
-0.0158395
-0.0166383
-0.0172712
-0.0177415
-0.0181066
-0.0184104
-0.0187246
-0.0101503
-0.0115199
-0.00941522
-0.00762786
-0.00731404
-0.0078956
-0.00867386
-0.00944835
-0.01039
-0.0113166
-0.0122729
-0.0131799
-0.0139953
-0.0147517
-0.0154653
-0.0161402
-0.0168174
-0.017459
-0.0181089
-0.0187405
-0.006572
-0.0107015
-0.00850961
-0.00737317
-0.00729597
-0.00806907
-0.00888474
-0.0096848
-0.0104782
-0.0112757
-0.0120597
-0.0128385
-0.0136099
-0.0143742
-0.0151941
-0.0160174
-0.0169215
-0.0178434
-0.0188286
-0.0197427
-0.010852
-0.00961412
-0.00816699
-0.00740423
-0.00706667
-0.00777116
-0.00834752
-0.00925771
-0.0100196
-0.0108779
-0.0116736
-0.0125061
-0.0133624
-0.01427
-0.015277
-0.0163622
-0.0175223
-0.0187031
-0.0198518
-0.0208322
-0.00923771
-0.00877068
-0.00876701
-0.00891952
-0.00861103
-0.00815492
-0.00811562
-0.00885072
-0.00955062
-0.0104691
-0.0113084
-0.0122361
-0.0131835
-0.0141946
-0.015256
-0.016411
-0.0175811
-0.0187462
-0.0197746
-0.0206156
-0.00886082
-0.00596956
-0.00549587
-0.00569862
-0.00616399
-0.00690904
-0.00719848
-0.00836701
-0.00890168
-0.00929352
-0.0101283
-0.0106849
-0.011562
-0.0122642
-0.0145436
-0.0155021
-0.0164684
-0.0174168
-0.018214
-0.0188147
-0.00180918
-0.00262327
-0.00386492
-0.00470839
-0.00537596
-0.00625234
-0.00683797
-0.00726147
-0.00774398
-0.00743387
-0.00809495
-0.00886307
-0.00998669
-0.0110844
-0.0122975
-0.0141606
-0.0149189
-0.0157254
-0.0164417
-0.0169737
-0.00534702
-0.00912762
-0.00952162
-0.00703115
-0.00596368
-0.00608317
-0.00646751
-0.00662808
-0.00640725
-0.00631178
-0.00698697
-0.008355
-0.0100101
-0.0114448
-0.0125434
-0.0136123
-0.0142274
-0.0149727
-0.0157363
-0.0164046
-0.0108839
-0.0140981
-0.0162516
-0.0106047
-0.00687031
-0.00642513
-0.00636851
-0.00672115
-0.00651084
-0.00642935
-0.00698185
-0.00825293
-0.0100955
-0.0117535
-0.013013
-0.0140355
-0.0146626
-0.0154555
-0.0163372
-0.0172078
-0.00527283
-0.00475185
-0.00747013
-0.00791605
-0.00609337
-0.00547007
-0.00516629
-0.00566378
-0.00581617
-0.00618307
-0.00716352
-0.00869536
-0.0105176
-0.0120857
-0.0135217
-0.0156912
-0.0163766
-0.0172192
-0.0180979
-0.0189687
-0.0174946
-0.00828031
-0.00703572
-0.00522005
-0.0044945
-0.00458813
-0.0048408
-0.00569741
-0.00655568
-0.00761991
-0.00902517
-0.0105413
-0.0121437
-0.0135831
-0.016924
-0.0180493
-0.0191853
-0.020377
-0.0214713
-0.0224732
-0.0141251
-0.0117739
-0.0065891
-0.00468237
-0.0042378
-0.00463648
-0.00546193
-0.00643247
-0.00765012
-0.008956
-0.0105224
-0.0122341
-0.0140589
-0.0159149
-0.0177336
-0.0195155
-0.0212704
-0.0230158
-0.0246655
-0.0261305
-0.00444616
-0.00741687
-0.00679882
-0.00582409
-0.00521039
-0.00516855
-0.00562858
-0.00652538
-0.00761202
-0.00896521
-0.0105179
-0.0123221
-0.0142735
-0.0163178
-0.0183525
-0.0203156
-0.0222404
-0.0240776
-0.0257297
-0.0270282
-0.000757654
-0.00576638
-0.00759984
-0.00696957
-0.00664111
-0.00640054
-0.00665754
-0.00746007
-0.00845784
-0.00975585
-0.011211
-0.0129145
-0.0148038
-0.0168427
-0.0188983
-0.0209386
-0.0228958
-0.0247305
-0.0261869
-0.0271368
-0.0046579
-0.00818021
-0.00732322
-0.00685302
-0.00667131
-0.00712981
-0.00794645
-0.0089551
-0.00999937
-0.0110694
-0.0123294
-0.0137228
-0.0154373
-0.017336
-0.0194483
-0.0217166
-0.0241255
-0.0265245
-0.0285986
-0.0301519
-0.00249742
-0.00573667
-0.00616042
-0.00558899
-0.00588365
-0.00706844
-0.00861078
-0.0100211
-0.0112262
-0.0121805
-0.0131418
-0.0141205
-0.0152996
-0.0166484
-0.0182681
-0.0201351
-0.0223291
-0.0248302
-0.0273782
-0.02971
-0.0070063
-0.0120533
-0.0101652
-0.0071894
-0.0070428
-0.00808106
-0.00932766
-0.0102408
-0.0112312
-0.0121596
-0.0134016
-0.0148431
-0.0164531
-0.0181805
-0.019933
-0.0218434
-0.0239539
-0.0262424
-0.0285703
-0.030663
-0.00753935
-0.010524
-0.0113883
-0.0105879
-0.00834003
-0.00748159
-0.00804712
-0.00853876
-0.00905767
-0.00969403
-0.0110052
-0.0130227
-0.015987
-0.0199359
-0.0245888
-0.0297469
-0.0351465
-0.0408547
-0.0471405
-0.0545707
-0.034444
-0.038177
-0.0366215
-0.0152344
-0.015279
-0.0184993
-0.0168168
-0.0361064
-0.0355519
-0.0307842
-0.0150904
-0.0140914
-0.01587
-0.0130524
-0.034447
-0.0239916
-0.0233604
-0.0178251
-0.0155234
-0.0133244
-0.0115694
-0.0267536
-0.0228324
-0.020696
-0.0147211
-0.01248
-0.0110007
-0.00961677
-0.120342
-0.116735
-0.115726
-0.10094
-0.0926905
-0.0927669
-0.077292
-0.127082
-0.116609
-0.121982
-0.0965063
-0.122055
-0.079178
-0.106671
-0.145962
-0.124644
-0.136894
-0.130332
-0.150431
-0.117361
-0.142251
-0.178468
-0.142176
-0.155648
-0.157274
-0.171683
-0.147913
-0.155512
-0.196621
-0.157686
-0.153566
-0.173345
-0.164332
-0.155058
-0.147306
-0.175403
-0.148883
-0.129704
-0.157081
-0.138324
-0.143185
-0.129477
-0.138334
-0.123074
-0.108152
-0.133482
-0.122251
-0.125153
-0.115016
-0.109897
-0.104817
-0.0981553
-0.118956
-0.110112
-0.112543
-0.10747
-0.125372
-0.147562
-0.139944
-0.114039
-0.0817623
-0.127186
-0.116737
-0.125191
-0.13858
-0.136446
-0.0818607
-0.107021
-0.117912
-0.127786
-0.136456
-0.136505
-0.139265
-0.11733
-0.140678
-0.131851
-0.141779
-0.15048
-0.14066
-0.141289
-0.145614
-0.151244
-0.143573
-0.140891
-0.144146
-0.138757
-0.123256
-0.150335
-0.141548
-0.13713
-0.121739
-0.121224
-0.117395
-0.104712
-0.137213
-0.123758
-0.117058
-0.109148
-0.104442
-0.102617
-0.101999
-0.119931
-0.1119
-0.108358
-0.107278
-0.0982804
-0.102913
-0.106351
-0.110149
-0.107146
-0.107283
-0.112145
-0.133211
-0.120257
-0.116143
-0.119509
-0.121275
-0.111353
-0.104036
-0.137181
-0.114839
-0.11341
-0.123382
-0.132123
-0.102725
-0.102158
-0.13991
-0.11369
-0.114391
-0.135061
-0.14101
-0.102413
-0.100311
-0.136777
-0.113838
-0.107731
-0.141252
-0.133357
-0.0981039
-0.0917527
-0.1156
-0.104535
-0.0963603
-0.128183
-0.112554
-0.0915115
-0.0955445
-0.101351
-0.0950826
-0.0968503
-0.109085
-0.10632
-0.097603
-0.106418
-0.103152
-0.0991408
-0.110068
-0.107097
-0.109868
-0.110406
-0.122169
-0.111321
-0.114747
-0.130816
-0.111072
-0.11814
-0.124988
-0.129491
-0.116331
-0.140829
-0.132585
-0.111482
-0.101146
-0.127257
-0.115485
-0.107118
-0.126511
-0.108647
-0.0977152
-0.0893561
-0.110629
-0.0971714
-0.103846
-0.104336
-0.0958061
-0.0871993
-0.0823942
-0.0943115
-0.0921626
-0.0985985
-0.094089
-0.0919232
-0.0817356
-0.0847943
-0.0932281
-0.0985764
-0.092762
-0.0922851
-0.0969922
-0.0873397
-0.0952366
-0.0999849
-0.103122
-0.0974237
-0.0996589
-0.112321
-0.0976677
-0.107088
-0.104446
-0.112075
-0.113078
-0.117947
-0.138524
-0.11134
-0.123315
-0.115726
-0.126777
-0.137053
-0.145832
-0.169267
-0.125959
-0.129621
-0.130461
-0.142885
-0.0397288
-0.0319388
-0.0365719
-0.029562
-0.0338872
-0.0267303
-0.0279382
-0.0705355
-0.0394312
-0.0633184
-0.0379675
-0.0479995
-0.0305239
-0.0401326
-0.0961116
-0.0763716
-0.0999514
-0.0494277
-0.0477074
-0.0419462
-0.0426517
-0.0876328
-0.102007
-0.102202
-0.0456849
-0.0394737
-0.0423323
-0.0428803
-0.070698
-0.10345
-0.109689
-0.037324
-0.0326624
-0.0435326
-0.0453573
-0.0784235
-0.110525
-0.106361
-0.0316363
-0.0299642
-0.0456187
-0.044837
-0.085412
-0.103517
-0.0947154
-0.0297455
-0.0289677
-0.0440772
-0.0406722
-0.0809179
-0.0919861
-0.0839266
-0.0286346
-0.0269219
-0.0391714
-0.0339011
-0.0407312
-0.0565009
-0.0568131
-0.0374598
-0.0296658
-0.0491737
-0.0435398
-0.0613208
-0.0601815
-0.0749104
-0.0314308
-0.039639
-0.043898
-0.0458133
-0.0956989
-0.0812046
-0.0981804
-0.04118
-0.0425825
-0.0464414
-0.0487229
-0.101293
-0.102573
-0.105813
-0.0428855
-0.0450916
-0.0495994
-0.0488029
-0.10875
-0.103404
-0.0870659
-0.0459974
-0.0473105
-0.0476604
-0.0414732
-0.0998001
-0.0809486
-0.0684637
-0.0470629
-0.0446221
-0.0392317
-0.0340687
-0.0873103
-0.0663353
-0.0623094
-0.0434419
-0.0393813
-0.0326313
-0.0287392
-0.0781349
-0.0612273
-0.0589355
-0.0377945
-0.0325942
-0.0276129
-0.0252452
-0.0651874
-0.0339657
-0.0334755
-0.0425376
-0.043332
-0.0304168
-0.0282796
-0.0851908
-0.0369059
-0.0503535
-0.0444039
-0.0471253
-0.0290624
-0.0324629
-0.100975
-0.0534389
-0.0558147
-0.0477476
-0.0488133
-0.0333846
-0.0348324
-0.0957246
-0.0550335
-0.052918
-0.0487554
-0.0457195
-0.03492
-0.0341678
-0.0713168
-0.053059
-0.0543614
-0.0438541
-0.0368633
-0.0336678
-0.0319784
-0.0611539
-0.0546434
-0.057022
-0.0350203
-0.0312148
-0.0314088
-0.0293234
-0.0596188
-0.0582291
-0.0574163
-0.0300751
-0.0268317
-0.0284238
-0.0256048
-0.0558949
-0.0553505
-0.0468053
-0.0259565
-0.024425
-0.0248579
-0.023883
-0.0261058
-0.0166356
-0.0212496
-0.0182447
-0.0210831
-0.0153777
-0.0154141
-0.0361994
-0.0251092
-0.0337699
-0.0227594
-0.0271036
-0.0170084
-0.0216828
-0.0427151
-0.0363199
-0.0455588
-0.0282063
-0.030636
-0.022699
-0.0245785
-0.0496476
-0.0487479
-0.0536762
-0.0311449
-0.0315431
-0.0249522
-0.0253412
-0.0555555
-0.0525148
-0.0431414
-0.0313893
-0.030618
-0.0253272
-0.0250185
-0.0546737
-0.0404469
-0.0368644
-0.0302802
-0.0286253
-0.0248722
-0.0238693
-0.0538349
-0.0365129
-0.0348847
-0.0278177
-0.0252483
-0.0235276
-0.0230594
-0.0437775
-0.0343088
-0.0333287
-0.0245984
-0.024001
-0.0233377
-0.0256365
-0.0203438
-0.0156802
-0.0174829
-0.0156793
-0.0161774
-0.013866
-0.0138272
-0.0307353
-0.018635
-0.0271519
-0.0165316
-0.0171556
-0.0140288
-0.0143488
-0.0295816
-0.0294159
-0.0306758
-0.0167873
-0.0149629
-0.0143475
-0.0142617
-0.0229167
-0.0306184
-0.0317644
-0.0141811
-0.0122383
-0.0142539
-0.0140214
-0.0197096
-0.0324327
-0.03393
-0.0115726
-0.00997377
-0.0138413
-0.0130298
-0.0198247
-0.0340627
-0.0332595
-0.00956477
-0.0088254
-0.0126814
-0.0115335
-0.0195467
-0.0325871
-0.0295528
-0.0086932
-0.00859824
-0.0111575
-0.0102218
-0.0184051
-0.0282377
-0.0239034
-0.00865767
-0.00904256
-0.0100196
-0.0098386
-0.017647
-0.0206854
-0.0234388
-0.0153316
-0.0139386
-0.0174909
-0.0161727
-0.026063
-0.0257655
-0.0327114
-0.0140907
-0.0143752
-0.0162158
-0.0170816
-0.0312567
-0.0345013
-0.0384127
-0.0144748
-0.0150399
-0.017517
-0.0181477
-0.0270825
-0.0326625
-0.0343885
-0.0236582
-0.0355211
-0.0244946
-0.0260447
-0.0285093
-0.0358052
-0.0377492
-0.0265465
-0.0377069
-0.0268887
-0.0286337
-0.0337717
-0.0289385
-0.0244189
-0.0136353
-0.0121207
-0.0123023
-0.0104354
-0.0290391
-0.0231234
-0.0195961
-0.0116228
-0.010424
-0.00999422
-0.0093211
-0.0230433
-0.0185714
-0.0165526
-0.0101618
-0.00990035
-0.00930039
-0.00970292
-0.0272392
-0.0151013
-0.0170295
-0.0163497
-0.0164426
-0.0123877
-0.0127618
-0.0351517
-0.0184845
-0.022376
-0.0167219
-0.0178009
-0.0133043
-0.0145421
-0.0382912
-0.023121
-0.0239558
-0.0181135
-0.0178973
-0.0146259
-0.0138335
-0.0248837
-0.0368253
-0.0340042
-0.0283425
-0.033061
-0.0281764
-0.0256679
-0.0201018
-0.0305695
-0.0289406
-0.0247105
-0.0274105
-0.0231906
-0.0213191
-0.0214317
-0.0199774
-0.0177877
-0.0117656
-0.00996579
-0.00930483
-0.00898845
-0.0175183
-0.0169576
-0.0146591
-0.00957656
-0.00918207
-0.00909763
-0.00997129
-0.0153771
-0.0141384
-0.0136772
-0.00927483
-0.00999678
-0.0103975
-0.0119125
-0.0122458
-0.00720831
-0.00807323
-0.00837666
-0.0100263
-0.00686561
-0.00695603
-0.0175029
-0.00920725
-0.01247
-0.0109251
-0.012615
-0.00750303
-0.008553
-0.0201271
-0.0132431
-0.0147505
-0.0127366
-0.0122345
-0.00872246
-0.00913931
-0.021301
-0.0150534
-0.01491
-0.0119161
-0.0107908
-0.00924991
-0.00930229
-0.019427
-0.0146162
-0.0134477
-0.0104011
-0.00943683
-0.00928265
-0.00935784
-0.0167147
-0.0131914
-0.0126022
-0.00924931
-0.00926916
-0.00948634
-0.0102266
-0.0140747
-0.0125351
-0.0128051
-0.00946821
-0.0105169
-0.0105926
-0.0119321
-0.0137452
-0.0131246
-0.0146275
-0.0109806
-0.0126054
-0.0125029
-0.0144435
-0.0100583
-0.00833055
-0.00866307
-0.00889713
-0.00827734