/*--------------------------------*- C++ -*----------------------------------*\
  =========                 |
  \\      /  F ield         | OpenFOAM: The Open Source CFD Toolbox
   \\    /   O peration     | Website:  https://openfoam.org
    \\  /    A nd           | Version:  10
     \\/     M anipulation  |
\*---------------------------------------------------------------------------*/
FoamFile
{
    format      ascii;
    class       volVectorField;
    location    "5";
    object      U;
}
// * * * * * * * * * * * * * * * * * * * * * * * * * * * * * * * * * * * * * //

dimensions      [0 1 -1 0 0 0 0];

internalField   nonuniform List<vector> 
12920
(
(386.606 -48.4864 -112.41)
(363.116 -45.4916 -19.1804)
(321.893 13.3923 5.69776)
(248.385 -15.8651 1.85012)
(251.813 -26.8054 0.304457)
(235.627 -31.713 1.42096)
(225.487 -0.0937917 5.30633)
(168.948 18.5891 3.63761)
(154.077 20.1907 -1.08307)
(135.309 14.5236 -2.68689)
(137.08 10.7174 -2.78513)
(132.928 7.24208 -2.34656)
(136.012 5.17166 -1.72599)
(135.416 1.81179 -1.06132)
(138.675 0.318344 -0.539079)
(139.567 -1.46268 -0.0253031)
(141.946 -2.57342 0.333993)
(143.856 -3.20962 0.493341)
(145.585 -3.16671 0.295215)
(144.648 -2.08287 0.151929)
(206.434 -147.2 -95.324)
(-18.1025 -10.7402 -5.09806)
(144.097 -4.10544 -2.09035)
(51.6435 -0.417733 -3.18259)
(130.721 13.2349 -7.23443)
(91.0395 18.4837 -5.4541)
(121.708 24.2795 -3.66047)
(109.884 22.3897 -1.3592)
(125.317 17.7125 -0.582545)
(119.657 12.9697 -0.261367)
(126.327 7.84971 0.327794)
(123.054 4.0933 0.557741)
(125.739 0.739797 0.989547)
(123.361 -1.19547 0.935344)
(123.384 -3.00997 1.11303)
(121.221 -3.6656 0.995349)
(120.34 -4.49759 0.900496)
(119.51 -4.58703 0.646008)
(119.207 -5.08085 0.55149)
(115.276 -4.59119 0.479035)
(223.931 31.004 86.2058)
(83.348 -11.7922 24.0034)
(179.821 -6.03418 0.67438)
(112.662 4.57388 -0.20939)
(148.65 8.2549 -1.7061)
(112.573 15.0144 -0.477176)
(128.438 18.6039 0.278209)
(111.937 22.189 0.45529)
(121.695 16.9559 0.701064)
(113.014 13.0749 0.683754)
(117.447 6.73781 0.834338)
(111.743 3.62395 0.698101)
(113.015 0.0825801 0.702798)
(109.421 -1.29423 0.573007)
(109.882 -2.96241 0.473222)
(108.48 -3.7918 0.391926)
(109.124 -4.85251 0.366946)
(109.742 -5.27471 0.277765)
(110.487 -6.11916 0.234055)
(107.374 -5.59647 0.181605)
(121.927 110.131 -60.2357)
(-71.0569 45.3146 -13.76)
(136.851 52.3179 -14.8993)
(61.8706 44.7007 -0.413684)
(122.508 36.2242 -0.715396)
(80.6051 34.5051 -0.370125)
(110.4 23.839 -0.0215782)
(92.6381 21.6818 0.367013)
(108.869 13.2825 0.63016)
(99.5636 10.5407 0.543646)
(106.385 5.11411 0.42453)
(100.667 2.9622 0.17513)
(103.372 -0.47486 0.0695756)
(101.182 -2.13027 0.0263373)
(103.12 -4.43595 0.0761136)
(103.206 -5.60246 0.1455)
(105.04 -7.25573 0.211213)
(106.672 -7.39073 0.210112)
(108.097 -8.40274 0.229319)
(104.996 -7.52571 0.229583)
(113.171 -2.08028 -31.0244)
(11.9875 -39.3024 -17.7852)
(143.957 -12.0546 -18.446)
(101.323 7.89999 -6.02738)
(138.896 16.1766 -2.07025)
(108.852 23.8654 -1.00095)
(125.282 14.3614 -0.807398)
(112.903 18.431 -0.432213)
(122.059 9.28531 -0.0379158)
(114.339 10.8785 0.141174)
(117.272 4.85671 0.20061)
(111.003 4.79781 0.0532506)
(111.193 -0.00663977 0.0265661)
(107.04 -1.68639 -0.129373)
(107.796 -5.00724 0.0694707)
(106.657 -6.80012 0.0583528)
(107.791 -9.05623 0.106221)
(108.574 -9.33849 0.111541)
(109.589 -10.0574 0.141411)
(105.436 -8.80835 0.119146)
(154.021 1.41198 35.7222)
(7.3994 68.7182 -6.56446)
(150.764 80.1395 -13.45)
(82.8438 56.3937 -0.271745)
(133.326 47.8404 0.882663)
(101.812 43.0566 0.38132)
(124.934 26.1672 0.00328909)
(113.457 21.9193 -0.132568)
(120.714 13.205 -0.0709021)
(114.496 11.8533 -0.0972785)
(116.03 8.41907 0.0563989)
(111.383 7.56123 -0.0344151)
(111.092 4.14235 0.282451)
(107.06 0.917007 0.41358)
(106.814 -4.49857 0.216682)
(106.086 -6.51047 0.0265537)
(107.48 -9.50535 0.0154333)
(108.52 -9.9345 -0.0315637)
(109.67 -10.5663 0.0299278)
(105.065 -9.00734 0.00372686)
(166.755 39.2724 73.5853)
(38.9952 5.44502 22.3638)
(131.171 -13.7222 14.2447)
(79.2056 -1.47241 6.13174)
(139.644 -1.73285 4.7973)
(125.078 17.5599 2.81284)
(141.689 6.30983 2.03114)
(133.724 19.9374 1.61798)
(132.298 9.0835 0.940186)
(119.352 14.9442 0.790187)
(114.96 7.83354 0.634009)
(105.754 9.66359 0.666347)
(105.527 2.70849 0.531894)
(103.74 -0.0368715 0.56791)
(107.151 -5.0142 0.363354)
(107.89 -8.02688 0.0809459)
(110.654 -11.3693 -0.0135478)
(111.913 -11.4661 0.0133912)
(113.547 -11.4104 0.102742)
(108.384 -9.21489 0.0610325)
(236.576 32.098 -53.5715)
(154.048 -5.99686 9.3229)
(191.927 -10.1567 10.546)
(139.353 -14.1598 4.32782)
(158.994 -9.21735 3.13867)
(139.935 17.5079 -0.0119571)
(142.824 16.0225 -0.649359)
(129.375 9.81708 -0.169008)
(125.554 23.4233 0.427527)
(106.777 16.3836 1.22507)
(102.136 21.1551 0.0716641)
(95.095 11.1746 -0.49595)
(98.959 7.976 -0.497662)
(104.043 -3.22598 -0.185984)
(110.712 -10.5117 0.240488)
(112.053 -10.9617 0.213194)
(113.955 -13.4738 0.109312)
(115.351 -13.1872 0.00817055)
(117.507 -12.455 0.0731978)
(113.035 -9.17026 0.0974976)
(333.904 197.636 -2.61443)
(193.904 63.7523 4.54209)
(213.798 22.0621 16.6643)
(123.961 -7.50165 7.28548)
(131.718 -8.79623 10.9542)
(89.4352 17.2345 -2.13388)
(118.286 33.8292 -1.63655)
(127.023 25.0462 -0.879833)
(122.807 21.819 0.739279)
(111.512 24.3046 0.326508)
(100.028 23.2529 -0.0219588)
(99.4317 15.8944 -0.47787)
(105.138 6.84408 -0.485386)
(113.355 -3.00944 -0.0760216)
(116.601 -11.7757 0.405167)
(113.651 -12.4854 0.29461)
(113.561 -14.8435 0.15229)
(114.912 -15.1432 -0.0145274)
(116.858 -14.4565 -0.190422)
(114.353 -10.2698 0.00923204)
(160.384 -38.6332 -57.2461)
(54.8017 -22.6672 -3.5854)
(151.278 -9.21634 19.5776)
(82.6153 -4.07826 12.0278)
(117.358 10.2529 11.6712)
(69.328 3.96193 1.18591)
(89.474 22.1749 -1.66484)
(121.991 33.8123 -1.5128)
(125.126 32.514 -0.037048)
(105.264 30.565 0.377052)
(101.854 21.1887 -0.178203)
(109.895 7.27875 0.192775)
(115.706 -5.3111 0.213355)
(118.044 -11.321 0.164789)
(114.609 -10.606 0.0367183)
(107.338 -12.7982 0.213931)
(107.45 -15.3379 0.0643933)
(108.738 -15.9331 -0.0243157)
(110.186 -15.5882 -0.570644)
(109.712 -11.4818 -0.42294)
(321.589 8.16077 -126.744)
(186.101 -42.3843 1.81)
(174.346 -56.3632 16.5076)
(78.6941 -40.4986 5.53046)
(113.029 -23.6188 8.29391)
(54.4014 6.52191 -0.343446)
(78.1385 15.3669 0.164537)
(94.0965 21.5286 -0.0670499)
(104.127 31.1897 0.365955)
(109.824 30.867 0.472191)
(111.114 15.7425 0.139513)
(114.747 1.48857 -0.160306)
(113.092 -7.20451 0.058905)
(108.015 -8.76642 -0.10531)
(103.461 -7.81473 -0.18651)
(103.241 -12.9247 -0.141088)
(104.476 -15.9585 -0.270764)
(106.708 -16.5652 -0.128739)
(107.583 -16.1147 -0.190216)
(105.559 -12.0723 -0.275337)
(248.795 -38.6187 -118.289)
(142.723 -50.1939 -2.47927)
(190.713 -20.4439 -7.80707)
(92.3314 2.15271 -4.14582)
(114.301 15.6028 0.19759)
(62.5226 -4.46897 0.477907)
(84.1979 -7.56472 -0.44217)
(107.283 12.8374 -0.233642)
(114.287 22.737 -0.277451)
(120.771 22.9421 -0.303554)
(124.62 17.0261 -0.276417)
(117.899 7.48851 0.142419)
(110.645 -1.24402 -0.00694751)
(104.93 -5.35852 -0.0344231)
(105.023 -8.40611 -0.330628)
(107.275 -14.8176 -0.264952)
(107.775 -16.8058 -0.164166)
(109.238 -17.6456 0.0651077)
(109.141 -17.1172 0.282237)
(104.603 -11.9876 -0.0387642)
(234.106 -304.828 -193.605)
(27.0898 -11.2625 12.4312)
(161.636 21.9208 9.92985)
(51.175 21.0887 5.35217)
(105.745 18.1406 4.74096)
(68.2294 -15.6042 -0.0394828)
(85.8102 0.0715376 -1.00995)
(81.2115 8.67652 -0.311013)
(96.0888 17.0656 0.0755091)
(100.918 17.9523 0.385291)
(105.704 13.6875 0.355018)
(107.748 7.04137 0.22175)
(109.858 0.563921 -0.161059)
(110.439 -3.91743 -0.429301)
(110.849 -9.7851 -0.551911)
(112.367 -14.7354 -0.507754)
(113.329 -16.8146 -0.224661)
(113.338 -17.7809 0.0677817)
(112.324 -17.161 0.357794)
(104.861 -11.1525 -0.0811545)
(184.723 -197.42 -71.1658)
(-6.00765 -80.2815 7.16881)
(119.71 -48.0137 12.3833)
(49.0852 -7.23016 6.37511)
(114.883 -5.22163 4.90017)
(84.003 -4.62498 1.99243)
(98.6261 18.2586 0.159528)
(86.877 3.10846 0.660086)
(98.0278 11.042 0.162114)
(97.9173 4.77871 0.322043)
(106.443 5.2498 0.0558251)
(107.698 0.322982 -0.228955)
(113.302 -1.38938 -0.584238)
(113.385 -5.32268 -0.992972)
(117.058 -8.88172 -1.29125)
(118.432 -14.3098 -0.472809)
(117.964 -16.5995 0.111606)
(115.733 -17.1542 0.198697)
(112.837 -15.04 0.268963)
(103.919 -8.00558 -0.139076)
(664.158 -12.9627 -105.189)
(259.92 -32.0032 6.50339)
(188.909 -32.8396 10.1846)
(116.981 -25.5603 4.91302)
(140.496 -21.5808 8.17756)
(112.9 -16.9725 6.33706)
(125.615 -8.10175 4.3912)
(114.6 -6.37315 1.81073)
(118.3 -4.04049 0.84981)
(116.071 -3.00068 0.0715097)
(119.173 -2.25666 -0.299846)
(119.689 -2.87887 -0.814827)
(121.794 -3.27576 -1.05153)
(122.79 -4.98355 -1.52531)
(124.512 -8.30701 -1.13551)
(123.547 -14.0657 -0.210431)
(121.065 -14.9491 0.366569)
(114.826 -13.7011 0.555131)
(109.117 -11.1663 0.165141)
(100.832 -5.86469 -0.123121)
(192.504 225.176 -109.221)
(10.4266 152.015 -40.2683)
(186.182 73.8936 -42.5795)
(174.319 -7.40461 -26.7876)
(190.304 -29.2087 0.118443)
(156.157 -29.4077 4.4627)
(155.15 -2.83565 5.15902)
(136.071 0.777714 3.57121)
(136.045 6.7079 2.37961)
(129.25 4.29144 1.35833)
(131.172 4.81295 0.770799)
(129.695 2.90747 0.183751)
(131.009 2.04866 -0.293245)
(130.286 0.231469 -0.645147)
(130.419 -4.3822 -0.2702)
(125.497 -10.7973 0.626247)
(119.543 -9.9413 1.11131)
(112.774 -7.92891 0.792646)
(108.337 -6.20861 0.391276)
(100.247 -3.64133 0.0217856)
(207.451 234.777 27.1997)
(127.451 125.098 -33.2578)
(222.931 76.9699 -26.9911)
(208.275 59.0909 -18.2867)
(197.697 5.9855 9.47675)
(119.677 -13.5655 5.49088)
(128.706 -12.1992 2.11903)
(118.385 -9.97315 0.845903)
(129.678 -7.94942 0.951951)
(129.93 -6.96399 0.853257)
(136.012 -5.63183 1.09376)
(136.996 -4.07126 0.912043)
(140.182 -1.57631 0.982595)
(140.254 -1.31488 0.892543)
(138.923 -2.88174 0.895454)
(129.114 -7.41385 1.14891)
(118.147 -8.58924 1.17648)
(110.503 -6.79405 0.591574)
(106.331 -5.11592 0.440646)
(97.7205 -2.57868 0.142975)
(241.121 108.852 -80.7924)
(158.01 113.385 -9.76667)
(240.811 59.4994 21.7865)
(198.135 16.5692 24.8678)
(191.635 6.38872 13.6309)
(150.076 -2.57291 3.14985)
(153.439 -5.36449 -0.236642)
(142.735 -7.21448 -1.01404)
(146.819 -6.76115 -0.595252)
(142.858 -7.38734 -0.411286)
(145.098 -6.36605 -0.220024)
(144.602 -5.91931 -0.211072)
(146.682 -4.89909 -0.252315)
(149.337 -2.81578 -0.274842)
(149.886 1.15206 0.0823739)
(145.727 2.08539 0.682722)
(132.939 1.57503 1.43698)
(121.762 0.591525 0.661328)
(116.247 -0.12297 0.75234)
(103.308 -0.3415 0.528492)
(220.845 377.649 1.72128)
(-117.53 46.2997 25.9232)
(153.219 45.2036 1.3708)
(43.1777 10.4494 9.0407)
(121.874 13.5497 2.17521)
(98.9805 5.65868 0.633546)
(126.519 2.39667 -0.237187)
(119.676 -1.42456 -0.367915)
(129.675 -3.49884 0.210297)
(125.893 -5.27442 0.54307)
(128.665 -5.54853 0.755999)
(126.126 -5.16798 0.536788)
(127.035 -3.97161 0.260987)
(125.338 -3.13059 0.0250014)
(125.978 -0.69709 0.266736)
(123.799 3.57317 0.563882)
(122.082 6.32896 -0.247943)
(121.651 5.70241 -1.08347)
(122.837 4.56721 -1.34319)
(119.194 2.95739 -0.585286)
(194.662 -172.778 -117.426)
(-97.946 -57.2478 -19.1623)
(170.351 -44.7272 -46.1028)
(88.2613 -34.1224 -9.13728)
(150.285 -28.6817 -6.14553)
(130.444 -17.4392 -3.28259)
(146.232 -14.6706 -2.85567)
(138.658 -11.2433 -2.87219)
(143.608 -10.6844 -2.25137)
(137.158 -10.3388 -2.02074)
(135.786 -8.47558 -0.776302)
(128.196 -6.55948 -0.782709)
(127.115 -3.75655 -0.705923)
(123.57 -0.779699 -0.619298)
(124.378 1.81499 -0.637958)
(125.919 3.90148 -0.267219)
(130.508 6.25467 -0.691361)
(141.702 6.24312 -0.970668)
(148.983 4.98584 -2.25294)
(159.066 0.964679 -2.1379)
(280.26 -95.3333 44.1483)
(292.251 -53.3446 37.9673)
(286.056 -0.698699 42.7787)
(231.282 -14.4088 25.6822)
(229.482 -16.889 13.7237)
(207.823 -16.3744 12.1537)
(196.114 15.7415 12.418)
(159.636 20.7066 7.2091)
(150.746 16.3126 0.152397)
(130.377 9.13773 -2.68721)
(130.24 4.51666 -2.99238)
(123.337 1.38512 -2.359)
(125.317 -0.74919 -1.22636)
(124.137 -2.28997 -0.519508)
(126.689 -3.19749 0.177945)
(127.935 -3.65383 0.62769)
(130.921 -3.89367 1.02733)
(133.835 -3.6123 1.14007)
(135.97 -3.3884 0.865285)
(134.758 -2.67966 0.697006)
(112.509 -130.931 -86.3057)
(-43.4783 -3.46336 1.1027)
(127.337 -14.0325 -12.8776)
(55.2069 -3.95814 -8.74196)
(124.122 8.59037 -15.6543)
(82.2522 14.2102 -12.6173)
(113.986 19.339 -7.48005)
(100.603 16.115 -2.53573)
(115.895 11.1134 -0.566349)
(107.039 6.54356 -0.245808)
(113.307 2.23912 0.617294)
(108.335 -0.208143 0.665592)
(111.091 -2.04469 1.24615)
(108.432 -2.75423 1.07533)
(109.284 -3.18439 1.28338)
(108.034 -3.34051 1.03917)
(108.434 -3.59443 0.960741)
(108.659 -3.43126 0.654643)
(109.138 -3.67703 0.507269)
(105.699 -3.12451 0.396631)
(214.769 -99.9319 25.2642)
(136.526 -21.3948 -37.3469)
(176.485 -8.31158 -31.7253)
(106.44 3.5553 -10.7712)
(139.399 7.59912 -5.91197)
(98.5433 14.1874 -1.66236)
(118.21 16.5364 0.303847)
(99.9974 18.9063 0.76609)
(111.32 13.0774 1.2529)
(100.992 10.1179 1.01437)
(106.19 4.75308 1.25696)
(99.8239 2.94364 0.912523)
(101.824 0.30217 0.958587)
(98.3679 -0.431254 0.71575)
(99.4403 -1.73505 0.646674)
(98.3215 -2.27689 0.502573)
(99.2611 -3.20971 0.500047)
(99.9016 -3.43584 0.32489)
(100.681 -4.06261 0.254697)
(97.3155 -3.57691 0.167169)
(251.921 -1.14307 -24.0805)
(39.1911 61.057 -5.46715)
(125.806 57.1942 -17.1562)
(48.4209 41.632 -0.631128)
(112.229 30.453 -2.55131)
(69.0134 29.1633 -0.62812)
(102.646 18.7623 -0.0255885)
(83.2911 18.0867 0.686287)
(100.784 10.3017 0.9727)
(90.2041 8.79914 0.702407)
(97.4501 3.95031 0.555683)
(91.1054 2.74322 0.152415)
(94.0658 -0.161858 0.0948454)
(91.5226 -1.11934 0.0506655)
(93.5192 -2.89137 0.183878)
(93.4147 -3.49133 0.252236)
(95.0586 -4.63724 0.336573)
(96.3448 -4.60272 0.272155)
(97.4937 -5.25714 0.256935)
(94.1589 -4.43406 0.25164)
(153.441 37.7428 17.6681)
(88.9097 -12.5289 -23.5621)
(151.416 -1.47146 -17.4224)
(92.3434 7.99705 -4.67842)
(127.703 10.5066 -0.457413)
(94.4712 18.2673 -0.0256692)
(113.36 9.61145 -0.0797048)
(97.9283 17.0253 0.0422871)
(107.994 8.59076 0.321086)
(98.4659 11.7931 0.287215)
(102.311 5.33121 0.362383)
(95.7637 5.63807 0.10812)
(97.0995 0.580472 0.140115)
(93.8851 -0.392751 -0.0668383)
(95.3174 -3.30049 0.208827)
(94.6692 -4.18497 0.152875)
(95.9045 -5.66476 0.217893)
(96.5068 -5.62368 0.201715)
(97.4049 -6.09025 0.183601)
(93.3751 -4.98029 0.111245)
(218.592 -70.295 -7.2353)
(60.0006 53.8758 -8.6911)
(138.647 73.9335 -11.4369)
(72.2042 43.7253 1.637)
(124.215 33.7839 2.26141)
(87.7096 32.0396 1.00792)
(111.794 16.4478 0.147823)
(95.9299 17.7638 0.284664)
(103.627 10.5752 0.325703)
(95.593 11.7184 0.120504)
(98.1604 7.50431 0.35961)
(93.7601 6.46914 0.112992)
(94.9266 2.33226 0.547945)
(93.1878 -0.291628 0.548396)
(94.172 -3.74586 0.32602)
(94.0423 -4.64342 0.126174)
(95.3237 -6.28458 0.135467)
(95.983 -6.16469 0.0822314)
(96.8707 -6.45079 0.0986775)
(92.4408 -5.03945 -0.00627405)
(141.898 97.9198 57.4887)
(-20.4865 17.4589 27.5415)
(118.391 -4.71404 2.77723)
(63.1386 -2.22564 6.73392)
(129.528 -2.42995 5.99624)
(109.387 16.6997 3.27093)
(122.565 3.88564 2.77102)
(109.038 21.1331 2.65581)
(108.226 8.87633 1.85147)
(96.9479 15.9792 1.77868)
(96.7138 7.19034 1.30179)
(91.5979 8.46793 1.15302)
(93.7265 1.19419 0.78322)
(93.448 0.118184 0.852516)
(96.8136 -4.00894 0.511637)
(97.0815 -5.80927 0.216443)
(98.7426 -7.52789 0.153912)
(99.1944 -7.21384 0.206636)
(100.014 -6.99597 0.272653)
(94.6778 -5.11234 0.0782159)
(274.589 97.3889 -21.1841)
(108.536 41.3617 -23.1038)
(160.264 22.9016 3.54833)
(112.667 -1.35306 4.61384)
(141.805 2.06949 4.67137)
(117.209 30.404 0.440494)
(122.089 23.8582 0.568984)
(102.86 17.0057 2.80519)
(102.313 25.8084 2.39215)
(90.4405 15.0284 2.68818)
(91.1458 16.4101 0.616391)
(88.6684 7.4273 -0.247852)
(92.8372 4.42139 -0.482882)
(95.8177 -3.43191 -0.0936518)
(100.215 -7.56449 0.185252)
(101.306 -7.30267 0.254163)
(102.839 -8.7007 0.200452)
(103.535 -7.85234 0.15913)
(104.417 -6.72172 0.292614)
(98.5591 -4.2561 0.15539)
(71.8333 89.7061 -113.863)
(-91.6763 34.352 14.8573)
(116.602 2.98043 21.7178)
(35.9719 -13.2521 8.45216)
(94.2483 0.490036 8.3223)
(81.5426 18.2369 -0.108537)
(107.162 36.6596 -3.8557)
(98.6348 28.2797 -3.7379)
(94.995 25.3062 2.16687)
(90.9707 20.8677 2.23163)
(90.4151 16.752 0.775366)
(93.6497 8.11553 -0.509595)
(98.8458 1.30538 -0.487755)
(103.223 -4.50734 -0.0210367)
(105.299 -9.74904 0.423284)
(103.802 -9.04674 0.337623)
(103.725 -9.81454 0.139211)
(104.793 -9.12095 -0.0305091)
(105.748 -7.09458 -0.159229)
(100.943 -3.80628 -0.0194287)
(98.1129 -130.347 -108.127)
(-56.0796 -16.2093 12.4207)
(106.348 -14.5894 32.5336)
(34.8273 -2.61994 12.6958)
(97.8644 12.7995 11.479)
(77.6083 8.48327 0.836867)
(89.2755 25.3378 -5.61394)
(101.524 32.3375 -4.08717)
(97.3116 27.7227 1.73063)
(93.9183 21.567 1.34808)
(96.639 11.7319 -0.0191485)
(101.636 2.38707 0.476732)
(106.491 -4.79237 0.640569)
(108.652 -7.46352 0.474199)
(104.759 -9.1497 0.475931)
(99.2065 -9.73585 0.268526)
(99.5025 -10.1061 -0.0477442)
(100.866 -9.68944 -0.321966)
(102.338 -7.73658 -0.944003)
(99.3437 -3.79608 -0.560637)
(133.239 -35.4151 -97.5938)
(30.8085 -36.9112 55.0641)
(118.966 -32.7229 21.4311)
(19.7591 -11.8023 3.6507)
(84.1164 -2.75522 9.08346)
(51.2554 10.0586 4.82171)
(75.0271 16.0579 1.92779)
(89.432 21.3384 1.94815)
(95.9685 24.6283 2.30416)
(99.9219 19.2159 1.65314)
(102.636 8.4923 0.674639)
(103.992 -0.18091 -0.232214)
(102.464 -5.15531 -0.00240262)
(99.5501 -5.99512 -0.2036)
(95.7838 -7.1791 0.118543)
(94.2986 -9.90252 -0.441831)
(94.8538 -10.9879 -0.41842)
(96.5245 -10.8675 -0.29363)
(97.8755 -9.43486 -0.48708)
(95.5837 -4.95461 -0.512163)
(191.149 83.6237 -19.0192)
(109.948 -13.756 23.5788)
(146.699 -1.50512 20.3511)
(60.8244 12.492 -0.0564005)
(94.1285 13.8976 2.48968)
(67.7344 -1.1735 -1.81036)
(83.6208 -8.06403 -0.891971)
(94.5914 11.5618 0.252254)
(98.08 19.3874 0.115637)
(101.683 15.9369 -0.401782)
(101.459 8.04765 0.0801688)
(98.488 2.14671 0.372892)
(95.6175 -2.11697 -0.0282164)
(94.3716 -4.79748 -0.232989)
(94.2169 -7.87914 -0.420802)
(94.1358 -11.7314 -0.537601)
(94.274 -11.9618 -0.272912)
(95.7879 -11.8071 0.0375963)
(96.5158 -10.1871 0.23174)
(92.9863 -5.22012 -0.27215)
(45.243 -157.374 -176.663)
(-68.4999 0.0226927 14.4036)
(115.801 17.9697 2.22213)
(11.3852 17.1786 2.46836)
(93.414 12.655 4.54986)
(54.9477 -19.91 0.27366)
(73.289 -0.969325 -0.192968)
(68.0397 10.2201 0.264122)
(84.3883 11.6438 0.521731)
(86.884 11.2472 0.822615)
(92.7097 6.81625 0.516388)
(93.372 2.90181 0.281698)
(95.9939 -1.48498 -0.4453)
(96.0416 -4.78883 -0.591359)
(95.5324 -9.47783 -1.09795)
(95.9772 -12.2039 -0.608779)
(96.3111 -12.5564 -0.145401)
(96.801 -12.3946 0.242896)
(96.745 -10.3309 0.48618)
(91.3114 -4.9501 -0.255025)
(163.848 47.6316 -13.3858)
(-59.4346 1.72519 16.3595)
(102.381 -13.3968 12.0523)
(29.3982 6.58472 7.37754)
(104.441 -4.03115 5.54234)
(72.03 -7.34312 2.43703)
(88.2783 13.1554 0.582518)
(77.7322 -2.9323 1.48159)
(88.6325 6.07946 0.371373)
(87.706 0.309554 0.609655)
(94.9131 1.83363 0.0391926)
(94.9731 -2.12812 -0.436465)
(98.1666 -3.36935 -0.88371)
(97.7267 -6.88623 -1.15498)
(98.6065 -9.45715 -1.23767)
(98.0076 -12.608 -0.220756)
(98.2239 -12.8498 0.261981)
(97.537 -12.1178 0.376384)
(96.308 -8.5647 0.340202)
(90.0754 -3.60654 -0.207735)
(208.57 105.383 98.2927)
(51.9892 25.6597 40.32)
(122.06 -1.2105 7.98664)
(63.0946 0.0335138 4.84504)
(110.718 -6.26462 9.32829)
(83.4889 -11.5663 6.55342)
(107.165 -6.88303 5.16885)
(97.2612 -7.09904 1.68741)
(103.389 -4.2582 0.984853)
(100.458 -3.52803 -0.0771756)
(103.154 -2.80915 -0.449705)
(102.358 -3.75603 -1.16935)
(103.393 -4.87788 -1.39465)
(102.78 -7.48983 -1.68001)
(102.413 -10.3321 -0.912441)
(100.965 -12.7962 0.107762)
(99.9541 -12.2095 0.571007)
(96.9755 -10.2455 0.719642)
(94.4009 -6.74601 0.199234)
(88.3533 -2.94435 -0.14643)
(113.967 161.893 -138.67)
(29.9602 109.066 -56.0495)
(138.783 69.1654 -44.6879)
(82.3342 10.7724 -17.9874)
(124.101 -3.15412 2.74744)
(107.85 -7.05894 5.31166)
(123.47 4.5043 6.25082)
(112.339 1.37525 4.01396)
(117.287 4.30283 2.98832)
(111.475 1.01126 1.57969)
(113.738 1.2574 0.940576)
(110.767 -1.26085 0.0875964)
(111.17 -2.91663 -0.507442)
(108.367 -5.90518 -0.779139)
(106.517 -8.72486 0.0197044)
(102.673 -10.976 1.00368)
(100.594 -8.71645 1.50324)
(96.746 -6.14012 1.06719)
(94.4888 -3.94979 0.511374)
(88.2484 -1.94782 0.0398013)
(183.246 142.41 -80.7639)
(-9.70363 54.5576 5.96488)
(132.298 6.98344 15.9929)
(58.0497 -20.5735 8.4282)
(115.432 -18.6621 16.6644)
(86.373 -14.0502 6.38318)
(111.518 -6.90129 2.55168)
(102.731 -4.04181 0.888882)
(114.749 -2.32052 1.37965)
(113.145 -2.16915 1.08704)
(118.281 -1.44405 1.38046)
(117.813 -1.66836 0.987841)
(118.782 -1.70694 0.884084)
(117.293 -2.8408 0.725859)
(114.31 -5.29274 1.48912)
(105.855 -7.54168 1.96984)
(100.35 -6.18678 1.75657)
(95.8522 -4.06825 0.901723)
(93.5432 -2.56923 0.603993)
(86.7793 -1.08011 0.166221)
(177.705 -70.8523 3.55224)
(18.276 -55.354 2.36453)
(139.477 -35.261 -2.46914)
(119.003 -31.2546 9.60678)
(149.93 -14.5028 7.54342)
(125.762 -8.84971 0.837296)
(134.041 -5.52752 -0.893798)
(122.855 -4.95893 -1.39736)
(127.707 -3.21306 -0.486498)
(122.951 -3.22287 -0.444226)
(125.187 -1.68941 -0.157477)
(123.149 -1.36196 -0.338223)
(123.87 -0.244873 -0.417972)
(122.65 -0.170188 -0.399631)
(120.909 1.47825 0.505661)
(114.097 1.00125 1.64567)
(107.433 0.997159 2.28903)
(101.864 0.664454 1.10209)
(99.1586 0.889531 1.06491)
(90.9072 0.679708 0.625277)
(163.292 -88.7702 -120.094)
(-73.3148 -58.4122 33.7476)
(124.467 -2.10555 -3.76963)
(35.0641 -4.41195 7.36873)
(112.577 4.22995 -1.79844)
(89.1289 1.09629 -1.25334)
(115.954 0.583953 -1.02408)
(106.016 -1.16627 -0.806916)
(115.595 -1.20293 0.342323)
(110.443 -1.63325 0.469536)
(113.785 -1.04218 0.588076)
(110.897 -0.754489 0.104972)
(111.622 0.0136221 -0.1505)
(109.219 0.191135 -0.438198)
(108.642 2.06255 0.200811)
(106.486 3.66845 0.214754)
(105.632 4.8643 -0.671536)
(104.925 3.88469 -1.2935)
(105.152 3.84315 -1.26101)
(100.246 3.16794 -0.275765)
(354.754 -235.732 39.506)
(257.143 -152.476 18.3634)
(203.201 -72.5924 -19.925)
(103.428 -35.4376 -3.34145)
(147.753 -27.3398 -8.48891)
(119.348 -14.7567 -4.43988)
(130.583 -11.2742 -3.00073)
(114.13 -6.51084 -2.85707)
(117.507 -4.19372 -1.8445)
(108.865 -1.73761 -1.84638)
(111.164 0.527922 -0.808324)
(108.652 2.29233 -0.745146)
(110.883 3.90117 -0.320035)
(110.99 4.49627 -0.00763633)
(112.815 5.46118 0.267854)
(115.42 5.46359 0.723122)
(121.005 4.1891 -0.435946)
(126.179 1.09091 -1.53522)
(128.047 -0.107547 -2.4718)
(125.338 0.177838 -2.26668)
(211.358 -116.292 -44.3205)
(140.131 -20.6075 7.34707)
(214.987 13.6481 38.5753)
(189.209 6.2205 27.2341)
(201.191 13.3317 17.1326)
(174.677 18.9552 13.0856)
(167.187 28.1388 11.4505)
(142.709 21.6835 5.65013)
(139.254 13.7897 0.674771)
(121.314 7.04314 -1.82193)
(121.219 2.64424 -1.98102)
(113.518 0.0323652 -1.54952)
(115.652 -1.7115 -0.462525)
(114.309 -2.43318 0.112542)
(116.984 -3.01296 0.766352)
(118.165 -2.85814 0.965418)
(121.223 -2.89919 1.24104)
(124.421 -2.40884 1.2772)
(126.706 -2.2872 0.949663)
(125.412 -1.83166 0.781073)
(158.656 -99.2313 -118.846)
(-4.57979 -24.3422 -36.2064)
(131.232 -20.3803 -29.4287)
(58.8043 -0.129273 -15.5882)
(121.949 11.7627 -20.7963)
(80.1789 15.3167 -14.7478)
(109.359 17.4538 -7.66654)
(91.4693 12.888 -2.43505)
(107.14 7.7317 -0.43159)
(95.9445 3.81738 -0.283781)
(102.732 0.323742 0.482877)
(96.4395 -1.20016 0.360984)
(99.4784 -2.30525 0.869905)
(96.4687 -2.3648 0.692697)
(97.953 -2.4188 0.887664)
(97.0628 -2.34063 0.665167)
(98.0865 -2.51959 0.624207)
(98.7633 -2.26464 0.338017)
(99.5074 -2.5083 0.250858)
(96.1037 -1.9951 0.16845)
(507.914 -50.9009 202.426)
(319.048 -16.6002 18.8331)
(225.825 -0.9904 -17.9881)
(112.343 9.10335 -6.91538)
(135.792 11.3765 -5.28124)
(89.0931 16.6742 -1.47001)
(110.607 16.4253 0.334009)
(89.9753 17.4423 0.802988)
(102.664 11.1778 1.244)
(90.8049 9.1113 0.881729)
(96.8327 4.28382 1.10847)
(89.7937 3.28018 0.698648)
(92.4707 0.905511 0.741025)
(88.9024 0.52164 0.466816)
(90.4247 -0.718593 0.511786)
(89.2723 -1.10794 0.38254)
(90.3978 -1.97493 0.407606)
(90.9239 -2.12945 0.212758)
(91.6629 -2.67908 0.138359)
(88.0657 -2.26818 0.0480476)
(127.387 158.735 64.5786)
(26.778 103.284 3.67725)
(118.604 77.8582 -12.2545)
(44.3738 44.9596 -1.98866)
(104.952 29.7501 -3.42509)
(60.0747 27.2369 -0.273323)
(95.9822 16.4474 -0.00675809)
(74.6758 16.5717 0.823544)
(93.2975 8.9797 0.926579)
(81.4713 8.41835 0.589954)
(89.4976 3.81353 0.483138)
(82.6981 3.22439 0.0920994)
(86.162 0.526516 0.0744852)
(83.3245 -0.0260661 0.0116536)
(85.4027 -1.58455 0.179916)
(85.0068 -1.90782 0.225391)
(86.5388 -2.88223 0.285869)
(87.4333 -2.82278 0.207811)
(88.3216 -3.35736 0.177889)
(84.786 -2.67227 0.150421)
(263.919 -65.5293 -16.6899)
(91.8462 -15.5222 -18.1884)
(146.847 9.11303 -8.97942)
(76.3042 10.9736 -1.45872)
(117.081 10.109 1.0648)
(81.3887 17.3534 0.846454)
(103.721 8.10745 0.3999)
(85.9983 16.9978 0.338214)
(97.4067 8.07572 0.457637)
(86.5926 12.143 0.311936)
(91.6194 5.22037 0.405282)
(84.9889 6.08844 0.137644)
(87.353 1.12501 0.156972)
(84.3409 0.867303 0.0116358)
(86.1473 -1.78948 0.209012)
(85.4325 -2.14923 0.139966)
(86.6376 -3.40192 0.207132)
(87.0092 -3.27002 0.169394)
(87.7758 -3.78504 0.126829)
(83.7359 -2.87209 0.0393677)
(302.933 -106.672 -46.9952)
(81.8362 68.2788 7.6003)
(130.46 68.0426 2.42097)
(55.8551 37.1793 4.14943)
(114.506 28.5736 3.66872)
(73.3347 29.3473 1.7806)
(100.505 13.5161 0.464106)
(82.2139 17.7943 0.600254)
(91.4878 9.93599 0.564022)
(82.6859 12.0363 0.209319)
(86.5406 6.82895 0.397208)
(82.376 6.192 0.12205)
(84.3925 1.87633 0.494593)
(83.2826 0.303857 0.431462)
(84.5328 -2.32017 0.29261)
(84.5533 -2.67077 0.141361)
(85.7454 -3.89706 0.150303)
(86.2786 -3.59945 0.0786822)
(86.9766 -3.98892 0.0711504)
(82.6435 -2.87809 -0.056231)
(102.974 162.511 133.088)
(-17.4896 34.411 33.1358)
(104.61 -5.11309 4.74203)
(50.8823 -2.60435 7.69973)
(116.494 -0.929335 5.85673)
(87.9985 18.8169 3.06942)
(101.917 2.55118 2.94697)
(87.1783 22.9754 2.96971)
(90.5705 8.2652 2.03201)
(81.9959 16.2217 1.87616)
(85.0294 6.06722 1.08477)
(81.4722 7.95706 0.995514)
(84.68 0.921088 0.669907)
(84.4454 1.09876 0.840548)
(87.5428 -2.41075 0.549968)
(87.4558 -3.5468 0.298061)
(88.5473 -4.72909 0.228575)
(88.7486 -4.24626 0.2568)
(89.1956 -4.24376 0.270203)
(84.025 -2.83839 -0.00299925)
(241.358 130.484 188.612)
(87.7634 44.6519 20.7251)
(148.817 15.3846 21.6603)
(93.3036 0.749811 8.39719)
(126.289 10.5201 5.8334)
(95.3899 38.6 0.563593)
(101.073 26.1739 1.14568)
(79.3862 19.5449 2.92452)
(82.9177 24.0663 2.47406)
(77.7867 13.8104 2.24135)
(81.6239 13.7785 0.257891)
(81.2637 6.05065 -0.182717)
(85.5629 3.42968 -0.42838)
(87.4549 -2.22843 0.0359246)
(90.4064 -4.71457 0.673667)
(90.8969 -3.95526 0.444107)
(91.831 -4.99268 0.340397)
(92.2228 -3.9701 0.301522)
(92.4552 -3.3305 0.355031)
(86.5646 -1.84636 0.049017)
(82.4477 -30.1928 -33.9078)
(-30.6392 5.59341 -14.5478)
(94.0743 1.69611 1.84613)
(20.8628 -6.89015 2.96499)
(81.0027 8.28869 3.1722)
(66.9768 28.3506 -1.88843)
(88.0576 41.5328 -3.94419)
(75.7671 25.937 -1.5941)
(77.8095 23.4752 2.36806)
(78.9376 16.2777 1.84457)
(82.9736 12.5962 0.327886)
(86.3908 4.91471 -0.75469)
(90.3635 0.555099 -0.526646)
(92.9952 -3.12937 -0.0102163)
(94.4 -7.06018 0.780082)
(93.1709 -5.16342 0.817632)
(92.9048 -5.6355 0.325028)
(93.9303 -4.61994 0.135335)
(94.1597 -2.77111 -0.0149377)
(88.7369 -0.968977 -0.133045)
(231.405 -202.795 1.88442)
(-57.0189 -9.38293 21.0914)
(91.1472 0.759284 34.811)
(13.0315 4.16192 11.5412)
(85.0099 16.4406 7.9168)
(65.3709 13.1391 -0.257286)
(79.0118 28.7125 -5.01797)
(84.4089 27.0477 -2.43148)
(82.7532 20.8979 1.97397)
(85.1025 14.4874 1.01115)
(88.9509 7.39624 -0.193201)
(92.737 0.811543 0.106416)
(96.0886 -3.44943 0.439122)
(97.0492 -5.0172 0.642324)
(93.6463 -6.83353 0.93659)
(90.2454 -6.26454 0.675094)
(90.4546 -5.86951 0.0146928)
(91.8161 -4.92118 -0.279039)
(92.4903 -2.9045 -0.750366)
(88.1325 -0.602224 -0.577295)
(90.2614 62.4309 -38.8952)
(-33.2436 -10.0472 19.8955)
(100.732 -7.44248 12.4232)
(-9.04872 -0.282582 5.1918)
(68.7662 3.76042 6.67869)
(36.8561 13.1624 4.21024)
(66.1356 16.9195 2.44728)
(81.6029 19.2874 2.56427)
(87.1142 18.7738 2.62702)
(90.7506 12.6116 2.62201)
(93.7041 6.1543 0.963882)
(95.1785 -0.679414 -0.221864)
(92.6791 -2.88325 -0.091591)
(90.5196 -4.08226 0.0453482)
(87.6245 -5.70058 0.53139)
(85.6706 -6.68728 -0.0135258)
(85.8646 -6.98039 -0.28301)
(87.5163 -6.52176 -0.305021)
(88.8083 -4.69709 -0.5437)
(85.5719 -1.52954 -0.564952)
(145.186 36.8489 84.4583)
(-47.5288 25.3884 35.3949)
(115.178 6.68653 13.9134)
(32.6836 14.3843 -0.332261)
(83.5324 10.8818 1.09486)
(58.7861 -3.21222 -1.30774)
(75.9072 -8.35662 0.103134)
(83.0258 11.9581 0.953951)
(85.8337 15.8377 0.636154)
(88.0142 11.3639 0.161097)
(87.756 5.34242 0.406297)
(86.8044 1.49042 0.255878)
(85.9923 -1.46408 -0.140106)
(85.8528 -3.82655 -0.249807)
(85.0498 -6.26303 -0.0915333)
(84.1174 -8.59093 -0.0399876)
(84.0027 -8.06879 -0.148024)
(85.6406 -7.57083 0.0054671)
(86.5726 -5.51961 0.0472714)
(83.0645 -2.00355 -0.363054)
(93.3389 -96.6178 -170.564)
(-30.7029 22.8229 -11.9)
(103.017 13.59 -7.01031)
(0.365368 15.9453 1.67103)
(85.4196 7.47152 2.65596)
(44.7677 -21.7344 0.745219)
(63.4994 -0.111214 0.246506)
(58.6082 9.84495 0.522783)
(75.9244 9.29977 0.73438)
(76.998 8.48696 0.913031)
(82.9246 4.42003 0.44587)
(83.0499 1.80897 0.212795)
(85.628 -1.67587 -0.435082)
(85.169 -4.2122 -0.49361)
(83.9973 -7.66954 -0.452986)
(84.0782 -9.39062 -0.348284)
(84.3802 -8.87675 -0.0691984)
(85.3039 -8.23456 0.171564)
(85.6239 -5.65789 0.240911)
(81.1199 -2.19645 -0.273839)
(10.1017 62.5827 36.071)
(-82.0789 25.608 8.14681)
(88.1276 -6.4438 2.6148)
(20.5476 7.33142 6.76637)
(95.3183 -6.40749 4.23578)
(60.4232 -8.99767 2.35234)
(79.3789 11.4901 0.875752)
(68.7397 -5.48099 1.76759)
(79.9917 4.49903 0.539101)
(78.2343 -1.28705 0.903075)
(84.7713 1.14928 0.216088)
(84.0382 -2.68539 -0.312883)