/*--------------------------------*- C++ -*----------------------------------*\
  =========                 |
  \\      /  F ield         | OpenFOAM: The Open Source CFD Toolbox
   \\    /   O peration     | Website:  https://openfoam.org
    \\  /    A nd           | Version:  10
     \\/     M anipulation  |
\*---------------------------------------------------------------------------*/
FoamFile
{
    format      ascii;
    class       volVectorField;
    location    "5";
    object      U_0;
}
// * * * * * * * * * * * * * * * * * * * * * * * * * * * * * * * * * * * * * //

dimensions      [0 1 -1 0 0 0 0];

internalField   nonuniform List<vector> 
12920
(
(411.124 -58.3563 -98.7583)
(385.816 -43.1556 -15.5636)
(342.943 15.4557 5.94499)
(267.156 -16.1115 1.58095)
(269.352 -26.5223 0.237315)
(251.303 -31.0502 1.53121)
(238.763 1.69302 5.41253)
(180.374 19.4615 3.50798)
(165.365 20.5105 -1.19466)
(145.995 14.7769 -2.72605)
(147.32 10.9144 -2.78881)
(142.681 7.40758 -2.34924)
(145.443 5.2677 -1.71966)
(144.534 1.89397 -1.04472)
(147.553 0.378302 -0.525973)
(148.231 -1.41383 -0.0150957)
(150.49 -2.5283 0.340577)
(152.248 -3.17103 0.495751)
(153.344 -3.12781 0.294409)
(152.031 -2.03772 0.150521)
(220.913 -153.266 -104.739)
(4.3062 -7.36263 -5.6477)
(169.647 1.28491 -2.03617)
(71.2229 4.32581 -3.30054)
(149.032 17.3201 -7.28677)
(106.264 21.7381 -5.44716)
(135.972 26.6527 -3.54402)
(122.315 24.0725 -1.30775)
(137.118 18.9578 -0.570706)
(130.334 13.9416 -0.253154)
(136.582 8.648 0.332884)
(132.703 4.70313 0.564892)
(135.061 1.24273 0.98599)
(132.362 -0.813887 0.932712)
(132.147 -2.69284 1.10956)
(129.772 -3.42285 0.990876)
(128.791 -4.3083 0.896049)
(127.826 -4.45708 0.646426)
(126.912 -4.99148 0.558231)
(122.572 -4.54191 0.486119)
(237.257 34.7077 112.672)
(117.321 -3.80239 22.6961)
(208.273 1.58904 0.804925)
(130.73 11.2661 -0.209304)
(165.284 13.9189 -1.7421)
(126.412 19.6609 -0.444582)
(141.717 22.2327 0.301073)
(123.625 25.0163 0.462894)
(132.965 19.0236 0.705587)
(123.297 14.7304 0.684056)
(127.391 8.01933 0.83495)
(121.127 4.66657 0.700962)
(122.137 0.954049 0.721482)
(118.258 -0.61734 0.563286)
(118.525 -2.42518 0.47211)
(116.948 -3.38313 0.390857)
(117.506 -4.56091 0.367322)
(117.999 -5.07507 0.278872)
(118.14 -5.99609 0.239297)
(114.588 -5.53504 0.187133)
(132.627 142.248 -42.7382)
(-37.3738 66.1008 -10.9197)
(160.065 64.3268 -14.3264)
(79.7083 53.7554 -0.186416)
(138.489 43.0434 -0.668071)
(93.6846 40.25 -0.355468)
(122.999 28.1935 -0.00710246)
(103.735 25.274 0.381608)
(119.701 16.0299 0.637609)
(109.455 12.814 0.546419)
(116.032 6.90236 0.428662)
(109.778 4.43416 0.172884)
(112.281 0.707825 0.0755622)
(109.822 -1.20084 0.0290156)
(111.614 -3.72779 0.0756937)
(111.549 -5.05725 0.148103)
(113.313 -6.86192 0.213019)
(114.829 -7.12235 0.212574)
(115.657 -8.2449 0.23518)
(112.106 -7.45397 0.236623)
(127.659 51.9087 -53.4261)
(29.0334 -12.8408 -21.2067)
(160.367 7.10266 -18.723)
(115.452 21.3009 -5.99874)
(152.24 25.8621 -2.00801)
(120.609 31.3749 -0.981772)
(136.546 19.9242 -0.810727)
(123.142 22.9518 -0.422163)
(132.062 12.6756 -0.0212984)
(123.68 13.6993 0.150638)
(126.402 7.02382 0.203361)
(119.743 6.57725 0.0523428)
(119.73 1.36646 0.00190489)
(115.417 -0.564044 -0.119548)
(116.046 -4.1756 0.0717724)
(114.801 -6.16824 0.0598716)
(115.891 -8.58955 0.109024)
(116.586 -9.01824 0.113848)
(117.02 -9.86816 0.148708)
(112.399 -8.727 0.12782)
(150.673 49.5425 -1.89756)
(6.16613 95.4376 -11.1679)
(160.315 98.6861 -14.1204)
(91.2125 69.3798 -0.251378)
(143.555 57.2851 0.923856)
(111.287 50.75 0.388218)
(134.627 31.9579 -0.021128)
(122.53 26.705 -0.13909)
(129.79 16.8989 -0.0663916)
(123.17 14.9489 -0.0927717)
(124.6 10.8479 0.0543068)
(119.716 9.52274 -0.0345613)
(119.319 5.6389 0.27445)
(115.142 2.10475 0.400545)
(114.796 -3.59125 0.212636)
(114.032 -5.81909 0.0261465)
(115.409 -8.99008 0.0161942)
(116.379 -9.57477 -0.0309911)
(116.958 -10.3539 0.0387438)
(111.878 -8.91545 0.0160703)
(155.474 42.2022 55.2661)
(26.5793 22.5243 21.8698)
(134.256 -0.3936 13.7821)
(84.6396 10.8173 5.97767)
(147.834 8.30571 4.89763)
(133.803 25.8384 2.84933)
(150.212 12.6666 2.06381)
(141.836 25.1106 1.61523)
(140.355 12.9471 0.930553)
(127.17 18.2197 0.777412)
(122.78 10.4011 0.619072)
(113.55 11.7633 0.649143)
(113.327 4.24752 0.508408)
(111.572 1.12961 0.543992)
(114.921 -4.0938 0.361685)
(115.635 -7.29253 0.0773485)
(118.401 -10.8056 -0.0144611)
(119.6 -11.0593 0.0170866)
(120.669 -11.17 0.112566)
(115.024 -9.10331 0.0693924)
(247.426 23.4646 -33.637)
(157.797 7.17892 13.9917)
(195.048 3.58318 10.2041)
(143.864 -1.49468 4.09973)
(164.508 1.07229 3.07728)
(145.712 26.1466 -0.0915509)
(147.88 21.2554 -0.723326)
(136.134 13.9122 -0.138642)
(132.891 26.438 0.413162)
(113.952 18.3485 1.21031)
(109.542 22.5125 0.0419004)
(102.616 11.9311 -0.507629)
(106.552 8.22212 -0.47666)
(111.548 -3.37626 -0.17049)
(118.336 -9.5167 0.251989)
(119.59 -10.1649 0.21276)
(121.513 -12.8665 0.106626)
(122.872 -12.7604 0.011979)
(124.475 -12.1953 0.0832923)
(119.524 -9.02264 0.103734)
(365.086 214.023 16.3411)
(205.69 73.3529 6.25559)
(214.683 32.9595 15.4964)
(124.387 1.67762 6.94521)
(134.3 -0.433499 10.7739)
(92.3284 24.2896 -2.26498)
(122.693 39.8713 -1.68538)
(133.147 29.2497 -0.886911)
(129.262 25.2139 0.735351)
(118.08 26.7129 0.304831)
(106.928 24.9076 -0.0374794)
(106.595 16.8346 -0.495627)
(112.405 7.28515 -0.45688)
(120.727 -2.78173 -0.0851435)
(123.89 -11.9687 0.416127)
(120.944 -11.6678 0.283768)
(120.892 -14.2482 0.148392)
(122.238 -14.7186 -0.0118124)
(123.668 -14.194 -0.184676)
(120.709 -10.095 0.0160728)
(165.58 -5.54544 -54.3233)
(57.2218 -4.98984 -6.74126)
(149.113 5.5412 18.7546)
(83.9078 5.97465 11.7619)
(120.176 17.9661 11.6134)
(71.2934 10.6336 1.11625)
(92.7697 28.4453 -1.69846)
(127.214 38.7481 -1.50277)
(130.317 36.649 -0.0198349)
(111.229 33.8372 0.374327)
(108.503 23.6745 -0.18221)
(116.687 9.30456 0.197281)
(122.608 -3.66309 0.210559)
(124.955 -9.80233 0.163048)
(121.556 -9.44873 0.0350068)
(114.358 -12.0525 0.205937)
(114.581 -14.7705 0.0600446)
(115.875 -15.521 -0.0244189)
(116.824 -15.3402 -0.575016)
(115.933 -11.3172 -0.420537)
(320.332 43.7536 -124.684)
(165.217 -31.8267 6.02391)
(166.693 -47.3217 16.2561)
(72.7671 -32.9145 4.99057)
(112.491 -17.8208 8.1341)
(54.8987 12.6632 -0.43667)
(80.5579 20.295 0.186631)
(98.4185 25.6638 -0.0552423)
(109.207 34.672 0.367774)
(115.366 33.6544 0.478029)
(117.256 17.7889 0.123579)
(121.07 3.38906 -0.166788)
(119.467 -5.67143 0.0634786)
(114.576 -7.33842 -0.110757)
(110.167 -6.75748 -0.195263)
(110.075 -12.2186 -0.148957)
(111.414 -15.4127 -0.271782)
(113.662 -16.1739 -0.124211)
(114.036 -15.8727 -0.190175)
(111.572 -11.9242 -0.273354)
(230.388 -31.8841 -113.391)
(120.772 -45.9095 -4.18352)
(182.239 -19.4393 -8.69446)
(88.8716 5.4616 -4.36473)
(113.882 18.6616 -0.0212996)
(63.2427 -1.6372 0.406133)
(86.4291 -4.31715 -0.436769)
(111.212 16.1665 -0.242983)
(118.972 25.5318 -0.282584)
(126.154 25.3016 -0.305611)
(130.27 18.949 -0.271451)
(123.703 9.1071 0.145008)
(116.648 0.145474 -0.0376626)
(111.211 -4.17232 -0.037705)
(111.538 -7.53893 -0.33453)
(113.956 -14.1928 -0.267827)
(114.518 -16.3131 -0.160618)
(116.004 -17.2863 0.0736514)
(115.41 -16.8847 0.288802)
(110.413 -11.8378 -0.0350811)
(211.334 -331.83 -169.113)
(10.9169 -14.6575 11.235)
(154.636 19.0236 9.54614)
(47.801 20.0587 5.14483)
(105.011 18.513 4.68249)
(70.1096 -15.1485 -0.0468929)
(88.5825 1.91562 -1.01198)
(85.0329 10.6001 -0.305567)
(100.759 18.8896 0.0904059)
(105.891 19.5514 0.407454)
(111.154 15.0538 0.360572)
(113.479 8.20621 0.243517)
(115.784 1.56262 -0.176456)
(116.62 -3.05371 -0.423023)
(117.241 -9.09727 -0.553843)
(118.835 -14.1912 -0.505345)
(119.915 -16.3914 -0.217559)
(119.957 -17.4599 0.0725435)
(118.427 -16.9504 0.363589)
(110.495 -10.9972 -0.0718435)
(190.186 -242.034 -68.9951)
(-2.52586 -94.8104 9.66639)
(120.154 -53.225 12.6381)
(50.6516 -10.9448 6.51954)
(117.029 -6.22038 4.82813)
(86.7296 -4.89575 1.96001)
(102.461 18.9056 0.129599)
(90.9357 3.65503 0.587523)
(102.813 11.9629 0.0997564)
(102.977 5.65815 0.326814)
(111.845 6.12342 0.0547539)
(113.317 1.163 -0.277741)
(119.154 -0.646612 -0.596538)
(119.497 -4.64202 -1.00059)
(123.303 -8.35291 -1.28874)
(124.773 -13.8725 -0.460464)
(124.394 -16.233 0.11884)
(122.195 -16.8648 0.201228)
(118.784 -14.8158 0.269927)
(109.439 -7.85518 -0.127868)
(683.167 -22.9998 -69.4442)
(251.469 -40.6275 12.6636)
(188.01 -36.9775 8.75136)
(118.898 -28.9918 4.54093)
(143.226 -23.1158 8.25387)
(116.204 -17.4672 6.30908)
(129.759 -7.96309 4.39052)
(118.818 -6.04607 1.79242)
(123.143 -3.48947 0.845367)
(121.162 -2.41129 0.0375515)
(124.584 -1.60134 -0.325889)
(125.315 -2.23052 -0.820292)
(127.647 -2.62111 -1.05648)
(128.832 -4.4335 -1.52605)
(130.656 -7.88188 -1.11978)
(129.755 -13.7102 -0.198384)
(127.355 -14.6211 0.376621)
(121.092 -13.4306 0.558185)
(114.928 -10.9634 0.160131)
(106.274 -5.75981 -0.113833)
(204.842 231.3 -111.918)
(23.2086 147.743 -39.4098)
(193.656 66.9574 -42.8509)
(180.483 -12.0009 -26.311)
(194.564 -31.2707 0.598701)
(160.284 -30.0273 4.59069)
(159.559 -2.55708 5.16057)
(140.565 1.03801 3.5719)
(140.926 6.99475 2.34631)
(134.302 4.65401 1.34076)
(136.542 5.28835 0.751985)
(135.245 3.4082 0.165247)
(136.773 2.54618 -0.309599)
(136.204 0.660726 -0.649005)
(136.402 -4.0997 -0.254972)
(131.529 -10.5211 0.645633)
(125.686 -9.63507 1.1128)
(118.973 -7.69865 0.788875)
(114.07 -6.05883 0.388313)
(105.595 -3.57536 0.0288866)
(228.557 218.401 48.0609)
(147.944 116.162 -32.4803)
(231.862 72.6171 -26.6052)
(213.946 56.1728 -17.7636)
(201.664 3.65913 9.94273)
(123.323 -14.4142 5.37785)
(133.439 -12.4592 2.01965)
(123.225 -9.96478 0.802475)
(134.955 -7.78516 0.975083)
(135.318 -6.722 0.862005)
(141.608 -5.28173 1.1045)
(142.701 -3.66293 0.919888)
(145.991 -1.16761 0.976596)
(146.146 -0.957331 0.888147)
(144.825 -2.6331 0.911008)
(134.902 -7.25622 1.15799)
(124.143 -8.37598 1.16322)
(116.61 -6.60961 0.585082)
(111.99 -4.99233 0.440689)
(102.991 -2.52787 0.146135)
(273.699 112.219 -72.3994)
(187.718 115.208 -5.28046)
(251.323 54.8131 23.6751)
(203.693 14.1516 25.185)
(196.842 5.19643 13.514)
(154.897 -3.26352 2.88789)
(158.516 -5.68227 -0.350132)
(147.694 -7.24928 -1.05548)
(152.085 -6.63638 -0.595381)
(148.183 -7.19133 -0.411088)
(150.63 -6.10994 -0.220204)
(150.256 -5.65048 -0.215971)
(152.52 -4.5989 -0.260236)
(155.278 -2.49259 -0.269345)
(155.843 1.44483 0.0965393)
(151.597 2.29872 0.702724)
(138.772 1.6999 1.44033)
(127.764 0.68086 0.649015)
(121.8 -0.0801319 0.756456)
(108.465 -0.333639 0.533462)
(218.508 403.204 -6.38268)
(-107.724 45.1638 25.7299)
(157.492 45.525 0.621113)
(48.1571 11.1042 8.68802)
(127.588 13.3411 1.99947)
(104.459 5.37699 0.610251)
(132.155 2.16895 -0.232853)
(124.971 -1.51314 -0.376134)
(135.114 -3.4997 0.209239)
(131.282 -5.22009 0.54092)
(134.201 -5.43537 0.75527)
(131.717 -5.03103 0.526791)
(132.766 -3.8072 0.26241)
(131.155 -2.95997 0.0268033)
(131.889 -0.47302 0.271724)
(129.753 3.78708 0.564604)
(128.165 6.45215 -0.265967)
(127.79 5.75017 -1.09961)
(128.55 4.57513 -1.33984)
(124.413 2.92991 -0.565173)
(184.074 -178.421 -125.949)
(-99.7888 -59.2949 -24.9843)
(178.016 -43.4885 -46.9586)
(93.0905 -33.5278 -8.94525)
(155.941 -28.3164 -6.03216)
(135.817 -17.1153 -3.24386)
(151.716 -14.4707 -2.8331)
(143.883 -11.0979 -2.87464)
(148.961 -10.5899 -2.24372)
(142.453 -10.2511 -2.00995)
(141.204 -8.38276 -0.769489)
(133.685 -6.43948 -0.782194)
(132.774 -3.63529 -0.709856)
(129.368 -0.661376 -0.621389)
(130.297 1.90788 -0.630651)
(131.971 3.99347 -0.268121)
(136.77 6.3223 -0.704729)
(148.075 6.2587 -0.994798)
(154.893 4.92825 -2.26439)
(164.496 0.914073 -2.13415)
(289.965 -117.626 26.7526)
(312.2 -49.5783 37.2147)
(309.365 1.16423 42.9807)
(250.276 -13.9852 25.2403)
(246.639 -16.3176 13.577)
(223.124 -15.132 12.3531)
(209.488 17.1245 12.3414)
(171.761 21.198 6.97196)
(162.123 16.5437 -0.019879)
(141.077 9.32627 -2.76863)
(140.443 4.74521 -2.99163)
(133.06 1.56637 -2.36985)
(134.722 -0.630775 -1.21408)
(133.226 -2.18038 -0.505077)
(135.558 -3.11713 0.193774)
(136.595 -3.57965 0.637178)
(139.48 -3.82939 1.03608)
(142.234 -3.56129 1.14289)
(143.728 -3.34628 0.866707)
(142.132 -2.64458 0.700133)
(125.147 -135.942 -84.5568)
(-17.56 -0.384291 3.18606)
(152.982 -8.62356 -12.3162)
(74.8415 0.750866 -8.65604)
(142.228 12.561 -15.737)
(97.3494 17.3945 -12.5881)
(128.218 21.6402 -7.25458)
(112.975 17.7426 -2.43727)
(127.671 12.3515 -0.546531)
(117.655 7.52056 -0.23992)
(123.542 3.05245 0.626082)
(117.932 0.448294 0.674543)
(120.409 -1.51597 1.24271)
(117.407 -2.33916 1.06757)
(118.042 -2.8562 1.27638)
(116.57 -3.08521 1.03126)
(116.878 -3.40067 0.956934)
(116.967 -3.29438 0.654989)
(116.843 -3.58639 0.517415)
(112.978 -3.07094 0.411589)
(212.827 -79.7931 0.862881)
(162.651 -9.98375 -39.6735)
(203.072 -0.539328 -30.9431)
(124.203 10.1905 -10.2532)
(155.974 13.2355 -5.87063)
(112.301 18.8257 -1.55873)
(131.542 20.0988 0.358495)
(111.656 21.7017 0.782371)
(122.604 15.1433 1.26064)
(111.249 11.8005 1.01127)
(116.141 6.06773 1.26165)
(109.186 4.04075 0.91883)
(110.945 1.17836 0.999259)
(107.169 0.273737 0.720401)
(108.078 -1.19608 0.645394)
(106.762 -1.86399 0.496517)
(107.635 -2.91366 0.49865)
(108.149 -3.2317 0.326855)
(108.329 -3.93855 0.266267)
(104.515 -3.51671 0.183893)
(246.025 35.9731 -8.83911)
(61.2575 81.2349 -2.8746)
(147.467 68.7971 -16.6611)
(65.7507 50.4816 -0.336674)
(128.188 37.2085 -2.48946)
(82.043 34.8992 -0.568237)
(115.283 23.1139 0.016654)
(94.3618 21.7013 0.718162)
(111.62 13.0673 0.984847)
(100.069 11.0938 0.707778)
(107.087 5.75055 0.563934)
(100.198 4.22818 0.147952)
(102.966 1.01573 0.101762)
(100.139 -0.171866 0.0584442)
(102.001 -2.16754 0.180527)
(101.735 -2.93197 0.254902)
(103.318 -4.23946 0.339614)
(104.49 -4.32813 0.275237)
(105.049 -5.09428 0.270381)
(101.257 -4.36152 0.271252)
(171.535 65.9252 16.92)
(115.703 10.6823 -25.0515)
(168.958 16.6958 -17.2796)
(106.215 20.9903 -4.59882)
(141.083 19.9806 -0.360932)
(106.178 25.7349 0.0099697)
(124.634 15.1686 -0.0789666)
(108.102 21.6018 0.0602102)
(117.983 12.0113 0.349357)
(107.762 14.6514 0.300144)
(111.437 7.49997 0.367358)
(104.482 7.43096 0.107064)
(105.665 1.95507 0.105464)
(102.239 0.744429 -0.0609285)
(103.564 -2.46419 0.208581)
(102.794 -3.52633 0.155875)
(103.992 -5.19204 0.222715)
(104.505 -5.29385 0.204921)
(104.829 -5.89456 0.199426)
(100.332 -4.8967 0.132389)
(221.61 -12.8062 -20.6006)
(74.0661 83.5064 -10.6162)
(149.202 92.6847 -11.1801)
(80.8536 56.5653 1.8073)
(134.572 43.1517 2.34135)
(97.0883 39.7504 1.02066)
(121.454 22.2595 0.0656696)
(104.912 22.632 0.273694)
(112.672 14.3019 0.338111)
(104.209 14.8494 0.126386)
(106.713 9.91997 0.360826)
(102.072 8.4448 0.107915)
(103.161 3.79986 0.527189)
(101.288 0.907173 0.512124)
(102.159 -2.80829 0.321026)
(101.971 -3.92473 0.130689)
(103.233 -5.75463 0.137568)
(103.823 -5.79347 0.0840078)
(104.151 -6.23173 0.116162)
(99.2468 -4.94807 0.016969)
(128.301 117.631 31.1024)
(-32.6527 37.3096 26.2334)
(121.513 8.79459 1.07745)
(68.7239 10.0082 6.39877)
(137.769 7.6232 6.32879)
(117.953 24.9698 3.35251)
(130.946 10.2061 2.84693)
(117.002 26.3563 2.64893)
(116.275 12.72 1.82724)
(104.809 19.2905 1.74698)
(104.63 9.69005 1.26422)
(99.4 10.566 1.11411)
(101.569 2.76967 0.733088)
(101.279 1.33636 0.783763)
(104.579 -3.06103 0.511607)
(104.8 -5.04926 0.214832)
(106.464 -6.94702 0.153206)
(106.859 -6.8012 0.211674)
(107.126 -6.75309 0.2932)
(101.311 -5.00929 0.102297)
(248.945 93.5345 -29.8033)
(106.423 56.1004 -22.7025)
(162.426 36.4267 2.39771)
(117.735 10.9485 4.4254)
(147.529 12.1827 4.6334)
(122.912 39.0618 0.316415)
(127.043 28.9742 0.448214)
(109.456 21.0879 2.82325)
(109.608 28.7136 2.35695)
(97.7103 16.9451 2.62577)
(98.6068 17.6914 0.550552)
(96.1896 8.21975 -0.270983)
(100.372 4.70716 -0.406268)
(103.273 -3.53474 -0.0289887)
(107.806 -6.55364 0.211417)
(108.819 -6.48889 0.255202)
(110.364 -8.08256 0.199837)
(111.029 -7.40722 0.165498)
(111.366 -6.45515 0.312381)
(105.02 -4.12851 0.175766)
(81.2851 94.715 -95.4527)
(-85.8554 47.7474 16.9511)
(116.401 13.6802 21.9849)
(37.2723 -3.62425 7.71899)
(97.3914 8.96194 7.80269)
(84.2859 25.3243 -0.377831)
(110.942 42.9675 -4.07336)
(104.422 32.4918 -3.8577)
(101.398 28.6453 2.11601)
(97.5999 23.235 2.13813)
(97.3304 18.4169 0.70979)
(100.737 9.14031 -0.506564)
(105.909 1.89015 -0.491239)
(110.421 -4.11745 -0.0108707)
(112.598 -9.92405 0.3964)
(111.106 -8.20806 0.312833)
(111.028 -9.19795 0.135877)
(112.099 -8.67403 -0.0259322)
(112.534 -6.81175 -0.146787)
(107.26 -3.65418 -0.0026277)
(105.76 -87.3282 -113.153)
(-53.8616 0.924181 10.7078)
(104.547 -0.0434924 31.6052)
(36.6792 7.23577 12.087)
(101.061 20.4812 11.3073)
(79.7213 15.0627 0.601275)
(92.3208 31.4021 -5.5593)
(106.371 37.095 -4.076)
(102.771 31.6694 1.75413)
(99.9931 24.6756 1.2991)
(103.11 14.2342 -0.0171455)
(108.255 4.45332 0.483774)
(113.274 -3.03956 0.647249)
(115.458 -5.96031 0.468295)
(111.678 -8.03666 0.439002)
(106.238 -8.94414 0.242234)
(106.619 -9.51124 -0.0579215)
(108.006 -9.25435 -0.325663)
(108.971 -7.45988 -0.945657)
(105.523 -3.63575 -0.545773)
(117.301 2.96076 -68.8977)
(10.4309 -23.9611 59.5467)
(112.677 -22.834 20.0777)
(14.1517 -4.01704 2.3674)
(83.7525 2.8348 8.7087)
(51.9196 15.9541 4.62817)
(77.2496 20.8758 2.03661)
(93.6107 25.369 1.96468)
(100.924 27.9661 2.28467)
(105.453 21.9 1.64219)
(108.609 10.6935 0.651674)
(110.188 1.73045 -0.241437)
(108.781 -3.53917 0.00871927)
(106.021 -4.62717 -0.218309)
(102.477 -6.12998 0.0392272)
(101.121 -9.1518 -0.465896)
(101.772 -10.4141 -0.425348)
(103.48 -10.4589 -0.290701)
(104.336 -9.17246 -0.487305)
(101.597 -4.79874 -0.500435)
(182.217 73.8598 -4.98737)
(92.0689 -11.656 18.9631)
(139.571 -0.819894 19.9885)
(58.2705 15.7192 -0.366112)
(94.0622 16.8918 2.02726)
(68.6493 1.41452 -1.94232)
(85.7388 -4.97475 -0.819247)
(98.3149 14.7698 0.188084)
(102.611 22.0793 0.0463487)
(106.809 18.194 -0.416265)
(106.915 9.95668 0.0794583)
(104.303 3.78077 0.347355)
(101.599 -0.694392 -0.0687906)
(100.575 -3.61834 -0.264167)
(100.688 -6.99074 -0.460194)
(100.795 -11.0641 -0.547541)
(100.99 -11.4422 -0.268503)
(102.559 -11.4295 0.0518678)
(102.802 -9.93631 0.238768)
(98.816 -5.07136 -0.260254)
(39.8459 -185.612 -174.277)
(-80.9139 -7.58044 8.00011)
(109.045 14.758 3.38492)
(8.42314 16.3032 2.10459)
(92.8584 13.1453 4.54638)
(56.7699 -19.4165 0.285003)
(75.8895 0.893732 -0.207784)
(71.7666 12.0696 0.300932)
(89.0409 13.4189 0.537141)
(91.8081 12.8351 0.847628)
(98.124 8.17934 0.533101)
(99.0447 4.13263 0.302448)
(101.895 -0.464365 -0.482952)
(102.166 -3.91037 -0.591087)
(101.882 -8.7491 -1.10736)
(102.414 -11.6225 -0.606518)
(102.886 -12.1028 -0.133005)
(103.417 -12.0603 0.250489)
(102.864 -10.0901 0.491526)
(96.9779 -4.80588 -0.233722)
(167.894 14.7088 -18.1222)
(-55.9721 -11.3276 18.3164)
(102.094 -19.2438 12.1172)
(30.9955 2.53876 7.66026)
(106.541 -5.19816 5.367)
(74.7933 -7.7257 2.42083)
(92.1019 13.7693 0.561238)
(81.7676 -2.42935 1.34858)
(93.4301 7 0.268007)
(92.7522 1.20216 0.539402)
(100.238 2.78952 -0.00517882)
(100.528 -1.30945 -0.519449)
(103.986 -2.61153 -0.890855)
(103.783 -6.20283 -1.16723)
(104.785 -8.89586 -1.2383)
(104.318 -12.1261 -0.207002)
(104.659 -12.4544 0.270701)
(104 -11.8092 0.380736)
(102.275 -8.31964 0.341361)
(95.6246 -3.48618 -0.179749)
(221.761 102.825 116.565)
(58.7891 17.0467 43.4571)
(124.242 -5.72155 6.03215)
(65.2494 -3.38263 4.60582)
(113.945 -7.9132 9.45359)
(86.9636 -12.3115 6.52811)
(111.44 -6.86021 5.18758)
(101.5 -6.78267 1.66276)
(108.23 -3.70441 0.987947)
(105.513 -2.95562 -0.128474)
(108.528 -2.16465 -0.489476)
(107.929 -3.11194 -1.18445)
(109.189 -4.241 -1.39927)
(108.756 -6.95592 -1.67677)
(108.505 -9.86813 -0.893157)
(107.16 -12.3927 0.120241)
(106.257 -11.8635 0.58118)
(103.297 -9.95701 0.723888)
(100.259 -6.54523 0.197044)
(93.8018 -2.85256 -0.121128)
(121.635 160.789 -124.148)
(46.0404 104.355 -52.2375)
(144.055 65.2578 -44.7107)
(86.56 7.00771 -17.4383)
(128.812 -4.93949 3.1913)
(112.386 -7.63111 5.39683)
(128.274 4.3404 6.25373)
(116.875 1.42844 4.01775)
(122.239 4.58404 2.93966)
(116.558 1.36632 1.56998)
(119.096 1.72675 0.935794)
(116.286 -0.790199 0.0678369)
(116.89 -2.43931 -0.52313)
(114.213 -5.50038 -0.778391)
(112.471 -8.37355 0.0403278)
(108.747 -10.6454 1.02505)
(106.78 -8.39591 1.50469)
(102.985 -5.90576 1.06304)
(100.265 -3.80262 0.511525)
(93.5949 -1.88591 0.0609058)
(199.451 134.535 -60.6093)
(-1.06535 47.0698 10.0627)
(137.771 2.81341 16.8893)
(61.6846 -23.2476 9.27915)
(120.296 -19.8188 16.7927)
(90.8333 -14.4672 6.19398)
(116.487 -7.04566 2.40729)
(107.629 -4.02458 0.824197)
(120.018 -2.1542 1.42738)
(118.468 -1.92475 1.10432)
(123.827 -1.11191 1.40125)
(123.436 -1.30322 0.993167)
(124.53 -1.33879 0.87209)
(123.12 -2.53635 0.719277)
(120.175 -5.04229 1.52034)
(111.765 -7.30672 1.98028)
(106.43 -5.94626 1.73487)
(102.008 -3.88535 0.892217)
(99.2479 -2.45821 0.605679)
(92.0452 -1.03668 0.179411)
(202.763 -77.2521 70.6552)
(40.4956 -57.2151 10.9361)
(146.768 -38.8101 -1.4901)
(125.25 -32.4637 10.0501)
(156.053 -15.2421 7.58036)
(130.839 -9.24524 0.564038)
(139.255 -5.67583 -1.04816)
(127.846 -4.91958 -1.46244)
(132.992 -3.06095 -0.48984)
(128.266 -3.00558 -0.447644)
(130.703 -1.41427 -0.168157)
(128.755 -1.08624 -0.346572)
(129.612 0.0513255 -0.430408)
(128.481 0.101465 -0.399442)
(126.788 1.73917 0.538922)
(119.96 1.19009 1.67475)
(113.441 1.13891 2.28297)
(107.947 0.77234 1.08631)
(104.792 0.947328 1.07271)
(96.0949 0.689357 0.639388)
(170.433 -74.1898 -89.6413)
(-63.4646 -60.4642 34.8953)
(129.184 -1.48436 -3.94151)
(40.6773 -3.5831 7.05007)
(118.442 4.07997 -1.91366)
(94.6024 0.917168 -1.2088)
(121.54 0.435331 -0.960833)
(111.24 -1.19673 -0.812372)
(121.012 -1.15447 0.32596)
(115.815 -1.54512 0.450402)
(119.328 -0.903433 0.574239)
(116.483 -0.607977 0.0864189)
(117.344 0.177355 -0.150133)
(115.009 0.357357 -0.433657)
(114.517 2.24814 0.209165)
(112.445 3.82684 0.212136)
(111.717 4.96718 -0.686779)
(111.044 3.93263 -1.30309)
(110.83 3.86765 -1.24689)
(105.428 3.16293 -0.240662)
(375.535 -234.831 43.4496)
(261.913 -152.535 13.2828)
(210.037 -70.1974 -21.1525)
(108.933 -34.6795 -3.3222)
(153.31 -26.8662 -8.34669)
(124.531 -14.42 -4.37683)
(135.941 -11.0704 -2.94111)
(119.167 -6.34426 -2.85904)
(122.787 -4.0583 -1.84102)
(114.135 -1.62348 -1.86055)
(116.661 0.640116 -0.803204)
(114.22 2.39093 -0.746267)
(116.619 3.99813 -0.317703)
(116.82 4.56742 -0.00530884)
(118.756 5.52665 0.282202)
(121.48 5.50012 0.717257)
(127.222 4.17967 -0.468819)
(132.376 1.06791 -1.56356)
(133.738 -0.114942 -2.47249)
(130.554 0.185108 -2.24963)
(225.17 -118.893 -79.3016)
(160.367 -15.9154 3.47841)
(239.997 15.928 38.8161)
(209.199 7.30092 27.0977)
(218.639 14.3952 16.8626)
(189.74 20.2635 13.1606)
(181.085 28.7604 11.3513)
(155.019 21.9441 5.41341)
(150.811 14.0215 0.546713)
(132.009 7.23322 -1.89989)
(131.44 2.88099 -1.97276)
(123.222 0.224323 -1.55823)
(125.064 -1.57314 -0.441574)
(123.379 -2.31885 0.123562)
(125.852 -2.92078 0.778314)
(126.82 -2.77641 0.969053)
(129.785 -2.83033 1.24776)
(132.824 -2.35623 1.27846)
(134.468 -2.24547 0.95249)
(132.784 -1.80064 0.78704)
(156.054 -124.673 -111.332)
(15.8864 -21.7532 -30.3924)
(155.865 -14.8994 -28.6051)
(78.0569 4.57153 -15.2418)
(139.787 15.6616 -20.8346)
(95.1015 18.3739 -14.6374)
(123.557 19.645 -7.43962)
(103.74 14.4925 -2.34671)
(118.913 8.97234 -0.416832)
(106.528 4.81508 -0.28524)
(112.969 1.15304 0.49979)
(106.01 -0.519419 0.375397)
(108.786 -1.75209 0.880237)
(105.431 -1.93079 0.689757)
(106.713 -2.0825 0.879382)
(105.6 -2.08166 0.65772)
(106.543 -2.32348 0.62022)
(107.08 -2.12657 0.337152)
(107.216 -2.41486 0.260674)
(103.372 -1.93868 0.189942)
(551.607 -39.8406 181.325)
(347.082 -5.48618 7.85715)
(250.012 6.74109 -18.485)
(130.195 15.5625 -6.8835)
(152.215 16.9599 -5.23902)
(102.746 21.2792 -1.35967)
(123.95 19.9078 0.387209)
(101.592 20.2133 0.820665)
(113.958 13.2508 1.25265)
(101.042 10.8197 0.877909)
(106.79 5.61857 1.11871)
(99.1512 4.39353 0.701126)
(101.597 1.79362 0.768262)
(97.6881 1.23881 0.489038)
(99.0516 -0.174187 0.515436)
(97.7026 -0.689501 0.372124)
(98.7644 -1.67439 0.404128)
(99.1622 -1.92235 0.213504)
(99.3064 -2.55213 0.149794)
(95.2497 -2.20738 0.0717675)
(139.078 193.643 80.1682)
(47.9725 124.496 2.80069)
(139.856 89.538 -11.3205)
(61.6317 53.621 -1.5911)
(120.824 36.4677 -3.34993)
(73.0467 32.9495 -0.182665)
(108.62 20.7881 0.0316854)
(85.7052 20.1996 0.857878)
(104.127 11.758 0.939411)
(91.3112 10.7311 0.592874)
(99.1295 5.62086 0.486386)
(91.7763 4.71828 0.0869001)
(95.0602 1.69781 0.0753357)
(91.9266 0.923457 0.0194289)
(93.8657 -0.851171 0.172499)
(93.3001 -1.34338 0.225821)
(94.7843 -2.48068 0.287769)
(95.564 -2.54429 0.209635)
(95.8699 -3.19108 0.192442)
(91.8676 -2.6006 0.177003)
(282.288 -34.9537 -3.39646)
(108.848 9.40331 -18.6803)
(163.43 27.693 -9.25406)
(89.8122 23.8194 -1.37443)
(130.48 19.4837 1.16166)
(93.0355 24.7941 0.885037)
(115.012 13.6225 0.397144)
(96.1265 21.5878 0.354042)
(107.39 11.4982 0.481786)
(95.8551 15.0164 0.321036)
(100.744 7.38842 0.413386)
(93.6939 7.89249 0.13579)
(95.9275 2.50406 0.139568)
(92.6815 2.00597 0.010029)
(94.3879 -0.935792 0.202638)
(93.5297 -1.48005 0.14085)
(94.7115 -2.92501 0.209764)
(94.9882 -2.93454 0.171729)
(95.1931 -3.58893 0.142791)
(90.6803 -2.7906 0.0675758)
(280.577 -68.0956 -49.9306)
(86.5947 97.0544 7.92896)
(139.631 85.6972 2.63195)
(64.0285 49.7872 4.26483)
(124.85 38.0058 3.84106)
(82.5974 37.1093 1.80242)
(110.156 19.3469 0.383409)
(91.1711 22.702 0.587803)
(100.535 13.6511 0.581703)
(91.2764 15.1732 0.211478)
(95.0915 9.22598 0.408021)
(90.6736 8.16807 0.118004)
(92.6214 3.34734 0.473308)
(91.3792 1.50847 0.388344)
(92.5207 -1.36986 0.288178)
(92.4655 -1.93896 0.151934)
(93.6389 -3.36142 0.152895)
(94.1 -3.22217 0.0808036)
(94.247 -3.76865 0.0880499)
(89.4395 -2.78869 -0.0308583)
(103.111 183.352 106.372)
(-15.1151 52.3813 33.1781)
(108.175 7.01566 1.40302)
(57.1695 9.39964 7.22829)
(124.818 9.06752 6.28565)
(96.3346 27.0473 3.11601)
(110.213 8.80667 3.0027)
(95.0654 28.2177 2.94983)
(98.6586 12.0781 1.99355)
(89.9004 19.5258 1.8355)
(92.9925 8.54964 1.03824)
(89.2929 10.0665 0.960157)
(92.5181 2.53345 0.62607)
(92.2618 2.38236 0.760293)
(95.3138 -1.44708 0.552431)
(95.1536 -2.77345 0.298456)
(96.2411 -4.14343 0.230185)
(96.3908 -3.82786 0.259296)
(96.2985 -4.00029 0.289196)
(90.6503 -2.74148 0.0250734)
(265.06 139.247 178.236)
(98.6433 57.8876 21.0045)
(152.072 29.0252 18.6088)
(98.9902 13.0837 7.87983)
(132.16 20.5179 5.62132)
(101.017 47.214 0.420468)
(105.946 31.0801 1.05776)
(85.9622 23.6086 2.86294)
(90.2158 26.7778 2.42674)
(85.1159 15.7737 2.15097)
(89.1301 15.0161 0.197471)
(88.7975 6.8662 -0.196654)
(93.0687 3.75011 -0.404771)
(94.9127 -2.26012 0.144114)
(97.9464 -3.71339 0.694142)
(98.374 -3.13045 0.442825)
(99.3353 -4.36869 0.339981)
(99.6963 -3.52168 0.301946)
(99.3893 -3.06544 0.372966)
(93.0174 -1.73906 0.0799823)
(88.98 -5.92625 -37.0075)
(-23.5242 19.8334 -17.3525)
(94.8486 13.2486 1.12261)
(22.3197 2.84048 1.63056)
(84.4456 16.6474 2.46414)
(69.8054 35.3188 -2.25691)
(91.6646 47.6163 -4.13099)
(81.4242 30.1329 -1.64604)
(84.1762 26.7628 2.29661)
(85.59 18.6581 1.76058)
(89.8419 14.2988 0.274443)
(93.3817 6.03495 -0.687405)
(97.3069 1.20936 -0.50326)
(100.071 -2.73468 0.0324057)
(101.698 -7.23283 0.748335)
(100.487 -4.31838 0.786985)
(100.2 -5.00968 0.320476)
(101.218 -4.16383 0.135481)
(100.927 -2.4869 -0.00268957)
(95.0332 -0.844218 -0.102453)
(233.609 -137.406 -29.61)
(-54.1306 10.0435 18.4888)
(88.9692 14.883 33.3782)
(15.1216 13.8974 10.7849)
(88.3789 24.1184 7.58203)
(67.6446 19.7263 -0.502298)
(81.9705 34.5556 -5.00469)
(89.1157 31.6724 -2.40169)
(88.2633 24.7277 1.97532)
(91.1376 17.5378 0.974537)
(95.3287 9.91494 -0.182082)
(99.2868 2.93343 0.155441)
(102.787 -1.65663 0.454566)
(103.806 -3.52283 0.644432)
(100.55 -5.70865 0.907759)
(97.2842 -5.44687 0.63345)
(97.5688 -5.26079 -0.00294938)
(98.9421 -4.47219 -0.289055)
(99.1067 -2.62492 -0.746162)
(94.275 -0.466119 -0.554731)
(66.3506 95.7879 -33.3104)
(-55.5258 2.26627 24.9768)
(93.2356 2.56949 11.2279)
(-14.4851 7.45572 3.63046)
(68.6251 9.18543 6.17099)
(37.6164 18.8842 3.9314)
(68.3233 21.5196 2.50342)
(85.676 23.1832 2.55117)
(91.9891 22.0234 2.58227)
(96.2179 15.5398 2.89241)
(99.6416 8.70279 1.47169)
(101.451 1.23556 -0.382594)
(98.9913 -1.25128 -0.0751347)
(96.9395 -2.7487 0.0338493)
(94.3024 -4.65248 0.478066)
(92.4878 -5.91342 -0.0589229)
(92.769 -6.39127 -0.299953)
(94.4684 -6.09949 -0.311544)
(95.2649 -4.42784 -0.544763)
(91.559 -1.38918 -0.549363)
(141.319 33.8007 66.0327)
(-68.1773 27.2591 32.3701)
(108.616 7.75012 13.1515)
(30.2585 17.666 -0.860923)
(83.5752 13.9 0.479055)
(59.9289 -0.683807 -1.55205)
(78.013 -5.31151 0.143782)
(86.6448 15.0132 0.886851)
(90.2683 18.4279 0.579221)
(93.0152 13.6059 0.128774)
(93.1748 7.29088 0.380818)
(92.5524 3.14686 0.20048)
(91.9502 -0.0461008 -0.187802)
(91.9879 -2.64673 -0.288)
(91.4782 -5.32848 -0.127797)
(90.7651 -7.89893 -0.0610645)
(90.7016 -7.53151 -0.145723)
(92.411 -7.17658 0.00751901)
(92.8614 -5.26477 0.0478015)
(88.8858 -1.87256 -0.346863)
(82.2322 -128.083 -169.773)
(-46.7594 16.1876 -15.5177)
(97.371 10.1572 -4.78977)
(-3.07598 15.0834 1.14339)
(84.9744 7.98228 2.55268)
(46.5048 -21.2013 0.696398)
(66.0018 1.71934 0.186437)
(62.3073 11.693 0.527249)
(80.4933 11.0601 0.695545)
(81.8792 10.0573 0.916993)
(88.2999 5.81043 0.419603)
(88.6964 3.07524 0.20139)
(91.4885 -0.629519 -0.435879)
(91.2537 -3.32898 -0.494991)
(90.3235 -6.9089 -0.486449)
(90.494 -8.78842 -0.350602)
(90.9401 -8.40507 -0.059864)
(91.9154 -7.88475 0.175436)
(91.7522 -5.41573 0.243479)
(86.7904 -2.07708 -0.248248)
(17.9195 29.7905 62.2907)
(-79.2726 14.7386 7.19061)
(87.6784 -13.1216 2.4584)
(22.3697 3.32358 6.91276)
(97.3921 -7.6099 3.96629)
(63.2637 -9.38557 2.33115)
(83.2058 12.121 0.857701)
(72.7563 -4.98439 1.67064)
(84.7762 5.43554 0.475721)
(83.2514 -0.407307 0.773502)
(90.0857 2.12511 0.139055)
(89.56 -1.85573 -0.361004)
(91.9954 -2.45329 -0.767787)
(91.3657 -5.81556 -0.960695)