/*--------------------------------*- C++ -*----------------------------------*\
  =========                 |
  \\      /  F ield         | OpenFOAM: The Open Source CFD Toolbox
   \\    /   O peration     | Website:  https://openfoam.org
    \\  /    A nd           | Version:  10
     \\/     M anipulation  |
\*---------------------------------------------------------------------------*/
FoamFile
{
    format      ascii;
    class       volScalarField;
    location    "7.8";
    object      k;
}
// * * * * * * * * * * * * * * * * * * * * * * * * * * * * * * * * * * * * * //

dimensions      [0 2 -2 0 0 0 0];

internalField   nonuniform List<scalar> 
12920
(
1243.23
1275.31
860.304
528.131
403.047
390.339
375.021
346.164
284.405
221.369
162.739
121.115
99.2745
86.6771
78.2542
72.0986
68.6949
66.925
66.4977
66.8799
4385.37
2258.53
1699.56
961.516
650.174
458.105
352.428
305.357
256.747
223.682
202.814
197.099
194.112
187.851
182.585
174.518
168.032
158.676
149.53
140.254
5392.17
2098.51
1777.34
1364.65
1071.28
844.354
614.168
441.418
321.132
264.829
239.488
232.379
228.215
225.345
223.459
219.019
214.179
203.278
191.304
163.514
922.519
848.426
868.727
882.553
860.97
818.903
724.094
614.55
475.867
375.905
310.686
281.056
270.239
266.22
262.198
254.284
246.898
230.367
214.781
173.614
3134.13
2588.8
1309.08
1046.3
906.25
795.197
667.063
603.974
512.299
452.411
398.46
367.336
343.791
326.869
309.971
288.396
273.564
257.314
244.119
202.348
1012.63
1475.69
1578.77
1548.99
1174.53
785.333
571.406
500.608
442.893
419.652
395.997
383.539
368.933
352.566
327.216
295.306
269.296
256.936
249.89
223.559
1285.97
2477.67
2423.01
1682.47
1112.41
815.463
607.798
518.603
471.729
444.189
417.726
398.521
367.955
312.621
250.574
210.4
197.607
196.977
202.487
201.981
2214.37
4645.56
2941.1
1475.96
1000.6
797.581
442.794
296.571
293.907
276.988
267.731
242.038
219.314
173.182
187.972
171.916
168.738
169.066
173.212
173.407
2699.67
3587.56
2739.01
1290.83
952.078
553.042
362.763
218.404
183.869
168.191
157.088
138.177
121.628
99.4936
95.3232
147.494
136.631
131.226
131.85
130.94
4729.31
1342.41
862.064
638.795
609.076
387.426
257.674
199.469
164.434
131.342
103.166
81.6411
68.1192
57.7832
100.427
140.042
118.057
105.759
103.945
105.555
7580.15
1807.08
1098.94
600.703
458.106
230.535
133.823
122.511
127.846
112.142
93.4162
80.3653
73.5748
65.798
115.697
189.119
155.932
126.429
106.397
98.4651
4667.36
3067.44
1660.45
1118.42
690.718
284.125
147.482
87.9742
72.2177
99.9495
101.902
98.4841
97.5047
82.2053
139.838
174.255
151.2
129.399
112.96
102.246
5103.32
2012.29
1376.15
1366.61
1022.34
753.635
395.216
209.643
149.384
134.357
128.251
117.484
107.314
100.095
156.714
136.555
121.887
109.246
100.641
95.2271
800.36
913.379
1407.72
1556.37
1150.96
855.868
610.058
478.017
363.831
289.352
234.866
199.913
173.679
152.27
132.363
115.207
103.01
93.3572
87.2287
82.3372
10086.2
5576.02
2379.91
1711.05
1297.54
1140.97
826.592
585.072
437.182
365.561
292.583
233.383
187.806
151.3
124.322
105.476
93.9468
85.0458
80.3095
74.5271
824.415
1858.99
1434.19
1398.69
1468.4
1476.63
1278.09
823.465
536.665
412.216
336.13
278.892
225.353
177.99
141.745
114.578
97.9849
86.909
81.6123
75.2318
1847.95
2273.49
1632.64
1417.07
1283.47
1035.05
716.976
512.983
390.16
320.617
265.015
220.658
186.208
160.692
139.118
119.112
103.748
92.1958
86.0781
79.2605
6716.12
5176.24
2788.88
1527.97
913.631
596.091
416.911
314.052
248.081
211.307
193.656
182.305
167.108
153.074
140.399
129.229
118.939
109.169
102.868
93.9957
2952.49
2196.88
1965.69
1486.79
1092.8
783.73
550.526
420.247
307.063
218.447
170.101
147.49
134.713
127.763
124.025
122.564
121.639
120.792
120.375
118.171
262.372
634.911
823.96
763.062
624.331
570.488
513.467
446.855
380.89
318.273
258.842
218.755
184.672
144.548
107.686
83.6094
72.4105
65.834
63.811
59.9004
2131.96
2360.57
1654.92
1138.57
967.174
814.21
649.493
503.173
383.63
307.68
260.414
246.379
243.04
234.96
227.255
215.826
208.337
202.992
202.107
202.807
9931.41
5728.7
3841.41
2159.32
1586.9
1149.11
859.098
788.03
654.144
625.763
593.223
598.254
592.653
571.808
549.094
524.722
506.122
480.278
454.724
430.72
11233.4
6529.93
4443.67
3191.85
2470.58
2048.82
1437.22
1107.89
833.687
760.539
710.379
710.204
702.216
691.41
675.989
654.165
633.4
598.221
559.535
494.17
927.026
1799.54
2254.45
2314.74
2211.93
2032.32
1718.57
1495.88
1197.91
1036.18
906.216
867.808
837.084
817.977
781.911
738.616
701.029
649.204
603.02
501.057
9510.97
5198.86
2898.69
2552.15
2250.23
2036.58
1698.41
1563.25
1354.69
1252.54
1141.36
1087.9
1029.06
978.571
912.122
840.249
789.97
739.58
695.328
571.458
4315.91
4710.3
4218.63
3792.91
2758.75
2022.72
1530.68
1400.54
1250.64
1207.25
1143.63
1108.6
1058.28
1006.77
929.61
850.033
796.894
764.184
737.922
645.605
11889.5
7491.77
6206.35
3850.57
2692.96
2114.9
1648.42
1455.35
1315.19
1226.19
1136.5
1067.95
975.668
839.469
692.896
605.531
587.135
585.975
587.314
570.605
6714.98
9889.03
7279.54
3888.5
2567.52
1994.49
1520.14
1234.28
1125.77
1014.52
938.941
846.495
749.365
598.048
480.992
459.757
460.491
461.766
470.123
472.161
7239.01
10045.1
6961.33
3581.33
2442.46
1816.2
1487.14
1223.65
979.22
841.069
743.132
648.026
556.321
443.096
342.592
343.115
344.154
351.667
366.291
368.812
6488.01
3990.85
2508.87
1683.07
1595.05
1435.6
1394.95
1082.89
819.544
635.789
511.797
415.145
345.564
298.342
281.675
299.967
288.066
291.429
305.106
319.77
12533.8
3727.82
1886
1103.07
1069.96
901.841
835.234
758.216
638.827
537.388
432.234
356.982
308.235
288.948
343.624
394.939
348.603
308.113
295.655
297.89
11361.4
5579.69
2690.25
2105.73
1042.27
934.421
826.313
673.028
571.296
556.728
523.354
492.896
454.751
419.466
412.276
388.843
354.178
322.835
304.56
299.59
13872.6
5921.52
3604.29
3093.07
1950.03
1675.28
1182.6
785.813
645.288
569.348
517.428
463.13
416.042
378.439
374.637
343.702
317.922
296.624
283.431
278.176
4596.19
4435.79
3422.14
3476.82
2423.51
1989.07
1407.34
1153.38
908.432
743.494
619.446
529.07
459.864
403.413
356.43
317.216
288.468
266.228
252.741
243.728
47397.5
12536.8
4597.23
4260.26
2953.84
2483.56
1589.89
1315.59
1054.24
904.619
746.353
610.176
490.337
396.497
334.019
289.739
261.723
241.343
229.459
218.554
5705.33
5198.49
3780.63
4126.77
3955.14
3727.97
2457.24
1589.88
1178.24
1028.81
862.89
727.801
573.527
453.169
374.482
311.273
273.53
249.308
236.164
222.111
14577.5
6846.48
3789.04
3655.9
2824.52
2127.69
1364.35
1068.51
830.831
748.439
636.678
554.592
481.083
429.231
380.825
333.281
294.834
267.06
251.314
234.92
5092.01
5824.66
5119.96
3395.16
2131.48
1373.24
820.204
597.016
489.58
491.975
488.532
476.149
442.215
411.881
384.345
360.883
337.968
315.252
298.57
278.94
3526.78
4254.31
4054.26
3214.13
2458.89
1858.1
1224.72
898.584
594.194
470.32
411.725
396.507
374.174
356.001
345.853
344.092
342.222
339.606
338.101
334.32
214.032
563.172
1463.98
1397.45
1299.22
1185.2
954.55
716.618
552.273
454.835
387.3
317.015
242.656
183.715
152.29
135.996
128.636
124.567
124.698
125.12
3034.17
2807.26
2346.63
1628.54
1191.62
892.28
669.593
507.299
413.274
359.559
332.59
316.941
311.562
300.065
292.467
280.53
276.822
273.365
275.377
274.518
13843.1
7306.47
4713.87
2673.95
1994.73
1478.11
1212.45
1118.84
989.668
954.8
900.66
884.22
847.657
819.979
790.289
764.777
744.863
720.52
697.57
672.425
11085.4
8498.94
6062.4
4100.03
3188.63
2591.63
1968.08
1645.49
1354.76
1247.25
1145.62
1100
1043.06
999.358
951.98
907.229
863.916
810.695
765.194
695.551
1071.7
5286.2
5193.97
3986.08
3160.9
2715.38
2253.12
1951.01
1634.6
1475.8
1337.8
1265.68
1190.35
1121.3
1045.56
972.763
907.864
831.41
769.699
661.206
4978.88
6868.61
5142.7
4168.03
3223.69
2771.83
2295.33
2074.84
1815.75
1678.73
1538.42
1446.61
1350.92
1257.24
1160.53
1069.53
996.39
912.515
842.361
690.064
4682.85
6881.73
6123.51
5040.97
3584.26
2723.08
2158.92
1965.72
1759.07
1658.27
1545.25
1461.59
1369.17
1274.76
1178.63
1090.13
1025.68
956.273
897.604
754.104
18540.7
10575.7
7644.07
4851.86
3535.03
2816.6
2242.02
1969.91
1757.61
1610.24
1468.37
1350.41
1211.97
1069.84
958.165
887.773
853.102
812.768
787.173
720.654
19729.8
13070
8785.93
5085.45
3468.83
2674.74
2192.38
1768.51
1563.48
1367.3
1240.01
1096.45
959.872
798.772
690.052
666.312
658.729
648.189
644.314
625.188
4885.59
9512.16
8470.04
4875.44
3266.3
2539.08
2160.96
1663.07
1316.21
1098.31
950.388
815.631
692.487
574.455
500.192
487.101
495.719
512.183
522.45
519.572
11251.4
5533.76
4039.08
2669.89
2228.06
2030.53
1907.8
1411.25
1051.35
818.858
662.196
541.076
458.772
409.465
385.876
416.082
425.487
449.265
468.17
478.122
8024.74
4833.24
2724.37
1774.74
1781.2
1386.79
1293.91
1075.91
861.392
725.096
435.068
348.987
362.182
397.248
465.008
495.094
464.401
455.162
456.604
467.934
5573.9
6223.21
3566.76
2226.45
1749.77
1460.81
1329.34
1044.59
878.177
788.86
711.694
651.909
597.833
562.788
535.315
497.914
470.864
454.011
448.751
453.177
11565.9
8902.46
5838.12
3666.23
2491.51
2103.36
1619.15
1101.27
926.115
801.186
718.53
644.872
581.124
528.132
493.788
458.237
432.956
415.122
407.449
408.209
11889.7
7434.1
5059.01
4252.64
2942.01
2411.93
1736.55
1391.8
1112.51
921.402
784.945
680.379
598.893
527.9
471.474
425.957
394.596
372.804
360.765
356.512
44011.6
9322.35
6196.23
4628.98
3392.43
2852.01
1967.35
1637.41
1277.45
1075.8
885.057
739.072
618.669
521.681
451.603
400.846
367.266
344.71
331.413
323.113
11477.4
7565.71
5552.13
5204.96
4286.41
3540.41
2328.97
1791.18
1377.38
1175.88
977.43
824.312
680.296
569.277
487.69
425.023
384.806
357.228
340.434
327.25
10490.3
6413.07
5066.67
4377.56
3064.68
2286.6
1564.82
1317.99
1083.21
974.322
829.962
726.432
631.906
561.882
502.726
453.198
413.486
384.221
365.261
349.649
4965.41
6364.18
5624.18
4208
2750.71
1867.73
1212.19
1022.52
876.377
818.98
724.607
656.085
595.339
557.475
525.935
500.664
476.346
454.05
435.572
416.351
3294.57
4782.78
4621.24
4142.74
3298.69
2431.13
1547.39
1128.07
824.662
708.096
604.47
542.754
499.102
483.851
481.792
484.311
486.778
488.142
489.848
489.722
1857.53
1312.34
1797.8
1816.06
1696.83
1401.05
1020.9
718.53
527.433
420.675
350.168
292.829
247.086
218.314
201.649
186.824
175.141
164.193
159.846
154.922
1034.54
2516.58
2513.42
1765.44
1144.02
790.206
611.494
494.958
445.11
394.687
377.138
352.489
345.831
330.685
323.507
311.856
311.055
307.816
312.122
305.901
13828.6
9751.6
5629.88
2982.91
2319.41
1718.65
1603.57
1442.96
1343.29
1258.83
1197.02
1148.45
1103.67
1065.8
1035.76
1010.16
991.988
969.217
951.388
931.068
12649.6
11938
8408.01
4746.48
3870.91
2931.62
2431.82
2032.84
1793.43
1631.06
1518.37
1422.68
1345.14
1270.64
1208.98
1145.86
1092.41
1027.84
980.365
908.363
2891.31
10824
9113.31
5198.96
4046.37
3190.15
2730.52
2293.22
2023.53
1829.69
1700.09
1579.87
1480.04
1372.01
1278.06
1183.56
1101.85
1006.44
933.829
825.742
9692.05
10007.2
7037.33
5019.21
4046.86
3257.78
2810.51
2450.35
2209.92
2015.27
1873.34
1734.41
1618.85
1492.37
1384.49
1275.23
1180.43
1063.76
966.38
817.281
7878.78
11010.3
8447.53
5937.11
4373.4
3212.34
2707.11
2394.88
2173.46
1996.5
1862.58
1731.38
1620.8
1503.98
1407.79
1309.61
1227.85
1118.98
1024.75
868.182
9106.73
12064.4
9525.47
5511.84
4318.7
3275.08
2707.14
2337.73
2094.25
1890.05
1718.49
1564.27
1417.97
1294.82
1210.53
1141.44
1090.51
1016.97
964.06
868.122
19815.7
13169.4
9715.92
5649.39
4231.66
3162
2640.83
2120.89
1858.4
1611.38
1445.5
1269.7
1125.33
994.425
910.504
882.812
868.503
841.017
824.106
783.997
14442.2
10984.8
9494.66
5619.97
3913.52
3050.45
2591.66
1912.67
1524.78
1258.85
1080.87
927.032
808.192
722.939
671.655
671.425
685.957
698.618
701.291
691.902
12271.1
7577.3
5199.12
3497.53
2669.22
2422.3
2205.18
1590.11
1188.96
934.185
757.475
622.872
550.951
528.948
531.712
591.843
619.331
648.209
663.006
667.628
9266.69
5795.07
3404.47
2529.54
2166.4
1728.27
1602.8
1289.13
1027.99
862.251
628.859
505.189
496.338
541.152
606.663
639.343
637.754
646.506
659.513
675.763
21697.1
6480.99
3641.28
2598.48
2269.89
1870
1675.18
1286.78
1081.55
950.585
847.319
770.218
719.574
690.335
662.274
637.986
629.132
629.256
633.053
647.705
17446.4
9190.76
6029.08
3795.39
3026.27
2392.47
1861.11
1316.56
1135.38
983.774
889.674
801.755
729.284
666.805
630.502
597.44
578.872
568.265
567.874
574.455
18475.6
10878.2
6654.26
4506.92
3422.55
2579.92
1946.15
1562.38
1297
1087.75
952.419
830.8
745.23
663.888
605.102
557.577
528.656
509.337
502.087
503.624
24675.4
12282.3
7340
4734.77
3751.17
2853.67
2212.54
1809.1
1471.03
1223.76
1025.99
865.043
748.651
650.823
583.106
530.125
496.626
474.82
463.346
460.548
13427.1
9078.77
6756.05
5165.1
4194.88
3126.48
2347.87
1892.32
1565.72
1313.64
1107.44
932.448
799.847
696.137
620.339
560.111
520.808
492.311
475.436
467.026
9063.51
6764.51
6137.9
4443.02
3289.97
2344.47
1842.18
1564.72
1348.64
1166.16
1007.29
883.406
789.937
713.386
652.897
600.329
560.293
530.174
510.93
499.519
3801.92
6135.31
6697.21
4986.62
3319.75
2202.12
1648.2
1415.86
1234.19
1080.64
945.932
852.352
789.534
749.211
718.529
689.001
661.994
635.253
613.556
595.794
4741.2
5192.65
5849.46
5090.66
4141.97
2794.43
1798.14
1323.11
1040.17
895.897
777.553
710.85
675.542
670.55
677.042
687.784
693.788
695.122
696.429
694.592
1216.88
2196.89
2232.37
2199.31
1991.82
1454.29
961.318
638.173
466.416
374.098
318.739
280.031
258.352
240.557
227.329
212.6
202.539
191.927
187.825
179.255
894.873
2521.05
2753.79
2060.13
1081.39
696.64
556.747
479.948
442.079
386.884
368.736
337.542
329.606
310.588
304.384
293.168
293.753
288.978
294.161
274.596
8326.62
9705.23
7083
3298.54
2968.07
1989.86
2241.54
1756.89
1798.86
1536.94
1539.49
1403.91
1391.04
1313.47
1303.33
1263.85
1255.65
1229.98
1222.42
1209.69
10510.8
14757.1
10852.5
5101.74
4799.2
3158.35
3031
2320.14
2254.89
1933.04
1883.47
1692.21
1640.24
1513.23
1467.3
1376.67
1331.1
1249.6
1207.9
1135.42
22292
19004.3
14042.8
6178.67
5265.14
3582.04
3401.85
2596.79
2479.04
2124.56
2052.65
1834.68
1751.08
1587.56
1504.4
1380.82
1300.7
1182.65
1113.13
1009.76
50685.8
12713.2
9550.7
5080.62
5056.82
3598.7
3418.41
2747.27
2621.31
2282.35
2187.88
1963.52
1865.35
1695.82
1599.71
1461.71
1360.41
1207.91
1106.66
973.961
39086.8
15717.6
10895.8
6290.41
5455.81
3517.33
3354.84
2747.13
2584.11
2267.28
2154.68
1953.36
1853.46
1713.58
1629.61
1510.06
1418.16
1265.81
1156.9
1013.87
18309.4
13959.7
11338.7
5908.41
5461.51
3613.85
3159.88
2675.68
2412.54
2126.19
1952.41
1754.4
1635.38
1521.69
1460.38
1377.71
1319.01
1211.58
1141.34
1037.61
18390.2
13099.5
10923.9
6072.97
5139.02
3651.54
2994.38
2422.82
2118.3
1839.37
1654.27
1467.28
1347.26
1253.6
1169.34
1125.81
1099.58
1050.84
1020.61
967.879
12180.9
11867.9
10740.2
5981.26
4553.39
3548.01
2963.57
2121.65
1734.14
1438.86
1257.87
1109.8
1031.38
984.697
941.902
917.572
928.894
923.432
918.041
898.087
10594.1
9431.68
6087.74
4624.56
3060.37
2773.67
2429.58
1766.45
1366.13
1083.71
893.282
773.758
773.8
798.481
809.658
848.965
872.66
889.282
897.317
895.747
12827.3
8272.93
4331.39
3965.9
2537.56
2086.71
1855.56
1521.34
1252.19
1025.98
845.409
716.474
747.763
827.699
864.002
869.427
879.408
894.918
909.744
921.342
11675.5
9047.01
4356.61
3953.69
2701.62
2280.58
1970.47
1526.43
1319.12
1155.16
1038.98
965.353
957.619
945.282
903.789
858.713
859.383
861.624
872.376
889.231
11079.1
10552.7
6821.89
4439.76
3747.91
2831.95
2038.75
1533.21
1363.8
1194.37
1117.84
1016.4
958.467
889.811
839.21
804.925
790.182
785.113
787.906
798.934
70937.7
25039
9078.32
5124.85
4102.56
2822.38
2155.94
1761
1498.81
1269.03
1152.01
1009.74
939.86
850.324
799.576
750.794
731.43
715.375
714.472
721.159
27914.4
16998
9629.22
5295.27
4412.03
2910.05
2549.22
1920.03
1688.67
1356.4
1196.07
1015.94
924.935
826.982
771.563
719.041
695.727
676.638
671.752
675.031
41979.9
11621.4
8241.2
5146.07
4619.46
2895.89
2589.4
1952.37
1813.71
1435.68
1284.09
1069.27
980.524
869.536
817.281
757.03
730.854
702.141
691.126
689.524
16686.3
9377.64
7644.24
4878.85
3845.28
2399.15
2261.09
1734.96
1652.55
1326.59
1226.57
1057.32
999.473
904.623
859.242
800.599
774.689
744.705
732.26
727.471
7145.68
8938.73
9110.2
5375.07
4191.48
2302.62
2193.29
1669.57
1613.99
1294.55
1217.56
1076.22
1051.43
998.426
985.575
943.654
920.038
883.064
863.443
849.453
6746.44
4993.82
7036.68
5589.25
5105.09
2683.42
2088
1412.77
1341.67
1100.42
1066.01
979.683
987.024
989.587
1017.41
1019.27
1024.75
1011.55
1007.39
992.784
155.999
974.404
1761.24
2166.87
2027.99
1329.61
771.692
501.938
381.8
314.958
281.308
260.197
245.627
230.308
218.8
206.02
198.884
187.351
181.718
168.907
698.264
726.887
481.039
906.779
774.887
817.166
576.301
567.294
428.778
352.669
734.732
629.795
512.852
416.912
485.98
763.428
700.274
826.19
590.068
884.95
806.485
361.42
682.623
635.415
531.768
448.261
784.051
723.351
229.785
299.045
221.414
1171.09
1095.67
1252.76
1103.54
194.535
217.705
189.969
1053.06
896.212
1035.25
838.275
170.049
177.385
151.474
852.76
764.208
781.769
648.351
161.866
144.005
121.28
741.327
679.67
613.09
525.512
142.453
115.48
99.2491
659.002
598.555
500.924
431.255
125.458
93.6499
77.8811
577.833
521.165
409.515
349.385
104.981
73.6136
60.1862
499.605
431.348
331.437
282.026
66.1282
56.1509
45.2463
398.24
314.733
268.869
250.306
202.959
153.772
133.969
1186.59
1019.24
783.177
721.634
174.994
137.104
137.773
952.279
777.639
695.947
614.832
139.248
134.065
119.027
727.227
599.902
586.609
505.124
109.239
112.174
96.2382
564.78
477.765
479.823
407.395
86.481
90.8097
77.33
452.946
385.087
384.463
327.27
71.1931
74.2823
71.0977
365.649
317.062
312.522
280.426
59.6737
70.7898
66.9621
303.304
268.794
272.714
251.884
49.4003
64.3272
52.7133
260.242
248.395
245.674
241.043
117.062
122.805
87.2205
673.821
665.096
601.836
568.325
129.118
82.0255
83.7612
647.112
583.342
546.151
494.132
117.122
90.9729
103.073
560.894
494.953
487.968
478.084
97.3102
105.335
101.31
474.119
408.724
473.846
445.562
83.0355
97.8776
93.1889
389.048
338.931
436.215
414.523
74.5449
93.0669
90.9814
324.719
289.813
408.374
384.599
68.987
88.1608
74.0829
281.373
261.249
374.597
345.886
50.9437
72.1746
61.5758
256.64
255.657
342.411
352.023
92.963
293.315
145.307
631.548
569.415
768.669
645.195
70.9108
126.321
89.1103
544.004
469.971
595.689
515.063
93.3048
84.5004
75.5669
464.423
472.913
501.977
486.353
103.911
76.2268
86.1125
475.936
462.96
486.078
473.508
98.1883
87.9748
86.3502
455.746
438.487
464.619
432.912
98.8826
83.6458
76.5853
433.936
412.696
419.278
382.653
85.7214
74.7016
69.1715
403.432
373.391
369.868
339.284
66.3341
67.3955
51.1928
366.989
366.053
329.999
313.943
1293.03
1488.6
1259.49
2014.8
1691.71
1932.39
1570.78
1030.04
1174.44
943.393
1576.72
1314.97
1452.93
1155.88
869.68
879.427
727.915
1249.03
1089.21
1077.29
890.931
767.466
688.31
591.261
1047.72
943.545
842.881
725.594
671.749
563.824
486.496
910.647
814.718
691.918
599.266
581.214
462.706
397.092
783.967
696.76
571.692
497.586
476.701
377.501
324.919
665.62
573.771
476.182
422.534
355.786
311.452
284.346
543.607
482.972
409.657
380.748
1163.73
946.307
844.617
1799.42
1459.1
1300.73
1119.57
877.365
807.933
700.37
1349.55
1080.28
1056.96
888.684
674.9
665.966
570.793
1007.4
829.659
840.21
715.763
539.492
543.488
455.087
783.238
667.346
687.161
511.219
436.632
427.207
361.02
633.05
542.372
465.699
379.612
360.842
343.949
305.476
517.039
453.242
359.463
324.036
307.677
296.703
277.376
436.029
394.962
322.542
331.61
279.11
272.764
268.681
385.135
365.048
335.808
354.042
787.359
776.725
701.839
1190.37
1065.82
1155.87
1014.03
667.449
672.641
596.057
1010.85
857.785
965.271
835.273
560.036
581.388
554.676
814.953
707.44
803.365
736.224
456.713
546.478
511.148
683.726
515.177
717.645
660.849
373.387
500.313
473.17
472.764
393.896
644.833
602.349
317.32
464.814
435.776
374.404
349.292
588.765
549.716
291.044
425.192
398.944
349.408
362.57
538.957
517.393
286.888
395.731
396.842
369.559
385.728
514.072
508.094
707.883
1048.32
814.215
1220.95
1024.04
1443.54
1113.76
584.232
737.932
629.287
969.208
844.412
1010.27
879.547
559.048
609.417
581.958
816.221
758.229
847.103
783.582
532.515
577.367
550.275
741.836
688.594
766.664
709.352
499.957
537.253
499.539
673.554
632.836
690.206
640.007
465.214
484.957
445.15
619.955
579.886
623.398
575.256
425.531
431.012
397.773
568.049
539.878
559.662
520.142
408.769
387.132
358.732
533.225
514.684
507.803
474.096
1788.69
2045.27
1642.08
2491.83
2006.44
2299.61
1802.04
1386.71
1516.48
1205.03
1859.03
1558.14
1659.32
1319.91
1143.25
1123.35
929.521
1477.66
1273.57
1232.36
1023.28
986.135
879.63
757.352
1221.15
1090.61
969.068
834.038
848.088
722.077
625.663
1048.95
932.469
794.921
690.402
724.395
597.342
522.309
897.614
804
661.244
589.936
601.99
501.132
449.378
774.223
698.137
572.298
533.932
518.376
437.22
407.088
678.968
639.539
525.884
503.585
1527.66
1392.2
1189.11
2139.13
1682.46
1619.05
1357.89
1127.54
1119.83
936.572
1551.46
1238.85
1274.17
1060.03
866.738
884.743
753.969
1156.44
958.241
1001.18
858.885
760.977
776.09
770.561
850.411
729.999
806.515
802.408
589.981
628.074
604.543
688.234
567.632
652.582
629.201
475.914
336.24
322.998
601.699
537.81
400.479
399.455
418.796
327.654
351.725
523.562
495.762
408.898
441.691
388.534
358.576
379.147
490.504
479.362
452.01
478.858
1137.65
1268.66
1095.43
1531.81
1316.09
1532.19
1300.16
907.657
1040.7
897.506
1239.3
1039.44
1229.54
1056.71
747.082
861.929
784.782
985.878
858.928
1013.59
913.126
719.692
653.599
728.129
753.513
686.603
604.226
767.279
571.058
399.974
571.377
348.144
547.747
321.301
594.928
355.318
620.553
579.78
439.034
446.723
705.721
664.348
388.353
569.262
548.742
454.833
486.291
655.962
641.391
413.43
545.202
533.791
496.775
514.938
637.883
622.806
1104.77
1562.85
1182.95
1595.4
1305.39
1807.05
1343.33
909.915
1077.28
944.761
1231.27
1071.96
1240.1
1107.5
808.882
908.169
834.777
1032.95
938.308
1063.55
966.658
728.439
814.246
750.698
910.462
833.811
939.245
863.053
666.179
730.011
677.202
812.832
755.475
840.594
780.973
609.72
659.654
609.817
738.601
694.996
761.791
707.298
569.822
593.57
553.024
684.496
659.43
691.003
647.944
539.589
540.079
502.903
652.097
625.892
634.357
593.18
2063.79
2371.5
1844.73
2867.52
2220.82
2571.05
1973.9
1608.29
1698.25
1353.86
2064.47
1762.43
1820.42
1473.67
1313.13
1265.39
1052.54
1675.15
1443.7
1384.9
1161.48
1124.07
996.903
857.859
1385.57
1246.49
1100.66
951.858
961.825
817.846
712.224
1202.48
1082.71
911.085
810.423
836.054
683.507
616.849
1050.93
979.522
787.533
753.899
739.403
601.85
571.485
960.79
916.608
751.491
748.884
685.744
565.516
544.479
906.721
878.898
748.078
736.943
1724.17
1680.51
1407.08
2370.07
1851.25
1848.17
1561.61
1272.46
1320.46
1100.57
1713.86
1394.38
1474.08
1251.96
987.122
1040.12
892.186
1309.91
1094.52
1186.39
1011.9
798.471
853.72
665.508
1035.58
889.004
961.228
815.947
650.994
606.489
487.83
847.193
743.355
767.412
647.027
562.659
463.827
443.939
719.697
693.662
619.9
606.265
531.819
450.342
485.126
696.604
710.201
623.273
685.59
519.299
496.714
520.857
713.254
712.861
699.937
719.708
1369.32
1614.71
1361.47
1788.16
1536.15
1835.38
1548.2
1083.36
1286.49
1107.25
1453.96
1245.22
1465.55
1281.37
893.899
1062.55
955.386
1184.23
1021.19
1234.44
1104.71
682.443
924.8
841.367
974.547
836.31
1065.68
968.01
526.107
817.536
753.616
791.566
684.254
941.614
874.182
490.714
735.683
696.828
659.785
649.294
858.409
845.195
529.812
690.268
680.171
666.422
726.959
850.073
859.019
556.534
677.15
658.993
740.307
752.361
857.552
835.507
1364.69
1878.42
1389.13
1896.96
1543.25
2066.28
1524.99
1122.01
1288.91
1158
1459.25
1290.93
1436.46
1316.96
980.691
1112.78
1011.31
1249.8
1131.55
1274.66
1163.28
869.443
982.083
903.702
1094.44
1002.87
1130.06
1055.06
787.396
881.084
820.182
979.443
917.925
1035.21
972.919
728.745
800.428
745.37
902.97
882.958
952.128
902.966
697.418
729.332
686.49
881.982
872.788
890.087
850.854
661.477
672.593
628.445
866.733
835.89
836.253
791.216
2277.7
2642.8
2026.14
3348.59
2585.89
2997.11
2342.96
1822.31
1871.76
1527.94
2429.58
2131.82
2179.74
1833.46
1497.85
1439.77
1212.89
2039.32
1782.48
1743.02
1501.72
1301.43
1150.16
1000.09
1722.23
1585.97
1433.42
1279.72
1139.89
959.976
864.175
1543.71
1425.28
1239.73
1152.83
1047.2
844.574
825.54
1399.83
1354.68
1141.52
1163.51
993.686
827.385
831.365
1344.78
1315.49
1171.66
1179.41
956.121
831.367
818.503
1308.46
1271.33
1179.57
1158.16
1903.34
1909.94
1624.69
2748.46
2221.46
2264.24
1973.61
1450.52
1538.59
1319.2
2079.98
1761.86
1883.23
1655.92
1145.13
1251.69
1065.56
1673.38
1435.28
1580.45
1365.34
934.601
1011.23
867.03
1367.64
1209.75
1299.24
1142.83
793.827
820.461
702.57
1168.84
1076.42
1096.93
980.41
764.18
677.766
680.881
1065.7
1105
965.665
1025.43
794.82
706.787
776.321
1127.37
1149.5
1073.55
1142.32
795.215
789.666
800.885
1152.44
1134.93
1149.84
1132.98
1602.69
1913.89
1618.71
2225.84
1961.26
2301.63
1990
1315.33
1535.03
1352.99
1874.64
1658.74
1896.43
1704.08
1076.89
1305.44
1167.19
1586.93
1380.83
1649.09
1484.28
888.636
1125.03
1023.72
1317.24
1167.48
1433.32
1319.35
739.059
997.251
930.824
1124.05
1014.58
1290.67
1219.56
722.099
917.209
916.303
1000.78
1059.55
1210.45
1245.64
815.494
926.396
939.27
1107.06
1174.95
1267.01
1277.54
832.463
937.453
909.306
1181.58
1161.11
1272.92
1226.66
1611.36
2131.98
1583.03
2369.35
1980.33
2491.99
1933.58
1360.12
1496.68
1379.71
1886.89
1707.41
1836.4
1717.67
1194.85
1339.39
1225.05
1662.7
1511.93
1671.59
1533.85
1062.18
1190.85
1119.94
1466.16
1364.13
1494.03
1430.76
978.779
1101.42
1038.51
1340.31
1275.63
1412.11
1340.26
955.58
1017.76
972.55
1266.44
1286.56
1319.21
1285.41
951.608
961.1
922.86
1293.49
1285.68
1276.37
1236.11
909.623
908.003
861.397
1278.27
1229.75
1220.94
1166.71
717.511
736.408
645.161
725.886
688.031
765.558
672.232
726.326
738.296
656.517
753.669
695.793
771.298
630.725
662.991
581.566
561.166
382.172
639.838
596.62
475.003
789.825
879.295
860.373
860.278
834.274
831.952
816.862
745.712
751.156
817.049
724.998
792.165
698.94
772.237
757.605
780.486
832.945
752.727
802.483
655.438
788.167
694.483
410.67
666.603
663.423
625.451
503.449
730.844
554.858
596.498
507.282
589.275
535
619.608
525.392
492.305
529.731
385.957
330.586
487.33
538.978
287.77
446.975
423.569
361.573
305.87
449.707
423.801
285.608
613.208
712.129
696.762
679.516
675.155
654.227
637.517
576.2
609.67
661.88
566.495
641.032
544.576
599.882
515.076
355.469
607.956
466.419
565.234
313.057
557.426
467.766
322.756
483.131
439.1
442.535
305.328
514.912
665.896
559.54
600.043
390.278
638.875
467.117
624.49
754.884
741.725
741.504
805.798
715.48
782.626
781.79
725.897
663.757
720.252
737.052
688.268
699.536
758.67
762.061
785.077
763.093
840.892
643.098
805.451
803.483
708.582
426.837
669.376
712.97
505.182
665.881
755.624
793.745
845.872
859.877
857.464
821.821
820.121
830.905
763.8
772.203
770.977
831.182
735.78
795.389
800.292
555.498
373.509
511.616
318.316
530.762
316.55
533.866
656.328
642.833
666.129
717.759
623.785
676.931
699.649
638.373
590.224
650.882
665.811
607.184
619.665
682.754
606.838
381.847
489.003
677.828
353.448
633.696
646.783
587.632
351.04
458.948
598.736
344.824
564.461
621.675
688.819
751.291
744.737
762.801
711.309
731.547
720.297
668.7
694.695
676.012
742.764
648.163
712.993
697.876
321.656
428.329
339.052
828.306
855.028
832.381
869.043
300.732
307.153
289.911
812.881
765.509
841.763
796.703
280.363
282.028
275.845
754.847
745.953
766.961
737.971
275.229
269.779
263.034
718.336
687.793
709.638
683.874
253.95
254.069
239.701
665.655
646.125
657.477
622.001
233.047
226.612
214.018
612.533
582.412
588.095
556.754
202.144
203.433
181.961
545.29
510.589
521.456
479.035
138.32
162.786
108.161
425.805
394.633
399.307
352.768
505.49
506.788
473.887
1069.08
1039.42
1095.6
1144.72
580.641
279.096
309.481
523.39
525.897
534.508
257.905
605.974
212.898
225.349
545.569
539.188
618.627
220.731
479.61
178.313
184.016
474.724
460.534
505.098
174.864
422.155
167.487
163.524
436.286
424.687
435.797
159.572
367.409
153.519
144.778
388.147
376.84
380.7
139.372
318.302
134.848
125.389
344.613
333.535
330.511
120.651
271.103
117.572
107.263
300.893
289.919
282.932
102.484
197.194
93.2013
87.8549
242.268
225.804
225.688
74.128
78.4988
93.2925
76.3502
237.038
257.299
220.827
228.26
387.98
281.965
281.327
943.26
1044.53
699.442
782.34
520.721
218.062
201.507
539.893
597.497
469.697
178.867
471.876
194.635
171.374
561.284
535.595
487.747
169.543
383.976
155.098
150.834
444.324
417.108
406.08
143.49
301.198
123.313
120.572
348.134
327.366
320.328
113.215
234.342
97.2343
93.4629
274.97
259.427
249.794
87.6611
190.982
77.4713
74.2218
218.421
207.132
198.321
71.7923
171.002
65.0443
67.2718
181.017
172.805
176.26
65.442
154.493
57.1489
60.9099
153.18
150.634
156.785
60.4817
77.513
102.961
86.3594
213.037
223.138
217.289
239.809
213.527
230.566
205.151
541.665
570.857
512.817
522.579
274.763
114.462
118.328
270.013
312.214
242.816
102.018
323.836
127.365
107.063
352.465
355.748
316.047
113.386
314.359
125.122
118.854
339.929
329.691
320.506
118.099
280.408
107.088
111.725
292.846
279.458
291.623
107.689
240.629
89.7334
94.9776
243.789
233.783
248.82
91.9167
210.895
78.0625
83.6753
206.855
199.522
217.778
81.5845
187.711
72.3514
75.5224
183.844
179.506
192.474
74.3327
169.931
63.4119
67.8957
162.504
158.018
172.091
66.3594
97.5138
133.602
114.678
256.385
285.257
305.908
332.953
253.321
418.855
368.319
532.093
571.161
654.445
633.839
262.454
116.561
173.586
251.855
249.557
265.52
130.863
219.147
80.0095
91.2283
232.196
212.278
230.861
85.2308
196.589
77.3314
68.109
201.211
222.053
190.411
68.792
270.188
103.837
88.0419
272.116
277.98
253.678
97.1446
279.13
99.4629
102.715
271.128
266.854
280.501
101.834
270.795
99.3862
100.154
263.324
262.822
273.559
99.7675
249.055
94.3839
96.7252
253.767
244.448
256.135
94.6621
221.62
80.852
85.6217
214.073
212.474
224.632
83.8214
106.983
112.932
92.1454
310.83
320.443
263.878
268.297
281.602
408.269
289.341
668.39
621.36
706.001
674.5
170.61
252.055
208.945
506.576
463.547
561.968
503.978
138.773
183.451
149.958
421.191
399.214
454.188
407.845
132.385
140.429
126.487
386.435
379.226
361.047
338.972
123.794
121.412
112.955
359.819
342.657
312.763
301.339
112.724
112.957
109.762
320.172
305.236