/*--------------------------------*- C++ -*----------------------------------*\
  =========                 |
  \\      /  F ield         | OpenFOAM: The Open Source CFD Toolbox
   \\    /   O peration     | Website:  https://openfoam.org
    \\  /    A nd           | Version:  10
     \\/     M anipulation  |
\*---------------------------------------------------------------------------*/
FoamFile
{
    format      ascii;
    class       volScalarField;
    location    "7.8";
    object      nut;
}
// * * * * * * * * * * * * * * * * * * * * * * * * * * * * * * * * * * * * * //

dimensions      [0 2 -1 0 0 0 0];

internalField   nonuniform List<scalar> 
12920
(
2.33188
8.00366
3.3778
3.01069
1.59526
1.80183
1.53167
1.53826
1.20228
0.995128
0.753501
0.655381
0.550562
0.501848
0.445697
0.409849
0.383049
0.36373
0.358521
0.365074
8.28268
10.6811
8.6917
6.97925
3.52254
3.48342
1.88225
1.82641
1.39602
1.33328
1.19669
1.24769
1.21945
1.22028
1.16386
1.11387
1.04672
0.978167
0.92177
0.912618
8.62808
10.2828
7.1076
8.2839
4.9427
4.67324
2.9286
2.39045
1.70316
1.55492
1.39836
1.42887
1.38527
1.41573
1.38139
1.37089
1.32845
1.26713
1.20105
1.11489
2.63883
3.67899
3.27595
5.10087
4.03386
4.80606
3.71268
3.47569
2.55474
2.14704
1.7447
1.64493
1.58073
1.61621
1.60488
1.60434
1.55432
1.46003
1.36841
1.20891
11.1122
11.4221
4.52527
6.59352
4.23779
4.98098
3.54134
3.51444
2.78301
2.56027
2.19451
2.07708
1.93485
1.89048
1.79611
1.72139
1.62463
1.54447
1.4711
1.34341
3.98273
6.98876
5.5285
8.813
5.32161
4.9782
3.10783
3.02366
2.56657
2.51676
2.3242
2.27193
2.15462
2.06487
1.88353
1.70384
1.54709
1.50061
1.47159
1.44432
5.11106
11.2076
8.84931
9.22647
5.11504
5.40582
3.59635
3.41346
2.9564
2.88406
2.63289
2.53942
2.29168
1.95476
1.55395
1.34557
1.29322
1.32895
1.37962
1.45842
4.02534
15.1925
11.0439
8.66116
5.30991
6.29285
1.45728
1.23981
1.0892
1.00654
0.909765
0.803853
0.705859
0.561148
1.38929
1.3319
1.31785
1.32395
1.35674
1.40913
4.31191
13.5364
10.7209
8.10709
5.74511
2.48386
0.625676
0.397869
0.344616
0.316026
0.283805
0.241789
0.204832
0.165435
0.370114
1.25311
1.12758
1.06795
1.06579
1.13254
11.4275
8.28662
6.59537
5.67411
5.29058
2.21433
0.659844
0.419946
0.336065
0.287917
0.228375
0.182666
0.154321
0.128146
0.411349
1.07381
0.89676
0.808403
0.806543
0.892299
15.1901
9.66958
6.97965
5.49674
3.72091
1.70377
0.455938
0.29637
0.286467
0.258344
0.209255
0.170328
0.144917
0.121645
0.410254
1.34792
1.11255
0.919282
0.79369
0.79604
6.72076
12.4874
6.87059
7.50444
5.02328
1.89241
0.397226
0.1908
0.140907
0.20053
0.193542
0.183592
0.172887
0.13997
0.487916
1.40441
1.20101
1.01796
0.892049
0.865173
8.00689
10.2268
5.95456
8.27191
6.06937
6.16632
1.57122
1.2104
0.767235
0.659158
0.575629
0.533126
0.478259
0.442779
1.43161
1.21743
1.06129
0.932814
0.863541
0.885023
1.9944
5.17682
5.16584
8.82939
6.45805
6.57005
4.88712
4.90947
3.23259
2.85003
2.16056
1.89046
1.58426
1.40265
1.19793
1.04894
0.927587
0.841548
0.794752
0.822143
16.2623
17.0473
5.8998
9.2972
5.34942
6.8136
4.30305
3.96502
3.03411
2.79893
2.18837
1.82073
1.5031
1.32391
1.13295
1.01305
0.906599
0.822197
0.781931
0.792106
2.19829
7.28628
4.79972
6.9474
5.34832
6.29933
5.13249
4.30265
2.95579
2.5419
2.02878
1.77073
1.48683
1.33112
1.11772
0.978964
0.861253
0.789084
0.757788
0.777336
3.76848
10.6351
8.21608
8.43071
6.94339
7.22086
4.24261
3.55635
2.38738
2.07612
1.68141
1.54766
1.38819
1.30937
1.14246
1.01641
0.900347
0.829504
0.796579
0.827942
12.4216
16.0076
11.8425
8.78957
5.35646
5.01271
2.54866
2.16191
1.51918
1.45206
1.35795
1.47381
1.35935
1.28362
1.14076
1.05157
0.963326
0.900576
0.870852
0.895599
3.60387
9.24067
9.94835
8.63977
6.14242
6.07236
3.18252
2.71825
1.81526
1.48055
1.19142
1.16588
1.06518
1.02632
0.963325
0.943302
0.919526
0.913669
0.920286
0.997664
0.507904
3.17846
3.52972
6.18968
2.98526
3.53701
2.50908
2.3028
1.77163
1.4482
1.04746
0.842036
0.690477
0.568904
0.476229
0.412047
0.375697
0.351373
0.346725
0.349192
10.7873
21.183
16.8578
18.9646
10.6389
11.9314
7.93035
6.29232
4.45185
3.56189
3.24939
3.67408
3.79175
3.84233
3.66156
3.4768
3.29837
3.15981
3.12615
3.2166
32.9172
45.6118
42.339
33.1374
27.8744
22.7618
18.1437
17.2754
15.0195
15.3762
15.6572
17.1099
17.7466
17.6759
17.0582
16.36
15.7424
14.94
14.1907
13.6623
37.5273
39.3587
39.2546
35.1358
33.1555
30.4527
22.9886
19.8095
16.8776
17.3675
17.5198
18.7186
19.0011
19.2324
18.99
18.649
18.24
17.5694
16.6263
15.3948
1.71943
14.8748
20.3773
23.8089
29.4448
31.0241
29.223
27.7804
24.3754
22.7572
20.9812
21.0723
20.9057
21.1654
20.909
20.384
19.6675
18.6764
17.5384
15.325
22.7779
34.843
22.2717
23.3996
27.6153
30.8638
29.5394
29.2124
27.2842
26.5077
25.0533
24.513
23.6315
23.0747
22.1733
21.1594
20.3864
19.6325
18.6241
16.1022
19.0079
33.0148
35.0532
38.4663
35.7119
32.062
28.0378
27.6528
26.1499
26.1835
25.4437
24.9774
24.1555
23.2769
21.7098
20.1397
19.4485
19.5171
19.1057
17.3764
28.7651
42.3361
51.638
41.9927
36.2923
32.9988
29.9413
28.6587
27.5911
26.6714
25.4662
24.3665
22.9405
20.2839
17.2028
16.0107
16.9155
17.9229
18.1338
17.4487
22.4461
51.1252
52.0392
42.2494
36.4678
33.5612
24.9831
24.0627
23.5572
22.6275
21.4015
19.8959
17.9754
15.0332
14.7845
15.6774
16.5236
16.6674
16.8517
16.3407
18.5291
40.5434
55.7249
41.7335
36.5759
27.7847
23.1604
23.1798
21.2957
20.0359
18.4024
16.6017
14.5885
11.8773
11.4003
14.1941
14.1018
14.24
14.6528
14.6439
20.5537
34.0083
30.9331
24.8426
28.6194
26.3007
25.0868
23.1142
19.847
17.8268
15.6583
13.5726
12.1583
11.1637
11.189
11.3624
11.0225
11.708
12.6488
13.3607
33.4149
30.5371
21.7536
14.3589
17.4291
17.3746
16.6417
17.3987
17.3441
16.5627
13.3178
10.9228
9.63338
9.39736
11.691
13.3152
11.8939
11.1736
11.7426
12.3198
21.2029
33.6458
21.591
19.4335
13.3388
14.3588
13.6081
12.5929
12.3058
14.1751
14.1189
13.9731
13.1441
12.0483
12.5311
14.2357
13.4176
12.6011
12.4746
12.6409
29.3666
32.6811
31.4722
36.2706
27.2347
26.6529
18.2826
15.2416
14.8957
14.3362
13.8438
13.3799
13.0123
12.6592
14.2385
13.5642
12.9376
12.4738
12.4342
12.5793
11.7814
21.0898
28.7305
39.9216
33.1451
28.927
24.3966
23.0742
21.2206
19.2054
17.3459
15.607
14.4333
13.725
13.1876
12.7054
12.3245
12.0044
11.9244
11.9381
64.2376
35.3918
33.7717
37.9449
28.9487
24.9443
19.0762
20.994
21.1731
19.7991
17.3795
15.1976
13.6911
12.8605
12.592
12.3186
12.1349
11.8296
11.6112
11.4009
26.0723
29.5659
31.0497
37.5504
37.6565
35.1068
24.1219
20.1504
19.7871
19.5214
17.1174
15.2103
13.2756
12.5167
12.2655
11.8323
11.6983
11.6725
11.6515
11.4651
37.3924
33.6175
29.0846
35.2763
31.9815
28.1619
20.05
17.5421
14.7578
14.2394
13.0833
13.0977
13.2144
13.6026
13.3147
12.7665
12.3659
12.2703
12.277
12.0592
10.7038
32.003
38.8
37.1811
29.7474
21.4143
13.4764
10.3791
9.30861
10.6866
12.3643
13.9634
14.4571
14.4529
14.2204
14.0266
13.813
13.6034
13.3995
13.1478
12.0059
22.838
37.9013
34.74
31.3154
28.0298
20.5809
15.6469
10.9227
10.1441
10.6724
11.879
12.4626
12.7406
13.0359
13.3668
13.5651
13.6867
13.728
13.7517
0.897573
2.70557
15.7696
20.9674
19.1947
19.3115
14.2358
11.3627
7.88203
6.36458
4.74355
3.66521
2.76799
2.25396
2.15158
2.13535
2.06428
2.01171
2.02569
2.19392
8.53212
29.0775
23.8164
22.6749
13.9152
14.0726
9.02067
8.16067
6.64806
6.49515
5.87856
5.86762
5.68944
5.60517
5.33839
5.10908
4.93111
4.78556
4.78537
4.88509
56.2134
55.8188
53.4329
44.548
37.7806
32.7818
29.5509
29.036
27.6759
27.9159
27.794
28.1861
27.8041
27.1963
26.3731
25.5382
24.8421
23.9917
23.2687
22.4944
34.2971
55.0765
53.8692
49.9898
47.9745
44.8282
38.6366
35.8793
33.0689
32.8974
32.1722
32.1151
31.3836
30.6914
29.7595
28.7882
27.7417
26.5231
25.3972
24.0379
2.97527
39.4412
41.1364
43.5834
47.3093
47.9625
45.1898
42.6121
38.9928
37.1323
35.3556
34.6903
33.8376
33.0044
31.7847
30.4178
28.8915
27.1483
25.5915
23.2248
14.6974
47.7007
38.6254
40.5534
45.8043
48.7659
46.6111
45.1251
42.4656
40.8338
38.8792
37.5942
36.1319
34.7193
33.0286
31.3812
29.8575
28.1435
26.5174
23.3195
24.7388
46.7308
48.976
54.4489
52.399
49.5571
45.9025
44.6314
42.5137
41.251
39.5816
38.1277
36.4424
34.6241
32.5462
30.7711
29.6134
28.5096
27.266
24.2915
47.3868
59.9982
67.1827
59.8158
54.3276
50.5361
47.0603
45.1082
43.0079
41.0136
38.6408
36.4173
33.7889
30.8133
28.5422
27.7008
27.7535
27.2247
26.508
24.5296
55.2354
68.2783
67.5015
59.404
54.7558
51.1014
45.3378
41.8554
39.5289
36.8683
34.516
31.5922
28.6106
25.2171
24.3249
24.7313
25.0467
24.7588
24.4761
23.4052
10.3488
60.16
65.151
58.3081
53.756
48.3622
44.2642
39.8445
35.4436
32.1292
29.1749
26.0849
23.0737
20.2954
19.7716
19.7043
20.3645
21.2092
21.6554
21.606
27.9916
56.0062
54.7889
46.5982
47.1554
45.3494
43.2753
37.2131
31.5214
27.6343
23.0978
19.4414
17.6077
16.4895
15.1955
15.4414
16.6796
18.378
19.549
20.2437
18.756
50.7783
43.5555
34.4854
38.405
34.0057
31.9649
29.6054
27.3618
24.6201
6.12156
5.89295
9.36425
12.6483
15.9895
17.2863
17.1961
17.8673
18.6488
19.3956
11.3288
29.7235
41.7231
34.6781
33.4499
31.5989
29.973
25.5717
23.4561
23.0134
22.3367
21.6697
20.4915
19.4582
19.1886
19.0597
18.7551
18.7025
18.9756
19.2609
45.1126
48.7328
46.6993
52.6692
45.1807
42.8229
34.9974
28.9195
26.8381
25.1378
24.0707
23.0161
21.9151
20.8389
20.4164
19.6013
18.9966
18.633
18.6286
18.7166
19.3941
38.4375
50.9346
57.9196
49.2436
44.6119
38.9828
35.5705
32.2211
29.1449
26.6713
24.5774
22.9623
21.6365
20.4893
19.4807
18.6799
18.1002
17.8231
17.6876
59.6503
52.5404
46.4896
55.158
44.7554
41.2432
36.0533
35.4544
32.2217
29.1042
26.1911
23.9458
22.3788
21.1096
20.1093
19.1907
18.3778
17.6974
17.2504
16.8852
41.1759
48.7743
51.6545
55.4784
52.3311
47.2251
36.7991
34.3023
31.0449
28.7675
25.8233
23.8501
22.009
20.9311
20.0077
19.0812
18.393
17.8224
17.3965
16.9686
19.9504
46.2394
50.2712
53.4741
46.1374
39.7098
31.0378
28.096
25.2937
24.7961
23.551
23.1158
22.3144
21.594
20.7071
19.8897
19.1671
18.6245
18.214
17.801
15.0853
42.3798
50.9997
51.5315
43.0654
33.9484
24.615
22.1658
21.459
22.7936
23.0689
22.961
22.2309
21.5606
20.9362
20.5156
20.1385
19.8047
19.4593
19.1227
10.7096
25.8023
45.6486
45.9456
42.5368
38.2369
30.1555
25.1267
20.9912
20.4946
19.6694
18.9721
18.0909
17.7957
17.9083
18.1573
18.3768
18.5354
18.6528
18.7699
4.46664
4.06533
10.7127
23.8909
23.1143
21.0125
16.9601
13.4283
9.02592
7.3067
5.42687
4.09271
3.30163
3.11315
3.08757
3.00208
2.84491
2.69142
2.65525
2.78786
3.81538
21.2718
25.9081
23.6971
14.1895
12.1114
9.27428
9.06117
8.32016
8.21772
7.54711
7.2054
6.89912
6.65697
6.37807
6.10895
5.94012
5.74709
5.76524
5.73548
60.34
60.7025
53.276
46.1083
40.1876
38.0749
36.9734
36.2517
34.9361
34.0647
33.0102
32.0967
31.1059
30.0864
29.2333
28.4409
27.7734
26.9818
26.3866
25.5176
46.1748
69.5528
66.0487
59.6423
57.173
53.1401
47.8883
44.6233
41.786
40.2638
38.7701
37.4019
36.1247
34.6931
33.4164
32.0109
30.7654
29.3598
28.353
26.8005
10.5247
57.9937
60.9068
61.2857
60.336
58.0245
53.735
49.9645
46.2368
43.9524
42.037
40.3915
38.8696
37.0112
35.1869
33.2287
31.355
29.357
27.7494
25.54
24.6522
57.0072
55.5686
59.1392
60.4894
59.4369
55.5015
52.5747
49.3601
46.9956
44.8745
42.873
40.9685
38.7819
36.6282
34.4503
32.3794
30.1242
27.8577
25.2698
16.3673
67.8461
67.1627
68.4691
64.0718
59.5757
55.3506
53.0968
50.2762
47.8371
45.5754
43.2939
41.1117
38.7796
36.6205
34.6075
32.8535
30.8107
28.6654
25.9618
14.054
65.168
76.9863
70.93
65.0069
60.0643
55.8518
53.0388
49.7615
46.9092
43.6643
40.7615
37.739
35.1616
33.432
32.26
31.2096
29.6296
28.3414
26.1411
54.15
76.3396
78.5672
70.6835
65.3629
60.5421
55.4215
50.4882
46.7948
42.9453
39.5495
35.8364
32.636
29.8499
26.8829
27.1441
27.2575
26.7117
26.174
24.974
21.2364
66.7069
73.5707
68.1403
63.5133
58.9677
54.1367
46.6221
40.7369
35.7224
31.8794
28.1777
25.2563
23.0961
20.9475
20.6662
22.2127
23.2163
23.5038
23.3656
42.0022
68.5455
67.046
59.7042
55.5996
53.6009
50.0685
41.1421
33.8693
28.8925
23.9033
20.0057
17.7338
16.589
15.6458
17.3416
19.4882
21.1776
22.025
22.3922
27.3961
66.7848
57.7794
49.7261
47.8704
42.7889
39.6829
34.4276
29.6933
26.1216
12.3858
10.99
13.1863
15.1252
16.8253
18.2479
19.5729
20.5881
21.3123
21.9241
51.6983
45.607
53.6854
48.9692
46.7615
42.7274
39.094
32.7037
29.0519
26.9402
25.2562
23.5478
21.8076
20.703
19.4439
19.2923
20.164
20.745
21.0001
21.3961
65.6364
57.7155
63.8809
62.3086
54.9616
50.406
43.1117
35.9957
32.9236
30.3173
28.3679
26.3064
24.2804
22.3712
20.8924
20.7149
20.5005
20.2536
20.1962
20.2229
38.2584
66.0627
68.5543
66.7519
58.4623
51.9156
45.2869
41.0077
36.9616
33.6374
30.7163
28.1395
25.9821
24.0238
22.4094
21.0989
20.0826
19.3264
18.9226
18.6837
56.7576
37.6719
72.258
65.8744
57.2324
51.3757
45.4726
41.4643
37.348
33.7353
30.6291
27.8639
25.7172
23.7655
22.1211
20.6869
19.4588
18.5765
17.9986
17.6078
18.8327
64.7655
67.7015
66.6273
60.3226
52.9331
44.8359
40.7628
36.7712
33.6109
30.5624
27.9291
25.6749
23.8615
22.3154
20.9316
19.6752
18.7164
18.0562
17.5997
21.9747
57.3358
65.2754
63.2495
53.6655
45.5102
38.5012
35.6195
32.9326
31.1076
28.951
27.186
25.5754
24.077
22.7795
21.611
20.4542
19.5643
18.9004
18.4522
9.77838
51.6582
58.8164
60.0619
49.2816
40.6304
33.7062
31.7459
30.2905
29.1751
27.4851
25.7705
24.2371
23.1816
22.3455
21.7239
21.1675
20.6852
20.2284
19.8683
12.2238
44.0047
53.0882
52.4289
47.9838
42.1064
34.5365
29.9063
26.2362
24.3286
21.7655
19.919
18.8135
18.4734
18.3745
18.5856
18.7205
18.837
18.7146
19.1153
3.82866
11.2508
13.0829
26.2528
25.0288
21.4254
16.3883
11.815
8.49977
6.79989
5.24601
4.40723
3.88864
3.68775
3.50436
3.34737
3.22202
3.08136
3.05542
3.08888
1.86992
11.1278
9.57141
10.965
4.95465
6.41662
3.92826
5.75902
3.94278
4.72596
3.65589
3.73592
3.27148
3.24512
2.98436
2.88964
2.78449
2.65887
2.68347
2.5193
19.2043
60.4364
42.892
45.0066
21.9443
37.2367
20.0094
25.3774
18.8564
21.1795
17.9409
18.6255
17.0801
17.3004
16.4626
16.3698
15.89
15.5769
15.5674
16.8368
18.9465
77.7329
73.3559
63.4308
38.7784
49.2409
28.6277
31.5182
24.335
25.9336
22.4332
22.7358
20.771
20.5533
19.2894
18.6296
17.6834
16.9587
16.6096
17.637
55.8582
79.3314
75.1145
68.644
40.5276
48.4882
31.9188
33.7275
26.8072
27.9355
24.542
24.5088
22.4174
21.738
20.1432
19.017
17.6471
16.4805
15.727
16.4074
81.4843
52.3798
51.9332
68.8345
39.7868
57.8491
34.255
38.0677
30.2192
31.1879
27.3571
26.9664
24.5763
23.5161
21.5321
20.0097
18.1771
16.5546
15.3751
15.8565
64.5967
66.9533
55.3288
76.7247
41.4726
56.4391
33.8939
38.0473
31.4266
31.575
28.3686
27.4032
25.2531
23.9523
22.1236
20.6192
18.8961
17.2367
16.0553
16.5485
25.3722
81.2552
58.3072
78.0025
39.6177
58.6618
37.8632
40.074
33.0594
32.1147
27.8559
26.4763
23.7405
22.6846
21.0551
19.7277
18.3277
17.167
16.5546
17.4608
48.5567
84.8146
64.6633
77.4499
44.2031
54.7284
56.2159
50.9524
45.6158
41.4064
37.1555
33.432
30.4127
28.232
17.8225
17.1222
16.5711
16.0459
15.9898
17.2411
36.448
57.1735
63.53
74.6598
44.8023
60.8643
53.2127
43.8187
36.9434
31.3987
27.3439
24.0237
21.9803
20.7487
19.6923
14.6948
14.4829
14.4916
14.6815
16.2723
31.8638
72.4298
67.9834
62.6134
48.4169
52.8733
46.6637
35.5191
27.93
23.071
19.1214
16.0032
15.3976
15.7752
16.3044
13.6733
13.612
13.8044
14.1853
16.0019
46.3585
68.524
61.1781
46.3399
41.6686
41.182
37.2127
30.0136
24.8735
21.5962
17.5508
14.5066
14.1162
15.6643
16.8708
13.8261
13.6318
13.7435
14.1974
16.0481
31.457
41.6716
56.1622
41.1763
46.1221
41.6468
36.9436
30.1387
26.2016
23.4222
21.0415
19.1735
18.5549
18.2165
17.8625
14.258
13.8033
13.7837
14.159
16.0604
23.6728
69.2455
51.355
65.4297
41.5619
49.7181
41.6158
35.0627
31.3019
28.3026
25.6702
23.3388
21.3696
19.7464
15.4653
14.2695
13.6211
13.2478
13.5791
15.372
113.039
85.0123
49.9342
71.1862
42.2229
51.6955
37.4781
39.6352
32.8727
31.7822
25.4471
24.0087
19.3805
17.5137
15.2341
14.0019
13.0478
12.6267
12.8861
14.5689
32.0879
84.1661
48.8183
72.0238
44.3782
51.9724
37.6432
39.3158
30.7058
31.4945
24.5286
22.7521
18.7296
16.7152
14.7773
13.764
12.8632
12.3936
12.5588
14.1415
77.7584
51.8345
51.6422
71.0375
46.4767
51.0586
37.321
38.4837
28.8293
30.9987
22.9041
22.2914
18.3136
16.6601
14.7065
13.7365
12.8588
12.4297
12.5791
14.3027
50.0422
36.9674
71.3412
45.6609
51.1709
44.674
38.0107
35.4557
29.0737
29.2372
22.6934
22.2507
18.6822
17.4513
15.5589
14.5471
13.5948
13.101
13.2448
15.1996
37.8816
60.332
65.7209
63.4576
48.4463
40.0635
31.0363
32.3563
24.4384
26.9714
20.4053
21.0028
18.5946
18.0655
16.3668
15.528
14.6059
14.0826
14.1637
16.3233
28.8239
32.9686
56.9301
55.1993
50.7178
40.4706
30.9374
26.4674
20.536
20.2639
15.2736
14.941
13.4843
13.3033
12.5761
12.4378
12.2614
12.2523
12.5438
14.4857
0.289627
2.64006
5.04065
14.9737
11.9549
16.2364
6.38626
6.06087
3.53647
3.23306
2.42428
2.24524
1.92846
1.71533
1.48756
1.36644
1.29403
1.22059
1.20095
1.21315
24.3282
24.2642
6.92494
29.3514
25.5203
25.5783
7.8243
20.1301
6.22976
6.30754
24.1462
20.9316
7.02358
7.22059
6.9563
23.4755
22.4482
26.1686
8.0172
26.5603
25.0425
5.54792
22.1775
21.3466
7.17548
6.96074
24.5822
23.1875
0.411174
0.545463
0.396377
14.562
17.0485
17.8632
18.759
0.358627
0.398092
0.35336
17.447
16.6675
18.5622
16.5319
0.320269
0.335268
0.306846
16.3424
15.8103
15.8852
14.7425
0.293799
0.296495
0.252999
15.5717
14.6591
14.3737
13.1237
0.250613
0.241135
0.210733
14.3028
13.3367
12.7475
11.7057
0.212569
0.200066
0.170035
12.9798
11.9251
11.3583
10.372
0.173965
0.161932
0.133317
11.4753
10.0038
10.0652
9.10291
0.113023
0.124546
0.0984469
9.26801
7.63722
8.77591
9.01281
0.426142
0.453655
0.32482
18.2645
18.3266
13.6386
14.452
0.354237
0.33093
0.311889
17.968
16.0518
14.5786
14.4383
0.301185
0.304201
0.2756
15.4935
14.3419
14.2406
13.5183
0.242269
0.262245
0.222
13.9378
12.686
13.2136
11.7569
0.192768
0.206157
0.167963
12.2812
11.0848
11.0927
9.36481
0.161164
0.158424
0.144038
10.7295
9.89001
8.94695
8.15708
0.134058
0.141043
0.127993
9.65488
9.00814
7.98903
7.59341
0.10606
0.122233
0.099152
8.82077
9.10597
7.49383
7.88496
0.286789
0.359509
0.205398
11.7833
13.149
9.26967
9.55817
0.289105
0.187809
0.173288
13.4006
13.6948
9.33818
9.86361
0.267422
0.188612
0.216606
13.6372
13.2519
10.4607
11.7355
0.220895
0.221299
0.20749
13.0803
11.7607
11.9555
11.7678
0.178915
0.198951
0.187082
11.1988
9.76413
11.6203
11.3457
0.149648
0.185459
0.174618
9.37053
8.47022
11.2581
10.6733
0.129343
0.166443
0.134857
8.26555
7.84074
10.3818
9.49191
0.0920258
0.129427
0.104227
7.76388
8.30648
9.36743
9.68795
0.205665
0.624424
0.354748
8.88896
9.26911
8.84919
9.04103
0.137263
0.316976
0.222395
9.07598
8.53278
9.22307
9.77468
0.187291
0.197013
0.151229
9.05508
10.8734
9.6894
9.5492
0.199608
0.147696
0.160999
11.2634
11.4126
9.65741
9.96644
0.183568
0.163863
0.163561
11.3112
11.1718
9.94915
9.64651
0.177701
0.159735
0.149659
11.1422
10.6881
9.47169
9.19
0.147166
0.14758
0.139568
10.4341
9.52781
9.09622
8.87411
0.107882
0.136584
0.105049
9.34809
9.60998
8.81035
9.50243
23.2259
25.0653
24.4263
39.7513
37.6144
40.3237
37.2633
21.7522
23.8772
21.0927
36.5734
33.5273
35.8014
31.3989
20.3737
20.3183
18.8473
32.6958
30.56
30.283
27.6765
18.8543
18.3686
16.805
29.8929
27.9211
26.874
24.4569
17.0712
16.3154
14.9103
27.2366
25.1175
23.6416
21.3174
15.1664
14.4518
13.1761
24.3934
22.2652
20.6285
18.8484
12.6828
12.7882
11.6679
21.488
19.2376
18.3525
17.0905
9.8617
11.332
11.0854
18.5398
17.5628
16.7811
16.2827
23.7821
18.902
18.9346
39.657
36.1166
31.4973
29.7129
20.5334
18.8966
18.4124
34.6489
30.5139
29.1088
27.2232
18.3423
18.1372
17.1673
29.4529
26.8226
26.5853
24.6108
16.2103
16.7985
14.2741
26.0079
23.1441
23.5356
11.7812
14.0408
13.2914
11.0672
22.0689
19.3546
10.4956
8.89774
12.459
10.543
9.46048
18.6803
17.1863
8.64707
8.50214
11.3772
9.25578
8.96862
16.8276
15.9335
8.83132
10.3693
11.0273
8.94736
9.22679
15.6974
15.4051
10.8738
12.1679
17.273
13.7923
13.1774
28.6068
27.4972
25.5906
23.5209
17.4551
12.815
13.0741
27.1502
25.9852
22.6907
21.8017
16.7801
13.6245
14.8078
25.5378
24.0253
21.883
21.8871
14.2033
14.9697
14.6733
23.3417
11.7365
21.7754
20.9867
11.4138
14.5276
14.222
10.3703
8.54742
20.7692
20.1198
9.85465
14.0961
13.3829
8.37979
9.24122
19.8515
18.9162
9.36905
13.0585
12.1771
9.70051
11.4185
18.6077
17.8926
9.77184
12.0373
11.8392
12.0106
13.3434
17.7579
17.5497
12.976
15.2665
13.5037
26.1798
23.6489
23.6423
25.1243
11.8587
13.3223
13.2223
22.67
21.0543
24.079
22.311
13.8628
12.9775
12.684
21.0395
21.1823
21.8308
21.0994
14.2019
12.7762
12.9587
21.1595
20.7824
21.0203
20.6566
14.0171
12.9046
12.6261
20.6848
20.3894
20.5318
20.1929
13.4353
12.4869
12.243
20.2377
19.4669
20.0733
19.5848
12.2355
12.131
11.8888
19.1588
18.3282
19.3965
18.881
11.7571
11.7899
11.9263
18.1318
17.7152
18.6947
18.4202
41.1101
44.0836
40.1432
52.5001
47.5327
50.8119
44.7947
36.4001
38.468
33.7125
45.8142
41.5445
42.6584
37.0951
32.9063
32.4879
29.5021
40.2606
36.6317
35.5637
31.6608
29.935
28.6041
25.9287
35.6061
32.8775
30.5658
27.4147
26.863
25.0183
22.4708
31.9442
29.1998
26.3554
23.4932
23.8608
21.7417
19.8969
28.3517
26.0911
22.7007
20.6917
20.913
19.3936
18.1348
25.3688
23.5481
20.1651
18.9199
19.4091
17.8318
17.169
23.1131
22.3273
18.6308
17.8171
38.8697
34.6235
32.3278
49.2789
43.1967
40.9046
36.9096
32.7037
31.5441
29.1691
41.1139
35.6983
35.5938
31.8144
28.5338
28.3917
25.9497
34.1886
30.4118
30.6804
27.6842
26.0731
26.6861
26.7448
28.7326
25.3473
27.6967
27.7112
17.9521
21.9656
19.5467
23.7338
18.0977
22.5245
19.4799
17.9561
6.46694
7.63217
20.2112
18.5867
7.63328
9.8538
16.725
8.30536
10.6741
18.1939
17.2619
10.7001
12.8545
16.1248
11.3341
12.82
17.0355
16.6182
13.3928
14.5647
30.1209
29.4183
26.5056
38.5713
35.1587
36.9755
32.8865
27.9537
25.5497
24.2384
34.0979
30.9026
31.6902
29.1499
25.3906
24.1245
23.6742
29.915
27.3368
28.5093
26.9697
17.3845
12.7433
24.0695
21.2711
19.8698
2.92507
24.9077
12.7802
5.69168
14.4438
1.95409
13.954
1.85365
12.9279
8.49325
21.0302
20.0502
7.8266
11.0988
22.7412
21.5091
11.9171
19.7539
19.0964
11.9926
14.1866
21.192
20.5642
14.0769
18.9686
18.6363
14.7387
15.6818
20.4106
19.9447
26.6973
27.629
28.3349
37.8181
33.1164
29.4897
34.9124
23.6442
27.0788
25.0088
31.7658
29.0361
33.3729
30.9013
23.1387
24.4171
23.5148
28.424
27.0156
30.1753
28.5906
22.4776
23.3313
22.8006
26.6383
25.5478
28.1705
27.0786
21.8765
22.622
22.202
25.2114
24.1374
26.7356
25.6993
20.8055
22.0135
21.4031
23.7525
22.5286
25.318
24.179
19.664
21.1401
20.533
22.1753
21.3071
23.7745
22.6807
18.8618
20.2782
19.7363
21.0687
20.2946
22.3068
21.2648
48.4224
51.8074
45.0489
54.539
47.3508
50.6541
42.0624
42.1396
42.7905
36.9895
45.3878
40.4059
39.5391
33.2672
36.7969
35.3717
31.2731
38.6862
34.1745
31.5211
27.3356
32.8652
30.1504
26.9644
33.0751
30.0129
26.2259
23.1123
29.0251
25.9058
23.0406
28.9187
26.0275
22.131
19.4821
25.9507
22.2282
20.1208
25.2778
23.4047
18.7066
17.2037
23.5038
19.5885
18.3725
22.8329
21.5264
17.0334
16.7607
22.303
18.0983
17.356
21.2539
20.5762
16.7004
16.4036
43.3437
41.7476
37.2122
48.4498
40.0505
40.3776
34.2854
35.4639
35.723
31.5445
37.5976
31.4781
32.4701
27.811
29.9645
30.3432
27.4725
29.7836
26.0057
26.6617
24.0752
25.2072
26.0299
13.3493
24.9563
21.8398
23.2418
19.1203
20.7581
11.979
10.4301
20.8023
18.0731
17.7656
14.8994
18.1729
10.3896
11.4232
17.2816
15.6967
14.2574
13.0694
16.7917
11.9483
13.4803
15.6062
15.6698
13.2314
14.3842
16.2384
13.8954
14.8353
15.696
15.6779
14.6919
15.237
35.6822
38.2835
33.873
38.7365
33.3068
37.5344
32.6387
30.7635
32.6138
29.7043
31.6643
27.3824
31.2551
27.7977
27.1915
28.9256
27.1675
26.3386
24.0303
26.8574
24.9271
13.7298
26.7086
25.1274
23.2975
19.4487
24.3534
22.546
10.7533
24.6126
23.0801
18.217
15.6254
21.9409
20.2565
12.6527
22.5979
21.1904
15.0571
13.9308
19.7142
18.3207
14.7092
20.8421
20.2183
14.0652
15.1676
18.2412
18.2298
15.8463
20.0663
19.6104
15.4537
15.8294
18.1798
17.7678
34.0831
33.4936
35.967
38.3787
32.8431
37.9321
35.3654
29.7723
34.4517
31.9308
31.4602
28.25
33.9469
31.3351
27.3809
31.1433
29.3116
27.375
25.368
30.3177
27.9416
25.6663
28.8297
27.543
24.8185
23.0841
27.3596
25.5949
23.9901
27.1199
25.8224
22.5245
20.953
24.9591
23.2886
22.1788
25.388
24.086
20.4367
19.2494
22.8015
21.4009
20.9446
23.6324
22.3787
19.0971
18.7244
20.9488
19.8102
19.9471
21.9703
20.8622
18.5736
17.9276
19.4584
18.4353
45.8092
48.9777
40.0241
22.8932
17.1916
16.9339
14.8842
38.6807
37.4871
31.2992
17.7005
12.9158
14.5325
12.2745
32.4649
29.6075
25.4718
13.528
11.7719
11.9402
10.343
28.3874
24.3532
21.2998
12.0333
10.1227
9.93078
8.87348
24.6769
20.3853
18.0535
10.577
9.82328
8.66901
8.36237
22.4395
17.491
16.7292
10.1251
9.38529
8.47979
9.93771
20.9652
16.6993
16.6576
9.76046
9.5529
10.0222
10.1753
20.2209
16.6312
16.4591
9.83685
9.03117
10.1996
9.77446
37.9577
38.706
32.4403
20.3255
14.3188
18.2644
13.2702
29.5618
30.6731
26.2578
13.8971
11.9646
12.9988
11.3425
24.1294
25.0889
22.3271
11.4322
9.8783
10.7922
9.42741
20.0705
21.4947
18.2892
9.44288
8.41361
9.08258
7.93347
16.6538
17.1376
14.4638
8.13228
7.71745
7.6205
6.97842
15.2923
13.8087
13.0224
7.78159
9.46506
6.95489
8.65149
15.7191
13.4123
14.7422
10.0915
10.2959
9.86297
10.724
15.8296
15.03
15.5126
10.2936
9.61301
10.7448
10.5372
31.625
36.2081
31.2827
21.7069
13.1066
18.1544
13.861
25.948
29.9135
26.582
12.8728
11.3992
13.5732
12.4595
22.3508
25.6675
23.5127
10.8914
9.58691
12.0701
10.7762
18.5996
22.875
20.9722
9.24153
8.12144
10.4817
9.61493
15.109
20.375
18.7707
7.83189
7.18928
9.42924
8.98465
13.7383
18.2853
17.657
7.17221
8.78241
9.03911
10.465
15.4002
17.7597
17.9335
9.97186
10.8562
11.1662
11.2581
16.0063
17.8981
17.5443
10.8533
10.0875
11.2723
11.0308
31.4916
40.379
34.0619
21.0963
14.3141
16.6718
19.0752
27.051
32.7012
30.1229
13.9236
12.919
15.9774
15.5298
24.0433
29.1095
26.7389
12.6848
11.4436
12.9491
13.917
21.5993
26.1576
24.402
11.1141
10.3482
12.7167
12.5346
19.5773
23.8055
22.2437
10.1573
9.8204
11.5638
12.0898
18.5875
21.809
20.6147
9.89517
11.3727
11.3676
11.442
18.3467
20.2375
19.2394
11.3904
11.4404
10.9172
11.2824
17.6685
18.9214
18.0592
11.4151
10.3674
10.767
10.9103
23.9187
25.586
21.4029
25.0762
23.5598
26.4635
21.4805
20.9272
25.5937
13.4659
21.7831
22.5536
26.2443
4.00226
15.8309
15.114
8.69333
2.13473
18.2715
12.805
2.40574
26.5027
29.3037
28.239
28.2616
28.2108
28.2096
26.6886
24.2422
25.4658
26.9463
22.2362
26.9078
21.7201
24.6392
21.0188
21.7609
27.0464
14.2353
26.7018
4.00666
23.5069
15.8468
2.20366
15.5579
9.50151
12.773
2.46573
18.8656
16.7481
20.9787
16.1508
20.5891
16.9812
21.464
15.9742
9.78554
13.0482
5.73545
1.86454
11.6935
10.985
1.68777
8.65758
10.1413
5.73864
3.87038
10.6204
8.78674
2.68801
18.1204
24.0731
22.9122
20.2536
22.8313
19.6786
18.7183
16.9086
20.8472
21.8362
16.7023
21.7414
16.1303
17.5736
9.75032
2.04961
13.4692
6.52215
10.9864
1.94214
12.0399
8.70047
4.02235
10.674
6.64365
8.89103
2.73032
11.083
14.3309
8.52784
15.1496
2.16788
16.6549
2.43084
13.3134
23.7915
23.9634
23.1567
24.8814
22.943
25.157
24.4737
22.4041
20.964
22.7789
23.6303
21.7677
21.5581
24.0205
18.2084
21.4078
13.7411
26.1485
3.18407
25.6223
21.8026
15.0578
2.2752
9.55556
17.1123
2.53479
14.0279
18.6053
24.6298
25.935
26.5226
26.0698
26.0314
25.4705
25.3545
23.2094
24.5183
23.1519
25.5371
22.3226
24.9646
24.0724
12.8991
5.21618
13.2894
2.94994
13.6353
2.10708
12.5478
20.53
20.3846
21.92
23.2992
19.9573
20.964
22.9758
20.1604
19.1441
21.6551
22.2734
19.5824
19.6843
22.6454
13.3777
2.15075
6.65538
16.2932
2.11622
13.5737
15.6769
13.5009
3.42959
6.28746
14.9701
2.32313
13.1983
15.2583
21.1805
24.1215
22.431
24.1214
21.6764
23.7276
21.8315
20.7564
22.9009
20.7555
23.6614
20.243
23.3297
21.2989
1.30887
1.36821
1.23645
7.95079
10.6492
8.13931
10.6706
1.1242
1.25452
1.17089
11.6737
11.1984
12.1765
12.4536
1.0458
1.06879
1.04805
11.3802
11.9621
12.4846
12.3715
0.94607
1.02428
0.964359
11.6366
11.1253
12.0944
11.8167
0.854702
0.888936
0.830311
10.8764
10.8675
11.5078
11.0818
0.753539
0.780559
0.723573
10.4576
10.0152
10.6492
10.2656
0.648489
0.671759
0.598546
9.52953
9.21542
9.70522
9.11187
0.451586
0.535133
0.362108
7.88817
8.04416
7.6533
7.34855
1.53223
2.52889
1.64432
10.1257
10.7931
11.1011
13.5734
4.19528
0.497677
0.51917
3.00842
3.57972
3.1466
0.428652
6.08024
0.389215
0.385763
4.97448
5.09841
5.98568
0.37872
5.45148
0.335958
0.335552
4.93418
4.92015
5.58072
0.324245
5.15208
0.311928
0.314244
4.95931
4.81251
5.24689
0.305517
4.71012
0.275058
0.273297
4.46281
4.34461
4.81551
0.260857
4.30932
0.233946
0.231213
4.18893
4.06804
4.41451
0.220872
3.86006
0.197108
0.19266
3.80526
3.67327
3.98001
0.183082
2.91313
0.156139
0.156662
3.19071
2.9851
3.32162
0.133721
0.310678
0.401357
0.325435
5.64326
7.23919
6.78427
8.8088
1.78587
1.88741
1.4936
12.1439
14.5185
9.42327
11.4045
5.03346
0.471869
0.635067
3.89775
5.18489
3.73137
0.447193
5.56326
0.398639
0.403414
6.01569
5.92131
5.61778
0.380146
4.95728
0.323012
0.330608
5.24751
5.08183
5.09594
0.316889
4.39815
0.272667
0.276242
4.68733
4.53837
4.53593
0.260573
3.73921
0.215661
0.212958
4.12047
3.9964
3.91378
0.198793
3.29205
0.174024
0.167186
3.64045
3.53826
3.35005
0.161554
3.20751
0.147368
0.149893
3.33958
3.26224
3.24903
0.144764
3.07058
0.126268
0.131462
3.02855
3.00866
3.07075
0.128685
0.314333
0.392724
0.311252
6.84383
8.6398
6.57966
8.17385
1.14149
1.70487
1.08101
7.3916
8.38885
6.85311
7.16917
2.96096
0.300536
0.367764
2.4791
3.37207
2.23084
0.272956
4.2932
0.294217
0.260637
4.528
4.66821
4.08998
0.260115
4.47542
0.280777
0.261439
4.69178
4.63256
4.4931
0.259997
4.38208
0.247029
0.251213
4.44401
4.35842
4.44117
0.242084
3.97923
0.198504
0.208239
4.00162
3.87384
4.07734
0.199741
3.61162
0.162614
0.176809
3.51976
3.42851
3.69475
0.170187
3.31301
0.139969
0.149825
3.24197
3.18238
3.37428
0.144699
3.11865
0.116651
0.125799
2.97201
2.96018
3.12327
0.121424
0.328149
0.454406
0.386483
7.18536
9.205
7.57642
9.1052
1.07542
2.29603
1.32225
5.7522
6.81278
6.3165
6.27926
2.26003
0.268934
0.401512
1.97005
2.23926
2.01228
0.29409
2.40722
0.163745
0.204801
2.53111
2.33643
2.4579
0.186116
2.55391
0.152583
0.129555
2.56424
3.05178
2.33652
0.129463
3.99079
0.206221
0.165186
4.08629
4.23466
3.71141
0.179637
4.05008
0.187321
0.182712
4.17317
4.10544
4.09191
0.180653
3.89307
0.183591
0.177418
4.04154
4.02272
3.94561
0.176113
3.57907
0.165128
0.169581
3.82265
3.63462
3.67931
0.165056
3.23373
0.135927
0.146686
3.13876
3.14569
3.26216