/*--------------------------------*- C++ -*----------------------------------*\
  =========                 |
  \\      /  F ield         | OpenFOAM: The Open Source CFD Toolbox
   \\    /   O peration     | Website:  https://openfoam.org
    \\  /    A nd           | Version:  10
     \\/     M anipulation  |
\*---------------------------------------------------------------------------*/
FoamFile
{
    format      ascii;
    class       volScalarField;
    location    "7.8";
    object      omega;
}
// * * * * * * * * * * * * * * * * * * * * * * * * * * * * * * * * * * * * * //

dimensions      [0 0 -1 0 0 0 0];

internalField   nonuniform List<scalar> 
12920
(
159.947
159.341
129.925
102.01
89.4198
88.0982
86.3485
82.8981
75.0386
66.1408
56.6821
48.9315
44.3444
41.4508
39.3898
37.8189
36.9231
36.45
36.3373
36.4454
289.292
211.45
183.368
137.768
113.252
95.1646
83.5542
77.7841
71.3169
66.5817
63.4456
62.5683
62.0771
61.0544
60.1839
58.8298
57.7182
56.0799
54.4342
52.737
319.985
204.079
187.883
164.735
145.823
129.307
110.222
93.4065
79.6961
72.4428
68.9346
67.916
67.3008
66.8754
66.5919
65.9208
65.1804
63.4832
61.5633
56.911
127.969
128.869
131.701
132.713
130.943
127.625
119.934
110.382
97.0598
86.2548
78.444
74.6503
73.2267
72.6865
72.1322
71.0325
69.9855
67.5827
65.2358
58.6216
259.196
226.647
160.308
144.143
134.237
125.658
115.07
109.467
100.782
94.6976
88.8776
85.348
82.5771
80.5208
78.4035
75.627
73.6636
71.4413
69.5722
63.2915
139.399
170.656
177.686
175.762
152.294
124.51
106.332
99.6044
93.7196
91.2514
88.6549
87.2598
85.5764
83.6406
80.5555
76.5127
73.0785
71.4028
70.4139
66.5604
160.681
221.072
218.931
182.352
148.346
126.989
109.686
101.402
96.7533
93.907
91.0717
88.9502
85.4212
78.6711
70.4132
64.5685
62.6214
62.5363
63.4143
63.3171
218.399
305.779
240.394
170.411
140.752
125.682
187.105
153.376
152.738
148.334
145.803
138.598
131.896
116.977
60.9997
58.415
57.8862
57.9443
58.6501
58.6719
223.799
265.03
231.696
159.223
137.276
209.475
338.742
263.287
241.399
231.153
223.302
209.405
196.422
177.504
86.8393
54.1113
52.0786
51.0428
51.1626
50.9728
310.634
161.997
130.707
112.581
109.944
174.963
284.041
251.205
228.193
203.99
180.776
160.782
146.917
135.412
89.2669
52.6904
48.3656
45.7945
45.415
45.7675
395.937
186.883
148.008
109.284
95.4256
135.309
205.516
197.251
201.412
188.59
172.162
159.74
152.89
144.419
95.904
61.2526
55.5829
50.0345
45.9065
44.186
295.714
245.643
181.05
149.035
117.108
150.139
216.129
167.199
151.56
178.318
179.727
176.903
175.922
161.501
105.337
58.8017
54.7577
50.6422
47.3131
45.025
322.219
196.766
165.358
165.211
142.437
122.218
176.987
128.899
108.863
103.302
100.908
96.5825
92.3115
89.1503
55.7639
52.0453
49.1659
46.5427
44.6715
43.4574
119.509
134.913
168.591
176.272
150.992
130.268
110.039
97.3663
84.9308
75.7198
68.2287
62.9582
58.6869
54.9493
51.2265
47.7903
45.1909
43.0226
41.5868
40.4068
418.135
327.092
214.847
184.039
160.674
150.698
128.006
107.613
93.0915
85.1217
76.1157
67.9816
60.9836
54.7377
49.6224
45.7162
43.1522
41.0609
39.9026
38.4416
121.468
188.747
167.422
166.748
171.427
171.631
159.18
127.42
102.955
90.3399
81.6053
74.3211
66.7922
59.3536
52.9662
47.6282
44.0572
41.502
40.222
38.6211
190.124
213.773
180.47
168.084
159.952
143.341
119.09
100.731
87.8957
79.7114
72.4647
66.124
60.747
56.4343
52.5017
48.5749
45.3361
42.7438
41.3046
39.64
367.736
323.362
235.498
173.839
134.355
108.559
90.8451
78.8773
70.1292
64.7547
62.0034
60.1508
57.5759
55.1028
52.7663
50.616
48.5535
46.5162
45.1522
43.1647
238.835
209.319
197.59
172.086
147.305
124.557
104.413
91.2308
77.925
65.7311
58.0463
54.0776
51.6937
50.3531
49.6162
49.3183
49.1283
48.9552
48.8689
48.4138
72.1465
112.801
128.133
123.28
111.421
106.548
101.037
94.2022
86.9501
79.4275
71.6356
65.862
60.4619
53.4237
46.1063
40.6682
37.8809
36.1352
35.5794
34.4738
83.5241
86.4546
72.2401
60.0366
55.386
50.8091
45.3552
39.9068
34.8391
31.2132
28.7462
27.9819
27.7892
27.3166
26.8596
26.1737
25.7167
25.3877
25.3347
25.3807
231.058
125.597
90.7299
65.1627
56.9304
50.4843
47.3497
45.6156
43.5531
40.6968
37.8881
34.9653
33.3953
32.3496
32.1895
32.0735
32.1502
32.1471
32.0439
31.5262
289.025
165.908
113.201
90.8431
74.5148
67.2788
62.5187
55.9274
49.3962
43.7908
40.5471
37.9411
36.9567
35.9503
35.5971
35.0778
34.7259
34.049
33.6536
32.0998
171.349
120.979
110.635
97.2218
75.1212
65.5078
58.8088
53.8465
49.1441
45.5322
43.1918
41.1823
40.041
38.6469
37.3958
36.2351
35.6441
34.7608
34.3828
32.6953
248.46
149.208
130.151
109.068
81.4848
65.986
57.4964
53.5133
49.6509
47.2521
45.5572
44.3805
43.5462
42.4088
41.1361
39.7105
38.7499
37.6713
37.3348
35.4893
141.205
142.672
120.349
98.6034
77.25
63.0877
54.5933
50.6473
47.8259
46.1073
44.9474
44.3841
43.8112
43.2519
42.8199
42.2069
40.9747
39.1546
38.6232
37.1541
314.897
176.959
120.19
91.6962
74.2019
64.0902
55.0549
50.7821
47.6672
45.9742
44.6278
43.8285
42.5304
41.3859
40.278
37.8204
34.7098
32.6943
32.3879
32.7019
241.4
193.428
139.886
92.0369
70.4049
59.4286
60.8468
51.2941
47.7889
44.8356
43.8727
42.5463
41.6885
39.7817
32.5336
29.3262
27.8686
27.7048
27.8976
28.8948
243.059
197.775
124.923
85.8143
66.7778
65.3671
64.2106
52.7896
45.9822
41.9782
40.3824
39.0338
38.1343
37.306
30.0511
24.1731
24.405
24.6957
24.998
25.1854
175.921
117.35
81.1062
67.7494
55.7332
54.584
55.6049
46.8495
41.293
35.6648
32.6854
30.5869
28.422
26.7244
25.1742
26.3999
26.1345
24.8914
24.1213
23.9336
295.534
122.075
86.6985
76.8213
61.3893
51.9057
50.1892
43.579
36.8326
32.4457
32.4554
32.6823
31.9966
30.7477
29.3921
29.6607
29.3093
27.575
25.1779
24.1797
270.597
165.836
124.6
108.356
78.1379
65.0766
60.722
53.4452
46.4251
39.2751
37.0675
35.2746
34.5973
34.8155
32.9001
27.3147
26.3966
25.6197
24.4145
23.7
306.585
181.191
114.523
85.2775
71.601
62.8557
64.6848
51.557
43.3205
39.7139
37.3761
34.6138
31.9731
29.8944
26.3115
25.3389
24.5734
23.7797
22.7945
22.1138
197.018
181.387
119.112
87.0913
73.1181
68.7617
57.6859
49.9854
42.8089
38.7128
35.7114
33.8996
31.8613
29.3926
27.0277
24.9671
23.406
22.1775
21.1953
20.4159
737.847
306.886
136.127
109.173
102.037
99.5644
83.3441
62.6648
49.7917
45.69
42.9443
40.1496
35.8143
30.8307
26.5263
23.5204
21.5677
20.4016
19.7619
19.1699
218.828
175.827
121.395
109.899
105.032
105.813
101.868
78.9007
59.5461
52.7014
50.4101
47.8491
43.2016
36.205
30.5314
26.3071
23.382
21.3585
20.2689
19.3728
389.851
203.658
130.276
103.636
88.3172
75.5521
68.0476
60.911
56.2977
52.5612
48.6633
42.3428
36.4059
31.5551
28.6019
26.1058
23.8425
21.7648
20.4703
19.4805
223
182.004
131.958
91.3144
71.6527
64.1274
60.8622
57.5207
52.5944
46.0369
39.5114
34.0999
30.5882
28.4981
27.0277
25.7285
24.4674
23.1745
22.2821
21.2158
163.767
128.881
106.969
92.5197
78.5203
66.2901
59.5073
57.429
54.3999
46.3637
38.5784
33.3787
30.0238
27.9423
26.5309
25.7422
25.2282
24.813
24.6286
24.3111
24.588
42.2925
68.2278
66.6488
64.2642
61.3729
55.0161
47.6434
41.8325
37.9783
35.0331
31.6619
27.6741
24.0958
21.9722
20.7799
20.2149
19.892
19.9025
19.9346
96.005
94.4025
86.3046
71.8215
61.4271
53.1554
46.0364
40.0795
36.1943
33.7754
32.4999
31.7319
31.4586
30.8686
30.4719
29.8437
29.6474
29.4635
29.5725
29.5257
246.261
130.896
88.2204
60.0241
52.7978
45.0893
41.0291
38.5327
35.7592
34.2027
32.4048
31.3708
30.4867
30.1504
29.9657
29.9464
29.984
30.032
29.9788
29.893
193.542
154.312
112.539
82.0174
66.4652
57.8124
50.9383
45.8619
40.9679
37.9134
35.609
34.2517
33.2357
32.5615
31.9891
31.514
31.1414
30.5656
30.1291
28.9355
83.7773
134.027
126.262
91.4588
66.8135
56.6147
49.859
45.7854
41.9206
39.7444
37.8385
36.4849
35.1783
33.9742
32.8951
31.9801
31.4233
30.6248
30.0763
28.4698
124.366
143.994
133.143
102.779
70.3797
56.8396
49.2442
45.9797
42.7582
41.1112
39.5693
38.4797
37.3887
36.2116
35.1373
34.0818
33.3715
32.4237
31.7663
29.5918
139.968
147.263
125.031
92.5815
68.4032
54.9484
47.0327
44.0433
41.3765
40.1994
39.0396
38.334
37.5709
36.8173
36.214
35.4269
34.6356
33.5422
32.9202
31.044
311.171
176.267
113.78
81.1134
65.0688
55.7344
47.6414
43.6709
40.8671
39.2612
38.0006
37.0815
35.8689
34.7201
33.5701
32.0486
30.7386
29.8541
29.6957
29.379
345.191
191.423
130.159
85.6079
63.3509
52.3418
48.3566
42.2529
39.553
37.0862
35.9256
34.7064
33.5496
31.6758
28.3681
26.942
26.3
26.1801
26.3242
26.7115
138.118
158.114
130.006
83.6151
60.7615
52.5013
48.8196
41.7389
37.1355
34.1841
32.5755
31.2683
30.0119
28.3047
25.2985
24.7205
24.3423
24.1491
24.1256
24.0475
224.676
98.8063
73.7207
57.2961
47.2492
44.7753
44.0853
37.9234
33.3536
29.632
28.6692
27.8311
26.0551
24.8319
25.3941
26.9459
25.5094
24.4458
23.9485
23.6184
177.294
95.1832
62.5494
51.4637
46.3793
40.781
40.4791
36.3417
31.4815
29.4514
71.0715
59.221
38.677
31.4073
29.0822
28.6409
27.0062
25.4745
24.4843
24.1257
148.898
128.992
85.4719
64.2033
52.3102
46.2296
44.3514
40.8495
37.4391
34.2783
31.8621
30.0839
29.1747
28.923
27.8976
26.1239
25.1059
24.2754
23.6488
23.5283
187.582
182.679
125.015
69.6087
55.1454
49.1178
46.2648
38.0806
34.5075
31.8717
29.8509
28.0183
26.5171
25.3436
24.1858
23.3779
22.7913
22.2789
21.8723
21.81
337.868
174.114
99.3236
73.4231
59.744
54.0647
44.5465
39.128
34.5272
31.6145
29.4303
27.6831
26.0815
24.3986
23.0108
21.8656
21.1242
20.5967
20.2414
20.156
510.017
177.432
105.293
83.9222
75.7993
69.1512
54.5678
46.1834
39.6457
36.9636
33.7924
30.8644
27.6453
24.713
22.4575
20.8875
19.9842
19.478
19.2119
19.1358
247.76
155.117
107.486
93.8195
81.9093
74.969
63.2888
52.2176
44.3675
40.8753
37.8508
34.5622
30.9099
27.1976
24.3751
22.2744
20.9213
20.0437
19.5691
19.2856
222.168
138.693
100.787
81.8632
66.4251
57.5828
50.4168
46.9101
42.8254
39.2934
35.241
31.4258
28.3183
26.0203
24.2779
22.7856
21.5727
20.6298
20.0539
19.6421
198.96
150.17
110.279
81.6588
63.8729
55.0169
49.2458
46.1308
40.8396
35.9302
31.4105
28.5739
26.7798
25.8562
25.1209
24.404
23.6535
22.9264
22.3837
21.7726
125.968
118.457
101.235
90.1662
77.5492
63.5807
51.3136
44.8952
39.2861
34.5504
30.7315
28.608
27.5886
27.1891
26.9032
26.6731
26.4888
26.3357
26.2613
26.0908
76.1288
63.9008
75.6859
76.0146
73.4106
66.6772
56.8644
47.6772
40.8563
36.4998
33.2998
30.4455
27.9786
26.3193
25.3037
24.3535
23.5771
22.8294
22.5275
22.1794
56.2224
89.9206
89.551
74.5003
60.0838
49.997
44.0152
39.6198
37.5848
35.3955
34.6055
33.4577
33.1393
32.4033
32.0481
31.467
31.4276
31.2634
31.4808
31.1598
229.177
160.646
105.674
64.6936
57.7147
45.1388
43.3708
39.8038
38.4499
36.9542
36.2622
35.781
35.4811
35.4249
35.4307
35.5178
35.7171
35.9211
36.0557
36.4872
178.998
171.639
127.3
79.5824
67.7053
55.1678
50.7811
45.5556
42.9193
40.5094
39.1635
38.0378
37.2361
36.625
36.1793
35.796
35.5079
35.0084
34.5771
33.8935
116.208
186.64
149.627
84.8314
67.0639
54.9794
50.8145
45.8969
43.7644
41.6288
40.4428
39.1138
38.077
37.0702
36.322
35.6185
35.141
34.2828
33.6523
32.3313
227.368
155.246
126.642
84.8711
66.902
54.8108
50.6385
46.6071
44.7714
42.8821
41.7461
40.4547
39.5145
38.481
37.7986
37.0166
36.4561
35.3125
34.3978
32.3422
188.816
160.791
125.777
86.7124
68.2578
53.9203
48.9084
45.104
43.2304
41.7354
40.8681
39.9913
39.4244
38.7829
38.4426
37.8419
37.3736
36.3179
35.452
33.4407
162.106
164.176
123.729
77.7081
66.4345
54.5262
48.47
44.0759
42.0857
40.2917
39.3569
38.3761
37.5731
36.8248
36.2087
35.3825
34.9414
34.3226
34.016
33.2091
278.667
172.51
123.664
79.9252
64.7411
52.2282
47.6499
42.0076
39.7138
37.5217
36.5492
35.4306
34.4812
33.3142
33.8693
32.5232
31.8629
31.485
31.4857
31.3925
269.647
164.672
129.055
82.4764
61.6173
51.7309
47.8725
41.0251
37.4299
35.2399
33.905
32.8995
31.9996
31.3014
32.0637
32.4891
30.8813
30.0917
29.8373
29.612
178.347
110.544
77.5456
58.581
48.008
45.1913
44.0434
38.6493
35.1043
32.3332
31.6891
31.1347
31.0678
31.8855
33.9844
34.1284
31.7798
30.6082
30.1024
29.8152
164.044
86.7723
58.9219
50.8694
45.2556
40.3907
40.3902
37.4446
34.6201
33.0091
50.7727
45.968
37.6405
35.7782
36.0567
35.0365
32.5835
31.402
30.9452
30.8229
308.267
107.534
64.9187
53.0635
48.542
43.7658
42.8501
39.3467
37.2282
35.285
33.5489
32.7087
32.9965
33.3447
34.0608
33.0694
31.2007
30.3329
30.1453
30.2721
244.303
159.243
94.38
60.9127
55.0616
47.4639
43.1695
36.5754
34.4851
32.4492
31.362
30.4775
30.0359
29.8065
30.1786
28.8411
28.237
28.0575
28.1179
28.4062
321.25
164.664
97.0657
67.5174
58.5429
49.6946
42.9738
38.0996
35.0906
32.3376
31.007
29.5243
28.6824
27.6346
27.0021
26.4269
26.3241
26.3545
26.5337
26.9552
284.983
180.141
101.58
71.8758
65.5427
55.5452
48.6566
43.6303
39.3873
36.2753
33.4974
31.0453
29.1109
27.3852
26.3597
25.626
25.5219
25.5602
25.7435
26.156
221.087
140.179
99.7916
77.5222
69.5407
59.0648
52.3659
46.4227
42.58
39.0839
36.2355
33.3863
31.1529
29.174
27.7987
26.7592
26.4702
26.3037
26.3309
26.5361
203.516
117.981
94.0308
70.246
61.3051
51.5153
47.8472
43.9286
40.9516
37.4879
34.793
32.4949
30.8866
29.6294
28.6616
27.7788
27.3926
27.0991
27.0327
27.0709
110.641
118.767
113.866
83.0247
67.3628
54.1988
48.8989
44.5998
40.7451
37.04
34.4161
33.0747
32.5754
32.3193
32.1554
31.7162
31.274
30.7105
30.3314
29.9872
126.201
113.93
110.184
97.0966
86.32
66.366
52.0651
44.242
39.6465
36.8248
35.7242
35.6871
35.9073
36.2981
36.8468
37.0064
37.0603
36.902
36.7285
36.313
66.9452
84.0829
84.4843
83.7743
79.5811
67.877
55.1502
44.9211
38.4185
34.4197
31.7818
29.805
28.6383
27.6365
26.864
25.9762
25.3535
24.6815
24.4168
23.8535
54.3821
90.2552
93.8846
80.532
58.3088
46.9437
42.03
39.036
37.465
35.0492
34.221
32.7425
32.3567
31.4085
31.0928
30.5159
30.5469
30.2952
30.5621
29.5172
166.695
160.586
127.34
73.2901
74.7264
51.5694
61.2369
48.3153
53.4998
47.3011
50.4473
47.768
49.3518
48.2986
49.2972
49.2119
49.9714
50.254
50.9472
51.866
175.183
189.843
146.341
80.4299
80.2044
58.1045
62.3987
51.9851
54.6437
49.3161
50.6721
47.9001
48.3948
47.0174
47.317
46.7037
46.8886
46.3295
46.3369
46.0026
312.725
239.556
182.748
90.0103
82.7698
59.9049
63.4093
52.3785
54.5283
49.2947
50.3952
47.6901
47.9331
46.513
46.5882
45.8262
45.8169
44.8777
44.6772
43.7695
622.032
174.322
129.796
73.8092
78.1604
58.3739
61.4319
52.4594
54.181
49.8774
50.5373
48.2057
48.3771
47.2356
47.4493
46.8296
46.8031
45.4803
44.9238
43.376
450.114
201.382
136.642
81.9868
81.4965
58.6976
60.7415
51.4737
51.8166
48.3151
48.7053
47.2756
47.6364
47.1712
47.6319
47.3432
47.4587
46.253
45.5747
43.8443
245.205
165.956
128.689
75.7464
80.6789
58.63
56.0434
49.8256
49.2099
46.5453
46.8205
45.6426
46.0804
45.7594
46.0866
45.825
46.0323
45.2016
44.8491
43.7411
281.329
154.449
126.742
78.4115
75.5694
58.932
53.2658
47.5506
46.4379
44.4223
44.5229
43.8886
44.2991
44.4036
45.7794
43.9033
43.3423
42.7613
42.6874
42.2948
231.3
154.968
131.62
80.1135
68.0372
58.2938
55.6928
48.4188
46.9404
45.8255
46.0017
46.1958
46.9229
47.4582
47.8309
44.3301
42.8373
42.044
41.9799
41.706
154.694
130.218
85.5804
73.8589
54.7942
52.4588
52.0658
49.7324
48.9126
46.9726
46.7163
48.3502
50.2547
50.6163
49.6588
45.4454
43.6202
42.9429
42.8222
42.6153
195.933
120.731
70.7998
77.1614
53.7835
50.6705
49.8638
50.6883
50.3425
47.5075
48.1693
49.3894
52.9719
52.8398
51.2129
46.2813
44.485
44.039
44.0801
44.1632
172.398
139.414
70.776
77.9827
56.5368
54.76
53.3372
50.6468
50.3451
49.319
49.3778
50.3482
51.6101
51.8916
50.597
45.2658
43.5894
43.2322
43.3918
43.7078
190.426
150.606
94.0471
67.8554
67.0301
56.9601
48.9898
43.7276
43.5692
42.2001
43.5462
43.5497
44.8518
45.0619
43.4493
41.734
41.3572
41.4238
41.575
41.8822
627.552
294.534
118.526
71.9922
68.5881
54.5963
49.0795
44.4302
42.6278
39.9289
40.2254
39.4038
40.0109
39.7403
39.9251
39.7321
39.995
40.0415
40.1975
40.5387
293.911
201.958
123.551
73.5211
72.6718
55.9923
56.625
48.8363
47.6252
43.068
42.1979
40.2029
40.1103
39.443
39.4377
39.0572
39.2336
39.2335
39.3683
39.6997
440.239
153.934
109.456
72.4036
75.0496
56.7171
58.536
50.7323
51.4921
46.3141
45.5775
42.6441
42.4734
41.4411
41.4274
40.8061
40.8227
40.4552
40.3766
40.408
243.517
135.397
107.15
73.1763
71.2826
53.7036
57.3345
48.9331
50.454
45.3732
45.3183
43.1154
43.3188
42.4068
42.3761
41.7432
41.7082
41.2518
41.0964
40.927
150.519
148.159
138.62
84.7033
83.016
57.4741
61.0359
51.5994
53.2139
47.9774
48.2736
46.2533
47.0363
46.6486
47.0598
46.557
46.3474
45.5697
45.1684
44.6213
164.105
113.294
123.602
101.256
100.657
66.3056
64.497
53.3776
56.0617
52.7267
54.3216
52.7827
53.8652
54.1169
55.3322
55.259
55.4322
54.9088
54.745
54.1471
24.1226
56.5451
75.2347
83.2216
80.3752
64.8636
49.413
39.8583
34.7792
31.6027
29.8851
28.7456
27.9279
27.0406
26.3546
25.573
25.1257
24.3849
24.0145
23.1511
28.7018
29.9572
69.4647
30.894
30.3636
31.9476
73.6552
28.1813
68.8273
55.9123
30.4285
30.0882
73.0186
57.7393
69.8618
32.5202
31.1951
31.5718
73.6003
33.3186
32.2047
65.1451
30.78
29.7666
74.1091
64.3984
31.895
31.1957
269.767
307.321
264.787
80.4215
64.2679
70.1311
58.827
247.937
262.575
245.116
60.3578
53.7702
55.7717
50.7064
232.067
236.961
219.124
52.181
48.336
49.2137
43.9783
226.373
213.634
196.026
47.6072
46.3651
42.6536
40.0429
212.255
191.298
177.281
46.0749
44.8802
39.2959
36.8414
199.188
172.165
156.993
44.5178
43.7033
36.0544
33.6854
182.097
152.629
137.944
43.5375
43.1183
32.9289
30.9819
144.191
133.306
120.1
42.9693
41.2104
30.6371
27.7722
253.317
220.183
206.158
64.9669
55.6154
57.4234
49.9331
235.322
208.572
209.059
52.9987
48.4456
47.7377
42.5835
210.066
206.219
194.276
46.9376
41.8286
41.1928
37.3658
186.028
188.587
174.687
40.5215
37.6608
36.3129
34.6516
165.473
169.692
156.65
36.8811
34.7401
34.6592
34.9468
150.21
153.575
150.351
34.0787
32.0588
34.9305
34.3782
137.538
150.011
145.749
31.4146
29.839
34.136
33.1714
125.432
142.823
129.524
29.5033
27.2783
32.7835
30.57
192.779
197.269
166.502
57.1844
50.5816
64.9253
59.4595
202.43
161.36
163.252
48.2898
42.5958
58.4859
50.0965
192.754
170.113
180.966
41.1297
37.3495
46.6479
40.7382
175.694
182.899
179.166
36.2468
34.7533
39.6341
37.8629
162.352
176.144
172.031
34.7402
34.7119
37.5389
36.5358
153.889
171.945
169.933
34.6532
34.2155
36.2737
36.0337
147.918
167.183
153.242
34.0417
33.3195
36.0819
36.4401
127.34
151.373
140.109
33.0557
30.778
36.5533
36.3361
171.988
305.213
214.875
71.0486
61.4315
86.8632
71.363
150.128
200.472
168.159
59.9389
55.0783
64.5869
52.6936
172.348
163.926
155.03
51.2887
43.4925
51.8068
50.9313
181.561
155.821
165.539
42.255
40.5658
50.3321
47.5103
176.583
167.317
165.588
40.2917
39.2496
46.6993
44.8776
177.214
163.038
155.992
38.9451
38.6127
44.2664
41.638
164.837
154.196
148.188
38.665
39.1896
40.6617
38.233
145.32
146.426
127.615
39.2581
38.0909
37.4558
33.0382
55.6717
59.3889
51.5627
50.6852
44.9749
47.922
42.1535
47.3535
49.1868
44.7259
43.1109
39.221
40.5832
36.8127
42.6865
43.2826
38.6217
38.2014
35.6415
35.5741
32.1909
40.7052
37.472
35.1836
35.049
33.7933
31.3642
29.6682
39.3498
34.5578
32.6281
33.4346
32.4363
29.267
28.1116
38.3225
32.0172
30.1373
32.1385
31.2937
27.7136
26.3993
37.5863
29.5195
27.8473
30.9763
29.8255
25.9464
24.7233
36.0776
27.4843
25.6505
29.3212
27.4997
24.4118
23.3836
48.933
50.0639
44.607
45.3745
40.3997
41.2964
37.6796
42.7287
42.7554
38.038
38.9492
35.4028
36.3106
32.6444
36.7947
36.7182
33.2488
34.2036
30.9313
31.6043
29.0834
33.2807
32.3533
31.882
30.1153
28.8344
29.1967
43.3926
31.0973
32.1415
32.6207
28.6852
28.0229
44.371
42.6639
28.9623
32.6234
32.2897
27.6783
26.3723
41.5705
38.1123
27.0433
32.056
30.9274
25.9115
24.7882
36.5226
31.9798
25.3109
30.4854
29.1197
24.5349
23.6966
30.8823
29.0963
45.5832
56.3158
53.2607
41.6113
38.7612
45.1677
43.112
38.2381
52.4886
45.5906
37.2319
33.0105
42.5403
38.3122
33.3751
42.6723
37.4583
31.9116
29.4456
36.7118
33.6373
32.1554
36.5057
34.8351
29.292
43.8951
32.9566
31.489
32.7136
34.4388
33.2702
45.5884
46.0837
31.0475
29.9382
32.2
32.9746
32.5621
44.6793
37.7971
29.6585
29.0606
31.0644
32.5604
32.7619
36.0196
31.7528
28.9642
28.9165
29.3587
32.8754
33.5193
30.7693
28.9077
28.949
28.9517
54.5532
68.6678
60.2957
46.6371
43.3018
51.1043
44.3299
49.266
55.3907
47.593
42.7529
40.1063
41.9565
39.4221
40.327
46.9594
45.8813
38.7947
35.7954
38.8031
37.1377
37.496
45.1908
42.4638
35.0593
33.1335
36.4726
34.3402
35.6675
41.6326
39.5641
32.5627
31.0375
33.6164
31.6946
34.6263
38.8372
36.3596
30.6337
29.7883
31.0561
29.3725
34.7783
35.5298
33.4577
29.6494
29.4561
28.8537
27.5485
34.7679
32.8358
30.0792
29.4083
29.0532
27.163
25.7378
43.5097
46.3952
40.9056
47.4634
42.2117
45.2573
40.2288
38.0963
39.422
35.7443
40.5776
37.5053
38.8977
35.5818
34.7426
34.5776
31.5069
36.7023
34.7668
34.6521
32.3202
32.9425
30.7519
29.2091
34.2961
33.1719
31.7043
30.423
31.5709
28.8619
27.8433
32.8368
31.9341
30.1616
29.3874
30.3592
27.4745
26.2508
31.66
30.8151
29.1288
28.5107
28.7855
25.8401
24.7799
30.5187
29.6473
28.3806
28.2207
26.7078
24.5191
23.7107
29.3759
28.6438
28.2266
28.2642
39.3021
40.2095
36.7829
43.4087
38.9489
39.581
36.7895
34.4775
35.5003
32.1083
37.7356
34.7034
35.7976
33.3191
30.3759
31.1621
29.055
33.8252
31.5088
32.6325
31.0244
29.1863
29.0822
28.8116
29.5974
28.7999
29.1195
28.9561
32.8642
28.5936
30.9281
28.9981
31.3649
28.9721
32.3
26.5044
51.9938
42.3206
29.7706
28.9352
52.4648
40.5382
25.0401
39.4508
32.9512
28.7768
28.7201
38.2144
34.3609
24.0954
31.6371
29.5748
28.7931
28.8457
33.7503
32.8779
37.7693
43.1248
41.3284
39.7138
37.4328
41.438
39.5348
32.47
40.7325
37.0282
36.3454
33.6361
38.7988
36.2509
29.4236
35.7284
33.1493
32.9559
31.4202
35.5529
33.8575
41.3984
51.2896
30.2512
35.4242
34.5551
206.568
30.8049
44.6829
70.2734
39.5586
170.167
39.2537
159.752
46.019
41.8353
29.5078
28.9164
56.0951
40.2496
31.0327
30.8868
32.5879
28.8176
28.7354
37.9261
34.2783
30.9533
31.1897
29.3694
28.7424
28.6426
33.7055
32.8367
31.2525
31.2267
41.3814
47.6676
41.7488
42.1862
39.4182
44.467
38.477
38.4836
39.7831
37.7772
38.761
36.9182
37.1587
35.84
34.958
37.1939
35.5
36.3409
34.7321
35.2458
33.8103
32.4074
34.8994
32.9245
34.1787
32.6373
33.3415
31.8722
30.4518
32.27
30.5019
32.2406
31.2989
31.441
30.3889
29.3058
29.9659
28.4919
31.0957
30.8495
30.0889
29.2526
28.9779
28.078
26.9334
30.8675
30.9489
29.0649
28.568
28.6074
26.6335
25.4811
30.951
30.8403
28.4378
27.8949
42.6207
45.7753
40.9495
52.5775
46.9015
50.757
46.928
38.1658
39.6876
36.6012
45.4851
43.6181
46.0411
44.2979
35.6858
35.774
33.6564
43.301
42.2449
43.9357
42.4895
34.2026
33.0644
31.8145
41.8915
41.5319
41.9685
41.184
33.1377
31.57
30.9117
41.5814
41.5986
41.1678
41.5984
32.217
30.7495
30.6572
41.5752
41.8516
42.0993
43.822
31.4589
30.7246
31.1054
42.0792
42.5807
44.1187
44.681
30.7467
31.2469
31.3712
42.6614
42.7143
44.794
44.9256
39.7789
40.254
37.8122
48.9181
46.223
45.7721
45.5475
35.8803
36.9639
34.8893
45.5842
44.2968
45.3979
45.0168
32.943
34.2784
32.4757
43.9808
42.0877
44.4978
42.0308
31.6763
32.7977
49.8536
41.4958
40.7057
41.3578
42.6745
31.3609
50.6294
46.7714
40.7259
41.1304
43.1966
43.4264
30.9614
44.6432
38.8628
41.6452
44.1917
43.479
46.388
31.6715
37.6908
35.9878
44.6363
45.3229
47.1056
47.6626
31.9796
35.7467
35.1094
45.4417
45.4691
47.6409
47.2342
38.3753
42.1777
40.1933
46.1621
46.1213
48.8986
47.4346
35.2158
39.4462
37.2757
45.918
45.4752
46.8899
46.0963
32.8743
36.734
35.1666
44.9617
42.496
45.9627
44.3175
49.7052
34.6256
33.4841
41.8305
43.0007
43.7588
42.9348
48.9253
33.2161
32.6522
43.4521
43.7913
42.916
43.1556
38.7835
32.5554
32.8841
43.8188
46.6085
43.5427
46.1335
36.019
33.119
33.6414
47.3809
47.9283
46.6018
47.1217
35.1207
33.7456
33.6044
47.9047
47.5294
47.1707
47.0236
40.04
44.6735
38.6223
49.4275
46.9886
49.6272
43.121
37.6865
37.4121
36.266
46.3839
45.6968
42.3149
42.0284
35.8166
35.731
34.502
45.6547
44.6056
42.0434
41.6324
33.8749
34.0649
32.8105
44.0977
43.4444
41.3039
41.2214
32.8217
32.4884
31.7625
43.4835
43.8088
41.4763
41.7766
32.8577
31.5278
30.9461
44.1837
45.8693
41.7573
42.193
33.2982
30.8616
30.676
46.1842
46.6124
42.4886
42.9503
33.1616
30.6137
30.1236
46.6647
46.626
42.9765
42.9185
49.7214
53.9592
50.6231
68.2966
62.2372
67.3412
65.7482
47.1117
49.9308
48.8171
61.6155
62.0554
65.3472
65.6479
46.1374
48.6286
47.6169
62.3021
61.7498
65.8624
68.3673
45.8454
47.2283
46.9528
61.8509
62.9285
69.2229
71.0204
46.1926
47.0915
47.8673
63.3735
63.6429
71.3666
71.5502
46.6678
48.2862
49.3471
63.8346
64.704
71.1782
69.8161
47.3971
49.5462
49.9092
65.099
65.5471
69.5933
69.3861
47.2839
49.9885
49.7296
65.7554
64.8658
69.4167
68.6256
50.1436
49.3448
50.0823
65.0614
65.811
64.4376
67.2624
49.0676
50.1608
50.2404
65.7368
66.3983
67.4324
68.769
47.458
49.8903
47.7249
66.9427
70.8036
70.1047
76.4337
46.5658
47.0454
47.4066
71.964
74.0604
78.1571
81.1723
47.6665
47.8748
48.5744
74.492
74.5829
81.8817
81.7652
49.9714
49.0826
52.2852
74.0221
71.5439
80.4123
75.5561
50.5641
52.6968
52.6599
70.8904
70.0865
74.0529
71.7511
50.2359
52.5393
51.628
70.0495
68.863
71.4439
69.5412
50.6779
52.858
51.7447
65.3802
68.047
68.0788
68.6931
50.6909
51.3157
50.8986
68.123
69.2447
68.2762
68.504
48.1811
50.8597
49.6407
70.5393
76.846
69.0407
72.928
47.7771
49.1814
48.8134
78.5653
81.3749
74.0653
75.7149
48.9153
48.9448
49.5892
82.0503
82.1399
76.1006
76.3142
52.5609
50.1609
51.8946
80.7577
75.7443
75.6428
72.795
52.9535
52.1629
52.3751
74.2392
72.0161
72.1754
71.534
52.0086
52.3772
51.8291
71.7522
70.0025
71.4803
70.3086
51.168
52.7993
46.4751
68.9651
67.8322
66.7194
62.1811
50.2797
45.7684
45.8026
67.37
67.5466
61.2534
62.2506
49.6957
46.0122
45.8151
67.8553
70.4567
62.4577
62.2665
49.1768
45.5258
45.8954
71.3106
72.7293
62.1396
63.6721
49.9956
46.2677
46.6877
73.1293
73.405
64.0912
64.6963
51.4098
46.667
47.1774
72.9793
71.2865
64.7172
65.9907
51.868
47.4911
47.9672
71.1548
71.0004
66.3595
67.0187
51.4828
47.9881
47.6986
71.0382
70.2705
67.0791
66.1687
29.9979
28.7817
30.1437
28.9472
29.2035
28.9288
31.295
34.7073
28.8468
48.7542
34.5988
30.8506
29.3892
157.592
41.8795
38.4786
64.5514
179.026
35.0184
46.5928
197.445
29.8017
30.0062
30.4676
30.4398
29.5729
29.4918
30.6071
30.7609
29.4967
30.3213
32.6045
29.4399
32.1795
31.3418
36.0442
35.8664
30.7969
52.8775
30.0536
163.587
33.5292
43.8248
186.358
42.8465
69.8229
48.9665
204.178
38.7394
33.1296
28.4335
31.4091
28.6207
31.5054
28.8673
32.8901
50.3094
40.5981
67.2932
166.583
41.6752
49.0651
153.906
51.6282
41.7669
63.0068
79.0284
42.3438
48.2319
106.252
33.8407
29.582
30.4101
33.5505
29.5715
33.2456
34.0584
34.0774
29.2446
30.3112
33.9173
29.4844
33.7611
34.1354
52.8265
173.433
45.1367
71.513
51.4483
161.192
46.2983
53.7632
80.2406
45.2624
66.0932
49.7732
111.829
46.4595
46.4658
65.6133
39.608
180.028
38.3597
192.163
46.9071
31.7292
30.9524
32.0212
32.3855
31.1851
31.1097
31.9441
32.4002
31.6618
31.6193
31.191
31.6188
32.4488
31.5843
41.8521
36.6725
55.5336
32.1584
201.974
31.4356
36.8527
47.0575
187.604
70.051
41.6641
199.3
47.4683
40.6133
32.227
32.6151
32.4205
32.8911
31.5704
32.1988
32.7715
32.9091
31.495
33.3008
32.548
32.9612
31.8606
33.2452
43.0648
71.6058
38.4979
107.906
38.9255
150.232
42.5467
31.9692
31.5353
30.3892
30.8062
31.256
32.2902
30.4516
31.6647
30.8306
30.0567
29.8926
31.0066
31.4801
30.1498
45.3617
177.541
73.4748
41.6019
167.019
46.6854
41.257
43.5254
102.356
72.9942
39.9955
148.43
42.7678
40.7434
32.5213
31.1461
33.2013
31.6233
32.8149
30.831
32.9934
32.2166
30.3349
32.5703
31.3914
32.0192
30.5616
32.7658
159.502
184.07
163.968
104.179
80.2903
102.267
81.4431
154.398
156.111
151.702
69.6335
68.3587
69.1301
63.9739
149.109
149.666
148.045
66.33
62.3597
61.4326
59.6506
147.766
146.429
144.564
61.7308
61.8225
58.6748
57.8735
141.875
142.041
137.937
61.202
59.4547
57.1329
56.1281
135.875
134.125
130.322
58.5732
58.1529
55.2243
54.2351
126.4
127.027
120.026
57.221
55.406
53.7295
52.5727
104.445
113.455
92.4122
53.9802
49.0584
52.1744
48.0051
200.432
200.399
194.026
105.582
96.3043
98.6927
84.3355
138.403
297.303
313.268
173.975
146.91
169.869
286.351
99.6629
259.659
267.398
109.673
105.756
103.351
264.528
87.9779
237.552
241.382
96.2114
93.6016
90.5078
235.415
81.9387
230.41
227.882
87.9732
88.2465
83.0583
225.047
78.0043
220.442
214.322
86.9737
86.7373
79.057
210.216
73.8636
206.601
199.438
82.2676
81.9892
74.8693
195.558
70.233
192.826
184.359
79.0729
78.9267
71.0883
180.152
67.6916
171.423
166.475
75.9291
75.6438
67.945
152.559
78.9772
86.0789
77.9028
42.0038
35.5425
32.5498
25.9127
175.271
149.393
149.398
77.6737
71.9444
74.225
68.599
103.452
262.282
250.653
138.514
115.238
125.878
237.573
84.82
248.16
232.955
93.3033
90.452
86.822
231.735
77.457
221.698
218.633
84.6734
82.0783
79.687
213.257
68.4828
197.643
195.447
74.2714
72.133
70.6202
189.384
62.6717
175.484
172.06
66.7326
64.915
63.8243
166.633
58.0132
156.654
153.416
59.9985
58.5408
59.1994
150.935
53.313
143.556
146.11
54.2035
52.9714
54.25
144.095
50.3139
134.732
139.071
50.5786
50.0668
51.0575
138.593
78.4297
90.408
82.8464
31.1283
25.8268
33.0243
29.3385
130.243
135.24
127.69
73.2811
68.0495
74.8298
72.8925
92.7955
190.522
193.58
108.916
92.5884
108.845
180.014
75.43
201.106
184.418
77.8414
76.2066
77.2734
189.791
70.2411
199.239
194.221
72.452
71.1682
71.333
193.586
63.9897
184.265
188.265
65.8968
64.1191
65.6635
184.791
60.4713
168.742
173.567
60.9225
60.3491
61.025
170.764
58.3936
157.446
162.967
58.7697
58.1951
58.9425
160.921
56.6586
151.601
154.859
56.7074
56.4064
57.0415
153.632
54.4884
141.832
146.755
54.678
53.3811
55.0996
145.136
88.1032
103.075
95.4808
35.6816
30.9893
40.3764
36.5673
141.857
182.426
170.981
92.5024
83.8367
103.609
100.942
116.128
192.366
234.145
127.842
111.446
131.95
203.664
91.0373
159.267
170.349
91.7369
90.8556
93.9261
164.518
76.9757
156.994
147.11
78.4681
72.7618
81.4936
147.892
67.703
181.621
167.569
66.5924
65.6439
68.3508
175.847
68.9196
177.618
180.537
64.9692
65.0002
68.5502
179.74
69.5583
177.722
178.331
65.1544
65.3344
69.3324
178.001
69.5864
173
175.251
66.3851
67.2555
69.615
173.341
68.5339
160.244
164.846
68.2033
67.5445
68.8599
163.142
92.1417
94.7032
85.562
44.0424
39.2087
40.2379
34.815
149.405
179.95
151.612
105.121
88.736
104.027
84.4923
116.272
141.543
128.713
70.8644
60.0641
72.2271
67.4136
104.96
120.71
109.093
56.0559
53.5198
60.7185
54.7342
102.533
105.635
100.185
51.7805
50.5313
52.0952
50.9484
99.1377
98.2392
94.7379
49.6186
48.271
49.2923
47.535
94.6103
94.8091
93.3964
46.54