/*--------------------------------*- C++ -*----------------------------------*\
  =========                 |
  \\      /  F ield         | OpenFOAM: The Open Source CFD Toolbox
   \\    /   O peration     | Website:  https://openfoam.org
    \\  /    A nd           | Version:  10
     \\/     M anipulation  |
\*---------------------------------------------------------------------------*/
FoamFile
{
    format      ascii;
    class       surfaceScalarField;
    location    "7.8";
    object      phi_0;
}
// * * * * * * * * * * * * * * * * * * * * * * * * * * * * * * * * * * * * * //

dimensions      [0 3 -1 0 0 0 0];

internalField   nonuniform List<scalar> 
38556
(
755.225
969.273
683.605
1150.45
-391.862
-3.36282
1182.12
-254.192
222.526
1284.05
-212.498
110.561
1332.8
-6.40343
-42.3387
1392.79
66.908
-126.902
1422.59
134.331
-164.132
1477.04
138.762
-193.217
1477.71
132.349
-133.018
1421.45
137.917
-81.6552
1235.99
135.693
49.7677
1088.23
106.401
41.3571
1023.59
62.675
1.96471
996.627
36.1023
-9.13569
995.145
16.0572
-14.5763
1002.62
1.15226
-8.62787
1019.36
-13.2147
-3.5281
1042.26
-16.3475
-6.54369
1074.67
-29.5415
-2.8686
-27.7872
-0.838003
-579.096
1805.42
-3597.15
150.508
-285.904
-835.561
614.743
-187.724
-530.704
677.009
-135.828
-138.935
920.755
-82.1896
-167.96
1012.55
30.2926
-55.1825
1105.95
41.7562
-0.818178
1143.58
85.6415
15.4838
1125.99
88.7701
61.1684
1086.72
117.818
59.3769
1033.09
117.501
71.8201
997.358
106.286
35.8427
971.035
70.2223
18.7758
961.764
35.9885
9.38544
966.417
-1.97088
13.3745
981.321
-27.0374
13.286
998.004
-49.83
19.9321
1008.71
-54.3329
27.2824
1015.45
-67.7465
31.4603
-64.5376
29.5177
30.2341
257.104
-1377.08
333.568
-294.09
-295.148
987.996
-293.629
-548.522
1086.16
-131.213
-102.776
1216.79
-116.42
-96.4027
1271.12
14.9015
-38.9439
1241.93
21.9967
48.9578
1190.22
83.5124
53.8368
1115.46
82.0945
81.4325
1067.35
108.645
57.2827
1033.1
96.4428
55.3116
1022.33
87.2339
29.8226
1010.62
54.4301
27.5034
1007.42
30.2649
8.9179
1009.42
-15.7577
11.7897
1011.44
-38.5019
9.44027
1013.55
-58.1811
6.24458
1013.34
-60.7667
6.64936
1004.32
-67.9274
9.19509
-62.1553
4.79206
1762.47
-1030.44
1564.95
1527.08
-420.476
361.781
1170.2
-172.733
235.981
1161.02
-158.763
36.7358
1125.56
-69.6338
-11.3334
1149.58
35.7169
-44.8323
1148.13
47.1714
-23.7233
1149.19
108.892
-26.4356
1133.08
92.8063
5.39078
1119.6
111.492
10.6401
1101.33
89.8266
24.8802
1086.87
84.6469
17.0465
1066.79
55.9166
18.5934
1044.32
44.4447
8.29583
1019.22
4.41112
4.92626
1003.95
-19.654
-3.57552
1000.19
-49.3
-5.11906
1000.92
-57.9324
-3.56569
993.507
-61.9029
1.3868
-52.9926
-1.21486
1162.76
-479.385
314.829
1600.55
-439.174
-419.083
1258.88
-158.73
327.661
1185.26
-175.287
90.1445
1107.87
-70.5542
78.3146
1110.28
47.192
-13.8847
1117.46
44.7514
-4.76698
1134.27
114.145
-22.0583
1142.65
90.0899
-5.66911
1151.62
113.493
-10.9709
1151.76
89.3352
0.352769
1149.3
90.6724
-3.56353
1136.86
66.8913
1.46827
1123.45
59.9639
-2.11706
1099.14
31.5044
-2.78064
1082.55
1.05083
-4.11187
1075.2
-37.8016
-4.14729
1072.69
-51.1647
-4.26052
1061.58
-51.123
0.335221
-36.1545
-4.43504
926.861
-561.738
-202.807
1453.37
-494.683
-470.999
1259.24
85.2687
-49.867
1228.73
-54.6285
-90.1463
1118.58
54.3629
-14.7684
1073.1
106.325
-13.6602
1074.4
20.4943
22.9637
1062.53
124.628
1.38595
1065.31
73.063
14.2395
1070.3
106.147
2.36105
1079.87
75.3903
4.37082
1091.14
81.5574
-2.15267
1101.92
59.5134
-3.40311
1116.11
49.8799
-4.10804
1125.4
15.6737
6.54174
1128.11
-12.9087
11.2526
1117.5
-39.2417
12.0462
1107.38
-44.5914
3.55559
1095.48
-38.1948
-1.02885
-16.4083
-10.831
130.473
-415.373
1772.47
225.34
-341.247
-248.302
998.278
-199.995
-487.674
1052.8
-82.8729
-26.2806
1095.62
21.9936
-10.4438
1012.37
220.554
-30.9804
983.924
25.5582
-7.42208
2.4509
22.9302
5.42125
982.993
12.995
-5.52018
47.7415
20.2224
50.1195
982.858
21.9314
-13.7844
21.1986
21.8648
21.9884
992.976
17.509
-11.8689
34.4948
20.1428
35.7512
1002.75
17.5448
-15.7459
23.1492
17.5357
23.1323
1015.7
13.992
-14.9585
27.6488
14.3917
27.5348
1026.29
11.3997
-12.8963
20.8542
10.3624
19.1982
1029.49
7.49798
0.770909
17.2825
5.49087
15.6432
1007.72
7.84498
29.5979
970.212
-17.7342
42.3322
933.634
-29.5088
26.8455
917.346
-32.5493
4.24603
930.02
-27.7731
-23.0954
-5.42327
-27.8274
624.961
-536.822
3188.11
660.972
315.355
-692.613
931.047
-114.787
-355.284
879.868
38.6848
-70.378
877.309
49.6594
-25.1071
208.411
45.1942
-40.4385
215.705
204.859
207.831
103.424
50.035
102.843
192.42
41.8911
-0.341342
-175.5
177.172
15.867
-4.5446
-191.057
193.176
22.6173
-2.80461
-198.966
206.498
14.2204
-4.24321
-215.915
219.176
18.4822
-4.19806
-224.117
227.548
14.6524
-4.09189
-233.703
233.684
13.2003
-1.78203
-234.351
229.286
10.8594
1.70386
807.983
4.87574
35.9502
-222.402
-223.037
-210.473
-202.914
8.62767
1.58215
7.65323
777.707
-8.94052
21.4826
771.066
-20.0782
-2.7895
776.706
-26.3554
-11.834
806.038
-23.0917
-34.014
0.431577
-34.0795
15.2738
-911.749
-808.496
167.546
632.392
-469.31
847.922
30.8251
-825.987
748.943
223.388
-85.7236
173.049
236.711
-101.59
156.585
175.631
158.217
188.336
41.178
-11.2711
-14.6027
-49.8177
48.1093
16.4487
-0.137598
-49.5323
-6.52827
48.8675
9.18129
-1.98826
-49.0184
-4.65104
48.0234
6.43076
-0.784664
-48.6834
-2.78607
48.5322
3.55739
-0.620043
-50.5385
-3.958
50.6174
4.58472
-0.705596
-52.4782
-3.14728
52.725
3.29277
-0.392283
-54.9421
-2.75191
55.0966
2.83446
-0.237058
-56.2429
-2.3559
55.6496
2.87954
0.069661
-51.8666
186.418
6.71301
7.85264
-47.8689
-50.176
-46.1961
710.39
-25.5732
3.36454
-181.588
-171.244
-175.874
-168.416
729.572
-37.036
-2.22404
747.616
-37.0297
-7.36939
766.603
-24.6964
-17.3833
6.96575
-19.4903
14.0238
528.028
-1330.93
-65.6951
264.725
447.386
196.814
-44.391
-187.293
180.005
98.5467
141.65
52.6758
158.129
38.3361
50.6232
60.5068
56.4446
-63.8552
81.8196
50.4354
-15.7239
-19.5543
-29.145
33.3786
16.3253
-1.00462
-15.1326
-39.2793
40.459
14.5155
-0.562513
-11.2427
-42.6959
42.3702
11.5265
0.0419436
-7.24444
-40.432
40.1042
7.79019
-0.217946
-5.89403
-40.056
40.0736
5.75094
0.125432
-5.20061
-39.7845
39.5311
5.33661
0.117445
-4.63264
-39.0085
39.0094
4.62103
0.0107685
-4.19002
-39.6163
40.0248
3.69778
0.0838276
-42.2361
-5.18693
175.896
3.70313
-3.50638
-43.1256
-42.2734
-43.2703
795.071
-55.0852
-4.05805
-184.103
-201.03
-180.874
-195.494
797.92
-52.5994
12.7147
795.58
-43.3772
8.68669
793.619
-25.4379
2.70293
6.28398
-3.07145
436.877
1405.6
-1070.94
374.459
340.505
-13.3618
449.274
31.8117
-151.018
344.587
-70.5737
273.807
77.1113
-27.0651
204.732
84.2528
77.2722
86.4129
-30.6881
90.6828
13.5436
3.57309
-10.665
-26.66
29.2364
7.61945
0.469142
-11.8226
-34.4277
35.8186
10.6124
-0.180699
-12.2283
-38.0334
38.2071
12.6965
-0.641918
-9.26699
-37.7676
37.785
10.0923
-0.842684
-3.81534
-39.507
40.2059
3.58882
-0.472323
-2.7507
-42.0076
42.7495
2.20583
-0.196991
-2.88736
-45.3378
46.2795
2.29991
-0.354221
-3.06594
-48.6682
49.1875
2.92934
-0.382744
-50.4777
-1.93485
212.921
-4.22547
-5.64386
-50.3781
-50.0747
-50.1859
871.97
-59.8512
-7.11781
-220.538
-221.817
-209.63
-208.102
860.135
-47.8818
7.11812
840.655
-33.2798
9.38245
830.448
-21.9122
6.68096
-2.85164
5.34914
1575.93
1942.3
-2070.67
1816.77
681.325
-581.661
1147.87
299.959
400.758
869.342
-2.17858
210.13
93.3755
-10.3012
356.324
141.301
112.547
149.031
-2.98977
107.855
-25.2801
13.7906
0.401605
-34.925
37.2752
-4.24965
1.49781
-3.47393
-41.1813
43.0619
0.024432
1.56894
-12.4969
-44.986
44.0362
11.3473
2.09936
-12.0511
-43.1287
43.6875
12.0174
-0.525111
-4.11649
-47.1724
47.9482
4.14866
-0.807974
-1.81761
-48.9977
49.372
1.83062
-0.387332
-0.215308
-51.8287
52.6291
-0.422514
-0.162628
-0.0244755
-54.121
54.7419
-1.33593
0.739511
-56.6612
11.9099
214.754
-12.1695
4.14137
-55.1854
-54.2777
-52.512
761.779
-54.9478
-0.660067
-207.366
-184.369
-195.058
-179.23
769.97
-48.2037
-7.8684
779.506
-35.3411
-7.47547
788.84
-27.0695
-4.176
-10.9605
-3.12007
874.789
1553.55
-982.664
1080.76
302.801
172.554
939.367
387.454
53.8969
925.491
105.278
-93.58
810.118
70.6678
34.4039
179.633
-163.551
-11.281
46.19
90.9608
47.2505
89.8938
183.233
170.525
177.264
7.78937
172.359
-28.1993
9.36875
4.02057
9.02994
5.26523
3.68579
-146.75
131.62
-10.3804
8.69179
4.39567
4.19541
4.54164
-3.74777
-141.286
144.363
6.18888
4.4624
-3.23876
-3.81336
-2.92833
-6.75961
-152.314
155.812
9.80728
5.34403
-3.47567
-5.69571
-2.71848
-4.2733
-166.338
164.222
8.75992
4.79259
-1.80094
-4.07458
-1.28767
-2.63122
-166.301
162.925
2.44765
4.3275
0.444324
-2.08875
0.87739
-0.165711
-166.422
164.046
-5.84265
3.2846
2.34574
0.173275
2.58141
1.48507
-166.967
166.737
-11.9908
1.69106
3.6793
1.63302
3.7318
673.789
-66.4447
-0.864641
11.9942
18.287
11.4327
17.4335
-170.613
-168.107
-164.061
-162.845
691.96
-68.4525
-4.66661
705.631
-56.927
-4.94737
716.567
-43.9643
-2.31311
723.661
-28.0581
-6.1055
-8.4944
-11.2375
1929.52
973.227
280.825
1620.51
760.878
-149.065
994.176
769.4
244.384
892.492
488.855
-281.894
816.522
233.104
-86.466
713.845
10.5381
-71.4122
707.335
12.7246
18.407
8.80081
-18.175
5.55369
-20.8006
696.237
-71.4158
7.84255
13.2887
24.765
11.8821
24.7357
692.231
29.4811
2.60857
-5.4798
-8.89028
-5.61314
-8.10124
684.529
5.29356
-17.2009
-1.5976
10.3754
-0.575827
11.4074
684.505
7.81078
-7.67116
-4.10464
1.84487
-1.88683
4.03157
687.115
-41.2023
-3.06069
4.6029
14.5873
6.81427
15.6482
689.743
-65.1437
8.3462
10.4771
16.1292
11.26
16.3026
688.401
-82.8659
9.54268
16.3652
21.1325
16.2081
20.9594
687.042
-71.5989
6.51386
684.861
-69.3133
3.04138
681.596
-53.9531
0.290906
679.447
-40.5386
-1.27631
680.495
-24.0426
-5.06407
-5.58269
-9.34387
3147.41
524.487
-2044.02
2746.06
1350.65
-188.428
1688.48
1161.17
665.812
1507.71
714.895
-45.2773
1385.55
307.016
48.2546
1307.3
56.4367
32.3442
1132.67
4.13877
183.219
973.673
-3.60751
91.1885
892.108
82.5359
28.5098
869.001
53.9962
-25.5957
859.218
40.3773
-22.7833
826.563
-3.78565
-4.76115
762.569
-25.7703
24.6204
700.117
-45.8374
25.4233
657.524
-41.8386
12.8328
632.544
-50.6786
6.3451
625.254
-46.3229
-0.340596
626.239
-39.6867
-1.83627
634.58
-27.8996
-4.4838
-9.66468
-6.45292
1135.99
846.141
-278.725
1369.72
692.073
424.852
1402.57
614.058
514.259
1738.4
379.554
-0.487566
1801.53
237.996
5.88955
1828.77
105.369
-76.1707
1560.71
154.497
117.706
1303.11
148.499
105.486
1157.4
165.115
63.1363
1120.85
93.0286
-2.48295
1103.01
54.5094
3.70459
1058.78
22.1377
18.3063
951.685
23.3098
58.0174
848.678
7.93358
49.2361
775.067
0.477665
31.2939
719.543
-15.3706
20.216
686.622
-25.1597
11.7584
668.758
-26.7527
4.92969
663.392
-21.6483
-0.885665
-8.66597
-5.17972
352.383
579.88
-430.498
518.376
354.022
172.059
758.355
191.818
182.261
966.782
180.329
-9.20061
992.2
120.509
92.0688
1032.91
105.037
-40.3733
1015.78
115.657
55.9624
1034.01
98.0755
32.1974
1052.97
80.4643
65.693
1058.3
50.6543
37.0407
1002.26
63.0206
47.5318
915.747
60.5795
48.0683
829.765
66.3758
42.9166
782.165
38.7051
16.8282
755.176
15.9806
11.4857
726.098
5.37742
8.33041
695.164
-2.38055
8.15478
671.203
-6.36381
3.57163
658.775
-5.84751
-3.37186
0.0762798
-7.35049
1034.77
-2317.73
-1228.89
838.048
409.028
141.718
872.45
292.999
-135.582
894.409
170.891
-12.5221
890.954
123.846
0.118588
928.204
34.493
33.2944
956.611
-20.9119
108.162
991.94
-44.9934
107.74
978.553
-32.2167
126.068
931.17
11.4861
86.5508
840.062
85.8874
68.2415
776.109
93.8347
30.6976
756.264
76.2432
9.97717
756.569
38.5399
-0.139686
763.315
14.1277
-4.89275
761.538
15.7
-8.54608
748.275
18.0436
-7.16128
731.127
18.9083
-8.12379
717.251
18.4057
-10.3776
17.8747
-13.8615
-582.187
-1434.99
-3975.83
-179.014
-81.4209
87.2758
528.543
21.9237
-436.482
762.793
44.4087
-107.767
931.239
44.3494
-88.9497
1032.6
-5.53017
-61.3411
1068.31
-70.7003
14.0837
1097.18
-90.1509
16.2809
1026.05
-80.0873
119
914.567
8.04783
114.926
802.393
87.9502
110.111
740.623
100.514
55.0913
726.166
76.321
14.3795
735.171
27.148
2.38648
755.374
-1.97245
-4.10328
770.954
16.2899
-16.1698
777.301
35.208
-23.5109
777.627
46.9488
-28.3666
776.345
52.9334
-33.2456
52.1792
-34.9887
36.9253
-2188.79
117.956
-162.451
745.703
-605.824
849.427
-59.315
975.017
-81.2407
1057.05
-87.5595
1126.28
-139.933
1223.79
-187.667
1315.87
-172.164
1467.29
-143.374
1581.55
-26.3044
1617.93
64.1324
1562.75
131.502
1400.72
189.174
1210.53
188.217
1091.49
135.336
1029.76
96.9344
1003.63
73.0804
999.399
57.1625
47.6693
7.31645
144.705
252.264
598.677
-339.727
-254.996
987.84
-208.21
41.5727
1143.82
-119.23
73.8117
1197
44.8618
-140.385
1183.51
75.2033
-188.61
1092.3
96.3879
-169.312
1021.94
63.0175
-185.869
948.776
41.4888
-101.347
903.402
38.4221
-74.7032
880.589
40.3663
32.2144
866.806
33.1117
22.0281
858.097
7.62996
3.04427
860.06
-4.3358
-6.76285
870.595
-19.7282
-5.38326
888.722
-24.5261
-2.22907
913.96
-33.0733
4.3072
939.466
-34.7366
2.68746
974.659
-47.2173
9.15519
-44.4619
12.4899
-66.4495
136.394
-2219.04
303.984
-498.025
-1047.7
533.169
-264.112
-703.987
607.746
-160.81
-171.933
812.381
-90.2306
-237.502
853.536
30.7949
-51.9296
903.131
27.8953
18.0796
898.905
62.7609
19.966
883.375
48.3358
69.8511
861.439
65.5041
54.2313
848.215
54.8483
70.5613
837.383
46.5741
33.2132
830.402
12.2999
21.0862
828.82
-2.11166
8.74379
833.222
-24.2551
13.4987
842.693
-32.661
11.9501
853.974
-41.9247
17.5023
864.581
-41.6198
23.5592
873.962
-52.9602
27.822
-47.2683
24.4292
675.406
-145.016
-2301.08
705.438
-293.972
-529.233
856.447
-271.463
-692.18
937.296
-190.618
-153.816
1014.69
-156.756
-107.272
1037.89
15.9293
-47.2761
1024.67
31.4528
58.6157
991.214
100.609
49.447
945.699
87.2529
88.0309
911.991
102.102
54.3928
887.1
75.8093
59.2408
871.861
63.622
28.0139
857.214
27.9937
26.4563
846.43
8.72424
8.8663
840.652
-19.9905
13.3029
838.785
-30.862
9.50906
835.995
-40.2075
7.31686
833.241
-39.1704
6.95437
826.346
-45.2674
8.39709
-37.9017
0.754563
1497.63
-562.464
-952.494
1842.31
-53.9144
-222.956
1387.51
117.602
301.716
1214.8
-51.4389
70.263
1051.4
-45.7463
41.0583
1017.6
40.1023
-35.2033
985.821
49.6061
-10.0985
966.298
119.936
-26.2395
945.951
99.0802
13.9108
929.226
117.908
11.5588
911.984
88.2989
29.6322
894.181
81.3079
17.1638
872.598
47.3754
20.7951
851.275
32.0778
6.26539
833.719
-3.18422
5.67634
823.196
-21.973
-1.94184
818.096
-36.766
-3.45992
814.665
-37.0084
-2.29732
805.208
-36.5017
2.07798
-24.8007
-5.61809
426.547
-1119.8
-397.198
963.286
-512.122
-497.614
1112.8
-110.337
406.084
1120.72
-77.1677
107.952
1003.38
17.9205
131.986
958.597
79.7143
-8.70922
941.407
51.0561
10.9736
932.797
131.229
-24.7413
928.825
98.0463
-0.663205
923.367
123.339
-10.9436
915.489
92.2146
4.31566
905.948
90.8025
-3.51727
891.389
60.4356
2.96695
878.069
44.7217
-1.44105
865.33
6.03978
0.733599
858.252
-17.6291
-1.37743
855.125
-35.726
-2.06006
851.98
-35.7268
-2.39732
836.226
-22.9922
2.57985
-4.75682
-9.0942
1168.92
-861.13
-579.678
1384.27
-707.395
-491.073
1148.85
-78.0377
153.252
1103.86
-35.092
-87.2308
987.279
93.4827
26.2539
924.471
155.155
-26.2931
917.55
61.8664
19.0742
890.12
165.712
-5.66669
883.644
105.638
13.1237
875.265
134.594
-0.515278
873.745
93.1591
4.94599
872.703
91.8509
-2.15815
871.633
59.8038
-1.70135
875.44
38.66
-1.85359
878.904
0.385484
8.73116
881.43
-23.2444
14.3422
877.775
-31.9496
11.925
871.797
-28.5476
2.35457
854.341
-5.01832
-1.54714
15.3402
-16.0874
330.414
-238.972
-1075.09
386.95
-507.373
-504.86
802.294
-236.633
-744.424
876.076
-75.7959
-59.3583
927.946
57.8233
-26.6539
831.716
264.957
-44.5524
806.162
28.2432
-3.55559
12.8859
27.574
14.8507
791.683
32.4022
-8.32671
56.6044
36.1621
57.8285
791.099
26.4782
-10.7727
25.3806
26.0944
25.2561
794.717
25.6616
-11.2504
39.1752
26.2126
39.3084
800.016
19.3138
-13.3775
24.1575
18.4634
23.5571
805.87
15.3453
-13.8782
27.8695
14.6417
27.0601
809.141
9.08483
-6.58335
17.2874
7.91072
15.9365
810.29
2.94727
8.57447
12.9037
1.71697
12.1395
808.831
-2.17007
33.612
803.159
-15.4364
40.1963
790.683
-17.0743
24.4464
780.647
-15.3027
1.03686
779.38
1.30986
-28.157
19.2349
-33.3077
857.274
-737.714
2162.13
835.275
-41.0057
-1136.98
810.296
-156.416
-410.523
758.897
24.7255
-119.501
758.296
69.1474
-35.8291
178.552
59.9571
-50.0425
180.35
169.093
170.085
104.868
64.2396
105.712
0.398587
167.147
42.742
-3.49243
11.8201
-155.862
159.155
29.8304
-12.5415
6.16456
-169.345
168.989
27.6078
-6.93785
8.61179
-172.771
177.666
20.9714
-8.81655
6.9933
-183.941
184.373
19.2764
-7.38787
5.87073
-187.303
188.768
13.5212
-5.51182
2.51937
-193.161
191.552
10.231
-2.0568
-3.20399
-191.822
189.108
4.63103
4.2343
692.421
-0.504609
35.0502
-186.168
-177.995
-174.264
-166.422
6.54619
-1.43327
6.54991
686.83
-6.27773
17.9143
683.431
-10.9786
-5.48656
685.305
-13.6354
-15.3748
696.911
-4.3708
-39.9395
13.5636
-39.5018
678.287
-297.624
-1064.79
665.502
403.731
-901.262
705.268
69.1613
-1091.33
623.423
189.186
-168.339
154.1
197.442
-174.396
136.794
147.297
129.742
16.2161
166.518
52.271
-20.948
2.07538
-13.9894
-44.4617
43.3224
15.8237
-2.77033
3.90442
-41.3439
-8.17679
39.9731
9.52218
-3.87901
1.72948
-40.7097
-5.37114
40.2454
5.98079
-1.87482
1.75493
-41.2224
-3.94273
41.0872
4.13722
-1.81424
1.55645
-42.721
-3.65566
42.6918
3.76319
-1.63477
0.988847
-43.7974
-2.69391
43.6822
2.85558
-1.03533
0.383486
-44.8719
-1.93246
44.5698
2.16245
-0.311395
-0.984207
-44.6592
-0.859781
43.8477
1.47122
1.18427
-42.8272
-9.56603
164.347
2.37933
8.83356
-41.3614
-41.7642
-40.5452
645.491
-17.5379
7.35916
-164.614
-160.205
-158.546
-154.86
655.052
-21.7856
-0.978454
661.976
-20.5819
-7.34689
669.057
-8.13855
-20.6968
11.9038
-23.5292
18.5195
2063.58
-1296.37
-41.188
553.364
357.461
-8.10908
78.1962
-229.407
83.1762
117.641
121.91
51.5381
140.614
-12.5487
46.1084
49.5318
43.7103
19.4615
-58.9347
77.0031
36.5993
-22.5911
3.60856
-16.2496
-27.1628
31.0829
13.0007
-4.27976
1.82218
-11.9604
-35.8924
36.5688
11.4174
-1.95559
0.192355
-8.21793
-37.2645
37.1441
8.39388
-0.24792
0.642848
-5.49506
-36.483
36.3494
5.64303
-0.657276
-0.0980464
-4.65454
-36.4544
36.6087
4.60818
-0.00986123
-0.163387
-3.85398
-37.0243
37.1044
3.81932
0.117946
0.00988644
-3.10969
-37.459
37.5688
3.20393
-0.213884
0.0501976
-2.49281
-38.4318
38.8516
2.09067
-0.0678524
-40.5611
3.96577
-3.16668
165.493
-0.374385
-3.57724
-41.1549
-40.0785
-40.5464
695.38
-35.9742
6.13561
-169.833
-181.521
-163.543
-172.241
695.855
-24.8334
15.288
693.354
-19.2034
9.8092
690.679
-4.98308
2.2218
13.8061
-7.69267
-759.386
2683.86
-3392.95
-300.253
321.638
-240.769
9.73662
19.2898
-402.101
84.0157
-12.0587
329.228
69.301
11.4032
135.682
75.9551
64.1683
72.8528
-11.8903
-20.4694
78.0293
3.21944
20.4119
-2.06273
-6.46105
-23.8421
26.7097
3.31125
2.34494
-0.832236
-7.65379
-31.8462
33.1072
5.91715
1.30786
0.656353
-7.75003
-34.9232
35.1025
7.51385
-0.599488
1.47512
-5.7878
-35.1846
35.2303
5.66047
-1.39347
0.940494
-3.39899
-36.1286
36.6694
2.88801
-0.970271
0.626211
-2.61702
-38.7569
39.5435
2.0733
-0.869027
0.808566
-2.01467
-41.7183
42.3909
1.54152
-1.00807
1.08135
-1.03822
-44.2558
44.9023
0.576124
-1.26575
-46.8675
5.74059
6.13339
190.27
-11.2682
-5.13337
-46.9039
-45.9994
-45.9718
734.066
-36.3156
-2.65918
-191.08
-188.2
-181.041
-177.863
726.645
-20.173
9.87924
720.073
-13.0575
9.80782
720.406
-3.46474
4.83035
10.9605
1.09509
583.817
2839.33
-4734.6
588.211
791.486
-1055.9
416.464
351.978
239.817
330.317
49.2807
234.937
77.3369
25.2999
328.269
103.606
70.8473
92.6853
-29.2509
9.42716
96.4329
-34.3574
35.0852
-7.13582
5.46349
-32.344
34.5386
-8.15289
7.6306
-5.88279
-0.201654
-35.9059
36.8472
-1.33663
6.47978
-4.14172
-6.76856
-39.2774
39.5771
6.4042
4.20639
0.542681
-4.66738
-40.3408
40.5976
4.16387
-0.296039
1.0178
-1.99904
-41.1416
41.2447
1.74727
-0.869162
0.351742
-0.467406
-41.8897
42.1876
0.0279139
-0.210075
-0.342506
0.549113
-43.437
43.8972
-1.15629
0.489512
-1.24938
1.57201
-45.4849
45.9549
-2.05876
1.26615
-46.6996
-4.40822
12.8418
178.945
-10.5535
3.6931
-44.8378
-45.3412
-43.6392
664.676
-34.7785
-0.0282994
-177.687
-164.053
-167.88
-157.224
670.518
-26.2263
-7.6571
675.748
-18.7058
-7.05738
685.663
-10.1723
-7.38362
3.79491
-8.42553
942.967
2135.24
-3106.37
709.532
1150.61
46.8605
615.724
715.315
-215.632
564.697
111.089
-104.362
552.563
43.6706
28.1673
120.398
-187.6
-10.5072
48.1743
87.5236
49.8815
86.2627
125.778
107.695
113.676
5.63565
-22.0347
118.218
-13.1229
19.9687
3.49988
5.03196
3.20153
1.15523
-14.619
-98.5087
98.1962
-4.59155
14.127
1.95905
0.652339
1.62949
-3.24152
-8.03232
-113.631
116.847
4.14311
9.43059
-1.41371
-3.03376
-1.06851
-3.50362
-7.81658
-121.223
123.806
4.18361
8.35259
-0.52784
-3.06925
-0.20211
-1.99831
-6.82739
-134.286
134.458
1.39272
7.45863
0.606782
-1.67981
0.876146
-0.294475
-5.82794
-138.007
137.627
-4.19922
6.17295
2.23632
-0.0799188
2.37171
1.04492
-4.55735
-143.569
143.448
-8.59344
4.87687
3.10687
1.12713
3.11582
1.83447
-2.95412
-147.208
147.455
-11.5102
3.16266
3.6926
1.84872
3.6794
582.268
-54.6888
0.585979
9.83386
15.4755
9.00443
14.9978
-150.27
-145.775
-143.407
-138.889
598.639
-51.2256
-4.59138
610.474
-36.5746
-6.43374
620.586
-27.3778
-3.75294
630.082
-14.6181
-11.1559
-0.537119
-17.8802
747.254
983.533
1434.49
792.392
1016.04
-59.6303
737.048
696.673
318.37
649.852
218.184
-301.794
596.719
77.0165
-66.6788
474.182
-62.4082
-74.0672
509.294
23.5712
22.7544
-2.64526
-25.4013
-7.48485
-27.4993
502.26
-85.661
10.6891
15.4877
28.5907
16.3045
29.4655
521.046
-5.94188
6.44095
-3.25071
-5.43446
-3.3048
-4.68657
523.368
-47.6595
-12.5666
4.15276
15.2044
5.15992
16.1867
533.757
-34.1717
-3.48802
1.73329
7.30056
2.52594
8.03973
541.868
-67.944
2.25262
9.55726
17.3921
10.0108
17.5588
551.99
-68.1778
11.5556
11.4303
16.2472
11.1354
16.0344
557.924
-77.9149
12.6313
15.0692
19.8251
14.4438
19.5535
565.249
-64.0055
8.50624
571.342
-57.6757
3.39765
577.587
-41.7022
-0.826095
582.996
-30.7935
-3.26989
590.553
-17.1338
-10.1058
-3.04448
-16.4988
1807.2
357.634
-5608.63
776.801
1312.74
545.274
1084.72
784.259
270.307
942.607
392.849
-77.8283
900.598
117.062
50.2184
821.981
10.5649
37.9878
792.999
29.1947
206.578
723.74
-6.85296
81.639
690.932
19.8356
35.5413
661.813
-20.2993
-23.837
640.015
-22.8056
-12.352
617.179
-54.1895
4.32064
593.422
-48.1454
28.3449
570.874
-57.8472
27.9032
554.451
-49.4535
14.7044
546.333
-50.8311
7.61873
547.149
-42.6211
-0.238181
551.545
-34.3663
-2.65916
561.128
-22.5596
-8.64197
-7.38317
-12.7835
-434.894
723.539
-755.544
273.561
886.86
142.276
919.105
495.931
157.044
1148.62
226.469
-63.6262
1118.39
111.441
41.7472
1069.78
41.6791
-58.6747
966.453
96.0924
154.131
891.08
62.5177
111.487
838.642
53.0283
82.3813
804.129
4.38698
7.34398
769.958
-2.00547
17.0762
732.226
-19.7688
21.6167
688.014
-6.18934
60.2733
648.919
-18.6397
49.124
619.138
-21.8609
33.4819
597.775
-30.2309
20.9784
586.517
-30.3938
10.7899
579.764
-26.6797
3.99591
579.892
-19.4982
-4.0755
-7.8379
-10.9268
-58.9192
587.736
-3624.54
130.988
818.266
50.7445
512.138
280.538
16.5043
603.567
157.964
-32.1253
663.264
43.3438
100.469
688.61
20.5894
-44.6295
729.107
32.1145
79.4434
758.553
31.7984
33.4706
775.09
29.5322
72.6525
763.742
12.8497
39.9261
726.501
24.9704
57.7968
682.761
21.6549
50.3842
647.505
23.0704
48.9127
625.49
1.11861
19.0848
614.434
-10.0489
10.7305
604.147
-17.2139
5.60025
595.142
-18.0328
4.79817
587.43
-15.9263
0.531032
583.456
-11.1438
-7.75245
-2.78367
-14.6041
118.851
-672.378
-1068.81
252.032
414.538
412.266
572.865
234.622
-410.5
685.615
112.79
-80.0984
724.528
32.8694
-28.3205
754.152
0.0869982
24.1727
792.193
-22.305
124.541
816.615
0.960959
114.155
799.04
25.5957
147.58
749.367
61.0435
88.0301
686.787
83.8885
71.9029
644.725
71.3952
23.0193
633.349
38.5816
5.8421
640.171
-1.56011
-4.28226
650.834
-16.5885
-9.01612
654.927
-16.616
-13.237
652.778
-11.1103
-11.9355
647.573
-5.90759
-12.9372
642.542
-1.4367
-15.0536
2.6219
-19.6061
-1506.62
-1070.18
-3063.09
-243.078
-526.347
-235.378
356.983
-219.343
-582.579
592.78
-103.435
-127.339
733.903
-52.7105
-144.493
787.34
-15.3294
-99.3618
794.256
-17.0265
1.88923
799.595
19.8263
-7.92293
778.334
63.3701
102.486
748.197
128.6
77.5061
714.431
146.839
80.926
691.529
130.335
19.0546
692.295
55.6477
-3.45226
708.548
-2.19657
-13.2305
725.338
-23.015
-14.4667
734.206
-10.2947
-31.3588
738.808
2.54912
-41.7723
740.781
13.428
-49.6759
740.351
19.731
-53.9827
22.3288
-54.7388
582.928
-84.432
290.897
-396.767
652.3
-1186.57
813.034
-323.484
939.211
-260.128
995.041
-158.719
999.981
-161.899
1024.55
-192.413
1043.34
-127.58
1103.33
-74.7628
1216.89
6.96926
1337.42
73.9385
1350.04
174.536
1271.44
265.57
1170.6
266.048
1102.71
192.927
1066.98
135.217
1050.23
103.258
1048.04
79.0833
63.127
424.38
-1096.75
2970.03
621.115
-309.162
-142.569
1013.38
-140.482
-210.212
1158.28
-82.3059
11.22
1157.96
54.0719
-194.139
1089.01
61.7394
-181.395
940.55
76.2154
-97.0711
830.822
40.9277
-117.069
759.625
14.5986
-44.7488
726.571
10.2589
-51.9078
731.892
2.69851
24.1949
740.37
2.535
11.0147
748.482
-12.6254
7.55809
756.823
-16.3703
1.26574
770.55
-25.9436
6.83399
788.817
-25.3837
4.88776
814.377
-31.474
10.2214
839.057
-31.1029
9.11032
874.754
-43.0627
16.5203
-38.1441
17.6966
148.223
-229.03
-2628.74
381.837
-410.829
-1179.64
508.921
-225.357
-746.196
571.979
-125.343
-191.953
715.378
-55.9832
-270.846
722.996
53.8427
-51.6511
759.211
35.8973
22.1824
737.422
63.4858
19.1968
729.151
35.2142
57.5064
711.403
47.9884
34.2501
710.452
28.5485
45.6622
704.192
25.0044
17.0036
701.975
-2.17714
12.8556
700.086
-8.61989
2.88217
703.697
-23.5578
7.50161
709.253
-25.2357
6.2459
716.555
-31.8909
10.6173
724.277
-29.7898
14.5246
734.023
-40.897
15.9096
-33.4928
11.7759
786.858
683.738
-990.309
757.635
-207.112
-703.726
746.034
-250.078
-655.859
793.862
-175.572
-151.415
843.37
-117.014
-95.7497
834.438
48.4765
-32.9775
823.099
56.8271
49.0252
791.622
113.92
30.4895
766.542
83.3795
64.9457
743.401
92.9706
32.5516
729.729
59.2579
42.2036
716.454
50.1015
16.1915
706.616
15.9805
18.1368
697.633
3.72539
5.50435
693.398
-15.3515
9.33176
691.919
-20.0423
5.7944
689.077
-27.1239
5.39242
685.679
-24.4193
4.98203
680.669
-31.4626
3.97188
-23.3898
-8.6142
1560.24
1041.09
1011.93
1422.03
5.22186
-297.088
1117.63
136.548
219.495
1028.67
-14.4262
-1.92526
894.305
17.511
40.9001
850.575
82.9443
-25.941
818.623
72.9425
5.73867
789.399
134.675
-17.7709
771.494
99.1957
15.9999
751.719
117.018
7.2863
738.428
79.1792
23.0019
722.069
73.0533
10.5702
707.361
36.5807
14.9038
692.95
20.9424
3.45953
683.839
-4.58294
4.0186
678.258
-15.8015
-0.601977
672.937
-23.982
-1.28095
667.716
-21.1432
-0.351877
657.879
-20.3989
0.850556
-10.0777
-13.8307
480.799
-1.22247
1489.96
932.519
-346.332
-597.78
929.613
-10.5254
556.064
920.682
43.5917
58.8644
838.016
69.8881
162.275
785.232
134.077
-7.05769
772.784
79.08
17.2833
751.519
150.424
-19.2252
746.829
100.846
2.37695
735.499
126.127
-8.72303
729.213
85.2646
4.51592
718.993
83.0683
-3.31228
709.764
46.5978
2.17977
701.689
28.3823
-0.806179
697.431
-1.54228
1.9505
696.254
-16.8183
0.815904
693.703
-23.5318
0.041292
688.457
-18.7727
0.477632
672.142
-3.39205
1.88797
8.32256
-16.3084
1236.04
-1017.48
-305.811
1271.67
-385.149
-487.888
1080.86
125.005
208.533
980.855
110.168
-53.7993
840.917
179.19
56.8906
761.454
207.385
-20.1384
758.259
80.9656
20.3833
720.495
190.299
-7.77797
714.283
109.614
10.5682
700.936
140.531
-1.57275
698.877
87.7884
4.48199
695.132
86.1954
-1.54017
694.197
45.8382
-0.00666927
697.246
23.9021
-0.423601
702.112
-4.71818
7.0416
706.541
-17.237
10.3322
704.823
-18.2385
8.34931
698.827
-11.9657
1.54375
681.361
14.5859
-2.05906
24.2947
-21.2764
708.433
-1674.77
-3286.82
396.213
-249.475
-328.315
698.084
-29.8934
-891.396
753.255
37.9479
-42.3088
774.377
156.657
-25.2437
656.166
317.334
-36.2906
642.387
29.6235
-0.277151
17.2398
27.3692
17.2341
623.658
42.3264
-8.82702
61.1272
44.5276
61.5473
630.184
25.5541
-7.16721
25.3369
23.8813
24.7099
631.83
27.4138
-7.02746
39.9127
27.5482
39.7878
637.839
16.7193
-8.01671
22.5729
15.4787
21.6474
641.751
13.3004
-8.53893
25.8657
12.5701
25.2081
645.085
5.80179
-0.420739
13.4288
4.73964
12.3712
647.372
0.0897424
9.05073
10.5548
-0.308285
10.8022
653.561
-0.48784
23.1924
658.841
-7.14526
24.8253
656.308
-5.82518
14.5655
650.43
-2.81017
-2.24028
643.347
16.4162
-22.9045
24.4803
-32.5614
1577.88
-2193.96
688.538
704.759
-149.784
-363.547
721.278
-63.1276
-393.808
627.915
74.3738
-62.5636
637.13
132.478
-20.8651
144.405
74.8285
-29.7303
144.991
133.683
133.793
111.512
78.3036
112.636
2.45943
135.553
42.0314
-6.01521
13.0212
-125.597
130.407
36.0131
-11.518
7.27821
-139.737
138.641
26.2116
-6.83954
8.62527
-141.828
145.851
22.0889
-7.32344
6.93585
-151.54
150.759
16.7093
-6.14528
5.59235
-153.249
153.772
11.8592
-4.67405
0.642696
-157.788
155.762
7.03027
0.155467
-5.41625
-156.899
154.818
2.14929
5.43765
587.582
-1.78894
24.2099
-154.621
-148.781
-143.911
-139.131
6.3024
-1.92193
6.62194
589.93
-1.07225
9.49313
587.819
-3.50446
-5.69661
586.571
-5.16162
-11.7754
589.258
4.43445
-30.6445
15.8085
-36.9907
2232.88
-1022.77
1939.09
1295.76
195.321
-309.244
739.81
115.488
-714
570.788
209.31
-134.253
129.179
209.285
-147.063
113.529
119.513
104.427
21.2858
136.167
66.5686
-20.014
2.60484
-13.093
-36.4222
35.0803
14.8243
-2.9942
3.2416
-32.8907
-7.68688
31.8103
8.44229
-2.91667
1.83295
-33.7996
-5.12278
33.5043
5.28679
-1.70165
1.70739
-34.4438
-3.80915
34.2812
3.84323
-1.57886
1.53657
-36.017
-3.19334
35.8402
3.27602
-1.44245
0.870988
-36.7154
-2.04393
36.4272
2.31396
-0.852735
-0.0161916
-37.5781
-1.09851
37.114
1.52089
0.0579338
-1.5647
-37.5587
-0.147668
36.9469
0.806826
1.51729
-37.4182
-7.49763
144.871
0.718082
6.32819
-36.5943
-36.4865
-35.7098
563.465
-7.59873
10.732
-145.295
-142.697
-137.528
-134.791
568.664
-10.3064
0.623939
570.194
-9.96923
-4.06881
571.076
0.223576
-17.3686
13.1634
-27.4364
-428.437
457.115
-80.7045
-180.579
178.352
126.572
-134.551
112.642
-272.589
13.8483
132.152
50.6674
35.8723
133.554
-43.8077
30.0873
30.415
24.4638
19.0885
-65.0116
63.6944
34.117
-16.0159
4.32456
-15.1923
-23.7234
27.0472
11.6871
-4.14311
1.67375
-9.31351
-30.7179
31.1904
8.57757
-1.4103
0.309346
-6.19195
-31.8827
31.9387
6.12194
-0.295315
0.527499
-4.38941
-32.034