/*--------------------------------*- C++ -*----------------------------------*\
  =========                 |
  \\      /  F ield         | OpenFOAM: The Open Source CFD Toolbox
   \\    /   O peration     | Website:  https://openfoam.org
    \\  /    A nd           | Version:  10
     \\/     M anipulation  |
\*---------------------------------------------------------------------------*/
FoamFile
{
    format      ascii;
    class       volScalarField;
    location    "7.8";
    object      turbidity;
}
// * * * * * * * * * * * * * * * * * * * * * * * * * * * * * * * * * * * * * //

dimensions      [0 0 0 0 0 0 0];

internalField   nonuniform List<scalar> 
12920
(
-0.0358529
-0.057549
-0.0702066
-0.0843077
-0.0874402
-0.084898
-0.084583
-0.0890886
-0.104223
-0.129662
-0.164762
-0.203861
-0.239548
-0.270816
-0.300575
-0.328494
-0.352748
-0.371065
-0.38692
-0.400184
-0.044632
-0.0538713
-0.0608947
-0.0939655
-0.11262
-0.132925
-0.148289
-0.161948
-0.177676
-0.197147
-0.22219
-0.251855
-0.282579
-0.312014
-0.338695
-0.361936
-0.382484
-0.402214
-0.42221
-0.443727
-0.0745291
-0.0557426
-0.0600227
-0.074748
-0.0899162
-0.111215
-0.136878
-0.165161
-0.194097
-0.221657
-0.24765
-0.272254
-0.294838
-0.314775
-0.331667
-0.347073
-0.362596
-0.380131
-0.400886
-0.426633
-0.0175872
-0.041405
-0.0715391
-0.0948874
-0.10641
-0.112898
-0.124686
-0.144231
-0.171483
-0.200964
-0.228953
-0.254379
-0.276325
-0.295098
-0.310586
-0.323339
-0.336811
-0.354101
-0.37643
-0.40519
-0.0257142
-0.0423512
-0.0589399
-0.084131
-0.107895
-0.122772
-0.135829
-0.147553
-0.164741
-0.183775
-0.204482
-0.224207
-0.243009
-0.26052
-0.276587
-0.292075
-0.307803
-0.325442
-0.347712
-0.376307
-0.0264598
-0.0498115
-0.0668809
-0.0839593
-0.106823
-0.131075
-0.153267
-0.170404
-0.186207
-0.200075
-0.213357
-0.225378
-0.237701
-0.251346
-0.266425
-0.282581
-0.299793
-0.317356
-0.336306
-0.358363
-0.0238209
-0.0596878
-0.0584858
-0.0785061
-0.0998092
-0.120547
-0.140966
-0.159319
-0.172524
-0.184354
-0.195637
-0.209417
-0.226684
-0.247108
-0.26633
-0.283886
-0.300758
-0.313893
-0.321322
-0.335492
-0.0217736
-0.0415769
-0.055013
-0.0786017
-0.0984636
-0.117518
-0.117505
-0.116339
-0.12087
-0.118097
-0.121722
-0.12447
-0.133794
-0.143464
-0.154742
-0.178066
-0.197765
-0.215413
-0.232181
-0.258856
-0.0410418
-0.0563906
-0.0586822
-0.0858252
-0.0979902
-0.0968741
-0.100214
-0.0946847
-0.0943795
-0.0924009
-0.0916896
-0.0923323
-0.0955513
-0.100796
-0.114232
-0.139651
-0.166567
-0.194654
-0.22505
-0.261794
-0.0698274
-0.0768542
-0.10397
-0.128234
-0.142404
-0.109635
-0.09392
-0.0896367
-0.0921111
-0.0958678
-0.100697
-0.104177
-0.105532
-0.105111
-0.110809
-0.138088
-0.171239
-0.205455
-0.240413
-0.275568
-0.0425431
-0.0557401
-0.0883026
-0.129727
-0.160972
-0.143109
-0.124585
-0.105086
-0.0975161
-0.0972247
-0.0956294
-0.0931361
-0.0917225
-0.0902609
-0.0962113
-0.130744
-0.164267
-0.199789
-0.237209
-0.273517
-0.0224172
-0.0378459
-0.0566478
-0.0863042
-0.123306
-0.131481
-0.13365
-0.124913
-0.106624
-0.0958765
-0.0913548
-0.087265
-0.083555
-0.0807581
-0.100298
-0.181582
-0.216784
-0.248849
-0.280492
-0.309536
-0.0258186
-0.0375381
-0.0527891
-0.0723272
-0.104041
-0.134478
-0.137944
-0.144928
-0.145948
-0.142429
-0.143028
-0.151959
-0.171304
-0.19654
-0.290703
-0.333144
-0.366996
-0.394594
-0.413145
-0.423415
-0.0111911
-0.0253155
-0.04388
-0.0622505
-0.0942627
-0.121694
-0.15146
-0.17583
-0.201574
-0.228759
-0.261725
-0.296178
-0.334193
-0.377977
-0.426582
-0.477121
-0.524756
-0.566973
-0.599907
-0.62051
-0.0186615
-0.0317692
-0.0454263
-0.0606963
-0.078079
-0.0972023
-0.123109
-0.152583
-0.178426
-0.198696
-0.227087
-0.264049
-0.311058
-0.371711
-0.444065
-0.518164
-0.586709
-0.644743
-0.691176
-0.724851
-0.0125997
-0.0344875
-0.0475416
-0.056602
-0.0638605
-0.0738168
-0.0919989
-0.120801
-0.153193
-0.179725
-0.20265
-0.227607
-0.261727
-0.312856
-0.381584
-0.461683
-0.545056
-0.623007
-0.690016
-0.743569
-0.0127925
-0.0375673
-0.0540883
-0.0690915
-0.086475
-0.106856
-0.129399
-0.151741
-0.172319
-0.193117
-0.217195
-0.249613
-0.291745
-0.341504
-0.396757
-0.45869
-0.528342
-0.602252
-0.67297
-0.735813
-0.0533282
-0.0563588
-0.0615732
-0.0879441
-0.11424
-0.134177
-0.150508
-0.169302
-0.194028
-0.224676
-0.258207
-0.294008
-0.329717
-0.365771
-0.403451
-0.445063
-0.492358
-0.542
-0.592143
-0.642366
-0.0524917
-0.0559279
-0.0588063
-0.0786683
-0.0964259
-0.111221
-0.123394
-0.138243
-0.166793
-0.216003
-0.270502
-0.320164
-0.361078
-0.394807
-0.421151
-0.441552
-0.459282
-0.475645
-0.492595
-0.513939
-0.0377198
-0.0512306
-0.0650367
-0.0876611
-0.096039
-0.0931901
-0.087708
-0.0859388
-0.092203
-0.109019
-0.137105
-0.163995
-0.18889
-0.219547
-0.268259
-0.3306
-0.39087
-0.441131
-0.481922
-0.516116
-0.0114309
-0.0223863
-0.0291089
-0.0255601
-0.017571
-0.013362
-0.0131459
-0.0161431
-0.0231564
-0.0297107
-0.0377892
-0.0351224
-0.029847
-0.0316483
-0.0374842
-0.0444108
-0.0519806
-0.0592192
-0.0668838
-0.0739612
-0.0108322
-0.0120818
-0.0107715
-0.0160888
-0.0219882
-0.0299082
-0.0399742
-0.0477164
-0.0564728
-0.0581965
-0.0583999
-0.0541923
-0.0564476
-0.064422
-0.0784118
-0.0950546
-0.113837
-0.133444
-0.150777
-0.164051
-0.0170733
-0.0167342
-0.0164477
-0.0157588
-0.0175437
-0.026202
-0.0448337
-0.0613135
-0.0756027
-0.080036
-0.0818015
-0.0784418
-0.0769745
-0.073785
-0.0730414
-0.0753244
-0.0812197
-0.0921868
-0.107583
-0.119113
-0.00937479
-0.019058
-0.0253623
-0.0231436
-0.0171063
-0.0141267
-0.016374
-0.0244012
-0.0364217
-0.048707
-0.0587086
-0.0606873
-0.0576277
-0.0493991
-0.0423149
-0.0399836
-0.0441724
-0.0550747
-0.0745755
-0.09346
-0.0128069
-0.0192276
-0.0274491
-0.0280657
-0.0221633
-0.014354
-0.0117893
-0.012914
-0.0160566
-0.0208923
-0.0255374
-0.0288976
-0.030936
-0.0313553
-0.0318503
-0.0338721
-0.0379892
-0.0454103
-0.0612851
-0.0798511
-0.0120448
-0.0169024
-0.0151617
-0.0126385
-0.0123069
-0.0139228
-0.0182126
-0.0186184
-0.0198443
-0.0185933
-0.018574
-0.019668
-0.0227016
-0.0283658
-0.0387152
-0.0497786
-0.0560576
-0.0576665
-0.0642903
-0.077724
-0.0289595
-0.0191218
-0.0109225
-0.00916441
-0.00949116
-0.0110711
-0.0123181
-0.0130173
-0.0129073
-0.0138639
-0.0171552
-0.0241312
-0.0366614
-0.0558528
-0.0773149
-0.0859805
-0.078014
-0.0637438
-0.0565506
-0.0590329
-0.0181881
-0.0133655
-0.0111915
-0.00973648
-0.00882123
-0.00916987
-0.00978886
-0.0101895
-0.0108127
-0.0123933
-0.0165787
-0.0250074
-0.0394965
-0.0624325
-0.0606108
-0.0474051
-0.0352532
-0.0307578
-0.0331595
-0.0416309
-0.0205915
-0.0116422
-0.0090894
-0.0105104
-0.00951214
-0.00909508
-0.00888725
-0.00913632
-0.0105601
-0.0138275
-0.0201216
-0.0319314
-0.0520402
-0.0799901
-0.0757139
-0.0366268
-0.0309764
-0.0287034
-0.0295094
-0.0343476
-0.00991409
-0.028592
-0.034443
-0.0350694
-0.0207005
-0.0131191
-0.0104849
-0.0111313
-0.01616
-0.0273578
-0.0463569
-0.0699069
-0.0812573
-0.075401
-0.0582835
-0.0605618
-0.063683
-0.0605479
-0.0536618
-0.0477588
-0.0128748
-0.0269219
-0.0454393
-0.0682573
-0.0655512
-0.0443438
-0.0439325
-0.0315501
-0.0291714
-0.0382562
-0.047961
-0.0523508
-0.0538902
-0.0580968
-0.061776
-0.0596584
-0.0696159
-0.0792227
-0.0845376
-0.0846713
-0.00809573
-0.0186157
-0.0375738
-0.0505092
-0.0685069
-0.0636309
-0.0691695
-0.0874258
-0.0817678
-0.0667611
-0.065101
-0.0644673
-0.0661672
-0.0720234
-0.0669359
-0.0508489
-0.0552505
-0.0625018
-0.0696095
-0.0756823
-0.00705339
-0.011358
-0.0112794
-0.015
-0.0275055
-0.0290002
-0.0442039
-0.0599528
-0.06764
-0.0739752
-0.0756304
-0.0748995
-0.0713934
-0.0656701
-0.0563333
-0.0569616
-0.0582663
-0.0596511
-0.0599806
-0.060682
-0.00632576
-0.00750012
-0.00912833
-0.0093683
-0.0162867
-0.0207742
-0.0262776
-0.0297119
-0.0368232
-0.0456668
-0.0548835
-0.0652509
-0.0737407
-0.0784821
-0.0805535
-0.0816185
-0.0820703
-0.0818034
-0.0796803
-0.0771124
-0.00807894
-0.0127779
-0.0163994
-0.0178369
-0.0290675
-0.0372713
-0.0459448
-0.0415771
-0.0390248
-0.0456101
-0.0583145
-0.0740415
-0.0891319
-0.0961167
-0.0923509
-0.0846166
-0.0750681
-0.0696282
-0.0682305
-0.071191
-0.0120134
-0.0129004
-0.0128719
-0.0100694
-0.0132869
-0.021207
-0.0360554
-0.0427352
-0.0439987
-0.0487896
-0.0620285
-0.0788042
-0.0986161
-0.11088
-0.115908
-0.11552
-0.106399
-0.0919679
-0.0787994
-0.0723429
-0.00920312
-0.00899271
-0.0135903
-0.0141929
-0.0221898
-0.0299419
-0.0444482
-0.0554962
-0.0668575
-0.075643
-0.0863085
-0.0924989
-0.0934549
-0.0905139
-0.0924186
-0.0954485
-0.0932747
-0.0818355
-0.0679347
-0.059618
-0.00221055
-0.01035
-0.0120025
-0.021218
-0.0351693
-0.0529392
-0.0733436
-0.0896164
-0.101047
-0.0998091
-0.0895541
-0.0725686
-0.0598728
-0.0540737
-0.0523306
-0.0511036
-0.0490213
-0.0460385
-0.0429576
-0.0408356
-0.00572974
-0.0150393
-0.0130622
-0.0176818
-0.022038
-0.0290422
-0.0438874
-0.0637885
-0.0896555
-0.105509
-0.106563
-0.0945656
-0.0808289
-0.0714642
-0.063432
-0.0562569
-0.0507871
-0.0473083
-0.0446531
-0.0425447
-0.00125099
-0.00812323
-0.01409
-0.0196228
-0.0176703
-0.0143599
-0.0135278
-0.0176321
-0.0283278
-0.0433248
-0.0583263
-0.0768256
-0.101952
-0.133119
-0.164339
-0.190754
-0.21027
-0.223331
-0.230528
-0.233463
-0.00538446
-0.0118628
-0.0110791
-0.0101048
-0.0082601
-0.00732442
-0.0075669
-0.00861732
-0.0105696
-0.0122216
-0.0145906
-0.0160708
-0.0181616
-0.0206797
-0.0233897
-0.0259138
-0.0286353
-0.031162
-0.0341756
-0.0370288
-0.00889897
-0.0092779
-0.00768847
-0.00896854
-0.0108122
-0.0133354
-0.0169322
-0.0188124
-0.0217876
-0.0224712
-0.0240152
-0.0255143
-0.0290843
-0.0337575
-0.0396246
-0.045952
-0.0524253
-0.0586518
-0.0633885
-0.0657913
-0.00721106
-0.0118337
-0.0115825
-0.0108642
-0.0121047
-0.0160547
-0.0234731
-0.0281591
-0.0322525
-0.0314736
-0.0310112
-0.0296483
-0.0303321
-0.0318223
-0.0346414
-0.0381736
-0.0419189
-0.045547
-0.0486631
-0.0486938
-0.0037328
-0.0132368
-0.0175937
-0.0141506
-0.00991792
-0.0090312
-0.010647
-0.0138597
-0.0174996
-0.0201672
-0.0218681
-0.0214089
-0.0208141
-0.0206857
-0.0219825
-0.0245347
-0.0280713
-0.0322884
-0.037208
-0.0397676
-0.00380522
-0.0155879
-0.0214397
-0.0180175
-0.0113409
-0.00711165
-0.00639699
-0.00762582
-0.00918226
-0.0109106
-0.0120913
-0.0128315
-0.0134601
-0.014284
-0.0156928
-0.0177747
-0.0206533
-0.0245285
-0.0301635
-0.0347181
-0.00541257
-0.0135713
-0.0153409
-0.0119656
-0.00842834
-0.00628878
-0.00597314
-0.0061763
-0.00700274
-0.00802137
-0.0093175
-0.0108641
-0.0128893
-0.0153181
-0.0181922
-0.0205438
-0.0223084
-0.0247291
-0.029878
-0.0362199
-0.0224939
-0.0178906
-0.0106086
-0.00783812
-0.00662432
-0.0059407
-0.00577374
-0.00604715
-0.00729937
-0.009469
-0.0131094
-0.017775
-0.0235874
-0.0293762
-0.0330366
-0.0321404
-0.0283689
-0.026363
-0.0284023
-0.0334151
-0.0108356
-0.00692268
-0.00752292
-0.00762581
-0.00699693
-0.00625972
-0.00602656
-0.00636412
-0.00775367
-0.0108067
-0.015132
-0.0214501
-0.0286732
-0.0344301
-0.0221068
-0.0177665
-0.0167321
-0.0186794
-0.0227465
-0.0281002
-0.00171991
-0.00400373
-0.00481255
-0.00677944
-0.00726575
-0.00689831
-0.00639518
-0.00669862
-0.00906682
-0.0134424
-0.0197373
-0.0279304
-0.0358175
-0.038743
-0.0214836
-0.0155884
-0.0153339
-0.0159935
-0.0177711
-0.0208664
-0.00684402
-0.0121503
-0.0119783
-0.0137126
-0.0101366
-0.00913246
-0.00830905
-0.00927952
-0.0135172
-0.0197122
-0.0266505
-0.0297533
-0.0279417
-0.0267957
-0.0301468
-0.0332263
-0.0315083
-0.0277406
-0.023905
-0.021836
-0.00347009
-0.0145698
-0.0198819
-0.0330194
-0.0231318
-0.0221214
-0.0236953
-0.0232483
-0.0239045
-0.0262752
-0.0266393
-0.0263843
-0.0278036
-0.0296653
-0.0317486
-0.0373492
-0.042341
-0.0441908
-0.0430663
-0.0401771
-0.0015607
-0.0120154
-0.02218
-0.0274689
-0.0308162
-0.0261759
-0.0266329
-0.0344361
-0.0386531
-0.0378199
-0.0362363
-0.0356312
-0.0363601
-0.0352434
-0.0280192
-0.0273966
-0.0308421
-0.034206
-0.0369698
-0.0389205
-0.00200289
-0.00456644
-0.00571485
-0.0075433
-0.0119448
-0.0140351
-0.0197182
-0.029583
-0.0315503
-0.0325293
-0.0308773
-0.0283279
-0.025746
-0.0237747
-0.0232124
-0.0242397
-0.0255405
-0.027053
-0.0286113
-0.0304195
-0.00667023
-0.00345767
-0.00385457
-0.00542317
-0.00914482
-0.0121602
-0.0160059
-0.019058
-0.0212319
-0.023123
-0.0246054
-0.0264132
-0.0273117
-0.0274914
-0.0274895
-0.0276782
-0.0280599
-0.0285671
-0.0291302
-0.0299493
-0.00412014
-0.00547375
-0.00590794
-0.00953894
-0.0155782
-0.0182758
-0.0219113
-0.022155
-0.0241509
-0.0267232
-0.0296308
-0.0324144
-0.0336219
-0.0323129
-0.0290122
-0.0263775
-0.0249014
-0.0250229
-0.0262797
-0.0283975
-0.0042043
-0.00382501
-0.00491323
-0.0069658
-0.0111156
-0.0162427
-0.0227611
-0.0261322
-0.0289768
-0.0317033
-0.0356393
-0.0390262
-0.0426251
-0.0417873
-0.0382019
-0.0337097
-0.0290208
-0.0256478
-0.0241942
-0.02457
-0.00169011
-0.0042925
-0.00680656
-0.0108429
-0.0182425
-0.0252837
-0.0328291
-0.0368639
-0.0394444
-0.039039
-0.0396609
-0.0380684
-0.035867
-0.0329064
-0.0308166
-0.0284997
-0.0256769
-0.0227521
-0.0208175
-0.02007
-0.000974212
-0.00324281
-0.00554139
-0.0128786
-0.0234804
-0.0358473
-0.0489299
-0.0550087
-0.0543905
-0.0450412
-0.0358146
-0.0289664
-0.026384
-0.0256955
-0.0251111
-0.0241178
-0.0227323
-0.0212819
-0.0199451
-0.0189447
-0.00135155
-0.00497088
-0.00525527
-0.00675891
-0.00938562
-0.0149816
-0.0249221
-0.0343116
-0.0443358
-0.0445247
-0.0416027
-0.0384007
-0.0392241
-0.0418395
-0.0431282
-0.0428035
-0.0410963
-0.038664
-0.035353
-0.0321983
-0.00203121
-0.00401753
-0.00548269
-0.00615593
-0.00601325
-0.00654346
-0.00903069
-0.014726
-0.0229913
-0.0325365
-0.0441293
-0.0597996
-0.080248
-0.101335
-0.118249
-0.129655
-0.137421
-0.142768
-0.144948
-0.143923
-0.00208827
-0.00451452
-0.00616904
-0.00587574
-0.00522705
-0.00505936
-0.00565863
-0.00684575
-0.00827639
-0.00941526
-0.0106354
-0.0115517
-0.0126326
-0.0137801
-0.015231
-0.0167782
-0.0186821
-0.020861
-0.0235379
-0.0266552
-0.00787315
-0.00884255
-0.00661695
-0.00636468
-0.00670227
-0.00772436
-0.00940903
-0.0105109
-0.0121927
-0.0132981
-0.0148147
-0.0160042
-0.0176069
-0.0190984
-0.0208719
-0.0226305
-0.0244005
-0.0261563
-0.0275817
-0.0286884
-0.00559133
-0.00915386
-0.00827449
-0.00817939
-0.0090687
-0.0100785
-0.0123203
-0.0128867
-0.0141515
-0.0143918
-0.0155753
-0.0166436
-0.0181331
-0.0193411
-0.020398
-0.0211648
-0.0216749
-0.0219751
-0.0221576
-0.0215404
-0.00362019
-0.0107041
-0.0112793
-0.00836232
-0.00671087
-0.00664793
-0.00725564
-0.00839594
-0.0097644
-0.0109104
-0.0120018
-0.0127609
-0.0135165
-0.0142904
-0.0151704
-0.0161444
-0.0171974
-0.0182236
-0.01924
-0.0192111
-0.00430914
-0.0122652
-0.014768
-0.00888396
-0.00536133
-0.00435478
-0.00469004
-0.00577106
-0.00678987
-0.00785382
-0.0086257
-0.00932369
-0.00997885
-0.0108182
-0.0119
-0.0132384
-0.0147851
-0.0164035
-0.0181682
-0.0189857
-0.00578855
-0.0103703
-0.0100447
-0.00675729
-0.00457919
-0.00371362
-0.00400155
-0.00480285
-0.00570614
-0.0065728
-0.00732518
-0.00806508
-0.00894852
-0.0100231
-0.0113768
-0.0129143
-0.0147233
-0.0169121
-0.0196596
-0.0219631
-0.00569978
-0.0157695
-0.00960759
-0.00581516
-0.004342
-0.00373984
-0.00417903
-0.00500412
-0.00625883
-0.00746646
-0.00890041
-0.0103365
-0.0119364
-0.0134206
-0.0144161
-0.0149214
-0.0158091
-0.0177336
-0.0205246
-0.0235793
-0.00582326
-0.00602603
-0.00530754
-0.00538677
-0.00490193
-0.00436637
-0.00452439
-0.00568162
-0.00689065
-0.00841372
-0.00973223
-0.0111675
-0.0122649
-0.0126471
-0.0112101
-0.0123079
-0.0141605
-0.016517
-0.0192591
-0.0220736
-0.00148402
-0.00178078
-0.00273717
-0.00472069
-0.00559611
-0.00512502
-0.00492127
-0.00624694
-0.0082598
-0.0101392
-0.0116229
-0.0123713
-0.012123
-0.0109566
-0.00945317
-0.0112871
-0.0124248
-0.013969
-0.0159866
-0.0182131
-0.0024206
-0.00408064
-0.00577708
-0.00775579
-0.00815263
-0.00774463
-0.00718994
-0.00833358
-0.0101912
-0.0118075
-0.0131348
-0.0141772
-0.0151364
-0.0159019
-0.0171266
-0.0174688
-0.0161309
-0.0151864
-0.0150386
-0.0157462
-0.00225649
-0.00732389
-0.00996536
-0.0157255
-0.0130986
-0.0161798
-0.0181285
-0.0185769
-0.0175165
-0.0168567
-0.0174169
-0.0191239
-0.0208126
-0.0229391
-0.0255004
-0.0251869
-0.0255484
-0.0248317
-0.0236038
-0.0223354
-0.00506607
-0.00750386
-0.0114515
-0.0147971
-0.015015
-0.0154283
-0.0168123
-0.022
-0.023227
-0.0211179
-0.0193898
-0.0186903
-0.0186645
-0.0192587
-0.0196213
-0.0200135
-0.0217134
-0.0228004
-0.0231066
-0.0227348
-0.00245983
-0.00475413
-0.0039683
-0.00650155
-0.00920783
-0.0108042
-0.014088
-0.0168839
-0.0157994
-0.0155016
-0.0149354
-0.0146448
-0.0145833
-0.014832
-0.0150352
-0.015705
-0.0163441
-0.0168506
-0.0172057
-0.0174915
-0.00339474
-0.00233459
-0.00259385
-0.00470911
-0.00748841
-0.00964976
-0.0116443
-0.0124822
-0.0128638
-0.013329
-0.0136819
-0.0140964
-0.0143359
-0.0145221
-0.0148306
-0.0151805
-0.0155918
-0.0160246
-0.0164744
-0.0169964
-0.00176886
-0.00247628
-0.00415893
-0.00644487
-0.00994062
-0.0117421
-0.0136632
-0.0139367
-0.0143976
-0.0147904
-0.0152129
-0.0154221
-0.0151595
-0.0145877
-0.0140451
-0.0139534
-0.0142232
-0.0147519
-0.0154403
-0.016278
-0.00105954
-0.00245859
-0.00451323
-0.00706355
-0.0106702
-0.0134179
-0.0162761
-0.0169141
-0.0174663
-0.0174584
-0.0182173
-0.0181696
-0.0180292
-0.0166623
-0.0152466
-0.0141789
-0.0135167
-0.0132752
-0.0133754
-0.0137591
-0.000538855
-0.00267026
-0.00571935
-0.0103463
-0.0161038
-0.0188491
-0.0216313
-0.0211227
-0.0207951
-0.0195107
-0.0192046
-0.0181518
-0.0170802
-0.0158393
-0.0148237
-0.0139373
-0.0131977
-0.0126795
-0.0123847
-0.0122965
-0.000276331
-0.00113479
-0.00333629
-0.00916232
-0.0173474
-0.0242795
-0.0298154
-0.0288344
-0.0261459
-0.0221731
-0.0206157
-0.020475
-0.0209953
-0.0211218
-0.0204544
-0.0193104
-0.0179338
-0.0167386
-0.0158158
-0.0152602
-0.0010216
-0.00209748
-0.00261386
-0.00362515
-0.00586225
-0.0102887
-0.0164309
-0.0209339
-0.0253755
-0.027213
-0.0299373
-0.0334232
-0.0373959
-0.0402143
-0.041181
-0.0404461
-0.0384021
-0.0356242
-0.0321943
-0.0291162
-0.00124823
-0.00309626
-0.00396267
-0.00352478
-0.00357564
-0.00522958
-0.00884948
-0.0147936
-0.0222939
-0.0308558
-0.0407432
-0.0522431
-0.064765
-0.0759999
-0.0835514
-0.0877822
-0.0899511
-0.0903534
-0.0883211
-0.0843627
-0.00240189
-0.00514166
-0.0069169
-0.00624776
-0.00508395
-0.0052312
-0.00631151
-0.00740183
-0.00844928
-0.00935934
-0.0103622
-0.0114302
-0.0126689
-0.0140892
-0.0157042
-0.0175523
-0.0196247
-0.0220367
-0.0246081
-0.0278727
-0.00327866
-0.00861447
-0.00719209
-0.0056303
-0.00578302
-0.00690169
-0.00803297
-0.00886453
-0.00971875
-0.0102023
-0.0107499
-0.0110951
-0.0115682
-0.0119848
-0.0125177
-0.0130724
-0.0136522
-0.0143119
-0.0149377
-0.0157247
-0.00287175
-0.0066864
-0.00540308
-0.00601716
-0.00682502
-0.00741667
-0.00842153
-0.00920382
-0.0101915
-0.0107976
-0.0114182
-0.011696
-0.0119914
-0.0120659
-0.0121484
-0.0121702
-0.0122247
-0.0123332
-0.0125613
-0.0127695
-0.0127998
-0.0186153
-0.0124861
-0.00658765
-0.00552263
-0.00629556
-0.00729824
-0.0083649
-0.00920669
-0.00988817
-0.0103963
-0.0107718
-0.0110656
-0.0112684
-0.0114304
-0.0115694
-0.0117433
-0.0119713
-0.0123243
-0.0125827
-0.0147584
-0.00737253
-0.00654003
-0.00393933
-0.00406236
-0.00506653
-0.00604118
-0.00714062
-0.00791255
-0.00871141
-0.00933224
-0.0099412
-0.0104472
-0.0108772
-0.0112339
-0.0115218
-0.0118011
-0.0120823
-0.012479
-0.0127287
-0.0129744
-0.00369882
-0.00276395
-0.00277689
-0.00330017
-0.00427264
-0.00517311
-0.0061762
-0.00700161
-0.0078931
-0.00869468
-0.00950258
-0.0102606
-0.0109695
-0.0116341
-0.0122161
-0.0127454
-0.0132188
-0.0137602
-0.0141006
-0.00707895
-0.00679749
-0.00356077
-0.00299478
-0.00328155
-0.00402753
-0.00499928
-0.00592895
-0.00683166
-0.00773201
-0.00862142
-0.00950077
-0.0103702
-0.0112184
-0.0120293
-0.0127942
-0.0135099
-0.0141592
-0.0147452
-0.0152634
-0.00355538
-0.00304284
-0.00317208
-0.00338119
-0.00387589
-0.00441183
-0.00490071
-0.00585009
-0.00646881
-0.0072005
-0.00784849
-0.00855935
-0.00930891
-0.010141
-0.0114427
-0.012118
-0.0127046
-0.0131988
-0.0136559
-0.0140579
-0.000846424
-0.00142074
-0.00262651
-0.00377223
-0.00482697
-0.00484334
-0.00502706
-0.00583088
-0.00641236
-0.00693404
-0.00744176
-0.00798261
-0.00859577
-0.00929021
-0.0103586
-0.0112157
-0.0116527
-0.0119825
-0.0122772
-0.0125578
-0.00116496
-0.00274457
-0.00451896
-0.0060832
-0.00731984
-0.00711006
-0.00663626
-0.00747473
-0.00844889
-0.00943301
-0.010264
-0.0106864
-0.0106853
-0.0105446
-0.0108841
-0.0113152
-0.0111774
-0.0111327
-0.0111911
-0.0113385
-0.00180353
-0.00397557
-0.00647359
-0.00935055
-0.00992754
-0.0120268
-0.0125215
-0.0124978
-0.0124433
-0.0130416
-0.0139996
-0.0146601
-0.0150696
-0.0156886
-0.0152742
-0.0132051
-0.0124368
-0.0117724
-0.0114045
-0.0113309
-0.00130266
-0.00460984
-0.00711269
-0.00967812
-0.0101852
-0.011313
-0.011572
-0.0130397
-0.0129497
-0.0129262
-0.0130843
-0.013198
-0.0133726
-0.014038
-0.0134127
-0.0115325
-0.0111368
-0.0108441
-0.0107599
-0.0109872
-0.000672763
-0.00309319
-0.0045753
-0.0073272
-0.00856842
-0.00925798
-0.0102847
-0.0105941
-0.0103419
-0.0104388
-0.0102349
-0.0101969
-0.0100545
-0.0100404
-0.00957445
-0.0096698
-0.009827
-0.0101021
-0.0105047
-0.0110523
-0.00550533
-0.00326641
-0.00382682
-0.00588289
-0.00748067
-0.0084795
-0.00926369
-0.00927989
-0.00926906
-0.00919259
-0.00913999
-0.00911943
-0.00911341
-0.00915616
-0.00931007
-0.00952723
-0.0098703
-0.0103547
-0.0109676
-0.0116812
-0.00162326
-0.00263493
-0.0044046
-0.00636827
-0.00796157
-0.00884834
-0.00950517
-0.00942212
-0.0093592
-0.00919051
-0.00910878
-0.00900732
-0.00893728
-0.00892874
-0.00903832
-0.00932377
-0.00976409
-0.0103559
-0.0110877
-0.0118936
-0.00455565
-0.00314441
-0.00523323
-0.0070388
-0.00879439
-0.00963978
-0.0104825
-0.0102629
-0.0101863
-0.00985714
-0.00977999
-0.00950809
-0.00937479
-0.00916999
-0.00915695
-0.00932999
-0.00969174
-0.0102449
-0.010963
-0.011733
-0.0028826
-0.0037324
-0.00598021
-0.00853935
-0.0107034
-0.011261
-0.0119893
-0.0115368
-0.0113267
-0.0108661
-0.0106017
-0.0102269
-0.00993613
-0.00974734
-0.00970356
-0.00981914
-0.0101023
-0.0105779
-0.0112175
-0.0119005
-0.000882456
-0.002326
-0.0044788
-0.00817023
-0.0118568
-0.0139798
-0.0153797
-0.014514
-0.0141199
-0.0137146
-0.0136506
-0.0136435
-0.0135338
-0.0132332
-0.0127337
-0.0123156
-0.0120118
-0.0119148
-0.012001
-0.0122468
-0.00270734
-0.00255136
-0.00245951
-0.00366071
-0.00718271
-0.0121391
-0.0163268
-0.0188833
-0.0212409
-0.0230462
-0.0249283
-0.0263601
-0.0269321
-0.0262742
-0.024609
-0.0227115
-0.0208245
-0.0194048
-0.018392
-0.0179204
-0.00085671
-0.00287629
-0.00339133
-0.00283209
-0.00327496
-0.00599095
-0.011171
-0.0174528
-0.0239443
-0.0299003
-0.0358783
-0.0414457
-0.0464701
-0.049461
-0.0495841
-0.0475008
-0.0438165
-0.0391403
-0.0340399
-0.0299472
-0.0250263
-0.0229738
-0.024614
-0.0158719
-0.016391
-0.0178424
-0.0179048
-0.0295874
-0.0250686
-0.0256464
-0.0163887
-0.016341
-0.0180247
-0.0189952
-0.0268167
-0.0366961
-0.0360983
-0.0199408
-0.0193933
-0.025004
-0.0233333
-0.0263548
-0.0358995
-0.0356162
-0.0194287
-0.0200388
-0.0229122
-0.0221075
-0.0961688
-0.0875748
-0.0851474
-0.085872
-0.0698056
-0.0600586
-0.0486555
-0.0943032
-0.0857021
-0.0889388
-0.0657377
-0.0652953
-0.0487624
-0.0587424
-0.0928673
-0.0899684
-0.092454
-0.0656886
-0.0607552
-0.0619828
-0.0638838
-0.0917391
-0.0931872
-0.0958999
-0.0586363
-0.0562031
-0.0644923
-0.0730089
-0.091877
-0.0970528
-0.100556
-0.0568759
-0.0622107
-0.0774502
-0.0924028
-0.0945138
-0.101485
-0.103624
-0.0652669
-0.0773546
-0.0972419
-0.109559
-0.0992152
-0.104182
-0.105441
-0.0823132
-0.0962711
-0.112463
-0.116732
-0.106202
-0.105659
-0.105175
-0.100287
-0.108126
-0.116631
-0.112376
-0.089441
-0.110568
-0.102296
-0.0633344
-0.0529413
-0.096208
-0.0829465
-0.0913795
-0.100146
-0.0965021
-0.0530222
-0.0606668
-0.0779262
-0.0672765
-0.0947903
-0.0962398
-0.0974355
-0.0628574
-0.066045
-0.0656911
-0.0673985
-0.0995066
-0.0979941
-0.0981549
-0.0683903
-0.0817321
-0.070439
-0.0827938
-0.103546
-0.0976584
-0.0961009
-0.0871633
-0.101982
-0.0873853
-0.0959889
-0.105354
-0.0957181
-0.0948076
-0.105928
-0.114001
-0.0971266
-0.0958352
-0.105393
-0.0945428
-0.0935414
-0.115289
-0.11503
-0.0945622
-0.0913949
-0.103407
-0.0931262
-0.0921651
-0.113589
-0.106685
-0.0903623
-0.0873563
-0.108589
-0.133348
-0.121596
-0.116927
-0.0974098
-0.129686
-0.122583
-0.0984848
-0.117604
-0.105448
-0.091028
-0.0746746
-0.118788
-0.104354
-0.0971089
-0.10235
-0.0966591
-0.071256
-0.0685912
-0.100037
-0.0895277
-0.0963032
-0.0955869
-0.0926224
-0.0701285
-0.0788191
-0.086981
-0.0863613
-0.0936346
-0.0916115
-0.0889223
-0.081765
-0.0879115
-0.0874769
-0.090318
-0.0920279
-0.0881567
-0.0857769
-0.088628
-0.0885694
-0.0909321
-0.0926794
-0.090664
-0.0849861
-0.0832856
-0.088282
-0.0884136
-0.0930266
-0.0932884
-0.0893509
-0.0828732
-0.0813975
-0.0886133
-0.0887902
-0.0931338
-0.092666
-0.127695
-0.13584
-0.138255
-0.131186
-0.128686
-0.134358
-0.13729
-0.111247
-0.139172
-0.133826
-0.125998
-0.111741
-0.137297
-0.13032
-0.0974832
-0.129068
-0.115686
-0.107014
-0.0968033
-0.126875
-0.118841
-0.0924297
-0.113318
-0.109794
-0.0941353
-0.0907811
-0.117396
-0.113709
-0.0882139
-0.109294
-0.109152
-0.0908607
-0.0911463
-0.113448
-0.114539
-0.0844691
-0.111005
-0.118765
-0.0909214
-0.0904568
-0.116497
-0.122382
-0.0812682
-0.123267
-0.136345
-0.0903598
-0.0903897
-0.12569
-0.134828
-0.0806414
-0.142613
-0.159911
-0.090643
-0.0927142
-0.139173
-0.150033
-0.0089766
-0.00874577
-0.00921871
-0.00852917
-0.00830181
-0.00812647
-0.00846441
-0.0100479
-0.00964812
-0.0122728
-0.00845645
-0.0096506
-0.00901142
-0.0122993
-0.0127612
-0.0137668
-0.0201712
-0.0103195
-0.0130196
-0.013867
-0.019851
-0.0180569
-0.0229512
-0.0340442
-0.0143474
-0.0193996
-0.0222688
-0.0303004
-0.0282206
-0.0389145
-0.0570015
-0.0217178
-0.0296867
-0.0328935
-0.0389353
-0.045927
-0.0635595
-0.0810647
-0.0327713
-0.0418777
-0.0400906
-0.0407983
-0.0730246
-0.0851357
-0.0895571
-0.0448435
-0.0510834
-0.0402297
-0.0371276
-0.092326
-0.088278
-0.0773486
-0.0518433
-0.0474845
-0.0359005
-0.0329128
-0.0106318
-0.0218711
-0.0207918
-0.00958281
-0.00980614
-0.0185985
-0.0195634
-0.0143494
-0.0203781
-0.0224349
-0.0104613
-0.0142078
-0.0198806
-0.0223476
-0.0239553
-0.0242128
-0.0320078
-0.0159848
-0.0227243
-0.0236924
-0.0286671
-0.0407326
-0.0350754
-0.044317
-0.0253452
-0.0330761
-0.0303613
-0.033816
-0.0646003
-0.0476407
-0.056612
-0.0351945
-0.0388396
-0.0344536
-0.0340524
-0.0801449
-0.0576153
-0.0562592
-0.0390462
-0.0373539
-0.0334479
-0.0317398
-0.0780437
-0.0557203
-0.0556509
-0.0363923
-0.0338905
-0.0314792
-0.0320098
-0.0673986
-0.0560691
-0.0587837
-0.0334626
-0.0340154
-0.032527
-0.0349542
-0.0346008
-0.068657
-0.0823397
-0.0299073
-0.0272701
-0.0373217
-0.0391548
-0.0282972
-0.0838832
-0.074195
-0.0269645
-0.0279389
-0.0405505
-0.0422527
-0.0355026
-0.0686136
-0.0583801
-0.0288287
-0.0324661
-0.0424961
-0.0434937
-0.0459611
-0.0580753
-0.0607575
-0.0336686
-0.0360394
-0.0436962
-0.0438799
-0.0517929
-0.0618323
-0.0639599
-0.0359677
-0.0341858
-0.0438001
-0.0433734
-0.0533905
-0.0645188
-0.0679213
-0.0337031
-0.0333722
-0.0433381
-0.0439078
-0.0567516
-0.0697889
-0.0747345
-0.0334888
-0.0342427
-0.044188
-0.0443072
-0.0626327
-0.0755552
-0.0762516
-0.0345764
-0.0357807
-0.0438863
-0.0415205
-0.0842096
-0.0550136
-0.0676798
-0.0372399
-0.0386941
-0.0337791
-0.0368451
-0.0859987
-0.0685794
-0.0726491
-0.0406784
-0.0442705
-0.0399281
-0.0461602
-0.0691187
-0.0770715
-0.0825882
-0.0445146
-0.0444597
-0.0478221
-0.0498428
-0.0649854
-0.0819578
-0.078732
-0.0443093
-0.0435574
-0.0499098
-0.0491485
-0.0648023
-0.0783986
-0.0781578
-0.0432089
-0.0422762
-0.0489369
-0.0477135
-0.0650496
-0.0779354
-0.0760651
-0.0421433
-0.0425902
-0.0471649
-0.0452934
-0.0707572
-0.0754036
-0.0733339
-0.0428976
-0.0433447
-0.0446464
-0.0423919
-0.0748541
-0.0723371
-0.0672551
-0.0430622
-0.0409244
-0.0415548
-0.0391422
-0.00640978
-0.00704176
-0.00751546
-0.00617104
-0.00638646
-0.00671794
-0.0075995
-0.00822134
-0.0079774
-0.0107025
-0.00688567
-0.00875348
-0.00831225
-0.0113033
-0.012121
-0.0119873
-0.0165292
-0.00962046
-0.0122062
-0.0123208
-0.0148851
-0.0178776
-0.0182412
-0.0239843
-0.0131698
-0.0156954
-0.0154974
-0.0164373
-0.0257579
-0.0259402
-0.0305212
-0.0164965
-0.0180646
-0.0164674
-0.016115
-0.0339956
-0.0312928
-0.03116
-0.0183518
-0.018275
-0.0159482
-0.0155838
-0.0389878
-0.0305021
-0.0279483
-0.0179631
-0.0161861
-0.0155234
-0.0155623
-0.0331563
-0.0271278
-0.0255106
-0.0153614
-0.0127184
-0.0155979
-0.0157706
-0.0087317
-0.0155373
-0.0168062
-0.00798635
-0.00887003
-0.0153548
-0.0169526
-0.0122048
-0.0169841
-0.0185594
-0.00961777
-0.0124759
-0.0172303
-0.0179655
-0.0180401
-0.0194156
-0.0221728
-0.0133826
-0.015453
-0.0180684
-0.017849
-0.0200292
-0.0214681
-0.0207228
-0.018785
-0.022262
-0.0198214
-0.0192745
-0.0222222
-0.0280137
-0.0266602
-0.0223352
-0.0276476
-0.0228641
-0.0218657
-0.028549
-0.0255359
-0.0256917
-0.0163875
-0.0168622
-0.0195242
-0.0212637
-0.0267903
-0.026044
-0.0278534
-0.0171012
-0.0179807
-0.0218457
-0.0236823
-0.028236
-0.0286238
-0.0314945
-0.0182915
-0.0192903
-0.0243712
-0.0269649
-0.0235556
-0.0280533
-0.0331297
-0.02081
-0.0213838
-0.021668
-0.0248196
-0.0233763
-0.0347183
-0.0369797
-0.021432
-0.0214295
-0.0258041
-0.027093
-0.0259744
-0.0371519
-0.0368761
-0.0212909
-0.0202654
-0.0269747
-0.0256198
-0.0278335
-0.026743
-0.0310343
-0.0245353
-0.0313491
-0.0244934
-0.0281822
-0.0269004
-0.0264655
-0.0313187
-0.0244
-0.0311456
-0.024362
-0.0270625
-0.0273355
-0.0357247
-0.0366034
-0.0203884
-0.0216008
-0.0219497
-0.0216552
-0.0292172
-0.0368351
-0.0364097
-0.0220524
-0.0236127
-0.0215809
-0.0216012
-0.0312394
-0.035799
-0.0333433
-0.0242444
-0.0267185
-0.0217509
-0.0229209
-0.0323258
-0.0218234
-0.0285987
-0.0202111
-0.0241668
-0.0180878
-0.0231928
-0.0382657
-0.031248
-0.0358541
-0.0253422
-0.0270791
-0.0244927
-0.0251102
-0.0382563
-0.0369846
-0.0378187
-0.0270447
-0.0257771
-0.0249279
-0.0239123
-0.0365909
-0.0373052
-0.0357262
-0.0251793
-0.0235619
-0.0234504
-0.0222412
-0.0356276
-0.0351342
-0.0332229
-0.0231226
-0.0221671
-0.0218148
-0.0206026
-0.0362042
-0.0323482
-0.0300928
-0.0219356
-0.0214235