/*--------------------------------*- C++ -*----------------------------------*\
  =========                 |
  \\      /  F ield         | OpenFOAM: The Open Source CFD Toolbox
   \\    /   O peration     | Website:  https://openfoam.org
    \\  /    A nd           | Version:  10
     \\/     M anipulation  |
\*---------------------------------------------------------------------------*/
FoamFile
{
    format      ascii;
    class       volVectorField;
    location    "7.8";
    object      U;
}
// * * * * * * * * * * * * * * * * * * * * * * * * * * * * * * * * * * * * * //

dimensions      [0 1 -1 0 0 0 0];

internalField   nonuniform List<vector> 
12920
(
(74.1198 -89.859 -56.9233)
(82.6319 -64.1321 0.0536417)
(149.882 -45.9763 9.16867)
(109.616 -30.1682 5.21343)
(151.137 -3.75568 0.440147)
(134.914 6.10705 -3.67928)
(152.283 16.094 -6.29664)
(148.989 16.8752 -7.82151)
(158.057 16.7116 -6.40679)
(153.544 16.8722 -4.46602)
(144.74 16.2417 1.96511)
(118.767 11.4644 2.04472)
(113.425 6.00238 0.141219)
(106.372 3.69551 -0.294359)
(107.091 2.30496 -0.596484)
(106.699 1.99431 -0.4071)
(108.045 1.51156 -0.305918)
(110.713 1.54961 -0.444711)
(111.515 0.547724 -0.349638)
(110.24 0.743257 -0.386063)
(23.6407 209.208 -105.283)
(-83.2182 -24.5839 -21.8047)
(115.303 3.9953 -15.89)
(26.2665 -9.64675 -5.29803)
(115.685 1.86815 -5.46857)
(87.815 7.69237 -2.56752)
(122.853 10.0748 -0.776949)
(115.089 10.7592 0.238264)
(125.19 9.60309 1.76652)
(115.844 10.6903 2.11742)
(114.973 11.0111 2.59091)
(106.751 10.0847 1.40101)
(106.508 6.77008 0.63382)
(102.259 3.64219 0.316036)
(104.051 0.984661 0.44953)
(103.861 -1.66581 0.481815)
(106.68 -4.13003 0.763408)
(107.737 -4.79417 1.06659)
(107.663 -6.38729 1.20398)
(102.128 -6.18396 1.2261)
(121.673 252.396 18.4599)
(-69.0638 -20.0363 -2.05377)
(149.316 -39.6264 -18.8585)
(75.9325 -17.7389 -4.0479)
(139.7 -19.0183 -3.67127)
(123.147 -2.36691 -1.65415)
(140.125 -1.89472 1.28276)
(125.06 6.24755 1.95671)
(125.452 7.97333 2.75038)
(113.508 12.5201 2.13766)
(113.322 12.1537 1.92567)
(108.145 11.0599 1.14613)
(110.005 7.27822 1.01141)
(106.666 3.67175 0.395562)
(108.921 -1.30939 0.37158)
(107.71 -3.72633 0.328019)
(108.864 -5.81874 0.19661)
(108.446 -6.0156 0.224564)
(107.761 -7.06237 0.309464)
(99.6318 -6.70974 0.119486)
(228.039 -130.349 62.2953)
(126.734 -31.6283 32.7829)
(154.232 -10.2233 9.62142)
(101.899 -6.23372 0.221211)
(134.021 -2.54503 -1.4242)
(111.435 5.96824 -1.52288)
(127.834 6.90022 -1.12388)
(118.241 9.58781 -1.03768)
(124.11 8.03114 -0.111404)
(117.82 8.98932 0.288985)
(119.544 7.24177 0.755192)
(115.551 6.53019 0.626535)
(115.749 3.78554 0.630573)
(112.18 2.51438 0.355007)
(111.079 -1.5757 0.140018)
(107.571 -3.82719 -0.159975)
(107.61 -5.68673 -0.2149)
(107.047 -6.02362 -0.145996)
(106.708 -6.44626 -0.0326314)
(98.4437 -5.64706 -0.12122)
(167.991 -63.8063 96.44)
(95.2606 -59.2636 -11.168)
(184.756 -28.9626 7.09096)
(101.407 -23.0638 1.79675)
(136.126 -9.82291 1.27283)
(106.429 1.54466 -0.397708)
(124.695 3.27173 -0.299838)
(115.866 12.1552 -0.763429)
(123.879 10.3328 -0.402022)
(120.185 13.1084 -0.451931)
(123.729 10.4477 -0.121203)
(121.532 10.2816 -0.148929)
(122.291 7.3644 -0.00402395)
(119.695 6.49404 -0.080982)
(119.301 3.17497 -0.142963)
(115.375 0.135077 -0.197473)
(115.7 -4.01967 -0.195745)
(114.319 -5.46559 -0.176858)
(114.056 -5.8816 -0.110513)
(104.784 -4.96622 -0.235538)
(102.952 -85.5058 -64.7707)
(91.8963 -47.7451 -20.5962)
(176.214 -6.65211 -3.91616)
(110.691 -10.1913 -2.89707)
(141.978 -0.939929 -0.256084)
(104.682 7.61857 -0.343994)
(120.878 5.80427 0.643886)
(110.822 9.67994 0.243002)
(115.371 7.59393 0.489919)
(112.669 9.27596 0.189865)
(115.444 7.59355 0.125962)
(115.335 8.03587 -0.0754483)
(117.265 6.42627 -0.171158)
(117.791 5.91508 -0.216565)
(119.927 3.68566 0.0331217)
(119.983 0.542204 0.258276)
(120.291 -3.24524 0.446492)
(118.142 -4.56702 0.198717)
(117.265 -4.26144 -0.0551956)
(108.409 -2.31537 -0.392423)
(121.489 -21.6507 27.513)
(-113.675 -46.6265 -10.7831)
(166.283 3.75194 -16.5277)
(72.0289 -1.73117 -1.50804)
(141.687 10.959 -0.354924)
(100.789 14.4139 -0.790004)
(112.822 2.18669 -0.364597)
(101.8 16.1785 -0.111958)
(107.773 8.37631 -0.513456)
(104.302 12.6251 -0.459148)
(107.897 8.16077 -0.61373)
(107.28 8.92077 -0.597586)
(109.918 6.07262 -0.642301)
(109.9 4.55694 -0.226019)
(110.268 0.646399 0.874129)
(105.957 -2.67079 1.54798)
(102.371 -4.29745 1.04883)
(98.9605 -4.13809 0.262623)
(98.0236 -3.21824 -0.665924)
(94.0795 -0.833441 -0.886608)
(144.532 -98.9675 92.6091)
(-25.7187 -20.642 -16.1831)
(160.067 -38.7254 -9.93739)
(62.8007 -12.4682 -1.39527)
(122.597 0.499481 -0.593595)
(77.9529 30.7003 -1.39855)
(93.4248 17.4582 -0.51111)
(74.5105 4.68665 -0.122452)
(84.0629 11.9146 -0.170577)
(87.375 6.98187 -0.179777)
(93.9336 8.76897 -0.357044)
(96.9005 6.29623 -0.333095)
(100.372 6.17853 -0.229994)
(99.7262 4.38326 0.0630225)
(90.4725 1.93366 1.55158)
(84.9859 -0.295192 0.934891)
(83.9955 -1.20009 -0.0112334)
(83.8797 -2.12246 -0.305253)
(84.0824 -2.12906 -1.09546)
(82.5484 -0.0444281 -1.15275)
(113.082 -83.2606 77.4261)
(-112.028 81.9961 -1.62961)
(151.416 9.54427 -21.9627)
(47.6195 23.111 -1.96651)
(106.147 18.8019 -2.39757)
(65.877 16.5864 -1.67789)
(84.1234 26.3844 0.256485)
(85.0918 14.2461 -0.816383)
(83.8288 10.8039 -0.221233)
(83.901 7.06379 -0.106003)
(87.1523 8.40488 -0.211362)
(90.3924 6.69367 -0.127121)
(94.3557 5.87309 -0.0950914)
(95.9559 4.82267 -0.0646301)
(82.6486 3.93009 1.08444)
(76.3095 -0.721542 0.19752)
(78.7985 -2.28074 -0.051934)
(80.4467 -2.78157 -0.221346)
(81.5112 -2.29858 -0.550562)
(76.9683 0.218483 -0.648008)
(92.1113 -25.3212 -55.1915)
(-55.2909 64.6627 10.9341)
(91.1258 13.1058 -6.68206)
(-35.0864 37.3482 4.57629)
(66.3859 39.5466 2.31278)
(1.55165 31.2943 -2.03623)
(50.2359 32.1454 -0.566632)
(69.4783 26.5349 -0.210874)
(74.7098 20.403 0.018064)
(70.3453 14.556 -0.0953708)
(69.8588 11.9091 0.0323998)
(69.1159 10.405 0.0261376)
(68.0192 8.80867 -0.0151061)
(69.6507 7.43908 0.0391182)
(76.445 2.48558 -0.474901)
(85.5829 -3.7897 -0.189489)
(86.627 -4.70061 0.427853)
(86.3828 -4.33472 0.321254)
(85.1906 -2.48201 0.106758)
(78.613 1.20541 -0.162914)
(138.196 148.945 -2.17573)
(-28.1189 21.7905 -3.23248)
(113.254 -13.2815 -1.44629)
(-18.9248 -6.44349 6.84493)
(78.3674 5.46468 9.13564)
(9.94697 15.4782 -0.11984)
(40.4065 20.5119 -0.0209108)
(60.7916 22.8399 -0.164657)
(66.7139 22.4164 -0.309554)
(65.8465 17.7494 -0.364956)
(69.6554 8.70466 -0.228673)
(73.8656 6.0254 -0.104005)
(79.649 6.21824 -0.1637)
(84.9962 6.60512 -0.144139)
(88.5075 1.11776 -0.865254)
(93.7398 -6.65285 -0.022094)
(93.858 -5.41233 0.246612)
(91.7981 -4.08105 0.353082)
(88.9608 -2.44097 0.286489)
(82.0903 0.132653 0.1585)
(165.886 250.129 21.1024)
(160.261 122.798 1.37125)
(171.625 50.9958 20.4208)
(74.5248 10.3542 6.28218)
(93.9747 1.11944 12.5645)
(15.0523 -1.18496 0.604485)
(55.3824 -2.18575 0.740407)
(71.6512 6.12013 0.455538)
(77.007 22.2083 0.842687)
(74.6982 21.3498 -0.240498)
(82.3865 9.87767 -0.432768)
(84.8802 5.03174 -0.219885)
(90.0554 0.922288 -0.15222)
(93.4428 -0.5135 0.370635)
(93.1753 -5.8872 0.688973)
(82.0641 -4.60338 0.18807)
(83.0287 -3.77784 -0.222194)
(84.1018 -2.29616 -0.255241)
(83.8476 -1.81312 -0.125955)
(78.4125 -0.604638 -0.141523)
(142.126 212.039 78.9438)
(40.1352 50.7669 18.4845)
(147.685 38.8154 17.4973)
(58.7207 -0.0112328 -0.607122)
(116.089 2.52768 1.58173)
(60.6321 -26.4882 -0.185088)
(79.9776 -9.06456 -0.246851)
(57.3234 -4.31915 0.371416)
(62.6539 5.42292 0.335308)
(66.1257 7.35547 0.678398)
(72.2296 6.37274 0.614203)
(71.202 2.8043 0.52745)
(71.7376 -0.694928 0.371888)
(71.7596 -3.70827 0.0942244)
(72.5958 -5.22854 0.0584833)
(74.2276 -6.19421 -0.122984)
(75.9866 -5.60972 -0.148679)
(77.5607 -4.57189 -0.0604771)
(77.2545 -3.41972 -0.151633)
(71.3561 -1.48831 -0.398897)
(277.744 92.7375 -28.2832)
(147.648 16.9679 -8.263)
(164.231 50.2962 1.59948)
(53.8429 29.9411 -9.74386)
(116.148 19.4179 -4.2257)
(61.6144 -3.21552 -2.60666)
(84.8106 10.4934 0.243966)
(69.1623 -5.98101 0.192578)
(78.307 5.67447 -0.240432)
(71.5924 -0.657956 -0.762959)
(75.1291 1.27007 -0.495181)
(73.0435 -4.02699 -0.26877)
(75.0521 -4.92272 0.167382)
(74.09 -7.12968 0.236284)
(74.859 -7.05815 0.182111)
(74.045 -7.07987 0.0826772)
(74.459 -5.55823 0.00432837)
(73.9573 -4.03412 -0.00817235)
(72.9934 -2.07976 -0.109009)
(66.5067 -0.144485 -0.330668)
(413.887 88.5296 -43.8945)
(282.222 124.714 -44.9391)
(245.259 102.287 22.5864)
(123.831 68.0818 -0.289889)
(169.306 34.7847 1.50183)
(130.218 8.64631 0.642026)
(136.672 -3.86015 5.65025)
(105.381 -6.71861 3.45534)
(100.078 4.6618 0.512491)
(91.0906 4.80377 -1.34005)
(93.4749 3.45111 -1.32055)
(90.2765 -2.40418 -0.501235)
(86.8478 -6.59133 0.727941)
(77.8529 -8.46455 0.816247)
(73.8246 -6.93366 0.41595)
(69.2241 -6.58113 0.191743)
(68.4436 -5.06767 -0.0419294)
(68.0919 -3.93931 -0.0700757)
(67.5781 -2.60452 -0.131249)
(62.0714 -0.867821 -0.257373)
(189.837 46.1771 -129.595)
(79.9688 129.673 10.428)
(166.837 122.016 23.7737)
(138.919 70.4846 2.58826)
(196.093 33.6605 -0.622084)
(184.535 7.03811 -4.17625)
(187.167 8.37577 1.90852)
(142.341 8.67982 3.33886)
(129.24 16.4223 1.89761)
(116.746 10.0593 -0.445828)
(118.843 8.17674 -0.223838)
(114.971 3.35161 0.264613)
(109.175 2.5298 1.69526)
(94.2658 0.0171838 1.63742)
(87.886 -0.923279 1.02741)
(79.5762 -3.20976 0.69297)
(76.216 -4.0005 0.450527)
(73.1321 -3.86334 0.212837)
(71.3063 -2.92044 -0.0176558)
(64.1491 -1.0805 -0.215728)
(111.67 165.533 46.8249)
(-30.2977 19.6326 10.2745)
(128.075 6.17169 5.1775)
(51.9098 12.2664 0.51825)
(127.58 17.8554 1.72928)
(93.6061 18.7102 -1.74775)
(116.616 24.2212 0.802296)
(102.235 21.6929 0.787029)
(113.512 17.2888 1.74611)
(110.552 10.9614 1.15059)
(112.249 5.96547 1.63942)
(101.552 3.5943 1.85222)
(93.5789 4.48541 1.59113)
(84.7531 2.99625 0.549537)
(83.4046 1.94749 0.311956)
(79.5283 0.658439 0.29328)
(77.3434 -0.739674 0.370006)
(73.6159 -1.33262 0.220008)
(71.2088 -1.30743 -0.0577804)
(62.9872 -0.51379 -0.258253)
(286.495 -107.75 -120.608)
(-2.10051 35.9179 -40.8591)
(133.898 28.7411 -11.6023)
(60.1909 22.874 -1.30376)
(112.698 11.919 0.198643)
(82.6472 6.65645 1.57856)
(108.228 2.34108 3.49393)
(98.4347 0.759241 3.69599)
(109.482 1.19332 4.1598)
(100.154 1.65767 3.21325)
(97.2233 7.68534 2.30234)
(83.6276 9.24215 1.14795)
(82.7293 9.20176 0.317095)
(80.146 5.70929 0.00183651)
(82.4073 2.60847 -0.121434)
(82.0398 1.38959 -0.217677)
(81.9601 0.699637 -0.151007)
(79.7888 0.338771 -0.166158)
(77.3015 0.327168 -0.248005)
(68.5891 0.880637 -0.379741)
(105.996 -363.72 -284.747)
(-194.684 50.6422 6.31362)
(91.8716 31.9525 -12.6783)
(29.1516 17.6779 -3.9741)
(116.126 13.7814 -1.96147)
(91.8345 3.08186 -0.804435)
(118.866 -6.91499 0.971476)
(110.689 -10.2462 1.08194)
(118.005 -7.90129 4.02901)
(101.125 1.31593 4.90965)
(93.1251 9.43681 4.58062)
(79.8584 9.67078 2.62235)
(79.2747 6.40001 0.773275)
(77.3627 2.33808 0.176502)
(80.5405 1.01306 -0.121648)
(82.0352 2.22346 -0.358218)
(83.7797 3.08995 -0.477367)
(83.7325 3.50555 -0.603855)
(82.7162 3.34461 -0.797369)
(74.9749 2.78285 -0.8884)
(142.117 115.039 -138.558)
(-139.175 -69.9961 -13.6845)
(122.423 -34.1048 -14.7868)
(48.4265 -10.1087 0.689546)
(122.367 -3.90235 0.869725)
(95.4365 -3.03188 -1.08629)
(122.016 -5.89431 -4.22928)
(119.72 -6.97521 -7.15634)
(135.062 -7.75922 -8.42263)
(142.546 1.08548 -8.26871)
(162.847 8.04412 -2.38958)
(167.569 10.5521 2.32456)
(168.729 8.96818 3.84612)
(158.137 3.41593 5.26751)
(136.341 -1.25635 5.28694)
(120.026 0.961335 3.69134)
(111.925 3.85427 2.46012)
(107.659 5.8306 1.75027)
(105.264 7.18994 1.37361)
(97.8524 7.43643 1.17652)
(17.0412 -79.1333 61.4781)
(-11.8853 -35.7782 -0.510908)
(126.989 -30.0932 8.43506)
(92.1067 -17.4769 3.80391)
(140.907 4.80033 -3.56617)
(117.467 8.29842 -6.29038)
(128.271 12.9655 -6.83028)
(106.867 8.12826 -7.64681)
(109.504 5.94872 -4.43779)
(95.5038 4.53271 -2.43215)
(98.0058 4.86928 1.81073)
(92.5304 3.65273 1.31402)
(93.9866 1.21106 0.058225)
(91.6711 -0.110403 -0.412101)
(93.8895 -1.42954 -0.54078)
(94.5329 -1.6003 -0.273536)
(97.1467 -2.39733 0.0186541)
(100.204 -2.68645 -0.0723779)
(101.174 -3.88067 0.0936343)
(100.383 -3.83128 0.207364)
(47.9907 67.9888 -108.144)
(-26.5051 -36.6665 -41.2177)
(104.25 -4.04376 -26.7453)
(19.6037 -4.10835 -6.14932)
(108.374 4.84302 -8.16242)
(72.3621 7.31186 -1.892)
(106.646 5.96788 0.593663)
(89.9851 4.57438 0.924725)
(101.052 2.27889 2.96544)
(90.4281 3.146 2.57321)
(94.3564 3.25636 3.16843)
(89.3017 3.07887 1.56195)
(91.0911 0.536436 0.89398)
(88.6527 -0.683047 0.438014)
(90.3861 -2.46082 0.641652)
(90.1924 -3.29111 0.559168)
(91.9102 -4.20288 0.810382)
(92.9677 -4.24185 1.11919)
(92.9772 -5.48877 1.33278)
(87.9681 -4.95297 1.15393)
(136.263 -10.5086 -65.6529)
(19.781 -61.0365 -10.7201)
(131.281 -53.514 -25.402)
(63.5485 -29.3956 -4.69936)
(122.997 -23.7696 -4.09171)
(98.2313 -1.90026 -1.78181)
(118.348 -0.20292 2.39422)
(102.632 7.89981 2.31802)
(107.548 7.2615 3.71635)
(96.6877 9.70367 2.4891)
(98.4705 7.46273 2.52651)
(93.1204 6.14288 1.2847)
(94.3159 2.37591 1.19217)
(90.9129 0.502657 0.353517)
(91.6468 -2.39618 0.520398)
(90.3284 -3.26842 0.408882)
(90.822 -4.17843 0.297388)
(90.1494 -4.04259 0.316329)
(89.324 -5.00031 0.426003)
(81.8676 -4.43953 -0.15784)
(187.567 34.8076 -26.9846)
(149.455 17.1056 -8.52824)
(184.905 10.8083 10.7783)
(115.955 -7.96916 2.80391)
(131.109 -6.59202 0.460478)
(99.3716 3.72709 -1.70659)
(113.362 6.58965 -0.720969)
(99.6274 11.3011 -1.07353)
(105.731 9.79121 0.493323)
(98.1153 10.5151 0.558288)
(100.627 7.80514 1.22015)
(95.9276 6.69773 0.756792)
(96.1925 3.44844 0.858867)
(92.1747 1.96825 0.318244)
(91.6472 -1.42727 0.22875)
(88.9616 -2.79677 -0.137371)
(89.1075 -3.74886 -0.200878)
(88.2682 -3.69623 -0.128453)
(87.5383 -3.9977 0.0789849)
(79.3671 -3.09068 -0.436887)
(80.9927 -113.796 6.30212)
(-15.6511 -30.7203 -19.1207)
(164.698 3.38779 19.2216)
(92.8369 -5.52046 5.63012)
(129.213 -1.61696 4.97981)
(91.914 4.90653 -0.371742)
(108.811 4.24496 0.220485)
(95.7454 12.6986 -0.959862)
(103.306 9.85412 -0.0827474)
(97.2608 12.89 -0.424834)
(100.406 9.60762 0.142057)
(96.8445 9.46564 -0.130901)
(97.6104 6.05767 0.0936616)
(94.4659 4.65287 -0.0924472)
(94.6645 1.09414 -0.0951166)
(92.3534 -1.40015 -0.110356)
(92.9391 -3.49472 -0.157407)
(92.0019 -3.63214 -0.159982)
(91.4105 -3.25873 0.0751426)
(81.7698 -1.89418 -0.56644)
(167.863 -180.019 45.4709)
(88.5588 -90.7082 -18.1952)
(166.644 -32.7548 -0.248279)
(97.8363 -11.155 -4.0818)
(130.243 3.25345 0.0215671)
(89.1343 11.5656 -0.922951)
(106.381 8.0567 0.961149)
(93.2172 12.4634 -0.0403731)
(97.8315 9.52712 0.587533)
(93.0953 11.4667 0.0928998)
(95.1741 9.01319 0.191612)
(93.3492 8.89606 -0.0821554)
(94.6544 6.4605 -0.0913146)
(93.5163 4.77683 -0.104413)
(95.15 1.20838 0.450665)
(94.6554 -1.80571 0.615069)
(95.3536 -3.40385 0.493537)
(94.1217 -3.34913 0.122088)
(93.3072 -1.29042 -0.104841)
(83.5322 0.913183 -0.894807)
(119.127 14.0589 125.345)
(-62.6399 -45.1179 -20.2472)
(146.031 4.86678 -27.4515)
(53.3143 2.62977 -1.58053)
(125.926 15.3461 -0.503309)
(81.5465 19.0771 -1.6321)
(95.4959 6.35473 -0.262198)
(82.3657 21.494 -0.134717)
(88.3575 12.097 -0.505955)
(84.1713 16.1019 -0.477295)
(87.5889 10.1382 -0.625019)
(86.0861 10.0981 -0.608725)
(88.2827 6.03082 -0.420552)
(87.1632 3.65837 0.338469)
(88.3873 -0.573445 1.57344)
(87.0338 -2.43262 1.82437)
(86.8089 -2.70492 1.11497)
(84.9007 -2.16032 0.123361)
(83.9675 0.444583 -1.12503)
(77.4277 2.22512 -1.47507)
(139.018 -88.8889 134.089)
(26.3843 -53.7683 -48.5964)
(146.363 -44.6862 -18.6867)
(51.2156 -14.9307 -4.27361)
(110.81 3.15009 -1.72832)
(64.0371 34.4186 -1.97958)
(81.5956 16.6931 -0.643869)
(67.5557 10.7946 -1.98991)
(74.1995 12.17 -1.05851)
(75.737 9.10213 -1.41536)
(79.8142 8.68987 -1.18554)
(81.1015 6.46125 -0.964905)
(83.1002 4.88735 -0.439386)
(81.9763 2.20803 0.524403)
(76.2906 0.917569 1.45305)
(75.0857 -0.0891408 0.869012)
(74.9275 -0.293737 -0.189034)
(74.6728 -0.662132 -0.6132)
(74.4001 0.251227 -1.61683)
(69.8834 1.7902 -1.6716)
(128.159 -94.1954 -177.072)
(-0.694729 40.7852 -47.6662)
(130.122 8.57636 -45.735)
(36.7258 21.5401 -5.91112)
(92.7247 20.3685 -6.66672)
(59.6046 22.2427 -3.29078)
(74.7039 25.6452 -1.60595)
(69.4818 16.3322 -2.58721)
(69.1766 11.8374 -1.23243)
(70.2404 8.40095 -1.14664)
(72.9023 7.71688 -1.0335)
(74.6071 5.82976 -0.647663)
(76.3944 4.47864 -0.210005)
(75.8106 2.80802 0.698638)
(71.6081 1.54072 1.55463)
(69.9267 -0.407333 0.0926128)
(71.55 -1.35488 -0.178765)
(72.0437 -1.68117 -0.347927)
(72.0033 -0.906417 -0.825853)
(66.376 0.947097 -1.25666)
(72.9796 81.9643 -71.2673)
(-28.3784 69.4627 22.3562)
(60.1769 23.3048 -7.19049)
(-39.636 32.2454 6.60896)
(55.1982 31.6478 1.38383)
(6.29554 26.9394 -3.69302)
(47.1697 26.7181 -2.58721)
(62.03 21.6271 -1.22349)
(63.9486 16.2397 -0.170699)
(62.3457 11.9467 -0.485048)
(63.0844 9.96908 -0.0538607)
(63.8995 8.35629 0.0518045)
(64.7611 6.75015 -0.0970918)
(66.7597 5.14869 -0.0861157)
(71.4047 1.47827 -0.679736)
(75.52 -2.49532 -0.142833)
(76.1373 -2.53284 0.567449)
(75.7518 -2.10602 0.394479)
(74.6443 -0.512816 0.0316501)
(68.0575 1.47891 -0.592591)
(28.4725 280.733 -115.693)
(-124.944 70.9403 -5.70907)
(74.3222 9.36302 -13.2662)
(-69.34 4.32552 14.5622)
(71.9031 9.18556 7.76482)
(5.64282 10.821 2.48396)
(36.294 13.3743 1.65885)
(55.282 15.9895 0.74337)
(60.0169 16.4091 -0.394108)
(60.5257 12.2986 -1.06399)
(63.2753 7.90083 -0.674421)
(67.7064 5.97828 -0.450331)
(72.4602 4.83566 -0.577594)
(76.7063 2.75028 -0.679243)
(80.7325 -3.04412 -0.996708)
(79.8401 -4.09662 -0.501961)
(79.6125 -1.98284 0.306112)
(78.5969 -1.4138 0.426622)
(77.2242 -0.21381 0.241674)
(71.2789 1.27604 -0.198596)
(175.45 362.455 -235.257)
(-19.761 64.1523 -56.6277)
(103.153 27.3415 8.25739)
(-15.2282 11.9427 9.18378)
(71.4533 5.71583 16.0223)
(13.2085 -6.44406 5.1755)
(51.4148 -8.80994 4.92302)
(60.8589 2.32813 4.2067)
(67.194 14.7267 2.80312)
(68.9376 10.7558 -0.292188)
(70.365 5.55658 -0.58623)
(71.6898 2.2101 -0.173341)
(74.5048 0.0364568 0.260617)
(77.9558 -1.88014 0.817019)
(76.7137 -5.03448 0.641833)
(71.8329 -2.41594 -0.182819)
(73.0297 -1.55719 -0.404125)
(73.3709 -0.825697 -0.304109)
(73.027 -0.185766 -0.336806)
(68.048 1.02444 -0.625824)
(229.437 291.074 -93.1349)
(-25.3663 126.525 2.58138)
(126.725 69.8927 -11.6885)
(9.93561 10.7104 -6.15905)
(92.3158 5.28247 0.701657)
(28.9103 -26.7851 -0.0746381)
(57.5978 -2.91078 3.20446)
(39.7874 0.912294 2.38879)
(51.0782 4.29108 1.54399)
(52.2593 4.30409 1.51524)
(58.9082 2.365 1.29447)
(59.4454 -0.191969 1.0148)
(62.3618 -2.25931 0.76774)
(63.1807 -3.64653 0.487874)
(62.952 -3.85031 -0.153852)
(64.487 -4.21323 -0.230965)
(66.0808 -3.32479 -0.238253)
(67.4489 -2.61828 -0.12823)
(67.23 -1.60417 -0.444763)
(62.0379 -0.0682503 -1.02752)
(161.577 125.237 47.6134)
(11.0925 85.3507 -8.42788)
(137.822 76.3734 16.8077)
(21.967 20.3929 -12.8192)
(98.6609 10.7068 -4.10912)
(32.0684 -7.64325 -3.43693)
(64.1392 11.8195 0.863583)
(46.7914 -9.3573 0.61885)
(59.5554 3.50382 0.205061)
(53.5908 -4.1094 -0.591562)
(58.8813 -1.01926 -0.227431)
(57.1617 -5.54773 -0.0475303)
(60.1339 -5.01146 0.473654)
(59.8092 -6.58331 0.546846)
(61.5937 -6.04402 0.370147)
(61.632 -5.57142 0.154262)
(62.9601 -3.70337 -0.0269515)
(63.4625 -2.6166 -0.0965752)
(63.1068 -1.15943 -0.408643)
(57.6642 0.144588 -0.971201)
(468.438 53.8803 -132.577)
(-29.368 107.171 11.3998)
(187.172 64.4217 34.2914)
(54.1442 32.3601 -2.43668)
(127.336 9.25723 2.44449)
(72.0059 -2.92072 1.73299)
(96.464 -3.05983 8.67897)
(74.6451 -6.1155 3.81362)
(78.3928 -1.2238 1.40119)
(70.4347 -3.15081 -1.10248)
(71.2567 -3.28833 -0.850646)
(66.9998 -6.44164 0.0445475)
(66.3501 -7.12022 1.28684)
(62.5857 -7.95828 1.28436)
(61.6002 -6.38881 0.679888)
(59.4083 -5.72173 0.363928)
(59.802 -4.42425 -0.0253586)
(59.9999 -3.36579 -0.0974264)
(59.7176 -2.10927 -0.361185)
(54.5851 -0.623824 -0.826382)
(-5.53494 91.6023 90.4405)
(-92.1496 137.212 16.9813)
(124.359 89.9542 16.4377)
(77.7736 48.017 -2.47745)
(138.85 20.9714 1.26478)
(103.491 7.66148 -2.37064)
(116.355 12.8104 6.48862)
(91.3557 7.72483 4.92691)
(95.2364 7.99595 3.55243)
(84.6761 0.782453 0.15466)
(86.0354 0.0904333 0.481361)
(79.434 -3.27873 0.856893)
(77.6399 -1.70104 2.63541)
(71.1148 -3.00061 2.28017)
(69.3293 -3.03158 1.55198)
(65.3462 -4.08895 1.00106)
(64.725 -3.89362 0.542796)
(63.3789 -3.36593 0.247841)
(62.1845 -2.33851 -0.175273)
(55.8424 -0.850373 -0.747297)
(139.749 78.0655 -113.971)
(-115.728 56.2406 7.53665)
(110.753 18.1568 5.18813)
(9.73535 10.9754 -0.953398)
(97.3509 6.44207 4.94888)
(53.2362 3.61399 -1.60804)
(86.619 9.85499 3.14954)
(72.4424 8.15048 1.63176)
(86.8047 6.0043 3.29318)
(80.0272 1.67607 1.97562)
(82.2518 1.03995 2.41521)
(74.2799 0.341085 2.17203)
(72.43 1.58826 2.10978)
(67.6185 -0.0572771 0.820597)
(67.6125 -0.780909 0.508676)
(65.6908 -1.58218 0.328214)
(65.468 -1.93845 0.317726)
(64.2497 -1.82256 0.110906)
(62.7699 -1.44495 -0.31598)
(55.6693 -0.569582 -0.876152)
(115.913 -3.94048 30.4044)
(-101.081 79.1622 55.2748)
(93.8056 31.9011 0.0548539)
(32.1747 20.4619 0.57969)
(96.4125 4.8263 -0.297886)
(62.8184 1.67776 1.31372)
(92.3915 -0.319312 5.42505)
(80.0282 1.054 5.34103)
(92.0783 2.37122 6.44381)
(80.4226 2.48977 4.20665)
(79.3308 5.75262 3.36488)
(69.2755 5.68015 1.39996)
(69.3686 4.73695 0.388363)
(67.6401 1.21682 -0.0693843)
(70.2508 -0.713498 -0.249002)
(70.3514 -1.51915 -0.445477)
(71.0767 -1.43921 -0.424312)
(70.4592 -1.17697 -0.459339)
(69.0116 -0.650189 -0.548121)
(61.3832 0.175909 -1.06491)
(-65.0247 -145.824 -83.9343)
(-173.98 9.35933 -9.03029)
(71.2516 18.134 -24.3496)
(10.8849 6.89535 -4.7028)
(99.1351 4.23416 -5.36545)
(66.7561 -0.878806 -3.93292)
(94.0458 -4.83191 -0.110368)
(78.9586 -0.632586 0.106211)
(88.9823 4.11925 5.00652)
(78.9232 9.8301 4.13663)
(80.4675 11.0521 4.29507)
(73.6378 8.88932 1.85471)
(74.8913 3.66056 0.40399)
(74.5554 -1.00808 -0.0328717)
(77.8214 -2.44821 -0.197058)
(78.3884 -1.68256 -0.86313)
(79.8048 -0.676659 -1.3296)
(79.8243 0.0752986 -1.65704)
(78.995 0.577495 -1.86771)
(71.2591 0.802956 -1.94182)
(181.25 -44.2572 -28.9664)
(-67.7382 -104.132 -14.3428)
(109.038 -61.4545 -36.6266)
(43.9237 -28.2909 -5.49867)
(118.348 -12.3071 -7.74083)
(91.4312 -1.3967 -5.77363)
(113.453 2.35347 -6.90666)
(102.54 5.70668 -7.9907)
(112.015 8.88655 -5.47599)
(110.205 15.8489 -3.26701)
(121.384 18.3169 0.126224)
(135.204 17.4108 2.66538)
(144.791 7.73036 6.50415)
(139.279 0.925674 9.7619)
(128.803 -2.10051 9.89728)
(119.158 -0.412365 7.22399)
(114.872 1.44455 5.31788)
(112.193 2.5872 4.12742)
(110.155 3.33976 3.23824)
(102.936 3.40891 2.6479)
(76.358 -173.058 31.4601)
(-8.39042 -23.642 -13.4434)
(129.292 -21.7093 -4.58814)
(95.2159 -14.7018 2.04769)
(140.338 3.77376 -7.88515)
(109.883 5.55092 -8.71298)
(117.1 10.2868 -6.85004)
(87.2794 5.06491 -7.13793)
(90.611 2.60807 -3.764)
(75.6357 0.821761 -3.39493)
(81.6981 0.304007 0.714709)
(78.1864 0.00355999 0.47856)
(82.375 -1.33761 0.178926)
(80.7495 -1.71256 -0.109952)
(83.6446 -2.39694 0.0972212)
(84.2481 -2.21303 0.107144)
(86.9868 -2.83148 0.32574)
(89.98 -2.90717 0.30509)
(90.9195 -4.11425 0.654789)
(90.4646 -3.8918 0.702348)
(59.1117 -29.8953 -38.1668)
(-10.1139 -36.6103 -39.7837)
(100.3 -0.551715 -29.5404)
(18.6815 0.460053 -7.33799)
(101.388 8.01503 -10.8299)
(58.5714 7.38626 -2.31284)
(94.3097 4.76195 0.651935)
(72.4941 3.30424 0.801727)
(85.6712 0.435114 2.59883)
(73.9035 1.38251 1.82693)
(80.0687 0.665172 2.45687)
(75.0504 0.903187 1.13898)
(77.8793 -1.0777 0.740645)
(75.3261 -1.53593 0.256443)
(77.0999 -2.78359 0.441346)
(76.5878 -2.8725 0.37368)
(77.9446 -3.46636 0.566234)
(78.5663 -3.30228 0.785564)
(78.4989 -4.40798 0.935905)
(73.8818 -3.59063 0.385599)
(151.97 -19.7736 -37.9136)
(34.9684 -54.1295 -18.0702)
(119.793 -48.3984 -27.7162)
(48.4142 -25.9678 -6.47276)
(109.467 -18.7919 -4.47596)
(76.378 2.35773 -1.66115)
(99.1387 2.40751 2.17249)
(80.5668 9.33224 1.72347)
(89.0432 6.50536 3.24328)
(78.3396 8.04079 1.8967)
(82.2606 4.91631 2.18104)
(76.8676 4.08547 0.979057)
(78.6272 0.907128 0.970439)
(75.4503 -0.0455763 0.324922)
(76.3325 -1.95217 0.478819)
(75.1361 -2.20975 0.318878)
(75.728 -2.92106 0.257842)
(74.91 -2.6271 0.247935)
(74.0984 -3.67424 0.240165)
(67.4988 -2.95863 -0.768597)
(252.219 159.298 -22.4174)
(108.895 26.7928 -15.7872)
(155.391 10.7066 11.7382)
(91.8915 -8.06884 2.6263)
(116.685 -3.16087 2.30531)
(81.242 6.72946 -0.968162)
(97.8199 8.2293 0.003367)
(80.7796 12.5531 -0.876644)
(88.5605 9.84215 0.608951)
(79.4625 10.3738 0.422007)
(82.9748 7.03114 1.13375)
(77.8937 6.0188 0.63568)
(78.8666 2.81671 0.801931)
(75.3823 1.51375 0.255337)
(75.5579 -0.958307 0.264531)
(73.893 -1.70388 -0.00752683)
(74.2002 -2.40631 -0.103572)
(73.1082 -2.17297 -0.0818896)
(72.233 -2.56784 -0.0179647)
(64.711 -1.70153 -1.06497)
(70.7731 47.9379 28.2236)
(-13.8269 -27.4062 -19.5424)
(151.138 8.29332 20.0261)
(66.9471 0.704378 2.80719)
(114.104 4.4945 6.64277)
(72.618 9.65917 -0.0663223)
(93.1331 6.59101 0.789029)
(76.6548 14.4331 -0.841446)
(85.4281 9.8582 0.0945139)
(77.7081 12.874 -0.386213)
(81.5566 8.61888 0.197616)
(77.3896 8.51629 -0.118032)
(78.7292 4.67578 0.124103)
(75.9472 3.20027 -0.0182942)
(76.8073 0.303076 0.100232)
(75.4837 -1.28486 0.0522697)
(76.2931 -2.27894 -0.0396491)
(75.2838 -1.98216 -0.0689054)
(74.4377 -1.47947 0.0639776)
(65.4787 -0.354041 -1.21928)
(191.29 -122.315 -86.0473)
(61.998 -65.2923 -21.5733)
(165.723 -18.0446 10.4883)
(84.8458 1.84524 -2.20484)
(117.984 10.8517 1.75282)
(71.1697 16.5169 -0.871749)
(91.3503 9.99694 0.883585)
(75.2449 14.4999 -0.230635)
(81.0077 10.0478 0.495281)
(74.9552 12.0334 0.0430179)
(77.4603 8.58704 0.237878)
(75.0069 8.28602 -0.0349028)
(76.4393 5.16499 0.0106943)
(75.16 3.32928 -0.00671676)
(76.794 -0.0393125 0.368519)
(76.4994 -1.77221 0.529982)
(77.3869 -2.20011 0.441924)
(76.4189 -1.64933 0.0882969)
(75.4191 0.873109 -0.161789)
(66.3304 2.01452 -1.47337)
(207.493 -88.6675 -177.192)
(-61.8611 -15.1633 -29.9467)
(139.423 24.6354 -38.6735)
(41.7138 16.3316 -2.86745)
(113.32 23.7994 -1.42614)
(62.0353 24.4821 -1.7565)
(79.2985 8.42184 -0.111948)
(64.2152 24.3315 -0.274613)
(71.8062 12.4772 -0.274909)
(67.0464 16.7483 -0.315445)
(70.9667 9.55952 -0.400829)
(69.0425 9.5921 -0.425977)
(71.2929 4.79857 -0.0560468)
(70.1531 2.8234 0.427816)
(71.5864 -0.374093 1.19316)
(71.5259 -1.2655 1.40787)
(72.3992 -1.16588 0.859865)
(71.3617 -0.524261 -0.00970126)
(70.383 2.15395 -1.04028)
(63.356 2.91783 -2.02494)
(317.082 -267.134 30.7057)
(11.8502 -43.3254 -32.6234)
(144.635 -23.5493 -15.699)
(36.9491 -1.79187 -4.28016)
(99.4344 10.92 -0.922973)
(48.6577 39.1283 -2.06149)
(67.7183 16.5627 -0.829192)
(55.3095 14.4626 -2.01604)
(61.3911 11.6271 -1.12382)
(62.3706 9.70965 -1.26175)
(65.862 7.8946 -1.0566)
(66.5339 5.84354 -0.815964)
(68.167 3.62308 -0.116385)
(67.5011 1.23431 0.887537)
(64.6331 1.00086 1.4254)
(64.6758 0.451735 0.656638)
(64.961 0.452844 -0.207628)
(64.4736 0.265251 -0.564598)
(63.8391 1.36772 -1.45066)
(58.4424 2.12646 -2.23019)
(341.61 -195.897 73.2332)
(127.445 3.60519 -27.9729)
(137.731 7.20969 -41.4855)
(38.2847 24.4362 -8.58398)
(82.1385 24.936 -8.18432)
(48.125 28.0774 -3.58273)
(60.2627 24.9385 -1.77614)
(54.9425 15.5506 -1.98068)
(57.3736 11.104 -1.1263)
(58.3779 8.22542 -1.01183)
(61.1832 7.03498 -0.92402)
(62.2377 5.0198 -0.527678)
(63.7251 3.44274 0.0726241)
(63.6002 1.78921 1.00081)
(63.1598 0.746245 1.15818)
(61.4984 0.0774199 0.521344)
(62.6135 -0.548504 -0.0447011)
(62.5457 -0.866551 -0.216411)
(62.0405 -0.00914824 -0.837863)
(56.3997 1.1572 -1.83154)
(-16.263 42.5502 -2.18995)
(-33.5143 60.2172 13.3395)
(37.9537 33.716 -10.8454)
(-39.1797 32.9335 3.4131)
(43.2673 29.7362 -1.26701)
(2.29955 27.0059 -2.67497)
(40.4558 25.4429 -2.55096)
(52.4526 18.0894 -0.916217)
(54.2964 13.1367 -0.194713)
(54.133 10.0155 -0.546857)
(55.4485 8.4779 -0.213372)
(56.7835 7.00118 -0.128603)
(58.2482 5.29975 -0.297417)
(60.5467 3.75843 -0.327266)
(63.4158 1.24257 -0.320795)
(64.2987 -0.924008 0.61054)
(64.8922 -0.986085 0.626884)
(64.6855 -0.735149 0.430904)
(63.7675 0.430682 -0.0493113)
(57.7562 1.49624 -1.20249)
(70.8045 89.8989 -71.0143)
(-67.7199 6.48809 -10.6245)
(32.6252 10.4014 -14.1548)
(-68.419 8.34648 11.6777)
(54.7385 9.8788 3.81453)
(-2.79497 8.26344 5.03967)
(29.9004 8.91643 3.3587)
(48.8109 11.7736 1.39986)
(52.9042 12.207 -0.163433)
(54.2094 9.546 0.200638)
(57.4486 7.43408 1.03384)
(61.3621 5.2984 -0.861909)
(64.4377 3.06585 -0.58631)
(67.5503 0.535548 -0.833584)
(69.5158 -2.64088 -0.58204)
(66.716 -1.93582 0.290867)
(66.5757 -0.279357 0.472367)
(66.3389 -0.190695 0.402265)
(65.5078 0.817732 0.040672)
(60.2149 1.56627 -0.855214)
(453.179 312.222 -148.845)
(77.7593 46.0918 -25.4053)
(77.9076 19.0548 15.3711)
(-47.1428 15.1678 9.64903)
(54.6148 5.88207 11.3865)
(-1.91143 -10.2611 7.59826)
(38.6696 -8.06973 5.69554)
(47.5336 5.68194 4.15984)
(53.8396 10.8862 2.3281)
(56.6669 6.85629 0.0425207)
(58.1486 3.62103 -0.218673)
(60.3017 1.20858 0.0949768)
(63.2613 -0.428145 0.422232)
(66.0361 -2.2423 0.633302)
(65.1991 -3.62953 0.393703)
(61.6772 -0.947248 0.22355)
(62.6985 -0.35975 -0.246034)
(62.8953 -0.00130265 -0.240098)
(62.5432 0.69985 -0.530819)
(57.8689 1.54387 -1.28539)
(201.545 177.134 -140.388)
(64.2479 79.5358 -2.30075)
(121.336 70.2848 -3.37495)
(-2.95883 12.0728 -2.08882)
(80.0187 5.62707 1.55998)
(10.382 -25.6138 0.369787)
(40.9081 3.29915 3.38484)
(25.795 2.82914 2.09224)
(40.9289 4.24557 1.5439)
(41.2553 2.92386 1.17421)
(48.6347 0.951208 1.08737)
(49.5925 -0.903853 0.838844)
(53.3867 -2.30223 0.607243)
(54.5745 -3.04837 0.427326)
(54.159 -2.56859 0.146969)
(55.6732 -2.84326 -0.127836)
(57.0944 -2.04488 -0.268384)
(58.2992 -1.58237 -0.200962)
(57.9856 -0.659329 -0.683546)
(53.2757 0.458406 -1.70918)
(227.706 320.272 -12.0829)
(-98.9182 23.1327 0.559421)
(148.567 71.1632 7.28381)
(-2.95092 14.1057 -9.65707)
(86.7255 7.80911 -1.97534)
(8.71176 -9.11465 -2.30229)
(49.84 14.2872 0.364823)
(30.8305 -11.0327 0.55058)
(46.6143 3.26357 -0.0771226)
(40.6756 -5.29645 -0.261158)