/*--------------------------------*- C++ -*----------------------------------*\
  =========                 |
  \\      /  F ield         | OpenFOAM: The Open Source CFD Toolbox
   \\    /   O peration     | Website:  https://openfoam.org
    \\  /    A nd           | Version:  10
     \\/     M anipulation  |
\*---------------------------------------------------------------------------*/
FoamFile
{
    format      ascii;
    class       volScalarField;
    location    "5.1";
    object      k_0;
}
// * * * * * * * * * * * * * * * * * * * * * * * * * * * * * * * * * * * * * //

dimensions      [0 2 -2 0 0 0 0];

internalField   nonuniform List<scalar> 
12920
(
164.105
381.297
508.416
498.782
419.338
398.272
403.224
399.884
359.719
233.65
162.094
133.636
115.275
100.707
88.5332
78.2578
72.1053
67.6074
66.279
63.1979
2799.31
1798.12
1236.05
831.724
669.214
499.485
387.758
305.648
236.314
191.625
162.874
152.416
143.394
137.839
130.603
125.548
122.495
121.777
121.482
121.222
2108.92
2440.49
1700.07
1017.99
754.802
521.796
354.4
269.027
207.929
181.613
160.875
152.182
142.705
137.399
131.724
128.508
126.061
124.251
122.818
122.648
2727.44
2278.16
1659.69
955.099
647.531
417.944
310.702
236.355
191.519
170.555
155.827
149.065
142.213
137.718
132.246
128.054
124.505
121.95
120.064
119.242
1162.31
2451.38
2170.01
1487.49
920.618
594.419
411.865
308.831
245.637
208.419
187.449
175.761
164.061
154.19
143.672
137.144
132.273
128.421
125.195
120.546
5271.73
3963.15
1871.34
950.256
611.316
466.864
377.662
323.423
278.246
249.267
223.286
202.174
178.191
157.745
145.475
139.444
136.125
132.87
130.497
122.932
8675.8
4708.47
2890.6
1391.9
777.662
543.636
432.52
359.07
312.317
271.994
233.546
195.882
167.916
154.056
150.904
147.056
142.118
135.678
132.817
125.082
868.88
2144.79
1986.81
1420.66
868.062
654.058
381.231
260.311
215.018
161.248
138.569
119.099
112.568
109.95
188.009
162.012
145.151
134.437
131.598
125.929
1954.63
2319.79
2008.31
1241.27
849.769
513.211
311.139
203.282
192.854
115.712
76.141
69.795
76.0008
77.0331
116.684
143.095
130.01
122.672
122.551
123.169
2201.36
2874.99
1863.51
868.672
515.234
217.693
165.734
202.602
221.692
155.711
75.9413
76.9754
67.8785
58.8688
92.5204
137.987
130.401
123.227
122.119
122.502
7109.14
3055.88
2648.66
1821.24
877.218
367.708
146.992
121.931
123.648
111.748
87.7144
75.8948
76.9533
69.0859
112.192
170.548
158.032
142.811
130.633
122.664
5738.53
5133.45
4304.79
2210.71
903.474
303.804
175.394
135.849
132.748
113.291
107.685
112.1
92.8665
81.7975
137.11
197.957
176.928
156.345
140.92
125.706
1021.03
2879.45
2243.16
1113.17
610.953
478.773
278.535
216.29
199.959
180.201
157.442
143.003
135.818
133.101
231.13
210.084
191.073
167.472
154.218
134.068
1745.92
2519.46
1525.39
851.22
566.475
453.107
388.721
342.644
311.36
285.272
263.446
252.721
246.857
242.483
237.81
226.023
198.552
170.637
156.784
136
6614.81
3085.91
2506.91
1939.74
1196.68
793.377
489.857
366.249
320.883
311.755
301.549
293.141
282.484
274.492
262.608
236.742
200.165
164.64
147.002
128.377
1765.78
3215.73
2825.65
2395.4
1673.38
1185.24
718.171
460.104
335.543
299.748
288.881
284.907
276.919
269.694
255.988
221.365
177.707
144.219
127.208
114.341
665.738
2290.92
2996.72
2892.27
2113.06
1346.99
829.743
539.703
396.456
346.873
313.612
290.301
269.255
256.925
240.67
210.273
172.117
141.66
123.016
105.818
416.436
2549.25
2836.11
2552.51
1765.72
1127.45
750.174
565.235
456.173
398.978
352.147
319.748
291.724
278.207
267.965
246.167
203.151
164.541
140.915
110.201
2795.33
2240.36
2016.2
1493.59
907.648
593.34
446.065
374.126
313.304
268.389
230.134
206.998
191.066
175.046
159.394
145.714
139.55
137.671
137.996
132.666
2217.85
1482.85
980.045
642.635
484.681
432.955
368.774
301.328
234.075
185.252
144.174
117.139
98.1909
84.2274
73.0766
65.6093
64.6025
65.9386
73.9699
74.9758
451.052
1817.97
1857.85
1563.18
1109.45
924.697
851.469
748.437
533.497
377.74
299.265
255.192
231.534
218.909
208.534
197.602
188.368
177.304
173.875
166.444
8276.29
5447.8
3089.43
2034.78
1459.32
1135.02
848.71
696.538
547.958
487.576
440.999
432.203
409.856
397.905
376.716
370.362
364.101
364.521
364.688
364.399
3201.14
6590.74
4286.62
2440.2
1817.25
1230.17
863.28
679.222
542.152
494.955
441.248
426.541
400.686
392.529
379.654
374.858
368.634
366.49
364.107
363.799
8986.98
6673.58
4081.86
2282.87
1638.67
1051.07
836.78
634.427
532.834
473.822
435.516
419.405
400.875
390.749
376.811
368.67
361.216
357.672
355.847
355.284
8561.77
8251.44
5266.98
3231.25
2067.52
1412.75
1029.99
818.32
664.826
586.6
526.896
497.696
459.583
432.735
404.223
389.108
377.563
370.134
364.07
356.937
12487.4
9062.71
4762.35
2371.84
1552.44
1187.51
1018.53
872.416
756.382
677.392
597.727
543.552
481.764
435.415
406.276
392.585
383.707
377.722
372.276
356.84
8996.17
10113.2
7509.46
3684.53
1763.06
1323
1105.95
992.778
862.277
755.258
624.649
523.31
453.713
416.789
400.106
393.682
389.285
384.164
380.869
366.285
9176.09
9247.65
5090.99
3222.7
1654.31
1550.71
1224.33
1119.42
872.121
656.749
534.153
453.489
419.175
400.86
425.108
400.164
386.381
381.156
381.606
375.915
3223.96
6240.87
3964.46
3029.57
1525.71
1441.17
1339.95
1320.3
909.166
610.574
460.178
417.893
400.249
380.126
360.872
338.562
338.41
342.739
356.213
369.079
7343.58
6155.53
2466.38
1654.97
926.463
918.211
1096.05
1060.31
915.895
632.922
458.312
404.488
342.28
286.376
273.714
316.466
325.614
332.092
342.157
355.864
19420.3
5991.95
4095.25
2907.94
1574.8
1241.21
872.384
791.714
681.889
560.103
452.511
374.417
326.257
307.07
324.384
374.257
373.35
364.757
354.838
351.109
5447.29
8874.44
6044.07
3213.69
1514.25
1214.2
1037.39
857.168
715.654
599.77
554.49
507.057
440.293
392.329
399.586
448.237
433.955
408.171
384.97
360.962
1772.16
6489.85
4058.03
2221.12
1285.97
1224.75
1041.85
888.445
761.024
642.797
569.99
526.01
502.969
490.328
545.937
524.292
499.798
461.138
431.92
386.655
1804.05
6387.11
2886.7
1732.91
1218.64
1142.26
1036.81
924.727
857.942
779.428
721.996
691.494
669.616
645.009
622.007
584.314
533.961
480.852
446.888
393.506
8047.11
8257.51
5107.55
3897.98
2192.88
1666.79
1059.02
980.256
908.132
895.282
855.463
817.196
770.258
726.712
675.382
613.789
543.38
470.89
425.616
371.777
7709.3
7672.18
6099.18
4617.79
2957.77
2190.18
1390.31
1119.54
928.531
890.043
845.575
823.898
785.352
750.371
688.967
606.618
499.014
416.477
376.955
339.747
8504.82
8843.13
8104.05
6454.89
3802.02
2609.59
1596.33
1252.44
1044.17
973.318
884.132
829.728
772.431
736.246
685.309
610.372
495.997
409.157
359.698
312.963
2880.88
8561.11
7014.29
5026.27
2773.48
1969.43
1528.26
1359.45
1173.74
1078.83
968.378
896.35
825.969
785.899
751.56
691.49
577.743
471.848
403.24
324.404
4474.06
4201.77
3026.68
1858.35
1208.91
1095.91
961.675
895.058
787.662
734.255
663.57
622.285
578.663
535.829
489.936
446.633
419.479
400.897
391.606
368.331
2861.21
1731.31
1050.21
929.263
917.235
904.708
787.069
579.655
435.483
344.909
288.937
254.817
229.893
206.407
188.525
176.585
173.844
172.517
169.427
154.593
2778.45
3112.62
2953.59
2293.63
1565.69
1186.62
962.137
724.395
515.079
386.351
313.459
275.27
261.889
253.091
246.861
237.073
232.307
222.601
218.998
208.521
6694.43
7197.6
4263.01
2530.75
1700.21
1272.85
961.908
799.117
667.156
636.217
604.071
599.804
577.668
566.79
550.401
547.723
544.067
544.767
544.21
541.437
5556.66
9067.63
5481.01
3184.16
2305.59
1537.23
1129.34
903.644
762.899
704.4
643.983
618.723
585.751
572.102
556.072
550.4
543.267
540.631
536.833
534.802
11936.8
9685.86
5014.85
2945.13
2125.74
1399.1
1148.35
884.649
778.314
691.109
638.102
602.552
571.743
552.726
536.306
527.84
520.893
518.077
515.386
514.949
18906.4
10058.1
6328.09
3825.11
2591.65
1783.6
1384.35
1098.83
923.031
808.065
726.774
669.87
618.62
583.303
554.503
538.125
525.046
516.606
509.2
502.915
15630.9
10102.4
5423
3019.88
2195.42
1657.68
1458.24
1196.03
1031.07
888.051
781.051
700.172
634.471
589.216
561.971
543.171
529.155
517.055
506.928
490.23
5110.1
11577.4
8739.52
4102.35
2495.93
2047.28
1697.02
1441.73
1171.1
969.751
805.749
693.375
624.779
587.546
566.884
553.315
542.987
530.478
520.504
496.196
15344.4
10638.7
5165.45
3595.23
2425.45
2187.24
1860.84
1542.93
1200.04
899.857
750.933
644.368
592.799
562.231
567.884
552.726
545.683
539.255
533.981
515.777
12560.8
6610.76
3894.61
3127.41
2183.33
2138.41
1990.24
1681.44
1117.15
813.911
669.702
604.463
563.47
530.777
495.951
479.829
490.204
505.394
518.221
519.736
14300.8
5952.94
3065.39
2184.46
1720.97
1596.97
1696.08
1399.08
1081.61
791.223
645.343
553.012
469.598
411.469
394.715
443.784
464.278
478.975
492.106
503.961
10745.2
6291.85
4385.67
3227.1
2127.64
1721
1360.85
1146.39
936.286
785.647
479.152
379.954
378.582
402.29
433.965
488.325
491.664
488.24
485.565
486.288
13814.7
7299.3
4699.26
3128.92
2125.03
1805.28
1574.36
1214.01
972.582
817.789
726.105
639.409
567.187
520.334
524.398
566.3
549.731
525.017
506.047
487.149
9984.31
7154.89
5010.2
2831.21
2122.71
1839.32
1597.46
1245.09
1041.98
870.985
780.544
720.934
686.42
661.417
694.711
661.81
625.671
583.296
550.452
505.637
14275.2
8960.97
4104.31
2439.32
2106.17
1761.19
1571.76
1378.86
1231.49
1103.92
1009.56
947.732
892.526
840.393
786.464
722.628
663.038
608.026
567.938
512.077
6458.51
10024.5
6138.66
3991.93
2608.06
2042.98
1627.85
1539.28
1399.28
1309.07
1194.35
1101.24
1006.29
919.156
832.368
746.055
672.122
603.484
552.529
495.538
11289.5
9783.17
7060.08
5124.19
3248.66
2371.07
1769.99
1597.88
1438.47
1357.03
1245.53
1152.75
1048.98
953.489
845.383
733.425
634.922
558.771
513.291
468.093
26739.1
15569.2
9506.69
6228.79
3648.83
2719.05
1999.93
1753.74
1518.86
1405.96
1270.3
1166.38
1057.13
967.919
865.672
748.852
629.872
540.637
485.08
435.605
16310.5
11811.6
7286.39
4885.81
3288.25
2666.24
2117.45
1863.13
1606.14
1463.51
1308.39
1188.86
1071.24
982.564
889.498
783.196
666.5
569.238
504.892
437.219
4484.73
5009.91
3920.93
2612.17
2018.32
1678.85
1340.85
1213.13
1083.41
1024
937.599
859.275
771.973
692.563
625.114
571.741
534.505
503.863
485.325
448.127
1873.72
2373.78
1955
1785.82
1562.94
1226.79
877.248
611.582
461.762
377.641
330.819
294.118
266.071
235.14
214.901
201.024
192.217
172.84
163.025
157.479
1569.47
3959.49
3708.06
2792.64
1833.26
1202.09
852.656
594.934
451.01
355.892
304.147
279.012
273.931
265.761
260.424
249.537
245.266
234.562
230.48
217.46
3801.79
7505.71
5427.09
2960.01
1872.6
1314.56
1055.86
893.677
811.995
794.054
778.315
769.265
747.655
737.765
728.544
728.726
728.514
730.49
730.211
726.436
26343.4
13876.6
6455.27
3783.17
2697.31
1741.7
1376.02
1100.44
987.974
900.841
843.76
801.108
769.496
750.027
736.89
730.914
725.708
723.669
719.019
715.992
19519.8
16345.9
6523.24
3630.62
2518.84
1678.29
1420.89
1095.16
1008.42
882.357
830.045
772.683
741.176
715.373
701.938
693.315
688.4
686.686
683.659
683.956
13471.8
12495.3
7271.92
4290.5
3040.61
2041.45
1700.52
1324.31
1163.94
999.74
913.224
828.404
777.108
735.427
710.777
693.09
681.231
672.409
664.074
659.717
16363.9
10803.1
5881.34
3531.51
2770.72
2011.39
1831.61
1431.5
1252.62
1050.21
942.16
842.61
785.814
740.974
717.351
693.242
677.658
661.732
647.819
633.174
40231.9
22003
7992.58
4077.07
3209.67
2512.42
2110.77
1679.94
1363.58
1111.86
959.032
846.61
791.443
753.544
734.098
714.401
698.984
678.02
659.305
632.009
24514.7
10187.1
5688.58
3787.24
3158.57
2562.49
2218.81
1721.55
1362.74
1047.87
903.73
799.306
746.726
713.076
724.505
716.202
710.749
698.562
684.703
653.956
16477.9
6792.74
4621.66
3297.53
2813.29
2593.5
2353.4
1762.01
1220.19
948.098
818.85
750.499
704.296
667.144
628.917
647.748
670.022
683.415
684.863
673.955
11296.7
6336.27
3980.27
2743.41
2272.71
2053.39
2048.62
1558.14
1163.93
907.991
775.925
671.9
589.406
545.662
532.538
601.45
628.739
647.045
659.276
663.303
19980.6
7347.49
5113.3
3355.23
2560.78
2017.51
1681.21
1371.56
1105.19
929.609
683.111
539.052
489.753
512.642
550.245
618.091
627.29
630.143
632.873
636.777
7335.85
7368.29
5118.62
3360.88
2587.97
2208.47
1917.27
1435.17
1138.24
956.095
830.965
730.209
665.119
630.12
635.814
685.7
670.133
651.048
637.273
626.018
20357.3
8641.7
6161.25
3494.97
2816.5
2328.16
1966.41
1483.37
1236.41
1045.63
953.93
884.882
843.523
805.22
831.408
791.127
748.424
705.754
670.94
634.988
17915
14298.3
5648.43
3223.99
2785.16
2206.03
1963.27
1721.36
1522.33
1362.42
1252.12
1164.9
1085.53
1008.7
931.644
855.024
790.438
733.015
687.288
640.389
18483.2
11570.1
6633.17
4127.69
3074.8
2356.36
2119.23
1944.19
1781.3
1620.01
1468.47
1327.12
1196.97
1077.27
970.896
874.982
798.723
729.318
675.374
627.114
12922.8
10477.6
7882.22
5191.47
3532.98
2581.6
2198.95
1995.78
1861.06
1711.27
1563.26
1401.31
1248.77
1102.69
969.608
848.085
760.14
691.087
643.99
603.261
15669.9
12601.6
9197.31
5751.91
3950.16
2989.18
2445.28
2147.18
1933.03
1761.71
1596.67
1424.63
1265.28
1117.86
980.003
844.67
739.65
660.455
607.561
565.211
35772.7
15811.9
8051.55
5295
4095.74
3151.88
2605.33
2244.97
1996.62
1795.49
1612.98
1423.35
1259.01
1111.16
979.503
851.767
748.335
666.645
610.005
557.193
17724.8
8559.25
5565.08
3717.01
3018.36
2159.6
1710.6
1536.72
1413.48
1314.74
1196.72
1047.08
920.461
808.651
733.82
677.484
641.032
607.315
581.638
543.861
2162.31
3220.78
2974.94
2589.15
2073.9
1448.3
930.999
606.197
465.701
388.039
344.246
295.918
260.07
225.079
204.278
182.538
167.332
157.692
160.821
161.392
6256.16
6268.67
4178.23
2351.16
1343.56
823.747
583.978
443
359.088
301.729
277.154
260.474
255.482
242.57
233.954
221.752
217.189
205.741
201.853
187.987
8267.63
9450.6
6723.41
3375.44
2222.99
1456.98
1339.26
1099.73
1142.07
1067.26
1101.55
1045.27
1049.71
1019.76
1024.93
1018.02
1023.88
1021.28
1021.24
1003.87
15552.2
13133.1
8085.26
4772.69
3548.79
2148.84
1905.18
1451.18
1413.07
1227.77
1198.17
1102.52
1089.29
1047.23
1045.1
1030.26
1029.53
1022.19
1018.15
1003.1
45315.8
31615.5
9987.59
4845.43
3343.25
2201.96
1930.51
1444.33
1406.95
1188.93
1164.55
1057.91
1042.86
996.93
993.016
977.469
977.215
971.307
969.929
960.595
48359.6
22523.7
9929.02
5345.89
4095.85
2538.47
2335.65
1716.28
1604.55
1319.61
1251.53
1106.47
1073.04
1008.47
995.272
967.687
960.107
944.585
938.764
925.514
48718.2
11858.6
7179.38
4472.92
3733.14
2560.29
2463.85
1799.29
1643.05
1327.86
1245.94
1103.5
1068.32
1009.31
991.508
955.36
940.432
916.061
902.08
881.062
39543.5
15326.6
8672.66
4766.38
4558.98
3159.19
2862.69
2067
1747.49
1387.68
1270.62
1126.24
1095.25
1039.88
1023.86
986.786
964.723
926.91
903.876
868.037
38825.4
14191.2
7238.23
4796.2
4335.88
3192.66
2579.23
1933.6
1568.3
1246.13
1122.55
1018.63
976.671
937.321
1019.89
997.261
980.095
953.122
928.345
882.312
30956.5
9929.34
5775.01
4191.75
3762.64
3065.99
2700.4
1850.83
1376.05
1125.3
1024.68
968.012
932.675
895.138
873.24
951.849
959.028
956.194
947.409
909.385
19611.2
8042.55
5085.79
3948.68
2929.23
2471
2336.27
1734.01
1316.78
1059.74
929.637
834.767
814.933
802.038
797.197
895.987
910.179
921.172
928.195
910.785
23873.5
9980.77
6031.64
4014.19
3266.56
2402.35
2017.1
1624.82
1315.92
1064.81
879.438
718.778
714.872
767.558
794.416
882.886
883.41
884.571
891.68
883.61
14702.4
8379.24
5670.29
4188.12
3180.29
2615.08
2264.98
1678.09
1345.31
1118.74
971.145
878.688
868.042
851.828
854.304
929.403
905.09
886.264
881.427
865.248
5998.09
8396.15
7311.2
4218.75
3794.2
2946.52
2343.28
1758.12
1490.08
1283.28
1202.19
1121.56
1079.49
1023.52
1083.99
1027.69
975.455
931.484
900.619
866.352
18269.8
12035.7
6480.53
4248.14
3602.26
2734.64
2460.8
2146.89
1910.97
1707.52
1601.45
1475.13
1380.4
1272.11
1175.29
1089.59
1020.69
958.497
915.08
871.94
23860.2
11731.5
7644.84
4684.44
3849.43
2782.01
2750.06
2392.05
2261.28
1986.41
1830.5
1625.94
1475.01
1324.2
1207.59
1104.69
1025.12
954.044
905.067
862.032
13130.3
11050.1
9193.11
5375.64
4080.57
2879.63
2749.88
2402.14
2350.45
2088.57
1948.94
1686.08
1513.54
1314.6
1178.5
1058.88
983.395
919.262
879.11
842.065
16673
11169
10015.4
5762.02
4866.4
3287.61
3084.18
2541.36
2449.73
2143.29
1992.04
1699.37
1516.34
1301.75
1156.98
1025.24
943.347
875.598
833.845
797.167
13372
10288.7
9134.96
5731.74
5174.15
3458
3239.92
2606.92
2496.26
2148.75
1992.3
1672.59
1495.43
1273.7
1137.49
1009.35
931.796
864.932
821.946
780.41
34221.5
12829.1
8144.71
4845.94
4362.56
2519.12
2360.52
1928.03
1909.01
1660.11
1536.46
1250.69
1124.13
969.448
913.858
860.933
837.605
800.477
774.296
734.871
3474.44
5012.74
3693.3
3009.76
2303.56
1457.91
844.44
535.115
426.752
354.562
305.43
246.898
210.064
177.753
160.053
147.98
144.428
144.265
150.411
144.026
672.369
789.489
543.822
880.558
773.954
891.541
643.015
575.182
481.279
392.235
745.688
666.941
580.361
489.691
542.224
797.41
727.677
901.673
648.104
911.998
820.758
395.842
706.244
642.637
581.46
497.033
791.556
709.332
188.91
222.486
180.688
920.982
1138.07
855.667
993.602
210.626
198.108
226.021
1130.33
901.081
987.483
906.483
136.869
223.085
183.149
814.043
599.31
857.518
657.241
82.3449
151.185
82.8906
531.084
410.087
569.694
407.506
68.9827
74.4353
71.8007
384.259
356.167
386.155
360.449
75.4243
73.1085
73.048
352.289
348.077
353.994
328.724
77.8397
70.77
62.4838
345.4
336.553
317.414
283.033
61.7427
60.2633
44.2837
331.651
324.355
272.767
247.688
180.406
126.98
129.593
858.758
933.449
665.691
707.096
224.522
141.501
155.993
928.313
875.306
711.12
682.03
183.605
155.881
142.709
837.869
659.185
657.547
560.716
83.8558
130.474
93.6341
576.885
411.404
522.002
424.594
75.9014
87.8102
78.2042
391.319
362.619
401.212
342.475
71.5327
73.8384
68.188
352.972
313.574
323.904
280.253
60.5771
68.0709
66.9677
299.522
259.985
270.229
250.591
44.8032
64.5512
52.3434
248.713
231.76
246.752
250.577
116.277
160.158
130.08
674.707
672.978
765.866
729.269
125.974
135.107
136.512
669.383
618.916
714.465
641.334
116.875
132.62
101.727
591.226
512.317
603.131
503.258
92.4607
96.2533
90.8308
487.809
420.435
483.889
458.29
77.3779
91.3789
104.731
400.38
350.372
455.922
447.639
76.9731
106.648
100.042
336.713
304.516
439.614
397.114
72.3028
93.9409
82.3437
296.771
278.936
383.101
344.951
53.2161
79.357
61.6963
273.893
265.624
333.651
315.811
134.196
235.538
143.162
828.1
753.066
763.773
752.99
134.357
139.664
138.599
730.229
654.846
730.699
662.976
118.27
137.071
128.773
623.353
539.962
637.704
579.086
107.052
126.837
119.702
521.514
492.96
564.022
517.978
112.221
116.539
102.678
487.63
467.893
500.2
452.664
98.3253
96.4717
84.8043
455.512
405.841
438.034
408.728
83.5596
84.4155
84.21
392.069
356.391
401.11
386.656
63.9728
83.3173
66.5638
346.798
328.9
381.713
386.234
1356.72
1191.89
1168.86
1839.83
1758.6
1676.8
1515.17
1008.5
1136.71
999.591
1627.83
1192.73
1430.56
1162.97
678.987
937.639
710.603
1080.53
836.051
1072.61
819.808
487.167
626.574
475.711
771.871
652.909
753.52
631.379
424.778
453.774
419.155
625.543
575.779
607.392
553.451
405.526
409.436
377.025
564.37
536.774
537.062
490.207
385.915
364.28
326.93
527.531
504.048
474.494
432.848
363.778
316.046
281.243
497.152
478.748
421.39
389.176
1084.46
861.802
838.85
1566.3
1404.53
1274.72
1147.52
964.271
831.209
772.803
1336.52
1128.94
1106.8
971.309
712.972
740.924
627.068
1053.58
822.092
921.292
775.878
479.959
587.997
482.013
757.371
632.868
745.001
562.76
417.772
452.705
381.789
606.874
541.97
511.209
414.255
358.047
360.327
308.541
521.264
460.179
387.819
333.69
298.375
296.494
276.977
441.054
393.041
325.235
330.63
261.732
275.163
279.194
381.37
362.404
339.277
363.173
805.527
966.157
864.603
1255.66
1114.89
1366.51
1174.19
715.855
838.864
737.604
1073.65
933.092
1120.26
954.063
586.118
693.739
586.801
884.188
755.879
899.636
776.973
478.4
565.539
532.208
731.267
559.637
750.211
689.307
391.146
525.81
503.418
509.728
422.774
671.269
615.831
334.925
491.165
443.209
402.693
371.364
595.916
538.35
310.414
428.482
388.415
369.513
376.96
522.307
481.968
296.512
376.904
354.269
380.434
383.679
471.726
454.312
891.324
1043.05
906.964
1464.18
1204.32
1490.6
1241.42
754.348
865.786
769.641
1141.99
973.23
1163.17
1009
620.736
735.51
657.977
920.409
801.405
956.775
836.925
563.376
639.061
583.836
773.844
711.946
808.25
732.39
522.692
563.786
513.386
693.022
633.912
708.368
652.646
454.628
499.344
468.975
613.266
556.88
638.243
603.668
402.412
460.537
444.07
541.547
502.911
593.706
572.119
368.175
438.766
433.498
493.268
472.568
565.806
556.546
1832.65
1809.35
1589.5
2275.05
1945.8
2086.27
1733.9
1228.66
1491.49
1193.53
1753.56
1301.58
1604.54
1252.59
875.18
1098.18
849.284
1197.04
970.969
1154.02
929.55
697.25
788.086
672.059
916.51
810.054
878.824
775.34
616.777
647.497
589.428
782.78
726.838
750.067
685.863
573.75
571.706
521.933
713.259
678.54
666.151
612.675
538.011
505.781
463.994
667.013
638.435
596.942
558.244
508.001
452.609
417.571
630.205
604.651
547.514
514.343
1478.67
1392.72
1227.13
1970.72
1634.75
1664.66
1415.34
1162.66
1177.27
1021.23
1527.41
1233.22
1344.47
1143.7
851.124
966.872
814.289
1144.41
930.416
1080.86
926.77
782.651
743.345
792.701
822.731
748.02
777.935
825.418
633.872
621.081
632.952
680.907
602.625
655.425
665.911
489.085
368.439
333.488
642.05
574.841
461.842
419.223
422.523
331.712
350.988
556.435
516.381
419.034
440.216
390.734
362.01
385.736
507.19
487.905
449.509
469.191
1195.51
1472.48
1253.92
1608.14
1389.89
1725.74
1447.34
988.699
1192.2
1009.83
1321.87
1125.89
1366.15
1147.47
800.198
953.092
825.974
1066.23
924.151
1085.94
945.887
773.54
733.711
776.919
820.688
739.076
696.606
821.476
583.425
435.66
589.867
376.063
561.28
336.389
610.203
375.646
621.09
561.607
477.362
450.998
684.451
623.888
397.11
545.52
506.603
452.558
472.191
609.539
579.164
406.495
497.059
479.203
478.274
485.709
572.075
557.704
1284.22
1627.79
1324.22
1841.52
1476.43
1934.74
1519.06
1028.44
1238.06
1070.27
1386.54
1162.5
1415.85
1218.41
847.311
1013.21
883.282
1100.6
960.108
1152.1
1001.79
747.881
852.444
772.329
925.002
834.661
966.146
879.418
660.898
747.41
690.596
806.733
729.984
853.724
794.892
582.508
675.931
640.133
707.437
652.066
779.228
741.302
529.576
629.832
607.067
638.243
606.932
730.403
705.03
498.507
600.401
587.439
599.185
578.814
696.974
678.576
1963.83
2161.73
1764.91
2574.19
2014.42
2380.29
1864.26
1321.29
1627.8
1268.06
1799.68
1403.5
1709.2
1343.23
1000.02
1171.05
955.472
1311.79
1108.3
1253.68
1055.42
845.397
906.903
806.366
1059.96
973.918
1008.7
914.17
763.951
781.331
717.28
952.44
906.681
891.153
833.058
715.786
697.573
645.546
893.373
864.292
816.391
785.544
675.825
630.966
595.171
854.975
829.034
778.854
756.373
638.173
584.852
549.444
818.065
789.102
746.515
716.266
1672.03
1736.63
1466.88
2241.48
1792.1
1944.22
1633.89
1252.69
1391.02
1180.19
1662.79
1339.4
1547.28
1314.08
956.05
1115.5
955.877
1252.87
1052.63
1242.28
1058.86
803.976
919.847
738.758
1004.9
903.945
1009.88
876.546
697.042
682.038
561.162
877.144
801.527
831.265
702.918
606.194
527.493
465.066
778.904
738.409
667.068
617.728
554.096
462.927
480.253
734.006
720.233
622.841
656.876
523.527
488.418
502.344
713.492
694.156
663.386
669.221
1444.47
1801.09
1502.66
1905.99
1621.96
2037.69
1683.09
1166.6
1415.91
1188.12
1537.2
1311.24
1580.82
1330.71
955.641
1125.42
980.508
1242.24
1064.31
1264.09
1094.19
742.138
944.226
846.911
1017.45
879.228
1047.71
931.712
569.175
815.929
730.014
832.254
705.989
897.744
808.08
490.126
704.828
646.697
671.415
629.148
785.575
756.059
506.723
634.137
608.695
635.789
671.344
756.243
751.488
517.561
602.539
586.671
677.046
677.916
747.272
729.295
1530.78
2032.53
1572.12
2155.44
1705.96
2319.8
1738.62
1201.48
1465.15
1260.23
1594.69
1337.53
1620.98
1398.66
993.289
1192.2
1038.29
1271.68
1107.42
1330.73
1169.31
860.165
1001.88
914.751
1061.55
950.666
1130.73
1047.44
752.61
889.241
830.472
919.954
842.68
1025.33
967.252
677.54
814.643
776.808
823.843
796.644
951.569
917.725
637.367
765.94
740.049
792.899
778.937
908.62
880.393
607.683
731.454
709.509
772.424
747.782
869.957
839.849
2070.4
2490.87
1934.6
3538.05
2683.66
3360.75
2693.72
1465.47
1773.05
1404.33
2464.98
2146.39
2498.26
2132
1174.38
1316.35
1115.85
2086.44
1866.03
2051.36
1806.85
1044.17
1067.4
972.325
1827.57
1791.91
1745.59
1658.81
982.051
949.871
894.196
1807.08
1762.29
1639.73
1607.14
941.253
879.264
862.94
1762.17
1749.6
1613.48
1744.46
907.5
860.352
841.953
1764.48
1729.85
1753.77
1741.52
860.659
831.995
797.407
1731.99
1664.38
1734.23
1703.31
1868.13
2042.58
1722.53
3055.91
2629.88
2716.26
2485.53
1403.81
1632.49
1390.09
2475.98
2148.01
2396.67
2150.53
1109.97
1313.78
1112.03
2048.28
1783
2041.06
1761.34
956.305
1057.75
923.58
1718.98
1610.48
1685.99
1526.37
855.325
879.405
750.216
1584.23
1521.6
1477.71
1329.45
812.207
716.461
688.006
1523.61
1668.25
1316.94
1475.29
808.606
704.412
750.813
1719.61
1721.4
1587.16
1678.4
776.694
756.634
752.842
1717.22
1681.93
1681.2
1635.35
1713.38
2150.67
1774.42
2708.59
2475.44
2849.55
2513.34
1389.43
1666.43
1407.69
2388.37
2151.1
2401.33
2152.55
1118.1
1338.26
1152.94
2044.56
1765.02
2069.05
1806.56
925.267
1100.94
976.854
1687.99
1520.3
1736.91
1588.98
751.282
942.222
852.936
1469.59
1322.92
1553.44
1466.38
696.35
833.279
822.485
1311.97
1473.43
1470.46
1620.83
762.326
830.479
832.98
1585.54
1678.54
1683.66
1697.22
759.667
828.866
803.528
1681.27
1643.73
1695.1
1640.15
1794.79
2445.44
1821.75
2936.23
2507.67
3101.64
2461.68
1412.33
1700.51
1471.77
2387.51
2133.05
2307.36
2125.27
1169
1404.62
1239.36
2074.76
1831.85
2064.79
1923.53
1001.95
1200.16
1117.79
1767.18
1639.63
1869.94
1827.52
895.097
1097.24
1038.19
1611.61
1545.64
1813.95
1768.54
867.448
1023.01
990.605
1551.94
1689.25
1753.99
1743.72
858.33
982.409
952.454
1706.35
1703.21
1741.67
1711.65
820.966
941.71
904.455
1700.37
1673.47
1702.98
1627.85
740.063
704.468
666.434
708.66
704.888
740.682
700.637
789.577
791.134
739.66
826.31
749.745
826.571
721.757
719.543
631.572
638.837
444.533
687.751
654.622
555.145
814.094
852.374
839.751
884.533
809.917
855.991
843.311
773.142
742.461
805.227
766.307
774.199
733.992
804.279
819.494
856.049
887.768
836.73
857.854
743.578
847.223
756.576
470.468
736.793
739.03
690.648
579.577
794.612
601.235
597.977
544.057
606.455
572.529
630.775
571.311
560.582
585.471
430.658
384.232
545.581
604.269
333.105
511.545
473.689
403.771
344.879
503.762
482.395
322.316
665.985
714.279
719.067
731.439
687.992
698.898
698.21
632.279
636.872
693.099
632.419
662.385
600.701
664.974
593.36
411.287
687.646
541.312
639.279
367.878
643.91
545.164
373.687
562.456
518.83
511.727
354.392
601.565
703.292
629.464
627.792
437.309
680.303
541.305
648.015
795.909
779.792
773.54
839.576
753.097
824.576
813.391
762.966
694.645
750.064
761.842
723.533
730.698
787.199
817.577
856.975
857.273
896.776
741.822
861.328
861.489
748.391
467.925
744.434
748.673
574.059
693.446
803.249
835.832
877.522
901.45
881.292
865.384
849.081
870.541
800.445
792.71
797.661
850.788
765.492
820.593
834.124
572.505
408.134
532.516
341.954
546.818
329.475
552.625
677.079
669.418
685.208
737.421
647.298
702.31
713.539
655.216
606.998
664.026
666.6
627.991
631.853
689.988
624.48
409.375
533.995
705.427
373.768
654.398
669.684
608.155
379.71
504.721
616.948
365.346
584.095
643.547
705.513
765.708
764.068
763.255
734.248
739.381
732.399
680.226
688.581
676.827
735.832
655.137
713.714
703.704
291.081
369.053
327.817
647.369
706.602
678.7
825.606
246.104
321.51
298.587
703.482
630.468
864.706
805.044
185.47
251.582
208.35
565.768
516.276
675.898
572.816
154.856
168.243
139.98
421.557
363.143
457.089
373.924
124.951
124.842
116.263
335.869
320.241
332.272
318.158
117.566
114.009
114.638
300.245
290.82
311.308
312.203
110.83
116.164
119.75
291.147
291.064
311.545
310.441
96.5354
119.676
106.496
290.966
312.917
305.12
322.854
415.317
442.152
335.63
724.33
696.233
636.162
617.859
415.317
229.673
281.145
405.478
411.646
404.983
216.528
604.442
214.769
201.448
605.666
616.309
582.234
215.317
502.193
176.654
206.425
482.18
436.317
543.618
191.064
277.612
104.126
123.749
283.421
243.374
329.056
104.401
183.84
71.5462
71.941
169.851
160.809
193.994
67.0151
191.733
71.7766
66.7916
163.84
167.013
185.948
69.3666
199.81
77.4226
75.0714
185.738
189.375
200.119
75.4903
183.365
75.519
73.3202
197.991
197.414
188.633
69.774
91.9059
97.3856
72.405
266.398
277.023
221.244
228.197
212.895
235.379
202.517
482.073
596.538
510.584
550.682
372.03
153.909
133.547
313.49
406.659
275.587
134.745
534.808
218.905
189.768
550.978
571.762
512.676
206.041
511.019
212.65
211.596
564.539
539.529
533.063
203.148
317.966
124.504
152.244
395.106
316.402
385.24
124.99
215.261
74.0469
79.4762
208.374
205.352
216.593
78.5309
199.615
76.8859
79.6612
208.045
204.968
210.37
76.9642
159.363
64.7038
64.5965
176.887
167.409
165.848
62.6797
138.365
57.0107
58.7089
145.759
140.625
143.109
56.8454
71.239
100.876
83.2224
201.964
214.099
216.383
236.964
261.311
357.197
277.581
653.234
602.669
689.258
687.495
275.628
117.297
148.141
267.25
284.1
262.153
115.587
349.956
125.677
120.135
355.453
360.854
348.714
121.331
287.573
122.19
108.463
337.945
328.421
304.076
103.738
246.436
106.505
94.0525
290.349
275.61
252.923
91.8535
223.457
83.8985
84.0095
232.579
223.376
226.634
82.0876
226.208
75.7292
83.9576
203.223
199.976
226.016
87.0725
209.37
76.5889
86.1953
192.064
189.235
215.21
83.5128
178.563
66.5872
73.3194
171.299
167.009
185.244
69.9294
88.3722
122.913
102.639
246.729
261.35
273.858
296.211
286.502
369.994
320.814
712.106
784.701
661.945
617.187
365.458
142.847
189.107
337.313
364.84
340.747
154.156
395.048
136.27
138.819
390.826
389.124
396.477
138.783
359.709
129.451
133.148
363.954
349.114
370.466
130.69
326.45
108.859
124.756
304.583
295.214
332.951
122.756
313.049
109.427
120.117
291.42
294.003
315.553
119.557
283.917
110.714
113.572
293.786
287.133
295.613
108.963
232.799
88.5987
89.8293
244.756
234.147
239.439
87.2984
214.016
78.8265
82.9111
213.464
206.113
217.595
81.3248
110.282
141.186
127.635
304.848
324.692
319.451
332.507
235.693
280.04
225.616
528.734
631.077
521.072
627.746
209.689
225.637
223.954
605.711
579.361
604.149
527.744
192.569
207.151
181.429
545.161
509.432
514.767
489.023
169.059
169.816
161.958
472.568
445.286
453.033
424.405
149.48
151.445
143.741
413.998
397.237
403.047
395.172
138.668
141.386
141.494
381.642
374.835
382.74