/*--------------------------------*- C++ -*----------------------------------*\
  =========                 |
  \\      /  F ield         | OpenFOAM: The Open Source CFD Toolbox
   \\    /   O peration     | Website:  https://openfoam.org
    \\  /    A nd           | Version:  10
     \\/     M anipulation  |
\*---------------------------------------------------------------------------*/
FoamFile
{
    format      ascii;
    class       volScalarField;
    location    "5.1";
    object      omega;
}
// * * * * * * * * * * * * * * * * * * * * * * * * * * * * * * * * * * * * * //

dimensions      [0 0 -1 0 0 0 0];

internalField   nonuniform List<scalar> 
12920
(
57.0449
86.9535
100.407
99.4514
91.188
88.868
89.4188
89.0477
84.4573
68.0674
56.6942
51.4776
47.8105
44.6875
41.8995
39.393
37.8128
36.6145
36.253
35.4003
235.603
188.827
156.558
128.424
115.196
99.5215
87.6872
77.8513
68.4542
61.6427
56.8306
54.9756
53.3237
52.2807
50.89
49.8953
49.285
49.1404
49.0809
49.0282
204.497
219.986
183.607
142.078
122.341
101.72
83.8306
73.0387
64.2115
60.0108
56.4806
54.9334
53.1956
52.1971
51.1078
50.4802
49.9972
49.637
49.3499
49.3157
232.559
212.543
181.413
137.619
113.315
91.0363
78.4924
68.4602
61.6257
58.1551
55.5874
54.368
53.1038
52.2578
51.209
50.391
49.6878
49.1753
48.7935
48.6262
151.815
220.476
207.437
171.744
135.112
108.568
90.3718
78.2557
69.7915
64.2871
60.9673
59.036
57.0372
55.2947
53.3755
52.1487
51.2142
50.463
49.8252
48.8914
323.32
280.334
192.634
137.27
110.1
96.2167
86.538
80.0831
74.2797
70.3053
66.5406
63.3166
59.4426
55.9286
53.7094
52.5842
51.9546
51.3297
50.8693
49.3728
414.773
305.559
239.414
166.134
124.18
103.827
92.6102
84.3811
78.6962
73.4405
68.0521
62.3237
57.7034
55.2706
54.7024
54.0004
53.086
51.8693
51.3195
49.8027
131.261
206.228
198.488
167.842
131.199
113.884
173.892
143.692
130.594
113.092
104.838
97.194
94.4915
93.3864
61.0583
56.6799
53.6495
51.6316
51.0835
49.971
196.874
214.477
199.559
156.888
129.809
201.759
314.19
253.96
247.36
191.604
155.426
148.808
155.283
156.334
96.2034
53.2681
50.7743
49.3207
49.2962
49.4204
208.93
238.767
192.23
131.245
101.078
131.404
229.309
253.534
265.21
222.272
155.229
156.278
146.751
136.665
85.6652
52.3087
50.8505
49.4321
49.2093
49.2864
375.46
246.164
229.176
190.038
131.889
170.78
215.955
196.685
198.067
188.31
166.852
155.183
156.253
148.051
94.3337
58.1539
55.9794
53.2153
50.8959
49.319
337.331
319.051
292.167
209.374
133.848
155.232
235.897
207.608
205.225
189.591
184.842
188.591
171.65
161.096
104.285
62.6528
59.2316
55.6798
52.8617
49.9267
142.29
238.952
210.904
148.572
110.068
97.4362
148.637
130.979
125.938
119.554
111.75
106.502
103.792
102.749
67.6992
64.5435
61.5538
57.627
55.2998
51.5606
186.066
223.516
173.919
129.92
105.985
94.7886
87.796
82.4284
78.5755
75.2116
72.2772
70.7907
69.9646
69.342
68.6706
66.9471
62.7469
58.1692
55.7579
51.9308
362.172
247.37
222.959
196.122
154.044
125.428
98.5576
85.2204
79.7681
78.6252
77.3276
76.2419
74.8432
73.7769
72.1621
68.5162
63.0013
57.1377
53.9905
50.4545
187.122
252.52
236.709
217.944
182.16
153.306
119.335
95.5176
81.5698
77.0963
75.6859
75.1635
74.1024
73.1292
71.2468
66.2536
59.3619
53.4769
50.2242
47.6164
114.897
213.138
243.769
239.483
204.697
163.432
128.271
103.451
88.6652
82.9355
78.8591
75.8717
73.0697
71.3771
69.0822
64.5725
58.4207
53.0003
49.3896
45.8075
90.8719
224.834
237.147
224.978
187.118
149.522
121.965
105.869
95.1087
88.9468
83.5637
79.6268
76.0574
74.2745
72.8945
69.8667
63.4694
57.1206
52.8608
46.7465
235.435
210.773
199.951
172.096
134.157
108.469
94.0491
86.132
78.8204
72.952
67.5531
64.0676
61.5527
58.9157
56.2201
53.7535
52.6042
52.2488
52.3104
51.2904
209.711
171.476
139.405
112.885
98.0355
92.6567
85.5136
77.2992
68.1292
60.609
53.4687
48.1954
44.1257
40.8679
38.0666
36.0693
35.7915
36.1597
38.2986
38.5581
37.8293
75.9468
76.7752
70.4238
59.3293
54.1646
51.9757
48.7296
41.1416
34.6188
30.8137
28.4543
27.1034
26.3541
25.7219
25.0387
24.4466
23.7178
23.4874
22.98
261.948
118.503
78.9842
63.4951
53.2861
47.0894
41.6799
38.0432
34.7208
32.1753
30.3773
29.7967
29.8067
29.7248
29.4034
28.7114
28.0493
27.3463
26.7516
26.3678
183.794
147.815
96.4243
70.1322
55.4015
45.5844
38.6732
34.9304
32.5314
31.2432
30.1805
29.2467
28.1905
27.2328
26.3177
25.6846
25.2861
24.9845
24.7611
24.7236
270.609
158.052
96.5986
67.6026
52.5462
42.8649
37.2591
33.4728
31.5509
29.9237
28.4155
26.959
25.7581
24.9538
24.5841
24.3941
24.3799
24.376
24.3896
24.4615
219.939
182.411
111.068
82.8165
64.32
51.99
43.7559
38.1074
34.8152
32.7066
31.2282
29.6967
28.34
27.0212
26.2885
25.6585
25.3325
25.1322
25.0327
24.7678
232.16
166.287
106.035
77.308
62.1033
52.7623
47.0489
41.6772
38.2231
35.5674
33.6756
31.5566
29.859
28.4058
27.2893
26.2972
25.8659
25.5337
25.4164
24.9843
214.506
184.634
160.235
120.247
85.3962
67.2756
57.4542
51.933
46.7113
41.9818
37.0106
32.6042
29.4751
27.6783
27.1931
26.5045
26.2735
26.1023
26.1095
25.899
266.291
251.9
185.307
125.843
92.0396
71.4547
67.385
59.0681
52.5818
47.6331
39.6883
32.3607
28.8983
27.4602
26.3067
26.5824
26.4989
26.2772
26.2891
26.3947
128.719
186.826
145.517
127.388
103.099
101.055
85.67
60.0943
49.9997
46.4888
39.1306
31.5026
28.4153
27.6018
27.1842
25.6658
25.2694
25.1115
25.1504
25.6948
162.442
162.248
123.592
96.9137
73.9585
62.0214
58.9348
46.0665
43.8987
43.9635
34.5427
29.4987
28.6881
28.7323
27.5299
24.6893
24.5901
24.5438
24.5778
24.8994
429.573
205.953
176.736
128.681
89.2717
77.2338
58.053
43.4986
39.5706
37.2472
35.8449
33.8223
32.1363
30.1566
25.5837
24.5198
25.3232
25.3671
25.23
24.904
175.645
212.089
202.935
143.267
82.4577
59.5017
53.1959
44.6794
41.3725
37.309
35.6586
35.2344
32.7352
29.2535
26.5862
27.3857
27.7763
27.6411
27.3117
26.0199
127.239
137.08
101.133
79.9658
67.8295
53.0061
52.696
43.7369
39.4482
36.2993
34.8146
33.1098
31.6483
30.8412
30.0326
30.2684
30.2282
29.7105
29.1187
26.9645
166.749
126.57
87.4993
76.1657
66.8205
57.0645
49.4539
44.5774
40.1475
37.4497
35.3747
33.8954
33.2715
32.8647
32.5913
32.4238
32.0628
30.9646
29.889
26.9082
161.124
154.096
102.934
91.5436
76.7372
68.6459
60.9032
53.7197
47.7404
43.1374
39.6743
37.5838
36.3499
35.5266
34.8384
34.1893
33.3008
31.5214
29.4263
25.7956
223.349
171.505
122.082
94.8568
77.1093
69.7131
62.3094
54.6591
48.8758
44.6532
41.9099
39.9241
38.5374
37.5486
36.7395
35.7687
34.1959
31.0004
28.152
24.8694
316.429
202.562
162.112
136.388
113.043
93.6775
75.5148
57.5539
47.0542
42.7788
41.103
40.0113
39.4416
39.2754
39.0415
38.5997
36.8828
31.7062
27.7761
24.1072
115.227
171.365
150.227
134.549
116.242
95.4633
74.9999
58.591
48.5539
43.9493
41.4917
40.1233
39.2165
39.0539
39.2419
39.7238
39.4937
36.4889
31.8432
26.3273
163.575
128.289
129.775
114.926
89.9371
67.7706
53.3358
44.3659
39.345
36.8724
35.731
34.8806
33.9143
32.5705
31.6495
31.1071
30.0625
28.5098
27.6002
27.4432
95.2775
74.1145
57.7237
54.2981
53.9456
53.5759
49.9714
42.8845
37.1707
33.0802
30.2773
28.4335
27.0071
25.5905
24.4568
23.6697
23.4852
23.3954
23.185
22.1467
93.8895
99.3753
96.8034
85.3055
70.4804
61.358
55.2502
47.9406
40.4252
35.0112
31.5359
29.5525
28.8253
28.337
27.9861
27.4256
27.1486
26.5754
26.3594
25.7211
185.187
135.607
81.6294
59.0388
51.3736
43.6433
40.2305
36.0995
32.4791
29.7895
27.6174
26.7324
26.1852
26.0405
25.7438
25.5111
25.222
25.0974
24.979
25.0362
171.265
170.144
97.4252
63.3701
49.7716
39.1998
34.0692
30.5525
28.3453
27.0461
25.7799
24.9753
24.1315
23.6156
23.1596
22.9426
22.7821
22.7714
22.7671
22.8598
227.74
142.154
78.3364
54.9049
44.7204
35.4333
32.6068
28.8186
27.4797
25.6886
24.4664
23.3073
22.5216
22.057
21.8751
21.8498
21.8878
22.0108
22.0961
22.2361
288.955
144.22
90.6044
65.9034
53.1372
42.3498
36.9885
32.4321
30.0141
27.9628
26.4452
24.9999
23.9007
23.0919
22.6462
22.4205
22.3102
22.2734
22.2486
22.151
199.845
141.011
86.4686
62.2319
53.1358
43.8616
40.5501
34.9812
32.1357
29.3545
27.4745
25.7594
24.5551
23.7221
23.253
22.8814
22.7049
22.5292
22.4278
22.1181
154.077
193.176
155.485
89.4658
65.2557
55.4423
48.1001
42.7315
37.323
32.5002
28.6456
25.924
24.4379
23.7566
23.636
23.4976
23.4652
23.3505
23.236
22.7957
239.269
216.304
126.765
84.698
64.9121
55.6559
51.7631
45.9585
40.6306
34.3067
29.2564
25.6432
24.1614
23.7429
24.6786
24.5973
24.4468
24.2352
24.1477
23.8213
216.672
147.142
96.2155
78.7479
65.0315
64.5575
57.1252
46.7292
38.1681
33.4794
28.4867
25.5203
24.5032
24.5245
25.2263
25.3201
24.6334
24.2906
24.2154
24.1383
256.771
122.289
85.0205
63.6437
51.985
46.5479
46.3736
38.9933
35.2865
31.8586
28.0263
26.8779
27.5527
28.0484
26.9118
24.3731
23.6966
23.5179
23.5422
23.7103
211.628
140.598
109.48
77.6374
57.0468
50.5806
41.8193
35.7188
32.5241
30.3203
67.7727
60.2243
37.8816
28.0611
23.5386
23.4209
23.269
23.1445
23.0896
23.09
275.202
134.701
113.576
73.7833
51.8876
44.5173
41.6468
36.4835
33.3326
30.7183
29.4897
27.9901
25.9072
24.1422
23.6764
24.5923
24.3336
23.9247
23.6145
22.9809
249.044
124.662
85.0756
58.6972
50.4112
42.5406
40.9141
35.1236
32.4058
29.7315
28.2081
26.9802
26.1906
25.8281
26.36
26.0876
25.721
25.012
24.4318
23.1081
374.75
135.864
70.6887
55.0072
50.8952
44.3401
39.7144
36.2565
33.3925
31.3103
29.9227
29.0866
28.6058
28.2175
27.8534
27.3583
26.7154
25.6042
24.6844
22.9339
137.186
142.279
88.7996
67.2274
56.5285
50.2763
45.4797
42.0635
38.2888
35.7875
33.4921
32.1138
31.0585
30.2405
29.3953
28.4102
27.2743
25.7147
24.1214
22.2915
173.606
148.333
107.019
79.0626
62.0705
52.7938
46.5797
42.8138
39.5794
37.4026
35.4519
34.1531
32.9916
32.0598
30.9155
29.2897
27.4005
25.1535
23.3834
21.734
366.231
238.815
149.51
104.085
79.153
64.4121
51.9239
44.2365
39.2397
37.2561
35.8354
35.106
34.4099
33.9866
33.2443
31.6158
28.4548
25.0702
22.928
21.1458
327.327
185.109
122.292
97.8931
81.5038
67.503
54.4451
46.346
40.8743
38.4809
36.6193
35.6245
34.789
34.4162
33.9812
33.1256
30.894
27.1405
24.7497
22.2563
174.262
118.996
99.3758
80.2773
66.2683
54.3059
45.0001
39.7942
35.8559
34.1321
32.5819
31.6357
30.5074
29.5422
28.4836
27.3532
26.1771
25.0887
24.4645
24.1618
77.1024
86.7833
78.757
75.2722
70.4184
62.3879
52.7566
44.0497
38.2758
34.6142
32.3974
30.5475
29.0546
27.3136
26.1117
25.2545
24.6952
23.4173
22.7428
22.3525
70.5654
112.082
108.465
94.1289
76.2654
61.7567
52.0119
43.446
37.8276
33.6027
31.064
29.7528
29.4806
29.0376
28.7446
28.1373
27.8955
27.28
27.0416
26.2667
120.862
132.076
100.011
66.8573
59.7984
48.6639
45.4725
38.7061
35.5852
32.4554
31.4088
30.4613
30.211
30.0495
30.0691
30.159
30.2995
30.6415
30.855
31.263
405.447
209.195
100.204
64.548
53.8151
41.3534
38.2697
33.3494
32.1732
30.1298
29.3689
28.2378
27.8143
27.379
27.3114
27.3115
27.39
27.6371
27.7938
28.0984
295.815
221.585
89.9707
57.987
47.0156
37.6769
35.923
31.334
30.702
28.4377
27.7608
26.4293
26.1363
25.7584
25.8256
25.9092
26.1301
26.4211
26.6072
26.8895
196.165
159.933
89.9763
63.0116
53.5598
42.1315
39.5015
34.2818
32.8892
30.1855
29.0987
27.4578
26.8585
26.2425
26.1586
26.1316
26.2046
26.3116
26.3875
26.4902
196.052
134.852
79.6834
59.5583
53.5262
43.378
41.8407
35.7844
33.4902
30.3119
29
27.4619
26.9122
26.4448
26.3977
26.3198
26.337
26.3101
26.2691
26.1734
472.199
275.946
113.438
70.0578
62.1662
52.3727
47.3149
40.4568
36.2697
31.6906
29.6542
27.8456
27.6281
27.3727
27.4712
27.4697
27.4519
27.275
27.0777
26.6563
304.672
156.763
93.7718
67.183
60.2227
51.649
48.4675
41.6101
37.331
32.0614
29.8179
28.4131
28.1874
28.3116
30.8506
29.5781
29.095
28.6958
28.4328
27.7798
223.862
105.344
79.0539
60.5391
54.7735
53.2144
50.3588
42.6038
35.7311
32.3184
30.3447
30.1233
30.1629
30.476
32.1312
31.8597
30.1913
29.5506
29.3
28.7457
168.565
103.419
70.8483
53.8159
46.5767
43.8559
44.8849
40.0074
35.9193
32.5701
31.2692
31.5648
33.1156
33.4335
33.4889
31.3053
29.5229
29.0832
29.0431
28.8609
255.058
119.386
84.8749
58.8389
48.9803
42.7214
39.3014
37.1522
35.0899
33.4943
52.2506
45.6314
36.8581
32.5054
31.2612
29.9215
28.2652
27.8855
27.9137
28.0362
135.115
116.39
83.7159
57.333
47.1144
43.0479
41.3356
37.8788
35.4893
33.4898
31.8995
30.6036
30.2285
29.8233
30.5202
29.6029
28.1056
27.5714
27.3614
27.2928
549.606
172.043
89.3767
56.4085
50.2798
43.1682
40.7177
35.8983
33.9399
32.0427
31.1613
30.519
30.1996
29.9444
30.6886
29.2817
28.5012
27.8901
27.3795
26.8761
275.822
218.05
82.2831
54.2179
50.7745
43.0939
40.4641
36.928
35.2033
33.3276
32.7105
32.0755
31.7213
31.23
30.5489
29.7779
29.0222
28.1549
27.3426
26.5915
269.655
156.193
85.1114
60.6714
54.6064
46.2749
44.7885
41.6585
39.437
37.4815
35.9391
34.7473
33.7428
32.7162
31.6493
30.4214
29.2847
28.0262
26.9005
26.1398
171.38
139.838
104.782
72.717
59.6318
49.1941
46.2245
42.7926
41.3413
39.5545
38.2825
36.9617
35.7164
34.2276
32.6069
30.6918
29.1053
27.6066
26.5102
25.8638
211.507
165.123
121.684
84.7056
69.7156
56.5843
49.9459
44.8533
42.4289
40.7608
39.6413
38.6061
37.5196
36.0717
34.2995
31.7742
29.3583
27.3722
26.1241
25.3986
449.819
221.678
119.022
87.5565
75.2732
61.6041
53.7708
48.0214
44.8935
42.6977
41.101
39.7044
38.4696
37.0521
35.44
33.1625
30.8513
28.6355
27.2034
26.137
389.961
168.232
103.078
74.7279
66.5766
54.8906
48.7108
43.9569
41.0891
39.116
37.5293
36.0459
34.6083
33.2722
31.9685
30.7779
29.9259
29.2571
28.6889
28.2659
82.8275
101.087
97.1526
90.6346
81.1165
67.7866
54.3488
43.8553
38.4387
35.0876
33.0483
30.6409
28.725
26.7229
25.4581
24.0653
23.0412
22.3676
22.5885
22.6285
140.886
141.027
115.136
86.3688
65.2897
51.1225
43.0441
37.4901
33.7533
30.9403
29.6535
28.7473
28.4706
27.7418
27.2446
26.5246
26.2503
25.5491
25.3066
24.4219
157.869
152.041
122.383
82.677
76.5128
58.6473
60.8156
49.6092
53.2112
47.673
51.1881
48.0385
49.8375
48.381
49.4487
49.152
49.9162
50.1555
50.9549
50.9862
253.326
174.042
117.123
79.554
74.621
55.9882
58.3563
48.22
51.1397
45.6946
47.5034
44.4399
45.4728
44.0049
44.7467
44.3275
44.9102
44.9678
45.5513
45.4225
379.096
321.209
130.754
81.8495
65.9597
55.4742
54.0578
45.0613
47.6131
42.1296
44.3802
41.4278
42.7609
41.5394
42.4665
42.2711
43.0008
43.1706
43.8165
43.6737
463.002
256.24
119.933
78.4431
74.9323
55.3321
59.0719
47.9774
50.1377
44.3866
45.5444
42.5135
43.3511
42.0792
42.8243
42.565
43.1321
43.0605
43.5692
43.24
456.465
150.893
93.9607
76.9738
69.8172
55.1632
58.0883
46.5705
47.4619
42.4102
43.3591
41.2501
42.1317
41.541
42.2316
42.2604
42.7809
42.7507
43.1768
42.7285
373.669
180.269
118.265
76.0039
84.2098
61.9737
64.1258
51.2513
49.9665
43.9539
44.6296
42.6219
43.8967
43.4231
44.156
44.0646
44.3608
43.9795
44.2033
43.4003
401.364
183.935
105.003
77.3933
77.2922
61.5614
55.6718
47.7968
46.3754
42.3883
43.6148
43.081
44.42
44.4436
48.8015
46.4223
45.8976
45.4484
45.4929
44.3929
358.204
141.001
86.4444
69.6178
67.8899
58.5044
59.4018
50.4064
47.7611
47.1595
48.5314
49.717
50.6239
51.1232
52.1256
49.349
47.2792
46.494
46.6221
45.4654
235.504
120.222
79.0934
70.6425
56.4726
51.8141
54.6517
53.1881
51.6863
50.2581
50.5227
52.3438
54.718
54.9304
53.5933
48.933
46.6817
46.109
46.3385
45.4602
279.744
139.193
86.3048
64.7745
60.2428
49.6648
50.2831
52.8887
53.0792
49.743
50.2377
50.9668
54.826
54.5884
52.399
47.4237
45.0874
44.6627
45.1319
44.6754
219.957
117.146
82.0299
65.4678
55.9457
51.3369
52.5044
52.6061
52.5257
51.3906
50.8742
51.3827
52.559
52.5336
51.1102
46.3219
44.2356
43.756
44.2339
43.8181
210.28
131.185
98.047
63.2779
66.4962
54.0062
50.7336
45.7829
46.5468
45.8288
46.8749
46.753
47.1694
46.832
47.0137
44.5322
43.8668
43.5641
43.8088
43.2042
271.176
165.56
85.4329
68.1898
63.9393
50.9758
51.3706
46.0026
47.2194
45.3561
46.8921
46.2431
46.6738
45.9392
45.099
44.403
44.2029
43.6043
43.6665
42.9124
304.065
142.391
92.9915
67.0168
67.4448
52.4682
57.6625
50.8765
52.4468
49.7926
50.0844
48.6739
48.2634
46.9252
46.1134
45.0114
44.4503
43.5582
43.4405
42.668
181.203
139.374
112.61
72.2553
69.34
54.1574
57.7558
51.4458
54.7536
51.8296
53.0946
51.1214
50.7431
48.4014
47.0903
45.2126
44.5796
43.5986
43.5709
42.8548
253.589
142.752
123.347
78.9934
81.0206
61.2823
64.5984
55.8344
58.5781
54.7768
55.7507
53.4973
52.8824
50.1697
48.4555
46.0094
45.0471
43.8281
43.6005
42.5992
251.862
149.512
125.077
84.0196
85.8491
65.8045
68.8596
59.6958
61.6881
57.1258
57.7365
54.9256
54.3137
51.359
49.8213
47.285
46.3171
45.1544
44.9408
43.8673
469.958
212.703
132.241
81.2751
88.4881
64.9395
71.2661
59.2218
62.3443
56.5791
57.5205
54.0785
53.6975
51.0757
50.4795
49.3504
49.457
48.9765
48.924
47.7615
104.992
126.111
108.249
97.7195
85.49
68.0112
51.7607
41.204
36.7962
33.5399
31.1294
27.9882
25.8162
23.7479
22.5345
21.6679
21.4062
21.3942
21.8451
21.3764
28.7788
31.5201
70.6093
31.2823
29.8526
32.6823
80.7495
26.9269
69.7124
57.7081
29.6358
29.6203
78.6728
60.1693
65.914
30.4254
30.0857
31.9867
76.1703
31.6943
31.2051
67.0259
29.9992
29.1065
76.3225
66.9008
30.9814
29.8536
244.818
265.685
239.431
100.334
73.9476
91.2016
60.8074
258.507
250.707
267.787
66.5348
57.4027
55.8634
51.4122
208.385
266.043
241.057
56.2727
54.0002
51.4285
52.2052
161.634
219.015
162.172
53.1362
48.7351
51.9363
43.2425
147.94
153.678
150.933
45.9754
38.4048
40.1201
33.8693
154.693
152.301
152.237
36.4021
33.09
32.8685
31.533
157.151
149.844
140.799
32.3364
31.0535
31.3558
31.275
139.961
138.274
118.532
30.8348
30.0786
31.2754
30.0773
239.244
200.716
202.771
68.3496
53.6867
63.2963
48.8562
266.898
211.882
222.469
51.1116
49.1763
47.0469
45.1333
241.358
222.39
212.796
49.4181
50.9075
44.9567
44.5295
163.118
203.477
172.39
50.7561
42.4768
44.2061
40.9079
155.185
166.943
157.532
39.4032
33.8223
39.8336
36.822
150.65
153.066
147.086
32.9375
31.8072
35.9172
33.9824
138.634
146.959
145.763
31.7102
31.4575
33.6822
32.9816
119.226
143.109
128.868
31.3854
30.0853
32.7824
29.9264
192.071
225.418
203.152
68.7263
50.9381
62.7501
51.2678
199.92
207.04
208.113
48.5446
45.1766
50.0808
47.6989
192.575
205.126
179.655
44.4794
42.673
46.3725
42.3563
171.307
174.756
169.766
42.2803
40.3263
41.2533
39.1258
156.698
170.278
182.29
39.6535
37.0021
38.697
38.1642
156.274
183.949
178.159
36.0782
34.5236
38.2412
37.8174
151.458
172.641
161.633
34.3386
33.6168
37.2039
34.3709
129.938
158.675
139.909
33.2406
29.7545
33.3885
29.5793
206.341
273.367
213.123
61.4755
51.4201
72.3052
55.3688
206.464
210.503
209.698
50.0486
47.8784
52.0365
46.3346
193.711
208.539
202.129
46.639
42.9212
45.0141
42.441
184.298
200.604
194.879
41.9763
40.1894
42.0913
41.3137
188.693
192.288
180.49
39.9529
39.999
41.0725
40.2195
176.623
174.951
164.03
39.9981
38.6973
39.8833
37.7012
162.822
163.654
163.455
37.7483
34.4403
37.0397
35.2985
142.467
162.586
145.323
33.4854
29.7629
34.9735
33.1792
66.2359
75.4305
54.2483
61.9982
52.4377
55.2321
44.6987
51.4547
50.2125
45.858
48.949
41.6828
42.3895
38.3038
47.6312
45.6736
45.6028
40.1895
36.8804
37.4764
35.1172
41.6627
45.0142
37.4548
35.5623
31.3047
33.9169
29.4917
33.0801
35.0142
30.1111
29.8026
26.6174
28.2936
26.0056
28.9309
29.2979
28.2403
25.9296
24.7544
25.6425
25.4134
27.6557
28.1347
28.2307
24.546
24.4075
25.4964
26.0244
27.7466
28.3194
28.3042
24.4588
24.6714
26.1879
26.4036
48.3246
54.7496
43.847
48.2741
41.3485
43.6123
37.3454
43.8699
42.2639
40.2101
39.7818
37.0323
36.269
34.1472
44.3854
39.9023
39.1695
36.4432
34.5639
33.5899
31.9872
36.8596
38.7642
36.4494
33.4727
29.5483
31.9436
42.9617
30.198
35.8397
33.9519
28.5165
26.7674
43.9234
43.5325
28.7159
33.3345
31.9893
26.5918
26.8083
42.3137
38.1282
28.7352
31.7211
30.6732
27.0175
27.5865
36.7772
31.8596
28.425
30.3247
27.9056
27.6137
27.1141
30.2384
25.788
45.4997
53.4715
45.7749
44.3929
37.7848
42.7284
38.2882
40.307
44.8337
42.4127
36.6015
34.011
37.5718
35.074
37.7644
41.1574
37.6081
33.2611
31.3908
34.0566
31.6007
36.1321
36.6945
35.0552
31.1711
43.3441
31.013
30.4392
34.4134
34.7786
34.3022
45.1147
46.7784
30.3513
29.6262
32.4591
34.2118
33.1903
44.8858
37.508
29.2021
27.5047
30.7489
32.5431
30.0298
35.4499
29.5427
26.8709
24.9906
27.3502
29.2024
26.8102
27.9615
24.5265
24.4569
23.1451
45.7424
57.768
48.3544
43.0369
38.1691
44.8735
38.7515
42.5316
45.7273
41.2474
37.4208
35.1854
37.2403
34.6318
38.108
40.1382
37.8723
34.2326
31.9229
33.7401
31.6567
35.869
37.4718
36.5072
31.3791
30.3875
31.2
29.9593
35.4157
36.1965
35.1583
30.1553
29.2506
29.5424
28.3834
33.5765
34.7682
32.8599
28.8008
27.0955
28.0082
26.8025
30.0235
32.2975
30.882
26.5095
24.8734
26.4645
25.7046
27.0139
30.595
29.8897
24.4248
23.358
25.5443
25.2152
49.9244
51.3966
43.2421
51.0008
45.9188
46.9361
41.975
39.6796
41.2204
37.0672
42.9474
36.761
40.3955
36.1638
34.7605
36.0799
33.3187
35.4916
32.5257
35.0103
32.1778
29.698
32.1648
28.5269
31.5415
29.3076
31.3184
29.372
26.0256
27.5874
25.8718
28.7634
28.0007
28.9653
28.4732
24.6532
25.6274
25.6068
27.8844
27.6716
28.4843
29.0301
24.4585
25.7459
26.2953
27.6642
27.8214
29.2474
29.6937
24.6855
26.4394
26.56
27.8687
27.8699
29.7252
29.6922
40.4203
41.7982
36.5331
44.4955
40.2494
39.7813
36.804
36.0462
35.5753
33.4596
39.0918
35.8598
36.1841
34.3542
32.9359
32.8454
31.1526
34.8612
32.1342
33.7061
31.9351
30.509
30.7211
31.4551
30.9619
30.853
30.0247
30.7255
31.4839
27.4599
30.2451
28.0785
30.1908
27.7252
31.2243
27.3135
53.8762
42.9854
29.7321
30.5317
53.9133
41.7323
28.0633
40.3697
32.8796
30.8055
31.0267
39.2757
33.4681
27.2887
30.7713
25.8518
30.9199
30.1639
31.9608
28.7457
36.7327
40.9312
37.2767
39.0232
36.5912
39.4358
37.2367
33.2633
36.5819
34.1057
35.9858
34.1287
36.6638
34.5921
30.7483
33.1633
30.946
33.499
31.8774
33.9093
32.1734
51.9352
48.8106
30.6406
36.0511
36.1189
222.326
31.2009
52.0863
67.8074
44.0359
176.71
43.5278
163.244
55.6636
41.3629
28.6258
26.9153
55.9636
39.8203
29.4004
28.3579
29.8744
26.3233
24.6402
37.104
31.2957
28.0975
27.2999
24.5441
24.1802
23.0852
30.0439
27.7906
27.0667
26.5229
37.2053
42.6866
37.496
40.6559
37.3523
41.4131
36.9401
34.2271
36.1358
33.8002
36.7182
34.6847
35.8387
33.9757
31.2229
32.925
30.929
33.9999
32.348
33.2382
31.6537
29.7538
30.4645
29.1817
31.8662
30.7165
31.2016
29.9724
28.455
28.7493
27.6338
30.3613
29.2421
29.6069
28.8198
26.4148
27.2787
26.2246
28.8725
28.0448
28.5509
27.8963
24.5174
25.9322
25.3006
27.8297
27.2065
27.7283
27.415
23.2854
25.1593
24.8961
27.0158
26.5888
27.2978
27.0239
45.5652
46.9111
42.5144
54.1467
48.754
51.6931
48.6495
36.8484
41.0263
36.9575
45.9097
42.1946
47.4866
44.9934
33.1683
35.8785
33.3162
42.0618
41.4285
44.6078
43.4795
30.6388
32.5657
31.0436
41.0515
41.3476
42.9968
42.829
30.1507
30.7756
30.6055
41.9928
43.2278
43.0511
44.2039
30.1099
30.6961
31.6386
43.3069
43.8224
44.7634
46.7951
30.4527
31.9343
32.4589
44.1237
44.6801
47.1308
47.5456
30.2421
32.4851
32.2625
44.6477
44.3938
47.518
47.3727
41.0747
40.1979
37.867
49.8891
48.0393
45.568
46.3251
36.8762
37.3907
35.8314
47.3688
45.6128
46.4758
46.4083
33.3386
35.2274
33.2473
45.2335
43.3288
45.9454
43.3612
31.3908
33.4751
51.6866
42.7546
42.3067
42.7163
44.2595
31.4156
52.2069
48.1154
42.4401
43.3437
44.7979
44.9091
32.7284
45.5476
39.7684
44.0114
47.0351
44.8327
47.4965
33.4971
38.4601
34.9501
47.6109
48.0504
48.2716
48.3492
32.6436
33.9578
31.4681
47.9975
47.5462
48.0331
46.8862
37.5978
39.9797
38.2896
44.9986
46.1872
46.165
46.737
35.6495
37.8028
36.0327
46.3876
46.5095
46.7082
46.4936
33.2683
35.4668
33.8324
46.0935
43.5589
46.3698
44.5405
51.5844
33.3159
32.5663
42.9228
44.3148
43.8718
42.805
49.4544
32.3108
31.2444
44.694
44.5153
42.6498
42.3885
38.3083
30.8699
30.4276
44.354
46.8793
42.6318
45.2328
33.3352
30.4083
30.0934
47.6659
47.7261
45.704
45.8823
30.6505
29.9536
29.3265
47.421
46.3929
45.7876
45.2728
38.4514
42.0843
37.7391
47.4688
46.738
48.4784
44.2272
36.0713
36.6907
34.9647
46.5554
46.1183
43.4232
42.5853
33.99
34.3244
33.013
46.0419
44.8624
42.7075
42.6521
32.2563
32.5826
31.4672
44.2329
43.2673
42.429
42.1616
30.8856
31.1684
30.5875
43.1412
43.1763
42.3403
42.5193
30.2767
30.3581
29.8634
43.5125
45.2162
42.4574
42.5134
29.9537
29.7482
29.5528
45.4374
45.5353
42.639
42.6576
29.3012
29.4369
28.9856
45.4439
45.0747
42.5608
41.8864
53.2175
56.9798
54.1552
98.1112
89.2965
100.978
99.7881
47.5912
53.0576
51.1363
88.2566
93.3219
98.5013
99.91
47.5155
50.9595
50.5848
95.1111
95.3795
100.716
106.651
47.7986
50.3494
50.7841
95.9517
101.049
108.425
113.64
49.6938
51.1223
52.2914
103.057
103.484
114.522
115.577
50.2526
52.6338
53.9348
104.115
106.128
115.054
112.385
51.1698
54.1947
54.498
107.517
107.361
112.049
112.075
50.3385
54.4639
53.8095
108.256
106.951
112.26
113.158
53.7488
50.584
52.6048
90.7462
98.7421
84.3193
98.0378
51.8896
52.8963
53.1165
98.7482
101.188
99.4784
104.101
50.6635
52.8831
50.4364
102.498
110.237
106.666
118.197
50.244
49.5713
49.8893
112.587
117.83
121.669
127.127
51.6687
50.3264
50.8703
118.793
119.629
127.949
127.349
54.2652
51.3917
54.6466
118.89
114.545
125.589
118.157
54.9855
55.3005
55.3375
113.227
112.52
115.392
112.417
53.9704
55.0774
53.4649
112.663
113.019
112.401
110.919
52.5366
51.4013
52.8653
83.9697
97.8214
85.1193
95.8019
53.2737
52.9408
53.0383
99.399
104.214
97.0519
100.866
50.6084
52.9886
51.7231
106.807
118.348
102.671
110.42
49.944
51.0813
50.2775
121.817
126.849
112.869
116.501
50.4747
50.2547
50.4289
127.549
127.226
117.215
117.494
54.1951
50.8779
52.6137
125.357
117.753
116.618
111.878
54.8405
52.9771
53.0567
114.98
111.968
110.553
109.841
53.0197
52.9687
51.915
111.958
111.426
109.937
108.935
52.6751
53.4285
49.0512
83.554
93.3076
82.0156
83.266
52.4874
48.4163
48.0172
94.5364
98.6586
82.8185
89.1766
51.8532
48.4392
48.5423
100.052
106.176
91.8141
94.4315
50.8709
48.4156
48.3758
108.193
111.666
94.8436
98.5464
51.116
48.7145
48.8767
112.44
112.986
100.001
100.943
52.3897
48.8557
48.8851
112.411
109.154
101.431
102.797
52.6091
49.0562
49.0357
108.861
108.794
103.596
103.639
51.6653
48.9778
47.8183
109.003
110.365
104.081
101.078
30.7616
29.6845
30.4694
28.6011
30.6116
29.2412
31.1313
34.8845
31.3253
49.5077
35.5914
32.4102
31.0815
168.834
41.7866
37.8384
64.6912
193.324
35.5381
45.7532
213.826
30.6193
30.7653
30.6079
31.2739
29.9814
30.6695
31.172
31.1524
28.9589
30.151
32.2896
29.3956
31.8345
31.6036
35.4751
36.638
31.7286
56.0607
31.186
174.456
33.6305
43.916
199.671
43.1405
76.2887
48.9281
219.392
39.1611
31.9739
27.1021
30.4794
27.4984
30.3052
27.551
32.1414
49.205
38.7698
68.8218
179.73
39.8304
47.1003
165.625
51.8912
41.1436
64.5889
85.9542
41.1644
49.1506
112.817
32.595
28.6143
29.5507
32.6614
28.4215
32.1345
33.0983
33.1907
28.3827
29.5584
33.7746
28.3712
33.3136
33.563
53.3189
186.69
44.6719
76.3798
50.5784
174.79
46.3672
55.5633
87.396
46.0206
69.9408
51.4384
120.432
46.9861
58.8658
61.418
43.7934
190.557
41.4908
207.07
58.0344
31.5066
30.2305
30.1653
30.3264
30.7012
30.2509
30.1269
32.9659
32.5149
30.101
30.1017
31.7117
33.6561
30.1243
51.7513
37.1814
53.8617
32.0748
217.414
31.6748
38.2336
58.5245
196.456
71.2661
45.5219
212.67
57.2702
44.017
31.9662
30.7287
31.6242
31.4243
30.7034
30.523
32.1908
33.3884
30.4435
33.7469
31.3266
33.9372
30.5048
33.2503
47.9172
71.0185
40.9914
116.122
42.5015
153.013
45.9893
33.3055
32.6692
29.8077
29.9801
32.5613
33.6117
29.7319
32.6488
31.5864
29.4906
28.9371
32.2005
31.986
29.3578
51.4198
183.754
75.4634
45.0992
171.605
54.6856
44.1254
47.3251
110.013
75.5995
40.7156
152.58
45.1544
42.6804
33.4733
30.268
33.6973
30.6797
33.8365
29.9828
33.4233
32.7644
29.1463
32.2139
30.2825
32.106
29.5823
32.8453
151.947
171.092
161.251
101.183
83.9633
100.627
83.1001
139.716
159.692
153.894
75.9137
71.5593
74.0866
69.9812
121.289
141.262
128.553
67.7826
65.1729
65.8513
63.0753
110.828
115.519
105.37
63.099
59.9858
61.6889
58.2453
99.5531
99.51
96.03
55.4813
50.1626
53.1444
47.7159
96.5664
95.0944
95.3565
45.2358
42.539
42.831
39.4366
93.7594
95.9889
97.4595
39.9398
37.7819
37.8966
36.9785
87.5042
97.429
91.9076
37.0232
30.9022
36.7686
31.3885
181.5
187.271
163.161
122.781
108.741
124.405
107.653
149.073
269.942
298.662
167.347
146.867
168.917
262.103
95.5329
261.037
252.811
100.073
96.0967
99.5208
261.369
92.5292
236.743
255.915
97.2472
95.6574
93.1596
246.209
85.9706
181.759
198.147
88.161
87.593
88.0394
181.999
70.0116
150.664
151.079
80.9352
78.2816
74.8434
145.815
58.5068
150.906
145.572
68.6911
67.419
60.3978
148.351
55.9785
156.729
154.331
61.7398
60.407
56.3318
154.761
54.9147
154.79
152.52
55.132
54.2713
54.9008
148.786
85.3802
87.8887
75.7826
34.2707
29.4716
34.2536
28.6804
129.948
136.637
126.741
86.4997
74.5241
88.7288
74.4768
94.1701
220.977
205.841
123.065
106.331
112.507
206.763
84.9724
263.538
245.373
88.2366
87.975
84.1277
255.677
88.6088
259.746
259.102
90.1397
91.2123
87.8516
253.877
85.16
198.756
219.788
89.8776
88.2305
86.608
199.15
64.5872
153.28
158.808
68.9764
64.455
69.2654
157.859
57.2273
156.186
158.982
57.7049
56.7417
58.2362
156.266
54.7363
143.278
143.16
55.4782
55.0135
55.6362
141.019
52.3927
134.491
136.479
53.4081
52.6728
52.9987
134.296
75.17
89.4498
81.2467
32.9834
27.617
32.8654
27.6845
143.968
168.321
148.382
104.941
83.3379
101.477
77.1943
105.564
192.912
216.797
126.791
102.45
129.491
191.501
78.5895
199.684
195.231
78.5867
77.2303
79.4955
196.201
75.3903
196.896
185.506
76.9127
76.0537
77.0834
181.422
70.626
183.847
172.755
74.1206
73.5868
71.7278
170.729
66.9916
163.179
163.283
69.3878
67.6113
68.3892
161.402
59.6991
155.009
163.216
60.2838
58.399
60.1966
166.213
60.0576
155.883
165.37
57.165
57.1651
60.1165
162.777
57.8054
145.349
152.519
57.0266
56.4123
59.1993
148.952
83.7227
98.738
90.2283
33.0145
27.1553
33.7192
28.8551
150.747
171.31
159.519
86.0685
73.1969
90.1355
81.5889
108.607
212.888
244.946
128.987
104.44
131.439
221.154
81.8989
207.93
209.865
82.6474
81.9562
83.4791
209.838
77.5568
202.66
205.534
79.5124
77.5476
78.754
203.627
73.2732
185.846
198.951
72.4803
71.1427
74.0078
197.351
72.1517
186.331
195.218
68.7374
68.8302
72.1259
194.763
72.1569
187.421
189.824
70.5027
70.6136
72.393
185.932
66.6157
167.66
168.82
68.6166
66.9801
68.979
166.425
59.3409
158.144
162.189
61.202
59.3148
60.9731
160.63
93.5274
105.823
100.617
35.6963
30.7458
40.5878
39.1754
136.728
149.038
133.773
84.8211
70.5316
86.0873
67.9748
128.965
133.78
133.28
59.0169
55.17
60.8058
60.218
123.589
128.183
119.961
52.8014
50.3209
57.824
52.2259
115.799
116.058
113.341
49.3584
48.6753
50.2391
49.9851
108.887
109.601
106.777
48.0506
46.691
48.8971