/*--------------------------------*- C++ -*----------------------------------*\
  =========                 |
  \\      /  F ield         | OpenFOAM: The Open Source CFD Toolbox
   \\    /   O peration     | Website:  https://openfoam.org
    \\  /    A nd           | Version:  10
     \\/     M anipulation  |
\*---------------------------------------------------------------------------*/
FoamFile
{
    format      ascii;
    class       surfaceScalarField;
    location    "5.1";
    object      phi;
}
// * * * * * * * * * * * * * * * * * * * * * * * * * * * * * * * * * * * * * //

dimensions      [0 3 -1 0 0 0 0];

internalField   nonuniform List<scalar> 
38556
(
1675.43
-1506.77
2908.26
1570.66
-158.701
263.471
1631.33
-261.404
200.736
1820.75
-179.065
-10.3523
1850.05
-78.8652
49.5596
1828.65
-66.9315
88.3284
1712.77
-11.6894
127.57
1607.66
-5.71905
110.835
1342.64
122.6
142.419
1086.96
161.784
93.8982
925.951
159.996
1.01084
861.294
109.711
-45.0543
840.484
69.4046
-48.5941
839.677
38.2028
-37.3962
846.587
14.5425
-21.4523
862.525
-5.61252
-10.3255
879.859
-21.8068
4.47307
891.012
-29.5477
18.3944
908.295
-37.5115
20.2283
-34.1945
19.0451
536.631
-143.561
3166.23
418.835
-513.66
472.755
297.321
-173.62
33.7294
338.359
-219.198
-0.904161
468.091
-40.5738
-168.023
483.324
14.7415
-96.9057
557.107
76.7295
-162.202
583.718
126.699
-159.029
654.914
168.284
-116.879
685.955
180.772
-50.0304
712.789
140.43
-7.26805
718.717
101.303
2.47899
718.149
49.8611
20.1116
712.949
22.1353
21.2679
704.45
-6.68071
29.7214
691.844
-18.9948
25.9888
676.22
-34.4158
28.2326
662.107
-39.2684
23.8333
653.604
-48.7378
19.7303
-49.0897
14.8599
-297.318
-12.8038
-597.058
179.127
-648.852
-341.253
663.013
-298.829
-358.677
638.365
-138.337
-56.2129
694.08
19.5427
-115.831
650.801
111.859
-53.8378
643.142
122.252
-37.8641
626.911
169.486
-26.5563
636.344
157.314
1.53733
638.339
169.701
9.07644
636.457
116.932
25.3799
624.446
91.2159
22.099
606.859
40.5152
26.9331
589.425
18.3563
21.2122
575.458
-8.75702
16.0437
566.146
-21.9449
12.2624
562.828
-42.5087
11.4108
562.245
-49.403
10.7169
566.683
-63.4774
10.302
-64.2012
9.34081
773.025
-372.33
-571.977
630.173
-254.492
-251.508
523.412
-76.0158
-116.053
383.665
8.24805
-6.83824
410.49
28.4541
-35.7362
361.531
145.784
15.0337
421.676
82.1907
-20.0827
412.528
180.284
-1.65153
461.977
108.424
-0.559263
472.324
146.998
12.3559
494.941
80.5288
13.7857
492.802
84.2052
9.14985
497.332
29.5556
6.42948
496.028
18.9963
0.664719
500.726
-15.0666
1.61127
507.121
-30.2885
1.94805
518.188
-58.5004
4.92468
528.983
-67.8878
7.69048
540.486
-83.2593
8.27865
-80.9376
9.72596
2085.22
1614.74
-705.192
1400.2
186.274
244.251
970.856
200.953
152.378
878.314
108.212
-7.42192
811.397
85.3249
10.0453
739.874
213.677
3.63015
706.349
107.92
7.79565
672.751
216.855
-2.97353
661.447
120.861
-1.1321
646.03
164.875
-2.4611
631.96
90.8925
3.70712
612.178
104.548
-0.560472
588.88
51.353
1.49956
568.091
42.7008
-2.9155
554.762
-5.9642
4.22678
546.869
-24.9858
2.59093
547.241
-62.0555
3.18308
550.287
-77.0193
6.0849
554.524
-93.7944
6.29819
-90.0419
6.62467
-298.573
3193.02
-2603.78
181.515
405.465
-699.278
332.59
166.688
-116.81
382.871
12.8733
45.057
455.495
-36.0662
48.7671
483.073
139.028
47.0699
588.037
-12.5127
15.4688
575.516
209.522
19.8539
598.856
94.5141
3.0078
591.308
168.086
4.33742
591.471
87.1384
3.59033
577.849
117.511
0.65884
564.114
61.233
3.85476
546.251
55.297
5.26751
532.493
-1.71348
9.50752
529.163
-26.2173
4.5608
535.648
-72.9745
4.43467
543.522
-90.4478
5.55367
550.166
-105.208
4.76931
-97.3902
5.00056
694.179
411.511
-1945.7
676.104
646.771
-223.231
1143.91
170.876
-471.993
1165.42
-12.6406
3.99774
1056.19
-80.2957
153.469
977.915
108.475
108.824
917.418
15.8498
59.9527
-22.5911
14.839
-20.0659
878.694
31.252
50.0744
60.7251
38.1685
68.0256
813.671
43.1786
22.6312
23.2037
46.1464
24.3768
743.97
47.7041
20.9129
60.2902
49.6863
59.1932
666.409
44.2594
22.0857
30.7056
41.7732
25.8755
602.5
42.4782
18.079
43.6455
38.9357
38.2818
554.826
31.51
23.9084
15.281
26.8331
11.3752
535.135
19.9288
18.1839
12.5062
17.2796
7.08886
536.795
-20.3929
17.0193
554.249
-49.3389
5.66787
571.956
-93.3205
2.63898
583.736
-108.141
5.91348
592.022
-119.65
6.15707
-105.999
6.64357
3910.48
844.299
2033.73
2775.47
693.785
1088
1920.94
396.353
629.043
1510.29
176.439
221.579
1085.31
46.3064
298.37
212.683
49.543
125.314
216.752
207.322
211.188
80.632
30.8643
59.4909
186.652
27.0928
14.7876
-172.926
182.15
17.5983
4.42945
-199.007
187.533
51.4725
3.17984
-175.474
161.745
53.4649
7.96876
-159.376
140.246
58.3465
5.04309
-127.942
117.975
51.1434
1.30176
-120.8
113.375
40.5194
-1.58373
-116.758
118.836
19.5082
-1.65834
552.297
-11.637
0.508393
-128.094
-132.853
-123.937
-124.939
-21.044
-11.0086
-19.6851
580.227
-78.6413
1.37265
593.665
-110.229
3.47122
602.899
-124.227
6.85072
612.857
-134.791
5.18305
-118.733
7.35514
1336.22
1692.85
-5267.51
1474.1
596.267
-40.3647
1480.95
239.627
149.876
1565.16
16.8596
75.3724
283.555
4.30536
419.994
250.567
336.206
316.835
262.697
46.8292
23.5719
-11.9524
-65.6965
61.9434
15.4926
0.213007
-53.2523
-4.21811
50.3513
9.86567
-2.74653
-47.367
-13.7527
45.7709
16.3819
-1.03317
-42.6406
-14.2823
40.7695
15.7282
0.425247
-38.3809
-15.2628
35.6109
16.9349
1.09781
-31.2787
-13.7497
29.3922
15.4109
0.225274
-29.9076
-10.5252
29.5768
11.4197
-0.563605
-32.4559
-4.64962
33.07
4.51823
-0.482684
-37.6516
151.126
-13.6035
1.74007
-38.8031
-36.9538
-37.4908
587.442
-81.2928
4.60292
-153.239
-150.173
-144.623
-141.358
586.738
-113.086
3.55968
588.102
-132.162
6.57129
598.176
-145.389
0.522955
-130.065
2.71076
1250.84
3836.9
-2837.65
1207.49
1173.62
-534.004
776.879
478.084
192.151
614.03
-26.4634
206.172
33.4006
-48.1779
429.83
50.1049
57.7484
95.4292
-36.4378
24.6806
18.6542
26.5036
-20.5344
-16.3902
20.5714
14.9723
1.38097
-18.6719
-33.4606
36.9975
17.5248
-2.38984
-20.5365
-44.8332
46.1691
21.3739
-2.17329
-18.3999
-46.0855
44.5303
20.0468
-0.0917666
-19.4123
-34.86
32.6063
20.5623
1.10375
-14.8876
-30.2191
30.7473
14.4798
-0.12041
-7.08516
-34.6346
35.7798
5.52381
0.41616
1.44986
-38.4301
38.8912
-2.24953
0.338539
-39.0142
19.2065
150.353
-18.9792
1.17362
-37.8125
-38.0793
-36.8483
525.666
-70.4019
-0.0558768
-143.116
-131.68
-136.813
-124.892
524.052
-112.545
1.07314
527.094
-136.197
0.993613
538.41
-151.67
-5.0353
-136.086
-3.58254
1354.27
2670.56
-2623.11
899.744
663.643
964.507
1060.55
-108.677
425.955
1001.41
-230.048
262.726
130.555
-20.9753
370.193
126.59
179.713
167.155
-13.693
116.533
9.31917
18.3961
-8.38621
-22.2759
22.4008
9.12859
-0.867255
-14.0215
-26.2874
27.2393
13.3848
-0.315109
-19.2597
-30.7675
31.9816
17.5565
0.488996
-23.0117
-35.3787
36.0177
21.9074
0.465255
-21.3591
-36.2041
36.0767
20.612
0.87435
-12.6871
-35.9146
36.4162
12.1643
0.021205
-3.38082
-37.856
38.1047
3.4691
-0.33698
2.27967
-37.3269
36.5343
-1.72007
0.23301
-33.2895
13.6587
124.594
-10.0906
0.495795
-32.0009
-32.4745
-30.8935
478.557
-74.0248
-9.94945
-121.741
-117.681
-115.433
-110.13
494.651
-118.702
-9.93651
506.084
-143.614
-4.01513
517.979
-160.947
-2.61787
-141.351
-1.40543
1343.27
514.106
-1270.38
1912.47
43.0963
51.3501
1618.44
-5.59943
190.946
1108.15
57.7174
222.525
11.7284
338.949
487.229
85.0132
56.8017
107.454
-13.891
4.47104
2.15644
18.992
-8.4582
-13.6341
18.3383
3.61244
0.141584
-8.74523
-24.9818
26.4094
7.72135
-0.403705
-14.6966
-32.2743
33.6526
13.2584
0.0598089
-18.2834
-34.8738
35.2912
17.6887
0.177361
-17.297
-37.007
38.04
16.3887
-0.124687
-11.9318
-40.7912
41.1357
12.0746
-0.487438
-5.63812
-39.8903
38.8142
6.60675
0.107404
-1.03216
-35.5488
34.5427
2.02828
0.0100048
-32.0033
9.35667
129.21
-13.2398
-1.23897
-31.5653
-30.5043
-30.0152
505.527
-76.8059
-16.7208
-124.082
-128.85
-113.466
-119.628
522.519
-124.248
-11.4465
531.559
-150.648
-2.0046
532.647
-166.91
4.87484
-142.967
4.5382
950.469
682.1
3765.59
887.462
449.056
-342.953
645.187
278.775
-42.0996
644.063
219.459
-160.618
502.01
259.14
221.863
100.611
6.6264
37.5423
0.136532
36.1642
-8.93615
30.35
106.69
91.8618
100.964
0.93268
91.7616
24.3766
2.34922
-10.168
1.06302
-9.70403
-5.39326
-54.7548
53.0929
27.9105
2.09361
-8.82687
-5.34144
-8.78063
-8.07186
-61.5688
83.5377
21.2204
-0.834523
-12.8659
-8.48019
-12.9368
-13.8005
-82.8474
100.274
38.9509
0.734355
-15.4002
-13.1881
-14.7225
-12.9028
-107.641
122.634
34.8737
2.45195
-14.2769
-11.8505
-13.2886
-10.0224
-117.924
127.949
26.6323
3.23192
-11.1166
-8.71005
-10.0405
-5.38438
-125.289
135.564
11.3448
1.42968
-7.09074
-4.2851
-6.28913
-0.630335
-129.286
139.324
-2.9104
-0.467279
-3.13605
-0.0493482
-2.84509
531.475
-33.8426
-23.7862
12.5505
5.45042
13.0367
5.60727
-132.67
-134.228
-119.348
-124.244
552.753
-74.4164
-23.6679
568.073
-125.811
-13.7571
569.017
-151.857
0.264333
556.761
-164.456
9.80123
-132.797
2.02501
-867.089
633.714
-120.348
-25.9827
629.759
-1021.81
317.442
338.211
-402.861
283.842
205.485
47.5735
289.81
70.0892
183.082
224.247
5.86663
66.3231
274.857
123.489
106.876
-43.2695
-96.8236
-45.9823
-94.8999
307.767
-26.7755
55.1412
-23.862
-9.48124
-18.4426
-9.49014
350.964
55.6862
45.0552
-19.057
-52.0617
-22.3875
-50.4324
402.564
15.9268
29.4334
-25.0307
-26.7465
-21.162
-24.0204
450.144
50.6691
19.4942
-24.5551
-38.2914
-20.5627
-34.3345
494.706
23.2944
1.30342
-17.1175
-20.9645
-12.3453
-18.7327
529.114
14.5911
-7.08579
-6.65939
-16.6727
-3.54359
-15.0371
555.344
-13.5577
-13.8707
3.82279
-5.10582
5.70531
-3.225
581.348
-33.0246
-26.821
605.441
-71.7744
-26.7353
611.607
-121.988
-9.98808
596.263
-143.228
6.71509
564.151
-148.15
15.8064
-107.58
-1.79368
-122.679
300.372
-3219.69
-159.845
910.027
-243.101
492.863
223.776
-538.272
670.609
224.362
-196.622
694.331
35.3015
11.0652
718.756
-14.8103
-3.74837
735.98
-28.7134
134.979
708.369
-81.9783
82.8137
681.021
-13.2085
96.2433
652.988
-4.08483
48.0445
638.481
40.7942
24.3812
635.767
24.8902
1.11817
639.177
21.0598
-9.87815
648.086
-0.327814
-22.1395
659.005
-14.5948
-29.3487
663.479
-47.901
-28.347
649.647
-101.672
-6.48505
610.454
-117.414
13.3797
547.729
-109.816
24.39
-73.2605
4.4214
-133.867
1296.07
-655.09
183.127
1168.99
-575.956
410.621
595.72
-599.438
554.676
494.566
-414.259
623.053
280.276
-313.352
713.94
180.558
-286.255
739.563
3.89748
-58.2341
745.624
-90.476
2.43718
726.274
-58.1575
64.2989
714.394
-37.9433
45.7381
712.265
-2.38485
45.3082
715.595
-4.70536
26.2659
720.285
-0.146059
16.5154
724.532
-1.93845
-2.63627
728.578
-4.63298
-14.0075
715.988
-26.9128
-8.39838
664.918
-66.8732
16.2719
601.108
-84.3797
30.7763
539.798
-78.3736
29.8674
-49.3446
12.7219
825.288
552.049
122.707
1599.99
645.924
-251.641
1678.43
798.244
-280.956
1668.56
770.79
-266.358
1412.9
577.854
-41.9151
1244.63
376.185
-27.3576
1021.28
120.441
106.806
852.08
-2.82558
81.5459
770.388
-28.6119
52.1461
751.742
-43.981
24.6844
765.499
-37.7427
21.6006
784.443
-42.8057
19.1564
801.625
-38.5333
21.2056
815.245
-32.9554
17.397
820.739
-24.6436
14.5165
797.13
-16.7228
13.4196
713.752
-16.1067
32.611
615.724
-26.6568
40.3055
534.534
-29.4081
32.2239
-20.728
17.0809
812.022
-411.228
1668.53
1568.42
473.667
-584.14
1601.27
1063.69
-298.295
1555.85
895.529
-79.3194
1306.2
638.686
188.815
1170.48
314.93
196.983
1013.3
119.284
158.334
900.628
37.4073
72.4391
835.268
-1.47186
38.22
817.524
-29.9894
3.75227
814.614
-36.6811
1.84865
820.925
-45.8831
-3.23326
829.28
-44.4921
-2.3967
847.493
-43.9482
-7.21983
870.177
-37.1379
-10.1895
877.126
-19.2203
-4.4524
834.07
14.319
12.6309
752.162
27.9231
27.3284
645.99
32.7262
44.0373
19.4973
25.6854
-1022.6
3.29149
-661.924
-2.51367
381.205
-927.628
449.883
446.78
164.509
658.02
392.986
294.407
638.018
185.24
473.447
622.191
57.5413
273.216
623.604
-14.2223
132.093
657.872
-27.4799
30.6186
687.284
-38.454
7.57092
707.95
-48.9218
-1.73412
712.815
-53.8163
12.2699
711.351
-59.0128
14.5941
703.802
-52.473
15.5294
697.375
-44.4066
6.88634
689.33
-26.0473
-3.046
678.108
-9.68585
1.68706
662.916
23.6935
5.81807
648.026
44.0646
-1.25135
641.415
57.6561
-18.3194
36.8155
-14.6613
595.653
871.756
695.612
281.247
575.099
567.293
630.528
337.556
638.88
176.889
673.949
22.4721
712.523
-52.7965
763.091
-78.0484
792.295
-67.6581
811.963
-68.5895
804.185
-46.0379
784.647
-39.4747
744.142
-11.968
708.227
-8.49206
689.354
-7.17372
682.477
-2.80879
704.44
1.7298
743.092
5.41302
823.96
-23.2115
-24.5803
66.1046
-836.661
4545.92
562.019
-192.929
-39.5144
1167.94
-328.691
-76.4934
1383.53
-126.487
-99.4558
1479.2
-28.8075
-17.3018
1516.91
-41.8795
92.4914
1458.55
16.3942
169.536
1373.16
32.3522
163.881
1162.3
149.689
203.584
982.29
154.148
119.762
844.292
112.093
26.9164
770.193
55.4236
-26.3785
741.005
16.3667
-35.7736
731.519
-4.41105
-23.4991
733.555
-18.0104
-5.47758
745.387
-26.5672
4.40955
765.293
-32.8461
17.4135
786.705
-32.3804
29.3628
811.623
-34.7608
30.0707
-28.5955
29.486
-48.5497
606.919
3982.59
266.448
-396.793
361.622
303.042
-219.505
-112.051
355.878
-175.618
-4.60898
434.564
-17.6095
-257.907
465.366
18.077
-187.664
519.091
74.4066
-273.939
524.853
114.894
-247.333
565.849
142.414
-150.6
579.458
141.598
-51.0895
588.947
94.4962
0.83983
582.1
62.6541
2.09542
577.725
19.8
21.0532
571.501
4.7547
18.3258
566.809
-11.3577
27.7606
560.914
-16.7678
22.0846
556.985
-25.9844
25.2993
554.098
-27.2399
21.5806
554.979
-34.007
18.0951
-32.1692
13.3169
90.1314
139.204
-341.318
410.97
-518.281
-540.604
545.934
-250.911
-462.235
537.006
-120.127
-102.776
561.103
23.2756
-180.813
524.004
92.4574
-91.1189
528.171
97.1484
-64.7732
514.529
145.204
-43.2239
526.209
129.495
2.7763
523.62
142.721
10.5423
520.872
91.3691
31.256
507.723
74.8037
23.0979
493.732
31.5173
29.2063
479.785
19.3186
20.5956
471.715
-5.47543
18.2315
466.206
-10.4967
11.5004
465.417
-26.0136
12.2284
466.166
-29.5786
12.3073
470.847
-40.5163
12.1294
-39.67
10.9805
822.641
76.8015
-3866.96
680.672
-112.194
-515.625
480.668
54.2256
-221.186
328.481
46.5463
-21.3238
318.237
39.3585
-41.5746
282.538
126.682
16.5071
340
45.1525
-25.5492
332.511
154.644
-3.60286
380.226
82.3375
-1.11692
387.278
134.343
13.6824
407.489
68.6589
16.2843
401.749
81.0324
8.66158
404.36
27.7028
7.63313
401.036
22.2877
1.01978
405.267
-10.1773
2.08149
410.171
-16.0629
2.61044
419.17
-36.6504
6.56295
428.048
-40.6045
9.83779
437.198
-52.1311
10.744
-48.3489
12.2023
451.92
1437.07
-1862.5
677.505
475.201
-568.73
691.51
309.585
-116.986
678.115
113.765
-61.2449
640.177
83.1436
4.19847
585.783
172.461
12.2444
568.551
54.4799
15.7004
534.466
183.396
2.35982
522.075
87.8196
5.77661
499.77
155.228
-1.04059
484.5
80.4385
7.19812
463.678
101.632
-0.337849
446.951
42.9329
2.99611
432.729
36.2671
-2.6732
428.613
-7.72641
5.8922
427.549
-15.6732
3.26534
430.241
-40.784
4.6241
433.857
-46.9292
8.79398
437.198
-58.8022
9.62812
-53.2501
9.14175
303.779
2631.49
-2915.65
198.568
913.118
-1031.98
247.447
448.371
-304.476
295.834
118.466
-8.03203
359.993
-5.2054
72.9569
382.205
130.982
66.3379
470.666
-40.5613
22.0482
438.168
206.607
29.141
449.793
70.2576
8.94481
431.446
170.071
7.84163
430.155
78.3067
7.01296
417.15
113.415
1.87988
412.826
44.6369
6.47537
406.188
42.1544
6.01767
406.654
-8.1062
9.42205
411.465
-20.8083
4.88434
418.945
-49.8771
6.04742
425.494
-56.8862
8.96159
428.902
-66.0448
8.60364
-57.4211
7.7446
-57.6561
62.5348
-552.34
675.487
665.295
-708.55
997.872
361.509
-707.516
966.118
158.462
-4.24438
876.928
28.2859
209.167
798.065
202.769
115.901
727.362
21.6949
68.4703
-12.008
21.9765
-10.0399
662.601
51.2574
55.2261
77.8035
56.6739
80.4823
586.629
47.2576
28.7491
24.2023
45.969
22.6824
521.303
52.2603
31.3483
60.6768
52.3249
59.6993
471.557
39.2088
30.5948
22.7683
36.9931
20.5735
438.233
37.3287
22.8944
35.4085
35.794
33.3917
424.288
22.6263
24.8825
7.77044
20.7519
6.45922
427.052
15.2545
17.7164
4.86768
14.6402
5.09595
435.325
-17.2176
17.8577
447.488
-34.8358
7.53214
456.763
-61.4649
4.95167
461.488
-66.6325
10.9349
461.614
-72.0851
12.0708
-58.5872
9.5202
1921.44
138.369
311.821
1553.81
799.746
1321.18
1094.46
527.361
922.545
882.422
270.75
321.327
711.69
122.93
374.459
151.133
51.4415
155.455
153.794
138.114
139.264
88.372
61.5827
100.615
-31.7386
137.582
40.2504
26.734
-9.78606
-125.347
132.443
41.9285
12.0187
-4.22015
-144.837
130.548
61.7266
4.04027
-9.7486
-118.48
111.352
57.9548
11.1824
-8.12522
-115.973
103.774
51.3911
8.14245
-1.74546
-98.8635
95.2769
40.9537
1.70706
0.730623
-101.495
97.0627
27.7206
-1.39231
1.639
-101.335
102.948
13.5554
-1.5529
453.766
-7.89751
3.69454
-110.031
-110.5
-103.69
-103.235
-17.2213
-6.20781
-15.387
473.722
-56.0785
2.65943
483.947
-74.4683
6.24964
489.826
-77.2925
11.6317
490.296
-78.4849
11.1129
-59.7451
9.88485
1297.6
1037.05
-2158.04
587.919
462.252
1006.81
502.07
223.61
539.476
621.669
86.1251
140.398
189.301
73.2526
424.693
175.665
157.241
144.44
-54.9887
216.518
27.9166
51.297
-6.15545
-13.1587
-57.9141
54.939
16.3569
5.93233
3.43192
-40.952
-9.50655
36.6605
12.9936
-2.6274
2.55252
-32.4727
-15.7193
30.5384
17.484
-2.38288
-0.991594
-27.2876
-15.0157
25.7545
16.2257
1.31478
-2.4116
-25.8908
-13.6864
24.6615
15.0146
2.31278
-0.438623
-24.3361
-10.6306
23.7232
11.4683
0.213835
0.63852
-25.9179
-6.58135
25.92
6.77351
-0.832803
0.839466
-28.3382
-2.47914
28.5658
2.29815
-0.886089
-31.6621
-1.47567
124.757
-8.4089
1.92457
-31.7514
-30.6612
-30.6197
483.578
-61.9125
11.0757
-126.977
-124.696
-118.107
-114.437
486.482
-79.5441
5.73216
489.933
-84.4107
10.2385
492.97
-85.3694
4.37015
-62.9453
4.93351
652.802
1695.2
-1896.99
441.63
387.751
-248.331
258.035
213.72
385.636
202.215
46.8476
301.269
34.6851
86.93
447.485
58.5277
31.2349
46.4345
-29.3634
-30.4036
39.1401
30.2128
25.0994
-1.62733
-19.5482
-18.3828
22.7675
15.8878
0.902992
5.10311
-19.2649
-30.101
30.8464
18.566
-5.14964
3.96719
-18.7221
-31.1297
30.8463
18.9571
-3.91885
-0.905979
-16.7654
-28.3885
27.3342
17.5345
1.19121
-1.77702
-14.497
-25.9198
25.9049
14.7091
1.57983
0.170506
-9.19664
-26.9935
27.5932
8.65629
-0.229856
-0.246197
-3.26382
-30.0619
30.7454
2.74556
0.0809876
-0.615574
1.70446
-32.7876
33.1557
-2.07713
0.620145
-33.3819
-1.97671
12.1358
128.993
-12.3864
2.55088
-32.4192
-32.2167
-31.2992
440.391
-56.8542
6.89973
-122.887
-111.849
-113.456
-104.212
439.979
-80.5575
2.49792
442.995
-89.5727
3.13967
451.309
-93.9863
-4.73181
-69.8054
-3.18635
422.603
1122.38
-5559.48
111.634
404.351
1258.88
541.253
-38.0823
248.139
443.382
81.2676
326.177
104.854
135.033
400.447
97.0107
83.2924
79.8691
-43.2817
-24.7559
116.383
11.7908
44.7176
-4.95039
-8.25433
-24.3649
24.3105
7.59721
5.66195
-1.21222
-14.9063
-23.9558
24.5747
13.8575
1.6421
-1.46101
-17.5164
-26.7067
27.1932
16.8018
1.68917
-1.92473
-17.4814
-27.8322
28.0485
17.0201
2.16969
-2.36856
-14.1161
-28.843
29.3327
13.4365
2.5585
0.601853
-7.28231
-30.9166
31.3127
7.16632
-0.881938
0.692916
-1.94262
-31.527
31.3043
2.18752
-0.715158
-0.39073
1.57601
-29.9765
29.5027
-1.11979
0.408274
-28.1434
-0.934851
9.34296
105.288
-7.86895
1.5515
-26.4955
-27.1437
-25.596
390.16
-62.1429
-8.67174
-102.715
-97.1915
-95.8655
-90.377
398.126
-88.6074
-9.85282
405.244
-98.9641
-1.74181
415.433
-105.48
-1.31255
-77.376
-0.431133
1387.19
403.261
-811.699
1153.07
115.472
574.35
646.866
218.271
440.8
315.896
331.224
303.538
-0.313561
394.998
476.331
42.8134
-6.66952
30.9987
-24.0537
-16.8374
12.4239
8.93282
19.2209
-2.29091
-7.64556
-11.8243
16.2562
3.33672
2.1678
-0.349164
-10.239
-20.4219
21.4142
9.01061
0.58527
-0.242403
-15.1513
-24.1578
24.8385
14.3607
0.352345
-0.682127
-15.7209
-26.0711
26.5985
15.067
0.808626
0.133297
-12.3716
-28.0683
28.5817
11.8
-0.0750624
0.43399
-7.02003
-28.9006
28.7181
7.04202
-0.273405
-0.498308
-3.12461
-27.451
27.1843
3.2214
0.668185
-0.235655
-0.167634
-25.8749
25.6547
0.364058
0.259348
-25.0263
1.52058
8.61795
102.566
-14.1107
-1.60476
-24.463
-24.0664
-23.4335
382.067
-69.7848
-16.0952
-96.5614
-98.8931
-88.8638
-90.7321
390.755
-98.2924
-10.45
398.063
-109.572
1.29598
403.468
-113.856
7.8457
-79.9397
5.72384
291.426
268.892
5564.67
197.581
405.751
-539.387
139.576
408.862
-174.686
146.772
346.908
-183.498
282.328
301.145
180.16
53.7909
8.81645
40.3701
-2.49716
31.3563
-1.79899
28.2894
64.3926
42.8881
54.2627
-0.93749
-11.2475
48.1894
28.4246
10.9872
-10.0248
-1.45138
-10.1491
-6.77336
-4.55049
-16.6302
26.7811
23.8745
3.25051
-9.41245
-7.00157
-9.53807
-8.97086
-0.0666448
-39.808
59.2666
22.9905
0.852848
-12.6479
-9.07134
-12.5452
-10.7049
-2.43369
-55.9115
71.4977
28.1226
4.22976
-12.4557
-10.2999
-12.0444
-8.31939
-4.36592
-77.0617
90.4181
21.3824
5.86917
-10.2712
-7.83238
-9.81906
-5.09497
-4.83206
-85.7476
96.1548
12.1168
5.84778
-7.06746
-4.66272
-6.71455
-1.82309
-2.05794
-93.5709
103.632
1.64228
2.16672
-4.29211
-1.58984
-4.10663
1.12352
0.737485
-96.7426
106.274
-7.68696
-1.27976
-1.86094
1.1907
-1.75588
393.11
-45.2001
-27.3012
14.1016
6.07406
13.5648
5.34644
-99.4204
-101.56
-90.0755
-92.4261
400.157
-77.2904
-23.2091
405.145
-106.258
-10.7798
407.941
-115.997
3.89249
403.77
-114.699
14.8149
-75.3827
3.66717
719.733
766.641
3663.98
-111.304
764.401
-549.423
-2.31405
439.751
-542.74
-63.9952
344.046
112.117
125.325
195.426
99.4799
25.5966
81.9029
92.9653
156.022
176.294
85.5775
-48.6358
-93.4388
-51.6238
-91.7223
194.746
-2.02717
53.3354
-11.8456
-6.29668
-9.72917
-7.01919
254.938
65.688
54.3858
-20.4569
-46.8117
-22.2344
-45.7077
305.567
10.2561
38.5709
-14.7052
-22.0398
-12.7426
-20.5356
346.597
39.5359
25.9039
-15.5693
-29.3957
-14.2047
-27.8056
378.974
5.22386
6.17466
-6.82981
-15.7478
-5.24234
-14.6513
399.959
-0.0960522
-4.32579
0.144517
-12.6944
0.970403
-12.0697
413.202
-24.9435
-16.2126
7.97664
-1.46834
8.5187
-0.984841
418.505
-50.6572
-26.6662
421.593
-85.5143
-21.5995
422.379
-109.869
-7.16282
417.43
-115.117
10.784
402.291
-104.253
20.5001
-63.4539
-0.0242843
-2.86796
581.475
-1027.83
-57.2112
993.154
-417.511
63.8
345.532
-565.065
110.956
284.355
-184.087
252.896
66.7028
-2.15107
321.332
22.7474
-13.0293
445.061
35.4766
152.067
464.141
-16.8678
78.5738
481.973
40.6083
103.492
476.356
14.9287
48.9893
472.982
37.9779
29.3129
470.515
7.83664
0.972943
470.341
0.111686
-9.91248
470.431
-22.4254
-24.7476
464.546
-45.2478
-28.8727
454.024
-79.9314
-23.4083
441.058
-100.998
-2.3902
420.574
-99.2087
17.9568
391.381
-78.3122
27.6415
-46.5075
6.76367
645.952
1013.44
-3080.5
799.177
844.52
-580.547
396.116
520.314
-371.159
318.087
297.086
-348.962
271.015
74.021
-273.598
296.874
-37.5248
-251.842
375.64
-70.9913
-30.5324
435.411
-79.9911
5.78933
487.349
-21.4534
74.4225
512.697
-11.0061
46.3244
528.906
16.9752
50.1022
534.944
3.21188
24.8525
535.895
1.93714
13.7393
530.682
-13.3505
-6.49818
513.364
-27.8329
-14.1047
488.016
-55.7744
-7.20756
457.048
-73.6747
19.9167
423.922
-70.345
35.0391
392.595
-51.7359
34.6182
-29.9626
15.7947
901.69
279.132
-2542.49
1055.69
540.955
-102.073
878.274
550.022
-133.25
782.495
344.358
-217.85
633.846
173.8
6.95583
600.975
-13.6611
-18.3507
578.018
-56.9795
115.751
569.796
-61.6363
71.4128
569.765
-28.991
59.7153
578.439
-21.5911
26.5952
592.904
-4.61367
28.7246
602.746
-8.51839
21.0441
609.523
-4.05614
20.4227
609.729
-9.09457
12.9345
594.968
-7.93244
9.37715
554.905
-17.1657
14.8735
490.411
-19.5929
43.0242
434.473
-21.6165
47.515
392.163
-15.0506
37.8488
-8.19758
20.24
461.579
110.608
2888.27
775.521
510.424
-867.55
646.429
694.276
-313.457
682.534
351.351
-122.418
672.246
187.83
185.072
676.842
31.1756
147.55
640.013
-6.45486
144.639
622.909
-25.3273
53.2338
608.342
-15.8404
39.6367
610.776
-20.541
0.267536
614.256
-11.9835
5.73884
620.364
-14.0931
-3.76602
624.323
-8.1734
-2.23909
627.635
-10.1479
-9.47796
624.019
-1.76915
-12.7365
603.401
1.78535
-2.78593
551.86
20.3489
24.2301
497.147
21.8642
38.5606
450.997
26.1955
48.9419
18.8159
27.7679
-1563.34
-655.81
161.704
-663.04
-154.713
-1162.79
36.1556
-49.0336
208.623
263.476
-29.5034
447.941
408.626
-68.7351
584.863
465.061
-51.4785
299.435
505.444
-50.3408
135.596
533.605
-33.3845
10.5146
549.35
-25.5019
1.4876
555.782
-18.406
-10.301
555.62
-8.75971
9.20823
552.216
-1.78168
5.68646
545.964
7.64367
5.9641
537.485
10.1448
-4.92767
524.413
17.579
-9.32202
509.592
24.0976
-5.80407
497.473
39.5397
-1.25287
486.749
36.5043
-5.16736
479.439
28.5565
-13.3711
15.8719
-7.95066
-128.822
165.34
195.923
-198.212
510.968
203.214
655.553
163.468
652.687
111.02
646.553
-22.872
621.833
-78.418
612.629
-102.228
588.807
-69.3384
568.929
-67.1177
550.013
-35.8813
540.772
-32.0152
542.645
-6.19745
547.926
-3.62863
556.823
1.50861
569.318
8.79397
600.567
10.0197
643.841
-1.35604
679.574
-30.3882
-24.7625
758.887
-278.038
-1058.48
447.362
-233.346
505.356
1228.57
-417.808
-439.894
1336.55
-118.835
-88.6001
1318.55
46.5223
-45.8268
1298.23
55.8861
56.9313
1193.57
131.581
142.612
1082.57
141.772
133.11
924.214
189.47
172.47
816.655
145.965
81.3566
724.664
83.2743
35.633
668.29
35.6256
-5.6298
641.101
2.53634
-11.1213
632.728
-10.2332
-4.89245
636.614
-20.0376
10.6733
648.834
-22.1633
14.3535
669.479
-26.0262
22.7937
692.623
-22.2181
28.4374
719.852
-23.653
26.4947
-17.054
27.5815
394.627
-293.536
3707.12
530.949
-287.52
279.474
344.083
-190.557
-152.437
377.576
-122.278
-34.6596
426.385
27.7248
-287.919
454.686
61.0572
-221.136
487.823
108.048
-283.543
465.425
131.473
-214.637
475.586
133.028
-104.319
474.983
120.627
-25.1488
477.989
71.5167
9.59217
466.03
48.0951
1.58472
460.813
12.04
16.766
453.685
4.88603
10.3354
451.715
-7.6585
17.3508
449.564
-9.39304
11.4652
450.988
-16.9195
14.7693
453.337
-16.2167
13.2294
458.752
-22.1945
11.2215
-19.69
9.65698
1334.5
-197.305
3437.79
819.238
-311.695
-1.16263
544.357
-142.437
-235.475
486.521
-90.0394
-77.1778
471.359
32.1872
-170.114
433.565
96.8058
-89.0739
438.952
98.9012
-61.0141
420.844
143.456
-37.0987
429.591
118.666
8.39056
421.712
130.03
9.01833
418.328
79.0234
27.1335
404.296
69.9583
15.2672
393.193
30.854
21.4948
381.603
24.7726
12.2988
376.703
0.741489
14.7313
373.513
-3.60714
8.90533
374.506
-14.0815
8.3974
376.102
-16.1518
10.6463
380.771
-25.604
10.87
-24.2515
10.6964
779.299
-330.793
-128.218
485.118
-3.2011
-529.937
367.603
134.686
-380.794
233.359
72.7756
-49.8945
230.927
51.2704
-58.2257
205.078
125.075
14.0868
261.869
44.7458
-28.1842
254.88
148.061
-1.21891
300.907
70.7079
0.81368
303.97
129.429
11.2209
322.916
61.9174
14.4446
316.011
80.3152
5.20944
319.279
28.4487
6.77116
315.479
29.3646
0.227686
320.116
-4.00886
2.1949
324.125
-6.70171
1.69536
331.812
-20.78
5.5747
338.892
-22.5895
9.19608
345.798
-32.8422
11.0763
-29.0602
12.3315
461.593
441.529
-2252.51
565.065
280.226
-955.628
557.927
239.293
-214.454
529.796
103.904
-64.2426
504
79.8657
1.3989
459.597
166.156
15.5665
453.682
45.517
20.8439
419.221
180.057
4.82611
408.895
77.0541
9.7557
384.726
154.156
-1.59906
372.319
73.7971
7.72519
353.584
99.8172
-1.10424
342.692
39.116
3.22079
332.694
38.5924
-1.90302
332.045
-2.35359
4.8856
332.688
-6.7478
2.66834
335.655
-23.1025
3.97983
338.855
-25.9048
8.90903
341.436
-36.5541
10.7588
-31.5876
10.2098
597.832
973.93
140.187
210.299
362.172
-726.398
122.822
214.948
-192.653
165.17
46.3512
7.17229
248.093
23.9687
45.9309
262.832
156.616
61.1393
351.396
-40.1837
19.1849
311.629
223.813
25.1512
326.282
61.9432
9.40197
308.514
173.812
5.95486
312.563
69.9727
6.7879
303.424
109.74
1.0959
305.466
37.8254
5.72401
303.388
42.3604
4.32746
308.142
-4.48378
6.7989
314.901
-10.3606
1.73761
322.318
-29.6684
5.19645
328.425
-32.6327
9.58209
330.964
-40.7014
10.2124
-33.8363
9.38744
2958.46
-818.806
2434.19
1920.31
551.944
139.826
945.994
328.97
152.779
742.597
151.27
94.2343
675.649
111.984
188.1
585.953
279.799
82.4136
526.648
25.8257
50.3394
-6.68368
24.0089
-5.89945
459.553
64.8486
41.2868
85.7943
68.0404
86.1644
405.348
43.3164
21.7406
20.6877
40.1812
18.9721
361.071
52.6775
27.4867
59.2501
51.9715
58.0514
337.719
34.0967
23.5703
17.8608
31.9304
16.461
323.587
34.1227
17.5833
31.4703
33.0272
30.5626
323.554
18.7141
16.6329
4.99865
17.7207
4.67399
331.613
14.5381
11.1402
5.17269
14.7741
6.39314
340.795
-9.40776
13.5995
348.869
-16.827
5.92479
354.217
-34.5465
4.48169
356.806
-35.9934
11.7067
354.723
-40.6895
14.142
-31.4093
10.339
728.794
-354.817
-265.461
608.523
847.685
1145.71
569.601
482.641
807.796
461.367
282.938
297.892
474.095
176.062
297.653
96.8947
84.4152
121.006
97.5182
83.9392
83.4575
121.132
93.0972
127.889
-28.1921
87.1707
45.9518
17.79
-10.0039
-73.4188
82.026
57.1738
9.07146
-3.86334
-95.2523
82.3104
58.031
2.09067
-10.212
-73.6865
72.378
55.0781
9.12004
-7.08888
-81.5569
74.2591
43.9182
4.5652
-1.51804
-73.4539
72.9883
34.9938
1.11246
1.81701
-81.0722
78.1565
22.3519
-2.53906
1.32847
-82.5169
83.6197
13.0068
-0.899946
356.416
-1.5911
2.48579
-89.2715
-88.3449
-81.6186
-79.8149
-13.0838
0.251446
-11.1417
369.633
-29.87
2.48544
376.54
-41.6435
6.44009
380.131
-40.8487
12.8951
376.603
-40.0527
14.005
-27.6024
10.6638
-1784.78
166.341
-1629.16
-589.55
184.879
474.383
-23.0122
128.827
326.753
76.1322
152.993
171.199
89.5154
141.899
230.716
81.6631
69.6843
63.4095
-55.6036
118.942
65.0672
45.5248
-7.90704
-17.0452
-35.521
32.8945
20.9827
6.59601
1.45911
-24.7574
-12.3445
22.1528
14.553
-1.06301
1.54425
-21.013
-15.2771
19.5315
16.4989
-1.2845
-1.71864
-17.5588
-13.6945
16.7682
14.575
1.62865
-1.70441
-18.8244
-11.6407
18.3934
12.4291
1.34697
0.172917
-19.288
-8.44035
19.1152
8.82801
-0.387779
1.00974
-21.5911
-5.01137
21.5211
5.15933
-1.0877
0.722563
-23.229
-2.33642
23.3041
2.17627
-0.637564
-25.5038
-1.54371
98.7879
-2.45429
2.7502
-25.153
-24.4558
-24.0186
376.309
-36.644
13.9042
-100.092
-96.3874
-90.4271
-85.4575
380.824
-46.8837
6.45762
384.86
-46.3991
11.7527
384.046
-43.2527
8.38446
-26.3097
7.06499
-84.2538
718.4
-3251.84
-172.756
60.5546
-35.5044
-110.832
184.745
267.793
-115.649
182.155
276.925
3.64121
183.353
272.923
13.8842
-4.08141
4.01548
-26.8806
-55.1004
15.6777
47.8408
22.1037
-0.516476
-22.7502
-14.2
18.4502
18.7019
0.314655
4.17832
-18.4166
-23.0356
23.0001
17.9572
-3.68333
2.87977
-16.2257
-21.8718
21.3779
16.2971
-2.45739
-1.59707
-13.7719
-20.0005
19.9109
13.9652
1.49338
-20.8482
-0.758609
-10.7594
21.2522
10.6948
0.419256
-22.6256
0.726858
-6.17737
5.83965
-0.894649
23.1311