/*--------------------------------*- C++ -*----------------------------------*\
  =========                 |
  \\      /  F ield         | OpenFOAM: The Open Source CFD Toolbox
   \\    /   O peration     | Website:  https://openfoam.org
    \\  /    A nd           | Version:  10
     \\/     M anipulation  |
\*---------------------------------------------------------------------------*/
FoamFile
{
    format      ascii;
    class       surfaceScalarField;
    location    "5.1";
    object      phi_0;
}
// * * * * * * * * * * * * * * * * * * * * * * * * * * * * * * * * * * * * * //

dimensions      [0 3 -1 0 0 0 0];

internalField   nonuniform List<scalar> 
38556
(
2070.4
-1055.61
3324.51
1698.12
-38.576
410.858
1627.53
-165.414
236.004
1776.19
-136.824
-11.8334
1789.98
-62.9056
49.111
1759.52
-61.8038
92.2688
1640.31
-11.9289
131.137
1532.73
-6.66519
114.247
1268.41
121.211
143.104
1016.93
158.488
92.9885
862.811
154.756
-0.633181
802.864
105.156
-45.2082
785.641
65.5894
-48.3662
787.533
35.0528
-36.945
796.798
12.0627
-21.3278
814.924
-7.8301
-10.2961
834.885
-23.9418
3.98053
849.671
-31.8867
17.1009
871.106
-40.0489
18.6137
-36.0735
17.4208
137.783
159.186
2983.94
207.861
-381.895
273.242
191.043
-109.389
-39.2074
252.194
-178.218
-19.7577
396.807
-37.9348
-169.583
421.147
4.10503
-90.2492
490.848
79.5092
-161.139
518.206
123.643
-157.666
592.458
161.804
-114.844
625.648
172.812
-47.5148
655.326
131.777
-6.69965
663.369
93.237
3.87578
665.566
43.2309
20.1616
662.941
16.6173
21.061
656.972
-11.9246
29.956
646.341
-23.4369
26.2381
633.346
-38.444
27.4966
622.522
-42.956
21.8934
617.58
-52.0293
16.922
-51.1835
12.1685
-609.468
124.29
-2144.16
-14.808
-514.566
-461.989
533.285
-248.199
-409.283
545.692
-121.768
-68.8579
619.805
0.604774
-112.652
571.062
112.832
-59.9841
573.171
117.878
-40.4781
559.885
162.175
-25.2461
573.425
146.444
1.81903
578.672
156.76
10.8059
580.097
104.519
25.8326
570.707
79.6953
22.9312
556.245
30.2961
27.3974
541.888
7.66846
23.3051
530.705
-16.8635
16.122
523.748
-28.6299
12.1509
522.586
-48.1437
10.8609
524.684
-53.7557
8.70242
532.431
-66.8026
7.02563
-65.9121
6.07142
208.365
-565.191
-1528.93
412.538
-304.917
-413.822
370.337
-101.397
-104.6
268.447
-15.4121
-4.46642
309.586
-4.70821
-35.8252
273.365
135.787
13.2667
350.104
66.4222
-25.2834
347.246
165.997
-0.96354
401.34
93.4312
-1.08184
416.047
128.771
13.2827
442.055
65.5797
12.9313
442.318
69.9289
9.50265
450.446
15.3002
6.86767
452.23
3.29089
2.59409
458.961
-25.6006
2.00671
466.938
-38.8423
2.23485
479.467
-65.2518
4.57932
492.875
-72.7481
5.58463
508.025
-86.5322
4.57929
-82.2314
6.28194
1827.28
1161.5
-1280.33
1208.78
27.1143
286.464
823.498
113.91
169.98
747.063
64.2444
-3.22099
707.978
36.8921
-2.51541
647.142
191.895
4.7282
630.794
80.3698
2.40018
604.196
195.108
-2.513
599.955
99.1081
-1.43629
587.725
142.11
-1.10993
578.588
71.1123
3.60481
562.415
85.9622
0.13947
542.974
33.6967
1.04427
523.605
26.7725
-4.11223
513.592
-19.9327
4.34487
507.33
-35.3249
2.74504
509.378
-70.0514
2.75183
515.382
-82.6339
3.88182
523.776
-97.2483
2.32125
-91.3202
3.54382
-405.055
3205.83
-1638.05
-42.057
284.804
-620.687
147.569
53.776
-129.492
256.454
-91.2557
46.6154
351.531
-110.148
51.9633
394.676
97.1371
51.6126
514.045
-64.7224
25.7235
507.955
179.684
21.5138
540.085
63.507
3.47147
536.126
141.236
4.83287
541.717
62.0258
3.49522
530.902
95.54
1.23827
521.236
39.9811
3.38155
505.611
37.2174
5.17954
494.213
-18.1239
9.5894
492.243
-38.0788
4.72355
500.083
-81.908
4.0172
510.782
-96.6088
3.2756
521.407
-108.878
1.0054
-98.4669
1.65002
236.8
370.483
-2340.56
546.682
454.589
-479.667
1057.73
10.606
-467.874
1074.48
-120.326
12.3187
971.375
-156.841
149.797
900.381
55.6101
112.52
846.577
3.32639
64.4095
-41.4446
1.95077
-39.1606
814.426
25.4911
53.4583
46.1291
33.0705
53.6859
755.216
39.5632
24.2059
7.39142
42.5668
8.98935
689.737
43.5795
21.69
48.7567
45.1564
47.5325
617.58
40.3891
21.5398
19.5051
38.7028
14.0469
557.058
38.7029
18.5864
34.362
35.7049
28.7055
514.489
29.5485
24.069
4.48951
24.8816
-0.43922
498.739
18.6478
18.7348
2.59054
16.0155
-3.02115
501.369
-37.8727
17.1187
519.664
-62.5042
6.13076
538.219
-103.069
2.60629
552.749
-114.979
3.83979
565.403
-123.598
2.06544
-107.24
3.36281
3585.66
506.003
1323.7
2595.95
553.283
891.023
1791.63
240.455
574.469
1399.28
63.9476
208.075
993.778
-64.3581
313.02
196.165
37.5539
126.664
195.374
190.972
189.945
58.7701
16.6632
37.2822
171.653
13.6257
14.2119
-152.517
170.036
-0.713106
8.68429
-181.797
176.261
41.7128
3.38639
-159.601
150.374
44.5867
8.2198
-145.342
130.886
49.7369
5.10865
-115.182
109.212
43.297
1.37585
-109.588
106.406
34.3291
-1.59803
-106.022
113.166
13.8332
-2.32956
521.348
-14.6596
0.86689
-119.548
-124.241
-115.566
-116.608
-28.3511
-13.9636
-27.1494
548.012
-91.4869
2.31822
562.248
-120.816
3.51082
574.493
-131.927
4.70348
588.896
-139.199
1.19787
-120.218
3.88798
1240.59
1890.08
-4842.37
1463.85
532.141
-202.116
1438.68
134.368
131.257
1517.19
-93.4684
78.9052
270.191
-92.3256
422.044
230.629
324.372
297.92
252.017
34.3828
21.3458
-9.65269
-62.352
59.4067
12.2221
0.375899
-48.803
-1.69815
47.278
6.40623
-3.18302
-43.5359
-12.2959
43.2211
13.6136
-1.00294
-39.2768
-12.7748
38.4653
13.1025
0.483665
-35.3592
-13.6986
33.4935
14.4535
1.11087
-28.5524
-12.4107
27.5537
13.1759
0.233572
-27.508
-9.83696
28.1227
9.7975
-0.575288
-30.2009
-4.09071
31.9094
2.93828
-0.556099
-35.2666
146.356
-20.5778
1.69356
-36.7518
-34.6152
-35.4981
558.374
-97.0021
6.5285
-145.507
-142.752
-137.09
-134.037
558.63
-124.639
3.56626
562.843
-140.351
4.21121
577.149
-150.5
-3.00452
-131.852
-0.455101
991.036
3828.62
-3230.29
1125.84
1084.88
-687.534
694.975
379.036
186.192
549.003
-131.672
184.175
19.2049
-147.342
435.761
29.6745
43.976
75.4012
-18.0235
12.3715
-8.04959
32.9062
-15.8221
-14.0198
17.4979
10.8529
1.49108
-14.7083
-30.3724
33.9557
13.4884
-2.36346
-16.9929
-42.0294
43.397
17.7434
-2.11812
-15.2831
-43.5815
42.0118
16.8961
-0.0433638
-16.7051
-32.5352
30.3633
17.7882
1.08879
-12.5369
-28.304
28.8497
12.1144
-0.123233
-5.21292
-32.81
34.0347
3.63251
0.355667
3.17272
-36.7101
37.173
-3.97002
0.33443
-37.3055
25.247
143.891
-24.651
1.12641
-36.3752
-36.4356
-35.4968
501.022
-86.6649
1.67199
-136.34
-126.538
-130.231
-119.923
500.201
-124.906
1.08808
505.625
-144.868
-0.907681
520.911
-156.941
-8.84453
-137.967
-6.08716
1041.14
2296.49
-2364.32
717.486
471.063
937.466
967.975
-296.267
424.813
946.407
-358.628
248.524
122.583
-135.414
377.675
110.231
172.205
151.785
18.8084
103.027
-17.0343
17.7817
-2.61298
-20.695
20.0356
4.38548
-1.11307
-9.74088
-24.1705
25.1893
8.91921
-0.19709
-15.3878
-28.7342
29.966
13.6223
0.533741
-19.6508
-33.4517
34.1884
18.4414
0.472731
-18.3679
-34.5001
34.3972
17.6183
0.852475
-10.2276
-34.3357
34.8618
9.68778
0.0137144
-0.737371
-36.3875
36.553
1.07482
-0.503002
4.05377
-35.9359
35.1435
-3.5068
0.245448
-31.8206
19.2511
119.529
-15.4498
0.365626
-30.9452
-31.0532
-29.8771
459.136
-89.8375
-8.18303
-116.729
-113.859
-110.635
-106.556
474.938
-131.061
-9.64769
488.09
-152.151
-5.86966
503.66
-166.107
-6.40404
-143.195
-3.89926
1194.15
-159.555
-590.758
1842.57
-236.335
58.9772
1543.21
-223.989
227.074
1048.01
-108.611
245.189
4.49799
195.849
501.368
70.0938
48.2188
92.5682
18.5716
-8.15412
-25.8806
19.9609
-1.21402
-12.0761
15.6552
-3.01489
0.649765
-3.02211
-23.5646
24.9535
1.28597
0.347184
-10.6255
-31.2286
32.4025
9.27071
0.180899
-14.7209
-33.7034
34.0839
14.1751
0.165403
-14.2637
-35.9312
36.9353
13.393
-0.133438
-9.42927
-39.7675
40.0542
9.63333
-0.4908
-3.67707
-38.9172
37.6667
4.71307
0.214514
0.97764
-34.3561
33.451
-0.171205
0.0986326
-31.0413
14.5019
125.086
-17.3707
-1.20412
-30.9508
-29.5826
-29.4381
490.089
-91.4372
-14.6275
-119.89
-126.7
-109.534
-117.739
505.885
-135.695
-11.1618
516.268
-158.549
-3.98466
521.242
-171.861
0.77961
-144.409
0.776567
976.464
477.997
4616.65
868.148
187.245
-315.264
640.489
44.3247
-40.654
638.762
18.9986
-125.883
505.994
96.826
231.791
101.498
-114.295
39.6055
37.0135
62.784
28.3725
57.2628
103.106
93.0428
97.6033
8.758
91.9241
-5.97506
2.06045
-2.215
8.86208
-1.91669
1.23971
-50.3708
50.999
3.47206
1.31757
-3.87698
1.26045
-4.04098
-2.71252
-60.8036
84.3212
1.63407
0.397059
-9.79298
-3.16092
-9.88235
-9.81905
-82.0109
99.2025
25.74
0.720105
-12.6203
-9.17767
-12.0347
-9.47706
-106.61
121.51
23.7351
2.27104
-11.9716
-8.39013
-11.067
-7.1583
-116.536
126.595
17.7993
3.23186
-9.48126
-5.78531
-8.66551
-2.77337
-123.808
134.005
3.53085
1.96461
-6.14632
-1.47004
-5.30267
1.81875
-127.326
136.486
-8.86854
-0.392097
-2.27708
2.39355
-1.83504
519.466
-51.9286
-22.3299
19.5416
9.67313
20.0204
9.73164
-130.006
-133.453
-116.976
-123.739
539.188
-88.5724
-22.5876
553.798
-136.728
-13.5769
556.476
-159.309
-1.91771
548.59
-168.869
4.89396
-133.922
-1.43061
-957.786
270.672
-370.146
-62.9052
316.824
-1024.46
286.581
67.9017
-373.063
292.334
-14.4912
27.7371
298.11
-98.5023
189.552
242.947
-118.573
59.4415
296.225
3.96434
113.854
-10.7707
-73.7191
-14.6388
-71.9674
311.249
-103.277
55.6066
1.05532
13.521
4.7474
13.3224
360.873
-16.3908
45.0124
1.73672
-40.7094
-0.264313
-39.0084
408.019
-36.3545
37.201
-10.0978
-18.1872
-5.42151
-14.2864
458.891
0.166758
25.2582
-11.4673
-31.1075
-6.63419
-27.0873
499.156
-19.31
10.3032
-6.2515
-14.7497
0.0298727
-10.2872
529.288
-18.5778
-3.13847
3.63935
-10.4981
6.83202
-8.38931
547.93
-35.666
-13.0251
12.8521
0.425775
14.5165
2.25507
572.246
-49.8809
-26.364
594.732
-84.994
-26.0645
599.951
-131.96
-9.98731
586.728
-149.85
3.76491
558.943
-152.043
10.9576
-108.668
-4.70801
-305.578
-314.15
-3917.84
-168.918
497.596
-317.432
516.737
-95.0961
-522.657
732.056
-26.3097
-203.501
747.898
-124.785
10.4413
758.907
-130.542
0.96013
763.197
-116.885
116.559
726.773
-147.555
80.7032
692.463
-67.9287
85.8482
660.947
-47.1978
42.3593
644.184
-5.21827
22.1476
638.323
-13.1167
-0.33149
638.996
-10.1325
-9.11877
644.27
-19.5144
-21.426
652.66
-29.5651
-28.7053
655.165
-59.6578
-27.8412
640.251
-110.399
-6.64699
602.815
-123.109
10.6945
544.375
-112.999
19.3965
-74.0473
-0.0880414
181.342
1033.27
-483.692
437.093
827.795
-585.949
534.882
369.159
-562.045
639.119
309.727
-440.274
690.93
141.196
-317.792
769.118
53.7225
-262.453
781.563
-85.0689
-44.2615
778.181
-152.686
8.51312
750.256
-106.48
66.4772
731.86
-75.9023
47.1002
723.028
-35.7521
39.3654
721.112
-31.1568
19.9561
721.6
-21.804
11.1834
723.455
-18.2122
-3.15644
724.83
-17.3467
-13.5942
709.965
-36.7627
-8.03029
657.794
-74.1967
15.9694
595.678
-89.0622
28.0693
538.484
-80.6578
24.8521
-49.7647
7.56734
1118.95
346.166
1197.94
1827.28
377.469
-257.997
1864.13
622.909
-290.608
1794.98
639.361
-260.477
1511.55
471.947
-47.3198
1310.42
286.919
-32.0725
1074.15
42.1436
109.065
892.809
-58.5331
87.1837
801.9
-69.2471
53.6762
775.036
-75.2142
26.1756
780.42
-63.2203
22.0841
793.234
-62.5218
18.5513
805.67
-54.039
19.7987
815.943
-45.1543
16.6692
818.952
-34.4151
14.0589
792.899
-24.2326
13.5226
707.947
-21.6267
32.3816
611.694
-30.2861
37.4769
534.894
-30.9244
27.0672
-20.6046
11.8207
992.647
-706.39
1438.65
1748.51
233.069
-611.46
1790.16
879.786
-298.527
1695.02
786.932
-52.4306
1417.67
552.471
196.826
1256.01
250.085
198.487
1077.62
69.056
151.483
951.335
-9.89152
77.642
874.394
-32.0104
39.7041
846.23
-52.3182
5.26841
834.77
-54.383
2.62279
834.097
-59.6123
-2.2368
837.321
-55.2003
-2.06317
851.345
-52.1528
-7.02569
870.377
-43.3405
-10.1058
874.663
-23.9855
-4.53367
829.663
10.9647
12.4087
748.76
25.5045
25.1121
647.209
31.706
38.9207
19.8445
20.9976
-598.13
-340.771
-1858.55
437.727
209.944
-1012.73
728.032
431.095
158.387
842.402
351.238
321.325
779.93
147.371
467.572
731.378
13.4128
285.223
708.858
-38.5506
130.127
719.842
-47.4015
26.5255
733.969
-53.0873
6.95041
741.934
-60.1763
-0.107025
737.179
-62.7432
13.1148
727.931
-66.1968
15.8327
714.837
-57.9923
15.8862
704.029
-48.8437
7.49916
692.67
-29.5234
-2.45829
678.625
-12.3215
2.38116
662.263
22.0091
5.3175
648.353
43.1037
-3.68989
644.947
57.7502
-22.6374
37.5058
-18.1087
966.052
1009.11
897.946
278.05
809.25
519.791
818.278
342.209
789.671
175.979
785.178
17.9053
799.61
-52.9833
828.014
-75.8048
840.954
-66.0279
846.833
-66.0556
828.805
-44.715
800.938
-38.3296
754.566
-11.6196
714.46
-8.73852
692.593
-7.65654
683.528
-3.25636
704.437
1.10038
744.318
3.22267
828.509
-26.4408
-27.5961
344.02
-576.843
5698.89
633.965
-129.57
250.482
1152.46
-231.492
-50.996
1339.23
-96.6842
-101.923
1420.68
-22.1667
-10.17
1450.41
-40.0364
102.574
1388.58
16.1871
176.777
1300.11
34.7302
167.989
1091.09
147.858
204.262
915.026
150.087
118.968
782.317
106.696
25.3798
712.28
51.1231
-26.2946
687.075
13.2187
-36.3803
680.904
-7.60886
-23.1646
685.65
-20.5596
-5.51363
699.622
-28.6704
4.40147
721.769
-34.8679
16.7018
746.264
-34.7159
27.3219
774.864
-37.3953
27.409
-30.682
26.9993
-255.145
707.665
2743.99
77.2424
-288.13
99.4143
208.183
-156.604
-245.037
273.566
-138.69
-43.1353
364.76
-20.542
-262.401
401.454
14.5413
-181.522
452.761
76.1164
-272.375
460.215
112.467
-242.857
504.539
136.08
-147.39
520.736
133.658
-47.283
533.301
86.3576
1.07349
528.707
55.43
4.16324
527.301
13.1422
21.6437
524.059
-2.77496
19.4698
521.902
-16.5222
28.0754
518.214
-21.1395
22.3953
516.515
-29.8899
24.2169
516.209
-30.8491
18.332
519.657
-37.2686
13.3475
-34.2311
8.43157
105.562
214.568
-262.068
327.292
-423.799
-548.05
432.959
-193.882
-477.671
446.342
-103.557
-117.373
487.032
3.54183
-177.427
447.121
91.9528
-97.4844
460.454
89.8904
-67.5861
449.597
138.759
-40.6803
465.086
119.206
3.20442
465.917
130.371
13.2629
466.568
79.8751
31.6639
456.317
64.068
24.5444
445.724
20.709
30.4239
434.411
8.92011
22.9234
429.437
-13.7099
18.2826
425.935
-16.8624
11.376
426.919
-31.3871
11.374
429.969
-33.823
8.62651
437.312
-43.8376
6.251
-41.4659
5.73781
577.676
-62.2619
-4445.67
499.155
-127.025
-632.074
333.835
24.4685
-157.632
212.221
26.4665
-12.8758
218.857
6.01738
-44.937
195.601
113.673
14.8022
270.842
23.3005
-33.9347
268.588
141.624
-1.57567
321.5
65.9445
-0.731603
332.806
117.033
15.3143
356.613
53.379
15.6206
353.533
67.0029
9.64752
359.853
13.1064
8.15064
359.297
9.44012
2.63025
365.8
-20.7136
2.50767
372.562
-24.4162
3.02669
383.076
-43.1572
5.83512
393.735
-45.3393
6.44174
405.453
-55.3125
4.33579
-49.7278
6.54918
216.414
1637.48
-706.823
500.752
403.333
-528.232
548.39
229.721
-82.9107
551.234
69.3574
-48.9559
540.751
8.92709
5.05776
494.681
149.018
15.4528
495.722
9.80916
14.8508
467.592
163.358
3.88302
462.718
63.6722
5.71011
443.888
133.04
1.71305
433.603
60.2028
7.06604
416.573
83.2164
0.955707
403.611
24.5419
2.57088
391.692
19.8787
-2.63142
390.533
-21.3224
6.11205
391.077
-25.8236
3.60902
395.131
-48.4966
4.03697
400.781
-52.3743
5.26693
407.079
-62.1809
2.89087
-54.4676
3.79349
50.1313
2446.09
-3011.07
41.3312
761.491
-970.046
56.4922
341.594
-256.526
174.052
11.6282
-13.214
256.995
-83.5434
61.4908
297.91
87.2828
72.4327
395.574
-88.163
26.0318
372.818
176.71
30.9174
393.201
38.4143
8.3461
378.876
143.068
9.12949
383.157
52.5224
6.89431
373.098
91.5962
2.91759
373.193
22.2882
5.54077
368.955
23.1908
6.10529
371.525
-23.9036
9.60036
377.435
-32.4666
5.45729
385.981
-58.4877
5.46161
394.531
-62.857
5.20857
400.876
-69.584
2.06296
-58.478
2.09465
-160.997
-152.112
-314.838
611.108
488.351
-978.632
931.097
240.053
-686.322
878.649
55.4929
20.9011
796.249
-72.7879
221.442
723.127
155.349
117.576
658.042
15.1841
73.3204
-32.3071
15.5643
-30.431
600.186
46.6161
60.3798
63.5408
51.1497
66.3381
530.3
43.5916
30.6592
8.87513
42.2795
7.10091
469.999
47.4367
33.1341
49.0091
47.4978
47.982
426.183
36.2223
29.2792
10.5133
34.0045
7.85837
396.459
34.6537
23.1148
25.6019
33.1493
23.3871
387.267
20.462
25.8971
-3.98464
18.4546
-5.27965
393.246
13.9716
18.7518
-5.21764
13.3956
-4.95452
402.371
-34.5001
18.5897
415.378
-47.7053
8.36265
425.523
-70.8943
4.86781
432.251
-73.3163
7.57117
435.697
-75.9614
4.9972
-59.7239
3.82877
1781.01
77.7982
-596.536
1430.79
668.53
1061.07
986.672
383.712
874.925
775.923
166.718
307.6
622.75
9.13311
384.272
135.241
38.9917
160.335
133.245
122.393
119.072
66.5732
49.898
79.0142
-29.2446
124.225
29.6439
25.8011
-12.7534
-106.887
119.627
31.9074
14.7217
-4.63697
-128.518
120.204
51.6969
4.84592
-10.3149
-103.444
100.857
48.3051
12.0336
-8.58777
-102.827
95.527
43.3904
8.7199
-1.56578
-86.7279
87.4359
33.8421
1.6693
0.54579
-90.9329
90.7982
21.141
-1.09014
1.34526
-91.0881
98.0363
6.91936
-1.24123
425.073
-10.9553
5.78907
-102.016
-102.528
-95.8206
-95.4293
-24.9316
-9.46744
-23.3479
443.985
-68.6156
4.3166
455.185
-84.7804
6.19675
463.188
-84.8511
8.23568
467.096
-82.7244
4.05174
-61.1261
4.00117
1264.3
1231.87
-2965.43
569.759
429.308
731.644
453.739
99.5575
531.431
574.529
-27.7439
152.576
178.351
-50.5277
444.613
157.984
147.259
128.028
-57.6736
208.011
9.44451
57.561
-6.16416
-10.9086
-54.8668
52.6519
13.407
5.88062
3.79203
-37.011
-7.94748
34.2016
9.87808
-2.91321
2.45869
-29.2475
-13.8778
28.3775
14.5469
-2.25775
-1.18521
-24.3739
-13.3234
23.835
13.5148
1.53273
-2.46231
-23.2863
-12.2683
22.9819
12.6648
2.37016
-0.398673
-21.9565
-9.8067
22.344
9.59655
0.22133
0.67379
-23.7869
-5.93354
24.8732
5.04963
-0.876148
0.755336
-26.3689
-1.63866
27.8304
0.17783
-0.755966
-29.5449
-1.66674
120.615
-15.4607
2.5082
-29.9724
-28.5754
-28.8584
456.699
-77.5458
14.5703
-119.716
-117.666
-110.919
-107.509
460.616
-90.7949
5.6636
466.18
-92.4474
6.24398
472.635
-90.2929
-1.89142
-64.5722
-0.696887
428.475
1562.1
-2258.99
377.647
287.92
-495.319
180.816
118.451
364.128
142.736
-84.8458
279.358
21.3816
-50.5417
475.835
37.6834
17.981
25.6312
-34.656
-5.34247
25.7736
6.52985
29.0766
-2.16861
-15.068
-16.0638
19.9062
11.8451
1.54917
5.01279
-15.4036
-27.4908
28.3432
14.6002
-5.06183
3.79907
-15.2879
-28.8978
28.6377
15.4693
-3.72034
-1.08309
-13.7436
-26.368
25.3436
14.472
1.37914
-1.75056
-11.858
-24.1353
24.1453
12.0406
1.55795
0.192229
-6.99175
-25.3967
25.9859
6.47389
-0.263566
-0.539486
-0.737915
-28.7029
29.5576
0.0592288
0.363471
-0.643548
3.36071
-31.4387
31.7884
-3.72398
0.657062
-31.911
-2.07991
18.1419
122.957
-18.0018
3.01085
-31.2126
-30.754
-30.151
417.479
-73.0027
10.3422
-116.547
-107.196
-107.19
-99.7594
417.867
-92.6134
2.51842
422.907
-97.9821
-0.413015
434.469
-99.1099
-11.5899
-71.6586
-7.57479
290.369
981.608
-4673.18
-69.8578
252.66
1332.95
440.211
-220.014
253.21
396.576
-83.3054
290.618
97.4186
-7.97989
411.708
81.5164
76.1577
64.8888
-44.3229
9.76919
104.225
-15.4277
43.1748
-4.98379
-2.13984
-22.6306
22.2166
1.28264
6.25494
-1.58612
-10.6791
-21.99
22.6796
9.53807
2.03761
-1.61903
-13.7833
-25.0066
25.5509
12.9811
1.87683
-1.90257
-14.256
-26.3465
26.7338
13.7316
2.03958
-2.22994
-11.2652
-27.5238
28.0377
10.6259
2.35536
0.575744
-5.03902
-29.6741
30.1008
4.88357
-0.847041
0.779882
0.742415
-30.3424
30.1583
-0.568774
-0.769426
-0.424045
3.28307
-28.9543
28.4952
-2.84313
0.443159
-26.9912
-1.02386
14.8671
100.92
-13.1317
1.97041
-25.7387
-26.0214
-24.8507
373.022
-77.6642
-5.31354
-98.3513
-93.9715
-91.5671
-87.3402
380.722
-100.687
-9.27384
389.118
-107.317
-4.92989
401.926
-110.52
-7.8024
-79.1306
-5.07768
1242.48
-159.916
37.9545
1034.87
-152.187
671.432
566.939
-9.15964
484.153
261.564
168.44
298.819
-11.2984
253.24
486.144
28.2969
-18.4351
17.004
-27.8538
15.6911
2.86097
-21.7909
19.7944
-2.05197
-0.79992
-10.1929
13.7414
-2.66836
1.97178
-1.34972
-5.4489
-19.1895
20.1851
4.30101
1.50208
-0.535989
-11.1474
-23.2972
23.9196
10.3804
0.680601
-0.739706
-12.3015
-25.2933
25.7742
11.68
0.880325
0.156299
-9.49158
-27.4109
27.8906
8.95341
-0.097874
0.408285
-4.67256
-28.3266
28.0957
4.73475
-0.239552
-0.397029
-0.439744
-26.9344
26.4406
0.909728
0.420773
-0.382356
1.63472
-25.2862
25.001
-1.37138
0.404254
-24.3908
1.35219
13.7484
99.1949
-18.0706
-1.06217
-24.1683
-23.4441
-23.1595
369.752
-84.3589
-11.9389
-93.0786
-97.5403
-85.5671
-89.5595
377.238
-109.511
-9.82465
385.289
-117.367
-1.98603
393.141
-118.687
1.09469
-81.3596
-0.644975
294.344
-335.066
5985.61
163.716
128.491
-465.314
111.507
144.944
-142.548
162.003
146.417
-154.356
285.873
162.686
198.474
56.7529
-114.414
39.0115
34.7209
57.8622
35.5248
54.9223
62.2072
46.3541
52.5365
6.97518
-10.4077
49.7184
0.863081
8.63464
-2.64269
6.50619
-2.89425
-0.0369581
-3.48549
-16.4408
27.3469
0.697498
3.6699
-5.58923
-0.333215
-5.82862
-3.87097
-2.15385
-40.3141
60.5858
5.37299
3.80282
-9.77925
-3.96815
-9.67529
-6.58429
-2.64967
-55.5084
71.4877
14.5298
4.92941
-10.2256
-6.14289
-9.83604
-4.67081
-4.34601
-76.8611
90.8661
9.57468
6.22915
-8.56336
-4.13372
-8.095
-1.83144
-5.18639
-85.185
95.9472
2.49922
6.26384
-5.794
-1.30168
-5.41176
1.24851
-2.72184
-93.1428
102.769
-6.54139
2.85985
-3.09648
1.49113
-2.86596
3.48392
0.784554
-95.985
104.328
-13.2158
-1.16246
-0.917404
3.53871
-0.854148
384.4
-63.1916
-23.9056
20.9675
10.0699
20.5672
9.43479
-97.6458
-101.694
-88.5028
-92.8297
390.121
-91.314
-21.3534
394.344
-116.946
-10.3647
398.053
-123.352
0.358746
396.569
-119.009
6.69993
-76.5534
-2.17517
606.449
491.967
4070.78
-195.76
427.492
-521.251
-57.181
165.878
-532.576
-95.9322
133.074
79.8301
133.222
-4.00398
127.088
62.014
-52.6742
68.9104
181.201
55.0579
120.606
-18.37
-70.9942
-21.8886
-69.7439
206.037
-81.2652
59.2678
10.2255
15.4198
12.3132
14.8098
269.72
-6.6824
56.5753
0.773049
-35.1996
-0.184231
-33.9523
313.999
-38.5057
41.1672
1.07491
-7.5506
3.03839
-6.30191
358.568
-7.28138
29.921
-0.339089
-22.2698
1.10389
-20.4458
385.695
-26.7136
10.7543
5.10275
-6.72182
6.83971
-6.08466
402.565
-26.8788
-3.19121
10.3782
-5.99118
11.2577
-5.58297
409.179
-46.9116
-16.2402
16.6231
4.60425
17.1225
5.16195
413.037
-67.515
-25.8987
414.883
-98.6232
-20.6011
414.627
-119.588
-7.08927
410.471
-121.62
6.18819
397.979
-107.937
12.3792
-64.5281
-5.19438
-29.3921
-174.577
-1018.21
-51.9222
612.995
-480.406
91.7172
51.413
-551.831
205.361
46.9134
-230.984
313.699
-106.856
4.95575
369.719
-99.8559
-7.8787
479.945
-69.6735
131.065
487.209
-84.3872
76.5601
498.297
-30.4308
98.5087
489.086
-33.8365
46.901
482.081
-6.53786
28.4088
476.623
-22.4056
0.819495
473.401
-23.2011
-9.57494
470.082
-40.8188
-24.1994
461.976
-60.1712
-27.9441
449.901
-91.5597
-22.8295
435.923
-109.472
-2.78564
416.121
-104.799
13.6758
389.418
-81.3365
19.4994
-47.1952
-0.847086
1003.61
792.842
-2152.78
957.997
532.612
-459.951
514.861
282.994
-350.49
414.262
83.6681
-376.429
348.294
-92.138
-266.543
362.954
-145.028
-231.941
422.297
-153.034
-20.2439
474.829
-141.501
13.095
515.788
-72.3452
67.4331
533.379
-51.6043
47.2771
542.855
-22.1968
45.5484
543.81
-24.2028
20.7978
540.95
-19.6528
10.4958
532.835
-29.1155
-6.7451
513.172
-40.3375
-13.7654
486.154
-65.6315
-6.94088
454.304
-80.7548
19.1021
421.922
-74.85
30.5015
392.981
-53.969
26.4256
-30.4497
7.60344
967.927
-69.8896
-2434.08
1263.29
199.945
-220.693
1049.37
358.233
-151.925
906.612
194.315
-228.369
737.076
37.0985
-7.02074
679.264
-108.534
-10.7539
639.446
-122.14
117.989
617.401
-111.342
79.0695
605.896
-68.9432
61.7791
604.991
-53.4958
28.9717
610.512
-32.0509
26.4174
614.417
-29.182
19.6258
616.922
-20.467
18.1071
613.759
-21.5462
12.2635
596.258
-17.8414
9.06354
554.027
-24.8946
15.0159
488.709
-25.1035
42.0477
433.874
-25.1012
42.5637
394.042
-16.4864
29.4169
-8.08377
11.2486
602.719
-484.347
2055.42
945.476
253.367
-1007.64
827.888
498.534
-321.24
827.116
232.897
-90.2406
789.706
93.6894
177.645
770.275
-48.0335
157.417
712.408
-56.3148
143.524
679.158
-60.9907
60.5412
651.804
-44.4579
42.5729
642.993
-43.1625
3.74587
637.38
-30.6172
6.80154
636.403
-28.3265
-2.11581
635.022
-19.392
-1.75675
634.311
-18.4503
-9.41096
627.541
-8.07345
-13.1038
604.389
-3.66679
-2.60906
551.261
16.5398
23.8929
497.588
19.349
34.335
454.197
25.3018
40.5236
19.4114
19.4724
-989.76
-797.537
-536.096
-245.676
-279.989
-1223.46
326.037
-136.804
222.013
467.599
-84.087
496.747
559.061
-104.887
574.686
578.332
-82.0753
299.994
593.007
-72.637
131.775
599.054
-52.0222
11.5092
598.891
-39.8833
2.53862
592.583
-29.7401
-7.22161
582.837
-17.9528
10.196
571.631
-9.48656
8.19929
559.875
-0.439439
8.69012
547.03
5.59404
-3.70039
530.646
13.933
-8.08015
513.235
21.2443
-5.11896
499.876
37.452
-2.23596
489.385
35.3993
-9.24962
483.975
28.7248
-20.6504
16.7193
-13.7012
227.837
-2036.29
515.771
-289.873
757.765
140.993
845.598
170.289
803.265
113.425
758.861
-19.7653
709.944
-76.7041
679.364
-97.2469
639.908
-66.4549
607.059
-62.9474
578.504
-34.1125
561.686
-30.9972
557.289
-7.66287
557.866
-3.72061
562.977
1.16544
572.702
8.26198
602.283
8.97116
645.651
-4.74567
683.866
-35.9315
-29.9428
710.786
-342.967
-1133
482.895
-177.147
655.52
1205.29
-333.588
-439.801
1292.07
-92.1335
-96.5735
1257.59
64.0451
-39.734
1231.44
63.0653
65.657
1123.44
136.024
148.753
1011.33
142.808
137.291
856.722
186.112
172.761
752.798
141.523
81.3689
665.069
78.4828
34.6268
611.96
32.0611
-5.2474
588.993
-2.36788
-11.0451
583.598
-13.2676
-4.50169
590.206
-22.4393
10.3174
604.398
-24.135
14.3442
627.104
-28.0297
22.0256
653.017
-24.6717
26.0806
683.652
-26.5669
23.3409
-19.1746
25.1267
418.022
-100.504
3384.91
438.036
-218.376
120.629
262.293
-119.71
-283.172
299.837
-92.5924
-80.2203
357.374
31.2328
-287.126
388.762
64.7463
-214.591
421.524
111.201
-280.315
401.65
128.216
-208.392
415.563
126.406
-101.598
418.24
112.848
-21.2842
424.09
63.8846
9.82162
414.764
41.5954
3.9547
412.639
4.01224
17.389
408.61
-2.55028
12.7818
409.142
-12.7671
17.8706
409.102
-13.692
11.9929
412.444
-20.7164
13.5606
416.807
-19.7941
9.09162
424.366
-25.5199
4.7412
-21.8582
4.3193
1142.12
-111.543
2859.2
679.36
-244.603
-59.0593
436.031
-92.8451
-261.208
396.527
-74.6546
-95.8058
396.304
25.9197
-171.891
359.124
97.971
-93.5287
372.949
90.9315
-61.1412
357.541
136.784
-33.841
370.163
108.316
8.67298
365.943
118.065
12.2655
366.131
68.1162
27.2439
355.389
59.4772
17.4044
347.627
20.0342
22.1638
338.337
15.0985
14.5651
336.805
-7.44854
14.4959
335.641
-10.2072
9.05434
337.948
-19.2238
7.57481
341.322
-20.2145
5.67289
348.207
-28.9196
2.76584
-26.0532
5.1155
543.332
-83.6196
16.9785
235.999
20.8912
-590.234
215.041
95.2007
-324.719
112.101
49.9481
-34.5383
131.902
23.8998
-62.719
120.084
111.848
12.7422
194.852
10.1881
-27.9587
192.646
134.822
2.59182
244.167
53.5141
2.54988
251.532
112.443
13.5708
274.188
46.3969
14.6843
270.307
66.3173
6.68907
277.219
13.8285
7.44425
276.072
17.1024
1.77308
283.128
-15.1874
3.19077
288.861
-15.2316
2.3183
297.664
-27.0599
4.86807
305.932
-27.1792
5.1383
315.036
-35.9954
2.30721
-30.4831
6.29097
98.5304
454.99
-1944.54
339.924
225.767
-974.501
401.334
150.99
-200.11
405.325
56.433
-59.4317
405.329
26.0239
2.92935
370.434
142.956
19.2408
382.572
-6.82349
19.7246
354.077
160.15
7.05049
351.41
51.8718
10.0188
331.232
132.077
2.25835
323.813
53.1856
7.69668
308.948
81.4376
0.700604
301.868
20.3206
3.15824
294.772
22.7474
-1.18076
296.614
-16.0966
5.179
298.86
-17.2297
3.36172
302.788
-30.5652
3.61445
307.292
-31.217
4.79975
312.362
-39.8798
1.70518
-32.804
4.26513
75.1379
677.377
-492.69
-20.9967
157.356
-805.5
-67.2001
106.539
-165.871
56.1641
-55.5921
-24.5531
147.295
-55.1541
51.5372
182.139
114.261
66.2842
276.482
-88.4385
13.3038
248.686
192.569
26.2938
271.937
28.3081
8.65948
258.676
146.48
7.98733
268.314
43.3789
7.06241
262.175
87.9442
2.54988
268.931
13.4712
5.63402
269.223
23.6181
4.94344
276.062
-20.86
7.52483
283.726
-22.1536
2.71682
291.953
-38.0097
4.67897
299.115
-38.415
5.24432
303.996
-44.1366
1.43949
-34.8898
3.12582
2932.69
-1096.21
1757.42
1821.86
357.282
-67.7322
861.165
201.287
179.627
646.675
35.9526
143.846
594.046
18.6504
200.267
514.024
227.442
84.4168
458.984
19.6651
56.5265
-27.4327
17.6649
-26.5021
399.261
58.7783
48.3495
71.6745
61.8909
71.9789
351.519
39.6553
23.3752
4.74181
36.4697
2.46719
312.59
47.9037
29.5649
47.5257
47.2709
46.2776
295.547
31.2574
22.4657
4.52396
29.0798
2.37381
285.128
31.4485
18.2006
21.2656
30.3075
20.2561
289.265
16.283
17.4249
-6.71423
15.2622
-7.02464
300.477
13.2874
12.8463
-4.84865
13.4766
-3.60381
310.519
-27.066
14.7534
319.325
-29.6052
7.00878
325.286
-43.7522
4.64908
329.11
-42.5327
7.86441
329.902
-44.4772
4.54547
-32.5388
3.91108
624.399
-726.418
-600.091
497.288
695.458
850.005
477.141
337.995
758.365
364.055
181.576
275.062
386.825
90.0155
290.137
81.4864
72.0835
125.185
77.5765
68.632
63.6978
99.7001
79.6861
106.555
-27.9489
75.1856
35.9896
17.9252
-12.4851
-56.0526
69.4868
46.5668
11.2624
-5.00421
-79.7489
72.9162
48.2607
3.23151
-11.2765
-59.3935
62.8033
45.5143
10.2561
-7.59612
-69.3784
67.0885
35.9828
5.16061
-1.63215
-61.8242
65.9074
27.6222
1.37532
1.49409
-71.133
72.5761
15.5367
-2.19093
0.971421
-72.8293
79.2498
6.41408
-0.518513
330.354
-5.97824
8.38624
-81.7233
-80.9302
-74.2334
-72.576
-21.1582
-4.0367
-19.3811
342.346
-42.1193
4.8385
349.642
-51.7725
6.92063
354.768
-48.324
8.90168
354.435
-44.3102
4.21714
-28.9851
3.94412
-1608.41
476.963
-2208.82
-624.474
162.001
281.164
-67.0901
0.681939
311.361
32.5887
68.622
165.851
79.7741
40.32
272.895
65.5727
60.5626
48.0926
-62.1105
110.465
52.252
51.2507
-7.90849
-14.7352
-32.7863
30.8659
17.9437
6.62052
1.50931
-21.3062
-10.5658
19.9383
11.4569
-1.03239
1.35291
-18.0411
-13.4516
17.6024
13.6003
-1.06299
-1.9446
-14.8969
-12.0733
15.1099
11.9443
1.86057
-1.75111
-16.4685
-10.5049
17.0355
10.2593
1.42975
0.115556
-17.1005
-7.63927
17.994
6.94011
-0.309934
1.02843
-19.6145
-4.25408
20.6788
3.24342
-1.08215
0.650916
-21.4488
-1.47973
22.7099
0.115375
-0.547714
-23.5652
-2.51252
95.1839
-9.88906
3.22582
-23.5059
-22.5373
-22.3778
351.663
-52.1201
18.7314
-93.2668
-89.8303
-83.7221
-79.0044
357.105
-57.9099
6.35889
362.434
-54.3598
6.95046
364.855
-48.0405
-0.582091
-27.9761
0.320086
-259.777
417.046
-4487.38
-230.959
5.14263
-367.279
-214.956
94.7945
254.013
-213.542
95.4799
251.085
-11.3442
85.2257
273.804
-7.92615
-19.5819
-17.5648
-31.3126
-38.6107
2.72078
30.7068
25.1515
-1.25278
-18.3961
-11.8777
15.7577
14.7836
0.985267
4.02064
-14.6603
-20.6347
20.6757
14.1027
-3.50405
2.63786
-12.8522
-19.8126
19.3587
12.8651
-2.19695
-1.72221
-10.7933
-18.2074
18.1724
10.9262