/*--------------------------------*- C++ -*----------------------------------*\
  =========                 |
  \\      /  F ield         | OpenFOAM: The Open Source CFD Toolbox
   \\    /   O peration     | Website:  https://openfoam.org
    \\  /    A nd           | Version:  10
     \\/     M anipulation  |
\*---------------------------------------------------------------------------*/
FoamFile
{
    format      ascii;
    class       volScalarField;
    location    "5.1";
    object      turbidity_0;
}
// * * * * * * * * * * * * * * * * * * * * * * * * * * * * * * * * * * * * * //

dimensions      [0 0 0 0 0 0 0];

internalField   nonuniform List<scalar> 
12920
(
-0.0144424
-0.0336808
-0.0509238
-0.0658583
-0.0764954
-0.0921797
-0.111002
-0.133774
-0.157732
-0.181244
-0.195016
-0.205274
-0.225764
-0.256647
-0.29624
-0.339575
-0.381113
-0.417371
-0.449345
-0.47631
-0.122262
-0.0800752
-0.0869826
-0.117453
-0.114019
-0.137188
-0.151711
-0.174077
-0.20161
-0.230519
-0.26018
-0.290952
-0.324505
-0.361384
-0.399589
-0.43629
-0.472329
-0.507191
-0.540432
-0.569888
-0.0908589
-0.0676482
-0.0823345
-0.117517
-0.137272
-0.16989
-0.205256
-0.236114
-0.265725
-0.294359
-0.327314
-0.363505
-0.403384
-0.44237
-0.479303
-0.512794
-0.542889
-0.569748
-0.593854
-0.615235
-0.0657537
-0.0690961
-0.0972073
-0.138087
-0.169464
-0.211329
-0.246728
-0.283831
-0.317503
-0.351626
-0.389445
-0.428351
-0.464277
-0.495266
-0.519289
-0.538624
-0.553486
-0.567929
-0.582759
-0.600749
-0.0153236
-0.043147
-0.0693304
-0.100833
-0.134555
-0.171434
-0.208043
-0.243828
-0.275622
-0.307576
-0.336687
-0.367733
-0.398537
-0.428024
-0.453705
-0.473021
-0.485634
-0.497438
-0.511197
-0.531092
-0.0472494
-0.0557676
-0.0841342
-0.122648
-0.151754
-0.181917
-0.204467
-0.231943
-0.255264
-0.281327
-0.30707
-0.335556
-0.36497
-0.3921
-0.408311
-0.415241
-0.415874
-0.420007
-0.430519
-0.450851
-0.0503271
-0.0482862
-0.0692681
-0.0940402
-0.117965
-0.146812
-0.166083
-0.193173
-0.218298
-0.25258
-0.290844
-0.3322
-0.359412
-0.364032
-0.343834
-0.327562
-0.319591
-0.32427
-0.338718
-0.362224
-0.00936036
-0.0244057
-0.0410578
-0.0637185
-0.0920694
-0.125277
-0.129961
-0.134029
-0.147811
-0.169035
-0.20969
-0.248873
-0.259472
-0.225993
-0.170326
-0.185822
-0.209501
-0.239386
-0.271073
-0.301642
-0.0116627
-0.0238399
-0.0393874
-0.0578689
-0.0836663
-0.0922213
-0.105901
-0.11552
-0.121239
-0.130551
-0.156469
-0.190413
-0.195853
-0.166183
-0.126477
-0.150362
-0.192721
-0.237354
-0.277412
-0.309608
-0.0108539
-0.0341401
-0.063261
-0.0948295
-0.135339
-0.146848
-0.142167
-0.127601
-0.116483
-0.118644
-0.135012
-0.150834
-0.140176
-0.117245
-0.111697
-0.165908
-0.222477
-0.277102
-0.320526
-0.350919
-0.0294717
-0.0398188
-0.0561868
-0.0767112
-0.106546
-0.115313
-0.123864
-0.127902
-0.131542
-0.131085
-0.134642
-0.133566
-0.115205
-0.100415
-0.119591
-0.195118
-0.259259
-0.320846
-0.373285
-0.40808
-0.0300304
-0.0401208
-0.0535037
-0.0760228
-0.114211
-0.134717
-0.143613
-0.129943
-0.116203
-0.111863
-0.111969
-0.104331
-0.0936288
-0.0959133
-0.137148
-0.225859
-0.293461
-0.358406
-0.416581
-0.459153
-0.00990648
-0.0318458
-0.0548064
-0.0896336
-0.12936
-0.169266
-0.171689
-0.16131
-0.146003
-0.126863
-0.119188
-0.121683
-0.135451
-0.156698
-0.227928
-0.279642
-0.333748
-0.389599
-0.443014
-0.488237
-0.0261819
-0.0458775
-0.070906
-0.101269
-0.133796
-0.164457
-0.201948
-0.229179
-0.252677
-0.271134
-0.284707
-0.297165
-0.305256
-0.310407
-0.316827
-0.33426
-0.366922
-0.408756
-0.456088
-0.502858
-0.0283826
-0.0352493
-0.0458045
-0.0597126
-0.0804698
-0.107247
-0.140634
-0.176371
-0.214
-0.246286
-0.269798
-0.281473
-0.284938
-0.285882
-0.29379
-0.316457
-0.354937
-0.401766
-0.45582
-0.511292
-0.0173968
-0.0335991
-0.039167
-0.0470579
-0.0607824
-0.0810217
-0.113879
-0.151271
-0.18875
-0.223579
-0.253127
-0.275771
-0.291857
-0.302409
-0.314714
-0.337946
-0.372521
-0.419084
-0.476277
-0.537025
-0.0125915
-0.0220203
-0.0273738
-0.0372616
-0.0538065
-0.0768849
-0.107811
-0.147704
-0.188189
-0.220494
-0.245319
-0.265517
-0.28379
-0.301692
-0.321192
-0.345203
-0.378543
-0.42668
-0.48835
-0.555255
-0.0116828
-0.020498
-0.0298791
-0.0438153
-0.0612013
-0.0823747
-0.106089
-0.133113
-0.160048
-0.185074
-0.209804
-0.233653
-0.256554
-0.276828
-0.296143
-0.317115
-0.342365
-0.378736
-0.429869
-0.49348
-0.0247591
-0.0392073
-0.051021
-0.0696295
-0.0948015
-0.125521
-0.152279
-0.173239
-0.193712
-0.21545
-0.239483
-0.265544
-0.293393
-0.321449
-0.348305
-0.373586
-0.392614
-0.402055
-0.406164
-0.420882
-0.0593523
-0.0712312
-0.0811116
-0.0950534
-0.108507
-0.119347
-0.129673
-0.141827
-0.157392
-0.173929
-0.196678
-0.2237
-0.256976
-0.290816
-0.322376
-0.350586
-0.370213
-0.377274
-0.367759
-0.357698
-0.0142171
-0.0174304
-0.0173525
-0.0204178
-0.0292904
-0.0391285
-0.0509677
-0.0617629
-0.0681685
-0.0564662
-0.0356213
-0.0256684
-0.0270999
-0.0360323
-0.0489695
-0.0635631
-0.0806597
-0.0967249
-0.106413
-0.109091
-0.0568555
-0.0157819
-0.0123549
-0.0131545
-0.0141689
-0.0163396
-0.0211566
-0.0251515
-0.03102
-0.0320906
-0.0382179
-0.0515915
-0.0738466
-0.0936611
-0.113183
-0.127143
-0.13618
-0.136869
-0.132089
-0.123731
-0.0312737
-0.0221826
-0.0170297
-0.0175794
-0.0160263
-0.0176714
-0.0239778
-0.0306724
-0.0420113
-0.0518446
-0.0663739
-0.076851
-0.0881554
-0.0963832
-0.103601
-0.109231
-0.113888
-0.114592
-0.112265
-0.106026
-0.0334904
-0.0248637
-0.0229833
-0.0282428
-0.0270734
-0.0364899
-0.0448244
-0.0565184
-0.0692402
-0.0767452
-0.0787908
-0.0746491
-0.0707721
-0.0712823
-0.078729
-0.0896984
-0.10191
-0.112247
-0.119116
-0.122617
-0.0169306
-0.0181618
-0.017107
-0.0214869
-0.0272585
-0.0332052
-0.0410685
-0.0493617
-0.0575227
-0.0632013
-0.0649174
-0.0613848
-0.0581565
-0.0563316
-0.0600493
-0.0647991
-0.0715266
-0.0802305
-0.0894665
-0.0983249
-0.00771498
-0.0120444
-0.0178368
-0.0325102
-0.0399427
-0.0443087
-0.0466715
-0.0479193
-0.0477431
-0.0464999
-0.0462856
-0.046411
-0.0523349
-0.0582156
-0.059065
-0.0542549
-0.0510664
-0.0513286
-0.0564369
-0.0650558
-0.00483669
-0.0111821
-0.0209153
-0.0341364
-0.0493719
-0.0550589
-0.0575821
-0.0628595
-0.0670043
-0.0672161
-0.0690456
-0.0687997
-0.0675077
-0.0626357
-0.056093
-0.0473957
-0.0423596
-0.0415235
-0.0449055
-0.0520688
-0.0129574
-0.0188634
-0.028929
-0.0345083
-0.0504418
-0.0471522
-0.0487964
-0.0497413
-0.0655187
-0.0863809
-0.087032
-0.0676245
-0.0503515
-0.0450226
-0.0395875
-0.0389125
-0.0385199
-0.0391032
-0.0413503
-0.0467001
-0.00187647
-0.00891345
-0.0265042
-0.0419585
-0.063649
-0.0672966
-0.0605243
-0.0386102
-0.0497408
-0.0861516
-0.105053
-0.084931
-0.0737195
-0.0859515
-0.0787243
-0.0494512
-0.0447397
-0.0420244
-0.0408847
-0.0436425
-0.00318674
-0.0169486
-0.0420485
-0.0629472
-0.0930927
-0.0926994
-0.0676955
-0.0406673
-0.0412673
-0.0791851
-0.106592
-0.104307
-0.105673
-0.093717
-0.0650413
-0.0414391
-0.0393826
-0.0381232
-0.0370516
-0.0369324
-0.0140838
-0.0263974
-0.0366901
-0.0427952
-0.0588846
-0.0650716
-0.0689798
-0.065726
-0.0723023
-0.090779
-0.106244
-0.0923303
-0.068492
-0.0621103
-0.0485612
-0.0351677
-0.0373678
-0.0404172
-0.0423527
-0.0416779
-0.00287294
-0.0148384
-0.0326667
-0.040104
-0.0532636
-0.0383096
-0.0297945
-0.0264408
-0.0372089
-0.0511956
-0.0507731
-0.0514875
-0.0564399
-0.0534563
-0.0395296
-0.0359174
-0.0428334
-0.0506816
-0.058873
-0.0596612
-0.0046002
-0.0105368
-0.0256983
-0.0412886
-0.058402
-0.0465167
-0.0413346
-0.0241898
-0.0276996
-0.0352614
-0.0393192
-0.0369964
-0.0310881
-0.0277189
-0.0283514
-0.0371027
-0.0480079
-0.0591845
-0.0709097
-0.0725249
-0.00519188
-0.0220582
-0.042614
-0.0555902
-0.0671697
-0.0606655
-0.0534033
-0.0484443
-0.0387695
-0.0331196
-0.026805
-0.0205018
-0.0183912
-0.0213037
-0.0290358
-0.0417582
-0.0570704
-0.0708679
-0.0793689
-0.0764954
-0.00260486
-0.00893411
-0.0166178
-0.0258118
-0.0407628
-0.052174
-0.0699693
-0.0734669
-0.0689492
-0.0530614
-0.0361785
-0.024317
-0.0207675
-0.0245922
-0.0354816
-0.0531568
-0.0739527
-0.091176
-0.0952828
-0.0845425
-0.00419248
-0.00494957
-0.00687256
-0.0124104
-0.0231402
-0.0356623
-0.0531771
-0.064839
-0.0739112
-0.0714329
-0.063507
-0.0516339
-0.0431442
-0.0429121
-0.0542773
-0.0758156
-0.104582
-0.12318
-0.123871
-0.109617
-0.00935787
-0.00568042
-0.00790096
-0.0140072
-0.02363
-0.0333998
-0.046619
-0.0498799
-0.0494761
-0.0488748
-0.0534175
-0.0588929
-0.0669725
-0.0769574
-0.0899833
-0.107233
-0.128122
-0.137744
-0.135294
-0.123798
-0.00654736
-0.00796169
-0.0135315
-0.020916
-0.0308756
-0.0360412
-0.0357305
-0.027954
-0.0204768
-0.0161354
-0.0166051
-0.0198728
-0.0256149
-0.0349061
-0.049187
-0.0697819
-0.0967399
-0.11801
-0.133333
-0.141493
-0.0115587
-0.0236679
-0.0332056
-0.0431076
-0.0497705
-0.041622
-0.0287219
-0.0177059
-0.016532
-0.0211725
-0.0318782
-0.0421447
-0.0511803
-0.0573925
-0.0638194
-0.0702344
-0.0706848
-0.0673344
-0.0691026
-0.080983
-0.0206087
-0.0385645
-0.0460202
-0.0390767
-0.0275893
-0.01727
-0.0137387
-0.0137524
-0.0164005
-0.0212998
-0.0279081
-0.0348573
-0.0415062
-0.0468216
-0.0505281
-0.0525201
-0.0519362
-0.0484247
-0.0445611
-0.04303
-0.0362771
-0.0138491
-0.0129647
-0.0161549
-0.0221314
-0.0291234
-0.0357274
-0.0389123
-0.0362259
-0.0256858
-0.0179209
-0.0168219
-0.0200214
-0.0247065
-0.0295029
-0.0338655
-0.0377734
-0.0404198
-0.040855
-0.0395242
-0.0159992
-0.0122861
-0.0102633
-0.0106046
-0.0128572
-0.0138696
-0.0167047
-0.0175185
-0.0180068
-0.0183695
-0.0216398
-0.0263518
-0.0323738
-0.0366605
-0.0399449
-0.0400409
-0.0382254
-0.0340376
-0.0295302
-0.0257152
-0.02671
-0.0220837
-0.0137261
-0.0113763
-0.0102308
-0.0102187
-0.0118246
-0.0135753
-0.0166227
-0.0193137
-0.023202
-0.0258318
-0.0287952
-0.0304669
-0.0318223
-0.0320978
-0.0321384
-0.0310172
-0.0297291
-0.0283445
-0.0237418
-0.0166716
-0.0147225
-0.0141236
-0.0129969
-0.0146468
-0.0173121
-0.0202877
-0.0233432
-0.0245121
-0.0250616
-0.025262
-0.0269035
-0.0296078
-0.0332755
-0.0367687
-0.0396489
-0.041108
-0.0413045
-0.0406247
-0.00719691
-0.00837738
-0.0118035
-0.0147149
-0.0161717
-0.0170149
-0.0190411
-0.0209321
-0.0229441
-0.0238348
-0.024179
-0.0244085
-0.0254835
-0.0274466
-0.030074
-0.0329283
-0.0356518
-0.0380679
-0.0396107
-0.0403548
-0.00356231
-0.00881395
-0.012942
-0.0176452
-0.0202762
-0.0205414
-0.0208187
-0.01962
-0.0189779
-0.0185734
-0.0188347
-0.0195158
-0.0206492
-0.021718
-0.0222478
-0.0228967
-0.0242097
-0.0261875
-0.0285123
-0.0306821
-0.00204625
-0.00623017
-0.0151697
-0.0206115
-0.0254506
-0.0263962
-0.0274364
-0.0279586
-0.0271718
-0.0246677
-0.0228003
-0.0211472
-0.0194649
-0.0181084
-0.0171777
-0.0168
-0.0176097
-0.0195487
-0.0223838
-0.0255765
-0.0113785
-0.0157142
-0.0216552
-0.0198727
-0.0250394
-0.0211957
-0.0209464
-0.0244409
-0.0291791
-0.0307673
-0.0249239
-0.0181045
-0.0145095
-0.0131014
-0.0122945
-0.0132353
-0.0145272
-0.016371
-0.0190026
-0.0223515
-0.00547474
-0.0116715
-0.0257668
-0.0288531
-0.03764
-0.0333155
-0.0248004
-0.0187737
-0.0269149
-0.0346606
-0.0296225
-0.0215977
-0.0206841
-0.0222468
-0.0197597
-0.0150717
-0.0152642
-0.016202
-0.0180512
-0.0211218
-0.006283
-0.0184425
-0.0348011
-0.0438522
-0.0524984
-0.0381121
-0.022376
-0.0168742
-0.0208843
-0.0321507
-0.0334744
-0.0345691
-0.0347926
-0.0316306
-0.0210868
-0.0142581
-0.0146042
-0.0154826
-0.0169323
-0.0191463
-0.0057205
-0.0196372
-0.0257668
-0.0251025
-0.031194
-0.032079
-0.0313621
-0.0286982
-0.0327172
-0.038657
-0.0382348
-0.0311571
-0.0244099
-0.0199583
-0.0141046
-0.0145511
-0.0161882
-0.0176369
-0.0189292
-0.0202654
-0.00688694
-0.0158591
-0.0247702
-0.0191373
-0.020081
-0.0127283
-0.0103575
-0.0110699
-0.0171923
-0.0214057
-0.0214227
-0.0207155
-0.0184563
-0.0153327
-0.0136807
-0.0173689
-0.0197754
-0.0218265
-0.0235349
-0.0243952
-0.00563459
-0.00514147
-0.011029
-0.0161832
-0.0198139
-0.0143741
-0.0112669
-0.00779047
-0.00890645
-0.0106145
-0.0112402
-0.0111165
-0.0110274
-0.012082
-0.0160641
-0.0191925
-0.0221325
-0.0247734
-0.027335
-0.0285004
-0.018076
-0.0120947
-0.0157395
-0.024636
-0.0252468
-0.0209637
-0.0150934
-0.0133377
-0.00994008
-0.00857263
-0.00803903
-0.00880634
-0.0108965
-0.0141306
-0.0180064
-0.0219733
-0.0250561
-0.0270285
-0.0283747
-0.0291683
-0.0011677
-0.00647512
-0.0111878
-0.0151832
-0.02211
-0.0253857
-0.0310335
-0.026834
-0.0208153
-0.0143692
-0.0108453
-0.0107164
-0.0132227
-0.017631
-0.0229867
-0.0281422
-0.0314299
-0.0320679
-0.0300889
-0.0277036
-0.00186225
-0.00357632
-0.005422
-0.00994883
-0.0168292
-0.0218318
-0.0283371
-0.0290497
-0.0283636
-0.0234781
-0.0194919
-0.0177676
-0.0196906
-0.0247367
-0.0316258
-0.0384118
-0.0435329
-0.0431981
-0.0379679
-0.0315602
-0.00487827
-0.00485905
-0.00737256
-0.0120277
-0.017123
-0.0184184
-0.0207826
-0.0187349
-0.0177401
-0.0178305
-0.0203987
-0.0240315
-0.0292406
-0.0355807
-0.0428752
-0.0493338
-0.0527147
-0.0487769
-0.0416125
-0.0343046
-0.00673499
-0.00572144
-0.00936483
-0.013328
-0.0162711
-0.0149181
-0.0127126
-0.0101437
-0.00958882
-0.010822
-0.0136289
-0.0181141
-0.0242014
-0.0313711
-0.03901
-0.0454411
-0.049788
-0.0493511
-0.0475982
-0.0443237
-0.00489929
-0.0151419
-0.0219117
-0.0261151
-0.0238635
-0.0156801
-0.0111905
-0.0108666
-0.0132501
-0.0170862
-0.0219809
-0.026594
-0.0301888
-0.03173
-0.0317328
-0.0306984
-0.0300289
-0.030829
-0.0346176
-0.0413242
-0.00479154
-0.0094666
-0.0156177
-0.0149081
-0.0131042
-0.0114481
-0.0107065
-0.0114384
-0.0139958
-0.017588
-0.021421
-0.0243567
-0.0262512
-0.0268512
-0.0265942
-0.0259359
-0.0251453
-0.0254502
-0.0281562
-0.0333402
-0.0115925
-0.012513
-0.0123914
-0.0132352
-0.0158795
-0.0201049
-0.0231897
-0.0215509
-0.0174768
-0.0129643
-0.0120615
-0.013511
-0.0156422
-0.0176185
-0.0193765
-0.0205352
-0.0211278
-0.0209977
-0.0200573
-0.018729
-0.00427868
-0.0079008
-0.00923049
-0.0102469
-0.0118783
-0.01253
-0.0130378
-0.0120513
-0.0115897
-0.0118024
-0.0127232
-0.0131649
-0.0137827
-0.0136925
-0.0137368
-0.0135138
-0.0137045
-0.0141532
-0.0152028
-0.0166573
-0.0431434
-0.0192454
-0.0117839
-0.0104139
-0.00937163
-0.0088899
-0.0090943
-0.00941476
-0.0102179
-0.0107864
-0.0116484
-0.0120987
-0.012889
-0.0134847
-0.0144606
-0.0155044
-0.0169096
-0.0184126
-0.0201586
-0.0219068
-0.0192434
-0.0170005
-0.0132261
-0.011308
-0.00971352
-0.00964873
-0.0101181
-0.010815
-0.0116718
-0.0121924
-0.0130202
-0.0138405
-0.0151682
-0.0165166
-0.0180867
-0.0195064
-0.0208527
-0.0220133
-0.0231653
-0.0243724
-0.00246905
-0.00693739
-0.0103233
-0.011863
-0.0112134
-0.0105651
-0.0108051
-0.0113064
-0.0121172
-0.0128053
-0.0137152
-0.0147407
-0.0159841
-0.0173042
-0.0185837
-0.0196962
-0.0205915
-0.0213216
-0.0219166
-0.02263
-0.00426402
-0.00882143
-0.0115795
-0.0130773
-0.0129719
-0.0117621
-0.0111921
-0.0106745
-0.0107968
-0.0114017
-0.0119943
-0.0128661
-0.0136333
-0.014582
-0.0153641
-0.0161857
-0.0169502
-0.017644
-0.0182838
-0.0189277
-0.00992871
-0.0109127
-0.0128338
-0.0134922
-0.0153012
-0.0155931
-0.014587
-0.013337
-0.0121817
-0.0115915
-0.011095
-0.0111816
-0.0112653
-0.0118609
-0.012647
-0.0137284
-0.0149295
-0.0161057
-0.0171623
-0.0179951
-0.0123461
-0.011626
-0.0123243
-0.0102982
-0.0112097
-0.0115365
-0.0115231
-0.0124138
-0.0122753
-0.0116613
-0.0101688
-0.00891698
-0.00849112
-0.00846275
-0.0101224
-0.0116852
-0.0134412
-0.0152681
-0.0170239
-0.0185104
-0.00880346
-0.0104901
-0.0156204
-0.0130835
-0.0137054
-0.0122609
-0.0106943
-0.010218
-0.0118644
-0.0117752
-0.00962976
-0.00792671
-0.00737146
-0.00742072
-0.00823635
-0.0112504
-0.0130538
-0.015063
-0.0171917
-0.0191827
-0.00500048
-0.0164208
-0.0223112
-0.0224487
-0.0185371
-0.0122977
-0.00899396
-0.00854221
-0.0100912
-0.0119828
-0.0118879
-0.0108767
-0.00947937
-0.00871011
-0.00879244
-0.0119473
-0.0136601
-0.015474
-0.0173409
-0.0190722
-0.010865
-0.0141939
-0.0157788
-0.0138621
-0.0131298
-0.0130814
-0.0126332
-0.0127033
-0.0142439
-0.0149668
-0.0128248
-0.0101931
-0.00826528
-0.00783518
-0.00928796
-0.0132104
-0.0148221
-0.0163629
-0.0178507
-0.0191976
-0.00160236
-0.00570449
-0.0104681
-0.00973414
-0.00804974
-0.00660915
-0.00587396
-0.00683247
-0.00928519
-0.00970606
-0.00859716
-0.00763603
-0.0074578
-0.00831702
-0.0107431
-0.0140115
-0.0156093
-0.0171159
-0.018495
-0.0196419
-0.00317588
-0.00339085
-0.00690162
-0.00836655
-0.00757565
-0.00620321
-0.00524518
-0.00496138
-0.00554412
-0.00619014
-0.00676281
-0.00745616
-0.00840366
-0.00958263
-0.0121122
-0.0135559
-0.0151173
-0.0167905
-0.0184859
-0.0199432
-0.0103138
-0.00955005
-0.00954228
-0.0110292
-0.00940112
-0.00823082
-0.00607957
-0.0059328
-0.00573223
-0.00631785
-0.00725406
-0.00849402
-0.00976362
-0.0110087
-0.0121119
-0.0131512
-0.0142902
-0.0156866
-0.0173824
-0.0192594
-0.00455048
-0.00749982
-0.00922023
-0.0105976
-0.0119086
-0.011505
-0.0116577
-0.00928774
-0.00771505
-0.00731108
-0.00807152
-0.00962447
-0.0112378
-0.0126308
-0.0135105
-0.0140432
-0.0144584
-0.0150323
-0.0159099
-0.0173809
-0.00252034
-0.00502189
-0.00587275
-0.00850454
-0.0111661
-0.0117578
-0.0126557
-0.0114423
-0.0106962
-0.0100396
-0.0106315
-0.0121725
-0.0140074
-0.0155994
-0.0166301
-0.0171495
-0.0173406
-0.0168207
-0.0163335
-0.0166361
-0.00205091
-0.00652558
-0.00905746
-0.0099844
-0.0110597
-0.00993594
-0.0100907
-0.00948892
-0.0101334
-0.0115329
-0.0137531
-0.0160602
-0.0182154
-0.0197177
-0.0207838
-0.0209494
-0.0201825
-0.0183992
-0.0172695
-0.0172271
-0.0061479
-0.00564238
-0.00730902
-0.00869631
-0.00920144
-0.00824161
-0.00788981
-0.00838336
-0.0098859
-0.0122765
-0.0151872
-0.0180416
-0.020382
-0.0216197
-0.0221107
-0.0218566
-0.0213195
-0.0200029
-0.0193621
-0.0191067
-0.00984134
-0.0073986
-0.0105218
-0.0138645
-0.0115534
-0.00923979
-0.0093591
-0.0109249
-0.0132643
-0.0154087
-0.0170259
-0.0175152
-0.017288
-0.0168521
-0.0167258
-0.0172043
-0.0183953
-0.0203165
-0.0231079
-0.0266668
-0.00189924
-0.00512022
-0.00833377
-0.00963088
-0.00966835
-0.00928409
-0.00922377
-0.0101681
-0.0120506
-0.0136758
-0.0147003
-0.0149769
-0.0150155
-0.0150938
-0.0157745
-0.0175265
-0.0209503
-0.0263814
-0.033456
-0.0419965
-0.0133322
-0.0133002
-0.0113092
-0.010464
-0.0111663
-0.0112161
-0.0107375
-0.00930326
-0.00960295
-0.0106232
-0.0117481
-0.0122234
-0.0122594
-0.0119618
-0.0117139
-0.0114144
-0.0114682
-0.0118964
-0.0129733
-0.0146906
-0.0030651
-0.007816
-0.00903786
-0.008782
-0.00892633
-0.00816728
-0.00811677
-0.00839265
-0.00922348
-0.0101321
-0.0113317
-0.0128067
-0.0145738
-0.0165097
-0.0184099
-0.0202751
-0.0219399
-0.0234658
-0.0246977
-0.0256282
-0.00387331
-0.0091731
-0.0104603
-0.00894656
-0.00780436
-0.00752462
-0.00792003
-0.00858243
-0.00952727
-0.0106029
-0.0118683
-0.0131786
-0.014399
-0.0154936
-0.0163557
-0.0170497
-0.0175695
-0.0179803
-0.0183172
-0.018642
-0.0242736
-0.0211741
-0.0108239
-0.00805616
-0.00755785
-0.00801708
-0.00866807
-0.00940617
-0.0102834
-0.0111635
-0.0120982
-0.0129919
-0.0138157
-0.0145813
-0.0152997
-0.015984
-0.0166621
-0.017309
-0.0179639
-0.0185799
-0.0164683
-0.00942589
-0.00801811
-0.0077619
-0.00752846
-0.00803863
-0.00872477
-0.00950566
-0.0102973
-0.0110959
-0.0118833
-0.0126632
-0.0134325
-0.0141965
-0.0150112
-0.015827
-0.0167144
-0.0176229
-0.0185832
-0.0194465
-0.0166228
-0.00884289
-0.00833157
-0.00816585
-0.00770978
-0.0080566
-0.00839846
-0.0092013
-0.00991416
-0.0107633
-0.0115345
-0.0123596
-0.0131935
-0.0140844
-0.0150548
-0.0161041
-0.0172266
-0.0183798
-0.0195086
-0.0204536
-0.0109078
-0.00970315
-0.00906915
-0.00910416
-0.00901583
-0.00871233
-0.00841717
-0.00894192
-0.00950712
-0.010345
-0.0111275
-0.0120222
-0.0129274
-0.0138976
-0.0149125
-0.0160394
-0.0171878
-0.0183438
-0.0193936
-0.0202508
-0.0258962
-0.00777217
-0.00662524
-0.00634005
-0.00659526
-0.0073174
-0.00734092
-0.00846378
-0.00882937
-0.00932898
-0.00995088
-0.0105415
-0.0113043
-0.0120106
-0.0141904
-0.0151333
-0.0161002
-0.0170601
-0.0179084
-0.0185623
-0.0096428
-0.00651368
-0.00680987
-0.00606316
-0.00601302
-0.00672042
-0.00684566
-0.00726682
-0.00777627
-0.00754762
-0.00790297
-0.00854374
-0.00953168
-0.0105772
-0.0119556
-0.0138821
-0.0146436
-0.0154417
-0.0161847
-0.0167727
-0.011884
-0.0123371
-0.0121965
-0.00944314
-0.00700807
-0.00654724
-0.00650155
-0.00661457
-0.00653861
-0.00635954
-0.00668592
-0.0078034
-0.00940074
-0.0108564
-0.0122891
-0.0134811
-0.0140658
-0.0147573
-0.0154941
-0.0161587
-0.013487
-0.0125729
-0.0131103
-0.0102877
-0.00752762
-0.00704133
-0.00667867
-0.00679251
-0.00675591
-0.00649911
-0.00667147
-0.00768452
-0.00941951
-0.0110731
-0.0127409
-0.0139783
-0.0145822
-0.0153
-0.0161164
-0.0169001
-0.00574055
-0.00717343
-0.00790354
-0.00757534
-0.00595977
-0.0053974
-0.00511874
-0.00550614
-0.00580921
-0.00600647
-0.00672666
-0.00808424
-0.00985221
-0.0115154
-0.0133633
-0.0156368
-0.0163539
-0.017128
-0.0179451
-0.0186861
-0.000594483
-0.00400459
-0.0065241
-0.00587557
-0.00488816
-0.00472985
-0.00485207
-0.00565916
-0.00638835
-0.00731582
-0.00857208
-0.0100227
-0.0116355
-0.0131924
-0.016624
-0.017813
-0.0189804
-0.0201418
-0.0212106
-0.0221222
-0.0038566
-0.00823528
-0.00655161
-0.00567175
-0.00477056
-0.00500619
-0.00547496
-0.00631796
-0.00740554
-0.00861565
-0.0100905
-0.0117438
-0.0135349
-0.0153867
-0.0172357
-0.0190431
-0.0207897
-0.0224936
-0.0241209
-0.0255322
-0.00345494
-0.00615989
-0.00650049
-0.00613931
-0.00574864
-0.00569311
-0.00602203
-0.00652449
-0.0073808
-0.00861502
-0.0100721
-0.0117959
-0.0136893
-0.0157092
-0.0177542
-0.0197407
-0.021645
-0.023439
-0.0251104
-0.0264377
-0.00127704
-0.00426947
-0.00631198
-0.00685354
-0.0067508
-0.00666285
-0.00699567
-0.00755398
-0.00832721
-0.00943083
-0.0107528
-0.0123514
-0.014162
-0.0161597
-0.0182316
-0.0202805
-0.0222155
-0.0240278
-0.0255747
-0.0266503
-0.000979252
-0.00586244
-0.00733797
-0.0069932
-0.0070153
-0.00711829
-0.00784783
-0.00867949
-0.00966278
-0.0107066
-0.0119076
-0.0132293
-0.0148169
-0.0166223
-0.0186831
-0.0208565
-0.0231301
-0.0254765
-0.0276642
-0.0293614
-0.000498943
-0.00304181
-0.00544472
-0.00614301
-0.00630122
-0.00685379
-0.00798687
-0.00933515
-0.0106107
-0.01169
-0.0127189
-0.0137068
-0.0148347
-0.0161479
-0.0177159
-0.0195072
-0.0215188
-0.0238077
-0.0262549
-0.028576
-0.0123456
-0.00848728
-0.00830828
-0.00878448
-0.00785163
-0.00789515
-0.00865881
-0.00959575
-0.0106385
-0.0116315
-0.0128401
-0.014175
-0.015735
-0.0174555
-0.0192575
-0.0211539
-0.0231379
-0.02531
-0.0275772
-0.0296694
-0.00231846
-0.00491625
-0.00748898
-0.00908906
-0.00960041
-0.00923166
-0.00854013
-0.00833184
-0.0086616
-0.0092383
-0.010242
-0.0118057
-0.0141926
-0.0174787
-0.0215988
-0.0264211
-0.0316449
-0.0371411
-0.0428608
-0.0494575
-0.0336011
-0.0363151
-0.0383824
-0.0151728
-0.0153173
-0.0188303
-0.0188571
-0.0341033
-0.0384107
-0.0362772
-0.0152776
-0.0148943
-0.0182225
-0.0154479
-0.0393231
-0.0274533
-0.0259799
-0.0193703
-0.0182127
-0.0149091
-0.0134609
-0.0331594
-0.0251283
-0.0228911
-0.0175007
-0.0148951
-0.0128357
-0.0110831
-0.113978
-0.112088
-0.11741
-0.100415
-0.0974851
-0.106196
-0.0895706
-0.119513
-0.11638
-0.112988
-0.0889658
-0.0866763
-0.0776696
-0.0630748
-0.126924
-0.112908
-0.115586
-0.0944899
-0.122853
-0.0668456
-0.099103
-0.147766
-0.117514
-0.130201
-0.13214
-0.154527
-0.111511
-0.140387
-0.182458
-0.136725
-0.155062
-0.161641
-0.174038
-0.146878
-0.155334
-0.199037
-0.158354
-0.155579
-0.174113
-0.159618
-0.154714
-0.146781
-0.176039
-0.150773
-0.131131
-0.152666
-0.136359
-0.143022
-0.13028
-0.138186
-0.124584
-0.109251
-0.132771
-0.123864
-0.126228
-0.116488
-0.131964
-0.140212
-0.138604
-0.132458
-0.0907855
-0.131657
-0.121074
-0.117761
-0.137916
-0.133612
-0.0778323
-0.0629719
-0.11413
-0.101517
-0.117171
-0.131964
-0.128772
-0.0662163
-0.0964533
-0.102073
-0.114488
-0.129428
-0.128546
-0.13178
-0.108849
-0.137533
-0.120471
-0.136141
-0.149102
-0.133898
-0.137938
-0.143615
-0.15034
-0.139493
-0.140786
-0.144925
-0.137013
-0.125888
-0.149361
-0.141506
-0.138087
-0.123686
-0.12275
-0.120649
-0.106502
-0.137614
-0.124961
-0.118641
-0.109816
-0.105123
-0.103324
-0.10056
-0.121242
-0.113083
-0.109055
-0.109014
-0.126541
-0.128771
-0.125223
-0.117339
-0.118631
-0.120709
-0.115409
-0.131194
-0.123158
-0.117018
-0.118061
-0.116338
-0.112586
-0.107316
-0.131115
-0.116067
-0.117874
-0.116948
-0.123958
-0.107583
-0.11229
-0.133329
-0.11922
-0.122252
-0.127599
-0.137568
-0.113793
-0.113163
-0.135641
-0.122319
-0.117163
-0.139346
-0.135145
-0.11013
-0.0962345
-0.120433
-0.11363
-0.101698
-0.130356
-0.113527
-0.0932708
-0.0940821
-0.102617
-0.0983431
-0.094489
-0.109633
-0.106681
-0.0962767
-0.105327
-0.100909
-0.0956654
-0.10572
-0.107615
-0.112221
-0.10903
-0.118779
-0.13291
-0.160916
-0.153888
-0.133728
-0.120766
-0.156989
-0.141867
-0.119346
-0.150136
-0.135679
-0.11667
-0.105256
-0.130695
-0.107128
-0.111962
-0.128679
-0.110324
-0.10279
-0.100205
-0.102768
-0.0921466
-0.112309
-0.106152
-0.0975049
-0.099755
-0.0953145
-0.0903198
-0.0893328
-0.10712
-0.0955761
-0.0913919
-0.0925924
-0.0865117
-0.0905284
-0.0964395
-0.0956408
-0.0908895
-0.093026
-0.0869655
-0.093425
-0.0987438
-0.105181
-0.0936578
-0.0959053
-0.110995
-0.0962251
-0.105875
-0.107449
-0.113828
-0.10859
-0.117794
-0.141679
-0.10944
-0.117526
-0.116519
-0.125079
-0.043104
-0.0655377
-0.0410476
-0.0466509
-0.0316655
-0.0464716
-0.0279206
-0.0436425
-0.0367179
-0.0371518
-0.0296554
-0.0372676
-0.0247595
-0.0270813
-0.074988
-0.0410078
-0.0692138
-0.0418065
-0.0508073
-0.0309261
-0.0428519
-0.103612
-0.0829049
-0.108083
-0.0524978
-0.0509283
-0.0451288
-0.045457
-0.0923411
-0.110028
-0.105685
-0.0483379
-0.0399577
-0.0445512
-0.04291
-0.0724988
-0.105075
-0.107479
-0.0372336
-0.0323737
-0.0432037
-0.0447941
-0.0826474
-0.108052
-0.104214
-0.0318779
-0.0320635
-0.0451748
-0.044732
-0.0909278
-0.101545
-0.092618
-0.0324275
-0.0326894
-0.0440634
-0.0407801
-0.0448516
-0.0816668
-0.0630477
-0.0502632
-0.0291759
-0.0588512
-0.0469248
-0.0384678
-0.0582002
-0.0543244
-0.0257778
-0.026573
-0.0439141
-0.0406645
-0.066048
-0.0561254
-0.0725159
-0.0298926
-0.0410063
-0.0413431
-0.0450876
-0.104764
-0.0810405
-0.101146
-0.0433175
-0.0449153
-0.046581
-0.0497813
-0.104106
-0.105
-0.107053
-0.0446314
-0.0447282
-0.0503082
-0.0480471
-0.106412
-0.10438
-0.0872257
-0.0452309
-0.0461584
-0.046186
-0.0399873
-0.0973242
-0.080885
-0.0679729
-0.0459184
-0.0433694
-0.0380011
-0.0331386
-0.0838495
-0.0658137
-0.0613185
-0.0421579
-0.0380351
-0.0317697
-0.0281175
-0.0666917
-0.0462318
-0.0347022
-0.0488191
-0.0441358
-0.0333445
-0.0251843
-0.0693112
-0.0341805
-0.0440399
-0.0434768
-0.0438793
-0.0251939
-0.0297017
-0.085067
-0.0506171
-0.0689983
-0.0446793
-0.047841
-0.0317222
-0.0363441
-0.104494
-0.0721994
-0.0705468
-0.0489811
-0.0507103
-0.0370342
-0.0366301
-0.0983856
-0.0670065
-0.0568329
-0.0500565
-0.0437161
-0.035933
-0.0336018
-0.0731294
-0.0550818
-0.0549157
-0.0415579
-0.036079
-0.0330041
-0.0314775
-0.0623827
-0.0557057
-0.0572891
-0.0346573
-0.0311628
-0.030914
-0.0287327
-0.059911
-0.0573005
-0.0540578
-0.0300603
-0.0269456
-0.0278377
-0.0251538
-0.0253235
-0.0393545
-0.0238754
-0.0217801
-0.0184415
-0.0276706
-0.0170131
-0.0336245
-0.0211746
-0.0245478
-0.0187777
-0.0232593
-0.015744
-0.0171933
-0.0487711
-0.0269858
-0.0338402
-0.0252507
-0.0299557
-0.0184948
-0.0221621
-0.0517238
-0.0361031
-0.043967
-0.0308417
-0.0317724
-0.0230851
-0.024728
-0.0502661
-0.0469696
-0.0530518
-0.0317346
-0.0312613
-0.025026
-0.0251642
-0.0559969
-0.0531251
-0.0461319
-0.0310586
-0.0301825
-0.0250076
-0.0241252
-0.0545027
-0.0432016
-0.0353852
-0.0297366
-0.0277259
-0.0237718
-0.0224616
-0.0490609
-0.034052
-0.0317825
-0.0268784
-0.0244093
-0.0222139
-0.0222904
-0.0184098
-0.0238596
-0.0166076
-0.0181539
-0.0153009
-0.016781
-0.0130603
-0.0243808
-0.0164888
-0.0195832
-0.015614
-0.0176594
-0.0126236
-0.0134891
-0.0335148
-0.0220357
-0.0314895
-0.0179488
-0.0174228
-0.0140645
-0.0149591
-0.0316878
-0.0333447
-0.0331183
-0.0169225
-0.0148451
-0.014973
-0.0144861
-0.0230842
-0.0324315
-0.031758
-0.013932
-0.0116356
-0.0142876
-0.0137096
-0.0203227
-0.0321978
-0.0335774
-0.0109698
-0.00968596
-0.013524
-0.0127827
-0.0218812
-0.0338302
-0.0333435
-0.00943805
-0.00903313
-0.0125074
-0.0116517
-0.0223682
-0.0327768
-0.0298303
-0.00899197
-0.00905784
-0.011392
-0.0106931
-0.0171219
-0.0350172
-0.025888
-0.0171616
-0.0131028
-0.0207951
-0.0170826
-0.0188459
-0.0238476
-0.0250827
-0.0126036
-0.0133017
-0.016543
-0.0163163
-0.0299897
-0.0272576
-0.0347129
-0.0138586
-0.0149827
-0.016602
-0.017842
-0.0251243
-0.0332724
-0.0321389
-0.0236305
-0.0337084
-0.0242477
-0.0240484
-0.0273074
-0.0334444
-0.0356273
-0.0247803
-0.0358992
-0.0250298
-0.0269249
-0.0350784
-0.0346307
-0.0292778
-0.0146513
-0.0135262
-0.0145728
-0.0120829
-0.0326399
-0.0275438
-0.0231539
-0.0130855
-0.0118444
-0.0113846
-0.00996465
-0.0279521
-0.0219255
-0.0186994
-0.0114825
-0.0106249
-0.00970613
-0.00949558
-0.0293015
-0.0180992
-0.0155047
-0.019086
-0.0169314
-0.0128007
-0.010936
-0.0309774
-0.0161004
-0.0211303
-0.0167754
-0.0172533
-0.0113678
-0.0135939
-0.0379861
-0.0231439
-0.0271256
-0.0176395
-0.0186432
-0.0142463
-0.0150747
-0.0294964
-0.0396549
-0.0385839
-0.0295962
-0.0387303
-0.0310356
-0.0293845
-0.024901
-0.0367631
-0.0354873
-0.0303723
-0.0334963
-0.0289978
-0.0264727
-0.0258491
-0.022234
-0.0202994
-0.0138981
-0.0113549
-0.010587
-0.00950378
-0.0209628
-0.0196104
-0.0172441
-0.0107159
-0.0095434
-0.00932138
-0.00939959
-0.01721
-0.0164168
-0.0144192
-0.00938735
-0.00953769
-0.00962114
-0.0107291
-0.0104061
-0.0110125
-0.00774007
-0.00869789
-0.00851732
-0.00899274
-0.00677463
-0.015429
-0.00765143
-0.00944832
-0.0089891
-0.0113599
-0.00680913
-0.00768184
-0.0208942
-0.0104119
-0.0131221
-0.012074
-0.0130407
-0.00803239
-0.00879302
-0.0215162
-0.0137735
-0.0150042
-0.0129595
-0.0120218
-0.0089291
-0.00912804
-0.0209916
-0.0152455
-0.0149334
-0.0116223
-0.0104725
-0.00917366
-0.00920934
-0.0191748
-0.0146103
-0.0131176
-0.0101413
-0.00946016
-0.00924684
-0.00953506
-0.0160554
-0.0127823
-0.0122446
-0.00939265
-0.00973266
-0.00975842
-0.010646
-0.0139012
-0.0123438
-0.0131356
-0.010017
-0.0112586
-0.0111034
-0.0126256
-0.00991287
-0.00954264
-0.00865595
-0.00939471
-0.00858969
-0.00840742
-0.00787203