/*--------------------------------*- C++ -*----------------------------------*\
  =========                 |
  \\      /  F ield         | OpenFOAM: The Open Source CFD Toolbox
   \\    /   O peration     | Website:  https://openfoam.org
    \\  /    A nd           | Version:  10
     \\/     M anipulation  |
\*---------------------------------------------------------------------------*/
FoamFile
{
    format      ascii;
    class       volScalarField;
    location    "5.1";
    object      turbidity;
}
// * * * * * * * * * * * * * * * * * * * * * * * * * * * * * * * * * * * * * //

dimensions      [0 0 0 0 0 0 0];

internalField   nonuniform List<scalar> 
12920
(
-0.0164289
-0.033625
-0.0510171
-0.0660213
-0.0766573
-0.0921588
-0.110824
-0.1335
-0.157462
-0.181111
-0.195209
-0.205419
-0.225718
-0.256461
-0.295964
-0.33929
-0.38093
-0.417279
-0.449336
-0.476377
-0.111895
-0.080692
-0.0873886
-0.117754
-0.11422
-0.137238
-0.151646
-0.173857
-0.201285
-0.230286
-0.260033
-0.290824
-0.324384
-0.361271
-0.399523
-0.436297
-0.472373
-0.507262
-0.540536
-0.570039
-0.0924634
-0.0678145
-0.0823945
-0.117489
-0.137242
-0.16976
-0.205071
-0.235955
-0.265637
-0.294264
-0.327205
-0.363396
-0.403305
-0.442356
-0.479369
-0.512913
-0.543049
-0.569936
-0.594061
-0.615465
-0.0660875
-0.0691498
-0.0971695
-0.138154
-0.169613
-0.211394
-0.246781
-0.283849
-0.317556
-0.351617
-0.389442
-0.428346
-0.464369
-0.495434
-0.519519
-0.53888
-0.553746
-0.568175
-0.582975
-0.600933
-0.0148346
-0.0424978
-0.0690978
-0.100724
-0.134481
-0.17145
-0.208064
-0.243948
-0.275771
-0.307762
-0.336886
-0.367928
-0.398687
-0.428165
-0.453896
-0.473267
-0.485899
-0.49768
-0.511386
-0.531216
-0.0459373
-0.055634
-0.0843306
-0.122856
-0.151975
-0.1821
-0.204736
-0.232167
-0.255538
-0.281592
-0.307311
-0.335775
-0.365153
-0.392314
-0.408618
-0.415608
-0.416216
-0.420281
-0.430702
-0.450943
-0.0529892
-0.0486271
-0.0690776
-0.0939503
-0.117854
-0.146792
-0.166171
-0.193329
-0.218417
-0.25261
-0.290795
-0.332149
-0.35958
-0.364498
-0.344456
-0.328083
-0.319965
-0.324525
-0.338879
-0.362307
-0.00906546
-0.0240587
-0.0407308
-0.0633628
-0.0917204
-0.125104
-0.129905
-0.134235
-0.148126
-0.169208
-0.209739
-0.248977
-0.259968
-0.22674
-0.170693
-0.186085
-0.209679
-0.239516
-0.271196
-0.301774
-0.0117899
-0.0239885
-0.0394274
-0.0578475
-0.083385
-0.0921098
-0.105856
-0.115411
-0.121299
-0.130601
-0.156393
-0.190373
-0.196144
-0.166651
-0.126717
-0.150468
-0.192778
-0.237422
-0.277546
-0.309813
-0.0108481
-0.0337671
-0.0629576
-0.0948144
-0.135298
-0.146569
-0.141475
-0.127486
-0.116415
-0.118499
-0.134766
-0.150867
-0.140446
-0.117469
-0.111742
-0.165899
-0.222448
-0.277129
-0.320676
-0.3512
-0.0293529
-0.0399274
-0.0564588
-0.0767793
-0.106457
-0.115224
-0.123936
-0.127986
-0.131504
-0.130982
-0.134527
-0.133681
-0.115453
-0.100484
-0.119459
-0.195036
-0.259161
-0.320796
-0.373346
-0.408324
-0.0310577
-0.0403491
-0.0534991
-0.0758129
-0.113874
-0.134717
-0.143515
-0.129948
-0.116301
-0.111995
-0.112168
-0.104581
-0.0937335
-0.0957759
-0.136907
-0.225715
-0.293296
-0.358279
-0.416525
-0.459259
-0.00952741
-0.0317821
-0.0548624
-0.089521
-0.129241
-0.16933
-0.171676
-0.161376
-0.146038
-0.126853
-0.119118
-0.121523
-0.135229
-0.1565
-0.227884
-0.279543
-0.333634
-0.389494
-0.442926
-0.48824
-0.0273712
-0.0458069
-0.0711113
-0.101526
-0.134039
-0.164715
-0.202094
-0.229404
-0.252786
-0.271292
-0.284804
-0.297379
-0.305545
-0.310756
-0.31708
-0.334366
-0.36692
-0.408706
-0.456001
-0.50279
-0.0293587
-0.0357111
-0.0461055
-0.0600367
-0.0807009
-0.107322
-0.140697
-0.176269
-0.213956
-0.246324
-0.269986
-0.281819
-0.285343
-0.286254
-0.294039
-0.316521
-0.354909
-0.401678
-0.455681
-0.511188
-0.0175725
-0.0337559
-0.03928
-0.0472236
-0.0608856
-0.0809969
-0.113812
-0.151181
-0.188664
-0.223546
-0.253192
-0.275933
-0.292112
-0.302734
-0.314957
-0.338057
-0.372518
-0.418957
-0.476082
-0.536857
-0.0129583
-0.0224878
-0.027701
-0.0373734
-0.0537396
-0.0766949
-0.107514
-0.14735
-0.187945
-0.220434
-0.245395
-0.265662
-0.283968
-0.301876
-0.321349
-0.345285
-0.378483
-0.426445
-0.488027
-0.554981
-0.0119175
-0.020709
-0.0299381
-0.0437217
-0.0610558
-0.0822566
-0.106011
-0.133044
-0.160047
-0.185158
-0.209906
-0.233767
-0.256687
-0.276985
-0.296295
-0.317239
-0.342409
-0.378613
-0.429577
-0.493127
-0.025978
-0.0392644
-0.0510519
-0.0694712
-0.0945187
-0.125333
-0.152307
-0.173412
-0.193891
-0.215584
-0.239576
-0.265603
-0.293439
-0.321508
-0.348384
-0.373718
-0.39283
-0.402394
-0.406487
-0.421097
-0.0579662
-0.0713325
-0.0811849
-0.0951695
-0.108765
-0.119695
-0.129897
-0.141942
-0.157449
-0.173946
-0.196638
-0.2236
-0.256882
-0.290751
-0.32237
-0.350662
-0.370443
-0.37769
-0.368288
-0.358246
-0.0145131
-0.0175203
-0.0174538
-0.0203223
-0.0290817
-0.0389158
-0.0507631
-0.0616089
-0.068245
-0.056964
-0.0360318
-0.0258337
-0.027074
-0.0359012
-0.0488015
-0.0633822
-0.0804661
-0.0966175
-0.106412
-0.109187
-0.0585249
-0.0162984
-0.0124097
-0.013163
-0.0141557
-0.0163117
-0.0210977
-0.0250978
-0.0310299
-0.0321397
-0.038142
-0.0514216
-0.0736726
-0.0935438
-0.113125
-0.127138
-0.136252
-0.137019
-0.132282
-0.123932
-0.0313279
-0.0222377
-0.017071
-0.017584
-0.0160224
-0.017639
-0.023892
-0.0305749
-0.0418725
-0.0517347
-0.0663025
-0.0768389
-0.0882026
-0.0964514
-0.103649
-0.109271
-0.113933
-0.114675
-0.112381
-0.106174
-0.0342446
-0.0249041
-0.0229792
-0.0281913
-0.0270642
-0.0364468
-0.0447219
-0.0563633
-0.0690846
-0.0766889
-0.0788342
-0.0747513
-0.0708635
-0.0712964
-0.0786778
-0.0896166
-0.101827
-0.112192
-0.119088
-0.122634
-0.0162341
-0.0181762
-0.0172842
-0.0214305
-0.0271954
-0.0331511
-0.0410002
-0.0492888
-0.0574532
-0.0631756
-0.0649368
-0.0614401
-0.058202
-0.0563524
-0.0600471
-0.0647749
-0.0714743
-0.080168
-0.0893856
-0.09825
-0.00764069
-0.0120114
-0.017784
-0.0325028
-0.0399983
-0.0443739
-0.0467171
-0.0479862
-0.0477723
-0.0465814
-0.0463335
-0.0464441
-0.0523122
-0.0581995
-0.0591222
-0.0543243
-0.051115
-0.0513485
-0.0564034
-0.0649891
-0.00507134
-0.0111095
-0.0206718
-0.0338782
-0.0492867
-0.0551333
-0.0576665
-0.0628576
-0.0669948
-0.0672255
-0.0690914
-0.0688506
-0.0676434
-0.0627823
-0.0562418
-0.0474997
-0.0424158
-0.0415563
-0.0448959
-0.0520235
-0.0127477
-0.0186546
-0.028715
-0.0345094
-0.0504176
-0.0474215
-0.049165
-0.0498853
-0.0653627
-0.086196
-0.0871008
-0.0678751
-0.0505144
-0.045078
-0.0396112
-0.038937
-0.0385453
-0.0391255
-0.0413445
-0.0466695
-0.00190205
-0.00888005
-0.0263521
-0.0417933
-0.0635258
-0.0672459
-0.0607104
-0.0388426
-0.0496216
-0.0858041
-0.104967
-0.0850442
-0.0735275
-0.0857531
-0.0788086
-0.049529
-0.0447882
-0.0420664
-0.0408915
-0.0436133
-0.00314312
-0.0167186
-0.0418491
-0.0629331
-0.0932933
-0.0928735
-0.0679929
-0.0407216
-0.0411365
-0.0788088
-0.106672
-0.104301
-0.105724
-0.0938632
-0.0651178
-0.0414663
-0.0394017
-0.038142
-0.0370688
-0.0369381
-0.0136926
-0.0264871
-0.036853
-0.0429194
-0.0591318
-0.065362
-0.069292
-0.0657203
-0.0719502
-0.0904559
-0.106252
-0.0926483
-0.0686893
-0.0621418
-0.0486225
-0.0351698
-0.0373559
-0.0404113
-0.04237
-0.0417103
-0.00307933
-0.01461
-0.0323546
-0.0401777
-0.0537742
-0.0387158
-0.0301963
-0.0265866
-0.0373611
-0.0515463
-0.051047
-0.0514676
-0.0564445
-0.0535107
-0.0395557
-0.0358792
-0.0427836
-0.0506356
-0.0588582
-0.0596961
-0.00481307
-0.0104512
-0.025601
-0.0411519
-0.058621
-0.0466969
-0.0415915
-0.0242836
-0.027687
-0.0352477
-0.039368
-0.0371115
-0.0311734
-0.027729
-0.0283034
-0.0370298
-0.0479305
-0.0591184
-0.0708888
-0.0725236
-0.00468405
-0.0217204
-0.0422309
-0.0555554
-0.0673696
-0.0608165
-0.0536272
-0.0486692
-0.0389727
-0.0333006
-0.0269528
-0.0205765
-0.0184086
-0.0212789
-0.02897
-0.0416583
-0.0569682
-0.0708299
-0.0794333
-0.0765268
-0.00249941
-0.00906995
-0.0167248
-0.0259073
-0.0407734
-0.0520994
-0.069968
-0.0735953
-0.0692349
-0.0534021
-0.0364548
-0.0244433
-0.0208047
-0.0245616
-0.0353861
-0.0530112
-0.0738159
-0.0911569
-0.0954533
-0.0846751
-0.00414968
-0.0049902
-0.00687571
-0.0123942
-0.0230427
-0.0355168
-0.0530388
-0.0647211
-0.0739522
-0.0715839
-0.06374
-0.0518719
-0.0433152
-0.0429255
-0.0541682
-0.0756168
-0.104411
-0.123197
-0.124073
-0.109828
-0.00959546
-0.00573846
-0.0078401
-0.0138746
-0.0234665
-0.0332629
-0.046561
-0.0499673
-0.0496007
-0.0489471
-0.0534382
-0.0588913
-0.0669528
-0.0768977
-0.0898764
-0.10707
-0.128031
-0.137862
-0.135528
-0.124018
-0.00656035
-0.00788896
-0.0133587
-0.0207528
-0.0308249
-0.0361502
-0.0359498
-0.0282088
-0.0206804
-0.0162085
-0.0166123
-0.0198391
-0.0255466
-0.0347906
-0.0489995
-0.0695143
-0.0964645
-0.117904
-0.133422
-0.141577
-0.0121905
-0.0234917
-0.0330314
-0.0430962
-0.0500487
-0.0421292
-0.0291611
-0.0179158
-0.0165715
-0.0211179
-0.0318031
-0.0420908
-0.0511509
-0.0573565
-0.0637415
-0.0701711
-0.070724
-0.0673857
-0.069107
-0.0808776
-0.0213385
-0.0386305
-0.0463547
-0.0395388
-0.0280409
-0.0174593
-0.0137844
-0.0137478
-0.0163626
-0.0212336
-0.027824
-0.03477
-0.0414294
-0.0467614
-0.0504899
-0.0525051
-0.0519671
-0.0485103
-0.0446164
-0.0430587
-0.0375208
-0.014173
-0.0129495
-0.0160593
-0.0219662
-0.0289584
-0.0356078
-0.0389104
-0.0364116
-0.0259529
-0.0180578
-0.0168382
-0.019978
-0.0246481
-0.029446
-0.0338149
-0.037737
-0.0404129
-0.0408813
-0.0395771
-0.0185062
-0.012401
-0.0102916
-0.0106037
-0.0128446
-0.0138729
-0.0167084
-0.0175481
-0.0180575
-0.0183846
-0.0216031
-0.0263014
-0.0323341
-0.0366417
-0.0399537
-0.0400771
-0.0382885
-0.0341169
-0.0296059
-0.0257725
-0.024159
-0.0221308
-0.0138485
-0.0114048
-0.0102407
-0.010221
-0.0118181
-0.0135672
-0.0166023
-0.019296
-0.0231936
-0.0258339
-0.0288062
-0.030482
-0.0318379
-0.0321141
-0.03216
-0.0310476
-0.029762
-0.0283738
-0.0216674
-0.0167536
-0.0147283
-0.0141256
-0.0129962
-0.0146378
-0.0172865
-0.0202529
-0.0233118
-0.0245069
-0.0250719
-0.0252703
-0.0269005
-0.0295917
-0.0332531
-0.0367477
-0.0396353
-0.0411085
-0.0413152
-0.0406437
-0.00695555
-0.00834049
-0.0117685
-0.0146792
-0.0161546
-0.0170054
-0.0190282
-0.0209148
-0.0229313
-0.0238293
-0.0241829
-0.0244082
-0.0254782
-0.0274335
-0.0300582
-0.0329087
-0.0356301
-0.0380505
-0.0395987
-0.0403502
-0.00333393
-0.00876424
-0.0129198
-0.0176302
-0.0202905
-0.0205612
-0.0208341
-0.0196497
-0.0189923
-0.0185961
-0.0188441
-0.0195218
-0.0206492
-0.0217194
-0.0222504
-0.0228938
-0.0241998
-0.0261732
-0.0284947
-0.0306667
-0.0020778
-0.00599995
-0.0148197
-0.0205088
-0.0254795
-0.026433
-0.0274644
-0.0279576
-0.0271936
-0.0246955
-0.022837
-0.0211772
-0.0195002
-0.0181358
-0.0171969
-0.016806
-0.0176039
-0.0195362
-0.0223642
-0.0255541
-0.0111942
-0.0156322
-0.021676
-0.0199852
-0.0251833
-0.0213407
-0.0210573
-0.0244602
-0.0291426
-0.0307795
-0.0249894
-0.0181644
-0.0145407
-0.0131163
-0.0122959
-0.0132312
-0.0145208
-0.0163611
-0.0189849
-0.0223277
-0.00580276
-0.0118441
-0.0257401
-0.0288446
-0.0378076
-0.0334786
-0.0249948
-0.0187981
-0.0268637
-0.0346277
-0.0296614
-0.021599
-0.0206377
-0.0222192
-0.0197862
-0.0150856
-0.0152653
-0.0161982
-0.0180368
-0.0210973
-0.00638136
-0.0184612
-0.0348627
-0.0439454
-0.0528273
-0.0382675
-0.0225171
-0.0168702
-0.0208395
-0.0321367
-0.033476
-0.034529
-0.0347959
-0.031669
-0.0211287
-0.0142651
-0.0146046
-0.0154795
-0.0169237
-0.0191304
-0.0053266
-0.0198358
-0.0258528
-0.0252825
-0.0314838
-0.0323491
-0.0315846
-0.0286806
-0.0326023
-0.0386169
-0.038302
-0.0312431
-0.0244592
-0.0199957
-0.0141187
-0.0145439
-0.0161821
-0.017633
-0.0189267
-0.0202595
-0.00698147
-0.0158743
-0.0248405
-0.0192928
-0.0204186
-0.0128334
-0.010462
-0.011135
-0.017258
-0.0214977
-0.0214678
-0.0207342
-0.0184862
-0.0153557
-0.013675
-0.0173556
-0.0197638
-0.0218189
-0.0235339
-0.0243952
-0.00599889
-0.00519295
-0.0110837
-0.0161953
-0.0199571
-0.0144235
-0.0113209
-0.00779676
-0.00891537
-0.0106305
-0.0112602
-0.0111332
-0.0110306
-0.0120733
-0.0160475
-0.0191758
-0.0221187
-0.0247628
-0.0273309
-0.0284948
-0.0182215
-0.0120531
-0.0156503
-0.0246399
-0.0253168
-0.0210244
-0.0151399
-0.0133841
-0.00997342
-0.00859776
-0.00805192
-0.00880439
-0.0108844
-0.0141121
-0.0179853
-0.021956
-0.0250473
-0.0270324
-0.0283865
-0.0291619
-0.00132165
-0.00646469
-0.0112184
-0.015247
-0.02211
-0.0253727
-0.0310806
-0.0269302
-0.0209373
-0.0144514
-0.0108832
-0.0107186
-0.0132059
-0.0176026
-0.0229546
-0.028119
-0.0314279
-0.0320993
-0.0301417
-0.0277243
-0.00184249
-0.00363658
-0.00544314
-0.00994368
-0.0167932
-0.0217839
-0.0283089
-0.0290378
-0.0284222
-0.0235518
-0.019559
-0.0177976
-0.0196822
-0.0246999
-0.0315777
-0.0383731
-0.0435323
-0.043259
-0.0380576
-0.0316178
-0.00467277
-0.00483848
-0.00732044
-0.0119657
-0.0170782
-0.0184003
-0.0208112
-0.0187854
-0.0177829
-0.0178446
-0.0203931
-0.0240115
-0.0292067
-0.0355323
-0.0428177
-0.0492949
-0.0527516
-0.0488854
-0.0417249
-0.0343773
-0.00707189
-0.00571608
-0.00931312
-0.0132867
-0.0163033
-0.0149946
-0.0127963
-0.0101872
-0.00960431
-0.0108134
-0.0136052
-0.0180728
-0.024144
-0.0313014
-0.0389357
-0.0453832
-0.049774
-0.0494048
-0.0476892
-0.0443912
-0.00505952
-0.0149726
-0.0218649
-0.0262406
-0.0241578
-0.015886
-0.0112714
-0.0108716
-0.0132294
-0.0170511
-0.0219385
-0.0265545
-0.0301594
-0.0317134
-0.0317305
-0.0307061
-0.0300395
-0.0308282
-0.034593
-0.0412729
-0.00461401
-0.00941168
-0.0156763
-0.015
-0.0131593
-0.011468
-0.0107137
-0.0114272
-0.0139655
-0.0175479
-0.0213823
-0.0243269
-0.0262352
-0.0268472
-0.0265994
-0.0259487
-0.0251607
-0.0254486
-0.0281307
-0.0332881
-0.0117883
-0.0124895
-0.0123654
-0.013201
-0.015797
-0.0200044
-0.0231554
-0.0216271
-0.017606
-0.0130477
-0.0120772
-0.0134946
-0.0156192
-0.0175972
-0.0193588
-0.020525
-0.0211266
-0.0210085
-0.0200778
-0.0187558
-0.00513897
-0.0078913
-0.00921379
-0.0102351
-0.0118655
-0.0125407
-0.0130692
-0.0120915
-0.0116138
-0.0118036
-0.0127176
-0.0131626
-0.0137847
-0.0136983
-0.0137457
-0.0135217
-0.0137109
-0.0141554
-0.0151996
-0.0166496
-0.0436376
-0.0197588
-0.0118772
-0.0104281
-0.0093829
-0.00890119
-0.00910386
-0.00941962
-0.010217
-0.0107864
-0.0116504
-0.0121011
-0.0128913
-0.0134857
-0.0144601
-0.0155016
-0.0169048
-0.0184069
-0.0201513
-0.0218984
-0.0193071
-0.0170893
-0.0132694
-0.0113179
-0.00971777
-0.00964868
-0.0101143
-0.0108088
-0.011666
-0.01219
-0.0130181
-0.0138357
-0.0151624
-0.0165087
-0.0180798
-0.0195
-0.0208483
-0.0220105
-0.0231621
-0.0243686
-0.00225254
-0.00693185
-0.0102979
-0.0118448
-0.0112162
-0.01057
-0.0108063
-0.0113027
-0.0121138
-0.0127998
-0.013711
-0.0147339
-0.015978
-0.0172971
-0.0185785
-0.0196915
-0.0205875
-0.0213197
-0.0219149
-0.0226277
-0.00390536
-0.0087572
-0.011565
-0.0130734
-0.012975
-0.0117721
-0.011199
-0.0106837
-0.0107995
-0.0114042
-0.011995
-0.0128662
-0.0136325
-0.0145808
-0.0153619
-0.0161827
-0.0169469
-0.0176417
-0.0182818
-0.0189258
-0.00981842
-0.0108472
-0.0128086
-0.0135023
-0.0153201
-0.015595
-0.0146075
-0.0133468
-0.0121939
-0.0116014
-0.0111037
-0.0111881
-0.0112688
-0.0118619
-0.0126446
-0.0137234
-0.0149233
-0.0161002
-0.017158
-0.0179921
-0.0124238
-0.011698
-0.0124732
-0.0103711
-0.0113006
-0.0115838
-0.0115494
-0.0124286
-0.0122762
-0.0116749
-0.0101825
-0.00893124
-0.00849894
-0.0084678
-0.0101172
-0.0116773
-0.0134319
-0.0152586
-0.0170149
-0.0185031
-0.00866554
-0.0106047
-0.0156449
-0.0131224
-0.0138118
-0.0123543
-0.010751
-0.0102294
-0.011859
-0.0117789
-0.00963914
-0.00793033
-0.00737187
-0.00741931
-0.00823245
-0.0112435
-0.0130448
-0.0150525
-0.0171802
-0.0191719
-0.00542216
-0.016439
-0.0223624
-0.0225077
-0.0186945
-0.012348
-0.0090239
-0.00854364
-0.0100806
-0.0119768
-0.0118814
-0.0108761
-0.00948454
-0.00871449
-0.00878995
-0.0119402
-0.0136523
-0.0154654
-0.0173316
-0.0190633
-0.0108844
-0.0143247
-0.0158381
-0.0139606
-0.0132359
-0.0131804
-0.0126931
-0.012694
-0.0142247
-0.0149769
-0.0128428
-0.0102087
-0.00827184
-0.00783561
-0.00928079
-0.0132034
-0.0148159
-0.0163567
-0.0178445
-0.0191915
-0.00167543
-0.00576273
-0.0105004
-0.00979321
-0.00812518
-0.00663972
-0.00590657
-0.00685838
-0.00931
-0.00973304
-0.00861166
-0.00764201
-0.0074567
-0.00831137
-0.0107356
-0.014005
-0.0156029
-0.0171101
-0.0184901
-0.0196375
-0.00353031
-0.00339954
-0.00691832
-0.00837597
-0.00759864
-0.00621173
-0.00525132
-0.00496318
-0.00554691
-0.00619268
-0.00676312
-0.00745449
-0.00839994
-0.00957825
-0.0121081
-0.0135509
-0.0151108
-0.016784
-0.0184804
-0.0199377
-0.00943899
-0.00947521
-0.00951576
-0.0110228
-0.00939583
-0.00824211
-0.00608439
-0.00593925
-0.00573458
-0.0063187
-0.00725234
-0.0084904
-0.00975935
-0.0110052
-0.0121095
-0.0131487
-0.0142864
-0.0156828
-0.0173782
-0.0192519
-0.00481405
-0.0075498
-0.00922509
-0.010606
-0.011897
-0.0115001
-0.0116748
-0.00930974
-0.00773543
-0.00731723
-0.00806921
-0.00961812
-0.0112312
-0.012627
-0.0135099
-0.014045
-0.0144601
-0.0150367
-0.0159123
-0.0173764
-0.00251799
-0.00506777
-0.00589831
-0.00851563
-0.0111599
-0.0117513
-0.0126505
-0.0114429
-0.0107149
-0.0100487
-0.0106336
-0.0121672
-0.0139998
-0.0155935
-0.016628
-0.0171506
-0.0173505
-0.0168373
-0.0163464
-0.0166383
-0.00197034
-0.00650961
-0.00903223
-0.00997867
-0.0110644
-0.00993481
-0.0101084
-0.00949887
-0.0101382
-0.011528
-0.0137432
-0.0160492
-0.0182058
-0.0197115
-0.0207815
-0.0209566
-0.0202085
-0.0184284
-0.0172871
-0.0172319
-0.00608998
-0.00565277
-0.00730167
-0.0086955
-0.00921881
-0.00825671
-0.0079019
-0.00838398
-0.00987939
-0.0122644
-0.0151706
-0.0180247
-0.020368
-0.0216121
-0.0221078
-0.0218586
-0.0213357
-0.0200276
-0.0193847
-0.0191166
-0.0101366
-0.00741931
-0.0105346
-0.0139526
-0.0116622
-0.00927425
-0.0093619
-0.0109158
-0.013251
-0.0153958
-0.0170171
-0.0175124
-0.01729
-0.0168549
-0.0167275
-0.0172027
-0.0183903
-0.0203068
-0.0230924
-0.0266469
-0.00185801
-0.00508833
-0.00830993
-0.00963347
-0.00967359
-0.0092885
-0.00922381
-0.0101564
-0.0120331
-0.0136613
-0.0146936
-0.0149753
-0.0150165
-0.0150944
-0.0157717
-0.0175148
-0.0209242
-0.0263382
-0.0333983
-0.0419264
-0.0125418
-0.0132637
-0.0113532
-0.0104854
-0.0111545
-0.0112253
-0.0107668
-0.00933185
-0.00961491
-0.010617
-0.0117403
-0.0122203
-0.0122595
-0.0119642
-0.0117176
-0.0114186
-0.0114708
-0.0118961
-0.0129675
-0.0146791
-0.00319159
-0.00779103
-0.00902448
-0.00878768
-0.0089386
-0.00818544
-0.00812983
-0.00839417
-0.0092219
-0.0101298
-0.0113286
-0.0128015
-0.0145679
-0.0165033
-0.0184036
-0.0202689
-0.0219345
-0.02346
-0.024693
-0.0256237
-0.00375283
-0.0091647
-0.0104473
-0.00895509
-0.00781419
-0.00752745
-0.00791891
-0.00857948
-0.00952384
-0.0105986
-0.011864
-0.0131743
-0.0143956
-0.0154913
-0.016354
-0.0170488
-0.0175687
-0.0179799
-0.0183167
-0.0186417
-0.0222578
-0.0212498
-0.0110399
-0.00807867
-0.0075601
-0.00801596
-0.00866572
-0.00940347
-0.0102811
-0.0111611
-0.0120967
-0.0129906
-0.013815
-0.0145807
-0.0152991
-0.0159834
-0.0166615
-0.0173086
-0.0179636
-0.0185798
-0.0166828
-0.00970183
-0.00805767
-0.00776486
-0.00753003
-0.008037
-0.00872271
-0.00950262
-0.0102952
-0.0110937
-0.0118819
-0.012662
-0.0134315
-0.0141955
-0.0150102
-0.0158259
-0.0167131
-0.0176218
-0.0185821
-0.0194455
-0.0171477
-0.00884741
-0.00833073
-0.00816551
-0.00771142
-0.00806003
-0.00839895
-0.0092017
-0.00991409
-0.0107632
-0.0115342
-0.0123591
-0.0131928
-0.0140835
-0.0150537
-0.0161027
-0.0172251
-0.0183781
-0.0195069
-0.0204519
-0.0113147
-0.00972037
-0.00908788
-0.00910747
-0.00902249
-0.00871618
-0.00842069
-0.00894326
-0.00950692
-0.0103451
-0.0111267
-0.0120214
-0.0129261
-0.0138963
-0.0149108
-0.0160376
-0.017186
-0.0183418
-0.0193916
-0.0202491
-0.0259252
-0.00782061
-0.00668373
-0.00636392
-0.00661802
-0.00733023
-0.00734539
-0.00847015
-0.00883214
-0.00933535
-0.00995391
-0.010546
-0.0113061
-0.0120128
-0.0141887
-0.0151324
-0.0160989
-0.0170587
-0.0179069
-0.0185613
-0.00981694
-0.00654679
-0.00682206
-0.00607837
-0.00602738
-0.00674443
-0.00685223
-0.00727535
-0.00778321
-0.00755834
-0.00791257
-0.00855068
-0.00953488
-0.0105775
-0.0119542
-0.0138811
-0.014643
-0.0154409
-0.0161839
-0.0167721
-0.0113053
-0.0123175
-0.0121766
-0.00945072
-0.00702128
-0.00655221
-0.00650477
-0.00661506
-0.00653969
-0.00636059
-0.0066851
-0.00780162
-0.00939742
-0.0108522
-0.012286
-0.0134804
-0.0140654
-0.0147568
-0.0154934
-0.0161582
-0.0140589
-0.0126043
-0.0130795
-0.0102755
-0.00752989
-0.00705183
-0.00668713
-0.00679409
-0.00675785
-0.00650115
-0.00667099
-0.00768337
-0.00941819
-0.0110698
-0.0127384
-0.0139776
-0.0145817
-0.0152995
-0.016116
-0.0168995
-0.00579858
-0.00718047
-0.0079257
-0.00758732
-0.00596651
-0.00540458
-0.00512795
-0.00551204
-0.00581278
-0.0060067
-0.00672397
-0.00808053
-0.00984828
-0.0115121
-0.0133617
-0.015636
-0.0163536
-0.0171276
-0.0179452
-0.0186858
-0.000612628
-0.00399967
-0.00652847
-0.00588453
-0.00489522
-0.0047322
-0.00485427
-0.00565937
-0.00638679
-0.00731368
-0.00856951
-0.0100203
-0.0116333
-0.0131907
-0.0166234
-0.0178125
-0.0189803
-0.0201415
-0.02121
-0.0221216
-0.00370052
-0.00817524
-0.00654973
-0.00567658
-0.0047724
-0.00501065
-0.0054774
-0.0063213
-0.00740816
-0.00861738
-0.010092
-0.0117446
-0.0135355
-0.015387
-0.0172356
-0.0190431
-0.0207897
-0.0224925
-0.024119
-0.0255309
-0.00370289
-0.00621049
-0.00649758
-0.00613364
-0.00574437
-0.0056944
-0.00602421
-0.00652686
-0.00738234
-0.00861567
-0.0100723
-0.0117962
-0.0136894
-0.0157091
-0.0177542
-0.0197408
-0.021645
-0.0234375
-0.0251079
-0.0264358
-0.00132915
-0.00429947
-0.00631527
-0.00684975
-0.00674787
-0.00666239
-0.00699523
-0.0075552
-0.00832827
-0.00943159
-0.0107529
-0.0123515
-0.0141619
-0.0161597
-0.0182317
-0.0202807
-0.022215
-0.0240258
-0.0255718
-0.026648
-0.00103006
-0.00585946
-0.00733052
-0.00699268
-0.00701751
-0.00712048
-0.00785015
-0.00868032
-0.00966207
-0.0107062
-0.0119071
-0.0132291
-0.0148165
-0.016622
-0.018683
-0.0208563
-0.0231289
-0.0254734
-0.0276603
-0.029358
-0.000479244
-0.0030525
-0.00545413
-0.00614605
-0.0063072
-0.00685891
-0.00798977
-0.00933682
-0.0106104
-0.0116899
-0.0127188
-0.0137065
-0.0148345
-0.0161478
-0.0177158
-0.0195073
-0.0215186
-0.0238057
-0.026251
-0.0285724
-0.0127232
-0.00845145
-0.0083012
-0.00879651
-0.00786187
-0.00789937
-0.00866002
-0.00959622
-0.0106387
-0.0116318
-0.0128404
-0.0141746
-0.0157343
-0.0174547
-0.0192567
-0.0211531
-0.0231365
-0.0253079
-0.0275747
-0.0296672
-0.00218813
-0.0048835
-0.0074726
-0.00908516
-0.00959622
-0.0092331
-0.00854427
-0.00833277
-0.00866076
-0.00923734
-0.0102406
-0.0118024
-0.0141869
-0.0174691
-0.0215858
-0.0264056
-0.031627
-0.0371214
-0.0428378
-0.0494315
-0.033613
-0.0362394
-0.0383002
-0.0151699
-0.015308
-0.018818
-0.0188887
-0.0340626
-0.0383614
-0.0363258
-0.0152672
-0.0148852
-0.0182578
-0.0154713
-0.039361
-0.0275665
-0.0260792
-0.0193637
-0.0182296
-0.0149421
-0.0134903
-0.0332421
-0.0252115
-0.0229298
-0.0175197
-0.0149207
-0.0128625
-0.0110996
-0.113803
-0.111736
-0.117322
-0.100389
-0.0977941
-0.105923
-0.0900751
-0.119544
-0.116369
-0.112995
-0.0894219
-0.0868366
-0.0781228
-0.063035
-0.126967
-0.112894
-0.115506
-0.0944936
-0.122644
-0.0666558
-0.0986791
-0.147706
-0.117398
-0.129945
-0.131986
-0.154399
-0.111115
-0.140155
-0.182334
-0.136454
-0.154967
-0.161567
-0.174079
-0.146711
-0.155383
-0.199276
-0.158351
-0.155846
-0.174236
-0.159907
-0.154806
-0.146932
-0.176475
-0.151089
-0.131454
-0.152908
-0.136484
-0.143195
-0.130462
-0.138535
-0.124857
-0.109413
-0.132867
-0.123988
-0.126396
-0.116605
-0.131744
-0.140251
-0.13864
-0.132031
-0.0911181
-0.131714
-0.121065
-0.117707
-0.137931
-0.133559
-0.0781193
-0.0628586
-0.114045
-0.101081
-0.117052
-0.131897
-0.128673
-0.0659677
-0.0959652
-0.101586
-0.11403
-0.129179
-0.128431
-0.131625
-0.1084
-0.137298
-0.12007
-0.13594
-0.149048
-0.133754
-0.13793
-0.143455
-0.150397
-0.139362
-0.140872
-0.145165
-0.137076
-0.126119
-0.149452
-0.14167
-0.138242
-0.123929
-0.123004
-0.120894
-0.10667
-0.137798
-0.125135
-0.118859
-0.109872
-0.105234
-0.103439
-0.100524
-0.121396
-0.113175
-0.109084
-0.109016
-0.126648
-0.128666
-0.125215
-0.117383
-0.118669
-0.120648
-0.115481
-0.131183
-0.123165
-0.117088
-0.118016
-0.116045
-0.112677
-0.107443
-0.131029
-0.116147
-0.117955
-0.116617
-0.123627
-0.107713
-0.112444
-0.133199
-0.119305
-0.122372
-0.127301
-0.13743
-0.113975
-0.113488
-0.135679
-0.122467
-0.117419
-0.13928
-0.135332
-0.110519
-0.0965323
-0.120686
-0.113905
-0.101923
-0.130601
-0.113737
-0.0934565
-0.0940176
-0.102749
-0.0985174
-0.0944641
-0.10978
-0.106669
-0.0961946
-0.105198
-0.100827
-0.0955785
-0.105511
-0.107578
-0.11217
-0.108892
-0.118687
-0.132901
-0.160845
-0.153852
-0.133689
-0.120833
-0.156937
-0.141931
-0.119426
-0.150159
-0.135717
-0.116749
-0.105403
-0.130817
-0.107036
-0.112083
-0.128782
-0.110448
-0.102961
-0.10046
-0.102708
-0.092122
-0.112485
-0.106272
-0.097613
-0.100048
-0.0957034
-0.0902726
-0.0891964
-0.107373
-0.0956671
-0.0914463
-0.0929711
-0.0866353
-0.0903879
-0.0962651
-0.0958024
-0.0908957
-0.0928916
-0.0869867
-0.0933251
-0.0986072
-0.105066
-0.0935737
-0.0957058
-0.110627
-0.0961163
-0.105747
-0.107359
-0.11374
-0.108344
-0.117468
-0.141279
-0.10931
-0.117431
-0.11642
-0.124917
-0.043471
-0.0660304
-0.041424
-0.0468251
-0.0318614
-0.0468033
-0.0281268
-0.0435478
-0.0369296
-0.0370897
-0.0297885
-0.037214
-0.0248656
-0.0270121
-0.0745907
-0.0408862
-0.0688125
-0.0417413
-0.0507901
-0.0308302
-0.042811
-0.10344
-0.0825215
-0.108038
-0.0525446
-0.0510796
-0.0451276
-0.0455209
-0.0925203
-0.110084
-0.105742
-0.0484908
-0.0400854
-0.0446062
-0.0428874
-0.0724068
-0.105063
-0.107406
-0.0373212
-0.0323932
-0.0431644
-0.0447543
-0.0824504
-0.108019
-0.104315
-0.0318713
-0.032047
-0.0451472
-0.0447523
-0.0909419
-0.101659
-0.0927366
-0.0324023
-0.0327202
-0.0440961
-0.040836
-0.0449678
-0.0820393
-0.0632129
-0.0503465
-0.029273
-0.0589982
-0.0469264
-0.0383837
-0.0582459
-0.0541465
-0.0258196
-0.0264839
-0.0438628
-0.0405264
-0.0656728
-0.055876
-0.0721199
-0.0297778
-0.0409508
-0.0412106
-0.0450008
-0.104746
-0.0806755
-0.101003
-0.0432983
-0.0449476
-0.0465019
-0.0497349
-0.10416
-0.104916
-0.107122
-0.0446532
-0.0446937
-0.0502803
-0.0481139
-0.106408
-0.104523
-0.0875188
-0.0451894
-0.0461435
-0.0462512
-0.0400632
-0.0974706
-0.0811581
-0.0680892
-0.0459218
-0.0434101
-0.0380721
-0.0331893
-0.0839658
-0.0658979
-0.0613675
-0.0422041
-0.0380917
-0.0318175
-0.028156
-0.0667917
-0.0466481
-0.0350116
-0.0490157
-0.0442199
-0.0335143
-0.0252887
-0.0690101
-0.0344482
-0.0442406
-0.0435102
-0.0438111
-0.0252815
-0.0297652
-0.0846988
-0.05082
-0.0692701
-0.0446019
-0.0477769
-0.0317906
-0.0364375
-0.104416
-0.0725198
-0.0709964
-0.0489195
-0.050739
-0.0371355
-0.0367257
-0.0986471
-0.0674488
-0.0570551
-0.050115
-0.0437957
-0.0360187
-0.0336418
-0.0733912
-0.0552175
-0.0549017
-0.0416457
-0.036137
-0.0330342
-0.0314973
-0.0624182
-0.055688
-0.0573005
-0.0347058
-0.0312017
-0.0309351
-0.0287595
-0.0599668
-0.0573298
-0.0541274
-0.0301004
-0.0269806
-0.0278667
-0.0251786
-0.0255316
-0.0397577
-0.024098
-0.021905
-0.0185271
-0.0277725
-0.0170309
-0.0337598
-0.0212157
-0.0245248
-0.0188509
-0.0233154
-0.0157525
-0.0171829
-0.0490838
-0.0269491
-0.0337895
-0.0253102
-0.0300313
-0.0184803
-0.0221647
-0.0520533
-0.0360362
-0.0438601
-0.0309201
-0.0318327
-0.0230845
-0.0247446
-0.0503074
-0.0468646
-0.0530755
-0.0317849
-0.0312832
-0.0250372
-0.0251908
-0.0559638
-0.053197
-0.0463591
-0.0310768
-0.0301991
-0.0250253
-0.0241491
-0.0545664
-0.0433696
-0.0354837
-0.0297554
-0.02775
-0.0237837
-0.0224769
-0.0491057
-0.0340901
-0.0317971
-0.026904
-0.0244241
-0.0222151
-0.0222778
-0.018468
-0.0241572
-0.0166586
-0.0182386
-0.0153331
-0.0168737
-0.013088
-0.0243369
-0.0165015
-0.0195574
-0.0156454
-0.0176821
-0.012636
-0.0134817
-0.03345
-0.021993
-0.0314567
-0.0179719
-0.0174595
-0.0140596
-0.0149656
-0.0317298
-0.0333473
-0.0331562
-0.0169659
-0.014894
-0.0149813
-0.0144864
-0.0231182
-0.0324583
-0.0317216
-0.0139693
-0.0116599
-0.0142851
-0.0137012
-0.0202874
-0.0321536
-0.0335447
-0.0109877
-0.00969524
-0.0135171
-0.0127811
-0.0218596
-0.0338091
-0.03336
-0.00944349
-0.00903557
-0.0125097
-0.0116599
-0.0223904
-0.0328045
-0.0298779
-0.00899289
-0.00905941
-0.0114028
-0.0107035
-0.0171316
-0.0352386
-0.0259333
-0.017187
-0.0131149
-0.0208401
-0.0170835
-0.0188173
-0.0238489
-0.0249624
-0.0126046
-0.0132844
-0.0165342
-0.0162935
-0.0299464
-0.0271212
-0.0346096
-0.0138443
-0.014979
-0.0165774
-0.0178209
-0.0251022
-0.0332792
-0.0320976
-0.0236312
-0.0336853
-0.0242536
-0.0240226
-0.0272734
-0.033426
-0.0356058
-0.0247673
-0.0358663
-0.025002
-0.0268983
-0.0350674
-0.0346911
-0.0293439
-0.0146461
-0.0135304
-0.014594
-0.012101
-0.0326721
-0.0276052
-0.0231975
-0.013093
-0.0118562
-0.0114006
-0.0099741
-0.028003
-0.0219676
-0.0187312
-0.0114957
-0.0106372
-0.00971353
-0.00949609
-0.0293367
-0.0182612
-0.0156071
-0.019147
-0.0169488
-0.0128491
-0.0109664
-0.0308637
-0.0161903
-0.0212011
-0.0167806
-0.0172369
-0.0113935
-0.0136129
-0.0379155
-0.0232205
-0.0272305
-0.0176209
-0.0186378
-0.0142673
-0.0151048
-0.029552
-0.0396366
-0.0386123
-0.0295757
-0.0387839
-0.0311705
-0.0294109
-0.0249804
-0.0368489
-0.0355831
-0.0305063
-0.0335924
-0.0291309
-0.0265595
-0.0259071
-0.0222662
-0.0203231
-0.0139234
-0.0113721
-0.0106012
-0.00951044
-0.020999
-0.0196366
-0.0172731
-0.0107305
-0.00955039
-0.00932577
-0.00939691
-0.0172409
-0.0164465
-0.0144336
-0.00939197
-0.00953538
-0.00961654
-0.0107204
-0.0104791
-0.0110909
-0.00776149
-0.00873783
-0.00854683
-0.00900645
-0.00677848
-0.0154877
-0.00765485
-0.00945503
-0.00901585
-0.011381
-0.00681185
-0.00769158
-0.0209834
-0.0104134
-0.0131364
-0.0120964
-0.0130689
-0.00803974
-0.00880693
-0.021575
-0.0137834
-0.0150361
-0.0129889
-0.0120448
-0.0089373
-0.00913636
-0.0210099
-0.0152698
-0.0149787
-0.0116427
-0.0104845
-0.00917765
-0.00921316
-0.0192014
-0.0146426
-0.0131514
-0.0101516
-0.00946381
-0.00924751
-0.00953272
-0.0160806
-0.0127986
-0.0122494
-0.0093943
-0.00972787
-0.00975406
-0.0106382
-0.0139089
-0.0123407
-0.0131268
-0.0100108
-0.0112481
-0.0110937
-0.0126139
-0.00992494
-0.00959739
-0.00866434
-0.00941516
-0.00860109
-0.00841815
-0.00787703
-0.0115003