/*--------------------------------*- C++ -*----------------------------------*\
  =========                 |
  \\      /  F ield         | OpenFOAM: The Open Source CFD Toolbox
   \\    /   O peration     | Website:  https://openfoam.org
    \\  /    A nd           | Version:  10
     \\/     M anipulation  |
\*---------------------------------------------------------------------------*/
FoamFile
{
    format      ascii;
    class       volScalarField;
    location    "1.6";
    object      k;
}
// * * * * * * * * * * * * * * * * * * * * * * * * * * * * * * * * * * * * * //

dimensions      [0 2 -2 0 0 0 0];

internalField   nonuniform List<scalar> 
12920
(
1237.34
2807.73
1569.05
727.314
673.264
574.508
356.79
218.132
160.872
135.799
118.03
102.667
87.0378
78.8853
77.4019
78.2034
81.9186
84.8288
84.3153
78.7288
2254.4
3149.2
1853.94
793.595
626.719
452.526
345.089
293.055
240.887
206.739
176.895
158.367
140.497
122.628
107.12
92.8387
81.4528
71.1703
67.0434
61.348
1133.21
2018.48
1934.4
989.692
633.474
486.728
379.407
324.115
244.856
207.012
177.689
160.081
137.479
112.164
89.1783
68.8428
58.2312
48.8367
44.6668
35.7056
339.646
1662.64
1604.57
992.313
644.797
428.876
302.961
233.121
157.223
113.118
82.6875
79.26
77.7642
72.6836
57.2036
42.1319
31.4643
18.5942
10.9722
7.18806
308.902
1653.92
1490.08
1044.1
765.642
561.21
394.586
273.462
171.949
97.388
45.2968
29.3851
24.1767
22.1077
16.5596
10.128
5.46139
2.29094
1.27196
0.91948
979.478
1898.97
1553.04
1057.64
736.985
580.962
428.244
322.015
197.155
98.6745
32.2438
11.9254
6.1963
3.86188
2.13932
1.09294
0.461733
0.145327
0.0481266
0.0359928
1202.7
2760.31
2355.81
1179.58
683.946
489.813
393.299
276.532
149.252
49.0451
11.8682
6.10653
11.9049
10.6632
7.5545
5.35071
3.17804
1.33736
0.396189
0.073348
278.048
1807.51
2357.27
2305.14
1671.62
903.691
474.957
226.805
151.447
66.2978
11.742
10.8422
24.453
36.2818
45.8987
25.3955
14.7058
7.17489
2.7972
0.673939
1061.32
2609.61
2583.67
2398.5
1868.73
923.444
371.323
158.891
148.138
141.098
80.9368
36.6855
54.0429
72.7671
89.3245
50.5992
26.887
14.6413
6.92858
2.15762
1454.51
2316.92
2260.64
1932.84
1482.37
846.368
314.114
151.918
132.372
138.587
179.001
175.191
73.2506
82.5585
135.657
69.4929
34.485
19.6412
9.44616
3.03679
8151.93
2818.16
1895.4
1254.9
948.337
535.352
254.621
116.5
105.566
110.287
93.7856
83.5181
78.3527
62.1747
99.0007
40.1797
33.6351
27.049
12.5598
3.7049
9493.25
4721.51
2719.81
1182.47
777.67
429.562
268.158
196.335
190.264
154.019
150.66
177.109
126.971
58.1525
65.9292
40.6944
37.8741
31.2769
15.0693
4.70767
711.491
2534.52
2412.68
1449.3
874.996
749.074
445.55
311.586
242.329
185.964
147.451
135.682
85.0454
56.2087
67.3902
54.9746
49.498
43.9279
36.633
18.189
765.497
1532.91
1816.57
1765.99
1290.19
905.83
675.798
502.188
367.426
249.787
173.337
123.69
96.7705
78.0322
65.4153
60.8456
58.7929
55.5105
52.251
40.6681
2503.6
2718.91
1808.02
1133.79
826.423
710.916
544.365
407.187
281.615
191.785
137.449
105.82
84.1809
70.0358
65.3709
66.0727
66.8195
64.5489
57.5992
34.2437
501.877
2289.73
1800.88
1185.88
875.287
773.861
576.283
423.379
284.584
201.236
150.438
117.669
89.8855
62.7972
42.1681
28.3682
22.7827
22.6877
24.0598
21.7041
1041.51
1264.23
1270.7
921.697
656.617
616.311
511.902
396.569
294.148
249.069
196.224
142.916
92.5012
53.3332
28.8518
16.4276
12.096
11.7466
13.0823
14.087
5578.33
3112.15
1712.27
1000.82
565.81
477.208
453.125
386.213
295.239
259.209
228.284
199.769
161.117
125.29
93.6864
66.7604
46.2304
29.3833
21.8653
14.215
4059.22
1135.06
502.159
506.898
572.848
562.801
458.018
352.2
272.145
218.649
172.712
130.75
98.9138
77.7746
65.0966
52.011
37.1952
22.1226
13.2681
5.81118
726.595
222.762
76.0388
90.2392
162.233
252.535
265.802
258.44
225.696
177.154
142.014
113.621
89.2648
66.4418
45.4564
26.811
13.508
5.70546
2.31481
0.697972
2139.27
6252.22
4988.25
2416.16
1695.72
1273.27
816.627
501.203
350.264
280.517
238.837
214.728
197.774
187.535
178.875
168.106
160.013
142.984
124.768
106.856
5604.21
9776.35
5408.15
2377.48
1644.57
1111.44
830.895
695.465
570.607
505.147
438.268
404.937
361.907
320.311
268.108
207.189
144.829
98.3972
83.0584
82.0284
2604.56
5999.76
4902.98
2425.2
1602.16
1177.48
897.06
766.826
589.626
521.503
446.278
404.749
340.606
270.979
194.134
121.14
79.6107
49.8631
39.6445
29.2938
755.218
4913.33
4246.2
2403.21
1606.52
1030.33
735.918
573.926
366.341
289.158
224.721
215.185
197.078
158.625
106.677
59.4748
30.2992
12.8768
5.28703
2.86646
2185.58
4549.22
3937.15
2569.78
1813.19
1330.93
869.281
621.141
323.937
172.725
78.3609
53.3113
42.276
35.5736
21.9281
10.3675
4.07222
1.26004
0.424047
0.246453
4915.37
5542.34
4159.37
2714.12
1721.45
1411.72
974.605
715.032
342.089
144.039
47.4325
18.6205
8.68502
4.55601
2.47826
1.40057
0.61987
0.188793
0.0440976
0.0147411
1888.44
6230.57
4985.13
2597.16
1625.53
1231.55
965.723
616.915
274.657
81.8136
33.5924
14.9296
20.5601
16.0677
14.9019
12.7093
6.82636
2.3163
0.610348
0.107244
5307.41
5176.18
4946.01
4688.39
3030.8
1795.87
1236.26
978.718
475.472
286.148
66.416
90.6624
86.8516
94.6231
91.5861
63.9778
31.8982
12.605
4.16326
0.911
10992.7
7556.81
5959.32
5018.13
2874.36
1967.31
1275.43
971.452
822.158
701.839
533.515
279.104
245.136
259.826
221.239
141.163
67.9009
29.5786
11.5282
3.1313
1055.7
6727.72
6040.93
4181.87
2754.01
2076.22
1342.49
994.812
833.554
783.551
806.597
754.323
516.56
391.421
328.974
162.063
80.4917
44.0433
19.6589
5.60552
25233.8
8533.54
5430.49
3157.33
2058.76
1686.78
1206.92
874.144
709.645
610.874
555.044
517.078
464.869
401.636
294.401
89.2526
63.2559
52.5331
28.2949
8.01111
8710.19
10918.7
6608.3
2859.74
1959.75
1453.94
1244.95
1146.18
977.177
807.294
779.064
784.194
648.377
262.429
165.425
76.8327
72.7776
64.4521
33.1519
8.8118
6424.02
8622.03
5964.04
3201.78
2052.27
1783.99
1404.21
1192.67
865.621
690.823
566.452
491.128
325.553
212.625
167.722
127.541
99.7363
69.9617
47.5177
20.8121
10379
5978.58
4900.18
4164.16
2709.4
2087.2
1572.72
1149.93
820.084
566.289
412.581
297.934
225.367
168.329
137.239
127.051
115.017
97.5247
88.2144
65.0234
15194.2
7473.12
4042.38
2684.28
1983.49
1700.58
1203.85
890.608
585.575
433.627
330.993
268.514
231.274
215.605
213.174
206.96
189.554
150.516
114.845
58.2888
1630.01
6120.49
4529.51
2869.2
2108.85
1846.48
1276.17
959.55
624.762
466.227
350.947
269.589
216.909
158.614
112.831
72.965
48.9704
38.7116
37.8211
28.6759
6694.8
4274.12
2857.65
2420.63
1759.34
1645.71
1192.23
932.917
659.117
521.468
357.518
224.894
122.265
61.3407
30.016
15.4567
9.48268
8.53122
11.1004
12.628
9300.12
4932.06
2653.33
2379.92
1692.54
1477.61
1136.41
932.35
704.922
607.427
499.17
416.779
301.187
196.053
119.478
72.2963
44.9781
26.7718
20.2198
12.0213
5764.56
1313.94
791.536
1170.34
1358.43
1310.83
1015.47
818.143
586.765
467.872
350.714
267.405
186.966
128.27
85.9542
56.1485
33.3663
16.2679
7.54389
2.53435
168.997
90.8347
261.458
514.509
499.926
543.173
541.273
522.461
439.556
353.352
286.032
224.771
161.143
104.097
60.2376
30.7159
13.5036
5.00293
1.64307
0.396388
12456.8
8173.35
6086.09
3650.5
2298.86
1529.29
955.753
583.388
409.289
329.994
285.114
255.27
233.041
218.631
206.326
186.609
166.008
139.679
116.274
96.6314
20708.6
13210.1
7366.18
3672.66
2223.78
1459.82
1068.7
878.026
726.315
650.946
575.592
539.772
481.03
419.767
329.864
230.096
141.02
78.2966
56.1983
64.6966
4586.54
8562.54
6340.18
3331.95
2137.72
1497.15
1161.28
962.904
764.298
678.15
585.085
529.048
435.55
332.275
211.298
106.447
44.5418
18.2417
13.1199
15.1634
283.061
4398.46
5661.14
3508.18
2161.95
1357.72
1008.8
767.893
527.579
449.34
361.18
329.966
261.588
179.189
98.5945
42.6786
15.2646
4.54454
1.67759
1.65275
6523.57
7016.67
5293.55
3333.19
2333.19
1540.88
1056.22
745.44
420.892
281.805
160.135
113.897
67.8232
39.0428
18.1274
6.68281
2.01382
0.516378
0.163742
0.165597
3515.86
6800.82
5310.41
3343.44
2281.16
1617.02
1160.42
812.026
399.797
216.177
97.6133
45.9913
16.9411
5.66599
2.10922
1.04956
0.516325
0.197423
0.0542288
0.0179601
5545.27
9004.68
6392.41
3450.79
2327.4
1615.27
1265.56
751.637
360.537
153.568
81.5298
29.2958
24.0004
12.028
11.8803
11.1102
7.25272
3.25691
1.38585
0.339956
10837.7
7519.26
6577.75
5978.25
3775.38
2353.84
1757.77
1264.05
594.822
379.68
146.071
161.355
115.154
98.4126
97.3078
83.4586
48.1835
22.9172
12.4064
5.39076
15265.6
11981.9
7889.81
5375.02
3275.31
2338.38
1807.19
1407.05
1062.96
869.011
650.35
431.399
381.055
323.241
266.728
250.73
151.013
72.9767
36.9046
19.3378
12355.9
10066.2
8207.46
5615.1
3860.75
2959.25
2021.16
1466.27
1202.22
1093.71
1050.43
920.907
730.085
607.006
470.578
324.537
214.396
124.545
64.5463
29.7991
28982
11410.4
7172.82
4350.35
3045.09
2624.11
2009.18
1425.81
1129.21
1003.37
788.389
682.149
645.856
606.742
491.734
282.366
215.463
132.825
70.0808
32.5018
21570.4
11999.1
7261.26
3689.55
2714.95
2112.04
1840.28
1550.88
1279.56
1075.03
1018.25
959.066
793.886
476.547
271.724
258.074
209.176
119.883
56.121
23.7613
19198.3
13590.1
7052.77
3725.62
2748.05
2230.51
1879.16
1533.07
1107.26
889.596
741.833
608.095
455.504
360.214
358.415
302.477
215.89
118.424
60.4078
22.4084
16284.4
10817.9
7169.1
5031.03
3214.71
2382.23
1788.37
1283.74
975.296
739.578
609.518
494.946
423.575
352.698
318.117
284.437
236.73
193.441
169.251
99.8632
15080.5
11334
5156.71
3253.75
2454.8
1874.82
1378.19
998.666
748.016
591.656
509.62
440.16
394.919
353.701
321.032
273.646
221.57
169.201
128.225
55.9237
6810.41
9095.32
6039.49
3569.83
2675.05
2123.47
1393.76
1004.55
685.262
500.958
406.781
325.444
285.259
221.751
170.913
112.288
73.3914
42.8975
28.529
12.8162
9060.33
5520.36
4405.46
3130.16
2511.23
2060.37
1357.41
1015.94
677.308
465.857
292.373
173.068
105.499
59.5942
33.8634
18.053
10.1001
5.86907
4.55707
4.68198
10274.7
5791.06
3600.84
2925.62
2302.66
2056.22
1432.99
1098.85
781.627
609.595
427.875
265.995
135.74
61.6889
29.4546
15.7727
9.52555
6.66002
6.01342
3.86705
7017.82
2205.67
1743.55
1937.55
1812.58
1566.86
1141.95
904.965
645.671
488.482
339.329
224.888
138.664
84.7741
49.8907
26.7887
12.2684
4.56186
1.59065
0.404506
163.128
177.753
849.723
984.342
879.141
783.86
678.963
567.881
458.171
363.052
283.713
210.579
146.071
92.2883
52.4802
25.6708
10.4681
3.61783
1.10701
0.248507
16025.2
8626.79
6037.5
4015.56
2499.83
1556.67
938.602
568.925
405.346
331.573
290.778
260.884
238.627
226.89
220.632
206.153
183.623
162.052
147.9
123.088
19581
13843.1
8646.95
4367.12
2716.75
1708.33
1296.37
1047.63
896.594
806.474
731.422
683.157
613.773
531.183
429.644
322.509
242.607
185.506
150.644
149.407
21066.6
13086
7989.64
3907.12
2638.93
1734.21
1434.85
1139.51
958.893
848.36
751.554
667.87
552.985
426.159
290.456
168.017
94.6308
60.7218
56.5049
72.9321
8707.3
10649.7
8603.01
4245.44
2699.51
1608.85
1288.58
944.62
729.812
632.759
531.883
468.214
348.862
228.102
123.156
55.956
23.9731
12.0625
11.4061
15.9823
7122.19
10592.8
7408.53
4068.06
2869.74
1697.33
1294.37
870.206
588.659
445.727
312.668
237.048
148.117
81.7117
38.936
16.6437
7.41517
3.45512
2.5722
2.97526
15847.8
9150.71
6532.4
3980.34
2877.85
1794.45
1378.37
910.946
545.373
367.827
207.064
140.081
65.4811
30.2577
13.5055
7.09988
4.7043
3.01409
1.44842
0.819142
11356.7
10812.8
7730.09
4053.62
2961.34
1871.16
1505.58
853.012
519.762
281.886
161.79
60.5081
37.4748
19.1657
21.6038
25.0074
27.9269
27.0339
21.8805
8.91598
24124.9
13663.9
9957.26
6700.99
4370.18
2802.63
2139.74
1310.64
684.49
432.224
247.336
206.612
102.314
84.5754
118.857
115.647
102.067
91.521
85.3912
67.4271
14477.1
15382.5
10116.2
5816.39
3876.39
2802.65
2220.15
1623.42
1131.44
886.795
594.462
497.253
430.344
313.148
288.873
295.351
209.56
155.407
136.938
121.918
14323.4
11647.9
10361
7004.67
4948.8
3626.34
2459.01
1803.33
1441
1253.94
1081.51
910.598
797.978
697.223
556.331
482.466
344.699
235.045
179.638
143.658
33515.3
11896.5
8798.68
5183.47
3913.38
3313.4
2516.79
1813.69
1461.96
1303.62
1111.99
863.312
696.329
723.715
689.59
560.089
394.874
258.565
191.466
150.84
24567.3
12203.2
7978
4295.65
3443.7
2653.52
2280.13
1830.3
1475.91
1234.72
1107.12
957.537
748.161
594.009
591.008
533.125
349.058
210.885
150.286
125.69
13839.2
12174.9
7373.35
4079.48
3412.32
2527.08
2158.47
1699.65
1237.99
980.846
818.074
681.093
609.042
594.29
614.338
464.438
293.43
169.815
112.655
69.4889
17795.5
12935.2
8025.04
4906.4
3644.41
2546.41
1969.53
1384.82
1106.53
872.243
778.625
696.922
664.762
638.719
596.861
495.984
383.639
280.029
201.718
88.0029
14766.3
15536.4
6847.92
3692.13
2841.6
1883.35
1574.31
1085.55
914.829
741.771
687.803
615.328
586.214
540.585
497.451
405.233
300.502
190.459
101.806
34.8188
4074.07
10942.8
8389.9
4191.12
3146.86
2133.98
1479
996.086
754.746
562.847
502.513
416.983
381.095
303.566
239.14
157.877
99.6914
61.03
39.1256
22.074
13655.2
7607.5
5645.16
3697.07
3049.94
2080.66
1431.86
960.862
648.611
420.725
301.836
212.474
173.371
125.095
94.037
61.1603
42.116
29.1139
18.3715
10.7575
11171.9
7317.52
4969.45
3524.55
2921.26
2156
1549.95
1106.92
780.215
540.314
343.605
207.658
134.07
92.5046
66.0717
43.0541
26.3004
13.511
8.75307
7.14296
11850.2
4884.72
3816.44
2664.89
2249.48
1608.84
1200.89
878.968
630.152
442.369
290.835
184.926
120.578
79.8897
53.0634
35.1173
21.6589
12.2406
7.26271
4.98387
75.8746
727.806
1440.52
1370.29
1017.19
784.769
642.19
506.997
410.414
319.985
245.201
176.7
121.458
76.2406
42.6833
20.7679
8.80555
3.24895
1.04185
0.242163
5145.23
4899.61
4431.45
3367.74
2136.79
1159.75
643.83
437.939
350.008
299.527
264.216
239.673
229.019
224.738
225.263
222.428
212.157
209.837
211.716
197.799
26740.1
13120.1
9305.06
4507.4
3405.39
1861.45
1822.35
1369.99
1345.05
1132.11
1103.92
969.934
914.205
777.564
716.63
608.058
582.416
536.127
522.613
497.96
19361.7
16007.2
9365.06
4385.85
3398.85
2001.96
1989.82
1443.41
1413.34
1172.57
1130.56
942.103
851.74
672.286
613.638
496.92
452.266
418.447
418.805
424.571
18730.6
17488.9
11618.3
4888.61
3553.67
1924.25
1879.13
1279.39
1213.91
974.999
915.288
732.163
616.991
462.407
389.291
297.265
248.164
217.745
220.255
229.676
18727.2
15570.7
9710.72
4796.99
3746.37
1932.28
1855.58
1139.87
1038.44
739.979
671.992
496.57
434.601
317.861
266.861
201.041
164.513
123.219
115.36
122.79
16538.4
10294.4
8468.95
4745.1
3999.73
2113.72
2002.39
1241.92
986.675
652.046
481.55
372.849
266.867
207.697
159.945
132.916
113.034
88.0486
66.1315
62.0272
12139.2
10804.7
9023.91
4540.42
3945.62
2168.35
2041.42
1171.54
900.184
510.934
341.874
198.892
185.013
150.571
167.022
181.166
215.831
230.133
224.76
169.827
16691.9
11303.6
11165.7
7262.26
5772.48
3412.82
2606.14
1445.23
934.944
575.974
449.325
292.457
239.458
224.917
319.03
311.002
319.087
341.029
348.813
352.084
15507.7
14478.7
11634.8
6050.46
4677.02
3313.31
2756.49
1856.49
1301.49
940.768
663.061
614.115
496.393
397.743
426.421
414.267
373.992
376.957
388.943
407.209
9804.86
12266.4
13196
8280.04
6632.63
4323.2
3050.05
2357.26
1865.23
1428.05
1044.92
896.715
854.402
783.941
715.365
608.194
478.347
428.878
416.946
422.869
16274.1
12252.4
10221.3
6021.85
4825.59
3776.86
3052.33
2406.88
2031.41
1645.23
1273.45
870.846
784.66
989.091
960.65
744.572
534.342
454.362
431.111
434.259
37508
15425.6
9685.72
4977.52
4646.48
3246.43
2809.15
2292.14
1855.92
1484.01
1180.87
918.248
842.341
959.689
955.422
695.331
499.952
427.197
414.551
425.659
32496.5
11932.7
8220.36
4969
4420.45
2817.3
2548.39
1866
1470.21
1143.38
1017.04
920.294
942.202
959.429
867.935
613.794
477.355
425.953
421.249
421.129
27187
13489.2
8943.31
4940.85
4735.94
2832.68
2529.32
1595.36
1438.07
1096.61
1101.89
1027.95
1058.71
1032.48
945.562
766.486
669.731
534.024
437.609
337.23
14882.3
18212.6
10003.3
4590.25
3531.71
2093.42
2055.22
1247.01
1225.07
961.167
970.511
870.503
872.256
800.494
736.236
585.662
488.335
372.191
296.667
246.312
7666.33
12836.2
11162.7
5028.16
4023.46
2152.94
1872.69
1059.94
1013.03
733.576
723.597
583.134
565.279
466.007
432.5
347.409
318.864
268.335
244.342
242.592
17171.7
10126.1
6978.34
4506.31
3643.78
2082.28
1700.36
911.871
786.953
480.694
482.513
403.734
413.453
376.521
358.688
301.771
262.108
218.99
205.715
212.702
14003.5
8005.46
6434.09
4024.14
3613.89
2121.59
1890.36
1109.99
950.754
571.151
535.097
443.143
446.768
402.732
383.766
328.644
290.151
234.03
204.567
207.913
32748.4
10672.2
6647.94
3435.07
2924.3
1622.54
1464.1
858.433
775.558
498
448.549
346.208
336.949
311.912
307.622
292.312
267.216
228.747
202.247
185.23
1993.56
2182.08
2263.26
1868.99
1098.94
688.364
509.614
380.837
296.626
220.711
164.607
118.799
82.8711
53.909
32.7076
18.3607
9.3992
4.35993
2.03043
1.14842
1067.46
1007.43
868.263
1222.58
1133.42
1227.62
1068.82
959.978
824.972
754.756
1091.92
961.343
985.821
880.591
847.838
1081.18
1038.87
1230.88
1075.83
1222.38
1154.19
705.347
1031.49
1000.47
995.381
843.632
1131.77
1042.74
177.307
305.074
160.872
915.025
797.003
861.614
836.713
148.424
149.542
129.184
784.342
736.914
809.992
724.435
144.557
129.247
145.328
712.339
638.312
709.905
704.593
113.214
156.596
181.9
620.275
534.184
710.36
722.373
36.672
184.523
165.882
454.527
247.071
718.832
648.121
48.5969
124.53
63.2902
226.399
203.062
567.859
371.961
71.1819
69.0384
80.0932
210.619
234.49
366.815
325.479
58.1493
81.6716
84.1089
234.372
201.385
310.237
291.881
163.963
322.072
157.103
969.791
858.145
1013.86
830.123
135.045
132.51
97.3843
825.354
726.973
760.711
607.977
134.315
89.7117
76.4731
700.761
667.54
559.092
449.825
169.37
74.1249
66.5622
669.909
703.33
422.755
388.961
183.062
66.3008
70.6987
712.456
700.991
386.615
397.086
81.8669
75.7524
105.583
677.217
487.12
416.604
473.158
81.4716
116.087
75.9615
435.241
370.773
485.548
436.356
82.4132
69.408
65.628
334.687
294.849
428.595
289.182
131.249
239.695
180.047
834.065
721.094
854.931
924.782
105.526
185.687
191.529
685.2
604.202
926.702
870.755
109.31
190.082
169.063
576.781
520.065
839.134
736.318
99.8774
158.439
150.493
507.634
465.213
706.493
681.791
84.847
153.731
180.69
449.089
408.409
686.422
715.768
77.3047
186.933
177.495
403.985
362.273
717.123
681.697
77.5087
180.633
115.963
358.023
323.244
656.459
412.762
54.4219
75.4009
36.9424
326.832
295.593
290.327
210.417
198.188
330.047
208.94
1009.7
1007.05
1032.68
1069.55
192.946
196.456
164.599
992.831
897.356
1020.42
829.747
166.061
155.755
129.239
858.999
738.715
770.392
635.604
146.769
121.214
110.815
705.911
679.243
605.695
554.043
175.886
108.395
106.966
684.171
706.807
541.49
512.429
152.19
106.648
77.3245
704.876
635.154
497.472
356.469
76.5031
47.4881
30.7537
573.18
288.967
289.695
144.133
43.3521
33.529
34.2695
222.536
173.113
133.67
132.394
1008.87
1220.72
1026.04
1676.75
1400.75
1752.28
1433.93
864.278
981.654
868.815
1325.52
1105.22
1358.96
1181.28
722.088
846.088
816.359
1025.61
871.045
1136.49
1049.41
608.014
815.586
812.517
844.715
719.229
1034.25
988.052
306.697
803.7
718.449
642.964
434.275
962.273
841.774
240.829
648.403
445.375
402.439
352.415
788.747
627.987
261.557
423.403
377.667
350.957
332.115
590.314
537.722
213.042
360.118
321.424
315.222
239.15
516.095
429.327
1045.33
1410.36
1028.23
1879.84
1454.37
1973.69
1464.63
866.746
943.499
758.098
1370.43
1178.23
1354.05
1109.57
783.694
702.745
578.707
1129.38
1042.86
1045.03
909.468
802.64
550.283
524.571
1033.42
1019.69
898.178
830.832
783.362
523.273
533.433
1009.22
935.411
806.896
765.29
579.148
548.444
575.651
897.768
748.085
765.742
753.751
427.663
576.972
501.371
692.374
587.145
742.581
648.589
327.29
485.935
324.987
559.835
453.811
624.797
487.138
933.68
1142.73
1097.4
1839.49
1416.31
1681.51
1478.96
747.111
1082.9
991.877
1312.9
1094.01
1420.67
1251.27
628.874
952.673
837.253
1038.72
919.076
1196.28
1056.79
569.704
806.772
778.702
904.637
815.566
1025.83
987.845
521.4
781.301
797.912
779.221
716.12
983.769
966.448
473.513
796.259
750.724
699.401
652.101
949.255
870.084
417.142
723.262
476.299
636.61
589.093
831.615
578.08
332.341
352.487
236.197
573.688
488.459
491.503
373.12
1173.08
1347.44
1276.62
1705.84
1528.28
1830.43
1649.7
1023.97
1199.43
963.749
1470.75
1285.32
1536.51
1228.66
841.08
891.312
737.104
1221.55
1058.49
1133.8
943.842
776.456
705.085
644.393
1023.31
979.828
906.586
823.954
789.877
629.332
588.692
975.366
952.688
800.045
727.608
706.25
568.738
412.194
932.419
833.212
694.462
520.015
337.204
348.272
186.69
776.505
478.828
463.457
309.292
198.258
169.694
148.87
420.228
302.511
284.202
225.546
1495.31
1898.53
1534.89
2112.46
1709.35
2234.01
1794.64
1151.86
1452.52
1254.74
1578.59
1228.2
1689.84
1425.91
896.739
1203.48
1101.01
1119.96
925.858
1355.1
1204.26
729.871
1081.7
1020.43
888.763
694.552
1169.23
1045.19
458.835
988.755
859.936
616.593
493.973
994.106
856.618
385.556
811.209
669.218
485.601
446.037
823.66
741.626
345.824
634.445
583.859
428.585
350.471
716.929
662.434
241.212
559.812
454.128
318.018
243.879
622.255
494.065
1557.53
2124.53
1575.73
2349.13
1828.85
2477.53
1868.59
1255.58
1459.31
1202.07
1716.74
1449.25
1736.29
1448.99
1105.99
1136.26
1003.07
1381.44
1249.45
1379.97
1258.33
1136.38
1085.77
1075.74
1144.63
1073.32
1132.56
1141.04
1095.12
1026.82
1067.44
1078.18
1057.67
1047.57
1113.22
780.14
765.662
775.518
925.268
825.968
867.476
816.591
632.905
764.415
680.241
792.753
723.424
795.301
741.032
486.18
659.623
534
691.821
551.518
732.571
682.845
1537.56
1836.05
1576.92
2396.53
1846.97
2208.02
1835.16
1187.79
1507.05
1316.86
1716.44
1440.39
1737.55
1493.81
1005.61
1257.79
1112.36
1374.7
1250.29
1423.52
1258.01
1066.47
961.019
1027.48
1078.86
1003.07
959.344
1097.99
871.933
754.033
896.343
653.879
864.576
615.296
916.38
657.825
977.764
884.938
805.621
712.62
998.918
855.621
614.041
842.608
601.841
689.799
677.632
810.267
672.475
532.513
538.766
401.802
688.978
686.956
649.233
558.509
1617.87
1956.73
1732.92
2171.74
1852.01
2236.49
1917.06
1347.41
1611.32
1288.04
1759.04
1503.78
1775.02
1414.73
1110.71
1188.06
990.471
1424.92
1238.59
1305.14
1088.66
1026.19
951.612
860.615
1197.3
1117.15
1043.13
920.101
983.692
833.655
751.307
1095.34
1014.75
883.889
775.793
850.284
715.061
540.831
973.249
827.748
734.437
585.095
523.878
486.563
337.871
775.229
602.364
545.596
461.805
322.689
315.248
250.849
566.201
502.474
453.967
472.163
1769.14
2344.46
1882.2
2579.99
1970.64
2725.57
2244.29
1243.02
1768.86
1479.49
1772.21
1324.42
2098.62
1721.45
929.725
1401.74
1230.66
1216.96
979.948
1620.76
1349.88
668.408
1187.36
1033.85
899.803
640.94
1261.52
996.563
502.087
976.113
841.882
599.387
567.918
927.201
821.994
452.505
815.335
749.322
558.974
481.447
809.584
768.865
345.396
727.37
663.463
452.539
370.221
751.508
671.302
244.89
620.215
498.378
343.564
296.079
635.52
546.437
1922.49
2590.03
1967.51
2855.87
2312.52
2981.13
2365.39
1514.33
1831.13
1536.25
2169.22
1808.86
2227.35
1922.05
1289.68
1465.51
1331.77
1712.18
1448.28
1837.39
1600.08
1131.97
1300.26
1192.06
1362.56
1106.71
1522.95
1311.5
943.299
1119.63
948.522
1033.76
897.744
1227.21
976.744
826.972
910.735
811.775
876.111
828.759
909.36
793.556
732.831
789.69
755.27
813.958
756.787
793.115
854.982
560.215
752.914
714.763
727.16
621.66
873.177
848.268
1947.39
2325.57
1922.31
2889.5
2337.63
2684.94
2272.75
1529.81
1817.8
1558.58
2208.33
1921.23
2158.34
1862.67
1324.99
1484.52
1308.47
1839.36
1605.22
1774.66
1526.71
1183.89
1268.12
1182.06
1533.98
1325.79
1452.91
1262.46
914.839
1152.96
1038.36
1241.13
963.001
1203.64
992.333
712.685
984.557
822.114
870.824
711.927
909.007
748.162
705.302
778.685
683.912
717.298
843.999
742.358
816.68
720.903
667.66
622.163
880.807
878.388
850.684
871.087
1931.11
2325.57
1971
2638.77
2253.73
2634.75
2153.1
1557.94
1820.58
1448.39
2132.51
1810.29
1974.11
1572.92
1280.22
1337.16
1115.57
1716.85
1466.4
1468.15
1231.88
1135.71
1066.95
931.127
1391.94
1199.09
1166.53
993.255
1006.84
892.165
778.854
1142.97
969.069
951.801
842.968
797.842
738.179
606.836
900.409
764.029
812.677
761.349
613.746
576.19
522.497
753.747
800.665
760.564
783.862
577.872
523.63
543.96
827.504
847.48
794.559
790.553
2073.54
2912.87
2427.87
3369.61
2527.7
3581.81
3180.16
1399.74
2269.2
1863.1
2284.98
1974.24
2993.81
2572.12
1038.83
1754.68
1430.7
1907.21
1507.63
2450.32
1940.65
689.32
1318.74
1017.8
1375.48
1296.84
1772.42
1466.13
631.858
950.448
855.392
1290.17
1154.39
1416.62
1303.66
523.491
842.94
806.668
1097.67
1008.09
1280.95
1280.05
420.785
791.554
716.794
993.056
932.05
1271.17
1209.2
349.461
684.091
596.423
913.79
867.658
1182.35
1081.62
2508.37
3161.43
2562.24
3745.75
3308.54
3844.76
3380.36
1972.43
2427.78
2122.98
3139.82
2735.85
3264.9
2975.3
1540.33
2027.11
1731.67
2595.08
2069.74
2839.62
2373.78
1120.55
1627.06
1346.52
1891.38
1521.32
2195.13
1737.33
916.291
1250.74
979.114
1454.75
1322.65
1607.57
1283.69
862.293
911.491
830.629
1299.28
1319.5
1240.68
1304.42
809.601
844.059
949.517
1341.98
1323.87
1390.44
1553.86
676.707
968.247
923.457
1301.45
1175.26
1569.36
1439.93
2528.64
2841.53
2449.05
3589.12
3303.93
3347.29
3155.59
2123.21
2333.96
2028.43
3219.55
2971.62
3047.33
2740.57
1743.67
1933.23
1647.66
2844.27
2404.24
2627.06
2231.13
1371.03
1554.7
1310.54
2236.38
1783.34
2092.36
1735.97
963.77
1237.89
993.927
1639.95
1254.39
1632.42
1340.69
763.114
910.165
799.97
1201.1
1278.87
1291.37
1356
952.151
816.775
943.095
1376.09
1580.53
1425.05
1571.81
963.842
978.093
976.254
1611.05
1514.47
1602.18
1538.25
2419.08
2789.02
2247.35
3404.2
3081.01
3440.18
2634.72
1952.84
2056.09
1649.51
2938.99
2585.48
2411.63
2056.13
1574.18
1550.99
1307.77
2488.11
2111.89
1992.89
1731.17
1247.02
1233.25
1050.92
1981.43
1668.26
1624.86
1482.6
983.867
1011.01
908.572
1585.72
1367.33
1454.46
1370.64
831.938
882.307
856.116
1332.27
1396.52
1340.27
1368.91
932.528
863.049
902.219
1434.39
1547.29
1390.5
1455.09
956.034
911.935
886.747
1572.07
1531.33
1456.95
1414.77
1132.53
1078.47
1071.81
1102.66
1072.59
1120.14
1126.06
1111.77
1030.08
980.156
1088.16
1028.9
1112.5
1008.88
1100.62
1016.34
930.102
766.023
1023.94
1084.36
871.051
1189.93
1187.01
1196.79
1248.32
1169.22
1197.95
1233.2
1181.64
1124.46
1168.32
1192.25
1149.93
1167.14
1216.83
1185.35
1150.53
1251.13
1203.3
1185.76
1064.01
1244.96
1172.97
817.911
1199.1
1156.94
1149.8
925.608
1227.56
1068.56
995.344
1016.79
972.073
1039.61
1010.76
1038.33
1057.75
1008.22
781.334
703.379
1004.54
1064.73
648.107
1030.76
981.559
751.54
687.316
995.508
1012.16
643.618
1116.82
1091.62
1047.95
1158.81
1054.25
1144.2
1122.01
1081.72
971.942
1002.84
1036.79
1012.84
1044.07
1079.58
1099.84
746.09
1159.3
939.79
1118.88
697.433
1124.46
1059.29
715.409
1037.78
912.728
1026.56
680.829
1080.05
1014.79
903.766
930.897
733.213
968.228
828.139
962.764
1102.57
1062.42
1060.83
1131.15
1044.52
1120.84
1110.2
1085.37
1015.83
1048.17
1083.19
1030.06
1066.86
1095.66
1142.7
1149.15
1215.65
1231.72
1051.9
1167.2
1215.11
1091.2
794.606
1159.8
1132.91
907.33
1032.09
1182.43
1158.58
1177.57
1230.99
1196.49
1176.88
1155.09
1210.79
1139.5
1121.48
1162.99
1175.41
1116.62
1137.91
1189.78
843.119
717.43
811.808
601.331
840.601
568.143
799.061
1027.55
1002.09
1024.13
1071.71
988.336
1047.75
1059.52
1007.89
956.758
1014.84
1024.4
975.752
981.418
1044.61
920.642
705.795
934.517
1077.04
661.262
973.998
1020.8
874.562
644.225
868.694
913.234
604.402
827.812
962.77
1064.72
1105
1132.9
1106.81
1091.76
1086.96
1099.09
1035.99
1038.14
1022.06
1077.35
1003.02
1065.35
1061.45
296.489
473.511
298.505
676.501
650.335
662.092
615.711
202.418
228.189
211.563
627.106
530.739
612.994
585.519
112.096
188.399
172.216
338.045
253.04
508.242
453.133
30.2143
151.983
99.9077
177.953
83.1884
399.575
268.269
9.2975
50.8891
33.1945
35.2924
34.7032
145.13
109.066
14.5274
32.529
38.8204
46.3833
49.649
107.834
115.942
35.7849
59.3326
75.791
59.7719
78.3351
143.013
162.469
25.3885
77.0534
69.9957
79.2464
64.9819
161.484
153.165
629.243
901.82
530.066
1230.07
931.049
1189.72
853.603
411.871
271.534
361.05
477.233
418.769
476.829
260.265
374.338
148.475
156.107
337.139
339.63
370.763
144.598
411.73
147.122
140.894
368.905
370.784
400.108
145.916
430.42
137.222
164.523
355.96
346.163
431.996
164.648
293.389
55.4495
147.659
198.811
135.884
376.333
118.667
153.656
37.8518
46.6879
109.802
110.617
145.644
48.7504
169.439
60.3819
65.6262
137.026
149.058
166.085
68.2884
185.369
72.3712
79.6398
167.256
166.592
185.135
80.4065
44.317
121.581
71.0638
177.6
120.334
237.228
172.836
528.519
792.292
521.303
1230.78
973.363
1146.62
964.737
409.377
232.763
316.149
433.634
397.088
443.268
234.509
390.9
144.71
152.984
390.448
386.859
393.531
146.902
315.629
131.949
129.065
356.508
353.337
339.614
121.315
293.736
147.385
111.842
369.398
388.307
288.069
113.58
402.758
185.104
150.978
445.384
453.873
377.023
164.78
418.763
154.864
175.887
426.082
371.224
427.373
172.353
257.181
73.8009
112.158
249.303
256.823
287.11
84.4808
218.366
85.3974
77.273
218.493
212.512
225.314
83.406
87.9454
128.834
83.3606
257.953
213.272
247.148
209.381
390.054
463.803
354.899
898.123
755.86
782.56
711.417
297.409
196.48
240.381
360.041
326.645
328.442
186.161
340.007
109.593
132.268
270.841
271.514
310.756
134.398
382.244
105.771
149.541
269.86
265.987
382.182
150.64
353.675
109.704
145.374
263.943
260.442
366.574
139.866
336.62
88.7365
132.795
204.573
183.987
334.056
133.954
339.178
80.1236
143.099
154.009
137.155
346.152
142.044
241.23
84.9471
127.283
122.17
126.89
280.093
113.744
139.194
59.744
65.8065
155.353
200.329
117.753
53.18
53.6809
64.8437
29.7424
219.231
149.782
159.404
79.832
389.809
446.76
414.404
802.002
878.632
830.377
879.436
493.555
223.747
276.454
431.517
473.763
447.329
236.713
536.747
194.943
194.71
541.443
541.632
539.607
189.763
476.621
184.773
180.963
514.999
495.837
500.016
173.722
379.828
146.829
143.359
418.461
402.294
396.282
135.896
392.095
159.745
136.983
409.844
427.436
381.121
142.412
398.062
175.957
152.696
457.527
454.427
406.903
149.993
157.326
109.667
71.3577
341.232
280.269
205.623
58.1179
94.2128
51.2434
45.7529
116.427
106.539
94.2054
46.5879
36.5715
60.6033
35.8291
124.546
76.8025
108.058
80.1495
362.146
485.979
380.069
779.337
840.299
852.165
884.566
281.219
328.091
304.836
820.184
756.452
844.516
738.505
212.456
255.811
216.301
640.779
565.303
623.859
544.457
164.4
178.064
156.291
506.619
448.152
452.934
364.25
141.972
128.336
111.326