/*--------------------------------*- C++ -*----------------------------------*\
  =========                 |
  \\      /  F ield         | OpenFOAM: The Open Source CFD Toolbox
   \\    /   O peration     | Website:  https://openfoam.org
    \\  /    A nd           | Version:  10
     \\/     M anipulation  |
\*---------------------------------------------------------------------------*/
FoamFile
{
    format      ascii;
    class       volScalarField;
    location    "1.6";
    object      omega_0;
}
// * * * * * * * * * * * * * * * * * * * * * * * * * * * * * * * * * * * * * //

dimensions      [0 0 -1 0 0 0 0];

internalField   nonuniform List<scalar> 
12920
(
163.27
236.823
174.595
119.686
115.559
106.859
83.7964
65.5929
56.4661
51.9187
48.4052
45.1258
41.544
39.5964
39.2481
39.4567
40.4007
41.0761
40.9432
39.5368
220.171
250.242
191.768
125.429
111.558
94.7875
82.7957
76.3144
69.171
64.0672
59.254
56.0518
52.7714
49.2745
46.0418
42.8654
40.1465
37.5413
36.4587
34.8877
143.893
201.975
196.752
140.804
112.268
98.4861
86.9436
80.3069
69.7662
64.1431
59.4217
56.3622
52.1814
47.0895
41.9619
36.8625
33.9175
31.0824
29.727
26.566
80.3664
180.794
178.179
140.522
112.972
92.2318
77.5067
67.9705
55.7696
47.3204
40.5202
39.7045
39.3107
37.9518
33.5881
28.8209
24.8751
19.0764
14.666
11.8963
78.7705
180.39
172.323
144.227
123.525
105.638
88.5017
73.576
58.2819
43.808
29.8653
24.133
21.9187
20.9278
18.0602
14.0946
10.3295
6.68239
4.99053
4.24923
157.412
195.438
174.084
144.373
120.889
107.396
92.194
79.8636
62.3846
44.0204
25.1137
15.3072
11.044
8.72081
6.48036
4.62157
2.99395
1.67395
0.965818
0.839794
159.942
235.63
216.703
152.111
115.921
98.5317
88.3451
74.0148
54.2873
31.0322
15.2592
10.9618
15.293
14.4436
12.1554
10.2393
7.87555
5.09165
2.75827
1.18479
75.6936
193.767
220.209
216.083
180.563
132.425
192.453
133.893
109.451
72.1622
30.2704
29.2242
44.1004
53.5341
29.9666
22.3149
16.9748
11.831
7.36552
3.60167
137.982
228.746
228.26
219.086
192.837
270.591
343.369
224.948
217.805
212.402
158.728
108.176
131.271
151.945
83.6164
31.3994
22.9437
16.9329
11.6252
6.47345
149.208
214.728
212.297
196.309
171.359
257.125
314.935
220.028
205.444
211.085
239.917
236.088
152.821
162.072
103.595
36.7794
26.0094
19.6183
13.5774
7.68415
398.11
233.48
193.392
158.382
137.585
206.73
284.922
192.628
183.16
187.188
172.101
162.793
158.705
140.221
87.7626
28.0272
25.8172
23.0962
15.6484
8.47899
446.742
307.019
230.772
151.937
124.082
185.08
293.607
250.275
245.875
220.836
219.547
237.475
198.193
133.553
71.6655
28.3248
27.4104
24.8459
17.1324
9.55939
107.165
224.311
218.331
168.983
131.65
122.086
188.83
157.506
138.61
121.399
108.185
103.791
81.7122
66.7862
36.4621
32.9857
31.3198
29.4958
26.8781
18.8451
131.03
175.98
191.561
188.309
159.632
133.778
115.703
99.7398
85.2451
70.2292
58.5139
49.4576
43.7799
39.3175
36.0265
34.7672
34.1698
33.1919
32.1926
28.3501
235.594
230.443
189.757
150.411
128.226
118.982
104.05
89.8726
74.6444
61.5572
52.1356
45.7645
40.8228
37.2603
36.0338
36.2346
36.4202
35.7752
33.7422
25.9174
108.177
215.615
187.461
152.829
131.83
124.017
106.895
91.47
74.9354
63.0513
54.5575
48.2462
42.1352
35.1811
28.8163
23.6472
21.2439
21.2211
21.8515
20.7209
143.091
159.843
160.194
134.34
114.243
110.946
100.903
88.6658
76.4208
70.3408
62.3925
53.1746
42.7117
32.3771
23.7929
17.9718
15.4728
15.2716
16.1344
16.7209
324.924
247.579
183.363
138.1
104.399
97.3091
95.0796
87.4872
76.5271
71.8008
67.3932
62.9861
56.5161
49.8067
43.0274
36.2874
30.1662
24.0359
20.7575
16.7383
267.512
147.196
97.6993
100.58
107.108
105.974
95.3835
83.563
73.4898
65.8532
58.487
50.8518
44.2318
39.2452
35.9067
32.0522
27.0474
20.8216
16.1101
10.6453
108.726
61.777
38.047
42.3383
57.4287
71.1488
72.8631
71.8132
66.9145
59.2381
53.0386
47.4242
42.0075
36.2026
29.9003
22.9216
16.2356
10.534
6.70217
3.67296
79.5252
140.291
126.155
86.989
73.1897
63.5804
50.7848
39.7707
33.2862
29.8184
27.529
26.113
25.0722
24.4176
23.845
23.1146
22.5469
21.2953
19.8859
18.4183
277.38
161.083
106.677
71.503
58.3994
49.1145
41.7933
38.1896
34.455
32.2219
29.6785
28.1326
26.4254
25.4248
25.0151
25.0269
25.1731
26.1204
30.1689
33.9632
248.086
139.165
106.58
69.6143
54.6989
50.283
44.1211
40.3633
34.5679
31.6019
29.024
27.8286
25.9113
24.2259
23.3323
23.4412
25.4274
27.1621
27.1608
25.2995
147.188
136.904
102.218
69.0405
51.718
46.9866
41.1052
36.1513
30.9869
26.45
22.6826
21.8662
21.509
20.8082
20.1259
19.5883
18.2621
13.6072
10.0794
7.6652
137.976
120.543
96.6258
74.3661
57.7847
51.1733
46.185
40.2038
36.057
27.9595
19.8344
16.7658
15.5433
14.8084
13.0804
10.0994
7.52779
5.52371
4.75482
4.4409
173.582
139.234
104.425
84.3251
63.54
55.3533
49.2424
46.7874
41.7021
30.2442
18.2044
13.3314
10.8441
8.70684
7.18016
5.99801
5.02134
4.33433
4.13833
4.18503
112.344
135.165
103.945
72.0687
60.2666
53.6674
48.4493
45.4488
38.5471
21.8554
15.2584
11.7197
12.728
12.5018
12.4989
12.3776
11.3325
8.12926
6.29708
5.1522
250.152
200.362
136.752
114.655
94.8106
71.0711
66.2262
56.0807
43.3855
42.2037
22.3673
23.8227
21.5023
21.6554
22.1146
21.2619
19.3127
14.3046
9.30884
6.05835
282.906
174.261
132.014
129.694
129.168
125.087
91.3939
59.0278
47.4622
43.2346
45.5458
48.7312
34.7764
29.0785
27.0809
25.3793
22.4038
17.7252
12.5536
7.34491
110.599
155.919
137.006
127.231
110.501
107.239
87.539
57.058
49.8268
46.1975
44.0264
45.3386
54.298
57.1147
34.244
27.1999
24.5625
19.6906
14.205
8.3523
532.303
146.922
113.285
97.6647
86.3027
90.2783
83.4516
61.2463
52.2826
49.3196
50.3869
52.478
53.3607
68.3757
46.0224
28.3319
25.9497
21.0081
14.4445
8.45811
214.596
198.643
114.417
79.8302
65.8728
64.4936
62.0598
56.7204
48.8464
43.3002
40.2525
40.7088
42.1873
56.9462
39.3777
26.1777
24.5305
21.2837
14.2672
8.14415
204.573
168.211
111.38
84.1137
68.7669
60.7006
65.0748
59.3642
46.1174
40.3797
35.4439
33.5247
32.9847
34.3877
28.7111
25.3664
24.4512
24.0422
22.7942
15.3358
363.26
189.374
130.025
103.649
78.3147
67.988
60.4634
54.9761
48.2358
40.8614
36.4577
33.3825
32.3777
31.3086
29.3935
27.9667
26.9128
25.6603
24.9222
22.3439
425.34
128.733
85.346
77.2045
64.3581
62.3471
59.1821
53.8467
45.1614
36.3748
31.6334
28.0424
26.576
25.3251
25.1116
25.0883
25.0605
24.5948
23.4401
19.1514
145.753
128.852
93.3441
78.2478
66.3247
63.2006
56.6388
52.0404
43.2471
35.6905
29.9273
26.2405
23.6328
21.1298
19.2894
17.3331
16.1978
16.0291
16.3302
15.6028
248.221
177.187
104.535
90.7259
76.8021
65.1988
52.127
46.9976
40.2826
37.2251
32.553
28.7803
23.8861
19.9317
16.8009
14.6789
13.6657
13.6295
14.4749
14.6063
243.387
153.264
105.445
110.397
104.955
86.5766
62.8278
49.7394
42.1975
40.1892
38.4885
38.2988
37.9102
37.3497
35.578
31.581
26.9515
21.4058
19.1818
15.0785
246.265
132.37
70.6809
56.7978
53.3262
52.5537
48.5461
45.9879
43.5498
40.5413
36.8191
34.6871
33.3312
32.4184
30.7955
27.609
22.7264
15.8201
11.2617
7.07571
22.2641
16.3466
29.5072
40.5171
39.9817
41.6785
41.6232
40.8475
37.3442
33.4774
30.1077
26.6594
22.5364
18.0847
13.7375
9.79321
6.4809
3.93631
2.25179
1.10373
195.997
160.194
139.728
107.524
85.2452
69.6087
54.9512
42.9174
35.9923
32.3493
30.0845
28.4757
27.2161
26.3656
25.604
24.3377
22.9472
21.0373
19.1869
17.5061
428.849
214.358
123.335
74.8578
58.1882
46.9368
38.5394
33.7433
30.179
28.7584
27.1213
26.5876
25.7727
25.459
25.082
24.4323
22.9041
21.1413
20.9467
22.614
222.197
164.437
113.901
67.2932
49.499
41.9636
36.5901
33.1026
29.2158
27.8052
26.1115
25.5358
24.4225
23.5791
22.0406
18.3563
15.3894
13.5401
13.8334
14.142
85.7206
138.338
117.283
68.708
47.1256
37.6641
33.758
29.6632
26.6572
24.3018
22.4333
21.9323
21.3203
20.1772
17.3425
13.4129
10.3715
7.74005
6.48925
6.16547
259.383
142.474
94.0118
64.4582
49.4317
40.1574
35.9657
31.1304
27.4654
23.4944
19.5871
18.0718
15.8876
13.7118
11.0644
8.50181
6.78435
5.61615
5.20241
4.94247
104.974
127.52
92.9664
64.2533
49.4183
42.2812
37.7116
34.8386
29.8365
23.7949
18.3402
15.9428
12.4598
9.52195
7.7405
6.62095
5.87353
5.24915
4.97646
4.74649
128.369
154.321
95.4176
60.3674
49.0409
42.2685
38.5832
34.0742
30.1351
21.641
18.0421
13.2276
12.981
11.6942
11.61
11.5056
10.7926
8.78919
7.48217
5.77544
204.002
145.092
119.24
102.262
71.0187
52.2403
48.2276
44.3819
34.6321
35.2673
23.3774
24.4049
21.7168
21.2069
21.8623
21.5477
19.8117
15.4764
13.2672
10.2149
211.441
174.279
120.257
96.0077
79.0712
69.4457
54.147
44.2283
39.2736
36.7728
38.1018
41.947
36.9296
30.98
27.7288
28.346
25.715
20.387
16.9204
14.2881
233.626
161.876
122.459
101.238
81.6966
72.5441
55.8854
43.9444
40.5236
39.9133
40.5325
40.9536
42.9398
49.5936
36.956
31.7227
29.2119
23.8314
19.6426
15.8858
405.132
157.107
104.896
81.7991
67.8399
66.1547
57.4485
45.9999
42.0248
40.0521
77.1485
78.3958
65.2784
53.7767
48.1391
33.8624
30.641
24.3072
19.9134
16.2925
306.899
165.75
96.7794
64.7515
54.7138
50.3502
48.7997
44.12
39.6246
37.078
38.0273
41.8059
44.6997
48.2147
39.3553
33.3562
30.1463
22.95
17.6982
14.458
310.058
207.054
100.106
64.9004
54.791
48.5881
47.1254
43.1538
35.9871
33.2926
31.8488
32.0633
32.7986
33.6416
29.3668
28.0166
27.0163
24.4344
19.8325
12.6468
283.309
177.542
126.103
88.6569
63.1536
53.2831
45.771
39.9219
35.5298
31.7168
30.1954
29.1272
28.9763
28.6454
28.36
28.0835
27.6533
26.8913
26.2917
22.9354
211.493
148.43
77.9745
63.1012
53.8467
49.1827
44.6032
38.7282
33.2628
28.9629
27.3762
26.137
25.9155
25.875
26.0559
26.0802
25.8067
24.7093
23.46
18.8733
155.985
141.595
92.7559
68.2268
57.6182
52.3052
44.228
38.8619
31.9625
27.8748
25.1276
23.7084
23.2268
22.992
22.6885
21.6673
19.8082
17.6944
16.9802
15.4836
175.745
120.213
89.7552
72.4627
60.9224
52.2721
41.8918
37.7046
31.5004
28.4021
24.389
21.8257
20.366
18.9595
17.7756
15.7711
13.8575
12.4049
12.2681
12.3449
206.196
137.331
97.7955
80.1762
71.0219
59.3032
45.0406
39.4371
34.1435
32.3205
29.3312
27.0141
23.4053
19.9677
16.8182
14.5932
13.4181
12.2135
11.8078
9.91184
238.83
132.008
87.216
64.3439
51.1837
45.7468
40.2747
38.3569
34.8511
32.0566
28.5426
26.0943
23.7064
21.2138
18.3648
14.4313
10.453
7.09067
5.75168
5.04359
16.8994
23.9527
52.565
56.0442
52.9909
50.023
46.5239
42.4872
38.1293
33.922
29.9664
25.7868
21.4491
17.0258
12.817
8.94461
5.69827
3.34467
1.84675
0.873528
221.316
160.309
138.605
113.019
88.9708
70.2119
54.4514
42.3931
35.8322
32.4412
30.3902
28.7888
27.5403
26.8674
26.4893
25.5871
24.1404
22.6771
21.6551
19.7509
267.454
196.487
131.421
79.2497
65.5495
49.5361
42.4351
36.3267
34.5879
32.9567
32.7161
32.1967
32.0492
31.8078
31.9539
31.9573
32.2353
32.0696
30.6604
29.5018
291.974
189.845
121.58
68.2574
53.5948
41.5829
38.9301
34.1063
32.7064
31.3669
30.9355
30.4985
30.1217
29.8669
30.0702
29.5057
27.2737
25.214
24.7541
25.5557
209.938
173.685
131.585
71.0074
51.5012
38.2644
36.5231
31.4782
31.2664
29.1097
29.3094
28.4111
27.9549
26.9368
24.6937
20.6875
17.4616
16.3583
16.8316
18.7341
146.691
165.167
112.132
66.8948
53.397
39.4942
37.4863
31.4741
30.7807
27.9433
27.712
26.8232
25.1732
22.0559
18.8697
15.6485
13.5486
12.4179
12.4742
13.4722
277.487
143.308
95.9791
63.7573
53.1062
41.8597
39.2604
33.4194
30.5616
26.9715
25.1059
24.2007
21.0245
17.8762
14.9216
13.0268
11.9362
11.0055
10.1352
10.1654
179.962
168.416
106.01
60.7426
52.9454
42.0322
40.1817
33.3389
31.1817
26.4355
24.8717
19.1146
17.9887
15.7089
16.1356
16.6509
17.8235
18.2917
18.0091
15.5777
351.02
201.143
137.479
90.977
67.9562
51.6002
46.4626
41.8326
33.6558
32.8728
27.9463
27.731
22.901
22.4666
25.4504
24.4788
23.9988
24.0538
24.4387
24.6821
184.066
193.427
126.929
82.2476
65.4915
54.7866
48.0729
43.3479
38.9655
37.3958
36.779
39.392
36.9073
32.0961
30.7811
30.1404
27.4731
26.3943
26.4614
27.1301
227.741
163.56
128.026
94.2816
77.0132
63.9483
50.6172
45.3582
42.8176
42.2005
42.4806
42.7774
46.0644
50.0018
38.6964
36.5229
32.5067
29.3096
27.9622
27.911
437.501
147.331
107.517
76.4379
65.8919
61.0565
52.2695
46.011
44.149
43.1562
67.3083
69.3159
73.8775
65.7221
45.8998
40.5469
35.0191
30.4209
28.5833
28.3764
299.971
143.029
94.8441
62.5618
56.5726
49.6692
47.6112
44.6123
41.8901
40.4623
42.8513
48.0015
53.862
54.6738
44.1152
40.7661
34.2544
29.3327
28.0388
28.3782
190.408
154.932
91.8643
59.7824
55.9358
47.2143
45.0476
41.5821
36.5176
35.2383
35.0348
36.2573
37.7472
38.3219
38.1914
36.7613
33.3111
28.6791
26.6357
25.9879
212.633
168.436
111.292
71.4156
60.2285
48.856
43.6285
36.9195
34.6627
32.0532
32.1059
32.2344
33.288
34.9033
36.8499
36.94
36.505
34.7548
32.1958
25.1461
190.961
194.692
88.7751
60.084
53.922
43.9085
42.0786
35.4581
32.8921
30.4502
30.3944
30.5661
31.5006
32.9843
34.3011
34.4529
33.5447
29.7261
24.6575
20.7813
104.468
174.014
126.164
66.9595
58.0395
47.4322
41.6197
35.1083
31.4984
28.9896
28.5993
28.6472
29.4225
29.9297
30.2282
29.6823
28.3395
26.6138
24.8382
22.553
209.488
122.375
89.6722
65.2753
58.1621
46.3518
40.3341
34.6442
30.6759
27.9261
27.2827
27.4238
28.5961
28.9059
29.1817
28.5334
26.9551
24.2843
20.8838
18.73
201.123
135.029
99.7983
70.6391
61.016
49.0563
42.3975
37.3235
33.826
30.6463
27.9282
26.081
26.0322
25.5705
24.8737
22.9806
20.8243
18.3881
16.8703
16.5456
296.425
139.211
105.44
67.8794
55.8213
44.5155
41.1111
37.3334
34.1389
30.3714
27.3523
24.4329
22.8293
20.8014
19.464
18.1844
16.8833
15.6443
15.3531
15.724
14.6488
48.8708
68.1075
66.0403
56.8606
49.9941
45.1933
40.1222
36.0806
31.8383
27.8455
23.6178
19.5606
15.4769
11.5609
8.04953
5.23249
3.17272
1.79276
0.862856
116.134
123.813
119.115
103.669
82.3932
60.571
45.1092
37.2521
33.326
30.8371
28.9642
27.5946
26.9857
26.7431
26.7709
26.5957
25.9663
25.8252
25.9324
25.057
299.223
176.573
133.62
79.6668
84.2385
58.5673
67.4373
53.8559
60.5685
53.8294
57.1362
53.2247
54.4803
52.4589
53.4888
53.238
54.8807
54.7637
54.6101
52.5805
221.396
190.588
126.639
70.2984
71.3237
50.0173
59.3227
47.112
54.4068
48.7692
52.7793
49.4538
51.2493
49.596
51.3248
51.3081
52.4198
51.9499
50.9392
49.4588
208.086
204.02
151.126
73.9983
71.7481
49.4248
59.8851
46.0556
53.6054
47.3908
51.1141
47.7786
49.0314
47.5812
48.5745
48.5905
49.6569
50.5647
50.4123
48.6298
235.439
199.907
132.944
73.1471
72.348
48.6771
59.1696
43.9413
51.3872
44.4387
48.4384
44.7727
46.4122
44.7738
46.1057
46.2463
47.5173
49.5921
50.7604
52.8423
272.965
147.615
116.209
71.0053
78.3006
54.7865
63.7966
47.9557
49.8783
43.2154
43.6556
41.0513
40.1391
40.0082
39.9577
40.9459
43.0591
46.9312
49.1711
52.765
191.942
156.443
119.671
67.6495
74.6811
51.4784
60.2674
45.9783
47.1049
39.1915
39.2805
34.6003
36.0179
34.7342
36.7722
37.869
41.218
44.831
47.1898
52.4732
280.461
158.719
144.76
91.9034
92.8443
72.7265
63.6973
50.7341
49.8978
42.8949
44.7752
40.9617
41.5455
40.218
40.9197
39.0924
39.8768
42.5495
44.0786
47.5053
220.352
173.529
136.968
77.7013
74.145
63.2251
65.0079
58.19
57.3321
53.3107
52.132
52.5846
51.4245
49.8449
48.4891
40.6794
39.4983
40.7027
42.3932
44.9768
196.137
172.754
154.732
97.6025
97.846
76.5634
67.3007
70.9692
68.6556
63.2873
59.2473
58.396
59.0922
58.5588
53.8548
45.9362
42.6713
42.3316
42.6642
44.4482
242.086
136.463
117.111
79.3263
77.4222
68.0281
66.306
71.0778
71.7683
65.6624
63.5237
63.2335
65.5085
66.3782
60.4
51.2733
45.1406
43.5022
43.4338
44.7902
386.661
175.84
112.468
67.6728
78.6624
60.6108
61.6229
66.5013
65.6712
63.7284
63.1388
63.6363
64.7001
64.7646
61.0525
52.0355
46.0853
44.0979
44.1579
45.8907
342.415
147.998
99.8367
70.4362
72.6876
53.2918
56.8214
51.1758
51.8237
49.68
51.3696
51.9111
54.7547
55.9225
58.302
53.132
49.8315
49.5924
51.1924
54.7131
292.297
159.503
111.372
68.9602
80.4512
55.7846
60.8296
45.8131
48.5013
43.6888
47.8671
48.2258
53.2998
56.7018
60.1634
59.8438
60.3704
59.8705
59.2541
59.8012
317.607
255.11
118.044
75.0893
68.3469
50.0461
57.46
41.8074
45.9123
41.314
45.3592
45.3385
49.4773
51.2849
54.4503
54.7652
55.8348
56.2745
57.2004
59.3129
256.415
235.638
171.266
74.5563
73.7206
50.5448
56.806
42.4113
46.6425
40.0058
43.5791
41.1807
44.7732
45.0688
48.4096
50.0198
53.5496
55.0271
56.3484
58.2234
264.87
154.805
101.79
70.2107
66.7998
47.1813
52.4717
39.0204
44.3599
37.8713
42.9845
41.7091
46.0898
47.4384
51.2729
52.6863
55.1071
55.9892
56.4193
57.5944
220.147
134.904
109.319
69.5597
69.5404
49.2736
56.5001
44.2803
50.0043
44.1686
48.8452
47.4197
50.7785
50.6009
52.6098
53.123
54.7921
55.8645
56.0624
57.761
491.2
203.701
136.331
75.702
71.4583
48.0402
57.294
44.0022
51.4526
45.5526
49.9471
48.4668
50.8148
50.1223
50.7655
50.023
50.3639
51.5645
54.1144
58.8613
79.8029
83.7995
85.355
77.1827
59.0094
46.7536
40.218
34.7637
30.6616
26.4338
22.8127
19.3675
16.1604
13.0191
10.1271
7.57466
5.40763
3.67391
2.50149
1.88274
40.3804
42.2992
78.8157
40.6958
41.5341
42.3535
111.112
40.6773
82.1778
80.3053
41.614
41.63
113.596
90.0314
74.4384
37.8175
38.6618
41.2204
92.5298
39.2935
41.5013
78.2235
39.6785
43.8257
97.1424
91.109
43.0871
48.6564
237.946
311.609
226.588
118.014
75.1569
116.508
70.4468
218.343
218.122
202.954
67.6222
55.0109
64.8536
56.8596
215.19
203.085
216.343
52.7454
48.265
54.7801
50.2521
188.822
224.501
241.538
48.0199
50.2547
49.2521
47.3288
108.039
242.98
228.949
51.5402
54.2877
47.2135
49.5629
124.682
195.35
142.375
52.0087
36.165
54.1151
66.6791
150.412
149.311
159.722
34.1228
30.0029
68.7734
56.4836
135.015
161.146
162.768
29.1984
26.9965
48.7224
33.5065
228.54
318.743
222.539
107.395
69.4463
104.38
72.5154
207.336
204.547
175.495
64.6269
57.2308
67.832
60.876
207.431
168.418
155.746
55.537
51.8157
59.84
57.7262
233.593
153.346
145.609
50.8173
48.5015
57.6112
57.0101
241.847
145.546
150.838
48.0958
48.6386
56.9063
56.8172
160.26
156.725
185.972
50.3126
59.6488
56.7263
56.6923
161.11
193.231
154.662
66.2601
68.7291
57.1245
80.5689
161.172
148.571
143.544
60.1118
36.222
85.4955
53.2729
204.259
277.441
240.332
100.473
75.5593
87.4591
69.9118
183.197
243.816
246.98
69.4185
59.4377
65.7957
57.0102
186.546
245.857
231.385
57.9698
54.7929
55.0179
50.3507
177.52
224.088
219.117
54.5152
55.8647
49.0842
46.0507
164.229
221.813
240.539
56.5901
59.1734
45.6097
45.6094
157.109
244.22
237.891
59.2548
59.8851
45.7999
47.4246
155.931
240.146
185.594
59.9638
69.8259
47.2541
51.1426
130.529
151.141
107.357
85.5956
64.4825
66.0739
69.4848
251.584
324.737
257.856
73.0005
66.1444
80.2882
73.1505
247.787
249.242
228.328
64.1029
56.7607
70.8581
58.6026
229.237
221.452
202.202
54.7273
49.7776
55.3239
48.7468
216.324
195.385
187.575
48.2366
44.4379
47.089
43.0158
236.87
185.319
184.45
43.884
43.5937
41.8313
39.4909
217.588
183.921
154.06
43.6864
44.4304
39.0123
37.7114
151.831
120.28
99.1309
44.3646
54.0655
37.8652
42.8297
117.102
104.239
104.165
66.4517
61.7896
44.2489
41.916
64.2658
94.6002
61.8541
60.5777
48.4366
62.6913
47.8877
49.4311
57.4882
50.9015
46.2413
41.845
45.8269
42.2167
43.4012
49.2548
45.5603
40.3724
37.4703
41.3838
39.6783
44.6429
44.6907
42.9586
37.5366
38.7205
39.3605
38.8945
49.1242
42.8286
44.2055
38.9447
41.6693
38.8301
39.2784
37.1566
46.8247
55.067
42.8452
38.6211
40.2494
43.4433
30.0218
57.6918
54.3539
36.7444
32.1029
44.5789
47.998
26.593
48.941
34.2159
30.7136
26.7411
47.6965
36.9323
60.6678
84.1986
63.4057
60.7952
47.5506
62.5282
49.556
51.1598
59.7677
54.3509
45.693
42.3657
47.5257
44.3463
46.9671
53.548
51.8783
41.6978
40.6739
43.8684
43.3561
44.3661
51.7672
51.3839
40.5431
40.528
43.5214
53.1551
44.3027
51.4128
51.9227
40.5934
40.7
55.5941
60.4255
50.4012
52.0792
52.2504
41.0315
42.7221
60.4809
56.8
59.9662
52.3819
63.8334
43.3188
49.1454
54.9166
51.596
37.1403
70.7577
54.8857
49.6415
40.4316
53.4571
54.1132
66.0242
75.2116
62.0344
61.832
50.5816
57.3221
49.0804
53.4721
58.4961
50.8701
48.1531
44.1122
46.8803
42.1402
49.671
49.1256
45.1239
43.4647
42.4248
41.0476
38.7412
49.8749
44.0974
41.9476
42.1162
51.3315
38.326
38.4124
52.3139
41.7146
42.1271
53.7123
58.4329
39.0162
42.0677
53.2633
42.4927
44.4015
59.1363
56.901
43.1957
45.671
57.8938
44.6348
47.2165
55.7507
51.6166
45.8305
45.2946
63.892
56.228
65.115
52.6049
55.5051
47.2083
54.2432
58.4171
64.9096
63.4195
50.8166
47.1991
50.5222
48.5304
50.58
61.5171
51.4323
45.8372
41.8491
46.8
41.1069
44.5398
48.646
42.9694
40.745
38.1032
39.2952
35.6482
40.5748
41.6075
38.4167
37.565
37.3016
35.0354
34.0642
40.4327
37.5679
36.0682
37.6582
39.7995
33.9175
34.1893
41.952
35.8283
35.1609
40.5981
42.6843
34.4284
34.8958
47.0521
35.3072
39.0828
42.9608
43.4452
35.4145
38.1138
58.7441
40.6661
40.4238
46.8535
51.3844
38.9797
37.2693
45.8558
56.5829
45.5979
47.9517
43.5132
49.6059
44.1137
40.621
43.965
40.9217
42.4824
39.5007
43.2089
40.8943
36.6502
40.2358
38.9755
38.2305
36.3261
40.3668
39.6753
37.9566
38.8158
38.7054
36.4971
36.9201
39.6969
39.7482
40.5879
38.6545
39.0493
36.8267
38.71
39.6038
39.999
38.5763
39.9464
42.7171
39.6732
37.7137
41.0242
43.8074
32.4744
43.7095
47.8705
36.6984
32.8981
44.7763
48.1207
26.8375
47.7291
37.2135
31.3939
28.2052
47.2685
37.0953
45.497
57.871
47.3282
50.451
44.3873
52.6702
45.5454
41.067
45.5692
42.7356
43.4428
41.246
44.3943
42.391
39.8979
42.3126
42.0858
40.8293
40.5339
42.0658
41.8656
41.1829
40.0158
41.0985
39.688
41.3726
39.9402
40.7301
44.9283
40.6041
43.4432
40.7167
44.1211
40.8034
44.1673
42.4439
77.5822
65.0064
41.9936
44.0588
81.6852
69.2869
48.6944
61.1802
52.8715
44.8596
50.2926
67.083
60.1635
40.7844
53.6579
54.3721
50.4836
40.1223
59.8978
52.8214
48.0317
54.0133
46.8123
52.1535
45.6993
49.7621
44.7656
42.5734
44.923
40.8726
44.4548
42.3229
43.6257
41.1344
41.3361
39.9381
38.0577
41.9518
41.5296
40.5162
39.3048
56.5465
56.6339
40.0348
45.7992
43.9744
262.533
40.1455
89.3944
78.2788
58.2555
233.956
61.5139
221.68
84.593
68.6052
45.3021
48.1771
89.2697
82.1216
50.7318
56.7957
53.7233
48.2375
47.045
80.4786
66.2741
57.7848
58.252
55.6687
48.5629
54.1761
64.1735
55.6655
59.0995
54.1142
45.3996
48.3134
46.3072
47.0065
44.0934
46.2364
43.9976
40.5907
44.6098
39.6081
43.1795
40.7254
42.487
38.6231
37.4215
37.958
34.8291
40.0201
38.6487
37.3103
35.4123
37.3858
34.4077
33.9575
38.614
40.0483
35.3684
35.8255
40.8088
33.9613
34.6402
41.0933
44.9112
36.0711
37.5032
44.3324
34.9928
35.7375
46.3717
51.0267
37.9959
39.1703
45.4062
36.343
38.6795
52.2497
53.7532
39.6733
41.0311
50.6159
39.2853
37
54.228
49.4717
41.1639
39.2305
44.374
49.7016
45.7331
57.2834
53.8362
59.023
61.361
40.2224
45.0045
42.6834
52.162
49.644
61.0874
58.6254
37.3097
42.1282
41.2459
49.6332
48.301
57.9855
54.7679
36.9204
41.1815
40.7635
46.9057
43.7791
53.534
50.3835
38.6273
40.4831
40.8469
44.1784
46.1076
49.7394
49.6129
37.785
41.9083
44.6783
46.1092
44.7719
50.117
51.259
33.4408
45.6157
47.6139
44.5316
42.8885
51.5499
50.9219
29.1511
46.1683
37.4242
42.1348
39.9768
49.7485
46.3568
46.0785
52.6493
46.8706
59.7518
62.1896
60.7112
61.9541
43.2663
46.0351
44.5406
62.1833
60.5562
62.6749
62.9584
42.1672
44.2191
43.3641
59.8964
55.7312
62.4944
57.3397
42.5431
43.5203
66.6357
54.4595
51.7673
55.9513
55.6167
42.3663
70.0505
67.6179
51.1427
50.6024
56.2734
56.6715
45.1713
65.3934
63.7162
50.9599
52.4892
56.6573
58.6547
50.3472
63.6602
61.0635
53.0311
53.4919
59.6739
61.0394
40.0851
60.7432
50.9344
52.6208
48.3716
60.4761
54.847
46.9002
50.0379
45.9333
59.7219
61.4592
57.0369
59.4383
44.489
45.1083
43.1548
62.3179
62.8608
60.0409
60.021
43.1142
42.6155
41.2291
62.4603
57.444
59.6632
56.3272
62.9729
41.1378
42.9908
56.0987
55.9571
55.198
54.6814
69.5506
44.4438
49.5366
56.8554
57.8962
55.2149
57.5283
72.6024
51.6268
58.1941
57.9508
60.2955
58.461
60.6771
67.4667
59.5676
60.2206
61.6788
63.2943
61.2573
61.392
53.1712
60.2209
51.9021
62.4484
56.0513
60.7323
56.7013
45.3068
46.703
44.7537
55.2914
58.0989
53.7202
52.8411
42.5268
43.2596
39.5654
58.3956
57.7912
51.4112
48.7492
40.5388
38.3687
36.8532
57.4572
55.3465
48.5991
48.5632
41.8316
36.8469
37.358
54.4478
54.2695
48.2952
48.0879
46.5403
37.6241
39.1608
54.7845
56.5507
48.4146
49.7926
52.7056
39.6435
40.7295
57.08
58.5821
50.0319
50.9776
54.6945
41.1529
42.2194
59.0436
59.304
51.5592
52.5951
48.5449
42.2829
40.4531
58.8841
55.967
52.5623
51.205
60.2907
66.7323
69.913
95.7202
89.7812
98.7645
108.927
56.7042
69.6134
67.2518
89.2778
99.1391
108.778
109.251
55.3957
66.6574
63.4172
100.902
94.3394
109.335
111.217
51.1373
61.9221
58.5912
92.7168
98.992
111.824
114.139
52.985
58.0752
57.348
99.5094
93.2163
114.003
109.037
51.2949
57.2664
57.3813
91.7299
91.4959
106.413
98.4746
50.3875
57.5445
56.903
92.1439
90.225
97.4306
95.8687
47.1036
56.087
52.646
89.9842
89.0244
95.3624
92.7122
70.9421
67.8319
70.7018
100.085
111.377
102.669
111.849
69.3666
71.5696
72.159
111.549
111.796
112.955
116.112
64.9979
71.7969
67.3818
112.377
117.188
118.769
130.997
59.8045
65.2601
62.7078
118.658
120.708
134.851
139.114
58.4092
62.6757
62.2738
120.344
115.059
138.135
128.492
58.7089
62.3113
63.4909
112.021
101.556
123.312
107.131
59.2502
64.2256
65.4537
99.6294
98.2195
103.632
102.156
54.5495
65.0505
60.1865
97.8135
94.5183
102.555
98.5313
70.0183
62.8455
67.6042
94.5393
109.035
86.9298
103.364
72.0216
68.3464
68.4598
111.17
115.588
104.93
107.079
67.737
68.1286
66.3032
118.465
131.593
108.485
117.136
63.4812
65.1945
63.7586
135.918
140.31
119.975
123.267
63.197
63.8233
64.535
139.075
128.713
122.812
117.141
64.5681
64.6866
65.4266
123.169
106.832
113.652
102.205
66.8464
65.9743
66.3677
103.276
102.073
99.8556
99.6806
61.5292
65.9607
62.3793
102.9
100.496
100.584
99.6863
66.0982
60.0816
58.2705
89.6212
100.701
92.38
83.5358
65.9582
56.9092
54.9978
101.339
102.693
82.2543
85.3518
64.4181
55.2412
55.3011
103.402
109.408
88.111
88.0183
63.0293
54.8176
54.3542
111.32
113.771
87.586
89.9407
63.5792
54.758
55.7899
113.536
109.719
91.1504
89.84
64.2877
55.8758
56.7155
107.226
99.0289
89.2914
89.8696
65.0526
57.4151
58.6681
97.8901
98.3548
91.1524
93.0628
61.8675
58.7046
57.1935
99.2633
99.9755
94.125
95.0345
42.1242
40.1994
42.687
40.5235
41.9087
40.2477
43.2298
45.2569
42.071
54.9439
46.2279
43.1716
41.6046
200.559
51.7076
48.8641
69.5889
255.032
45.9024
55.9516
269.495
41.3978
39.919
41.0029
41.5331
40.2465
40.8345
42.0332
42.5074
40.9044
41.3214
43.9549
40.6106
43.6926
42.953
45.7676
46.9107
42.0725
66.1301
41.5791
209.562
43.8565
52.9452
264.672
52.2997
96.0997
57.5922
278.943
48.21
45.4791
40.6254
44.7975
40.8745
44.6516
40.8318
45.4829
60.6855
51.287
88.1147
244.266
53.3039
58.6974
232.133
62.5754
55.0608
87.09
125.877
55.1941
60.0352
159.899
45.3298
41.0731
41.6091
44.6958
41.1349
44.6035
45.2619
45.7206
41.1859
41.5839
45.416
41.1441
45.6584
45.4687
62.0439
252.711
54.6006
113.291
60.0508
241.839
56.2883
62.4628
130.989
55.4459
104.992
59.8583
167.429
56.4003
72.2536
68.9619
54.5199
247.86
49.965
257.568
79.903
39.7516
38.686
37.8192
37.7924
39.0939
38.6275
37.9143
42.2131
42.1597
38.0301
39.4369
40.2346
45.1928
38.3751
59.6088
47.0017
60.8491
41.0626
260.333
40.5647
46.5536
78.4824
257.151
81.9806
64.5533
268.862
87.9003
56.5957
40.433
38.2475
40.0178
39.4884
39.0363
38.4465
40.8187
43.4346
40.4311
46.1475
40.1319
46.9627
39.089
42.9482
91.0867
81.863
67.6073
150.06
64.8693
201.653
94.1188
51.2951
44.2512
40.9587
40.7918
46.5627
48.1097
42.4268
54.1535
51.2513
42.3578
45.9112
48.881
57.2616
44.142
99.6593
242.275
98.4976
70.3785
229.167
93.9104
74.9969
100.663
151.132
99.0199
79.262
196.835
100.956
78.6249
53.9214
41.9922
49.3048
44.9377
50.3288
43.8415
52.5493
57.0117
47.6273
58.0726
46.8587
60.0171
45.7479
55.595
152.413
192.194
152.748
103.48
87.5382
115.084
95.3185
126.754
134.396
129.671
71.2514
63.8122
73.6835
62.3844
94.1769
122.352
116.936
56.5091
54.6618
55.708
54.6803
48.5547
109.767
88.3622
50.5081
36.6026
56.581
54.4692
26.9827
62.9911
51.036
22.0863
20.9646
45.4475
37.2824
33.8832
50.6676
55.4531
22.8358
22.8021
30.448
27.6372
53.1218
68.716
77.4531
22.4892
22.766
27.5716
28.2808
44.5521
78.0561
74.1432
23.8061
22.3434
28.5238
27.8424
223.215
267.441
204.615
178.598
146.373
180.904
151.505
168.2
294.367
338.675
203.732
170.557
201.81
287.363
97.1031
218.231
222.849
109.385
102.487
104.717
214.296
84.0336
217.178
212.044
90.0598
88.2544
85.1186
216.23
82.72
209.333
229.313
83.1083
83.6333
82.6779
229.282
97.3245
131.348
216.265
89.9441
89.1455
87.8811
191.38
73.077
109.857
122.065
60.7092
51.7868
92.8054
125.02
52.7796
138.677
144.769
44.5664
43.8843
55.7188
147.494
47.0089
151.461
159.006
42.972
42.9281
47.8765
159.605
58.709
97.8638
74.4148
29.8062
27.1236
32.7785
31.1817
203.201
249.596
202.136
159.451
133.956
157.771
128.175
154.8
271.507
316.074
183.309
153.911
184.094
272.537
99.9247
214.669
220.897
104.651
98.8302
105.225
216.386
89.9231
205.251
202.23
88.7255
86.9593
92.274
195.983
83.4937
218.02
189.124
82.9602
82.1691
84.8383
190.921
82.0472
243.572
221.268
82.665
82.9794
81.8619
230.696
88.0302
220.144
237.214
90.7496
98.9556
85.11
234.615
128.16
153.664
186.466
126.468
122.59
118.341
162.811
68.1811
164.67
157.141
69.6836
60.1214
83.6506
162.914
82.8978
100.837
80.7693
35.7885
32.4857
39.2484
34.8189
176.018
192.847
168.52
131.398
116.443
119.901
104.422
148.767
249.998
277.303
168.479
154.063
164.253
243.907
96.8895
186.885
206.032
110.213
100.702
104.151
207.529
89.5974
183.347
218.276
89.7347
88.8043
90.4904
218.904
86.5612
186.636
214.817
88.232
89.1964
86.5373
210.719
90.4619
167.648
205.72
97.9534
100.383
89.6208
206.768
99.2253
159.262
213.351
102.906
103.017
95.1576
212.408
103.733
165.416
200.559
101.906
104.604
102.671
188.703
129.765
137.665
143.366
139.899
121.397
134.49
129.429
64.4105
70.3705
47.855
44.5189
36.283
44.6129
36.0067
176.489
188.456
181.757
103.36
83.4823
103.678
92.0347
135.554
267.576
298.517
157.511
134.181
158.61
275.633
101.344
249.235
249.03
104.561
100.436
106.118
245.89
88.451
242.192
239.729
91.7998
89.6574
90.9377
234.736
77.1637
216.058
213.009
82.1782
79.6388
79.8372
207.638
72.102
226.236
209.113
75.5821
75.8127
72.4555
213.224
70.4409
236.548
220.345
76.3661
76.407
70.8047
218.044
67.0023
183.921
147.973
66.4834
64.9698
63.6167
134.254
80.6124
127.239
120.333
98.5391
96.297
84.791
122.159
53.3564
68.7533
52.9185
40.2408
33.9584
39.0639
32.3486
170.081
196.837
174.03
106.565
91.9299
106.684
91.5838
149.426
161.212
155.473
81.0872
70.7801
78.8221
72.8458
129.78
142.241
130.961
62.1405
57.657
66.4524
62.5249
114.139
118.622
111.201
53.7635
49.2698
57.5422
53.8585
106.192
100.74
93.9379
45.714
43.6738
49.8654
45.6114
97.0527
88.5974
84.2987