/*--------------------------------*- C++ -*----------------------------------*\
  =========                 |
  \\      /  F ield         | OpenFOAM: The Open Source CFD Toolbox
   \\    /   O peration     | Website:  https://openfoam.org
    \\  /    A nd           | Version:  10
     \\/     M anipulation  |
\*---------------------------------------------------------------------------*/
FoamFile
{
    format      ascii;
    class       volScalarField;
    location    "1.6";
    object      omega;
}
// * * * * * * * * * * * * * * * * * * * * * * * * * * * * * * * * * * * * * //

dimensions      [0 0 -1 0 0 0 0];

internalField   nonuniform List<scalar> 
12920
(
158.963
236.412
175.633
119.949
115.562
106.821
83.9959
65.7048
56.4839
51.9114
48.3969
45.1281
41.5482
39.5753
39.2132
39.4179
40.3513
41.045
40.9173
39.5267
216.472
250.201
191.885
125.512
111.547
94.7842
82.7753
76.2834
69.153
64.056
59.2473
56.0511
52.7829
49.299
46.0705
42.8908
40.1725
37.5578
36.4632
34.8855
147.065
201.023
196.349
140.536
112.217
98.3893
86.8579
80.2538
69.7394
64.1165
59.3982
56.3584
52.2051
47.1338
42.0156
36.9122
33.9544
31.1051
29.7482
26.591
81.3711
181.308
178.333
140.497
113.069
92.2566
77.5283
67.9977
55.8205
47.3543
40.5153
39.678
39.2929
37.9636
33.643
28.8702
24.9346
19.1475
14.7143
11.9203
78.1326
180.721
172.131
144.114
123.409
105.596
88.5055
73.6306
58.3605
43.899
29.9363
24.1443
21.9121
20.9376
18.0978
14.1401
10.3745
6.71641
5.00897
4.26081
148.601
194.945
174.867
144.647
120.926
107.394
92.1984
79.9127
62.4857
44.1589
25.2276
15.3561
11.0693
8.73921
6.50042
4.64167
3.01256
1.68728
0.972183
0.842449
156.926
234.725
216.511
152.652
116.213
98.5496
88.3445
74.0556
54.3757
31.1404
15.3194
10.981
15.3211
14.4925
12.1984
10.2717
7.90988
5.12414
2.78377
1.19703
73.5978
191.13
218.147
214.959
181.431
133.219
193.421
134.053
109.584
72.3979
30.4347
29.2582
44.0385
53.5873
30.0804
22.3858
17.0323
11.8859
7.41242
3.63285
140.168
227.987
227.284
218.622
192.737
270.816
343.75
224.867
217.347
212.028
159.631
108.032
131.077
151.944
83.9455
31.5545
23.0263
16.9935
11.6803
6.51225
157.621
214.443
212.041
196.143
171.493
258.345
315.628
219.843
205.21
210.401
239.122
235.979
152.653
161.963
103.69
36.9748
26.0914
19.6847
13.6396
7.72761
399.859
234.789
193.636
158.127
137.419
206.589
284.924
192.491
183.053
187.09
172.313
162.79
158.162
140.396
88.2336
28.1373
25.8246
23.1336
15.7246
8.53176
440.817
306.929
231.598
152.582
124.156
184.884
292.781
249.947
245.815
220.995
219.071
237.282
199.603
134.744
72.0275
28.3702
27.4092
24.881
17.2196
9.61721
114.998
224.51
218.586
169.257
131.671
121.974
188.449
157.379
138.648
121.446
108.181
103.784
81.9544
66.7906
36.5153
33.0046
31.327
29.508
26.9207
18.9255
126.443
175.103
190.692
187.775
159.859
133.931
115.75
99.7859
85.3218
70.3212
58.5845
49.5006
43.7993
39.3324
36.0244
34.7527
34.1584
33.1864
32.1932
28.3782
229.486
231.415
189.561
150.178
128.124
118.861
103.991
89.878
74.7011
61.6246
52.1796
45.7923
40.8446
37.2665
36.0201
36.2163
36.4114
35.7783
33.774
25.9956
103.212
214.424
188.247
153.102
131.801
123.959
106.913
91.5622
75.0421
63.1199
54.5948
48.2811
42.1835
35.2421
28.8736
23.6877
21.2516
21.2167
21.847
20.7352
144.853
159.089
159.477
134.791
114.186
110.755
100.842
88.681
76.4043
70.3141
62.3922
53.2142
42.7811
32.4594
23.8644
18.0154
15.482
15.2676
16.1199
16.7175
328.869
247.88
183.834
139.527
105.164
97.2881
94.9357
87.5118
76.5276
71.7511
67.3413
62.9678
56.5258
49.832
43.0716
36.343
30.2288
24.0929
20.7945
16.7668
276.269
148.533
98.7159
100.418
106.846
105.804
95.3529
83.5746
73.4835
65.8574
58.5126
50.8937
44.267
39.2636
35.9221
32.0889
27.1094
20.8899
16.1712
10.6942
114.92
63.9459
38.4261
42.3062
57.0695
70.956
72.7332
71.703
66.9143
59.2605
53.0585
47.4509
42.0458
36.2566
29.9688
22.9972
16.3081
10.5911
6.7428
3.69919
81.4475
140.577
126.046
87.3433
73.2915
63.5887
50.8644
39.8395
33.3194
29.83
27.5309
26.1087
25.062
24.4059
23.8349
23.1056
22.5407
21.2993
19.8931
18.4166
266.163
160.359
106.393
71.5407
58.3758
49.1011
41.7808
38.1667
34.4359
32.2059
29.6684
28.1266
26.4241
25.4199
25.0053
25.0152
25.1571
26.0891
30.1062
33.9449
257.552
137.289
106.018
69.3802
54.6184
50.1909
44.064
40.321
34.5474
31.5815
29.0087
27.8184
25.912
24.228
23.3256
23.4249
25.3912
27.1593
27.1654
25.3284
152.521
136.855
101.973
68.9917
51.7053
46.9511
41.09
36.1466
30.9931
26.4558
22.6746
21.8501
21.4962
20.8026
20.1212
19.5953
18.2959
13.6636
10.1124
7.68084
145.081
120.28
96.4162
74.2335
57.759
51.1388
46.1442
40.1883
36.0686
27.986
19.8515
16.7623
15.5334
14.8072
13.0953
10.121
7.54669
5.53304
4.75781
4.44103
176.506
138.906
104.235
84.2538
63.6177
55.3648
49.2131
46.7555
41.6951
30.2964
18.2286
13.3374
10.8491
8.71324
7.18641
6.00499
5.0273
4.33601
4.13725
4.18291
111.243
135.114
104.118
72.0559
60.2186
53.6155
48.462
45.4402
38.534
21.8724
15.2537
11.7214
12.7349
12.5121
12.5059
12.3858
11.3511
8.14911
6.30572
5.15375
255.625
199.191
136.733
114.726
95.131
71.3989
66.5456
56.1962
43.3842
42.1854
22.3668
23.8211
21.4914
21.654
22.1138
21.2598
19.3194
14.3391
9.33572
6.06656
288.271
174.141
131.381
128.874
128.805
125.465
92.2283
59.1322
47.4327
43.2054
45.4425
48.6973
34.8066
29.1101
27.084
25.3739
22.4101
17.7509
12.591
7.36455
112.823
155.022
136.166
126.723
110.534
107.538
88.2608
57.1117
49.8034
46.1742
43.9841
45.2095
54.0272
57.1763
34.373
27.2143
24.5675
19.7196
14.2424
8.37474
564.768
147.759
112.942
97.3492
86.1223
90.356
83.7049
61.3514
52.2208
49.2213
50.2689
52.3932
53.2716
67.7426
46.6011
28.3449
25.9449
21.039
14.4861
8.47972
218.68
197.975
114.136
80.0789
65.9132
64.5011
62.0137
56.6699
48.8316
43.2866
40.2063
40.6434
42.1297
56.3424
39.7978
26.1971
24.5336
21.3117
14.3202
8.16841
200.147
169.076
111.549
84.2001
68.7009
60.6448
65.0406
59.3111
46.1229
40.3744
35.436
33.5064
32.9441
34.3786
28.753
25.3749
24.4396
24.0324
22.8073
15.4012
378.837
191.755
129.854
103.553
78.3609
67.9753
60.4237
54.9663
48.2571
40.8862
36.466
33.3679
32.3562
31.2982
29.3872
27.956
26.9046
25.652
24.9106
22.345
421.972
128.707
85.2025
76.9649
64.2162
62.2261
59.0644
53.7875
45.1717
36.4007
31.6446
28.0426
26.5649
25.3093
25.091
25.0674
25.0427
24.5853
23.4388
19.1708
143.312
128.905
93.5745
78.0851
66.2294
63.1242
56.5643
52.0163
43.2779
35.7289
29.948
26.2481
23.6365
21.1328
19.2919
17.3361
16.1948
16.0207
16.3273
15.603
237.921
176.968
104.597
90.5604
76.7387
65.2245
52.1434
46.971
40.2578
37.2026
32.5402
28.785
23.9042
19.9504
16.815
14.688
13.6678
13.6246
14.4649
14.6008
231.71
154.183
105.242
109.748
104.843
87.0067
63.1656
49.858
42.2004
40.1523
38.4407
38.2501
37.8679
37.3277
35.5906
31.6233
27.0036
21.4459
19.2106
15.1011
269.357
131.983
70.5027
56.7253
53.2378
52.5006
48.5219
45.9325
43.4963
40.5099
36.8065
34.6658
33.3074
32.4035
30.7973
27.6389
22.7892
15.8867
11.3118
7.10052
22.891
16.6215
29.1571
40.4577
39.9044
41.5953
41.5321
40.7822
37.3484
33.4834
30.1195
26.6858
22.5781
18.1336
13.7855
9.83652
6.51654
3.96273
2.26926
1.1135
197.461
160.693
139.386
107.63
85.3613
69.6597
55.0329
42.987
36.0227
32.3576
30.0831
28.469
27.2051
26.3524
25.5961
24.337
22.9509
21.0471
19.1994
17.5091
411.122
212.886
122.614
74.6432
58.1267
46.9223
38.5432
33.7378
30.1727
28.7473
27.115
26.5787
25.7665
25.4509
25.0757
24.4322
22.9153
21.1505
20.9428
22.5993
228.032
162.341
112.867
66.9598
49.4033
41.8897
36.5534
33.0764
29.2017
27.7895
26.1012
25.527
24.4181
23.579
22.0539
18.3926
15.4132
13.5479
13.8377
14.1568
91.885
137.761
117.17
68.6125
47.1026
37.6397
33.7452
29.657
26.6579
24.2973
22.4279
21.925
21.3145
20.1801
17.3634
13.4379
10.3954
7.7559
6.49705
6.16933
260.059
142.844
93.7425
64.2866
49.3586
40.1243
35.9428
31.1272
27.4718
23.4987
19.5882
18.0698
15.8899
13.7191
11.0764
8.51267
6.7917
5.61923
5.20251
4.94202
104.471
127.531
93.0593
64.2559
49.4339
42.2769
37.7024
34.8273
29.8413
23.8048
18.3411
15.9462
12.4664
9.52787
7.74451
6.6246
5.87664
5.25049
4.97652
4.74548
121.187
153.056
96.3692
60.6196
49.0881
42.2478
38.5911
34.0727
30.115
21.6244
18.0359
13.2301
12.9868
11.6995
11.6174
11.5153
10.8094
8.80571
7.49581
5.78146
232.129
148.441
119.451
102.419
71.4077
52.4525
48.3497
44.4423
34.6131
35.2457
23.363
24.4082
21.7089
21.2056
21.8624
21.5498
19.8301
15.5041
13.2869
10.2338
207.481
173.303
120.051
95.7771
79.0707
69.6888
54.3897
44.2487
39.2367
36.7486
38.0295
41.8826
36.9395
31.0216
27.72
28.3321
25.7218
20.4146
16.9426
14.3024
259.092
160.618
122.01
100.987
81.733
72.8424
56.2039
43.9642
40.4946
39.863
40.4788
40.8735
42.8525
49.5211
37.0671
31.7202
29.2147
23.8559
19.666
15.9038
415.013
156.533
104.439
81.4386
67.739
66.243
57.6496
46.0361
41.9799
39.9582
77.1395
78.2433
65.2193
53.6387
48.4824
33.8681
30.6514
24.3353
19.9331
16.3096
307.268
166.973
96.7771
64.7679
54.7124
50.3447
48.781
44.1071
39.6152
37.0421
37.9507
41.7214
44.6596
47.8909
39.6148
33.3561
30.164
22.9985
17.728
14.4764
300.468
206.66
100.716
64.9946
54.75
48.5554
47.088
43.1494
35.9869
33.2748
31.8205
32.0327
32.7588
33.6404
29.3882
28.0162
27.0179
24.4641
19.8898
12.6898
278.886
177.665
125.485
88.6473
63.2137
53.3026
45.7738
39.9354
35.5368
31.7163
30.1841
29.1072
28.9567
28.6336
28.3509
28.0718
27.6439
26.8824
26.2839
22.9584
214.118
149.756
78.3047
62.9498
53.7569
49.1102
44.5656
38.7265
33.268
28.9649
27.3659
26.1216
25.8967
25.8542
26.0374
26.0662
25.7995
24.713
23.4688
18.9052
153.444
141.902
93.3652
68.1142
57.5339
52.2368
44.2036
38.8692
31.981
27.8865
25.1251
23.7001
23.2127
22.9772
22.6789
21.6703
19.8211
17.7066
16.9905
15.4891
170.628
120.151
89.4986
72.2672
60.8353
52.2342
41.8678
37.6824
31.4874
28.3998
24.3918
21.8308
20.3653
18.9603
17.7823
15.7855
13.8751
12.4149
12.2695
12.3439
199.378
137.424
97.574
79.9233
70.9385
59.425
45.1364
39.4632
34.1347
32.3051
29.3227
27.0203
23.4269
19.9991
16.8484
14.6181
13.4382
12.2278
11.8234
9.9307
251.653
130.298
86.8292
64.2268
51.1076
45.7066
40.2398
38.3202
34.824
32.0452
28.5401
26.0942
23.7114
21.2293
18.3934
14.4749
10.4982
7.11567
5.76212
5.04628
19.5937
23.865
52.2567
55.9657
52.904
49.9484
46.4714
42.4706
38.1318
33.9342
29.9882
25.8215
21.4928
17.0731
12.8646
8.98858
5.73385
3.36867
1.86199
0.881532
222.93
163.077
138.528
112.993
89.0557
70.2766
54.5364
42.4564
35.8551
32.4422
30.3849
28.7816
27.5293
26.8492
26.4741
25.5826
24.1406
22.6777
21.6606
19.7578
278.044
195.185
130.714
78.9729
65.4903
49.54
42.4786
36.3601
34.6404
32.9852
32.7668
32.2253
32.0851
31.8292
31.9782
31.9762
32.2575
32.0963
30.7041
29.5328
293.305
186.559
120.415
67.9294
53.5254
41.5397
38.9409
34.1143
32.734
31.3876
30.9709
30.5204
30.152
29.8884
30.0978
29.5365
27.3277
25.2647
24.796
25.5854
228.364
173.373
130.771
70.8375
51.5031
38.2545
36.557
31.4928
31.321
29.1414
29.3619
28.4476
27.9905
26.967
24.7375
20.7377
17.5102
16.3975
16.8695
18.7684
148.031
164.26
111.952
66.6893
53.331
39.4724
37.5113
31.4848
30.8174
27.9642
27.7437
26.8458
25.2041
22.0897
18.9098
15.6897
13.5905
12.4523
12.507
13.5056
284.112
144.008
95.7459
63.6609
53.1288
41.8704
39.3013
33.4456
30.596
26.9932
25.1257
24.2174
21.0425
17.9
14.946
13.0539
11.9672
11.0388
10.164
10.1921
184.293
166.809
106.501
60.9123
53.0052
42.0178
40.2148
33.3388
31.1761
26.4215
24.8795
19.1234
18.0078
15.7189
16.152
16.6668
17.846
18.3222
18.0496
15.6343
352.617
199.439
137.52
91.3885
68.2339
51.7975
46.5418
41.8709
33.652
32.8576
27.9382
27.7319
22.9128
22.4712
25.4569
24.487
24.0121
24.0662
24.4543
24.7085
178.445
190.202
127.192
82.1759
65.5011
54.8551
48.1498
43.352
38.9615
37.3991
36.7333
39.371
36.9143
32.1359
30.7773
30.142
27.4804
26.4042
26.472
27.145
227.056
162.375
127.699
94.0603
77.0687
64.1005
50.7415
45.3914
42.8408
42.187
42.4573
42.7115
45.9811
50.001
38.7554
36.5253
32.5206
29.325
27.9745
27.925
431.074
146.797
107.039
76.085
65.8177
61.1115
52.3809
46.048
44.1647
43.1148
67.2651
69.2029
73.5853
65.6455
46.0584
40.5536
35.0403
30.4382
28.5958
28.3898
280.179
143.207
94.7716
62.4853
56.6167
49.6894
47.6131
44.623
41.9119
40.4515
42.7919
47.9281
53.7965
54.6757
44.1778
40.7833
34.2934
29.3568
28.0519
28.3917
186.546
155.438
92.2803
59.819
55.9056
47.1715
45.0219
41.5879
36.5282
35.2319
35.0224
36.2439
37.7351
38.3331
38.2025
36.781
33.3637
28.7345
26.6777
26.0299
209.724
167.172
110.97
71.4544
60.2883
48.9029
43.6718
36.9453
34.683
32.0599
32.112
32.2342
33.2988
34.9213
36.8748
36.9635
36.5376
34.8022
32.2614
25.2476
196.269
196.276
90.3927
60.1189
53.8819
43.8689
42.0843
35.4646
32.9013
30.4494
30.3935
30.5601
31.4963
32.9811
34.3135
34.4724
33.5843
29.8084
24.7469
20.8485
100.622
173.522
127.825
67.117
58.0124
47.4088
41.6389
35.1305
31.5186
28.9941
28.5958
28.6389
29.4131
29.9248
30.2354
29.6988
28.3738
26.6555
24.8908
22.6061
210.804
121.939
89.6309
65.1051
58.0695
46.2939
40.3252
34.6335
30.679
27.9285
27.2773
27.4165
28.5936
28.9093
29.1958
28.5548
26.9977
24.343
20.9516
18.7866
191.396
135.567
99.5605
70.4928
60.9588
49.0534
42.427
37.3378
33.8406
30.6672
27.9515
26.0979
26.0552
25.6016
24.9144
23.0326
20.8846
18.4475
16.9242
16.5989
311.338
138.286
105.097
67.6965
55.7624
44.4797
41.098
37.3213
34.1447
30.3912
27.3766
24.4585
22.8646
20.842
19.5055
18.2289
16.9318
15.6938
15.4015
15.7736
14.886
48.4746
67.8571
65.9964
56.8396
49.9503
45.17
40.1182
36.0863
31.8541
27.8725
23.6517
19.5996
15.519
11.6029
8.0869
5.26184
3.19373
1.80688
0.870449
122.355
124.233
118.856
103.56
82.4042
60.6495
45.1738
37.2729
33.3296
30.8355
28.9607
27.5865
26.9711
26.7228
26.7517
26.5805
25.9559
25.8137
25.9248
25.0553
301.294
174.827
132.356
79.4288
83.6767
58.3603
67.0428
53.6162
60.2632
53.5948
56.8782
53.0044
54.253
52.2544
53.2792
53.0358
54.6771
54.5679
54.4258
52.4208
216.612
188.625
125.015
70.4672
70.8026
49.9365
58.9646
46.9371
54.1361
48.5629
52.5438
49.2559
51.0434
49.409
51.136
51.1304
52.2482
51.7834
50.7885
49.3171
206.26
200.759
149.385
73.8352
71.2225
49.2868
59.5224
45.8773
53.347
47.1978
50.9032
47.5994
48.8532
47.42
48.413
48.4318
49.4939
50.4034
50.2681
48.51
233.571
196.614
131.719
73.0134
71.8206
48.652
58.8569
43.8144
51.1573
44.2659
48.2497
44.6156
46.253
44.6257
45.9538
46.0938
47.3618
49.4331
50.6101
52.7067
273.209
146.993
115.186
70.7861
77.6663
54.5666
63.4316
47.7684
49.6675
43.0576
43.5043
40.9256
40.0154
39.8876
39.8306
40.8125
42.9194
46.7769
49.0231
52.6349
190.539
155.197
118.89
67.6827
74.1925
51.4252
60.0199
45.8308
46.9205
39.0713
39.1678
34.5142
35.9255
34.6365
36.6635
37.7513
41.0847
44.6806
47.0378
52.3307
280.842
158.418
143.355
91.3532
92.1687
72.3317
63.9388
50.7901
50
42.9403
44.8818
40.9823
41.6215
40.2542
40.7922
38.9664
39.7462
42.4073
43.9389
47.3737
219.677
172.258
135.735
77.6217
73.7302
63.2002
65.202
58.3471
57.5093
53.4287
52.2398
52.6264
51.4691
49.8711
48.5127
40.5517
39.3755
40.5706
42.2602
44.8511
193.438
170.398
152.81
96.9663
97.1966
76.5651
67.512
71.1515
68.8457
63.4481
59.3813
58.4922
59.1706
58.6585
53.9193
45.7966
42.5438
42.1968
42.5312
44.3236
248.201
137.064
115.99
79.2116
76.9662
67.9181
66.4736
71.2342
71.9375
65.7782
63.6132
63.3185
65.5737
66.5013
60.5013
51.1073
45.0053
43.3649
43.299
44.6663
388.222
174.288
112.062
67.6823
78.2942
60.5186
61.7828
66.6187
65.8059
63.8645
63.2466
63.713
64.7665
64.861
61.1462
51.8711
45.9488
43.9607
44.0259
45.7662
331.543
148.508
100.047
70.1703
72.4816
53.2418
56.8911
51.1988
51.9277
49.7317
51.4709
51.9745
54.8407
56.0288
58.0937
52.9776
49.6883
49.4274
51.0254
54.5669
286.043
159.627
111.122
68.769
80.1488
55.6179
60.614
45.6702
48.334
43.5413
47.6988
48.0458
53.087
56.4677
59.9409
59.64
60.1724
59.6809
59.0848
59.6507
330.081
259.389
120.619
74.8586
68.1462
49.9781
57.2932
41.686
45.7493
41.168
45.1918
45.17
49.2944
51.1023
54.2678
54.5899
55.6605
56.0951
57.0233
59.1606
259.575
237.928
172.881
74.8363
73.5148
50.4079
56.6365
42.2891
46.4957
39.8794
43.4405
41.0492
44.6295
44.9227
48.2502
49.8557
53.3747
54.8502
56.1765
58.0735
265.744
154.641
102.158
70.1175
66.5573
47.1061
52.3032
38.9236
44.2153
37.754
42.8451
41.573
45.9414
47.2842
51.1068
52.5188
54.9344
55.8161
56.2551
57.4574
213.439
134.785
108.918
69.3532
69.2742
49.1231
56.2929
44.1353
49.8409
44.0276
48.691
47.2751
50.6239
50.4509
52.4527
52.9663
54.6287
55.6992
55.9018
57.6197
485.659
203.061
135.21
75.5709
71.1742
47.9581
57.0901
43.8528
51.2776
45.3906
49.7691
48.2959
50.6354
49.953
50.5955
49.858
50.1928
51.3791
53.9314
58.7081
79.6069
83.5253
85.0474
77.1053
59.038
46.7493
40.2182
34.7659
30.6732
26.4515
22.8361
19.3941
16.1909
13.0517
10.1599
7.60607
5.43642
3.69829
2.52092
1.89624
40.3252
42.195
78.6872
40.6613
41.494
42.3322
110.824
40.6188
81.9164
79.9951
41.5756
41.577
113.241
89.8762
74.5549
37.7756
38.5865
41.1551
92.9108
39.2679
41.4198
78.0257
39.5901
43.7236
97.2743
90.9744
42.9964
48.554
237.793
311.736
226.354
118.808
75.3192
117.389
70.6963
217.77
218.052
202.727
67.7239
54.9787
64.9379
56.8546
214.689
202.811
215.525
52.708
48.2231
54.7755
50.2381
189.291
223.701
240.889
47.9803
50.1479
49.2323
47.2881
107.959
242.481
229.27
51.4016
54.2697
47.1583
49.4076
124.367
197.253
142.04
52.0587
36.2551
53.8249
66.4424
150.334
148.611
159.567
34.156
30.0531
68.6697
56.7192
135.422
161.054
163.023
29.226
27.0075
48.9554
33.614
228.397
319.528
223.078
108.185
69.6443
105.132
72.7128
207.19
204.939
175.686
64.6841
57.2155
67.897
60.8065
206.957
168.601
155.764
55.5162
51.7997
59.7543
57.6079
232.714
153.36
145.478
50.8023
48.4734
57.4894
56.9032
241.454
145.319
150.342
48.0517
48.5416
56.8073
56.7331
160.77
155.907
184.516
50.1444
59.3523
56.6473
56.5979
160.946
192.63
155.026
65.8754
68.8166
57.0007
79.8648
161.393
148.515
143.87
60.4373
36.3941
85.457
53.9167
204.267
276.758
239.643
100.676
75.7344
87.1486
69.8688
183.067
243.233
246.754
69.5442
59.3914
65.7847
57.0045
186.349
245.74
231.542
57.9031
54.7104
55.0071
50.3449
177.785
224.19
218.824
54.4048
55.7214
49.0741
46.0187
164.144
221.314
239.977
56.4534
59.0749
45.5595
45.5464
156.866
243.887
237.623
59.1632
59.8067
45.731
47.3678
156.471
239.811
188.847
59.8779
69.0029
47.2079
50.6514
130.916
153.02
107.843
85.035
65.4762
64.818
70.0616
251.177
324.131
257.529
72.8928
66.032
80.2619
73.057
247.624
249.328
228.364
64.0284
56.746
70.7977
58.6204
229.446
221.796
202.302
54.7084
49.7708
55.3284
48.7336
216.066
195.683
187.525
48.2307
44.415
47.0838
43.0071
236.561
185.342
184.326
43.8434
43.5388
41.8237
39.4761
218.825
183.913
155.495
43.6268
44.3815
39.0025
37.6791
153.938
121.574
98.9509
44.303
53.0983
37.8193
42.7341
117.198
103.665
104.219
65.8499
62.5641
44.2096
42.038
64.4651
95.6811
62.0734
60.8341
48.4959
63.0615
47.9853
49.4176
57.5735
50.8958
46.2707
41.8058
45.8665
42.2007
43.3818
49.2446
45.5442
40.3365
37.4405
41.3604
39.647
44.587
44.6707
42.9219
37.5074
38.6595
39.325
38.8533
49.0857
42.7788
44.0975
38.8672
41.5787
38.7852
39.2043
37.2414
46.6299
54.8873
42.7804
38.6785
40.1395
43.357
30.0806
57.5473
54.4201
36.7587
32.1658
44.4723
47.932
26.6002
49.0922
34.3351
30.754
26.7532
47.6584
37.0605
60.8366
84.9218
63.5821
61.1805
47.6256
62.87
49.6424
51.1446
59.8273
54.2916
45.7178
42.3453
47.5513
44.3029
46.9417
53.4719
51.7767
41.6673
40.6295
43.8123
43.2793
44.3344
51.6603
51.2831
40.4963
40.4755
43.4406
53.0854
44.2226
51.3165
51.8275
40.54
40.6403
55.4832
60.2591
50.2314
51.9917
52.1599
40.9474
42.6453
60.3628
56.7249
59.9327
52.2847
63.2564
43.2257
49.0188
54.8827
51.4689
37.3284
70.5732
55.4779
49.5707
40.6357
53.2369
54.2616
66.1796
75.0676
62.0234
62.0278
50.6677
57.3006
49.1012
53.4298
58.5023
50.8701
48.2004
44.0765
46.8994
42.1388
49.5942
49.1189
45.1112
43.4148
42.3519
41.0389
38.7128
49.7543
44.0797
41.9064
42.0204
51.2682
38.2891
38.3482
52.2168
41.6595
42.0603
53.6047
58.2428
38.9369
41.9767
53.1787
42.4194
44.3305
59.0084
56.8276
43.1067
45.6143
57.5367
44.5721
46.9244
55.6828
51.5004
45.7953
45.2149
64.4257
55.2936
65.4172
52.4129
55.5338
46.9039
54.3294
58.3318
64.8911
63.3326
50.7776
47.1637
50.5061
48.5225
50.5698
61.4508
51.4372
45.8177
41.8422
46.8071
41.111
44.5279
48.6301
42.9542
40.7338
38.0799
39.2902
35.6374
40.5419
41.5889
38.3993
37.5332
37.2447
35.0169
34.0324
40.3732
37.5432
36.0454
37.5891
39.7198
33.873
34.1565
41.8909
35.7999
35.1263
40.5189
42.627
34.385
34.8582
46.4969
35.2536
38.9794
42.9216
43.3202
35.3489
38.0407
59.2377
40.5928
40.4891
46.4681
51.5836
38.9292
37.376
45.9015
56.8987
45.6702
48.0376
43.5275
49.7405
44.1539
40.5863
43.994
40.9063
42.4876
39.4804
43.2371
40.9065
36.6263
40.2126
38.9417
38.2115
36.3208
40.3712
39.6605
37.9032
38.7774
38.6624
36.4866
36.879
39.6768
39.7187
40.505
38.6106
38.9762
36.7651
38.6614
39.5711
39.9273
38.6268
39.8421
42.6374
39.6374
37.7394
40.9315
43.737
32.5355
43.611
47.7996
36.6992
32.9529
44.6855
48.0883
26.8498
47.6917
37.3361
31.4316
28.2089
47.2873
37.1675
45.5554
58.1592
47.3957
50.6011
44.4262
52.8168
45.5936
41.0486
45.5891
42.6981
43.4706
41.2593
44.4234
42.3931
39.8507
42.2627
42.0164
40.8327
40.5121
42.0582
41.825
41.1266
39.9607
41.0351
39.6372
41.3078
39.8831
40.665
44.8672
40.5541
43.3792
40.6651
44.0539
40.7554
44.1085
42.3698
77.418
64.9097
41.9177
43.9799
81.5507
69.0436
48.5497
61.1428
52.7462
44.7698
50.2027
66.8822
60.0437
40.9814
53.4797
54.5105
50.4553
40.236
59.7723
53.1316
48.1011
54.0232
46.8343
52.2795
45.7497
49.7932
44.7896
42.5414
44.9411
40.8714
44.4895
42.3262
43.6483
41.1522
41.2707
39.9298
38.0264
41.9464
41.4875
40.5297
39.2874
55.4887
57.034
39.98
45.7934
43.9072
261.85
40.0747
88.6723
78.222
58.067
233.573
61.3185
221.31
83.8319
68.5362
45.2037
48.1305
89.0714
81.754
50.6147
56.694
53.6591
48.2119
46.978
80.1769
66.2454
57.7123
58.1625
55.7041
48.2917
54.2877
64.061
56.0224
58.9878
54.4401
45.3748
48.2947
46.3028
47.0006
44.0921
46.2154
44.0136
40.5858
44.6126
39.6089
43.1864
40.7402
42.503
38.6351
37.3957
37.9485
34.8155
40.0316
38.6351
37.3122
35.4078
37.3201
34.3827
33.9214
38.5912
39.9812
35.3512
35.7958
40.7232
33.9174
34.6052
41.0188
44.829
36.0319
37.4777
44.2747
34.949
35.6984
46.2841
50.9395
37.9613
39.1434
45.2849
36.2808
38.6214
52.1715
53.6756
39.6325
41.0126
50.9122
39.2486
37.1151
54.1873
49.7567
41.1557
39.2744
44.3827
49.8144
45.7673
57.4808
53.8965
59.1984
61.4527
40.2137
45.036
42.7119
52.2173
49.7446
61.1789
58.7433
37.3192
42.1505
41.2504
49.7226
48.3847
58.0994
54.854
36.899
41.1781
40.7506
46.9641
43.8389
53.5964
50.4491
38.599
40.4645
40.786
44.2188
46.1445
49.7983
49.6415
37.8072
41.8288
44.62
46.1245
44.8187
50.1358
51.2815
33.4942
45.5378
47.6011
44.5635
42.9435
51.5694
50.9796
29.1667
46.2268
37.4923
42.1701
39.9967
49.8199
46.3753
46.1148
52.7817
46.9183
59.9359
62.2921
60.9228
62.0668
43.298
46.0708
44.5626
62.2858
60.6691
62.7743
63.0507
42.1623
44.234
43.3428
60.002
55.7985
62.5819
57.3948
42.5203
43.4911
66.736
54.5171
51.8255
55.9887
55.6549
42.3225
70.0935
67.5374
51.1989
50.6353
56.3132
56.7024
45.099
65.3099
63.5059
50.9825
52.5087
56.6818
58.6421
50.3013
63.4536
60.9457
53.0404
53.5336
59.6488
61.056
40.1871
60.6578
51.1817
52.696
48.4135
60.5421
54.923
46.948
50.0696
45.9562
59.8686
61.5543
57.0965
59.5028
44.511
45.1321
43.1831
62.4046
62.949
60.1098
60.1036
43.0966
42.6415
41.2279
62.5454
57.5027
59.7429
56.4086
62.9719
41.1245
42.9246
56.1391
55.9876
55.2523
54.7102
69.4327
44.3714
49.4522
56.884
57.9245
55.2336
57.5434
72.2523
51.518
58.0729
57.9747
60.2818
58.4707
60.6836
67.4051
59.4711
60.1626
61.6534
63.3258
61.278
61.4471
53.476
60.1953
52.2118
62.5362
56.1415
60.8142
56.769
45.3096
46.6871
44.7705
55.3901
58.1677
53.8391
52.8716
42.5508
43.2763
39.5831
58.4681
57.8757
51.4343
48.7956
40.5387
38.3776
36.8573
57.5393
55.4222
48.648
48.6067
41.7779
36.8417
37.3397
54.5102
54.3002
48.3166
48.1166
46.474
37.5975
39.1488
54.8099
56.5751
48.4311
49.8106
52.6256
39.6241
40.7162
57.1012
58.6069
50.0336
50.988
54.6631
41.1307
42.2164
59.0721
59.3494
51.5621
52.6248
48.7527
42.2879
40.4963
58.9475
56.0226
52.5884
51.2421
60.4277
66.9382
70.0767
93.9894
88.5795
97.0998
106.849
56.9128
69.7765
67.4456
87.8589
97.4439
106.776
107.306
55.5266
66.8457
63.5857
99.0858
93.1649
107.426
109.28
51.2696
62.0707
58.7237
91.4011
97.6444
109.882
112.185
53.0462
58.1971
57.4408
98.0833
92.2221
112.076
107.281
51.3423
57.3523
57.4646
90.6026
90.629
104.741
97.1647
50.4174
57.6203
56.9834
91.122
89.5031
96.1753
94.7334
47.1574
56.1685
52.7176
89.0694
87.8218
94.2388
91.2848
71.1205
68.1032
70.8841
98.313
109.201
100.637
109.619
69.5646
71.7429
72.3393
109.459
109.796
110.805
113.983
65.1658
71.9693
67.5607
110.375
115.059
116.551
128.459
59.9425
65.3716
62.8043
116.505
118.569
132.262
136.454
58.5142
62.771
62.3558
118.236
113.117
135.538
126.254
58.8
62.3943
63.5664
110.16
100.091
121.218
105.558
59.3351
64.2931
65.545
98.268
96.9516
102.193
100.733
54.6416
65.1663
60.3311
96.5466
93.0088
101.078
96.8422
70.1782
62.9101
67.7174
93.0859
106.946
85.8822
101.402
72.1958
68.4659
68.6042
109.095
113.465
102.99
105.171
67.9163
68.2745
66.4651
116.245
129.029
106.538
114.948
63.5726
65.3462
63.8855
133.289
137.622
117.732
121.044
63.2806
63.9277
64.6114
136.469
126.505
120.639
115.229
64.641
64.7653
65.4968
121.12
105.321
111.866
100.838
66.9406
66.0445
66.4557
101.897
100.682
98.592
98.3844
61.6824
66.0655
62.5162
101.413
98.7237
99.2037
97.986
66.2143
60.2604
58.3696
88.1935
98.7767
90.1753
82.0646
66.0914
56.9972
55.1065
99.4719
100.864
80.8486
83.8089
64.5609
55.3601
55.3973
101.588
107.43
86.5042
86.57
63.1446
54.9006
54.4451
109.314
111.796
86.15
88.5121
63.6614
54.8449
55.8553
111.6
107.997
89.6742
88.5649
64.3551
55.9345
56.7737
105.604
97.7499
87.9598
88.6306
65.1334
57.4795
58.7436
96.6488
97.0737
89.8126
91.77
62.0038
58.7925
57.3096
97.9141
98.2461
92.6905
93.4007
42.0676
40.1442
42.6224
40.469
41.8445
40.1918
43.1713
45.3545
41.9843
55.1392
46.2016
43.1359
41.5452
200.161
51.8569
48.8638
69.8341
254.509
45.9305
56.1046
268.796
41.3439
39.8719
40.9616
41.4809
40.1941
40.772
41.9806
42.4545
40.8544
41.2799
43.9082
40.559
43.6389
42.9047
45.8997
46.9266
42.0358
66.4047
41.5376
209.188
43.8741
53.0847
264.1
52.3201
95.9668
57.7029
278.225
48.2603
45.4198
40.5745
44.7387
40.8163
44.5874
40.7819
45.4224
60.774
51.2657
87.6596
243.809
53.277
58.7918
231.661
62.758
54.9916
86.7271
125.444
55.1829
59.9678
159.666
45.2756
41.0261
41.57
44.651
41.0901
44.5496
45.2193
45.6681
41.1287
41.5403
45.3643
41.0959
45.5997
45.4253
62.0566
252.208
54.5986
112.953
60.0843
241.386
56.2751
62.5685
130.637
55.4061
104.687
59.8029
167.19
56.3836
71.2948
69.2429
54.3846
247.407
49.8805
256.96
79.1126
39.6809
38.6375
37.7716
37.7503
39.0419
38.585
37.8667
42.1034
42.0672
37.9733
39.3495
40.1746
45.0423
38.3136
58.5634
47.0177
61.6209
41.0407
259.743
40.5052
46.5354
77.4976
256.683
82.7923
64.3848
268.239
87.0711
56.4972
40.3675
38.2117
39.989
39.4535
39.0001
38.4023
40.7868
43.3157
40.3407
46.0437
40.0743
46.7976
39.0236
42.8868
90.5215
81.7315
67.3727
149.219
64.666
201.338
93.5677
51.0972
44.137
40.8608
40.6926
46.4319
47.9349
42.317
53.9492
51.1171
42.2562
45.7979
48.7442
57.0629
44.0292
98.9107
241.862
98.5097
70.1609
228.796
93.1232
74.7685
100.137
150.439
98.9829
79.0971
196.579
100.439
78.4423
53.7059
41.8907
49.178
44.8366
50.1376
43.7286
52.4054
56.7945
47.5125
57.9375
46.7557
59.8093
45.633
55.4486
152.986
193.165
153.414
103.931
88.0089
115.487
95.7465
126.775
134.503
129.622
71.4366
63.8365
73.9415
62.4192
94.2823
122.307
116.905
56.5202
54.6671
55.6955
54.6306
48.8203
109.791
88.7369
50.5121
36.6943
56.5375
54.4839
27.0646
63.3028
51.1791
22.1223
21.008
45.5478
37.4409
33.8872
50.7225
55.4352
22.8429
22.8006
30.5173
27.6612
53.1775
68.6163
77.4728
22.4786
22.7722
27.5811
28.3021
44.7123
78.1104
74.3402
23.8082
22.3468
28.5307
27.8616
223.556
267.688
205.022
178.6
146.903
180.863
152.029
168.559
294.365
339.021
204.106
171.133
202.016
287.685
97.0539
217.764
222.79
109.343
102.248
104.72
214.309
83.9658
216.664
211.742
89.9164
87.954
85.063
215.681
82.6301
209.028
228.877
82.9857
83.4324
82.5885
228.91
96.9177
132.112
216.394
89.8054
89.0808
87.6158
192.846
73.592
109.713
121.887
61.0361
51.9823
93.3238
124.655
52.9114
138.509
144.516
44.6127
43.9053
55.8197
147.328
47.0784
151.503
158.978
43.0052
42.8983
47.9425
159.665
59.0329
98.0719
74.7847
29.8267
27.1366
32.8378
31.2005
204.121
250.36
202.88
159.633
134.485
158.186
128.981
155.114
271.855
316.721
183.834
154.284
184.564
272.884
99.865
214.509
220.667
104.603
98.74
105.224
216.193
89.961
204.952
202.376
88.7001
86.9491
92.2987
196.177
83.4799
217.14
188.833
82.9502
82.1092
84.8762
190.432
81.9323
242.971
220.093
82.5478
82.8614
81.7642
229.7
87.8261
221.039
236.75
90.2969
98.5309
84.8747
234.268
128.05
153.341
187.659
126.388
122.766
117.308
163.331
68.648
164.639
156.851
70.1265
60.4202
84.3566
162.792
83.2555
100.991
81.0786
35.924
32.4981
39.5132
34.868
176.098
192.471
168.202
131.255
116.544
119.388
104.141
148.693
250.119
276.999
168.464
154.183
164.172
243.636
96.842
186.696
205.422
110.299
100.744
104.207
206.965
89.5196
183.231
218.004
89.6193
88.7094
90.393
218.725
86.4734
186.582
214.809
88.0965
88.9969
86.4738
210.711
90.2681
167.722
205.491
97.7349
100.133
89.4668
206.441
98.7832
159.355
213.185
102.816
102.963
94.8812
212.332
103.587
164.831
200.779
101.779
104.309
102.523
189.36
130.415
137.714
144.017
140.158
122.997
134.328
129.726
64.8783
71.1043
48.2482
45.0927
36.4083
45.2805
36.207
176.179
188.344
181.517
103.267
83.4612
103.726
92.1364
135.231
267.082
297.462
156.84
133.766
158.001
274.927
101.284
248.986
248.835
104.407
100.346
105.996
245.67
88.4213
242.196
239.721
91.7823
89.6465
90.9028
234.807
77.1703
215.976
213.193
82.2107
79.6649
79.853
207.676
72.0487
225.669
208.794
75.5171
75.7341
72.4131
212.898
70.4246
236.446
220.255
76.3028
76.3591
70.7611
218.151
66.3589
185.363
149.372
66.6189
64.8018
63.4268
135.1
81.1062
127.394
120.419
98.6275
96.6458
84.8224
121.859
53.6344
69.0769
53.1371
40.6826
34.0435
39.2582
32.4095
169.814
196.588
173.812
106.375
91.73
106.435
91.3786
149.408
161.24
155.466
80.9792
70.7655
78.8131
72.8543
129.82
142.343
130.964
62.1542
57.6456
66.4847
62.4927
114.183
118.736
111.28
53.7636
49.2887
57.5679
53.8789
106.166
100.825
93.9588
45.7207
43.67