/*--------------------------------*- C++ -*----------------------------------*\
  =========                 |
  \\      /  F ield         | OpenFOAM: The Open Source CFD Toolbox
   \\    /   O peration     | Website:  https://openfoam.org
    \\  /    A nd           | Version:  10
     \\/     M anipulation  |
\*---------------------------------------------------------------------------*/
FoamFile
{
    format      ascii;
    class       surfaceScalarField;
    location    "1.6";
    object      phi;
}
// * * * * * * * * * * * * * * * * * * * * * * * * * * * * * * * * * * * * * //

dimensions      [0 3 -1 0 0 0 0];

internalField   nonuniform List<scalar> 
38556
(
-1649.71
320.668
3605.12
-468.245
-240.459
-941.005
68.6717
-33.4145
-503.502
133.306
66.2983
-130.933
319.845
130.45
-316.988
376.866
101.485
-158.505
449.371
59.3269
-131.832
499.904
-9.91043
-40.6231
541.004
-62.2707
21.1706
580.855
-85.8023
45.9514
616.289
-86.6879
51.2543
650.372
-68.9942
34.9109
680.915
-52.1345
21.5922
712.462
-18.092
-13.4558
741.246
4.33989
-33.1238
764.596
38.2118
-61.5612
789.201
58.8229
-83.4285
841.649
83.769
-136.217
912.255
87.3455
-157.951
93.908
-124.117
-943.852
906.596
2500.81
-523.291
-353.865
-307.157
-35.8967
-227.441
-293.367
0.539713
-100.039
129.901
255.987
-34.1164
-90.8801
323.86
41.7896
-8.17842
413.158
3.56944
-33.5404
457.962
-32.1487
-22.5663
493.691
-87.8754
-10.1242
516.598
-95.898
-12.8115
535.253
-93.763
-11.5798
548.743
-62.2891
-20.1952
557.683
-36.4249
-24.6496
571.608
5.74696
-37.7642
594.331
33.556
-51.939
624.465
73.2761
-65.1985
678.501
106.186
-101.399
778.325
106.918
-122.973
865.814
69.2856
-69.4293
62.385
12.9304
-1767.49
-801.621
2850.86
-1085.17
-919.035
-117.154
-221.921
-676.107
-414.579
-27.9811
-297.674
3.69488
200.421
-222.89
-39.6295
289.96
-52.0267
4.27771
358.586
-74.2395
9.18364
400.749
-65.9977
-8.31489
438.827
-126.084
0.130837
476.578
-116.323
-17.3258
510.414
-109.672
-17.9269
538.361
-62.0011
-28.2353
557.911
-29.7948
-26.18
578.45
12.3092
-27.1018
603.437
34.6516
-26.0824
644.646
63.1763
-31.1091
701.445
75.9346
-26.548
741.698
52.8254
13.8398
732.568
20.5483
57.867
28.7001
58.8126
-795.625
-949.241
2977.43
-442.614
-999.413
-272.633
48.5406
-626.626
-540.636
127.678
-355.682
-21.1288
252.563
-295.021
-52.7542
280.573
-117.956
37.9189
330.679
-157.411
33.0645
338.367
-98.4257
24.7403
368.037
-172.605
16.8505
388.328
-140.955
4.34125
428.888
-144.084
-6.14845
459.966
-67.3
-25.779
488.492
-28.0626
-30.2583
506.41
17.9857
-23.5941
519.306
32.2371
-10.4816
519.761
42.2878
20.4329
485.582
35.4531
74.6612
421.639
15.8946
100.873
343.491
19.9792
78.7171
31.3178
44.9266
-255.52
316.316
-107.163
-16.774
-608.707
-629.451
188.106
-645.077
-186.429
261.122
-387.103
-41.5943
304.148
-328.429
-9.61678
343.477
-159.433
2.1486
372.655
-200.24
13.6511
370.955
-98.9616
2.23649
340.319
-182.339
40.3698
302.49
-141.758
38.6326
288.901
-182.733
52.2384
286.874
-93.3033
28.0296
293.064
-62.9819
28.7303
292.202
-13.107
31.9538
284.801
-3.46802
43.1059
272.058
2.84872
52.1826
253.484
-0.717826
54.7445
232.093
-3.97852
41.2641
221.162
3.74684
27.1641
15.9968
16.482
1881.71
1463.43
2345.14
1453.29
-18.5751
-161.716
1026.41
-304.769
86.5787
884.87
-283.225
37.6581
701.996
-248.124
102.569
627.803
-112.722
27.4805
612.613
-232.01
46.9602
552.012
-84.6391
46.2785
438.983
-148.653
79.3427
284.489
-76.9315
89.6671
185.951
-154.69
70.4952
135.528
-73.9617
31.0814
134.075
-98.0082
36.4793
137.203
-59.752
43.5174
139.413
-52.3393
46.661
149.564
-54.155
46.8523
166.392
-59.0851
41.5394
183.358
-52.0335
31.0896
194.232
-28.1985
21.0709
-0.663222
10.4831
321.115
1570.42
33.2599
529.119
539.659
-766.238
411.279
256.726
-443.654
305.936
73.1273
-251.009
330.106
-234.692
-37.6025
329.623
-139.717
27.479
340.542
-57.2488
73.198
-107.21
-48.7874
-102.881
289.864
-41.5353
93.0937
-27.1301
-35.7276
-22.6618
137.049
-2.6507
96.9164
-43.6554
-1.57256
-44.8757
10.435
-3.89982
73.0765
-7.12555
-5.11701
-7.25148
-49.323
1.9253
6.62021
-51.4993
0.113173
-52.0915
-44.6918
-18.9277
9.60818
-32.7919
-13.3459
-23.1354
8.28305
-26.6085
11.7425
-62.8161
-16.8148
-56.4862
49.8903
-31.194
44.1279
-43.5607
-26.28
-44.4523
89.0425
-127.151
35.6596
115.493
-122.969
42.3633
151.164
-129.458
34.7017
181.045
-109.423
27.5091
207.682
-72.5827
17.7479
-25.819
8.52963
1216.63
301.459
1361.84
1879.07
358.222
-481.003
1777
466.042
-107.254
1694.54
314.449
-158.857
1369.67
28.347
61.8286
273.992
11.5022
107.85
275.332
276.275
275.397
2.1939
13.3028
-5.89068
228.167
-26.2624
14.8386
-163.563
139.972
-20.3023
2.35768
-114.84
95.8502
7.40124
8.93788
-55.34
38.5546
-2.10787
14.9934
-27.0994
22.1188
4.81557
2.09029
-2.91953
12.4595
-23.4822
-4.98549
-16.9152
30.7614
-32.9867
-7.46799
-29.8116
41.3949
-43.0631
0.285711
227.025
-29.1025
11.1582
-42.9284
-61.1363
-46.6809
-58.2035
-51.9151
-26.9035
-48.4639
236.232
-167.432
35.2563
244.216
-181.601
44.1588
250.564
-158.454
42.6829
252.467
-105.593
31.1071
-42.6137
15.0267
377.752
-139.821
-707.602
1190.62
117.949
-572.597
1467.11
552.553
-363.002
1644.62
341.469
-204.526
260.614
269.692
233.686
232.228
346.267
330.479
206.705
13.5255
51.8859
-3.49253
-46.8003
43.5428
2.5384
4.21163
-38.7044
-5.60378
39.4142
5.76562
-0.871605
-35.5993
-2.74614
37.1552
1.75938
-0.56909
-36.2023
-1.81138
37.9685
0.084728
-0.0395208
-32.4466
-3.13771
29.4513
2.26347
3.86954
-15.2861
-0.00933502
14.7051
0.328127
0.262234
-11.0355
3.02756
12.9007
-2.33315
-2.55961
-14.6248
6.60989
18.0293
-6.16771
-3.84668
-20.1781
86.3627
-23.5372
-5.33433
-22.9566
-20.6131
-22.846
305.181
-142.935
2.11457
-75.6755
-86.4686
-78.0221
-91.6259
299.872
-198.618
22.3253
296.088
-182.231
27.5609
289.758
-127.049
27.7864
-55.0723
15.7904
-808.9
-1839.17
540.943
568.614
-947.262
-312.302
1110.18
214.692
-203.707
1405.3
-104.125
150.48
314.981
130.338
228.06
291.29
359.481
350.839
-12.1404
265.277
23.7309
38.1137
7.1415
-52.6557
49.1512
-5.22117
1.58418
-1.38583
-48.9108
51.1572
-1.1837
0.323157
0.0169024
-56.5067
57.3487
-1.82168
0.962798
0.679241
-57.6486
57.5319
-1.16191
0.599376
-1.07482
-57.1756
57.3721
2.23445
-1.35612
-5.22923
-58.2827
57.4361
4.56095
1.5149
0.0529269
-30.7073
24.4998
1.94509
4.20954
-0.660875
-21.7583
22.8048
2.67491
-3.06056
-28.8448
8.92869
122.267
13.4203
-24.0317
-29.1907
-30.4613
-32.0879
371.38
-95.1759
47.0884
-108.901
-113.27
-114.388
-129.668
343.151
-181.885
11.4951
328.355
-162.52
-4.91428
308.29
-107.636
0.652017
-51.1802
5.65223
-1876.09
-2596.85
668.174
-666.645
-1456.99
-699.723
284.893
-372.94
-363.906
387.126
-370.796
164.438
122.28
-76.1637
141.362
88.0722
146.366
95.5478
-8.72525
131.237
-26.9997
26.7684
-2.36121
-39.1351
39.9738
-3.33148
4.85396
7.61608
-45.2181
47.113
-11.0047
1.49367
12.5228
-52.2397
53.2201
-15.2422
1.73898
13.0917
-54.3757
54.5682
-15.531
2.24682
7.31382
-56.948
58.8828
-14.3832
5.13451
2.43936
-65.8244
68.8216
-11.8398
6.40332
-7.02199
-76.0655
79.1246
-3.15427
7.11712
-6.81671
-45.1087
31.9464
11.8033
8.17562
-27.7969
-36.4002
122.323
53.074
-15.5985
-27.2234
-33.968
-34.4101
394.363
-32.6232
51.5649
-112.77
-117.598
-134.445
-143.668
347.051
-129.399
-5.17301
326.512
-115.686
-26.2964
308.722
-80.1528
-9.69372
-47.0813
1.31145
669.141
-2552.09
-3578.16
-223.471
-857.007
292.631
810.078
-867.431
-539.058
582.126
-322.856
180.011
159.697
-217.431
69.153
168.089
159.033
167.421
49.1185
161.257
-42.2081
-8.47025
17.8201
-40.1429
40.3924
-17.3371
-0.7325
17.0563
-42.1534
44.1639
-18.1046
-0.962331
14.5527
-46.9835
46.8408
-13.4114
-0.998613
14.0449
-44.0531
42.669
-12.5429
-0.117937
16.6213
-39.0673
38.933
-15.388
-1.09903
17.0598
-41.4314
43.1965
-15.894
-2.93089
12.9012
-46.2995
48.359
-8.75001
-6.21068
-26.7616
-38.5348
33.4229
27.3669
4.50662
-35.6848
-64.3337
165.441
63.2401
-9.46298
-38.3873
-39.8983
-40.9145
555.875
26.7889
47.4395
-153.072
-161.9
-171.679
-176.076
444.751
-46.436
28.1603
357.097
-41.321
13.2902
312.163
-45.4926
10.2737
-36.2754
3.87527
778.52
-293.092
-941.406
441.785
-44.6247
-475.647
713.851
-517.578
-621.919
613.826
-237.11
14.2786
602.972
-232.771
26.1942
145.614
-268.577
-3.09184
65.2973
87.3884
64.447
85.3489
147.959
138.669
139.917
15.7521
151.549
-61.8112
6.39542
9.08805
15.6251
9.01535
11.1891
-146.435
146.393
-37.1679
0.863414
7.42842
10.6305
7.09834
12.2887
-147.053
150.245
-40.7392
0.123869
7.1739
11.3584
6.60258
12.0194
-140.126
136.445
-34.245
0.104758
7.46451
11.3568
6.98037
13.4263
-131.02
132.264
-40.7307
-3.21868
8.55875
12.7856
7.93432
13.2174
-124.402
125.518
-33.6575
-8.35343
8.02607
12.4435
7.2083
4.43348
-121.374
123.93
-11.0211
7.79097
-6.18362
5.41808
-2.99409
-17.9947
-124.63
144.39
37.3927
17.6391
-22.7721
-13.8736
-20.152
701.806
35.0973
98.8345
-47.5079
-45.5356
-47.1034
-53.7904
-158.788
-158.771
-163.069
-161.173
696.36
-47.6832
79.9183
657.257
-82.6051
75.2724
600.664
-71.9668
87.239
508.101
-51.276
98.3465
-35.2304
62.7509
1391.38
-820.472
3231.61
1178.48
-261.358
429.632
1004.41
-284.613
-58.8917
1106.34
-194.593
-144.454
1076.24
-169.685
-32.9818
1016.84
-149.902
-59.2804
914.539
-2.57388
-6.24304
52.9716
12.5333
46.0853
-0.468611
835.743
-101.121
17.1189
47.5598
38.7687
41.0781
35.3911
744.22
-49.8629
46.3852
40.5711
12.5489
36.2619
5.61944
671.109
-107.887
50.0372
40.1154
29.2254
36.1154
25.5033
602.345
-107.219
70.9946
41.8627
14.5759
37.2391
11.3104
569.31
-144.759
79.28
37.4158
16.3713
32.5517
12.1758
568.237
-119.086
107.847
24.208
-13.1174
18.4329
-17.2114
593.779
-121.063
145.911
0.780094
-21.8508
-2.69292
-26.6262
624.953
-126.892
130.815
648.382
-160.612
89.4999
673.753
-170.8
62.8248
706.566
-157.727
52.9469
686.876
-84.053
52.467
-18.993
26.2087
-1130.11
-228.084
3335.94
-147.633
-353.067
-890.763
362.162
-287.414
-506.993
411.92
-221.273
-23.0772
553.702
-233.576
-77.891
615.696
-180.138
-31.7579
698.163
-104.322
19.2816
675.905
-83.8673
5.00485
617.845
-37.3673
45.5637
549.026
-71.731
32.6637
490.107
-100.023
51.7232
453.347
-150.255
42.2567
439.75
-144.788
39.2981
436.793
-150.768
32.6619
443.316
-138.959
5.54389
458.924
-130.674
-45.5464
486.533
-123.074
-75.3362
522.951
-98.0993
-96.0449
520.958
-9.55331
-72.5067
53.8196
-50.5439
493.995
-108.864
945.762
409.608
-161.958
-106.721
804.264
-14.204
-667.867
842.081
-31.9502
-227.14
842.733
-142.724
-91.5033
864.529
-139.873
-62.0616
861.055
-89.3953
-11.4525
813.592
-19.5023
-16.9024
711.617
47.7497
16.8585
624.227
18.0772
-2.41882
528.127
-4.60026
0.678331
454.963
-47.4859
-29.6061
404.811
-46.9725
-47.6637
374.856
-46.1063
-74.7066
369.859
-35.205
-98.7571
383.434
-23.0937
-121.155
418.024
-17.084
-140.58
464.746
2.74614
-147.567
491.588
70.1971
-106.592
98.1113
-46.3132
2616.73
1922.22
-962.891
1552.07
406.287
496.421
899.683
388.978
249.201
907.602
92.9073
-132.777
746.95
-78.6887
96.6168
684.854
-105.436
27.6602
603.199
-33.6651
25.9248
573.487
47.0338
-36.8248
552.645
80.9198
-12.3273
545.907
68.5761
-43.7615
537.384
49.1942
-45.2713
520.349
18.8782
-49.3292
482.287
15.3768
-24.287
442.701
19.742
-26.263
424.419
32.2769
-49.1996
426.258
42.2476
-67.1797
449.685
44.128
-84.6389
488.497
36.3946
-72.4608
516.23
64.448
-21.9843
77.9661
13.1739
1277.55
3514.52
-4454.22
1290.14
1018.55
-624.854
1663.43
599.016
-583.332
2070.28
74.5106
-388.45
1822.35
41.11
128.129
1396.36
65.5952
254.959
946.584
142.322
273.791
775.165
142.249
76.2039
722.211
117.48
16.393
720.132
78.1733
-7.51762
732.02
45.5487
-8.24309
756.966
13.1804
-19.2481
774.429
7.48419
-9.56998
778.85
12.0221
3.29859
756.118
30.3006
24.7081
713.642
42.4291
42.2944
654.995
43.2418
59.5338
600.867
24.4602
66.0618
558.062
34.6881
72.5654
41.0518
61.1675
-568.872
1738.09
505.602
-128.144
635.568
-57.7451
402.531
33.5093
34.8323
467.211
57.7116
-47.8809
515.858
59.3451
-66.8827
576.462
122.104
-117.112
610.09
117.701
-9.00743
657.877
109.443
-14.9806
673.446
74.9169
26.994
683.497
48.8796
19.2427
675.966
13.0253
40.0552
668.531
-10.2396
30.8542
660.283
-31.4538
47.1861
654.552
-33.5132
51.2668
644.658
-15.2305
55.4246
620.481
5.66392
60.942
558.493
21.4056
83.8241
486.328
14.7438
81.8813
430.773
17.5233
72.7205
17.9656
49.8152
1166.27
216.842
1070.73
731.11
929.236
175
1058.71
-71.7667
950.681
167.378
947.133
125.653
901.362
163.472
909.027
101.777
890.817
93.1271
880.299
59.3982
846.943
46.3814
809.651
27.0516
747.458
30.7396
674.288
39.6568
571.474
87.5832
470.024
107.114
401.506
89.9231
355.555
60.6948
335.829
37.2491
22.7494
-666.871
-841.311
4452.99
11.2443
-399.15
-1219.97
438.955
-206.79
-724.423
568.22
-24.2044
-235.994
521.784
75.578
-346.13
491.019
64.9076
-192.648
464.28
45.8847
-150.978
476.604
-8.79287
-44.1538
506.653
-46.0062
37.1272
547.669
-57.9341
62.87
585.996
-53.2048
66.1322
620.539
-37.0652
37.4332
647.573
-20.1475
14.7051
668.2
-5.94912
-28.1332
684.398
4.19077
-53.5127
698.44
6.70012
-82.3042
713.322
9.92196
-108.232
729.131
-0.131973
-151.894
758.27
-14.6138
-172.476
-7.08733
-136.401
-443.569
-817.828
4961.38
-217.35
-444.087
-488.439
-48.5144
-226.86
-442.133
13.1837
-107.605
151.603
200.571
-53.7497
-148.94
255.194
13.0887
-10.9823
324.398
-23.3883
-33.4711
357.838
-40.2029
-24.5962
393.041
-80.9421
-10.3912
415.967
-73.5038
-20.1678
437.249
-65.505
-20.5622
448.341
-35.463
-32.8895
456.866
-15.2661
-38.0561
461.433
0.798922
-49.0789
465.667
5.68166
-57.6638
469.562
3.31726
-65.7107
477.83
-4.31202
-95.4327
509.319
-39.2376
-115.357
560.737
-52.8029
-82.6575
-25.3444
6.74096
-1395.64
-1399.41
1245.83
-967.481
-752.995
-236.406
-365.974
-635.994
-606.952
-166.909
-289.652
-13.3228
68.9213
-226.347
-102.862
150.238
-63.312
-0.638532
227.221
-107.319
16.1314
269.242
-86.9775
-3.56187
318.666
-139.172
8.93664
358.195
-114.5
-15.8585
394.114
-103.813
-15.5376
418.058
-58.5899
-29.0518
435.927
-34.3787
-24.9372
448.44
-13.4412
-25.374
456.826
-5.35807
-23.429
467.249
-11.3749
-26.8402
475.819
-21.2097
-18.2202
482.752
-49.717
17.3867
472.24
-47.2228
62.7986
-21.0934
72.9619
-299.556
-645.907
3586.57
-107.848
-704.611
-512.725
-24.3606
-492.365
-767.753
46.1462
-293.563
-87.7248
126.381
-246.207
-113.128
157.21
-91.7287
35.5069
227.042
-175.893
31.8067
242.638
-108.854
31.0202
288.635
-194.761
26.4426
316.298
-146.934
9.11197
357.327
-147.91
-3.08043
376.59
-77.236
-26.397
390.978
-49.6236
-29.4009
391.228
-12.2186
-25.0669
383.785
-2.17979
-6.21746
369.398
-0.743805
24.1891
338.616
-1.75634
85.9897
298.839
-11.2572
102.191
249.31
4.36019
76.6636
19.7351
36.6336
-817.272
-1116.23
-757.294
-387.328
-599.267
-1164.74
-32.6941
-505.634
-527.793
25.6265
-280.191
-113.287
96.676
-250.217
-76.6573
129.516
-116.277
-6.1419
185.972
-234.722
16.0234
202.256
-130.131
7.22947
220.357
-226.312
53.8202
223.01
-159.102
48.1477
244.313
-175.288
58.3143
256.047
-90.2972
29.3568
266.231
-67.7333
36.6552
265.418
-24.1609
44.709
257.921
-14.9647
63.3884
246.379
-10.2183
73.1989
234.943
-13.0121
77.4365
220.693
-15.2589
59.5155
211.625
-1.57434
42.167
12.9959
23.3285
390.268
-514.336
796.904
435.95
-175.225
-631.441
345.299
-370.803
42.3992
363.166
-277.873
17.4721
350.891
-215.35
79.9772
340.463
-106.099
27.7305
374.001
-275.154
53.8542
325.013
-91.4365
56.5718
259.844
-189.139
107.339
169.888
-76.6795
97.2012
134.69
-138.598
69.0027
110.744
-51.5765
16.307
118.438
-79.605
40.657
126.484
-50.1863
61.4967
133.762
-58.5771
82.9953
149.082
-66.9645
88.2782
169.549
-71.0998
79.1605
187.262
-58.8962
57.0134
199.667
-30.3808
37.4733
-0.313513
16.5805
1338.38
1596.28
189.041
684.277
518.957
-806.32
225.899
160.054
-516.134
111.892
-130.076
-284.799
180.631
-244.362
-77.3298
165.079
-109.715
46.6469
173.919
-44.5876
78.1777
-99.1362
-45.8534
-99.3964
131.157
-27.0948
115.746
-14.0492
-21.9534
-8.2293
14.8075
-2.90005
132.281
-49.4419
-2.88572
-52.9267
-62.2322
-1.98264
82.2473
-3.10702
-1.38967
-2.33123
-72.8253
1.56316
-24.5321
-50.3582
1.53672
-49.5945
-57.7107
-10.6339
5.038
-20.2119
-10.1578
-21.1172
1.13902
-13.228
4.75201
-52.5046
-14.1787
-51.5526
47.956
-23.1777
71.738
-42.1463
-20.8518
-38.4377
93.5769
-133.461
64.9224
127.89
-142.122
83.2078
164.904
-149.978
76.5666
190.889
-121.297
63.9258
215.247
-79.3274
42.3359
-27.5758
20.1501
1245.46
-743.614
564.708
1471.05
116.86
-304.494
1300.85
220.82
2.17713
1108.42
18.7857
-115.285
910.693
-88.1324
103.325
199.042
12.3966
121.627
194.802
183.811
179.86
0.699745
12.6318
3.95746
-39.6083
170.151
-14.6373
38.5495
-13.7236
-114.08
97.2646
-15.6586
19.1028
-15.049
-78.2089
65.8923
7.98223
16.4833
-25.6637
-37.2191
28.6928
-4.35718
36.5645
-6.36701
-16.1462
14.9118
4.392
4.77267
13.6536
-0.570714
12.3376
-16.8725
-19.1818
16.4588
-16.5855
29.5049
-22.1215
-20.4846
2.01777
-28.0176
41.3422
-36.2831
-2.23693
199.492
-27.9463
4.31341
-40.8588
-48.5871
-35.8306
-40.2653
-51.0121
-28.9402
-52.6678
234.325
-177.076
35.3767
252.983
-198.033
73.5553
261.443
-171.391
84.3169
262.495
-116.005
66.7328
-47.1409
33.9168
392.27
-528.915
-2203.18
649.444
-340.08
-372.831
781.222
211.836
-485.797
743
20.2006
-167.719
171.917
95.0553
210.844
158.161
133.458
119.118
-81.0881
182.817
10.2457
72.3395
-13.3618
-4.60747
-46.348
45.4691
4.65238
14.1958
-1.76139
-34.0518
-5.41713
33.0904
5.63721
2.50276
0.716522
-29.8869
-2.76655
31.7003
1.03034
-0.793664
0.757415
-31.5854
-1.20126
33.5594
-0.535593
-0.994559
-7.3892
-33.6631
-2.68289
34.4895
1.58688
7.65879
-5.50826
-27.7748
-1.52918
26.2891
1.8744
6.64877
7.27718
-18.0267
2.16835
18.4403
-1.90942
-7.9497
10.8957
-16.1552
6.26214
18.0553
-7.01575
-12.0422
-17.575
12.6849
76.8653
-25.4627
-19.1078
-19.9142
-16.5527
-18.8839
295.154
-132.973
-44.6841
-70.159
-85.5289
-60.6969
-76.0733
303.594
-193.421
9.2729
306.107
-185.968
39.6251
301.443
-137.962
54.4072
-61.1229
33.882
757.604
-376.687
1416.28
633.844
-588.254
59.6308
828.23
90.7041
-276.961
1016.13
-123.377
106.16
269.21
123.177
189.335
267.069
245.416
245.034
-49.2083
-13.289
260.009
31.8373
39.8608
-9.24005
3.4798
-55.9454
51.915
-0.00140537
9.79202
-3.53254
-3.66545
-47.4016
47.7945
2.46356
4.3416
-3.17975
-0.0578549
-49.3412
49.6209
-0.487369
3.44519
-1.14192
1.88004
-50.0721
50.2314
-1.94343
1.04598
3.08144
1.00811
-51.159
51.5832
-1.14489
-3.36881
-3.38452
-2.6916
-52.9914
53.7544
1.78026
3.53285
-12.3725
-3.52734
-54.3106
52.6747
4.8746
12.6611
3.5776
3.11895
-40.5741
37.4213
-1.47909
-2.06466
-32.3222
40.8312
17.5967
126.125
-0.413731
-47.2757
-36.0817
-32.0733
-36.3862
444.089
-53.8172
12.3011
-116.667
-134.708
-108.173
-128.91
411.581
-156.513
7.09418
376.354
-154.747
-0.908206
337.56
-115.666
17.1494
-56.6981
20.8026
-425.996
-2204.93
-2962.93
-670.274
-902.948
-140.751
61.1426
-314.207
-690.411
150.077
-206.568
158.695
103.401
58.3404
76.7238
48.3171
91.0361
36.7975
-52.561
-29.9309
129.904
9.18347
46.8049
-13.2742
-9.27856
-42.7915
45.3578
6.49303
13.4934
-6.61262
0.669271
-48.0948
48.769
-2.46573
7.73486
-5.92105
5.17412
-50.8564
51.4215
-6.53162
6.71347
-7.0192
5.31716
-53.0308
53.8887
-6.60672
7.45087
-10.4126
3.27733
-57.7222
59.5094
-5.03704
10.385
-10.8875
0.497847
-65.9523
68.1236
-2.32012
10.5385
-13.4457
-4.24559
-73.5722
74.8479
2.82244
13.5931
-27.1722
-6.80065
-74.0198
68.6524
11.3503
27.9899
-47.619
27.7273
-22.9344
169.994
54.3874
-30.3051
-49.7363
-49.5084
-52.0058
538.474
27.9676
50.628
-151.089
-157.575
-150.474
-160.183
461.836
-94.1068
9.05875
391.516
-103.735
-6.98798
342.856
-81.4918
4.79221
-48.5763
11.9615
-215.854
-2210.07
-1967.18
-35.9284
-939.474
149.232
343.391
-718.029
-514.556
327.464
-189.343
178.713
122.292
-91.0543
57.5858
131.043
113.48
121.611
8.03531
16.8299
134.061
-28.8305
-7.80354
0.547982
10.3853
-36.7294
38.2593
-12.083
-0.380106
-0.0422049
8.66095
-39.8209
40.2727
-9.56283
0.492363
1.30825
7.49745
-39.8899
39.4993
-7.33805
-1.07709
0.949382
8.29809
-38.0707
38.0243
-7.9587
-1.24246
4.55313
8.25869
-39.0745
40.0105
-8.2217
-5.52607
8.1973
6.52725
-43.5283
44.9842
-6.90254
-9.27796
6.17416
4.45074
-48.4101
48.6441
-5.29036
-5.56855
-10.5227
-15.8999
-48.0275
48.6481
15.3571
10.445
-44.9668
12.0655
-73.0347
180.423
63.7613
-5.71666
-43.8166
-45.1825
-43.5327
626.809
73.0378
63.475
-172.423
-177.575
-167.908
-170.009
503.203
8.58472
49.0752
388.609
-8.50312
32.652
328.431
-33.5782
22.5378
-35.0089
9.89532
1306.42
-1466.61
656.167
817.974
-563.923
-362.755
489.518
-455.847
-555.645
376.844
-123.572
61.1826
414.302
-150.465
48.1465
96.0679
-209.233
9.43053
54.2348
74.3253
53.6358
72.6587
93.5163
85.1689
81.405
10.9392
-19.3913
101.129
-34.3538
19.1259
4.60212
10.4509
3.56552
7.295
-5.04215
-86.6779
90.9876
-22.7025
3.96102
3.41336
6.47286
2.29271
8.00565
1.20501
-99.9868
108.41
-29.5027
-3.8123
4.4458
7.36037
3.87456
8.2953
2.00281
-99.8615
101.583
-23.2164
-5.59902
4.7807
7.61536
4.40003
8.56581
7.8287
-103.893
110.409
-25.2665
-13.3957
4.21616
7.73489
3.8009
7.06148
14.9118
-105.392
108.466
-15.1025
-20.3312
2.67968
5.99842
1.70902
2.07956
-2.30232
-107.871
117.151
4.81595
-5.79645
-4.24932
1.21332
-5.04147
-9.47256
-16.0088
-123.014
144.888
36.4621
9.34178
-16.1176
-9.88207
-16.1964
677.85
93.9449
131.834
-45.0428
-53.289
-41.7392
-51.2465
-158.091
-155.69
-150.708
-148.988
683.001
41.5677
106.237
635.631
32.9221
98.3049
558.52
34.3635
121.484
468.971
13.9047
140.412
0.184077
80.1347
1234.66
-3332.4
1006.53
1366.27
-534.291
268.385
1099.24
-288.01
40.3104
962.46
-127.623
-3.62705
805.097
-109.946
83.8627
676.661
-118.86
-21.2175
578.513
62.0947
20.3896
30.5643
-17.9661
21.7781
-24.9545
525.417
-98.9212
26.2117
37.2393
35.9125
34.4299
35.342
490.614
-29.1089
59.3461
31.6894
-2.48467
28.748
-7.00171
477.366
-96.9568
59.7973
31.7413
21.3395
28.489
18.8748
477.967
-63.2379
86.0869
28.7585
0.158961
24.5142
-5.88721
495.466
-72.4024
101.397
20.5153
1.18368
15.8426
-4.75554
536.275
-31.2301
147.077
5.83022
-26.9721
1.62574
-29.2934
613.751
-27.5846
190.067
-12.7453
-34.3874
-13.5829
-33.3311
684.957
-3.49131
157.045
727.006
-15.2394
104.258
751.952
-8.34154
79.1428
761.715
4.01647
73.5303
720.013
33.922
74.1525
40.5735
35.5815
-333.388
-1731.78
1453.36
-259.627
-315.973
-1182.84
154.196
-217.738
-991.088
227.963
-187.437
-37.0309
341.392
-187.841
-113.424
349.185
-144.647
-13.7636
440.637
-60.0878
50.0114
409.979
-73.8826
10.6244
405.256
-38.6816
59.8592
384.546
-77.4565
33.8732
383.852
-63.9395
53.1196
392.598
-79.843
40.9508
412.733
-53.433
41.3656
440.515
-52.8547
30.1506
471.295
-32.7919
4.06383
498.794
-28.7519
-59.5324
522.329
-17.4911
-89.7214
540.165
4.41342
-114.278
541.036
59.1956
-98.6515
70.0554
-70.2248
767.981
740.154
756.233
371.696
231.572
-257.98
572.32
-34.7769
-1051.45
593.741
-139.372
-296.626
598.655
-171.107
-113.152
584.646
-129.423
-63.2773
569.671
-63.8099
7.24567
518.299
-25.7039
-13.71
450.38
22.1554
23.9401
392.912
-16.2926
-6.11461
347.707
-9.69281
-8.36354
321.155
-32.7364
-50.16
313.866
-22.8413
-70.9671
316.253
-26.7747
-103.174
329.465
-22.3304
-122.43
346.263
-28.4104
-138.293
366.957
-30.2717
-148.494
398.777
-8.18297
-166.791
450.399
52.1765
-151.196
69.4204
-75.4588
856.774
2751.39
-270.366
391.857
707.103
485.806
502.116
127.888
-23.7224
478.7
-122.173
-126.561
443.584
-149.357
109.983
424.531
-93.0289
10.3192
390.446
-33.6761
29.8761
358.771
16.983
-47.8372
336.303
36.7252
-4.42896
310.748
19.1512
-53.6503
290.108
8.28083
-42.6051
271.84
-1.0523
-62.7454
276.406
4.08683
-55.7813
289.781
6.53293
-72.9452
309.321
6.09841
-97.1681
327.286
-3.49082
-110.064
348.582
-14.8931
-121.313
393.451
-17.0964
-108.417
460.748
14.8176
-51.9222
33.549
16.012
603.018
3594.18
-3800.41
746.98
481.731
-543.444
854.327
42.3447
-605.135
890.448
-179.391
-367.353
832.735
-65.7745
102.258
752.746
42.5227
199.397
635.131
97.859
259.871
571.942
86.2508
70.1255
527.494
63.977
33.5887
511.861
29.5036
-2.23697
497.473
11.0896
3.33629
483.416
7.21713
-13.4601
470.972
16.0055
-9.04506
467.722
25.3048
-12.223
472.329
24.9327
1.26647
480.417
15.7626
14.9531
489.333
0.389046
35.3355
493.632
-12.4811
57.1479
492.241
-1.87022
90.6443
9.74848
88.9954
149.59
98.2845
164.26
197.979
-288.137
663.734
352.966
-338.047
260.238
360.999
-77.8955
-157.41
358.282
-29.2168
-100.723
394.085
54.7742
-165.167
435.89
60.9351
-13.8891
481.834
62.2403
-36.9132
506.617
36.4524
29.7355
519.646
19.7082
16.0085
519.29
-3.52302
55.0244
514.421
-9.02594
51.966
508.516
-8.00333
77.1001
501.437
-1.61282
85.2636
490.291
0.065001
91.4382
470.45
1.21871
95.3258
436.551
2.32194
115.791
400.015
-3.02562
108.962
374.424
2.18104
94.2604
7.38116
62.0165
1305.57
1382.77
1071.31
677.229
633.134
275.13
629.123
-145.652
651.971
115.313
730.949
101.449
763.364
191.992
807.575
119.806
808.514
128.641
796.061
91.5592
747.122
91.7972
692.1
73.0475
624.634
90.2027
564.918
97.7597
504.738
147.828
444.402
168.668
394.567
142.08
357.295
94.9412
341.801
54.9246
33.2766
611.022
-2653.67
2893.9
658.589
-691.123
-576.414
812.058
-361.521
-516.371
839.447
-121.467
-141.916
698.311
47.9186
-252.913
604.797
54.4339
-153.568
501.998
49.7177
-97.8964
470.803
7.59303
-20.5524
478.675
-21.2671
50.5227
512.133
-28.045
57.4566
546.311
-22.5099
54.4643
571.615
-10.4503
22.5793
585.001
-3.73237
5.05176
585.686
-4.48551
-24.3335
578.999
-12.0176
-34.8079
573.037
-24.6795
-51.6625
569.234
-43.8636
-60.5661
569.028
-65.6702
-86.017
580.762
-82.8423
-101.368
-65.9877
-79.8171
463.025
-2171.38
3431.82
189.975
-644.013
-262.499
26.2618
-271.05
-368.89
87.6807
-128.67
97.3874
171.626
-54.3942
-130.573
211.164
8.42482
-4.51057
256.666
-24.3213
-4.93442
279.653
-30.5205
-9.46935
313.286
-64.3003
-0.991308
332.956
-48.2189
-19.6639
352.725
-42.1401
-20.7013
359.374
-17.1079
-32.8811
364.445
-13.3585
-33.5011
364.333
-14.9717
-38.4801
360.872
-31.1599
-35.0611
357.468
-49.3327
-37.6538
352.447
-83.7451
-50.53
348.942
-114.193
-63.3289
346.661
-115.127
-48.0919
-62.6845
7.76781
-552.942
-87.2501
-1341.94
-525.077
-427.484
-480.8
-324.396
-608.76
-469.923
-167.773
-301.054
2.43778
-20.13
-223.603
-81.2962
47.0072
-66.4601
7.10908
128.925
-115.786
25.6775
173.546
-81.2444
2.54194
230.587
-127.201
14.7958
268.363
-91.7747
-10.0786
302.853
-84.5875
-7.58017
322.217
-45.2636
-20.2599
337.915
-38.0706
-15.9236
345.439
-29.6136
-18.2568
343.714
-40.6007
-12.2626
332.611
-51.5418
-13.5281
310.996
-72.3305
-8.01989
294.106
-86.1519
6.23516
282.779
-73.2083
32.2068
-26.091
45.8158
2162.06
851.069
1507.81
1087.84
-144.225
278.239
188.765
-383.876
-93.5614
95.7272
-274.123
-21.6172
49.1705
-226.827
-63.3475
67.584
-85.4719
36.1053
143.784
-188.928
28.7485
165.607
-103.09
31.0425
224.531
-188.782
29.0996
252.922
-123.329
12.2757
290.352
-128.733
3.635
301.693
-68.446
-14.5556
310.514
-61.9133
-14.3799
303.236
-36.8533
-10.5487
283.477
-38.3468
11.2876
259.006
-38.2622
35.3797
240.932
-37.3979
69.1319
227.42
-38.765
68.3156
203.975
-18.841
45.7402
10.1113
18.9174
39.7086
-523.719
-139.051
-212.883
-417.359
-639.015
-18.2083
-436.428
-669.916
-24.1176
-266.788
-114.712
-21.566
-233.26
-72.7769
0.422796
-112.272
-1.33097
71.792
-264.04
19.7669
96.3267
-133.257
12.8624
146.185
-236.167
51.3474
169.738
-137.85
39.1151
202.825
-149.519
46.0141
212.511
-74.1244
25.3493
218.513
-72.716
41.4563
215.624
-43.6049
54.3493
210.523
-42.1549
72.2977
205.484
-39.6557
79.6309
205.292
-38.1355
78.366
202.673
-34.7192
58.0887
202.689
-15.5803
38.8906
7.97369
21.4774
1522.67
-375.522
3228.03
622.047
-117.617
-30.558
248.672
-341.847
321.195
228.004
-280.719
52.0703
197.278
-204.753
82.1964
184.185
-105.169
33.7216
226.159
-302.445
50.2841
180.755
-80.5363
49.2552
161.073
-204.358
95.213
118.716
-63.1128
64.8206
108.377
-118.912
48.7344
83.4046
-43.885
11.04
83.4215
-71.7806
39.7047
87.7912
-41.3678
54.8899
99.936
-50.791
79.4864
125.65
-62.1173
85.0256
156.624
-67.73
77.7808
179.688
-57.7647
56.9949
195.191
-30.1593
36.5497
-0.743917
16.1094
1853.25
1386.6
2024.61
824.229
464.56
-359.473
212.237
99.4542
-345.444
63.4295
-212.807
-203.902
73.4895
-230.161
-61.9822
33.9748
-76.4925
57.4847
30.072
-42.8105
63.6578
-98.254
-44.125
-98.8324
-5.36252
-15.8014
97.4071
-1.06996
-10.9409
1.04969
-47.0193
-5.1858
101.009
-57.6123
-8.12905
-60.5029
-71.7057
-0.950678
50.2816
-2.03542
-1.03071
-2.44379
-69.5301
0.324567
-43.8131
-49.1821
-3.00892
-49.9399
-59.4739
-9.02405
5.1677
-19.7397
-7.03715
-18.2702
-11.8788
-12.6153
2.92908
-49.5439
-9.41118
-45.9823
28.0164
-16.3059
74.405
-33.5633
-10.3946
-23.6662
72.5852
-95.3322
64.8949
111.891
-101.851
83.6357
157.03
-117.448
81.1458
186.605
-93.9264
70.5122
212.215
-66.3547
52.9218
-24.9518
27.7519
1176.37
-762.024
-1708.73
1835.36
-89.6465
-409.275
1365.05
148.33
423.606
943.885
-77.6345
170.711
702.091
-93.0055
207.963
145.779
20.4315
123.08
141.76
133.983
129.409
13.9302
21.8706
16.9828
-42.9492
116.778
-6.36847
35.5086
-21.2115
-64.6496
53.9438
-6.38739
22.5034
-16.5084
-42.5907
34.3407
6.22351
13.3491
-42.5076
-10.2833
13.8242
-4.32296
42.339
0.498677
-11.71
14.3108
3.07342
-5.8483
22.4829
-0.752383
10.5782
-18.2936
-23.0392
21.0129
-12.4736
21.7371
-23.9823
-18.9095
0.330204
-16.3863
27.9991
-30.4122
2.16341
129.792
-23.9451
8.09424
-26.0564
-26.2503
-20.3793
-17.6317
-48.7638
-21.0294
-44.8486
175.877
-146.841
34.2812
213.597
-155.672
74.0602
237.014
-118.54
85.514
249.12
-81.921
70.1926
-38.0774
40.3468
380.339
-579.282
-2842.57
602.909
-412.67
-272.379
491.924
180.451
-406.932
344.923
-6.1509
-92.2026
72.672
85.4782
157.509
53.9926
56.6109
36.4993
-74.9658
94.5111
13.5224
60.0359
-16.1231
-6.39323
-28.6358
29.7021
6.9188
14.5312
-3.11088
-23.9321
-4.89331
24.2339
4.64164
3.0608
0.978627
-23.5676
-2.38266
25.3735
0.62273
-1.02464
1.50713
-24.7668
-1.04272
26.4947
-0.626126
-1.56615
-7.54635
-26.5507
-2.92603
27.7367
1.99604
7.29037
-6.60513
-24.1532
-1.03028
24.0471
2.00964
5.73183
8.82692
-16.6587
3.59749
16.4698
-3.32058
-8.91493
12.6986
-11.6157
6.41401
12.7143
-8.14547
-12.0657
-10.5499
24.2478
48.5871
-28.0307
-24.9584
-12.715
-9.2533
-11.2726
192.806
-159.049
-52.0888
-42.5852
-56.4464
-31.6978
-42.4644
224.25
-180.793
2.94935
250.913
-147.773
42.1942
267.781
-97.8802
53.4985
-47.0565
34.5293
165.405
-1168.52
-1639.87
306.05
-693.941
200.257
571.638
71.875
-433.973
710.511
-88.052
49.1884
187.583
156.869
115.858
189.508
166.435
169.071
-41.4874
-9.96708
181.591
27.5088
29.9377
-12.6969