/*--------------------------------*- C++ -*----------------------------------*\
  =========                 |
  \\      /  F ield         | OpenFOAM: The Open Source CFD Toolbox
   \\    /   O peration     | Website:  https://openfoam.org
    \\  /    A nd           | Version:  10
     \\/     M anipulation  |
\*---------------------------------------------------------------------------*/
FoamFile
{
    format      ascii;
    class       volScalarField;
    location    "1.6";
    object      turbidity;
}
// * * * * * * * * * * * * * * * * * * * * * * * * * * * * * * * * * * * * * //

dimensions      [0 0 0 0 0 0 0];

internalField   nonuniform List<scalar> 
12920
(
-0.0512885
-0.0619512
-0.072969
-0.0930285
-0.0893088
-0.115535
-0.15724
-0.210696
-0.256371
-0.291025
-0.31817
-0.338535
-0.350379
-0.346293
-0.329103
-0.301372
-0.269253
-0.234418
-0.211674
-0.206412
-0.111204
-0.0754594
-0.0787691
-0.126084
-0.129254
-0.157764
-0.190109
-0.22348
-0.257823
-0.286764
-0.3113
-0.325222
-0.328881
-0.320926
-0.304621
-0.28355
-0.260408
-0.248296
-0.256364
-0.273568
-0.0697394
-0.076814
-0.0745421
-0.123396
-0.151985
-0.179261
-0.209642
-0.238833
-0.276174
-0.304474
-0.32786
-0.341057
-0.351561
-0.357394
-0.358185
-0.354022
-0.353211
-0.360785
-0.375957
-0.394857
-0.0287028
-0.069027
-0.0771503
-0.13256
-0.170857
-0.213718
-0.255863
-0.299486
-0.340875
-0.377711
-0.406368
-0.417283
-0.425461
-0.434048
-0.44553
-0.455827
-0.472405
-0.506655
-0.548403
-0.578467
-0.0210504
-0.0429122
-0.068681
-0.109288
-0.141216
-0.178321
-0.2161
-0.263473
-0.311295
-0.371573
-0.432097
-0.482497
-0.516482
-0.535807
-0.556961
-0.585105
-0.621931
-0.661887
-0.689286
-0.704712
-0.0136313
-0.0281203
-0.0468292
-0.0792303
-0.117999
-0.15363
-0.189385
-0.224972
-0.269515
-0.336665
-0.406
-0.482188
-0.521013
-0.568401
-0.605114
-0.634857
-0.663934
-0.698022
-0.731243
-0.753674
-0.0188063
-0.0389275
-0.0725814
-0.116316
-0.158357
-0.191428
-0.217396
-0.253379
-0.287202
-0.35783
-0.362697
-0.385396
-0.329671
-0.340227
-0.363516
-0.395467
-0.437597
-0.50124
-0.57696
-0.65387
-0.011029
-0.0263394
-0.0501276
-0.0822713
-0.116168
-0.153614
-0.166131
-0.184053
-0.208843
-0.213321
-0.26232
-0.175223
-0.112325
-0.085355
-0.113585
-0.170054
-0.222984
-0.277582
-0.339645
-0.410084
-0.0249548
-0.0404944
-0.0585847
-0.0794973
-0.0993882
-0.11157
-0.136471
-0.159252
-0.155272
-0.141571
-0.141334
-0.133036
-0.085787
-0.0541241
-0.0550064
-0.123281
-0.183585
-0.231815
-0.275912
-0.321297
-0.0500362
-0.0695382
-0.082857
-0.0993135
-0.115046
-0.117688
-0.121021
-0.119998
-0.111217
-0.0983435
-0.084691
-0.0777211
-0.0828196
-0.0713177
-0.0549771
-0.124703
-0.184974
-0.229847
-0.271862
-0.314279
-0.124574
-0.0658729
-0.0861595
-0.106757
-0.122232
-0.11839
-0.115091
-0.104656
-0.0934788
-0.0879747
-0.08921
-0.0902535
-0.0817029
-0.0820735
-0.0835826
-0.150579
-0.200022
-0.238613
-0.280664
-0.324325
-0.0546886
-0.0561403
-0.0653938
-0.100402
-0.124453
-0.118802
-0.107683
-0.0968071
-0.0919502
-0.0957732
-0.111555
-0.115154
-0.100026
-0.0917823
-0.109231
-0.161102
-0.214285
-0.266729
-0.320939
-0.372533
-0.0149358
-0.0460256
-0.0558718
-0.0859036
-0.109257
-0.122194
-0.117167
-0.112059
-0.12063
-0.139312
-0.162556
-0.158763
-0.130059
-0.112441
-0.153619
-0.207039
-0.260877
-0.310892
-0.363272
-0.423125
-0.0196912
-0.0395288
-0.0497164
-0.0652201
-0.0853205
-0.103655
-0.124744
-0.151557
-0.185614
-0.229323
-0.271534
-0.30311
-0.312625
-0.312884
-0.3206
-0.327482
-0.332948
-0.346955
-0.375701
-0.418311
-0.0466904
-0.038044
-0.0518067
-0.0824081
-0.0998988
-0.116123
-0.136764
-0.164634
-0.204268
-0.250986
-0.291049
-0.312935
-0.318506
-0.310791
-0.294772
-0.272904
-0.262719
-0.273344
-0.313464
-0.36919
-0.0172006
-0.0365758
-0.0477739
-0.0676436
-0.0891301
-0.109574
-0.134226
-0.165131
-0.205331
-0.244129
-0.273772
-0.281359
-0.271514
-0.247952
-0.224232
-0.20817
-0.203591
-0.218002
-0.267249
-0.342817
-0.00944581
-0.0230318
-0.0462732
-0.0672014
-0.0906369
-0.121158
-0.155325
-0.183152
-0.210247
-0.225216
-0.241893
-0.261233
-0.281175
-0.282621
-0.267873
-0.257982
-0.262589
-0.289022
-0.337555
-0.395635
-0.0129673
-0.0206144
-0.0291603
-0.0389253
-0.0526674
-0.0811066
-0.128419
-0.176507
-0.210551
-0.230908
-0.246704
-0.259731
-0.276893
-0.295854
-0.314092
-0.333977
-0.358665
-0.390454
-0.427353
-0.472668
-0.0262003
-0.0422625
-0.0597123
-0.0780283
-0.0952925
-0.117424
-0.148812
-0.177574
-0.20414
-0.230711
-0.260137
-0.292567
-0.324904
-0.35489
-0.381742
-0.411334
-0.450261
-0.50246
-0.558806
-0.614261
-0.0185418
-0.0268049
-0.0418701
-0.0616488
-0.0825948
-0.108036
-0.134971
-0.16131
-0.185334
-0.209836
-0.237038
-0.269581
-0.308111
-0.35412
-0.409296
-0.475515
-0.549215
-0.621229
-0.679213
-0.720945
-0.052407
-0.0424864
-0.0346833
-0.0283574
-0.0249227
-0.0247206
-0.0337687
-0.0554387
-0.0851663
-0.109443
-0.122287
-0.120287
-0.107289
-0.0877733
-0.0699457
-0.0550957
-0.043843
-0.0365486
-0.0334616
-0.0320293
-0.0773749
-0.0276247
-0.0196402
-0.0249073
-0.0212138
-0.024374
-0.0314127
-0.0397159
-0.0489572
-0.054517
-0.0560859
-0.0529484
-0.047669
-0.0423289
-0.0388792
-0.0391229
-0.0453811
-0.0620958
-0.0860688
-0.114343
-0.064777
-0.0234257
-0.0177614
-0.0218734
-0.0249538
-0.0289922
-0.0395791
-0.0492559
-0.0654544
-0.0737941
-0.0781922
-0.0767033
-0.0749818
-0.0746748
-0.0800746
-0.0951751
-0.123163
-0.163225
-0.199322
-0.216161
-0.012832
-0.0174123
-0.0171142
-0.0270133
-0.0363341
-0.0603263
-0.0841105
-0.102075
-0.123574
-0.132247
-0.137288
-0.132975
-0.132616
-0.139073
-0.163072
-0.205706
-0.253052
-0.276219
-0.265657
-0.233404
-0.00877927
-0.0104504
-0.0145757
-0.0248346
-0.0346843
-0.053102
-0.0807382
-0.109542
-0.148181
-0.17786
-0.196788
-0.209783
-0.228246
-0.24707
-0.265859
-0.274366
-0.2645
-0.231069
-0.190244
-0.155923
-0.00595626
-0.00782691
-0.0177995
-0.0310167
-0.0419912
-0.0512662
-0.0733634
-0.103114
-0.143587
-0.176191
-0.174495
-0.189101
-0.212644
-0.238456
-0.245406
-0.23728
-0.216496
-0.186766
-0.152345
-0.11546
-0.00153864
-0.00898288
-0.0198786
-0.0397856
-0.0530969
-0.0613695
-0.0749474
-0.112833
-0.141099
-0.123664
-0.0771263
-0.0982611
-0.099516
-0.114749
-0.111898
-0.112814
-0.108376
-0.0985216
-0.0826018
-0.0634755
-0.00812494
-0.00837502
-0.0137112
-0.0240085
-0.0411947
-0.0540433
-0.0658006
-0.0716805
-0.108758
-0.126553
-0.0860325
-0.0549554
-0.0461975
-0.0398996
-0.0430123
-0.058047
-0.0706513
-0.0757769
-0.07233
-0.0609833
-0.0236996
-0.0186382
-0.0232884
-0.0347158
-0.0558699
-0.068579
-0.0766461
-0.0614604
-0.0510627
-0.0534112
-0.0861016
-0.0963854
-0.0577655
-0.0336533
-0.029167
-0.0470382
-0.0596194
-0.0641465
-0.061544
-0.0526357
-0.00981276
-0.0306812
-0.0394642
-0.0492018
-0.0541431
-0.057625
-0.0576819
-0.0534873
-0.0518887
-0.0411481
-0.0324261
-0.0371649
-0.0526693
-0.0546583
-0.0427847
-0.0599023
-0.0676882
-0.0636482
-0.0539514
-0.0444431
-0.0907127
-0.0233327
-0.0303361
-0.0406854
-0.0524475
-0.0615525
-0.0683107
-0.0713867
-0.0720785
-0.0729114
-0.0778378
-0.081117
-0.0795129
-0.0750927
-0.0657573
-0.0882773
-0.0897211
-0.0780521
-0.0598317
-0.0428422
-0.00930604
-0.0221969
-0.0170192
-0.0249661
-0.0272093
-0.0259244
-0.0199238
-0.0151758
-0.0136475
-0.0180793
-0.0254159
-0.0340283
-0.0515091
-0.0738858
-0.0826829
-0.10059
-0.0991022
-0.0864397
-0.072145
-0.0546745
-0.0145836
-0.0128034
-0.00941736
-0.0132553
-0.0187078
-0.0167506
-0.0225528
-0.0237235
-0.0285965
-0.0373786
-0.0483738
-0.0547243
-0.066999
-0.0807098
-0.0987207
-0.113377
-0.131534
-0.153288
-0.168506
-0.154583
-0.0368271
-0.0171075
-0.0105307
-0.0103486
-0.0132517
-0.0181221
-0.0254493
-0.0405594
-0.0608378
-0.0838975
-0.10919
-0.13231
-0.15124
-0.165557
-0.173241
-0.176272
-0.178825
-0.184786
-0.193251
-0.192632
-0.044937
-0.00906518
-0.00922986
-0.0120051
-0.0175747
-0.0263291
-0.0445847
-0.061878
-0.0822152
-0.0891567
-0.0961116
-0.0956637
-0.09298
-0.0822435
-0.0710155
-0.0658844
-0.0665578
-0.0712531
-0.0803678
-0.0861631
-0.00933275
-0.0064619
-0.00821896
-0.0104057
-0.0145599
-0.0200637
-0.0336746
-0.0464028
-0.0566859
-0.0502569
-0.0426956
-0.0383748
-0.0376443
-0.0385731
-0.0403244
-0.0427255
-0.046047
-0.0510108
-0.0590051
-0.0679475
-0.00770893
-0.0131654
-0.0124403
-0.015312
-0.0250784
-0.024122
-0.0267096
-0.0295911
-0.0331122
-0.033638
-0.0339265
-0.0339686
-0.0347955
-0.0376988
-0.0433308
-0.052216
-0.0636793
-0.0748944
-0.0887346
-0.11569
-0.00436336
-0.00556842
-0.00852314
-0.0155731
-0.0311406
-0.0447503
-0.0496625
-0.0428601
-0.039483
-0.0392843
-0.0409801
-0.0441168
-0.0529058
-0.0715787
-0.101802
-0.135728
-0.170892
-0.204397
-0.232292
-0.256328
-0.00589825
-0.0110001
-0.0129376
-0.0132484
-0.0150561
-0.0203635
-0.0312152
-0.0424319
-0.0600333
-0.0740979
-0.0906623
-0.106539
-0.127431
-0.152568
-0.185577
-0.224574
-0.264572
-0.289702
-0.294578
-0.275144
-0.00505159
-0.0111269
-0.0174489
-0.0273694
-0.0429804
-0.0502425
-0.0569275
-0.0602122
-0.0651322
-0.06726
-0.0705982
-0.0793754
-0.108415
-0.159658
-0.22774
-0.289158
-0.320547
-0.311257
-0.270686
-0.216246
-0.0829472
-0.0480921
-0.0371807
-0.0326159
-0.0284292
-0.0250059
-0.0261195
-0.0355995
-0.0507467
-0.0630627
-0.0680843
-0.0645111
-0.0561061
-0.0465572
-0.0384535
-0.0325617
-0.0292876
-0.0286857
-0.0309528
-0.0333525
-0.0807321
-0.0375231
-0.0221551
-0.0188372
-0.018428
-0.0194703
-0.0222755
-0.0251675
-0.0275619
-0.0283505
-0.0284569
-0.0281049
-0.0283364
-0.0294507
-0.0325506
-0.0375227
-0.0445955
-0.0536901
-0.0665248
-0.0793183
-0.0445744
-0.0251566
-0.0175679
-0.0152245
-0.0160806
-0.0183229
-0.0245894
-0.0288976
-0.0359508
-0.038252
-0.0401901
-0.040999
-0.043655
-0.0478232
-0.055291
-0.0653468
-0.0783891
-0.0914166
-0.103627
-0.104494
-0.00409461
-0.00829207
-0.0126013
-0.016158
-0.0211722
-0.0316048
-0.045592
-0.0540855
-0.0654143
-0.0667194
-0.0675828
-0.0665106
-0.0699575
-0.0758768
-0.0884965
-0.105961
-0.122546
-0.11718
-0.0935259
-0.0661654
-0.00979158
-0.00789992
-0.00903342
-0.0140517
-0.0229998
-0.0365408
-0.0540164
-0.068688
-0.0877613
-0.0954179
-0.0966351
-0.100454
-0.111487
-0.124395
-0.132125
-0.126712
-0.108346
-0.0799987
-0.0532359
-0.0343554
-0.00141671
-0.0057955
-0.0114215
-0.0185947
-0.0270039
-0.0390668
-0.0525236
-0.0720399
-0.0923744
-0.0936578
-0.0765404
-0.0736707
-0.0876142
-0.103339
-0.107661
-0.0987431
-0.0807233
-0.0587022
-0.0383378
-0.0225084
-0.00173006
-0.0061331
-0.0125225
-0.0218543
-0.0273029
-0.0370387
-0.045818
-0.0737282
-0.0867098
-0.0586765
-0.03326
-0.0366782
-0.0418975
-0.0541791
-0.0546555
-0.0528273
-0.0457114
-0.0348059
-0.023124
-0.013394
-0.00271532
-0.00253582
-0.00498543
-0.0116307
-0.0196028
-0.0265376
-0.030588
-0.0488313
-0.0796798
-0.0796896
-0.0435802
-0.0313214
-0.0293758
-0.0324888
-0.03855
-0.0424102
-0.043218
-0.0389616
-0.0306209
-0.0207272
-0.00801548
-0.0100187
-0.0140623
-0.0212233
-0.0308058
-0.0345636
-0.0345221
-0.0324035
-0.0436261
-0.0527766
-0.0628762
-0.0672353
-0.0463269
-0.0275151
-0.0307353
-0.0398182
-0.0406511
-0.0360098
-0.0284629
-0.0197781
-0.0196112
-0.0155295
-0.0159929
-0.0205088
-0.0234325
-0.0243932
-0.0243111
-0.0231638
-0.0231879
-0.0252256
-0.0317544
-0.0379797
-0.0432783
-0.047504
-0.0394903
-0.0515095
-0.0519222
-0.0430444
-0.0309603
-0.020055
-0.0312391
-0.0157682
-0.0164468
-0.0199464
-0.0232538
-0.0258002
-0.0274164
-0.0278486
-0.031812
-0.0376512
-0.0422713
-0.0438685
-0.0491316
-0.0603864
-0.0599829
-0.0707061
-0.0676784
-0.0548629
-0.0377706
-0.0228577
-0.0116786
-0.00931899
-0.0113818
-0.0139532
-0.0152656
-0.0152622
-0.0141627
-0.0130797
-0.0127054
-0.0166659
-0.0254784
-0.0367869
-0.0476402
-0.0629404
-0.0746403
-0.0775698
-0.0712441
-0.0568798
-0.0408438
-0.0263939
-0.0129084
-0.00952541
-0.00709446
-0.0085329
-0.00983387
-0.0113064
-0.0122439
-0.0144843
-0.020823
-0.0269506
-0.0357893
-0.0469892
-0.0586995
-0.0674229
-0.0751056
-0.0807598
-0.0870277
-0.0923336
-0.0882983
-0.068072
-0.0163104
-0.00677528
-0.00560334
-0.00740669
-0.0105543
-0.0151222
-0.0183425
-0.0255424
-0.0349131
-0.0474235
-0.0625704
-0.0794067
-0.0941375
-0.106422
-0.111604
-0.113336
-0.114879
-0.117445
-0.120336
-0.114108
-0.00675464
-0.0074933
-0.00962557
-0.0122337
-0.0182965
-0.0249888
-0.0327072
-0.0384723
-0.0447252
-0.046999
-0.0529188
-0.05754
-0.0644084
-0.0687351
-0.0725287
-0.0744234
-0.0760916
-0.0766477
-0.0755202
-0.0683382
-0.00439192
-0.0046038
-0.00753261
-0.0088535
-0.0123609
-0.0183646
-0.027536
-0.0313321
-0.0334558
-0.0329349
-0.034906
-0.0367716
-0.0398868
-0.0413527
-0.0429362
-0.0441102
-0.0463584
-0.0498263
-0.0541921
-0.0600889
-0.00346958
-0.00652407
-0.00710233
-0.0085752
-0.0118437
-0.014165
-0.0188134
-0.0224421
-0.0255842
-0.0284541
-0.0309437
-0.0336577
-0.0367363
-0.0410754
-0.0465282
-0.0544211
-0.0645485
-0.0785605
-0.0961339
-0.113775
-0.00187946
-0.00312972
-0.00552671
-0.00984138
-0.0175568
-0.0203277
-0.0214605
-0.0221651
-0.0253925
-0.0293343
-0.0341825
-0.041724
-0.053023
-0.066819
-0.0819195
-0.0974453
-0.113524
-0.129891
-0.148729
-0.161835
-0.00504977
-0.00723204
-0.00803259
-0.0100264
-0.0134271
-0.0174198
-0.0231665
-0.0294775
-0.0382606
-0.047682
-0.0613932
-0.0782941
-0.0990421
-0.120835
-0.1425
-0.158662
-0.165519
-0.156574
-0.134828
-0.103841
-0.00186315
-0.00727291
-0.0101938
-0.0129728
-0.02075
-0.0242943
-0.0283345
-0.0306632
-0.0342448
-0.0377775
-0.044981
-0.0598432
-0.0881739
-0.129636
-0.177009
-0.211261
-0.213168
-0.181933
-0.134896
-0.0900543
-0.0693377
-0.0316261
-0.024169
-0.0262215
-0.025731
-0.0234932
-0.0233073
-0.0277641
-0.03538
-0.0403516
-0.0408729
-0.0371487
-0.0321611
-0.0275428
-0.0240256
-0.0214676
-0.0197164
-0.0188555
-0.0195815
-0.020455
-0.0341908
-0.022766
-0.0176556
-0.0175423
-0.0179423
-0.0183543
-0.019434
-0.0206366
-0.021445
-0.0217913
-0.0219167
-0.0218232
-0.0220632
-0.022508
-0.0232176
-0.0235174
-0.023749
-0.0246016
-0.0286709
-0.0340442
-0.0277659
-0.0246375
-0.0140944
-0.0116975
-0.0131907
-0.0152628
-0.0186597
-0.0204084
-0.0232146
-0.0241893
-0.0257199
-0.026931
-0.0289165
-0.0305592
-0.0323059
-0.0328213
-0.032735
-0.0321274
-0.0335953
-0.0319352
-0.00627232
-0.00807881
-0.00863786
-0.0106053
-0.0151952
-0.020986
-0.0282593
-0.0309765
-0.0352225
-0.0345367
-0.0353182
-0.0359864
-0.0390369
-0.0417483
-0.0452582
-0.0467912
-0.0449242
-0.0350735
-0.0226777
-0.0135814
-0.0033161
-0.00628633
-0.00793899
-0.0114649
-0.0178678
-0.026043
-0.0366172
-0.0418164
-0.0484743
-0.0490705
-0.0488831
-0.051409
-0.0567102
-0.0611108
-0.0601855
-0.0518107
-0.0386302
-0.0244225
-0.0136667
-0.00737856
-0.00467458
-0.00607542
-0.00941867
-0.0150542
-0.02161
-0.0301488
-0.0391796
-0.0471549
-0.0528031
-0.0455982
-0.0351576
-0.0323295
-0.036484
-0.0400046
-0.0396228
-0.0337631
-0.0247859
-0.0155916
-0.00857996
-0.00426963
-0.0023951
-0.00446219
-0.00917613
-0.0160993
-0.0216169
-0.0302288
-0.037482
-0.0488611
-0.0501348
-0.0322809
-0.0196672
-0.0190807
-0.0213495
-0.0253329
-0.0245064
-0.0223427
-0.0179167
-0.0122604
-0.00723857
-0.00365388
-0.00426449
-0.00484918
-0.0067211
-0.0102237
-0.0144819
-0.0212737
-0.0252828
-0.0444634
-0.0563119
-0.0524202
-0.0276081
-0.0226405
-0.0266037
-0.0340179
-0.0300295
-0.0280539
-0.0244033
-0.0188157
-0.0127546
-0.00758038
-0.00678701
-0.012921
-0.013479
-0.0144904
-0.0179432
-0.0210214
-0.0241354
-0.033054
-0.0483314
-0.06093
-0.0628096
-0.0548021
-0.0276339
-0.0204926
-0.0230877
-0.0208175
-0.0178324
-0.0142259
-0.0100143
-0.00607529
-0.0115895
-0.00934769
-0.0119239
-0.0140771
-0.0154414
-0.0162975
-0.0187529
-0.0229681
-0.0269357
-0.0371932
-0.0529595
-0.0552301
-0.0512361
-0.0427058
-0.0329807
-0.0334339
-0.0245931
-0.0157557
-0.0096953
-0.00548733
-0.0192945
-0.0124808
-0.0134697
-0.0138618
-0.0144171
-0.015276
-0.0164316
-0.0175481
-0.0200205
-0.0237949
-0.0332034
-0.0479554
-0.0512039
-0.0553094
-0.0474419
-0.0455451
-0.0346887
-0.0218281
-0.0124318
-0.00651763
-0.00796805
-0.00961027
-0.0104442
-0.0105312
-0.0116078
-0.0120142
-0.0127054
-0.0135954
-0.0160955
-0.0236379
-0.0388975
-0.0529786
-0.0595278
-0.0637138
-0.060774
-0.046983
-0.0371315
-0.0249239
-0.0156911
-0.00930818
-0.00206691
-0.00500909
-0.0062812
-0.00736621
-0.00937709
-0.0120095
-0.0130506
-0.0172717
-0.0227534
-0.0278768
-0.0351199
-0.0444944
-0.052136
-0.0541435
-0.0551772
-0.055876
-0.054756
-0.0503205
-0.0407855
-0.0284691
-0.00539676
-0.00550629
-0.00653543
-0.00803153
-0.0109569
-0.0150825
-0.0177969
-0.0235185
-0.0299226
-0.0385054
-0.0473155
-0.0580047
-0.066839
-0.074134
-0.0756683
-0.0750462
-0.0742977
-0.0734489
-0.0728026
-0.063097
-0.00326431
-0.00687233
-0.0114649
-0.0144849
-0.0191963
-0.0230133
-0.0254387
-0.0287434
-0.0331621
-0.03711
-0.0434852
-0.0487454
-0.0544521
-0.0571631
-0.0583344
-0.0574631
-0.0553074
-0.0507437
-0.0435844
-0.0354377
-0.000953111
-0.00273648
-0.00770133
-0.0130862
-0.0178989
-0.021908
-0.0257547
-0.0277614
-0.0303212
-0.0322157
-0.0348909
-0.0358789
-0.0376085
-0.037309
-0.0367921
-0.035162
-0.0338829
-0.0336405
-0.0361031
-0.0411278
-0.00292529
-0.00448697
-0.00844246
-0.0110136
-0.0148639
-0.0187297
-0.0226534
-0.0266199
-0.0303526
-0.0344518
-0.0373451
-0.0399327
-0.0406447
-0.0399276
-0.0376369
-0.0355868
-0.0356732
-0.0398186
-0.0497531
-0.0630047
-0.00118904
-0.00340811
-0.00670967
-0.0104078
-0.0141271
-0.0174179
-0.0214131
-0.0266583
-0.0323089
-0.0394961
-0.0469448
-0.0547725
-0.0609467
-0.0636182
-0.0619052
-0.0566265
-0.0516765
-0.0522338
-0.0618306
-0.068631
-0.00608737
-0.00590134
-0.00757718
-0.0116589
-0.0168862
-0.0213095
-0.0260842
-0.031266
-0.0380146
-0.0465553
-0.0576692
-0.0701421
-0.0834355
-0.0943912
-0.10028
-0.0972163
-0.0852722
-0.0658999
-0.0454318
-0.0280465
-0.0019801
-0.0063464
-0.00702766
-0.0100388
-0.0149288
-0.0185762
-0.0217907
-0.0242226
-0.0275087
-0.0322783
-0.041127
-0.0563792
-0.0800678
-0.109775
-0.138155
-0.151815
-0.14108
-0.110746
-0.0752521
-0.0460703
-0.0124467
-0.0157862
-0.0205571
-0.0208556
-0.0168627
-0.0141295
-0.0163459
-0.0199506
-0.0227265
-0.0225793
-0.0209261
-0.0186003
-0.0166898
-0.0151265
-0.0136893
-0.0123683
-0.0112701
-0.0105534
-0.0104496
-0.0105189
-0.0147013
-0.0175795
-0.0183008
-0.015125
-0.0142077
-0.0153836
-0.0167138
-0.0174542
-0.0176595
-0.0173051
-0.0164142
-0.0151245
-0.0135469
-0.0118892
-0.0103779
-0.00915518
-0.00846186
-0.00858377
-0.0102933
-0.0112273
-0.00393245
-0.00880809
-0.00912399
-0.011179
-0.0134229
-0.0152799
-0.0168219
-0.0176581
-0.0182648
-0.0180339
-0.0174771
-0.0163228
-0.0149976
-0.0133571
-0.011807
-0.0101039
-0.00849651
-0.00708874
-0.00680185
-0.00647356
-0.00594778
-0.00952804
-0.00836076
-0.010813
-0.0140115
-0.0166432
-0.0185521
-0.0193175
-0.0200657
-0.0195344
-0.0193096
-0.018534
-0.0180069
-0.0169203
-0.0159643
-0.0137522
-0.0106324
-0.0068448
-0.00410659
-0.0028667
-0.00428463
-0.00670677
-0.00749674
-0.0109004
-0.015244
-0.0189368
-0.0220297
-0.023
-0.0237919
-0.0233084
-0.022906
-0.0228557
-0.0232528
-0.022675
-0.0198749
-0.0151534
-0.0100533
-0.00584807
-0.00326065
-0.00194505
-0.00208234
-0.00481011
-0.00821279
-0.0136339
-0.0178459
-0.0215252
-0.0242847
-0.0246313
-0.0233487
-0.0196186
-0.0155144
-0.0139962
-0.013338
-0.0122443
-0.0103073
-0.00772523
-0.00509215
-0.00294857
-0.0015829
-0.000880693
-0.0010736
-0.00442387
-0.00984163
-0.0159057
-0.0198223
-0.0237313
-0.0251808
-0.0246635
-0.0204023
-0.0143402
-0.00901952
-0.00749369
-0.00608804
-0.00624671
-0.00531212
-0.00443753
-0.0033122
-0.00210757
-0.00117747
-0.000575541
-0.000932319
-0.00424506
-0.00755283
-0.0119471
-0.0165698
-0.0212528
-0.0238403
-0.0285221
-0.0263583
-0.0227285
-0.0120292
-0.00918304
-0.0100004
-0.0117819
-0.00757917
-0.00709872
-0.00563302
-0.00367546
-0.0021304
-0.00106821
-0.00152127
-0.0089697
-0.011548
-0.0135083
-0.0179388
-0.0210029
-0.0233113
-0.0299522
-0.0364396
-0.0434613
-0.03495
-0.0162667
-0.0100428
-0.0104416
-0.0057888
-0.00256702
-0.00229874
-0.00177755
-0.0010737
-0.000534826
-0.00321178
-0.00528638
-0.0111492
-0.0140824
-0.0158201
-0.0178724
-0.0216135
-0.0262583
-0.032868
-0.044193
-0.0536973
-0.0514498
-0.0352175
-0.0121849
-0.00752616
-0.0026228
-0.00156764
-0.000994763
-0.000643381
-0.000354723
-0.00539117
-0.0119016
-0.0137273
-0.0127295
-0.0151703
-0.0167888
-0.0188656
-0.0215964
-0.0265721
-0.0360954
-0.0481283
-0.0498734
-0.0455273
-0.0338187
-0.0229952
-0.00632997
-0.00275921
-0.0012061
-0.0006332
-0.000332102
-0.0140124
-0.0101327
-0.00999228
-0.0105036
-0.0137075
-0.0149865
-0.0164533
-0.0184605
-0.0229775
-0.0301762
-0.0384166
-0.0448424
-0.0440675
-0.0364297
-0.026325
-0.00801719
-0.00451864
-0.00238326
-0.00145137
-0.000880604
-0.00610388
-0.00496602
-0.00625312
-0.00889253
-0.0128516
-0.0167982
-0.0181109
-0.0218426
-0.0241198
-0.0243897
-0.0261917
-0.0286122
-0.0317482
-0.0324571
-0.0231178
-0.0188391
-0.0159736
-0.0124872
-0.00897065
-0.00573341
-0.00577194
-0.00577083
-0.00759384
-0.00979744
-0.0137865
-0.018723
-0.0222539
-0.0269406
-0.0307703
-0.0355323
-0.0388868
-0.0428896
-0.0438287
-0.0433753
-0.038355
-0.034978
-0.0332811
-0.0314172
-0.0291624
-0.0214212
-0.000688219
-0.00397632
-0.010851
-0.0158273
-0.019956
-0.0232367
-0.0250305
-0.0273919
-0.030187
-0.0307734
-0.0325054
-0.0312804
-0.0308542
-0.0281384
-0.0252337
-0.021848
-0.0191676
-0.0161234
-0.0134022
-0.010297
-0.000450636
-0.00113608
-0.00607787
-0.0158883
-0.0211554
-0.0240464
-0.0259363
-0.0277342
-0.0284006
-0.0283522
-0.0269728
-0.0249969
-0.022358
-0.0195233
-0.0167241
-0.0143056
-0.0126126
-0.0117239
-0.0117544
-0.012497
-0.00222582
-0.00536826
-0.0118205
-0.0176844
-0.0223147
-0.026783
-0.0303024
-0.034659
-0.0368736
-0.04028
-0.0410182
-0.041801
-0.0395507
-0.0359027
-0.0301502
-0.0239858
-0.0185972
-0.0154967
-0.0155979
-0.0180926
-0.00197932
-0.00604538
-0.0108047
-0.0164952
-0.0214497
-0.0271055
-0.0322651
-0.0378166
-0.0424894
-0.0474582
-0.0520054
-0.0556856
-0.0574413
-0.0558701
-0.0498709
-0.0402691
-0.0292839
-0.0202271
-0.0162872
-0.0145716
-0.00991981
-0.00606903
-0.00735288
-0.0132738
-0.0210399
-0.0270664
-0.0317972
-0.0359351
-0.0408545
-0.0463306
-0.0533576
-0.0607571
-0.0683181
-0.073299
-0.0729431
-0.065132
-0.0510549
-0.0347073
-0.020628
-0.0111124
-0.00444457
-0.00452151
-0.00503247
-0.00744167
-0.0130722
-0.0184786
-0.0216016
-0.024318
-0.0282405
-0.0339939
-0.0427904
-0.0549713
-0.0706353
-0.0867023
-0.0981097
-0.0982778
-0.0847074
-0.0626022
-0.0404627
-0.023742
-0.0298556
-0.0400381
-0.0423301
-0.0322991
-0.0436124
-0.0257314
-0.0288734
-0.0365899
-0.0423039
-0.0410214
-0.0467636
-0.0504947
-0.030462
-0.0375556
-0.0413806
-0.0167723
-0.0212737
-0.025373
-0.0279144
-0.0201686
-0.028116
-0.0435256
-0.0233161
-0.0303116
-0.0294957
-0.0364717
-0.0315485
-0.0417516
-0.155849
-0.121575
-0.127508
-0.12898
-0.152
-0.115055
-0.123439
-0.15767
-0.12808
-0.122433
-0.154466
-0.139511
-0.124232
-0.115345
-0.145201
-0.118537
-0.105803
-0.13233
-0.109733
-0.109125
-0.0837758
-0.138666
-0.101699
-0.0905041
-0.105593
-0.111634
-0.0736624
-0.0503466
-0.141156
-0.087468
-0.0847512
-0.11656
-0.121085
-0.0466574
-0.0518585
-0.0972383
-0.0860854
-0.0906683
-0.11496
-0.0762399
-0.0578572
-0.0694391
-0.0598219
-0.0886804
-0.0731911
-0.0633158
-0.0395711
-0.0696387
-0.061815
-0.0508873
-0.0666378
-0.0516533
-0.0348364
-0.0273759
-0.0572358
-0.0418553
-0.120618
-0.120093
-0.114037
-0.118153
-0.117844
-0.118517
-0.113936
-0.11416
-0.110793
-0.100498
-0.116981
-0.108996
-0.11124
-0.102895
-0.101626
-0.0975654
-0.0910163
-0.104859
-0.0892494
-0.100412
-0.0946261
-0.0881007
-0.0896462
-0.0872732
-0.0824878
-0.0589909
-0.0932786
-0.0903424
-0.077943
-0.0864185
-0.0824856
-0.0525666
-0.0448912
-0.0894375
-0.0860803
-0.0810203
-0.080731
-0.0753136
-0.0466902
-0.0575219
-0.084397
-0.0774565
-0.0768276
-0.0740315
-0.0788607
-0.060038
-0.0601845
-0.0750012
-0.0711003
-0.0556793
-0.0814865
-0.0734571
-0.0581139
-0.0476051
-0.0700137
-0.0623494
-0.107813
-0.109775
-0.1012
-0.114451
-0.109063
-0.106629
-0.0958836
-0.095873
-0.0987459
-0.0929434
-0.106063
-0.0963337
-0.0913427
-0.0772129
-0.0886482
-0.0915773
-0.0907907
-0.0934969
-0.0878643
-0.0739336
-0.0712376
-0.0885135
-0.0921989
-0.101369
-0.0869715
-0.0865544
-0.0707615
-0.0620307
-0.0907164
-0.10482
-0.10985
-0.0867404
-0.0870656
-0.0574846
-0.0478665
-0.0846171
-0.10932
-0.103029
-0.0868842
-0.0845096
-0.0471533
-0.0539619
-0.0790877
-0.099411
-0.0914251
-0.0828755
-0.0777852
-0.05772
-0.0748097
-0.0816631
-0.0905321
-0.100394
-0.0764242
-0.0679258
-0.0789056
-0.0784743
-0.0985905
-0.11366
-0.106237
-0.091825
-0.0804639
-0.104783
-0.0967162
-0.0927814
-0.104677
-0.103964
-0.0775158
-0.0686315
-0.0955934
-0.0921719
-0.093391
-0.105822
-0.115835
-0.0672425
-0.0685558
-0.0930483
-0.0970875
-0.107656
-0.121106
-0.137323
-0.0683839
-0.0592706
-0.0984118
-0.0958145
-0.116239
-0.142856
-0.148604
-0.0549487
-0.0470771
-0.0935417
-0.08257
-0.104831
-0.14569
-0.122248
-0.047164
-0.0570639
-0.0795228
-0.0790268
-0.0915503
-0.110481
-0.095837
-0.0621301
-0.0768114
-0.0821298
-0.0870443
-0.102262
-0.0973157
-0.107524
-0.0795669
-0.080419
-0.0872897
-0.090223
-0.0685938
-0.0780628
-0.0664087
-0.052211
-0.043817
-0.0480293
-0.034567
-0.0511269
-0.0625629
-0.0556096
-0.0421832
-0.0441506
-0.032229
-0.0283794
-0.0512681
-0.0517975
-0.0372969
-0.0464085
-0.0502671
-0.0277452
-0.0278066
-0.0762483
-0.0339469
-0.0305881
-0.0522721
-0.0619135
-0.0285671
-0.0327414
-0.100736
-0.0312426
-0.0417916
-0.0656746
-0.073371
-0.0343521
-0.0400436
-0.0672067
-0.0482072
-0.0618881
-0.0722345
-0.0568035
-0.0426505
-0.0498768
-0.0380241
-0.0631041
-0.0584883
-0.049705
-0.0328869
-0.0510694
-0.050577
-0.0270469
-0.0548528
-0.0410284
-0.0293968
-0.0274623
-0.0483623
-0.0369022
-0.0543807
-0.0585335
-0.0601722
-0.0383154
-0.0298967
-0.0372029
-0.0294324
-0.0527726
-0.0628958
-0.0736929
-0.0285493
-0.0267434
-0.0294575
-0.0345408
-0.0447635
-0.0768163
-0.0823899
-0.0266103
-0.0270062
-0.0372619
-0.0458115
-0.0334513
-0.0832703
-0.0837887
-0.027305
-0.0292375
-0.0483169
-0.0521495
-0.0341457
-0.0835265
-0.0812046
-0.0303203
-0.0342206
-0.0525422
-0.051541
-0.049493
-0.0796068
-0.0730881
-0.0358509
-0.0415917
-0.0506599
-0.0497218
-0.0555698
-0.0708977
-0.0684292
-0.0433616
-0.0475469
-0.0501072
-0.055685
-0.0466269
-0.0679567
-0.0624503
-0.0481802
-0.0424465
-0.0579086
-0.0585739
-0.0707479
-0.0593973
-0.0453845
-0.0427591
-0.0365993
-0.0435143
-0.0319726
-0.0720142
-0.0380616
-0.0209805
-0.036162
-0.0372358
-0.0279194
-0.0193171
-0.0723887
-0.0184031
-0.016997
-0.0381919
-0.0420895
-0.017987
-0.0175665
-0.0765272
-0.017817
-0.0217786
-0.043658
-0.048841
-0.0181844
-0.0214056
-0.080698
-0.0233662
-0.0287288
-0.0503778
-0.0537052
-0.0229672
-0.0289555
-0.080582
-0.030993
-0.0412714
-0.0543252
-0.0571171
-0.0312719
-0.0394921
-0.0760186
-0.0461925
-0.0669293
-0.0579896
-0.0628778
-0.0431493
-0.0580306
-0.068391
-0.0729169
-0.0763285
-0.064949
-0.0645369
-0.0631706
-0.0704686
-0.016454
-0.0174936
-0.0170146
-0.0199692
-0.0167127
-0.0163375
-0.0142482
-0.0134661
-0.0178668
-0.0199886
-0.0156317
-0.0138879
-0.0142049
-0.0168297
-0.0164816
-0.0213323
-0.0273084
-0.013976
-0.0160673
-0.0186938
-0.0239846
-0.0235665
-0.0298349
-0.0370207
-0.017223
-0.0220726
-0.0256143
-0.0309326
-0.0314927
-0.039432
-0.0454518
-0.0242446
-0.0318412
-0.0333579
-0.0420998
-0.0459367
-0.0477492
-0.0589089
-0.0344747
-0.043065
-0.0454417
-0.0553458
-0.0695507
-0.0647265
-0.0790463
-0.0466973
-0.0600478
-0.0585634
-0.0674968
-0.0778195
-0.0811226
-0.0862109
-0.0643519
-0.0718998
-0.0701321
-0.0771649
-0.0318107
-0.0327379
-0.0271549
-0.0268625
-0.0289097
-0.0240032
-0.023554
-0.0400925
-0.0262223
-0.0250354
-0.0325394
-0.046324
-0.0240431
-0.0267186
-0.0503973
-0.0250861
-0.0274491
-0.0504845
-0.0585515
-0.0282769
-0.0360194
-0.0604456
-0.0291127
-0.0355098
-0.0612797
-0.0650549
-0.0396446
-0.0504189
-0.0681493
-0.0374353
-0.0422596
-0.0645468
-0.0625351
-0.0525891
-0.0539257
-0.0531506
-0.0440548
-0.0489668
-0.0596455
-0.0396207
-0.0536003
-0.052336
-0.030448
-0.0497697
-0.0492265
-0.0330876
-0.0225751
-0.0517691
-0.0451302
-0.0274194
-0.0467433
-0.035117
-0.0219432
-0.0248359
-0.0393497
-0.0285206
-0.0233309
-0.0229149
-0.0223034
-0.0198942
-0.0210039
-0.0178645
-0.0172856
-0.0230496
-0.0231124
-0.0282983
-0.021517
-0.0231049
-0.0176564
-0.0197871
-0.0243963
-0.0306806
-0.0380645
-0.0239706
-0.0292595
-0.0207954
-0.0239942
-0.0256468
-0.026437
-0.0267467
-0.0260694
-0.0273004
-0.0281098
-0.0246178
-0.0323902
-0.0335591
-0.0293771
-0.0355478
-0.0304813
-0.0376415
-0.0304374
-0.0420732
-0.0405935
-0.0421754
-0.0503049
-0.0488429
-0.0399544
-0.0440233
-0.0469611
-0.0435922
-0.0516168
-0.0485399
-0.048132
-0.0448255
-0.0497801
-0.0407306
-0.0545519
-0.0566273
-0.0456041
-0.0333231
-0.0520039
-0.0502126
-0.0273944
-0.0274264
-0.0226098
-0.0193609
-0.018335
-0.0195498
-0.0163401
-0.0305395
-0.0202524
-0.015533
-0.0185617
-0.0203499
-0.0155835
-0.0150821
-0.0361069
-0.0150195
-0.0158664
-0.0212157
-0.0238922
-0.0154947
-0.0184542
-0.0268623
-0.0390665
-0.0283546
-0.0315527
-0.0293708
-0.0332576
-0.0257228
-0.0308048
-0.0428931
-0.0327422
-0.0366336
-0.0339109
-0.0373807
-0.0298618
-0.0474409
-0.032697
-0.0402514
-0.0390498
-0.0440862
-0.044506
-0.0499223
-0.0572705
-0.0434893
-0.0567078
-0.0452774
-0.0516639
-0.0514084
-0.0577882
-0.0620087
-0.0613691
-0.0683837
-0.0543847
-0.0544933
-0.0602178
-0.06327
-0.0135833
-0.0120233
-0.0119678
-0.0132747
-0.0129476
-0.0119543
-0.0122839
-0.0124097
-0.0121908
-0.0147808
-0.0128768
-0.0137478
-0.0128057
-0.0164076
-0.0152573
-0.0162997
-0.0211353
-0.0145298
-0.0188161
-0.0180141
-0.0231356
-0.0228166
-0.0229713
-0.0300149
-0.0211095
-0.0309404
-0.0254039
-0.0344723
-0.0341003
-0.0330935
-0.0436259
-0.0348728
-0.0458048
-0.0380065
-0.0489978
-0.0445794
-0.047243
-0.0567655
-0.0486005
-0.0542295
-0.0524971
-0.0609281
-0.0590966
-0.059511
-0.066922
-0.0557285
-0.0609801
-0.0629729
-0.0673552
-0.0700972
-0.0692013
-0.075217
-0.0628146
-0.0659351
-0.0682518
-0.0687386
-0.0291635
-0.0220325
-0.0243649
-0.0240717
-0.0302406
-0.02254
-0.0264713
-0.0446948
-0.0254091
-0.0295398
-0.0343629
-0.0444362
-0.0279574
-0.0335689
-0.0577817
-0.0314899
-0.0401817
-0.0466165
-0.053664
-0.0360389