/*--------------------------------*- C++ -*----------------------------------*\
  =========                 |
  \\      /  F ield         | OpenFOAM: The Open Source CFD Toolbox
   \\    /   O peration     | Website:  https://openfoam.org
    \\  /    A nd           | Version:  10
     \\/     M anipulation  |
\*---------------------------------------------------------------------------*/
FoamFile
{
    format      ascii;
    class       volVectorField;
    location    "1.6";
    object      U;
}
// * * * * * * * * * * * * * * * * * * * * * * * * * * * * * * * * * * * * * //

dimensions      [0 1 -1 0 0 0 0];

internalField   nonuniform List<vector> 
12920
(
(-111.515 -71.5217 64.883)
(-148.93 -40.3581 -40.5695)
(69.9601 -5.42475 -18.248)
(-22.3564 4.01996 -3.06298)
(56.3623 13.1583 -11.0852)
(30.0727 8.75283 -5.27305)
(56.5191 5.69826 -4.23838)
(49.2034 -0.707225 -1.42542)
(62.0153 -5.46322 0.410994)
(59.491 -7.85716 1.23007)
(67.2752 -8.73402 1.43447)
(67.5936 -7.64772 1.07719)
(72.5989 -7.06947 0.849376)
(73.9375 -4.13305 -0.0991373)
(78.1537 -3.16605 -0.570341)
(79.6777 0.263329 -1.4185)
(82.2276 1.10004 -2.04595)
(84.0529 3.88372 -4.18019)
(92.7094 4.75556 -4.69489)
(104.217 6.81742 -3.57619)
(-11.3896 194.903 -1.41519)
(-148.906 9.02789 5.29465)
(57.9294 4.87027 -6.43239)
(-42.2141 11.2966 4.46552)
(52.5557 15.8166 -2.1121)
(21.1963 13.3629 -0.279367)
(54.2359 6.79009 -1.06163)
(44.5462 -1.17779 -0.758992)
(58.4144 -6.28911 -0.390555)
(53.6664 -8.607 -0.385168)
(60.3484 -7.98824 -0.315832)
(58.3051 -5.76412 -0.561773)
(61.7271 -3.04628 -0.66746)
(60.4809 0.774167 -1.12538)
(63.7269 4.27104 -1.61342)
(64.9549 7.57279 -2.20576)
(69.2076 10.8331 -3.93441)
(75.0323 12.9327 -4.97985)
(89.1495 12.7484 -2.23777)
(98.3849 11.943 0.236278)
(-93.1626 5.83641 79.3451)
(-238.577 -71.6942 5.27108)
(23.1883 -57.8036 -10.6415)
(-44.5395 -29.826 1.14878)
(42.9727 -23.9334 0.130272)
(19.2016 -5.9526 0.034152)
(49.0602 -7.30157 0.0563906)
(38.7462 -5.65088 -0.399477)
(52.5376 -10.4915 -0.233119)
(48.6588 -9.67803 -0.673099)
(57.1202 -10.1078 -0.734856)
(56.5243 -6.02096 -1.01246)
(61.2341 -3.748 -1.02829)
(60.9773 0.745479 -1.14427)
(64.4105 2.79934 -1.23296)
(66.0455 7.43648 -1.60014)
(72.0186 10.6482 -1.54945)
(76.7059 8.67551 -0.220458)
(80.1766 1.24208 1.54242)
(80.5991 0.611448 1.66594)
(26.2592 -192.741 25.9827)
(-142.515 -110.366 9.78886)
(58.2013 -56.8418 -13.9626)
(-22.7381 -22.323 1.43748)
(52.5098 -15.2101 -0.258003)
(18.982 -2.7907 1.61065)
(48.5218 -6.05802 1.25853)
(32.5375 -6.64416 0.757162)
(46.5283 -12.4248 0.424928)
(39.9129 -11.8903 0.0973199)
(48.5985 -10.1677 -0.186352)
(48.5186 -5.34587 -0.754783)
(53.7988 -1.71888 -1.02227)
(54.3511 2.37746 -0.839256)
(56.7765 4.91715 -0.433653)
(56.8967 5.84493 0.706638)
(56.4791 5.14633 2.22378)
(49.4498 2.35827 3.31259)
(44.1161 3.29709 2.80423)
(39.35 5.22334 1.84257)
(50.6498 -6.62927 -71.6127)
(-80.4995 -83.9844 -25.6773)
(72.5305 -76.9563 -4.02331)
(0.0650617 -45.9129 -0.483752)
(53.1371 -41.733 0.880758)
(27.3041 -19.9841 0.317903)
(51.6901 -23.9733 0.411507)
(37.2246 -11.9819 -0.111774)
(47.0134 -20.756 1.10404)
(33.8125 -14.7513 1.20054)
(37.3082 -17.6575 1.77594)
(32.4044 -7.03378 1.18503)
(35.6402 -3.82255 1.24712)
(33.9091 2.01308 1.39216)
(35.0254 2.26903 1.67885)
(32.6003 3.4063 1.98167)
(31.9896 2.56427 1.90818)
(28.3121 1.32805 1.41517)
(27.8476 0.908359 0.791642)
(31.5745 1.23156 0.513073)
(275.349 110.813 120.678)
(124.2 -1.18275 5.14096)
(147.106 -35.088 3.87687)
(88.2349 -25.3508 1.47504)
(93.4683 -18.0734 4.00961)
(62.7452 -9.72973 1.27294)
(72.6298 -12.039 1.41175)
(61.556 -6.73534 1.04096)
(58.537 -12.7789 2.11336)
(40.0059 -11.9904 2.7965)
(28.3375 -16.5088 2.54712)
(20.4548 -10.2433 1.62968)
(18.8032 -7.19303 1.43185)
(19.5625 -4.34137 1.34228)
(19.2967 -2.11708 1.1138)
(19.8211 -1.85469 0.953477)
(20.9939 -1.86999 0.753137)
(22.181 -1.61113 0.585011)
(24.3129 0.370796 0.433192)
(29.5347 2.11807 0.271916)
(108.819 113.578 24.4833)
(-9.56742 -3.77351 -35.6126)
(86.699 -25.1263 -18.9736)
(12.4403 -29.1355 -9.12663)
(56.4605 -28.5989 -0.324973)
(24.4396 -13.4809 0.980024)
(49.0611 -33.2774 2.33202)
(32.6365 -8.26325 2.79651)
(34.5087 -16.0547 2.41544)
(6.13568 -3.12859 2.15627)
(7.89203 -13.4224 0.832805)
(-2.79266 -3.71716 0.688165)
(7.55071 -11.4577 0.736195)
(7.41749 -6.47695 1.22964)
(14.4345 -7.42025 0.797614)
(15.0423 -7.99296 0.719622)
(18.8881 -9.2485 0.396602)
(21.2104 -8.23656 0.293344)
(24.5884 -5.70214 0.232971)
(31.8137 -2.15472 0.136359)
(213.934 164.483 31.7023)
(140.298 101.032 -36.0514)
(205.314 72.238 -4.68924)
(172.657 38.0352 -2.21131)
(165.741 -16.0914 3.3504)
(119.774 -15.2082 3.73402)
(110.318 -16.229 -0.148217)
(62.8787 -20.6455 -0.691176)
(49.0727 5.60547 0.859762)
(21.3714 -1.42446 1.46102)
(17.5418 6.74363 -0.0460719)
(8.43646 -10.3482 0.0125023)
(16.0926 -10.4628 -0.317494)
(20.4316 -15.6697 0.288085)
(26.9818 -16.6268 0.792509)
(28.4501 -15.7594 1.4381)
(28.7611 -15.9154 1.07441)
(29.1361 -13.1898 0.67976)
(30.1047 -8.47845 0.389347)
(34.8075 -2.9459 0.233581)
(56.3907 4.30102 54.4647)
(50.6307 5.41427 -17.4687)
(166.147 39.3401 -9.88919)
(152.036 33.6088 -8.49943)
(172.048 19.1279 6.92687)
(82.3459 13.8259 4.25722)
(78.1072 9.77516 4.35713)
(67.0477 10.9337 -0.285886)
(63.042 5.09814 -0.312299)
(64.2671 2.7422 0.0611094)
(55.1448 7.91949 1.70551)
(28.9905 1.82818 -0.0958015)
(24.4672 -1.85492 -0.888619)
(31.5432 -8.66709 -1.41258)
(40.3557 -9.38761 -0.164025)
(35.3707 -16.8956 1.057)
(34.7936 -19.959 1.0153)
(33.8778 -18.1604 0.940598)
(34.1407 -12.4756 0.494746)
(38.0287 -5.49213 0.219205)
(-57.0238 -73.9868 -34.0315)
(-47.7482 -5.19262 -18.8897)
(123.954 56.3708 -4.53279)
(117.378 27.1372 5.35551)
(161.906 35.9686 8.28603)
(119.301 11.3796 5.26535)
(85.2222 -9.49774 1.36402)
(84.5576 0.151877 -0.119761)
(95.7308 -0.733468 0.240535)
(96.5906 -1.0682 0.233797)
(95.9273 3.11559 -0.576493)
(97.9873 8.28182 0.546049)
(47.1155 -0.868263 0.757713)
(40.5866 3.51462 -1.33898)
(55.8661 0.514554 -1.99602)
(43.8416 -10.9188 1.4399)
(39.1984 -19.1939 -0.0190875)
(37.7598 -17.9993 -0.257346)
(36.5101 -12.794 -0.147193)
(39.2893 -5.4953 -0.00597524)
(-61.211 -220.855 189.05)
(-251.081 -153.05 -7.41472)
(98.7449 5.09817 -5.9816)
(-11.6682 -39.4851 7.02681)
(85.5686 -4.83248 6.36098)
(44.5608 -0.0851785 1.47977)
(68.572 2.87601 2.41455)
(78.0561 -13.7001 0.943934)
(88.8465 -21.9976 0.580006)
(91.6226 -22.7121 0.820452)
(96.6585 -18.488 2.08059)
(112.053 -11.84 2.72991)
(129.504 6.75305 2.93539)
(60.8876 13.8413 1.69905)
(55.6416 18.8445 -1.12223)
(47.3777 -7.59046 1.02574)
(39.9801 -16.8651 -0.884504)
(37.6424 -14.295 -1.30318)
(36.1452 -8.65763 -0.474258)
(39.7748 -4.71784 -0.0227789)
(394.054 -329.168 -268.388)
(-212.266 -151.089 6.33784)
(182.317 -77.7862 -20.9139)
(14.931 -31.3224 3.76761)
(96.2395 -6.27295 1.84617)
(61.022 -17.8185 -1.22101)
(69.3372 -27.9773 -0.0443838)
(73.5455 -27.4176 -0.621359)
(79.7175 -21.3171 -0.491974)
(73.7546 -20.1522 -0.00361096)
(66.7257 -24.6087 -0.3166)
(72.3015 -25.835 -1.11583)
(79.8629 -17.8837 -3.55391)
(60.0156 45.462 1.33396)
(72.6867 28.2907 -0.855484)
(64.7394 1.24987 1.13142)
(54.2721 -8.69793 0.535296)
(42.3575 -8.6574 0.122814)
(37.3521 -7.31222 0.155475)
(39.2217 -4.76749 0.0792095)
(165.263 -91.6535 -90.953)
(-38.4311 -4.77598 -14.6899)
(142.816 -83.4042 -21.5272)
(27.0604 -28.0287 -1.22239)
(93.7764 -31.6938 0.754645)
(42.5017 -43.3926 -0.520889)
(70.065 -15.4158 -0.64673)
(62.8057 -9.19243 -0.601984)
(65.2871 -10.6027 -0.142159)
(58.8977 -11.5691 -0.00373205)
(57.7139 -13.9188 -0.207141)
(54.2754 -13.6121 -0.881802)
(53.7479 -0.355978 1.3765)
(57.373 23.9482 2.47744)
(73.4062 15.177 2.77351)
(74.5815 4.45834 2.07731)
(72.1104 -0.411686 2.17601)
(66.4001 0.507178 2.75469)
(61.2818 -1.6362 2.71586)
(53.9473 -2.32703 1.63976)
(208.115 -5.16326 106.544)
(86.4034 2.96644 11.023)
(139.889 -25.614 -6.16486)
(88.5548 -13.2378 -8.15876)
(128.885 -14.1756 -4.18637)
(100.833 -11.301 -3.13864)
(105.847 9.61525 -1.04304)
(88.284 -7.96281 0.118307)
(85.4568 0.541833 1.12856)
(72.9373 -10.0218 1.35251)
(69.0478 -7.13514 2.23375)
(60.8949 -11.9504 2.30795)
(61.4285 -7.42294 3.14221)
(61.0799 -7.19829 3.98936)
(65.6158 -7.82846 3.58956)
(67.4212 -13.685 2.46088)
(69.7816 -15.7796 1.54018)
(71.9357 -14.7202 1.1737)
(76.6696 -8.58064 1.10995)
(73.9716 -4.74723 0.475531)
(-86.0425 -69.0632 159.504)
(-147.826 -33.6498 -38.8693)
(102.502 -22.7748 -12.2745)
(-3.80302 -16.6877 -0.706946)
(84.8623 -14.5956 -1.91706)
(42.5595 -17.0505 -1.27958)
(85.3737 -9.15716 0.0106645)
(67.2924 -10.5477 -0.0663925)
(74.3132 -8.16899 1.3076)
(59.8947 -11.5612 1.06517)
(58.0831 -14.1383 1.7008)
(49.7505 -17.1573 1.49203)
(49.6822 -16.5374 1.20758)
(47.4444 -17.3146 0.96473)
(48.53 -17.5239 0.0572712)
(48.7355 -18.3749 -1.44902)
(51.1765 -18.2865 -2.32822)
(53.6628 -16.6997 -2.5629)
(58.5286 -8.1134 -1.62723)
(59.32 1.00991 -1.1633)
(171.221 -20.8068 105.838)
(-68.2865 -34.5319 -0.806886)
(124.962 -34.3734 -16.8673)
(63.2219 -26.799 -7.33394)
(104.145 -31.9581 -3.34176)
(79.6759 -19.4774 -2.38464)
(98.5862 -10.2117 -1.00749)
(85.1364 -4.79057 -0.856832)
(84.4655 2.50851 0.382597)
(68.5213 -2.40399 -0.0172971)
(64.5346 -5.1257 0.0961315)
(51.0083 -11.9185 -0.577294)
(48.5521 -11.679 -1.06361)
(41.8289 -12.1844 -1.96708)
(41.9046 -9.9038 -2.85714)
(41.098 -7.43175 -3.9215)
(44.0631 -6.04888 -4.89237)
(47.3788 -2.6982 -4.53478)
(53.2389 6.28238 -2.37051)
(58.7662 9.69282 -1.0198)
(311.843 26.1309 -27.1255)
(171.114 3.96942 15.4825)
(137.737 28.9821 14.965)
(72.7205 20.6286 -4.66468)
(106.962 3.0427 2.67129)
(62.4289 -8.07266 1.59951)
(78.8047 -5.70023 0.999907)
(56.3737 1.74015 -0.971136)
(65.9038 7.20669 -0.585627)
(56.1203 6.15986 -1.59037)
(61.2131 4.2695 -2.02045)
(56.1884 2.01736 -2.03878)
(56.2061 1.83657 -0.486209)
(49.4695 2.61619 0.123516)
(47.5807 2.65188 -0.532155)
(46.1813 2.70307 -1.17209)
(47.4495 2.55866 -1.94291)
(50.2099 3.17644 -1.00843)
(55.1267 7.77153 0.729972)
(61.7189 9.92876 0.949231)
(184.905 292.325 -216.751)
(74.2243 62.3224 -44.9903)
(178.89 45.7518 -26.6066)
(187.805 -7.97031 -18.9457)
(223.566 -17.3795 5.74386)
(161.817 -13.3495 11.177)
(121.808 0.989954 10.1319)
(80.6122 8.56164 2.56796)
(81.7932 10.0322 0.334138)
(73.3632 8.12517 -0.40063)
(78.3044 6.12113 -0.556606)
(77.3071 2.06644 -0.978174)
(81.6509 1.41207 -0.623668)
(81.5577 1.3765 0.196323)
(81.7676 3.79026 1.28145)
(77.4119 5.702 2.08118)
(72.855 6.2504 2.62692)
(65.2493 4.11423 2.33911)
(62.2787 5.11076 2.19092)
(62.7651 5.65743 1.62188)
(48.3318 366.535 -57.6575)
(-144.067 118.656 -8.78933)
(116.368 49.9215 -2.40872)
(6.27989 21.0525 1.11948)
(82.8814 22.5214 -0.843608)
(46.6786 25.7439 -2.78751)
(73.9205 25.511 -0.130708)
(63.1116 19.4056 -0.205739)
(75.889 13.0351 0.814559)
(69.7812 7.40876 0.7668)
(74.5207 2.7544 1.30782)
(70.1436 0.447083 1.08777)
(71.4096 -0.0677553 1.56666)
(69.2828 0.860757 1.6173)
(69.5022 2.11177 1.67975)
(67.639 2.64235 1.76868)
(64.2645 2.28166 2.29834)
(54.8599 0.691277 2.15306)
(50.1493 1.79815 1.84278)
(49.8086 2.50884 1.19186)
(147.11 52.3097 6.81622)
(62.0186 15.4932 52.578)
(145.784 -44.7709 19.4433)
(90.4039 -13.486 2.99405)
(120.912 -9.35583 7.53269)
(92.1531 -0.950982 6.04477)
(102.623 -0.714627 6.04167)
(91.3891 2.82596 3.80564)
(97.4631 2.33673 3.05431)
(91.0002 2.53494 1.8559)
(92.2948 -0.0226439 1.09914)
(86.02 -2.4864 0.245743)
(83.3933 -6.18251 0.217994)
(74.409 -7.54049 0.604594)
(68.1984 -5.20437 2.32566)
(54.4474 -1.61384 2.89621)
(47.8368 1.97735 2.41957)
(40.5041 2.20311 1.53341)
(38.9057 1.65318 0.859168)
(42.4999 1.06787 0.51516)
(-11.7198 -161.012 225.877)
(-78.0599 -61.0916 -46.4862)
(87.4245 -36.0605 -26.7589)
(40.4315 -11.5771 -8.41399)
(77.8374 4.82798 -14.7194)
(48.5453 4.91813 -7.65453)
(60.7041 4.53987 -6.34397)
(47.8847 -0.660673 -1.8856)
(58.758 -4.35444 1.27958)
(55.9523 -5.81699 2.43773)
(64.2611 -6.1045 2.65728)
(64.6211 -4.81772 1.68943)
(69.6877 -3.69667 0.879686)
(70.2242 -2.19153 -1.01237)
(73.1133 -1.19737 -2.0789)
(73.4525 -0.959442 -3.49934)
(75.3761 -0.57512 -4.61273)
(75.8442 -0.401707 -6.74788)
(78.6043 -2.91289 -7.93804)
(87.6942 -4.27148 -6.32413)
(1.14602 42.1695 170.068)
(-67.7177 -3.6366 -28.8314)
(42.4412 6.3889 -17.0016)
(-34.6884 8.04288 6.42271)
(47.1261 12.775 -5.62857)
(15.4217 9.6668 -0.335579)
(46.6825 5.24188 -1.55053)
(34.4308 -0.982783 -1.00692)
(48.8146 -4.2494 -0.412358)
(43.36 -5.16127 -0.680572)
(50.8152 -3.99658 -0.649134)
(48.4789 -2.28928 -1.1134)
(51.7491 -0.141025 -1.36723)
(50.5893 0.994012 -1.95353)
(51.9399 2.26215 -2.5597)
(51.4133 2.49107 -3.01458)
(52.2352 2.72339 -4.19878)
(52.4099 0.431775 -4.88285)
(58.4816 0.0214517 -3.3354)
(68.4416 2.82801 0.907676)
(-36.738 -212.594 111.779)
(-207.099 -76.0834 -11.4101)
(7.88344 -58.7803 -24.2532)
(-58.1288 -28.3592 -0.279519)
(31.8604 -24.6511 -3.6406)
(3.65832 -8.04802 -0.461497)
(37.3459 -9.93485 0.398283)
(24.5305 -7.21549 -0.323524)
(40.9773 -11.0925 0.284506)
(36.5093 -8.61806 -0.657848)
(45.9472 -8.41095 -0.666172)
(44.7424 -4.30124 -1.2205)
(49.3094 -2.89375 -1.05715)
(48.8381 -0.785121 -1.03794)
(50.9584 -0.86132 -0.908658)
(50.6167 -1.57278 -0.946642)
(52.4814 -3.42616 -0.600726)
(51.6404 -8.07617 1.27794)
(53.9814 -10.4374 3.07865)
(55.1708 -7.78423 3.10274)
(51.3824 -99.907 187.28)
(-69.0824 -80.1586 -39.0706)
(46.6478 -51.3776 -37.688)
(-27.4717 -23.0971 -3.65731)
(41.6002 -15.2854 -4.43181)
(4.71529 -3.70132 1.69713)
(38.7043 -9.01557 1.51478)
(21.8735 -8.75906 1.23388)
(38.4507 -14.4286 1.00494)
(32.3644 -12.6388 0.299758)
(41.9872 -10.7364 -0.266292)
(41.0555 -6.42263 -1.23584)
(44.8779 -3.33571 -1.37303)
(44.0796 -1.39618 -1.08221)
(44.4315 -0.099207 -0.437803)
(42.5839 -0.490287 0.916503)
(41.1976 -0.275623 3.73669)
(35.8165 -1.3916 4.75049)
(33.6563 1.42298 3.51765)
(31.4002 3.64197 1.78067)
(17.8758 -29.3027 29.4136)
(-131.436 -57.1211 -37.8853)
(49.0138 -50.6169 -10.9136)
(-30.1371 -31.751 -2.76417)
(37.5816 -32.2545 -1.98918)
(2.27082 -14.1227 -0.174627)
(34.9298 -24.4371 0.768624)
(17.3682 -11.6346 0.0164125)
(33.8239 -23.1917 2.2077)
(23.518 -15.1642 1.9723)
(32.0398 -17.8731 2.42053)
(28.9686 -7.81204 1.03514)
(33.0888 -5.85916 1.09345)
(31.282 -0.703251 1.24947)
(32.3971 -0.340829 1.82883)
(29.9682 0.647112 2.21515)
(29.6319 0.341188 2.51387)
(27.0838 -0.390265 1.94949)
(26.846 -0.299091 1.4043)
(30.7115 0.505594 0.826396)
(119.303 -118.823 5.23982)
(-8.67205 -30.7455 -35.4711)
(82.4142 -37.6876 -0.409695)
(18.4603 -20.1396 1.39533)
(58.7994 -13.1507 4.31108)
(28.1456 -7.94129 1.02177)
(50.2589 -17.9892 2.35119)
(36.7014 -12.6322 2.32674)
(38.906 -18.8355 4.36678)
(24.4227 -14.9411 4.43322)
(21.6049 -14.8134 3.13147)
(17.3543 -8.7865 0.969576)
(17.0667 -6.03206 1.46511)
(18.3153 -3.73701 2.19491)
(18.5112 -2.21829 2.74866)
(19.4966 -2.27499 2.90538)
(21.1983 -2.39002 2.62523)
(22.5641 -1.99383 1.90593)
(24.7019 0.362478 1.28683)
(30.1742 2.23256 0.581907)
(293.902 20.2744 -39.3711)
(39.5119 -13.8577 -34.2692)
(78.3267 -33.0772 -17.7486)
(-14.2629 -33.1451 -10.7693)
(44.9528 -28.0241 -2.56093)
(6.52361 -12.3882 1.2128)
(34.8486 -35.7748 3.29619)
(14.4033 -5.99289 4.7862)
(21.8042 -17.6862 5.32711)
(-4.44437 -0.119975 3.72725)
(5.0707 -11.8561 -0.156355)
(-4.1715 -1.36348 0.066505)
(6.58092 -8.95119 0.195399)
(7.05619 -5.38985 2.34193)
(14.4391 -8.57733 2.1025)
(15.8841 -10.1428 2.69759)
(20.4167 -11.1338 2.41336)
(22.3252 -9.20535 1.95032)
(25.379 -6.12988 1.22699)
(32.4599 -2.16623 0.570721)
(273.861 242.748 94.8537)
(80.7422 109.486 -1.08696)
(175.503 51.3399 -6.4841)
(110.198 4.92518 -11.2904)
(112.075 -18.2542 2.0488)
(81.1398 -7.16993 4.30972)
(85.4685 -8.22956 6.52702)
(45.2451 -14.1537 2.68033)
(36.0801 6.27888 2.64236)
(18.2402 -1.95285 5.03364)
(13.6966 5.70297 1.31468)
(8.15284 -7.12723 -2.79999)
(15.7078 -4.4733 -3.20445)
(19.565 -11.6745 -0.424891)
(22.6375 -16.7191 0.143767)
(27.4503 -17.4177 1.44004)
(29.3709 -18.1129 2.5279)
(30.22 -14.5886 2.80105)
(31.1422 -9.38843 2.17022)
(35.6758 -3.27927 1.02531)
(105.266 -301.502 -84.3588)
(-6.83617 -71.4645 -22.7646)
(122.73 9.09562 -20.0814)
(59.5564 -1.07975 -7.44337)
(85.5052 3.10207 10.4471)
(72.5623 10.6886 12.3562)
(81.2935 11.3009 9.10189)
(58.1527 11.2129 1.54784)
(54.3032 5.21322 -0.316697)
(57.0583 1.92037 -0.413618)
(59.6816 6.38087 4.91105)
(48.4824 4.67911 4.00216)
(34.1918 -0.845253 -4.9835)
(32.6469 -8.48503 -7.45161)
(35.0993 -8.62425 -2.44579)
(33.4227 -17.1195 -0.839148)
(34.7459 -21.0529 0.825723)
(34.6668 -19.3514 1.3442)
(35.3127 -13.6461 1.82084)
(39.0833 -6.05807 1.12693)
(239.259 164.91 99.34)
(-16.3782 -1.23086 2.98477)
(103.157 20.8482 -10.0653)
(81.8727 -0.241509 5.6371)
(121.123 17.0863 9.50513)
(112.178 12.7374 7.08695)
(91.6038 -2.4307 6.30958)
(81.0913 5.79047 2.55206)
(83.9362 0.710077 2.11274)
(85.0267 -2.44448 0.684521)
(87.2076 -1.38394 -1.99881)
(90.0935 4.34101 2.24144)
(90.874 7.64461 8.10304)
(66.8399 -3.32628 -1.69757)
(57.731 -3.99967 -7.48889)
(50.3518 -8.78713 2.27813)
(46.9343 -17.0658 0.961097)
(43.4125 -17.5462 -0.0530356)
(40.2755 -13.7893 0.314234)
(41.171 -6.13647 0.566365)
(211.618 -207.217 -131.186)
(-243.215 -92.3769 -25.0727)
(79.6965 12.8223 -26.4752)
(-35.1123 -16.6618 5.86452)
(64.85 12.6184 4.51347)
(43.3003 12.4219 8.38254)
(77.3762 14.8318 8.66026)
(82.1349 -1.15272 4.76146)
(86.3632 -8.00653 4.37083)
(90.5557 -8.70175 4.83467)
(99.4768 -5.75418 7.03967)
(112.068 -1.20738 7.12847)
(122.952 6.69997 8.73724)
(120.092 15.3968 17.8494)
(77.5066 15.1881 -5.00419)
(61.3296 -1.45893 3.20877)
(54.2932 -13.9122 0.511815)
(45.8269 -13.1887 -0.702565)
(40.7043 -9.26924 -0.18349)
(41.8074 -5.17916 0.25484)
(132.812 -262.991 -41.4561)
(-107.52 -116.935 14.4582)
(114.722 -68.4385 -24.6008)
(-14.9215 -16.6566 7.85866)
(78.5043 3.58143 2.91197)
(47.8995 -8.53286 -1.23562)
(65.403 -18.7668 -0.306692)
(68.7527 -13.7772 0.2914)
(68.2753 -10.653 -0.712287)
(65.4793 -12.2475 -0.607411)
(67.9551 -12.6016 -3.17034)
(75.4335 -10.386 -5.59214)
(82.3882 -7.79043 -3.72918)
(82.1988 25.6538 6.87709)
(76.5146 30.4524 -1.60271)
(71.4031 7.19422 2.71514)
(61.6121 -4.61372 1.76991)
(46.5318 -7.38159 1.04606)
(39.3647 -6.98287 0.766584)
(40.3195 -4.60295 0.353891)
(181.788 -92.1074 32.7934)
(49.3007 -51.9609 -14.462)
(125.171 -63.1856 -27.9029)
(-2.50541 -10.2452 0.529504)
(79.7972 -17.4218 2.20554)
(18.8996 -34.9036 0.181357)
(53.0715 -4.82222 3.2361)
(39.8484 -2.31868 0.887089)
(48.6925 -6.45913 -0.336685)
(44.3533 -7.252 -0.515794)
(48.5045 -7.24601 -1.67127)
(47.0803 -4.34268 -2.8332)
(49.1595 4.86443 -0.339603)
(56.6743 19.4343 1.94638)
(70.3836 15.7338 5.1712)
(72.8702 7.81476 4.34851)
(71.2046 6.45701 3.85228)
(63.059 5.93468 4.22936)
(56.325 0.403947 5.20808)
(51.122 -2.25629 3.43188)
(167.171 -247.601 163.615)
(90.2304 -51.1057 32.9529)
(166.83 -30.7602 0.623167)
(80.192 -7.89642 -4.22003)
(109.26 -8.16477 0.891286)
(66.6364 -7.07143 -1.93148)
(73.073 15.322 0.533028)
(54.5845 -9.71179 1.1142)
(58.0074 1.8094 2.4731)
(50.4004 -9.07543 2.55199)
(53.6799 -2.65735 3.6869)
(51.744 -5.28661 4.07631)
(56.0457 1.17516 5.62673)
(60.0939 1.02566 7.77771)
(70.4376 3.43146 6.87344)
(74.4681 0.841298 4.72587)
(78.2948 0.457754 3.51677)
(78.9026 1.13257 3.0952)
(80.6351 2.40739 3.12582)
(76.4718 2.15568 1.68634)
(57.3749 -394.958 99.9949)
(-146.408 -50.5074 -40.931)
(77.5385 -18.9412 -34.4685)
(-27.0506 -8.40351 -0.850029)
(73.1927 -8.06015 -3.79893)
(12.3649 -12.152 -0.883158)
(64.0473 -2.26877 1.94275)
(37.9272 -8.26057 0.540847)
(51.7666 -6.5003 2.58913)
(40.6729 -10.3037 1.57152)
(45.1884 -9.15671 2.47701)
(41.9352 -9.19405 2.01308)
(45.5467 -6.40593 1.89724)
(46.2346 -5.78931 1.57472)
(50.4712 -4.03659 0.413621)
(52.2378 -3.34247 -2.27482)
(55.5272 -1.68168 -3.74635)
(56.3793 -0.205709 -5.13282)
(59.2387 4.49038 -4.15797)
(62.5394 6.01736 -2.83842)
(192.923 41.083 17.9651)
(-49.1464 -8.52362 -10.5281)
(106.689 -18.7939 -38.5574)
(34.3186 -24.366 -11.6087)
(84.9304 -28.9125 -4.42899)
(50.6436 -15.7354 -2.84012)
(72.9313 -6.69781 0.145135)
(53.3337 -4.43296 -0.454335)
(58.3896 0.646638 1.26602)
(43.2289 -4.77848 -0.0595489)
(44.5492 -2.90778 -0.00260855)
(35.8122 -5.93741 -1.60121)
(37.7213 -3.58486 -2.54949)
(34.9285 -4.18504 -3.9017)
(37.3893 -2.23366 -4.96533)
(37.6865 -2.13801 -5.78797)
(40.2244 -1.59239 -6.35865)
(41.231 1.28547 -7.27774)
(46.4353 7.3943 -6.15637)
(57.3934 7.92932 -2.65971)
(174.963 123.952 -48.1115)
(-27.6944 45.7595 16.854)
(110.785 11.7125 4.15167)
(17.9217 0.736469 -5.98875)
(78.6739 -6.64299 4.87832)
(30.924 -9.18204 0.830983)
(59.9321 -3.89821 1.54243)
(33.5539 0.559475 -1.66901)
(46.974 3.96957 -0.211382)
(32.8856 2.20981 -1.85832)
(38.7431 1.2218 -1.43444)
(30.3743 -0.0992849 -1.91182)
(33.62 -0.590142 -1.48154)
(31.9383 -1.40745 -2.23867)
(35.3388 -2.39199 -3.42782)
(35.9812 -3.63673 -4.2024)
(38.2879 -4.50686 -4.83471)
(39.5756 -2.87566 -4.80702)
(47.0926 3.0526 -2.47029)
(58.7538 5.94979 0.148627)
(111.853 388.442 -154.368)
(14.7957 81.0077 -13.9653)
(133.979 7.11151 -24.7912)
(67.7259 -29.0716 -15.071)
(113.017 -23.6698 5.14575)
(74.69 -9.60289 9.48821)
(81.9912 -0.759424 12.0214)
(59.0727 3.63471 3.7534)
(63.4629 4.40705 1.31281)
(53.2721 2.12866 -0.147003)
(57.529 0.812245 -0.00605116)
(51.9246 0.215541 -0.553315)
(53.2626 1.5674 -0.129322)
(50.17 2.73296 0.106871)
(51.8311 3.532 0.711283)
(51.3413 2.93765 1.2558)
(52.9693 1.41323 2.12599)
(52.5262 -0.584853 2.96878)
(53.8801 -0.112789 3.64563)
(58.2001 0.763035 3.32502)
(135.006 237.823 37.536)
(-87.5931 -8.20517 -1.36531)
(112.295 -9.64648 1.51052)
(-1.02624 -7.31613 -6.83038)
(71.0714 8.40733 -4.43646)
(26.8046 17.6219 -6.23406)
(58.5605 18.6829 -0.247731)
(44.4549 13.2402 -0.744568)
(60.094 7.91098 1.55443)
(52.7925 3.68307 0.846652)
(59.3055 1.22383 1.91772)
(54.5388 1.1311 1.40847)
(56.6898 1.474 2.24703)
(54.0907 2.17296 2.50774)
(54.5171 1.29028 2.76888)
(52.1936 0.0527833 3.1209)
(50.1797 -1.53936 4.4461)
(44.9831 -2.02744 4.44491)
(43.0687 -0.274295 4.00531)
(45.8437 1.13761 2.82895)
(167.482 -191.907 -61.8579)
(87.2913 -53.9014 -10.837)
(135.189 -50.2996 -4.26709)
(39.4792 -10.9023 -8.20769)
(89.1228 -13.8171 6.07155)
(64.9577 -6.71872 4.29117)
(87.2718 -5.54992 7.25068)
(79.5753 -0.598281 4.52081)
(89.2039 -0.318816 4.53506)
(82.9654 0.381779 2.94973)
(83.6591 -1.75366 2.64101)
(74.9062 -2.66938 1.92561)
(71.2846 -2.93997 2.25064)
(62.2616 -2.57453 2.5779)
(58.7918 -1.45663 4.69343)
(50.7369 -0.0203148 5.71681)
(46.5318 1.84961 4.83489)
(40.4445 1.32172 3.35346)
(39.3031 0.65465 2.14386)
(43.2549 0.32239 1.31434)
(186.9 -231.658 106.19)
(8.86801 -89.9382 -46.3523)
(129.165 -60.5855 -28.5805)
(75.4493 -27.6293 -10.4238)
(96.7708 -0.882967 -13.4146)
(64.6403 3.50641 -7.85101)
(67.2171 5.08406 -5.80489)
(48.802 0.896614 -1.75688)
(56.7128 -1.98904 1.69414)
(52.4806 -2.79413 2.58271)
(60.682 -2.77365 2.61585)
(60.3037 -1.58661 1.27277)
(64.3252 -0.887384 0.2897)
(63.246 -0.354402 -1.21509)
(63.7825 -0.754592 -2.20437)
(61.9381 -1.35637 -3.09793)
(62.0837 -2.44367 -4.01305)
(60.6112 -3.56589 -5.33478)
(62.1262 -7.10502 -5.79046)
(68.9037 -8.58722 -4.52131)
(127.637 -247.142 197.918)
(1.44062 -33.7243 -9.74698)
(51.0759 0.638894 -18.8829)
(-17.5184 6.23391 5.26148)
(44.4212 12.5334 -6.56238)
(12.1501 8.9012 -0.647385)
(41.3892 5.52523 -1.12281)
(26.3601 0.0866064 -0.744217)
(41.5099 -2.13986 -0.336522)
(34.9174 -2.46503 -0.927738)
(42.9426 -1.41967 -0.98549)
(39.7146 -0.52433 -1.51118)
(42.9985 0.232537 -1.66393)
(41.1169 -0.436062 -2.02042)
(42.3168 -1.40035 -2.04687)
(40.3852 -3.38207 -2.22789)
(41.1819 -6.14766 -3.36139)
(38.7588 -9.46888 -4.26379)
(40.5779 -9.42937 -3.17716)
(44.0561 -4.68287 0.0352413)
(27.9854 -155.326 22.3359)
(-114.908 -89.7458 -8.87946)
(11.9074 -62.6299 -24.6362)
(-51.6099 -30.6734 -0.144421)
(24.893 -24.4941 -4.87134)
(-7.74444 -8.23092 -0.16511)
(28.6737 -10.4035 0.689563)
(13.8849 -6.69423 -0.204458)
(32.8799 -9.98685 0.522796)
(27.3358 -6.53206 -0.547745)
(37.4941 -6.49071 -0.506716)
(35.2259 -2.89944 -1.08802)
(40.0047 -2.92567 -0.948326)
(38.8375 -2.35767 -1.02866)
(40.735 -4.45927 -0.907319)
(38.5854 -6.1104 -1.10917)
(38.0209 -10.3498 -0.767457)
(33.7367 -13.1533 0.23269)
(34.8252 -13.4419 2.05967)
(37.0597 -7.7328 2.89298)
(401.884 131.882 73.4142)
(120.543 -1.99981 -2.14856)
(82.5879 -43.0491 -18.2938)
(-12.5351 -23.0201 -1.87812)
(36.1393 -14.9999 -4.52707)
(-5.11947 -3.93704 1.57705)
(31.1677 -10.0479 1.17893)
(12.9954 -8.40328 1.31459)
(32.3202 -13.2768 1.25018)
(25.9172 -10.392 0.506233)
(36.0103 -8.95871 0.0538578)
(33.8963 -5.42437 -0.849662)
(37.3713 -3.90688 -0.933401)
(35.7581 -3.01255 -0.877623)
(35.5045 -2.90349 -0.0101338)
(31.843 -3.57147 1.07585)
(30.3757 -3.49855 3.24126)
(27.5664 -3.61071 3.51919)
(27.9651 -0.797559 2.67961)
(28.2238 2.57246 1.2589)
(138.302 62.555 -102.857)
(-92.4923 -27.2285 -55.3602)
(55.2073 -37.2028 -30.6733)
(-31.768 -28.0296 -5.42754)
(29.617 -28.843 -3.97496)
(-12.9663 -12.5486 -0.411538)
(25.2317 -25.849 0.571656)
(4.76527 -10.9301 0.205207)
(25.8876 -23.1309 2.28543)
(17.0365 -12.7672 1.97957)
(28.1396 -15.8081 2.31743)
(24.7871 -7.20188 1.34834)
(28.7651 -7.53296 1.8867)
(26.3704 -3.6583 2.43421)
(27.58 -4.00234 3.30855)
(25.5723 -3.26216 3.71807)
(26.1122 -3.32223 3.75617)
(24.8614 -3.58905 2.87813)
(25.5699 -2.71196 2.03813)
(30.2142 -0.358696 1.07984)
(292.068 -136.528 53.3685)
(42.4211 -31.4124 -25.7168)
(79.2591 -36.8969 5.90788)
(2.52201 -20.6527 0.731702)
(47.1563 -13.3444 2.94551)
(9.82884 -8.82846 1.0862)
(37.8661 -22.2685 2.08212)
(20.1277 -13.9827 2.24067)
(27.3287 -20.7984 4.41867)
(16.8325 -13.1336 3.59488)
(19.2009 -11.8269 2.49644)
(14.8495 -6.35497 0.561705)
(14.2244 -5.26491 1.82999)
(14.5236 -3.96991 2.82055)
(14.8751 -3.14262 3.91354)
(16.6338 -3.58836 4.12948)
(19.5494 -3.34688 3.6896)
(21.7161 -2.67378 2.65456)
(24.0868 0.115131 1.7236)
(29.9114 2.08169 0.761356)
(346.869 84.1285 56.0763)
(73.4649 13.0308 -33.1022)
(81.0743 -29.4344 -20.9074)
(-17.1224 -34.2258 -10.6507)
(37.8686 -26.3795 -3.527)
(-7.25797 -11.471 1.84061)
(23.5822 -36.9943 2.95122)
(-1.89138 -1.86247 4.6189)
(12.0187 -18.7641 5.37671)
(-6.12908 0.607456 2.91353)
(5.12662 -10.9458 -1.59813)
(-3.76766 -1.37505 0.34904)
(5.8412 -8.25444 0.16164)
(5.39634 -3.67562 3.48681)
(12.3964 -6.08765 3.1742)
(13.9144 -7.81942 4.01754)
(19.3273 -9.45498 3.78047)
(21.8954 -8.26719 3.22169)
(24.9851 -5.81183 2.23639)
(32.225 -2.12088 1.09801)
(211.33 116.746 -88.9772)
(136.094 54.4521 -37.9854)
(203.345 36.3106 7.98437)
(96.9265 -8.20559 3.68961)
(92.3646 -17.3083 6.95871)
(59.0711 -1.3119 5.41728)
(64.8263 -6.82213 6.30677)
(27.5268 -8.10393 3.41871)
(23.4335 5.69412 2.46488)
(9.80073 -1.73666 7.05757)
(13.0578 4.4414 -0.454875)
(7.73116 -6.19722 -3.78596)
(13.7081 -4.65047 -3.35998)
(14.5271 -8.79868 0.130535)
(15.7736 -11.6672 0.181595)
(20.8838 -11.6844 1.50943)
(24.6171 -13.2762 3.47795)
(27.3193 -10.0316 4.07452)
(29.2752 -7.10077 3.28975)
(34.8796 -2.7853 1.81995)
(115.479 -180.235 -138.814)
(4.13636 -59.9753 -15.6706)
(101.839 7.83776 -20.8894)
(20.0967 -5.27702 -7.01183)
(48.0235 0.951425 6.86903)
(32.2213 13.1318 11.0638)
(54.1384 14.034 9.84416)
(43.0994 9.76423 2.14323)
(44.2759 4.57249 -0.488222)
(45.848 1.72616 -0.878902)
(48.4865 6.88973 4.75148)
(43.9066 4.59184 3.93482)
(31.7063 -3.61383 -5.78602)
(24.8784 -9.58254 -8.01442)
(23.6791 -8.83454 -3.97083)
(22.5796 -16.7994 -2.63125)
(25.6832 -17.4328 0.0217944)
(28.3119 -13.3357 1.9799)
(30.875 -9.11076 2.69378)
(36.8807 -4.72184 1.78604)
(145.133 45.8586 -0.633331)
(-63.3985 -24.5724 16.5847)
(82.6805 16.3665 -12.8051)
(50.9116 -0.35727 2.53149)
(92.3862 17.3936 5.83341)
(77.6897 9.8874 5.56794)
(69.8972 3.54851 7.90171)
(68.844 7.28193 3.52191)
(70.982 -0.204698 1.98937)
(71.5462 -3.26415 -0.0656283)
(72.8795 -1.4684 -2.41202)
(76.0549 5.21184 2.25279)
(78.2812 7.25265 7.59402)
(65.1264 -6.33765 0.818029)
(47.0256 -8.59261 -6.84852)
(39.3118 -14.3198 -1.17037)
(38.0584 -18.1592 -0.291329)
(36.0347 -15.9202 0.121438)
(34.6984 -10.2926 1.25843)
(38.3146 -4.65196 1.35037)
(92.9997 -253.336 -58.2011)
(-130.068 -97.3388 9.30853)
(63.3424 11.5905 -30.1928)
(-40.4911 -8.703 4.21367)
(50.5697 19.1213 1.82609)
(27.0098 15.8693 6.0013)
(61.3807 16.2814 8.25405)
(71.4638 3.49608 5.8368)
(77.1483 -1.66508 5.2917)
(81.9291 -2.81835 5.33651)
(89.7061 -0.614073 4.10673)
(101.111 3.87177 3.22366)
(109.483 9.11722 7.10598)
(103.704 12.2132 16.5007)
(71.2943 7.04605 -4.11724)
(54.0294 -5.8252 1.02086)
(48.3399 -12.5556 0.320751)
(40.2165 -11.3223 0.261824)
(36.54 -8.05092 0.799901)
(39.2729 -4.89263 1.01723)
(150.904 -336.043 -89.5973)
(-62.4659 -127.1 9.72892)
(101.45 -60.2085 -14.0812)
(-26.6728 -10.6607 5.16036)
(68.046 7.93102 1.83983)
(35.623 -5.14945 -0.339022)
(56.103 -12.2929 1.60255)
(60.6049 -4.62463 1.39017)
(59.792 -3.27927 -0.0331725)
(59.331 -4.01586 -1.21157)
(62.7789 -2.01285 -4.97024)
(68.5686 1.72403 -7.39497)
(74.553 4.07168 -3.20124)
(71.472 27.2245 3.67947)
(67.2419 21.238 -0.344175)
(59.258 3.54773 2.4611)
(52.2708 -4.22917 2.2457)
(40.6888 -6.31626 1.63964)
(35.9879 -6.13816 1.22108)
(38.5212 -4.32628 0.774642)
(212.443 -263.452 -27.9524)
(38.1785 -89.7098 -13.5888)
(110.8 -53.5491 -18.3252)
(-22.4173 1.19431 2.78248)
(70.8287 -9.80246 1.90226)
(2.63792 -30.9543 0.852855)
(39.8701 2.05112 3.73232)
(25.813 2.34842 0.736343)
(38.2483 -2.4899 -0.544815)
(34.4327 -2.54139 -1.22402)
(39.9338 -1.4142 -2.72391)
(38.2053 3.09238 -3.70425)
(41.6603 11.2474 -2.23206)
(49.9184 20.0277 0.712478)
(60.3082 11.0294 5.40675)
(62.5504 6.02035 4.11694)
(60.9751 6.52472 4.01384)
(51.8469 5.53869 5.58513)
(47.0596 -0.291062 6.17255)
(46.9416 -3.20417 3.13058)
(106.751 -189.434 28.8094)
(37.0113 -60.1692 5.49181)
(130.012 -42.2068 1.92759)
(40.6702 -2.86819 2.94594)
(88.6535 -4.21605 5.15298)
(41.0725 -4.17985 -0.593679)
(53.8764 19.83 1.32138)
(33.8831 -10.9946 1.07752)
(41.2028 4.72744 2.14457)
(34.8989 -6.70582 2.27416)
(40.9136 2.51236 3.29483)
(40.975 0.0958528 4.24894)
(46.7081 7.30481 6.03831)
(52.6564 5.85702 7.34144)
(63.9667 8.49486 5.70881)
(67.0929 7.81057 3.60058)