/*--------------------------------*- C++ -*----------------------------------*\
  =========                 |
  \\      /  F ield         | OpenFOAM: The Open Source CFD Toolbox
   \\    /   O peration     | Website:  https://openfoam.org
    \\  /    A nd           | Version:  10
     \\/     M anipulation  |
\*---------------------------------------------------------------------------*/
FoamFile
{
    format      ascii;
    class       volScalarField;
    location    "3.7";
    object      k_0;
}
// * * * * * * * * * * * * * * * * * * * * * * * * * * * * * * * * * * * * * //

dimensions      [0 2 -2 0 0 0 0];

internalField   nonuniform List<scalar> 
12920
(
2930.35
1341.27
946.656
863.541
687.71
530.159
418.073
349.67
294.338
253.495
225.871
200.357
164.861
122.317
88.7316
70.9926
63.2641
58.8644
57.5015
56.4583
3104.28
1248.88
954.84
1126.92
1069.98
938.776
747.106
616.117
468.6
361.524
277.319
222.8
184.716
160.638
140.712
124.237
114.621
110.431
109.586
110.269
2427.98
1752.03
1394.62
1264.01
1146.19
1098.95
1007.84
964.915
878.981
751.229
551.602
377.851
257.202
182.573
143.97
127.735
124.065
121.912
120.555
116.225
1515.75
1342.35
1156.67
951.869
818.191
823.432
813.965
807.689
761.552
642.728
462.728
317.194
229.165
180.228
159.258
149.441
144.458
135.919
130.965
118.709
529.542
1231.84
1353.62
1124.88
779.624
671.421
582.902
538.472
466.278
392.916
325.456
279.576
254.158
240.412
220.119
185.043
157.71
139.191
132.186
117.437
1230.28
1879.92
2089.45
1418.8
870.839
679.548
548.704
492.186
425.164
376.769
331.827
300.939
267.597
227.287
183.592
150.459
135.115
122.754
117.532
106.132
2266.99
2496.8
1817.99
1294.18
1004.72
711.958
517.194
429.883
377.484
347.653
317.252
287.395
244.514
195.982
159.105
137.478
127.838
117.346
112.161
101.023
5466.37
4414.4
1956.24
1326.3
1242.85
1123.91
663.279
381.992
250.879
202.942
197.264
183.248
155.941
118.754
132.411
126.449
123.708
117.876
108.373
97.136
2777.69
3526.04
2376.02
1760.06
1304.97
773.711
523.099
198.726
169.807
151.638
112.455
95.7682
80.1132
58.5548
68.0046
129.644
117.893
107.509
101.689
93.2064
3119.59
3102.68
1966.24
1330.6
1051.07
612.402
340.251
139.74
107.247
103.255
99.3051
85.1778
64.5353
51.2232
93.5064
142.038
111.554
92.667
83.6213
78.1924
8660.23
3090.06
2137.83
1726
1215
690.473
356.146
245.398
205.264
117.082
93.4002
85.0772
72.6845
63.0501
133.839
171.664
118.335
91.4828
77.7275
69.3338
3606.01
3638.18
3132.14
2105.91
1181.63
554.328
284.095
218.721
167.156
74.2335
80.6112
87.3631
99.6254
113.005
194.962
175.395
108.812
80.9426
69.1785
63.3218
1986.73
3107.56
2311.66
1477.34
923.725
653.95
354.653
204.006
148.2
130.98
137.925
158.923
208.68
217.62
291.482
184.862
116.335
83.762
69.9977
62.656
5046.38
2881.46
1968.19
1256.16
760.465
657.533
507.794
482.517
416.03
388.229
372.226
372.22
367.233
346.217
283.355
207.566
145.18
103.456
83.419
68.2649
5679.9
3401.66
2716.1
2217
1165.91
824.637
624.584
571.953
517.22
484.038
434.823
398.067
362.844
321.092
262.42
197.15
144.446
107.461
89.6936
71.9132
6927.2
6591.66
3275.58
1444.77
836.827
625.382
522.337
495.38
480.531
465.799
421.788
372.129
309.667
247.498
193.399
148.199
120.814
99.9924
91.232
76.2042
9730.6
8577
4316.3
1825.13
794.36
475.286
389.913
390.648
395.549
389.002
354.474
299.05
235.428
181.457
144.554
120.69
109.794
100.367
96.2294
87.0373
2116.31
2984.91
1844.28
1056.82
591.77
514.382
405.398
370.794
339.676
330.971
306.141
266.338
214.112
172.033
143.963
126.455
118.977
114.694
113.365
108.742
403.391
537.066
586.395
574.624
437.545
373.779
316.661
311.727
293.337
283.477
258.276
224.972
187.788
158.682
138.321
129.534
129.009
130.197
131.957
129.491
9.10274
225.114
538.091
570.382
499.676
294.267
191.917
169.017
160.42
150.85
136.633
122.687
110.664
100.597
93.4089
87.6921
84.0441
80.567
78.8242
73.2072
4720.1
3432.54
1744.83
1481.11
1262.95
1135.46
962.312
811.127
663.336
565.542
496.432
424.092
328.174
240.058
183.696
151.258
133.887
126.643
126.192
127.404
12991.8
7113.37
3543.3
2824.54
2395.03
2128.79
1661.9
1335.64
1003.19
805.545
640.296
546.07
486.617
453.469
408.642
362.018
339.667
337.91
339.992
347.827
11479.6
5734.51
4422.36
3256.51
2851.47
2753.21
2473.59
2283.53
1941.96
1653.14
1215.76
824.398
596.708
476.21
412.773
390.358
387.29
386.7
384.433
375.305
5135.17
4323.67
3640.81
2646.05
2194.86
2246.94
2170.71
2098.92
1846.34
1517.62
1060.84
746.95
599.943
525.499
490.412
460.992
438.584
419.256
405.77
374.155
1459.55
4374.65
4551.25
3023.52
1957.22
1798.22
1538.2
1463.24
1236.86
1057.28
879.569
785.521
734.487
698.041
622.711
515.328
447.78
415.651
400.037
363.026
1346.44
5308.46
5710.95
3278.35
2066.57
1713.31
1386.55
1307.95
1132.8
1023.01
901.722
816.659
726.503
609.896
495.649
423.949
394.585
369.367
355.278
323.974
5028.19
5184.9
4711.32
3132.24
2339.45
1760.09
1288.56
1108.5
986.896
915.805
824.789
733.418
624.876
513.826
434.211
393.779
372.201
348.546
334.71
305.592
5041.18
4319.95
3176.27
3009.21
2867.76
2503.98
1815.79
1320.32
985.259
801.29
692.283
597.068
503.171
398.263
366.453
356.12
347.137
326.471
305.02
286.24
10989.9
6363.38
4660.94
3781.9
2791.67
2275.04
1839.41
1308.11
1036.95
783.72
603.561
490.766
397.099
306.541
284.606
310.686
300.871
290.502
278.943
272.2
8035.19
6571.76
4775.11
3250.5
2450.43
2067.99
1540.58
1013.77
788.794
630.136
542.4
450.118
364.599
292.771
264.575
280.314
249.28
235.917
234.075
238.891
12605
5912.97
4909.59
4327.86
2885.35
2548.58
2007.9
1537.3
1068.99
706.869
495.811
384.605
315.516
285.415
349.545
333.614
261.152
227.276
208.447
206.361
2929.59
6927.29
5275
4319.29
2178.7
2076.38
1650.16
1383.71
898.134
575.675
507.995
473.275
484.424
497.307
491.456
334.826
238.172
200.635
187.203
187.579
6329.43
5746.68
4040.76
3160.86
1868.5
1608.9
1194.75
890.291
711.528
630.403
632.321
674.754
734.531
717.4
577.367
367.758
256.574
213.656
195.462
187.82
16896
7186.16
4514.21
2928.59
1672.59
1682.35
1403.33
1349.88
1176.66
1123.89
1064.12
1056.33
999.655
883.135
699.787
492.201
338.474
261.114
226.976
199.611
20386
7503.96
6573.85
4897.51
2528.43
2030.37
1575.96
1546.37
1428.75
1358.25
1208.59
1115.78
991.006
865.685
682.987
495.82
362.495
286.216
249.087
208.114
12492.4
6644.47
3928.47
2818.33
1520.64
1471.31
1315.73
1377.71
1327.89
1254.59
1099.09
975.098
813.359
658.259
509.11
394.152
327.7
284.797
263.25
224.779
16262.6
9783.9
4439.24
2770.27
1480.33
1238.88
1064.31
1122.34
1086.02
1008.48
861.179
747.241
598.604
482.197
393.272
342.824
317.251
295.61
286.054
263.306
4756.58
7170.69
3654.68
2277.84
1398.49
1429.75
1142.32
1107.62
946.307
892.683
762.81
670.756
546.273
467.127
407.424
376.217
360.073
349.912
346.115
332.205
4705.71
3467.35
1837.06
1610.29
1261.42
1089.68
905.605
858.448
763.679
715.804
625.979
559.216
477.012
428.202
392.993
386.267
386.712
390.737
393.912
384.544
299.626
1102.34
1252.18
1105.4
724.257
532.331
408.681
384.787
352.605
321.707
284.68
251.023
221.569
203.121
191.672
186.678
183.977
184.18
185.973
180.596
6329.76
3484.11
1772.03
1523.82
1423.05
1291.13
1096.92
898.766
733.082
606.417
500.584
396.191
301.53
231.717
196.635
178.557
172.589
167.889
167.5
166.643
20109.3
8499
4796.91
3503.57
2939.54
2569.18
1903.57
1462.04
1063.81
870.062
715.461
644.385
599.745
583.861
567.114
548.95
545.023
547.47
553.812
569.783
13210.7
8416.88
6169.85
4532.45
3931.28
3622.74
2955.61
2485.83
1926.78
1544.15
1189.62
960.625
813.497
723.715
675.214
649.107
636.723
626.913
621.152
609.565
6107.34
7012.44
5631.57
3776.58
3149.15
3014.08
2657.93
2360.34
1877.85
1520.01
1184.94
988.982
868.755
787.879
735.232
693.123
665.171
637.752
619.964
584.682
7535.22
8259.09
7313.03
4245.14
2977.37
2585.94
2145.71
1913.59
1567.62
1355.53
1166.11
1054.74
966.938
880.982
796.27
716.963
669.758
629.425
604.733
556.102
10285.5
9403.28
8170.04
4439.68
3014.12
2410.17
1990.5
1775.26
1501.38
1322.05
1154.71
1027.57
903.275
783.524
692.464
631.419
596.797
560.626
541.179
501.956
4541.26
7778.97
6611.9
4183.2
3117.31
2398.66
1857.15
1590.51
1357.07
1198.45
1044.21
908.164
784.222
688.567
631.157
593.221
566.117
534.072
515.041
479.199
9459.65
5058.16
4326.88
4173.05
3693.23
2959.66
2285.25
1715.88
1376.89
1114.96
935.608
792.394
678.588
586.987
583.481
560.937
536.87
505.775
482.288
460.264
7353.92
6549.64
5673.26
4645.44
3337.99
2771.32
2383.28
1780.46
1371.87
1053.43
830.898
682.946
574.357
496.217
478.87
488.744
475.841
462.983
450.181
446.164
8613.79
7220.16
5916.71
4065
3117.05
2613.13
2090.77
1555
1185.6
915.942
756.066
622.329
516.621
436.945
389.824
406.773
400.704
402.381
404.759
415.869
16959.8
7253.59
5702
4413.35
3329.06
3053.09
2530.7
1823.31
1325.05
976.218
549.628
379.317
361.755
361.83
435.71
426.444
383.95
368.011
362.707
367.367
4960.69
8741.44
5572.15
4052.42
2674.7
2616.7
2273.34
1673.58
1152.4
914.21
788.56
694.651
660.338
628.433
560.579
412.627
350.839
325.502
317.942
321.266
4819.42
7313.31
5751.16
3564.17
2493.55
2156.28
1772.85
1408.94
1183.52
1066.84
1012.47
989.865
930.538
810.798
595.822
446.424
370.539
333.085
313.594
307.515
37329.2
12385.4
5794.18
3233.43
2516.73
2246.06
1941.32
1846.94
1641.16
1558.4
1414.47
1306.64
1125.04
932.387
729.08
560.535
446.642
379.231
339.848
311.315
37229.5
12865.1
8008.27
5140.78
3024.18
2516
2128.26
2042.94
1842.47
1696.79
1479.69
1312.53
1112.12
919.899
722.999
566.199
463.71
395.244
352.43
310.944
15198.9
7910.92
5199.64
3412.11
2366.22
2220.49
1985.71
1898.3
1715.65
1539.28
1318.7
1128.32
927.576
755.35
609.209
508.962
446.824
401.07
372.898
332.341
15826.3
10080.1
5308.17
3869.37
2370.48
1991.62
1720.38
1590.66
1407.51
1229.83
1034.79
883.183
730.877
627.311
547.796
496.603
463.344
435.451
421.776
391.236
7948.35
7919.46
4563.44
3095.78
2173.54
1884.03
1561.16
1406.8
1207.52
1081.82
919.609
815.949
705.92
643.907
593.962
563.623
547.944
533.816
526.109
502.062
7727.86
3720.4
2406.37
1943.12
1708.11
1345.96
1235.89
1080.7
974.695
880.939
782.206
721.906
661.924
630.104
606.617
604.892
608.271
616.824
618.112
595.439
1328.49
1559.17
1379.61
1159.38
847.402
627.831
539.148
472.012
436.378
387.922
351.996
318.957
298.895
284.683
275.552
266.668
259.986
254.97
249.179
225.444
4827.96
3045.21
2175.76
1736.5
1542.71
1320.48
1072.43
840.819
674.736
532.8
413.411
315.407
253.53
216.774
198.166
187.417
182.939
180.232
179.794
179.922
15203.6
8375.57
5828.96
3958.5
3485.23
2765.45
1974.8
1429.74
1063.24
920.413
821.669
793.761
776.065
778.708
781.887
784.42
795.286
812.452
831.611
862.413
17710.5
11265.1
8247.39
5699.58
5096.43
4097.29
3153.77
2367.36
1797.87
1451.07
1230.77
1103.98
1024.14
969.227
939.301
920.232
910.824
903.21
898.544
893.806
16539.1
10814.5
7815.82
4729.02
4146.02
3445
2888.31
2297.89
1833.64
1511.92
1304.03
1172.87
1090.74
1018.15
973.866
934.831
910.708
883.552
865.525
837.126
12221.8
11663.7
9875
5268.17
3884.45
3000.49
2537.71
2083.19
1762.46
1520.68
1361.85
1233.17
1140.93
1050.04
986.636
931.931
899.127
859.681
833.055
789.086
16874.1
13058.1
10879.6
5582.59
3878.8
2802.89
2420.45
2015.99
1735.39
1495.17
1322.55
1171.3
1051.64
954.69
893.035
844.232
811.84
775.253
755.377
720.26
8964
8850.84
7782.53
4961.19
3853.54
2773.46
2270.9
1857.6
1583.71
1357.08
1183.46
1038.97
939.984
871.554
833.74
799.865
774.945
743.724
726.089
695.061
12432.6
6199.16
6516.44
5427.74
4352.8
3200.42
2556.25
1944.74
1589.54
1281.06
1083.62
938.208
844.609
788.173
800.528
770.117
745.323
716.716
699.538
682.441
4624.19
7573.51
7224.48
5438.7
3830.36
3076.68
2633.56
1966.32
1539.73
1203.85
978.796
838.786
753.56
709.477
705.321
708.893
689.972
680.306
674.422
674.701
20822
9482.69
7140.39
4606.6
3528.59
2826.56
2333.58
1816.87
1405.41
1105.15
904.929
756.174
660.996
611.529
595.48
626.874
629.412
636.647
640.87
651.534
17089.2
9419.49
6348.02
4369.77
3575.8
3005.06
2460.15
1867.68
1438.58
1139.11
767.665
570.577
504.607
512.713
579.713
596.011
578.803
576.31
576.731
581.805
15446.5
9666.22
6273.37
3995.76
2982.17
2701.47
2352.83
1722.83
1351.62
1170.12
997.331
854.256
768.57
710.084
627.218
544.775
510.639
500.13
498.841
505.889
8947.94
8548.96
7209.24
3930.71
3132.99
2460.13
2154.99
1779.83
1548.45
1404.58
1274
1151.24
985.434
815.414
635.795
552.413
510.858
484.057
470.064
470.264
21182.6
15079.8
6834.3
3752.13
3194.61
2558.85
2407.3
2121.67
1963.13
1774.47
1575.45
1357.86
1120.9
911.991
745.973
634.24
563.31
513.022
478.827
460.677
38556.9
12696.5
7746.35
4638.27
3476.37
2738.12
2586.25
2303.72
2103.57
1831.8
1587.99
1336.59
1108.42
905.781
749.612
641.316
571.526
515.679
476.32
445.757
33475.1
9591.98
5556.12
3616.25
3177.76
2534.97
2456.93
2093.51
1941.2
1603.97
1392.69
1140.52
960.622
803.364
696.762
622.045
574.009
529.818
500.609
467.055
45562.4
9779.76
6163.71
4057.26
3061.6
2332.59
2170.16
1772.98
1593.28
1285.21
1115.72
937.484
828.827
741.882
686.86
640.887
614.729
583.701
567.202
533.692
9061.31
8956.44
4831.76
3356.2
2779.41
2088.51
1906.2
1510.78
1371.47
1136.37
1022.71
911.823
850.554
803.555
776.31
752.887
742.644
724.213
712.721
681.523
6355.98
4177.5
2573.14
2338.66
2002.57
1512.98
1486.61
1172.58
1114.25
955.159
912.519
863.703
852.329
841.913
841.233
844.569
854.678
860.297
856.248
820.013
2018.44
1466.81
1258.23
1056.92
810.769
621.666
577.616
478.034
448.397
389.033
360.594
330.053
317.888
306.314
299.624
286.498
276.938
259.818
250.954
228.406
4402.95
3100.25
2708.26
2117.07
1631.29
1198.9
869.06
617.432
451.238
329.8
262.391
225.406
207.071
196.599
192.312
188.071
187.001
184.839
183.934
181.724
10940.8
9379.78
7578.29
4427.14
4445.16
2843.94
2197.34
1306.16
1173.86
980.016
993.363
964.209
996.448
1005.13
1036.86
1051.9
1086.16
1108.18
1131.34
1174.44
22795.5
13834.4
11148.2
6342.49
6435.06
4241.05
3378.6
2111.17
1789.69
1405.19
1346.57
1226.75
1215.91
1171.99
1170.67
1159.76
1162.88
1158.76
1158.05
1168.49
20984.3
13554.2
10409.7
5396.17
5392.5
3658.55
3223.34
2140.77
1900.05
1502.89
1438.38
1297.57
1268.81
1195.3
1175.56
1139.31
1127.75
1103.05
1089.89
1079.69
20091
15459.7
12814.7
5855.44
5068.48
3219.66
2998.73
2138.15
1975.48
1608.74
1521.18
1341.4
1281.92
1189.26
1156.01
1114.02
1098.36
1063.09
1041.68
1017.24
13956.7
15583.5
14074.4
6341.53
4983.59
3102.24
2931.3
2158.3
1957.87
1592.28
1449.46
1265.4
1179.5
1101.52
1065.84
1025.14
1003.1
971.958
956.978
939.934
19934.5
10887.3
10389.4
5811.26
5076.03
3111.46
2754.06
2059.62
1787.56
1458.96
1305.11
1149.99
1089.85
1030.21
1005.81
974.01
960.477
937.131
926.561
912.946
10555.5
8243.5
9449.82
6033.81
5403.46
3555.18
2800.71
2126.51
1745.06
1405.22
1219.36
1090.97
1033.07
998.388
985.014
948.337
931.815
914.561
908.86
903.809
5313.6
8909.5
9831.92
5981.28
4557.21
3335.18
2858.59
2097.37
1676.93
1329.88
1132.4
1020.9
976.078
957.622
945.933
906.454
886.708
883.991
886.962
892.569
20575.9
12397
9083.99
5315.25
4110.81
3008.84
2561.96
2002.97
1581.57
1261.05
1037.24
898.809
859.486
852.695
843.765
834.309
841.986
849.782
863.304
869.716
15466.5
11897
7449.65
5191.51
4077.92
2976.13
2433.22
1943.11
1583.27
1268.52
977.103
759.135
713.858
759.725
792.943
783.155
779.183
777.262
783.134
787.565
19835.3
12798.9
7452.5
5173.41
3359.59
2801.53
2376.56
1854.72
1604.19
1395
1166.07
971.779
882.296
830.365
765.693
697.803
689.842
684.987
691.035
702.128
13504.5
10410.2
8284.57
4615.33
4111.88
2810.32
2516.98
2069.3
1883.7
1652.68
1465.82
1214.89
1006.12
836.661
722.702
676.27
656.754
643.154
639.88
648.483
24413.4
14547.9
7829.85
4948.03
3989.49
3040.25
2959.15
2317.45
2273.6
1843.93
1676.99
1301.53
1093.26
887.093
790.981
713.884
682.982
646.317
631.219
628.087
27201.4
13105.2
8080.49
4881.84
4233.57
3013.25
3123.49
2460.97
2366.44
1864.44
1658.82
1272.52
1085.62
883.028
793.554
714.674
678.793
632.526
607.03
594.571
44949.3
17235.9
6279.31
4882.06
3934.01
2959.13
2944.68
2202.96
2156.73
1578.61
1447.8
1092.26
994.282
833.242
789.214
719.623
696.715
650.331
627.953
606.809
26552.3
12892
6380.42
4538.71
3759.84
2643.9
2616.61
1894
1790.45
1296.03
1207.45
964.958
930.401
827.964
812.806
761.051
749.026
708.202
689.48
658.322
24508.7
10800.3
5258.33
4245.25
3355.39
2496.35
2292.31
1655.07
1561.86
1175.01
1147.36
983.217
994.428
929.575
941.217
905.684
904.815
869.722
852.657
814.187
10145.2
5420.95
2970.56
3507.71
2291.84
1942.54
1784.76
1282.79
1292.33
1006.17
1074.48
967.326
1048.23
1017.18
1061.35
1039.04
1046.69
1019.95
1010.16
976.047
1255.5
1296.41
1109.01
857.376
726.369
582.748
538.756
440.301
404.687
356.916
331.855
313.521
305.163
295.476
289.408
276.416
260.779
230.194
212.868
185.95
793.46
947.091
637.114
1063.85
915.531
1069.71
724.314
652.817
562.56
448.139
871.363
755.67
642.28
549.011
634.183
949.549
801.428
1103.34
750.754
1108.51
955.932
405.884
751.227
644.417
657.377
513.609
901.301
773.95
248.864
378.339
176.278
1386.61
1146.25
1179.38
877.499
164.715
135.033
111.522
1043.9
920.312
758.527
698.055
166.198
113.8
118.362
873.81
735.068
689.616
604.743
118.249
116.205
102.789
669.257
543.853
575.838
499.565
98.8038
99.5389
86.0985
511.603
442.652
477.016
411.067
82.2043
81.6461
67.1556
418.171
360.899
390.527
329.494
61.1253
62.5165
52.2917
337.514
277.507
311.668
262.076
36.0211
48.4684
38.6837
254.002
216.648
247.353
226.503
178.548
335.428
226.825
1181.29
917.968
1387.96
1309.88
108.768
220.87
178.187
794.358
674.445
1210.68
914.543
103.03
167.315
120.539
646.158
553.489
843.884
614.713
101.318
105.506
94.2318
533.871
485.146
548.882
460.713
89.5831
94.4489
91.1025
468.684
410.912
442.169
384.099
68.8495
86.7272
77.757
390.656
330.844
364.046
311.29
54.6225
74.0483
59.5056
313.849
263.372
292.989
247.991
40.4984
58.847
54.198
249.254
226.892
240.396
243.995
252.086
355.628
238.263
1351.64
1468.98
1302.38
1391.33
214.269
236.45
225.308
1348.37
1019.41
1323.96
1014.2
142.969
210.035
119.038
945.623
693.17
914.852
620.033
94.4064
95.1238
87.9445
606.326
458.929
551.621
446.703
87.9499
86.9624
85.609
432.468
367.16
427.419
388.075
77.1486
85.4457
85.5203
348.587
301.417
380.605
376.022
62.707
87.9922
99.7504
286.327
256.983
379.39
398.013
56.5901
102.65
92.3945
256.245
269.335
402.923
411.383
218.143
228.779
114.539
1154.2
1232.28
835.728
799.276
198.953
110.234
81.3313
1192.52
906.642
756.76
577.348
84.3867
72.0124
52.1134
786.636
506.324
522.956
415.019
76.8186
52.4876
63.6329
458.027
418.901
409.451
424.058
86.539
67.5884
75.7463
417.891
407.008
429.173
449.619
94.8127
79.294
109.109
405.742
416.82
462.214
520.71
111.635
117.3
131.61
424.468
442.781
535.883
558.155
96.0762
132.587
111.213
444.936
436.823
557.817
538.86
1426.67
1561.32
1119.48
2284.5
1839.53
1999.66
1582.12
1109.85
1000.2
876.109
1702.39
1412.11
1482.93
1239.09
855.664
837.555
707.461
1309.65
1081.84
1151.87
940.078
643.014
670.943
578.942
999.384
833.501
887.272
759.204
519.134
551.873
475.43
784.454
674.702
722.079
622.908
422.691
452.043
385.061
641.168
559.517
593.801
515.506
328.862
365.273
309.813
532.349
465.41
492.283
431.023
262.388
294.404
260.997
447.831
421.795
415.122
377.158
1139.22
1767.99
1526.97
1996.5
1568.78
2260.27
1846.69
838.152
1396.93
1057.42
1458.27
1196.76
1689.79
1326.48
658.087
974.087
716.868
1108.68
902.743
1225.49
937.716
563.825
647.738
535.824
856.104
745.365
878.101
657.009
473.196
506.842
427.885
711.291
614.793
595.799
472.082
384.166
404.392
344.521
585.621
506.499
449.172
398.858
308.103
324.943
277.723
482.579
418.909
381.463
335.496
259.368
268.774
266.597
401.774
364.797
326.445
328.22
1707.61
1992.42
1663.92
2500.56
1984.42
2468.86
1969.64
1155.52
1532.31
1137.11
1793.56
1388.57
1784.84
1322.14
796.151
1024.45
736.879
1284.48
987.703
1205.28
950.863
533.753
668.292
537.258
918.473
647.815
892.296
745.556
407.323
509.053
449.687
575.435
433.749
698.721
599.276
330.953
439.135
430.528
405.385
361.772
582.13
559.487
286.289
432.701
447.411
352.915
340.521
557.195
554.22
294.073
450.964
448.872
341.796
362.136
552.114
533.274
1471.95
1209.23
976.359
2194.06
1796.87
1754.21
1389.19
1022.81
918.159
705.418
1645.84
1217.15
1299.27
1051.38
626.082
644.831
526.289
1103.31
880.097
986.694
864.327
518.363
518.931
525.292
840.101
758.261
851.277
823.226
477.404
527.721
541.483
727.293
656.924
813.106
796.738
478.883
553.712
603.16
645.006
627.684
798.307
799.794
496.848
614.504
626.233
624.328
611.429
794.52
758.381
476.463
623.152
580.928
604.344
559.787
738.629
652.663
1919.85
2098.62
1682.4
2581.13
2079.64
2311.69
1900.76
1474.05
1583.74
1317.26
1930.18
1606.45
1793.87
1484.71
1134.09
1223.96
999.392
1504.06
1252
1385.36
1143.49
880.908
943.143
806.479
1171.06
994.509
1080.56
926.234
716.746
766.96
662.728
943.936
830.298
882.3
770.717
600.679
632.558
552.744
798.48
725.6
739.914
664.386
511.378
529.397
469.515
704.651
660.222
644.312
598.714
469.215
454.172
413.711
651.134
635.466
588.005
560.082
1661.5
2328.58
1889.61
2278.61
1869.86
2387.17
1957.72
1279.08
1737.75
1382.18
1764.86
1458.91
1829.36
1499.88
966.635
1279.42
994.96
1359.72
1123.19
1398.26
1141.06
915.401
872.224
904.981
969.955
862.517
922.737
961.634
741.89
719.992
742.012
797.325
704.204
758.929
782.487
540.859
440.23
412.539
723.207
642.847
541.147
502.369
453.694
397.794
355.557
621.258
572.101
486.843
456.497
398.095
347.881
348.649
560.276
537.257
454.635
465.353
2003.39
2494.65
1981.15
2484.79
2003.97
2437.74
1941.33
1430.55
1799.89
1350.79
1860.45
1512.86
1787.46
1423.07
1034.15
1239.45
1001.76
1411.88
1156.07
1335.77
1151.59
915.322
864.322
981.721
1015.92
888.071
827.38
1027.52
492.023
487.174
588.412
426.824
522.471
369.247
559.994
364.575
625.244
595.472
492.522
465.096
745.341
686.867
358.939
590.549
580.723
459.502
458.452
674.665
651.327
381.971
576.583
550.606
463.657
485.788
644.095
610.567
1827.73
1898.19
1487.01
2353.23
1849.97
2195.97
1724.79
1257.44
1394.19
1147.22
1709.77
1375.38
1631.56
1412.27
949.85
1083.47
961.921
1298.25
1146.3
1355.53
1233.39
823.415
948.031
907.412
1111.39
993.494
1213.15
1131.67
709.475
893.378
864.925
950.589
845.747
1105.69
1034.48
667.243
863.361
847.072
820.487
760.532
1017.27
943.653
638.293
835.54
782.857
744.835
703.399
915.463
823.263
575.355
758.603
660.372
688.556
627.684
789.792
674.573
2115.61
2373.43
1954.89
2792.81
2206.72
2556.45
2094.33
1639.77
1843.93
1526.52
2056.46
1734.5
1970.38
1639.62
1283.47
1427.31
1183.7
1634.55
1368.81
1543.14
1297.32
1028.05
1119.35
961.293
1291.87
1130.04
1229.29
1064.05
868.651
916.798
805.69
1086.86
992.797
1019.86
916.752
771.688
775.737
705.407
969.298
925.228
892.244
848.95
716.495
687.91
650.504
915.825
897.931
841.861
827.835
693.281
641.889
615.823
894.341
882.799
824.139
811.296
1923.93
2393.02
1974.11
2494.46
2067.62
2419.92
2035.41
1504.27
1852.18
1530.87
1950.41
1626.66
1925.83
1628.23
1166.74
1431.47
1181.53
1530.95
1287.14
1537.13
1292.63
950.317
1114.96
850.846
1218.97
1048.46
1216.74
1003.93
788.239
772.962
632.353
1001.39
887.756
936.885
777.785
680.002
605.807
542.528
859.574
810.454
738.231
671.143
620.746
526.669
504.813
803.969
792.696
668.303
684.979
591.331
505.435
516.57
789.683
783.353
692.103
710.284
2001.05
2407.47
1925.46
2419.41
2019.65
2352.57
1927.48
1535.87
1783.47
1452.68
1908.91
1622.19
1818.74
1579.03
1193.03
1373.98
1202.08
1535.82
1302.13
1519.91
1355.06
855.121
1157.77
1001.52
1231.4
1008.52
1300.28
1122.95
600.538
945.73
811.267
935.502
761.096
1062.9
907.68
513.042
779.393
713.655
719.363
654.919
868.456
801.59
505.868
700.731
677.791
655.548
683.815
794.032
781.549
532.481
670.729
636.055
693.524
713.479
775.568
746.843
1853.79
2275.3
1790.78
2358.84
1905.71
2471.12
1984.5
1420.24
1700.2
1491.87
1802.83
1583.3
1898.01
1720.33
1207.42
1435.94
1312.27
1531.04
1386.31
1673.31
1536.39
1042.78
1289.45
1194.87
1336.44
1176.1
1498.06
1362.63
883.219
1163.64
1077.78
1122.46
978.903
1318.53
1179.29
785.725
1054.77
963.438
940.584
862.531
1136.1
1004.64
725.257
931.082
831.06
846.89
807.463
965.339
857.066
648.544
796.401
681.74
793.403
744.917
823.444
733.233
2246.34
2631.52
2148.7
3205.48
2551.61
3084.29
2499.3
1777.19
2020.52
1687.01
2389.72
2095.32
2353.68
1998.64
1405.07
1591.03
1341.88
1956.77
1657.41
1894.69
1618.09
1173.07
1271.98
1103.81
1579.97
1432.44
1539.88
1352.31
1042.05
1059.78
959.488
1384.89
1291.87
1304.78
1198.96
983.361
937.066
903.912
1271.59
1245.12
1179.46
1168.33
961.181
899.903
890.635
1237.37
1221.74
1168.5
1160.49
943.046
887.583
873.321
1216.45
1194.34
1157.38
1131.51
2124.02
2449.91
2074.34
2949.76
2481.02
2764.08
2398.44
1676.77
1966.61
1675.04
2341.61
1992.75
2283.24
1981.7
1332.28
1584.86
1334.35
1888.56
1608.41
1885.46
1596.93
1084.77
1254.96
1041.97
1524.57
1322.69
1501.02
1269.38
925.046
976.565
815.037
1270.22
1151.16
1202.61
1026.6
861.565
774.924
721.331
1127.02
1117.46
987.574
974.256
854.806
724.954
752.666
1125.05
1124.92
999.653
1036.93
844.323
760.003
772.963
1122.32
1103.03
1040.95
1029.62
2049.35
2362.13
1958.97
2693.26
2352.47
2622.57
2263.38
1667.63
1858.86
1640.93
2244.48
1970.1
2166.37
1965.44
1344.21
1584.18
1412.03
1882.17
1607.52
1907.49
1703.52
1047.7
1351.76
1164.89
1514.4
1277.79
1627.13
1410.18
801.559
1103.03
940.954
1206
1017.58
1340.94
1155.08
707.814
900.59
840.537
976.531
965.25
1111.86
1073.75
750.663
836.127
825.833
992.283
1032.51
1077.14
1061.26
773.124
819.591
789.793
1036.69
1025.19
1052.89
1009.92
1950.3
2538.14
2059.04
2625.72
2272.74
2922.34
2426.07
1653.41
1970.77
1801.54
2175.72
1991.17
2304.28
2133.61
1450.76
1756.65
1612.42
1940.65
1753.27
2107.4
1930.31
1222.79
1565.83
1419.56
1679.99
1476.58
1842.88
1679.87
1012.39
1370.31
1213.16
1409.51
1225.54
1619.39
1418.32
896.491
1162.96
1023.29
1178.33
1117.81
1343.04
1197.3
844.141
982.522
875.193
1104.78
1063.34
1152.71
1048.99
783.57
842.542
761.065
1048.97
998.274
1015.47
943.318
869.908
831.852
781.397
837.515
821.305
879.107
825.485
918.336
911.017
860.503
994.064
865.408
969.393
829.247
849.966
751.074
740.415
547.998
804.882
789.53
657.043
963.136
1019.02
1010.65
1059.1
968.701
1012.72
1005.81
914.734
878.151
961.974
904.862
922.41
866.877
955.165
964.889
1025.67
1065.54
969.601
1019.86
851.012
1006.55
896.971
568.048
877.19
845.328
833.036
679.334
941.52
703.157
685.347
634.979
688.433
667.931
722.47
668.221
691.5
702.918
500.995
480.416
660.503
736.533
428.643
645.666
587.956
462.788
418.492
619.58
613.838
413.007
778.371
835.712
829.91
857.048
795.502
821.093
812.843
737.901
722.533
791.392
733.447
757.708
701.014
771.63
729.342
499.384
819.278
589.67
776.902
451.185
769.055
681.863
444.195
686.337
567.73
647.069
434.041
724.544
778.223
740.325
674.293
518.422
778.263
645.201
655.908
956.761
975.676
903.307
1004.18
908.308
1022.22
959.43
878.394
756.094
853.855
854.775
833.054
797.239
909.268
970.071
1054.67
1017.56
1110.88
884.262
1071.86
1034.39
826.474
539.661
875.978
810.246
676.723
702.577
920.14
1006.08
1057.2
1110
1063.8
1067.21
1013.24
1052.87
929.063
906.74
902.846
1012.18
848.117
962.319
980.554
445.334
432.32
434.138
336.461
469.673
321.026
414.83
665.541
685.945
707.15
802.551
627.393
724.919
756.546
620.522
547.844
671.893
689.41
583.01
584.96
719.227
544.499
450.15
592.837
721.266
398.404
609.35
652.513
497.897
378.173
538.863
560.922
355.436
468.567
597.768
716.155
853.236
831.871
851.819
776.056
805.506
770.871
669.212
733.206
679.316
809.618
631.367
765.84
720.777
497.978
711.731
514.884
1077.6
1027.02
1137.09
1095.89
308.396
407.41
336.869
880.235
672.177
995.302
870.318
211.368
283.703
236.82
547.996
512.641
751.799
659.722
199.616
204.228
188.634
476.958
455.282
559.095
503.33
189.167
180.807
170.303
430.616
413.909
468.43
435.534
170.194
160.361
147.068
381.162
356.243
399.426
364.256
134.896
135.343
114.47
319.782
291.709
328.651
287.447
101.838
101.113
62.0763
243.257
243.012
231.57
218.849
695.394
731.777
581.437
1303.21
1270.06
1271.51
1183.35
567.72
404.186
447.032
662.617
616.055
620.58
343.615
358.78
165.412
177.865
411.612
397.433
376.451
149.195
409.456
174.66
143.22
413.25
406.132
406.813
145.814
320.383
138.888
130.591
311.089
282.924
348.776
120.28
247.057
107.588
97.4412
225.913
219.71
258.697
92.8224
203.978
90.7403
81.3379
192.214
186.583
213.506
77.9041
156.19
75.2574
66.2178
156.724
150.359
167.176
62.2072
110.79
51.3579
49.7167
113.634
103.734
125.634
44.2881
58.3234
81.2074
70.8269
182.007
203.739
194.908
208.653
512.321
595.333
509.543
1145.37
1127.9
1152.85
1146.65
514.106
272.584
334.12
509.305
494.643
516.58
268.088
362.391
118.683
166.449
314.48
306.175
410.567
139.77
311.867
104.822
111.373
317.395
308.002
330.08
106.311
264.617
103.405
96.1393
288.489
285.677
266.7
96.009
260.873
97.2899
97.2042
270.305
262.767
263.725
96.7313
216.361
80.0039
87.8778
226.919
211.701
230.461
82.6642
172.398
61.2694
69.629
171.776
163.455
182.787
66.7011
134.761
49.7177
54.132
131.609
126.463
137.253
53.3024
79.7315
106.123
94.7261
200.923
217.295
218.212
247.624
525.421
709.8
529.002
1151.25
1012.77
1190.94
1039.97
531.33
290.532
359.138
527.199
546.807
517.257
288.074
687.947
238.246
249.597
686.034
672.002
693.043
246.248
554.058
194.564
225.961
558.094
517.967
606.102
211.264
269.138
102.675
117.97
307.418
273.782
299.502
102.467
238.216
92.6248
92.6945
246.075
242.104
244.712
90.9834
211.403
82.8918
84.4111
218.432
211.631
217.085
82.8934
178.877
67.5471
72.8805
181.244
169.311
184.854
69.9328
194.103
64.294
72.8417
159.652
162.441
185.706
77.0866
112.522
168.609
134.35
279.716
295.663
348.159
353.222
410.898
514.181
354.433
990.541
853.328
860.003
706.678
404.027
233.391
262.032
429.079
453.373
400.969
211.604
483.48
217.135
177.276
595.02
595.015
484.398
174.943
251.78
134.063
121.539
444.906
342.683
331.477
95.7906
169.691
72.3272
65.1218
179.923
180.362
167.847
65.3944
220.154
83.8847
77.3591
214.049
223.327
208.028
81.9796
246.658
88.6906
87.6155
233.377
236.683
237.507
91.2651
293.302
104.464
109.252
259.547
268.46
283.134
114.623
309.764
113.43
122.173
285.581
286.455
309.419
122.307
146.037
212.209
159.299
402.592
378.058
445.792
390.594
253.589
386.396
220.405
630.19
609.226
602.893
554.636
171.679
168.683
161.214
544.102
485.358
530.333
518.368
133.698
149.901
122.494
426.176
385.701
491.248
449.377
133.054
122.508
126.636
377.614
382.732
446.346
452.658
144.591
137.308
145.052
394.849
413.225
474.673
497.372
188.169
163.186
188.497
455.111
514.567