/*--------------------------------*- C++ -*----------------------------------*\
  =========                 |
  \\      /  F ield         | OpenFOAM: The Open Source CFD Toolbox
   \\    /   O peration     | Website:  https://openfoam.org
    \\  /    A nd           | Version:  10
     \\/     M anipulation  |
\*---------------------------------------------------------------------------*/
FoamFile
{
    format      ascii;
    class       volScalarField;
    location    "3.7";
    object      nut;
}
// * * * * * * * * * * * * * * * * * * * * * * * * * * * * * * * * * * * * * //

dimensions      [0 2 -1 0 0 0 0];

internalField   nonuniform List<scalar> 
12920
(
4.95444
4.83644
2.38877
2.79265
1.87648
1.61815
1.22871
1.12844
0.955501
0.879247
0.795386
0.737256
0.630582
0.516588
0.402132
0.338045
0.304426
0.28221
0.27567
0.259312
5.68145
3.82856
2.55946
5.10291
3.95671
4.31946
3.01351
2.8201
2.06365
1.74254
1.34799
1.14414
0.945336
0.833666
0.729351
0.659434
0.622103
0.609687
0.612518
0.607568
3.9117
9.52778
4.0601
5.35487
3.75547
4.12774
3.52503
3.68741
3.28677
2.93982
2.15928
1.57032
1.15356
0.9005
0.746057
0.696706
0.690145
0.688549
0.688526
0.656354
3.90792
8.29687
3.97131
4.74338
2.97439
3.47511
3.03709
3.28022
2.97108
2.62828
1.90644
1.41746
1.09554
0.934164
0.854399
0.836976
0.822552
0.786518
0.766669
0.691572
0.827992
6.77348
4.32277
6.04446
2.93014
3.22957
2.43547
2.53889
2.10665
1.91182
1.5869
1.43748
1.31332
1.27474
1.1592
0.995843
0.87837
0.807578
0.786223
0.701488
2.87878
9.61901
6.82645
8.52111
3.74552
4.32882
2.63649
2.69007
2.18696
2.06154
1.80972
1.70057
1.51837
1.32204
1.09998
0.939121
0.857694
0.788099
0.760109
0.674741
2.49385
11.1274
5.45015
7.04748
3.91899
4.24076
2.71857
2.6753
2.22511
2.18485
1.93917
1.80619
1.52129
1.24842
1.01285
0.879998
0.811806
0.747817
0.724505
0.647388
7.15435
14.8775
6.36148
6.73889
4.74428
5.42118
1.43306
0.921174
0.613677
0.578825
0.584185
0.56237
0.477087
0.368259
0.838176
0.790828
0.76324
0.729736
0.687019
0.617182
10.2251
13.4974
7.23058
8.73799
4.9162
1.72449
0.532672
0.232189
0.2012
0.191514
0.160498
0.145945
0.123196
0.0911964
0.214895
0.845612
0.754152
0.681858
0.64843
0.585413
8.01888
11.918
6.39291
8.21807
4.64238
1.75469
0.417637
0.172574
0.152183
0.152799
0.148194
0.126847
0.0963735
0.0783654
0.299429
0.902414
0.707646
0.586748
0.529419
0.486087
14.5911
12.6514
8.05548
9.31864
4.48878
1.33462
0.374601
0.282451
0.225292
0.14397
0.133792
0.129577
0.113236
0.0985478
0.40019
1.12891
0.794822
0.627385
0.534653
0.471443
3.80066
13.3702
10.5953
10.3476
5.47468
1.76249
0.381451
0.259086
0.204481
0.0944258
0.110833
0.131426
0.155488
0.168917
0.587159
1.21309
0.793364
0.614945
0.530766
0.480327
4.15036
12.285
7.93916
8.66522
3.91834
5.00181
1.01145
0.729269
0.452162
0.407896
0.404808
0.4732
0.581577
0.598819
1.85782
1.24259
0.850356
0.651182
0.560227
0.501423
16.212
8.55095
8.34349
7.95716
4.28269
5.74733
3.30798
4.69523
2.77873
2.6863
2.23807
2.26585
2.1586
2.08402
1.69857
1.29447
0.960592
0.753762
0.642773
0.54385
10.6802
13.3196
11.2471
10.4979
6.40263
6.44587
3.85225
3.96187
3.14968
3.04966
2.58936
2.43376
2.17656
1.97941
1.63356
1.30261
1.00392
0.814391
0.722227
0.602525
12.9334
17.8755
12.9809
8.61895
4.62633
5.61824
3.45434
4.78812
3.44766
3.84408
2.95445
2.75166
2.13806
1.80085
1.41148
1.17567
0.966067
0.82293
0.757436
0.638265
15.5452
20.0299
14.6677
9.6206
5.56306
4.90888
2.96601
4.15205
3.24091
3.7518
2.84985
2.5794
1.85399
1.52395
1.19638
1.06367
0.946156
0.865408
0.813632
0.723901
2.82366
12.0109
9.41599
7.26338
4.851
5.08583
3.36632
4.32292
2.93565
3.66497
2.59784
2.47593
1.7386
1.47299
1.17543
1.0759
0.984032
0.941892
0.901456
0.835134
1.47738
2.89671
3.16716
5.0321
4.19817
4.3338
3.10897
3.95985
2.79761
3.49099
2.28685
2.15665
1.53175
1.33205
1.08191
1.03073
0.984575
0.973644
0.960574
0.92875
0.0118704
0.730559
2.30165
4.3547
2.88017
3.86746
1.69492
2.83843
1.39585
1.61124
1.06188
1.00127
0.766631
0.691116
0.583013
0.533091
0.476974
0.441658
0.413649
0.360964
14.5435
29.1708
13.1244
12.9913
9.84838
10.7348
8.67223
8.24208
6.66512
6.10409
5.31296
4.68374
3.74004
3.02999
2.48011
2.11568
1.86136
1.74341
1.72583
1.67894
48.8535
32.2642
27.7951
32.307
33.3499
33.0239
29.0276
25.2918
21.0052
18.4253
16.1832
14.9738
14.2367
13.7039
12.6203
11.7556
11.8689
12.6576
13.3442
14.0799
25.6079
34.4886
39.6425
35.279
35.0043
36.6667
36.1325
34.4417
30.4155
26.3149
19.7066
14.0461
12.2675
11.8114
11.7105
12.2853
13.0958
13.9149
14.2336
14.6836
10.2922
31.4786
35.5086
31.1653
30.0609
32.1091
33.014
32.2245
29.0919
24.3342
17.5916
13.9015
13.4687
13.7096
14.138
14.3667
14.4373
14.7415
14.7284
14.5894
5.37009
34.1653
42.1929
35.9798
27.2632
27.3607
25.3036
25.3082
22.752
20.6635
18.4685
17.9008
17.9266
17.8196
16.1802
13.7506
12.9416
13.7982
14.3316
14.4132
2.14023
36.5095
50.6337
39.9371
29.5137
26.8619
23.9231
24.5879
23.3479
22.6561
21.2821
20.2469
18.9521
16.796
14.8424
14.0133
14.2026
14.3907
14.377
14.0105
9.22405
23.2492
38.4927
36.4739
33.4089
27.9737
23.1771
21.7419
21.9835
22.1664
21.1511
19.8083
17.8325
15.6322
13.9108
13.2805
13.1096
13.1368
13.4708
13.3943
17.6808
19.8328
21.8215
30.8906
36.4531
35.8043
24.5416
18.7061
16.1375
16.3255
16.4728
15.3222
13.7292
11.6108
12.2142
12.0303
11.9602
11.7619
12.0793
12.5537
20.5165
35.1163
40.3792
42.4713
36.9484
27.6055
21.5247
16.2211
16.2118
14.6705
14.4118
13.2353
11.4103
9.43554
10.0446
12.132
11.6402
11.4007
11.5185
11.9646
26.1708
47.6271
48.4358
40.3007
31.9157
25.4715
18.2045
12.5341
14.515
14.9561
14.565
13.1325
11.2825
9.72085
9.73913
9.56368
8.78098
9.26911
9.95102
10.6531
48.1521
41.7672
43.4966
38.8996
27.0559
18.8495
15.1099
20.6973
17.2906
12.3407
12.0005
11.0718
9.79013
9.12728
11.0598
10.6044
9.29245
9.60242
9.41481
9.79272
7.95905
45.306
43.5501
32.2492
21.8452
17.3647
17.3685
18.744
14.662
9.30235
11.5545
14.1021
15.3333
15.2131
14.3137
10.0896
8.72465
8.8344
9.11351
9.82468
20.572
32.7562
34.6136
30.1816
20.7247
23.1725
17.9307
16.293
14.4908
14.3514
16.1536
17.8497
18.4259
17.0872
14.8218
10.1025
8.72238
9.06224
9.51461
10.0095
42.5389
46.199
38.2622
32.9835
22.8424
28.0229
25.6525
25.5515
23.1717
22.3861
21.782
22.2623
21.9855
20.018
16.3055
12.0849
9.63723
9.33864
9.64717
9.99216
42.5562
42.0084
42.1405
41.7479
31.8945
29.6932
25.9349
26.7426
26.0632
25.8796
24.2896
23.3643
21.6275
19.5856
16.1513
12.8143
10.8453
10.5356
10.7729
10.5503
36.9054
26.557
24.9661
25.3601
17.3675
19.788
20.5782
24.8429
26.0996
26.0845
24.0224
22.2262
19.3354
16.8939
14.6093
13.1127
12.2848
12.1426
11.9824
11.2082
41.6905
38.443
21.6471
21.6223
17.1008
18.6341
18.507
22.4659
24.0364
23.6183
21.3022
19.3203
16.3946
14.6189
13.4865
13.3445
13.3812
13.146
12.9479
12.2608
10.2815
47.71
29.1088
23.1582
20.2801
23.6678
21.3988
22.6248
21.3014
21.4828
19.5486
17.9722
15.4812
14.4802
14.0926
14.5177
14.7484
14.6829
14.5396
13.9956
14.8253
14.9394
15.8672
23.2494
22.4312
21.7327
19.7531
20.549
19.5252
19.1918
17.4827
16.2476
14.414
13.8213
13.6722
14.3321
14.6687
14.8191
14.8752
14.6087
0.505078
6.06763
14.4714
12.1357
10.5735
10.3339
10.4544
10.9946
8.5559
9.9193
6.29603
5.99959
4.46185
4.12019
3.50034
3.31907
3.05442
3.0138
2.87278
2.667
13.7693
33.2793
12.6578
16.2611
12.2057
13.8457
10.7705
9.9566
7.91286
7.00153
5.7469
4.91913
3.9817
3.3702
2.94059
2.70459
2.57843
2.45501
2.41881
2.3029
65.3609
44.7685
45.3529
44.8364
44.2354
43.7005
37.6827
31.7387
26.0311
23.0267
20.7919
19.9853
19.5884
19.5891
19.4333
19.3201
19.611
19.8802
20.1304
20.5677
35.2058
51.9263
55.8895
50.2042
49.7504
52.0145
49.6055
45.5379
38.5548
32.4242
26.4543
22.8792
21.5316
21.5624
22.0009
22.3527
22.7228
22.9614
23.0912
23.1108
13.2507
48.0601
57.2169
50.1657
47.9131
49.171
48.1525
44.7734
38.2137
32.3843
27.1262
24.6757
24.2177
24.2583
24.136
23.9147
23.7899
23.6233
23.4171
22.846
38.8578
50.1609
62.8771
57.5312
49.8107
47.5379
43.5562
40.9147
36.2638
33.1271
30.4504
29.0584
27.9527
26.4996
24.6936
23.246
22.9982
23.0772
23.0637
22.273
29.3096
53.4987
66.0433
61.5534
52.7194
47.0939
42.8584
40.7072
37.5685
34.9749
32.4768
30.4077
28.2246
25.9297
24.3278
23.4763
23.2059
22.6831
22.3905
21.3714
11.4898
38.6203
46.5173
55.9726
54.2974
47.8485
41.9407
38.987
36.6916
34.649
31.9341
29.2221
26.4199
24.2166
22.8124
22.0917
21.7458
21.3358
21.2634
20.4754
40.9391
27.1012
36.3231
48.2971
54.8241
52.4705
43.5767
35.6524
32.6827
30.719
28.6638
25.8711
23.252
20.7624
20.5184
19.9635
19.6145
19.371
19.3826
19.2598
25.8692
40.2019
50.2835
57.1985
53.2752
46.9738
40.8435
32.8437
30.4983
27.9912
25.7527
22.8395
20.1111
18.0649
17.8868
17.7709
17.5851
17.6399
17.6263
18.0419
35.4369
54.2656
60.2915
58.068
51.3427
43.9725
34.843
27.5021
28.4838
26.2577
23.9525
21.2103
18.5549
16.1878
13.7044
13.4972
14.0445
14.9632
15.617
16.651
65.0554
64.1401
63.0811
55.0479
45.5852
41.9735
37.9162
34.5724
28.4064
23.8402
7.80049
6.34126
8.60007
9.95222
13.8408
14.5586
14.2737
14.7511
15.0837
15.8536
18.6283
53.6913
62.3153
55.8098
40.6385
38.642
35.1226
31.7723
24.3151
19.7804
21.6858
21.4849
21.3995
20.5759
18.4794
14.8819
14.2252
14.3447
14.6935
15.3073
7.75772
38.2691
54.5084
49.5826
40.5104
41.7357
35.5641
31.4984
28.6034
27.6938
27.9798
27.6177
26.2525
23.5989
19.0252
15.9842
15.1462
15.1028
15.1053
15.3004
81.3045
63.3288
60.6806
51.2601
45.3278
45.6574
42.0109
40.846
37.7698
36.3104
34.2383
32.8092
29.9103
26.1569
21.7985
18.4667
16.7614
16.2168
15.8457
15.4435
86.7239
65.8848
57.2794
54.5473
47.0639
45.5468
42.9501
42.8697
40.9421
38.9935
35.8691
33.184
29.7527
26.2312
22.317
19.4507
17.9352
17.2531
16.7116
15.6944
59.2121
50.9549
47.1982
41.8418
35.674
38.985
39.9588
42.1106
40.646
38.2605
34.6124
31.16
27.4772
24.6496
22.1006
20.3701
19.2633
18.4034
17.7177
16.3921
58.5152
44.3868
35.8195
38.4092
34.6764
37.6529
38.0064
39.3397
37.7904
34.546
30.7916
27.6106
24.6712
23.0301
21.8529
21.0813
20.4084
19.6622
19.1981
18.0178
32.3121
57.6418
43.9047
39.2058
38.1976
38.9657
36.7577
35.9378
33.6475
31.4091
28.3629
26.1064
24.0493
23.3019
22.8701
22.5695
22.3292
21.7508
21.3222
20.3173
38.125
36.5942
37.6143
36.2429
34.9097
32.6641
32.1444
30.6206
29.3789
27.3633
25.219
23.6846
22.4086
21.7835
21.3108
21.2
21.0622
20.8765
20.6945
20.072
3.17579
9.50733
20.0863
14.2884
16.2986
14.0371
13.0135
12.1782
11.5306
11.0493
8.58601
8.63755
6.57016
6.28847
5.33872
4.98914
4.49627
4.27326
3.90005
3.41948
16.3213
25.3092
13.9508
17.5999
13.9375
14.9512
10.987
9.29332
7.36117
6.17202
4.99274
4.28407
3.68091
3.39189
3.15638
3.01503
2.89756
2.76579
2.71831
2.56108
72.857
59.7335
57.7526
52.2365
49.5709
46.6637
38.0331
30.5029
24.9733
22.4321
21.8411
21.4368
21.6188
21.6493
21.5435
21.3417
21.2339
21.3247
21.5958
22.13
34.6502
71.7893
69.9085
61.6466
60.718
59.8988
54.1399
46.2863
38.687
33.3011
29.792
27.8756
26.8682
25.9527
26.2523
26.0188
25.7525
25.4446
25.3043
25.0977
27.974
69.5468
69.371
62.7889
60.7565
59.2368
54.4054
47.5525
40.7345
35.5961
32.2644
30.4603
29.5302
28.6193
27.9335
27.1973
26.667
25.9756
25.5375
24.7006
73.0563
72.4962
72.418
67.9143
63.1681
58.6705
53.041
47.4882
42.2823
38.2768
35.4503
33.1337
31.3591
29.5397
28.2067
27.1669
26.5679
25.6816
25.1137
23.872
60.7276
73.6194
75.4459
71.0425
65.3586
58.4433
53.0149
47.946
43.5044
39.3613
36.2795
33.4607
31.028
28.9812
27.586
26.4482
25.5877
24.5033
23.8952
22.6637
18.1055
51.6128
63.2441
71.7209
66.7668
59.212
52.3897
47.3342
42.6624
38.7573
34.8904
31.5855
28.9686
27.1336
25.9691
25.0185
24.3096
23.3734
22.8415
21.7697
23.6119
41.9995
55.2186
65.1972
65.6166
61.0948
53.5174
46.0826
41.2973
36.5368
32.6491
29.0548
26.4098
24.5583
22.9126
22.7047
22.2553
21.6744
21.2963
20.8047
10.8891
35.4562
59.2477
68.674
63.3155
57.7166
49.1369
43.4749
38.7284
33.452
29.0704
25.3785
22.9151
21.4373
20.0985
19.3394
19.5564
19.6986
19.676
19.9115
58.7591
64.7675
68.3548
68.4226
61.9853
54.1526
46.3867
39.595
35.2365
30.1212
26.0713
22.6631
19.6476
17.517
15.7653
16.469
17.2509
17.9722
18.3417
19.0422
67.9758
79.5461
74.9708
66.4188
59.3112
53.8286
48.0334
40.474
33.3537
28.5643
13.3605
11.5811
12.288
13.0276
15.1896
16.1687
16.4992
17.0939
17.4731
18.0303
31.9231
75.0704
77.1023
65.5714
54.7628
50.9472
45.8228
38.1303
31.2333
28.4259
26.1352
23.2524
21.2886
19.8768
17.7284
16.1402
16.0519
16.2464
16.4296
16.8054
18.9688
59.6947
71.1424
63.8709
55.9735
52.6437
46.3331
40.5833
36.9669
34.3653
32.2275
29.7247
26.7034
23.1825
19.1028
17.8966
17.2862
16.7793
16.4149
16.4174
67.6147
77.6648
70.3591
63.1639
58.6075
55.0791
51.6651
48.6309
45.1273
42.0362
38.4526
34.8358
30.371
26.2216
22.6878
20.5818
19.2536
18.1095
17.1082
16.4278
91.3743
72.2037
69.1121
64.7642
58.7141
55.723
53.7402
51.3582
48.0143
43.9033
39.4409
35.1507
30.8268
26.9
23.6354
21.5185
20.0849
18.6752
17.4883
16.3346
79.0222
63.2045
63.257
55.356
53.2786
52.5957
52.3183
50.131
46.9879
41.635
37.4102
32.7766
29.2008
26.0602
23.7116
21.8893
20.535
19.1529
18.2031
16.9092
55.4901
58.4258
45.9139
53.5273
51.3246
51.1204
50.1195
46.8889
43.0236
37.267
33.2988
29.5629
27.1215
25.201
23.8283
22.4881
21.5872
20.5091
19.9254
18.6745
39.1157
57.1777
57.0975
52.0433
51.5048
48.2107
46.1173
41.5365
38.3764
33.8113
30.8796
28.4075
26.9616
25.802
24.9951
24.1326
23.5456
22.7438
22.2438
21.1655
22.4857
45.6209
42.4745
42.6421
42.0777
38.3434
37.9678
33.7593
31.9188
28.411
26.8273
25.2861
24.5028
23.6437
22.9677
22.4177
22.067
21.7808
21.567
20.7196
6.21805
14.4452
14.5883
12.7765
15.9472
13.9677
13.4748
12.2574
11.8811
11.0641
9.20207
9.23864
7.32805
7.08682
6.03695
5.55153
4.79909
4.21357
3.74212
3.18477
10.8208
13.7485
6.87173
7.59295
5.41018
5.78177
3.75642
3.25453
2.24492
1.8843
1.506
1.42304
1.3062
1.2712
1.22047
1.17943
1.14142
1.09726
1.08542
1.03028
34.3362
66.9832
35.2228
40.4761
22.2731
23.2355
13.0712
10.9441
8.45425
8.83442
8.50631
9.22762
9.22851
9.62865
9.83301
10.0973
10.3226
10.479
10.7656
10.8281
71.6627
58.2174
44.2158
46.6026
32.6767
33.8208
21.7636
18.7501
14.1094
13.6641
12.5129
12.6689
12.0682
12.0601
11.9656
12.0908
12.0581
12.0249
12.0842
11.8692
51.5817
80.1042
51.3791
52.341
30.8663
34.8898
22.0789
20.9376
15.7791
15.5297
13.905
13.7721
12.94
12.6734
12.3767
12.2982
12.1036
11.8734
11.7748
11.414
51.2575
71.9459
54.371
51.4706
28.1839
31.9432
21.5759
21.8961
17.1953
16.9934
15.0333
14.568
13.4885
13.1016
12.6626
12.44
12.0855
11.6645
11.4581
10.966
43.2101
83.8737
66.0455
76.2172
31.7662
39.0848
22.5879
23.5357
18.3597
17.622
15.4277
14.5638
13.4166
12.8202
12.2701
11.885
11.5163
11.1469
10.9968
10.5143
60.4229
67.0647
45.2361
54.7963
28.1303
32.4427
23.2874
22.1713
18.0423
17.0578
14.6541
13.9451
12.9668
12.6116
12.0807
11.7328
11.3908
11.0155
10.8779
10.4226
21.5486
60.3586
50.0224
63.7468
32.8236
30.9458
55.0635
47.6851
40.6128
34.8081
30.1574
26.9791
24.8627
23.588
11.8155
11.3408
11.0032
10.7869
10.745
10.421
13.3093
27.9443
35.6022
58.5093
29.2152
59.8321
52.9853
44.1385
36.8681
30.1392
25.5596
22.6956
21.2977
20.5778
19.8773
11.0535
10.8054
10.6419
10.7122
10.5326
52.0944
71.0045
46.9763
56.0205
30.886
56.302
48.3146
39.4964
32.0285
25.9712
21.5962
18.6181
17.486
17.2692
17.3278
10.879
10.6576
10.5385
10.6084
10.4647
40.795
80.2593
50.1489
53.3094
32.3761
56.4753
47.5968
37.605
30.6986
25.2493
19.3398
15.2693
14.1088
15.1556
16.4671
10.8249
10.4313
10.2089
10.186
10.0958
85.3093
74.1362
67.6798
41.6229
36.6704
53.0498
46.5657
36.5427
31.0224
27.2356
23.2465
19.7382
18.2106
17.3931
16.6574
10.6055
9.98572
9.72259
9.6321
9.65725
24.2872
68.9917
54.3186
60.7275
33.9603
55.2101
47.9137
42.4154
37.8787
34.1572
30.5644
26.7165
22.8179
19.564
11.4352
10.5257
9.98946
9.62344
9.53501
9.56087
46.195
58.2327
49.5848
38.8373
38.4747
59.1321
30.9863
51.0171
29.9882
36.2575
22.7018
21.3673
15.8129
14.4589
12.234
11.5602
10.4806
9.91449
9.56381
9.47649
52.3347
71.2168
76.0668
52.0767
52.7674
59.57
40.7722
53.3785
33.4683
33.9467
23.6861
21.6256
16.5347
15.1837
12.9064
12.1243
10.8936
10.2077
9.70074
9.52311
97.6049
68.0299
67.7917
42.3875
47.1753
59.2233
39.8932
51.6638
32.6253
39.8137
23.1967
24.7579
16.7378
16.6541
13.3911
12.9685
11.496
10.8921
10.252
9.93598
75.7043
27.0957
63.0431
37.7609
57.7961
56.4054
43.6293
47.529
30.5941
35.1528
21.3496
24.9786
16.8668
17.8719
14.4171
14.296
12.749
12.184
11.4806
11.0405
48.4194
49.3194
61.7859
36.5842
55.2765
50.829
39.2999
41.717
28.4083
31.9181
21.5977
26.7422
18.2842
20.292
16.1434
16.341
14.6693
14.1403
13.3965
12.8041
27.7152
26.0258
41.1863
28.6672
41.9637
35.9593
34.1933
32.3492
23.6279
26.2153
18.7097
23.6074
16.5606
17.733
14.916
14.8189
13.6523
13.2586
12.9973
12.5817
3.50095
10.2226
12.6591
6.98375
8.63149
10.2908
6.75875
11.7669
4.9689
8.02076
3.5872
3.82926
2.73707
2.57414
2.11279
1.91851
1.67792
1.46119
1.35985
1.20352
24.5779
21.9367
7.4263
30.0688
27.2148
27.4292
7.20499
21.8955
6.56764
7.04303
26.2913
23.7245
6.55834
8.42609
8.94009
20.2398
19.8079
25.5417
9.09282
27.0355
24.1412
6.34931
19.3654
17.998
8.05958
7.75092
22.8978
20.4231
0.277439
0.381508
0.197989
12.9876
12.1061
11.3111
9.36976
0.194021
0.162823
0.150317
11.4357
12.0511
8.21275
9.9346
0.199009
0.156936
0.168657
12.122
11.0788
11.385
12.0936
0.160136
0.16709
0.151651
10.5994
10.3668
11.858
11.508
0.145982
0.148281
0.130903
10.4088
10.0143
11.3912
10.569
0.123539
0.123972
0.100888
9.71845
8.81419
10.1817
8.80244
0.0932939
0.0936927
0.0786919
8.4061
7.27351
8.43179
7.46569
0.0551396
0.0735496
0.0619783
6.83979
6.38304
7.15174
7.58483
0.213147
0.411533
0.28082
11.9533
10.2339
13.8496
15.4598
0.150049
0.269981
0.202731
8.96808
9.77258
15.1085
12.7189
0.152663
0.190211
0.157246
10.8773
11.5427
12.3837
10.5299
0.15076
0.145305
0.13555
11.469
11.3693
9.88965
10.1836
0.13405
0.136132
0.134763
11.3102
10.6018
10.2997
9.9229
0.102553
0.129775
0.119409
10.2078
8.9612
9.663
8.89632
0.0831015
0.11401
0.0934138
8.66355
7.62867
8.49194
7.48781
0.0639555
0.0925198
0.0833231
7.35188
7.7225
7.41371
7.74312
0.279577
0.348057
0.255191
9.48978
15.7964
9.27102
14.5521
0.241125
0.260136
0.259994
16.1544
14.3216
15.3146
14.6199
0.16416
0.242598
0.138362
13.7198
10.7514
13.5327
9.09502
0.132351
0.114118
0.118022
9.59617
9.28652
8.06756
8.01552
0.132478
0.121289
0.128156
9.62
9.56587
8.86582
10.2643
0.119605
0.129833
0.134477
9.35542
8.61398
10.4404
10.97
0.0986746
0.138324
0.153276
8.27687
7.735
11.1454
11.6412
0.0834231
0.155068
0.137187
7.78832
8.39409
11.5999
11.5487
0.261025
0.357609
0.184077
10.9325
14.1665
8.83599
11.5783
0.238323
0.170261
0.122428
14.6136
13.1795
11.5442
9.74643
0.106479
0.105863
0.0770419
11.7301
7.5644
9.10322
7.94904
0.102961
0.076082
0.0913756
6.82989
7.67263
8.07551
9.59996
0.127358
0.0956153
0.112977
8.74658
10.72
10.11
12.0315
0.148236
0.117549
0.164275
11.1124
12.111
12.6187
14.2827
0.169486
0.17316
0.189245
12.3669
12.615
14.4773
13.8457
0.139176
0.187937
0.155899
12.3988
12.018
13.4352
12.3185
17.2833
17.7579
13.1224
36.3066
30.5025
30.5811
24.6688
16.2018
11.7996
13.5901
28.8941
27.5626
23.4365
25.359
14.9911
15.0789
15.6669
27.0088
25.5113
26.012
25.1083
14.4536
15.4003
14.9135
24.9807
23.9745
24.5807
23.1448
13.637
14.717
13.622
23.493
21.6918
22.6069
20.7218
11.9266
13.1417
11.5282
20.9879
19.0259
20.0496
18.0656
9.90897
11.0808
9.90907
18.3554
16.6663
17.4825
15.9743
8.45961
9.58523
9.46294
16.2158
15.6958
15.5999
14.8055
13.9917
20.6699
20.1736
30.8258
24.9835
34.6147
31.6766
13.3138
19.4411
16.4501
23.5895
24.855
30.1844
26.5624
15.0923
15.9868
13.5702
25.3592
24.408
25.6116
21.8358
14.7018
12.8752
12.9588
23.9438
22.7018
21.406
13.4419
13.602
12.8788
12.0168
22.2117
20.4167
12.0778
10.3106
11.6801
11.676
10.7193
19.7763
17.8851
10.5769
11.4781
10.0354
10.2697
9.05504
17.2745
15.5293
11.3549
10.1918
9.54141
8.83864
8.71752
15.0476
14.1003
9.90183
10.0526
20.7723
14.5679
19.2796
33.6212
33.0105
31.737
31.394
18.1205
19.7167
18.0757
31.7732
27.5309
30.6891
26.0094
13.6296
16.6388
11.7865
26.0962
21.0574
23.9443
18.7327
11.8234
10.6504
10.5239
20.5246
13.1685
17.6982
17.9621
11.41
11.4935
12.8726
11.7722
9.14979
18.0455
17.3468
10.1372
13.031
13.5637
8.90415
9.21523
17.2425
17.6694
9.12025
13.7396
14.202
9.34831
9.63193
17.8865
18.2988
9.39474
14.1674
13.4849
9.85677
11.109
18.2827
17.7168
18.6393
14.6841
15.3012
30.9897
30.0272
28.2859
27.0273
16.3516
15.1099
12.8257
29.0753
24.0836
26.158
22.9584
10.1395
12.0535
10.7324
22.0442
17.5424
22.0054
20.6436
10.3345
10.8561
12.6463
16.9141
18.9066
20.8093
22.4038
13.6814
13.2894
15.3313
19.5626
20.1554
22.8049
24.001
15.1005
15.9703
17.4839
20.2574
20.5374
24.1817
24.1805
15.4837
17.6218
16.7998
20.5589
20.2104
23.9432
22.5776
14.0067
16.3779
14.4805
19.9152
18.418
21.9485
19.6273
34.4537
34.8361
28.6165
44.7204
43.3301
44.6537
38.9923
31.1208
27.5376
28.9383
41.6795
38.688
37.9978
36.2435
28.5492
29.1561
27.5786
37.5641
34.1525
35.2746
31.7512
26.3719
26.9148
25.071
33.0062
30.0602
30.6523
27.7368
23.614
24.419
22.313
29.0581
26.3161
26.8273
24.2838
20.7853
21.6017
19.5601
25.4515
23.4645
23.5098
21.3832
18.48
18.9531
17.3831
22.8457
21.5301
20.7525
19.2055
17.4528
16.9812
15.9195
21.2155
20.6796
18.7984
17.6318
28.727
38.6384
34.7044
44.133
38.6525
46.2339
41.0954
28.3857
33.1342
29.3774
37.5902
35.5761
39.3769
34.8078
26.8551
28.2475
24.2911
34.5558
31.0831
33.2905
29.4164
26.7179
25.7104
25.7029
28.0979
25.0927
27.4088
27.5972
22.7938
23.2869
22.7209
25.2325
21.9707
24.4686
23.6537
19.2088
8.28128
10.8569
22.953
20.7079
10.0111
12.5147
16.7111
10.992
10.2159
19.9877
18.1223
12.5726
12.1947
15.0301
10.0334
10.4098
17.6185
16.5745
12.2046
12.7142
36.0453
35.9317
34.5066
46.4674
41.7805
44.8487
40.3538
29.976
33.4171
28.0524
39.8799
34.5661
38.3916
32.4169
23.2598
25.9749
21.0309
32.8644
28.7125
30.6874
27.2864
11.9116
14.6913
21.567
22.1532
17.1742
3.43144
23.126
5.37766
7.00724
9.7138
1.5001
8.66693
1.38483
5.89236
8.12
17.8687
18.3191
8.30259
10.5081
20.0547
19.4909
9.57518
18.5226
18.8904
10.9486
11.8572
19.3558
19.1037
11.4408
18.8707
18.2994
12.2064
13.315
19.0005
18.4115
33.0384
33.0058
30.3735
43.976
39.2096
39.8504
38.3941
26.2935
29.3727
26.0399
37.279
31.6117
37.0242
33.5716
20.1867
25.0833
23.7152
30.0557
27.3141
32.671
30.9211
21.4307
23.864
25.0363
27.1873
26.3933
30.7428
30.0916
21.5244
25.2853
25.8445
25.7228
23.8071
29.8075
28.4899
21.4629
25.8751
25.4256
23.3497
22.181
28.0818
26.5261
20.8872
25.0868
23.5374
21.8276
20.8514
25.9432
23.9103
18.9911
22.8755
20.4088
20.496
19.0402
23.179
20.6986
45.1307
47.0307
41.254
49.4697
46.6938
49.7643
43.094
40.0172
40.0949
37.2265
44.8413
40.0115
41.3075
36.009
34.7303
35.9625
31.9109
38.1173
32.9784
34.191
29.3169
30.1588
30.6936
27.5306
31.4414
27.8303
27.9533
24.5197
26.2092
26.5757
23.9779
26.6688
24.0548
23.5503
21.1216
23.4735
23.1978
21.0845
23.4024
22.0696
20.463
19.0563
21.7171
20.4814
19.0663
21.7019
20.9627
18.7887
18.2591
20.9506
18.7042
17.7078
20.8009
20.3798
18.1301
17.7343
40.7998
47.7221
42.0983
48.87
42.3488
48.4505
41.3361
36.5341
40.2892
35.3939
40.5394
35.1936
39.2707
33.7527
31.2588
33.814
29.9221
33.3902
28.7472
32.1549
27.9521
27.0405
28.5228
14.3873
27.419
24.0304
26.7069
21.5872
23.4423
13.0681
12.4198
23.0457
20.5159
20.0835
16.9711
20.3721
12.9737
13.6788
19.8045
18.1239
16.2709
14.5861
17.9464
13.4836
12.9659
17.8183
17.3092
14.3528
14.5137
16.6844
12.9794
13.4191
17.1979
17.0048
14.6751
15.1919
42.473
46.642
41.0783
48.5291
41.0976
47.7081
39.9463
35.0291
38.9665
33.1206
38.9407
33.4088
37.7155
32.611
29.4209
31.5452
28.4956
31.8553
27.8771
31.3544
28.4056
14.9076
28.151
25.1287
26.7341
21.3689
27.5575
24.3258
11.4652
23.8364
21.061
19.7821
16.4184
23.123
20.0373
12.1734
20.5313
19.4043
15.6695
14.1065
19.2244
17.6486
12.7544
19.1323
18.6818
13.9865
14.4803
17.4439
17.2203
13.8829
18.555
17.9923
14.7175
15.3145
17.14
16.7022
40.1765
43.6847
39.9479
47.3849
39.6869
48.2367
41.3721
32.6386
38.5317
35.0922
37.5622
32.8198
39.933
36.4769
28.6883
34.156
32.1258
31.6502
28.9615
35.4106
32.5844
26.9661
31.805
30.6328
28.1862
25.4556
31.9321
29.6333
23.8429
30.1621
28.4306
24.4303
21.609
28.8227
26.2153
21.7151
27.9074
26.072
20.8248
19.1542
25.5072
23.1678
20.2306
25.4149
23.2547
18.8229
18.0644
22.4159
20.1956
18.5091
22.5108
20.1305
17.8062
16.8833
19.5387
17.659
46.0513
49.202
42.2446
13.4264
9.92258
10.4738
9.75414
38.8792
40.3149
34.6385
10.3317
7.65477
9.41045
8.14534
31.6205
32.7841
27.9059
8.164
6.70166
7.85076
6.79365
26.6314
26.5377
23.1306
7.01544
5.91724
6.50303
5.81287
23.228
22.2022
19.9991
6.34639
5.79756
5.66117
5.41917
21.5883
19.4811
18.6011
6.16689
5.74347
5.443
6.10165
20.7079
18.4658
18.1857
6.12989
5.8368
6.13393
6.20992
20.2346
18.1066
17.8624
6.15288
5.61863
6.22032
6.2235
41.4335
47.603
40.0817
11.9918
9.77911
11.5224
9.79672
33.8485
38.0072
32.5269
9.41001
8.2087
9.50044
8.40455
27.3275
30.9283
26.5365
7.82777
6.75346
8.00602
6.8591
22.5515
25.1978
20.8974
6.4374
5.6765
6.50385
5.47763
19.2324
19.5598
16.4653
5.48799
5.148
5.21091
4.60443
17.5985
15.6875
14.3711
5.13861
5.80682
4.51048
5.16418
17.3168
14.3712
14.9403
6.10341
6.19046
5.76291
6.25215
17.2088
15.1373
15.6675
6.2076
5.99405
6.28383
6.35312
39.733
46.8222
38.6578
12.824
9.85013
11.6362
10.0209
32.2332
36.5225
31.7883
9.56449
8.51724
9.90473
9.20363
26.5203
30.5816
27.4462
8.13388
6.98973
8.92406
7.90185
20.741
26.4488
23.1301
6.60993
5.57765
7.56411
6.55299
16.0775
21.9794
18.9738
5.31258
4.65735
6.28075
5.60037
14.0432
18.1931
17.0797
4.54976
5.20938
5.5204
6.11671
14.9108
17.0149
16.9771
5.81909
6.30904
6.47963
6.53479
15.7339
16.9162
16.5858
6.34356
6.11012
6.54621
6.51283
38.5705
47.8446
40.8766
13.3466
10.4139
12.2075
12.8856
32.123
39.4896
36.0644
10.3165
9.56785
12.0991
11.7862
28.1522
34.9525
32.0866
9.37899
8.38103
10.0997
10.6411
24.2713
31.3654
28.8788
8.06393
7.06798
9.61781
9.25365
20.4611
27.9977
25.3072
6.79381
6.13717
8.18897
8.17229
18.4431
24.5712
22.1846
6.06292
6.6139
7.38722
7.19828
17.616
21.4384
19.3455
6.60567
6.59719
6.59348
6.87476
16.6704
18.7397
17.1684
6.60264
6.24133
6.40409
6.50493
25.624
25.1574
23.5007
25.9805
24.3043
26.7059
24.584
23.4957
24.9866
14.5864
21.147
23.4799
26.8269
4.59614
19.8861
19.3553
9.54091
1.97399
21.0425
18.1023
2.4557
27.8806
29.3888
29.1113
29.6465
28.5605
28.9334
28.5497
26.5971
26.8698
28.1593
25.9351
27.7213
25.3813
27.2187
24.4156
23.6388
29.1072
14.4639
28.2092
4.57116
26.6235
20.427
2.54308
20.7825
8.8978
18.4628
2.87413
23.0383
21.9499
22.5901
20.608
22.9464
21.2252
23.6942
21.3267
16.1938
18.1944
5.95176
1.75923
17.3035
17.0086
1.68864
15.4469
16.4231
6.06433
4.76181
16.5181
15.8854
3.2532
23.401
26.02
25.4011
24.8208
25.1799
24.3405
23.8267
22.502
23.5602
24.5389
22.1908
24.3487
21.8488
22.9162
16.4583
2.28428
19.4214
6.29316
17.3169
2.27576
18.3862
15.7394
4.90897
17.639
6.98561
16.2497
3.27321
17.6438
8.39365
10.7413
11.1962
1.81564
13.4794
2.4822
6.7996
20.7602
20.8831
20.0389
22.8494
19.602
23.2814
22.5947
18.0241
16.4232
20.0506
21.2595
17.9967
15.7828
22.0968
12.6989
22.9257
16.4728
26.9198
3.7447
24.905
20.6168
8.81006
2.57061
11.0861
12.3445
2.94753
7.26558
15.0255
22.5424
25.2168
27.1024
26.5621
25.4191
24.827
25.0778
19.2901
22.7185
19.4272
25.5137
16.81
23.9317
22.0859
5.1653
6.19483
7.38756
3.22728
7.80157
1.44323
5.30209
13.2419
15.0723
18.8239
20.4114
13.9611
14.3047
19.6339
12.6293
12.5265
18.3706
18.6443
13.1761
12.2497
19.0658
6.00889
2.25028
7.47219
10.9928
2.14444
6.42726
10.1113
5.9075
3.70415
7.08657
9.48531
2.33807
6.1794
9.50526
14.2104
21.618
17.7251
21.8497
15.2682
20.6867
16.51
13.5904
19.5076
15.1565
21.0387
13.2459
20.0068
15.6619
1.17308
1.46592
1.15857
8.2674
9.72641
8.76028
10.1681
0.716633
0.948124
0.775957
9.01651
7.24798
10.4158
9.63113
0.561445
0.646581
0.562056
6.4235
6.67501
8.85264
8.18165
0.5622
0.539485
0.528514
6.8922
7.00072
7.72412
8.01264
0.565752
0.526332
0.516879
6.98334
6.92124
8.3332
8.33512
0.506521
0.497221
0.454922
6.60315
6.2647
8.00232
7.58296
0.408999
0.419558
0.354995
5.88126
5.61882
7.10293
6.43921
0.305143
0.317444
0.192491
4.90779
5.33643
5.31608
5.76139
1.33171
1.56351
1.16059
9.50963
10.5153
9.30616
10.1752
3.1821
0.42207
0.435134
3.16193
3.33245
2.99282
0.340452
2.93407
0.196208
0.197782
2.86451
3.0964
2.73167
0.172208
4.44267
0.204643
0.174343
3.86475
3.77532
4.31179
0.181764
3.57004
0.176787
0.170089
2.91699
2.67544
3.83576
0.160248
3.1757
0.15358
0.139967
2.32201
2.30419
3.21409
0.136115
2.91466
0.136186
0.123276
2.18105
2.13861
2.99445
0.118568
2.40686
0.114197
0.101182
1.93097
1.88222
2.53366
0.0951935
1.96764
0.0791781
0.0764471
1.61605
1.54138
2.19279
0.0680505
0.184542
0.263793
0.23182
5.03536
6.49491
5.94206
8.14607
1.2125
1.63231
1.23266
9.21524
10.3922
9.16297
10.234
3.23455
0.322834
0.410274
2.72995
3.01245
2.82423
0.323941
2.9293
0.152397
0.200532
2.27203
2.46599
3.16028
0.171473
3.94624
0.152176
0.15539
3.8454
3.97271
3.87505
0.153311
3.60881
0.153149
0.144028
3.90372
3.90185
3.59184
0.143524
3.84878
0.145793
0.142549
3.91533
3.90805
3.79681
0.141453
3.33054
0.118851
0.128948
3.51633
3.2903
3.5125
0.122026
2.8825
0.0920186
0.104792
2.81428
2.73722
3.0218
0.100861
2.50123
0.0778923
0.0845465
2.24713
2.23396
2.37995
0.0840362
0.246885
0.323223
0.284417
6.24762
7.72672
6.23445
7.38979
0.953461
1.27619
0.937334
7.94448
7.84102
8.23794
8.12859
3.03224
0.306288
0.352043
2.77239
3.26008
2.66822
0.294649
5.86172
0.278459
0.279392
5.48019
5.68848
5.54459
0.28243
5.23609
0.212701
0.248427
5.19748
4.93841
5.68782
0.228645
2.77121
0.134054
0.137398
3.21465
3.0843
2.89841
0.127247
3.53723
0.134973
0.132054
3.47038
3.55741
3.44585
0.133061
3.51055
0.127426
0.129169
3.4722
3.46748
3.53171
0.1279
3.16746
0.106046
0.114627
3.08154
2.91439
3.20764
0.110448
3.49861
0.0991563
0.11224
2.99206
3.0608
3.36988
0.117413
0.332018
0.504848
0.411404
7.20844
7.91792
8.32381
8.69357
1.05125
1.73184
1.04245
7.6752
7.48981
6.9694
6.80135
2.70744
0.300084
0.365812
2.51186
2.92177
2.40428
0.280704
4.58327
0.255894
0.226593
5.04511
5.28303
4.34772
0.222024
2.71551
0.166211
0.161494
4.45352
3.45795
3.47137
0.130674
2.20989
0.0930454
0.0886045
1.85462
2.01995
2.04717
0.0880777
3.48999
0.117972
0.106247
3.20057
3.49595
3.22642
0.114661
4.07969
0.135991
0.131546
3.84275
3.9407
3.90847
0.13933
4.70173
0.162296
0.168725
4.30727