/*--------------------------------*- C++ -*----------------------------------*\
  =========                 |
  \\      /  F ield         | OpenFOAM: The Open Source CFD Toolbox
   \\    /   O peration     | Website:  https://openfoam.org
    \\  /    A nd           | Version:  10
     \\/     M anipulation  |
\*---------------------------------------------------------------------------*/
FoamFile
{
    format      ascii;
    class       volScalarField;
    location    "3.7";
    object      omega;
}
// * * * * * * * * * * * * * * * * * * * * * * * * * * * * * * * * * * * * * //

dimensions      [0 0 -1 0 0 0 0];

internalField   nonuniform List<scalar> 
12920
(
241.055
163.085
137.01
130.857
116.777
102.532
91.0503
83.2692
76.3975
70.899
66.9246
63.0315
57.1761
49.2491
41.9464
37.5199
35.4188
34.165
33.7672
33.4595
248.105
157.368
137.601
149.486
145.661
136.438
121.716
110.532
96.3954
84.6689
74.1559
66.4681
60.5213
56.439
52.8227
49.6342
47.6746
46.7952
46.6157
46.7608
219.421
186.392
166.297
158.318
150.759
147.62
141.368
138.325
132.022
122.051
104.585
86.5597
71.4156
60.1691
53.4308
50.3281
49.5998
49.1675
48.8931
48.0071
173.368
163.151
151.447
137.387
127.375
127.782
127.045
126.555
122.887
112.894
95.7896
79.3082
67.4109
59.7814
56.1961
54.4365
53.5213
51.9153
50.9604
48.5173
102.472
156.291
163.834
149.351
124.336
115.386
107.511
103.333
96.1563
88.2684
80.3344
74.4569
70.9917
69.0452
66.067
60.5748
55.9223
52.5364
51.1975
48.2568
156.192
193.074
203.55
167.732
131.409
116.082
104.31
98.7916
91.8192
86.4357
81.1169
77.2493
72.8444
67.134
60.3368
54.6216
51.7616
49.337
48.2763
45.8753
212.021
222.509
189.868
160.197
141.149
118.818
101.27
92.3274
86.5177
83.0287
79.3155
75.4909
69.6318
62.3396
56.1691
52.2122
50.3483
48.238
47.1602
44.7575
329.234
295.864
196.955
162.172
156.987
149.287
229.368
174.065
141.065
126.874
125.086
120.56
111.216
97.0533
51.2409
50.0741
49.5284
48.3469
46.3571
43.888
234.692
264.423
217.06
186.818
160.863
247.728
407.387
251.098
232.11
219.341
188.888
174.312
159.429
136.3
73.4437
50.7027
48.3504
46.1718
44.9048
42.9911
248.716
248.041
197.458
162.435
144.368
220.396
328.56
210.56
184.463
181.001
177.509
164.393
143.092
127.482
86.1204
53.0711
47.0325
42.8665
40.7206
39.3766
414.4
247.536
205.893
185.002
155.219
234.023
336.147
279.03
255.196
192.752
172.175
164.303
151.858
141.436
103.033
58.3438
48.4409
42.5917
39.2593
37.079
267.405
268.595
249.216
204.35
153.072
209.686
300.225
263.427
230.29
153.469
159.927
166.487
177.787
189.349
124.354
58.9746
46.4509
40.0631
37.0375
35.435
198.484
248.236
214.1
171.158
135.34
113.875
167.721
127.206
108.42
101.927
104.594
112.274
128.655
131.382
76.0258
60.5451
48.0298
40.7548
37.2561
35.2482
316.334
239.035
197.555
157.826
122.799
114.186
100.346
97.8164
90.8276
87.7404
85.9129
85.9123
85.3349
82.8571
74.9586
64.1555
53.6549
45.2933
40.6713
36.7921
335.603
259.717
232.075
209.671
152.051
127.875
111.289
106.497
101.273
97.9704
92.8563
88.8451
84.8234
79.794
72.1364
62.525
53.5191
46.1616
42.1732
37.7624
370.625
361.537
254.859
169.26
128.817
111.36
101.773
99.1117
97.6149
96.1069
91.4539
85.9018
78.3615
70.0554
61.9274
54.2098
48.9456
44.5286
42.5333
38.8727
439.264
412.404
292.558
190.24
125.506
97.0808
87.9305
88.0133
88.5637
87.8277
83.8393
77.0065
68.3257
59.985
53.539
48.9205
46.6601
44.612
43.6827
41.544
204.854
243.288
191.236
144.763
108.326
100.995
89.6595
85.7476
82.0707
81.0122
77.9142
72.6729
65.1593
58.4065
53.4294
50.0752
48.5721
47.6898
47.4127
46.4359
89.4373
103.198
107.833
106.745
93.1465
86.092
79.2415
78.6218
76.2674
74.9747
71.5645
66.7913
61.0225
56.0944
52.3721
50.6813
50.5785
50.8109
51.153
50.6728
13.4351
66.8123
103.296
106.35
99.5405
76.3882
61.6896
57.8923
56.4007
54.6925
52.0515
49.3235
46.8444
44.6629
43.0378
41.7
40.8234
39.97
39.5353
38.1006
122.374
104.357
74.4032
68.5503
63.3007
60.0206
55.2552
50.7294
45.8757
42.3592
39.6867
36.6814
32.2676
27.5978
24.1416
21.9066
20.6103
20.045
20.0093
20.1051
264.893
225.694
128.898
87.4704
71.7204
64.4448
57.3182
52.9127
47.8831
43.8421
39.6671
36.5265
34.204
33.1176
32.4421
30.8552
28.6396
26.7033
25.4806
24.7038
396.299
170.413
112.222
92.5069
81.3617
74.9521
68.3865
66.2508
63.8302
62.9501
62.0647
58.7549
48.9104
40.47
35.3237
31.7958
29.5823
27.8008
27.0233
25.5787
206.395
139.022
102.958
85.0723
73.0189
69.8567
65.6784
65.0913
63.5567
62.674
60.781
54.0911
44.6943
38.3975
34.7185
32.1176
30.4041
28.4635
27.5764
25.6767
119.949
126.526
107.616
84.9016
72.0817
65.7731
60.8302
57.9001
54.5682
51.3524
47.7351
43.9131
40.9542
39.1774
38.5613
37.5803
34.6551
30.1487
27.9371
25.2162
140.149
142.833
112.152
82.9672
70.2242
63.797
57.938
53.1974
48.5531
45.1918
42.3919
40.3584
38.3862
36.4216
33.4956
30.306
27.8068
25.6874
24.7326
23.146
279.554
218.558
122.898
86.3164
70.0806
63.1052
55.6997
50.9857
44.876
41.3132
39.0176
37.0745
35.1243
32.9575
31.2695
29.6766
28.411
26.5517
24.8692
22.8364
243.029
218.924
145.412
97.0354
78.3777
69.8144
73.9992
70.6211
61.1197
49.1187
42.067
39.0211
36.7433
34.4034
30.0125
29.5942
29.0262
27.7819
25.2794
22.8195
375.157
181.89
115.39
89.0601
75.7488
82.5795
85.8236
81.043
64.1292
53.6088
41.9761
37.1591
34.9043
32.6054
28.3258
25.6107
25.8532
25.4919
24.2338
22.7642
298.06
137.016
98.5305
80.8066
76.7043
81.1396
84.8099
81.1819
54.5112
42.2103
37.2748
34.3266
32.3754
30.1693
27.1776
29.3385
28.423
25.4745
23.5358
22.432
255.021
140.985
112.709
110.955
106.554
112.465
107.263
74.4414
61.8258
57.4641
41.376
34.7668
32.245
31.1861
31.5277
31.5507
28.1769
23.7093
22.163
21.0827
147.424
151.716
120.987
110.318
100.139
102.934
95.3575
74.2269
61.9478
62.357
43.9788
33.4923
31.4864
32.6159
34.359
33.3579
27.3875
22.7422
20.5508
19.0954
264.283
158.507
117.885
105.338
90.2872
69.5432
66.7672
54.7848
49.0939
43.8126
39.0266
37.6394
39.7531
41.9468
39.1089
36.5954
29.5144
23.6118
20.5605
18.7719
408.42
153.616
112.473
88.8679
73.1232
59.8777
54.5751
52.6864
50.6469
50.0573
48.7008
47.3373
45.4377
44.1527
43.0427
40.9155
35.2628
28.0261
23.5621
19.9946
364.02
181.723
153.658
116.541
79.1549
68.3336
60.6748
57.7155
54.7139
52.4113
49.7102
47.7357
45.8274
44.2576
42.4109
38.844
33.5341
27.225
23.1584
19.749
338.491
249.178
156.69
111.653
87.719
74.3218
63.7976
55.3388
50.7914
48.0634
45.7536
43.9114
42.1437
39.0789
34.9615
30.1438
26.7227
23.4831
21.9932
20.0757
243.601
253.512
203.147
127.488
86.3044
66.4534
57.3875
49.8535
45.1183
42.6841
40.4377
38.7169
36.5826
33.0629
29.2116
25.7167
23.7212
22.4945
22.099
21.4858
155.883
148.915
124.659
97.9493
68.7621
60.2589
53.2934
48.9034
44.3864
41.5248
39.013
37.3427
35.3221
32.2972
28.9281
25.9226
24.4134
23.8279
23.8027
23.7436
192.077
134.414
87.0701
66.1923
56.1842
50.0638
45.8111
41.7463
39.0776
37.2741
35.7996
34.4344
33.1159
30.9995
28.7456
26.9411
26.3507
26.3533
26.472
26.3285
30.8323
59.1389
63.0303
59.2209
47.936
41.0966
36.0087
34.9402
33.4472
31.9482
30.0534
28.221
26.5137
25.3859
24.6601
24.3367
24.16
24.1733
24.2908
23.937
141.713
105.138
74.981
69.5317
67.1932
64.0029
58.9933
53.3997
48.2272
43.8633
39.8523
35.4542
30.9301
27.114
24.9773
23.8015
23.4003
23.0795
23.0528
22.9937
297.811
191.595
106.451
78.2323
66.3394
58.7775
50.6252
46.209
41.0053
37.8907
34.4793
32.28
30.629
29.8122
29.2011
28.4297
27.7993
27.5429
27.5115
27.7025
223.447
164.683
110.792
90.3214
78.9149
69.5686
59.6139
54.6532
50.0894
47.7873
45.1479
41.391
36.8678
33.161
30.726
29.0596
28.0369
27.3169
26.9135
26.3907
147.617
138.609
99.1353
75.5552
65.7494
61.249
55.2071
52.781
49.2781
47.1241
43.8506
39.6936
35.5899
32.5236
30.4946
29.0089
27.9822
27.0177
26.4971
25.6154
172.883
162.967
116.352
74.5637
59.9681
54.4545
49.309
46.8475
43.3239
40.9997
38.3415
36.3202
34.6122
33.2791
32.2916
30.8829
29.1501
27.2986
26.2455
24.9926
238.817
173.761
123.312
72.6647
57.3192
51.1985
46.4403
43.6277
39.9871
37.8256
35.5763
33.8252
32.0551
30.2777
28.511
26.9262
25.7405
24.7367
24.1905
23.5078
162.509
197.227
143.133
75.2552
57.5565
50.2651
44.3319
40.8069
36.9986
34.6079
32.7315
31.1246
29.7322
28.4714
27.6892
26.8684
26.0511
25.051
24.2423
23.4235
219.979
186.609
119.055
86.1822
67.2278
56.4044
52.4888
48.1246
42.1632
36.3334
32.6903
30.6746
29.2401
28.3061
28.4405
28.1076
27.3916
26.1372
24.9075
23.9165
217.123
162.525
112.6
81.2176
62.866
59.1287
58.5503
54.3054
45.0807
37.7252
32.3328
29.9554
28.6149
27.5007
26.7801
27.5149
27.0744
26.2662
25.56
24.7453
246.963
132.701
97.8148
70.0875
60.6523
59.4246
60.1623
56.6594
41.7481
34.9352
31.6052
29.3854
27.8943
27.0417
28.4932
30.1654
28.5526
26.91
25.9335
24.9873
266.073
112.726
90.4545
80.0309
72.887
72.541
66.6175
52.8328
46.7283
41.0389
70.7449
59.8551
42.0988
36.3185
31.4542
29.3465
26.9379
24.9723
24.0619
23.1832
176.798
151.818
89.3641
72.7298
65.8463
67.6389
64.9117
52.9702
47.6559
46.2898
36.3774
32.2789
30.7992
30.5205
30.3973
27.8065
24.7045
22.7127
21.6496
20.9947
141.932
148.286
106.446
72.0687
61.552
51.663
49.8743
44.7564
41.3158
38.4446
36.1033
35.7655
35.4162
34.3967
31.4237
28.0119
24.5089
22.0804
20.7762
20.1074
440.448
164.435
95.2369
63.0282
55.4673
49.0709
46.105
45.1058
43.3392
42.8205
41.2355
39.7963
37.6275
35.7046
33.5302
30.4402
26.7086
23.4246
21.474
20.1744
428.399
191.39
138.036
93.6743
64.1298
55.159
49.464
47.558
44.9264
43.4661
41.2275
39.5563
37.4079
35.1326
32.4784
29.1832
25.9068
22.9462
21.1165
19.8313
270.146
154.535
109.766
81.7785
66.2669
56.847
49.5893
44.9983
42.162
40.2153
38.1096
36.2497
33.8141
30.7111
27.6244
25.0282
23.222
21.8145
21.0644
20.291
208.346
189.51
146.246
99.9855
68.1402
52.8275
45.1918
40.3852
37.2262
35.5967
33.6208
32.0169
29.6593
27.2694
25.0867
23.5698
22.7102
22.1513
21.9737
21.7237
156.715
136.595
102.981
78.6228
56.8116
48.2556
42.42
39.0999
35.857
34.4226
32.416
31.2599
29.3584
27.637
25.9679
24.9677
24.5303
24.5352
24.6691
24.7167
201.72
87.2962
63.5756
53.5616
48.847
41.1388
38.4158
35.2562
33.1525
32.1736
31.0048
30.4721
29.5285
28.9156
28.4477
28.5123
28.8576
29.5278
29.8555
29.6755
64.9225
70.3334
66.1597
60.6497
51.8514
44.631
41.359
38.6983
37.2089
35.0823
33.4183
31.8113
30.7946
30.0536
29.5677
29.0871
28.7204
28.442
28.1171
26.7445
123.765
98.2933
83.0846
74.2254
69.9613
64.7263
58.331
51.6496
46.2682
41.1147
36.2165
31.6338
28.3615
26.2252
25.0744
24.3848
24.0917
23.9128
23.8838
23.8923
202.836
141.195
101.405
75.8296
70.2229
59.3586
52.1176
47.0754
42.7035
40.3058
37.6359
36.4742
35.8749
35.9441
36.2733
36.7354
37.4285
38.0723
38.4773
38.944
199.03
159.502
118.5
92.427
83.8141
68.4652
58.3915
51.3181
46.624
43.6886
41.3776
39.4864
37.7037
36.32
35.6122
35.3587
35.357
35.4842
35.4955
35.6012
209.286
155.604
113.131
75.6056
68.2837
58.2206
53.1856
48.4564
45.1356
42.5706
40.467
38.5322
36.9513
35.5865
34.8669
34.3705
34.1482
34.0114
33.8888
33.8888
161.75
159.603
136.338
78.2147
61.6766
51.2335
47.9
43.9394
41.7331
39.7579
38.4249
37.2244
36.3909
35.5574
34.9858
34.3048
33.8419
33.4749
33.1728
33.0569
248.83
176.434
143.732
78.9375
59.4818
47.9984
45.6593
42.0688
39.8984
37.9991
36.4659
35.0269
33.9166
32.9594
32.3804
31.9224
31.7291
31.6389
31.6102
31.78
187.199
172.21
123.858
69.6257
57.8911
46.9739
43.3829
39.2626
37.143
35.0368
33.9428
32.9156
32.4589
32.1192
32.096
31.9629
31.8737
31.8163
31.7846
31.9261
215.915
147.851
117.538
83.0711
66.3349
52.4522
47.7997
42.1823
38.5234
35.0872
33.2259
32.3109
31.9948
32.0876
34.9226
33.9128
33.4918
33.0703
32.8458
32.7987
161.159
164.859
122.347
79.391
60.7491
53.4317
51.134
45.2566
39.816
36.0374
33.7126
33.0745
32.8986
33.0905
35.087
36.6467
35.277
34.5319
34.2686
33.8773
335.937
148.342
104.304
67.4559
56.9184
52.2331
50.4343
45.93
39.9524
36.7232
34.7417
33.4021
33.6782
34.9412
37.7887
38.0511
36.4726
35.4131
34.9287
34.2058
221.062
118.303
84.8212
65.7793
60.242
55.7489
51.1997
46.197
43.2
39.9198
57.5533
49.3036
41.0996
39.3525
38.1598
36.8638
35.0761
33.7075
32.9964
32.2583
259.046
128.132
81.3452
60.9114
54.4674
53.1156
51.4651
45.3153
43.3247
41.1584
38.1525
36.7
36.0706
35.7277
35.4326
33.7685
31.8137
30.7799
30.3527
30.0902
240.299
142.036
101.452
61.6533
55.9221
46.6988
46.4803
43.8083
41.808
40.8011
39.4701
38.7008
36.9144
35.2278
33.3298
30.8873
29.5621
28.8518
28.6295
28.6328
280.463
190.883
97.1571
59.3681
54.4763
46.3597
46.488
43.5236
43.3998
42.1393
40.9316
38.9815
36.9358
34.8259
32.918
30.8427
29.2744
28.3415
27.9913
28.0376
401.473
175.61
111.314
71.344
59.1414
49.0417
48.0479
44.7722
43.7499
41.692
40.2558
38.0437
35.9913
33.7164
31.7527
29.8269
28.4714
27.6259
27.2413
27.2867
442.383
151.825
87.8195
65.3594
59.5832
48.1012
46.8842
41.7005
41.2785
38.5171
37.2446
34.8238
32.9295
30.855
29.401
28.4243
27.9542
27.6638
27.4978
27.6177
543.664
156.711
113.08
75.3504
59.5784
45.5524
43.2542
37.7781
37.0262
34.4846
33.5165
31.7186
30.5625
29.4346
28.8156
28.4864
28.4604
28.4469
28.4509
28.5695
178.838
136.496
84.03
64.3681
53.8976
43.2529
41.2968
36.3312
35.7155
33.5807
33.1011
32.0728
31.5197
31.1126
31.0237
31.1641
31.5066
31.8128
32.013
32.1827
175.83
90.5882
60.2155
54.7592
47.4744
39.4078
39.1274
34.6921
34.8849
33.5821
33.9793
34.1087
34.7343
35.5559
36.5722
37.6195
38.6774
39.4542
39.666
39.4434
80.0245
68.2185
63.1824
57.9077
50.7182
44.4114
42.809
38.9444
37.7178
35.1325
33.824
32.3599
31.7579
31.1745
30.8322
30.1492
29.642
28.7111
28.2171
26.9196
118.192
99.1777
92.696
81.9565
71.9419
61.6747
52.5098
44.2599
37.8371
32.3475
28.8529
26.7422
25.6315
24.975
24.7012
24.4274
24.3578
24.2165
24.1572
24.0117
153.801
139.846
124.205
81.0784
90.0306
63.288
67.52
52.9078
54.0116
47.6688
48.643
47.2334
48.6909
48.8732
50.0022
50.5651
51.5596
52.0793
52.3464
53.1884
215.155
170.829
141.152
93.1514
97.4882
68.3349
66.6841
52.3533
52.4816
46.8537
47.397
45.7386
46.4166
45.9641
46.4486
46.5642
47.0523
47.2034
47.2172
47.731
221.338
168.924
132.914
77.9815
82.5111
58.9584
61.0784
49.068
50.2491
45.3295
46.1841
44.6521
45.2769
44.6527
45.0042
44.8739
45.1972
45.2343
45.2725
45.7012
210.364
176.427
153.974
79.8098
76.4561
52.8491
56.3437
46.3837
48.2923
44.2621
45.1743
43.6044
44.1149
43.5161
43.8697
43.9287
44.4889
44.5575
44.5441
44.8816
197.984
178.084
161.268
83.8781
73.7078
50.2963
54.4237
45.4225
46.3951
42.904
42.9122
41.434
41.5888
41.5101
42.0407
42.2553
42.6807
42.8589
42.9997
43.6609
265.361
164.177
134.115
72.4992
74.7927
50.8861
51.235
43.4619
43.5413
40.4253
40.8828
39.9674
40.7299
40.8873
41.6496
41.9171
42.4893
42.7649
42.9513
43.6145
175.554
136.574
131
81.1426
79.2152
57.3982
50.9521
44.6264
43.0344
40.4083
40.4571
40.4258
41.5187
42.279
44.8036
43.7888
43.8056
43.7181
43.753
44.152
247.679
219.749
155.012
78.5534
70.2098
55.9972
54.0793
47.5369
45.5402
44.1514
44.3107
44.9488
45.7784
46.474
47.543
45.9584
44.7143
44.3623
44.3086
44.4539
277.607
174.384
122.975
71.995
63.5438
53.564
53.1651
50.7512
49.4167
48.57
48.0402
48.2767
49.119
49.3282
48.6344
45.6317
44.8065
44.4616
44.562
44.4091
189.237
141.437
92.8332
71.2267
64.055
52.7263
51.1521
51.7192
51.6016
50.247
50.5423
49.7193
50.5384
50.0505
48.0829
44.5881
43.491
42.8458
42.7231
42.3348
227.405
153.925
92.5574
75.5308
57.4944
52.866
51.0956
50.7761
51.6646
51.1811
50.134
49.1965
48.4033
47.7073
45.9345
41.7566
40.9581
40.379
40.3803
40.1415
210.723
138.685
106.971
67.2993
68.8068
50.7198
52.43
48.714
49.6301
48.3189
47.9265
45.4832
44.1209
42.7817
40.7644
39.194
38.8962
38.6142
38.4708
38.4711
388.127
162.63
101.683
74.9515
64.8734
51.3108
54.7124
45.2947
49.1006
44.3887
46.0896
42.1733
41.7168
39.3373
38.991
38.1218
38.4223
38.1607
38.1085
38.0973
282.95
168.464
105.651
70.2573
67.8302
50.4397
55.4477
46.0628
48.7278
43.6495
44.5825
40.6011
40.2122
37.8677
37.7377
37.0962
37.4333
37.148
37.0022
37.0403
447.664
220.089
92.7117
79.4796
64.679
49.814
52.8216
42.5485
46.285
39.6881
41.7177
37.4593
38.3187
36.4591
37.2777
36.8071
37.4793
37.1599
37.2132
37.3025
309.288
197.928
96.5122
73.1229
64.7868
46.78
50.0029
39.7782
43.1272
36.8799
39.0847
35.6393
37.202
35.9219
37.16
36.8521
37.6488
37.4464
37.5722
37.6171
350.67
153.93
84.3537
76.1595
60.4443
49.0168
48.5722
39.5636
42.3694
36.7444
39.4687
36.7389
39.017
38.1477
39.8612
39.7252
40.7219
40.641
40.8604
40.8316
241.741
122.694
71.7329
83.3195
54.3472
50.2448
48.9116
39.5321
44.2039
38.2916
43.3596
40.942
45.1957
44.971
47.9311
48.0336
49.1556
48.8513
48.9416
48.7277
63.1137
64.1338
59.3175
52.1556
48.0058
42.9987
41.3439
37.3758
35.8323
33.651
32.4481
31.539
31.1158
30.618
30.302
29.614
28.7642
27.0248
25.9879
24.2892
32.3222
40.1084
86.0956
35.4199
33.6743
39.0109
100.751
29.8589
85.9768
63.806
33.178
31.8918
98.1201
65.2717
71.2016
47.0458
40.5133
39.3926
82.7988
41.0338
39.6155
64.0625
38.8212
35.75
81.7748
66.2508
39.3663
37.8497
280.994
346.462
236.491
107.071
95.3236
104.824
94.6329
228.603
206.984
188.103
91.7923
76.4559
93.0979
70.3266
229.63
190.015
193.786
72.1958
66.5838
60.7366
50.1993
193.693
192.014
180.592
63.3621
52.5672
48.716
43.4902
177.053
177.713
165.279
49.2393
44.2842
41.9436
38.9551
161.496
160.948
145.968
43.105
41.0497
38.42
37.5124
139.26
140.836
128.805
40.259
38.3326
37.0401
35.1884
106.904
124.007
110.785
37.2962
33.9877
34.649
29.8702
238.009
326.223
268.263
98.9376
90.1207
99.6236
84.5212
185.766
264.718
237.768
88.9218
69.0535
80.0866
71.7636
180.802
230.401
195.57
59.5446
48.0714
67.9929
58.4116
179.299
182.976
172.94
46.6347
42.7058
55.5433
45.2401
168.592
173.139
170.027
41.4709
38.8088
42.9414
38.7649
147.797
165.888
157.068
38.3273
36.9841
37.7303
35.0533
131.644
153.276
137.402
36.289
34.5976
34.5756
33.1345
113.353
136.64
131.132
33.9583
29.3913
32.4113
31.409
282.807
335.903
274.944
122.238
92.8964
122.762
95.7485
260.733
273.896
267.364
83.6447
71.1323
86.7578
69.8165
212.99
258.144
194.34
68.8761
64.7133
68.1895
69.0112
173.1
173.728
167.047
63.444
49.4692
69.0527
55.9069
167.06
166.112
164.81
44.9945
38.4234
48.2906
37.764
156.452
164.651
164.722
37.2881
35.0183
36.3848
34.1587
141.05
167.085
177.899
34.6184
33.1563
33.9005
34.0604
133.994
180.466
171.214
32.8025
31.9384
34.6213
35.5743
263.079
269.416
190.63
105.491
87.2037
94.2445
69.3928
251.241
187.014
160.637
81.9704
69.5465
66.0002
59.6702
163.627
151.154
128.585
67.9729
67.8178
57.8005
52.1945
156.119
129.046
142.088
67.716
54.6186
50.592
44.0598
165.701
146.437
155.023
47.7621
37.9112
42.3582
37.2847
173.44
158.612
186.057
36.4358
34.2901
36.5142
36.3246
188.199
192.914
204.343
34.1935
34.996
36.8899
40.2232
174.592
205.1
187.842
35.7976
36.3257
41.4389
43.7585
83.0612
88.4039
85.9705
63.1313
60.528
65.6653
64.3955
68.6647
85.2739
64.6471
59.0435
51.3514
63.4752
49.0362
57.291
55.7632
45.3173
48.6042
42.5336
44.451
37.5423
44.6036
43.6937
38.8904
40.1088
34.8531
36.1781
32.8558
38.1565
37.5607
34.9566
33.4634
31.1709
31.9904
30.1065
35.5431
34.4544
33.4668
30.6079
29.477
29.6627
28.5849
33.3242
33.0297
31.3317
29.066
27.9844
28.209
27.027
31.0282
30.7659
27.5872
27.6581
26.8863
26.6502
25.509
81.7721
85.1064
75.5867
64.9204
62.9717
65.0765
58.3117
63.0821
71.8565
64.2052
61.9696
48.2915
56.0213
49.961
43.7115
60.8551
52.8686
43.8599
37.0631
47.8836
42.9946
38.3861
50.3494
41.3743
35.812
32.8711
41.0543
49.0064
34.8359
39.3906
35.6659
32.0628
30.1563
49.4734
45.8915
32.9486
34.6918
32.2024
29.6574
28.3709
42.5625
34.8414
30.7635
31.7076
30.6931
27.9893
27.0272
33.6894
32.9839
27.2008
30.4082
30.4894
26.7497
25.9209
33.0106
32.6175
82.2836
111.438
86.6312
74.1917
60.2141
77.9388
63.0259
63.7613
78.0785
63.3169
56.5599
50.4939
58.4522
51.1347
58.5809
62.0612
63.0734
49.2922
47.0072
50.6397
50.9977
45.2109
63.2291
51.1922
44.8382
49.3297
50.6086
41.5771
35.7427
44.3622
34.894
49.0158
47.4662
38.7605
34.497
32.669
33.6344
31.6335
45.5611
39.2837
33.6887
31.5713
31.3349
31.3744
31.3958
37.7754
35.3271
31.0617
30.2194
31.1531
31.7378
33.2447
34.6269
32.5002
30.1434
30.1008
79.2957
82.3819
64.1039
71.0126
60.1485
62.0907
51.5943
63.1714
61.126
55.2896
56.9431
50.8945
49.8745
45.8879
62.3615
53.7332
48.9866
50.3899
50.3734
44.8917
41.813
50.2059
47.6866
41.436
49.7933
40.1412
40.8403
36.6965
34.8478
39.6224
35.2271
37.1977
32.5517
35.6049
33.1289
31.6062
34.5609
34.3811
31.784
30.4916
32.9408
33.0094
32.0043
34.7623
37.1969
30.2996
30.2069
33.1261
33.5695
33.9987
37.9866
40.1389
30.3126
30.4096
33.652
33.3108
55.8951
60.4945
58.9925
52.2449
48.0827
51.9578
48.8432
47.4678
57.6662
45.6682
46.3511
41.5891
47.2832
41.0535
39.8339
42.1239
36.3264
40.1061
36.732
39.3623
36.0734
33.4818
35.114
32.2175
35.5391
33.1422
35.302
33.432
30.4141
31.4553
29.7453
32.5345
31.5924
32.9254
31.7736
28.9601
29.3265
28.3054
31.4054
30.9564
31.5076
31.1055
27.7188
27.979
27.0512
30.8696
30.6792
31.0814
31.2032
26.8901
26.7835
26.0162
30.6968
30.7328
31.3072
31.7942
57.9798
60.1125
54.4715
51.7626
48.4449
51.5855
47.6626
45.1857
52.4834
47.0867
47.0054
41.0883
46.4867
43.1448
36.0633
45.3443
41.0058
39.4286
36.1835
42.0663
38.8464
34.2958
33.9676
35.2492
34.5685
34.4081
33.7057
34.884
32.5979
30.9601
32.7031
31.6385
32.1003
31.0573
33.1276
28.2067
53.3066
38.1084
31.5482
31.0862
54.1489
40.2425
27.1996
36.3026
34.8849
31.1245
31.6096
38.8229
37.5016
26.5298
34.7282
33.4744
31.8411
32.4612
37.3041
36.6249
55.667
69.55
57.6655
53.4389
48.0196
54.4407
48.2733
47.7908
54.1228
48.4145
46.7108
43.8399
46.7309
44.0401
44.5352
47.9705
47.8057
43.0401
40.3308
43.6471
42.2504
76.9221
58.9782
45.6472
45.939
51.8271
242.297
44.5337
91.3731
69.8115
60.6684
188.259
60.3356
171.031
95.0167
44.9318
34.9166
32.4203
59.3385
44.3073
37.1117
35.1841
37.4795
31.8021
30.6853
42.0131
38.6808
34.8034
34.0643
33.3038
30.5112
30.0959
37.9835
36.4739
33.8811
33.1906
55.5945
57.579
49.1111
53.6489
47.3484
50.9639
44.9813
48.1107
47.62
44.1068
46.0335
43.6283
44.1191
42.0348
47.1803
43.208
40.4993
43.2842
41.9833
41.4433
39.83
38.4496
39.6608
36.1966
40.8871
37.6473
39.409
37.563
32.9208
35.2829
33.4007
36.9528
35.4895
37.0512
36.2606
31.0258
33.2995
33.2619
35.0982
34.2476
36.181
35.5537
30.5241
33.2622
33.254
34.0883
33.7232
35.277
34.4549
30.3178
33.1757
32.4233
33.5967
33.0064
34.1137
32.6666
46.939
50.6367
47.4604
52.1411
47.2945
51.529
48.6468
41.0315
46.0455
41.0791
45.8757
43.3988
47.7373
45.5788
37.017
39.7626
37.1436
42.932
41.5469
45.1769
44.2753
34.1378
36.5103
34.9504
41.1158
40.6275
43.9945
43.4065
33.1748
34.5299
33.6319
40.7656
41.2628
43.3147
43.4047
32.8957
33.4698
33.4837
41.3971
41.8906
43.5998
44.5296
32.994
33.6127
34.1375
42.1607
42.7843
44.7818
45.303
33.0819
34.3367
34.7872
42.9431
43.2764
45.42
45.7115
47.2081
50.1171
46.9136
51.1615
48.8607
49.9608
49.2661
41.241
45.9977
43.3038
48.1415
46.2602
49.0673
48.2741
37.3653
42.392
39.5312
45.8864
44.7916
47.835
46.2606
35.1738
39.1116
59.2606
44.4702
43.643
45.5704
46.5369
33.6607
59.2669
50.9989
43.4654
43.2833
46.6804
45.8598
33.4156
46.7735
39.7448
43.412
44.7092
45.4013
46.0245
34.6202
39.1412
38.9826
45.1048
45.7685
46.5605
47.1577
35.4682
38.9806
38.5009
45.8873
46.0401
47.1173
46.7057
47.1611
51.6889
47.0097
49.872
49.184
49.3699
48.326
43.9105
45.9093
43.9634
49.0626
48.5943
48.2873
48.4334
40.595
43.6374
42.2073
48.2437
46.7226
48.4728
47.6806
57.4706
41.1422
39.8652
46.0682
47.2214
47.1642
46.1492
52.3809
39.6752
38.4789
47.314
46.3624
45.948
45.2602
42.1841
37.9144
36.7275
45.9187
46.4107
45.1302
45.3586
39.6703
36.5775
36.2533
46.8422
47.1666
45.4571
45.3357
38.3372
36.1321
35.3733
47.0625
46.5351
45.2064
44.6943
46.2748
49.8868
44.8583
49.8622
48.0745
50.9782
47.9387
43.5903
44.1482
42.4621
48.038
48.2288
47.4998
47.0817
42.0856
41.9807
40.7832
48.3448
47.8271
47.1696
47.08
38.6676
40.4858
38.9588
47.3796
46.1778
46.8545
45.9353
37.0086
38.5334
37.8632
45.919
45.2639
45.7046
44.9571
36.1471
37.7575
36.9394
45.1279
44.9874
44.5239
43.3627
35.8412
36.6321
35.7649
44.9509
44.6712
43.0716
42.4542
35.0713
35.4209
33.9369
44.5354
44.1135
42.1649
41.5418
48.8103
53.6605
50.9153
67.9548
63.4221
73.1908
68.2828
45.7683
50.1607
48.7503
61.4721
64.2644
67.4816
67.1768
44.4738
48.5749
48.1089
62.4747
61.8141
67.19
69.4752
44.0652
47.9484
47.7293
60.8881
62.5759
70.2513
71.2768
44.8394
47.739
47.97
61.8892
62.2564
71.2601
70.0972
45.5039
48.0884
48.5595
61.7317
62.895
69.3008
66.8422
46.3546
48.6925
48.9235
62.6217
63.2363
66.5218
65.887
46.5511
48.9673
48.8329
62.9472
63.1091
65.797
64.7805
51.3077
51.4975
51.7891
69.2768
68.9545
65.6934
69.0642
49.5787
51.7802
51.5316
68.3716
68.1014
69.0585
69.9185
48.7697
51.2716
50.2989
68.4824
72.286
71.4018
77.8791
48.1136
49.8176
49.8861
73.3483
74.6189
79.3162
81.9838
48.1036
49.9515
49.5237
74.559
73.0428
82.1987
80.1277
48.9317
49.4179
50.1776
71.851
68.0002
77.8358
70.8221
49.3171
50.4113
50.3158
67.2264
66.1455
69.1568
66.513
49.0125
50.1402
49.2604
65.9196
64.837
66.0066
63.7959
51.6258
50.5034
50.7335
63.6473
68.4687
63.7752
67.1933
51.7717
50.9423
51.6149
68.6249
69.8466
67.2023
68.3254
50.6965
51.783
51.418
71.442
78.1734
69.1958
73.898
50.5329
51.0843
50.3458
79.7792
82.3361
75.1094
76.1886
49.8604
50.1646
49.5544
82.3372
80.0674
75.9804
73.9297
50.3638
49.4573
49.1446
77.7406
70.7729
72.3675
67.5844
50.2667
49.0715
48.5856
69.0875
66.3345
66.493
64.6339
49.062
48.3967
47.5735
65.8126
63.802
64.2502
62.4141
50.6017
52.9793
50.332
63.3086
66.826
68.5231
64.5575
51.4372
49.8647
49.861
66.6747
67.8006
63.2649
64.0905
51.4878
50.1615
50.1798
68.2696
71.4751
65.9283
64.9329
50.3536
49.8593
49.1086
72.2219
72.9758
64.3177
64.5208
49.4447
48.9024
47.9183
72.7357
70.8595
65.0915
63.0147
48.5611
47.3208
46.1291
69.5118
65.9449
62.276
61.3988
47.8823
45.8371
45.2487
65.2372
63.7977
61.4424
60.2518
46.9706
44.9694
44.3262
63.4534
62.0935
60.0864
58.6332
33.9853
33.1045
33.2903
32.2739
33.8277
32.9549
33.62
39.1637
36.4975
59.2166
43.2564
36.906
36.1701
180.97
42.8381
38.8816
77.8733
214.646
38.3125
43.7295
232.624
34.575
34.7177
34.7498
35.7568
33.9545
35.0379
35.2563
34.4259
32.7174
34.193
34.9275
33.3087
34.1943
35.1231
39.6028
43.4445
36.6403
67.1081
36.1859
186.634
37.848
44.0019
219.402
42.2837
95.1958
45.2261
237.524
40.925
32.0841
30.3813
30.861
30.0447
31.517
30.5333
31.3826
42.8148
38.7193
84.488
200.97
38.2587
43.4231
187.881
41.8948
35.8799
76.5535
88.191
37.5926
38.7363
127.706
33.3105
32.1558
32.7094
34.5721
31.6321
33.7784
34.1605
32.8423
30.7093
32.2889
33.1033
31.1595
32.137
33.7205
44.4304
205.715
42.272
93.8761
44.9783
193.572
41.9263
43.4208
90.8039
38.9864
81.4219
39.9109
133.281
41.1554
92.804
69.1293
60.3457
207.479
57.8617
226.07
96.53
46.1693
46.8445
45.1687
44.033
46.4409
44.0016
42.5233
48.8034
46.1087
42.6572
40.2453
46.3803
50.5602
41.2013
76.4653
46.0708
61.9015
41.3129
237.371
43.1173
50.2447
93.86
210.978
79.2304
65.677
230.905
96.6784
61.3204
44.6951
41.978
41.0033
40.0772
42.0548
40.8545
42.0299
48.2148
39.9388
46.4979
39.6977
50.4823
40.2485
44.4384
85.9822
70.1148
58.6955
104.359
60.1899
151.038
77.9072
50.2219
45.5432
37.5679
39.3368
44.9261
50.6858
38.5263
49.0467
43.6226
36.5478
36.9213
44.1885
47.616
37.6919
90.4067
192.688
79.5379
65.6006
177.17
94.6819
64.479
83.9952
102.06
76.2018
59.0091
150.497
75.4905
62.773
50.353
39.4787
46.9306
38.9728
50.8228
38.9277
46.663
49.1577
37.534
44.733
38.4513
47.5487
38.2468
45.9623
198.742
237.598
202.088
130.017
105.468
129.731
108.07
156.401
179.763
163.462
97.772
92.9095
95.8405
90.5426
129.481
150.009
137.055
85.2772
76.6246
85.085
80.8415
125.83
127.275
122.319
69.0421
64.9099
72.5196
62.8315
122.492
119.755
116.224
61.5896
59.7591
56.2378
52.3019
116.187
112.781
108.005
57.7265
56.8993
49.9828
48.1294
103.439
103.61
95.2866
54.4441
52.0505
46.389
44.8408
89.8753
89.555
70.1695
49.68
45.635
43.7655
38.1413
234.856
240.921
214.752
137.154
121.031
136.955
116.899
179.833
358.101
376.604
211.087
186.395
208.858
330.18
122.591
229.086
237.553
144.654
128.477
139.081
217.567
92.1865
235.403
213.166
106.714
107.451
94.1976
215.088
90.1175
209.917
203.55
106.982
106.068
91.381
195.349
77.865
184.756
175.828
97.2081
95.2755
80.5839
171.61
70.1043
169.674
160.643
88.1044
87.261
71.3918
157.216
65.1199
154.522
144.945
81.2874
80.083
66.21
140.487
56.6814
127.65
125.593
70.6456
67.7387
57.6339
118.538
68.0154
80.2571
74.9522
36.0806
31.2734
32.7644
25.6035
201.584
217.303
201.037
124.265
108.459
125.452
111.538
158.454
294.08
325.587
186.36
164.214
182.448
291.645
123.015
194.048
229.803
138.185
123.381
129.89
210.583
79.1856
182.366
187.978
82.5403
77.8121
85.1208
183.657
73.3063
181.133
174.656
74.0573
73.3302
74.2961
174.541
67.7664
175.698
175.629
69.0652
67.2655
69.4163
175.199
65.1068
159.321
166.98
64.6634
64.5123
65.7233
161.949
59.9273
139.424
148.631
61.1096
59.7933
60.5414
145.473
53.782
125.595
131.052
58.6616
56.5385
57.6934
130.044
79.5244
91.7465
86.6803
32.1266
28.0953
34.896
33.4493
204.145
237.276
204.84
145.362
129.496
145.195
128.722
174.215
303.608
337.556
189.876
166.913
193.145
302.321
117.355
274.934
281.407
124.941
118.047
124.817
279.513
106.392
248.457
267.753
107.034
104.849
106.634
258.9
97.4062
180.511
193.477
96.4555
89.0386
104.467
180.323
67.3462
171.455
171.516
70.8157
68.0289
70.9671
169.923
60.1933
162.174
163.656
62.9118
61.0293
61.4328
162.175
56.3447
146.393
152.062
58.9332
58.1854
57.6328
148.955
55.1566
142.824
152.022
53.1625
52.8062
54.7474
156.389
94.4723
115.645
103.23
38.6747
37.2876
41.7798
40.7047
180.531
201.95
167.669
129.911
114.158
124.206
104.023
148.995
272.118
288.332
171.013
155.007
166.624
259.106
106.235
262.471
237.16
118.17
113.056
112.017
235.594
95.2356
206.238
196.37
102.307
102.313
97.9761
174.332
76.6658
151.486
143.741
97.6206
89.4777
82.0205
144.042
62.8699
163.141
156.666
66.6836
63.7251
64.1784
161.276
60.2297
167.747
166.727
60.6025
59.8833
60.6011
170.164
62.1292
182.054
186.178
59.9597
60.537
61.2655
190.7
66.9747
189.705
196.88
63.8344
64.6315
66.0295
196.989
107.626
129.738
112.407
44.9399
44.1585
49.2251
50.0521
141.824
175.066
132.22
99.9961
81.4031
101.517
81.4388
116.693
115.67
113.08
68.8445
63.8699
67.0213
61.7425
102.979
109.041
98.5695
60.2787
56.3271
59.3984
54.1307
102.731
98.5751
100.222
53.2045
50.7756
52.0793
51.6388
107.092
104.36
107.262
48.1474
45.8697
50.7987
50.4983
122.169
113.77
122.275
45.6666
46.6863
50.9469