/*--------------------------------*- C++ -*----------------------------------*\
  =========                 |
  \\      /  F ield         | OpenFOAM: The Open Source CFD Toolbox
   \\    /   O peration     | Website:  https://openfoam.org
    \\  /    A nd           | Version:  10
     \\/     M anipulation  |
\*---------------------------------------------------------------------------*/
FoamFile
{
    format      ascii;
    class       surfaceScalarField;
    location    "3.7";
    object      phi;
}
// * * * * * * * * * * * * * * * * * * * * * * * * * * * * * * * * * * * * * //

dimensions      [0 3 -1 0 0 0 0];

internalField   nonuniform List<scalar> 
38556
(
2159.19
-856.866
-1827.42
2048.04
-93.2784
204.427
1966.53
-134.19
215.702
1982.61
-138.458
122.373
1975.31
-81.7725
89.0803
1949.46
-29.1322
54.9802
1847.56
30.1718
71.7313
1770.96
32.3804
44.2151
1680.66
36.0488
54.2532
1623.42
28.6356
28.5985
1575.06
29.7496
18.6092
1528.15
40.2143
6.70394
1426.74
82.7575
18.6524
1301.35
94.1047
31.278
1201.9
57.1052
42.3518
1149.55
6.32571
46.0179
1133.98
-41.7003
57.2691
1133.6
-62.5781
62.9663
1146.58
-73.4003
60.4202
-68.3514
54.1201
2539.53
-1568.9
-2244.22
2400.57
125.32
-79.6384
1759.87
281.258
225.245
1465.59
215.911
-60.0793
1390.01
171.541
-177.741
1386.16
149.181
-174.459
1388.12
143.675
-115.467
1376.41
142.48
-98.3858
1338.6
138.578
-64.7243
1294.09
136.071
-62.9225
1246.13
116.203
-38.4941
1221.83
98.482
-33.9673
1216.83
98.9588
-11.2029
1214.93
101.956
-5.94814
1197.14
71.5969
3.29948
1158.89
27.5377
17.0364
1117.36
-24.1199
23.9542
1093.01
-51.039
12.8077
1078.17
-64.7329
6.17502
-62.6351
-0.0608579
1438.77
-229.966
1887.68
1500.65
433.806
-370.362
1580.66
367.558
-166.317
1614.91
329.887
-148.222
1674.92
306.784
-195.253
1714.36
294.675
-184.938
1712.24
282.547
-136.746
1720.47
265.141
-130.896
1714.82
239.599
-95.3617
1718.08
219.724
-86.9189
1665.23
186.364
-17.3065
1538.54
175.536
49.6338
1373.4
174.345
89.7527
1255.1
160.309
59.9486
1175.62
101.405
49.6682
1125.43
37.8992
39.8268
1095.81
-20.4993
26.0046
1078.97
-49.7643
15.5691
1066.15
-63.6964
11.7758
-63.9493
7.99761
624.247
76.3347
-1640.34
1163.55
223.196
-328.691
1351.79
203.273
-23.9592
1460.56
166.308
54.8145
1529.06
224.158
14.1271
1583.16
273.521
-32.9512
1602.71
287.61
-24.6115
1623.61
293.235
-48.9945
1627.93
261.968
-26.684
1619.24
250.878
-22.4703
1532.44
230.053
43.1119
1398.35
235.924
73.7019
1269.79
225.617
77.2883
1190.82
195.076
44.2032
1141.41
125.857
24.9592
1104.32
60.3765
14.6069
1076.82
-3.68268
10.6886
1059.28
-40.0669
7.83832
1042.18
-54.9799
8.38278
-58.1116
5.2831
1063.11
680.474
-598.61
1281
93.3687
-88.0667
1382.74
161.613
-60.0728
1381.57
75.661
91.8123
1397.17
141.299
67.2641
1388.15
231.406
51.1268
1378.63
243.951
53.1853
1365.36
282.369
24.1366
1334.73
256.101
36.4986
1300.03
260.671
24.9031
1252.73
242.597
34.7583
1218.27
245.287
25.0904
1199.84
225.601
18.4471
1203.71
190.888
0.326493
1204.54
119.744
5.27373
1166.71
70.741
27.4737
1104.47
18.7096
39.8427
1055.6
-17.1792
25.9863
1021.91
-35.7685
14.479
-45.4209
5.18746
739.786
1329.93
-1201.71
873.643
-118.402
77.9139
1231.78
61.698
-258.224
1133.77
81.1247
92.546
1121.2
82.8427
71.0284
1100.87
193.315
58.4194
1144.4
140.499
59.9236
1134.5
270.58
21.691
1132.84
238.996
18.7605
1116.61
281.534
-4.63475
1101.11
261.956
-3.85122
1090.61
266.167
-10.3802
1081.55
236.904
-2.25073
1055.05
203.922
13.4684
1009.8
135.893
29.1028
974.093
77.1832
29.2654
953.022
22.6271
17.1534
941.871
-12.3702
6.34147
935.084
-34.1227
5.14132
-44.7472
3.02461
1825.01
779.691
3743.87
1473.38
-612.005
845.233
1575.43
-29.5589
-10.7918
1394.24
145.41
116.904
1258.65
151.833
66.5982
1100.06
303.085
48.8142
1022.59
48.7931
46.3937
35.5437
51.0319
36.2114
972.574
51.0816
62.6426
71.6958
56.8987
78.2769
963.022
59.148
26.693
47.8847
63.5139
51.308
958.56
62.1073
9.49074
73.1793
66.2941
74.9247
962.183
68.9316
-4.23138
64.2364
67.8561
61.54
965.562
70.7134
-12.1379
70.4698
67.2354
66.5077
965.589
66.0672
-4.59317
59.759
61.021
54.6233
959.473
55.9476
4.47163
52.2158
50.5437
46.8591
959.829
117.926
17.6101
966.723
53.8758
16.4132
965.655
10.2072
13.4887
954.855
-14.185
12.614
936.631
-25.6333
9.73493
-37.7336
3.67564
3075.69
-1561.21
-2045.27
2231.55
-610.101
842.244
1648.85
94.3076
458.828
1503.39
181.695
109.176
1395.25
289.004
-29.0334
337.328
98.331
-83.0611
340.996
326.692
329.425
123.901
101.242
123.486
325.344
67.9964
-7.21961
-314.191
313.894
41.3823
9.99678
-304.349
288.39
58.7744
16.3318
-262.526
252.999
63.5494
8.08412
-242.231
239.203
72.2703
-0.3103
-231.334
234.892
70.1123
-2.9574
-232.431
235.254
65.7394
-2.49489
-231.629
236.301
52.2392
-0.96384
965.206
13.2673
33.3592
-235.974
-238.814
-229.647
-230.617
12.7123
13.2504
15.1823
985.012
4.58926
29.4804
994.346
-25.0444
25.9176
981.786
-17.1497
15.5249
952.426
-8.4672
12.1933
-23.1678
2.06036
-45.5058
-391.104
96.5218
993.603
486.24
-2135.45
1382.93
679.854
-974.878
1466.93
479.977
-382.279
333.262
525.013
-122.038
327.092
346.308
346.298
340.938
105.611
-14.9558
-22.14
-88.1191
86.6093
24.2433
-0.59351
-79.2324
-11.6965
76.7378
12.273
1.91814
-74.8379
-14.7811
75.8743
14.3055
-0.56081
-71.4129
-21.5876
69.7366
22.9544
0.309494
-61.7198
-21.5404
60.6916
22.1624
0.406181
-57.1249
-19.454
57.5256
19.2277
-0.174535
-56.8776
-17.6788
57.5897
17.0758
-0.109125
-57.2324
-13.467
58.0881
12.4294
0.181866
-58.0333
230.041
8.62372
6.58322
-58.3113
-57.8819
-57.754
932.886
-42.8368
14.1975
-227.118
-226.45
-224.091
-221.999
951.034
-59.0495
15.8564
957.05
-35.9764
12.8109
953.268
-5.75287
1.06792
-16.4552
-3.18265
-1031.4
189.538
1647.21
185.798
252.109
-983.068
897.973
479.463
-511.784
953.287
462.552
-37.8888
247.265
399.695
75.8425
251.645
251.983
251.869
-115.346
259.856
108.952
-6.1962
-24.4244
-69.9721
71.2171
21.5368
1.64268
-19.7929
-69.62
65.2287
20.2104
3.97386
-23.2652
-57.8882
56.3813
24.7659
0.00617503
-27.7391
-54.6073
54.9003
27.0641
0.382017
-24.7193
-55.6762
56.0476
24.2439
0.103966
-18.995
-58.201
59.0477
17.8969
0.251356
-15.4437
-59.7877
59.5769
14.9324
0.722071
-10.3083
-59.1879
58.2625
10.0211
1.2125
-56.4146
-12.224
231.466
11.9932
-5.75871
-56.6724
-56.0298
-56.3593
968.07
-62.5241
4.68594
-239.286
-247.194
-229.935
-236.654
964.867
-70.5905
14.7435
964.397
-40.7592
5.25265
966.196
-11.6139
4.06199
-19.9278
4.50935
675.303
379.38
-3131.71
825.377
-108.51
210.544
1333.25
86.5289
-114.935
1647.42
226.698
-78.318
389.892
250.601
152.936
406.282
419.337
428.065
-85.9677
383.496
69.9839
22.3799
-15.7458
-86.9719
82.8668
19.1626
0.688326
-16.137
-79.8409
77.679
19.1135
-0.814533
-31.0358
-78.6611
79.3687
29.794
0.534172
-25.9699
-72.6
67.6898
28.6652
2.21483
-20.9273
-60.7628
59.8767
21.1569
0.656526
-17.8467
-57.6117
57.1142
18.2036
0.140597
-14.1538
-57.1415
56.9637
14.0002
0.331393
-9.89224
-56.6745
57.4721
9.50061
-0.406009
-61.6067
-9.2401
251.255
6.96007
-3.99119
-62.2318
-60.4817
-60.6636
938.658
-53.8994
14.7988
-248.13
-246.112
-236.417
-231.423
902.165
-51.6625
17.5654
880.384
-24.6087
5.62981
873.792
-13.5869
8.56578
-25.9728
11.8047
2100.63
1016.29
-6442.22
1654.94
891.154
-553.979
1439.18
525.83
-223.541
1445.56
439.698
-219.375
251.104
433.58
229.253
224.397
283.507
274.318
-61.5999
234.859
58.5885
19.2567
-24.9963
-63.6199
63.9263
21.623
3.06688
-28.9225
-70.9396
72.5452
29.0218
-1.70485
-27.2328
-73.186
72.2568
27.0078
1.15421
-31.5518
-64.6331
62.6099
31.6633
1.9116
-25.6982
-61.0118
60.665
26.7174
-0.672364
-19.729
-58.2283
57.1055
21.2103
-0.358588
-14.9308
-55.7709
56.4428
15.3675
-1.10857
-8.25234
-60.2226
61.4935
8.26629
-1.28477
-63.9161
-7.44546
250.621
11.8938
-3.69214
-64.2423
-61.4889
-61.7298
892.961
-15.7763
20.5882
-244.768
-247.498
-228.644
-230.763
823.376
-18.7286
36.6516
788.25
-11.5783
22.0956
775.71
-14.1103
13.0635
-28.9401
9.39783
1262.33
736.552
-828.768
1377.01
761.499
14.9783
1372.89
727.848
-197.9
1406.6
477.651
-71.6629
1153.1
513.171
173.912
251.206
270.347
60.3364
-53.7857
-25.5388
-59.4863
-35.2271
252.756
245.091
247.402
-14.3534
220.62
99.3532
4.68303
-22.8725
-14.0817
-22.1425
-25.9709
-193.259
190.474
104.551
5.20535
-27.0659
-26.453
-27.4813
-26.403
-210.628
219.576
91.5849
7.8371
-27.856
-26.4871
-27.6238
-27.9493
-216.672
218.571
103.48
6.42587
-28.4735
-27.5005
-27.8814
-26.6174
-227.748
231.763
96.5727
5.12815
-27.2141
-25.7739
-26.1107
-23.2591
-233.948
241.292
83.6542
-1.88253
-22.9734
-21.677
-21.2059
-15.3976
-259.504
272.433
53.5795
-8.9677
-14.7364
-13.9811
-13.4264
-8.49786
-280.01
282.238
36.9811
-7.27869
-8.01986
-7.93582
-7.47714
1005.39
79.6161
-2.00432
-13.6637
-6.9212
-13.5477
-8.39818
-275.557
-270.01
-247.85
-247.056
919.033
29.4517
41.1308
827.309
26.3957
46.5997
775.535
15.5104
24.685
748.101
5.1687
8.15558
-22.3507
5.77118
-822.334
-911.937
60.1609
-14.9779
-215.925
170.068
694.381
130
-111.511
755.638
362.157
54.2378
649.292
432.043
187.474
605.257
334.935
-20.5536
698.918
424.301
19.9338
-113.087
-156.074
-113.841
-154.894
794.298
193.375
0.408889
-90.1176
-56.0075
-87.2532
-55.7864
894.248
240.409
27.6563
-78.1369
-106.109
-79.2743
-104.495
989.478
171.733
31.7388
-81.3149
-71.893
-77.6905
-67.8033
1054.38
216.812
33.7386
-77.9645
-84.7396
-73.6364
-79.1166
1095.32
180.217
8.78513
-65.082
-55.0553
-59.5658
-50.2316
1107.59
185.795
-8.59764
-47.8708
-49.5175
-45.1884
-46.8964
1113.79
143.207
-21.1054
-35.7901
-31.2127
-32.6753
-28.621
1096.07
96.2181
1.12162
1035.45
56.7443
33.3284
930.451
71.8231
59.5678
842.409
58.6128
44.9402
782.705
39.5868
25.2852
-4.24653
12.081
1966.19
-667.489
-2406.29
1404.17
-294.344
640.44
1120.61
124.761
288.793
1003.04
535.812
-56.079
876.436
515.756
42.8896
904.178
354.065
-46.8718
985.335
324.438
18.7057
1037.61
150.097
-8.99442
1062.93
197.614
17.4706
1084.58
143.952
6.13524
1087.53
203.901
9.95937
1092.46
177.013
-1.72827
1090.16
191.471
-3.37521
1084.47
151.51
-2.60694
1046.53
125.006
9.144
980.155
96.5411
26.5823
888.501
119.473
44.0045
806.471
107.93
32.7122
745.155
83.8999
17.0028
21.9946
4.73903
1122.76
-2037.51
-1426.12
1322.04
-1321.08
827.462
922.745
-415.87
939.924
863.063
259.848
335.646
762.757
305.646
310.416
803.038
213.62
100.163
792.946
210.105
124.426
816.178
103.684
23.1808
827.022
170.08
16.6894
861.696
134.777
-25.4983
888.828
195.647
-18.8778
915.013
175.448
-24.6207
917.13
193.654
-4.30043
898.986
161.928
7.72577
842.862
155.738
25.3918
792.011
129.203
18.1899
761.36
135.931
14.193
742.856
122.285
4.14894
727.114
97.7391
1.90324
33.3115
0.347123
1379.35
-2944.71
-998.472
1425.89
-1297.66
-69.962
1024.44
-763.259
748.844
863.462
-8.02316
428.848
743.358
117.232
308.517
773.345
66.5119
117.121
730.647
125.499
127.304
726.179
71.4949
36.6571
713.693
160.036
22.5289
736.145
133.82
-21.4958
757.222
193.147
-18.5769
780.332
175.984
-23.6454
779.446
196.494
-1.95333
759.6
176.402
5.37203
723.822
169.705
21.8115
702.409
140.043
10.5726
701.422
132.439
4.4802
711.193
116.115
-3.60225
720.498
92.0004
-3.56569
33.1441
-0.841216
-347.9
-3099.12
-2267.19
183.599
-784.199
-1044.96
430.735
-691.669
-318.725
453.007
-133.897
103.602
494.833
-43.3813
118.787
611.976
-33.0038
-17.6272
634.688
67.9574
34.8296
667.791
53.3529
-14.9602
659.538
142.63
25.6596
685.688
125.903
-18.2325
710.987
171.083
-3.23533
742.401
161.527
-16.9576
754.732
179.822
4.34112
753.531
172.29
5.31222
738.936
169.192
15.1089
728.177
148.228
2.57297
729.482
133.931
-2.79737
747.311
106.863
-8.57587
772.612
75.402
-8.70279
29.1106
-7.90348
1170.89
-2364.63
-913.979
1137.28
-807.956
57.3651
346.858
-336.309
435.066
172.168
-43.8307
84.6232
324.195
-171.589
-23.8183
406.74
-119.39
3.84009
483.421
-32.4068
23.6839
530.997
38.0462
-32.2698
575.119
104.216
-5.70782
622.183
106.44
-27.6016
670.025
131.095
-7.85374
713.096
130.878
-12.4219
742.896
143.172
6.84977
759.777
146.369
9.04047
765.051
149.057
14.8603
770.094
141.189
1.99624
784.179
127.166
-7.31958
806.615
102.622
-18.195
816.815
87.6943
-22.4927
57.2669
-25.9742
2719.98
1509.66
1721.99
190.034
1279.58
106.103
1155.87
79.8703
797.786
186.499
641.197
37.2001
499.933
108.857
520.45
17.5289
562.454
62.2118
622.811
46.0835
681.233
72.6726
737.422
74.6894
787.972
92.6224
836.95
97.3901
882.155
103.852
927.502
95.8428
970.968
83.6998
1012.6
60.9926
1061.09
39.199
28.9148
1992.95
331.465
-1579.46
1720.72
492.568
-15.9153
1677.62
-4.44619
263.255
1676.49
-37.2414
160.741
1706.26
3.86207
55.4488
1709.01
3.67637
48.553
1662.07
21.9286
96.7386
1620.18
19.8008
66.3068
1555.87
33.7207
84.8487
1505.47
30.6444
48.3541
1438.59
39.7571
45.7302
1364.75
44.2135
36.3263
1261.73
54.9217
66.749
1168.77
47.3279
76.9175
1114.4
12.5801
84.1367
1091.08
-18.9594
88.3008
1092.28
-39.3117
95.3763
1103.98
-45.4471
96.713
1129.88
-48.9757
83.4991
-40.9814
73.0393
2045.1
-835.325
-1728.52
1723.08
128.641
606.306
1406.73
39.6301
497.516
1310.19
31.8309
-32.6064
1289.03
61.077
-213.799
1261.39
65.3921
-208.531
1223.84
79.9695
-135.961
1174.67
99.9973
-129.412
1117.22
112.456
-86.0051
1065.54
118.139
-98.7439
1029.48
105.908
-68.578
1011.72
89.3525
-61.3521
1006.47
72.9801
-24.0135
1004.83
59.2333
-16.2075
998.085
26.9531
-4.33015
987.636
3.65028
4.8759
980.874
-18.5451
9.9499
977.118
-26.7028
-2.18123
975.844
-33.8131
-7.7133
-31.9729
-11.2296
1366.4
-1337.68
-1254.05
1188.57
-185.378
121.481
1508.8
-117.744
-329.171
1524.56
-2.37205
-129.777
1506.53
98.8233
-214.968
1459.86
126.533
-199.408
1385.37
156.806
-139.094
1331.77
166.83
-144.129
1279.33
163.736
-94.2009
1243.43
158.993
-91.874
1200.53
147.203
-15.6993
1151.77
146.755
40.9845
1090
134.932
89.5762
1033.68
111.828
63.6715
993.43
64.7524
52.1212
968.485
28.6917
39.7295
953.646
-1.67344
23.9716
945.012
-17.7563
15.2568
940.08
-27.7747
10.6699
-30.0177
6.64914
857.551
-731.126
-1349.17
965.636
-268.813
-353.342
1202.83
-90.1385
-288.76
1260.71
-17.0682
11.633
1283.83
116.326
-26.4943
1280.65
153.488
-56.7256
1263.75
183.187
-34.0962
1238.79
208.517
-65.7171
1209.29
193.562
-27.0104
1176.1
197.229
-27.5169
1131.99
190.909
43.5127
1081.8
200.207
70.4419
1027.56
183.552
82.9098
982.708
150.723
50.1565
952.657
90.4387
29.3239
933.351
44.6742
17.9307
921.399
8.05863
12.9086
913.38
-10.7574
8.85833
906.34
-22.1932
9.8414
-27.3137
6.07105
1335.31
-417.085
407.453
1111.43
30.179
-163.181
1229.38
157.32
-425.484
1193.79
107.239
3.10288
1199.99
164.291
13.0987
1148.46
230.692
25.4501
1122.69
216.575
45.5677
1088.54
255.436
11.3701
1058.4
225.017
35.1812
1025.88
237.882
16.7716
997.46
219.588
34.4974
978.33
219.955
24.4736
965.385
190.957
23.9864
958.506
152.131
5.79742
952.374
90.093
11.7523
938.048
55.1297
31.344
920.873
23.1126
41.9634
902.833
7.40074
25.8679
888.39
-10.5706
17.2995
-21.6764
7.0651
1774.46
285.289
1775.68
934.641
703.276
244.631
926.54
327.42
-420.223
884.223
202.183
39.9197
943.285
170.332
5.92525
916.868
274.981
40.5475
964.572
175.47
53.3244
931.788
295.578
14.3328
923.376
233.638
18.5516
898.742
267.203
-9.32152
883.514
233.135
-2.17032
870.656
230.22
-7.78737
864.5
190.202
4.65966
858.607
150.005
21.4876
848.935
94.6492
34.2188
840.603
60.5623
32.1651
834.279
27.5666
19.0228
830.328
9.76118
7.93214
830.036
-12.3033
7.16643
-24.8627
5.32023
1199.21
1517.43
4012.61
1188.45
957.466
601.794
1257.15
603.057
-355.127
1149.05
370.487
56.703
1061.15
286.626
38.2017
912.025
428.245
44.6755
872.693
64.6278
48.0608
41.8302
64.3713
42.3055
828.095
72.2116
68.1042
90.4324
78.0609
94.009
815.922
66.8628
31.7235
53.6975
66.8609
53.3599
799.381
67.2635
12.2437
73.6773
67.3894
72.6606
795.904
62.5773
0.960062
55.7306
60.171
52.9412
793.301
59.2117
-7.29402
57.9924
56.0218
54.7528
795.475
49.8845
4.22526
43.4834
46.0216
39.8209
801.69
37.9534
8.86192
34.6534
34.5754
32.2173
815.212
78.7091
20.0279
826.188
46.7918
19.2079
830.636
19.8234
16.7842
829.912
9.23191
13.8675
826.566
-9.94542
10.7224
-25.278
5.88198
742.039
235.302
-2421.38
1096.18
284.959
1160.61
1167.93
489.915
500.217
1210.51
348.728
88.3564
1102.14
388.253
-22.2871
255.306
119.625
-77.3092
259.113
239.043
241.284
141.476
123.408
145.376
2.83526
242.716
82.2168
-7.83408
-16.6642
-227.191
233.343
62.3096
20.4149
-24.9337
-233.526
226.543
73.0314
25.7473
-13.5827
-209.632
207.613
68.5294
14.335
-0.319307
-201.472
200.56
64.2841
-0.474924
2.78635
-194.418
198.629
55.646
-3.43122
1.12225
-197.492
202.014
46.117
-1.87732
-3.76214
-200.915
207.737
30.5834
4.31008
848.616
12.4176
29.878
-208.299
-213.27
-198.725
-203.288
14.5306
13.6805
16.5284
862.925
27.5102
34.4526
864.622
16.8107
27.2332
856.38
13.8247
19.1745
843.2
3.81802
11.6098
-20.5552
3.50963
1197.95
609.77
-2966.42
1077.35
530.629
-2260.52
1136.79
682.675
-1227.08
1086.4
452.802
-435.961
261.322
514.952
-164.499
260.682
241.432
238.722
22.616
275.194
116.357
-33.2195
1.69021
-25.8276
-72.2548
70.9471
28.1865
-2.74129
-1.91683
-66.0784
-15.7937
65.4858
15.8471
2.45595
-1.942
-62.2773
-19.7629
61.5394
19.4304
3.01236
-2.84664
-54.9228
-21.0157
53.9585
21.6286
3.19796
-1.37039
-50.8551
-18.4916
51.0487
18.4728
1.19553
-0.28107
-49.7003
-15.0415
50.384
14.5209
0.117987
-0.643673
-50.6826
-12.0177
51.6166
11.1879
0.539505
-2.10651
-52.2252
-7.48309
53.1383
6.52562
2.15088
-53.4013
-10.0119
213.859
10.3501
10.2717
-53.5335
-52.4862
-52.63
847.058
9.67566
15.2372
-211.75
-211.169
-204.041
-203.303
854.432
4.77922
20.5145
856.253
12.5269
12.287
852.903
6.30807
1.92847
-19.3153
-1.3218
196.666
917.736
670.827
353.025
479.171
-1087.97
626.145
571.886
-674.115
621.143
518.336
-98.4203
190.971
475.987
13.2305
191.242
171.086
169.421
10.3717
-114.899
209.882
105.459
-19.843
-3.15736
-26.9059
-60.902
63.9737
24.3662
2.62539
-7.66995
-21.5569
-68.0859
66.8324
22.1771
8.3033
-3.32721
-24.5468
-56.3718
53.7507
26.3462
4.14891
-1.71274
-23.7966
-50.0936
49.8926
23.7089
2.00147
-0.460208
-19.0609
-50.8657
51.3118
18.5451
0.529833
-0.77786
-14.4233
-52.2923
52.4888
14.2221
0.782598
-1.48413
-11.0283
-52.7821
52.7797
11.0146
1.50025
-1.86515
-6.82846
-52.6931
52.6825
7.02398
1.68026
-52.9128
6.66173
-12.393
212.572
10.5336
-6.68274
-53.3312
-52.0424
-52.4048
854.175
-11.9896
15.2399
-213.998
-218.671
-203.881
-206.514
859.12
-6.70185
21.2796
862.043
7.56335
7.294
861.794
2.67697
7.94207
-19.2403
6.60596
143.261
963.236
-1530.52
356.671
344.815
131.49
827.684
303.752
-317.814
924.442
414.239
-70.9796
274.252
426.106
115.331
275.739
229.606
232.332
-40.4003
-97.4715
293.795
99.3314
18.9976
-11.4026
-18.8454
-74.0044
73.0042
21.0159
10.2323
-1.20698
-21.8046
-65.1033
63.4889
22.9323
1.69372
-1.51356
-30.5986
-63.2455
63.4163
30.1959
1.74551
-4.63502
-24.1227
-61.1664
59.4279
25.4099
5.08636
-3.44957
-18.3141
-54.659
53.8197
18.5106
4.09245
-0.255642
-14.6754
-52.7993
52.7392
14.9072
0.0839717
-0.195854
-11.0945
-52.8436
53.0087
11.1711
-0.0459583
1.4396
-7.01525
-54.0882
54.6049
6.8077
-1.74879
-55.3113
5.23471
-8.66056
219.016
7.78097
-5.54772
-54.8621
-54.1026
-53.5478
806.04
0.822643
17.2054
-215.084
-208.614
-202.138
-195.422
798.648
3.30828
14.9467
796.19
6.93372
8.718
793.492
1.62778
12.3128
-16.8442
13.9884
1281.81
520.682
-4194.06
853.984
481.128
-262.461
548.534
394.851
-9.19033
553.645
419.984
-230.231
155.474
470.632
209.654
144.053
119.272
109.92
-27.6123
-88.6931
183.139
75.174
13.4656
-5.30297
-24.0303
-57.7694
59.989
22.4457
4.66795
0.30117
-28.4647
-60.9075
60.4157
28.1974
0.457817
-2.63665
-27.0548
-59.9682
60.3415
26.469
2.84921
-5.7778
-28.1535
-60.7856
60.1225
28.2208
6.37363
-1.32106
-21.5434
-56.159
54.9335
22.2948
1.79516
1.16065
-16.1836
-52.3762
52.0425
16.7468
-1.39018
3.23316
-11.4235
-52.1349
52.4589
11.4506
-3.58432
3.10127
-6.35849
-53.3677
53.6478
6.29166
-3.31455
-53.4748
5.01898
-8.71184
206.516
12.1715
-4.79934
-53.2665
-51.8812
-51.5731
736.813
21.8709
32.9757
-201.396
-198.97
-186.942
-182.94
720.451
16.074
40.2473
712.525
10.4373
26.5185
708.628
2.10705
16.4813
-15.0376
11.2946
160.796
964.099
408.971
379.273
571.486
-293.858
735.481
676.329
-835.585
741.207
504.527
-161.931
724.838
520.269
140.643
177.318
205.221
61.7819
-55.1505
-26.9856
-54.6454
-25.0327
178.076
162.152
162.44
-17.3513
-17.5915
168.011
96.5029
15.3678
-24.5587
-18.1028
-24.9591
-26.0109
-11.9643
-152.965
159.421
96.3887
12.7232
-26.1705
-25.7304
-25.692
-24.7811
-13.4233
-182.679
191.809
89.182
15.528
-25.8203
-24.4045
-25.4106
-24.8706
-11.5488
-189.525
193.324
92.0359
13.8242
-24.8166
-24.2901
-24.1324
-21.8172
-7.01127
-205.316
210.759
80.3312
6.89645
-21.7127
-21.1425
-20.9874
-16.9327
3.3934
-212.255
214.595
63.7288
-4.41764
-16.2472
-16.2861
-15.579
-10.9279
11.7671
-220.606
220.7
42.7016
-12.6343
-10.4081
-10.5342
-10.0572
-6.54758
8.95524
-218.063
215.452
28.7495
-10.1706
-6.02922
-6.42302
-5.92328
769.479
79.8333
3.68079
-13.5646
-9.85399
-14.7645
-11.3725
-211.081
-209.783
-193.035
-191.542
735.764
48.4501
48.2668
700.267
46.114
52.0572
678.721
27.2132
29.4552
665.434
11.7433
11.8062
-9.96692
8.08946
-945.979
176.39
-320.273
-400.652
287.841
-91.6147
266.76
308.436
-411.029
294.062
449.568
81.8945
451.395
404.699
145.711
401.456
250.066
-15.4593
528.514
395.941
23.2261
-110.656
-152.389
-112.256
-150.991
605.405
165.948
4.98987
-78.3021
-50.3053
-71.4299
-47.3825
702.075
271.016
33.2128
-81.4501
-105.571
-81.9754
-104.246
777.363
196.708
33.7185
-75.6944
-64.9113
-72.379
-60.9909
821.407
244.715
36.0671
-71.6744
-76.6984
-68.9033
-73.8118
839.301
182.755
4.64936
-55.1026
-46.2274
-51.7979
-43.3863
834.73
176.096
-9.66619
-42.3756
-44.2017
-40.8917
-42.987
825.163
111.564
-19.5688
-28.4202
-24.8893
-27.1617
-23.0624
806.232
95.2147
4.67055
778.102
72.69
37.2194
735.064
82.6773
66.0418
696.362
61.2992
49.5564
668.873
37.1236
27.3941
2.85932
13.6765
727.989
-151.77
-6173.1
854.725
491.72
309.826
770.921
409.541
271.491
686.815
501.694
-24.0989
602.702
398.525
133.177
625.314
223.474
-42.893
722.962
273.259
43.7408
757.947
131.277
-9.30961
788.267
233.263
24.9044
809.379
175.141
6.59083
816.017
236.212
11.8239
817.516
182.253
-2.7259
807.239
184.658
-1.66039
790.475
127.575
-1.85353
760.77
118.799
15.265
728.052
100.884
31.1066
692.964
111.499
50.2707
659.383
92.7873
34.8052
632.387
63.0006
18.1218
14.6436
7.13436
-939.26
-898.867
752.939
30.2182
-22.1993
371.903
490.415
213.319
675.949
517.841
434.354
375.561
537.003
320.417
369.362
558.26
202.914
99.4666
583.171
230.618
142.156
602.635
123.958
11.0351
626.021
210.314
16.2529
651.51
156.613
-32.4596
669.545
213.987
-14.6866
682.347
169.06
-24.2297
679.243
180.003
3.45946
667.231
138.042
9.26981
648.454
135.799
27.1694
634.322
115.605
17.6003
628.178
114.621
17.215
625.962
95.9894
3.16209
622.272
65.9675
2.62689
17.8218
2.53719
-341.365
-2179.45
1242.61
-55.0395
-457.084
78.5967
332.147
-154.808
729.785
480.662
326.474
388.213
507.002
253.953
348.64
549.781
164.964
112.292
540.917
225.219
141.567
545.317
127.91
28.3048
547.925
207.442
22.7931
562.791
147.544
-27.2942
576.104
198.042
-15.9451
587.997
157.741
-24.219
592.284
171.245
2.51771
590.959
140.949
3.7899
591.997
137.806
18.7659
595.868
115.366
6.94009
604.032
107.709
3.22864
615.493
87.4116
-6.48467
623.624
59.9236
-5.65344
18.8984
-0.792871
-105.417
-2377.77
494.343
-224.619
-581.557
-801.288
39.7577
-338.799
-399.111
189.639
172.69
107.505
296.453
146.927
118.999
367.592
95.3144
-19.1172
399.602
180.745
47.2932
430.828
104.598
-22.8752
462.255
176.17
25.5053
493.911
126.748
-29.092
528.042
162.358
-1.68227
556.242
134.933
-22.3493
579.894
146.137
5.79732
595.778
130.185
0.192881
610.563
127.013
11.1174
623.49
109.187
-4.17533
639.489
96.4414
-7.52794
660.655
73.5811
-15.9118
679.37
48.4959
-15.9898
16.8154
-11.1465
-236.263
-1305.33
362.044
-305.062
-455.277
-0.114294
-297.296
-182.376
270.878
-114.511
32.4221
42.1063
159.124
-96.8907
-53.6354
225.329
-20.8854
53.8343
342.84
50.6509
36.2673
379.15
61.3365
-25.3178
441.541
108.694
-0.623455
483.98
92.7616
-36.0543
535.333
112.106
-8.95551
575.596
103.953
-21.7043
615.088
111.814
1.68106
646.325
111.504
-3.51661
674.27
112.162
1.76544
698.907
103.79
-17.2436
727.522
86.7838
-26.277
754.586
71.1318
-42.8086
767.387
63.4276
-50.2257
36.7469
-46.7758
1565.06
-380.917
1100.34
199.481
691.394
332.671
570.53
233.157
373.546
286.592
364.734
25.1273
384.662
139.579
435.812
27.7158
503.924
102.794
565.744
77.0254
629.946
120.577
689.89
118.698
749.917
144.41
810.103
148.708
869.065
157.053
932.284
136.414
990.337
112.43
1042.95
79.5145
1102.5
43.0709
33.776
886.978
-1192.19
867.443
1056.74
-426.364
240.687
1426.5
-157.484
50.9802
1570.62
78.0712
-61.4553
1618.39
134.19
-126.511
1609.56
89.0899
-31.7022
1551.07
79.1927
76.0371
1499.02
58.1648
60.1892
1428.34
64.0723
91.4604
1366.4
53.404
56.8905
1274.99
65.2817
71.8515
1183.46
62.4599
65.3947
1103.19
54.0797
92.9418
1051.67
36.5578
91.8823
1032.21
9.52732
94.0656
1030.25
-6.73207
96.9993
1048.79
-16.4564
93.2881
1077.63
-17.4073
85.2849
1114.89
-19.2796
65.5187
-12.7968
58.4664
551.615
-1679.94
-1473.26
886.365
-722.073
567.264
1128.78
-259.045
356.665
1162.42
9.34791
2.47093
1180.4
76.2173
-173.804
1136.21
75.3195
-150.567
1085.25
88.9895
-94.8034
1020.07
105.064
-111.126
963.092
112.674
-77.63
910.692
111.383
-104.323
880.043
97.1205
-69.7684
862.015
79.0875
-59.9518
857.912
59.7349
-25.5655
856.079
45.5623
-23.3786
855.599
21.1418
-15.4644
856.887
8.59635
-11.7415
861.158
-0.591741
-10.1857
865.917
-6.65073
-17.6968
870.614
-13.2624
-18.4272
-12.3873
-17.6727
1228.46
-1215.41
-1378.71
1306.03
-503.246
-174.912
1374.48
-232.926
-423.745
1387.58
-47.37
-86.1545
1316.35
82.9229
-150.446
1225.02
104.768
-137.526
1129.73
133.016
-87.8348
1054.38
143.087
-106.798
992.743
142.422
-62.3126
942.086
139.797
-69.631
903.308
129.202
-9.00174
877.373
123.986
22.0213
861.665
107.635
57.3837
843.155
88.7186
39.025
827.956
54.2151
34.2468
820.247
31.9258
24.1094
817.378
11.5115
14.7369
816.549
3.28087
6.15392
816.9
-8.70771
5.76507
-12.2235
3.77074
2321.05
-859.549
573.873
1392.5
-324.756
396.725
1136.16
-146.12
-119.233
1108.99
-26.9692
18.4032
1086.76
109.14
-30.4774
1043.91
136.018
-45.1287
1012.89
155.655
-25.7174
963.296
182.695
-55.7282
926.126
168.772
-16.1907
882.994
179.085
-23.6724
854.766
168.546
32.3974
833.816
170.936
44.4411
819.926
148.892
55.5424
805.243
120.659
32.8995
794.171
73.8827
20.7282
787.785
44.0146
12.2282
785.418
17.6783
9.10824
784.139
7.94627
5.47213
782.845
-4.17883
6.60663
-11.4788
4.65993
1801.45
212.606
1134.37
1418.95
-113.963
8.53081
1172.16
60.4917
-385.307
1069.51
108.16
-29.385
1018.79
182.656
-9.69184
936.866
237.569
5.82285
910.063
201.927
26.0988
864.026
241.914
-1.81213
841.217
202.945
23.8175
811.484
220.32
5.26925
796.179
194.535
23.8133
785.784
191.513
14.2918
781.788
157.615
19.2588
776.905
124.854
6.48571
774.131
77.432
10.9771
771.85
55.0116
22.6281
772.042
31.8412
27.608
769.892
17.9964
17.9682
766.294
4.81919
11.8997
-9.05622
5.71989
1282.84
-85.7061
2048.14
1016.55
315.688
81.2667
839.337
250.807
-433.324
772.715
210.071
4.631
792.925
206.597
-38.2259
748.322
300.589
22.1305
799.55
173.632
30.3932
754.276
298.354
3.16717
751.865
212.334
11.5742
726.706
246.563
-10.4048
717.724
201.494
-0.147931
707.876
197.978
-4.40491
708.092
154.501
7.55736
711.327
125.185
17.9215
714.925
83.6711
24.3815
718.338
61.627
22.1369
720.464
35.6568
13.0815
722.236
18.624
5.53297
725.672
2.80115
5.74764
-12.83
5.15552
2767.59
722.813
2408.36
2130.22
889.918
664.936
1357.32
662.188
6.39308
1069.58
405.29
149.223
920.041
338.333
56.0068
750.891
475.255
39.1594
724.887
65.1417
34.2129
43.6646
62.1075
42.57
678.097
84.2079
48.2851
97.345
86.3803
97.0295
675.309
63.9708
22.2812
50.882
60.9717
48.7391
658.463
65.4977
8.67713
69.6219
64.0889
67.7669
658.808
54.5467
3.788
47.567
51.4956
44.7122
656.878
50.6026
-2.71249
49.4997
48.0133
47.2111
664.106
39.7056
7.72792
34.3397
37.2104
32.5142
673.603
30.461
7.87086
28.5817
29.248
28.3891
688.589
74.6729
14.0396
701.492
54.3392
13.5924
710.194
31.2681
12.4713
715.388
18.0534
9.24369
719.101
2.11912
7.69141
-15.8839
5.7754
348.478
1164.78
-2752.44
850.978
749.047
798.982
1013.43
649.449
350.503
1022.41
413.555
71.1102
899.292
426.384
12.7815
196.483
133.486
-43.6326
198.95
181.846
182.942
154.893
135.603
156.668
2.71845
182.311
82.7502
-6.1552
-20.5425
-164.2
172.896
76.1399
19.9147
-23.3192
-177.257
175.439
71.1691
17.9392
-12.7487
-165.241
168.563
64.8761
10.0481
0.227962
-166.241
166.933
55.2395
-1.61287
2.753
-162.203
166.991
45.9034
-2.84228
0.889162
-166.812
171.672
35.3223
-1.36565
-5.50121
-171.559
178.351
24.1405
5.02987
716.931
16.0067
17.6271
-177.945
-183.256
-167.28
-171.536
17.6664
17.3011
19.0348
730.525
49.7905
25.4067
734.223
35.2411
19.5625
732.301
26.0651
13.0853
729.94
7.4735
8.61576
-16.6023
3.91588
1155.32
662.366
-3815.1
987.377
674.364
-2017.89
1046.31
729.852
-1366.42
918.64
474.282
-369.018
203.996
538.776
-132.171
201.395
186.355
182.174
32.859
207.107
129.012
-31.4956
1.75206
-25.9968
-53.6318
51.6352
28.7438
-2.50242
-3.37287
-46.6442
-18.9584
46.8252
18.6662
3.48408
-4.19791
-46.7335
-20.4229
46.738
20.5931
4.02327
-3.19478
-43.3383
-18.7314
43.4972
18.9374
2.82995
-0.917333
-43.0116
-15.6392
43.5939
15.3597
0.614494
-0.0797889
-43.0658
-12.1136
43.8063
11.5403
-0.0875179
-0.706779
-44.4322
-9.10768
45.3072
8.3896
0.549828
-2.2228
-45.9603
-6.13759
46.7829
5.48322
2.05458
-47.0093
-9.12865
188.482
15.037
7.86958
-47.3222
-45.8073
-46.1147
730.43
41.9592
12.1519
-185.433
-185.879
-174.14
-174.062
734.453
35.7278
16.0043
736.527
27.7291
8.54978
735.649
8.39052
1.88926
-18.9856
1.53495
431.92
182.283
595.373
458.23
469.482
-909.397
460.944
613.896
-560.872
416.792
521.181
-101.167
133.264
512.148
-29.2154
129.676
113.528
109.397
17.8106
-125.423
147.556
112.999
-19.6781
-3.74835
-30.7271
-45.4916
47.8015
28.9799
3.18572
-8.54412
-24.5334
-49.4772
48.7093
25.794
8.0514
-4.80374
-23.9274
-45.6321
44.7962
25.0101
4.55698
-2.50879
-20.5185
-43.9439
44.0982
20.5461
2.32675
-45.2263
-0.653674
-15.691
45.5428
15.4455
0.582657
-46.1298
-0.498534
-11.9719
12.026
0.432978
46.1414
-1.07204
-8.9285
-46.2201
46.2698
9.08675
0.864091
-0.912398
-6.37234
-46.4786
46.6002
6.49617
0.666974
-46.6402
5.16134
-16.85
184.112
14.8347
-3.66204
-46.6243
-45.2435
-45.0875
721.857
30.4499
11.6873
-183.412
-184.345