/*--------------------------------*- C++ -*----------------------------------*\
  =========                 |
  \\      /  F ield         | OpenFOAM: The Open Source CFD Toolbox
   \\    /   O peration     | Website:  https://openfoam.org
    \\  /    A nd           | Version:  10
     \\/     M anipulation  |
\*---------------------------------------------------------------------------*/
FoamFile
{
    format      ascii;
    class       surfaceScalarField;
    location    "3.7";
    object      phi_0;
}
// * * * * * * * * * * * * * * * * * * * * * * * * * * * * * * * * * * * * * //

dimensions      [0 3 -1 0 0 0 0];

internalField   nonuniform List<scalar> 
38556
(
2037.36
-734.198
-2275.5
1975.04
-118.68
181.003
1938.54
-162.407
198.905
1979.07
-158.534
118.009
1986.74
-90.7557
83.0822
1967.33
-32.846
52.2547
1865.77
29.5617
71.997
1790.16
32.5717
43.0413
1699.26
36.6844
54.2125
1641.67
29.012
28.5795
1592.5
30.4211
18.7486
1543.88
41.804
6.81416
1439.99
84.6272
19.2675
1313.2
95.0227
31.7687
1213.35
57.3104
42.5405
1161.7
4.68862
46.9608
1146.12
-42.0288
57.6058
1145.56
-62.7004
63.2574
1158.3
-73.3536
60.617
-68.1041
54.3793
2314.72
-1669.01
-2971.51
2341.13
13.9904
-159.082
1732.89
233.408
212.429
1461.98
189.629
-77.2536
1404.56
160.847
-194.184
1404.36
146.022
-178.667
1406.54
143.399
-116.021
1394.26
143.562
-98.7037
1355.75
140.095
-64.9053
1310.53
137.567
-63.3386
1261.87
117.408
-38.3248
1236.74
100.082
-33.1454
1230.39
101.097
-10.1182
1227.42
103.45
-5.45999
1208.85
72.4009
3.48101
1170.25
27.6783
15.6102
1129.03
-24.1917
23.3787
1104.57
-50.8456
12.6108
1089.43
-64.4338
6.21897
-62.4917
1.06925
1084.46
-724.085
1561.8
1372.35
196.486
-470.391
1552.14
247.29
-193.671
1618.91
277.026
-154.171
1695.07
289.58
-204.888
1736.94
291.691
-187.547
1734.09
283.855
-137.604
1742.28
267.759
-132.38
1735.73
242.554
-95.908
1738.01
222.359
-87.0777
1681.83
188.857
-15.2675
1552.16
178.126
51.6215
1386.04
177.065
90.1555
1267.31
162.007
60.1768
1187.35
102.142
50.2165
1136.3
37.881
40.8523
1107.46
-20.5884
25.2335
1090.43
-48.9546
15.1426
1077.36
-62.8037
11.4332
-63.4372
9.12645
723.256
-268.645
-1984.01
1252.83
27.5757
-360.666
1417.47
95.3929
-12.7427
1515.64
108.371
70.4909
1567.26
225.18
12.7787
1611.21
282.338
-34.6027
1625.33
294.473
-24.7381
1644.31
298.775
-49.9883
1647.27
266.275
-26.6884
1637.26
254.663
-22.2876
1546.77
234.224
45.1216
1410.5
239.515
74.8791
1282.13
228.406
77.034
1203.08
196.911
44.1379
1153.21
126.788
25.2239
1115
61.0595
15.035
1088.49
-6.70008
12.6231
1070.44
-38.9422
8.03143
1053.06
-53.6464
8.23123
-57.2387
6.41115
1184.92
419.36
-359.645
1392.8
-32.5944
-147.704
1436.72
144.587
-93.1196
1418.79
21.5654
104.743
1419.06
126.117
98.79
1404.72
237.934
58.7405
1395.43
246.825
56.9373
1381.71
287.808
24.6949
1350.17
260.578
37.2304
1314.83
265.267
24.7373
1267.05
247.009
34.9985
1232.46
249.129
24.9743
1213.76
228.556
18.549
1217.29
192.926
0.45137
1217.33
121.037
5.71517
1178.34
71.8358
28.2158
1114.48
15.9774
41.1775
1066.54
-16.7218
25.7268
1032.9
-34.3612
14.3502
-44.2952
6.34547
1032.01
1616.5
-318.799
916.287
-184.672
267.802
1267.59
-1.3301
-205.387
1144.39
12.7064
132.064
1143.36
32.6897
94.4556
1116.86
200.279
64.1484
1164.67
133.218
65.7992
1151.24
279.021
22.2168
1148.24
244.485
19.0969
1130.82
287.865
-5.18439
1114.88
267.085
-4.12783
1104.08
270.657
-10.7292
1094.5
240.299
-2.16615
1067.14
206.409
13.8803
1020.8
137.847
29.5305
984.553
78.4813
29.5981
963.118
19.8651
17.5475
952.154
-12.7704
7.01233
945.057
-32.3358
5.07129
-43.4838
3.96348
1809.14
569.275
3420.02
1476.45
-584.262
732.281
1597.78
-71.5797
-51.0852
1399.3
97.9029
113.286
1260.06
111.702
60.2244
1103.04
312.372
44.9238
1035.33
51.3232
48.5198
22.6917
53.4062
24.9904
984.204
53.4158
63.1389
73.6088
59.3902
80.594
976.586
61.5195
27.3997
46.6023
65.8464
50.7345
970.996
64.2249
8.63325
75.2377
68.4239
76.9353
974.807
70.6283
-5.27417
65.6689
69.483
62.7684
977.623
72.0985
-13.1239
72.2336
68.5796
68.0534
977.344
67.1855
-5.59358
61.1312
62.1041
55.7502
971.694
56.6451
3.68956
53.0473
51.2381
47.4388
971.291
120.083
18.1666
977.441
54.7667
17.5644
976.852
5.00849
15.4452
964.917
-13.9859
13.1502
946.58
-23.7929
9.79437
-36.2896
4.55642
3165
-1429.39
-1413.24
2250.7
-574.643
904.681
1672.38
90.6756
416.071
1524.92
163.349
82.0087
1403.16
286.29
-52.8246
341.781
101.719
-93.7937
345.018
330.655
333.075
127.045
103.703
126.328
331.904
69.0875
-7.88733
-316.129
316.652
42.5445
10.3485
-308.642
291.742
61.9702
16.4496
-265.489
254.924
66.8347
7.95479
-245.393
241.322
75.1748
-0.475714
-234.423
236.851
72.6632
-2.99285
-235.588
237.244
68.0893
-2.55917
-234.541
237.808
54.2419
-0.863613
976.698
14.8252
35.5894
-237.882
-241.483
-231.357
-233.241
10.462
14.8872
11.5848
997.857
0.588539
33.0192
1003.93
-24.1693
23.1052
990.032
-16.4109
16.3227
961.643
-8.43057
13.0266
-21.6159
2.55533
-229.239
-346.305
-718.788
993.262
507.695
-2304.84
1390.99
700.53
-1007.58
1473.22
487.102
-405.982
333.891
535.54
-128.186
327.012
345.729
345.521
342.251
109.038
-15.6785
-23.017
-89.4003
87.9353
25.1123
-0.630297
-79.4713
-12.1124
77.1394
12.6147
1.82965
-75.3606
-15.5906
76.3506
15.2349
-0.634288
-71.8253
-22.2285
69.9077
23.8591
0.286937
-62.1786
-22.0358
60.9628
22.898
0.353664
-57.6893
-19.8792
57.8684
19.8844
-0.184272
-57.4914
-18.0194
57.9759
17.6497
-0.114738
-57.8371
-13.7927
58.5086
12.9011
0.220128
-58.5508
232.242
9.29041
7.34022
-58.858
-58.359
-58.2795
940.937
-43.8726
10.9579
-228.461
-229.231
-225.287
-224.454
959.319
-56.8296
14.2781
964.78
-33.2966
11.4246
962.14
-6.54213
0.751854
-14.6623
-2.77685
-1156.25
22.6355
1006.57
129.935
233.273
-1011.76
883.44
460.993
-513.969
948.731
463.951
-42.1401
246.971
397.501
85.2911
252.098
251.395
251.015
-117.691
261.144
109.885
-6.36601
-24.6379
-70.5961
71.9771
21.6225
1.63441
-20.2411
-70.0601
65.6897
20.7271
3.88441
-23.9567
-58.3627
56.8976
25.3982
0.023707
-28.3451
-55.1968
55.4828
27.6016
0.457581
-25.1786
-56.3151
56.7049
24.6343
0.154564
-19.3219
-58.9777
59.8362
18.1733
0.290087
-15.7483
-60.4861
60.2787
15.2197
0.735985
-10.4541
-59.8427
58.8948
10.1575
1.24456
-56.9775
-11.3571
234.152
10.5896
-5.47138
-57.3612
-56.5878
-56.9862
975.995
-61.0399
3.93796
-241.778
-249.651
-232.217
-239.119
972.77
-67.7939
14.189
972.761
-38.043
4.75565
974.123
-10.836
2.93161
-18.1644
5.09993
803.42
271.713
-2547.86
826.869
-141.944
351.769
1324.45
48.1492
-84.7381
1658.38
192.679
-62.6613
391.321
235.929
171.854
406.841
421.218
428.724
-85.6327
386.018
67.4281
23.5074
-15.5682
-87.8006
83.6909
19.2595
0.418396
-16.6132
-80.3363
78.2057
19.6127
-0.868906
-31.7478
-79.5481
80.2391
30.5053
0.551523
-26.2735
-73.1014
68.1682
28.9286
2.27814
-21.2645
-61.3027
60.4202
21.4838
0.66312
-18.109
-58.1707
57.7126
18.4342
0.132881
-14.3293
-57.7932
57.6099
14.166
0.346576
-9.99978
-57.3726
58.2087
9.58854
-0.424845
-62.3508
-7.13411
253.977
3.93374
-2.96362
-63.0158
-61.1149
-61.3311
946.075
-52.8446
15.6724
-250.077
-248.176
-238.27
-233.42
909.513
-49.7516
18.5191
888.225
-23.2478
6.49325
880.953
-12.5085
8.94438
-24.537
12.9785
2067.08
828.174
-5874.92
1653.89
886.203
-614.952
1419.49
494.55
-212.001
1437.41
414.304
-239.548
247.681
431.196
223.545
220.306
280.401
270.214
-57.6744
232.757
53.0023
19.5958
-25.317
-63.8026
64.3158
21.679
3.12472
-29.3553
-71.3601
72.9812
29.4217
-1.68753
-27.5802
-73.5135
72.4323
27.3149
1.34649
-31.8983
-64.7181
62.8822
31.9726
1.7617
-25.9176
-61.5215
61.2104
26.9153
-0.686558
-19.9452
-58.7538
57.6368
21.438
-0.375789
-15.0735
-56.418
57.1566
15.4809
-1.14601
-8.28914
-61.0534
62.349
8.27852
-1.28499
-64.5085
-4.92758
253.24
8.94178
-3.50886
-64.8897
-62.0298
-62.3178
899.299
-19.9184
25.1036
-246.407
-248.732
-230.189
-232.001
829.827
-19.3017
39.0221
795.21
-12.1586
23.5281
782.09
-13.45
14.0613
-27.7692
10.3106
1384.4
933.154
-173.92
1401.69
763.008
105.897
1360.92
676.04
-140.719
1394.81
445.295
-64.8767
1149.22
499.865
176.917
250.872
251.431
54.4748
-47.0216
-18.2055
-54.2647
-30.6648
251.699
244.54
246.362
-13.5832
221.568
98.2355
4.42836
-23.688
-13.2049
-22.884
-26.1896
-193.898
192.105
103.73
5.68266
-27.2134
-26.6424
-27.5733
-26.6111
-211.939
221.511
90.8249
8.31726
-27.8608
-26.6565
-27.585
-28.2275
-218.088
220.678
102.952
6.74403
-28.4688
-27.7476
-27.8417
-26.9414
-229.544
234.265
96.1236
5.40574
-27.2002
-26.0509
-26.0582
-23.5218
-236.257
244.662
82.9005
-1.90521
-22.8929
-21.8918
-21.0944
-15.5005
-262.598
276.246
52.5344
-8.79893
-14.5805
-14.0474
-13.2554
-8.43614
-283.127
285.857
35.8057
-7.10233
-7.85356
-7.83449
-7.30917
1012.43
76.69
-1.91515
-10.8159
-6.41795
-10.7532
-7.92831
-278.371
-272.693
-250.481
-249.749
925.268
24.4453
42.8021
833.525
24.6781
47.7631
781.401
14.091
25.8752
754.547
2.86811
10.5358
-21.268
6.59373
-772.868
-966.498
436.641
64.6983
-282.109
207.551
715.409
63.0109
-37.681
763.519
348.867
48.3175
652.231
418.939
192.215
604.651
321.054
-22.0437
701.746
415.765
22.5529
-112.212
-155.798
-112.864
-154.538
803.932
183.204
-1.34808
-89.0618
-54.5898
-86.0036
-54.3863
904.53
236.339
29.6337
-78.0703
-105.496
-79.1822
-103.822
1000.9
167.568
33.1417
-81.3373
-71.2121
-77.4602
-67.0745
1065.73
215.482
34.6147
-78.3013
-84.1664
-73.9154
-78.5383
1106.72
179
9.12944
-65.2501
-54.5363
-59.6471
-49.6879
1118.83
185.002
-8.42579
-47.9459
-49.0377
-45.2478
-46.453
1124.51
141.302
-20.971
-35.6058
-30.3403
-32.2534
-27.8115
1105.6
94.3039
1.29796
1042.65
55.0197
32.372
937.23
71.246
58.8524
849.384
58.2422
43.6945
788.752
39.1827
24.3183
-3.96702
13.4198
1769.23
-576.095
-2329.47
1299.35
-455.005
642.77
1083.13
43.0804
236.154
1000.12
497.618
-65.736
886.865
490.472
41.7188
917.903
336.899
-46.8825
997.242
314.774
21.6517
1050.01
138.618
-8.18508
1073.8
193.678
18.8779
1095.11
140.173
6.08614
1097.7
202.788
10.0954
1102.71
175.878
-1.88777
1100.41
190.693
-3.38908
1094.26
150.089
-2.63113
1055.39
123.94
9.22912
987.756
96.0121
26.6427
895.559
119.428
44.0141
813.567
107.803
32.4318
751.76
83.5394
17.4501
22.0457
5.60623
1373.77
-2240.71
-32.7066
1383.3
-1468.66
1004.12
945.329
-461.214
942.268
878.606
224.383
339.957
775.067
278.382
315.629
814.322
194.227
103.417
801.572
198.672
128.852
825.149
90.2628
24.7781
835.863
166.008
16.9553
871.197
131.29
-26.45
898.42
194.507
-18.9424
924.808
174.404
-24.9134
926.548
193.117
-4.16445
907.863
161.13
7.64456
850.873
155.289
25.6414
799.658
128.885
18.3422
769.01
135.875
14.2005
750.535
122.398
3.88026
734.54
97.7925
1.74191
33.5133
0.616248
1774.98
-2965.76
-99.6436
1517.09
-1374.43
163.656
1078.72
-782.929
760.083
903.533
-45.1727
444.747
770.096
98.7241
313.094
795.139
47.4266
121.758
746.337
117.058
130.416
738.871
61.1046
36.6243
724.616
157.524
22.7386
746.694
131.816
-22.6037
767.385
192.36
-18.5442
790.311
175.402
-23.923
788.892
196.335
-1.79765
768.531
176.096
5.39452
732.018
169.551
22.25
710.229
139.864
10.8105
709.471
132.51
4.12266
719.381
116.346
-3.85829
728.351
92.0059
-3.183
33.4244
-0.800643
74.4942
-2795.03
-1658.47
337.53
-702.245
-935.222
506.469
-645.572
-306.295
497.053
-140.063
104.306
523.924
-49.3491
121.202
635.094
-44.1238
-19.619
651.055
64.4262
36.6704
681.317
48.0247
-17.1822
670.855
140.999
26.9879
696.705
124.656
-18.6907
721.927
171.014
-3.87657
753.038
161.415
-17.1242
764.57
179.962
4.84104
762.822
172.397
5.44772
747.605
169.272
15.4966
736.665
148.169
2.63462
738.202
133.845
-2.87267
756.39
106.878
-8.71874
781.51
75.2767
-8.39176
29.3751
-7.32976
1445.71
-1887.94
-352.511
1180.74
-695.422
258.149
378.935
-288.794
445.025
194.39
-38.9255
83.4081
348.217
-170.377
-32.7988
427.698
-120.005
-3.60016
500.427
-33.184
24.8817
545.564
37.3257
-34.4381
587.632
104.387
-5.45634
633.976
106.486
-28.1733
681.081
131.366
-7.45768
723.722
131.128
-12.3541
752.828
143.545
7.31097
769.273
146.657
9.29532
774.105
149.336
15.1042
779.078
141.245
1.95099
793.484
127.035
-7.59618
816.21
102.712
-18.5601
826.183
87.6066
-22.302
56.9839
-24.7683
2595.92
1071.16
1683.39
217.115
1278.98
115.614
1171.16
68.8922
814.374
186.408
657.215
37.1542
513.222
110.808
534.657
15.891
574.92
64.1234
634.784
46.6219
692.565
73.5847
748.445
75.2485
798.717
93.2724
847.575
97.7992
892.694
104.217
938.031
95.9077
981.634
83.4314
1023.6
60.7491
1072.13
39.0762
28.9715
1926.1
444.501
-1344.81
1635.25
479.21
-7.36507
1650.7
-67.0699
250.526
1666.84
-64.6969
166.571
1714.72
-21.7444
56.9423
1725.07
-11.9976
53.9071
1679.73
15.324
102.015
1638.5
16.0963
68.1712
1573.07
34.1704
85.4723
1522.55
30.9617
48.1374
1454.73
40.6428
45.9266
1379.36
45.3289
36.855
1274.77
56.0467
67.8119
1180.89
47.9369
77.7062
1126.22
12.4548
84.7545
1103.17
-19.0548
89.074
1104.38
-39.3368
95.7284
1116.02
-45.3898
97.0096
1141.83
-48.8163
83.6189
-40.4104
73.4856
1948.91
-747.372
-2889.18
1661.4
35.9537
571.684
1379.32
-50.4885
477.924
1309.35
-24.8083
-47.1645
1303.69
18.3469
-228.621
1277.13
51.0215
-215.128
1239.21
76.2176
-138.987
1189.24
99.9362
-132.575
1131.42
113.732
-86.6481
1079.3
119.577
-99.8313
1042.6
107.337
-68.3235
1024.48
90.7773
-60.4732
1018.94
74.3819
-22.9116
1016.79
60.2476
-15.6189
1009.12
27.3983
-3.79372
998.742
1.36145
5.5705
991.944
-18.2289
9.06826
987.876
-26.3067
-2.40408
986.204
-33.4407
-7.48479
-31.8347
-9.20601
1071.95
-1778.38
-2077.01
1084.11
-430.576
-16.0219
1484.3
-244.182
-400.163
1526.74
-83.5007
-137.92
1523.52
46.1301
-229.45
1477.62
116.963
-207.596
1402.43
155.595
-141.788
1348.92
168.187
-147.125
1295.71
166.074
-95.0378
1259.44
161.447
-92.6737
1215.63
149.703
-13.8221
1165.71
149.361
42.9507
1102.56
137.186
90.5047
1045.38
113.314
64.2918
1004.59
65.6257
52.7806
978.194
28.7874
39.8192
964.351
-5.41496
26.2624
955.441
-16.8883
14.6349
949.98
-26.7551
10.2079
-29.3951
7.93602
959.605
-774.397
-1917.53
1042.5
-399.254
-474.887
1270.03
-177.463
-306.989
1310.22
-76.4778
23.2838
1318.45
73.173
-22.4952
1304.62
154.696
-58.509
1282.71
187.215
-34.4489
1255.69
212.941
-67.7174
1224.71
197.343
-26.9786
1190.62
200.919
-27.6706
1145.41
194.547
45.4824
1094.47
203.582
71.6037
1039.47
185.996
83.2233
993.989
152.434
50.4971
963.366
91.6084
29.8645
943.174
45.5315
18.4833
931.667
3.68034
15.0342
923.379
-10.5449
9.97597
915.839
-20.8909
9.9069
-26.4711
7.63592
1428.17
-362.125
867.531
1186.54
-70.7154
-234.608
1285.06
110.722
-479.829
1229.81
61.3321
22.1841
1215.84
155.614
30.3185
1161.27
236.284
31.7274
1137.13
218.634
49.6513
1102.83
260.414
11.5292
1072.11
229.11
36.176
1038.93
242.408
16.4365
1009.87
223.555
35.0481
990.339
223.464
24.6204
977.191
193.437
24.2571
970.121
153.883
6.0731
963.479
91.4897
12.4753
948.763
56.2769
32.1869
929.923
22.4206
41.2763
912.599
3.56665
28.9392
897.572
-9.57402
18.0601
-20.5492
8.80768
1839.71
812.031
2379.33
919.275
803.599
313.922
940.126
333.243
-448.757
887.885
186.913
58.724
960.368
158.357
19.2291
929.667
287.258
43.8745
981.792
174.91
57.3985
945.924
304.113
14.3857
936.596
238.653
18.8816
910.957
273.051
-10.1878
895.352
237.596
-2.56378
882.157
234.104
-8.17478
875.781
192.834
4.81171
869.6
151.889
22.0552
859.13
96.4701
35.02
850.189
61.9772
32.8387
843.368
27.2588
19.5302
839.528
5.41539
9.00393
838.76
-11.3969
7.66163
-23.6649
6.80321
1288.02
1703.15
3913.69
1243.82
1038.43
541.654
1287.17
630.32
-391.512
1157.7
374.774
54.8926
1062.44
285.762
28.0806
913.945
440.664
40.0155
883.517
66.9291
49.5085
35.0141
66.5399
35.8657
837.481
74.8735
67.7393
93.0985
81.0116
96.5645
827.319
69.0948
31.9979
53.2937
69.0301
52.7984
809.708
69.3004
10.9614
75.3747
69.4534
74.2063
806.628
64.1278
-0.354935
56.4905
61.716
53.4216
803.556
60.5066
-8.53246
59.0938
57.3503
55.6345
805.826
50.9673
2.94984
43.9499
47.1462
39.9568
812.913
38.7721
8.23976
34.3609
35.4679
31.652
825.546
80.7542
21.2498
835.76
47.9958
21.3315
840.483
18.4144
19.5659
838.75
5.33858
14.9603
835.145
-9.44983
11.4526
-23.9648
7.32456
840.784
288.959
-2298.47
1196.34
338.52
1249.03
1211.69
520.594
510.449
1232.3
360.607
75.5635
1109.14
393.541
-37.4397
258.449
121.84
-89.0933
261.736
241.556
243.3
144.48
125.509
148.229
3.85966
247.372
83.1757
-9.02984
-17.174
-228.016
234.79
64.4905
20.7833
-25.1182
-236.723
228.983
76.0276
25.9249
-13.4092
-211.647
208.816
71.3728
14.168
-0.119672
-203.8
202.02
66.6825
-0.655305
2.82465
-196.536
199.911
57.7709
-3.46375
1.15087
-199.818
203.515
48.0226
-1.90319
-3.97828
-203.214
209.027
32.3051
4.63247
859.219
14.2945
33.6328
-209.776
-215.558
-199.933
-205.488
11.3161
15.6535
12.9822
873.609
27.0756
39.5501
873.873
13.0153
28.2398
863.981
12.3914
19.1617
851.447
2.29707
13.814
-19.1832
4.46172
1172.42
859.857
-2751.58
1065.99
565.533
-2425.42
1141.76
704.16
-1266.92
1089.42
460.924
-453.963
260.507
526.917
-168.809
259.397
239.923
236.843
24.1569
274.762
118.638
-35.2109
2.00921
-25.9841
-72.7113
71.4348
28.3368
-3.08547
-1.72126
-66.1331
-16.1634
65.5581
16.185
2.27473
-1.80061
-62.2548
-20.338
61.3967
20.1061
2.89063
-2.7683
-54.8374
-21.5025
53.7753
22.2209
3.11194
-1.30264
-50.8791
-18.8611
50.9546
18.9508
1.13744
-0.250975
-49.8129
-15.3793
50.387
14.9659
0.0902722
-0.647009
-50.8986
-12.3086
51.7176
11.5859
0.550786
-2.20607
-52.484
-7.82799
53.3744
6.87926
2.26437
-53.6788
-11.2339
215.63
11.448
11.6882
-53.9133
-52.6944
-52.9518
854.872
3.26942
15.1299
-212.549
-213.024
-204.598
-205.066
862.218
0.226787
19.7206
863.537
9.83573
12.6612
860.467
4.46589
1.65271
-17.5824
-1.39498
190.582
949.58
1428.41
303.845
482.521
-1042.01
612.762
565.243
-683.97
605.97
528.416
-102.84
189.795
481.145
21.4468
189.389
169.521
166.88
10.6025
-116.495
210.07
106.026
-20.4091
-3.15601
-26.8426
-61.1856
64.3346
24.2543
2.59525
-7.78983
-21.7654
-68.2808
66.9502
22.4506
8.43518
-3.34135
-24.9612
-56.4009
53.8001
26.7297
4.17362
-1.83293
-24.0799
-50.1879
50.0144
23.9491
2.13726
-0.53626
-19.2523
-51.0743
51.545
18.7027
0.61525
-0.875883
-14.5834
-52.5457
52.7605
14.3596
0.884836
-1.55114
-11.1538
-53.0676
53.0787
11.1154
1.57853
-1.94678
-6.87417
-53.0391
53.0457
7.05051
1.76392
-53.28
6.01772
-11.6675
214.763
8.99211
-5.80353
-53.8064
-52.3675
-52.8476
861.451
-18.247
15.1723
-215.944
-220.888
-205.728
-208.609
866.407
-12.0337
21.4942
869.537
4.30234
7.15871
868.729
1.59402
6.61153
-17.6391
7.44342
72.1493
1038.72
-1106.45
256.235
350.308
299.895
801.263
252.863
-317.385
920.746
411.735
-65.4633
273.907
433.904
133.063
274.196
228.61
230.065
-42.3974
-97.0503
295.175
98.5685
19.6115
-11.1902
-18.5363
-74.445
73.3326
20.7778
10.0611
-1.11634
-22.1092
-65.0453
63.4644
23.1875
1.61886
-1.67648
-30.8584
-63.4058
63.5687
30.4325
1.93938
-4.80055
-24.2627
-61.4293
59.6554
25.5675
5.26961
-3.49103
-18.399
-54.8128
53.9638
18.5911
4.14798
-0.255527
-14.7482
-53.0181
52.9908
14.9552
0.0757734
-0.194405
-11.1231
-53.1754
53.3671
11.1861
-0.060343
1.45599
-6.9797
-54.5141
55.0369
6.76166
-1.76068
-55.7268
4.35417
-6.69713
221.103
5.41975
-4.69189
-55.3058
-54.4979
-53.9577
812.76
-7.31176
19.4288
-216.579
-210.299
-203.559
-197.015
805.328
-1.02403
14.9417
803.328
3.91075
8.88525
799.758
0.340708
13.767
-15.4338
15.8717
1410.72
418.127
-3463.59
894.19
465.332
-213.447
520.675
354.734
59.6426
541.457
396.706
-245.3
152.681
472.228
213.775
139.224
116.462
104.537
-26.4805
-87.6546
181.664
72.1655
12.9866
-5.28069
-23.8716
-57.8357
60.0711
22.3336
4.58329
0.305441
-28.5212
-60.8226
60.3595
28.2327
0.446096
-2.90801
-27.1382
-60.049
60.47
26.5056
3.11947
-5.75472
-28.2867
-60.9025
60.2182
28.3248
6.40086
-1.27329
-21.5788
-56.279
55.067
22.3125
1.75157
1.22131
-16.202
-52.5214
52.2108
16.7446
-1.45319
3.30055
-11.3954
-52.3372
52.692
11.3907
-3.65064
3.10706
-6.26398
-53.649
53.9715
6.16252
-3.32814
-53.728
5.11482
-6.99633
208.834
9.33279
-4.98725
-53.598
-52.0997
-51.8722
742.554
16.1716
34.1046
-202.736
-200.123
-188.118
-184.06
726.525
12.3533
41.6734
718.966
6.93333
28.065
714.26
0.706402
18.4006
-13.8045
12.9003
80.029
1016.09
1018.97
327.691
556.986
-233.419
709.975
639.383
-807.653
725.867
477.366
-161.429
720.498
508.675
145.839
177.186
177.135
53.6257
-48.4359
-19.9352
-47.4299
-17.8723
177.255
161.917
161.528
-16.9871
-17.3901
168.927
95.3993
15.4977
-25.0604
-17.8049
-25.395
-25.9441
-12.6015
-153.281
160.676
94.9656
13.4052
-26.0542
-25.6287
-25.5369
-24.7884
-14.1847
-183.639
193.343
88.2046
16.4291
-25.7082
-24.3834
-25.2735
-24.9566
-12.0658
-190.577
195.159
91.0183
14.469
-24.701
-24.3514
-23.9945
-21.9357
-7.35561
-206.817
212.93
79.5886
7.24109
-21.579
-21.2303
-20.8423
-16.9657
3.37114
-213.954
216.968
62.7213
-4.38288
-16.0671
-16.2944
-15.397
-10.8537
11.6029
-222.477
223.253
41.5656
-12.5432
-10.2233
-10.4446
-9.87935
-6.287
8.87931
-220.039
218.281
27.168
-10.2526
-5.84566
-6.15605
-5.7484
776.12
77.3381
2.49808
-10.8273
-9.59308
-11.9565
-11.2116
-213.311
-212.103
-195.112
-193.757
741.878
46.713
46.5026
706.245
45.6759
50.0742
684.187
27.1968
27.6697
670.68
12.3049
12.444
-9.0333
9.63717
-1007.24
-103.964
944.297
-396.366
163.35
-9.68551
283.041
280.373
-358.077
291.066
438.078
79.5801
454.158
388.706
149.092
399.577
230.597
-20.9248
530.434
386.929
28.3908
-109.797
-151.952
-111.336
-150.539
613.059
154.009
2.97161
-76.7153
-48.8747
-69.5191
-45.8437
710.208
267.923
36.3374
-81.372
-104.968
-81.8185
-103.618
786.607
193.431
35.1862
-75.3412
-64.2867
-71.8941
-60.3516
830.497
243.656
37.4267
-71.9054
-76.1382
-69.0447
-73.2698
848.655
181.301
4.9353
-55.0083
-45.7223
-51.6111
-42.923
844.296
175.023
-9.56715
-42.3127
-43.7953
-40.7844
-42.6305
834.121
109.331
-19.7773
-27.5952
-24.1637
-26.2054
-22.3861
814.343
93.7873
4.62679
784.882
71.6094
36.9364
741.468
82.3185
65.6242
702.785
61.0396
48.5341
674.303
37.0196
28.0865
2.98383
16.4828
666.596
-134.533
-5209.45
801.479
338.177
333.061
748.434
328.47
241.1
690.596
458.937
-28.7563
612.859
371.187
136.975
637.695
203.407
-44.5294
733.31
263.681
49.2858
768.73
118.545
-8.14267
797.854
230.472
27.2053
818.8
172.207
6.364
825.064
235.245
12.2427
826.613
180.906
-3.04224
816.209
183.645
-1.60636
798.82
126.006
-1.91758
768.557
117.954
15.3248
735.063
100.395
31.3515
699.463
111.354
50.5783
665.858
92.5407
34.5353
638.264
62.8348
19.2296
14.8423
8.66481
-915.12
-1183.13
515.27
83.7682
-174.169
517.583
509.174
133.776
711.557
531.104
399.593
377.371
549.477
293.228
375.215
567.812
183.808
104.681
591.309
220.069
148.965
610.407
113.391
10.835
633.966
206.832
17.0367
660.086
153.429
-33.7917
678.023
212.753
-14.3878
691.066
167.783
-24.8329
687.473
179.343
3.73072
674.977
137.193
8.95348
655.693
135.319
27.56
641.252
115.255
17.9238
634.893
114.445
17.4684
633.027
96.0085
2.27794
628.807
65.9123
2.88483
18.0381
3.19572
-37.4329
-2522.3
895.879
77.1857
-542.41
417.278
386.718
-184.403
768.729
521.777
306.352
402.929
533.021
240.577
354.502
570.624
152.507
115.456
556.073
218.84
146.196
557.321
121.926
26.8411
558.049
205.204
23.6376
572.486
145.499
-29.1099
585.122
197.095
-15.5223
596.912
156.963
-24.8936
600.574
170.961
2.92277
598.949
140.582
3.6305
599.582
137.611
19.3249
603.219
115.231
7.19709
611.474
107.749
2.56372
623.025
87.5133
-6.91409
630.504
59.9024
-4.6525
19.1988
-0.894375
318.407
-1944.96
1324.25
-61.7904
-506.456
-590.979
118.844
-299.556
-371.776
231.911
179.378
118.214
322.78
151.473
119.436
388.235
89.2804
-21.8471
414.522
179.032
50.1915
442.742
101.186
-24.6628
472.608
174.475
27.8507
503.88
125.358
-29.8212
537.867
162.199
-2.96753
565.812
134.676
-22.7815
588.739
146.127
6.74789
604.384
130.206
0.178802
618.761
127.045
11.6859
631.544
109.11
-4.02723
647.678
96.3595
-7.61594
669.152
73.5943
-16.2746
687.341
48.401
-15.0788
17.0415
-10.1345
-259.684
-1132.44
529.516
-281.365
-388.388
161.762
-267.034
-155.243
286.381
-89.4629
40.5838
44.6308
180.287
-93.2585
-57.817
245.054
-25.6002
46.513
359.278
50.8531
38.8371
392.559
60.6925
-27.2256
453.277
108.548
-0.247723
495.023
92.6966
-37.258
545.546
112.206
-7.98807
585.478
104.108
-21.718
624.471
112.067
2.37836
655.465
111.711
-3.20427
683.152
112.341
2.1216
707.74
103.739
-17.2674
736.549
86.68
-26.7251
763.874
71.3739
-43.6651
776.389
63.3759
-49.7916
36.3491
-44.4819
1479.27
-665.102
1055.08
252.924
692.816
322.633
583.202
219.09
391.995
284.357
381.122
22.4271
399.297
143.485
449.778
26.1025
516.154
106.296
577.468
78.0044
641.024
122.234
700.803
119.578
760.703
145.439
820.852
149.361
879.8
157.61
943.1
136.346
1001.29
111.921
1054.36
79.0556
1113.96
42.8449
34.2763
700.622
-1455.5
7.39041
995.888
-487.586
184.956
1403.18
-180.398
23.6326
1568.21
61.7814
-60.2438
1628.36
122.89
-126.094
1625.41
83.5923
-26.7316
1568.04
78.2427
81.1399
1516.6
57.9624
61.6505
1444.92
64.872
92.2806
1382.57
53.9756
56.5089
1289.93
66.3381
72.2314
1197.26
63.3995
66.1263
1116.14
54.9085
94.0157
1063.99
37.0877
92.775
1044.12
9.38864
95.2354
1041.96
-6.91197
98.1409
1060.62
-16.5363
93.6055
1089.97
-17.4091
85.0729
1127.45
-19.1018
65.2401
-11.8592
59.6666
546.66
-1570.33
-1917.27
804.754
-759.565
585.568
1096.77
-303.938
309.449
1162.85
-41.2425
-10.2272
1193.95
38.2234
-175.051
1149.64
64.7433
-151.972
1098.31
86.1321
-95.5471
1032.51
105.183
-113.988
975.035
113.902
-78.2054
922.287
112.734
-105.841
891.253
98.4385
-69.3907
873.059
80.3741
-59.2534
868.647
60.997
-24.5885
866.527
46.4769
-22.8882
865.438
21.5897
-14.9058
866.67
7.67449
-10.2478
871.195
-3.03647
-8.95669
875.645
-6.55845
-17.7041
880.084
-12.6459
-18.3806
-11.8559
-14.8479
1015.04
-1735.98
-2014.63
1252.08
-725.254
-287.371
1359.57
-340.715
-470.881
1389.59
-113.782
-95.3969
1331.37
21.7043
-154.71
1239.71
92.3454
-143.543
1143.44
130.72
-90.1068
1068.09
143.854
-110.443
1005.59
144.537
-63.1714
954.638
142.183
-71.1718
915.472
131.586
-7.80349
889.143
126.287
23.3659
872.358
109.623
58.6641
853.35
90.1187
39.6582
837.832
55.2392
34.6483
829.105
32.5114
23.71
826.313
10.6161
15.4013
826.01
1.10737
7.27206
825.939
-7.72866
5.36213
-11.44
5.99777
2498.51
-706.812
121.615
1466.76
-404.362
235.97
1190.46
-222.775
-148.628
1152.45
-84.1477
31.6568
1116.18
67.5254
-32.0408
1063.5
134.636
-48.1254
1028.34
158.035
-26.6039
976.706
186.552
-58.7795
938.287
172.25
-16.2725
894.633
182.714
-24.5475
865.823
171.842
34.0358
844.406
173.887
45.4217
829.862
151.017
56.3732
814.922
122.258
33.2976
803.506
75.1587
21.3607
796.548
45.1857
12.767
794.162
18.1544
9.88204
792.975
6.31808
5.95152
791.475
-4.47776
8.15629
-10.7139
7.66039
1864.43
-11.7119
966.606
1520.83
-211.737
-83.639
1230.16
10.7989
-422.736
1101.98
63.7566
2.46225
1029.65
178.304
-8.12432
945.225
242.946
7.83921
921.198
203.183
28.5304
875.228
246.496
-2.44504
852.456
206.492
24.7058
822.4
224.53
4.67669
806.72
197.986
24.5835
796.069
194.641
14.5174
791.783
159.739
19.8202
786.645
126.596
6.87349
783.516
78.9401
11.8224
780.962
56.459
23.4683
780.462
32.6233
27.3068
778.211
18.5844
18.9241
774.795
2.88749
14.1101
-7.88256
8.69359
1393.26
-69.2147
2972.09
1010.43
400.869
84.1377
846.578
237.539
-511.64
773.354
196.955
-1.2512
804.556
204.248
-37.917
756.751
312.549
22.0766
813.256
172.14
31.9374
765.198
306.618
2.32185
762.48
216.384
11.7076
736.491
251.889
-11.5574
727.335
205.186
-0.607829
717.212
201.318
-4.7285
717.478
156.48
7.80492
720.797
126.78
18.5534
723.828
85.544
25.3844
726.678
63.4382
23.0101
728.394
36.7662
13.6704
730.504
19.3836
6.09555
733.619
1.54056
5.89351
-11.6964
8.13274
2988.13
346.402
2046.3
2218.53
964.643
747.48
1369.48
684.377
10.6966
1072.92
409.498
138.91
919.109
340.588
45.551
750.079
487.905
33.688
732.971
66.8039
35.0809
37.4902
63.5159
35.8656
684.399
87.2774
47.0044
99.7659
89.6025
99.2794
684.153
66.0893
22.0685
49.9545
63.0668
47.4482
666.28
67.4973
7.20269
70.9405
66.1429
68.9395
667.466
56.1108
2.36513
47.63
53.1054
44.4344
665.1
51.9736
-4.04505
50.1124
49.4726
47.6376
672.703
40.928
6.45538
34.0058
38.5236
31.9137
683.345
31.543
7.41154
27.5872
30.4338
27.4025
697.462
77.1764
15.4996
709.751
56.8299
15.6514
718.447
33.2488
14.3872
723.363
19.2551
10.1731
726.996
1.12556
8.23428
-14.5198
8.57251
463.009
1314.78
-1636.5
900.854
780.445
995.387
1041.81
670.147
383.723
1038.43
424.737
63.6992
904.022
432.78
4.78155
198.337
135.572
-53.3108
200.129
183.311
183.664
157.833
137.697
159.602
3.71632
185.29
83.391
-7.25703
-20.8885
-163.667
172.95
78.6005
20.2822
-23.555
-179.018
176.848
73.6175
18.1968
-12.651
-166.09
168.963
67.2117
10.0634
0.382667
-167.714
167.832
57.3001
-1.68922
2.75862
-163.509
167.755
47.7724
-2.80373
0.871594
-168.469
172.836
36.9864
-1.29693
-5.93776
-173.236
179.358
25.7995
5.55985
726.271
18.1658
20.467
-178.8
-185.071
-167.851
-173.253
14.6952
19.5207
16.6652
739.348
54.3854
28.9174
742.317
38.0124
20.5071
739.615
28.0293
13.0895
737.723
6.52262
10.3089
-15.1135
6.50174
1117.45
921.035
-5128.5
991.767
733.585
-2252.88
1053
751.138
-1409.14
921.323
485.694
-383.239
202.534
554.915
-135.23
199.183
184.455
179.435
35.1281
205.166
131.536
-33.7241
2.08154
-25.9307
-53.4606
51.3954
28.7681
-2.8539
-3.21881
-46.1337
-19.259
46.3444
18.9397
3.32737
-4.10464
-46.2897
-20.8159
46.2523
20.9906
3.96723
-3.1448
-42.8945
-19.1042
43.0282
19.3159
2.79945
-0.892455
-42.7049
-15.9552
43.2576
15.6969
0.59814
-0.0683975
-42.8543
-12.4273
43.5767
11.8657
-0.0924458
-0.742793
-44.3394
-9.4072
45.2073
8.69174
0.590349
-2.3603
-45.9115
-6.5122
46.8056
5.78654
2.19185
-47.0627
-10.4786
189.716
16.5939
8.9762
-47.5049
-45.8258
-46.2486
737.148
41.2087
13.4631
-185.689
-187.225
-174.189
-175.201
741.55
37.0375
16.2936
744.111
29.6039
8.52523
742.875
7.59688
1.8145
-17.3971
2.76991
326.799
202.776
95.4739
452.523
500.839
-934.991
436.852
615.503
-532.663
393.622
534.587
-108.503
131.084
519.92
-21.141
125.648
110.791
103.681
18.4662
-127.379
146.162
114.268
-20.4323
-3.77178
-30.4866
-45.24
47.5279
28.769
3.20148
-8.64038
-24.6822
-49.2385
48.4691
25.9484
8.14366
-4.87412
-24.0763
-45.3458
44.53
25.1302
4.63597
-2.63663
-20.619
-43.7557
43.9511
20.6185
2.44173
-45.1288
-0.759449
-15.7712
45.4658
15.5109
0.682713
-46.0955
-0.585504
-12.0263
12.0627
0.511149
46.1335
-1.14704
-8.9606
-46.2682
46.3478
9.10135
0.926648
-0.98538
-6.38042
-46.6123
46.7616
6.48962
0.72685
-46.8351
4.17936
-16.9474
185.653
14.5405
-2.79448
-46.9702
-45.423
-45.4023
728.586
27.6349
13.1516
-184.876
-186.111
-171.351