/*--------------------------------*- C++ -*----------------------------------*\
  =========                 |
  \\      /  F ield         | OpenFOAM: The Open Source CFD Toolbox
   \\    /   O peration     | Website:  https://openfoam.org
    \\  /    A nd           | Version:  10
     \\/     M anipulation  |
\*---------------------------------------------------------------------------*/
FoamFile
{
    format      ascii;
    class       volScalarField;
    location    "3.7";
    object      turbidity_0;
}
// * * * * * * * * * * * * * * * * * * * * * * * * * * * * * * * * * * * * * //

dimensions      [0 0 0 0 0 0 0];

internalField   nonuniform List<scalar> 
12920
(
-0.0210834
-0.0347391
-0.050441
-0.0662539
-0.081391
-0.0972938
-0.114441
-0.133202
-0.152658
-0.172779
-0.1937
-0.217534
-0.248458
-0.291296
-0.344242
-0.397769
-0.444935
-0.485921
-0.52176
-0.552652
-0.0223236
-0.0251402
-0.038669
-0.0545222
-0.070088
-0.0835316
-0.0989089
-0.114193
-0.136125
-0.163138
-0.196315
-0.230241
-0.265097
-0.299303
-0.334581
-0.371917
-0.413865
-0.458399
-0.50174
-0.540247
-0.0435708
-0.0446322
-0.052377
-0.0574597
-0.0621362
-0.0683575
-0.0779686
-0.0883041
-0.101733
-0.118876
-0.143275
-0.175976
-0.220276
-0.271829
-0.323522
-0.371988
-0.415867
-0.456693
-0.49677
-0.537225
-0.0340078
-0.0645833
-0.0791934
-0.0870977
-0.0927528
-0.096528
-0.104216
-0.113158
-0.12763
-0.147063
-0.173063
-0.207451
-0.249814
-0.294544
-0.336075
-0.372105
-0.404206
-0.437714
-0.474782
-0.514343
-0.0216807
-0.0585772
-0.0856286
-0.109114
-0.124017
-0.134317
-0.144822
-0.157612
-0.174137
-0.193101
-0.214102
-0.236559
-0.259364
-0.280424
-0.299816
-0.321637
-0.353572
-0.395762
-0.441507
-0.485795
-0.0479136
-0.0716746
-0.0671332
-0.0977177
-0.1269
-0.150329
-0.169116
-0.184254
-0.199421
-0.212701
-0.227581
-0.244265
-0.26721
-0.295151
-0.329017
-0.365441
-0.398358
-0.426076
-0.452428
-0.477998
-0.0397232
-0.0529288
-0.0592971
-0.0812008
-0.107238
-0.1407
-0.168249
-0.193846
-0.213771
-0.227819
-0.240387
-0.256007
-0.279353
-0.30466
-0.325537
-0.338267
-0.345413
-0.356951
-0.37463
-0.394043
-0.0363148
-0.0433029
-0.0510838
-0.0596044
-0.069057
-0.0883216
-0.0930781
-0.106756
-0.135949
-0.164442
-0.191488
-0.210416
-0.228913
-0.241096
-0.201639
-0.2016
-0.210779
-0.229844
-0.254451
-0.279622
-0.0202223
-0.0197422
-0.0315618
-0.0471579
-0.0681165
-0.0735285
-0.0795683
-0.0846307
-0.102825
-0.127727
-0.151306
-0.165805
-0.174981
-0.169707
-0.122276
-0.140219
-0.171037
-0.199988
-0.226897
-0.252985
-0.0292869
-0.0311386
-0.046797
-0.0676548
-0.0850869
-0.0812189
-0.0778082
-0.0804938
-0.104735
-0.123877
-0.130788
-0.128664
-0.122746
-0.108037
-0.099468
-0.138165
-0.172968
-0.205727
-0.237787
-0.271374
-0.0227838
-0.034253
-0.0444025
-0.0535081
-0.0642082
-0.0637592
-0.0647687
-0.0693381
-0.0768955
-0.0904465
-0.104521
-0.105424
-0.0975938
-0.0922512
-0.107611
-0.153369
-0.195267
-0.236577
-0.279392
-0.326288
-0.00867034
-0.0173505
-0.0319737
-0.0474163
-0.0680069
-0.0728267
-0.0768302
-0.0766302
-0.0803859
-0.0875747
-0.0985669
-0.101099
-0.101209
-0.104449
-0.115776
-0.179274
-0.240301
-0.306475
-0.375435
-0.44304
-0.0144954
-0.0337271
-0.0478987
-0.063804
-0.0839084
-0.117219
-0.121205
-0.117225
-0.113069
-0.111025
-0.111954
-0.113373
-0.114555
-0.117751
-0.165604
-0.225988
-0.30126
-0.389007
-0.479019
-0.562252
-0.0520785
-0.0498919
-0.0598557
-0.0798381
-0.104695
-0.128636
-0.14545
-0.15872
-0.164679
-0.172468
-0.178899
-0.189765
-0.201894
-0.222518
-0.256274
-0.299607
-0.357735
-0.435862
-0.525679
-0.613222
-0.0317303
-0.0402563
-0.0458633
-0.0636066
-0.0924861
-0.114971
-0.136023
-0.151597
-0.166452
-0.181304
-0.195915
-0.211577
-0.229192
-0.251977
-0.280794
-0.318547
-0.370335
-0.439565
-0.520401
-0.601391
-0.034533
-0.0555358
-0.0732392
-0.0877646
-0.105684
-0.124553
-0.142924
-0.162557
-0.178799
-0.190021
-0.205693
-0.225303
-0.252714
-0.286728
-0.328078
-0.376766
-0.428755
-0.484398
-0.542424
-0.598549
-0.0203951
-0.036321
-0.0591707
-0.0838163
-0.106155
-0.128554
-0.151491
-0.174959
-0.193278
-0.204345
-0.220031
-0.241899
-0.274567
-0.315092
-0.362911
-0.414572
-0.462209
-0.503542
-0.544411
-0.582512
-0.0158419
-0.0313809
-0.0592359
-0.0879406
-0.107925
-0.122434
-0.14154
-0.16515
-0.191704
-0.211459
-0.23283
-0.254816
-0.285954
-0.324181
-0.369028
-0.415359
-0.455352
-0.487179
-0.515377
-0.540872
-0.0123308
-0.0279958
-0.0552827
-0.101099
-0.124006
-0.143138
-0.166001
-0.184294
-0.209126
-0.226665
-0.249844
-0.273983
-0.303934
-0.337995
-0.374826
-0.407492
-0.428545
-0.439274
-0.44365
-0.447662
-0.00801244
-0.0244085
-0.0436265
-0.0641221
-0.089743
-0.134542
-0.180336
-0.216766
-0.240732
-0.260862
-0.279682
-0.299922
-0.322364
-0.347313
-0.373254
-0.397221
-0.417027
-0.43284
-0.445965
-0.45826
-0.00360126
-0.00842027
-0.0170542
-0.0171941
-0.0174992
-0.0159765
-0.0183734
-0.0218421
-0.0287906
-0.0338078
-0.0384846
-0.0456069
-0.0649298
-0.0969396
-0.135969
-0.174219
-0.205805
-0.227636
-0.238114
-0.240316
-0.00990749
-0.0106547
-0.0104095
-0.00657532
-0.00623408
-0.00810119
-0.0121148
-0.0183452
-0.0263455
-0.0349958
-0.0445112
-0.0555422
-0.0697301
-0.0865958
-0.107214
-0.126485
-0.135172
-0.129569
-0.117174
-0.104529
-0.0142046
-0.0149418
-0.013579
-0.011395
-0.0092335
-0.00851009
-0.00980013
-0.0142738
-0.0228405
-0.0367967
-0.0589086
-0.0860689
-0.110564
-0.130238
-0.146192
-0.153009
-0.151913
-0.148204
-0.146365
-0.145857
-0.00507279
-0.019316
-0.0239456
-0.0241007
-0.0207176
-0.0177198
-0.0180377
-0.0227263
-0.0336722
-0.051174
-0.0768685
-0.099329
-0.112689
-0.118054
-0.118454
-0.117261
-0.117322
-0.117859
-0.120883
-0.123504
-0.00488427
-0.0200772
-0.0209678
-0.0319512
-0.0399591
-0.0407478
-0.0441245
-0.0456331
-0.0516787
-0.0577552
-0.0662686
-0.0718178
-0.0749901
-0.0788523
-0.0897425
-0.105906
-0.114738
-0.109435
-0.10008
-0.0916712
-0.00324205
-0.0163579
-0.010604
-0.0224538
-0.0358971
-0.0409885
-0.0445535
-0.0404554
-0.0386472
-0.0381108
-0.0410016
-0.0457451
-0.0527146
-0.0652406
-0.0767835
-0.0795393
-0.0724376
-0.0624171
-0.0555093
-0.0505406
-0.03302
-0.0282138
-0.0137361
-0.0145585
-0.0230443
-0.0370798
-0.0471115
-0.0475529
-0.0395091
-0.0341401
-0.0358653
-0.0431723
-0.0549977
-0.0702637
-0.0838652
-0.0879758
-0.0845675
-0.0747613
-0.0617914
-0.0492465
-0.010533
-0.0246326
-0.0156218
-0.00885963
-0.00935004
-0.0180422
-0.0252084
-0.0482965
-0.0632391
-0.0557409
-0.0404461
-0.0442357
-0.0586077
-0.0836005
-0.0910127
-0.0894274
-0.0840004
-0.0752209
-0.063647
-0.0512913
-0.00178656
-0.00159489
-0.00268337
-0.00596798
-0.0148477
-0.0204199
-0.0276652
-0.0476763
-0.0572304
-0.0665149
-0.0568532
-0.0599117
-0.0809833
-0.103217
-0.0962283
-0.0809478
-0.0810132
-0.0760724
-0.0674788
-0.0596454
-0.0105128
-0.00180894
-0.00319963
-0.00636694
-0.0154666
-0.0177515
-0.032359
-0.0589474
-0.0772775
-0.07818
-0.0730034
-0.0804841
-0.0883564
-0.0851451
-0.0706542
-0.0798993
-0.0880456
-0.0889455
-0.0859269
-0.0818504
-0.00392023
-0.00517497
-0.00863847
-0.0126987
-0.0244752
-0.0302083
-0.0373038
-0.0312594
-0.0480784
-0.0731762
-0.0751148
-0.0594836
-0.0591138
-0.0605357
-0.062703
-0.0862345
-0.0980373
-0.103084
-0.106637
-0.107695
-0.000586363
-0.00208271
-0.00903345
-0.0180271
-0.0383537
-0.0435431
-0.0476627
-0.0410394
-0.0579836
-0.0789112
-0.0817298
-0.0693068
-0.0596841
-0.0551544
-0.0628966
-0.0995065
-0.114137
-0.115587
-0.111417
-0.104706
-0.00683609
-0.00730499
-0.0142822
-0.0219807
-0.0398457
-0.0446067
-0.0515251
-0.0611816
-0.0719833
-0.0773988
-0.0762643
-0.0672122
-0.056794
-0.0542574
-0.077608
-0.109278
-0.129044
-0.129673
-0.121332
-0.114201
-0.025216
-0.0132757
-0.016454
-0.0207514
-0.0377985
-0.0243701
-0.0334921
-0.0333243
-0.0427714
-0.0457577
-0.0451063
-0.0398138
-0.0397669
-0.050594
-0.077388
-0.115327
-0.14787
-0.15896
-0.152674
-0.139689
-0.00753147
-0.00791662
-0.00767013
-0.0114165
-0.0186224
-0.0208949
-0.0263707
-0.0247597
-0.0277803
-0.0269039
-0.0282661
-0.0291215
-0.0344558
-0.0461802
-0.0690082
-0.0979711
-0.121162
-0.122815
-0.109277
-0.0963399
-0.0402408
-0.0448175
-0.0395295
-0.0382795
-0.0476283
-0.0470929
-0.0465826
-0.0316529
-0.0228032
-0.018947
-0.0213268
-0.0270427
-0.0388664
-0.0537467
-0.0682879
-0.0760949
-0.0790682
-0.0751418
-0.0723587
-0.073105
-0.00398538
-0.0300355
-0.0419238
-0.0436537
-0.0496478
-0.0510359
-0.051843
-0.0344965
-0.0225996
-0.0184632
-0.0229636
-0.033022
-0.0498109
-0.0652963
-0.0745818
-0.0713562
-0.0661355
-0.0648554
-0.0691017
-0.0769918
-0.00229855
-0.0150238
-0.028115
-0.0331734
-0.0348773
-0.0289888
-0.0381603
-0.0327148
-0.0314145
-0.0256887
-0.0287345
-0.0384905
-0.0552363
-0.0669505
-0.0712827
-0.063348
-0.0572597
-0.0550061
-0.0559146
-0.0587956
-0.00725015
-0.0181676
-0.0292485
-0.0226116
-0.0284783
-0.027557
-0.0325956
-0.0275152
-0.0260715
-0.0271882
-0.033925
-0.0442036
-0.0597092
-0.0685845
-0.0692729
-0.0582678
-0.0491353
-0.0431509
-0.0400665
-0.0397312
-0.00406925
-0.00835607
-0.0170656
-0.0238237
-0.0361556
-0.0393975
-0.0619595
-0.0651339
-0.0785876
-0.0894951
-0.105948
-0.122913
-0.141556
-0.157077
-0.168597
-0.173162
-0.172434
-0.166184
-0.155899
-0.14852
-0.00262025
-0.00387558
-0.00383083
-0.00438801
-0.00471201
-0.00550163
-0.00758464
-0.0106022
-0.0148489
-0.0197039
-0.0267768
-0.0382787
-0.0559341
-0.0777415
-0.0995564
-0.118102
-0.131227
-0.138346
-0.137849
-0.13253
-0.00654534
-0.00720788
-0.0053702
-0.00493481
-0.0060379
-0.00858534
-0.012559
-0.0179286
-0.0239234
-0.0301219
-0.0366233
-0.0428137
-0.0479011
-0.0500946
-0.0500769
-0.0483392
-0.0438501
-0.0380839
-0.0339051
-0.0315142
-0.00604738
-0.00834601
-0.00803332
-0.00747375
-0.00695417
-0.00776376
-0.0108182
-0.0169816
-0.025984
-0.0369034
-0.0498677
-0.0613006
-0.0691899
-0.0724059
-0.0719575
-0.067616
-0.0616745
-0.0561846
-0.0527569
-0.051289
-0.00177858
-0.00702817
-0.0106197
-0.0127925
-0.0128979
-0.013111
-0.0157222
-0.0213555
-0.0304254
-0.0407149
-0.0519587
-0.058865
-0.0602887
-0.0579404
-0.0546448
-0.0520777
-0.0505071
-0.0494659
-0.0493897
-0.0495836
-0.00391807
-0.00519157
-0.00792855
-0.0129676
-0.0169252
-0.0184385
-0.0215514
-0.0243912
-0.0294849
-0.0342727
-0.038986
-0.0417181
-0.0431462
-0.0444464
-0.0470027
-0.0492962
-0.0479042
-0.0430919
-0.0388489
-0.0363197
-0.00546438
-0.00545624
-0.0068904
-0.0109954
-0.0145634
-0.0166213
-0.0188562
-0.0199389
-0.0223362
-0.0251124
-0.0277369
-0.0297296
-0.0310281
-0.0321583
-0.0317833
-0.0294915
-0.026136
-0.0237957
-0.0232311
-0.0241825
-0.0084688
-0.0129845
-0.0093555
-0.00801542
-0.0115272
-0.0157139
-0.0189343
-0.0201952
-0.0211926
-0.023542
-0.0267524
-0.0300153
-0.0332366
-0.0355369
-0.0360264
-0.033671
-0.029817
-0.025732
-0.0230772
-0.0225821
-0.00526186
-0.0147886
-0.0071227
-0.00461041
-0.00635354
-0.0110294
-0.0143984
-0.0228524
-0.025241
-0.0255459
-0.0282791
-0.0340936
-0.0411222
-0.0492592
-0.0480588
-0.043568
-0.037031
-0.0302947
-0.0252093
-0.0229618
-0.00160209
-0.00176082
-0.00193337
-0.00458764
-0.0119591
-0.0150018
-0.0178034
-0.0264271
-0.0276092
-0.0288712
-0.0332479
-0.0424565
-0.053175
-0.0620094
-0.0584691
-0.0434513
-0.0380232
-0.0315446
-0.0266505
-0.0247149
-0.0030538
-0.000952889
-0.00179583
-0.00413594
-0.00922034
-0.0143047
-0.0244431
-0.0401485
-0.0355783
-0.0316687
-0.033345
-0.0388453
-0.0457354
-0.0510407
-0.0514795
-0.0474402
-0.04441
-0.038908
-0.0346153
-0.0322732
-0.00194978
-0.00322165
-0.00546597
-0.00771072
-0.0140724
-0.01561
-0.0189274
-0.022959
-0.0318541
-0.0394142
-0.0366672
-0.036054
-0.0371226
-0.0379713
-0.0470044
-0.0515377
-0.0489816
-0.0457311
-0.0443454
-0.0429032
-0.000407052
-0.00256192
-0.00731971
-0.0113998
-0.0231568
-0.0227076
-0.0260083
-0.0307851
-0.0444849
-0.0522183
-0.0457602
-0.0344456
-0.0279627
-0.0318096
-0.0508809
-0.057369
-0.0542101
-0.0486298
-0.0440564
-0.0405248
-0.00110797
-0.00172626
-0.00614217
-0.0113094
-0.021935
-0.0215965
-0.0259733
-0.0331245
-0.0387266
-0.0409427
-0.0367336
-0.029459
-0.028517
-0.0371848
-0.0546894
-0.0621563
-0.0604059
-0.0528782
-0.0462159
-0.0425739
-0.00790357
-0.00285089
-0.00557088
-0.00817656
-0.0148394
-0.0104391
-0.0163672
-0.0152839
-0.0189202
-0.0188792
-0.0194587
-0.0215477
-0.0281154
-0.0385611
-0.0517819
-0.0640547
-0.0692077
-0.0638735
-0.0553377
-0.0491276
-0.00641662
-0.00367927
-0.00504993
-0.00694876
-0.0101683
-0.0100203
-0.0114975
-0.0102099
-0.0117867
-0.0123898
-0.0147187
-0.0182244
-0.0241029
-0.031408
-0.0406784
-0.0485882
-0.0513666
-0.0464331
-0.0404646
-0.0378386
-0.0203675
-0.0169558
-0.0159
-0.0194983
-0.0248036
-0.0186895
-0.0153549
-0.00991698
-0.00950303
-0.0108118
-0.0137721
-0.0176952
-0.0229997
-0.0278078
-0.0323369
-0.0344674
-0.0347447
-0.0331818
-0.0322143
-0.0321739
-0.00322158
-0.0187643
-0.0222298
-0.0195335
-0.0231544
-0.0188974
-0.0161357
-0.0106155
-0.0102274
-0.0127299
-0.0165357
-0.02106
-0.0259493
-0.0290106
-0.0308892
-0.0310036
-0.0313041
-0.031969
-0.0330556
-0.0342395
-0.00270559
-0.00937521
-0.0108851
-0.0129047
-0.0145243
-0.0122866
-0.0143507
-0.0126207
-0.0134727
-0.0157302
-0.0193045
-0.0227321
-0.0260918
-0.0268437
-0.0267324
-0.0257776
-0.0257647
-0.0263308
-0.0273221
-0.0286384
-0.00674887
-0.00855637
-0.0105866
-0.0108003
-0.0133257
-0.0138294
-0.0142088
-0.0139775
-0.0152582
-0.0175103
-0.020294
-0.0223192
-0.0240851
-0.0239719
-0.0234199
-0.0228385
-0.0228366
-0.0234169
-0.0245794
-0.0263292
-0.00291174
-0.00595902
-0.011786
-0.0128883
-0.0174248
-0.0190012
-0.0296749
-0.0341923
-0.0433308
-0.0522453
-0.0634022
-0.074286
-0.0851267
-0.0932865
-0.0985345
-0.0989814
-0.0960214
-0.0904986
-0.0839853
-0.0793344
-0.00159881
-0.00188748
-0.00180492
-0.00258478
-0.00408668
-0.00579449
-0.00783099
-0.0107841
-0.0150812
-0.0216798
-0.031184
-0.0435314
-0.0570748
-0.0696666
-0.0797932
-0.0865856
-0.0890884
-0.0873541
-0.0812874
-0.0730797
-0.0025503
-0.00477058
-0.00435905
-0.00524362
-0.00744012
-0.0107837
-0.0147674
-0.0191148
-0.0232098
-0.0269312
-0.030119
-0.0315034
-0.0311703
-0.0289586
-0.0262179
-0.0242132
-0.0228087
-0.0224687
-0.0223406
-0.0229594
-0.00386515
-0.00595796
-0.00646468
-0.00624943
-0.0065021
-0.00879822
-0.013422
-0.0190627
-0.0249652
-0.0293616
-0.0333078
-0.0344175
-0.0337122
-0.0311795
-0.0283701
-0.0256261
-0.023794
-0.0230134
-0.0233905
-0.0244732
-0.00511172
-0.0063273
-0.00847419
-0.00964486
-0.00972804
-0.0113602
-0.0154223
-0.0198163
-0.0246585
-0.0275433
-0.0300427
-0.029602
-0.0277917
-0.0256058
-0.0241475
-0.0235025
-0.0235774
-0.0241687
-0.0254073
-0.0269011
-0.00119444
-0.00195523
-0.00550882
-0.0101794
-0.0121641
-0.0134464
-0.016031
-0.0181566
-0.020539
-0.0216808
-0.0225747
-0.0224622
-0.0224201
-0.0224414
-0.0228797
-0.0230853
-0.0226535
-0.0223501
-0.0231366
-0.024886
-0.00177665
-0.00245799
-0.00508774
-0.00929057
-0.0112143
-0.0123606
-0.0138981
-0.0150617
-0.01606
-0.0166022
-0.0166969
-0.0167059
-0.0167594
-0.0169979
-0.0171673
-0.0176382
-0.0187307
-0.0207192
-0.0235177
-0.026939
-0.00258455
-0.00441607
-0.00484916
-0.00725286
-0.0095561
-0.0114529
-0.0133305
-0.0145856
-0.0152928
-0.0155858
-0.0157917
-0.0160793
-0.0165664
-0.0169544
-0.0173181
-0.0178075
-0.0189346
-0.0210032
-0.0240603
-0.027897
-0.00237786
-0.00737913
-0.00350843
-0.00408841
-0.0066817
-0.00999192
-0.0120048
-0.0154482
-0.016577
-0.0172508
-0.0176889
-0.0192545
-0.0208417
-0.0222231
-0.0189581
-0.0183114
-0.0182349
-0.0194243
-0.0219841
-0.0255938
-0.000404711
-0.000832577
-0.00163332
-0.00472686
-0.0107308
-0.0122219
-0.0132498
-0.016231
-0.018129
-0.0207024
-0.0234003
-0.0274963
-0.0309031
-0.0320797
-0.0237233
-0.0159061
-0.0160314
-0.0171855
-0.0196348
-0.0230267
-0.00152129
-0.000919389
-0.00179999
-0.00459918
-0.00930985
-0.0132017
-0.0181144
-0.0209713
-0.02018
-0.022132
-0.0249716
-0.0283265
-0.0287292
-0.0251249
-0.0180212
-0.016583
-0.0170164
-0.0180329
-0.0201859
-0.0229829
-0.00138024
-0.00276536
-0.00389357
-0.00651611
-0.0112811
-0.0124802
-0.0152538
-0.0179768
-0.0224277
-0.0250976
-0.0251636
-0.0258181
-0.0262133
-0.0265363
-0.0248777
-0.0202018
-0.0202304
-0.0213868
-0.0233519
-0.0252273
-0.0007963
-0.0029115
-0.00549323
-0.00948958
-0.0149855
-0.0168544
-0.0203682
-0.0256658
-0.0302217
-0.0291627
-0.0222073
-0.0192302
-0.0218991
-0.0262911
-0.0271242
-0.0244949
-0.0241023
-0.0239012
-0.0243308
-0.025273
-0.000569173
-0.00121015
-0.00376759
-0.00752449
-0.0131985
-0.0117413
-0.0151235
-0.0186868
-0.0200027
-0.0189688
-0.0170245
-0.018603
-0.0227489
-0.0275627
-0.0286159
-0.0290932
-0.0276114
-0.0261969
-0.0260835
-0.027041
-0.000787736
-0.00155893
-0.00320686
-0.00499723
-0.00776205
-0.00608306
-0.00941112
-0.00885434
-0.0112707
-0.0128251
-0.0156067
-0.0191055
-0.0230382
-0.0268601
-0.0301759
-0.0321899
-0.0320104
-0.0303564
-0.0298724
-0.0310445
-0.00481076
-0.00224529
-0.00383995
-0.00490088
-0.00620912
-0.00556431
-0.00683335
-0.00719856
-0.00918753
-0.0112571
-0.0141591
-0.0169767
-0.0200728
-0.0226081
-0.0252596
-0.0268847
-0.0275498
-0.0277565
-0.0292253
-0.0319996
-0.0151029
-0.0053541
-0.00735307
-0.0100007
-0.0106329
-0.00705904
-0.00681385
-0.00738279
-0.00922087
-0.0114895
-0.0139268
-0.0161261
-0.0183954
-0.0200353
-0.0217096
-0.0228277
-0.0239953
-0.0253558
-0.0271933
-0.0292671
-0.00811546
-0.00977664
-0.0101393
-0.0089581
-0.0107966
-0.00773753
-0.00755678
-0.00867631
-0.0105195
-0.0128732
-0.0148536
-0.0165931
-0.0181698
-0.0192725
-0.0205019
-0.0217179
-0.0232497
-0.0250038
-0.0269486
-0.0291911
-0.00215195
-0.00548694
-0.00567352
-0.00738775
-0.00813392
-0.0081234
-0.00897145
-0.0103866
-0.0119286
-0.0135037
-0.0147907
-0.0155989
-0.0164526
-0.0170499
-0.0179918
-0.0192841
-0.0208077
-0.0225576
-0.0244959
-0.0270259
-0.00205286
-0.00659029
-0.00787206
-0.00876583
-0.00974114
-0.0108098
-0.0111547
-0.012699
-0.0136815
-0.0148785
-0.0156595
-0.0164063
-0.0170636
-0.0178314
-0.0187526
-0.0199149
-0.0213641
-0.0231594
-0.0249639
-0.0263009
-0.00394757
-0.00605653
-0.0087195
-0.00967294
-0.0132872
-0.0157146
-0.0214657
-0.0261524
-0.0327535
-0.039713
-0.0472921
-0.054182
-0.0602976
-0.0641021
-0.0657389
-0.0640477
-0.060038
-0.0545286
-0.0480632
-0.0435677
-0.00152659
-0.00162927
-0.00200429
-0.00329386
-0.00580611
-0.00944694
-0.0133453
-0.0185459
-0.0246612
-0.0314961
-0.0375635
-0.0422383
-0.0452795
-0.046406
-0.0458446
-0.0435739
-0.0393644
-0.03407
-0.0284654
-0.0244455
-0.00172133
-0.0037839
-0.00455596
-0.00725835
-0.0111684
-0.0157905
-0.019639
-0.0226828
-0.0246272
-0.0248744
-0.0241828
-0.0228749
-0.0218325
-0.0209263
-0.020294
-0.0200302
-0.0197193
-0.0194929
-0.0192175
-0.0189881
-0.00851333
-0.00709225
-0.00590273
-0.00591284
-0.00842141
-0.0122107
-0.0154008
-0.0167231
-0.0172156
-0.0167942
-0.0168292
-0.016477
-0.0166012
-0.0167028
-0.017027
-0.0173646
-0.0176475
-0.01777
-0.0176846
-0.0174582
-0.00925071
-0.00869099
-0.00862666
-0.00822925
-0.00924599
-0.0110539
-0.0128977
-0.0136177
-0.0143852
-0.0145798
-0.0153768
-0.0156971
-0.0163458
-0.0170941
-0.0179751
-0.0187707
-0.0194148
-0.0197782
-0.0199291
-0.0198576
-0.00183337
-0.00435599
-0.00826415
-0.00990814
-0.00986536
-0.010371
-0.0113882
-0.0118902
-0.0127885
-0.0134186
-0.0145025
-0.0154894
-0.0167448
-0.0179548
-0.0192235
-0.0203928
-0.0214881
-0.0224636
-0.0233495
-0.0241021
-0.000668962
-0.00291765
-0.00659123
-0.00941834
-0.00956693
-0.00984456
-0.0105276
-0.0111061
-0.0121134
-0.0132661
-0.0147669
-0.0162754
-0.0178639
-0.0193501
-0.0207914
-0.0220864
-0.023241
-0.0242289
-0.0251448
-0.0261158
-0.00291861
-0.00450893
-0.0064747
-0.0080377
-0.00897713
-0.00984911
-0.0107156
-0.0114232
-0.0125119
-0.0137934
-0.0154159
-0.0170026
-0.0185818
-0.0199942
-0.0211967
-0.0221201
-0.0227072
-0.0230307
-0.023157
-0.023409
-0.000778186
-0.00332498
-0.00398197
-0.00621171
-0.00840678
-0.00979592
-0.0105472
-0.0118069
-0.0120608
-0.0128303
-0.013794
-0.0148961
-0.0161369
-0.0175345
-0.0192997
-0.0199575
-0.0200275
-0.0196115
-0.0188499
-0.018237
-0.000148785
-0.000524465
-0.00224375
-0.00644044
-0.00958033
-0.0102739
-0.0106378
-0.0118312
-0.012141
-0.0120885
-0.0120778
-0.0122088
-0.0126982
-0.0139424
-0.0169977
-0.0176098
-0.0178311
-0.0172618
-0.0160924
-0.0147723
-0.000967583
-0.00111543
-0.00248941
-0.00629887
-0.00925779
-0.010976
-0.0122191
-0.0129955
-0.0130154
-0.0127332
-0.0121998
-0.0112135
-0.010837
-0.0118061
-0.0153965
-0.0172238
-0.0181035
-0.0181344
-0.0173311
-0.0159217
-0.000823836
-0.00247011
-0.00455655
-0.00782525
-0.0103021
-0.0113362
-0.0125572
-0.0136904
-0.0147037
-0.0142022
-0.0129954
-0.0120604
-0.0119611
-0.0125272
-0.0152279
-0.0181882
-0.0196374
-0.0204894
-0.0205852
-0.0199738
-0.00116313
-0.00248217
-0.00493816
-0.00819562
-0.0102254
-0.0120973
-0.0137192
-0.0150285
-0.0145528
-0.0133834
-0.0129989
-0.0134849
-0.0140477
-0.0146567
-0.0172404
-0.0202309
-0.0212951
-0.0219381
-0.0220752
-0.0217905
-0.00046646
-0.0016874
-0.00350167
-0.00608034
-0.00817331
-0.00828458
-0.00957077
-0.0109344
-0.0119905
-0.0136449
-0.0154746
-0.017229
-0.0186157
-0.0199238
-0.0232668
-0.024412
-0.0252458
-0.0259311
-0.0262922
-0.0264311
-0.000656412
-0.00142252
-0.00276466
-0.00425391
-0.00573466
-0.00707376
-0.00952737
-0.0118629
-0.0142497
-0.0167467
-0.0189745
-0.0212189
-0.0231006
-0.0250205
-0.02667
-0.0284249
-0.0301472
-0.0320719
-0.034021
-0.0359043
-0.00308913
-0.00145339
-0.00276355
-0.00397776
-0.00522084
-0.00708213
-0.00927144
-0.0118544
-0.0144147
-0.0170479
-0.0194162
-0.0217694
-0.0238402
-0.0258505
-0.0276096
-0.0292752
-0.0307642
-0.0320994
-0.0331745
-0.0340937
-0.0155758
-0.00424772
-0.00382754
-0.0052089
-0.00609258
-0.00776555
-0.00996709
-0.01282
-0.0153007
-0.0179664
-0.0202769
-0.0227028
-0.0247169
-0.026726
-0.0282905
-0.0295619
-0.0302524
-0.0302662
-0.0296288
-0.0285932
-0.00277045
-0.00398575
-0.00434463
-0.00516539
-0.00665195
-0.00840441
-0.010591
-0.0130969
-0.0155241
-0.0178763
-0.0203866
-0.0229458
-0.0254981
-0.0281756
-0.0305996
-0.0329321
-0.0348747
-0.0365226
-0.0376549
-0.0381948
-0.00444283
-0.00406676
-0.00534445
-0.006293
-0.00767808
-0.00941711
-0.0108745
-0.0123331
-0.0138883
-0.0151421
-0.0171517
-0.019106
-0.0218245
-0.0247429
-0.0281466
-0.0317599
-0.0356108
-0.0395363
-0.0434023
-0.0467133
-0.00438557
-0.00680735
-0.00831112
-0.00934266
-0.0106884
-0.0122906
-0.0132449
-0.0151847
-0.0158871
-0.017437
-0.0181354
-0.0188388
-0.0193149
-0.0197681
-0.0205675
-0.0215808
-0.0231818
-0.0256229
-0.0289856
-0.0326863
-0.00245976
-0.00573238
-0.00845643
-0.0109041
-0.0135016
-0.0161652
-0.0195642
-0.0223808
-0.0264086
-0.0293318
-0.0330709
-0.0351772
-0.0370782
-0.0370025
-0.03542
-0.0317512
-0.0271863
-0.0230229
-0.0204665
-0.0195027
-0.032546
-0.0368852
-0.0341609
-0.0246348
-0.0270471
-0.0265486
-0.0279627
-0.0371962
-0.0335384
-0.0344008
-0.027967
-0.0310041
-0.0285684
-0.0303559
-0.037712
-0.0500924
-0.0468128
-0.0280062
-0.0283318
-0.0337811
-0.029998
-0.0357592
-0.0445145
-0.0369785
-0.0285796
-0.0293801
-0.0283919
-0.0242803
-0.0825209
-0.075578
-0.0793335
-0.0761862
-0.081741
-0.0729151
-0.0763619
-0.096794
-0.0829541
-0.0997702
-0.0843002
-0.0979837
-0.0783667
-0.0938522
-0.120588
-0.105602
-0.120869
-0.105212
-0.124058
-0.102169
-0.123293
-0.1454
-0.125032
-0.133656
-0.130621
-0.142926
-0.127524
-0.132686
-0.162256
-0.135152
-0.136361
-0.145916
-0.149731
-0.132664
-0.13038
-0.173109
-0.136168
-0.134438
-0.150862
-0.15248
-0.129323
-0.125341
-0.173914
-0.133216
-0.124237
-0.152021
-0.145625
-0.123393
-0.114979
-0.144448
-0.118532
-0.100158
-0.141116
-0.126518
-0.111687
-0.103502
-0.0776996
-0.0770123
-0.0725731
-0.0751009
-0.0748963
-0.0735398
-0.0684803
-0.0981185
-0.0723264
-0.0779188
-0.0764156
-0.0922432
-0.0681954
-0.0762885
-0.120315
-0.0817746
-0.0947784
-0.100848
-0.121579
-0.0813788
-0.0958824
-0.130112
-0.0989081
-0.108754
-0.125311
-0.128949
-0.0993808
-0.106215
-0.129657
-0.110602
-0.111088
-0.128505
-0.125092
-0.107015
-0.104344
-0.124607
-0.109873
-0.10387
-0.123651
-0.118403
-0.102369
-0.0967738
-0.112999
-0.101369
-0.0939638
-0.116097
-0.107677
-0.0955912
-0.0931837
-0.0946962
-0.092279
-0.0917019
-0.104819
-0.0978124
-0.0917938
-0.0894443
-0.0679512
-0.0634848
-0.0679519
-0.0623071
-0.0647909
-0.061293
-0.0657171
-0.0743242
-0.0700623
-0.07543
-0.0652954
-0.0706906
-0.0678419
-0.0730244
-0.0867546
-0.0767402
-0.0818714
-0.074711
-0.0871861
-0.0753431
-0.0826789
-0.101865
-0.0849648
-0.0957733
-0.0906728
-0.0995969
-0.0854006
-0.0948614
-0.106462
-0.0983798
-0.101088
-0.101314
-0.100443
-0.0975973
-0.0993886
-0.0997715
-0.100715
-0.0990048
-0.0989352
-0.0953433
-0.0974298
-0.087637
-0.0926499
-0.0989233
-0.100904
-0.0948037
-0.0918638
-0.0842117
-0.0772747
-0.0945851
-0.102013
-0.105284
-0.0904695
-0.0896846
-0.0768021
-0.0826488
-0.0760995
-0.0952227
-0.0966918
-0.0735892
-0.0739701
-0.0865609
-0.09304
-0.0793371
-0.0962048
-0.095117
-0.0746233
-0.078718
-0.0941652
-0.0962413
-0.0849354
-0.0951115
-0.0959828
-0.0804993
-0.0859156
-0.0968053
-0.0983297
-0.0964089
-0.0967644
-0.0998323
-0.0880814
-0.0962685
-0.099159
-0.102864
-0.101173
-0.100764
-0.102542
-0.0987716
-0.100071
-0.10419
-0.105011
-0.100843
-0.102969
-0.104557
-0.0976668
-0.0862892
-0.103042
-0.0936745
-0.10354
-0.105018
-0.105692
-0.0827046
-0.0767037
-0.0908947
-0.0862849
-0.106875
-0.105824
-0.107659
-0.0767291
-0.0835169
-0.0864361
-0.0943885
-0.042481
-0.038103
-0.0589386
-0.0263749
-0.0341722
-0.0334518
-0.0458268
-0.0543541
-0.0647112
-0.0738801
-0.0362397
-0.0381048
-0.0487063
-0.0459234
-0.0650123
-0.0734332
-0.0715527
-0.0383446
-0.037886
-0.0430305
-0.0377008
-0.059949
-0.0712399
-0.0681629
-0.037501
-0.0380796
-0.0371381
-0.038126
-0.0563981
-0.0682059
-0.0770485
-0.0395051
-0.0459127
-0.0392323
-0.0443429
-0.0741763
-0.081797
-0.094081
-0.0491425
-0.0582359
-0.0464373
-0.0524896
-0.0985631
-0.0963192
-0.0967884
-0.0616451
-0.0697679
-0.054115
-0.0576981
-0.107288
-0.0951641
-0.0879785
-0.0719011
-0.0748329
-0.0585329
-0.0607028
-0.0521527
-0.0259368
-0.0282885
-0.0281277
-0.0416224
-0.0189289
-0.025926
-0.074955
-0.0313759
-0.0508997
-0.0454796
-0.0464218
-0.0293873
-0.037606
-0.0787867
-0.0575458
-0.0738255
-0.0440932
-0.0388039
-0.03917
-0.0426241
-0.0738181
-0.0775754
-0.0772577
-0.0379971
-0.0376934
-0.0432358
-0.040365
-0.0774725
-0.0739314
-0.062652
-0.0382524
-0.0416905
-0.0392025
-0.038686
-0.0874847
-0.0602551
-0.0596559
-0.0432706
-0.0482564
-0.0395467
-0.0432781
-0.0868637
-0.0610937
-0.0635608
-0.0497986
-0.0538099
-0.044298
-0.0454414
-0.0788236
-0.0634937
-0.0639447
-0.0549141
-0.0578195
-0.0454749
-0.047017
-0.0330157
-0.0386824
-0.0396655
-0.0247223
-0.0252528
-0.0276634
-0.0291618
-0.0415877
-0.0378313
-0.0434765
-0.0273341
-0.0350352
-0.0311461
-0.0402744
-0.0679942
-0.0497722
-0.0703743
-0.0373387
-0.0438936
-0.0437352
-0.0535692
-0.0777164
-0.0753356
-0.0814534
-0.0453555
-0.0441658
-0.0555706
-0.0539914
-0.0624931
-0.0799628
-0.0696811
-0.0427097
-0.0407736
-0.0520937
-0.0461965
-0.0581136
-0.0665287
-0.0599696
-0.041206
-0.0429563
-0.0439718
-0.0374108
-0.0605679
-0.0583678
-0.0550114
-0.0431327
-0.0423693
-0.0358303
-0.0347965
-0.061892
-0.0546299
-0.0571388
-0.042238
-0.0446837
-0.0358629
-0.0434143
-0.0422362
-0.0588892
-0.0598852
-0.0339812
-0.0328186
-0.0419975
-0.0416947
-0.0510681
-0.0610537
-0.0723463
-0.0347172
-0.0443748
-0.0432567
-0.0499672
-0.0751311
-0.0763014
-0.0840721
-0.0479882
-0.0568772
-0.052128
-0.0566953
-0.0832156
-0.0855333
-0.0871715
-0.0582488
-0.0558108
-0.0572958
-0.0570448
-0.0724497
-0.0866948
-0.0821121
-0.0539287
-0.0472474
-0.0564175
-0.0513968
-0.0616638
-0.0796684
-0.0709416
-0.0444691
-0.0366493
-0.048447
-0.0395026
-0.0556829
-0.0680019
-0.0603282
-0.0349686
-0.0343708
-0.0375739
-0.0369895
-0.057155
-0.0585745
-0.058715
-0.0357229
-0.0443641
-0.0387303
-0.0494684
-0.0245593
-0.0267284
-0.0395471
-0.0165231
-0.0186322
-0.0228794
-0.0256491
-0.0273851
-0.0417871
-0.0367789
-0.0192079
-0.0204483
-0.0250212
-0.0223012
-0.0282564
-0.0340424
-0.0305563
-0.021277
-0.0240531
-0.0222457
-0.0241096
-0.031412
-0.0306135
-0.032797
-0.0254456
-0.0290599
-0.0250194
-0.0278828
-0.0396255
-0.0341073
-0.039334
-0.0305636
-0.0344117
-0.0288606
-0.0318982
-0.0503189
-0.0413071
-0.0469137
-0.0358149
-0.0391527
-0.0328912
-0.0352488
-0.0601986
-0.0485128
-0.0524353
-0.0401865
-0.0422623
-0.0356758
-0.0355901
-0.0645342
-0.0534244
-0.0555468
-0.0425786
-0.0421141
-0.0351053
-0.0329067
-0.0372636
-0.0167422
-0.022937
-0.0219395
-0.0254304
-0.0167595
-0.0202537
-0.037932
-0.0255724
-0.0316264
-0.0251126
-0.0227974
-0.0210929
-0.0230239
-0.0319
-0.0330129
-0.0366462
-0.0226388
-0.0239406
-0.0237261
-0.0256578
-0.0286121
-0.0317131
-0.0331124
-0.0275958
-0.0328153
-0.0280368
-0.0285063
-0.0307287
-0.0344003
-0.032887
-0.0303815
-0.0334458
-0.0315289
-0.0298461
-0.0440763
-0.035392
-0.0386825
-0.0320065
-0.0342211
-0.0309143
-0.0318096
-0.0499736
-0.0395354
-0.0411173
-0.0344977
-0.0336301
-0.0318034
-0.0313967
-0.0534595
-0.0415996
-0.0445178
-0.03288
-0.0304966
-0.0314029
-0.0327633
-0.0212822
-0.0215678
-0.025475
-0.0168922
-0.0198305
-0.0195341
-0.0247708
-0.0294341
-0.0274039
-0.0365754
-0.0208154
-0.0236746
-0.0264616
-0.0309305
-0.0386349
-0.0402279
-0.0489742
-0.0247209
-0.0273251
-0.0322387
-0.0342133
-0.0382016
-0.0395539
-0.0429198
-0.0341957
-0.0433461
-0.0358333
-0.0379062
-0.0353437
-0.0359354
-0.0400262
-0.0357405
-0.0387188
-0.035445
-0.036165
-0.0370065
-0.0346325
-0.0295753
-0.0296436
-0.0303731
-0.0235697
-0.0239305
-0.0374776
-0.0288609
-0.0302681
-0.0306356
-0.0317784
-0.0247391
-0.0285228
-0.042003
-0.0319475
-0.0406221
-0.0323938
-0.0350855
-0.0300991
-0.0351403
-0.0285224
-0.0312592
-0.0352849
-0.0231027
-0.0268941
-0.0247083
-0.0278593
-0.0409643
-0.0373313
-0.044293
-0.0285862
-0.0330831
-0.0288621
-0.031272
-0.0516624
-0.0462745
-0.050074
-0.0342087
-0.0352069
-0.0318953
-0.0323637
-0.0482054
-0.0504233
-0.0490733
-0.0344834
-0.0298447
-0.0317347
-0.0277266
-0.0372056
-0.0476528
-0.0399061
-0.027923
-0.0230773
-0.0259477
-0.021527
-0.0286737
-0.0367337
-0.0295834
-0.022263
-0.0227536
-0.0209271
-0.0223868
-0.0298598
-0.0286518
-0.0308754
-0.023713
-0.0281047
-0.02377
-0.0296555
-0.0415289
-0.0332848
-0.044756
-0.029903
-0.0355623
-0.032083
-0.0394039