/*--------------------------------*- C++ -*----------------------------------*\
  =========                 |
  \\      /  F ield         | OpenFOAM: The Open Source CFD Toolbox
   \\    /   O peration     | Website:  https://openfoam.org
    \\  /    A nd           | Version:  10
     \\/     M anipulation  |
\*---------------------------------------------------------------------------*/
FoamFile
{
    format      ascii;
    class       volScalarField;
    location    "3.7";
    object      turbidity;
}
// * * * * * * * * * * * * * * * * * * * * * * * * * * * * * * * * * * * * * //

dimensions      [0 0 0 0 0 0 0];

internalField   nonuniform List<scalar> 
12920
(
-0.0211876
-0.034644
-0.0502726
-0.0660993
-0.08127
-0.0971556
-0.114271
-0.133007
-0.152467
-0.1726
-0.193519
-0.217282
-0.248014
-0.290577
-0.343367
-0.396982
-0.444322
-0.485454
-0.521415
-0.552424
-0.0231171
-0.0254834
-0.0385332
-0.0543987
-0.0698964
-0.0833897
-0.0987889
-0.11409
-0.135891
-0.162759
-0.195838
-0.229766
-0.264674
-0.298928
-0.334233
-0.371526
-0.413395
-0.457902
-0.501285
-0.539909
-0.040541
-0.0447603
-0.0524387
-0.0576447
-0.0622988
-0.0684695
-0.078011
-0.0883268
-0.101714
-0.118765
-0.143032
-0.175496
-0.219507
-0.270971
-0.322739
-0.371347
-0.415373
-0.456278
-0.496376
-0.536832
-0.033955
-0.0642274
-0.0791384
-0.0871894
-0.0928971
-0.0966891
-0.104279
-0.113148
-0.127485
-0.146764
-0.172611
-0.206789
-0.249028
-0.293834
-0.335557
-0.371779
-0.40399
-0.437458
-0.474459
-0.513985
-0.0215062
-0.0582153
-0.0853085
-0.108891
-0.123958
-0.134316
-0.144793
-0.157496
-0.173939
-0.192861
-0.213863
-0.236355
-0.25926
-0.280468
-0.299936
-0.321671
-0.353329
-0.395343
-0.44105
-0.485382
-0.046714
-0.0717105
-0.0674844
-0.0974851
-0.126731
-0.150226
-0.16908
-0.184253
-0.199443
-0.212776
-0.227665
-0.244315
-0.267164
-0.294991
-0.328734
-0.365143
-0.398198
-0.426028
-0.452378
-0.477943
-0.0370161
-0.0527898
-0.059564
-0.0810378
-0.107042
-0.140402
-0.168145
-0.193769
-0.213812
-0.227959
-0.240557
-0.256089
-0.279322
-0.30463
-0.325642
-0.33856
-0.345794
-0.357192
-0.374732
-0.394093
-0.0361179
-0.0430804
-0.0512265
-0.0598727
-0.0693265
-0.0884799
-0.0934686
-0.107036
-0.136078
-0.164458
-0.191626
-0.210598
-0.229127
-0.241502
-0.202408
-0.202245
-0.211101
-0.229956
-0.254463
-0.279629
-0.020353
-0.0194483
-0.0312934
-0.0469476
-0.0678777
-0.0735173
-0.0796473
-0.0845923
-0.102447
-0.127331
-0.151172
-0.165914
-0.175255
-0.1704
-0.123002
-0.14016
-0.170964
-0.199941
-0.226882
-0.252979
-0.029325
-0.0309639
-0.046592
-0.0675339
-0.0850728
-0.0812444
-0.0778527
-0.0802798
-0.104239
-0.123632
-0.130842
-0.128886
-0.123061
-0.108517
-0.0995037
-0.137988
-0.172825
-0.205619
-0.237677
-0.271246
-0.0230887
-0.0345235
-0.044676
-0.0538321
-0.0645167
-0.0640871
-0.0649289
-0.0692307
-0.0767988
-0.0903553
-0.104445
-0.105568
-0.097789
-0.0922574
-0.107465
-0.153093
-0.195027
-0.236365
-0.279163
-0.326029
-0.00885111
-0.0173096
-0.0319003
-0.047365
-0.0678954
-0.0725944
-0.0764738
-0.076309
-0.0801284
-0.087221
-0.098361
-0.101066
-0.101119
-0.10433
-0.115613
-0.178738
-0.239737
-0.305907
-0.374879
-0.442561
-0.0145532
-0.0334358
-0.0477244
-0.0636709
-0.0837084
-0.116831
-0.12081
-0.117026
-0.112908
-0.110891
-0.111857
-0.113313
-0.114501
-0.117649
-0.165086
-0.225278
-0.300382
-0.38806
-0.478127
-0.56153
-0.0538931
-0.0500929
-0.0601072
-0.0799066
-0.104607
-0.128719
-0.145525
-0.15884
-0.164762
-0.172497
-0.178868
-0.189685
-0.201763
-0.222226
-0.255881
-0.299118
-0.357006
-0.4349
-0.524666
-0.612353
-0.0313711
-0.0405362
-0.0462398
-0.0637712
-0.0925147
-0.115076
-0.136217
-0.151792
-0.166632
-0.181456
-0.196023
-0.211649
-0.229192
-0.251885
-0.280622
-0.318236
-0.369805
-0.438835
-0.519605
-0.600687
-0.0352255
-0.0550063
-0.0730852
-0.0877412
-0.105739
-0.124696
-0.143083
-0.162712
-0.178984
-0.19022
-0.205812
-0.225308
-0.252605
-0.2865
-0.327718
-0.376334
-0.428293
-0.483955
-0.542024
-0.598232
-0.0204128
-0.0361977
-0.0590089
-0.0838201
-0.106258
-0.128699
-0.151597
-0.175088
-0.19346
-0.204564
-0.22017
-0.241909
-0.274464
-0.314869
-0.362577
-0.414227
-0.461948
-0.50338
-0.544291
-0.58246
-0.0163712
-0.0314799
-0.0593438
-0.0882091
-0.108246
-0.122771
-0.141826
-0.165319
-0.191852
-0.211609
-0.232972
-0.254882
-0.285945
-0.324071
-0.368831
-0.415171
-0.455263
-0.487175
-0.515427
-0.540926
-0.0122034
-0.0280356
-0.055085
-0.101241
-0.124252
-0.143484
-0.166287
-0.18449
-0.20929
-0.226811
-0.249962
-0.274039
-0.30394
-0.33794
-0.374745
-0.407513
-0.428731
-0.439558
-0.444001
-0.447938
-0.0075568
-0.0240325
-0.0434691
-0.0640964
-0.0896481
-0.134324
-0.180245
-0.216874
-0.240913
-0.26106
-0.279867
-0.300076
-0.322478
-0.347391
-0.373323
-0.397325
-0.417186
-0.433043
-0.446193
-0.458485
-0.00336833
-0.00832682
-0.0168983
-0.0172924
-0.0175979
-0.0161143
-0.0184311
-0.021825
-0.0287007
-0.0337305
-0.0384017
-0.0454267
-0.0644767
-0.0962591
-0.135236
-0.173557
-0.205335
-0.227394
-0.238105
-0.24049
-0.00957023
-0.0105963
-0.0105388
-0.00668188
-0.00624393
-0.00805617
-0.0120181
-0.0181938
-0.0261559
-0.0347928
-0.0442935
-0.0552917
-0.0694286
-0.0862555
-0.106819
-0.126182
-0.135136
-0.129765
-0.117468
-0.10479
-0.015301
-0.0149508
-0.013601
-0.0114537
-0.00928597
-0.00852874
-0.00976966
-0.014167
-0.0226278
-0.036438
-0.0583293
-0.0854553
-0.110135
-0.129926
-0.146016
-0.153046
-0.152066
-0.148358
-0.146466
-0.145916
-0.00480042
-0.0189723
-0.0237675
-0.0241742
-0.0207997
-0.0177691
-0.0180032
-0.0225792
-0.033366
-0.0507019
-0.0762986
-0.0989405
-0.112601
-0.118124
-0.118589
-0.117379
-0.117386
-0.117898
-0.120877
-0.123481
-0.00462258
-0.0196129
-0.0208273
-0.03183
-0.039859
-0.0407556
-0.0440616
-0.0455571
-0.0515676
-0.0576669
-0.0662364
-0.0718981
-0.0751334
-0.0788982
-0.0896112
-0.10573
-0.114763
-0.109677
-0.100336
-0.091844
-0.00290983
-0.0160776
-0.0106988
-0.0224179
-0.0358188
-0.0410215
-0.0446398
-0.0406218
-0.0387998
-0.0382122
-0.0410609
-0.0457746
-0.0526798
-0.06513
-0.076756
-0.0796874
-0.0726866
-0.0626363
-0.0556646
-0.0506478
-0.0314758
-0.0285077
-0.0140275
-0.0147214
-0.0230015
-0.0369064
-0.0470356
-0.0476845
-0.0397306
-0.0342843
-0.0358632
-0.0430675
-0.0548031
-0.0700271
-0.0837201
-0.0879817
-0.0846898
-0.0749919
-0.0620653
-0.0494788
-0.0111551
-0.0248202
-0.0161116
-0.00916261
-0.00941636
-0.0180047
-0.0251465
-0.0479273
-0.0630933
-0.0559847
-0.0405631
-0.0441018
-0.0582918
-0.0831703
-0.091016
-0.0895216
-0.0841563
-0.07542
-0.0638906
-0.0515107
-0.00187496
-0.00173886
-0.00277192
-0.00590479
-0.0146071
-0.0201441
-0.0272406
-0.0471327
-0.0571496
-0.066537
-0.057042
-0.0596053
-0.0804583
-0.102911
-0.0963633
-0.0809519
-0.0810403
-0.0761859
-0.0676277
-0.0597855
-0.010923
-0.00182303
-0.00316557
-0.00631968
-0.0154602
-0.0177564
-0.0322566
-0.0586904
-0.0770885
-0.0781116
-0.0729744
-0.0803512
-0.0884606
-0.0853945
-0.0706362
-0.0796952
-0.0879325
-0.0889379
-0.0859866
-0.0819461
-0.00385579
-0.00529045
-0.0085364
-0.0125605
-0.024303
-0.0299786
-0.0371855
-0.0314592
-0.0479835
-0.0730132
-0.0753826
-0.0597172
-0.0590838
-0.0605456
-0.0625037
-0.0859418
-0.0978815
-0.103017
-0.106609
-0.107729
-0.000603688
-0.00206595
-0.00890947
-0.0178559
-0.0381477
-0.0433367
-0.0475817
-0.0410228
-0.0572571
-0.0785523
-0.0818115
-0.0694414
-0.0597568
-0.0551549
-0.0626184
-0.0991596
-0.114015
-0.115649
-0.111546
-0.104865
-0.00656453
-0.00725081
-0.0140613
-0.0218035
-0.0397254
-0.0446257
-0.0515874
-0.0611059
-0.0719197
-0.0774318
-0.0763944
-0.0674293
-0.0569511
-0.0542391
-0.077214
-0.108887
-0.12891
-0.129789
-0.121507
-0.114351
-0.0257318
-0.0133452
-0.0163489
-0.0207983
-0.037972
-0.0245637
-0.0336535
-0.0334346
-0.0428632
-0.0458903
-0.045282
-0.0399649
-0.0397799
-0.0504067
-0.0769547
-0.114835
-0.147596
-0.159024
-0.152936
-0.139975
-0.00800244
-0.00834463
-0.00792705
-0.0114433
-0.0187379
-0.0208765
-0.0264026
-0.0248079
-0.0278655
-0.0270096
-0.02836
-0.0291467
-0.0343881
-0.0460017
-0.0687048
-0.0976749
-0.121087
-0.123039
-0.109625
-0.096552
-0.03962
-0.0446782
-0.0399243
-0.0383678
-0.0476709
-0.0471427
-0.046722
-0.03187
-0.0229848
-0.0190181
-0.0213272
-0.0269701
-0.0386904
-0.0535625
-0.068228
-0.0761465
-0.0792218
-0.0753112
-0.0724569
-0.0731055
-0.0040296
-0.0299049
-0.0421225
-0.0439444
-0.0499234
-0.0511921
-0.0520656
-0.0347796
-0.0228078
-0.0185077
-0.0229049
-0.0328812
-0.0495757
-0.0651088
-0.0745811
-0.0714772
-0.0662606
-0.0648869
-0.0690509
-0.0768917
-0.00238883
-0.0149916
-0.0279843
-0.0333458
-0.0351172
-0.0290882
-0.0382268
-0.0327538
-0.0314744
-0.0257148
-0.0286818
-0.038364
-0.0550537
-0.0668378
-0.0713304
-0.0634773
-0.0573499
-0.0550431
-0.0559097
-0.0587569
-0.00700282
-0.0181734
-0.0293921
-0.0227933
-0.0284952
-0.027575
-0.0326582
-0.0275539
-0.0261013
-0.0271678
-0.0338413
-0.0440693
-0.0595529
-0.0685169
-0.0693593
-0.0584274
-0.0492644
-0.0432384
-0.040113
-0.0397309
-0.00407165
-0.00828911
-0.0169361
-0.0237893
-0.0362143
-0.0394426
-0.0620246
-0.0651142
-0.0785614
-0.0894289
-0.105855
-0.122802
-0.141453
-0.157018
-0.168614
-0.173274
-0.172641
-0.166455
-0.156193
-0.148781
-0.00262077
-0.00388339
-0.00390171
-0.00441228
-0.00471461
-0.00548714
-0.00753953
-0.0105242
-0.0147458
-0.0195792
-0.0265953
-0.0379927
-0.0555306
-0.0772914
-0.0991593
-0.117809
-0.131069
-0.138333
-0.137985
-0.132779
-0.00632892
-0.00725682
-0.00546421
-0.00494524
-0.00601414
-0.00852687
-0.0124656
-0.0178067
-0.0237888
-0.0299851
-0.0364834
-0.0426858
-0.0478135
-0.0500668
-0.0500789
-0.0483713
-0.04394
-0.0381797
-0.0339781
-0.031558
-0.00571391
-0.00827736
-0.00803998
-0.00749316
-0.00696601
-0.00774692
-0.0107518
-0.0168499
-0.0257893
-0.0366621
-0.049596
-0.0610856
-0.0690992
-0.0724029
-0.0720325
-0.0677515
-0.0618158
-0.0563015
-0.0528316
-0.0513249
-0.00163689
-0.00677241
-0.010502
-0.0127456
-0.0128855
-0.0130938
-0.015655
-0.0212279
-0.0302371
-0.040508
-0.0517771
-0.0588094
-0.0603695
-0.0580641
-0.0547541
-0.0521521
-0.0505526
-0.049495
-0.0494037
-0.0495863
-0.00368928
-0.00513945
-0.00783096
-0.0128519
-0.0168404
-0.0184049
-0.0214967
-0.0243329
-0.0294162
-0.034223
-0.0389721
-0.0417479
-0.0431902
-0.0444631
-0.0469851
-0.049299
-0.0479815
-0.043202
-0.0389353
-0.0363641
-0.00523991
-0.00550563
-0.00684726
-0.0109424
-0.0145193
-0.0166173
-0.0188618
-0.0199489
-0.0223354
-0.0251094
-0.0277428
-0.029746
-0.0310501
-0.0321875
-0.0318429
-0.0295781
-0.0262156
-0.0238428
-0.0232453
-0.0241712
-0.00979986
-0.0128792
-0.00949538
-0.00807184
-0.0114745
-0.0156617
-0.0189135
-0.0202123
-0.0211958
-0.0235209
-0.0267147
-0.0299707
-0.0331895
-0.035504
-0.0360321
-0.0337195
-0.0298875
-0.0258028
-0.0231234
-0.0225926
-0.00508101
-0.0149268
-0.00737087
-0.00469783
-0.00635334
-0.01099
-0.014341
-0.0227454
-0.0252315
-0.0255396
-0.0282081
-0.033977
-0.0409642
-0.049103
-0.0480885
-0.0436542
-0.0371471
-0.0304085
-0.025293
-0.0229972
-0.00160872
-0.00190775
-0.00199037
-0.00453524
-0.0117757
-0.0148181
-0.0175772
-0.026235
-0.0276081
-0.0288523
-0.0331372
-0.0422741
-0.0529829
-0.0619021
-0.0585038
-0.0435186
-0.0381186
-0.0316495
-0.0267237
-0.0247463
-0.00320709
-0.000981231
-0.00179067
-0.00411993
-0.00921048
-0.0142632
-0.0243181
-0.0400735
-0.0357201
-0.031675
-0.0333188
-0.0387896
-0.0456755
-0.0510015
-0.0514223
-0.0474222
-0.0444667
-0.0389909
-0.0346846
-0.0323175
-0.0020007
-0.0032072
-0.00540582
-0.00765313
-0.0139904
-0.0155307
-0.0188926
-0.0229568
-0.0317633
-0.0393222
-0.036682
-0.036021
-0.0371421
-0.0379701
-0.0468379
-0.0515095
-0.0490275
-0.0457823
-0.0443791
-0.0429403
-0.000436477
-0.00254233
-0.00729708
-0.0113465
-0.0231069
-0.0226477
-0.0259398
-0.0305544
-0.0441616
-0.0521686
-0.0458949
-0.034594
-0.0280051
-0.0317001
-0.0506327
-0.0573532
-0.0542933
-0.0487327
-0.044136
-0.0405828
-0.0010488
-0.00169168
-0.00601024
-0.0112462
-0.0219062
-0.0216339
-0.0260174
-0.0331433
-0.0387808
-0.0410475
-0.0368913
-0.0295688
-0.0284874
-0.0370248
-0.0545406
-0.0621086
-0.0604915
-0.0530074
-0.0463104
-0.0426273
-0.00792487
-0.00284229
-0.00555883
-0.00822357
-0.014966
-0.010495
-0.0164339
-0.0153357
-0.0189804
-0.0189444
-0.0195023
-0.0215321
-0.0280344
-0.0384289
-0.0516271
-0.0639433
-0.06924
-0.0640204
-0.0554859
-0.0492229
-0.00631739
-0.0036937
-0.00506734
-0.00694517
-0.0101999
-0.0100207
-0.0115376
-0.0102367
-0.0118189
-0.0124091
-0.0147173
-0.0181926
-0.0240443
-0.0313341
-0.0406007
-0.0485538
-0.0514339
-0.0465601
-0.0405654
-0.0378766
-0.021134
-0.0170025
-0.0161457
-0.0195288
-0.0248692
-0.0187615
-0.0154457
-0.00996534
-0.00952272
-0.010806
-0.0137488
-0.0176579
-0.0229515
-0.0277719
-0.0323299
-0.0344882
-0.0347906
-0.0332213
-0.0322352
-0.0321776
-0.00335285
-0.0187926
-0.0224747
-0.0197335
-0.0233287
-0.0189958
-0.0162529
-0.0106679
-0.0102331
-0.0127045
-0.0164927
-0.0210099
-0.0258983
-0.0289825
-0.0308918
-0.0310152
-0.03131
-0.0319631
-0.0330428
-0.0342265
-0.0028313
-0.00938458
-0.0108908
-0.0130035
-0.0146144
-0.0123153
-0.0143748
-0.0126233
-0.0134641
-0.0157066
-0.0192694
-0.0226979
-0.0260669
-0.0268408
-0.0267529
-0.0257957
-0.0257736
-0.0263309
-0.0273151
-0.0286245
-0.00678485
-0.00857445
-0.0106888
-0.0108302
-0.0133351
-0.0138399
-0.0142224
-0.0139757
-0.0152456
-0.0174897
-0.0202697
-0.0222993
-0.0240735
-0.0239761
-0.0234325
-0.0228479
-0.0228394
-0.0234121
-0.0245661
-0.0263057
-0.00282761
-0.00591127
-0.0117501
-0.0129277
-0.0174985
-0.0190025
-0.02969
-0.0341582
-0.043283
-0.0521754
-0.0633178
-0.0742005
-0.0850566
-0.0932569
-0.0985624
-0.0990743
-0.09617
-0.0906699
-0.0841474
-0.0794769
-0.00163043
-0.00192473
-0.00182369
-0.0025606
-0.00404497
-0.00575048
-0.00777429
-0.0107059
-0.0149717
-0.0215187
-0.0309618
-0.0432638
-0.0568029
-0.0694384
-0.0796373
-0.0865163
-0.0891172
-0.0874745
-0.081486
-0.0733241
-0.00250395
-0.0047997
-0.00438077
-0.00522648
-0.00739729
-0.0107124
-0.014682
-0.0190267
-0.0231272
-0.0268604
-0.0300695
-0.0314961
-0.0312039
-0.029022
-0.0262855
-0.024266
-0.0228457
-0.0224916
-0.022353
-0.0229616
-0.00346458
-0.00586653
-0.00645215
-0.00625452
-0.00650077
-0.00875865
-0.0133406
-0.0189643
-0.0248653
-0.0292832
-0.0332469
-0.0344106
-0.0337593
-0.0312427
-0.0284351
-0.0256808
-0.0238286
-0.0230276
-0.0233888
-0.0244613
-0.00496567
-0.00629122
-0.00842513
-0.00962345
-0.0097206
-0.0113268
-0.0153522
-0.0197434
-0.0245899
-0.0275047
-0.0300324
-0.0296431
-0.0278602
-0.0256622
-0.0241826
-0.0235191
-0.0235816
-0.0241639
-0.0253953
-0.0268848
-0.0012306
-0.00193247
-0.00541296
-0.0100816
-0.0121216
-0.0134202
-0.015995
-0.0181313
-0.0205241
-0.021685
-0.0225923
-0.0224889
-0.0224413
-0.0224502
-0.0228817
-0.0230952
-0.0226729
-0.0223619
-0.0231313
-0.0248663
-0.00193684
-0.0024483
-0.00503715
-0.00922959
-0.0111915
-0.0123531
-0.0138911
-0.0150606
-0.0160652
-0.0166148
-0.0167146
-0.016724
-0.0167752
-0.017012
-0.0171806
-0.0176443
-0.0187233
-0.0206978
-0.0234856
-0.0268994
-0.00289245
-0.00448146
-0.00484016
-0.00721888
-0.0095274
-0.0114336
-0.0133145
-0.0145794
-0.0152908
-0.0155884
-0.0157934
-0.0160785
-0.0165645
-0.0169534
-0.0173195
-0.0178066
-0.018925
-0.020981
-0.0240258
-0.0278525
-0.00223676
-0.00748215
-0.00358931
-0.00410541
-0.00666445
-0.009962
-0.0119716
-0.0154161
-0.0165593
-0.0172405
-0.0176635
-0.0192164
-0.0207987
-0.0222051
-0.0189802
-0.0183315
-0.0182438
-0.0194146
-0.021956
-0.025552
-0.000410804
-0.000887201
-0.00164555
-0.00467446
-0.0106115
-0.0121383
-0.0131686
-0.0161938
-0.0180994
-0.02066
-0.0233286
-0.0274058
-0.0308283
-0.0320657
-0.0237914
-0.0159264
-0.0160392
-0.0171765
-0.0196079
-0.0229885
-0.0015802
-0.00092813
-0.00179604
-0.00458288
-0.00930423
-0.0131711
-0.0180529
-0.0210016
-0.0201704
-0.0221089
-0.0249406
-0.028302
-0.028761
-0.0251982
-0.0180442
-0.0165841
-0.0170204
-0.0180245
-0.0201645
-0.0229532
-0.0013439
-0.00274884
-0.00386934
-0.00648682
-0.0112463
-0.0124499
-0.0152333
-0.0179538
-0.0223527
-0.0250628
-0.0251704
-0.0258331
-0.0262046
-0.0264936
-0.0248581
-0.0202109
-0.0202345
-0.0213772
-0.0233367
-0.0252114
-0.000756709
-0.00292065
-0.0054858
-0.00947397
-0.0149707
-0.0168192
-0.0203081
-0.025562
-0.0301663
-0.0292317
-0.022316
-0.0192456
-0.021857
-0.026231
-0.0271062
-0.0245058
-0.0241204
-0.0239115
-0.0243321
-0.0252666
-0.000614312
-0.00121262
-0.0037282
-0.00751566
-0.0132047
-0.0117643
-0.0151607
-0.0187403
-0.0200634
-0.0190387
-0.0170508
-0.0185724
-0.0226947
-0.0275065
-0.0285965
-0.0291062
-0.0276439
-0.0262178
-0.0260872
-0.0270348
-0.000743162
-0.00154381
-0.00321294
-0.0050259
-0.00781499
-0.00610023
-0.00944233
-0.00886877
-0.0112839
-0.0128247
-0.01559
-0.0190759
-0.023003
-0.0268259
-0.0301481
-0.0321864
-0.0320412
-0.0303892
-0.0298847
-0.031038
-0.00452822
-0.00223973
-0.00383114
-0.0049009
-0.00622886
-0.00556862
-0.00685186
-0.0072006
-0.00918646
-0.011246
-0.0141424
-0.016959
-0.0200558
-0.0225945
-0.0252519
-0.0268898
-0.0275679
-0.0277655
-0.0292163
-0.0319776
-0.0156926
-0.00533538
-0.00740173
-0.0100341
-0.0106897
-0.00708371
-0.00683172
-0.00738022
-0.00921215
-0.0114779
-0.0139138
-0.0161152
-0.018386
-0.0200295
-0.0217094
-0.0228288
-0.0239953
-0.0253484
-0.0271806
-0.0292513
-0.00856046
-0.00974907
-0.010287
-0.00903958
-0.010874
-0.00775947
-0.00757276
-0.00866935
-0.0105053
-0.0128589
-0.0148401
-0.0165832
-0.0181617
-0.0192674
-0.0204985
-0.0217119
-0.0232399
-0.0249922
-0.0269344
-0.0291736
-0.00221902
-0.00551666
-0.00569858
-0.00741886
-0.00815559
-0.00812234
-0.00896829
-0.0103803
-0.0119197
-0.013497
-0.0147858
-0.0155974
-0.0164525
-0.0170506
-0.0179905
-0.0192799
-0.0208007
-0.0225493
-0.0244845
-0.0270057
-0.0020727
-0.00660471
-0.00789229
-0.00876855
-0.00974417
-0.0108105
-0.0111488
-0.0126924
-0.013674
-0.0148723
-0.0156542
-0.0164017
-0.0170586
-0.0178252
-0.0187444
-0.0199046
-0.0213508
-0.0231432
-0.0249527
-0.0262974
-0.0039656
-0.00606045
-0.00874552
-0.00969009
-0.0133131
-0.0157101
-0.0214631
-0.0261275
-0.0327143
-0.0396649
-0.0472382
-0.0541392
-0.060274
-0.064115
-0.0657962
-0.0641477
-0.0601723
-0.0546792
-0.0481992
-0.0436751
-0.00155993
-0.00164596
-0.00200029
-0.00324997
-0.00572833
-0.00936003
-0.013264
-0.0184471
-0.0245463
-0.03138
-0.0374658
-0.0421723
-0.0452514
-0.0464182
-0.0458929
-0.0436576
-0.0394781
-0.0341937
-0.02858
-0.0245349
-0.00171415
-0.00375177
-0.00454589
-0.00721056
-0.01109
-0.0157124
-0.0195748
-0.0226377
-0.0246058
-0.0248835
-0.0242119
-0.0229113
-0.0218668
-0.0209564
-0.0203174
-0.0200478
-0.0197331
-0.0195027
-0.0192238
-0.0189924
-0.00812726
-0.00712191
-0.00593011
-0.00591483
-0.00839067
-0.0121678
-0.0153717
-0.0167197
-0.0172239
-0.0168103
-0.016838
-0.0164878
-0.016612
-0.0167084
-0.0170288
-0.0173644
-0.0176465
-0.0177696
-0.0176857
-0.0174605
-0.00927686
-0.00867878
-0.00862297
-0.00822968
-0.00923162
-0.0110358
-0.0128838
-0.0136167
-0.0143836
-0.0145818
-0.0153767
-0.0156998
-0.0163464
-0.0170901
-0.0179689
-0.0187644
-0.0194096
-0.019775
-0.0199282
-0.0198584
-0.00186137
-0.00431521
-0.00819683
-0.00988136
-0.00986394
-0.0103671
-0.0113826
-0.0118899
-0.0127859
-0.013416
-0.0144975
-0.0154829
-0.0167362
-0.0179452
-0.0192137
-0.0203839
-0.0214796
-0.0224556
-0.0233425
-0.0240965
-0.000709283
-0.00287322
-0.00654089
-0.00939189
-0.0095667
-0.00984483
-0.0105252
-0.0111039
-0.0121079
-0.0132579
-0.014756
-0.0162634
-0.0178515
-0.0193378
-0.0207794
-0.0220754
-0.0232316
-0.0242212
-0.025138
-0.026109
-0.00290813
-0.00448157
-0.0064409
-0.00802175
-0.00896836
-0.00984046
-0.0107087
-0.0114176
-0.0125038
-0.013783
-0.015404
-0.0169907
-0.0185704
-0.0199841
-0.0211882
-0.0221137
-0.0227034
-0.0230289
-0.0231567
-0.0234079
-0.000755116
-0.00332865
-0.00399689
-0.00620517
-0.00839138
-0.00978488
-0.010537
-0.0117977
-0.0120603
-0.0128316
-0.0137955
-0.0148983
-0.0161379
-0.0175308
-0.0192951
-0.0199551
-0.0200286
-0.0196158
-0.0188561
-0.0182418
-0.000165139
-0.000538866
-0.00220112
-0.00638053
-0.00954306
-0.010255
-0.0106236
-0.0118212
-0.0121398
-0.0120918
-0.0120825
-0.0122173
-0.0127065
-0.0139434
-0.0169872
-0.0176054
-0.0178312
-0.0172666
-0.0161005
-0.0147813
-0.000919095
-0.00110521
-0.00247338
-0.00628313
-0.00925168
-0.0109643
-0.0122021
-0.0129925
-0.0130141
-0.0127329
-0.0122044
-0.0112223
-0.0108353
-0.011796
-0.0153872
-0.0172151
-0.018098
-0.0181338
-0.0173361
-0.0159311
-0.00079379
-0.00244446
-0.00452654
-0.00780473
-0.0102871
-0.0113208
-0.012545
-0.0136729
-0.0146918
-0.0142106
-0.0130082
-0.0120623
-0.011956
-0.0125219
-0.0152183
-0.0181778
-0.0196285
-0.0204836
-0.0205845
-0.019978
-0.0011613
-0.00248928
-0.00494507
-0.00819669
-0.0102287
-0.0121098
-0.0137264
-0.0150397
-0.0145756
-0.0134031
-0.0129966
-0.0134752
-0.0140384
-0.0146477
-0.0172288
-0.0202224
-0.0212895
-0.0219345
-0.0220744
-0.0217923
-0.000453992
-0.00168233
-0.00349248
-0.006089
-0.00818546
-0.00828844
-0.00958446
-0.0109415
-0.0119875
-0.0136312
-0.015457
-0.0172129
-0.0186025
-0.0199114
-0.023256
-0.0244042
-0.0252396
-0.025926
-0.0262891
-0.0264301
-0.000718512
-0.00143795
-0.00278003
-0.004271
-0.00575061
-0.00707501
-0.00952855
-0.0118576
-0.0142421
-0.0167365
-0.0189624
-0.0212073
-0.0230887
-0.0250097
-0.0266582
-0.0284143
-0.0301361
-0.0320594
-0.0340083
-0.0358938
-0.00285017
-0.00145903
-0.00276852
-0.00398277
-0.0052245
-0.00708108
-0.00926939
-0.0118466
-0.0144055
-0.0170378
-0.0194055
-0.0217591
-0.0238303
-0.0258414
-0.027601
-0.0292671
-0.0307563
-0.0320928
-0.0331696
-0.0340895
-0.015334
-0.00422151
-0.00383547
-0.00522141
-0.00609937
-0.007763
-0.00996103
-0.0128131
-0.0152928
-0.0179582
-0.0202683
-0.022694
-0.0247084
-0.026718
-0.0282829
-0.0295564
-0.0302495
-0.0302674
-0.0296333
-0.0285986
-0.00299823
-0.00408284
-0.00438232
-0.00518668
-0.00666266
-0.00840241
-0.0105853
-0.0130924
-0.0155181
-0.0178708
-0.0203801
-0.0229382
-0.0254892
-0.0281653
-0.0305879
-0.0329203
-0.0348627
-0.0365118
-0.0376466
-0.0381911
-0.00461133
-0.00409053
-0.00536758
-0.00629475
-0.00767986
-0.00941564
-0.0108734
-0.0123333
-0.0138908
-0.0151425
-0.0171541
-0.0191045
-0.0218221
-0.024736
-0.028137
-0.0317464
-0.0355944
-0.0395176
-0.0433832
-0.0466974
-0.00431668
-0.00681537
-0.00832055
-0.00934696
-0.0106944
-0.0122872
-0.0132396
-0.0151817
-0.0158828
-0.0174341
-0.0181326
-0.018841
-0.0193191
-0.0197736
-0.0205736
-0.0215843
-0.0231793
-0.0256098
-0.0289634
-0.0326604
-0.00236603
-0.00573554
-0.00847077
-0.0109066
-0.0135016
-0.0161646
-0.0195631
-0.022375
-0.0264001
-0.0293278
-0.0330732
-0.035191
-0.037108
-0.0370555
-0.0354982
-0.0318425
-0.0272763
-0.0230903
-0.0205032
-0.0195157
-0.0325279
-0.0368335
-0.0341668
-0.0246111
-0.0270204
-0.0265137
-0.0279315
-0.0371456
-0.0335407
-0.0343603
-0.0279369
-0.0309652
-0.0285335
-0.0303291
-0.0377304
-0.0499721
-0.0469097
-0.0279586
-0.0283082
-0.0337894
-0.0300821
-0.0357269
-0.0446339
-0.0371192
-0.0285608
-0.0293841
-0.028485
-0.0243571
-0.0825495
-0.0755099
-0.0790963
-0.0762087
-0.0817112
-0.072826
-0.0762449
-0.0964462
-0.0825716
-0.0991643
-0.084265
-0.0976452
-0.0781897
-0.0932452
-0.120141
-0.105008
-0.120436
-0.104834
-0.123669
-0.101498
-0.122888
-0.145154
-0.124675
-0.133563
-0.13032
-0.142871
-0.127251
-0.132716
-0.162295
-0.13514
-0.136523
-0.145964
-0.149903
-0.132755
-0.130554
-0.173301
-0.136362
-0.134719
-0.151076
-0.152768
-0.129507
-0.125567
-0.174425
-0.133533
-0.124767
-0.152381
-0.146147
-0.123644
-0.115291
-0.145549
-0.11912
-0.100589
-0.141698
-0.127074
-0.111991
-0.103696
-0.0776166
-0.0771902
-0.0726525
-0.0751305
-0.0748914
-0.0737446
-0.0686364
-0.0976211
-0.0723604
-0.0778189
-0.0763341
-0.0916993
-0.0683005
-0.0761704
-0.119994
-0.0816673
-0.0947556
-0.100247
-0.121271
-0.0812451
-0.0959112
-0.130099
-0.0988955
-0.108761
-0.125131
-0.129035
-0.0994505
-0.10632
-0.129852
-0.110636
-0.111237
-0.12864
-0.125294
-0.107149
-0.104595
-0.124895
-0.110056
-0.104118
-0.123863
-0.11866
-0.102637
-0.0969782
-0.113463
-0.101624
-0.0941552
-0.116375
-0.107973
-0.0957485
-0.0932751
-0.0949621
-0.0924062
-0.0916427
-0.105092
-0.0979907
-0.0918831
-0.0893857
-0.0678707
-0.0634346
-0.0677157
-0.0625082
-0.0647867
-0.0612889
-0.065489
-0.0742219
-0.0698057
-0.0752038
-0.0653248
-0.0706473
-0.0675993
-0.0726957
-0.0866853
-0.0765288
-0.0815809
-0.0746348
-0.087169
-0.075017
-0.0824068
-0.101745
-0.0846167
-0.0954786
-0.0906659
-0.0995817
-0.085131
-0.0945994
-0.10656
-0.0981602
-0.10106
-0.101335
-0.100605
-0.0973815
-0.0994171
-0.0999742
-0.100718
-0.0989838
-0.0991082
-0.095427
-0.0975332
-0.0878498
-0.0927225
-0.0988686
-0.100769
-0.0948565
-0.0919343
-0.0844183
-0.077342
-0.0944571
-0.101871
-0.105164
-0.0905245
-0.089568
-0.0767914
-0.0823724
-0.0757515
-0.0948952
-0.096493
-0.073266
-0.0736312
-0.0862173
-0.0927609
-0.0790725
-0.0960048
-0.0949176
-0.0743087
-0.078382
-0.0938984
-0.0960196
-0.0846106
-0.0949101
-0.0957846
-0.0801768
-0.0856416
-0.0965951
-0.0981469
-0.0961407
-0.0965678
-0.0996773
-0.0878052
-0.0960051
-0.0989738
-0.102695
-0.101119
-0.100631
-0.102458
-0.0985506
-0.100099
-0.10404
-0.105006
-0.100777
-0.102888
-0.104479
-0.0977799
-0.0864902
-0.10309
-0.0937498
-0.103417
-0.104951
-0.105662
-0.0828758
-0.0766953
-0.0909331
-0.0861952
-0.106782
-0.105795
-0.107538
-0.0766454
-0.0831957
-0.0862828
-0.0939787
-0.0417856
-0.0375503
-0.0584257
-0.0260329
-0.0338636
-0.0330676
-0.0454845
-0.0542457
-0.0642613
-0.0736846
-0.036025
-0.0380864
-0.0484537
-0.0460479
-0.0649503
-0.0733147
-0.0714516
-0.0383698
-0.0379607
-0.0431753
-0.037762
-0.0602268
-0.0712009
-0.068174
-0.037568
-0.0380407
-0.0371727
-0.0380969
-0.0562067
-0.0681339
-0.0767288
-0.0394188
-0.0457286
-0.0391867
-0.0442652
-0.0736654
-0.0814622
-0.0939128
-0.0489479
-0.0580151
-0.0463575
-0.0524415
-0.0981403
-0.0962429
-0.0969557
-0.0614427
-0.0696243
-0.0540838
-0.0577006
-0.107325
-0.0953835
-0.0882204
-0.0718092
-0.0748668
-0.0585385
-0.0606887
-0.0519389
-0.0260882
-0.0285214
-0.0280488
-0.0414516
-0.0189345
-0.0258613
-0.0747143
-0.0314892
-0.0508656
-0.0453403
-0.0465564
-0.0293211
-0.0376138
-0.0786655
-0.0575201
-0.0737566
-0.0442442
-0.0388666
-0.0391751
-0.0425653
-0.0738237
-0.0775325
-0.0774923
-0.038038
-0.0376951
-0.0431961
-0.0404078
-0.0773269
-0.0742542
-0.0630127
-0.0382432
-0.0416533
-0.039242
-0.0386505
-0.0875284
-0.0605646
-0.0597263
-0.0432294
-0.0482206
-0.0394855
-0.0432091
-0.087093
-0.0611132
-0.063596
-0.0497653
-0.0537786
-0.0442481
-0.0454557
-0.079008
-0.0635259
-0.0638993
-0.0548825
-0.057778
-0.0454929
-0.0469708
-0.0332665
-0.0386127
-0.0398501
-0.0246655
-0.0252004
-0.0276629
-0.0290402
-0.0415354
-0.0379413
-0.0429879
-0.0272655
-0.03497
-0.0309486
-0.0399423
-0.0677908
-0.0491086
-0.0698404
-0.0372587
-0.0437521
-0.0433837
-0.0532794
-0.077871
-0.0749175
-0.0814243
-0.0452439
-0.0442166
-0.0553713
-0.0540576
-0.0628032
-0.0800585
-0.0698608
-0.0427626
-0.0407338
-0.052174
-0.0462898
-0.0580998
-0.0666717
-0.0600495
-0.0411401
-0.0429248
-0.0440831
-0.0375299
-0.0605745
-0.058442
-0.0550463
-0.0431289
-0.0424069
-0.0359261
-0.0347739
-0.0618129
-0.0546383
-0.0570246
-0.0422619
-0.0445991
-0.0357947
-0.0432126
-0.0423476
-0.0589226
-0.0598124
-0.0339342
-0.0326489
-0.0420447
-0.041597
-0.05041
-0.0608461
-0.0719944
-0.0344804
-0.0440216
-0.0431246
-0.0498526
-0.0746695
-0.0759965
-0.0839286
-0.0476311
-0.0566551
-0.052044
-0.0567093
-0.0831962
-0.0854353
-0.0871684
-0.0581237
-0.0558958
-0.0573372
-0.0570971
-0.0726044
-0.0867098
-0.0821744
-0.0540184
-0.0473634
-0.0564674
-0.0515126
-0.0617495
-0.0797383
-0.0710522
-0.0446014
-0.0367599
-0.0485797
-0.0396066
-0.0557055
-0.0681142
-0.0604377
-0.0350463
-0.0343206
-0.0376363
-0.0369097
-0.0570442
-0.0586599
-0.0586243
-0.0356276
-0.0441358
-0.0385962
-0.0491883
-0.0242778
-0.026392
-0.0392517
-0.0163684
-0.0185529
-0.0226963
-0.0256062
-0.0273671
-0.0416124
-0.0369292
-0.0191653
-0.0204241
-0.0250326
-0.0223227
-0.0282491
-0.0341778
-0.0305731
-0.0212486
-0.0239952
-0.0222439
-0.0240768
-0.0313261
-0.0306084
-0.0327487
-0.0253826
-0.0289786
-0.0249866
-0.0278542
-0.0394488
-0.0340475
-0.0392556
-0.0304846
-0.0343297
-0.0288317
-0.0318658
-0.0501142
-0.0412295
-0.0468575
-0.0357416
-0.0390924
-0.0328597
-0.0352355
-0.0600534
-0.0484651
-0.0524072
-0.0401397
-0.0422487
-0.035674
-0.0356302
-0.0645291
-0.0534023
-0.0555339
-0.0425857
-0.042175
-0.0351587
-0.0329794
-0.0371188
-0.0167469
-0.0229488
-0.0218681
-0.0254383
-0.016763
-0.0202632
-0.0380934
-0.0255951
-0.0316649
-0.0251558
-0.0228285
-0.021101
-0.0229962
-0.0319234
-0.0330184
-0.0365792
-0.0226452
-0.0239172
-0.023684
-0.0256107
-0.0286068
-0.0317093
-0.033122
-0.0275843
-0.0328256
-0.028021
-0.0284992
-0.0306945
-0.0343653
-0.0328874
-0.0303521
-0.0334333
-0.0314918
-0.0298249
-0.0440156
-0.0353416
-0.0386457
-0.0319685
-0.0342066
-0.0308949
-0.0318112
-0.0499268
-0.0395134
-0.041122
-0.0344979
-0.0336784
-0.0318092
-0.0313898
-0.0534282
-0.0415984
-0.0444541
-0.0329392
-0.0305518
-0.0313831
-0.0327
-0.0212836
-0.0215169
-0.0253419
-0.0168611
-0.0197975
-0.0194497
-0.0246231
-0.029385
-0.0272097
-0.0362297
-0.0207794
-0.0236082
-0.026308
-0.0307798
-0.0384973
-0.0398735
-0.0487599
-0.0246429
-0.0272585
-0.0321008
-0.034179
-0.0381701
-0.0395086
-0.0427739
-0.0341184
-0.0432755
-0.0358036
-0.0378009
-0.0353994
-0.035934
-0.0400678
-0.0357833
-0.0387547
-0.0354724
-0.0362209
-0.0370119
-0.0347724
-0.0296658
-0.0296502
-0.0303727
-0.0236268
-0.0239233
-0.0374954
-0.0289205
-0.0302181
-0.0306284
-0.0317381
-0.0247129
-0.0284526
-0.0419045
-0.0318589
-0.04042
-0.0323407
-0.0350078
-0.0300191
-0.0350529
-0.0283536
-0.0312842
-0.0352009
-0.0230021
-0.026758
-0.0246971
-0.0278427
-0.040624
-0.0372289
-0.0442284
-0.0284483
-0.0329668
-0.0288591
-0.0313034
-0.0515249
-0.0462389
-0.0501147
-0.0341136
-0.035219
-0.0319365
-0.032438
-0.048323
-0.0504832
-0.0491587
-0.0345309
-0.0299517
-0.031823
-0.0278413
-0.0373602
-0.0477524
-0.0400653
-0.0280347
-0.023155
-0.0260595
-0.0215845
-0.0287515
-0.0368892
-0.0296648
-0.0223159
-0.0227323
-0.0209541
-0.022332
-0.0297886
-0.02869
-0.0307824
-0.0236715
-0.0280189
-0.0236946
-0.0295349
-0.0413047
-0.0331481
-0.0445051
-0.0298082
-0.0354632
-0.0319529
-0.0392783
-0.0154857
-0.0178453
-0.0210533