/*--------------------------------*- C++ -*----------------------------------*\
  =========                 |
  \\      /  F ield         | OpenFOAM: The Open Source CFD Toolbox
   \\    /   O peration     | Website:  https://openfoam.org
    \\  /    A nd           | Version:  10
     \\/     M anipulation  |
\*---------------------------------------------------------------------------*/
FoamFile
{
    format      ascii;
    class       volScalarField;
    location    "6.3";
    object      k_0;
}
// * * * * * * * * * * * * * * * * * * * * * * * * * * * * * * * * * * * * * //

dimensions      [0 2 -2 0 0 0 0];

internalField   nonuniform List<scalar> 
12920
(
932.274
696.977
597.334
506.702
406.859
376.522
339.246
318.532
294.483
281.28
272.026
264.432
250.362
208.758
147.307
116.262
101.281
86.9276
77.39
56.7152
480.687
496.57
726.799
802.686
611.993
491.208
420.007
401.631
361.246
340.682
295.962
262.426
219.916
181.686
145.13
116.625
95.775
82.3404
76.9794
77.5649
157.6
1001.14
1434.2
1097.98
665.063
523.11
376.723
305.979
239.445
208.644
178.661
161.144
139.186
121.463
103.741
89.4905
81.232
77.8506
76.9414
77.1344
431.178
1707.56
1656.2
990.795
614.42
406.86
329.052
247.64
206.091
176.694
152.66
136.192
116.548
101.527
89.2052
81.4271
76.2086
73.0553
71.1517
69.6904
2067.46
2385.14
2225.09
1454.75
904.135
648.255
531.656
368.937
269.132
192.215
153.317
132.021
115.091
102.612
92.047
85.0443
80.3257
77.044
74.8344
73.485
10043
5363.44
3223.83
1945.76
1174.97
910.107
734.393
646.501
550.323
397.887
259.035
163.957
125.721
108.708
99.3927
93.6862
91.6227
90.1549
89.1502
85.6383
1890.21
3948.87
2728.46
1435.42
868.86
716.07
608.948
567.896
530.42
450.316
330.719
212.855
148.668
124.39
112.558
106.455
104.435
103.978
103.852
101.529
1931.88
2980.38
2203.9
1528.46
993.628
805.466
478.051
323.781
300.096
253.255
206.247
145.243
100.845
81.6467
132.742
119.097
107.477
101.336
100.675
99.0936
695.961
2500.64
2254.32
2016.67
1404.71
722.097
374.243
196.674
193.893
204.913
140.088
93.8921
65.3764
48.9309
92.6922
141.979
115.956
99.9065
94.4378
87.1932
960.573
3115.4
2389.57
1843.18
1264.19
684.531
336.631
200.572
203.299
251.976
264.157
195.29
116.336
50.9134
113.395
138.997
111.298
94.3022
84.2383
76.7054
440.86
1528.66
1294.43
954.857
771.899
553.697
242.639
135.759
185.204
200.768
188.493
178.185
115.854
55.3902
100.165
128.791
113.094
99.0832
85.2402
75.0731
7290.42
2306.46
1339.16
755.133
544.236
305.701
165.368
99.5204
157.106
175.108
138.725
106.338
77.8348
62.3609
109.779
163.131
131.077
102.452
83.6471
74.4989
5640.59
3543.09
2387.3
1201.85
647.249
532.668
289.916
191.332
147.594
137.61
139.626
132.741
123.464
119.142
191.773
155.31
117.198
90.6828
78.1159
74.9015
3889.25
3886.68
2545.66
1591.01
956.269
672.439
474.878
337.688
245.419
203.283
197.062
189.77
180.541
163.238
141.132
116.042
96.9813
87.2412
83.4637
84.1257
1242.89
2110.04
1909.08
1195.32
787.277
614.614
459.092
367.207
260.372
207.335
176.198
154.7
139.234
124.501
112.775
104.401
99.393
98.8338
100.73
106.995
2549.83
1534.7
1298.44
979.845
697.25
551.281
440.617
361.111
268.735
218.315
177.838
155.744
137.832
126.472
118.151
115.737
116.348
119.514
125.219
130.812
750.468
1474.11
1192.45
628.746
627.479
462.681
375.285
304.796
247.515
214.153
183.297
168.227
154.161
148.714
144.76
144.356
144.693
146.045
148.801
153.875
1276.66
2245.77
1796.13
846.717
546.421
442.088
359.491
315.486
263.013
239.283
216.744
211.3
205.257
204.215
203.054
203.873
204.442
203.806
202.478
196.866
700.385
1377.27
913.196
481.673
340.573
328.858
311.049
285.923
250.354
237.727
222.358
217.399
210.662
208.683
205.429
201.068
195.124
182.496
174.878
158.514
2896.74
1247.14
861.62
571.506
318.712
231.097
229.351
238.665
230.193
198.891
170.62
153.037
140.132
128.866
119.702
106.879
98.0374
89.3551
85.6871
76.9239
384.459
1193.37
1162
936.603
759.943
715.296
665.876
644.458
626.878
625.669
616.985
584.77
474.701
337.021
271.32
235.842
208.169
177.394
159.803
126.672
1032.62
2481.66
2292.56
1917.19
1316.09
1198.43
1024.81
984.921
880.597
835.302
720.452
650.154
551.777
480.885
412.395
348.378
291.343
257.491
247.514
251.002
440.427
3091.82
3573.66
2383.61
1515.84
1243.37
928.776
800.627
640.122
572.224
486.783
447.337
389.204
348.159
300.425
268.882
247.778
239.51
236.123
234.063
367.441
3897.15
4006.23
2316.24
1406.37
1016.93
843.331
647.188
545.369
466.491
404.038
363.924
315.223
283.848
253.651
236.277
222.575
215.321
211.032
208.819
3364.26
5914.49
5148.74
3216.65
1996.69
1548.99
1250.46
949.557
662.884
506.18
395.273
356.801
312
286.766
261.503
247.029
235.226
228.521
223.362
221.687
12857
11946.7
7307.63
4366.45
2621.97
2225.92
1806.66
1691.23
1373.94
886.31
517.969
383.06
334.399
305.174
285.273
271.909
264.362
261.424
260.921
257.355
5336.3
9135.33
6149.96
3251.44
2035.95
1840.32
1578.59
1539.5
1417.89
1146.6
757.863
476.387
374.377
340.962
318.147
304.156
298.227
299.694
305.937
305.737
13864.4
7694.22
5038.24
3396.09
2281.96
1904.93
1521.28
1361.56
1238.5
1000.14
741.385
469.137
346.403
307.428
324.896
302.482
287.414
287.711
295.124
297.309
8337.45
7736.6
5654.42
4620.31
2885.73
2300.42
1647.44
1361.8
1249.21
1120.18
779.877
509.786
343.968
297.47
305.985
301.49
272.869
261.378
258.481
251.196
2401.61
7845.23
5311.2
4079
2466.77
2231.76
1636.47
1270.62
1162.42
1146.14
1043.1
816.388
447.129
318.372
310.69
283.513
256.543
241.968
233.706
227.535
2003.76
4942.71
2534.08
1815.34
1229.58
1213.24
1040.2
929.482
933.714
904.215
796.298
649.425
404.869
292.37
262.086
282.787
270.454
248.469
231.804
225.562
17624.9
6401.37
3039.6
1714.53
1010.67
881.445
821.333
798.555
772.665
718.491
593.882
461.45
355.073
324.665
331.187
349.039
295.159
247.793
227.056
223.74
13054.3
7290.25
5142.96
2691.67
1506.53
1309.75
998.513
845.812
661.687
552.261
520.244
479.144
456.531
425.658
416.466
345.465
273.916
237.154
226.255
226.863
19752.8
7200.82
5518.77
3502.93
1938.98
1562.48
1155.93
880.77
660.973
551.025
518.413
490.851
449.592
403.586
349.149
305.449
270.508
256.515
254.471
258.597
2663.52
5149.49
4583.3
2817.8
1871.33
1517.49
1122.93
925.713
666.319
555.28
465.356
414.613
371.492
339.73
315.633
301.893
296.336
298.864
306.898
319.324
4043.05
3605.29
3880.81
2665.62
1850.3
1411.91
1086.48
901.959
678.032
577.433
477.54
430.133
384.052
363.195
347.82
346.937
349.545
356.789
367.13
379.08
2601.43
4530.21
3256.3
1743.33
1685.64
1114.8
963.437
776.811
650.274
579.009
511.263
480.787
450.522
440.669
432.653
431.352
432.044
435.966
444.701
456.388
8793.93
6747.47
4429.46
2085.4
1475.75
1163.26
920.362
814.272
698.796
653.406
607.762
595.739
580.524
577.576
574.615
576.283
583.572
587.319
591.083
583.438
2514.02
5035.38
2768.26
1387.61
864.987
875.817
795.896
744.29
660.056
634.643
602.684
598.632
591.257
593.791
595.143
595.346
591.664
571.852
550.65
502.769
3389.71
3302.03
1595.84
699.173
377.606
351.931
423.559
468.151
451.117
393.509
340.83
313.1
284.054
266.965
257.681
248.824
242.451
230.698
223.806
204.924
850.709
2180.8
2010.76
1521
1183.03
991.524
863.227
781.378
738.767
709.553
657.481
551.241
432.807
342.252
287.677
242.745
209.677
177.811
161.467
137.094
5740.83
5078.74
4044.67
2764.5
1853.41
1591.32
1280.49
1211.26
1050.42
981.324
830.142
753.472
652.87
591.002
524.652
471.145
425.919
399.952
386.801
384.448
885.351
5153.8
4907.54
2844.72
1961.27
1496.69
1176.35
1006.13
832.056
741.107
635.959
585.003
516.181
473.485
424.142
393.804
370.302
358.745
351.218
347.837
1272.55
5487.46
5378.83
2950.55
1894.17
1310.16
1100.24
844.326
734.633
618.071
543.141
485.078
429.7
394.46
362.608
343.748
328.672
321.065
316.707
316.331
6426.16
8318.66
6454.98
3854.25
2475.02
1784.72
1462.18
1075.11
839.405
669.363
559.923
493.449
435.579
399.734
370.104
352.551
339.195
332.175
327.704
327.767
28766.6
13710.7
7855.97
4854.97
3027.05
2484.13
1977.98
1731.71
1316.78
942.825
680.56
553.035
476.946
429.37
401.864
384.194
374.777
369.61
367.49
362.856
12698.5
11863.4
7452.45
3847.27
2674.84
2326.23
1938.56
1791.83
1477.04
1153.66
833.499
631.487
531.552
478.505
443.881
425.998
419.141
418.742
418.68
412.052
12177.5
11158.1
6471.41
3866.25
2811.22
2315.07
1997.02
1797.22
1501.42
1159.41
860.536
616.53
513.026
454.189
437.953
417.484
411.038
412.255
413.15
405.721
11144
9678.33
6448.03
4422.72
2930.34
2518.1
2134.24
1839.4
1571.39
1301.59
907.052
649.932
499.042
445.19
415.809
391.157
373.137
368.551
364.31
353.929
14331.1
10543.1
5852.1
4042.79
2742.59
2415.81
2044
1661.41
1499.06
1356.88
1117.63
793.885
531.209
452.939
400.574
363.624
345.037
337.345
330.991
329.169
9983.63
8469.23
4179.69
2765.47
2006.6
1780.67
1539.77
1336.51
1218.51
1115.66
701.086
525.246
437.017
379.755
351.25
375.153
354.868
336.901
327.477
328.991
23838.7
7291.76
4596.15
2410.38
1858.93
1561.63
1429.27
1232.88
1032.16
894.584
736.249
578.132
500.944
468.514
450.996
424.081
370.421
338.444
329.211
333.334
11898.2
9479.07
6854.39
3553.99
2255.63
1853.76
1496.99
1217.93
948.798
810.676
741.08
685.327
629.164
572.464
495.922
420.384
368.75
346.457
341.926
347.949
11482.2
8399.45
7001.14
4150.51
2644.94
2079.27
1516.97
1138.15
892.151
750.776
691.277
632.29
566.599
508.009
448.822
412.129
387.682
382.085
382.437
391.478
5481.51
6736.71
5825.13
3647.44
2560.25
1940.46
1453.17
1141.83
872.45
726.182
625.155
557.694
505.917
471.806
446.188
435.663
434.049
437.476
445.86
458.233
3644.74
6516.19
5482.08
3622.81
2543.82
1791.08
1406.34
1107.65
877.964
748.429
642.847
586.452
536.982
517.136
503.729
504.224
506.484
512.74
522.021
530.863
5554.44
6460.2
4436.59
2555.3
2165.11
1424.63
1282.4
1003.83
873.673
779.5
709.16
674.412
642.612
630.689
620.702
617.276
617.149
619.292
625.205
627.652
7736.23
8470.27
6111.07
2987.57
2034.28
1506.67
1237.33
1057.27
936.807
880.574
835.836
824.487
808.224
805.531
799.172
795.486
791.828
783.18
775.798
749.943
14394
9724.9
3902.64
2029.44
1367.79
1272.79
1032.45
936.987
833.546
817.067
792.644
803.103
806.968
823.919
828.416
830.66
821.982
794.834
770.78
713.54
3160.68
3372.09
2119.05
1117.28
690.188
626.929
636.156
628.663
560.43
465.871
397.87
353.364
323.253
303.774
294.169
283.548
276.488
263.74
256.315
234.602
4549.17
3022.99
2531.03
1949.03
1570.34
1255.33
1005.82
831.39
738.87
639.69
537.344
434.714
361.159
298.304
249.149
208.318
182.84
159.962
150.306
133.761
14618
8591.27
6014.29
3539.35
2445.49
1875.44
1498.18
1348.91
1151.51
1037.37
892.764
807.22
727.153
676.972
624.945
585.037
550.648
531.167
516.444
513.158
5568.49
9087.74
6802.16
3448.54
2454.56
1699.73
1409.13
1135.63
981.237
834.299
741.729
669.383
613.913
570.083
531.546
504.242
485.435
474.476
467.611
467.463
5262.52
8722.19
7254.85
3537.47
2338.32
1556.76
1327.79
995.086
891.513
720.046
654.046
573.207
528.542
489.413
464.697
445.873
434.827
429.076
427.32
430.236
19710.7
11724.8
7166.76
4034.57
2837.45
1907.08
1635.4
1152.51
990.678
770.264
684.747
590.418
541.063
497.886
473.623
454.771
444.24
438.045
435.743
438.243
17656.3
13009.6
7726.67
4564.84
3316.82
2483.06
2090.72
1599.59
1253.47
927.7
770.8
646.708
584.837
532.452
509.26
489.677
481.416
474.629
471.214
469.279
11292.9
13230.2
9133.37
4295.87
3295.69
2572.01
2183.49
1788.86
1405.82
1080.95
858.687
711.956
638.887
585.817
557.114
539.983
533.726
527.795
522.498
511.482
14878
12169.5
8001.93
4320.71
3380.88
2589.3
2245.46
1919.69
1508.9
1127.66
887.333
701.871
620.301
561.285
543.907
531.231
529.13
526.257
519.732
504.57
18402.4
11389
7361.17
4483.81
3260.49
2741.23
2371.49
1989.1
1578.05
1234.98
901.039
703.509
599.6
545.501
507.316
485.394
477.227
472.732
464.77
457.883
17100.1
14200.2
7157.37
4236.22
3083.06
2555.71
2232.25
1826.11
1576.97
1302.68
990.298
735.221
597.768
536.071
481.353
449.753
439.762
435.882
433.843
437.653
24710.3
15665.6
5878.15
3388.34
2682.12
2158.15
1853.39
1556.29
1341.76
1148.19
720.616
506.109
492.949
464.25
452.48
457.121
441.006
432.611
431.989
441.887
21336.2
10161.2
5559.52
3069.16
2612.54
2081.96
1855.05
1476.46
1175.03
993.745
828.96
691.033
623.742
575.904
533.362
481.483
448.156
436.478
437.014
451.066
21617.7
12531.9
8623.03
4153.68
2991.92
2287.23
1833.23
1433.84
1129.22
982.574
889.951
817.888
726.868
649.267
543.364
488.539
463.22
456.672
457.918
471.755
15984.2
10397.5
8465.47
4655.7
3377.62
2418
1798.92
1306.6
1076.52
875.21
814.164
712.981
647.353
583.65
536.85
512.303
501.644
501.52
504.612
518.605
12732.4
8988.97
7388.68
4459.71
3236.75
2195.92
1742.27
1272.28
1038.39
838.994
748.679
661.225
617.232
582.351
564.274
559.322
560.198
565.274
572.6
584.693
6903.12
9730.65
7582.16
4717.52
3267.53
2069.61
1708.32
1247.85
1055.96
874.061
785.86
713.107
674.99
653.526
646.36
644.442
645.842
649.771
655.657
660.723
13946.8
10088.3
5896.65
3401.59
2583.2
1698.44
1555.81
1164.28
1070.79
932.81
883.886
833.143
810.847
790.588
782.926
774.272
772.988
770.43
770.405
764.187
3615.61
8870.35
7549.62
3855.04
2588.31
1740.1
1516.39
1222.48
1149.68
1059.07
1041.69
1017
1011.7
999.923
991.496
975.456
961.79
938.243
920.678
879.41
5507.77
9713.13
5630.01
2561.03
1809.49
1410.25
1159.3
1009.63
950.323
939.281
946.758
978.48
1003.64
1031.75
1034.97
1030.86
1005.29
968.217
933.776
864.428
3248.96
4696.04
3779.43
1867.82
1079.16
841.15
745.446
649.642
547.344
457.711
395.11
355.081
333.077
316.958
307.366
292.826
281.931
261.605
250.767
224.087
4717.22
3320.06
2871.24
2322.25
1894.32
1369.06
981.456
726.916
563.943
438.607
353.409
282.783
236.343
199.224
173.55
153.384
138.077
126.378
118.432
113.28
10871
9509.73
8425.14
4143.45
3625.36
2110.88
2023.31
1513.87
1425.65
1117.23
1048.07
878.659
861.056
795.586
783.794
737.35
728.647
707.927
704.419
704.085
41218.4
14262.8
9003.09
3953.85
3459.35
1963.16
1922.15
1335.32
1285.56
980.534
945.48
793.903
783.896
711.702
705.217
668.822
667.606
653.974
656.179
657.914
18776.4
12987.3
9357.42
4122.04
3162.82
1909.55
1779.69
1224.78
1179.86
882.521
857.646
713.766
700.53
638.109
635.148
609.005
610.876
604.643
609.495
616.122
44500.6
15494.8
9344.12
4275.91
3722.94
2164.8
2089.71
1372.61
1303.41
944.801
909.84
743.526
726.455
655.463
650.551
621.386
620.864
611.059
614.104
617.332
19033.1
12648.7
8354.67
4574.04
4143.28
2634.4
2500.62
1664.78
1419.12
1023.74
959.115
798.679
768.046
698.081
686.87
658.443
654.946
642.621
642.12
641.458
29098.6
16966.7
9801.03
4597.08
4297.01
2846.2
2661.76
1940.7
1547.7
1180.31
1016.39
867.152
831.17
761.551
747.423
718.82
713.905
695.453
687.116
675.632
10832.2
12720.9
9305.18
4935.59
4329.95
3015.2
2532.36
2028.56
1580.56
1185.46
992.023
833.16
774.407
712.329
735.259
718.037
708.784
693.362
680.208
665.709
35205.7
13195.3
8281.17
4854.89
3865
2992.63
2669.69
2085.15
1612.12
1209.27
957.265
801.817
737.768
685.814
664.159
658.597
644.628
630.603
625.069
623.095
43651
24465.2
9476.49
4913.89
3754.48
2781.15
2481.09
2027.14
1658.8
1247.86
933.74
760.241
707.971
669.765
623.926
607.331
595.623
592.625
596.772
609.914
50277.1
29053.8
9211.01
4461.92
3527.08
2514.62
2176.73
1799.43
1488.63
1163.36
857.11
664.919
619.168
614.349
602.846
605.696
592.278
591.332
598.759
619.869
29646.1
13418.1
6585.85
4257.99
3447.92
2529.89
2290.81
1723.61
1366.98
1131.18
961.999
827.911
766.726
708.05
654.436
616.606
601.484
600.871
610.462
634.707
23188.7
16236.8
10667.9
4733.27
4157.03
2831.15
2177.24
1633.15
1371.55
1176.37
1091.43
959.643
858.641
741.753
673.566
638.659
629.852
632.404
640.466
660.257
20370
12608.3
10107.8
5014.96
4482.4
2696.4
2337.63
1581.74
1398.53
1065.38
1031.55
856.147
818.096
726.445
705.511
681.514
684.48
685.04
692.295
708.294
23475.2
11834.6
9817.02
5304.47
4173.14
2549.47
2259.2
1475
1324.39
1005.5
955.677
819.217
804.304
755.797
754.865
747.784
753.373
757.165
764.2
774.13
51904.4
21435.7
11523.1
5586.91
4291.09
2423.08
2290.03
1502.48
1411.24
1078.6
1046.88
906.404
906.431
858.156
866.878
849.104
855.116
850.099
853.162
850.787
15087.1
12540.9
7830.15
4457.36
3216.63
2160.93
2028.77
1383.45
1409.49
1146.98
1165.85
1052.52
1066.08
1014.11
1020.15
994.709
995.974
981.545
976.597
955.225
26772.2
12930.4
9286.77
4391.64
3620.46
2076.05
2099.96
1514.5
1574.16
1335.85
1399.01
1290.45
1325.94
1263.84
1267.08
1219.65
1200.32
1150.73
1124.34
1063.35
18878.3
12568.3
5733.18
2940.17
2515.18
1492.94
1546.45
1165.82
1285.81
1162.35
1290.77
1258.88
1337.82
1312.94
1322.47
1276.35
1234.85
1165.9
1113.66
1036.67
4256.54
4005.44
2623.56
1441.68
1008.8
800.722
667.244
539.703
446.957
379.619
342.48
318.583
305.149
288.768
273.485
252.028
233.108
209.524
195.441
170.575
1187.83
1182.58
841.103
1328.3
1102.3
1191.46
802.561
879.005
758.762
660.186
1024.23
807.582
694.815
563.771
799.782
937.403
798.159
1156.94
766.492
1003.58
850.918
557.403
735.234
569.285
648.276
461.268
787.744
634.453
210.035
337.818
208.587
1205.99
1185
1250.99
1143.6
190.184
198.919
197.587
1146.01
1090.86
1099.17
1025.42
205.583
203.574
240.494
1079.32
1026.33
1028.28
1049.86
163.5
251.993
261.239
996.68
796.486
1049.54
993.732
98.3368
252.733
185.633
689.856
489.577
942.507
776.596
73.3139
171.314
123.073
436.056
317.931
702.947
470.772
48.6172
104.299
52.1259
283.148
243.518
388.685
264.5
41.5864
48.6568
49.7177
243.385
252.411
261.821
270.336
211.869
319.14
183.189
1262.07
1138.19
1061.11
942.154
198.038
170.508
181.307
1088.69
1009.54
903.209
870.935
240.131
192.946
212.631
1010.36
1026.56
873.905
873.977
266.919
213.658
219.035
1028.78
995.026
870.23
851.409
209.297
223.11
218.772
959.499
827.293
833.43
755.385
137.396
204.104
146.61
769.901
513.164
715.023
511.246
55.6082
123.013
58.3853
419.186
271.695
416.708
273.494
51.1155
55.2044
52.8177
267.91
274.554
267.137
254.505
133.741
180.288
104.874
792.128
777.116
582.079
637.665
172.492
107.226
154.928
777.917
809.997
653.918
708.19
200.946
172.744
187.542
820.789
821.388
718.786
710.234
191.106
185.976
156.456
812.19
763.381
693.406
605.417
185.033
144.845
118.473
736.808
652.467
566.552
460.055
138.668
112.08
97.165
618.445
461.3
433.54
341.406
57.5933
83.487
58.4288
380.949
263.066
308.272
262.373
51.933
58.2102
49.6974
255.104
241.022
257.104
252.406
99.0975
224.198
127.001
590.942
633.718
674.865
719.865
139.168
116.537
109.13
645.379
673.855
705.927
604.099
175.81
103.541
99.7596
676.555
664.844
561.389
500.715
150.817
103.592
106.984
651.017
570.686
493.658
459.557
111.324
102.341
86.0242
536.21
442.058
446.291
402.144
89.1747
82.4233
69.8503
417.226
336.304
389.872
359.15
62.3409
67.3451
64.6319
311.978
283.814
352.789
335.384
50.8385
65.5862
57.737
279.828
269.493
331.008
324.077
1417.23
1636.6
1354.13
2049.02
1819.44
2011.67
1718.1
1276.42
1290.82
1192.51
1761.85
1609.88
1641.64
1517.29
1158.67
1189.92
1181.5
1534.23
1354.86
1492.01
1400.45
891.785
1172.5
1085.26
1290.86
1001.03
1362.74
1187.99
571.446
1029.09
834.601
896.34
690.809
1111.4
859.413
379.162
750.995
500.916
628.459
494.579
772.731
547.963
300.372
421.549
317.03
466.194
422.968
498.546
434.934
290.577
312.588
305.141
414.179
391.92
424.564
394.525
1336.13
1384.46
1108.26
1980.83
1672.75
1678.01
1417.48
1168.82
1058.11
1000.39
1596.82
1472.36
1361.71
1262.33
1151.66
995.676
977.071
1447.75
1367.84
1239.41
1170.3
1084.58
970.502
926.161
1337.28
1193.11
1156.35
953.551
889.538
897.218
796.636
1129.69
901.66
887.198
744.534
538.013
749.548
528.563
812.606
566.463
700.322
533.166
323.995
440.807
320.341
510.94
438.729
485.757
410.268
308.31
310.604
278.296
426.736
393.754
393.061
342.972
941.375
827.395
801.411
1432.12
1294.12
1282.1
1183.18
931.868
803.472
815.225
1258.64
1187.8
1148.35
1051.07
916.56
814.331
784.047
1167.63
1098.73
1021.37
935.615
833.564
763.557
667.133
1079.77
869.184
905.485
776.962
688.152
623.637
502.997
788.088
628.015
717.797
558.601
476.691
471.629
371.872
591.027
468.246
516.353
427.509
303.554
342.954
301.679
434.305
376.389
414.601
399.752
261.997
296.086
284.718
362.042
324.937
395.724
385.903
800.491
937.008
888.911
1289.6
1189.07
1371.71
1242.79
782.141
852.106
715.627
1147.5
1019.83
1170.31
965.658
737.208
663.773
582.416
982.178
890.202
898.985
778.63
630.712
570.094
525.248
860.535
752.687
755.313
692.616
490.311
510.157
461.162
708.978
585.648
673.39
614.649
375.936
448.425
417.729
551.319
477.724
601.142
568.183
329.312
410.872
389.32
465.957
443.186
556.985
520.958
305.156
383.895
365.696
436.225
410.439
510.837
477.696
1898.43
2088.27
1788.31
2314.28
2041.96
2249.76
1929.83
1660.93
1711.49
1578.06
1966.27
1697.03
1847.94
1665.45
1373.87
1543.92
1425.49
1586.26
1347.89
1603.46
1409.25
1007.67
1378.23
1179.32
1258.34
983.742
1336.81
1092.21
710.652
1097.93
844.72
905.495
739.548
1010.64
794.86
525.319
762.843
562.732
692.137
598.146
734.736
606.848
455.033
521.982
464.095
577.183
533.565
581.864
533.631
417.236
452.29
416.062
522.077
490.427
520.382
480.874
1737.66
1740.27
1486.7
2184.74
1871.64
1897.15
1644.38
1530.31
1429.74
1318.6
1792.04
1622.67
1579.54
1428.85
1396.81
1290.44
1204.77
1569.22
1394.98
1384.42
1249.01
1275.01
1308.97
1313.1
1359.75
1275.65
1302.96
1320.95
1005.79
1042.72
1105.08
1092.63
1034.71
1014.57
1080.28
576.433
646.445
531.825
745.094
609.873
566.074
541.128
466.3
496.209
429.327
583.061
531.093
524.784
477.335
414.308
411.498
359.499
516.751
477.042
462.41
424.197
1378.28
1417.86
1279.89
1781.84
1569.21
1725.81
1504.76
1245.1
1233.93
1107.11
1509.76
1362.29
1428.49
1230.27
1132.51
1070.13
970.163
1318.32
1186.07
1177.05
1043.37
993.398
1052.15
1044.98
1126.21
990.914
941.393
1066.38
480.184
631.327
667.415
468.745
584.773
404.717
572.631
457.277
525.546
449.866
451.632
471.812
600.281
548.735
393.254
442.324
431.743
471.032
450.288
541.638
521.661
343.515
427.218
412.756
440.72
415.843
513.844
491.425
1286.49
1510.32
1329.92
1757.87
1511.16
1823.57
1525.63
1076.4
1248.01
1028.03
1425.23
1201.7
1420.8
1169.4
926.844
957.8
829.634
1143.93
1010.29
1095.15
956.021
781.886
804.888
738.891
972.158
851.684
928.223
855.963
611.732
718.1
657.215
807.114
691.478
832.595
767.798
511.605
643.894
608.652
663.592
608.794
753.559
706.814
476.599
595.822
555.019
596.825
563.185
688.661
635.77
437.448
543.824
503.38
552.031
513.191
620.342
566.739
2075.05
2301.84
1967.14
2570.74
2169.66
2484.17
2104.34
1692.29
1881.43
1676.55
2048.43
1697.81
2001.6
1724.39
1327.78
1605.62
1387.42
1581.84
1290.69
1630.11
1340.01
972.541
1307.77
1057.87
1194.37
976.233
1242.78
993.069
746.443
979.78
782.166
922.055
790.705
927.528
778.057
619.091
729.417
620.597
758.826
699.51
743.334
682.211
556.93
598.921
553.962
684.88
645.076
670.065
636.183
512.102
540.985
500.538
633.175
600.492
623.836
582.632
1908.54
1952.15
1689.17
2399.75
2049.16
2139.23
1849.09
1638.49
1620.62
1455.22
1954.83
1704.54
1769.83
1557.23
1377.28
1404.82
1247.1
1617.69
1338.02
1484.79
1253.29
1066.64
1187.92
871.9
1243.2
994.392
1170.73
919.375
789.903
774.344
609.887
927.398
773.207
843.985
688.162
620.75
589.997
550.716
736.629
671.522
655.863
599.172
549.904
536.139
494.294
659.989
627.973
590.781
572.406
496.156
481.337
446.377
615.746
575.603
564.265
534.474
1621.58
1819.09
1566.37
2079.15
1797.06
2107.71
1763.19
1391.51
1480.84
1263.52
1716.62
1502.41
1653
1390.3
1190.04
1206.17
1062.32
1432.11
1215.39
1321.58
1139.45
829.004
1019.7
867.362
1143.17
901.608
1085.83
933.146
526.428
807.25
663.104
822.63
657.708
882.208
755.472
496.14
631.625
580.358
625.389
576.236
725.842
673.503
472.507
571.664
548.185
571.372
562.37
665.022
639.066
440.078
539.661
512.769
556.686
532.495
627.99
589.761
1572.22
1924.53
1578.29
2163.41
1765.06
2224.96
1730.93
1235.81
1466.64
1207.84
1643.13
1364.61
1601.35
1339
1033.83
1133.55
993.208
1297.29
1128.19
1272.1
1127.48
872.298
964.719
889.752
1079.55
952.519
1092.34
1008.57
717.66
865.577
799.573
912.635
807.189
984.49
908.696
636.61
784.376
732.123
780.52
725.8
884.883
813.921
587.848
712.362
656.38
712.974
672.605
791.039
724.792
533.394
639.767
580.928
657.354
605.357
701.568
630.197
2219.17
2573.8
2178.5
3129.34
2523.99
2998.06
2602.93
1727.79
2068.48
1767.94
2377.41
2039.74
2472.92
2132.17
1305.33
1666.64
1350.04
1934.55
1562.99
2016.2
1624.66
1007.45
1247.74
1000.37
1483.29
1333.99
1513
1277.76
830.399
938.747
802.4
1300.99
1177.42
1226.03
1123.84
750.333
773.021
729.334
1165.35
1159.92
1116.55
1168.36
697.904
721.393
690.901
1164.45
1119.88
1174.82
1152.81
649.784
678.227
632.035
1112.55
1073.44
1141.52
1100.81
2126
2225.85
1932.08
2902.38
2566.33
2641.44
2398.91
1754.6
1849.99
1620.01
2453.6
2137.58
2308.84
2034.81
1348.85
1537.48
1274.87
2017.72
1626.24
1922.02
1573.86
997.457
1185.38
939.483
1510.56
1260.34
1464.53
1222.07
791.654
869.501
718.962
1204.65
1093.52
1162.25
1019.77
713.455
685.985
635.816
1082.04
1140.38
993.546
1037.6
682.156
633.848
627.901
1164.6
1150.51
1085.54
1111.72
623.7
620.068
584.06
1138.14
1082.29
1101.42
1047.94
1883.65
2227.55
1854.05
2623.5
2356.65
2722.85
2330.23
1568.23
1736.86
1461.91
2263.66
1991.53
2196.44
1901.78
1243.15
1388.71
1188.05
1882.91
1558.13
1812.53
1553.11
929.318
1129.33
974.651
1458.75
1228.34
1482.19
1324.58
698.408
925.881
801.06
1165.95
1011.94
1278.94
1151.7
618.701
771.187
723.768
983.244
1026.14
1127.98
1158.64
620.127
718.818
693.871
1075.2
1105.25
1180.25
1157.63
582.751
681.518
634.973
1096.91
1044.37
1144.38
1089.06
1853.07
2351.86
1794.03
2826.71
2312.03
2846.02
2144.97
1436.03
1659.96
1405.47
2164.44
1871.86
1995.47
1808.09
1184.13
1343.23
1194.29
1800.58
1564.34
1757.86
1581.84
1001.17
1155.79
1070.43
1500.68
1370.25
1527.2
1479.08
855.455
1046.96
965.371
1332.83
1220.86
1461.54
1356
777.715
937.532
862.081
1199.57
1220.5
1317.19
1268.18
724.787
839.061
768.177
1219.64
1175.78
1253.45
1167.16
649.38
742.299
665.035
1158.93
1100.64
1137.59
1067.29
1217.32
1251.83
1169.97
1167.85
1227.41
1238.21
1151.62
1225.39
1252.87
1119.96
1185.71
1221.2
1263.93
1038.72
1155.38
1104.13
974.703
699.742
1165.1
1082.98
828.487
1260.03
1348.85
1255.82
1300.97
1283.67
1315.77
1235.6
1193.9
1137.53
1180.08
1086.94
1212.66
1121.45
1163.35
1210.88
1182.7
1253.85
1084.41
1262.86
1016.38
1190.09
1131.94
674.468
1022.61
947.126
1049.67
806.626
1108.56
927.862
962.693
877.969
853.616
958.106
934.256
849.631
944.821
1042.28
691.869
628.038
978.482
1013.11
574.456
868.206
838.555
667.043
575.562
907.429
801.189
564.772
970.583
1059.72
948.527
1010.27
981.619
1046.07
936.291
895.547
829.119
875.905
799.629
904.201
822.585
866.038
901.65
595.799
942.797
619.557
972.848
536.996
870.684
831.64
530.076
749.665
584.354
769.012
525.036
807.461
857.236
925.413
777.705
574.772
894.115
728.747
705.444
966.161
985.616
901.339
963.737
945.508
1010.27
925.633
894.439
800.37
855.829
816.519
883.107
802.588
877.434
1007.93
1140.12
1063.54
1091.63
949.99
1082.21
1026.17
864.641
575.977
910.95
783.079
734.212
709.606
912.452
982.752
985.488
1043.4
962.125
1029.49
945.694
994.856
907.426
834.001
832.541
911.589
813.403
895.703
921.945
408.108
574.037
476.848
409.587
517.655
360.05
384.961
620.109
710.422
673.285
751.352
629.931
705.544
688.334
548.602
506.588
618.554
584.077
562.695
483.83
633.48
482.896
462.144
560.777
667.019
387.049
577.44
577.2
405.154
364.498
492.046
459.521
331.531
378.959
504.037
632.047
768.856
741.415
728.587
716.674
706.985
661.63
564.031
606.965
541.949
678.135
501.294
654.01
596.764
362.834
471.786
374.345
836.118
878.966
838.844
889.305
310.185
340.186
333.807
915.234
911.554
925.336
939.688
286.385
324.736
304.579
892.761
849.47
919.461
857.227
227.616
267.028
220.574
745.851
644.568
766.555
632.037
185.603
183.65
160.989
521.148
420.506
504.145
417.151
123.707
134.261
109.515
302.033
227.925
332.038
253.396
85.512
90.3848
79.5764
199.81
192.066
211.514
203.609
68.4513
77.2096
66.8839
187.479
197.101
203.935
229.481
573.404
730.532
527.368
1198.73
1060.94
1223.02
1080.45
514.194
288.765
361.759
522.196
505.963
528.493
283.2
537.823
188.134
199.703
551.935
561.946
532.935
191.565
594.306
199.451
197.317
600.082
609.558
573.017
205.768
629.304
200.176
224.942
596.888
576.015
628.726
225.559
399.116
122.069
185.995
357.771
299.946
499.815
147.899
231.583
86.8372
99.0012
191.366
175.693
258.34
91.1635
127.015
56.9276
70.2614
116.188
101.414
160.881
59.7815
118.927
49.4475
44.9647
97.0641
103.055
109.438
45.6987
83.7536
105.568
91.5597
219.087
230.804
237.127
251.044
516.813
666.827
499.03
1156.29
1065.42
1063.31
964.596
511.388
270.305
335.824
513.6
520.387
508.038
268.78
519.363
195.885
195.623
542.999
544.587
520.139
187.59
577.793
215.655
195.933
573.11
597.422
553.592
210.241
646.336
261.569
241.437
657.351
671.608
630.407
250.937
636.007
253.122
261.919
659.894
624.821
653.911
257.765
497.05
178.201
205.373
519.061
478.458
532.817
188.264
226.908
92.2312
124.915
285.849
213.034
307.118
98.0644
140.693
51.0709
52.9223
130.31
135.881
134.584
53.192
97.8578
111.358
87.1284
240.441
254.423
226.273
230.302
397.732
411.14
289.346
744.854
672.311
597.141
521.662
292.634
181.726
231.221
354.386
341.729
318.129
166.34
386.74
143.613
125.358
383.736
414.974
346.488
135.731
499.332
194.355
183.767
494.501
510.877
483.375
192.788
488.175
199.232
195.296
520.5
515.481
501.197
190.299
418.848
187.616
168.006
488.593
480.513
435.891
162.89
348.259
164.969
146.589
436.417
412.934
365.318
138.6
177.981
88.8754
102.642
272.37
196.554
238.63
80.4116
141.538
56.0022
55.6159
137.208
143.055
137.446
56.2394
75.77
99.3387
78.3417
201.257
206.477
210.543
226.575
247.32
307.703
280.091
482.416
491.261
534.85
544.446
252.613
133.509
169.29
239.316
237.745
249.815
139.308
304.05
104.58
100.898
277.623
313.57
279.473
102.362
379.419
169.519
133.541
410.099
428.359
368.194
143.988
383.349
171.897
153.731
436.788
427.197
389.056
152.655
307.972
127.875
131.213
352.24
325.956
329.843
121.719
244.733
103.18
100.435
270.352
259.005
256.718
96.6255
179.959
68.5773
74.8548
189.782
169.784
189.688
69.4321
170.699
62.6579
65.4625
161.527
161.027
171.526
65.4547
85.7653
122.101
100.085
244.993
259.559
276.917
296.757
218.029
329.627
217.239
539.841
569.626
593.533
608.489
174.336
201.63
192.067
553.439
519.554
571.38
490.591
137.747
165.957
127.019
439.76
390.096
442.776
386.865
139.194
117.596
117.527
369.759
367.987
366.597
360.275
138.084
117.871
117.332
362.794
350.062
359.224
353.832
127.229
117.812
119.472
337.018
331.33
352.183