/*--------------------------------*- C++ -*----------------------------------*\
  =========                 |
  \\      /  F ield         | OpenFOAM: The Open Source CFD Toolbox
   \\    /   O peration     | Website:  https://openfoam.org
    \\  /    A nd           | Version:  10
     \\/     M anipulation  |
\*---------------------------------------------------------------------------*/
FoamFile
{
    format      ascii;
    class       volScalarField;
    location    "6.3";
    object      nut;
}
// * * * * * * * * * * * * * * * * * * * * * * * * * * * * * * * * * * * * * //

dimensions      [0 2 -1 0 0 0 0];

internalField   nonuniform List<scalar> 
12920
(
1.25209
4.11293
2.10675
3.64836
1.95548
2.45604
1.84578
1.85578
1.52848
1.41813
1.22014
1.14249
1.06545
0.993392
0.786113
0.702977
0.643136
0.597179
0.535513
0.411412
0.953222
2.10165
2.57416
6.31496
4.0325
4.96919
3.89319
4.49298
3.70252
4.02761
3.01695
2.78129
2.15767
1.7868
1.37692
1.14146
0.961393
0.925084
0.885391
0.968807
0.906534
6.50279
6.8456
7.44215
4.82238
5.13349
3.83939
3.92969
3.17907
3.24412
2.79914
2.85154
2.22092
2.01099
1.59387
1.43824
1.31455
1.39645
1.359
1.42382
1.28822
9.10713
7.15614
7.1349
4.35279
4.5313
3.87791
3.53248
3.22145
2.98251
2.77227
2.61932
2.42373
2.26252
2.01639
1.94496
1.76001
1.82163
1.63477
1.57151
7.12474
10.8221
9.91253
8.56291
6.07156
5.70077
5.16507
4.31073
3.6081
3.11335
2.77871
2.57855
2.4076
2.27374
2.0898
2.0412
1.85257
1.90224
1.70423
1.62894
21.1024
16.4713
11.9023
9.9277
6.11982
6.77187
4.94287
5.11322
4.11248
3.37534
2.52947
2.52966
2.44098
2.34016
2.23738
2.17194
2.14765
2.13039
1.85604
1.66552
4.29382
11.7439
11.7614
8.52862
6.3571
6.00702
5.53022
5.33875
4.5028
3.91743
2.93847
2.38328
2.18574
2.32061
2.2109
2.22302
2.11186
2.05297
1.75675
1.64587
6.659
9.58526
10.4997
8.75012
7.05667
6.35449
2.38543
2.01999
1.54624
1.32721
0.971424
0.775265
0.618574
0.642625
2.58304
2.41048
2.06685
1.89651
1.68323
1.64413
1.54933
11.1179
10.5972
10.0549
8.39152
2.88428
0.691602
0.431881
0.401395
0.389067
0.282908
0.225444
0.173346
0.16465
0.754384
2.67284
2.12833
1.9034
1.71118
1.67269
2.28483
12.5069
10.9486
9.6382
7.97708
2.70871
0.775353
0.450531
0.459041
0.599572
0.525305
0.337202
0.251972
0.154652
0.869809
2.21852
1.81065
1.64267
1.44439
1.43925
1.83664
5.24964
8.05239
6.92978
6.22631
2.62826
0.869107
0.493252
0.60574
0.588678
0.498164
0.384793
0.252508
0.15827
0.641506
1.97039
1.78078
1.70273
1.44527
1.39549
16.9885
6.55353
8.21227
6.15025
5.21474
1.94752
0.71499
0.402278
0.639846
0.577902
0.424112
0.298389
0.205663
0.177135
0.713176
2.70182
2.22493
1.96818
1.62138
1.57749
15.108
13.3487
10.9212
7.79874
5.71155
5.17637
1.90267
1.55142
1.36547
1.31693
1.07243
0.972515
0.803628
0.805133
3.10578
2.71803
2.2123
2.04366
1.83859
1.92199
6.414
13.6947
11.3254
8.94375
6.9335
5.81446
4.88886
4.12677
3.51715
3.19795
3.14809
3.08959
3.01481
2.86796
2.66821
2.42021
2.17514
2.09687
2.05033
2.05819
2.08433
10.2314
9.7707
7.75724
6.28894
5.55308
4.80261
4.29862
3.61988
3.23047
2.97778
2.79078
2.6482
2.50459
2.38389
2.29349
2.23736
2.23049
2.25141
2.32048
7.60882
8.84722
8.08271
7.01698
5.92441
5.26176
4.70389
4.26195
3.678
3.31596
2.99271
2.80084
2.63486
2.52403
2.43922
2.41368
2.41964
2.45215
2.50997
2.56608
2.46274
4.86162
7.72854
3.12349
5.6257
4.81567
4.34177
3.91386
3.52912
3.28358
3.03816
2.91062
2.78607
2.73613
2.69923
2.69543
2.69855
2.7111
2.73662
2.78337
3.12848
6.47561
9.52314
6.53521
5.23863
4.7114
4.24905
3.98216
3.63763
3.4703
3.30283
3.26078
3.21351
3.20525
3.1959
3.20249
3.02705
2.91775
2.59262
2.52177
1.672
8.38327
6.81482
4.8853
3.95857
4.05788
3.94694
3.7893
3.54769
3.45763
3.34441
3.30747
3.03382
2.92957
2.52965
2.37543
2.10644
1.94524
1.76629
1.62935
2.79884
5.90446
2.76927
2.50668
1.29695
1.29967
1.36683
1.98936
1.83262
1.82225
1.41424
1.28417
1.07619
0.97036
0.835351
0.728197
0.638339
0.579019
0.537772
0.489336
0.936308
14.9663
14.2665
17.2139
10.3683
13.287
10.2691
11.2284
9.75099
9.97658
9.01742
8.36108
6.44167
4.98155
4.64269
4.6627
4.35851
4.03648
3.65731
3.05025
3.09756
15.066
23.1737
25.4418
21.8498
22.8857
22.141
21.9456
21.0967
20.515
18.705
17.4264
15.7658
14.6081
13.0768
11.1389
9.59595
9.47141
9.83027
10.7537
1.76875
26.2823
41.2083
35.9324
27.9215
25.4069
22.4161
21.1359
19.099
18.0352
16.4661
15.5637
14.0342
12.8788
11.5988
10.9438
10.715
11.0493
11.417
11.738
0.97926
31.4884
42.3252
35.6897
25.4062
23.3395
21.5849
19.0133
17.2553
16.0603
14.9152
14.1975
13.0431
12.366
11.6294
11.3976
11.2103
11.2391
11.2948
11.2882
10.3569
39.383
45.5778
38.5134
29.2564
27.1054
23.7059
20.7069
15.3077
13.7114
12.4326
12.9813
12.5644
12.4926
12.0811
11.9856
11.8009
11.7513
11.563
11.4385
30.5278
58.2033
48.2089
42.3549
34.0588
31.1016
27.5385
25.6545
20.9562
13.856
9.59547
10.4771
12.042
12.7516
12.8565
12.7696
12.59
12.4523
12.2845
11.9121
21.7241
51.2816
57.6423
41.0486
29.8384
27.9444
25.6469
24.5585
22.7216
18.259
12.809
10.366
11.1977
12.5657
13.0295
13.0665
12.9192
12.9016
12.798
12.4582
50.1399
55.2667
51.9092
42.3123
32.9747
30.6126
22.674
22.2083
21.3126
18.0918
13.4238
9.46555
9.3975
10.6534
13.6472
12.9013
12.2884
12.2985
12.5104
12.4457
19.805
51.5326
48.2294
44.1544
30.858
20.7935
18.152
19.6899
20.4921
18.2514
13.6014
10.376
7.85771
9.46317
12.5141
12.9775
11.7821
11.5059
11.5488
11.6365
13.2602
51.5046
42.6344
37.0572
24.4751
19.7612
18.2039
18.9576
21.2555
22.5539
18.6589
13.6569
9.00296
9.93937
12.5807
11.4631
10.4774
10.2643
10.301
10.7909
9.88462
35.3155
23.1846
18.2574
13.2778
13.41
12.7807
17.1953
21.385
21.4412
16.8761
12.4263
8.69713
8.92671
9.32198
10.9477
10.78
10.2735
10.1168
10.6608
46.0664
41.0914
31.1959
20.5876
13.3533
12.1343
12.7849
16.6282
19.9235
19.1243
15.7598
11.8684
9.5125
10.1981
12.0367
13.6401
11.6513
10.1633
10.3158
10.9182
28.3157
41.5297
49.0361
36.5443
24.4143
24.8502
19.0246
18.6971
16.4143
15.3261
15.3254
14.8098
14.517
14.0637
14.8432
12.5972
10.4625
10.2333
10.8722
11.3589
34.3787
40.1153
48.3089
40.7709
26.4561
24.6267
22.4613
21.0937
18.5852
16.3149
16.1437
15.5771
14.879
13.8731
12.7217
11.858
11.3276
11.6228
12.092
12.3276
3.9872
39.1297
46.2785
37.4108
28.9467
26.4069
23.7447
22.4463
18.6023
17.3027
15.6788
14.8861
13.9849
13.3991
13.0591
13.0098
13.1789
13.518
13.8937
14.1318
8.53247
23.7273
40.3232
38.5705
31.9248
26.6844
23.9416
22.2451
19.3556
18.2744
16.6718
16.0473
15.1173
14.8774
14.6292
14.8228
14.9988
15.2327
15.468
15.474
4.34085
41.3475
43.834
31.6852
32.2389
23.1117
23.0383
20.8596
19.4953
18.7722
17.8798
17.6069
17.1824
17.1294
16.989
16.9239
16.8201
16.7317
16.7824
16.7115
19.2455
49.8335
49.1994
33.1016
27.209
23.2093
21.0316
20.8195
20.034
19.9153
19.6086
19.6139
19.3838
19.2831
19.1115
18.9644
18.7162
18.3966
18.0684
17.7632
8.74436
36.4869
34.0901
19.9786
17.4829
17.641
17.7144
18.6317
18.3412
18.3868
18.1857
18.3006
18.2648
18.3298
18.2944
18.1534
17.8497
17.1661
16.4691
15.2506
12.7189
29.0094
13.218
9.56261
4.82305
8.45058
10.3152
12.0764
11.8819
11.1236
9.56861
8.94972
7.08681
6.62677
5.9019
5.58221
5.1548
4.85437
4.51337
4.18712
2.2008
25.7448
21.9695
21.9413
14.7505
16.9223
12.6464
13.8172
11.7733
11.8613
9.954
8.03498
6.23322
5.52631
5.24057
5.05905
4.6516
4.33535
3.97315
3.5235
21.1533
37.1379
43.2154
41.5367
35.0738
32.6701
28.6351
27.8772
25.9096
24.871
22.4013
20.9952
19.4609
17.4835
15.9967
14.7118
14.3371
14.7735
15.1187
16.2451
3.34447
41.2149
55.7648
51.4229
42.9321
37.2842
33.0233
30.4962
27.7512
25.7563
23.494
22.0273
20.2442
19.0318
17.8875
17.3323
17.0289
17.0721
17.1321
17.273
6.33895
44.1693
59.6267
54.7095
43.3842
37.176
33.3331
29.2821
26.8307
24.5897
22.7835
21.3054
19.8009
18.8507
18.0282
17.612
17.2704
17.1229
17.0373
17.0092
30.3131
48.9912
59.7271
54.172
45.2357
40.6467
35.3237
30.1572
25.1295
23.578
22.0583
21.236
20.0852
19.3325
18.6104
18.1744
17.7949
17.5469
17.3178
17.208
75.5985
66.0779
59.0663
55.1506
48.1748
44.2959
39.0563
34.7749
27.5829
22.1805
20.0945
20.7902
20.7999
20.2376
19.6833
19.1562
18.7319
18.4122
18.1054
17.6927
28.3857
75.4257
72.8671
58.3233
48.2497
43.5782
39.1462
35.9352
30.5378
25.3853
21.6738
20.6171
20.8031
20.8079
20.1833
19.6197
19.2584
18.9953
18.6322
18.2486
52.5949
75.1166
72.2033
60.3504
50.8485
45.8219
39.8161
36.6265
32.1064
26.4501
21.4852
18.5502
18.9917
19.1977
19.0839
18.5237
18.258
18.259
18.2338
18.0039
53.9017
71.2283
65.5731
59.0896
47.1414
42.108
37.7932
35.3914
32.2398
27.9959
22.3457
18.2633
17.0492
18.0628
17.8714
16.5257
16.3246
16.5828
16.7195
16.8581
52.6236
68.0506
59.7264
52.173
41.4344
39.0368
36.0572
34.3968
33.7701
30.8589
24.9822
19.762
16.9279
17.5666
16.0805
14.1159
14.2077
14.6641
15.0817
15.7965
17.5937
65.9251
47.9046
36.7342
30.5043
29.1014
29.7938
32.5318
32.6408
29.8412
7.50775
7.97045
11.3815
11.8897
11.7193
14.2192
14.4018
14.5122
14.8771
15.7168
61.8824
63.0699
52.7932
37.705
32.7571
29.4134
30.4615
31.7392
30.2488
27.4466
21.8258
16.2361
15.1963
16.129
16.9457
16.9004
15.6533
15.2928
15.7459
16.4639
26.9758
64.435
69.4195
55.2855
43.718
41.4971
36.0391
32.2188
28.0482
25.6392
24.5149
23.4451
22.164
20.8551
19.3257
17.456
16.4738
16.6397
17.1616
17.6676
28.3802
60.9597
68.2258
56.8961
44.7228
41.1408
37.1783
33.7536
29.3873
26.6704
25.126
23.6909
22.0627
20.7122
19.3299
18.6848
18.4202
18.7197
18.9984
19.3358
9.63431
46.3876
58.5942
54.152
45.4996
40.893
37.2389
33.9432
29.5759
27.2803
25.0194
23.5732
22.182
21.373
20.7667
20.6622
20.8271
21.0074
21.2979
21.3816
11.7036
42.7506
54.8033
56.5363
48.678
41.5085
37.3571
33.7849
30.2856
28.2636
26.0934
24.9538
23.7094
23.3023
23.0399
23.114
23.1725
23.199
23.3057
23.1055
16.6523
57.2138
61.9095
51.1935
47.3991
37.8291
36.2969
32.5259
30.5513
29.1553
27.9521
27.3197
26.6761
26.3148
25.9421
25.6963
25.4021
25.1727
24.9842
24.6385
25.4097
61.7998
61.4832
48.9327
41.4318
36.1216
33.5503
31.5503
30.3924
29.703
29.2951
29.0985
28.7241
28.5433
28.1605
27.6934
27.1508
26.5364
26.011
25.1672
53.5973
55.775
45.6754
32.6365
27.1865
27.7981
26.167
25.9793
24.8707
25.0443
25.0582
25.4434
25.6434
26.0198
26.0515
25.8769
25.5111
24.6717
24.0054
22.5756
8.74639
32.6963
21.3815
19.0274
10.4718
14.0145
14.0848
14.0132
13.2728
12.1077
10.8095
10.0053
8.27524
7.74331
7.04965
6.64533
6.32139
6.01865
5.68961
5.27165
12.0198
30.9031
25.1114
24.768
19.466
19.8856
13.8767
12.4119
10.0458
8.24767
6.89458
5.58095
5.02567
4.56568
4.15084
3.91857
3.68523
3.43596
3.25247
2.91183
44.6634
55.4796
51.148
48.362
40.558
35.6029
29.3613
28.2486
25.4441
22.6545
22.0294
18.6533
18.3929
16.6572
16.5221
15.9273
16.1673
16.0984
16.0822
16.3895
26.5893
56.3274
64.8566
57.6051
48.8061
41.5881
36.2989
32.9281
29.6685
26.9476
24.4651
22.7426
21.2919
20.2364
19.3349
18.6836
18.2362
17.9611
17.8181
17.8624
16.7139
58.0014
67.8868
62.0913
51.6176
42.6741
37.9917
33.0644
30.2973
26.7565
24.6826
22.5852
21.0923
19.9282
19.0904
18.4532
18.0266
17.7617
17.6313
17.5989
55.1085
64.6065
70.5771
63.223
54.1193
46.3852
41.2386
34.646
31.1528
27.6046
25.5022
23.3405
21.7782
20.4774
19.6292
18.9346
18.4948
18.1802
18.0144
17.928
46.9784
74.3605
70.8363
65.2504
57.0641
51.1968
45.3885
39.231
32.9717
28.5735
26.302
24.5059
23.1123
21.6109
20.7509
19.9668
19.536
19.1111
18.861
18.5987
56.487
81.3767
78.4944
67.1158
57.9025
51.9819
46.742
41.6457
35.3856
30.7605
27.0778
25.2667
23.7034
22.4956
21.4569
20.7673
20.3551
19.9667
19.6905
19.289
52.7826
78.4986
79.5398
69.7843
60.5618
53.8361
48.2546
43.1041
37.1619
30.8457
26.7928
23.8029
22.5652
20.9101
18.7868
19.129
19.3351
19.3517
19.2536
18.9058
54.6993
82.0353
75.8845
67.9615
58.7609
53.5387
48.2824
42.8907
37.6544
31.7555
26.2856
22.3369
20.5581
18.9756
16.8255
16.1023
16.9718
17.4681
17.608
17.62
59.514
82.2685
72.9354
63.6664
54.8939
50.8236
46.6969
41.7871
37.3544
31.9883
26.266
21.8952
19.0996
17.0706
14.6301
14.2494
15.2444
15.9275
16.3764
16.7864
52.0174
77.0485
64.1791
53.9435
48.0042
44.5193
42.4579
39.2126
34.9472
30.0896
12.7369
9.95389
12.6139
12.7591
12.8644
14.4235
15.2344
15.7514
16.2326
16.911
74.0561
55.1527
69.5766
53.734
49.3819
44.7901
42.4658
37.8872
32.5736
28.4694
23.5939
19.4605
18.1245
17.2648
16.2987
15.946
16.1896
16.5445
16.9845
17.7142
44.1821
72.9161
78.2034
65.8687
55.398
50.6593
43.9817
37.7864
32.6163
29.015
26.9546
24.8922
22.8079
20.8033
18.4731
18.0475
17.9958
18.1669
18.4272
18.9976
53.2932
72.5551
76.0396
66.5266
56.6511
50.8776
43.9471
38.9349
33.7195
30.406
27.9868
25.5627
23.5013
22.0253
20.8143
20.369
20.2328
20.2953
20.398
20.7566
26.2323
52.3915
65.64
64.8005
56.2865
49.6784
43.7866
38.5994
34.0552
30.6072
27.9342
25.8961
24.3256
23.3379
22.6926
22.5653
22.5419
22.5582
22.6505
22.7051
16.2494
55.4466
61.9644
64.317
57.7697
49.713
43.6979
38.3189
34.3233
31.4683
28.9274
27.3813
26.061
25.4886
25.1767
25.0336
24.8887
24.7683
24.714
24.5158
50.3362
64.9323
67.8578
60.6555
54.3556
45.0812
41.8347
36.7078
34.5302
32.3893
30.9748
29.9144
29.0966
28.4332
28.0243
27.5826
27.2322
26.9341
26.6008
26.1931
11.6346
66.2233
66.4379
57.873
48.8588
42.2707
38.4982
34.7951
33.4253
32.1527
31.7343
31.3086
31.0547
30.6853
30.2817
29.6334
29.0265
28.2581
27.6238
26.4658
9.65547
48.4299
54.4358
39.4722
32.6617
31.0805
26.778
25.8744
24.623
25.1944
25.5434
26.4838
27.1113
27.6897
27.7203
27.511
26.8524
25.809
24.6556
22.5565
14.2674
32.1544
25.0918
18.8368
13.6443
14.0651
15.0812
14.2798
12.0158
10.2046
8.57395
7.41286
6.81897
6.25402
6.04248
5.64897
5.44954
4.9951
4.68834
4.0504
15.8615
32.4911
12.0545
18.1042
9.1326
8.27676
5.26402
4.96004
3.91949
3.95753
3.37446
3.54203
3.04676
2.97866
2.54988
2.50549
2.27487
2.25585
1.98629
1.96597
41.7674
63.5895
52.8451
51.8302
31.16
32.4314
22.8136
25.7557
22.1195
21.2414
19.4948
18.2755
17.4882
16.8676
16.2265
15.6286
15.2889
14.9985
14.8259
14.9545
81.6334
71.6774
61.7309
58.3494
42.0817
38.4491
33.0271
30.2583
26.5286
24.2145
21.8096
20.2169
18.877
17.9269
17.1891
16.6612
16.358
16.202
16.1241
16.3077
77.037
73.2937
51.114
63.0909
36.2736
40.6989
34.7384
31.1176
27.2599
24.4152
21.7914
19.9899
18.5392
17.5898
16.8897
16.4353
16.1321
15.9974
15.904
16.064
99.2444
77.9868
49.2866
52.3441
45.0293
40.2996
38.2831
33.551
29.2999
25.8535
22.939
20.7183
19.1201
18.0301
17.318
16.8123
16.4748
16.2749
16.1533
16.2552
55.0789
79.5295
48.2522
51.8701
43.1339
41.7529
43.8316
37.8678
31.9766
27.3243
24.5059
21.6973
20.2186
18.8824
18.2819
17.6349
17.2658
16.9128
16.6997
16.7039
58.1254
86.7528
72.4805
39.5186
56.0982
39.4963
46.0164
36.9106
33.4742
29.3975
25.2027
22.7715
20.9448
19.6842
19.025
18.439
18.0584
17.6353
17.3115
17.1959
38.1874
61.8402
82.7506
41.0423
59.9292
35.1125
47.3309
41.7918
34.3393
29.037
24.3155
21.3186
19.0521
17.7822
17.1002
17.6003
17.5386
17.2641
16.9729
16.9016
100.108
63.028
80.7779
39.2719
59.9316
54.3234
46.4426
39.516
32.5598
26.4631
21.3201
18.0681
16.2183
15.0064
14.2755
15.3684
15.878
15.8881
15.8366
16.0573
72.5058
93.8968
77.456
42.0834
56.9854
51.9979
44.4777
35.9246
30.6315
25.082
19.9452
16.224
14.4554
13.5625
13.0581
14.092
14.716
14.9717
15.1464
15.6688
105.231
92.7147
71.0799
31.5765
53.3775
48.0201
41.028
32.4415
27.7959
23.5738
17.4259
13.7459
12.3748
12.2372
12.5925
14.0485
14.6331
14.9326
15.2022
15.9364
99.9618
66.7711
72.4957
23.7101
52.657
47.6261
40.2041
31.363
25.9538
22.5334
19.3556
16.7652
15.4205
14.4076
13.8692
14.6379
15.1836
15.5071
15.8027
16.5565
86.0618
83.2375
82.3599
47.2273
56.3492
36.8428
41.4191
35.6246
29.3198
26.5707
23.6489
21.6042
19.1743
17.2652
16.1074
16.3716
16.5416
16.6885
16.934
17.5033
80.1553
82.5811
81.5725
45.9592
59.0755
36.887
42.2795
31.646
32.2173
28.5313
25.5003
23.0143
20.8373
19.4001
18.6142
18.3981
18.3476
18.4189
18.4948
18.8464
62.5752
64.4678
74.6028
71.5431
58.9938
30.9241
42.3093
25.9995
32.243
24.3198
25.5149
23.2913
21.8279
20.9951
20.5442
20.4377
20.3103
20.3113
20.2922
20.429
86.6174
70.7138
72.387
54.7286
58.5351
29.99
41.3995
30.4296
31.5688
29.1622
26.1128
24.8731
23.4916
23.1904
22.6736
22.5641
22.3337
22.2526
22.1191
22.0667
32.1573
69.8556
70.6283
31.4679
53.5492
19.8711
39.1718
21.1375
31.8592
28.1774
28.3699
27.818
26.425
25.9727
25.2838
24.9285
24.5256
24.2264
23.8881
23.5528
66.9201
70.4578
69.444
43.8729
48.1997
30.1893
35.4734
33.8555
30.7448
30.5595
29.3161
29.2576
28.5548
28.2417
27.5525
26.971
26.2624
25.4285
24.734
23.8249
41.9004
71.7863
49.5832
34.4744
33.3435
24.1764
24.4293
24.3196
22.6758
23.7815
23.7803
24.7815
24.8704
25.1294
24.6874
24.194
23.2518
22.199
21.2067
20.0167
11.6843
24.966
10.2588
11.186
7.28317
12.584
7.27119
8.48778
5.26158
5.81443
4.58538
5.25984
4.70506
5.08459
4.67052
4.62613
4.24913
4.0915
3.62762
3.39285
26.4937
29.3587
7.13924
32.2897
27.8906
30.228
8.40768
20.8936
6.49121
8.61352
26.5095
22.98
7.09475
7.96055
8.68169
27.9204
21.8546
25.4795
9.52363
29.0621
22.9676
7.22499
18.9483
13.3097
8.14697
6.7131
20.4821
15.7734
0.46009
0.679123
0.461221
11.5698
14.2393
11.8692
14.2889
0.401033
0.441334
0.43437
14.9282
16.3663
14.736
16.0368
0.395717
0.447038
0.535691
16.3922
15.4793
16.7871
18.091
0.32195
0.556328
0.515111
14.7749
11.6561
18.0402
15.9412
0.243142
0.471344
0.32184
10.3989
8.70338
14.5777
11.6308
0.202361
0.304787
0.265317
7.95967
6.04008
10.6528
7.98249
0.169399
0.238004
0.150033
5.53908
5.99767
6.84668
6.24446
0.173663
0.154863
0.196838
6.61132
8.63697
7.06864
9.61097
0.480722
0.733262
0.453106
11.9917
14.1211
9.71806
11.5565
0.438815
0.434079
0.505666
14.4001
15.7579
12.3653
15.6503
0.573415
0.548556
0.61099
16.6672
18.5067
16.6245
17.9714
0.569307
0.609
0.573403
18.5528
17.044
17.9141
16.8896
0.361044
0.550992
0.445493
15.8418
12.4763
16.0189
12.9781
0.278233
0.396686
0.290515
11.5021
8.27015
11.8233
8.37656
0.154611
0.259133
0.156388
7.1433
6.34074
7.21374
6.60224
0.190288
0.160153
0.177465
7.17419
9.74058
7.27018
8.55193
0.484577
0.747007
0.418112
8.16051
11.3457
6.88238
10.8374
0.583153
0.424355
0.605513
12.7251
16.189
12.253
15.8905
0.604243
0.649878
0.607119
16.9148
17.5333
16.4703
16.3614
0.524259
0.585107
0.476302
17.3448
15.8103
15.9126
13.9143
0.416334
0.437458
0.331721
14.8342
11.9673
13.0364
10.3577
0.292876
0.303057
0.247987
11.0219
8.14299
9.65112
7.60657
0.154225
0.212179
0.158649
6.96576
6.4528
6.96806
6.91829
0.163953
0.163445
0.15197
6.9497
8.00254
7.18341
8.11895
0.400328
0.833033
0.629925
7.9178
10.9054
9.16122
12.1055
0.578025
0.60549
0.585241
12.049
15.2801
12.8996
13.3144
0.600189
0.571628
0.413071
15.8301
15.8009
13.0011
12.7129
0.468188
0.544301
0.384122
15.4127
13.5639
12.7588
12.395
0.319267
0.434256
0.259803
12.792
10.4479
12.0907
11.0175
0.237312
0.300578
0.19897
9.81898
8.00514
10.7358
10.1013
0.171418
0.223336
0.182035
7.52528
7.72379
9.96288
10.0237
0.153003
0.212785
0.174164
7.9622
8.68134
10.0638
10.6368
19.135
18.3508
19.0849
33.4005
32.3253
32.5493
31.8154
20.6871
19.4073
20.6431
32.1933
30.8352
31.6503
31.5531
19.0675
21.3636
22.1425
29.9123
27.2538
31.4706
29.852
14.796
21.8879
18.8632
26.093
21.8905
28.8865
24.7251
11.3509
17.4011
13.992
20.4714
17.3901
23.2325
19.2625
8.21407
12.8617
9.77201
16.3933
14.788
18.1119
15.2806
8.73599
8.6879
8.88006
14.9105
16.0842
14.9224
16.0397
11.0727
9.82811
11.9044
16.5188
17.1195
16.5346
16.9125
18.7876
14.8179
15.7328
31.9039
31.3026
26.9265
28.4203
20.3347
16.6818
20.1729
31.1184
31.3913
29.0854
30.7544
22.6859
21.1585
22.2323
31.5431
30.4199
30.976
29.8593
20.0997
22.0658
19.5414
29.613
25.401
28.9802
14.2454
14.8708
18.1728
14.6346
23.8633
19.6273
12.835
12.3676
10.116
13.5078
10.0667
18.4082
15.5292
13.0452
13.7609
9.00257
9.09007
9.01074
15.0981
16.0151
13.6492
13.8194
11.9955
9.63052
10.0281
16.4301
16.685
13.7461
12.4954
15.7452
11.682
15.348
25.2452
28.4933
24.4397
28.0702
20.69
16.7678
20.167
29.3396
30.714
28.7361
29.4472
21.7429
20.6665
20.274
30.7524
29.3231
29.2494
27.5935
18.4515
19.7181
17.0867
28.5837
14.2088
26.7253
21.6367
13.3179
15.7986
12.1512
12.1716
10.1797
18.9732
13.501
9.61901
11.3065
9.11147
10.4976
11.3876
12.4685
11.0846
8.54186
8.6258
8.78203
11.4861
11.7771
11.2448
12.468
9.21456
9.05923
9.73437
11.7102
11.1973
12.8487
13.8614
15.5086
15.6215
16.9414
25.991
28.3094
28.9921
29.3092
19.4849
17.4105
17.2817
28.675
28.7681
28.8918
26.8036
19.6109
16.8155
16.1261
28.4821
26.8963
25.9316
24.2571
16.7908
16.1169
15.4858
26.1714
22.7193
23.9115
22.7255
12.6535
15.1242
13.8666
20.9707
16.443
22.285
20.8783
9.87881
13.5764
12.9269
15.4529
13.9435
20.5648
19.808
9.9364
12.7997
12.8008
14.0299
14.8421
19.6081
19.088
10.5222
12.8342
12.8752
15.0694
15.2335
18.9111
18.427
35.7878
36.7902
35.2554
46.4673
42.9484
45.5824
42.3754
33.2996
34.9018
34.0758
41.8536
38.2561
41.3803
38.4178
29.291
33.684
31.38
36.949
32.9856
37.3323
33.615
23.8051
30.2496
26.0005
31.449
27.2068
32.2206
27.8834
19.2308
24.5279
20.6451
25.9084
22.7863
26.5395
23.0329
16.9664
19.5365
17.0702
22.0031
20.769
22.067
19.9942
17.8361
16.8361
17.5617
20.5116
19.712
19.5948
18.5941
18.1178
17.7789
17.5124
19.4174
18.5301
18.208
16.9218
34.7469
31.1879
32.1105
44.9368
41.9074
41.3117
39.7232
33.9616
32.4883
33.1294
40.9407
38.2305
39.0656
36.7353
31.8708
33.0139
31.0816
37.2347
33.6626
35.794
32.3515
30.323
29.5556
31.0645
31.7095
29.8047
30.327
31.8151
23.4273
23.5213
24.515
25.8047
22.9946
24.4148
24.909
17.2328
10.903
14.1736
22.0248
19.8802
10.0126
14.5313
17.437
14.3941
14.3816
19.4217
18.2202
14.9252
14.3505
17.2336
14.1297
12.697
17.7678
16.5077
13.9607
12.9019
32.0483
29.1434
31.5421
40.2421
39.2242
39.6236
38.4008
32.8967
31.8113
31.4279
38.5834
36.1042
37.4917
34.3052
30.5269
30.9664
28.8775
35.1264
31.6829
33.2229
30.1297
15.1613
16.7501
28.5225
25.5468
21.7066
3.6167
28.5178
4.5577
6.84839
8.67176
2.37098
7.45156
2.257
5.44307
10.8293
12.2717
11.4607
7.31125
11.029
14.9265
14.5959
11.9782
11.874
13.3874
11.8754
12.5961
14.8956
15.4991
11.4623
13.7643
14.665
12.5278
12.321
15.5459
15.643
31.7453
33.506
32.4626
40.5707
38.4374
38.1691
38.4733
30.7901
31.7566
29.1127
37.3571
33.8202
37.1134
33.3084
28.2334
28.1227
26.0928
32.7022
29.6889
32.0276
29.1202
23.7271
25.6702
24.3403
28.7777
25.0892
28.4469
26.8027
17.2075
23.8823
22.4381
23.4493
19.6559
26.2567
24.6312
15.0259
22.1127
21.2499
18.8658
17.887
24.2169
22.9412
15.9646
21.0072
20.2778
17.8553
17.6216
22.5184
21.2149
16.0741
20.0411
19.3184
17.4696
16.7616
20.8126
19.6568
44.1378
47.2907
43.4365
48.2719
42.8844
47.0294
40.8636
39.0611
42.2544
38.7866
41.5302
37.0161
39.3942
35.2743
33.3411
37.5582
33.5029
35.1428
30.3425
33.8197
29.4813
27.603
32.0367
27.6987
28.8666
24.8282
27.986
23.7812
23.1274
26.3787
22.9518
23.5248
20.4674
22.5487
19.4483
20.9497
21.9987
19.8488
19.7465
18.1494
18.5661
16.554
19.3502
19.3358
17.9891
17.6188
16.4256
16.1261
15.1167
18.0563
17.5407
16.2955
16.1234
15.4227
14.8211
13.947
42.9528
43.4901
40.7783
46.4533
40.1727
43.8227
37.6303
38.517
39.8133
36.7758
38.6695
34.74
36.1179
32.3461
33.4278
35.68
32.0048
33.3748
29.3091
31.3382
27.8901
27.6091
30.3348
15.0554
27.8395
23.6982
26.5806
20.8046
22.837
12.9982
11.3538
22.4782
19.3799
19.017
15.8093
19.668
12.2385
14.8033
18.4755
16.2525
15.2777
14.017
17.572
14.9318
14.1198
15.7908
14.7675
13.6907
13.0658
15.8737
13.7566
12.9314
14.4752
13.6799
12.8922
12.4612
40.1759
41.7745
39.2584
42.9938
36.8206
41.9974
35.7194
36.0611
38.0353
34.2287
35.2925
31.4919
34.0352
29.7287
31.3266
33.0224
29.7674
30.5162
27.2817
28.5295
25.9144
14.8881
28.7195
23.4049
26.1037
20.1251
25.0468
21.743
9.75959
21.2338
17.0278
18.2372
14.8691
20.49
17.6359
12.1023
16.2412
15.5947
14.2937
13.2143
16.9436
15.4875
12.8638
15.6721
15.7046
13.0351
12.7464
15.2505
14.6926
12.5376
15.6259
15.4787
12.6477
12.3926
14.502
13.9286
39.2465
41.3222
39.2478
42.1969
35.7856
41.036
36.9666
33.8037
37.7722
33.7609
34.0455
29.5141
35.4393
31.1642
29.3901
32.3996
29.2769
28.267
25.6046
29.4616
26.4167
25.0372
28.5576
26.8353
24.8541
22.2904
25.8178
24.0554
20.1992
26.2574
24.5392
21.3659
18.9828
23.3491
21.6724
18.3068
24.0891
22.68
18.3154
16.8204
21.2381
19.768
17.5068
22.2121
20.7731
16.5015
15.6346
19.2285
17.8059
16.4573
20.3324
19.1512
15.3489
14.4118
17.373
16.1078
40.9262
45.0594
38.2236
15.2182
15.8638
17.9358
17.9443
34.5742
36.7438
32.5624
12.8916
15.847
17.0814
15.6266
27.8898
31.0844
26.7068
12.3815
11.7161
14.9949
11.2533
22.503
25.2135
21.1251
9.00849
11.9009
10.3095
9.26628
18.6716
19.9619
17.145
9.6603
11.0548
9.1384
9.29257
16.661
16.4575
15.0978
9.37896
13.185
9.70636
13.1977
15.2591
14.812
14.0897
11.4118
13.2241
13.441
13.2135
14.4662
13.8487
13.1455
11.5728
13.2019
13.0672
12.6041
37.4374
41.816
34.7426
14.7945
17.853
14.8608
16.6854
32.0033
33.2443
29.599
17.2332
15.7285
16.3173
14.8073
26.5305
28.5919
25.2385
14.7029
11.0754
13.5072
10.4887
21.0866
23.9889
19.4615
10.2038
8.89415
9.66584
8.38849
17.0313
18.0116
15.0879
8.74048
8.73366
8.13825
7.68142
14.727
14.3891
12.9232
9.16312
12.5999
7.90138
10.9167
13.7915
12.7549
12.4891
13.1974
13.0675
11.903
12.487
12.9271
12.3702
12.0312
12.9266
12.4265
12.4153
12.0651
33.9599
40.0082
32.9864
12.6475
16.4207
15.9431
15.999
28.7818
31.3118
27.2492
15.9482
14.4358
14.9819
13.7676
24.6894
26.1244
23.4927
13.176
10.3594
12.8047
10.3166
18.9456
22.6909
19.7951
9.65933
8.37001
9.8497
9.40798
14.4529
18.7533
16.2635
8.05114
7.41994
9.26045
8.9035
12.4614
15.6262
14.527
7.61257
10.5665
9.15544
11.9568
12.304
14.3733
13.9303
11.8316
12.4572
12.9602
13.0197
12.0008
13.7494
13.1854
12.4005
12.0482
13.0247
12.5916
33.0967
41.4441
34.9074
15.0344
15.0872
16.4849
9.71094
27.0987
33.3671
29.0218
14.0604
13.1639
10.4174
10.751
23.283
27.3885
24.6722
12.9397
10.3925
12.236
8.98582
20.1529
24.118
22.4187
10.0512
9.93884
10.2076
10.588
17.3164
21.7101
20.1818
9.91596
9.62575
12.3399
9.86562
15.6678
19.746
18.3245
9.96692
12.7973
11.2931
11.2554
14.6741
17.7997
16.5045
12.9317
12.9294
12.8522
10.7922
13.5628
16.0863
14.9445
12.9418
12.7201
11.9132
11.2277
28.2927
28.0387
26.1525
27.2761
27.9648
28.8153
26.5097
26.545
30.7531
15.7423
26.3879
28.1143
31.2611
5.09718
22.0264
21.7251
9.20618
2.88032
24.102
19.9971
3.1589
30.587
32.1835
30.8435
32.1848
30.7613
32.1803
30.6163
28.5538
27.7583
29.3538
26.9442
29.2561
26.7867
28.7263
26.5574
26.2103
31.6113
16.9956
31.5277
4.95458
28.6229
22.0539
2.81857
22.0292
11.083
19.9844
3.10549
24.5744
22.1151
22.1541
20.3561
21.9363
21.5549
23.1192
21.0888
17.8932
20.281
6.10187
2.7331
19.1619
18.8299
2.64455
17.0409
17.7461
6.791
5.92072
18.1425
17.2733
3.79215
23.7771
26.3381
25.2248
25.3605
25.0042
25.1757
24.0191
22.5635
22.6618
24.0493
21.9415
23.7778
21.6261
22.8637
17.7478
2.65309
20.3757
6.39204
18.7325
2.54838
19.0872
16.9914
5.45917
18.1395
6.66049
17.3302
3.59337
18.242
9.70929
11.2995
10.9194
2.62175
14.9834
3.01678
6.97475
25.6285
28.3307
26.6627
28.6831
25.9752
28.966
27.2813
20.5683
17.3832
24.7074
21.9622
21.8461
16.0338
25.0667
15.8599
25.4961
16.785
29.4058
3.83594
28.8132
22.3682
10.0627
2.63481
11.705
12.3597
3.03736
7.40343
15.9289
25.947
29.0527
29.3008
27.6932
29.2847
27.6181
26.7603
20.845
22.3596
18.5256
25.6692
16.4905
25.3787
22.5365
3.94996
6.42023
6.43469
3.78089
6.63401
2.2478
4.04214
10.619
13.9894
16.5063
19.0342
11.6657
12.8154
16.6264
9.15253
8.95389
14.7108
13.4843
10.1539
7.91926
14.8777
5.07099
2.36381
7.14753
10.2531
2.21484
5.97609
8.86847
4.41488
3.5977
6.39788
7.24936
2.28138
4.41191
7.76657
11.4052
19.5969
15.5993
18.4621
13.4787
17.3574
13.5417
10.0305
14.4268
10.9136
16.9665
8.83562
15.7321
12.1008
2.13157
2.28966
2.16491
7.7251
9.69114
7.76497
9.81417
1.78287
2.06532
1.85386
11.6563
12.2298
11.4546
12.1964
1.55123
1.51701
1.39281
12.337
12.3989
12.3504
11.5534
1.11916
1.24343
1.07236
11.1369
9.63911
10.3693
8.91336
0.973677
0.904378
0.83828
7.85745
6.42483
7.78565
6.76492
0.746036
0.751517
0.647585
4.79819
3.94988
5.51703
4.4436
0.706654
0.567407
0.575227
3.92379
4.3643
4.08113
4.51353
0.592941
0.649066
0.592618
4.57233
5.78166
4.94877
7.48359
1.92208
2.82643
1.91648
8.24623
9.00915
8.2676
8.89488
3.17448
0.599321
0.658657
2.73892
3.09493
2.77424
0.543671
4.95931
0.41465
0.412229
4.87113
5.37941
4.57476
0.406239
6.01316
0.398485
0.405856
6.26458
6.3196
5.8159
0.415867
6.0782
0.378188
0.428971
5.76665
5.37936
6.14666
0.421456
3.56272
0.270537
0.328924
3.28755
2.9023
4.39619
0.282544
2.80402
0.226098
0.236224
2.18075
2.03359
3.01107
0.226502
1.63245
0.171775
0.181499
1.46883
1.33025
2.02343
0.162892
2.09372
0.194611
0.154312
1.46281
1.63633
1.76916
0.168688
0.771306
0.881862
0.79713
6.66938
8.16047
7.63919
9.55816
1.9249
2.55913
1.87861
8.08542
8.81032
7.50109
7.90417
3.20545
0.608636
0.731641
2.78465
3.2861
2.74216
0.600087
4.79675
0.432025
0.438613
4.67714
5.00989
4.48362
0.416166
6.16049
0.499356
0.464932
5.923
6.26345
5.78951
0.517353
6.89343
0.607817
0.611859
6.88028
6.95436
6.7809
0.620032
6.41539
0.469702
0.557639
6.57833
6.12427
6.71471
0.507274
4.73832
0.313614
0.356134
4.93682
4.53643
5.12466
0.329089
2.38948
0.214817
0.261809
2.90801
2.29374
3.04011
0.221383
2.42578
0.172516
0.157625
1.95582
2.34409
2.00708
0.173293
0.757505
0.77725
0.613568
7.67102
9.47636
7.0315
8.48532
2.09472
2.26366
1.80096
6.16665
6.0286
5.075
5.05153
2.06729
0.633541
0.839342
2.1535
2.37264
1.94653
0.62585
4.67127
0.511194
0.494028
4.02011
4.67709
3.93165
0.517899
5.99221
0.61503
0.625457
5.83101
6.01001
5.85937
0.629962
5.81107
0.569773
0.583067
6.10947
6.05524
5.94584
0.556609
5.25664
0.471503
0.468028
5.78864
5.688
5.39303
0.439768
4.28244
0.347004
0.347973
4.97434
4.62409
4.56023
0.319437
2.15087
0.205573
0.237003
2.97356
2.1845
2.86469
0.192602
2.53309
0.170139
0.15728
2.17013
2.52524
2.23303
0.166682
0.492995
0.621288
0.520408
6.09898
7.51153
6.27189
8.01579
1.75575
1.95729
1.87184
4.93181
5.59414
5.67279
6.27463
2.15238
0.608755
0.723694
1.83261
2.01926
1.91322
0.580867
3.79921
0.426574
0.386504
3.30869
4.08076
3.21099
0.400879
5.22067
0.65272
0.569081
5.50175
5.64255
5.08299
0.603093
5.13772
0.552455
0.568125
5.51478
5.396
5.21119
0.548376
4.41314
0.3844
0.428145
4.73276
4.50851
4.63431
0.386334
3.70054
0.282815
0.297105
3.89839
3.74333
3.82898
0.281291
2.85787
0.181801
0.208001
2.82238
2.55796
2.97402
0.192115
3.05037
0.183659
0.190071
2.77238
2.90732
2.93653
0.194856
0.577725
0.840165
0.657252
7.18144
9.3209
8.15461
10.3165
1.65369
2.02683