/*--------------------------------*- C++ -*----------------------------------*\
  =========                 |
  \\      /  F ield         | OpenFOAM: The Open Source CFD Toolbox
   \\    /   O peration     | Website:  https://openfoam.org
    \\  /    A nd           | Version:  10
     \\/     M anipulation  |
\*---------------------------------------------------------------------------*/
FoamFile
{
    format      ascii;
    class       volScalarField;
    location    "6.3";
    object      omega_0;
}
// * * * * * * * * * * * * * * * * * * * * * * * * * * * * * * * * * * * * * //

dimensions      [0 0 -1 0 0 0 0];

internalField   nonuniform List<scalar> 
12920
(
138.146
117.417
109.012
100.352
89.9166
86.5614
82.1602
79.6021
76.5399
74.8102
73.5859
72.5458
70.5505
64.2403
53.9334
47.9843
44.8063
41.5102
39.148
33.5046
97.5531
98.3701
121.087
126.62
110.084
98.7639
91.3539
89.3137
84.6593
82.1816
76.5567
72.0732
65.967
59.9347
53.5755
48.0386
43.5404
40.3893
39.072
39.2314
55.8446
142.13
169.318
147.491
114.773
101.858
86.412
77.8677
68.8881
64.3149
59.5199
56.5162
52.5179
49.0556
45.3249
42.1032
40.1317
39.2967
39.0707
39.1207
96.6495
186.059
181.621
139.435
110.283
89.7841
80.7985
70.0795
63.9455
59.2129
55.0405
51.9791
48.0772
44.869
42.0594
40.1868
38.8806
38.0691
37.5689
37.182
201.349
219.165
211.148
169.764
133.996
113.528
102.792
85.5434
73.0608
61.7304
55.1533
51.1804
47.7853
45.117
42.7318
41.0754
39.9209
39.0968
38.532
38.1833
459.603
325.565
252.445
196.13
152.447
134.35
120.789
113.348
104.508
88.7848
71.5678
56.9683
49.927
46.4391
44.4085
43.1184
42.6435
42.3
42.0609
41.2182
186.738
279.061
232.196
168.421
131.115
119.165
109.992
106.243
102.666
94.5062
80.9105
64.8865
54.2688
49.6776
47.2631
45.9683
45.5322
45.4316
45.4001
44.8843
187.712
242.744
209.41
174.365
140.563
126.555
195.143
160.191
154.266
141.474
127.786
107.132
89.3019
80.4284
51.3466
48.6222
46.1838
44.8465
44.699
44.3452
122.813
224.061
211.939
200.264
167.097
239.677
344.786
249.525
247.975
254.959
210.061
172.396
143.957
124.611
85.7904
53.0854
47.9597
44.52
43.2874
41.5912
131.827
248.753
217.81
191.149
158.338
233.327
328.25
252.649
254.402
283.358
289.781
248.968
191.673
127.236
94.995
52.5055
46.9765
43.2454
40.8731
39.0038
90.9641
173.975
160.32
137.603
123.804
210.017
278.063
207.997
242.959
252.619
244.621
237.224
190.864
132.767
89.204
50.5567
47.3727
44.3331
41.1087
38.5817
388.658
214.363
163.094
122.595
104.121
156.316
230.081
178.074
223.725
235.888
209.627
183.701
156.88
140.945
93.4312
56.9128
50.9896
45.0668
40.7205
38.4377
329.636
265.425
218.125
154.273
113.328
102.847
152.016
123.247
108.134
104.471
105.235
102.621
99.0237
97.2878
61.7024
55.5007
48.1912
42.3948
39.3582
38.5482
287.748
280.475
224.866
177.737
137.809
115.549
97.0795
81.8216
69.7654
63.5261
62.5546
61.3821
59.8576
56.903
52.894
47.9551
43.8502
41.5985
40.695
40.8593
160.01
205.5
194.92
154.007
125.048
110.536
95.4968
85.3748
71.8878
64.1471
59.1388
55.4081
52.5604
49.6976
47.2984
45.5109
44.4109
44.292
44.7183
46.089
227.906
173.627
160.563
139.495
117.64
104.657
93.5693
84.6684
73.0286
65.8139
59.4032
55.5896
52.2958
50.0942
48.4222
47.931
48.0615
48.713
49.8612
50.9588
117.837
171.26
154.036
111.778
111.559
95.9395
86.3509
77.8075
70.0934
65.191
60.3112
57.7789
55.3141
54.3312
53.6069
53.5326
53.5948
53.8444
54.3482
55.2655
160.07
211.155
188.67
129.592
104.19
93.7275
84.5166
79.1572
72.2601
68.918
65.5934
64.7684
63.8379
63.6774
63.497
63.6235
63.711
63.6098
63.3974
62.5046
114.167
164.997
134.303
97.6444
82.224
80.8971
78.673
75.3742
70.5147
68.7078
66.4454
65.6954
64.6642
64.3567
63.8492
63.1562
62.2042
60.1539
58.8826
56.0648
231.717
154.906
130.635
106.132
79.0709
67.6912
67.6061
68.9816
67.6798
62.8337
58.2055
55.1238
52.7455
50.576
48.7327
46.0388
44.0967
42.1085
41.2361
39.0685
36.3289
61.9401
60.7009
54.4657
49.1561
47.7289
46.0521
45.3065
44.6896
44.6415
44.3163
43.1053
38.7216
32.6267
29.3185
27.3471
25.6919
23.7168
22.5054
20.0383
122.685
135.671
98.0665
74.9594
60.0292
52.252
46.2265
44.8334
41.7151
40.7076
38.5393
37.3368
35.0276
32.9466
31.1723
29.7693
28.5802
26.7112
25.1608
23.3255
120.188
117.883
86.3086
66.4109
54.2905
48.919
41.4297
37.8802
33.525
31.7339
29.5727
28.7547
27.7564
27.0583
25.9233
24.5772
23.1183
21.6621
20.6696
19.936
94.2958
120.39
93.6473
65.4939
55.5156
43.5901
39.0591
34.0422
31.6034
29.0371
27.0808
25.6291
24.1702
22.9563
21.8114
20.7267
19.8496
19.1507
18.6793
18.4975
157.498
149.021
112.329
83.6266
68.276
57.091
52.7103
45.8731
43.3748
36.9466
31.7687
27.463
24.8178
22.9481
21.6397
20.6044
19.9274
19.4408
19.3139
19.3806
183.536
205.099
151.558
103.05
77.0576
71.5696
65.575
65.91
65.6919
64.227
53.9692
36.4612
27.7195
23.9128
22.179
21.2862
20.9921
20.9881
21.2374
21.6069
193.078
148.481
106.428
79.2723
68.3615
65.9005
61.4957
62.6323
62.3677
62.901
59.3262
45.9351
33.3572
27.0903
24.4016
23.2692
23.0765
23.222
23.9041
24.5426
278.606
140.139
97.1966
80.1822
69.1929
62.1901
66.9722
61.2905
58.0863
55.3705
55.3663
49.6278
36.8132
28.8147
23.7905
23.4433
23.385
23.3873
23.5851
23.8884
261.996
149.735
117.088
104.634
93.5862
94.3021
86.5707
69.0985
60.9665
61.47
57.3785
49.1661
43.7883
31.3394
24.4256
23.2277
23.1618
22.7123
22.378
21.5879
133.546
152.68
124.92
110.283
100.812
100.692
89.6118
66.9561
54.5727
50.7933
56.0034
59.9272
49.7758
31.8897
24.6862
24.7428
24.4966
23.5753
22.6875
21.0887
149.3
139.75
110.009
99.5363
92.3992
90.3878
81.0404
53.8657
43.5975
42.1829
47.2266
52.3853
46.6653
32.6922
28.1266
25.824
25.0885
24.1911
22.9162
21.1621
376.937
154.792
98.1932
83.1771
75.422
72.3942
63.9129
47.9081
38.7561
37.5926
37.7344
38.8832
37.245
31.7434
27.4847
25.5793
25.3499
24.3893
22.0047
20.4928
324.033
174.055
104.362
73.8468
61.7691
52.6783
52.352
45.237
40.3503
36.0538
33.9504
32.3348
31.4241
30.2515
28.0513
27.4435
26.1996
23.1642
20.7997
19.9714
435.064
180.058
113.225
85.8428
73.4093
63.5037
51.3781
41.7128
35.5534
33.7462
32.0864
31.4917
30.2085
29.0908
27.4552
25.7633
23.8734
22.0565
21.0333
20.9747
155.281
130.104
98.5918
75.4093
64.7264
57.434
47.2465
41.214
35.8102
32.0791
29.6625
27.838
26.5539
25.3463
24.1606
23.197
22.4721
22.0939
22.0767
22.5898
233.163
126.78
95.6877
69.0707
57.9692
52.8879
45.3182
40.5164
35.0085
31.5817
28.6289
26.7924
25.3953
24.4019
23.763
23.3914
23.2919
23.409
23.7224
24.4903
179.69
110.151
74.3742
55.0284
52.3225
48.0777
41.7864
37.1929
33.3369
30.8254
28.5786
27.2918
26.2043
25.7107
25.4522
25.4744
25.6741
26.0437
26.4869
27.3022
330.88
129.772
90.0999
63.0689
54.2053
50.0905
43.6894
39.0748
34.8502
32.7824
30.9711
30.3513
29.9295
29.9334
30.0485
30.3723
31.1666
31.9132
32.7037
32.8394
146.959
134.253
81.6814
62.7449
49.5336
49.6144
44.8321
39.8839
35.9486
34.4846
33.1166
32.6902
32.3558
32.3821
32.5221
32.7913
33.1499
33.3282
33.452
32.9862
106.307
102.709
70.0861
46.5555
34.4156
33.4475
36.838
38.6516
37.8958
35.3523
32.9026
31.5331
30.0322
29.1156
28.6075
28.1111
27.7467
27.0652
26.6565
25.5038
55.5841
83.9011
79.8452
69.3992
61.2572
56.1123
52.3728
49.8489
48.4884
47.5151
45.7008
41.7912
37.0046
32.9226
30.1972
27.741
25.7831
23.7448
22.628
20.8533
155.646
136.767
93.1699
66.4942
52.8494
48.695
44.6957
43.4243
40.5235
39.4556
37.0774
35.9028
33.5545
32.0205
30.0743
28.4472
26.8813
25.4676
24.4842
23.6616
121.055
124.824
87.5416
55.4188
45.6931
40.1478
35.6162
32.9938
29.9847
28.7783
27.0718
26.561
25.5028
24.8815
23.7122
22.7178
21.7397
21.0066
20.4946
20.1339
118.073
122.785
89.1483
54.2562
43.7305
35.2609
33.0012
28.8365
27.3716
25.1263
23.8304
22.7616
21.6969
20.9214
20.1087
19.5129
19.026
18.7453
18.5846
18.5941
208.269
169.038
107.97
71.2479
54.7212
43.8896
41.384
35.6668
33.4142
28.3782
25.3646
23.2232
21.6767
20.6696
19.8803
19.3921
19.0557
18.9254
18.9184
19.0443
380.142
208
133.188
88.0671
62.8672
56.0851
50.6483
49.8153
47.8065
42.5308
33.8165
26.5647
22.9124
21.2054
20.4081
20.0486
20.001
20.0683
20.2932
20.507
222.012
157.132
102.057
65.9624
55.4589
53.3782
49.5203
49.8539
48.3877
45.4762
38.4514
30.5954
25.5238
22.9808
21.984
21.7061
21.7565
22.039
22.4669
22.5787
164.378
148.244
89.6495
64.0432
55.281
50.4981
50.12
49.0405
46.7537
43.8609
40.0752
33.2128
26.9819
23.6418
22.9419
22.534
22.507
22.5722
22.6542
22.5341
174.16
135.677
98.3513
74.842
62.1595
59.8248
56.4332
51.9383
48.7346
46.5089
40.6011
35.583
29.2399
24.617
23.2575
23.6708
22.8561
22.2211
21.7868
20.9948
243.326
155.559
98.2102
77.507
66.1361
61.8118
56.5918
48.2559
44.3549
43.9784
44.7721
40.1997
31.3485
25.7547
24.9157
25.7681
24.2899
23.0052
21.9462
20.8387
226.206
128.863
87.6424
75.189
65.6448
61.0343
51.5245
41.0157
37.3106
37.3912
93.0733
65.9852
38.4921
32.0138
29.9941
26.3807
24.6441
23.2175
22.0125
20.9332
355.471
115.607
81.0198
63.8317
56.6617
52.9778
46.7907
38.7946
34.1147
32.5989
33.7189
35.5246
32.8554
28.9944
26.596
25.0953
23.6709
22.1299
20.9039
20.2446
267.046
146.472
98.5255
64.3536
51.6116
44.6498
41.4814
37.791
33.8252
31.6118
30.2134
29.2093
28.3703
27.4395
25.661
24.0886
22.3826
20.8139
19.9172
19.6897
230.311
136.578
102.446
72.94
59.1783
50.5315
40.7679
33.7022
30.3464
28.13
27.4966
26.6761
25.6735
24.5225
23.2168
22.0516
21.0376
20.4005
20.1216
20.2392
155.944
145.359
99.1631
67.4113
56.3166
47.4295
39.0008
33.6214
29.4829
26.6028
24.9715
23.6455
22.7978
22.0656
21.4767
21.074
20.8283
20.8131
20.9235
21.4232
180.843
147.266
100.074
64.0491
52.273
43.1301
37.624
32.7677
28.9742
26.4666
24.6237
23.49
22.6372
22.1806
21.8496
21.8022
21.8448
22.0903
22.3878
22.9667
268.353
113.266
71.7586
49.9151
45.6574
37.61
35.315
30.837
28.5825
26.7194
25.3561
24.6716
24.0755
23.9539
23.9144
24.0103
24.2842
24.5904
25.0138
25.466
213.434
137.643
99.3994
61.1247
49.0486
41.6638
36.8392
33.4834
30.8
29.6242
28.5122
28.3162
28.1215
28.2063
28.3656
28.7136
29.1535
29.504
29.8168
29.7938
250.644
175.374
86.0919
62.4154
50.24
45.6933
39.3725
36.0213
33.4815
32.5971
31.6081
31.5434
31.4504
31.6508
31.7865
32.0922
32.2158
32.2187
32.1103
31.612
101.653
103.071
81.2954
59.1296
46.6648
44.6687
45.0458
44.7591
42.1893
38.4578
35.5398
33.4949
32.039
31.0618
30.5685
30.0105
29.6328
28.9401
28.5279
27.2877
123.582
97.8283
89.5842
78.6538
70.6168
63.1107
56.4786
51.3722
48.4497
45.0651
41.282
37.1232
33.8376
30.7503
28.1021
25.7003
24.0809
22.5263
21.8375
20.6013
250.71
154.468
117.732
73.1965
60.3794
52.7136
51.0391
47.7453
45.2498
42.9062
40.2248
38.6363
36.3006
35.0236
33.3854
32.3376
31.3131
30.7583
30.3852
30.2664
206.31
161.186
104.778
59.8789
50.295
40.8756
38.8082
34.4896
33.0685
30.9662
30.3176
29.4332
28.8317
28.1722
27.4932
26.9914
26.6215
26.4195
26.2458
26.1719
132.436
149.965
106.244
57.1344
45.3562
36.4984
34.943
30.0928
29.4134
26.907
26.49
25.3758
25.0539
24.5565
24.3399
24.1621
24.1209
24.1578
24.2362
24.4467
354.281
180.813
101.384
63.8781
52.4183
41.0985
39.6412
33.268
31.7893
27.8946
26.8386
25.2887
24.8376
24.3097
24.1243
24.0153
24.0171
24.0931
24.1872
24.444
232.59
174.371
109.102
70.0003
58.1421
48.5022
46.061
40.7843
38.0285
32.4591
29.2845
26.3772
25.2962
24.6319
24.5359
24.5195
24.6379
24.832
24.9815
25.2313
162.224
162.701
116.182
63.9971
56.913
49.4711
46.7062
42.9492
39.7351
35.1431
31.705
28.1646
26.945
26.037
25.9601
25.9968
26.216
26.4301
26.5327
26.5166
197.063
154.961
100.553
61.8757
55.8059
48.0639
46.5087
44.5089
40.59
36.5625
33.1069
29.4724
27.479
26.8423
28.9547
27.7707
27.3636
27.1919
26.9922
26.69
226.36
138.648
96.9822
65.899
55.4409
51.1703
49.0729
46.3383
41.8936
38.8886
34.276
31.4855
29.1599
28.7468
30.1571
30.1534
28.1215
27.064
26.3978
25.9895
216.269
173.874
98.3826
66.4958
56.1045
50.2227
47.7487
43.6586
42.1935
40.7217
37.7071
33.5775
31.2896
31.4117
32.9181
31.5762
28.8539
27.3711
26.4962
26.0758
382.086
202.566
91.4905
62.7185
55.8012
48.3822
43.5903
39.6475
38.3793
38.1507
56.5548
50.8922
39.1239
36.4301
35.187
31.7036
28.9558
27.4707
26.6175
26.133
243.115
130.658
79.946
57.0368
52.8534
46.4061
43.6169
38.9318
36.0584
34.8973
35.0975
35.4412
34.3583
33.3391
32.7259
30.2076
27.689
26.3854
25.7331
25.4638
336.353
171.6
110.127
63.0478
54.0124
45.1237
41.6362
37.9363
34.6003
33.8517
32.9969
32.8433
31.8603
31.2091
29.4218
27.0746
25.741
25.1366
24.8499
24.8302
201.766
142.654
111.232
69.93
59.6192
47.4914
40.9099
33.5455
31.9108
28.7726
29.0773
27.8866
27.5406
26.4963
25.7897
25.1472
24.7881
24.7064
24.7339
24.9807
279.791
171.872
112.471
68.8178
57.5186
44.1759
39.7743
32.9473
30.4778
27.3992
26.7918
25.5257
25.3668
24.9471
24.8587
24.7789
24.843
25.051
25.2731
25.7464
247.554
176.601
122.666
73.2749
56.5374
41.5968
39.0757
32.5578
30.7547
27.7696
27.1577
26.0372
25.8917
25.6324
25.6634
25.7348
25.9411
26.2265
26.523
26.9458
274.418
155.608
86.9145
56.0397
47.4883
37.6373
37.1706
31.7037
30.9969
28.7942
28.5251
27.8444
27.8583
27.7986
27.9296
28.0647
28.3783
28.5981
28.9568
29.1714
123.765
133.821
113.515
66.5735
52.9066
41.1284
39.3492
35.1274
34.3759
32.9293
32.8115
32.4737
32.5674
32.5787
32.7351
32.9133
33.1306
33.2007
33.3282
33.2309
99.6736
144.728
103.749
65.0105
55.2618
45.2984
43.2417
38.998
38.5623
37.2554
37.0379
36.924
36.998
37.2471
37.3259
37.4652
37.4403
37.3556
37.1988
36.9377
103.267
122.263
109.271
76.4722
58.3605
51.7081
48.7037
45.4426
41.6869
38.1156
35.4155
33.5785
32.5249
31.7288
31.2441
30.4933
29.918
28.8169
28.2127
26.6664
121.348
102.464
95.5666
85.9855
77.5982
65.8732
55.7521
47.9956
42.2865
37.297
33.4849
29.9536
27.3828
25.1396
23.4646
22.0598
20.9301
20.024
19.3856
18.9607
166.958
149.151
138.016
79.9991
88.8256
65.1951
73.6998
58.8087
62.3957
52.617
53.7998
48.0778
49.2358
47.1572
48.3004
47.1742
47.6527
47.1885
47.5042
47.072
493.524
198.756
126.672
67.8301
74.5008
51.0379
58.2171
44.1144
48.47
40.4854
43.3465
39.2592
41.5152
39.69
41.0152
40.1287
40.7961
40.3447
40.6767
40.3251
242.175
177.833
127.945
65.4976
65.1945
46.9484
51.2633
39.3741
43.2771
36.1466
39.3456
35.7014
37.7743
36.2691
37.593
37.0422
37.8514
37.7797
38.3062
38.3374
446.177
198.971
127.766
67.4899
71.0086
49.4312
54.5741
40.9224
44.4572
36.5391
39.6436
35.8795
37.9787
36.3431
37.5492
36.9459
37.6686
37.5292
37.9996
37.9606
223.499
159.588
112.326
67.193
72.9216
51.5
57.0555
43.992
44.36
37.4737
39.1218
36.8088
37.972
36.9583
37.5531
37.3219
37.9153
37.9794
38.4344
38.386
314.501
194.997
120.415
66.3468
74.4485
53.7005
57.7738
47.6817
46.2142
40.1667
40.3088
38.0827
39.6649
38.6752
39.2666
38.9657
39.5133
39.4176
39.6751
39.2753
172.566
156.375
112.452
68.1031
72.2215
55.7204
53.4672
48.5212
46.0003
40.8229
40.7834
39.0693
40.6224
40.0413
42.9743
40.7751
40.3918
40.1441
40.0606
39.3728
352.027
150.52
102.36
67.1227
64.3559
55.0791
57.4668
52.7575
49.5048
45.6984
44.8912
44.3611
45.4615
45.6729
46.5228
42.8349
40.5804
39.6751
39.4549
38.7891
374.239
260.728
122.119
70.2098
65.7369
53.4771
55.7596
56.3811
54.1068
49.7052
46.7661
46.7908
48.9301
49.341
47.7904
43.0776
40.456
39.566
39.3837
38.9072
474.327
312.946
129.018
69.8869
65.8965
52.36
53.04
55.4187
53.5006
49.2903
49.0956
48.2812
49.9907
50.1756
47.8858
43.0945
40.4569
39.5817
39.3684
38.8764
297.398
160.677
90.8004
68.7651
65.3233
53.1018
56.942
54.9058
52.611
50.1235
49.5979
49.2747
49.6522
49.0966
47.1949
42.1099
39.5968
38.7301
38.6121
38.3155
267.666
194.812
129.067
68.4763
73.6442
55.5843
52.5282
45.8096
46.699
44.2331
46.0792
44.3811
44.7378
42.9465
41.8062
38.995
38.0594
37.8769
37.8032
37.7027
226.834
152.421
123.506
71.0391
75.6929
52.1107
55.2701
42.5918
43.3813
37.3485
40.4383
37.197
39.2461
37.4367
37.8853
37.0284
37.2883
37.1755
37.414
37.5648
383.417
183.329
131.167
74.1283
70.5994
48.9775
53.3312
39.5916
41.0444
35.2925
37.4447
35.1816
36.8376
35.9925
36.7285
36.5734
37.0751
37.2612
37.6418
37.8772
608.165
305.947
158.606
80.7702
73.1355
47.7584
55.2529
40.6084
44.6708
36.9932
40.0677
36.4368
38.5651
36.9903
38.2121
37.6129
38.2676
38.184
38.5521
38.5392
231.185
179.52
110.666
72.7333
59.9526
47.4862
51.7237
38.2711
44.204
36.9274
41.0658
37.8274
40.3172
39.0265
40.3231
39.8808
40.5854
40.4932
40.8592
40.539
402.08
183.116
133.554
73.5021
74.941
50.221
59.1066
44.7085
51.1323
43.6696
47.6648
44.0629
46.3873
44.711
45.9482
45.1856
45.6709
45.2233
45.4284
44.6101
246.011
174.616
115.755
72.2215
75.2007
51.1666
63.2205
47.8944
56.6366
48.8086
54.2088
50.7323
53.7301
52.1936
53.5237
52.7186
53.0793
52.4959
52.4976
51.7775
117.304
112.617
90.9572
67.5077
56.5961
50.4551
46.0436
41.393
37.6669
34.7158
32.9798
31.8092
31.1314
30.2807
29.4658
28.2823
27.1977
25.783
24.9019
23.2635
44.8638
40.201
117.089
41.1393
39.5303
39.3694
95.0785
42.1086
116.446
77.0663
38.6462
35.1472
97.8344
71.4479
91.6968
33.5822
36.4993
37.4796
80.3908
34.53
37.0048
77.1238
38.7696
42.6549
79.615
68.9198
38.4036
40.1152
258.159
328.422
257.852
104.227
83.0317
105.495
79.8904
245.588
251.613
250.709
76.6374
66.6063
74.4997
63.8294
255.488
254.602
276.805
65.8153
66.3619
61.1326
57.985
226.983
283.336
288.163
67.5653
68.523
58.1466
62.4652
176.555
283.189
242.904
66.409
56.3049
64.8013
66.8279
152.561
233.24
197.476
54.798
52.7069
66.1064
59.1667
124.346
181.569
128.505
51.1474
40.4493
56.985
42.1472
114.891
124.418
125.765
36.6606
29.135
36.8424
28.044
259.843
319.382
241.433
105.242
80.497
109.14
81.2906
250.988
232.97
240.46
75.5391
63.9363
72.8204
55.4979
276.609
248.004
260.044
60.4734
55.4079
52.4455
48.6071
291.368
260.615
263.873
55.4087
58.4504
48.5669
50.4327
257.79
266.296
263.418
60.6799
66.4017
52.0747
58.3882
208.484
254.098
215.173
67.0767
62.2328
60.6991
61.3203
132.62
196.815
135.964
58.9093
42.6264
57.9875
41.2228
127.547
132.526
129.51
37.1318
28.102
36.5764
29.7365
206.419
240.106
182.912
97.0039
68.1947
84.2244
58.6176
234.552
184.909
222.316
60.8917
49.9186
53.1883
44.4912
252.755
234.644
244.209
48.4378
46.8366
43.593
43.4153
246.337
243.129
222.671
46.8339
48.3168
43.6025
43.5709
242.084
214.219
193.724
49.7267
54.6913
43.5298
44.4769
209.215
188.493
175.292
56.2985
56.9442
44.9642
44.9587
135.109
162.307
136.379
54.9276
40.6025
44.2533
37.7795
128.408
136.175
125.612
36.5769
30.091
35.6715
31.0116
177.739
267.896
201.217
74.4963
57.9397
73.8
59.4978
210.652
192.387
186.184
53.4163
44.0375
54.7455
45.4134
236.384
181.172
177.898
42.704
42.0876
43.218
39.4496
218.592
181.323
184.225
42.2636
42.1308
38.7283
37.1241
187.862
180.055
165.181
41.9839
42.3516
36.9524
36.518
167.933
161.658
148.955
42.5174
42.0197
36.3197
35.5225
140.921
146.265
143.493
41.4191
36.6086
35.3725
33.406
126.979
144.493
135.365
35.0313
30.9763
32.845
30.4163
73.9759
88.9944
70.8304
61.3439
56.2308
61.7493
53.9365
61.6865
66.4307
57.6764
54.6776
52.1953
51.8158
48.0392
60.8362
55.6013
53.3332
51.2808
49.7331
47.3697
46.9114
60.3915
53.561
57.6405
49.4961
45.7565
47.192
48.083
50.4076
59.234
59.7322
43.7896
39.7488
47.8811
44.6574
46.2208
58.484
51.3946
38.335
33.4194
42.6997
35.8586
34.2764
48.6218
35.5436
31.23
26.248
33.377
27.0558
26.2173
31.6696
25.6027
25.0296
22.869
25.6296
23.3104
71.015
93.0758
70.2229
62.0127
53.374
62.1696
49.7614
57.3701
63.2374
49.4727
51.2606
46.8468
46.7245
40.9929
50.7288
46.9649
43.935
45.849
44.9565
39.9736
39.1944
54.036
43.9769
47.4085
45.1633
47.0174
39.884
66.7754
59.9179
49.4135
54.5842
47.3851
46.0036
69.0445
60.3831
53.3199
55.6585
52.6587
44.1934
36.4799
53.8382
38.8005
35.8251
48.5929
35.4259
33.8127
27.3363
35.6114
29.6975
25.6689
32.1571
27.7821
25.9283
23.5829
28.6182
27.5019
59.5449
70.3121
52.0306
56.6159
45.3052
52.3169
42.0562
44.9495
47.7748
40.3684
42.8101
38.6314
39.8915
35.6687
42.1527
39.3674
38.6824
37.9402
37.479
34.9047
33.9136
45.1936
38.7486
39.0965
37.7801
60.9822
33.8941
35.9085
51.7904
39.5301
41.4222
64.6179
61.7126
37.8237
41.2921
49.7143
41.7254
40.8154
56.3388
41.2078
41.323
38.4646
35.4482
39.7253
34.239
37.8794
32.0061
36.7591
31.9741
28.4596
32.5858
29.214
30.9714
29.067
30.7281
27.7919
51.4718
59.781
52.4242
49.5171
41.921
47.313
42.3659
40.0953
48.9294
41.4196
39.9562
35.4309
40.4805
36.0275
37.6046
39.4922
36.1455
34.474
33.104
34.6697
32.1081
37.6122
35.3971
33.9409
32.8907
33.138
31.5934
30.4752
38.7647
33.7554
33.2496
33.8116
35.5627
30.2124
29.4145
38.0216
33.0203
32.2678
35.6113
34.1505
29.207
28.6453
33.0282
32.0587
30.3634
33.0998
29.7832
28.3723
27.2656
28.9815
29.8765
28.3904
28.8865
26.9135
26.9933
25.9014
53.0054
56.6769
50.6723
49.7734
47.5073
49.3212
45.5029
49.87
48.9943
46.2739
46.9482
44.3444
44.6253
43.3298
46.9214
45.8068
45.4277
42.9203
40.8667
42.9354
41.9209
42.3551
45.5743
45.3875
40.015
36.1631
41.4919
39.1771
36.9706
44.7921
40.9427
34.9485
32.4517
38.0873
34.5101
30.9379
39.0666
32.9497
31.4452
28.7821
33.2922
30.3346
25.4764
30.9683
26.3836
28.1243
27.0582
29.6765
28.6905
23.0169
25.4063
23.7516
26.8816
26.463
28.5756
28.4251
49.9568
55.6377
46.2123
48.5748
44.6228
45.8563
41.35
45.0168
43.9369
39.7626
43.7383
42.4217
40.3946
38.8773
43.8234
39.0608
38.7585
42.128
41.439
38.6666
38.603
42.0503
44.309
42.2733
42.8896
42.8111
42.9783
41.5245
42.9714
44.3754
45.1149
42.3682
45.0456
41.5851
43.3984
33.4375
59.6087
37.5925
33.8303
30.6632
56.9398
37.3203
26.7017
34.5128
29.8879
30.0054
29.1446
35.2239
33.3215
24.0311
29.1674
28.3785
29.0843
28.9033
33.1798
32.9234
42.9202
48.4749
40.5024
44.2161
39.9616
43.4905
39.1406
37.818
38.7341
35.209
39.0938
37.7167
38.0691
35.8519
37.1055
34.5472
33.6002
37.5225
37.4358
35.4217
34.6281
64.2739
61.9012
36.6058
43.9708
45.1844
259.322
37.2935
104.984
91.9739
76.7578
197.407
78.2398
179.152
104.767
42.3448
42.6942
39.11
61.9468
42.8743
40.0957
37.4803
32.905
37.1188
32.1682
39.7405
35.8087
36.2642
33.6127
30.0218
30.9746
28.109
35.2348
33.7825
33.0207
31.3937
40.4582
45.0113
40.9303
43.2528
39.2704
43.2022
39.6247
34.9454
39.2732
35.3061
38.12
35.5224
38.2617
35.0939
32.8319
34.0554
31.7957
34.974
34.0266
34.1833
32.8197
32.9488
31.3553
30.3461
33.7783
33.9207
32.6216
31.9172
35.48
30.057
29.2607
34.3841
35.1071
31.6901
31.1438
33.9335
29.0924
28.604
35.096
33.9539
31.0936
30.7836
29.7855
28.3321
27.3463
33.3542
31.9234
30.5626
29.9545
27.1971
27.1189
26.0419
31.5719
30.6114
29.7987
28.8214
46.969
48.6329
45.2411
53.2072
50.5432
52.7632
51.436
43.3051
44.4859
43.1974
49.288
45.8419
50.7489
48.8223
39.8265
42.7281
41.4052
44.9877
42.5204
48.1384
45.4048
35.2371
40.8183
38.1943
41.3633
39.2972
44.364
41.721
32.2716
37.1457
34.0772
39.1754
38.5986
41.0979
39.9629
29.54
33.1532
31.2556
38.3994
38.4965
39.9916
41.1628
28.7782
30.9646
30.7942
38.8309
39.2278
41.5052
42.0427
28.3572
30.8453
30.7228
39.2316
38.8964
42.0497
41.7475
44.387
44.8137
41.3747
51.5968
50.9481
48.7543
49.0824
42.5107
40.6627
39.5458
50.4903
49.0013
48.943
48.0819
41.1963
39.3563
38.9599
48.4093
45.6041
47.3236
44.887
38.6375
39.1475
57.9026
44.6119
41.9242
43.9955
44.1485
34.5899
59.6547
53.9646
41.2234
39.8612
44.3469
43.5112
31.552
48.3698
37.2597
39.8319
41.2712
42.91
42.7194
31.2994
35.9559
35.0604
41.7532
42.4898
43.1327
43.8017
31.2606
35.0411
34.5538
42.5035
42.0472
43.7587
42.8767
40.3152
43.477
39.8502
48.2978
48.7509
50.1201
49.3011
38.5656
38.8953
36.8955
48.579
47.6494
48.5039
46.6988
37.9849
36.5113
35.6814
46.8747
44.4994
46.2591
43.9149
55.6044
35.4984
37.0185
43.7454
44.7376
43.2979
42.8445
53.9985
37.9648
38.8528
45.0483
44.1835
42.9739
42.7418
41.0424
38.7934
37.1261
43.7045
43.5658
42.7406
43.3978
36.7785
36.4014
34.8751
43.8043
44.1066
43.5301
43.4471
35.1295
34.5149
33.1114
44.0014
42.9513
43.2599
42.3086
40.0109
43.749
40.1781
51.1936
49.2603
51.2375
46.764
36.5411
38.8028
35.7552
48.2006
46.1676
45.1388
42.9015
35.1678
34.968
33.9072
45.8247
44.0028
43.1093
42.6116
34.8122
33.7687
33.1335
43.3746
42.6554
42.2512
41.8462
35.4653
32.943
32.557
42.6318
42.4298
42.0875
41.8532
34.709
32.5402
32.2594
42.5192
43.0696
41.6068
41.1117
33.553
32.0564
31.5893
43.1359
42.9718
41.0882
40.661
32.4057
31.4635
30.3214
42.7839
41.982
40.3514
39.097
54.1995
57.0974
56.9598
77.462
72.4422
78.1302
82.2466
49.9702
56.2599
54.2526
71.6375
74.3572
81.7242
81.3298
46.8083
53.5758
50.5133
75.0116
71.513
81.2695
82.0576
44.7589
49.4491
47.3126
71.1843
75.0863
82.7468
85.0864
44.4474
46.9773
46.7413
76.188
76.1954
85.7773
86.8597
44.998
46.9102
48.2552
76.7811
80.9985
87.0634
87.0857
45.6993
48.653
48.9892
82.2949
82.3926
87.3162
87.6002
44.8771
48.927
48.0387
82.6789
81.6121
87.7012
87.7117
56.7459
53.2129
55.562
76.5077
82.9983
74.3406
84.0195
54.7762
55.599
54.6808
82.9097
82.6371
84.3702
84.8837
50.7985
53.7221
50.4579
82.8315
85.4719
85.9326
92.4672
47.2534
49.3575
48.2073
86.4641
88.5838
94.4879
97.6627
46.4159
48.2071
47.5853
89.1989
90.3293
98.4911
99.0602
48.3941
47.6073
49.1525
90.351
89.0864
97.9834
93.2934
49.4193
49.6616
50.2539
88.6483
88.3918
91.6795
89.3935
48.2072
50.1025
48.5163
88.3791
87.4141
89.0703
87.2633
55.4197
55.6421
56.1646
74.5528
84.2036
78.9941
85.0784
54.4385
55.4234
53.5962
84.5621
85.0971
84.5386
83.7302
50.2944
53.1026
50.5041
86.162
92.8721
84.0502
87.338
48.9659
49.7047
49.141
95.1591
98.4867
88.603
91.2785
48.235
49.2642
49.1314
99.0034
98.7908
91.8234
92.0095
49.5889
49.2288
49.7338
97.5581
92.9548
91.4891
88.9241
50.3734
49.9355
49.7591
91.3781
89.1092
88.2256
87.6952
48.5287
49.5186
48.1173
88.8321
87.0508
87.6812
86.9338
55.9408
56.731
51.358
80.7984
83.8101
78.379
71.1201
52.9366
49.7254
48.3599
82.946
82.5308
70.2557
74.529
50.7874
48.9809
48.3454
82.6844
84.5465
76.5466
74.4392
49.5819
47.8712
47.671
85.3983
87.9604
74.0812
77.9592
49.29
48.1561
47.7676
88.5717
88.7747
79.5932
78.7535
49.5595
47.4289
46.9888
88.4352
87.0057
78.8124
81.6384
49.3414
47.0926
46.5019
87.0509
86.9861
82.8355
82.1904
47.842
46.1146
44.4665
87.0445
86.9499
82.1798
81.671
43.0338
44.6763
44.7632
42.8374
43.9072
42.9878
43.4601
46.0226
40.7296
69.7789
44.8545
43.3534
40.4229
203.117
52.4302
50.853
104.614
242.573
48.3141
54.2059
261.573
41.1958
41.9177
40.7206
40.4232
41.7393
40.8931
40.3618
41.8165
40.9934
40.2084
40.3494
41.4612
41.8769
40.4973
45.461
45.0416
39.6641
62.7621
40.0511
204.511
41.504
51.3013
239.009
46.4494
84.6497
52.5749
259.115
45.0839
41.9973
43.4988
43.1812
38.935
44.5095
40.4383
40.3225
52.8997
51.4517
113.194
229.637
51.1376
53.8875
217.233
51.119
47.3425
98.5945
98.3093
50.1305
46.5037
149.062
40.8468
40.2509
37.6124
39.8536
39.2752
41.5756
38.9975
39.7156
36.5974
36.4289
36.4565
38.0424
38.0587
37.8927
50.8988
224.479
46.3253
97.0897
52.0182
210.815
45.6886
49.1113
98.2928
41.4303
88.4807
44.5103
146.276
44.3634
87.424
81.3647
70.9725
218.723
59.3257
240.781
100.579
37.5341
34.791
33.8046
33.6034
36.3296
34.8703
33.9163
43.3197
45.9551
34.6224
37.1394
40.3245
49.9196
34.9717
62.3894
44.598
62.5519
37.0917
246.806
37.4548
45.448
85.0637
218.163
77.4909
63.1618
240.998
95.2511
56.9709
37.7149
33.9215
35.6008
34.7269
35.1434
34.2243
37.0935
43.3667
37.2535
44.8454
35.4789
49.1825
35.2561
40.8056
102.966
89.3993
74.0562
109.354
77.7961
160.038
95.4683
58.2484
50.6917
40.7345
39.4225
53.877
54.922
41.3275
59.749
56.3552
41.9615
43.1817
55.2526
60.8496
42.4769
94.871
195.284
78.5296
64.9351
174.646
96.1803
64.9896
91.503
102.414
77.1707
63.4097
145.324
86.0446
64.8246
55.2734
39.1745
47.4343
39.3921
53.0363
40.6533
48.7518
56.0597
41.9476
49.5044
39.8789
56.5311
41.47
49.1821
169.884
193.857
172.582
108.435
90.7448
108.297
90.7292
156.835
164.484
162.861
78.395
74.3785
80.802
77.0941
150.729
160.569
155.4
72.227
68.44
74.4912
74.2993
134.202
145.356
132.067
66.9597
66.9458
74.0673
71.0556
121.246
120.586
112.944
66.4689
65.7205
64.8828
61.8106
98.8641
103.127
93.1293
63.1702
57.7725
60.2947
57.092
82.3243
84.626
79.4753
50.8546
43.8999
51.7787
44.9885
73.6585
78.3187
72.8859
40.8783
33.964
41.089
30.5255
213.02
241.12
204.726
145.846
117.821
148.668
121.514
162.347
302.954
339.518
191.147
163.405
191.093
300.376
108.442
244.255
251.932
112.97
104.273
116.555
246.758
98.7172
251.707
250.515
95.6354
96.3482
98.4985
255.927
103.559
251.9
267.385
103.535
107.293
102.266
267.677
112.506
196.377
242.014
109.064
103.448
114.587
215.996
82.4472
166.096
177.337
87.5685
86.3398
85.6173
170.311
78.0621
134.359
149.365
79.0858
76.2868
79.7248
137.674
56.436
125.527
119.622
66.053
62.6085
61.5205
120.65
81.5366
91.6737
85.2433
32.7178
28.1971
30.9957
26.1933
202.853
230.382
199.35
143.469
120.753
141.981
121.873
159.555
293.929
327.787
184.646
158.482
185.3
293.081
108.234
249.629
249.429
116.131
108.673
116.047
244.249
93.5184
262.157
249.933
96.4911
95.1004
95.3368
258.884
93.6011
288.625
277.354
95.3429
96.4281
92.7619
282.734
99.2141
283.346
288.629
100.343
102.195
97.3594
286.231
105.223
237.595
255.183
105.211
105.794
104.139
244.156
95.7268
170.448
198.465
98.8108
93.5386
101.642
175.59
57.5278
127.526
129.718
66.1487
57.5113
66.5358
130.157
88.1118
94.0997
83.0973
31.3134
26.7957
32.1846
27.1192
177.775
180.99
151.737
120.752
111.131
117.338
102.697
141.169
240.353
271.75
164.817
144.126
163.303
230.219
82.4898
214.009
199.996
95.0466
88.3957
87.6991
208.149
83.2081
248.786
242.017
84.6038
84.8486
82.3192
247.748
84.0299
251.601
249.149
85.1515
85.1007
84.2567
245.777
79.7543
243.988
230.823
84.4142
84.5315
80.8607
227.243
81.5326
228.269
215.282
88.0305
89.5977
80.3417
209.391
83.4276
167.003
179.732
92.5713
90.8597
84.1108
159.008
55.5871
133.572
133.059
62.7748
56.2889
61.1309
133.867
77.4972
88.8542
78.8312
33.0007
27.4654
33.537
28.2028
140.444
156.705
149.384
97.5983
87.4614
94.2989
86.6834
117.509
206.489
232.777
130.631
117.685
130.738
210.979
79.8967
182.522
179.22
83.6008
76.6039
87.0034
180.448
72.6255
232.278
206.095
74.4082
75.8185
72.3781
213.96
74.6355
233.626
220.936
79.1729
79.1801
74.6556
220.114
69.8672
201.259
203.882
74.4964
72.3829
71.2423
196.352
66.1744
180.971
178.5
69.3998
69.2308
67.0888
175.037
62.8881
147.423
154.022
67.4354
66.2871
63.8334
148.493
55.8613
141.261
144.346
58.0496
55.2409
58.2693
144.32
82.5193
98.5386
89.1664
34.0659
27.7579
33.923
28.7147
131.681
162.147
131.536
86.4161
69.7276
89.921
69.6811
117.563
126.492
123.53
59.052
55.4621
59.9078
58.532
104.508
114.743
100.419
52.096
49.6306
55.2325
49.4474
105.073
96.6048
96.6276
47.1051
45.3482
47.1991
46.6215
104.658
96.7678
96.5731
44.1107
43.423
45.5717
43.5041
100.497
96.7555