/*--------------------------------*- C++ -*----------------------------------*\
  =========                 |
  \\      /  F ield         | OpenFOAM: The Open Source CFD Toolbox
   \\    /   O peration     | Website:  https://openfoam.org
    \\  /    A nd           | Version:  10
     \\/     M anipulation  |
\*---------------------------------------------------------------------------*/
FoamFile
{
    format      ascii;
    class       volScalarField;
    location    "6.3";
    object      p;
}
// * * * * * * * * * * * * * * * * * * * * * * * * * * * * * * * * * * * * * //

dimensions      [0 2 -2 0 0 0 0];

internalField   nonuniform List<scalar> 
12920
(
-316558
-414929
-471356
-437616
-440652
-403203
-385118
-352163
-328777
-297991
-273124
-244738
-219511
-192258
-167292
-142442
-119072
-96442.3
-70276.2
-37356.2
-740103
-532349
-496091
-446191
-437764
-402894
-385252
-351837
-328482
-297311
-272366
-244186
-218869
-192126
-167133
-142050
-118725
-96468.7
-70578.8
-36827.8
-768010
-600319
-582270
-493188
-471845
-421843
-395020
-356456
-329566
-296894
-270986
-241791
-216602
-189848
-165594
-140821
-117850
-96205.5
-70898.8
-36292.1
-942153
-675217
-606957
-517970
-472521
-422777
-393032
-354201
-327484
-294747
-268133
-239256
-214390
-187968
-163835
-139378
-116605
-95618.6
-70760.3
-35665
-980573
-723433
-642832
-527861
-488073
-428221
-397625
-354382
-326850
-292347
-265528
-235992
-210912
-184587
-160976
-136972
-114820
-94491.5
-70127.5
-35471.8
-666579
-641229
-618049
-499658
-467355
-414043
-385100
-346869
-319915
-288313
-261616
-232177
-206536
-181251
-157869
-134536
-112894
-93234.1
-69190.1
-35520
-793771
-670004
-630462
-481001
-461119
-405242
-378194
-340205
-313839
-282350
-256234
-227372
-202406
-176397
-153616
-131248
-110590
-91615.6
-68150.7
-35605.5
-835622
-652550
-636917
-468563
-445972
-392059
-377051
-343214
-313311
-285135
-258017
-230723
-205777
-180565
-149063
-127809
-108234
-90142.3
-67437
-35510.1
-988265
-618881
-580607
-450807
-430433
-387202
-369223
-336348
-307143
-279343
-252808
-226937
-202511
-178837
-153148
-124329
-105977
-89045.2
-66971.4
-35144.2
-722094
-487216
-534108
-425632
-412703
-369938
-347367
-319598
-293244
-267622
-241895
-217429
-194177
-172009
-146937
-121240
-103784
-88099.1
-66492.1
-35115.5
-426683
-341934
-432170
-370732
-380924
-343867
-325935
-301875
-278727
-253455
-229415
-206863
-185448
-164789
-141808
-117699
-101501
-86604
-65864.6
-34967.4
-444672
-309631
-366544
-315278
-352793
-306447
-302508
-284310
-260992
-237927
-216697
-196194
-176456
-157495
-135277
-113710
-99035.8
-85014.8
-64923.9
-34418.5
-629400
-308669
-339423
-289894
-319336
-283533
-282764
-258004
-235617
-217088
-198931
-180637
-163613
-146703
-126200
-110936
-96336.7
-82994.3
-63780.9
-33445.3
-748265
-374654
-340412
-286945
-319768
-269665
-266520
-235136
-223318
-200141
-185880
-167130
-153556
-137265
-123047
-107701
-93652.8
-80920.1
-62541.7
-32683.9
-561683
-367773
-347694
-296511
-299232
-251034
-250508
-222908
-213345
-192616
-179595
-162371
-148931
-133631
-119600
-104754
-91206.4
-79066.5
-61317.7
-32401.8
-771045
-401228
-350364
-272912
-288936
-234687
-242855
-213052
-206646
-186034
-174465
-157017
-144583
-129400
-116621
-102197
-89368.3
-77485.6
-60327.6
-32237.8
-454268
-313107
-314336
-239263
-267315
-215237
-230693
-199313
-198028
-178331
-169543
-152867
-141390
-126838
-114618
-100657
-88196
-76415.6
-59458
-32812.4
-364094
-245108
-338252
-223330
-260530
-216800
-222362
-198157
-192821
-175420
-166076
-150450
-139397
-125188
-113328
-99669.6
-87510.6
-75573.7
-58768.9
-33832.3
-503029
-217270
-302112
-224490
-243051
-201740
-213093
-190768
-188802
-171934
-164380
-149324
-138861
-124867
-113030
-99550
-87368.4
-75045.8
-58251.4
-34651
-433086
-117456
-262126
-220214
-239133
-210757
-210604
-193495
-187717
-172203
-163483
-149115
-138361
-124698
-112760
-99397
-87224
-74640.5
-57873.2
-35259
-481577
-427061
-470119
-437533
-440290
-403026
-385143
-352230
-328768
-298171
-273192
-244740
-219446
-192283
-167302
-142443
-119079
-96487.9
-70332
-37202.9
-682616
-521850
-495049
-447443
-438866
-402916
-385414
-351868
-328688
-297488
-272687
-244358
-219001
-192050
-167091
-142058
-118704
-96527.7
-70685.5
-36504
-787325
-602201
-586443
-492524
-471467
-421890
-395289
-356665
-329802
-297042
-271017
-241816
-216649
-189825
-165585
-140797
-117816
-96258.3
-71003.9
-35782.4
-701103
-636405
-601744
-516948
-472311
-423396
-393270
-354274
-327542
-294649
-268182
-239192
-214371
-187904
-163821
-139337
-116540
-95654.4
-70872.3
-35108.2
-903897
-700847
-639831
-526664
-487808
-427898
-397612
-354226
-326769
-292241
-265544
-235899
-210896
-184512
-160976
-136921
-114747
-94546.3
-70273.7
-34814.9
-625793
-634280
-615077
-498816
-467214
-413793
-384330
-346536
-320079
-288320
-261350
-232108
-206569
-181211
-157838
-134463
-112825
-93308.4
-69367
-34793.4
-813719
-674727
-631969
-480596
-460947
-404909
-378632
-340227
-314140
-282319
-256170
-227264
-202403
-176355
-153542
-131199
-110530
-91692.6
-68299.8
-34876.7
-907527
-653914
-635965
-465303
-445130
-391997
-377843
-343370
-313813
-285132
-258093
-230601
-205638
-180342
-148790
-127741
-108140
-90203.2
-67631.2
-34828.5
-976274
-616648
-588696
-448514
-430852
-387125
-369660
-336641
-306876
-279654
-252983
-226923
-202437
-178828
-152665
-124255
-105946
-89242.5
-67227.7
-34511.3
-783442
-493640
-537207
-424817
-413959
-369130
-346893
-319396
-293551
-267531
-241880
-217329
-194059
-171951
-146838
-121093
-103804
-88287.1
-66892.9
-34485.5
-480012
-352337
-433597
-371572
-381848
-342448
-325230
-301775
-278536
-253484
-229554
-206636
-185260
-164708
-141520
-117549
-101507
-86817.7
-66173.4
-34213.2
-540435
-306112
-361457
-316826
-352395
-307479
-303269
-284597
-260963
-238112
-216738
-196133
-176348
-157445
-134833
-113585
-99037.4
-85163.9
-65202.7
-33501.2
-554022
-305022
-339043
-289698
-319189
-283065
-281729
-258133
-235426
-216661
-198518
-180275
-163336
-146452
-125889
-110882
-96294.2
-83112.1
-63999.8
-32591.7
-588024
-326899
-340020
-285236
-320429
-268725
-266758
-235131
-223425
-199665
-185804
-166947
-153528
-137195
-123014
-107662
-93566.5
-80994
-62750.8
-31776.1
-615901
-347327
-349541
-295344
-301091
-249533
-250776
-222149
-213280
-192832
-179488
-162222
-148911
-133522
-119512
-104649
-91091
-79133.4
-61517.7
-31351.3
-631547
-399349
-350189
-270185
-288757
-234649
-243260
-212925
-206876
-185850
-174510
-156881
-144495
-129271
-116574
-102125
-89285.8
-77551.2
-60510.4
-31318.9
-392086
-299880
-314606
-239895
-265411
-216515
-231736
-200167
-198715
-178108
-169467
-152659
-141236
-126711
-114576
-100601
-88143.4
-76499
-59639.6
-31973.5
-348687
-232230
-336950
-225805
-261216
-215888
-223118
-197920
-193068
-175379
-166169
-150377
-139381
-125125
-113315
-99639.8
-87500.3
-75699.4
-59011.8
-33145.4
-495686
-211573
-299058
-222985
-242566
-202053
-213001
-190429
-188923
-171948
-164455
-149333
-138927
-124901
-113076
-99543.2
-87374.1
-75172.2
-58384.3
-34184.7
-276548
-147495
-259232
-220652
-238752
-210537
-210694
-193423
-187799
-172272
-163549
-149159
-138378
-124728
-112779
-99390.1
-87244.5
-74747.8
-57978.5
-35007.1
-363956
-394188
-463212
-437371
-440108
-403104
-385237
-352315
-328786
-298200
-273274
-244858
-219392
-192289
-167399
-142457
-119080
-96572.9
-70467.8
-36813.1
-615321
-495067
-488577
-447383
-440111
-403786
-385833
-352153
-328831
-297610
-272877
-244452
-218927
-191878
-167052
-142018
-118662
-96631.6
-70854.9
-35743.2
-724713
-582949
-583933
-491322
-470106
-421219
-395062
-356456
-330037
-297024
-271171
-241854
-216691
-189776
-165588
-140763
-117754
-96333.5
-71130.1
-34580.8
-687614
-615781
-599957
-515525
-472940
-423799
-393691
-354404
-327668
-294541
-268271
-239049
-214358
-187765
-163811
-139261
-116420
-95708.4
-70979
-33692.1
-887413
-687557
-636985
-524456
-486866
-427380
-397565
-353928
-326764
-292109
-265555
-235671
-210812
-184367
-160975
-136841
-114624
-94636.4
-70436.4
-33251.1
-654898
-617515
-619210
-496087
-467007
-413253
-383649
-345978
-320026
-288218
-261061
-232075
-206653
-181126
-157793
-134346
-112696
-93434.9
-69575.6
-33191.4
-730306
-672716
-628999
-479843
-460219
-404464
-379010
-339867
-314465
-282254
-256118
-227080
-202379
-176235
-153490
-131107
-110416
-91853
-68511.3
-33282.6
-855315
-655782
-627039
-463315
-444570
-391618
-378637
-343533
-314358
-285043
-257900
-230164
-205215
-179866
-148494
-127688
-108020
-90457.2
-67918.7
-33277.7
-939101
-616569
-586124
-448802
-429946
-385363
-369860
-336720
-307580
-280058
-253139
-226757
-202289
-178628
-152209
-124070
-105872
-89552.8
-67687.1
-33040.7
-773762
-503703
-535676
-424115
-413400
-366249
-345257
-319116
-293463
-267587
-241648
-217045
-193819
-171829
-146660
-120952
-103783
-88554.5
-67375.1
-32759.1
-287244
-336899
-430696
-375507
-382461
-340906
-323807
-301484
-278176
-253158
-229687
-206200
-184958
-164567
-141164
-117439
-101534
-87155.8
-66716.5
-32350.1
-471547
-292001
-360407
-321117
-351028
-310750
-304517
-284834
-260976
-238439
-216871
-195993
-176207
-157357
-134253
-113358
-98959.8
-85430.4
-65624.4
-31570
-398930
-276677
-334663
-288656
-318810
-282311
-280256
-257931
-236155
-216385
-197913
-179739
-162922
-145999
-125786
-110810
-96195.3
-83288.1
-64262.9
-30757.3
-623589
-328771
-341315
-287075
-320993
-268037
-266321
-235074
-223079
-199964
-186152
-166843
-153553
-137140
-122987
-107619
-93426.3
-81078.4
-62969
-29939.8
-629767
-339188
-355160
-295398
-300365
-249669
-250449
-220993
-213236
-193165
-180347
-162755
-149242
-133439
-119416
-104534
-90935
-79220.6
-61705.1
-29356.6
-629305
-369665
-342496
-266354
-288060
-235803
-243183
-213348
-206885
-186168
-174802
-156802
-144408
-129159
-116553
-102061
-89182.5
-77645.1
-60690
-29491.4
-388381
-279158
-315673
-239682
-262168
-218870
-231672
-200747
-199530
-178826
-170010
-152587
-141071
-126581
-114549
-100539
-88065.5
-76632.5
-59888.3
-30267.9
-260160
-219153
-337295
-226386
-260338
-217352
-224068
-197707
-193514
-175438
-166344
-150235
-139352
-124982
-113295
-99552.2
-87434.1
-75908.9
-59405.3
-31665.9
-420302
-201785
-292980
-221436
-241170
-203475
-213381
-189904
-189159
-171930
-164565
-149288
-138990
-124893
-113107
-99481.6
-87357.2
-75381.1
-58632.9
-33105
-302562
-152130
-265358
-221328
-238652
-210479
-210865
-193275
-187867
-172364
-163650
-149201
-138435
-124731
-112806
-99392.5
-87291.8
-74950.9
-58204.7
-34339.6
-338767
-381103
-463231
-436917
-439718
-402962
-385268
-352380
-328859
-298329
-273297
-245036
-219444
-192309
-167429
-142446
-119087
-96701.8
-70703.9
-36143.8
-471260
-460240
-484486
-447721
-440660
-404379
-386142
-352406
-329013
-297755
-273142
-244696
-218977
-191809
-167033
-142002
-118624
-96777
-71107.5
-34220.5
-668509
-575779
-584178
-491222
-469524
-420935
-395068
-356445
-330455
-297063
-271393
-241909
-216784
-189730
-165613
-140727
-117656
-96410.3
-71308.3
-32606.9
-582502
-598672
-595235
-513319
-472963
-423934
-394200
-354514
-327880
-294516
-268368
-238814
-214312
-187555
-163849
-139183
-116277
-95763
-71145.2
-31466
-777264
-663104
-634469
-521217
-486542
-426783
-397523
-353626
-326811
-292008
-265493
-235349
-210689
-184142
-161028
-136737
-114463
-94751.1
-70659.8
-30907.8
-666446
-623958
-618002
-494396
-466549
-412949
-383371
-345485
-320090
-288343
-260671
-232024
-206732
-180952
-157717
-134209
-112528
-93658.7
-69891.4
-30791.8
-851050
-669957
-636175
-481218
-460116
-404816
-379110
-339367
-314968
-282364
-256180
-226824
-202428
-176095
-153461
-130973
-110243
-92069.5
-68903.3
-30948.4
-799012
-652911
-628018
-463565
-445056
-391578
-378793
-344127
-314415
-284889
-257287
-229457
-204485
-179099
-148098
-127650
-107910
-90791.4
-68375.9
-30894.2
-892805
-623034
-585830
-450571
-428307
-386042
-369871
-336527
-308309
-280038
-252966
-226210
-201800
-178332
-151711
-123736
-105781
-89941.1
-68309.2
-30515.7
-893035
-516025
-530889
-425887
-411666
-366486
-343905
-319010
-293517
-267727
-241658
-216775
-193560
-171743
-146400
-120670
-103679
-88936.7
-68049.1
-30079.4
-470858
-336243
-436023
-381015
-380705
-342469
-323043
-301418
-278078
-254494
-229984
-205771
-184701
-164546
-140837
-117121
-101483
-87550.5
-67500.9
-29547.7
-326040
-285599
-351641
-322679
-348548
-314765
-304685
-284951
-261140
-238677
-216887
-195789
-176036
-157255
-133477
-113120
-98918
-85782.5
-66150.9
-28874.8
-483680
-253824
-332904
-289591
-317571
-282044
-280099
-257607
-237547
-217182
-197630
-179266
-162390
-145432
-125654
-110755
-96028.9
-83396.8
-64273
-28330.5
-499927
-305462
-335508
-287654
-318928
-267620
-266429
-234911
-223325
-200269
-186401
-167629
-154005
-137356
-123083
-107651
-93348.6
-81037.1
-62836.1
-27767.9
-579632
-326379
-356147
-295494
-298845
-249849
-250796
-220446
-213533
-193407
-181309
-163230
-149594
-133863
-119745
-104763
-91025.1
-79244.8
-61596.6
-27354.4
-702903
-380234
-341358
-264393
-287738
-236251
-243016
-213741
-206989
-186626
-175128
-157198
-144833
-129439
-116774
-102199
-89231.2
-77734.4
-60665.8
-27363.7
-179983
-263316
-316353
-239046
-259829
-220896
-230155
-200922
-200276
-179472
-170289
-152918
-141582
-126827
-114751
-100637
-88076.3
-76793.1
-60086.6
-27853
-239397
-194529
-333014
-225735
-258167
-218409
-224252
-198548
-194720
-176050
-166588
-150113
-139311
-124783
-113305
-99460.2
-87353.5
-76205.7
-60006.4
-29347.4
-349564
-175340
-289227
-219708
-239586
-205025
-214066
-189843
-189232
-171843
-164714
-149282
-139132
-124914
-113170
-99448.2
-87350.3
-75655.6
-59036.8
-31031.4
-210998
-140145
-262220
-219923
-237831
-209912
-211044
-192936
-187861
-172206
-163720
-149179
-138519
-124735
-112846
-99364.3
-87315.3
-75283.1
-58738.4
-33155.6
-286561
-362823
-460849
-437880
-439579
-402971
-385218
-352400
-328837
-298370
-273439
-245146
-219495
-192318
-167473
-142452
-119069
-96862.9
-71167.3
-35184.2
-373498
-444007
-482742
-447624
-440439
-404507
-386233
-352510
-329263
-297948
-273705
-245417
-219129
-191781
-167080
-141970
-118534
-96908.4
-71522
-31917.5
-705537
-564842
-579221
-490400
-469265
-420898
-395287
-356539
-331206
-297071
-271590
-241922
-216812
-189690
-165657
-140707
-117572
-96420.2
-71391.5
-30539.5
-583281
-594267
-591037
-511370
-473098
-424195
-394557
-354100
-327975
-294016
-268688
-238318
-214302
-187366
-164126
-139231
-116330
-95748.9
-71035.7
-29663.6
-733310
-654841
-634384
-518840
-486378
-426098
-397268
-353054
-326492
-291454
-265761
-235016
-210881
-183824
-161260
-136676
-114450
-94809.5
-70494
-29224.4
-608979
-605516
-620114
-490918
-466961
-412686
-383191
-344615
-319509
-287677
-260968
-232094
-206946
-180627
-157661
-134232
-112566
-93886.5
-69834.7
-29079.4
-901580
-656751
-638239
-482030
-458802
-405870
-378814
-339053
-314545
-282138
-256308
-227229
-202908
-176152
-153594
-130975
-110148
-92191.2
-68976.6
-29075.2
-752800
-646512
-624985
-464804
-443513
-391681
-378001
-344617
-314267
-285117
-256891
-229880
-204300
-179093
-148198
-127759
-107862
-91110.5
-68452.7
-29033.1
-865619
-627660
-578765
-450031
-426816
-386805
-369405
-336795
-308430
-280103
-252938
-226291
-201639
-178073
-151326
-123643
-105713
-90262.6
-68351.7
-28813.1
-703520
-517582
-524428
-426327
-409856
-367667
-344938
-319172
-293589
-267709
-241727
-216763
-193523
-171789
-146057
-120357
-103500
-89137.5
-68129.8
-28471.1
-476234
-336460
-438963
-382724
-379674
-344412
-324787
-301739
-278031
-253704
-229743
-206187
-184751
-164602
-140382
-116771
-101281
-87699.4
-67592.1
-28083.3
-259893
-281389
-348754
-322919
-346981
-317197
-305929
-284789
-261284
-238839
-216994
-195789
-175959
-157189
-132894
-112840
-98849
-85865.1
-66480.2
-27547.1
-330071
-252629
-332408
-292404
-314592
-283275
-280553
-257686
-238150
-217460
-198127
-179825
-162371
-145362
-124827
-110635
-95903.7
-83353.5
-64622.9
-27271.2
-502335
-302113
-332852
-289446
-314831
-269060
-265271
-235724
-223066
-200322
-186400
-167979
-154153
-137576
-123170
-107691
-93329.1
-81034.3
-63142.5
-26924.7
-545077
-312294
-354315
-295512
-297854
-251735
-249743
-221548
-213230
-193586
-181135
-163318
-149794
-134076
-119959
-104904
-91074.7
-79313
-61984.9
-26649.6
-648951
-354911
-337450
-262748
-285493
-237960
-241399
-213891
-206885
-186772
-175287
-157487
-145132
-129568
-116949
-102293
-89291.4
-77902.3
-61128.7
-26595.8
-92047.8
-254858
-314011
-237706
-258343
-221524
-229019
-201568
-199261
-179740
-170021
-153125
-141744
-126934
-114949
-100747
-88146.5
-77050.3
-60702.7
-26773.8
-113227
-162270
-328905
-226387
-255311
-218965
-224392
-199075
-195492
-176362
-167246
-150411
-139594
-124846
-113445
-99449.5
-87339.3
-76572.9
-60537.1
-27399.2
-384929
-166014
-295023
-217280
-238667
-205703
-215279
-190521
-189715
-172058
-164951
-149418
-139293
-124980
-113265
-99450.5
-87313.7
-75874.5
-59490.1
-28641
-149063
-134812
-262692
-218159
-238661
-208987
-211346
-192606
-187955
-172090
-163857
-149167
-138624
-124721
-112906
-99346.6
-87316.3
-75677.8
-59612
-31301.6
-247993
-255900
-238379
-267697
-247998
-256069
-238497
-223127
-232746
-215358
-241605
-222959
-232770
-215038
-235249
-242421
-225746
-253262
-235596
-242653
-225897
-211950
-220285
-204121
-229994
-211589
-220396
-204036
-343823
-353566
-331034
-369300
-344203
-353065
-330931
-313192
-323894
-303114
-336580
-313296
-323846
-303302
-285699
-296360
-276803
-306942
-285942
-296618
-277138
-258957
-270339
-251130
-279573
-259364
-270558
-251163
-233119
-244725
-226013
-252962
-233193
-244712
-225983
-208158
-219910
-202071
-226931
-208171
-219832
-202011
-184393
-196260
-179319
-202446
-184464
-196199
-179289
-161631
-173746
-157327
-178836
-161576
-173709
-157193
-326399
-332434
-312448
-346864
-326228
-331907
-312166
-299900
-306545
-289155
-319478
-300013
-306335
-288923
-274040
-283023
-263963
-293553
-274125
-282798
-263665
-248236
-257446
-238475
-267565
-248230
-257208
-238519
-223421
-232519
-215176
-241907
-223377
-232588
-215113
-199880
-209537
-193027
-217374
-199794
-209414
-192916
-177471
-187637
-171798
-194103
-177430
-187531
-171737
-155664
-166610
-151388
-171970
-155526
-166554
-151232
-307547
-307924
-293237
-325393
-307467
-308001
-293500
-284744
-288409
-271763
-301827
-284659
-288561
-271701
-259820
-265589
-247372
-278628
-259721
-265554
-247580
-235196
-241693
-225277
-253430
-235325
-241885
-225355
-212405
-219930
-204079
-229517
-212326
-219984
-204092
-190703
-198880
-183682
-206745
-190595
-198863
-183618
-169886
-178713
-164126
-185321
-169829
-178648
-164084
-149662
-159319
-145433
-164734
-149516
-159291
-145286
-289050
-293157
-278940
-302822
-289477
-293119
-278657
-267314
-272204
-252396
-284505
-267252
-271847
-252242
-243430
-247157
-231907
-260982
-243619
-247099
-231932
-221928
-226850
-211595
-238057
-221998
-226709
-211507
-201286
-207297
-192713
-216726
-201288
-207157
-192642
-181346
-188295
-174044
-196160
-181277
-188134
-173976
-162198
-170032
-156499
-176383
-162176
-169926
-156457
-143518
-152555
-139986
-157463
-143363
-152439
-139788
-344365
-353205
-330868
-369612
-344783
-351873
-330690
-313244
-323803
-303362
-336774
-313829
-323666
-303488
-286122
-296698
-277183
-307347
-286881
-296858
-277317
-259455
-270574
-251153
-280033
-259807
-270659
-251108
-233237
-244691
-225954
-253116
-233426
-244605
-225837
-208205
-219789
-201973
-226810
-208240
-219626
-201813
-184509
-196160
-179276
-202327
-184556
-196001
-179213
-161465
-173692
-157110
-178682
-161288
-173619
-157014
-326103
-331791
-312054
-345511
-325789
-330336
-311670
-300036
-306255
-288796
-319163
-299912
-305942
-288406
-274093
-282677
-263588
-293479
-274090
-282290
-263566
-248199
-257204
-238492
-267547
-248062
-257662
-238302
-223350
-232580
-215020
-241729
-223200
-232481
-213853
-199746
-209303
-192849
-217130
-199551
-208871
-192575
-177411
-187472
-171708
-193887
-177327
-187246
-171592
-155451
-166526
-151129
-171864
-155362
-166414
-150983
-307393
-308211
-293653
-324082
-307113
-308682
-294184
-284581
-288649
-271666
-301552
-284296
-288897
-271553
-259728
-265531
-247663
-278230
-259961
-265499
-247979
-235362
-241954
-225394
-254410
-235578
-242268
-225622
-212213
-220014
-204094
-229797
-211229
-220189
-204110
-190530
-198848
-183580
-206302
-190272
-198777
-183452
-169801
-178611
-164071
-185040
-169694
-178497
-164028
-149405
-159276
-145154
-164613
-149264
-159223
-145046
-289715
-293095
-278541
-304268
-290333
-292632
-278063
-267206
-271541
-252188
-284794
-267078
-270531
-252315
-243695
-247045
-231959
-260957
-243979
-247049
-232208
-222029
-226611
-211433
-238341
-222188
-226376
-211370
-201280
-207031
-192577
-216826
-201246
-206742
-192540
-181243
-188009
-173901
-196025
-181135
-187713
-173761
-162167
-169829
-156401
-176243
-162127
-169595
-156307
-143216
-152333
-139574
-157380
-143102
-152087
-139503
-344917
-351664
-330655
-369752
-345307
-350625
-330664
-314034
-323626
-303527
-336673
-314926
-323594
-303657
-287036
-296901
-277380
-308226
-287705
-297053
-277595
-259901
-270703
-251088
-280107
-260265
-270867
-251136
-233522
-244565
-225789
-253039
-233799
-244535
-225673
-208260
-219560
-201744
-226384
-208262
-219357
-201528
-184576
-195938
-179188
-201949
-184647
-195752
-179134
-161186
-173590
-156947
-178400
-161147
-173498
-156970
-325713
-329994
-311563
-344017
-325593
-328859
-311439
-299883
-305847
-288299
-319009
-299864
-305702
-288093
-274134
-282207
-263573
-293489
-274259
-282074
-263741
-257398
-261044
-264090
-267634
-257480
-261058
-264124
-232237
-235383
-238498
-241574
-232378
-235299
-238340
-199471
-208670
-192465
-216822
-199229
-208268
-192174
-177293
-187158
-171551
-193617
-177205
-186928
-171468
-155277
-166352
-150875
-171739
-155240
-166315
-150828
-307035
-309009
-294342
-322909
-306987
-309384
-294726
-284219
-288965
-271532
-301402
-284063
-289146
-271543
-260074
-265514
-248116
-278092
-260317
-265615
-248393
-245707
-245984
-250769
-252138
-244853
-243879
-251327
-220959
-224453
-226591
-229672
-220755
-224871
-226922
-190169
-198756
-183408
-205842
-189896
-198628
-183275
-169659
-178461
-164013
-184746
-169587
-178348
-163965
-149138
-159207
-144880
-164533
-149065
-159157
-144841
-290475
-292659
-277733
-304525
-290774
-292396
-276599
-267059
-270379
-252421
-284920
-267091
-270048
-252917
-244093
-247098
-232340
-261091
-244387
-247358
-232731
-222261
-226277
-211367
-238646
-222364
-226193
-211605
-201233
-206592
-192512
-216908
-201161
-206292
-192643
-181097
-187555
-173671
-195850
-180970
-187137
-173708
-162110
-169468
-156260
-176083
-162049
-169197
-156387
-142944
-151972
-139312
-157280
-142935
-151741
-139465
-345410
-350575
-330712
-369328
-345461
-350674
-330951
-315138
-323609
-303709
-336654
-315717
-323686
-303850
-287959
-297107
-277668
-308353
-287931
-297239
-277724
-260422
-270926
-251184
-280057
-260526
-270970
-251256
-233913
-244558
-225647
-252910
-233658
-244588
-225607
-208308
-219299
-201463
-226200
-208399
-219255
-201405
-184730
-195698
-179114
-201496
-184940
-195622
-179156
-161094
-173495
-156903
-178011
-161341
-173513
-156999
-325613
-328892
-311486
-344355
-325838
-330137
-311914
-299881
-305686
-288069
-319097
-299964
-305827
-288086
-274291
-282053
-263757
-293611
-274310
-282052
-263622
-248067
-257754
-238284
-267741
-248169
-257308
-238635
-222933
-232419
-213650
-241724
-222908
-232613
-214556
-199158
-208307
-192117
-216744
-199039
-208614
-192075
-177188
-186880
-171467
-193480
-177233
-186835
-171522
-155134
-166331
-150691
-171787
-155125
-166406
-150687
-307055
-309601
-294845
-324164
-307574
-310645
-295165
-284048
-289211
-271567
-301596
-284077
-289330
-271624
-260241
-265657
-248423
-278066
-259975
-265722
-248446
-235825
-242638
-225858
-253708
-235686
-242665
-225864
-210975
-220355
-203982
-229778
-211856
-220321
-203954
-189840
-198555
-183230
-206052
-189879
-198539
-183214
-169585
-178307
-163947
-184696
-169628
-178232
-163920
-148923
-159139
-144682
-164610
-148888
-159128
-144702
-290854
-292590
-276367
-305656
-290933
-292403
-275737
-267124
-269923
-253119
-284872
-267218
-269824
-253671
-244453
-247627
-232666
-261268
-244531
-248223
-232604
-222362
-226360
-211738
-238803
-222509
-226961
-212221
-201118
-206176
-192736
-216954
-201115
-206597
-192761
-180927
-186955
-173758
-195753
-180923
-187153
-174024
-162030
-169065
-156447
-175926
-161996
-168879
-156639
-142795
-151598
-139365
-157196
-142840
-151404
-139713
-345434
-351159
-331018
-369443
-344982
-351981
-330949
-315881
-323735
-303860
-336828
-315420
-323760
-303827
-287782
-297230
-277668
-308300
-287147
-297194
-277538
-260555
-270932
-251261
-280112
-260035
-270879
-251305
-233586
-244590
-225616
-253004
-233093
-244622
-225623
-208417
-219280
-201478
-226493
-208048
-219316
-201566
-184834
-195685
-179168
-201910
-184315
-195766
-179206
-161112
-173516
-156819
-178388
-160749
-173543
-156672
-325966
-330783
-312158
-345701
-326048
-331814
-312581
-299970
-305981
-288069
-319259
-299997
-306299
-288023
-274270
-281999
-263558
-293544
-274140
-281879
-263407
-248182
-257281
-238663
-267616
-248218
-257212
-238658
-222919
-232634
-214667
-241746
-222958
-232624
-214740
-199116
-208746
-192163
-216813
-199221
-208940
-192306
-177249
-186895
-171524
-193587
-177290
-186985
-171541
-154976
-166396
-150506
-171798
-154909
-166414
-150436
-307801
-311045
-295235
-325677
-308171
-311868
-295142
-284057
-289322
-271621
-302007
-284001
-289166
-271559
-259906
-265711
-248444
-277927
-259757
-265647
-248400
-235649
-242682
-225891
-253665
-235582
-242655
-225872
-211982
-220331
-203971
-229673
-212062
-220295
-203959
-189943
-198572
-183248
-206357
-190065
-198597
-183292
-169629
-178262
-163920
-184827
-169638
-178287
-163922
-148708
-159120
-144508
-164615
-148647
-159108
-144350
-290886
-292453
-275597
-306419
-290550
-292666
-275267
-267232
-269835
-253862
-284545
-267182
-270167
-253777
-244540
-248331
-232610
-261263
-244505
-248676
-232737
-222564
-227146
-212370
-238852
-222546
-227861
-212442
-201137
-206740
-192668
-217007
-201138
-207314
-192593
-180947
-187281
-174039
-195842
-180949
-187936
-174035
-161988
-169034
-156538
-175995
-161958
-169526
-156390
-142631
-151543
-139427
-157179
-142369
-152002
-139011
-250877
-254462
-244662
-247934
-251018
-254435
-244503
-255130
-261315
-249588
-255424
-254995
-261546
-249260
-247802
-241646
-244080
-238694
-248052
-241270
-244135
-257413
-267670
-261133
-264173
-261088
-264146
-257535
-250889
-247936
-254519
-244669
-254453
-244502
-251068
-255127
-255322
-261382
-249330
-261560
-249126
-254997
-247790
-238534
-241680
-244120
-241267
-243869
-248087
-226355
-229201
-220443
-223063
-226397
-229129
-220447
-228829
-235510
-227365
-233159
-229327
-235110
-228121
-222387
-216889
-222129
-217080
-222816
-216905
-223066
-232201
-241559
-235290
-238460
-235267
-238325
-232276
-226293
-223006
-229077
-220247
-229086
-220384
-226239
-228764
-233021
-235491
-227255
-235083
-228001
-229242
-222257
-217211
-216641
-222020
-216811
-222973
-222611
-238973
-240474
-232397
-235010
-238401
-239753
-232815
-240752
-246198
-236852
-242568
-240563
-246358
-237008
-235140
-229239
-231265
-225867
-234891
-229489
-231408
-245824
-251925
-246268
-250957
-243784
-251414
-245069
-239059
-234904
-240877
-232621
-239638
-232898
-238646
-240822
-242647
-246423
-237060
-246434
-237080
-240763
-235207
-225918
-229436
-231445
-229548
-231469
-235108
-214543
-219123
-208834
-215151
-214578
-221829
-208816
-218265
-223624
-214863
-220383
-218047
-223849
-214936
-212778
-206949
-209475
-204135
-212497
-207124
-209523
-221004
-229591
-224681
-226770
-224842
-227001
-220824
-214514
-215379
-219245
-208660
-221615
-208778
-214508
-218299
-220422
-223796
-214919
-223902
-214956
-218152
-212812
-204110
-206849
-209462
-207125
-209522
-212518
-358681
-372454
-355532
-377239
-358754
-372816
-355904
-325709
-336551
-322787
-343361
-326284
-336683
-322767
-297472
-307396
-295636
-313549
-297701
-307486
-295712
-270311
-279405
-267204
-285132
-270606
-279539
-267285
-243180
-252515
-240718
-258099
-243274
-252546
-240816
-216999
-226127
-215057
-230698
-216991
-226107
-215090
-192021
-201498
-190746
-205720
-192008
-201439
-190772
-166876
-176969
-167065
-180474
-166859
-176895
-167086
-377845
-380576
-368694
-387196
-377928
-380346
-368811
-356511
-360951
-363442
-369505
-361091
-363479
-356570
-324878
-327621
-331524
-336391
-327677
-331538
-324829
-296564
-299231
-302469
-307083
-299196
-302395
-296535
-269849
-271602
-275478
-279385
-271888
-275537
-269795
-243911
-245759
-249723
-252860
-245791
-249718
-243892
-218711
-220089
-224220
-226938
-220090
-224210
-218706
-194814
-195791
-200015
-202494
-195788
-200001
-194810
-171900
-172518
-176826
-178832
-172515
-176808
-171899
-139900
-148963
-140369
-152936
-139814
-148858
-140390
-359066
-360789
-348064
-369448
-358951
-360380
-347850
-335537
-340671
-343439
-347394
-340606
-343471
-335610
-309097
-313044
-315314
-319588
-313031
-315282
-309126
-283999
-286737
-290323
-293383
-286917
-290361
-283963
-257929
-261195
-264539
-267615
-261154
-264451
-257972
-232715
-235668
-238817
-241931
-235696
-238855
-232679
-209021
-211560
-214804
-217437
-211544
-214804
-209026
-186480
-188544
-192006
-194166
-188533
-192003
-186490
-164853
-166570
-170221
-171996
-166554
-170206
-164871
-137216
-144406
-134937
-146898
-137205
-144333
-134927
-336186
-328916
-322173
-343051
-335966
-328432
-322240
-314004
-319956
-320733
-325967
-319889
-320804
-314026
-291787
-296335
-297183
-301879
-296339
-297198
-291775
-268151
-272595
-274347
-278728
-272578
-274355
-268165
-243501
-247284
-249439
-253432
-247277
-249456
-243451
-220685
-223689
-226256
-229447
-223719
-226281
-220664
-198850
-201408
-204205
-206859
-201398
-204203
-198858
-178070
-180209
-183219
-185423
-180190
-183197
-178093
-158026
-159774
-162978
-164774
-159759
-162966
-158041
-132283
-138889
-130753
-141695
-132262
-138762
-130752
-311588
-303739
-300112
-306574
-311934
-303717
-300301
-295688
-298662
-299783
-302557
-298705
-299850
-295667
-275019
-279178
-280389
-284344
-279174
-280412