/*--------------------------------*- C++ -*----------------------------------*\
  =========                 |
  \\      /  F ield         | OpenFOAM: The Open Source CFD Toolbox
   \\    /   O peration     | Website:  https://openfoam.org
    \\  /    A nd           | Version:  10
     \\/     M anipulation  |
\*---------------------------------------------------------------------------*/
FoamFile
{
    format      ascii;
    class       volScalarField;
    location    "6.3";
    object      turbidity_0;
}
// * * * * * * * * * * * * * * * * * * * * * * * * * * * * * * * * * * * * * //

dimensions      [0 0 0 0 0 0 0];

internalField   nonuniform List<scalar> 
12920
(
-0.0373109
-0.0598003
-0.0829327
-0.103022
-0.123787
-0.144538
-0.162741
-0.17837
-0.190362
-0.199337
-0.205352
-0.210274
-0.2159
-0.226635
-0.242162
-0.257852
-0.275652
-0.300684
-0.336709
-0.382195
-0.0140805
-0.033712
-0.0591332
-0.0974
-0.134869
-0.162154
-0.178537
-0.190092
-0.199005
-0.205525
-0.215142
-0.229571
-0.254474
-0.284205
-0.322214
-0.364863
-0.410573
-0.458618
-0.50279
-0.535543
-0.0237685
-0.0587008
-0.0659235
-0.0931991
-0.130659
-0.161299
-0.20066
-0.235519
-0.274788
-0.305267
-0.332685
-0.355594
-0.381519
-0.413359
-0.45392
-0.501691
-0.553641
-0.603758
-0.646376
-0.68069
-0.0215614
-0.0521078
-0.0721165
-0.104092
-0.143522
-0.195133
-0.234722
-0.279792
-0.313474
-0.347967
-0.379629
-0.407683
-0.443234
-0.485228
-0.535049
-0.590289
-0.648207
-0.704086
-0.755933
-0.803099
-0.0234402
-0.0411541
-0.0567618
-0.0772778
-0.107984
-0.146261
-0.183684
-0.231286
-0.270244
-0.322023
-0.366875
-0.417387
-0.461802
-0.505204
-0.552535
-0.601629
-0.649206
-0.691289
-0.726893
-0.75396
-0.054186
-0.04517
-0.0484493
-0.0631544
-0.0813421
-0.100532
-0.118867
-0.138394
-0.155458
-0.184836
-0.237949
-0.328383
-0.422371
-0.493019
-0.543852
-0.579558
-0.603035
-0.619658
-0.633663
-0.644885
-0.034753
-0.0402392
-0.048505
-0.076635
-0.10001
-0.11817
-0.13122
-0.141873
-0.152072
-0.171083
-0.202046
-0.264431
-0.348734
-0.430745
-0.4855
-0.513788
-0.518863
-0.509121
-0.493269
-0.490987
-0.0271989
-0.0416465
-0.0560106
-0.0693266
-0.0894068
-0.109247
-0.109706
-0.106795
-0.105844
-0.111991
-0.139203
-0.187292
-0.254228
-0.317513
-0.327522
-0.340347
-0.332021
-0.318339
-0.315885
-0.32784
-0.0134454
-0.0328771
-0.0429055
-0.0530088
-0.0704022
-0.0768183
-0.0843471
-0.0849543
-0.0834909
-0.0818271
-0.0907416
-0.12324
-0.156195
-0.199028
-0.227935
-0.1826
-0.198344
-0.219412
-0.246596
-0.279996
-0.0232176
-0.036266
-0.0493184
-0.0613571
-0.0771786
-0.0782502
-0.0810809
-0.0832881
-0.0861188
-0.085166
-0.0812342
-0.0804364
-0.0842791
-0.120503
-0.148703
-0.146312
-0.173366
-0.20227
-0.23472
-0.271402
-0.0180511
-0.059757
-0.0740488
-0.0847925
-0.100202
-0.10032
-0.106492
-0.110113
-0.104554
-0.0964158
-0.0869381
-0.0789146
-0.0785463
-0.102967
-0.126508
-0.137272
-0.163022
-0.191929
-0.225831
-0.265762
-0.037578
-0.0574447
-0.0809497
-0.103725
-0.127293
-0.129482
-0.141636
-0.143209
-0.125761
-0.108462
-0.0974147
-0.0855943
-0.0849207
-0.0997397
-0.11453
-0.129926
-0.162125
-0.200908
-0.245201
-0.292252
-0.0501951
-0.0548952
-0.0677768
-0.0979451
-0.138543
-0.173883
-0.17724
-0.170836
-0.16269
-0.140389
-0.123092
-0.115943
-0.117834
-0.121462
-0.145935
-0.178449
-0.22046
-0.273004
-0.328613
-0.38418
-0.0336723
-0.0575818
-0.0675163
-0.0850812
-0.111413
-0.145319
-0.186396
-0.234414
-0.259123
-0.272942
-0.261848
-0.261696
-0.260886
-0.271409
-0.291704
-0.328634
-0.376976
-0.435789
-0.494604
-0.55406
-0.0342217
-0.0621574
-0.0791958
-0.10846
-0.131578
-0.154048
-0.185711
-0.217664
-0.260518
-0.302854
-0.327392
-0.351938
-0.368461
-0.394128
-0.423873
-0.462246
-0.503019
-0.543196
-0.575085
-0.600366
-0.0327289
-0.0521365
-0.0815343
-0.123331
-0.145384
-0.170438
-0.19447
-0.222602
-0.263379
-0.308006
-0.351508
-0.391674
-0.42615
-0.459601
-0.489811
-0.515895
-0.534566
-0.543012
-0.541345
-0.53615
-0.0279936
-0.0659009
-0.0984729
-0.154742
-0.15201
-0.190743
-0.2184
-0.251046
-0.287783
-0.326907
-0.366238
-0.400612
-0.431642
-0.457681
-0.481011
-0.500599
-0.515063
-0.521878
-0.521383
-0.515229
-0.035722
-0.058965
-0.0656636
-0.107438
-0.147863
-0.180492
-0.213587
-0.242371
-0.277175
-0.30766
-0.338427
-0.360611
-0.379321
-0.392793
-0.404137
-0.409239
-0.413926
-0.420065
-0.426622
-0.433057
-0.0296889
-0.0552882
-0.0788847
-0.111335
-0.134778
-0.179677
-0.220247
-0.252331
-0.277971
-0.29584
-0.314409
-0.330183
-0.34602
-0.359352
-0.373874
-0.3868
-0.400508
-0.413966
-0.425404
-0.437583
-0.0541231
-0.0523089
-0.0653795
-0.0779265
-0.0901125
-0.110744
-0.139123
-0.176403
-0.213906
-0.247932
-0.275724
-0.298382
-0.316832
-0.331721
-0.343588
-0.352487
-0.357079
-0.360868
-0.366699
-0.376666
-0.00358734
-0.016101
-0.023595
-0.0367136
-0.0489732
-0.058235
-0.0633798
-0.0656397
-0.0652268
-0.0620993
-0.0622585
-0.0695205
-0.0809841
-0.0844023
-0.0718527
-0.0524118
-0.0384199
-0.0314511
-0.0310884
-0.0368748
-0.00331759
-0.018005
-0.0264223
-0.029774
-0.0346139
-0.0299401
-0.0290629
-0.0300941
-0.0317086
-0.0338736
-0.0377017
-0.0433064
-0.0526384
-0.0635164
-0.0790195
-0.101683
-0.130435
-0.147344
-0.14328
-0.116363
-0.00981097
-0.0197844
-0.0102534
-0.0147266
-0.023543
-0.0295502
-0.0388873
-0.0447954
-0.0504645
-0.055113
-0.0619344
-0.0706392
-0.0837599
-0.0986918
-0.114351
-0.121764
-0.117681
-0.101591
-0.0848058
-0.0757066
-0.00660221
-0.00816736
-0.00931192
-0.0189745
-0.0329195
-0.0369661
-0.045194
-0.0502882
-0.05915
-0.0597052
-0.0647738
-0.0702729
-0.0816023
-0.0925842
-0.103372
-0.107807
-0.109029
-0.10757
-0.107702
-0.112745
-0.01063
-0.00751049
-0.00791546
-0.0119817
-0.0186044
-0.029054
-0.0432016
-0.0647878
-0.0905431
-0.103571
-0.111743
-0.100199
-0.0946322
-0.0905873
-0.0919186
-0.0924786
-0.0953829
-0.0991945
-0.106644
-0.114555
-0.00465481
-0.00730992
-0.00619239
-0.00646676
-0.00890206
-0.0138925
-0.0211051
-0.0359041
-0.0613488
-0.0979001
-0.134805
-0.138351
-0.114873
-0.092963
-0.0811293
-0.0783447
-0.0814848
-0.0892194
-0.102193
-0.118957
-0.0119006
-0.00542081
-0.00599643
-0.0104888
-0.0189803
-0.0211302
-0.025744
-0.0340086
-0.0481182
-0.0743259
-0.104634
-0.130105
-0.124624
-0.100377
-0.0790326
-0.0678422
-0.0666355
-0.0719085
-0.0820156
-0.097327
-0.00837943
-0.00500276
-0.00746959
-0.010926
-0.0172098
-0.0193651
-0.0215683
-0.0261103
-0.0363837
-0.055724
-0.0863423
-0.124104
-0.134867
-0.106885
-0.0572679
-0.0571953
-0.0627742
-0.0670193
-0.0711579
-0.0763579
-0.0157103
-0.00702506
-0.00947276
-0.0136662
-0.0248605
-0.0288898
-0.0342457
-0.0340871
-0.0325231
-0.048683
-0.0775452
-0.104054
-0.12908
-0.113414
-0.0521204
-0.0480088
-0.0530848
-0.0564642
-0.0584692
-0.0596406
-0.00656806
-0.0118826
-0.0163646
-0.0208167
-0.0341461
-0.0361839
-0.0389596
-0.0332376
-0.0294492
-0.0287781
-0.0435735
-0.0710685
-0.103138
-0.0992722
-0.044411
-0.0408648
-0.0451898
-0.0490161
-0.051912
-0.0537002
-0.00920172
-0.0275163
-0.0394772
-0.0461037
-0.0604998
-0.0650699
-0.0716168
-0.0526889
-0.0325366
-0.0310624
-0.0389352
-0.060789
-0.0911971
-0.0910798
-0.050909
-0.0365839
-0.0400968
-0.0458111
-0.0512905
-0.0550752
-0.0238327
-0.0222337
-0.0330133
-0.0457404
-0.0704623
-0.0782679
-0.0850528
-0.0780715
-0.0525624
-0.0438135
-0.0502764
-0.0696248
-0.08955
-0.0872958
-0.052401
-0.039653
-0.047356
-0.055158
-0.0583324
-0.0596718
-0.0164634
-0.0148526
-0.0165556
-0.0248758
-0.0410825
-0.0414563
-0.0490171
-0.0643438
-0.0826949
-0.0865225
-0.0830387
-0.082622
-0.0792153
-0.0703931
-0.0530468
-0.0618264
-0.0746704
-0.0810757
-0.0804016
-0.0800701
-0.0125126
-0.0187067
-0.01559
-0.0222504
-0.0356983
-0.039438
-0.049436
-0.0553692
-0.0648961
-0.0710443
-0.0678126
-0.0660123
-0.0664449
-0.0739959
-0.0858869
-0.100934
-0.114861
-0.122079
-0.125361
-0.131459
-0.00677136
-0.0135709
-0.0133822
-0.0186739
-0.0237628
-0.0255305
-0.0340997
-0.0386516
-0.0543101
-0.0589437
-0.0647702
-0.0691837
-0.0757778
-0.0854273
-0.0933724
-0.0980996
-0.0976104
-0.0915949
-0.0845024
-0.0803059
-0.0120597
-0.0252149
-0.0155813
-0.0215353
-0.0216719
-0.022953
-0.0270668
-0.0314198
-0.0420905
-0.0480713
-0.0554356
-0.0591013
-0.0638117
-0.0645467
-0.0646947
-0.060629
-0.0554769
-0.0497532
-0.0449584
-0.0425236
-0.00841859
-0.0144558
-0.0141024
-0.0232131
-0.0200062
-0.0351408
-0.0310292
-0.0351343
-0.0416547
-0.045034
-0.0480442
-0.0485244
-0.0490418
-0.0480308
-0.0468709
-0.0449195
-0.0426804
-0.0403859
-0.0385887
-0.0380399
-0.0254465
-0.00940777
-0.0122092
-0.0242474
-0.0334979
-0.0395229
-0.0425944
-0.0398738
-0.0394473
-0.0385998
-0.0383377
-0.0371936
-0.0364139
-0.0356377
-0.0354383
-0.0355365
-0.036385
-0.037909
-0.0399835
-0.0420758
-0.0144451
-0.0136306
-0.0153525
-0.0240511
-0.0345157
-0.0430365
-0.0438747
-0.0361443
-0.0319958
-0.031677
-0.0338072
-0.0371714
-0.0421977
-0.0485663
-0.0568377
-0.0663704
-0.076986
-0.0887997
-0.100527
-0.104877
-0.0163971
-0.0235263
-0.0256827
-0.0290121
-0.033143
-0.0387156
-0.0505903
-0.0676832
-0.087883
-0.103946
-0.116139
-0.122544
-0.125649
-0.119775
-0.108596
-0.0928971
-0.0773711
-0.0646502
-0.0562088
-0.0539156
-0.00519216
-0.0102477
-0.0107866
-0.0138555
-0.0170141
-0.0206764
-0.022721
-0.0246099
-0.0263725
-0.0284116
-0.0326792
-0.0385468
-0.0431883
-0.0411032
-0.0328424
-0.024882
-0.0206918
-0.0196212
-0.0205826
-0.0225438
-0.0116937
-0.014847
-0.0106232
-0.0125022
-0.0142957
-0.0152301
-0.0164931
-0.0177993
-0.0196541
-0.0216271
-0.0246347
-0.0281305
-0.0326967
-0.0375682
-0.0438384
-0.0505352
-0.0555094
-0.0533125
-0.0450141
-0.0348598
-0.00682952
-0.0122179
-0.00868607
-0.0101897
-0.0136412
-0.0172266
-0.021017
-0.0236177
-0.0263079
-0.0288475
-0.0321277
-0.0355029
-0.0394817
-0.0420176
-0.043023
-0.0404335
-0.0357555
-0.0306522
-0.0279185
-0.0280953
-0.00465862
-0.00553154
-0.00635802
-0.00989481
-0.0140327
-0.0182308
-0.0232499
-0.0248452
-0.0286224
-0.0290528
-0.0309099
-0.0323157
-0.0340878
-0.0345209
-0.0343658
-0.0330061
-0.031976
-0.0312423
-0.0315137
-0.0328308
-0.00885419
-0.00433762
-0.00420262
-0.00663328
-0.0110387
-0.0178771
-0.0264249
-0.0337772
-0.0432638
-0.0429441
-0.0422799
-0.0368681
-0.0344002
-0.0326087
-0.032257
-0.0319676
-0.0324652
-0.0329881
-0.0340275
-0.0348544
-0.00439132
-0.0042905
-0.00499778
-0.00607377
-0.00864928
-0.0138639
-0.0208553
-0.0322348
-0.0489673
-0.0633982
-0.0688477
-0.0548063
-0.0410158
-0.0348677
-0.0339304
-0.0349891
-0.037095
-0.0393067
-0.0420588
-0.0441928
-0.00714783
-0.00313871
-0.00449657
-0.00760364
-0.0105525
-0.0138452
-0.017187
-0.0258356
-0.0361784
-0.0503891
-0.0598303
-0.0592271
-0.0482105
-0.0397544
-0.0382037
-0.0399828
-0.0432422
-0.0464276
-0.0494819
-0.0515739
-0.00327711
-0.00439362
-0.00592154
-0.00785546
-0.00979947
-0.0112687
-0.0119362
-0.0178649
-0.0273132
-0.0411689
-0.0555234
-0.0625196
-0.050889
-0.0393417
-0.040048
-0.0438568
-0.0460457
-0.046135
-0.044751
-0.0421699
-0.00520084
-0.00592396
-0.00751764
-0.00985941
-0.0134887
-0.0133844
-0.0143585
-0.0146751
-0.0196366
-0.0301547
-0.047172
-0.0581341
-0.0532486
-0.0386721
-0.0390583
-0.0383879
-0.0369982
-0.0338175
-0.030355
-0.0271316
-0.0172044
-0.0110514
-0.0107715
-0.0129803
-0.0190827
-0.0177046
-0.0177999
-0.014742
-0.0137359
-0.0179691
-0.0311448
-0.047404
-0.0477954
-0.0318831
-0.0300229
-0.0309776
-0.0318596
-0.0304924
-0.0279034
-0.0250195
-0.0183422
-0.0170888
-0.0235388
-0.0286844
-0.0372218
-0.0366556
-0.0349268
-0.022528
-0.0170432
-0.0180413
-0.0259786
-0.0356887
-0.0378
-0.0260564
-0.0232838
-0.0312251
-0.0347573
-0.0345089
-0.0316701
-0.0279635
-0.0131724
-0.0139318
-0.0164429
-0.027882
-0.0407771
-0.0408287
-0.0393715
-0.03381
-0.0266425
-0.024356
-0.0284903
-0.0334748
-0.0317585
-0.0257935
-0.0239564
-0.0353592
-0.0365596
-0.0332784
-0.0285597
-0.024718
-0.0124131
-0.00604833
-0.00798269
-0.0127767
-0.0179958
-0.0186789
-0.0219818
-0.0313511
-0.0392699
-0.041339
-0.03866
-0.0354375
-0.0318463
-0.0297414
-0.0373128
-0.0404762
-0.0393158
-0.0341487
-0.0286958
-0.025455
-0.00246178
-0.00688379
-0.00796742
-0.0116222
-0.0162865
-0.0171622
-0.0218273
-0.0237336
-0.0274251
-0.0294151
-0.0297974
-0.0325868
-0.0360827
-0.0415033
-0.045361
-0.0463717
-0.0452666
-0.0423381
-0.0395295
-0.0385477
-0.00714829
-0.00974015
-0.00963553
-0.0100365
-0.0113137
-0.0124202
-0.0172304
-0.0189558
-0.0237784
-0.0252424
-0.0285073
-0.0317029
-0.035129
-0.0372925
-0.0379094
-0.0364738
-0.0340249
-0.0312717
-0.0291768
-0.0282669
-0.00617943
-0.011133
-0.00958756
-0.00935376
-0.00965984
-0.0116379
-0.014848
-0.0171819
-0.020593
-0.0219685
-0.0241816
-0.0248362
-0.0260365
-0.0255226
-0.0249852
-0.023652
-0.0225498
-0.0217291
-0.0214512
-0.0219613
-0.0170087
-0.00875938
-0.0093127
-0.0110447
-0.0111593
-0.0153352
-0.015795
-0.0171621
-0.018678
-0.0186704
-0.0191628
-0.0188599
-0.0189866
-0.0187003
-0.0186
-0.0184654
-0.0185251
-0.0188182
-0.0194422
-0.0204793
-0.00718899
-0.00581051
-0.00855289
-0.0121565
-0.0142513
-0.0155828
-0.015819
-0.0152201
-0.0152273
-0.0149723
-0.0149625
-0.0149142
-0.0151768
-0.0155547
-0.016168
-0.016909
-0.0178625
-0.0189767
-0.0203029
-0.0216604
-0.0246617
-0.0138678
-0.0106753
-0.0131064
-0.0172505
-0.0187608
-0.0185352
-0.0177812
-0.0187045
-0.0188915
-0.0199074
-0.0206131
-0.0219053
-0.0230062
-0.0245146
-0.0260354
-0.0275175
-0.0288769
-0.0304699
-0.0307662
-0.00463193
-0.00793207
-0.00816503
-0.00904513
-0.0121661
-0.0178815
-0.0281759
-0.0411129
-0.055171
-0.0661232
-0.072786
-0.0735223
-0.0695062
-0.0600071
-0.0485999
-0.037361
-0.0284758
-0.0227844
-0.0204827
-0.0214713
-0.010824
-0.00786039
-0.00763592
-0.0082168
-0.00792616
-0.00726638
-0.00667967
-0.00736615
-0.00979622
-0.0134258
-0.0174146
-0.020212
-0.0211107
-0.0192718
-0.0173373
-0.0170862
-0.0182587
-0.0197775
-0.0210354
-0.0217759
-0.0128999
-0.0114518
-0.00818417
-0.00794892
-0.0083155
-0.00931545
-0.0102394
-0.0118493
-0.0136244
-0.0153327
-0.0171031
-0.0187296
-0.0205902
-0.0222265
-0.0238402
-0.0243009
-0.0235809
-0.0213827
-0.0192227
-0.0178924
-0.0126903
-0.0140036
-0.00859439
-0.00871069
-0.0110516
-0.0133476
-0.0150929
-0.0163983
-0.0174045
-0.0181668
-0.0188798
-0.0191898
-0.0194143
-0.0187719
-0.0178791
-0.016461
-0.0153838
-0.0147866
-0.0149542
-0.0157372
-0.00338082
-0.00552006
-0.00623048
-0.00872347
-0.0113986
-0.0139243
-0.0156044
-0.0162652
-0.0169316
-0.0166828
-0.0164698
-0.0160532
-0.0156952
-0.0151661
-0.0148691
-0.0146512
-0.0148463
-0.0152525
-0.0159976
-0.0170324
-0.00837772
-0.00467631
-0.0053337
-0.00731848
-0.0103042
-0.0136654
-0.0170077
-0.0186332
-0.020801
-0.0195752
-0.0186359
-0.0167767
-0.0158694
-0.015142
-0.0150736
-0.0151073
-0.0154714
-0.0158894
-0.0165188
-0.0172218
-0.00192481
-0.0029149
-0.00433118
-0.00598807
-0.00884028
-0.012501
-0.0162801
-0.0209088
-0.0273285
-0.0292381
-0.0273588
-0.0213419
-0.0181214
-0.0168394
-0.0166688
-0.0166683
-0.0168351
-0.0169727
-0.0172889
-0.0176
-0.00148436
-0.00163728
-0.00317662
-0.00627928
-0.00847482
-0.0108038
-0.0123063
-0.0173078
-0.0217181
-0.0258615
-0.0268727
-0.024607
-0.0216911
-0.0202981
-0.0205039
-0.0204565
-0.0203579
-0.0199843
-0.0196724
-0.01927
-0.00151039
-0.00267084
-0.00453238
-0.00620254
-0.00702096
-0.00838165
-0.00867817
-0.0139553
-0.0176332
-0.0232112
-0.0257196
-0.0256487
-0.0231277
-0.0231518
-0.0219725
-0.0216473
-0.0202764
-0.0181814
-0.0162151
-0.0147987
-0.00407553
-0.00409145
-0.00593416
-0.00790264
-0.00891012
-0.00868754
-0.00887105
-0.00971456
-0.013438
-0.0184938
-0.0241171
-0.0257926
-0.0252315
-0.0258173
-0.0243327
-0.0155518
-0.0134933
-0.0117875
-0.0107164
-0.010336
-0.00613953
-0.00564515
-0.00742347
-0.0101162
-0.0120102
-0.0110739
-0.0107454
-0.00986117
-0.0106147
-0.0141207
-0.0192456
-0.0226061
-0.0234782
-0.0229383
-0.0189508
-0.0130715
-0.0116826
-0.0105123
-0.00994547
-0.00997264
-0.0181126
-0.0102475
-0.0131044
-0.0167966
-0.0197354
-0.0184005
-0.0171951
-0.0133995
-0.0125629
-0.013689
-0.0163575
-0.0184656
-0.0193313
-0.0188352
-0.017612
-0.0149092
-0.0135977
-0.0118878
-0.0108778
-0.0107008
-0.00559351
-0.00801171
-0.0101996
-0.0163446
-0.019355
-0.0191275
-0.0182125
-0.0175286
-0.0163587
-0.0155083
-0.0157362
-0.016193
-0.0162641
-0.0167792
-0.0190221
-0.0148274
-0.0130796
-0.0113151
-0.0105375
-0.0107407
-0.00788327
-0.00415208
-0.00593183
-0.00875642
-0.0105848
-0.01159
-0.0135971
-0.0175887
-0.0191152
-0.0191527
-0.0180024
-0.0173955
-0.0181646
-0.0201436
-0.0165284
-0.0150495
-0.0131714
-0.0114526
-0.0108147
-0.0111949
-0.00372863
-0.00546221
-0.00678291
-0.0084272
-0.0101411
-0.0108094
-0.0132016
-0.0136148
-0.0145059
-0.0155926
-0.016098
-0.0172915
-0.0176289
-0.0176228
-0.016586
-0.0150914
-0.0140754
-0.0132977
-0.0130909
-0.013632
-0.00761015
-0.0069138
-0.00754469
-0.00798339
-0.00854411
-0.00944309
-0.0118197
-0.0121435
-0.0135746
-0.0138094
-0.0148166
-0.014935
-0.0149968
-0.0143165
-0.0135847
-0.0128327
-0.0123822
-0.012334
-0.0127458
-0.0136747
-0.00545556
-0.00817675
-0.00852659
-0.00793574
-0.00789875
-0.00905772
-0.0106216
-0.011206
-0.012215
-0.0122264
-0.0126485
-0.0123295
-0.0122787
-0.0119224
-0.0118309
-0.0119209
-0.0123106
-0.0129941
-0.0139491
-0.0151191
-0.0182506
-0.00936756
-0.00870941
-0.00905679
-0.00908171
-0.010441
-0.0104591
-0.010646
-0.0109301
-0.0108472
-0.0110357
-0.0110721
-0.0112451
-0.0114327
-0.0117396
-0.0122001
-0.0128481
-0.0136899
-0.0147341
-0.0159094
-0.00205149
-0.00357994
-0.00720607
-0.010227
-0.0115051
-0.0117611
-0.0116102
-0.0112419
-0.0108147
-0.0105975
-0.0105367
-0.010724
-0.0111298
-0.0116688
-0.0123072
-0.0130083
-0.0137872
-0.0146201
-0.0155284
-0.0164658
-0.00173649
-0.00598468
-0.0090109
-0.0112595
-0.0144734
-0.0169697
-0.0200223
-0.0206917
-0.0213939
-0.019981
-0.0182493
-0.015946
-0.0143939
-0.0136419
-0.0137704
-0.0144159
-0.0152927
-0.0162597
-0.0172729
-0.0182549
-0.00285108
-0.00564725
-0.00629332
-0.0075234
-0.0111477
-0.0174116
-0.0257319
-0.0347964
-0.0428724
-0.04691
-0.0463359
-0.0407174
-0.0329436
-0.0243075
-0.0175803
-0.0132353
-0.011332
-0.0113015
-0.0126161
-0.0148347
-0.00738509
-0.00412017
-0.00475011
-0.00546519
-0.00510357
-0.00450251
-0.00459383
-0.00582406
-0.00769434
-0.00948501
-0.0114039
-0.0131522
-0.0147379
-0.0155833
-0.015833
-0.015533
-0.0149167
-0.0142189
-0.0136889
-0.0134138
-0.00474459
-0.00619442
-0.00525669
-0.00656529
-0.00696209
-0.00809491
-0.00871239
-0.010116
-0.0111444
-0.0120901
-0.012711
-0.0129498
-0.0131191
-0.0130424
-0.0133207
-0.0135496
-0.0141438
-0.0149764
-0.0161072
-0.0174138
-0.030816
-0.00947549
-0.00558351
-0.00817741
-0.0102749
-0.011606
-0.0118482
-0.0117648
-0.0114741
-0.0111411
-0.0110642
-0.0110734
-0.0114087
-0.0118313
-0.0124971
-0.0132648
-0.0141491
-0.0150455
-0.0158779
-0.016529
-0.00678111
-0.00431691
-0.00488546
-0.00829182
-0.0102777
-0.0111665
-0.0108974
-0.0106958
-0.0103957
-0.010305
-0.010448
-0.0107541
-0.0112766
-0.0118876
-0.012602
-0.0133341
-0.0140744
-0.0147856
-0.0154666
-0.0160698
-0.00868951
-0.00429697
-0.00523814
-0.00747328
-0.00933108
-0.0104719
-0.0107148
-0.0108273
-0.0107535
-0.010655
-0.0106748
-0.0108357
-0.0112595
-0.0118011
-0.0124515
-0.013127
-0.0138355
-0.0145611
-0.0153096
-0.0160001
-0.00109814
-0.00261548
-0.00401669
-0.00614041
-0.00829562
-0.00983477
-0.0106938
-0.0112694
-0.0121058
-0.0121003
-0.0117519
-0.0112343
-0.0113233
-0.0117448
-0.0123214
-0.0129782
-0.0136997
-0.0144863
-0.015319
-0.0160868
-0.00127037
-0.00184655
-0.00384426
-0.00610222
-0.0076138
-0.00888006
-0.00972958
-0.0107206
-0.0113521
-0.011873
-0.011874
-0.0117283
-0.0115892
-0.0118446
-0.0123175
-0.0128054
-0.0134013
-0.0141198
-0.0149075
-0.0156552
-0.000777756
-0.001451
-0.00390424
-0.00595157
-0.00726634
-0.0083163
-0.0088469
-0.0105349
-0.0110577
-0.012117
-0.011806
-0.0119176
-0.011168
-0.0112765
-0.011706
-0.0121947
-0.0126641
-0.0132423
-0.0138986
-0.0145161
-0.00592615
-0.00476766
-0.00590346
-0.00737651
-0.00838024
-0.00848407
-0.00863138
-0.0099773
-0.0115177
-0.0128452
-0.0129321
-0.0123055
-0.0104172
-0.00942033
-0.00924181
-0.0109957
-0.0116311
-0.0122996
-0.0129459
-0.0134783
-0.00934611
-0.00673335
-0.00653295
-0.00843723
-0.00932377
-0.00952691
-0.00961423
-0.0100681
-0.011653
-0.0137034
-0.014597
-0.0127972
-0.00935758
-0.00790302
-0.00802547
-0.0105382
-0.0112975
-0.0120413
-0.0127207
-0.0132742
-0.0209953
-0.0139761
-0.00979618
-0.0105389
-0.0107423
-0.0109492
-0.0109621
-0.0110945
-0.0120934
-0.0134231
-0.0141003
-0.0119138
-0.0089262
-0.00774606
-0.00795123
-0.0106277
-0.0115124
-0.0123822
-0.0132046
-0.0139111
-0.00920994
-0.00773977
-0.00833256
-0.0106879
-0.0104206
-0.0109636
-0.0104529
-0.0106532
-0.0111999
-0.0116408
-0.0111846
-0.00941042
-0.00758436
-0.00688616
-0.00752922
-0.0111346
-0.012299
-0.0134576
-0.0145285
-0.0154237
-0.00720614
-0.00770395
-0.00687667
-0.00804448
-0.00868337
-0.00884692
-0.00923069
-0.00959895
-0.00945822
-0.00929479
-0.00869887
-0.0080893
-0.00768056
-0.00780951
-0.010844
-0.0120592
-0.0133453
-0.0147476
-0.0161179
-0.0172517
-0.00342673
-0.00460709
-0.00572262
-0.00711469
-0.00789372
-0.00810699
-0.00834936
-0.00790848
-0.00779229
-0.00813741
-0.00831849
-0.00892869
-0.00942868
-0.0102626
-0.0112188
-0.0124208
-0.0138138
-0.0153548
-0.0169331
-0.0182728
-0.00498186
-0.00443867
-0.00603329
-0.00682637
-0.00732039
-0.00762805
-0.00785764
-0.00759384
-0.00764189
-0.00775365
-0.00812404
-0.00862852
-0.00931076
-0.0102121
-0.0113342
-0.0126679
-0.0141722
-0.0157969
-0.017441
-0.0188093
-0.0132478
-0.0108298
-0.00934086
-0.00736268
-0.00708541
-0.00750768
-0.00759953
-0.00760659
-0.00765301
-0.00785648
-0.00820305
-0.00875182
-0.00949183
-0.0104456
-0.0115885
-0.0129124
-0.0143987
-0.0160038
-0.0176633
-0.019088
-0.00582726
-0.00953347
-0.00927017
-0.00831015
-0.00793404
-0.00801931
-0.00774368
-0.00781883
-0.00791032
-0.00821965
-0.00865438
-0.00927085
-0.0100328
-0.0109519
-0.012017
-0.0132207
-0.0145753
-0.0160737
-0.0176754
-0.019186
-0.00506393
-0.00841813
-0.0107345
-0.0104021
-0.00974605
-0.0090722
-0.008771
-0.00843022
-0.00831051
-0.00845806
-0.00881835
-0.00933512
-0.00999383
-0.0107712
-0.0116895
-0.0127336
-0.0139151
-0.0152422
-0.0166973
-0.0181456
-0.00810931
-0.00962925
-0.00974802
-0.0106896
-0.0129266
-0.01368
-0.01533
-0.0138351
-0.0125186
-0.010527
-0.00960924
-0.00948035
-0.00990109
-0.0105311
-0.0112378
-0.0120513
-0.0130255
-0.0142464
-0.0157122
-0.0173921
-0.00352664
-0.00547858
-0.00706025
-0.010093
-0.0144321
-0.0190199
-0.0235604
-0.0255577
-0.0252399
-0.0209954
-0.0162733
-0.0118482
-0.00975902
-0.00905304
-0.00949664
-0.0103412
-0.0112907
-0.0122611
-0.0133665
-0.014738
-0.0271452
-0.0172974
-0.0229232
-0.0147539
-0.0198381
-0.0141338
-0.0179599
-0.0437305
-0.0256291
-0.0346361
-0.0216427
-0.0257364
-0.0194526
-0.0218463
-0.0235134
-0.0219263
-0.0254599
-0.0143056
-0.0170361
-0.01599
-0.0164106
-0.0334272
-0.0272676
-0.0324097
-0.0181693
-0.0200194
-0.0166673
-0.0174916
-0.084928
-0.0789284
-0.0821941
-0.0813508
-0.082367
-0.075682
-0.0782087
-0.0838728
-0.0829068
-0.0847163
-0.0818679
-0.0785304
-0.0774053
-0.0699714
-0.0822112
-0.0852616
-0.0854309
-0.0779546
-0.0803575
-0.0652094
-0.051872
-0.085013
-0.0848263
-0.0823598
-0.0830639
-0.0957406
-0.0507981
-0.0625896
-0.114016
-0.0817503
-0.0823963
-0.102455
-0.122002
-0.0698152
-0.0870843
-0.146302
-0.0833244
-0.0871791
-0.130427
-0.155159
-0.0912602
-0.107161
-0.185462
-0.0909594
-0.117976
-0.166144
-0.189753
-0.115107
-0.138518
-0.231572
-0.13148
-0.163304
-0.19538
-0.19215
-0.140612
-0.116248
-0.0827
-0.0834396
-0.0898675
-0.0781827
-0.078974
-0.0801716
-0.0875932
-0.08547
-0.0919274
-0.0953957
-0.0783302
-0.0708954
-0.0881517
-0.0719157
-0.0860461
-0.095376
-0.0923859
-0.0651819
-0.0479517
-0.0633319
-0.0453425
-0.0819284
-0.0907624
-0.0848668
-0.0452876
-0.0518529
-0.0428072
-0.0432733
-0.0803937
-0.0829316
-0.0790884
-0.058179
-0.0775244
-0.0461419
-0.0622745
-0.0817348
-0.0782758
-0.0772875
-0.0823849
-0.0986002
-0.0689186
-0.0881983
-0.107843
-0.0785711
-0.0959294
-0.106342
-0.128969
-0.0952946
-0.114826
-0.15023
-0.105435
-0.126148
-0.130704
-0.107023
-0.117119
-0.107081
-0.110222
-0.121068
-0.129978
-0.101384
-0.104085
-0.113615
-0.12336
-0.106476
-0.129885
-0.122082
-0.100255
-0.0712933
-0.121122
-0.0867564
-0.0984027
-0.117931
-0.107442
-0.0617702
-0.0461027
-0.074031
-0.0544665
-0.0896249
-0.105036
-0.0983238
-0.0444995
-0.0469879
-0.0532056
-0.0585745
-0.0803409
-0.0953933
-0.0857582
-0.0497516
-0.0640533
-0.0623202
-0.0761289
-0.0772645
-0.0832748
-0.0809291
-0.0702043
-0.0884424
-0.0809821
-0.094961
-0.0946886
-0.0823497
-0.0943756
-0.0949877
-0.113065
-0.0997608
-0.112309
-0.120573
-0.0994271
-0.109128
-0.115806
-0.110753
-0.114632
-0.113688
-0.14469
-0.158437
-0.160219
-0.135641
-0.139866
-0.154238
-0.156429
-0.131261
-0.157433
-0.145345
-0.137525
-0.103349
-0.152871
-0.145057
-0.111685
-0.139934
-0.122395
-0.088572
-0.062513
-0.140299
-0.117142
-0.100404
-0.117228
-0.105161
-0.0598593
-0.0635565
-0.109343
-0.0984942
-0.0879742
-0.101964
-0.0948172
-0.0673406
-0.0811062
-0.0983702
-0.102157
-0.0834889
-0.0935144
-0.0938735
-0.0856847
-0.0984447
-0.104142
-0.110598
-0.0955791
-0.0953451
-0.10156
-0.102659
-0.113026
-0.112622
-0.115942
-0.107211
-0.103278
-0.104334
-0.11474
-0.112477
-0.115601
-0.108694
-0.0356764
-0.0367709
-0.0323693
-0.0256797
-0.0240124
-0.0269202
-0.0244782
-0.0316667
-0.030836
-0.0286523
-0.0238143
-0.0264844
-0.0234667
-0.0199521
-0.0425992
-0.0280595
-0.0286822
-0.028737
-0.0367446
-0.0194368
-0.0223985
-0.0699237
-0.0306373
-0.0441678
-0.0406069
-0.0543339
-0.0248931
-0.0355579
-0.096231
-0.0509099
-0.0718913
-0.0601424
-0.07215
-0.0396817
-0.0531342
-0.124302
-0.0788581
-0.101849
-0.0758926
-0.0787167
-0.0579817
-0.0670256
-0.124985
-0.109668
-0.113995
-0.0754283
-0.058043
-0.0654266
-0.0475782
-0.0713437
-0.1039
-0.0625287
-0.052021
-0.0429898
-0.041533
-0.0339958
-0.0342795
-0.0523282
-0.0534534
-0.0299306
-0.0264825
-0.0372951
-0.0323968
-0.030568
-0.049172
-0.0350655
-0.0251806
-0.0200755
-0.0297968
-0.0217135
-0.0278575
-0.0322824
-0.0289831
-0.0188186
-0.0195673
-0.0199458
-0.0187531
-0.0381808
-0.0292703
-0.0338578
-0.0214856
-0.031179
-0.0197618
-0.025951
-0.0635876
-0.0369699
-0.0528528
-0.0352615
-0.0490931
-0.0290615
-0.0413077
-0.0952026
-0.0603582
-0.0851103
-0.0541808
-0.0640248
-0.0460694
-0.0555697
-0.108528
-0.0925176
-0.0980774
-0.06265
-0.045323
-0.0546812
-0.0404061
-0.061167
-0.0915567
-0.0649569
-0.0394502
-0.0319516
-0.0353304
-0.0277554
-0.0614269
-0.0793544
-0.0752977
-0.0505003
-0.0372686
-0.0568819
-0.0494854
-0.034956
-0.0680882
-0.0483198
-0.0330703
-0.0228673
-0.0465576
-0.0338284
-0.030528
-0.044302
-0.0388491
-0.0210467
-0.0199264
-0.0302851
-0.0259518
-0.0359962
-0.0389192
-0.0436833
-0.020796
-0.0269173
-0.0262435
-0.0306123
-0.0537328
-0.0467648
-0.0607045
-0.0297427
-0.0401828
-0.0327948
-0.0398812
-0.0843124
-0.0666953
-0.0848503
-0.0442655
-0.0525989
-0.0419593
-0.0444332
-0.096467
-0.0894553
-0.0913179
-0.0518891
-0.0392441
-0.043226
-0.0353203
-0.0685009
-0.0878906
-0.0729454
-0.0346273
-0.0272584
-0.0326801
-0.0275086
-0.0838755
-0.0637314
-0.0623837
-0.0601742
-0.0538169
-0.0496166
-0.0480158
-0.0572477
-0.0640013
-0.072464
-0.0517819
-0.0406129
-0.0497511
-0.0552111
-0.0445223
-0.0754578
-0.0744295
-0.036655
-0.0302111
-0.0558789
-0.0516841
-0.047303
-0.0724722
-0.0706395
-0.0299095
-0.0329813
-0.0496761
-0.0462503
-0.0639706
-0.0720222
-0.0804453
-0.0347686
-0.0403355
-0.045751
-0.045208
-0.0858248
-0.0838727
-0.0917202
-0.0418079
-0.0428997
-0.045066
-0.0436552
-0.0903663
-0.0929126
-0.0897689
-0.0416955
-0.0352766
-0.0427482
-0.0387816
-0.0729874
-0.0865226
-0.0733048
-0.0331046
-0.0282777
-0.0371574
-0.0325764
-0.014679
-0.0149534
-0.0139564
-0.0121759
-0.0121925
-0.0124507
-0.0118606
-0.0176635
-0.0134653
-0.013341
-0.0125915
-0.0156959
-0.0116535
-0.0115007
-0.0264887
-0.0138238
-0.0176303
-0.0170128
-0.0204523
-0.0118463
-0.0143289
-0.0427329
-0.0199107
-0.0301883
-0.0230768
-0.0305622
-0.0157686
-0.021516
-0.0561416
-0.0343409
-0.0467356
-0.0321936
-0.0332683
-0.0233891
-0.0272952
-0.0567632
-0.0502262
-0.0529211
-0.0332113
-0.0315908
-0.02774
-0.0271413
-0.0415169
-0.049968
-0.0366205
-0.0309208
-0.0306991
-0.0268491
-0.0269308
-0.0373217
-0.0337125
-0.0322572
-0.0312809
-0.033566
-0.0270568
-0.0275779
-0.0155271
-0.0261259
-0.0225794
-0.0145047
-0.0128149
-0.0186012
-0.0160438
-0.0136765
-0.0202827
-0.0162312
-0.0123112
-0.0113801
-0.0151092
-0.0129677
-0.016138
-0.0157359
-0.0162572
-0.0115154
-0.0135239
-0.0127189
-0.0133437
-0.0177502
-0.020424
-0.0170174
-0.0167061
-0.019115
-0.0188367
-0.0159283
-0.0295134
-0.0353591
-0.0289631
-0.0281082
-0.0330282
-0.0315704
-0.0261975
-0.0506138
-0.0379639
-0.0424793
-0.0262841
-0.025844
-0.0220651
-0.0216834
-0.0347338
-0.0405784
-0.029845
-0.0255828
-0.0256246
-0.0215117
-0.0215566
-0.0300858
-0.0271542
-0.0243674
-0.025705
-0.0259775
-0.0216292
-0.0221232
-0.025742
-0.0398749
-0.0343796
-0.0240443
-0.0184742
-0.026981
-0.0238732
-0.017658
-0.0311966
-0.0244412
-0.017057
-0.0139899
-0.0231126
-0.0191278
-0.0172079
-0.0232223
-0.0216366
-0.0135687
-0.0137106
-0.0179425
-0.0161289
-0.0180124
-0.0193764
-0.0190517
-0.0165747
-0.020244
-0.0173374
-0.0172172
-0.0249594
-0.0284487
-0.0259641
-0.023008
-0.0282589
-0.0255988
-0.0227652
-0.0392919
-0.0335209
-0.0335192
-0.0202038
-0.0202405
-0.0177239
-0.0178152
-0.0285044
-0.0321891
-0.0266548
-0.0201651
-0.0202315
-0.0177208
-0.0177144
-0.0232558
-0.0251132
-0.0226002
-0.0203107
-0.0210454
-0.0179283
-0.0197397
-0.0362258
-0.0292134
-0.0297899
-0.0267215
-0.0247898
-0.0227025
-0.0239486
-0.0278328
-0.0312726
-0.0372126
-0.0246214
-0.0217835
-0.0254771
-0.0278865
-0.0243778
-0.0387174
-0.0390224
-0.0205303
-0.0178755
-0.0277551
-0.0252111
-0.0269992
-0.0384157
-0.0373479
-0.0174489
-0.0172013
-0.0242519
-0.0222874
-0.0326629
-0.037197
-0.0367861
-0.0173044
-0.0177751
-0.0217309
-0.0204404
-0.0329404
-0.036501
-0.0348518
-0.0178845
-0.0177486
-0.0200938
-0.0192646
-0.0271743
-0.0340089
-0.0306025
-0.0176142
-0.0176078
-0.0190707
-0.0195121
-0.0231734
-0.0293055
-0.0267551
-0.0178945
-0.0202207
-0.020257
-0.0246392
-0.00927736
-0.00919458
-0.00919697
-0.00835461
-0.0090343