/*--------------------------------*- C++ -*----------------------------------*\
  =========                 |
  \\      /  F ield         | OpenFOAM: The Open Source CFD Toolbox
   \\    /   O peration     | Website:  https://openfoam.org
    \\  /    A nd           | Version:  10
     \\/     M anipulation  |
\*---------------------------------------------------------------------------*/
FoamFile
{
    format      ascii;
    class       volVectorField;
    location    "6.3";
    object      U;
}
// * * * * * * * * * * * * * * * * * * * * * * * * * * * * * * * * * * * * * //

dimensions      [0 1 -1 0 0 0 0];

internalField   nonuniform List<vector> 
12920
(
(249.704 -93.3198 -186.621)
(33.7254 -30.8687 -27.8519)
(154.617 -46.9924 -1.08334)
(73.4967 -24.2609 7.84174)
(118.883 -20.1833 8.59955)
(85.7446 -20.9736 6.73909)
(103.351 -21.3986 4.60191)
(95.5121 -25.6543 3.51855)
(107.712 -25.624 2.22685)
(111.893 -30.3621 0.89063)
(129.992 -27.3939 -0.445197)
(139.982 -23.0063 -0.421147)
(144.857 -8.72298 1.39009)
(130.344 0.188527 2.19661)
(114.369 7.03085 1.1663)
(100.423 7.84559 -0.280702)
(95.2196 6.6582 -0.825776)
(88.6884 6.18447 -1.09147)
(88.5396 5.6627 -1.04486)
(84.8104 3.88352 -0.68983)
(185.269 134.218 -96.4211)
(144.278 131.528 -56.1645)
(174.495 61.6182 -2.64681)
(72.7042 15.2371 4.38051)
(98.9494 -2.31775 4.73929)
(43.4826 -8.44543 0.830197)
(68.0857 -6.76698 -0.613523)
(43.7985 -7.25607 -1.90044)
(59.818 -3.52978 -2.80287)
(50.2047 -2.41747 -3.67403)
(59.0317 1.54615 -3.94305)
(55.8934 5.56646 -3.7188)
(61.9747 9.69922 -2.83903)
(63.9973 12.3029 -2.54198)
(68.8016 12.5123 -1.16392)
(68.1785 11.2744 -0.345136)
(67.2253 8.04404 0.609513)
(60.0348 5.37733 1.14585)
(58.1939 3.1669 1.39689)
(52.9413 1.47293 0.857032)
(55.0645 91.8145 5.37368)
(-65.278 47.2265 -1.55517)
(131.006 -10.5984 -2.76804)
(40.4335 -4.17862 -1.25735)
(92.9209 -11.5751 1.25993)
(41.4394 -9.03801 -1.07471)
(66.409 -7.88998 -0.762072)
(38.0578 -5.41819 -1.34435)
(50.9406 -4.31234 -0.908617)
(36.1397 -3.69365 -0.852718)
(43.3535 -2.08334 -0.695757)
(37.4966 0.812659 -0.572019)
(42.7214 4.40419 -0.291319)
(40.6938 8.83884 -0.0205877)
(43.4243 10.0083 0.264509)
(41.553 10.1216 0.517393)
(41.259 9.18598 0.579657)
(37.363 8.46741 0.490323)
(37.9168 7.16224 0.284973)
(36.6312 4.56045 0.0271777)
(137.134 61.924 27.0519)
(85.3655 34.3029 -14.9541)
(137.009 23.2789 -9.09881)
(63.4288 28.6712 -2.82967)
(90.0373 17.9488 1.33617)
(17.0756 20.3064 -0.113007)
(54.9994 13.6417 -0.206323)
(13.168 14.814 -0.240846)
(37.0825 10.1585 -0.352864)
(17.8445 10.2116 -0.201909)
(30.5683 7.94415 -0.213823)
(24.1372 8.86459 -0.285976)
(29.8432 9.02933 -0.257009)
(27.2775 10.1454 -0.0430944)
(29.9102 9.68116 0.105828)
(28.3659 9.17834 0.178708)
(29.4343 7.71649 0.196168)
(27.5027 6.34085 0.221067)
(29.8829 4.45254 0.158192)
(30.6788 2.20895 0.130959)
(163.651 -33.9946 -31.3578)
(45.8919 13.4287 -1.4302)
(120.286 73.2677 -3.55895)
(59.0973 40.1084 -5.25659)
(97.4497 26.999 -0.614594)
(47.0183 17.3588 -0.806752)
(67.682 1.34954 -0.499947)
(38.8912 8.03822 -0.70168)
(52.1817 -3.11428 0.311052)
(31.0723 1.54202 0.408971)
(35.7576 -5.58502 1.18553)
(26.7268 2.0705 0.611182)
(31.7698 3.74626 0.406715)
(28.3694 8.75039 0.0817163)
(30.5663 8.75225 0.0735072)
(28.7644 9.34556 0.0317678)
(30.0572 7.96893 0.024763)
(28.3077 7.09992 0.0407471)
(30.74 5.17773 0.0627804)
(31.934 2.43845 0.0582566)
(153.273 -71.3171 -148.052)
(10.7054 79.4876 -33.813)
(146.446 86.3949 -23.4327)
(80.1756 67.6541 -9.00159)
(117.775 60.8975 -4.66083)
(86.4892 50.5496 -2.94709)
(103.958 34.4374 -0.733404)
(94.1655 29.0204 -0.419247)
(100.133 20.3787 0.549758)
(90.3977 20.5481 1.77506)
(77.6066 7.06272 5.32251)
(44.7775 7.47472 3.63292)
(37.0406 5.54437 1.26517)
(30.0996 9.60001 0.282381)
(29.7481 8.86791 0.0251305)
(28.5219 8.87443 -0.0349164)
(29.5048 6.96604 -0.181492)
(29.4366 5.72153 -0.255332)
(34.1109 2.50083 -0.164145)
(37.0924 0.0279864 -0.0240446)
(-133.752 184.773 5.12415)
(-176.156 113.559 -38.4371)
(73.5644 96.0658 -22.0514)
(2.33105 59.2451 -4.1584)
(78.7533 46.9197 1.03069)
(52.9537 32.3972 0.630166)
(77.2441 1.30788 1.14902)
(75.2654 9.41521 1.05362)
(87.8676 -1.34068 0.799069)
(88.8006 8.37901 1.03369)
(87.6769 8.54136 1.63193)
(66.3162 18.1719 3.34602)
(49.1407 9.60831 2.57523)
(36.6043 13.645 1.02601)
(35.5462 10.4539 0.238844)
(33.2281 9.67325 0.0291903)
(34.414 7.12461 -0.119257)
(35.8203 4.45716 -0.152775)
(42.4325 0.187533 -0.169363)
(45.1519 -1.13568 0.0108482)
(-33.8412 66.7568 25.6637)
(-141.897 86.3278 -26.1269)
(80.0345 67.0243 -8.96406)
(0.969333 50.7123 -5.79038)
(78.6342 30.5895 -2.17317)
(39.3891 40.1569 -2.69143)
(56.3793 29.0564 -1.4091)
(49.7279 12.2225 -0.593788)
(63.135 11.0158 0.528517)
(62.8257 9.63749 0.84863)
(66.4574 20.9569 1.03453)
(55.5087 26.2999 0.928329)
(45.8357 26.8952 0.401483)
(36.0391 20.086 0.227687)
(31.9968 10.4943 0.0466235)
(33.5551 9.27396 -0.130745)
(36.111 3.86903 0.127136)
(37.6949 -0.767778 0.0947388)
(42.5159 -4.03417 -0.159286)
(43.6396 -3.50861 -0.0966094)
(189.376 69.5432 130.419)
(9.73241 92.0136 5.84472)
(114.795 69.6878 -0.873043)
(67.56 56.602 -7.46119)
(105.535 44.9878 0.202392)
(46.9478 51.1891 -1.18295)
(71.4608 37.8809 0.816417)
(70.7854 9.32903 -0.521609)
(77.464 -0.95186 0.255472)
(85.1641 3.53745 0.692477)
(78.2443 18.3026 1.38536)
(59.7356 27.9222 0.523849)
(52.3346 27.8658 0.517283)
(40.8386 22.8155 0.272496)
(35.2135 18.6988 -0.0759135)
(35.7659 6.63776 -0.474613)
(38.2858 1.5758 -0.265602)
(37.3566 -1.72066 -0.204739)
(39.1775 -3.14153 -0.289858)
(37.4397 -2.26606 -0.395056)
(-76.3002 173.362 -70.0877)
(-119.695 63.797 -31.6671)
(89.0885 65.5161 -16.5741)
(55.9548 63.1037 -5.95867)
(108.132 62.7285 4.96111)
(54.6758 43.633 1.4321)
(56.0055 26.087 1.53737)
(68.7246 5.88168 -0.289342)
(70.5271 -5.81791 -0.569093)
(66.1025 -1.11277 -0.910989)
(78.6225 11.6518 -1.57835)
(90.4496 30.7934 0.142908)
(73.0675 23.8442 0.76273)
(47.466 24.3425 0.886437)
(38.4381 15.3557 -0.69987)
(43.336 6.333 -0.614132)
(43.5067 3.19191 -0.488324)
(41.2755 0.265397 -0.26882)
(42.0307 -0.973728 -0.136322)
(38.7697 -0.304284 -0.314843)
(52.6784 34.2529 9.86315)
(-131.772 11.0219 8.3681)
(52.1134 43.7408 10.4842)
(10.7934 36.1079 7.55432)
(71.7206 47.4635 12.1466)
(29.9428 32.7429 2.05068)
(32.3345 16.8702 2.36339)
(39.8424 8.6021 -0.22165)
(47.5743 7.6749 -0.475729)
(53.6039 10.4498 -0.653995)
(57.78 14.6798 -0.642912)
(68.3149 30.6806 -0.971901)
(67.3466 36.2055 0.353558)
(46.2598 31.3484 0.522732)
(47.6474 15.1596 -0.349141)
(45.4764 7.60595 -0.338329)
(44.8737 5.42613 -0.14835)
(42.0958 1.89083 -0.118549)
(42.9053 1.46874 -0.193578)
(39.3777 1.85644 -0.284109)
(93.1708 138.084 95.4693)
(-170.639 -53.4028 -9.88154)
(55.0426 -65.5517 0.965389)
(-47.6007 -18.2462 2.96841)
(48.3547 10.2098 8.0576)
(-8.28994 5.08934 1.39563)
(25.8966 1.51994 0.685456)
(37.3811 5.02402 0.0293644)
(36.9946 11.2752 -0.945345)
(46.4299 17.5542 -0.89927)
(47.8235 23.2743 -0.47249)
(47.0718 32.8844 -0.30814)
(48.4618 37.8302 0.0760159)
(47.6951 29.8674 0.105144)
(47.7415 15.1156 -0.00642476)
(41.9092 9.79903 -0.321176)
(42.0546 6.66303 -0.0682345)
(38.0722 3.23546 0.193081)
(37.4853 3.73916 0.0981818)
(34.2017 3.72722 -0.040369)
(180.576 -83.0632 -124.506)
(4.1785 -38.2321 -1.84282)
(77.4593 -48.9058 -2.45741)
(-4.00673 -10.5142 -2.93611)
(57.1613 -7.65254 1.49468)
(3.45346 -26.9991 0.0994154)
(23.8771 -1.72841 -0.414034)
(5.14222 10.8137 0.307725)
(26.8399 14.0008 0.415559)
(23.5918 21.2814 0.549386)
(32.5931 27.5585 0.236315)
(33.6125 29.9663 0.487199)
(41.7074 28.6317 0.377176)
(44.1472 21.1687 0.109642)
(40.5969 14.0624 0.0283231)
(40.9166 10.431 0.0308629)
(38.3305 8.59032 0.428064)
(32.2035 5.79273 0.572152)
(30.3097 5.9452 0.363335)
(27.8351 4.10775 0.133522)
(209.69 -175.878 167.04)
(74.8382 -91.0801 17.9327)
(92.7052 -27.2715 18.169)
(25.2721 0.534548 -1.51164)
(83.0488 6.78726 1.79676)
(37.1134 -1.35789 0.233535)
(46.7472 26.1754 1.65505)
(21.9022 -3.655 0.955853)
(25.0385 18.6988 0.441303)
(15.0412 7.18552 0.973396)
(25.0814 20.6478 0.62334)
(24.5762 15.4627 0.476544)
(32.0467 19.6821 0.267895)
(31.8529 14.4661 0.262346)
(34.3458 14.4201 0.188619)
(32.9303 11.7071 0.256171)
(31.6661 11.094 0.563257)
(27.4483 8.33051 0.457821)
(27.5033 7.1461 0.327371)
(26.8512 4.11846 0.184859)
(121.331 98.3637 21.7205)
(20.5525 -7.95432 -18.6833)
(60.614 -22.0743 -4.23631)
(6.00718 -15.4463 -1.67568)
(57.6573 -0.334329 -0.239878)
(2.94026 -4.66755 -0.419627)
(39.1693 12.3294 -0.514346)
(11.5071 2.27082 -0.765528)
(24.7102 9.29347 -0.0350179)
(12.136 6.48044 0.00665287)
(18.8985 11.9184 0.344689)
(15.7659 11.2243 0.242939)
(21.1818 13.5282 0.191743)
(21.0483 12.3267 0.204071)
(23.3712 12.2416 0.164212)
(23.1731 10.7357 0.178644)
(24.2985 9.95839 0.198334)
(23.6732 7.77106 0.158568)
(25.943 5.98153 0.0157687)
(27.72 2.23975 -0.0579125)
(269.74 -38.7451 -141.282)
(-5.74017 -10.153 8.35532)
(88.2457 34.592 17.3788)
(-25.8415 8.06348 3.41093)
(54.2832 26.6125 0.723614)
(1.31766 8.2855 -0.271482)
(37.7197 24.7439 0.204974)
(15.7741 8.42988 -0.68349)
(30.6231 19.644 -0.207508)
(17.854 10.1197 -0.182534)
(25.4249 16.5119 -0.0178613)
(18.8724 11.7564 -0.104838)
(24.116 14.2953 -0.00476113)
(21.4463 11.3783 -0.0020892)
(24.652 11.6475 0.0535479)
(23.671 9.63876 0.0221343)
(25.5369 8.83403 -0.00571723)
(24.7617 6.43452 -0.0746969)
(27.652 4.51391 -0.275857)
(29.3245 1.29642 -0.369108)
(87.5311 102.143 -138.247)
(-212.26 22.3481 1.16413)
(67.0701 -7.13957 -3.38066)
(-128.513 -0.553343 1.51937)
(48.251 1.72484 -5.10332)
(-44.1519 -0.251581 1.54743)
(29.7924 10.7428 0.0906173)
(-8.84424 7.01176 0.0522243)
(23.6367 12.9434 -0.0571348)
(7.11847 10.4629 -0.238526)
(21.9242 12.7318 -0.197853)
(15.7116 11.3774 -0.286449)
(23.3403 11.8085 -0.299435)
(21.7878 10.8527 -0.328493)
(26.0164 10.3675 -0.354024)
(26.2251 9.48887 -0.312149)
(28.9826 8.44972 -0.271674)
(29.749 6.85515 -0.276289)
(33.9846 4.61002 -0.304745)
(36.3719 1.35967 -0.389327)
(-49.3357 -2.2358 87.6966)
(-202.068 20.3023 -5.00562)
(71.6222 -11.8835 -16.4768)
(-41.2174 3.37502 -5.63289)
(46.5982 -15.384 0.641338)
(3.26888 -6.11667 -0.0520831)
(37.3951 -1.35648 0.735478)
(17.4936 4.45261 -0.207213)
(34.3916 10.0917 -0.274834)
(23.6704 10.1732 -0.547102)
(33.1114 12.4676 -0.532506)
(28.2159 11.3075 -0.705737)
(34.4742 11.7533 -0.80073)
(33.8723 10.5849 -0.828037)
(38.5894 10.351 -0.801421)
(40.2708 8.55606 -1.09674)
(46.5536 6.63931 -1.02184)
(49.4051 4.05571 -0.76061)
(56.2205 1.36363 -0.571181)
(57.1412 -0.000760349 -0.435661)
(108.531 85.7205 -113.096)
(-103.605 -41.8548 -7.4799)
(66.5046 -1.8268 -4.26911)
(-60.4259 12.991 -5.41512)
(44.4995 -9.5392 -7.60779)
(-15.2973 -0.666293 -1.52329)
(34.4719 1.89134 -0.13254)
(6.2958 8.61753 0.202109)
(32.8085 12.616 -0.0271279)
(22.2612 13.8822 -0.376438)
(36.7578 13.7711 -0.527469)
(34.7024 13.3302 -0.689639)
(43.4574 12.2821 -0.725387)
(45.1658 10.9945 -0.881621)
(52.8609 9.42771 -0.67776)
(56.1219 7.10508 -0.697753)
(63.0689 4.25436 -0.364436)
(64.6159 2.23306 0.247936)
(68.467 1.52503 0.596434)
(67.364 1.83581 0.709186)
(360.896 287.958 -159.735)
(-4.55988 77.5821 -4.85268)
(176.776 45.7753 -12.9281)
(141.825 29.7192 -2.79471)
(149.953 -13.6962 3.31637)
(112.291 -9.93547 4.60607)
(101.28 -16.348 4.5441)
(74.2291 -3.06284 3.55111)
(75.4319 0.554192 3.42445)
(64.6851 7.07714 3.03205)
(70.4134 8.78641 2.68759)
(69.5351 9.90416 2.29015)
(76.0057 9.80281 2.14553)
(78.1632 7.62441 1.31173)
(85.638 5.59379 0.796265)
(88.6265 3.36764 0.180164)
(94.0995 1.04277 -0.429903)
(95.0761 -0.516297 -0.546015)
(98.5452 -2.31329 -0.705111)
(97.5483 -2.91771 -0.55309)
(270.076 93.2446 102.823)
(56.4669 13.3858 12.2885)
(145.47 -22.4809 -12.7521)
(75.0428 -9.86053 2.17822)
(121.117 -6.64228 5.11099)
(94.419 -6.96372 7.31765)
(112.239 -6.33915 6.26419)
(106.289 -9.89459 5.92168)
(118.604 -9.8004 4.51145)
(120.64 -11.8783 1.9119)
(130.908 -8.42937 0.353376)
(129.929 -6.62568 0.742277)
(129.478 0.567505 2.70384)
(116.131 7.17286 4.5287)
(105.416 9.27607 3.12521)
(93.1883 6.88503 0.110741)
(88.9184 3.78323 -0.607673)
(81.6115 1.94919 -0.43898)
(80.9206 0.477575 -0.0172031)
(77.3119 -0.276654 0.150194)
(262.401 -6.43425 -37.2892)
(23.5158 52.651 18.5713)
(123.159 35.2428 21.4624)
(29.7284 18.028 9.73362)
(88.2566 9.95052 6.32625)
(37.9319 3.68738 0.945671)
(65.3308 4.48048 -3.02036)
(42.9466 1.04446 -5.58002)
(58.4921 2.44104 -7.00427)
(48.7402 0.774281 -7.98369)
(56.4625 3.42143 -7.59999)
(52.0955 5.35693 -7.44064)
(56.0654 8.82878 -5.42355)
(54.4759 10.1492 -3.68929)
(56.1407 9.79008 -1.38554)
(53.9333 7.92783 -0.0510713)
(52.6325 5.28321 1.39888)
(47.1377 3.6467 1.96224)
(47.1151 2.59783 1.77053)
(44.3149 1.62849 0.884264)
(73.2757 -50.4411 41.3306)
(-81.4374 -4.45282 -11.8303)
(113.329 -16.2195 -11.7968)
(-2.92179 2.11614 -2.65263)
(76.785 -4.05463 -0.170697)
(20.0837 0.307415 -2.14274)
(54.5041 0.592575 -1.41574)
(24.5397 2.01957 -2.33613)
(41.4809 1.51522 -1.82773)
(26.2612 1.03526 -1.85732)
(34.9361 1.42272 -1.53134)
(28.1682 3.04769 -1.19784)
(33.3599 5.77293 -0.492127)
(30.7351 8.23901 0.0285025)
(33.3115 8.8924 0.641142)
(31.3885 8.47413 0.940574)
(31.8005 7.62016 0.916137)
(28.7417 6.83906 0.723505)
(30.1397 5.52314 0.464831)
(29.4387 3.20989 0.0667786)
(326.067 73.2666 76.387)
(141.546 16.4423 12.478)
(134.502 24.0084 -6.60838)
(33.4492 29.6197 -4.05126)
(77.1798 17.6215 0.220235)
(3.11481 20.1475 -0.617073)
(46.8503 11.7875 -0.89117)
(3.56077 13.1339 -0.641942)
(29.8189 7.85641 -0.966626)
(9.1858 8.17911 -0.421847)
(23.0705 5.89351 -0.313449)
(15.2506 7.11318 -0.442117)
(21.4538 7.31356 -0.294055)
(18.4 8.55486 -0.0449533)
(21.5887 8.15663 0.228991)
(20.3321 7.83999 0.282179)
(22.0342 6.54222 0.321971)
(20.5736 5.46615 0.409672)
(23.2399 3.80351 0.326304)
(24.0557 1.88323 0.190286)
(176.008 -3.38936 71.9003)
(30.1754 37.784 -4.08961)
(111.094 78.093 -7.41488)
(27.3382 42.0577 -7.67447)
(75.2298 28.9548 -1.31256)
(18.8689 22.3447 -1.58007)
(50.6615 4.91234 -0.613812)
(18.0591 13.7143 -0.704754)
(36.6546 -0.0965761 0.753969)
(16.2851 5.6033 0.846484)
(25.3791 -2.8984 1.88085)
(16.7348 3.84979 1.13267)
(22.7581 3.64685 0.859861)
(18.8889 7.89585 0.214615)
(21.6622 7.21437 0.207637)
(20.003 7.76232 0.0671189)
(21.7726 6.31163 0.0690832)
(20.2809 5.60873 0.138188)
(22.9086 3.71959 0.206409)
(23.7871 1.7377 0.0847847)
(210.735 -84.5791 80.6121)
(98.2012 43.3488 -13.4839)
(143.787 58.3391 -8.15654)
(58.2246 48.5818 -4.01395)
(91.3865 46.5148 -2.25608)
(45.8121 40.1329 -2.60079)
(69.4404 22.7402 -0.254098)
(52.4499 22.592 -0.474755)
(60.7175 13.914 1.24026)
(47.4298 15.3706 3.76599)
(42.9064 6.34153 7.77071)
(28.9906 7.57681 5.59611)
(25.7272 5.39941 2.24646)
(20.5392 8.31904 0.683372)
(20.829 6.99364 0.139713)
(19.9707 7.10688 -0.0280709)
(21.5462 5.16518 -0.219902)
(21.2702 4.25957 -0.205169)
(24.8818 1.85983 -0.0157489)
(26.38 0.353478 0.0277363)
(1.22449 227.145 -33.5898)
(-119.175 92.9162 -47.409)
(51.7269 84.887 -35.6514)
(-34.5119 47.0441 -5.54888)
(58.4306 39.5349 0.731729)
(23.1475 30.6209 -0.0405834)
(51.4453 1.3824 1.30831)
(44.3963 18.5345 1.37755)
(55.7706 6.6477 1.30619)
(50.279 18.1138 2.53903)
(48.5845 13.7648 3.52432)
(35.2014 18.0807 5.21685)
(31.2092 10.1859 4.08276)
(24.9511 11.8167 1.87639)
(25.1375 7.91779 0.557183)
(23.8599 6.95389 0.0974301)
(25.8099 4.07566 -0.0539563)
(26.2554 2.50055 -0.073145)
(30.4425 0.098874 -0.109318)
(31.129 -0.443029 0.0623728)
(82.2576 84.8012 -125.253)
(-161.618 74.3105 -32.8932)
(67.0729 52.5669 -16.2206)
(-35.8244 34.6517 -7.482)
(57.8393 21.6239 -2.72693)
(11.8462 40.6414 -2.63275)
(35.4808 24.5551 -0.0929806)
(29.3908 14.8229 -1.43682)
(43.1774 18.9108 -0.815834)
(40.6704 17.5649 -0.700129)
(42.5494 24.8938 0.207399)
(33.4324 24.9301 3.19335)
(30.4109 23.3438 2.83348)
(26.0586 18.0569 1.40078)
(24.0108 7.49633 -0.180496)
(25.629 5.99751 -0.363605)
(27.8318 1.53936 0.16961)
(28.3691 -0.0066733 0.206276)
(31.314 -1.42726 -0.0695806)
(30.8056 -1.02594 -0.147162)
(71.1381 116.658 90.9915)
(-105.306 69.0341 5.93036)
(61.3261 49.0395 -3.70988)
(-14.4895 31.2785 -9.70855)
(42.3817 19.0349 0.747429)
(20.9322 37.3985 -2.33494)
(55.602 32.129 1.56115)
(50.3364 9.50914 -0.399585)
(53.2059 10.3687 -0.484116)
(53.4139 18.4694 -0.411855)
(45.7722 27.0558 2.24804)
(37.6284 27.8481 2.21202)
(32.9492 25.4742 2.94147)
(29.1842 19.963 1.76359)
(28.7277 14.9841 -0.329338)
(28.2663 3.47429 -0.689341)
(29.0894 0.52979 -0.407558)
(27.6373 -0.792826 -0.0898756)
(29.1297 -1.02445 -0.163355)
(27.0889 -0.343827 -0.514005)
(66.6929 136.672 19.4468)
(-116.977 33.2331 -37.3986)
(60.6413 35.2275 -16.5409)
(-13.1725 26.3757 -7.63193)
(55.2381 27.4883 6.55407)
(26.42 23.6088 -1.23538)
(45.4857 19.6338 2.42833)
(51.9385 5.08461 -0.204547)
(51.558 4.15379 -2.00533)
(52.2217 14.2594 -4.78368)
(54.7669 26.6544 -3.18864)
(50.6804 27.9125 1.19174)
(38.5913 23.6383 3.87214)
(33.674 17.8172 1.76155)
(34.1984 9.43001 -1.42045)
(33.695 3.47776 -1.32539)
(32.3854 1.06839 -0.716054)
(29.713 -0.0307461 -0.05397)
(30.2081 0.184304 0.145102)
(27.2929 0.511785 -0.396417)
(38.6879 166.623 -67.4057)
(-221.076 7.4375 -1.51921)
(43.2698 37.0669 4.85551)
(-29.4085 18.698 9.26216)
(44.5616 26.8999 15.8644)
(15.9798 18.9061 7.91856)
(34.5977 13.5848 8.32173)
(36.9832 4.71552 1.23257)
(37.8106 9.94964 -2.66405)
(40.1931 15.9471 -4.42055)
(44.3298 23.5717 -2.94522)
(44.7954 30.9567 -0.910752)
(39.2099 29.9805 3.25416)
(39.5717 20.3788 1.09015)
(40.32 8.90552 -0.78389)
(34.6136 4.55295 -0.754691)
(33.1655 2.8462 -0.272733)
(29.8825 1.19742 0.0730925)
(30.1172 2.03742 0.0794198)
(27.1737 1.71839 -0.320132)
(146.564 175.872 -63.3584)
(-213.946 -32.8449 10.4907)
(56.0182 -48.4452 1.3437)
(-74.679 0.99669 9.57865)
(37.2419 17.7115 14.1129)
(-12.0654 5.66654 7.20228)
(24.7941 0.581049 6.0154)
(32.2956 4.33687 1.53941)
(29.1896 10.7698 -2.51554)
(30.2841 17.443 -3.30239)
(31.4623 23.4664 -2.03407)
(32.7554 28.5464 -0.464635)
(35.7891 27.8978 0.927287)
(39.7451 18.6567 0.487617)
(37.5301 10.5405 -0.154071)
(30.7796 6.64566 -0.512032)
(29.6718 4.14595 0.073758)
(25.8068 2.73938 0.491973)
(25.9001 3.28322 0.403858)
(23.8345 2.44377 -0.00652925)
(100.333 55.4326 -7.06992)
(-48.4352 -39.4707 13.8908)
(53.8526 -43.237 1.50325)
(-34.0075 -5.83738 -2.8709)
(45.2029 -6.9062 2.4152)
(-9.90568 -27.1093 1.04102)
(13.771 0.0863173 2.10136)
(-4.35002 8.25953 0.706884)
(17.2322 11.2026 1.03609)
(14.1409 16.4103 0.816826)
(24.8422 20.6624 0.586628)
(25.4037 21.6124 1.04901)
(32.7045 19.3803 0.723896)
(32.4279 15.0136 0.3837)
(27.5399 10.0134 -0.125264)
(27.2506 6.98606 0.193618)
(24.8465 6.33393 0.856459)
(21.2835 4.58072 0.911477)
(21.1375 4.56537 0.65392)
(19.9007 2.68296 0.188204)
(246.576 -296.061 -139.497)
(-116.851 -57.5265 0.962608)
(73.3893 -25.2868 0.524151)
(-21.7043 -4.01157 -1.90565)
(56.2691 4.0411 1.96235)
(4.27289 -3.68786 -0.363324)
(25.7635 27.37 2.60152)
(2.88635 -6.88888 1.26016)
(11.4982 18.4074 0.385708)
(3.03874 4.28482 1.62786)
(14.0682 18.1931 0.687016)
(12.4455 11.3487 0.805854)
(19.5836 15.9335 0.451024)
(18.5643 10.1991 0.614147)
(21.1674 11.0876 0.480781)
(19.2801 8.56137 0.526731)
(19.5476 8.071 0.717212)
(17.3575 6.34847 0.675393)
(18.494 5.33496 0.560017)
(18.6014 2.62236 0.203837)
(284.345 -2.25664 -120.918)
(6.00606 -10.9517 -16.7004)
(53.4074 -31.2273 -9.002)
(-14.567 -21.7221 -3.45395)
(43.2868 -6.4456 -2.66631)
(-15.7776 -9.46051 -0.72985)
(26.4391 11.9175 -0.221074)
(-5.56511 -0.196477 -0.867017)
(11.3251 9.82734 0.313966)
(-1.72509 4.96715 0.00420973)
(8.17187 10.7571 0.65653)
(5.1547 8.77662 0.459771)
(11.4942 11.0236 0.412466)
(11.2 9.32863 0.393155)
(13.8676 9.42765 0.325149)
(13.8793 7.86097 0.269589)
(15.4927 7.40221 0.217617)
(15.0482 5.67589 0.261791)
(17.4265 4.19744 0.0992727)
(18.6548 1.50949 -0.119664)
(-44.1545 79.5797 68.8486)
(-158.048 -4.91963 13.4658)
(55.4635 21.1197 2.44651)
(-52.9835 2.40523 -2.74281)
(41.5509 20.4834 -3.15212)
(-17.6301 2.15004 -0.831426)
(25.5386 21.201 0.62853)
(-1.1225 2.74189 -0.659242)
(17.9485 16.2018 0.215339)
(4.30363 5.44455 -0.21172)
(14.747 12.9251 0.174037)
(8.41836 7.85101 -0.0555229)
(14.9396 10.9825 0.0635856)
(12.3365 8.08406 -0.0259153)
(16.0638 8.73027 0.0497185)
(15.1587 6.92709 -0.0741364)
(17.2913 6.35735 -0.0990491)
(16.3979 4.64559 -0.16928)
(19.1159 2.81603 -0.360445)
(19.8675 0.424185 -0.597452)
(68.701 26.8835 119.685)
(-195.387 -16.1744 -14.1359)
(31.5384 -20.0299 -11.9025)
(-119.446 -3.18682 0.269221)
(30.7006 -4.8091 -9.43465)
(-57.2347 -4.8787 3.80965)
(21.6207 7.3949 0.190425)
(-19.9267 2.38592 0.442011)
(14.8823 8.53668 -0.173415)
(-2.6472 5.57883 -0.345172)
(13.7601 8.26989 -0.283552)
(7.53547 7.18982 -0.535875)
(15.8943 7.99638 -0.477405)
(14.3797 7.4602 -0.569881)
(18.8029 7.25899 -0.561663)
(18.9299 6.59617 -0.526254)
(21.6154 5.77686 -0.458585)
(21.5908 4.31345 -0.415726)
(25.0544 2.06914 -0.474053)
(25.6418 0.0250032 -0.701779)
(-62.8795 -193.701 94.4951)
(-174.97 1.06705 -28.5141)
(52.1185 -22.515 -36.7229)
(-71.4388 -11.2506 -7.92393)
(35.6639 -26.0539 -2.49307)
(-13.0813 -12.7303 0.140423)
(28.1876 -6.4662 1.5007)
(6.39358 -1.23616 -0.50498)
(25.8234 4.06266 -0.291726)
(15.1966 3.91847 -1.03747)
(25.9774 6.31007 -0.934608)
(21.429 5.48445 -1.2645)
(28.0844 6.23756 -1.23263)
(26.9926 5.50008 -1.27645)
(31.3945 5.3497 -1.13574)
(31.9782 4.38145 -1.40051)
(35.2414 3.50011 -1.17934)
(35.6415 1.93404 -0.85527)
(39.4605 0.364733 -0.721203)
(38.7944 -0.600206 -0.738553)
(199.045 -43.455 -51.3062)
(-89.4764 -54.2622 -19.0574)
(56.6488 -22.7682 -16.0905)
(-35.262 -6.22337 -5.60277)
(44.6114 -20.56 -5.76721)
(-12.0281 -6.37423 1.56637)
(32.0822 -2.97342 1.67779)
(3.55428 2.26589 0.369364)
(29.0896 4.76912 -0.609263)
(18.5547 5.60113 -1.56487)
(32.9809 5.44115 -1.76451)
(30.5978 5.37601 -2.12414)
(38.9934 4.33243 -2.02018)
(39.7056 4.26092 -2.00236)
(44.9956 3.38904 -1.44969)
(46.4892 2.49937 -1.47629)
(49.8136 1.4484 -0.908464)
(49.9503 0.717111 -0.0706267)
(52.9282 0.386571 0.301979)
(52.067 0.433937 0.410892)
(182.347 142.671 -177.569)
(66.6394 127.055 27.3093)
(166.069 49.0626 11.2883)
(127.09 -6.98579 15.2456)
(134.149 -41.8284 8.19951)
(98.3657 -26.6618 6.3619)
(94.0898 -18.7792 8.2414)
(70.208 -2.49271 7.42821)
(73.9168 -0.0884534 7.22106)
(65.4407 4.65153 6.23889)
(71.7191 4.90969 5.27275)
(70.689 5.26279 4.08919)
(76.7104 4.3439 3.71479)
(77.9024 3.07746 1.90266)
(82.4589 1.92663 1.27061)
(83.5223 1.16876 0.3689)
(85.2681 0.998665 -0.159953)
(84.757 1.03452 -0.0917625)
(86.8634 1.14 -0.147412)
(85.5776 1.2949 0.0663772)
(271.731 125.56 -98.4784)
(112.629 -8.95878 -8.82693)
(166.702 -32.5767 2.13324)
(108.895 -17.6709 7.0469)
(140.525 -6.65214 7.86037)
(115.711 1.24835 7.06171)
(126.963 8.23049 4.13452)
(116.978 8.18516 2.6055)
(123.044 8.85785 1.03177)
(117.847 7.05219 -0.595834)
(117.275 7.16337 -1.34552)
(109.353 7.49667 0.0143949)
(103.25 11.1434 3.57668)
(91.4254 12.431 4.50029)
(87.7829 9.48191 2.74148)
(78.1674 5.48763 0.196407)
(74.5703 2.0785 -0.0604187)
(68.6084 0.455289 0.293876)
(69.1615 -0.329161 0.438044)
(67.5489 -0.425775 0.404648)
(144.232 45.9753 52.5169)
(-5.36129 30.7634 -3.30638)
(122.261 30.2521 5.20411)
(29.4332 21.192 7.81739)
(85.6979 17.6356 4.02059)
(39.2319 10.6822 1.87905)
(66.965 11.507 -3.03945)
(44.0947 6.53327 -6.14512)
(58.2809 7.05942 -7.90869)
(45.7002 4.101 -8.82261)
(51.5924 5.74524 -8.11293)
(44.2022 6.15329 -7.77977)
(45.7738 8.77432 -5.10474)
(41.9512 8.53043 -2.987)
(42.5655 7.60752 -0.515388)
(39.2765 5.59514 0.364578)
(38.3993 3.83772 1.53585)
(34.9252 3.08063 1.76245)
(36.2433 2.47953 1.45809)
(35.0693 1.66585 0.55594)
(134.637 16.126 89.6919)
(-22.3668 7.56533 -1.28785)
(110.365 -10.7391 -10.6771)
(-10.7835 7.27304 -4.00805)
(69.1524 1.73707 -2.30621)
(9.35469 6.21872 -1.75029)
(47.8233 5.9437 -1.40891)
(15.8632 6.76533 -2.29938)
(34.9683 5.20182 -1.91883)
(17.6961 4.13653 -2.01754)
(27.3157 3.5239 -1.66887)
(18.7796 4.59439 -1.30046)
(24.2596 6.27756 -0.44729)
(20.5901 7.86122 0.116809)
(23.509 7.852 0.764457)
(21.516 7.28017 0.916212)
(22.6976 6.42497 0.810387)
(20.1624 5.6456 0.645941)
(22.1639 4.47125 0.508632)
(21.8476 2.46917 0.0407953)
(226.137 24.3668 51.4995)
(107.814 30.0746 11.0398)
(126.107 30.3158 -2.85515)
(21.9303 30.5349 -3.74115)
(67.5786 19.4108 -0.923441)
(-6.05318 21.1192 -0.17249)
(39.865 11.8704 -1.03495)
(-4.42698 13.063 -0.411634)
(23.6196 7.09553 -1.03791)
(1.45069 7.66316 -0.391439)
(16.4985 5.10604 -0.348608)
(7.27145 6.36933 -0.464676)
(14.1971 6.30422 -0.262402)
(10.5285 7.4824 -0.08912)
(14.2064 6.95746 0.251685)
(12.8808 6.74488 0.261272)
(15.0076 5.52962 0.314045)
(13.6494 4.67805 0.435479)
(16.3625 3.22693 0.427649)
(17.0597 1.54832 0.131337)
(126.108 91.6865 175.267)
(22.719 64.6691 -0.511195)
(110.208 88.6034 0.916075)
(12.5343 44.8252 -4.90842)
(62.9837 31.0189 0.540697)
(0.738964 24.8404 -1.05393)
(38.8922 6.03574 -0.367935)
(2.66024 16.4038 -0.472946)
(24.8022 0.607058 0.545507)
(4.28405 7.86094 1.01446)
(16.6417 -1.34386 1.63129)
(7.76656 5.09632 1.04762)
(14.9372 3.43841 0.817945)
(10.7515 7.34147 0.19178)
(14.1637 6.08316 0.22712)
(12.4444 6.71028 0.0494377)
(14.5565 5.20259 0.0681018)
(13.0121 4.6815 0.208014)
(15.5715 2.89553 0.335946)
(16.1359 1.37608 0.0143126)
(226.443 36.9611 -30.08)
(-1.0139 62.1447 -26.5181)
(127.587 63.7538 -14.0035)
(24.864 49.7862 -4.59544)
(72.1466 44.5975 -0.262004)
(16.3098 38.2228 -1.86516)
(48.1321 18.1323 -0.311504)
(22.2439 22.1063 -0.751476)
(32.3448 10.5787 0.777488)
(15.4158 13.676 3.29901)
(19.5552 6.11658 6.14637)
(13.1199 8.21735 4.22046)
(15.1944 5.31501 1.9219)
(11.8451 7.51017 0.637596)
(13.017 5.73435 0.139952)
(12.3539 6.00964 -0.0535455)
(14.2046 4.11059 -0.157975)
(13.5926 3.46755 -0.069604)
(16.5095 1.57367 0.169254)
(17.2899 0.513792 -0.0171218)
(81.3771 26.5065 -28.8257)
(-33.5538 73.4861 -60.7374)
(50.625 73.6719 -42.5684)
(-47.6578 44.586 -9.14191)
(47.2073 40.1843 -2.39374)
(0.643024 33.2582 -0.943519)
(32.5541 2.18544 0.926787)
(17.9478 26.4234 0.901423)
(29.5232 9.27298 1.00067)
(19.0996 22.521 2.15588)
(21.1632 12.2088 3.24271)
(14.0081 16.6113 4.39848)
(17.1029 7.95854 3.15546)
(14.2132 10.393 1.4203)
(16.2041 6.16686 0.518073)
(15.4488 5.49551 0.0732872)
(17.5397 2.90305 0.0322561)
(17.1322 1.99961 0.0496016)
(20.0192 0.422375 0.0607804)
(19.964 0.0496624 -0.00972044)
(77.1264 120.978 -101.907)
(-85.7838 63.8113 -32.2903)
(59.6899 47.0309 -21.1767)
(-53.0828 30.7721 -7.03791)
(46.0412 21.6119 -3.72497)
(-6.4243 44.518 -1.88254)
(19.1257 22.3997 -0.575268)
(10.6309 21.7969 -1.99217)
(22.4756 23.2496 -1.2839)
(16.6878 22.7927 -0.310095)
(18.9084 25.374 1.05155)
(14.0522 22.7869 3.43397)
(17.3848 20.124 2.70561)
(16.9552 16.2184 1.28719)
(16.1551 5.53764 -0.187865)
(17.3933 4.64891 -0.293094)
(18.9347 1.49268 0.159648)
(18.6902 0.891678 0.343218)
(20.7972 -0.114951 0.16828)
(19.8419 0.0311433 -0.227713)
(39.3306 168.229 25.9898)
(-91.6312 51.9081 8.33455)
(40.4444 38.3625 -8.80038)
(-50.2676 19.3944 -7.62307)
(17.8939 11.9772 -2.33262)
(-10.0643 36.656 -2.08737)
(24.9549 29.054 1.78936)
(25.231 12.8929 -0.334638)
(30.2244 18.8957 -0.56626)
(26.0314 23.6665 -0.401894)
(22.6755 27.825 1.84087)
(18.4136 24.9828 2.71893)
(19.4443 21.8926 2.8224)
(20.5307 16.9291 1.1299)
(21.4187 12.4013 -0.451589)
(19.1274 2.56606 -0.187007)
(19.3878 0.838357 -0.12791)
(17.8859 0.324763 0.203143)
(19.1438 0.320615 0.164204)
(17.4274 0.358401 -0.495301)
(68.4675 91.6501 26.445)
(-139.864 21.8172 -32.8528)
(51.1459 23.5044 -28.4859)
(-52.4996 11.529 -9.07369)
(29.2138 13.4815 1.80518)
(-8.69102 10.8292 -2.1499)
(18.8649 11.7519 2.05262)
(31.6925 6.73083 -0.0221686)
(33.2369 12.0165 -2.81595)
(31.9502 20.3846 -4.65317)
(29.4001 25.599 -1.88618)
(24.9619 22.9449 2.09407)
(23.2684 18.487 3.07087)
(25.7014 12.3532 0.201813)
(25.9464 5.87976 -1.32776)
(22.0637 2.521 -0.58243)
(20.6629 0.955758 -0.169489)
(18.3429 0.824846 0.314349)
(19.1277 0.95599 0.456634)
(17.225 0.639859 -0.367336)
(-16.9783 80.1233 64.6425)
(-188.089 22.3187 7.25787)
(28.6073 27.5874 -9.76337)
(-67.1603 8.57665 9.83249)
(22.5848 14.7259 12.2039)
(-12.7742 5.85176 6.23327)
(13.3131 3.28342 7.40303)
(24.7394 4.77059 1.08551)
(25.775 12.3361 -3.45649)
(27.2853 16.9521 -3.33714)
(27.6499 25.8679 0.483859)
(27.2533 25.449 0.388931)
(27.6757 21.3871 2.35755)
(31.0695 12.9375 -0.0780521)
(28.5031 5.46508 -0.736641)
(22.1116 2.68921 -0.132843)
(20.8186 2.05286 0.0478899)
(18.1464 1.40857 0.370074)
(18.6944 2.10861 0.441432)
(16.8245 1.18577 -0.314698)
(-1.84746 -166.731 45.9683)
(-236.153 -55.1061 9.26667)
(23.5633 -33.653 -8.46008)
(-109.721 10.0717 13.0769)
(23.949 15.6912 11.8249)
(-27.2101 -2.17685 6.75257)
(13.4607 -5.56631 6.59628)
(20.7332 5.42735 1.47856)
(18.9995 11.5012 -2.42861)
(18.6667 17.0241 -3.28118)
(19.8214 20.1932 -1.79354)
(21.7928 21.7819 0.393382)
(26.4617 18.867 1.26983)
(29.476 12.6109 0.490514)
(26.4801 7.33876 -0.144313)
(19.206 4.37618 0.0986256)
(17.8477 3.09541 0.276236)
(14.9844 2.48973 0.622591)
(15.7117 2.6841 0.619823)
(14.5048 1.47045 -0.0619781)
(128.522 -83.3792 182.128)
(-81.3052 -38.7277 3.14176)
(48.5375 -39.9841 -4.21776)
(-48.4611 -2.14135 -1.84139)
(35.9927 -8.64074 1.57986)
(-22.2859 -27.416 1.60081)
(3.03214 3.09724 2.72146)
(-12.7616 7.32043 0.745851)
(7.77527 11.1563 1.12631)
(4.08877 13.685 0.759909)
(15.8483 16.4894 0.621183)
(15.6891 16.1005 0.924809)
(22.3989 14.1205 0.651244)
(21.1571 10.7707 0.429817)
(15.796 7.4239 0.52063)
(15.1718 4.84542 0.441299)
(13.8187 4.98193 0.801013)
(11.7215 3.66966 0.823195)
(12.4073 3.52638 0.715175)
(11.8507 1.67014 0.142492)
(91.1585 11.0767 17.8915)
(-90.5135 -21.7472 33.6297)
(45.6473 -26.8062 -14.9202)
(-37.9448 -3.27998 0.305836)
(40.4412 3.24129 1.61868)
(-16.7683 -4.6397 0.0890112)
(11.9663 28.4777 2.56803)
(-11.1949 -9.49796 0.973611)
(1.6676 18.1715 0.152674)
(-6.84545 1.52311 1.68591)
(4.76141 16.2513 0.445829)
(2.16862 7.86959 1.13759)
(9.50909 13.1328 0.616339)
(7.94458 7.04649 0.854925)
(10.8912 8.64429 0.521636)
(9.23145 6.45562 0.420212)
(10.2292 6.37425 0.569695)
(8.63256 4.87651 0.592618)
(10.2312 4.08848 0.609463)
(10.5512 1.67727 0.181416)