/*--------------------------------*- C++ -*----------------------------------*\
  =========                 |
  \\      /  F ield         | OpenFOAM: The Open Source CFD Toolbox
   \\    /   O peration     | Website:  https://openfoam.org
    \\  /    A nd           | Version:  10
     \\/     M anipulation  |
\*---------------------------------------------------------------------------*/
FoamFile
{
    format      ascii;
    class       volScalarField;
    location    "4.5";
    object      nut;
}
// * * * * * * * * * * * * * * * * * * * * * * * * * * * * * * * * * * * * * //

dimensions      [0 2 -1 0 0 0 0];

internalField   nonuniform List<scalar> 
12920
(
0.0952906
3.44233
3.65618
5.67368
3.37475
3.1435
1.76493
1.44935
1.12346
1.01332
0.877147
0.774404
0.645051
0.539195
0.465453
0.424209
0.40612
0.383626
0.366572
0.336926
0.109775
6.93006
5.45797
7.35822
4.72911
5.00732
3.09947
2.44365
1.69465
1.48025
1.31117
1.30118
1.23591
1.21119
1.14662
1.088
1.04232
0.985928
0.943478
0.8999
9.88077
11.1173
9.16718
8.10606
5.83682
6.5457
3.61682
2.94926
2.04661
1.83832
1.5633
1.50566
1.37731
1.32418
1.24631
1.19433
1.1539
1.11143
1.07322
1.03694
1.85319
8.10331
5.543
6.76403
3.58009
4.10274
2.54728
2.57388
1.90627
1.81582
1.50206
1.4076
1.25089
1.18003
1.1165
1.1089
1.0932
1.09153
1.0711
1.06899
2.64724
8.95692
5.46956
6.40863
3.28433
3.80331
2.76922
2.90821
2.19214
1.99735
1.61921
1.45062
1.24502
1.1363
1.05047
1.0268
1.01367
1.01536
1.01282
1.02205
1.71562
10.0253
9.62746
10.0839
5.35846
3.74147
2.48454
2.391
2.12435
2.11366
1.89875
1.73403
1.49831
1.30953
1.13574
1.03821
0.976328
0.961124
0.951172
0.956285
9.33169
13.9846
11.8118
9.63634
4.36549
4.3197
3.00207
3.07892
2.61707
2.57287
2.23726
2.02852
1.74064
1.5289
1.26675
1.07487
0.934732
0.862407
0.832993
0.826997
0.471836
6.93431
8.89114
8.46667
3.85714
3.46274
0.953661
0.898046
0.837936
0.77074
0.690582
0.616191
0.530367
0.460251
1.47919
1.22429
1.02834
0.868511
0.799423
0.744853
4.65794
6.97069
7.94996
6.70862
4.24752
1.66943
0.40775
0.245611
0.209496
0.228848
0.218902
0.192832
0.167201
0.138359
0.437602
1.26545
1.08026
0.905813
0.793713
0.697006
20.2658
10.1842
6.47105
6.66719
3.68043
1.42808
0.323692
0.187934
0.184114
0.213636
0.197381
0.155741
0.124054
0.112864
0.391091
1.16837
1.03566
0.88192
0.747525
0.653927
12.2105
18.3403
7.37843
7.79337
3.72846
1.21909
0.294691
0.152572
0.137768
0.196102
0.194559
0.165764
0.145434
0.139614
0.48213
1.28322
1.08417
0.912996
0.75856
0.64611
8.13587
11.7219
7.20545
8.13463
4.34007
1.60234
0.313292
0.160116
0.162728
0.203181
0.190378
0.163372
0.145778
0.137457
0.489085
1.35667
1.20233
1.0228
0.846081
0.717449
5.30664
12.9477
7.38274
6.22456
3.52481
3.43688
0.937382
0.649968
0.64425
0.675474
0.626672
0.564875
0.486407
0.424183
1.26343
1.12253
1.07404
0.991244
0.882609
0.780867
14.1497
13.5497
6.68206
7.41229
4.36356
4.92589
3.4108
2.98934
2.50927
2.24349
1.93983
1.71236
1.51186
1.35347
1.19142
1.08465
1.00175
0.909974
0.849617
0.788029
13.846
11.4052
5.71535
5.7922
4.56016
4.82843
3.65152
3.21575
2.59551
2.21118
1.85204
1.64968
1.48558
1.39548
1.27593
1.15777
1.05647
0.943635
0.868738
0.803618
1.51545
6.32613
3.69358
6.43102
5.01687
5.18637
3.77329
3.28103
2.55755
2.03987
1.55658
1.34191
1.20424
1.17408
1.12506
1.0725
1.02241
0.943524
0.893552
0.819523
1.96199
3.7459
3.28905
5.47269
4.60452
4.15009
2.9435
2.56897
1.90331
1.58835
1.30603
1.21117
1.08674
1.00448
0.95473
0.933757
0.921608
0.895586
0.866287
0.809778
5.03173
9.51682
5.10351
5.37055
3.82917
3.24283
2.35162
2.07396
1.5154
1.43112
1.2535
1.2017
1.04301
0.919525
0.806412
0.767516
0.753333
0.746776
0.725983
0.708648
0.353164
5.98912
3.88993
4.89703
3.44883
3.31739
1.88996
1.63415
1.27798
1.34294
1.24638
1.19023
1.06539
0.982712
0.836162
0.704511
0.62391
0.58749
0.550976
0.555768
0.794771
4.84183
2.94836
5.51882
2.26167
2.73356
1.47078
1.32532
0.988399
0.877933
0.759652
0.672363
0.58399
0.552789
0.50254
0.428305
0.383073
0.362092
0.332064
0.250732
0.179956
6.34226
13.7555
19.2052
15.6219
16.9545
10.3528
8.88976
6.83535
6.3721
5.68855
5.30767
4.6458
4.1532
3.74654
3.44578
3.28358
3.04307
2.8579
2.53173
4.54431
17.1917
21.7357
27.3927
28.9059
27.9082
21.4893
17.4071
14.3104
15.2705
16.3911
17.5705
18.0062
18.2708
18.0921
18.0087
17.634
17.1205
16.675
16.0213
28.3757
40.3098
42.1531
37.5025
33.0381
31.032
24.3824
20.943
17.2428
17.963
18.2185
19.2905
19.3427
19.5487
19.213
19.1114
18.8018
18.3291
18.0083
17.3626
7.21363
23.8229
33.3181
31.1947
26.8438
25.3734
23.8513
22.2213
20.6999
19.8389
18.7158
18.3364
17.7643
17.7008
17.779
18.1633
18.408
18.3326
18.1578
17.6955
10.8012
23.3855
23.7744
24.3681
20.988
23.4258
23.6439
23.8737
22.1182
20.9877
18.896
17.8484
16.7573
16.3967
16.5329
17.1665
17.6636
17.7283
17.7239
17.408
5.84318
40.5048
42.1828
42.0313
32.7706
27.1646
24.257
24.1266
23.103
22.0036
20.7663
19.547
18.0194
16.9666
16.2591
16.3303
16.6301
16.7009
16.7198
16.5408
29.1234
38.9482
55.0982
41.3392
30.56
26.1911
24.6629
23.3782
23.4011
22.9969
22.256
21.1356
19.5566
18.3297
16.7707
15.7223
15.1177
15.0779
15.3429
15.2242
3.87754
35.5005
43.5925
41.2878
29.9243
26.1114
20.3571
21.0906
21.9077
21.998
21.2388
20.2442
18.7086
17.0955
17.8554
16.2811
14.7725
13.9609
13.9283
14.0088
16.2601
29.7772
50.3869
32.8527
25.513
21.1062
17.6181
19.0541
20.2444
21.1685
20.7295
19.4779
17.6102
16.0728
15.8577
16.3048
14.4879
13.2171
12.6142
12.9065
59.0125
57.5368
47.5901
29.2487
23.2335
19.9865
18.433
18.6461
19.2423
20.5438
19.3615
15.9928
13.1069
12.5052
13.7412
15.2825
14.6336
12.8984
11.0606
11.7325
38.484
41.399
31.7759
28.9539
22.6242
18.4954
14.8336
14.9156
16.4177
19.6885
17.7863
15.1928
14.0887
13.8225
14.638
15.205
14.3718
13.327
11.583
11.649
45.6342
40.8421
39.6751
33.4787
22.9741
19.5549
16.0778
16.0547
17.7698
19.3407
18.6102
17.4023
16.3151
15.7287
16.4969
17.0702
15.7557
14.2867
13.0022
13.0982
35.2148
52.8237
31.9632
28.2464
22.7371
26.0626
20.4091
17.7385
20.3171
20.6368
19.2025
17.6716
16.1737
15.0405
16.8057
16.5618
16.1096
15.3499
14.8253
14.5023
31.3685
48.3943
35.179
32.7466
31.2261
32.427
29.9398
28.3553
26.5151
24.3877
22.6435
21.4953
20.4164
18.3554
17.4921
16.8429
16.5395
15.748
15.4284
15.0205
8.81523
23.5646
38.653
37.3239
36.6066
36.4138
33.0425
30.6349
26.9316
24.111
21.8479
20.686
20.4458
19.5968
18.6996
17.6859
16.8872
15.7396
15.3195
14.8739
12.9603
24.8966
28.284
34.1712
36.5091
36.1122
32.4126
29.774
23.3137
19.2786
17.8352
18.1977
18.7407
18.5598
17.9916
17.276
16.5927
15.787
15.3923
14.8721
5.05855
24.6581
28.5012
29.1876
22.9139
22.1401
21.1469
19.8729
17.2036
16.9911
16.7057
16.9332
16.6283
16.3022
16.1976
15.9795
15.7483
15.3523
15.1373
14.6782
14.42
30.8615
27.1591
25.0996
19.1174
16.6718
13.8174
14.4942
16.273
17.6691
17.3317
16.8912
15.566
14.6748
13.7706
13.4513
13.3403
13.5012
13.6391
13.8665
0.986898
27.1756
26.4872
22.5202
15.5862
13.2947
11.4878
14.1315
15.7793
16.6658
16.4057
16.1967
14.6073
13.2551
11.887
11.088
10.761
10.8161
10.6492
12.0944
4.38992
18.53
12.2736
18.566
9.65027
10.192
6.69752
6.46057
5.26934
4.61468
3.88639
3.41558
2.91738
2.5284
2.39494
2.23784
2.00838
1.55239
1.13149
1.09286
6.9135
11.105
13.0316
20.4667
19.0774
17.971
13.7451
12.6027
9.59525
8.84052
7.48798
6.74965
5.78154
5.19403
4.70729
4.31992
4.08259
3.71963
3.43018
2.94077
15.5437
36.1216
39.8018
43.1406
41.6605
38.7949
31.2981
28.4905
26.7251
27.7852
28.4162
28.9192
28.9255
28.4465
27.3795
26.3441
25.112
24.0186
23.0715
22.0093
21.0325
49.2769
51.7922
52.5572
48.6318
44.4897
36.7311
33.3402
31.07
31.76
31.8166
32.1147
31.6123
30.9718
29.8999
28.9239
27.8947
26.8984
26.081
25.1008
15.8685
39.9879
51.4329
50.2789
45.5396
41.9424
38.608
35.8566
33.9148
32.6388
31.5096
30.88
30.108
29.6276
29.1424
28.6377
28.13
27.337
26.8082
25.8673
5.10392
33.5863
41.5217
42.7629
38.7799
39.5864
38.4342
37.4041
34.9189
33.0399
30.9266
29.728
28.6184
28.0416
27.7829
27.6041
27.3223
26.7515
26.3936
25.5625
5.11599
41.0082
49.4413
54.8552
47.1606
41.7396
39.3375
38.4933
36.4855
34.2679
32.0092
30.0648
28.2952
27.1934
26.4687
26.1157
25.8499
25.4004
25.1143
24.4508
45.4904
55.1288
65.1493
56.5891
46.419
42.6057
41.2919
38.9643
37.7731
35.7935
33.6407
31.3883
29.0378
27.2846
25.6768
24.5736
23.8625
23.5315
23.4316
22.9332
16.0989
50.9747
60.7828
59.4257
49.5581
44.7884
39.6531
38.4955
37.0885
35.6335
33.5002
31.2079
28.6579
26.3197
24.8493
23.3298
22.1275
21.6148
21.6038
21.4602
14.9133
48.7518
67.8096
52.9104
46.7703
41.2499
38.6471
37.4665
36.0554
34.9269
32.8735
30.0662
27.3131
25.3199
23.8256
22.5021
20.9983
20.1261
19.9349
20.1884
60.6648
64.9693
62.9314
47.6158
43.5832
39.3476
37.8509
36.1766
34.9985
34.1312
28.9599
21.249
18.1131
19.2762
20.3392
20.5835
20.0416
18.9078
18.5419
19.3256
13.6675
54.3948
55.8974
48.0543
41.2308
36.1967
32.5643
31.7312
32.2467
33.8417
8.07651
8.50864
14.0718
17.1734
18.343
19.0901
18.6855
18.1069
17.8783
18.9153
33.4763
58.1435
54.7985
47.7174
41.0268
37.3291
34.4643
33.1303
32.8425
32.7825
30.7802
28.2342
25.9742
24.17
22.7361
21.6899
20.5
19.4553
19.3675
20.0602
22.5164
61.8923
53.6042
47.8061
42.166
44.5587
39.1599
36.4762
36.6349
34.9465
32.39
29.5283
26.9908
24.8988
24.5744
23.8069
23.0035
22.3773
22.0886
21.6447
54.369
65.0234
54.748
52.5662
50.5911
49.9574
46.3209
43.9056
40.9238
38.0656
35.358
32.9832
30.6402
28.2273
26.8539
25.8039
25.0645
24.1626
23.7145
22.7969
22.1249
44.1652
49.9295
57.2854
54.6116
53.1462
48.5263
45.1556
41.031
37.7418
34.9446
32.8158
31.2417
29.5284
28.1807
26.8472
25.8511
24.6757
24.115
22.9968
61.698
56.4474
53.3583
56.2868
53.5111
52.4171
47.5996
43.2709
37.0599
33.5194
31.5845
30.6115
29.758
28.5915
27.5308
26.3518
25.4349
24.3757
23.8259
22.7107
28.231
45.1409
52.2351
48.8941
41.6592
41.6967
38.1899
34.8938
31.3532
29.82
28.547
27.7913
26.9541
26.1323
25.4647
24.6449
24.0153
23.2247
22.8019
21.9197
27.0258
42.525
41.7462
41.9601
35.6453
32.6652
30.0192
29.0086
29.3287
28.0401
26.6182
25.6082
24.3935
23.4378
22.5236
21.8378
21.3235
21.0258
20.9841
20.9174
6.07059
42.1838
39.2967
37.5056
31.5513
29.8094
27.0732
26.1628
24.1604
22.7782
21.7625
21.6315
21.549
20.9153
19.7551
18.657
17.6523
17.0572
16.9539
17.5324
4.08233
23.031
17.4899
20.0421
13.1551
16.3291
9.17143
8.84039
6.83857
6.15294
4.92852
3.94648
3.14225
2.78356
2.55698
2.1486
1.71833
1.46863
1.38489
1.61823
12.8071
26.9329
19.269
23.3207
20.3054
17.8284
14.8771
13.3382
10.3016
9.07907
7.52495
6.63192
5.78898
5.2603
4.80889
4.35409
3.96479
3.44097
3.1209
2.65234
48.2704
51.6968
52.5239
51.2495
47.9527
43.7917
37.4597
35.0499
33.4425
33.5748
33.3908
32.779
32.5107
30.2572
28.6251
26.4034
24.692
22.9838
21.7296
20.5412
31.2555
59.1932
63.8135
63.0638
57.3564
50.9461
44.092
40.9057
39.057
38.8255
38.2442
37.6628
36.546
35.1407
33.5539
31.7283
30.2152
28.6155
27.6339
26.7425
13.224
50.7129
57.0667
62.439
57.1227
51.1477
46.1151
42.6502
40.5446
38.663
37.6981
36.6485
35.6997
34.6451
33.5732
32.368
31.3529
30.0187
29.2265
28.2893
15.8045
40.9356
51.2347
57.2718
53.1659
50.569
47.2735
44.3136
41.2733
39.0166
37.0994
35.5351
34.2895
33.3203
32.4382
31.4656
30.6684
29.6869
29.055
28.1347
4.28873
27.7118
57.277
63.3354
57.8302
51.597
48.8017
46.3275
43.2914
40.2558
37.5605
35.148
33.2323
31.7538
30.6602
29.7045
28.9623
28.2166
27.6901
26.8871
8.78584
50.851
71.3472
66.2752
57.6174
53.4932
50.7914
47.5288
45.1179
41.6656
38.4382
35.4571
32.686
30.5703
28.8607
27.6678
26.8971
26.3131
25.8777
25.2823
33.2163
70.7426
73.9342
66.754
59.9723
56.2455
51.7976
48.3041
45.2686
41.9994
38.5523
34.9934
31.8421
29.0463
25.8452
25.018
24.5183
24.2527
24.1318
23.8976
61.7084
79.2142
73.8901
64.3393
59.6997
55.038
52.4766
48.0225
44.4567
40.8252
36.889
32.8967
29.8307
27.5407
24.8299
22.7275
21.8398
21.9235
22.0511
22.4949
51.2759
74.2882
71.5621
60.0397
57.1289
53.1442
51.0154
46.945
43.082
39.3761
32.6812
24.9577
22.5315
23.1221
22.5179
21.1307
20.3322
20.2583
20.3972
21.2265
43.1622
65.9831
67.4446
59.2687
54.7587
50.046
46.5799
43.5518
40.8629
37.9814
16.8331
14.147
17.1521
18.9762
19.4942
20.6666
20.2134
19.9927
19.9871
20.6788
59.8275
66.1646
64.8861
58.2992
53.9035
50.1536
47.3423
43.355
40.6165
37.9672
34.3467
30.5692
27.1158
24.5333
22.2426
22.1878
22.2914
22.1128
21.9495
21.6961
16.7902
65.985
66.747
61.7159
55.8556
55.4622
50.6598
46.665
44.3431
40.9924
37.3526
33.3903
30.0931
27.3636
26.0381
25.7168
25.3896
25.1631
24.6917
23.6249
64.3049
71.5487
70.0193
65.59
61.6538
58.2305
54.7095
51.9965
48.4566
44.838
40.9303
37.1948
34.2078
31.8916
30.2409
28.9673
28.141
27.2763
26.5977
25.1525
50.0397
69.3107
70.4372
70.3066
65.9626
61.3478
56.6045
53
48.6075
44.1555
40.3168
37.0338
35.1197
33.1934
31.6377
30.1337
29.0778
27.9311
27.0929
25.5544
74.6841
75.3543
73.2957
69.4421
64.8309
60.6991
55.6931
50.5804
45.0977
39.3754
37.2648
34.5135
34.0135
32.2393
30.9628
29.5192
28.5455
27.3479
26.5455
25.0556
41.1368
63.417
69.2448
62.4248
57.0868
54.2197
48.8019
42.7883
38.8491
35.4413
33.8739
32.3446
31.0864
29.7501
28.7107
27.465
26.6354
25.6334
25.0353
23.9138
20.3288
52.1954
57.951
57.0762
51.8777
47.051
42.7471
34.2569
34.996
31.0838
30.296
29.0518
27.8739
26.6323
25.6188
24.6143
23.9695
23.4589
23.2519
22.9034
46.2672
49.5331
52.5828
49.9903
47.0556
40.8583
35.6165
30.287
26.2288
24.3735
23.89
23.6424
23.6256
21.859
20.8269
19.4398
18.6633
18.1259
18.1362
18.6785
10.5446
17.4686
21.6884
19.8841
15.5135
16.6236
10.1161
9.03964
6.82374
5.56182
4.40938
3.65046
3.36992
3.18768
2.84856
2.39505
2.05304
2.01324
2.05878
2.18494
9.33459
16.509
14.7303
25.1296
8.81787
13.5785
6.19292
6.21346
4.05359
3.58355
2.83858
2.6103
2.28041
2.06086
1.78072
1.54176
1.333
1.17058
1.05095
0.991424
24.7948
41.9242
56.9486
53.7589
34.7989
42.3459
23.785
26.0206
19.6995
20.3836
18.3371
18.5065
17.0982
16.4056
14.9421
13.7267
12.7527
12.0041
11.2429
11.2988
51.0329
65.2687
58.9496
67.7085
41.9549
50.4836
29.2405
34.9225
24.3239
25.2778
21.5632
21.3716
19.3791
18.619
17.1836
16.1205
15.3093
14.6534
13.8604
13.9408
46.665
71.0687
64.2218
69.3654
37.1741
44.4474
24.8283
28.0748
21.4104
22.6709
19.8669
20.0571
18.4647
18.0912
17.005
16.2571
15.5911
15.0602
14.296
14.3176
53.6545
59.1936
53.6788
66.8367
37.6232
52.6422
28.2136
33.8725
23.2659
24.1252
19.9978
19.7135
17.7947
17.3231
16.2637
15.6613
15.094
14.6608
13.9674
13.9715
23.5396
35.8661
43.095
55.1512
34.8276
37.8827
25.0514
25.7472
21.8646
21.28
19.0566
18.1084
16.6172
15.8142
15.0119
14.3465
13.9022
13.5698
12.9569
13.0228
11.6201
39.0185
49.18
71.0792
35.2743
54.9909
33.3859
38.4501
26.6099
25.1012
20.2131
18.3905
16.1204
14.8977
13.8156
13.1949
12.7548
12.4876
11.9671
12.1254
45.5168
83.8041
83.2521
70.9805
38.296
44.9006
53.8499
50.2968
45.3737
37.7378
33.9842
28.7366
26.3929
23.5547
12.7576
12.1104
11.8445
11.7126
11.3396
11.5621
87.74
89.3822
78.9172
68.1478
45.723
59.2086
54.857
48.832
43.5034
38.1277
33.1912
29.1298
26.3256
24.1373
20.2423
11.5475
11.2282
11.1595
10.9032
11.1733
37.0471
73.1973
65.8274
64.7154
38.5745
57.4773
54.0485
46.8003
40.7811
35.2321
29.5068
24.2926
22.2241
21.9846
19.5022
11.6108
11.1643
11.0176
10.7256
10.938
51.5604
72.2632
62.6396
62.8503
35.5253
54.3135
50.4552
43.621
38.5443
33.7319
27.1378
21.6535
19.2655
19.5414
18.8133
11.5661
11.3088
11.178
10.829
10.9074
47.8463
70.6352
44.0798
61.3133
33.8344
52.3965
48.6798
42.3918
38.1498
33.9346
29.4544
25.4409
22.7616
21.2403
19.9593
11.9702
11.8899
11.72
11.2552
11.0243
27.9861
65.8173
48.2188
66.9051
30.1819
36.0654
51.6669
46.8246
42.9493
38.094
32.8522
28.5317
25.5629
23.6193
13.1679
12.8546
12.7213
12.5181
11.9608
11.4532
15.3647
76.4326
54.5327
72.0165
36.0605
56.5518
34.1572
34.27
26.9127
23.7451
19.8334
17.4907
15.7842
14.7754
14.1487
13.7008
13.4696
13.1114
12.4866
11.8749
44.5701
75.9614
48.1479
48.5559
35.3462
39.7417
29.9047
30.4027
25.5378
22.7081
19.612
17.5708
16.1361
15.2264
14.6499
14.0591
13.7142
13.2255
12.6023
11.9309
31.6564
81.7934
57.7207
75.7535
44.8239
57.6336
34.2133
31.8375
23.907
20.7935
17.9284
16.362
15.336
14.5824
14.1066
13.5418
13.2445
12.7602
12.1393
11.4964
61.3953
65.8976
46.8804
69.232
35.6576
43.9488
25.9054
23.3249
18.1688
16.8968
15.2058
14.6682
13.8616
13.3
12.8494
12.3598
12.1134
11.7921
11.3265
10.9242
36.7509
53.488
59.8028
64.0516
40.8258
50.4479
25.0079
21.8087
15.9167
14.8145
13.3271
12.9879
12.1301
11.6341
11.2599
11.0184
11.0607
11.0753
10.792
10.6919
30.5498
53.1151
35.0446
53.6423
32.0908
40.7811
17.2465
16.6019
11.5344
11.5214
10.485
10.6549
9.94194
9.54596
9.09676
8.7308
8.60269
8.67991
8.84071
9.17019
4.01944
23.6316
10.8702
13.983
7.88594
15.5236
4.11527
3.88632
2.21727
1.95054
1.59384
1.56566
1.47366
1.41198
1.28635
1.16628
1.10292
1.04694
0.978489
0.898413
30.8732
32.8228
11.131
38.9857
34.3895
37.0083
11.953
22.7938
9.68975
8.21448
32.0044
25.3048
10.399
9.04181
9.5201
32.749
31.201
37.813
9.85736
37.5606
34.9016
7.66155
30.5081
28.4704
8.51872
8.3753
33.887
30.9933
0.268085
0.369735
0.222529
9.81317
12.6283
12.5228
14.1218
0.21853
0.207391
0.197443
13.6918
15.3033
14.2404
14.8019
0.221877
0.200506
0.22149
15.5742
16.5023
15.1614
16.1593
0.227803
0.222808
0.216894
16.7681
16.6491
16.2658
15.7797
0.196454
0.20677
0.176645
16.4684
15.8142
15.4249
14.1614
0.173531
0.167128
0.138549
15.5572
14.3992
13.6544
12.0934
0.143907
0.130854
0.117321
14.0175
12.9705
11.6651
10.9578
0.0978808
0.115718
0.0938168
12.6896
12.484
10.894
11.4485
0.203072
0.30613
0.167898
11.8334
13.5278
9.27464
10.3389
0.1787
0.151883
0.132082
13.6728
14.1634
10.5255
11.4501
0.211207
0.135461
0.184996
14.5833
15.8186
12.1117
14.762
0.208056
0.194097
0.191202
15.9687
15.5663
15.2283
14.7221
0.165732
0.185136
0.165723
15.157
13.3916
14.0863
12.24
0.130136
0.158441
0.141057
12.7263
10.9458
11.718
10.6282
0.113995
0.136826
0.130456
10.5282
9.96
10.4016
10.1388
0.0925592
0.129162
0.106698
9.96325
10.7986
10.0988
10.5166
0.167175
0.308199
0.174027
9.19888
10.4715
10.4635
11.6077
0.134308
0.161172
0.155529
10.7415
11.5243
11.9121
12.8813
0.184615
0.159483
0.191948
12.1893
14.7701
13.3891
14.8001
0.198057
0.200104
0.203181
15.2374
14.8953
15.0411
14.7982
0.172649
0.196533
0.176139
14.3943
12.9789
14.5418
13.8567
0.148873
0.170048
0.154625
12.5864
11.7277
13.6346
13.0514
0.140322
0.151192
0.145899
11.5707
11.3611
12.8998
12.6224
0.113683
0.143987
0.121231
11.3019
11.3366
12.5147
13.0479
0.174517
0.381483
0.232826
10.0226
11.2341
9.01638
9.60147
0.157162
0.203018
0.174112
11.5941
12.952
10.0079
12.1405
0.19783
0.177247
0.198277
13.5005
14.7643
12.888
14.0957
0.198306
0.197719
0.192204
14.96
14.5782
14.114
13.347
0.169393
0.188325
0.174969
14.3378
13.665
12.9691
12.1857
0.149106
0.172278
0.156079
13.4202
12.7627
11.9181
11.2164
0.138906
0.152454
0.133638
12.5914
12.3105
11.0144
10.5473
0.115863
0.133913
0.104989
12.2202
12.8866
10.4699
11.1097
18.3374
19.2369
19.3185
32.9515
33.4588
34.0847
33.4423
20.1494
19.3416
19.6357
33.4832
32.9862
33.078
32.3634
20.9642
19.9348
20.8277
32.7332
32.3453
32.2919
32.0485
20.9516
20.8955
20.2278
32.1998
31.1436
31.786
30.1282
19.8256
19.7819
18.0432
30.6439
28.8606
29.1918
25.5537
18.068
17.3476
15.3362
28.2125
26.2244
24.3225
21.4734
16.4001
14.8138
13.98
25.6141
24.1268
20.9217
20.3869
15.1175
13.9035
13.8116
23.6993
22.6523
20.4234
20.6212
18.6624
15.0757
14.6773
33.1195
32.6453
28.5056
28.0087
18.8749
14.8042
15.6806
32.2659
31.5958
27.8903
28.3161
20.4222
16.3919
19.1958
31.6059
31.6069
28.8266
30.2772
19.9299
19.6982
18.4586
31.4207
29.0856
30.369
17.6532
16.9045
17.4315
14.7177
27.5499
22.272
15.3629
11.8155
13.6451
14.0175
12.6304
20.7683
17.7026
11.2593
11.0279
12.459
12.3656
12.128
17.2561
17.5265
11.4303
13.4172
12.9948
12.1275
12.0879
17.8743
19.3248
14.109
15.4612
14.7097
16.3755
16.1069
27.7737
27.7212
29.5096
29.3009
15.7014
16.306
17.1157
27.6768
28.1299
29.1162
29.0872
19.1788
17.6321
19.1691
28.6728
30.0899
29.3551
30.0816
18.6403
19.4187
19.0968
30.5221
17.2928
30.0664
28.9499
15.6933
18.7984
17.8678
15.1565
12.562
28.3809
26.6417
14.245
17.5695
16.7757
12.5784
14.3351
26.0929
24.6093
13.885
16.5616
16.1085
15.0856
16.6737
24.1748
23.0237
13.145
15.9494
15.692
16.9348
16.6955
22.6459
21.6974
15.7868
15.5644
15.0267
29.8007
29.3657
27.042
29.6942
17.2343
15.1664
17.1104
29.2097
29.287
29.5389
30.3196
19.1489
17.8457
19.0567
29.5256
30.127
30.6446
30.8588
18.9026
18.9885
18.0543
30.0768
29.0249
30.5303
29.0008
17.7163
17.6257
16.6334
28.4935
26.8482
28.398
26.7124
16.5465
16.2747
15.3263
26.3118
24.8165
26.0959
24.4903
15.8667
15.0562
14.3993
24.3725
23.2421
24.0099
22.8329
15.5707
14.2635
13.9613
22.8944
21.9784
22.4838
21.7945
37.7356
38.9333
37.4655
46.7028
47.2152
49.365
46.751
36.4569
36.972
35.8672
46.2986
43.9771
45.8122
43.3306
35.2249
35.6385
34.8753
43.2106
40.9597
42.5688
40.1749
33.4887
34.4641
32.3379
40.1901
37.5815
39.3118
36.0108
30.7873
31.1921
26.9398
36.6486
33.7713
34.4668
29.52
27.9445
25.6076
22.7307
32.882
30.5272
28.1585
25.5262
25.7658
22.2448
21.8898
29.8456
28.1362
25.1435
24.7738
24.0608
21.9544
21.9656
27.625
26.2175
24.7372
24.3096
36.66
33.3376
32.2501
48.3172
46.0531
44.6704
42.7219
35.1552
32.0376
32.1252
45.1587
42.7595
42.0577
40.4902
34.4494
32.454
33.1094
42.0338
39.7875
40.0982
38.6694
33.9544
33.5343
33.7151
36.3236
32.4202
35.5288
35.8115
19.4498
26.7926
23.3596
29.9707
20.4738
27.5257
22.4886
18.3781
7.83029
9.20343
23.8599
21.6003
8.94742
11.5842
18.8397
10.0762
13.3957
21.5539
22.3167
12.8358
16.2469
20.6802
14.3796
16.1458
22.62
23.358
17.1257
18.5802
31.8776
34.1294
33.2913
43.6957
42.1684
44.6089
42.4317
31.8805
32.9687
32.5676
41.5527
40.1129
41.6821
39.9707
32.8319
32.6835
32.907
39.7692
38.4225
39.5484
38.1565
28.0792
19.6343
32.829
29.9647
29.6651
3.89111
34.8317
19.9983
7.49333
22.6016
2.26274
21.6445
2.19226
20.7211
12.6919
27.8348
26.1156
9.51922
14.1807
30.1101
27.6751
16.7373
25.6015
24.2012
15.5172
18.0233
26.9262
24.9442
17.191
23.7439
22.4765
18.4488
18.7827
24.3447
22.7309
33.4431
33.3549
34.1126
45.2207
42.6038
37.5077
43.8369
32.7614
33.8654
34.0609
41.834
40.1018
43.169
41.8568
32.9727
34.1876
33.9335
39.6722
38.2434
41.4467
39.7757
31.4044
33.4933
31.7511
37.6178
35.234
39.0223
36.5928
28.856
31.0704
29.1633
34.3366
31.6653
35.694
33.0798
26.4952
28.4537
26.6471
30.8026
28.3474
32.181
29.8208
24.5984
26.0879
24.7032
27.6
25.651
29.0612
27.164
22.8696
24.2776
23.2469
25.0663
23.3153
26.5497
25.1018
49.1264
52.0979
48.6621
52.185
50.8479
55.2421
49.9921
45.3463
47.547
44.5566
49.4191
45.8321
48.3806
44.1085
41.7282
43.6157
40.7226
44.539
40.5739
42.733
38.7402
37.9008
39.7242
36.189
39.3742
35.821
37.4388
33.4747
33.8106
34.6498
29.8356
34.5872
31.2346
32.0564
28.0197
30.5185
28.5174
25.9423
30.3353
28.0968
26.9067
24.5294
28.065
25.5327
25.0053
27.3829
25.5856
24.1377
23.4247
26.114
24.9018
24.3366
25.0628
23.4362
23.1958
22.1565
48.0175
47.5299
44.9865
54.376
49.4369
51.6484
46.8339
44.0004
44.1159
41.8726
47.8047
43.475
45.3246
41.389
40.3219
41.2315
39.2637
42.1009
38.2485
40.2797
36.9647
34.8671
37.8271
20.3061
36.9509
32.729
35.7133
29.6616
26.3609
17.6401
13.6818
31.1159
26.4588
27.2588
22.0093
22.6706
13.2639
14.2927
25.2837
22.8834
20.9312
18.9503
22.9427
15.1047
17.5394
22.6027
22.4042
18.794
19.3196
23.5062
18.1831
19.228
22.3376
21.7782
19.508
19.5554
44.3751
46.9481
44.1478
50.6053
46.0726
49.2253
44.6914
41.451
43.2546
41.092
44.6197
40.8812
43.4266
40.2284
39.0029
40.492
38.6254
39.8335
36.694
39.233
36.4105
19.2843
37.9016
35.0384
35.5287
29.6906
35.3938
32.1239
13.9467
33.9617
30.8819
27.4673
22.7656
30.9859
27.7402
16.3782
29.9387
27.2707
21.7381
19.6806
26.7278
23.6897
18.7002
26.4502
24.4033
19.3518
19.3994
23.0048
21.6508
19.2023
23.8094
22.2834
19.4495
19.272
21.2601
20.0949
44.2571
43.7908
45.6938
49.3685
44.6012
45.2928
46.8355
41.2079
44.9036
43.1842
43.3982
40.3485
45.7244
43.1136
38.7131
42.6023
40.5115
39.3875
36.5077
42.1004
39.0317
35.3145
39.6664
37.0348
35.498
32.2783
37.9625
34.8407
31.4878
36.0434
33.2272
31.1767
28.0612
33.6491
30.4884
27.9064
32.2546
29.7667
27.061
24.265
29.4605
26.9772
25.1162
28.9658
26.9553
23.6301
22.1837
26.1575
24.2655
22.8714
26.3339
24.9099
21.7562
20.439
23.729
22.39
50.2824
54.6775
49.1092
23.2813
19.6709
22.2149
18.0369
44.9267
47.3974
42.8926
18.4605
15.5693
17.3963
15.4412
39.3487
41.4329
37.1948
14.9868
13.8533
14.8843
12.7597
34.4314
35.8054
31.727
13.271
12.0056
12.1579
10.736
29.9628
30.3672
26.6365
11.7817
11.1431
10.3603
9.64003
26.9936
25.6438
23.7862
10.865
10.3437
9.58679
10.7646
24.6315
23.4946
22.8638
10.2564
9.9222
10.6843
10.4455
22.6392
22.6192
21.6132
9.75825
9.35696
10.3369
9.88495
48.5339
51.4733
45.9478
21.3007
17.4759
21.1814
16.1328
42.2324
44.3178
40.159
16.9024
15.1735
15.7543
14.1534
36.6331
38.9769
35.2327
14.4402
12.4078
13.435
11.7196
31.0046
33.9133
28.9366
11.8213
10.3776
11.2239
9.76205
25.3551
26.9151
22.1197
9.9711
9.08446
9.31969
8.12902
22.3794
21.0481
19.0045
8.97718
10.1655
7.86348
8.80595
22.0909
18.9697
19.5517
10.6859
10.5061
9.79414
10.3038
21.3412
19.6902
19.6119
10.4106
10.136
10.2329
9.89941
45.187
48.7037
43.7681
18.5322
15.7155
18.7239
15.4251
39.6648
42.4106
39.0426
15.4085
13.9509
15.1147
13.86
34.979
37.9834
34.8685
13.266
11.6641
13.2715
11.6456
29.0026
33.7434
30.3283
11.1987
9.74987
11.1992
9.98049
22.7131
29.1986
26.0285
9.29444
8.10331
9.64902
8.80897
19.425
25.0384
22.5546
7.85723
8.76499
8.69817
9.72979
19.5042
22.1177
21.1469
9.74798
10.239
10.3103
10.0641
19.3187
20.8187
19.8195
10.1597
9.94253
9.97638
9.68559
43.6414
50.3914
46.1199
17.7598
15.5159
19.9094
16.1185
39.1727
44.9423
42.0564
15.1199
13.7532
15.4126
13.4783
35.0334
40.944
37.6909
13.4349
11.7431
13.3044
12.2867
30.5581
36.5987
33.3741
11.2918
10.1441
11.9417
10.9108
26.3949
32.1835
29.1179
9.85061
9.12361
10.8215
10.1275
23.2204
28.1549
25.8751
9.07287
10.2691
9.9944
9.51325
21.6104
25.1406
23.4982
10.1878
9.96034
9.55552
9.26303
20.1109
23.0244
21.9089
9.88209
9.62589
9.23797
8.87294
30.4888
32.46
26.6915
32.251
30.1246
34.1039
26.1089
25.7814
32.945
21.7062
30.2164
29.2454
34.4454
5.38006
15.6079
17.2383
13.9673
2.43708
22.3127
11.5592
3.23298
35.3821
37.9573
37.9339
38.512
37.0022
37.4199
36.7383
31.7101
33.4315
36.3466
29.6642
35.4214
27.1594
33.8161
26.5298
30.7568
37.5652
23.6132
35.9507
5.42904
32.9569
16.5214
3.08183
19.3893
15.0494
12.3762
3.43836
24.9085
17.0068
24.6884
16.2294
23.2832
18.0909
25.2243
15.4906
7.84499
14.1898
8.69877
2.03997
12.033
9.40506
1.82833
6.88473
9.78388
8.10344
4.40279
10.5608
6.92768
3.05743
20.3664
30.9902
29.5002
25.9973
28.4449
23.4621
22.865
17.8991
24.1472
27.2034
18.6849
26.0862
16.4184
20.3945
8.65419
2.84099
16.1317
9.39507
10.2345
2.66766
13.7996
7.60726
4.52381
11.3936
8.95171
7.62215
3.06436
12.2912
23.7308
12.119
23.9338
2.55433
26.0814
3.16372
21.7822
33.8734
32.8535
32.3995
34.9365
32.1036
35.0463
34.4373
32.3929
29.8741
31.8537
32.9505
30.9808
31.0897
33.7381
29.3216
30.4717
20.809
37.4574
4.24078
36.4145
33.4394
24.4982
3.10577
12.6729
26.0257
3.44612
22.3393
28.7866
35.337
36.5623
37.6626
36.8123
36.6714
35.928
36.3836
33.6555
34.1942
33.1907
35.898
32.1755
35.1018
34.7777
19.7529
6.9424
20.4252
3.74219
20.9212
2.8436
19.3173
29.0281
28.9005
29.814
32.1368
28.0724
29.962
31.3313
28.2385
26.6495
29.1341
29.7892
27.3412
27.4664
30.5499
20.3515
2.93389
7.86821
24.2871
2.87493
21.1508
23.0709
20.1208
4.10558
7.39162
21.5127
3.17523
19.6636
22.134
29.869
33.2711
31.8467
32.8865
30.9341
32.3606
30.6456
28.9869
30.6269
28.6794
31.921
28.1299
31.4804
29.6199
0.890564
0.927398
0.811137
6.17493
8.10354
6.08617
7.91773
0.880104
0.865162
0.866737
10.3346
10.8853
10.347
11.7445
0.804948
0.803767
0.802931
11.8812
12.3718
12.3207
12.5635
0.733567
0.803436
0.786481
12.6852
12.453
12.5764
12.3547
0.652266
0.731716
0.691101
12.3821
12.1985
12.1186
11.8722
0.574499
0.652103
0.603917
11.983
11.6443
11.4748
11.0432
0.488775
0.552076
0.504939
11.0134
10.7921
10.4121
10.1126
0.357289
0.4774
0.375791
9.85987
12.1366
9.26653
11.224
1.03682
1.98466
1.0866
7.32113
7.34059
7.68591
9.24165
2.53815
0.361583
0.393939
2.21698
2.35419
2.28246
0.301969
4.14595
0.2393
0.209956
3.53709
4.08126
3.83166
0.202891
4.88279
0.209905
0.191118
5.412
5.59252
4.65973
0.196327
5.64488
0.232038
0.228016
6.23922
6.30801
5.58233
0.231334
5.2149
0.20851
0.216475
6.04674
5.95191
5.32453
0.207751
4.88695
0.186096
0.185278
5.73823
5.6138
4.98683
0.178867
4.28269
0.15847
0.156194
5.14438
4.9846
4.41228
0.149565
3.92453
0.131692
0.132146
4.55354
4.46618
3.96733
0.12846
0.335288
0.421382
0.331702
8.9077
10.9046
8.7734
10.4773
0.93925
1.37012
0.889977
7.08932
8.51019
6.71133
7.15658
2.51248
0.255902
0.325817
2.29123
2.70667
2.20361
0.251704
3.56364
0.180832
0.169235
3.82433
4.01908
3.32579
0.158376
4.7761
0.195244
0.158622
4.78821
5.06972
4.42477
0.170116
5.27256
0.214245
0.199957
5.41366
5.42286
5.22608
0.202067
4.62114
0.186349
0.185748
5.10499
4.88892
4.83426
0.176622
3.79656
0.146301
0.150396
4.25222
4.05789
3.98612
0.141708
3.45615
0.119352
0.121905
3.58357
3.55369
3.47459
0.118456
3.51678
0.112676
0.113581
3.55946
3.5873
3.49626
0.11282
0.322966
0.409034
0.321994
8.38261
10.8567
8.22259
10.7798
0.844615
1.28214
0.887803
6.66989
7.24082
7.26358
8.26159
2.3741
0.230296
0.298728
2.05461
2.21861
2.10936
0.234859
3.46322
0.140483
0.158771
2.90061
3.09996
3.25179
0.148447
4.42452
0.146031
0.14666
3.87834
4.28477
4.10348
0.15288
5.22485
0.199899
0.197215
5.16219
5.20519
5.20907
0.201308
4.77237
0.187338
0.196249
4.97855
4.81097
4.94196
0.189111
4.34227
0.158986
0.170203
4.38516
4.25241
4.4256
0.164464
4.24012
0.142973
0.152161
4.03683
4.00919
4.25264
0.149832
4.20743
0.138486
0.14466
4.057
4.06158
4.21063
0.144325
0.376477
0.511277
0.422635
9.23777
11.7364
9.85396
12.6352
0.934266
1.4378
0.931279
7.30389
7.86832
7.0158
7.00296
2.46622
0.242339
0.31859
2.22834
2.47253
2.24797
0.245381
3.29788
0.152417
0.159745
3.2666
3.58177
2.98673
0.150416
4.72608
0.173898
0.166345
4.55035
4.80188
4.49371
0.182052
4.87565
0.205218
0.201972
5.02413
5.00481
4.84953
0.201226
4.46983
0.182803
0.1803
4.73563
4.6661
4.56872
0.172923
4.07405
0.15745
0.155755
4.4503
4.36308
4.16851
0.150478
3.82357
0.142451
0.138626
4.19684
4.15439
3.87457
0.134585
3.78612
0.136775
0.127131
4.09885
4.1012
3.7873