/*--------------------------------*- C++ -*----------------------------------*\
  =========                 |
  \\      /  F ield         | OpenFOAM: The Open Source CFD Toolbox
   \\    /   O peration     | Website:  https://openfoam.org
    \\  /    A nd           | Version:  10
     \\/     M anipulation  |
\*---------------------------------------------------------------------------*/
FoamFile
{
    format      ascii;
    class       volScalarField;
    location    "4.5";
    object      omega_0;
}
// * * * * * * * * * * * * * * * * * * * * * * * * * * * * * * * * * * * * * //

dimensions      [0 0 -1 0 0 0 0];

internalField   nonuniform List<scalar> 
12920
(
22.0344
71.7148
107.117
113.551
110.217
98.8361
84.9319
76.3045
70.3725
66.9745
63.8611
60.134
55.6231
50.868
47.6058
45.5427
44.8626
43.8677
43.333
41.6244
42.9754
143.681
155.215
146.85
133.179
126.505
110.431
94.3893
79.817
71.4025
67.5334
66.3474
65.6777
65.2486
64.3745
63.0623
62.1397
60.3671
59.3281
56.9705
193.76
220.272
187.148
161.083
141.588
132.744
112.106
96.7421
83.4456
76.3196
71.2023
68.8172
66.7586
65.4992
64.3361
63.2774
62.7514
61.6102
60.9578
59.2411
149.62
163.21
152.243
133.821
115.174
99.7904
88.1065
79.2917
73.0652
69.1601
65.8182
63.6639
61.6557
60.189
59.5565
59.5714
59.9067
60.0458
60.0429
59.6025
123.943
179.759
180.67
153.13
120.423
107.033
96.0918
88.2235
80.2453
74.6835
70.0642
66.2173
62.6304
59.7817
58.0747
57.239
57.1543
57.2485
57.7545
57.9239
148.181
256.998
263.014
240.111
174.117
125.334
99.8433
88.9891
83.8465
80.8265
78.0243
74.1338
69.5154
64.6397
60.1996
56.9153
54.8422
54.2058
54.3312
54.4534
279.095
275.22
254.796
188.226
134.91
106.013
94.1271
89.105
88.4891
87.5645
85.0557
80.6201
75.5585
70.3794
64.0906
58.178
53.7394
51.1342
50.3677
49.845
43.4362
139.394
191.861
166.324
122.666
105.26
167.552
146.202
147.15
146.001
141.295
132.958
123.07
114.139
69.7882
63.1691
57.1816
52.114
49.9486
47.5897
187.495
204.592
183.45
132.298
114.957
180.221
304.134
239.587
232.97
242.551
233.631
218.22
202.901
184.173
115.446
67.0481
61.0962
54.9289
51.047
46.8339
422.116
227.396
175.929
131.604
113.075
170.696
262.091
210.589
215.972
232.281
220.971
195.03
175.697
171.649
112.651
66.7064
62.6756
57.0895
51.7259
46.5862
488.726
339.242
214.647
151.334
120.577
179.744
262.896
195.707
185.815
217.596
217.425
200.671
187.48
182.884
119.534
68.0854
63.465
58.4178
53.0573
47.4971
218.073
225.338
191.559
160.75
129.44
190.421
275.91
202.277
199.823
217.872
206.165
191.736
181.931
176.739
116.306
67.3544
63.8094
59.5073
54.6061
49.6728
262.318
262.783
210.888
168.714
137.474
120.298
186.901
134.979
130.321
135.149
134.125
127.576
118.068
109.168
64.0589
59.9495
58.5653
56.5837
54.1303
50.912
295.387
270.474
194.815
163.545
144.338
132.875
115.498
105.957
99.5566
93.1623
86.3017
79.0949
73.3529
67.2797
62.5045
58.5327
55.8723
53.3101
52.1387
50.6035
288.337
221.459
183.491
169.505
163.276
153.63
135.371
122.3
108.748
96.7257
86.4753
77.4309
71.8679
67.4981
63.7609
60.0462
57.15
54.1569
52.4377
51.0244
108.886
122.64
151.168
167.331
165.747
155.509
136.941
123.494
108.989
92.0786
77.3591
67.5822
63.0066
60.52
58.9394
57.0596
55.6767
53.814
52.9773
51.4812
127.219
112.739
159.613
178.026
171.293
140.329
117.383
101.444
86.0807
73.7296
65.8843
61.3932
57.8821
54.8628
53.309
52.1868
51.7522
51.0742
50.7569
49.8998
257.447
190.903
175.28
171.727
163.072
140.969
116.072
92.5264
76.0159
68.4219
64.2606
61.5454
57.48
53.2945
49.3821
47.0563
46.1068
45.9047
46.0778
46.51
82.0504
149.887
149.014
138.011
131.526
112.473
88.33
73.7815
67.4873
67.0479
66.6464
65.1616
62.6274
59.8169
54.8838
49.322
45.3072
43.0775
41.7795
42.0235
91.6093
109.042
114.652
109.51
94.6434
88.9751
81.0173
76.4079
71.8099
68.8961
66.2394
61.9646
57.1539
54.7271
52.2276
49.0175
46.9947
45.5688
42.2534
33.6438
21.5907
49.7112
59.968
61.3779
59.0419
54.8619
49.0595
44.5656
40.7322
39.0646
37.6485
36.2112
34.2568
32.3555
30.9481
29.713
29.1606
28.1132
27.5116
25.833
183.005
153.57
111.321
83.5004
68.8661
65.4105
62.9883
59.7036
52.2746
44.4238
39.343
36.6499
35.4338
34.4957
33.731
32.7889
32.2095
31.4898
31.1206
30.2261
272.4
159.249
105.758
79.6973
65.9814
61.4527
56.6984
54.7448
50.0803
43.8172
38.9286
35.7473
34.0029
32.8084
32.1339
31.4444
31.1786
30.808
30.6192
30.144
171.722
133.642
100.345
78.696
63.7601
51.7526
43.5797
38.5188
35.8933
34.3469
33.5869
32.8293
32.2513
31.5124
31.0231
30.4036
30.2101
30.2357
30.3076
30.4871
177.59
168.86
135.509
108.683
86.888
68.4323
52.7854
43.6541
38.879
37.0015
36.3262
35.4625
34.3781
33.0192
31.6281
30.1336
29.2934
29.1715
29.2832
29.814
110.339
139.079
133.949
118.8
98.806
76.2978
56.5035
45.637
41.3405
40.039
39.0303
37.9452
36.4859
34.5761
32.4275
29.8749
27.9536
27.2262
27.1778
27.4879
214.676
176.369
121.228
90.4877
73.0332
60.9664
51.1809
47.0841
44.8332
43.6205
41.1339
39.1333
37.0882
34.8784
32.6418
30.043
27.9289
26.3779
25.5403
25.1775
101.484
123.073
113.699
80.075
65.3583
56.109
58.7068
54.5817
50.4546
46.998
43.8842
40.0784
37.3036
35.253
31.5381
30.1202
28.7822
27.3035
26.2208
24.6818
270.888
122.741
90.36
69.843
64.8246
64.1421
66.9648
61.0992
56.4977
48.8465
43.0398
39.1439
36.9398
35.1744
33.577
32.166
31.4889
29.612
27.9422
25.0415
254.644
143.072
82.5392
70.4692
66.0028
64.294
64.2652
59.3822
51.6346
45.0035
40.9373
38.7071
37.3184
36.5162
34.9568
33.3056
33.3743
33.2019
31.9623
27.043
285.487
167.684
104.228
79.4349
69.2757
68.6636
68.2325
61.1726
51.3082
41.9297
40.8807
40.1018
37.84
35.5042
33.1237
31.937
32.522
32.5203
32.0969
28.9049
328.949
169.154
101.38
82.8408
74.9022
73.725
69.4368
59.5432
49.2426
43.5236
39.8969
37.3848
35.6095
33.7205
31.1868
29.8219
30.3222
30.3138
30.0407
28.2179
156.435
152.863
129.921
105.902
87.0166
67.919
65.6923
55.8078
46.5357
44.5454
43.6103
41.9541
39.0706
36.4771
31.2519
29.4634
28.63
28.0128
27.7774
27.07
157.297
152.96
123.328
97.9147
77.7428
66.7566
57.1813
53.9875
51.6905
49.2547
45.9042
41.1541
37.7367
34.9459
32.2927
29.8152
28.0656
27.124
26.7379
26.4707
213.059
193.065
130.039
101.441
84.8386
75.2665
66.2575
61.6946
57.7658
52.354
47.1431
40.8092
36.3052
33.1647
31.1643
29.5902
28.5141
27.8679
27.356
27.061
235.032
140.701
122.191
107.957
91.7012
80.9465
72.759
66.5694
62.6208
53.8109
44.0215
36.1589
32.1101
29.88
28.8185
28.0396
27.7315
27.4653
27.3413
27.0964
122.971
174.292
151.097
135.994
113.174
86.8428
70.7232
59.7906
50.3532
40.975
35.1879
31.6768
29.6818
28.1776
26.9964
26.0263
25.6249
25.3429
25.3259
25.3167
154.453
173.812
148.85
139.353
129.772
115.207
91.0615
63.876
44.4434
35.3085
31.7026
30.4135
29.4658
28.1646
26.6839
25.1662
24.3254
23.768
23.6706
23.5912
74.9056
118.538
122.65
120.371
111.309
89.684
66.124
47.5441
37.7645
34.958
34.4115
34.6525
34.8349
34.7601
34.0086
31.2524
27.6601
24.8597
23.2866
22.5847
93.7152
73.5336
66.6284
59.4484
52.1883
47.5042
43.4524
41.3729
39.4508
37.6135
35.6529
33.4688
30.4361
27.739
26.7799
26.2033
24.9605
22.0457
18.3348
16.3183
103.6
64.2574
61.5755
65.3323
62.3917
57.0116
51.8412
48.2076
45.195
43.3264
41.2205
39.0367
36.7062
34.7848
33.377
32.0433
31.289
29.8988
29.1003
26.9567
171.451
120.282
88.7671
66.9227
56.4698
52.4641
48.1916
44.9952
40.0216
36.9523
34.5124
33.6003
32.8152
32.4486
31.9493
31.5868
31.296
30.8781
30.6482
30.076
143.877
150.224
112.06
70.3972
55.3921
48.5678
43.8503
41.5231
37.7069
34.8772
32.5064
31.3337
30.4876
30.054
29.7022
29.4608
29.2984
29.0322
28.8672
28.4836
274.269
181.076
105.733
69.4518
54.241
43.2148
36.9376
32.7285
30.9366
29.935
29.4444
29.1485
28.8497
28.6136
28.4009
28.2301
28.2307
28.2346
28.2464
28.2418
172.687
151.933
107.774
86.8882
70.1529
55.8724
43.2123
36.2001
32.827
31.579
30.867
30.3202
29.544
28.8346
28.1488
27.5628
27.3071
27.2773
27.3389
27.5375
143.087
133.585
121.774
100.355
78.5757
60.6125
45.3839
37.7698
34.6079
33.394
32.5118
31.612
30.4065
29.0959
27.8017
26.5822
25.7805
25.4904
25.4828
25.5995
180.189
180.487
119.133
77.3245
60.5395
49.7612
42.6301
38.7078
37.1571
36.0358
34.2821
32.8727
31.2372
29.5704
27.8769
26.3696
25.2457
24.5057
24.1109
23.9306
165.946
149.85
116.966
71.6504
55.4037
46.9395
46.3717
43.9913
41.1752
38.6913
36.1621
33.6343
31.721
30.2141
28.8164
27.3847
26.1351
25.0696
24.3032
23.6031
198.411
150.911
92.6433
59.2429
52.6133
49.8392
49.6528
47.7932
45.0414
40.2587
36.5312
33.9907
32.3489
31.0202
30.3613
30.0548
28.5292
26.7768
25.4044
24.017
339.17
159.225
79.2693
56.4408
53.2327
50.8486
50.9125
47.8349
42.7394
38.1244
37.4717
39.7357
38.9395
35.6442
33.9259
33.448
32.1121
30.0033
27.7925
25.1831
206.905
149.847
83.6553
59.5754
53.3076
50.6598
50.5818
46.7068
41.0731
35.482
98.0778
75.2581
46.0686
37.183
34.5775
33.8993
33.262
31.6051
29.8692
26.7738
253.338
151.033
89.2946
63.8256
55.0488
51.1897
49.0005
44.4733
39.6585
35.901
33.4333
31.8728
30.7737
29.9506
29.6756
30.3111
30.3179
29.7939
28.784
26.6653
154.787
131.538
103.189
79.8592
62.9766
52.2519
48.1992
41.2613
37.8982
36.0809
34.5641
32.9466
30.9972
29.5703
28.3245
27.5512
27.2904
26.8829
26.652
25.9511
483.657
176.376
115.355
85.7966
64.3524
55.2447
47.3253
45.0018
42.7614
39.9684
36.9305
33.5243
31.166
29.0769
27.7124
26.5296
25.9132
25.6167
25.5748
25.4605
170.394
183.034
153.315
100.456
74.4755
62.4829
54.0663
49.8984
45.7713
41.4712
37.4306
33.2217
30.4446
28.3292
27.1103
26.2813
25.815
25.596
25.5544
25.5612
269.206
180.612
120.653
95.4039
76.3664
65.4585
57.3223
51.5048
46.2676
39.7724
34.1918
30.0877
27.8514
26.4772
25.8046
25.3909
25.2341
25.1749
25.2064
25.235
450.626
196.615
119.793
96.9448
78.0897
64.3132
53.7044
45.2756
37.7833
32.3282
28.905
26.9325
25.6635
24.8251
24.2633
23.8599
23.6991
23.6374
23.6691
23.7118
278.876
166.827
119.84
106.371
93.6108
82.7604
63.8417
46.6855
34.9711
29.7769
27.135
25.9714
24.9669
24.1662
23.3984
22.8288
22.5525
22.5236
22.6221
22.785
134.632
133.697
107.75
93.4205
79.5104
63.3135
47.2884
37.6227
32.0238
30.5564
29.2289
28.6337
27.7117
27.013
26.0621
24.915
23.7351
22.8822
22.7012
22.9293
98.5905
80.5364
72.1333
63.5099
58.9031
51.8233
47.0973
43.1534
40.3532
37.7569
34.7061
30.6201
27.2193
25.4164
24.4305
23.1768
21.5761
19.8467
18.5197
18.6077
99.2344
85.2071
77.8974
74.1411
64.3029
56.4945
51.8278
48.3822
45.6957
43.3182
40.794
38.4575
36.4047
34.7315
33.3617
31.8393
30.591
28.7042
27.781
25.7429
250.586
108.261
84.8956
63.0502
57.8376
48.7817
46.0297
42.113
40.4351
39.1788
38.6658
38.4917
38.2986
38.2945
38.2025
38.1585
38.0521
37.7587
37.4549
36.8109
218.824
147.572
101.519
65.1247
56.1232
45.4408
42.6969
38.6844
37.5058
35.7415
35.2703
34.8123
34.7641
34.6954
34.678
34.6148
34.5055
34.2116
33.9552
33.5479
123.275
165.377
131.608
72.636
56.3941
42.2575
38.711
33.5428
33.1968
32.1956
32.4083
32.3255
32.5336
32.6186
32.7663
32.8156
32.8883
32.8239
32.72
32.5517
178.996
176.102
121.558
75.7098
63.7142
48.8142
42.0995
35.6173
34.4106
32.892
32.8742
32.5427
32.3748
32.1052
32.002
31.8649
31.8454
31.7968
31.7722
31.7823
105.533
131.674
129.324
101.934
72.2919
51.9255
43.6101
37.2533
35.6261
33.9287
33.5588
32.7158
32.1435
31.4279
30.8659
30.3518
30.0959
29.9794
29.9604
30.0335
105.831
138.332
122.997
74.7425
59.9447
46.2245
42.802
37.9985
37.6555
36.1045
35.3543
33.9962
33.0214
31.8722
30.8842
30.0001
29.3989
29.0577
28.8785
28.9332
230.5
155.864
126.737
71.4291
57.963
47.0173
45.0535
42.5637
40.0986
38.6093
36.5354
35.0354
33.5271
32.5027
33.3659
31.6024
30.3005
29.518
29.0303
28.9322
249.552
178.604
103.269
59.0015
53.0676
47.9801
47.5656
46.0838
43.6331
40.6899
38.2289
36.6208
35.2916
34.3006
34.775
34.9472
32.5982
30.9932
30.0405
29.6424
281.825
154.355
79.1682
54.5241
53.2709
48.6861
48.8641
46.6604
43.306
40.2054
40.2284
41.8947
40.6156
38.3414
38.3931
38.3549
35.5374
33.1724
31.6108
30.6147
210.775
126.971
83.4812
55.6994
52.1788
47.1202
46.5542
44.2984
41.4424
39.0247
66.323
61.0127
46.665
41.4703
40.4082
39.3387
37.0577
34.8317
33.1956
31.6001
345.782
131.127
89.0872
58.5972
53.0768
47.4274
45.775
42.8902
40.023
37.8007
36.1525
35.2516
35.1189
35.2343
36.4788
36.6835
35.3686
33.9153
32.8499
31.5415
107.433
129.689
106.343
69.3749
58.461
49.6031
45.282
40.1166
38.7646
36.9603
35.6269
34.2187
33.138
32.6124
33.543
32.6314
32.3325
31.8911
31.667
31.1319
231.207
184.921
119.558
79.2534
63.7507
53.5005
47.4953
44.9824
42.9141
39.9118
37.3706
34.6099
33.0078
31.5638
31.0416
30.5316
30.4645
30.5218
30.7454
30.8629
499.041
349.963
188.848
102.488
73.9624
59.8716
53.2694
48.6418
45.0245
40.8629
37.6591
34.3752
32.5526
31.0257
30.3972
30.0023
29.9541
30.074
30.396
30.7333
292.298
176.151
120.994
87.2024
72.8972
61.1154
54.9536
48.2986
43.8102
38.6565
35.2547
32.432
30.9802
29.8937
29.5086
29.3047
29.3394
29.5482
29.8341
30.1644
329.567
153.22
106.253
77.1325
68.6053
57.3003
50.3083
42.3243
37.4139
33.3321
31.3036
29.7271
28.9493
28.3326
28.1109
27.9838
28.0311
28.2414
28.4455
28.7816
232.859
121.846
101.591
83.615
77.2175
65.0872
54.0035
43.0952
36.3453
32.4312
30.4511
29.0398
28.1931
27.5346
27.1869
27.0827
27.1735
27.6394
28.0421
28.7146
174.799
121.859
88.605
71.8587
67.0429
52.1269
44.6769
37.9819
35.2121
33.2694
31.4503
30.1648
29.297
28.7293
28.3228
28.1465
28.1347
28.4705
29.215
30.8745
113.955
88.0122
72.5766
63.0887
61.8808
52.4955
47.3968
42.0533
38.6596
34.417
30.4483
26.896
25.4091
24.3283
23.2089
21.6817
20.619
20.1548
20.1402
20.5938
95.5105
95.8889
93.5699
81.3188
64.3279
54.3547
49.3458
45.5334
42.384
39.4664
37.1633
35.4109
33.8458
32.1382
30.2829
28.2918
26.4793
24.8155
23.6997
22.6673
214.273
130.501
104.82
65.7125
79.5386
55.1903
64.3425
52.168
58.5469
53.2632
57.2224
55.26
57.9327
57.5381
58.8967
58.5489
58.4693
57.434
56.8195
55.262
291.004
164.658
115.272
66.4765
72.3263
49.7651
56.3267
45.4009
50.9515
46.3554
50.0596
48.2383
50.467
49.8126
50.923
50.4728
50.481
49.7422
49.269
48.2695
261.146
238.595
164.322
76.3609
77.2654
50.4301
55.8721
42.746
47.9424
42.5852
46.5324
44.6796
47.1866
46.6947
47.9457
47.7529
47.9853
47.561
47.2989
46.6504
400.765
184.262
128.379
70.3538
75.7889
50.4682
55.1706
42.8336
47.3191
42.3903
46.0243
44.228
46.4275
45.8441
46.9657
46.6347
46.8367
46.5328
46.3557
46.0869
264.808
195.715
178.254
101.355
90.2682
56.1744
59.5248
47.1771
48.4724
43.7061
45.6649
43.854
45.1191
44.372
44.7551
44.5203
44.6127
44.4996
44.3873
44.3877
170.177
165.691
139.51
73.4439
77.8613
50.6546
53.6456
44.6183
48.3409
44.298
47.1699
45.0409
46.2025
45.1835
45.2485
44.3366
44.1967
43.9487
43.834
44.0294
207.995
163.967
136.359
71.6264
79.1597
58.5227
52.9655
47.1516
47.275
45.8607
46.0042
45.048
45.0364
44.3984
48.5986
46.1368
44.7637
44.408
44.1201
44.3788
247.623
158.018
109.33
64.3285
65.8392
54.8913
56.0878
53.0395
52.2654
51.1921
50.6709
50.3561
49.8921
49.403
50.7415
49.3342
46.8389
45.8041
45.4446
45.5986
242.833
149.364
95.9878
64.6483
68.1034
53.8686
55.8612
56.8568
55.7245
54.2341
54.246
55.075
55.575
54.4998
54.3615
51.9959
48.7183
47.3985
46.768
46.6136
239.835
143.425
103.109
65.3324
67.4267
52.2162
52.5539
54.9312
54.7752
53.6369
55.5191
56.6518
57.4142
56.0596
54.9677
52.1916
49.3488
48.0934
47.5291
47.057
231.206
145.774
102.188
67.0958
67.3273
52.7801
54.1385
53.3149
52.2729
51.6119
51.6833
52.4243
53.4569
53.3597
53.3061
50.5654
48.378
47.5443
47.3833
46.8215
222.845
159.832
135.883
71.3507
80.6787
58.8934
51.7185
46.7186
47.9413
46.6393
47.2201
46.5117
47.2203
47.0254
49.2915
47.211
46.6997
46.6649
46.8028
46.8038
217.424
148.406
130.529
74.4227
79.7879
56.7907
56.9752
52.2343
53.0184
50.073
49.5904
47.3017
46.8676
45.5731
45.4894
45.0469
45.2545
45.842
46.4459
47.0457
318.918
243.73
185.273
95.9387
90.6804
64.5827
65.6268
56.9413
55.951
50.9594
49.7294
46.6231
46.0338
44.5614
44.393
44.1651
44.4818
45.2901
45.9772
46.9425
178.043
164.911
136.819
81.6854
83.148
62.7013
64.7195
55.3384
55.6195
50.2118
49.7292
46.3981
45.8506
44.0998
44.0826
43.7032
44.0647
44.7868
45.4167
46.4319
234.765
147.529
125.591
72.2047
79.0743
59.3133
62.181
50.5632
51.4614
45.5705
46.1577
43.3907
43.7565
42.5934
42.8319
42.4529
42.7622
43.2264
43.7828
44.7929
154.961
129.81
110.065
75.5723
81.5373
60.3944
64.5838
52.8239
53.8479
47.0572
47.3184
43.9695
44.258
42.5775
42.5741
41.8569
42.157
43.2301
44.2571
45.8012
221.685
126.714
93.2454
69.3909
77.7922
51.8623
64.1495
50.2642
55.1307
47.4476
49.1714
45.8989
47.1884
45.941
46.385
45.7012
45.7184
46.406
48.0479
51.009
85.7919
96.4181
72.8234
60.7294
60.6194
49.0374
44.1281
37.5223
32.6089
28.3995
26.2799
24.7552
24.3929
23.5199
22.6764
21.5233
21.1045
21.0415
21.0772
21.2477
37.063
36.9714
79.2779
38.831
38.578
38.3605
91.8427
39.4707
81.4346
75.1366
39.3082
41.5006
93.3209
80.298
92.5854
36.0968
34.3451
37.2323
105.885
36.7063
35.5249
85.7534
33.8781
32.6412
109.112
91.3241
35.23
34.4392
246.754
277.259
231.918
83.8018
71.9531
78.4241
70.1865
235.042
225.483
222.559
68.9742
64.0702
68.1824
60.5453
239.868
225.045
237.752
62.4815
55.7364
57.9579
52.3605
238.827
238.669
234.249
53.8234
48.9177
51.1519
47.8529
220.401
227.987
208.551
47.6216
43.9966
46.7359
43.3782
206.856
202.359
184.128
43.1735
41.2929
42.4311
40.2974
187.827
179.428
172.769
40.7856
39.1566
39.8162
38.9686
154.847
172.712
157.287
38.7413
36.9668
38.8073
37.3204
216.541
258.562
203.501
75.2283
67.9811
79.3979
70.8117
211.216
195.14
183.491
66.0271
59.141
68.2986
60.2211
231.476
185.285
212.268
56.7579
51.1853
56.955
48.0483
227.301
215.919
214.509
49.9255
46.5115
46.4531
44.6239
201.39
211.643
201.643
45.557
43.1918
44.6144
44.2451
178.956
197.855
187.596
42.4267
40.6526
43.9275
42.4822
171.666
184.827
180.396
40.3043
39.4992
41.9521
40.1297
156.19
179.735
163.253
39.2733
37.4032
39.6201
36.9475
203.667
270.437
209.976
80.6855
70.6223
78.3668
67.9417
184.49
202.651
197.978
67.7269
59.6118
65.0885
56.7668
211.958
199.569
216.779
56.2351
47.8041
54.1935
49.465
219.424
220.42
218.774
46.3206
44.8429
48.5133
46.0269
204.846
213.029
199.531
44.7585
43.817
45.0784
42.2364
189.881
195.976
187.376
43.3278
41.6694
41.4775
39.7086
183.527
185.415
182.181
41.0395
39.1243
39.1718
37.608
165.681
181.345
166.794
38.5771
36.4773
37.2107
34.6723
210.975
313.868
237.189
81.8495
69.4032
89.8375
77.3309
197.393
217.67
193.112
66.2603
56.6051
71.2249
56.3282
216.865
193.615
205.1
54.118
49.6706
53.5825
49.9612
211.048
206.07
207.265
48.605
45.7003
49.6226
49.4813
195.05
206.283
201.413
44.7711
42.4487
49.3361
48.7228
184.037
200.093
190.921
41.8881
40.4641
48.184
46.649
177.746
188.43
175.906
39.9131
38.1819
45.6072
43.2495
162.901
175.663
154.455
37.6908
34.79
42.202
38.0727
62.7526
66.6078
62.5888
52.5641
50.3104
54.3576
51.4989
57.7772
60.9601
54.759
49.6295
47.711
50.3753
46.1617
50.5975
52.5525
47.2919
46.6997
42.5854
44.6876
40.724
44.2467
46.0289
42.7434
41.3535
38.0479
39.6228
36.9972
39.8953
41.7372
39.0745
37.1718
34.9025
36.452
35.6595
37.4102
38.3639
36.8205
34.368
32.9975
35.5044
34.9807
35.5235
36.4753
35.8147
32.6193
31.4809
34.722
33.6697
34.3848
35.653
35.2491
31.2131
30.3937
33.2784
32.3085
60.944
67.0858
63.5115
52.9881
50.6739
53.4497
50.7513
53.7097
61.5162
54.7804
49.5174
45.4097
49.4948
44.9905
46.3065
51.9693
43.7518
43.9643
39.9983
43.1824
37.9758
41.7364
42.0788
40.6304
38.8789
37.0609
37.0508
50.8877
39.2055
40.838
40.9679
37.1314
38.125
53.491
55.1447
37.5378
40.7574
39.5151
38.3001
38.161
54.0577
48.8207
36.7235
39.0335
37.3418
37.8709
36.0853
46.6242
40.59
35.5949
36.8504
35.3291
35.4236
33.307
39.0305
36.1728
63.5148
66.5824
60.8739
53.7172
50.4838
51.6937
48.0316
54.2337
58.6894
51.6469
49.0784
44.4187
46.8756
42.6991
43.4913
49.3843
44.615
42.595
37.7634
41.3116
37.8512
40.7391
43.5268
40.9258
36.5006
52.3563
36.9381
34.9013
40.4984
40.0845
37.7804
55.3169
55.9687
34.351
32.9128
38.4535
37.1448
35.6238
53.7034
44.3603
32.5184
31.5122
36.026
35.1617
33.8155
41.7905
36.8072
31.2124
30.4187
34.5581
33.4625
32.1814
35.8121
34.7153
30.2278
29.7062
61.992
71.1319
64.9631
52.2325
47.9681
53.4224
47.5406
51.4331
60.8175
49.666
46.7527
42.3817
45.4113
40.4509
44.6784
47.4894
44.1964
41.0547
37.6979
39.3257
37.0948
40.7055
43.7787
43.187
36.7715
34.5874
36.5581
35.4168
37.8938
42.8441
42.0555
34.0261
32.6309
35.0025
34.0657
36.087
41.4998
40.0649
32.257
31.2917
33.6161
32.4003
34.1424
39.1561
37.2262
30.9846
30.1414
31.8476
30.6187
32.275
36.4201
34.3435
29.913
29.3828
30.2103
29.0557
48.3256
52.0323
49.6423
47.3458
46.1283
49.463
47.4896
46.0084
48.5921
44.7465
45.722
44.0138
46.6543
43.7203
41.3372
43.4231
39.8385
43.1818
40.5147
42.7503
40.0906
37.3287
38.819
36.52
39.7894
37.6987
39.2935
37.672
34.4781
36.1395
35.8626
37.0837
35.5907
37.5482
37.7158
32.7215
35.8123
35.3741
35.2284
34.1661
37.7018
37.1724
31.2737
35.0574
33.7746
33.8287
32.9393
36.8023
35.5579
30.2094
33.3278
32.3039
32.7271
31.9138
35.1755
34.3669
48.9428
50.7168
48.3324
48.6768
46.9545
47.1477
45.1346
44.0363
47.1881
43.1899
46.0706
43.1804
44.3475
41.7398
39.1748
41.6384
37.2984
42.2433
39.6315
40.7864
38.2828
37.8836
37.3285
37.4447
37.8542
37.4364
37.1986
37.3685
50.5904
38.1794
43.3783
38.1787
45.723
39.1694
47.5002
39.4803
72.4486
57.4726
41.5861
40.6876
75.3864
56.6036
36.4522
53.0619
43.0405
39.9412
37.5875
52.2366
43.8846
33.3095
40.834
36.9697
36.932
35.1985
42.1725
39.3598
47.9533
48.7166
45.7181
46.6298
44.6096
45.2467
43.2746
42.6163
44.7068
41.1094
43.8042
41.2113
42.5167
40.0558
37.1199
39.9271
36.9153
40.2886
37.9694
39.2981
37.2949
42.9452
57.3435
36.1804
42.07
38.4689
275.594
36.1754
48.8269
97.3075
43.3231
235.721
43.2158
220.694
49.3996
50.792
32.2998
31.4266
78.5144
52.6189
34.2275
33.8113
38.4738
31.1774
30.564
48.2435
41.4065
33.7589
33.7341
35.6277
30.4364
30.0458
40.2779
38.8392
33.7719
33.9423
45.521
49.319
44.7618
45.2781
42.9906
45.7777
41.6638
40.7871
42.949
39.0378
42.1939
39.6927
40.4137
38.1423
36.7221
38.1051
36.1155
38.9548
37.0042
37.5695
36.1198
33.9386
35.5852
34.3673
36.4224
34.9743
35.6173
34.4035
32.1999
33.9546
33.0025
34.6046
33.7434
34.0417
33.2197
31.0308
32.6029
31.4496
33.5321
33.1378
32.871
31.9996
30.1127
30.9899
29.9673
33.0703
32.968
31.7631
31.2747
29.6416
29.6564
28.7657
32.9711
33.2507
31.1931
30.8541
46.4725
49.6117
47.9365
52.3723
50.9028
53.79
53.6456
44.3974
47.201
44.576
50.4421
49.1735
53.299
51.725
41.3334
43.7129
41.3166
48.9617
47.965
51.255
49.7131
38.7911
40.5826
39.0587
47.5012
46.3527
49.2082
48.2591
36.9468
38.9159
38.9808
46.2592
45.9389
48.209
48.3596
35.6136
38.9516
38.4885
45.7108
44.9993
48.4523
48.9946
34.5013
38.1938
37.1797
44.9474
44.618
48.9758
48.4684
33.3233
36.8565
35.9415
44.4286
43.7366
48.2285
47.687
47.4261
47.0919
45.4508
52.8762
53.2586
50.4563
51.2733
44.1275
44.8244
42.7006
53.0233
51.7547
51.3648
50.9415
40.9416
41.9099
39.6116
51.3245
49.6885
50.5047
48.9858
39.7327
39.6219
61.2243
49.1903
48.5739
48.5532
50.8225
41.8644
64.0562
62.8038
48.6839
49.2763
52.0033
52.9235
41.1584
60.5994
51.7241
49.3392
50.1314
52.662
52.4776
38.852
49.1178
43.797
50.1679
49.5559
52.6149
51.7382
36.7273
42.6358
40.3542
49.2593
48.4288
51.3187
50.3377
44.9325
45.5614
43.9036
49.8705
50.8246
50.3652
50.473
42.2012
43.2245
41.0693
50.9224
50.5287
50.1598
49.0719
39.3016
40.4258
38.6603
50.121
48.7053
48.8133
47.6996
63.0816
38.1183
36.9882
48.2458
50.3026
47.3379
46.6516
64.9961
36.7293
36.0622
51.3953
52.3447
46.5936
46.5651
49.2468
35.8918
35.7337
52.1424
51.889
46.6461
48.2335
42.261
35.8019
36.004
52.1112
51.4977
48.6471
48.9117
40.0854
36.0793
36.062
51.1502
50.3232
48.8757
48.7583
43.6347
45.8269
41.9576
50.9529
50.1577
50.1389
46.3556
40.6542
40.8304
38.9038
49.6306
48.2968
45.5548
44.7612
38.3317
38.4411
37.1667
48.0548
47.1579
44.7944
44.2335
36.4739
36.6824
35.5239
46.806
46.1648
43.9055
43.4628
35.4191
35.2269
34.4978
46.1362
46.1783
43.5796
43.5176
35.1002
34.2071
33.4593
46.314
47.5578
43.4494
43.3916
35.1969
33.3019
33.0109
47.8052
48.0325
43.6585
43.9729
35.3455
32.9672
32.5341
48.0254
48.1445
44.0466
44.0574
53.5564
57.0412
57.2153
81.0989
77.4654
83.2665
88.2335
52.1882
56.991
55.7718
77.9761
81.1945
87.9839
87.8961
51.6565
55.459
54.3491
83.1728
81.337
88.0266
91.2421
50.5414
54.0052
53.6045
81.4674
83.3024
92.3405
95.1498
50.6222
53.6995
54.1401
84.5959
83.4806
95.7304
95.1816
49.8577
54.2722
54.5069
83.5499
84.0546
94.1111
90.0419
49.6341
54.428
53.8045
84.599
83.5708
89.483
88.4308
48.4785
53.5602
52.6371
83.5531
83.2324
88.1677
88.3627
56.9157
53.1568
55.0313
81.6701
89.0112
77.0656
87.6187
56.0031
55.3849
55.4742
89.0178
88.9466
88.1778
89.6907
54.5395
55.1576
54.2328
89.449
94.5497
91.5077
99.7295
54.0365
53.9411
55.254
96.1144
99.4644
101.697
106.824
54.9233
56.1777
57.153
100.127
99.5109
108.051
107.957
55.6441
57.0875
57.7145
98.1683
92.3833
105.963
96.8645
54.7956
57.6853
56.5774
90.9323
89.2861
93.9394
89.9699
53.3831
56.1475
54.7817
89.0036
88.5979
89.4821
88.6955
54.5682
53.3792
54.1409
77.7839
87.1209
77.8597
84.2851
55.0568
54.0037
53.3199
87.5589
88.9507
84.1121
84.4998
53.945
53.2017
52.5541
90.821
99.0089
85.3069
91.1435
54.6894
52.3747
52.2188
100.887
105.859
92.8791
95.9226
56.6298
52.325
52.7243
107.375
108.563
96.6786
97.4844
57.4037
52.976
54.3595
106.643
97.2901
96.5848
91.3584
56.4616
54.5335
54.3524
94.2339
89.9306
89.8844
88.1733
54.7755
54.2323
53.5821
89.3267
88.3219
87.8701
87.5352
53.7563
53.0215
48.9101
78.7537
82.6308
74.0217
72.1802
52.3611
48.2305
47.9959
82.2434
82.5499
72.3058
75.7181
51.8017
48.2443
47.979
82.8992
87.0847
76.5654
76.6005
51.5278
47.7154
47.7596
88.4424
90.9853
76.6809
79.0705
52.1641
48.0627
48.2117
91.6381
92.3365
79.4973
80.024
53.3412
48.1885
48.3407
91.7286
88.2189
80.0801
81.4617
53.4237
48.6881
48.9406
87.7744
86.9206
81.9015
81.8756
52.9851
48.9834
48.6465
86.7751
87.2138
82.0712
82.3277
40.171
36.9741
40.7416
37.4261
38.3789
37.1374
44.0264
48.4359
37.3307
52.3248
42.2847
40.1117
37.8823
211.959
72.528
56.8768
72.0172
247.936
48.6131
86.435
272.308
38.3567
38.0735
38.3059
38.481
37.5193
37.7015
38.7931
40.8279
37.9189
38.2911
43.3168
37.55
44.809
40.2749
50.0014
43.5897
38.5846
57.6136
38.2947
221.692
42.4209
73.652
259.531
62.042
83.0147
87.3808
283.938
52.8637
53.0035
38.9045
48.6163
40.7571
47.5566
40.1285
53.3827
97.9899
62.1407
81.4954
229.763
65.5586
93.3902
210.477
96.955
66.3288
80.5722
117.112
67.2022
88.1577
140.774
51.2685
38.7786
40.2364
46.1355
39.8233
48.2427
48.6007
53.4918
41.3653
41.0424
50.6421
40.7886
53.6477
50.2551
97.0237
239.387
67.2239
93.1577
93.17
220.301
70.639
95.6812
118.588
69.4885
89.2061
86.8768
147.738
71.0494
47.9754
82.4065
42.9243
248.397
41.5129
262.647
49.3947
35.8492
36.0441
35.4037
35.7598
35.7924
35.7792
35.1549
36.129
35.7242
34.8432
34.2698
35.7977
36.175
34.6881
43.6011
43.5125
63.9428
37.3555
269.581
36.5607
40.3005
49.3284
255.029
93.6885
46.5851
270.219
51.0378
44.5351
36.1815
35.9455
36.8582
36.2107
36.0436
35.4091
36.859
36.5791
34.652
37.332
35.8385
36.7364
35.0069
37.1193
47.4864
98.4961
42.3574
157.341
42.9711
209.476
46.6401
35.8006
35.5176
33.4343
33.8729
35.1941
36.0685
33.4923
35.4317
34.4321
33.0165
32.809
34.8096
35.0958
33.1303
50.5805
241.145
107.667
47.2708
225.926
51.1253
47.2716
48.9532
150.806
106.37
46.094
201.826
47.984
46.9089
36.487
34.3115
37.3209
34.9532
36.6811
33.9859
37.2093
36.1579
33.3932
36.7299
34.6819
35.8686
33.6709
36.9762
148.394
167.089
149.702
94.1153
80.3557
95.0202
82.0296
147.004
148.38
149.883
70.6771
68.1156
72.7969
69.315
146.696
152.778
154.538
65.0099
62.6247
67.2792
65.3537
143.997
154.379
152.686
60.724
59.5475
63.0612
60.6459
137.059
148.027
143.624
57.2826
54.6614
57.8119
55.3388
128.131
138.69
133.279
52.305
50.0959
53.1857
51.2037
117.575
127.334
121.478
48.5441
46.5181
49.5136
47.5957
100.12
117.646
103.841
45.6513
38.4557
46.8144
39.5704
172.034
172.721
165.794
98.808
94.3518
95.4086
90.1319
146.161
278.183
289.014
163.225
150.284
161.601
264.03
108.443
238.889
230.936
113.73
107.953
112.334
229.113
97.3037
233.201
226.643
94.7412
92.404
100.159
228.642
89.2339
243.061
243.123
86.0139
84.6578
90.4653
243.657
82.7689
227.603
233.02
80.0783
77.7599
85.0505
227.389
74.9721
214.324
214.021
73.0123
71.6991
76.4414
210.12
70.6352
197.274
196.61
69.1461
67.8373
71.9065
192.196
66.9315
179.498
181.342
64.8492
64.1806
67.4813
178.981
100.157
115.342
101.918
43.4121
37.4437
43.4339
38.7143
157.951
171.113
154.896
96.5733
85.4329
98.4147
89.519
129.141
237.294
260.789
146.538
130.406
145.971
233.97
96.5577
209.076
201.274
103.68
98.9792
102.14
197.631
82.7751
222.87
201.248
88.1273
86.4538
84.3875
208.9
80.2873
232.144
222.163
84.6345
84.0247
81.281
222.247
77.9024
214.354
212.07
79.8393
78.6129
78.4079
207.213
74.0919
188.958
191.731
73.8701
72.0877
75.2792
186.498
68.4127
173.51
175.687
68.5571
67.0789
69.9428
174.056
64.3255
171.727
172.14
64.5274
63.9095
65.2109
171.884
101.786
113.627
101.038
41.9476
35.8388
41.2735
33.7979
159.35
184.425
163.915
104.796
91.2896
104.385
88.688
130.663
234.565
263.927
148.115
132.156
147.796
236.221
93.2625
188.578
199.269
101.848
95.5242
98.9847
193.536
78.1203
190.81
190.93
80.4028
78.1497
80.4146
194.431
79.6089
219.681
219.688
77.6783
77.9672
78.8337
221.875
79.5021
213.428
218.258
78.6488
78.3439
80.1772
213.648
73.7946
196.468
200.502
75.476
74.4826
75.3643
196.458
67.9915
185.646
188.34
70.9442
69.8542
69.1634
186.698
65.1792
182.354
183.874
66.2443
65.567
65.6306
183.457
106.386
120.898
109.658
40.4508
33.1155
39.8812
33.0604
167.759
193.611
177.379
111.181
93.7615
112.708
101.161
134.153
245.353
278.556
153.349
133.034
153.493
249.347
93.2661
197.044
200.875
97.47
90.8369
100.988
193.377
81.143
205.689
197.547
80.6405
80.4564
81.1429
204.82
80.214
217.579
210.809
82.2519
82.0228
81.4283
210.08
75.9399
201.962
199.48
77.534
75.7856
76.9518
195.849
73.4896
188.57
187.531
71.8958
71.0531
74.0128
184.716
69.8889
179.946
177.657
68.4243
67.531
70.9065
175.066
65.4647
176.272
170.082
65.287
64.469
66.5162
169.01
105.573
107.504
99.8959
40.0739
33.0283
42.9644
36.9041
155.92
188.562
159.327
109.125
93.8427
108.76
91.8848
129.46
142.617
138.044
78.5546
66.9525
79.3612
73.7493
133.374
139.848
139.634
61.3593
58.8972
70.8082
69.9098
135.163
142.9
142.277
58.413
58.4405
69.1121
69.4775
131.232
141.429
137.962
58.1347
57.5409
68.5767
67.75
122.779
134.155
128.536