/*--------------------------------*- C++ -*----------------------------------*\
  =========                 |
  \\      /  F ield         | OpenFOAM: The Open Source CFD Toolbox
   \\    /   O peration     | Website:  https://openfoam.org
    \\  /    A nd           | Version:  10
     \\/     M anipulation  |
\*---------------------------------------------------------------------------*/
FoamFile
{
    format      ascii;
    class       volScalarField;
    location    "4.5";
    object      omega;
}
// * * * * * * * * * * * * * * * * * * * * * * * * * * * * * * * * * * * * * //

dimensions      [0 0 -1 0 0 0 0];

internalField   nonuniform List<scalar> 
12920
(
21.8088
71.5393
106.595
113.204
110.056
98.9366
85.013
76.319
70.3357
66.912
63.8199
60.1354
55.6659
50.9171
47.6281
45.5354
44.8445
43.8521
43.3222
41.6273
40.0369
141.734
154.341
146.536
132.955
126.391
110.532
94.5644
79.9735
71.4698
67.5353
66.324
65.6496
65.2248
64.3633
63.0588
62.1428
60.3797
59.3475
56.993
194.425
220.4
187.311
160.968
141.362
132.598
112.141
96.8186
83.508
76.3412
71.2024
68.8055
66.7458
65.4864
64.3261
63.2678
62.7453
61.6117
60.9639
59.2519
144.191
162.432
152.265
133.913
115.248
99.8782
88.1803
79.3504
73.0948
69.1759
65.8293
63.6708
61.6619
60.1875
59.541
59.5507
59.882
60.0293
60.0307
59.5985
129.773
179.244
180.942
154.439
120.877
107.098
96.1338
88.2669
80.2955
74.7242
70.1032
66.2598
62.6706
59.8093
58.0863
57.2376
57.1452
57.2355
57.7368
57.9137
143.056
254.009
261.18
240.202
175.55
126.231
100.193
89.0704
83.8405
80.805
78.0269
74.1644
69.568
64.7042
60.2554
56.9525
54.8567
54.2002
54.3205
54.446
279.016
275.811
255.182
189.106
135.686
106.373
94.1673
89.0387
88.411
87.5051
85.0485
80.6431
75.5991
70.4478
64.1761
58.2568
53.7935
51.1581
50.3736
49.8454
54.3353
138.555
190.925
166.84
123.191
105.429
167.723
145.99
146.951
145.901
141.297
133.039
123.199
114.261
69.8602
63.2451
57.2557
52.1657
49.9776
47.6071
201.308
205.258
184.078
132.503
114.905
180.103
303.581
238.996
232.861
242.224
233.915
218.326
203.179
184.472
115.56
67.1054
61.1677
54.9988
51.102
46.8681
413.635
229.833
176.475
131.788
113.069
170.722
262.313
210.569
215.257
232.015
221.305
195.437
175.921
171.672
112.59
66.7315
62.7252
57.1756
51.8115
46.6332
490.752
348.008
217.839
152.37
120.842
180.131
263.527
195.983
185.76
217.316
217.688
200.968
187.662
182.947
119.548
68.1258
63.511
58.4949
53.1497
47.5513
232.27
227.452
192.286
160.935
129.531
190.697
276.708
202.55
199.68
217.754
206.399
191.974
182.106
176.795
116.265
67.3537
63.8272
59.5626
54.683
49.7197
250.976
261.156
211.724
169.153
137.779
120.602
187.781
135.37
130.189
135.041
134.129
127.682
118.228
109.322
64.1029
59.9605
58.5636
56.6032
54.1727
50.9396
291.285
269.929
195.766
163.649
144.237
132.964
115.691
106.104
99.648
93.2453
86.3842
79.1715
73.427
67.3549
62.5686
58.5806
55.9101
53.3358
52.1586
50.6145
285.54
222.753
184.865
169.591
163.022
153.678
135.595
122.528
108.955
96.8974
86.6172
77.5248
71.9194
67.5406
63.8066
60.0882
57.1891
54.1886
52.4576
51.0297
112.299
123.208
150.362
166.585
165.234
155.65
137.128
123.677
109.214
92.3372
77.5645
67.683
63.0428
60.5287
58.9489
57.0719
55.6893
53.8246
52.9852
51.4848
131.884
114.345
156.929
176.673
170.777
141.058
117.674
101.629
86.2727
73.8707
65.9614
61.44
57.9234
54.8904
53.318
52.1871
51.7487
51.0708
50.7546
49.9008
255.422
190.592
174.524
171.008
162.872
141.407
116.598
92.9649
76.2514
68.4936
64.2872
61.5786
57.5391
53.3672
49.4373
47.0794
46.108
45.8956
46.0585
46.4974
77.543
148.725
148.685
137.754
131.289
112.842
88.7994
73.9642
67.5036
67.0086
66.6201
65.1885
62.6411
59.8594
54.9779
49.4225
45.3727
43.1209
41.7928
42.0122
100.433
109.063
114.327
109.525
94.6175
88.9093
80.966
76.3704
71.7891
68.8746
66.2475
62.0232
57.1922
54.7297
52.2604
49.0471
46.9959
45.5847
42.3786
33.7804
20.1614
49.5711
59.7491
61.2299
58.9968
54.8619
49.096
44.591
40.7233
39.0347
37.6245
36.2071
34.2701
32.3698
30.9568
29.7143
29.1597
28.1156
27.5175
25.8463
183.111
154.106
111.535
83.727
68.9076
65.3204
62.8838
59.6727
52.3599
44.5098
39.3894
36.6636
35.4329
34.4933
33.7329
32.7915
32.2085
31.49
31.1221
30.2311
263.001
158.595
105.798
79.6803
65.9307
61.3583
56.5735
54.641
50.0747
43.8603
38.9673
35.7687
34.0088
32.8085
32.1316
31.4378
31.1709
30.8017
30.6136
30.1403
169.223
133.658
100.706
78.8993
63.921
51.8892
43.6561
38.5478
35.8926
34.3386
33.5743
32.8208
32.2451
31.508
31.0201
30.3989
30.1983
30.2227
30.2939
30.4736
173.882
167.397
135.222
108.828
87.0319
68.5954
52.9167
43.7194
38.8923
36.9913
36.3092
35.4542
34.3781
33.0271
31.641
30.1445
29.2908
29.1611
29.2688
29.7958
108.955
138.154
133.118
118.469
98.848
76.5917
56.7579
45.7405
41.352
40.0188
39.0095
37.931
36.4818
34.586
32.4525
29.9044
27.968
27.2234
27.1685
27.4741
214.782
179.115
121.752
90.5965
73.1099
61.0827
51.213
47.0672
44.804
43.599
41.1293
39.1286
37.0889
34.8905
32.6658
30.0732
27.953
26.3922
25.5434
25.1742
106.166
123.035
113.583
80.5587
65.4855
56.1214
58.6613
54.548
50.4112
46.9888
43.901
40.1069
37.3226
35.2649
31.5559
30.1412
28.7983
27.3175
26.2362
24.6898
288.282
124.61
90.6666
69.7874
64.7474
64.0524
66.8845
61.0247
56.4687
48.8977
43.0848
39.1628
36.9462
35.1792
33.57
32.1753
31.5124
29.6432
27.9761
25.0634
261.75
143.026
82.8112
70.4579
65.9338
64.2463
64.2038
59.355
51.6881
45.0247
40.9499
38.7294
37.3207
36.5143
34.952
33.2953
33.3616
33.1974
31.9944
27.1066
283.476
169.057
105.197
79.9468
69.3686
68.6541
68.1586
61.1571
51.419
41.9785
40.8644
40.1044
37.8389
35.496
33.0993
31.9096
32.5018
32.5069
32.0985
28.9475
315.328
169.276
101.458
82.7773
74.748
73.6288
69.4775
59.6104
49.2866
43.5398
39.9068
37.388
35.6208
33.7324
31.1921
29.8068
30.3075
30.3028
30.0393
28.2385
160.384
152.394
129.702
105.885
87.1913
68.1537
65.8846
56.0304
46.5646
44.5183
43.6075
41.9733
39.108
36.5131
31.281
29.4752
28.631
28.0101
27.775
27.0714
166.782
153.041
123.514
97.9975
77.8625
66.8522
57.2313
53.9884
51.6886
49.2693
45.9544
41.2104
37.7761
34.9768
32.3228
29.8402
28.0779
27.1243
26.7341
26.4651
209.237
194.08
131.364
101.581
84.8028
75.3001
66.299
61.7176
57.8034
52.4243
47.2311
40.8911
36.3532
33.1912
31.1798
29.5988
28.5154
27.8653
27.3523
27.0539
238.982
141.602
121.819
107.604
91.5903
80.9634
72.7707
66.5907
62.6785
53.977
44.1895
36.2565
32.151
29.8932
28.8205
28.0354
27.722
27.4553
27.3327
27.0885
129.534
173.227
150.217
135.498
113.334
87.2538
70.9666
59.952
50.4957
41.0933
35.2559
31.7082
29.6974
28.1893
27.0059
26.0279
25.6201
25.3345
25.315
25.3074
153.102
172.154
147.987
138.584
129.401
115.376
91.6444
64.4132
44.7471
35.4134
31.7248
30.4154
29.4705
28.1827
26.7073
25.1802
24.3271
23.764
23.6619
23.5848
78.455
117.05
121.522
119.685
111.185
90.1222
66.6282
47.8402
37.8617
34.955
34.3842
34.625
34.8205
34.7566
34.0398
31.3301
27.7248
24.9022
23.3091
22.5856
97.1483
73.8664
66.6178
59.4744
52.2744
47.5384
43.4514
41.3571
39.4381
37.6101
35.6597
33.4943
30.4806
27.7638
26.7808
26.2131
25.0014
22.1321
18.4153
16.3356
104.191
65.7399
61.6779
65.2004
62.3767
57.0131
51.8464
48.2043
45.1775
43.3093
41.2174
39.0486
36.7254
34.7989
33.386
32.0477
31.2937
29.9089
29.1146
26.9772
180.717
120.787
88.987
66.994
56.4727
52.423
48.1654
45.006
40.0551
36.9757
34.5213
33.5963
32.8088
32.4412
31.9441
31.581
31.2924
30.876
30.6476
30.078
157.871
149.173
111.735
70.4191
55.3953
48.5327
43.8052
41.4933
37.7128
34.8908
32.5152
31.3337
30.4833
30.0471
29.695
29.453
29.292
29.0272
28.8632
28.4805
276.745
180.722
106.255
69.6903
54.3764
43.3186
36.9925
32.7503
30.9349
29.9268
29.4331
29.1383
28.8407
28.6055
28.3935
28.2209
28.2206
28.2249
28.2371
28.2329
166.906
151.375
107.873
86.9327
70.225
55.9881
43.3071
36.2467
32.8348
31.5717
30.8572
30.3146
29.5425
28.8352
28.1501
27.5612
27.3006
27.2686
27.3284
27.5266
143.397
133.642
121.524
100.489
78.7828
60.8633
45.5556
37.8412
34.6184
33.385
32.5018
31.6084
30.4103
29.1047
27.8139
26.592
25.7827
25.4858
25.4759
25.5912
163.032
178.204
120.923
77.6634
60.6589
49.8607
42.6488
38.6975
37.1383
36.0233
34.2801
32.8735
31.2445
29.585
27.8953
26.3857
25.2562
24.5105
24.1109
23.9276
158.542
149.665
116.907
71.9607
55.5137
46.965
46.3522
43.9552
41.1517
38.6832
36.1729
33.6446
31.7302
30.222
28.831
27.4008
26.1479
25.0793
24.311
23.6053
197.035
153.319
93.011
59.3195
52.5736
49.7767
49.5957
47.7319
45.03
40.2838
36.5472
33.9958
32.3525
31.0223
30.3645
30.0698
28.5508
26.7974
25.4237
24.026
352.378
159.449
79.4354
56.4308
53.1814
50.798
50.8548
47.8234
42.7698
38.1432
37.4455
39.72
38.9691
35.6846
33.945
33.4479
32.1258
30.0313
27.8311
25.2046
205.49
151.434
84.088
59.6876
53.2964
50.6098
50.5193
46.7096
41.13
35.4362
97.9326
75.33
46.1165
37.1672
34.5385
33.8729
33.2526
31.6182
29.8987
26.7985
248.589
152.823
89.5801
63.8491
55.0357
51.173
49.0486
44.4904
39.6761
35.9126
33.4328
31.866
30.7653
29.9376
29.6553
30.2888
30.3022
29.7959
28.7981
26.6803
156.187
131.732
103.207
79.8948
63.1291
52.4001
48.3294
41.3239
37.8989
36.0805
34.5721
32.9636
31.0135
29.58
28.3269
27.549
27.2858
26.8799
26.6504
25.9533
479.931
182.998
115.593
85.8749
64.4975
55.3362
47.3597
45.0045
42.7711
39.9971
36.9713
33.5638
31.1958
29.0973
27.7257
26.5367
25.9131
25.612
25.5691
25.4555
173.77
184.288
155.453
101.3
74.743
62.5982
54.1218
49.9362
45.8139
41.5233
37.4886
33.2706
30.4756
28.347
27.1184
26.283
25.8119
25.59
25.547
25.5541
262.481
181.912
121.047
95.4689
76.4096
65.5206
57.3645
51.5516
46.3418
39.8734
34.2754
30.1357
27.8749
26.4855
25.8053
25.3866
25.2268
25.1667
25.1979
25.2282
464.873
201.175
119.942
97.0198
78.3027
64.5218
53.8442
45.4082
37.8887
32.3984
28.9439
26.9525
25.674
24.8301
24.2648
23.8574
23.6937
23.6308
23.6616
23.7065
293.403
166.117
119.366
106.116
93.5112
82.9615
64.2258
46.9992
35.1358
29.8402
27.1599
25.9833
24.9774
24.1766
23.4072
22.8319
22.5495
22.5178
22.6144
22.7807
133.603
132.519
107.417
93.2793
79.6338
63.627
47.5634
37.7658
32.0683
30.5617
29.2278
28.6366
27.7195
27.0267
26.0845
24.9403
23.7582
22.8945
22.7027
22.9254
97.2636
80.3691
72.1083
63.5397
58.989
51.879
47.1312
43.1683
40.3568
37.7662
34.7393
30.6743
27.2589
25.4331
24.4535
23.2107
21.6161
19.884
18.5302
18.5947
101.531
85.2804
77.8717
74.0861
64.3406
56.5165
51.8291
48.375
45.6862
43.318
40.8037
38.4716
36.4175
34.7409
33.3711
31.8516
30.6087
28.7228
27.799
25.7591
256.616
108.228
85.0145
63.0355
57.8612
48.8176
46.0529
42.1433
40.4547
39.1922
38.6746
38.4988
38.3057
38.3009
38.2104
38.1673
38.0643
37.7751
37.4747
36.8302
231.071
147.631
101.845
65.1999
56.1581
45.4611
42.7039
38.6951
37.5161
35.7526
35.277
34.8169
34.7678
34.6995
34.683
34.6218
34.5143
34.2232
33.9678
33.5578
119.876
163.979
132.393
73.0389
56.5826
42.3816
38.7721
33.5791
33.2066
32.1993
32.4073
32.3265
32.5337
32.6202
32.769
32.8189
32.8932
32.8305
32.7275
32.5579
183.498
173.871
121.942
75.9435
63.8155
48.9216
42.1733
35.663
34.4245
32.8981
32.8756
32.5479
32.3808
32.1118
32.0083
31.8705
31.8506
31.8021
31.7771
31.7865
105.355
132.273
129.49
102.754
72.7997
52.206
43.7346
37.3267
35.6513
33.9438
33.5684
32.7285
32.157
31.4417
30.8791
30.3623
30.1031
29.9845
29.9648
30.0364
102.146
138.154
123.706
75.3216
60.1268
46.329
42.8156
38.0072
37.6505
36.1142
35.367
34.0143
33.0411
31.8937
30.9044
30.0168
29.411
29.0663
28.8839
28.9358
244.319
156.242
126.4
71.6823
58.0886
47.0947
45.0554
42.546
40.0859
38.6109
36.5501
35.0486
33.5416
32.5163
33.3885
31.6255
30.318
29.5306
29.0382
28.9356
234.704
177.762
103.811
59.1009
53.0652
47.9529
47.5275
46.0451
43.6374
40.7076
38.2446
36.6322
35.3042
34.3102
34.7882
34.9772
32.6262
31.0139
30.0541
29.6489
276.739
154.783
79.5808
54.5249
53.2499
48.6516
48.8095
46.6572
43.3292
40.2275
40.2096
41.8957
40.6535
38.3756
38.4168
38.3869
35.5754
33.2056
31.6353
30.6264
205.676
126.935
83.6247
55.7587
52.1843
47.1094
46.5104
44.3036
41.4705
39.0221
66.2885
61.068
46.7027
41.4721
40.4055
39.3555
37.0842
34.8606
33.2243
31.6181
349.043
132.738
89.2198
58.6789
53.0998
47.4152
45.8045
42.8983
40.0317
37.8101
36.1541
35.2479
35.109
35.2224
36.4689
36.6884
35.3832
33.9339
32.87
31.5572
103.465
129.073
106.963
69.677
58.6278
49.7193
45.3617
40.1281
38.7583
36.9722
35.64
34.2366
33.1469
32.6153
33.5484
32.6367
32.3374
31.898
31.6745
31.1401
231.623
185.648
120.144
79.4374
63.8769
53.5772
47.5156
44.9942
42.9417
39.9564
37.4193
34.6536
33.0412
31.5853
31.0553
30.5391
30.4677
30.5233
30.7454
30.8646
490.986
353.086
192.896
104.066
74.4011
60.0335
53.3364
48.699
45.0786
40.9234
37.7171
34.4226
32.5867
31.0473
30.4098
30.0086
29.9563
30.0734
30.3931
30.733
274.44
178.648
121.917
87.4467
72.9589
61.1703
54.9979
48.3664
43.8852
38.7331
35.3154
32.4751
31.0089
29.9103
29.5179
29.3088
29.3403
29.5462
29.832
30.1654
333.444
154.378
106.83
77.2781
68.7032
57.4246
50.4192
42.4416
37.4967
33.3903
31.3389
29.7523
28.9656
28.3437
28.1171
27.9867
28.0313
28.2396
28.4439
28.7827
231.59
121.734
101.458
83.439
77.1764
65.2097
54.1917
43.2632
36.4453
32.4881
30.4862
29.0664
28.2136
27.55
27.1963
27.0867
27.1727
27.6333
28.0393
28.718
169.79
121.971
88.705
71.8762
67.1081
52.3046
44.8099
38.0605
35.2459
33.3036
31.483
30.193
29.3204
28.7494
28.3387
28.1588
28.1518
28.4832
29.2193
30.8833
111.179
88.1212
72.6042
63.089
61.944
52.5944
47.4507
42.0883
38.6866
34.4562
30.4945
26.9294
25.4201
24.3425
23.235
21.7079
20.6286
20.1536
20.1292
20.578
99.0708
95.8062
93.3722
81.304
64.4182
54.3918
49.3551
45.528
42.3795
39.4604
37.1569
35.4032
33.8428
32.1426
30.2947
28.3078
26.4964
24.8291
23.7089
22.6691
216.474
130.63
104.488
65.5606
79.4351
55.228
64.3763
52.303
58.655
53.4438
57.3899
55.4648
58.1341
57.7659
59.1326
58.8076
58.7357
57.7085
57.115
55.5198
278.955
165.479
115.849
66.5342
72.3444
49.7987
56.3645
45.4651
51.0155
46.4672
50.179
48.3934
50.6294
49.9973
51.1166
50.6841
50.6969
49.964
49.5085
48.4742
260.249
235.485
164.71
76.6828
77.4408
50.6323
56.0319
42.927
48.079
42.7494
46.6801
44.8502
47.3552
46.8803
48.1355
47.9566
48.1933
47.772
47.5281
46.8492
407.747
186.761
129.214
70.5652
75.9802
50.5753
55.3015
42.941
47.4277
42.5179
46.1597
44.3885
46.5954
46.0289
47.157
46.8378
47.0424
46.7402
46.5806
46.2842
280.016
198.822
179.013
102.447
90.9262
56.5156
59.8025
47.4759
48.6983
43.9276
45.8583
44.0541
45.3133
44.5728
44.9545
44.7255
44.8182
44.7043
44.6079
44.5836
173.135
168.073
141.187
73.8677
78.1493
50.7703
53.7395
44.6984
48.4602
44.4527
47.3437
45.2364
46.4035
45.3927
45.4599
44.5513
44.4077
44.1561
44.0568
44.2282
211.379
163.021
135.885
71.7204
79.3104
58.7306
53.1751
47.239
47.3443
45.9466
46.1147
45.1492
45.1537
44.5092
48.8399
46.3713
44.9871
44.6232
44.3478
44.5833
239.447
157.553
109.485
64.167
65.9004
54.9863
56.1612
53.0449
52.2866
51.2019
50.6867
50.3684
49.8989
49.4099
50.8469
49.5978
47.0815
46.0346
45.6854
45.8149
244.575
149.319
96.1003
64.4358
68.2667
53.9636
55.8644
56.8792
55.7503
54.2285
54.2234
55.0593
55.5682
54.4988
54.4704
52.2748
48.9771
47.6412
47.0214
46.8434
250.632
142.329
103.026
65.0826
67.6375
52.3922
52.5599
54.9458
54.7693
53.606
55.4725
56.6322
57.3895
56.0433
55.0639
52.4609
49.6027
48.3377
47.788
47.2927
220.92
145.745
103.171
66.9118
67.6146
52.771
54.0923
53.2948
52.2507
51.57
51.6298
52.3772
53.4169
53.3252
53.3835
50.8238
48.6189
47.78
47.6367
47.0596
222.084
160.262
136.782
71.888
81.1716
59.3357
51.91
46.7627
47.9754
46.6824
47.2758
46.5756
47.285
47.0934
49.5398
47.4527
46.9328
46.8938
47.0475
47.0367
216.525
150.627
131.398
74.7562
80.2029
56.9497
57.1568
52.4046
53.2484
50.3252
49.8573
47.5736
47.1297
45.825
45.7334
45.2847
45.4824
46.0646
46.6858
47.2797
313.312
247.169
188.869
97.4426
91.6004
65.0404
66.0423
57.2882
56.2784
51.27
50.029
46.9074
46.3052
44.8163
44.6347
44.3988
44.7061
45.5108
46.2131
47.1768
177.307
164.84
138.013
81.8099
83.4422
62.8301
64.9517
55.5662
55.9007
50.4983
50.0204
46.6878
46.125
44.3584
44.328
43.9425
44.2906
45.01
45.6546
46.6708
236.854
146.708
126.623
72.3343
79.5212
59.5764
62.5729
50.9113
51.8032
45.8794
46.4452
43.664
44.013
42.845
43.0729
42.6902
42.988
43.4465
44.0134
45.0256
158.095
129.033
109.991
75.344
81.7412
60.4853
64.8713
53.1066
54.18
47.3693
47.6144
44.2495
44.5244
42.84
42.8246
42.0993
42.3776
43.4368
44.4839
46.0386
213.992
127.226
94.3684
69.1875
78.1163
51.9746
64.4726
50.5648
55.4879
47.7909
49.4934
46.2064
47.4811
46.2372
46.6745
45.9941
45.996
46.6505
48.2917
51.2777
82.5514
96.0664
73.1729
60.7227
60.6576
49.1369
44.1817
37.566
32.6496
28.4274
26.2883
24.7524
24.3866
23.5241
22.6888
21.5274
21.096
21.0299
21.0645
21.2359
37.0529
36.941
79.1379
38.8521
38.5694
38.3493
91.7628
39.4444
81.3491
75.1264
39.2791
41.4841
93.2993
80.3714
92.3497
36.1108
34.3457
37.2108
105.688
36.7183
35.5266
85.8194
33.8769
32.6344
109.024
91.4672
35.2297
34.433
246.325
277.063
231.835
83.7846
71.9277
78.4026
70.1405
235.027
225.5
222.328
68.9144
64.0093
68.138
60.6055
239.324
224.625
237.399
62.4571
55.7984
58.0151
52.3752
239.064
238.429
234.494
53.88
48.9785
51.1586
47.8782
220.499
228.381
208.949
47.6814
44.0379
46.7705
43.4297
207.062
202.766
184.451
43.2009
41.3039
42.4769
40.3172
188.125
179.685
172.808
40.7955
39.1698
39.827
38.9611
155.091
172.724
157.179
38.7482
36.9605
38.7979
37.3038
216.515
258.881
203.672
75.1912
67.9386
79.369
70.7833
210.819
195.376
183.504
65.9969
59.1928
68.2871
60.3029
231.075
185.107
211.75
56.8148
51.2066
57.0779
48.1394
227.52
215.743
214.766
49.9377
46.5283
46.5037
44.6127
201.792
211.944
201.978
45.5753
43.2309
44.6019
44.2448
179.25
198.188
187.837
42.4657
40.6708
43.9296
42.4887
171.705
185.046
180.488
40.3146
39.494
41.9581
40.1351
156.1
179.819
163.298
39.2673
37.3878
39.6233
36.9381
203.883
271.16
210.313
80.6836
70.6002
78.3809
67.9697
184.595
202.902
198.042
67.7151
59.6891
65.1329
56.8417
211.358
199.539
216.42
56.3582
47.8851
54.2603
49.4764
219.519
220.213
218.916
46.3645
44.8304
48.5214
46.0417
205.138
213.369
199.761
44.7485
43.8242
45.1014
42.2546
190.094
196.223
187.554
43.3338
41.6716
41.4906
39.7175
183.612
185.569
182.244
41.0413
39.1249
39.1826
37.6167
165.649
181.393
166.655
38.5741
36.4611
37.2184
34.6778
211.357
315.329
238.619
81.9192
69.4615
90.006
77.5197
197.368
218.889
193.129
66.3459
56.685
71.4753
56.4602
216.624
193.629
205.046
54.167
49.6783
53.6473
49.9322
211.297
206.097
207.423
48.6141
45.7124
49.5785
49.4381
195.268
206.523
201.691
44.7862
42.4565
49.3088
48.7156
184.21
200.414
191.301
41.8943
40.4779
48.1934
46.6754
177.817
188.853
176.226
39.9312
38.2013
45.6502
43.2938
162.729
176.022
154.841
37.7097
34.8026
42.2459
38.1219
62.6894
66.5578
62.5492
52.4999
50.2452
54.2975
51.4602
57.7162
60.9228
54.8043
49.5636
47.6733
50.3482
46.1839
50.6483
52.6007
47.3152
46.6837
42.614
44.7146
40.747
44.2948
46.0453
42.7663
41.3839
38.0715
39.6426
37.0078
39.9239
41.7655
39.1079
37.1918
34.9134
36.4591
35.6583
37.4181
38.3925
36.8303
34.3747
33.0012
35.5029
34.9833
35.5329
36.4793
35.8104
32.623
31.486
34.7289
33.6851
34.3799
35.6486
35.2394
31.2159
30.3968
33.2935
32.3168
60.9014
67.0092
63.4789
52.9261
50.6411
53.3871
50.7306
53.7528
61.501
54.8496
49.5014
45.4377
49.4885
45.0397
46.3367
52.0789
43.8431
43.9986
40.0249
43.2499
38.0327
41.7499
42.1329
40.6192
38.8993
37.0535
37.0659
50.7747
39.2282
40.8191
40.963
37.118
38.1078
53.409
55.1284
37.5457
40.7587
39.5162
38.2895
38.1621
54.0897
48.8366
36.7206
39.0341
37.3422
37.8847
36.1184
46.6465
40.6144
35.5878
36.8488
35.3127
35.4559
33.325
39.0456
36.1587
63.4841
66.5528
60.8846
53.6476
50.4668
51.692
48.0277
54.3014
58.7195
51.7108
49.0763
44.4689
46.8852
42.7322
43.5737
49.4435
44.6379
42.6628
37.8153
41.3438
37.8726
40.727
43.5438
40.9385
36.5102
52.281
36.9541
34.904
40.4988
40.0994
37.7905
55.2632
55.9485
34.3519
32.9085
38.4529
37.1521
35.6275
53.7064
44.3885
32.5125
31.5035
36.0222
35.1667
33.8197
41.8102
36.8009
31.2035
30.4069
34.538
33.466
32.1825
35.7953
34.6797
30.2144
29.6868
62.0305
71.2323
65.093
52.2842
47.978
53.5374
47.6181
51.4973
61.0006
49.7604
46.7752
42.4084
45.4895
40.4777
44.6958
47.5397
44.1819
41.0759
37.7139
39.3386
37.0907
40.7146
43.7522
43.1634
36.7847
34.59
36.5518
35.413
37.8982
42.8314
42.0569
34.0265
32.627
35.0006
34.0685
36.0955
41.5113
40.091
32.2517
31.2864
33.6235
32.4143
34.1549
39.1899
37.2592
30.9795
30.135
31.8623
30.6286
32.2823
36.4511
34.3825
29.9054
29.3687
30.2193
29.0613
48.2648
51.9755
49.607
47.3011
46.0843
49.4119
47.4666
45.9784
48.5693
44.7667
45.6804
44.0031
46.6439
43.7408
41.3616
43.4478
39.8607
43.1848
40.5351
42.7741
40.1153
37.3478
38.8388
36.5273
39.8086
37.7157
39.3166
37.6795
34.4867
36.1403
35.8555
37.0986
35.6019
37.5465
37.7118
32.7253
35.8063
35.3798
35.2372
34.1761
37.7001
37.1899
31.2783
35.0697
33.7946
33.8381
32.9474
36.8249
35.5812
30.2111
33.3464
32.3135
32.7331
31.9202
35.1961
34.3784
48.9148
50.6621
48.3186
48.6214
46.9383
47.1115
45.1337
44.0621
47.1867
43.234
46.0692
43.2043
44.3544
41.7716
39.1996
41.6951
37.3395
42.2698
39.6567
40.8226
38.3007
37.8853
37.3395
37.4607
37.8727
37.4394
37.2081
37.381
50.5026
38.1468
43.3043
38.1447
45.6509
39.1294
47.4093
39.4893
72.5075
57.5286
41.581
40.7218
75.5038
56.6957
36.4958
53.1239
43.0881
39.9834
37.6289
52.319
43.9329
33.3295
40.8647
36.9599
36.9684
35.214
42.2063
39.3655
47.9433
48.7145
45.7149
46.5893
44.611
45.2489
43.2777
42.6614
44.7153
41.1372
43.8142
41.2435
42.528
40.0763
37.1612
39.9542
36.9341
40.3244
37.9918
39.3174
37.3097
42.9479
57.09
36.1889
42.0665
38.4503
275.837
36.1791
48.8152
97.2005
43.2982
236.102
43.1933
220.969
49.383
50.8634
32.2914
31.4142
78.6826
52.7012
34.2194
33.7972
38.4718
31.1643
30.5473
48.3006
41.4142
33.7435
33.7151
35.5915
30.4176
30.0208
40.273
38.8231
33.7506
33.9123
45.5282
49.4047
44.8269
45.3205
42.9976
45.8475
41.7018
40.8083
43.01
39.0552
42.207
39.7079
40.4407
38.1469
36.7364
38.1132
36.1151
38.9681
37.0165
37.5728
36.1276
33.9404
35.5831
34.3679
36.4334
34.9783
35.626
34.4125
32.1945
33.9554
33.0061
34.6062
33.7402
34.0503
33.2281
31.0228
32.6098
31.4601
33.5272
33.1279
32.8807
32.0068
30.1014
30.9995
29.9715
33.0593
32.9536
31.768
31.2726
29.6227
29.6589
28.7641
32.9555
33.2282
31.1891
30.845
46.4311
49.5622
47.9136
52.3599
50.8579
53.7315
53.5961
44.3897
47.1906
44.5944
50.3986
49.1495
53.2597
51.7069
41.3523
43.7345
41.3411
48.9408
47.9538
51.2383
49.7035
38.8087
40.6059
39.0686
47.4908
46.3436
49.1996
48.2464
36.9599
38.9177
38.9814
46.2466
45.9295
48.1919
48.3452
35.6269
38.9549
38.5081
45.7027
44.9948
48.4392
48.9812
34.5126
38.2175
37.2041
44.9382
44.6139
48.9641
48.464
33.3337
36.8788
35.9564
44.4233
43.7333
48.2243
47.6881
47.4091
47.0514
45.4466
52.8087
53.2096
50.3984
51.2225
44.1482
44.8273
42.7254
52.9835
51.7342
51.3185
50.9105
40.9664
41.9388
39.6296
51.3055
49.6802
50.4783
48.9728
39.7298
39.6214
61.1248
49.1821
48.5598
48.5387
50.7854
41.8577
63.9951
62.8413
48.6659
49.2662
51.9704
52.919
41.1894
60.6472
51.7836
49.3304
50.1196
52.6663
52.4662
38.8898
49.1749
43.8359
50.1592
49.5546
52.6038
51.7358
36.7459
42.6657
40.3669
49.2579
48.4293
51.3164
50.3391
44.9301
45.5505
43.903
49.8076
50.7714
50.2931
50.4142
42.2258
43.2316
41.0842
50.873
50.4941
50.1095
49.0276
39.3228
40.4397
38.673
50.0902
48.6891
48.7679
47.6664
63.0054
38.1296
36.9909
48.2278
50.2621
47.3085
46.6227
65.0301
36.7301
36.0585
51.3617
52.3361
46.5638
46.5377
49.2958
35.8861
35.7211
52.1429
51.8718
46.6165
48.1841
42.2707
35.7877
35.9892
52.0915
51.4869
48.6005
48.876
40.0796
36.0631
36.04
51.1401
50.3204
48.8431
48.7325
43.6369
45.8795
41.9837
50.8922
50.1014
50.1443
46.3305
40.6646
40.8465
38.9021
49.581
48.2491
45.5207
44.7131
38.3413
38.4391
37.1731
48.0043
47.1175
44.7447
44.1999
36.4778
36.6901
35.5317
46.7692
46.1276
43.8713
43.4252
35.4173
35.2336
34.5054
46.0966
46.1419
43.5378
43.4835
35.0912
34.2159
33.4639
46.2748
47.5071
43.4147
43.3515
35.1862
33.3048
33.0088
47.7558
47.9933
43.6102
43.9325
35.3284
32.9633
32.5264
47.9874
48.1164
44.0054
44.0224
53.5621
57.04
57.2242
80.9884
77.4768
83.068
88.4415
52.1972
57.0033
55.7936
78.0378
81.4448
88.2724
88.3047
51.6651
55.4787
54.346
83.4884
81.7368
88.479
91.7292
50.5533
53.9993
53.5876
81.8928
83.801
92.8527
95.7384
50.6316
53.6773
54.1257
85.1345
84.0635
96.3584
95.8836
49.8688
54.2634
54.5011
84.1525
84.6792
94.8395
90.7459
49.6432
54.4228
53.8046
85.2594
84.224
90.1848
89.1311
48.4818
53.5591
52.6447
84.2398
83.8762
88.8736
89.1842
56.937
53.1555
55.0512
81.6864
89.2704
76.9511
87.977
56.0293
55.4041
55.4955
89.3553
89.4062
88.6019
90.2198
54.5361
55.1572
54.2151
89.9303
95.0494
92.0375
100.348
54.0201
53.914
55.2069
96.6435
100.067
102.416
107.637
54.9022
56.132
57.1326
100.761
100.232
108.854
108.751
55.6362
57.0726
57.6955
98.9266
93.1329
106.784
97.7273
54.7949
57.6655
56.5666
91.6546
89.9899
94.7468
90.7087
53.3826
56.1369
54.7788
89.7132
89.3409
90.2179
89.5261
54.5831
53.348
54.1215
77.9709
87.5131
77.9485
84.7075
55.0715
53.9893
53.3093
88.0093
89.4927
84.571
85.0338
53.9222
53.188
52.518
91.3614
99.6343
85.855
91.7288
54.6391
52.3396
52.1788
101.617
106.671
93.4822
96.6052
56.6053
52.2817
52.6792
108.182
109.389
97.3825
98.2727
57.3786
52.9299
54.3177
107.493
98.18
97.407
92.186
56.4448
54.4949
54.3199
95.0648
90.6838
90.6782
88.9532
54.7671
54.1998
53.5552
90.0759
89.0942
88.6492
88.3926
53.7297
53.071
48.9133
79.1
83.0278
74.2331
72.4649
52.3411
48.2225
47.9708
82.6768
83.0749
72.6298
76.2226
51.7598
48.2222
47.9591
83.4479
87.6784
77.0926
77.1849
51.4782
47.6958
47.7372
89.0507
91.6742
77.2853
79.7621
52.1142
48.0361
48.1859
92.3474
93.1225
80.2073
80.7654
53.2995
48.1612
48.3113
92.5371
89.0048
80.8326
82.2495
53.3899
48.6546
48.9145
88.5526
87.7006
82.7005
82.6867
52.9587
48.9554
48.6228
87.5565
88.0493
82.893
83.1994
40.1466
36.9732
40.6832
37.4136
38.3626
37.1352
43.9567
48.2454
37.3408
52.3065
42.2771
40.0986
37.8897
212.185
72.4192
56.7726
71.8866
248.469
48.5497
86.2992
272.867
38.359
38.093
38.3179
38.4959
37.5282
37.7141
38.7981
40.8045
37.9059
38.2941
43.2594
37.5512
44.7416
40.257
49.795
43.5807
38.598
57.5353
38.3031
221.922
42.3957
73.5554
260.175
61.9568
82.8581
87.2612
284.598
52.796
52.9426
38.8721
48.5722
40.7285
47.5009
40.0906
53.3468
97.9057
62.0279
81.4392
230.193
65.4789
93.2053
210.843
96.9629
66.2905
80.5115
117.28
67.1554
88.1808
140.936
51.1832
38.7436
40.2031
46.0607
39.7834
48.1535
48.5284
53.435
41.3403
41.0137
50.6182
40.7522
53.612
50.205
96.966
239.92
67.1257
93.1554
93.0034
220.785
70.5901
95.6962
118.781
69.4812
89.2188
86.9118
147.916
71.0255
47.9471
82.0594
42.888
248.865
41.4683
263.18
49.376
35.85
36.0582
35.4119
35.7725
35.7915
35.7888
35.1621
36.1163
35.7178
34.8466
34.2696
35.7914
36.1655
34.6906
43.5913
43.5149
63.6555
37.3541
269.843
36.5658
40.2637
49.2974
255.551
93.3339
46.5488
270.772
51.0231
44.4799
36.182
35.9577
36.8679
36.2189
36.052
35.4164
36.8603
36.5649
34.6523
37.3231
35.8427
36.7261
35.0098
37.1087
47.4784
98.5396
42.3357
157.63
42.9508
209.764
46.624
35.7936
35.5114
33.4316
33.8709
35.1889
36.0598
33.4886
35.4227
34.4218
33.012
32.8009
34.8026
35.0846
33.1247
50.5747
241.576
107.601
47.2482
226.271
51.1175
47.255
48.9498
151.139
106.426
46.0825
202.144
47.9683
46.8967
36.4797
34.3099
37.3133
34.9511
36.6721
33.9824
37.2025
36.1495
33.3853
36.722
34.678
35.8584
33.6653
36.9693
148.339
167.256
149.586
94.2367
80.4032
95.127
82.095
146.755
148.121
149.657
70.6333
68.0311
72.7809
69.2181
146.556
152.606
154.42
64.9479
62.588
67.2068
65.3167
143.965
154.31
152.698
60.6899
59.5418
63.0589
60.6713
137.096
148.135
143.712
57.298
54.6975
57.8571
55.3741
128.241
138.81
133.438
52.3454
50.1311
53.22
51.2338
117.695
127.517
121.648
48.5723
46.5404
49.5502
47.6175
100.169
117.815
103.964
45.6667
38.4574
46.8359
39.5534
171.752
172.502
165.469
98.8114
94.2787
95.4092
90.0671
146.284
277.829
288.693
163.093
150.451
161.47
263.804
108.247
238.292
230.584
113.716
107.928
112.236
228.928
97.3564
232.966
226.495
94.7093
92.4039
100.174
228.366
89.2193
242.842
242.857
85.9999
84.6508
90.4723
243.523
82.9086
227.785
233.446
80.1607
77.8571
85.1534
227.772
75.0267
214.427
214.296
73.0579
71.717
76.5308
210.414
70.68
197.572
196.91
69.17
67.8714
71.9337
192.507
66.914
179.757
181.544
64.8638
64.165
67.5031
179.172
100.278
115.334
101.992
43.3764
37.4067
43.3851
38.6298
157.862
171.219
154.907
96.6453
85.3741
98.4986
89.4733
129.296
237.382
261.051
146.429
130.5
146.022
234.237
96.6197
208.898
201.25
103.675
99.0083
102.176
197.471
82.6939
222.131
200.649
88.1248
86.3973
84.3887
207.981
80.2522
231.932
221.924
84.5462
83.9642
81.2312
222.091
77.9206
214.731
212.392
79.8705
78.6532
78.4119
207.541
74.173
189.364
192.129
73.9915
72.1841
75.3392
186.878
68.4709
173.671
175.886
68.6314
67.1209
70.0109
174.196
64.3209
171.735
172.187
64.5342
63.8919
65.2217
171.914
101.78
113.639
101.072
41.9149
35.7683
41.2528
33.751
159.558
184.768
164.189
104.974
91.2656
104.618
88.6962
130.922
235.123
264.561
148.251
132.338
147.991
236.788
93.2883
188.943
199.551
101.911
95.6072
98.9978
193.919
78.1396
190.277
191.023
80.5229
78.1502
80.5496
194.183
79.5189
219.649
219.367
77.6077
77.9036
78.7138
221.784
79.5414
213.721
218.549
78.6241
78.3481
80.1575
213.95
73.8484
196.748
200.776
75.5042
74.4883
75.4251
196.717
68.0086
185.789
188.501
70.9649
69.8783
69.1929
186.83
65.1693
182.414
183.93
66.2505
65.5585
65.6305
183.498
106.456
120.884
109.667
40.4319
33.0696
39.8702
33.0189
167.996
193.916
177.734
111.213
93.813
112.773
101.198
134.417
246.18
279.331
153.513
133.375
153.687
250.218
93.4995
197.161
201.251
97.6751
90.983
101.241
193.489
81.0432
205.288
197.141
80.614
80.3776
81.0806
204.376
80.2165
217.513
210.701
82.2011
81.9937
81.3801
210.075
75.9399
202.175
199.694
77.574
75.8335
76.9542
196.064
73.4871
188.791
187.761
71.9123
71.0698
74.006
184.955
69.9338
180.085
177.88
68.4612
67.5612
70.9529
175.27
65.4953
176.285
170.185
65.3046
64.4755
66.5643
169.066
105.544
107.5
99.8876
40.0781
33.0038
42.9973
36.9372
156.744
189.342
160.037
109.419
94.2504
109.048
92.1933
129.46
142.953
138.151
78.9578
67.1657
79.5292
73.8248
133.182
139.849
139.568
61.4421
58.8923
70.7884
69.856
135.111
142.873
142.266
58.3647
58.3911
69.0562
69.4254
131.32
141.49
138.064
58.1092
57.5326
68.5521
67.7428