/*--------------------------------*- C++ -*----------------------------------*\
  =========                 |
  \\      /  F ield         | OpenFOAM: The Open Source CFD Toolbox
   \\    /   O peration     | Website:  https://openfoam.org
    \\  /    A nd           | Version:  10
     \\/     M anipulation  |
\*---------------------------------------------------------------------------*/
FoamFile
{
    format      ascii;
    class       volScalarField;
    location    "4.5";
    object      p;
}
// * * * * * * * * * * * * * * * * * * * * * * * * * * * * * * * * * * * * * //

dimensions      [0 2 -2 0 0 0 0];

internalField   nonuniform List<scalar> 
12920
(
60009.9
223038
131436
121046
72136.8
65618.6
33680.7
21228.3
2853.17
-7459.97
-18060.6
-23723.3
-28375.8
-29463.3
-29526.1
-27100.4
-23808.1
-19258.7
-12513.1
-7322.12
193823
246218
147115
136963
79038.3
66362.1
33488.1
19392.7
460.603
-10146.5
-20846.4
-26294.8
-30781.2
-31666.4
-31318.4
-28497.7
-24859.8
-19992.2
-13003.3
-7708.86
206397
239363
120410
124750
67783.9
55369
22908.9
9746.11
-8657.21
-18307.3
-28026.6
-32593.2
-36186.5
-36190.8
-35062.9
-31553.6
-27228
-21742.7
-14064.1
-8103.12
424459
234939
110807
104025
61425.9
49288.3
18712.7
2965.57
-16044.4
-26677.4
-36331
-40496.8
-43157.8
-42348.1
-40204.5
-35735.1
-30510.7
-24188.9
-15556.1
-8713.87
397930
267913
116745
99382.8
43980
30907.9
-2257.81
-15371.4
-35313.1
-43707.1
-51147
-53008.8
-53766.6
-51125.1
-47499.2
-41589.2
-35069.9
-27496.6
-17678.8
-9526
212802
138432
83374.1
62343.3
8890.38
-9721.02
-25259.8
-37309.1
-53023.8
-60851.4
-66213.6
-66846.1
-65576.8
-61465.4
-56022.1
-48577
-40434.1
-31490.8
-20294.9
-10573.9
288517
183566
64558.1
20829.2
-32299.2
-47026.2
-70607.5
-74097.5
-85267.2
-86277.7
-88210.2
-85052.1
-81155.4
-74340.1
-66693.2
-57043.7
-46983.9
-36179.5
-23258.6
-11759.7
-87666.3
43563.5
-38647.9
-58199.6
-89175.3
-92886.7
-99485.8
-103377
-107932
-108123
-106807
-102506
-96338.7
-88054
-78836.3
-66924.7
-54584.8
-41815.9
-26855.2
-13217.9
23904.8
68390.3
-79450.1
-98653.6
-137192
-127836
-133640
-140588
-142096
-137868
-132660
-125277
-115917
-104900
-93708.1
-78991.7
-63744
-48544.3
-31170.4
-14840.7
-207259
-111761
-168903
-171653
-214258
-188603
-187510
-190774
-184362
-175990
-165881
-153846
-140228
-125197
-109485
-91690.2
-73693.6
-55438.1
-35378.8
-16493.6
-377432
-228071
-278369
-264286
-281840
-257263
-249022
-241640
-229979
-216157
-200575
-183294
-165143
-146262
-126573
-104411
-83212.3
-62334
-39730
-18256.4
-464239
-350202
-375728
-346458
-361307
-325302
-310904
-295846
-278389
-258597
-237181
-214558
-191454
-168202
-143841
-117324
-92746.5
-69398.8
-43995.1
-19839.6
-325281
-411043
-480309
-449480
-442702
-408327
-382403
-356024
-332371
-304730
-276072
-246996
-218101
-189559
-158252
-129602
-102299
-75892
-48201.6
-21417
-622929
-491103
-575031
-533347
-525465
-481521
-454760
-416179
-382495
-344052
-308481
-272470
-238560
-204979
-173247
-141574
-111245
-82262.4
-52204.5
-22966.2
-454685
-600791
-682026
-635221
-617942
-557660
-514437
-466167
-422678
-378105
-336693
-296203
-258429
-221686
-186892
-152719
-120033
-88346.3
-56011.1
-24437.9
-615192
-789472
-879054
-774475
-730628
-651043
-591289
-520353
-465126
-411400
-363868
-318400
-276799
-236716
-199306
-162865
-128257
-93897.2
-59476.1
-25715.9
-1.4188e+06
-1.14335e+06
-1.04561e+06
-885826
-815310
-716237
-644438
-564799
-501768
-440418
-387518
-337863
-292765
-249837
-210036
-171564
-135015
-99081.1
-62522.3
-26817.7
-2.19566e+06
-1.48344e+06
-1.29287e+06
-1.04481e+06
-923220
-790951
-701131
-610225
-538400
-467782
-409223
-354884
-306625
-260785
-218925
-178514
-140363
-102784
-64856.3
-27574.3
-1.92219e+06
-1.54091e+06
-1.34187e+06
-1.10668e+06
-972067
-826938
-731121
-632714
-557728
-485379
-424772
-367111
-316130
-268288
-224499
-182715
-143349
-105132
-66645.1
-28198.6
-1.89371e+06
-1.57529e+06
-1.37997e+06
-1.14493e+06
-1.01163e+06
-851103
-750093
-645909
-568675
-494358
-432702
-373024
-320907
-271946
-227554
-185118
-145002
-106717
-66989.7
-28488.9
74541.1
213807
132872
121692
71964.4
65436.6
33638.5
21314.1
2889.58
-7380.95
-17987.8
-23645.6
-28326.2
-29441.5
-29511
-27076.2
-23790.9
-19251.2
-12507.6
-7336
90343.9
243228
143120
136764
78219.9
66212.3
33352.6
19380.5
520.997
-10038.4
-20808.2
-26291.2
-30764
-31669.2
-31309.7
-28497.5
-24859
-20014.8
-12993.8
-7723.37
341587
243539
116833
122523
66686.6
54954.1
22804.8
9790.38
-8595.05
-18196.1
-28003.1
-32571.2
-36158.8
-36180.4
-35048.1
-31538.7
-27218.3
-21754.1
-14048.2
-8124.54
323038
223812
108741
106111
61494.1
48477.6
18536.7
2963.06
-16015.9
-26632.5
-36298.9
-40452.7
-43116.1
-42311.9
-40171.1
-35721.2
-30496
-24188.3
-15557.1
-8720.19
238426
227748
116936
99579.9
45390.8
31801.7
-2986.93
-15987.9
-35357.7
-43686.5
-51152
-53000.4
-53748.8
-51089.9
-47463
-41558.5
-35046.4
-27496.9
-17659.4
-9529.48
180526
128453
76431.7
58944.2
8451.09
-9216.59
-24285.7
-36507.1
-52943.5
-60824.9
-66188.9
-66827.2
-65542.6
-61425.7
-55980.9
-48534.8
-40404.4
-31492.1
-20335.1
-10584.9
215565
176226
64742.6
20277.4
-32435
-47181
-70960.9
-74586.9
-85173.2
-86223.5
-88137.7
-84974.9
-81076.4
-74249.8
-66626.7
-56978.2
-46923.3
-36146.7
-23257.2
-11763.2
-32122.3
61533.8
-40837.1
-60564.2
-90222.4
-92967.2
-99884.5
-103437
-107680
-107885
-106621
-102293
-96156.1
-87898.4
-78634.9
-66771.3
-54438.3
-41727
-26834.9
-13207.3
-53549.4
71974.4
-77765
-100078
-137868
-127949
-133660
-140216
-141549
-137401
-132286
-124966
-115703
-104671
-93546
-78882.8
-63752.1
-48846.4
-31327.9
-14841.4
-174295
-108343
-170031
-174873
-215025
-188025
-186275
-190363
-184239
-175937
-165901
-153938
-140238
-125189
-109441
-91633.1
-73882.2
-55595
-35393.7
-16488.2
-531802
-266838
-287056
-262801
-284852
-257908
-249275
-241579
-229861
-216182
-200503
-183209
-165069
-146219
-126551
-104335
-83172.8
-62353
-39712.9
-18212.8
-496825
-366327
-377496
-344788
-361905
-325432
-311159
-295979
-278392
-258635
-237138
-214482
-191486
-168259
-143823
-117278
-92661.2
-69259.7
-43966.8
-19834.7
-475688
-431641
-485110
-450178
-441151
-408534
-382983
-356717
-333012
-305330
-276526
-247303
-218384
-189747
-158344
-129631
-102317
-75869.4
-48198.3
-21405.5
-696987
-497680
-575520
-534455
-524688
-481796
-455684
-416674
-382837
-344226
-308615
-272558
-238635
-205032
-173256
-141598
-111409
-82298.8
-52222.4
-22950.6
-605105
-607784
-680149
-636021
-617473
-556246
-515221
-466845
-422958
-378205
-336732
-296214
-258432
-221707
-186914
-152757
-120021
-88378.8
-56022.6
-24424.8
-702948
-793085
-879775
-774217
-731519
-649977
-590294
-520875
-465772
-411524
-363870
-318371
-276726
-236685
-199315
-162893
-128022
-93837.2
-59484.3
-25693
-1.50356e+06
-1.16101e+06
-1.04261e+06
-882463
-815246
-716327
-644236
-564187
-501025
-440295
-387399
-337821
-292739
-249833
-210074
-171614
-135036
-99174.9
-62544.7
-26802.7
-2.09494e+06
-1.47933e+06
-1.28643e+06
-1.04358e+06
-923198
-791873
-701691
-609691
-538149
-467697
-409394
-354947
-306641
-260821
-219140
-178829
-140539
-102852
-64857.8
-27551.8
-2.06819e+06
-1.54922e+06
-1.34049e+06
-1.10634e+06
-973014
-826878
-731162
-632551
-557796
-485450
-425020
-367172
-316233
-268458
-224623
-182810
-143416
-105201
-66603.3
-28175.3
-1.96648e+06
-1.57587e+06
-1.37665e+06
-1.14499e+06
-1.01048e+06
-850546
-750253
-645848
-568713
-494412
-432509
-373064
-321012
-272069
-227541
-185252
-145121
-106683
-67013.5
-28459.8
-4363.54
212887
126105
121795
71475.5
65034.5
33637.9
21447.7
3011.93
-7222.66
-17855.9
-23525.3
-28226.8
-29372.4
-29453
-27036
-23759.1
-19222.7
-12492.8
-7358.97
116393
224233
140893
135379
77182.2
65904.5
33386.4
19623
584.808
-9955.6
-20758
-26258.5
-30762.6
-31669
-31292.6
-28471.4
-24824.6
-20009.5
-12947.4
-7716.97
57605.2
215245
114758
120551
65735.5
54872.5
22998
10173.2
-8434.49
-18050.4
-27954.3
-32525.6
-36129
-36153.1
-35019.7
-31510
-27192.2
-21766.7
-14100.8
-8147.08
146682
204671
111879
106082
61697.9
48132.3
18398
3122.32
-15922.7
-26492.1
-36222.8
-40365.7
-43044.6
-42238.9
-40122
-35698
-30474.5
-24193.4
-15568.7
-8749.82
169430
214508
115655
100421
46249.3
32179.9
-3589.84
-16324.6
-35383.4
-43615.5
-51121.1
-52949.9
-53704.2
-51021.5
-47404.4
-41512.2
-35013.4
-27500.1
-17614.4
-9556.39
73250
109750
68999.6
55443.7
8782.09
-7607.34
-24399.9
-36294.3
-52896.1
-60647.4
-66101
-66760.8
-65472.4
-61323.7
-55913.2
-48464.5
-40356.3
-31492.2
-20301.1
-10618.3
290157
171739
68231.1
21542.9
-32020.5
-47303.4
-70355
-74755.8
-85049.3
-86264.7
-88099.5
-84867.7
-80976.5
-74117.2
-66508.3
-56838
-46810.6
-36102.6
-23329.8
-11817.3
81483.3
87945.3
-39681.9
-62103.4
-91051.8
-93082.5
-99583.1
-103256
-107237
-107598
-106424
-102046
-95940.6
-87677.1
-78436.4
-66486.5
-54183.7
-41698.5
-26907.1
-13272.1
-3905.19
72398.9
-66903.9
-102396
-137996
-128008
-133228
-139482
-140684
-136790
-131891
-124614
-115385
-104320
-93305.7
-79067.9
-64211.1
-49111.5
-31427.6
-14893.6
-247258
-92293.5
-171815
-178152
-215710
-187432
-185320
-189290
-183953
-175830
-166034
-154032
-140280
-125146
-109286
-91829.6
-73802.8
-55715.9
-35468.6
-16533.6
-398472
-245315
-276672
-262959
-285476
-258289
-249358
-241387
-229665
-215339
-200759
-182996
-164947
-146196
-126492
-103815
-83062.4
-62363.5
-39726.9
-18217.7
-510916
-378021
-371274
-343176
-361576
-325736
-311413
-296070
-278470
-258665
-237076
-214450
-191576
-168375
-143801
-117184
-92546.5
-69165.9
-43945.3
-19855.8
-536862
-440112
-483669
-449070
-441119
-409090
-383774
-357990
-333945
-306005
-277086
-247694
-218709
-190012
-158560
-129698
-102299
-75830.2
-48195.5
-21440.7
-621498
-471853
-576233
-535505
-524485
-482069
-456399
-417296
-383271
-344450
-308751
-272633
-238693
-205065
-173289
-141647
-111457
-82325.3
-52255.9
-23017.7
-533714
-604586
-678420
-637061
-615003
-555448
-516264
-467301
-423233
-378277
-336704
-296207
-258426
-221712
-186955
-152870
-120019
-88411.6
-56056.6
-24463.9
-759309
-816307
-875255
-773948
-731826
-649041
-589903
-520943
-466141
-411592
-363882
-318314
-276614
-236637
-199340
-162988
-127974
-93886.1
-59523.2
-25737.3
-1.51563e+06
-1.13718e+06
-1.03834e+06
-881392
-815877
-714396
-642717
-564095
-500804
-440205
-387319
-337759
-292712
-249826
-210119
-171799
-135052
-99307.2
-62617.8
-26838.7
-1.93666e+06
-1.45657e+06
-1.27798e+06
-1.04179e+06
-924406
-792905
-702820
-608717
-538073
-467495
-409613
-355016
-306692
-260867
-219502
-179075
-140569
-102851
-64904.5
-27611.8
-1.76853e+06
-1.52105e+06
-1.33181e+06
-1.10517e+06
-973437
-826882
-731430
-632515
-557854
-485625
-425094
-367297
-316455
-268754
-224762
-182892
-143453
-105180
-66497.9
-28195.3
-1.82611e+06
-1.58423e+06
-1.37178e+06
-1.14689e+06
-1.00967e+06
-850042
-750239
-645932
-568973
-494449
-432554
-373092
-321133
-272165
-227619
-185229
-145107
-106521
-67177.8
-28468.8
74306.6
188038
118186
121618
71225.6
64827.6
33630.3
21566.3
3187.9
-6975.9
-17679
-23350.9
-28074.2
-29279.4
-29381.5
-26995.6
-23722.8
-19192.3
-12494
-7389.08
87419
216119
136372
136052
75844.7
65837.3
33320.2
19737.2
656.217
-9804.33
-20642.3
-26172.8
-30747.1
-31643.3
-31260.5
-28413.2
-24765.5
-19989.8
-12958.9
-7700.85
-28849.1
203723
113184
120156
64727.4
55017.9
23109
10459.5
-8339.81
-17924
-27932.2
-32471.8
-36106.6
-36111.7
-34996.2
-31472.9
-27165.2
-21775.7
-14089.4
-8146.01
140217
193419
113689
105666
61653.7
48096.1
18254.4
3440.96
-15867.7
-26278.5
-36160.2
-40217.6
-42961.3
-42118.3
-40048.7
-35645.9
-30449.4
-24193.1
-15604.1
-8782.38
-89286.4
154197
112435
99523.7
46619.1
31789.8
-4052.19
-16670
-35435.3
-43578.3
-51107.4
-52883.4
-53656.3
-50912.7
-47318.8
-41431.3
-34976.3
-27502.2
-17684
-9613.15
-72976.4
90711.5
60635
53605.2
9756.31
-5569.28
-25558.4
-36587.2
-52941.6
-60383.8
-66105.5
-66707.4
-65443.1
-61210.2
-55834.5
-48385.3
-40313.1
-31487.6
-20346.9
-10671.1
272698
157870
66401.2
21054.3
-31940.6
-47758.8
-69491.3
-74692.2
-85011.2
-86443.5
-88105.2
-84821.5
-80942.6
-74012.6
-66383.7
-56697.4
-46716.2
-36087.2
-23472.5
-11938.2
-14712.3
95621
-50907
-64622.3
-92379.9
-93365.6
-97876.8
-102996
-106827
-107480
-106310
-101899
-95777.8
-87472
-78160.1
-66328.9
-54143.7
-41770.5
-26969.5
-13388.9
33919.7
53663.1
-64014.1
-105878
-139319
-128482
-132883
-138390
-139914
-136407
-131660
-124327
-115077
-103898
-93129.2
-79444.4
-64351.8
-49172.1
-31456.6
-14959.5
-211968
-92378.9
-170734
-181298
-216189
-187431
-185250
-188266
-183597
-175629
-165856
-153935
-140182
-124975
-109235
-91826.6
-73824
-55857.8
-35607.9
-16583.5
-343704
-248006
-285819
-265107
-286818
-258443
-249200
-240983
-229395
-215883
-200234
-182991
-165034
-146317
-126350
-103652
-82964.2
-62384.5
-39801
-18289.7
-594516
-390740
-373193
-341266
-361836
-326627
-311839
-296124
-278489
-258682
-237105
-214537
-191708
-168574
-143811
-116831
-92377.1
-69099.6
-44042.8
-19956.6
-538961
-436984
-483028
-449282
-441780
-409382
-384408
-359130
-334576
-306385
-277391
-247977
-218949
-190233
-158698
-129685
-102257
-75776.4
-48288.8
-21575.8
-602327
-491499
-574375
-537586
-524664
-482256
-456848
-417780
-383734
-344659
-308869
-272698
-238709
-205077
-173358
-141860
-111496
-82354.3
-52339
-23084.8
-515573
-567172
-670775
-634365
-611806
-555522
-517058
-467608
-423590
-378366
-336714
-296199
-258413
-221732
-187068
-152988
-120058
-88460.2
-56127.5
-24510
-731945
-824954
-876407
-774239
-732056
-648647
-590247
-521259
-466474
-411679
-363894
-318239
-276564
-236625
-199414
-163093
-128098
-94038.1
-59614.2
-25800.4
-1.44767e+06
-1.14972e+06
-1.03357e+06
-882513
-815953
-712279
-642063
-564148
-500940
-440200
-387321
-337750
-292727
-249856
-210327
-171894
-135074
-99410.2
-62785.9
-26984.6
-1.68479e+06
-1.42645e+06
-1.26702e+06
-1.04143e+06
-925809
-792683
-703055
-607834
-537778
-467179
-409910
-355112
-306823
-261101
-219723
-179179
-140508
-102855
-65003.2
-27714.8
-1.77902e+06
-1.51433e+06
-1.32435e+06
-1.10562e+06
-973879
-826900
-731557
-632440
-557867
-485725
-425309
-367464
-316696
-268945
-224881
-182958
-143538
-105173
-66480.3
-28209.6
-1.99591e+06
-1.58715e+06
-1.37698e+06
-1.14841e+06
-1.01019e+06
-849945
-750284
-646186
-569364
-494643
-432400
-373176
-321335
-272275
-227693
-185195
-145140
-106471
-67148.3
-28378.4
20702.8
184203
111378
121365
70806.8
64717.4
33618.5
21696.6
3406.14
-6593.06
-17451.9
-23125.3
-27900.7
-29140.5
-29278.7
-26953.9
-23693.9
-19182.4
-12472.2
-7405.44
170587
215002
137307
135003
74625.7
65956
33423
20026.4
803.472
-9648.57
-20545.9
-26137.8
-30756.3
-31633.4
-31251.6
-28335.8
-24663.6
-19925.3
-12947
-7699.25
17578.1
191294
118074
120773
63558.9
55673.9
23447.2
10824.6
-8239.61
-17858.6
-27923.7
-32419.5
-36080.4
-36063.2
-34974.5
-31431.5
-27145.1
-21791.5
-14059.8
-8142.61
-25958.9
172924
112068
104887
61702.6
48368.9
18224.9
3912.79
-15847.5
-25929.9
-36088.1
-39993.2
-42863.2
-41964.9
-39973.4
-35576.9
-30410.7
-24201.6
-15686.3
-8888.55
-70390.8
155069
111382
98859.1
46219.8
31304.4
-4218.13
-17032.1
-35382
-43562.2
-51078.4
-52798.3
-53586
-50767.7
-47225.6
-41337.2
-34945.2
-27520
-17819.7
-9742.04
-64277.8
112351
55970.6
50933.1
11169.5
-3927.32
-26133.3
-36907.1
-52936.6
-60016.9
-66139.3
-66546.7
-65401.3
-61017.5
-55756.3
-48307.5
-40289.2
-31502.8
-20478.3
-10794.2
70836.1
133661
62855.5
20408.2
-31228.9
-47296.3
-69291.2
-74646.4
-85011.8
-86668.6
-88093.2
-84835.4
-80904.4
-74077.5
-66289.7
-56610.9
-46659.2
-36140.2
-23559.3
-12053
-35007.1
76573.3
-52977.7
-65610.6
-92921.8
-93949.6
-96156.3
-102546
-106602
-107665
-106186
-101883
-95624.8
-87380.2
-78124.9
-66427.7
-54195.1
-41828.7
-27081.7
-13523.5
-69036.5
45281.3
-62767
-108180
-140902
-129401
-132586
-137911
-139432
-136293
-131543
-124077
-114764
-103532
-93178
-79400.8
-64165.9
-49043.5
-31353.7
-15123.1
-215094
-88551.1
-177247
-184059
-216177
-188073
-185705
-187537
-183256
-175410
-165578
-153641
-139939
-124804
-109256
-91857.4
-73926.3
-56044.7
-35769.3
-16729.8
-423238
-245103
-290794
-266234
-286418
-258288
-248603
-240446
-229093
-215631
-200029
-183100
-165150
-146435
-126283
-103491
-82871.2
-62392.2
-39871.5
-18439.1
-619377
-392745
-369418
-339712
-361370
-327538
-312267
-296084
-278443
-258694
-237227
-214671
-191879
-168794
-143836
-116932
-92153.1
-69008.1
-44085
-20085.1
-531432
-439905
-482344
-449388
-442215
-409495
-384899
-359762
-334557
-306399
-277423
-248066
-219021
-190214
-158573
-129678
-102253
-75662.6
-48370.2
-21688.5
-505909
-476104
-571976
-538173
-524736
-482228
-456473
-417931
-384077
-344750
-308923
-272708
-238675
-205020
-173462
-141933
-111582
-82412
-52401.9
-23173.2
-415125
-577014
-668689
-633745
-610912
-555662
-517447
-467714
-423736
-378374
-336661
-296156
-258412
-221743
-187163
-153050
-120205
-88573.2
-56182.8
-24595.9
-895818
-838658
-875481
-774424
-730339
-648345
-590641
-521404
-466609
-411657
-363801
-318181
-276559
-236699
-199528
-163137
-128177
-94223.2
-59674.2
-25903.5
-1.60826e+06
-1.15639e+06
-1.03701e+06
-886158
-815689
-711264
-641903
-564078
-501090
-440186
-387499
-337785
-292823
-249930
-210458
-171941
-135081
-99466.6
-62959.4
-27123.8
-1.86123e+06
-1.42451e+06
-1.26569e+06
-1.04253e+06
-927177
-791540
-702676
-606872
-537590
-467153
-410111
-355204
-307034
-261239
-219787
-179198
-140487
-102887
-65104.4
-27826.7
-1.71534e+06
-1.50901e+06
-1.31974e+06
-1.10769e+06
-974168
-826877
-731436
-632443
-557811
-485900
-425419
-367595
-316769
-269028
-224957
-183017
-143571
-105189
-66511.4
-28310.6
-2.03814e+06
-1.60374e+06
-1.37928e+06
-1.15046e+06
-1.0105e+06
-850371
-750292
-646631
-569819
-494590
-432409
-373249
-321483
-272328
-227689
-185173
-145092
-106400
-67128.9
-28448.9
-168628
-206383
-195112
-175706
-168529
-206103
-194974
-157154
-191439
-180679
-165958
-157109
-191357
-180649
-204845
-247713
-232732
-214917
-204542
-247669
-232667
-187654
-227586
-211736
-200510
-187572
-227529
-211718
-137251
-168895
-177252
-133625
-136916
-168020
-176524
-142184
-178001
-174807
-140300
-141716
-177545
-174644
-138343
-173384
-168155
-141741
-138065
-173276
-168096
-133606
-166288
-159869
-137591
-133402
-166265
-159837
-126917
-157504
-149455
-132438
-126743
-157506
-149473
-118040
-146620
-137318
-125099
-117905
-146646
-137340
-107400
-134123
-123627
-115800
-107303
-134106
-123594
-96001.7
-120055
-108566
-104772
-95983.6
-120028
-108541
-191383
-233402
-230937
-186600
-191094
-233481
-230912
-186140
-228823
-221281
-190576
-186032
-228761
-221174
-178214
-218384
-209118
-184287
-178172
-218294
-209142
-168568
-205927
-195519
-175959
-168557
-205934
-195498
-156994
-191789
-179891
-165890
-157035
-191767
-179834
-143749
-175829
-163140
-153909
-143762
-175797
-163112
-129031
-158811
-145479
-140229
-129030
-158770
-145443
-113540
-140925
-126940
-125193
-113564
-140897
-126902
-244074
-293456
-285449
-249072
-244043
-293476
-285521
-233203
-281937
-270235
-241602
-233096
-281963
-270204
-219672
-266002
-252513
-229898
-219731
-265968
-252455
-204648
-247801
-232946
-216177
-204615
-247785
-232931
-187695
-227834
-211948
-200528
-187643
-227815
-211905
-169745
-206573
-190195
-183249
-169697
-206508
-190181
-151054
-184762
-168204
-165098
-151014
-184759
-168216
-131828
-162650
-145532
-146233
-131798
-162672
-145550
-299713
-358937
-343309
-310894
-299855
-359214
-343506
-282930
-338249
-322070
-295975
-282950
-338497
-322400
-263628
-316457
-298160
-278391
-263629
-316773
-298451
-242620
-291621
-272340
-258621
-242614
-291904
-272576
-220255
-265538
-245544
-237153
-220223
-265783
-245715
-197164
-238714
-218403
-214505
-197184
-238875
-218521
-174000
-211655
-191492
-191471
-174027
-211774
-191616
-150541
-184854
-164749
-168237
-150542
-184971
-164835
-136830
-167902
-176341
-133186
-136608
-167639
-176028
-141518
-177283
-174554
-139769
-140829
-176503
-174223
-137896
-173215
-168074
-140923
-137429
-172969
-167991
-133247
-166240
-159817
-136982
-132988
-166148
-159761
-126598
-157500
-149477
-132013
-126353
-157493
-149479
-117804
-146658
-137338
-124728
-117608
-146680
-137324
-107213
-134096
-123578
-115489
-106998
-134066
-123503
-95846.9
-120013
-108429
-104437
-95734.2
-119935
-108362
-190844
-233615
-230888
-185385
-189947
-233387
-230680
-185963
-228717
-221100
-189567
-185678
-228469
-220877
-178152
-218243
-209152
-184036
-178074
-218089
-209252
-168555
-205947
-195487
-175857
-168591
-206348
-195346
-157063
-191757
-179785
-165988
-157134
-191628
-179598
-143776
-175784
-163098
-154014
-143829
-175833
-163056
-129029
-158755
-145431
-140275
-129017
-158715
-145411
-113470
-140887
-126843
-125165
-113476
-140874
-126845
-244036
-293746
-285559
-249254
-243954
-293807
-285666
-233044
-281996
-270193
-241453
-232862
-282067
-270157
-219738
-265957
-252449
-229721
-219745
-265921
-252421
-204596
-247780
-232917
-216223
-204529
-247743
-232805
-187587
-227799
-211895
-200467
-187211
-227672
-211778
-169665
-206489
-190181
-183023
-169541
-206414
-190180
-150998
-184765
-168225
-164967
-150959
-184781
-168261
-131753
-162685
-145526
-146191
-131769
-162732
-145593
-299890
-359627
-343694
-311190
-299989
-359976
-344158
-282961
-338688
-322587
-296041
-283009
-339229
-323207
-263648
-316949
-298613
-278448
-263704
-317543
-299045
-242609
-292067
-272716
-258666
-242595
-292489
-273059
-220194
-265943
-245828
-237097
-220085
-266297
-246041
-197194
-238992
-218640
-214450
-197238
-239179
-218823
-174044
-211906
-191738
-191551
-174115
-212092
-191926
-150508
-185087
-164862
-168341
-150568
-185276
-165053
-136545
-167746
-175933
-132753
-135870
-167934
-175431
-140611
-176282
-174102
-138604
-140051
-175663
-173751
-137232
-172876
-167948
-140106
-136881
-172606
-167755
-132860
-166112
-159749
-136518
-132751
-165949
-159615
-126223
-157493
-149470
-131740
-126022
-157378
-149368
-117508
-146674
-137308
-124425
-117343
-146582
-137190
-106884
-134046
-123464
-115177
-106594
-133929
-123287
-95532.4
-119894
-108215
-104031
-95339
-119714
-108042
-189656
-233341
-230566
-185107
-188837
-232628
-230101
-185566
-228348
-220794
-188501
-185213
-227889
-220506
-178046
-218032
-209311
-183687
-177909
-217807
-209198
-183139
-173461
-185779
-175804
-183104
-173455
-185775
-171507
-163190
-174640
-166070
-171399
-163220
-174763
-143838
-175950
-163050
-153989
-143789
-175938
-163087
-129003
-158709
-145417
-140226
-128904
-158764
-145489
-113356
-140883
-126759
-125032
-113345
-140947
-126801
-243903
-293990
-285691
-249182
-243652
-294064
-285728
-232794
-282073
-270141
-241105
-232552
-282044
-270063
-219712
-265915
-252402
-229471
-219536
-265841
-252353
-222369
-212206
-226657
-214715
-222606
-212710
-226552
-204409
-196709
-209453
-202104
-204844
-198266
-209045
-169515
-206398
-190181
-182953
-169548
-206411
-190221
-150961
-184788
-168280
-164994
-151043
-184844
-168384
-131716
-162756
-145560
-146276
-131869
-162878
-145725
-300032
-360345
-344381
-311605
-300140
-360482
-344824
-283022
-339455
-323438
-296122
-283038
-339954
-324003
-263712
-317752
-299191
-278495
-263719
-318210
-299446
-242583
-292641
-273206
-258669
-242583
-292927
-273410
-220063
-266460
-246149
-237070
-220086
-266673
-246282
-197256
-239295
-218941
-214501
-197327
-239432
-219099
-174145
-212222
-192037
-191669
-174265
-212389
-192205
-150544
-185386
-165080
-168514
-150748
-185561
-165316
-135689
-168185
-175259
-132445
-135363
-168770
-174779
-139878
-175474
-173646
-137968
-139584
-175002
-173362
-136754
-172520
-167673
-139562
-136636
-172252
-167453
-132682
-165877
-159546
-136337
-132766
-165705
-159404
-125914
-157309
-149310
-131615
-125744
-157136
-149113
-117257
-146528
-137132
-124171
-117095
-146337
-136939
-106448
-133873
-123211
-114855
-106047
-133680
-122992
-95152.6
-119635
-107868
-103603
-95326.4
-119413
-107959
-188591
-232499
-229906
-185429
-187990
-231719
-229278
-185099
-227713
-220397
-187679
-184803
-227177
-220071
-177833
-217714
-208950
-183341
-177624
-217431
-208652
-168424
-206021
-195107
-175447
-168229
-205446
-195037
-157049
-191481
-179721
-165628
-156828
-191421
-179730
-143745
-175863
-163107
-153709
-143549
-175735
-163140
-128851
-158789
-145520
-139988
-128698
-158846
-145599
-113222
-140974
-126665
-124817
-113298
-141035
-126805
-243535
-294242
-285727
-248648
-243080
-294249
-285653
-232462
-282017
-270023
-240574
-232187
-281887
-269920
-219472
-265803
-252345
-229155
-219289
-265696
-252279
-204276
-247677
-232711
-215694
-204082
-247619
-232778
-187204
-227586
-211756
-200058
-187450
-227681
-211848
-169584
-206444
-190250
-183098
-169674
-206539
-190349
-151087
-184876
-168436
-165135
-151204
-184983
-168608
-131791
-162936
-145671
-146419
-131899
-163099
-145796
-300164
-360866
-345008
-312055
-300181
-360612
-345295
-283039
-340134
-324171
-296103
-283033
-340508
-324386
-263723
-318351
-299529
-278453
-263714
-318516
-299529
-242605
-293034
-273510
-258697
-242652
-293140
-273564
-220122
-266782
-246377
-237203
-220225
-266851
-246419
-197359
-239539
-219199
-214642
-197462
-239646
-219338
-174317
-212494
-192295
-191836
-174490
-212669
-192453
-150755
-185650
-165288
-168756
-151075
-185897
-165514
-135372
-169075
-174663
-131960
-135303
-168906
-174449
-139484
-174892
-173268
-137901
-139299
-174665
-173118
-136583
-172167
-167399
-139371
-136502
-171980
-167299
-132723
-165667
-159378
-136339
-132667
-165575
-159353
-125625
-157092
-149042
-131512
-125437
-156989
-148922
-116979
-146261
-136878
-124005
-116989
-146122
-136820
-105930
-133616
-122935
-114669
-106009
-133504
-122854
-95173.7
-119359
-107807
-103500
-95443.9
-119320
-108001
-187842
-231615
-229096
-185563
-187529
-230765
-228692
-184724
-227024
-219987
-187266
-184542
-226685
-219830
-177566
-217352
-208576
-183053
-177434
-217202
-208425
-168198
-205365
-194988
-175312
-168157
-205212
-194857
-156759
-191365
-179722
-165485
-156669
-191248
-179681
-143500
-175709
-163141
-153542
-143450
-175667
-163140
-128664
-158852
-145616
-139874
-128606
-158860
-145627
-113125
-141030
-126588
-124766
-113331
-141019
-126844
-242929
-294336
-285608
-248050
-242572
-293731
-285469
-232119
-281833
-269900
-240151
-231975
-281674
-269836
-219226
-265671
-252248
-228965
-219075
-265580
-252170
-204050
-247581
-232785
-215487
-203933
-247488
-232774
-187444
-227692
-211871
-199922
-187390
-227672
-211905
-169686
-206559
-190376
-183074
-169699
-206569
-190414
-151227
-185010
-168646
-165174
-151251
-185034
-168666
-131687
-163121
-145593
-146432
-131943
-163114
-145812
-300171
-360785
-345390
-312141
-300139
-360147
-345119
-283029
-340638
-324416
-296036
-283011
-340686
-324113
-263709
-318601
-299538
-278372
-263671
-318599
-299250
-242666
-293225
-273639
-258637
-242701
-293348
-273521
-220257
-266960
-246499
-237245
-220336
-267133
-246434
-197501
-239775
-219438
-214708
-197584
-239987
-219498
-174538
-212801
-192523
-191933
-174594
-212992
-192538
-150918
-186009
-165358
-168826
-151205
-186096
-165556
-180663
-171131
-177627
-168656
-180528
-171152
-177758
-193067
-196046
-201738
-205877
-192946
-196082
-199123
-189865
-186176
-198931
-193460
-189645
-186369
-197546
-183115
-175767
-173348
-185670
-173422
-185744
-182984
-180650
-168627
-171024
-177534
-171120
-177749
-180406
-193024
-205713
-195921
-201530
-196034
-198977
-192733
-189848
-193414
-186019
-198740
-186365
-197450
-189428
-168201
-160265
-164648
-157159
-168097
-160289
-164684
-179327
-182810
-187545
-189942
-179207
-183010
-186173
-175589
-172073
-184208
-180754
-175554
-172015
-183848
-171506
-166047
-163122
-174581
-163199
-174758
-171368
-168219
-157150
-160219
-164654
-160280
-164698
-168106
-179337
-189871
-182679
-187463
-183035
-186126
-179148
-175640
-180871
-172087
-184200
-172065
-183843
-175564
-217979
-208806
-213903
-206176
-218345
-209988
-213509
-232346
-237012
-242813
-247676
-232480
-236932
-242762
-227698
-223047
-237878
-232652
-227857
-222868
-237817
-222186
-214392
-211866
-226481
-212407
-226427
-222372
-217889
-206139
-208510
-213717
-210003
-213448
-218146
-232291
-247659
-236930
-242781
-236884
-242752
-232376
-227648
-232630
-222938
-237839
-222826
-237804
-227752
-199721
-192631
-195167
-188215
-200084
-194560
-194903
-213123
-218226
-222310
-227499
-213303
-218042
-222228
-208202
-203367
-217084
-211702
-208353
-203281
-217011
-204396
-202114
-196541
-209278
-198285
-209001
-204660
-199691
-188229
-192464
-195032
-194642
-194891
-199903
-213099
-227482
-218119
-222263
-218008
-222216
-213196
-208172
-211694
-203288
-217043
-203248
-217006
-208252
-98973.7
-118004
-122250
-99332.9
-98210.6
-117625
-122066
-104397
-125338
-128106
-103339
-104356
-125013
-127923
-106392
-127011
-124893
-107862
-106295
-126796
-124702
-106029
-123984
-121723
-108064
-106002
-123791
-121585
-103468
-120314
-117103
-106762
-103424
-120168
-116943
-98484.8
-114270
-109984
-102471
-98453.3
-114111
-109876
-91316
-106219
-100954
-96307.5
-91291.1
-106123
-100877
-83018.7
-96252.3
-90116.1
-88023.2
-83100.8
-96188.8
-90092.5
-134237
-146810
-157971
-127736
-134203
-146662
-158009
-144958
-133183
-140922
-133759
-133181
-141097
-144826
-153531
-140981
-151838
-140525
-140885
-151797
-153599
-150816
-140196
-152044
-142021
-140134
-151989
-150841
-145566
-136114
-147097
-137826
-136079
-147057
-145589
-138696
-130486
-140669
-132622
-130451
-140641
-138710
-129736
-122685
-132261
-125253
-122657
-132235
-129754
-118903
-112817
-121836
-115901
-112809
-121821
-118903
-106570
-101545
-109879
-104881
-101532
-109860
-106586
-86598.7
-101255
-93129.6
-93648
-86649
-101199
-93183
-194619
-221577
-228373
-188183
-194057
-221497
-228539
-205096
-189108
-202626
-187363
-188914
-202660
-205015
-201767
-189494
-203490
-190791
-189471
-203501
-201777
-193234
-182399
-195496
-184347
-182385
-195484
-193241
-183149
-173606
-185843
-175984
-173604
-185834
-183162
-171229
-163033
-174416
-165878
-163037
-174421
-171229
-157578
-150561
-161135
-153854
-150579
-161135
-157581
-142458
-136577
-146362
-140226
-136570
-146358
-142459
-126274
-121305
-130398
-125197
-121300
-130399
-126274
-101488
-118007
-108412
-109454
-101565
-117971
-108434
-259108
-287215
-290902
-257342
-258987
-287216
-290853
-262334
-247780
-263038
-249073