/*--------------------------------*- C++ -*----------------------------------*\
  =========                 |
  \\      /  F ield         | OpenFOAM: The Open Source CFD Toolbox
   \\    /   O peration     | Website:  https://openfoam.org
    \\  /    A nd           | Version:  10
     \\/     M anipulation  |
\*---------------------------------------------------------------------------*/
FoamFile
{
    format      ascii;
    class       surfaceScalarField;
    location    "4.5";
    object      phi;
}
// * * * * * * * * * * * * * * * * * * * * * * * * * * * * * * * * * * * * * //

dimensions      [0 3 -1 0 0 0 0];

internalField   nonuniform List<scalar> 
38556
(
299.345
552.206
241.495
554.964
76.8144
-332.433
647.078
-21.6789
-70.4349
809.014
41.913
-203.848
1063.64
15.6822
-270.313
1230.73
-13.5409
-153.545
1311.19
-47.0747
-33.3827
1368.41
-64.0269
6.80814
1397.11
-78.8474
50.1409
1431.43
-78.5468
44.2292
1454.82
-63.127
39.7377
1479.85
-40.4246
15.3991
1492.55
-21.5486
8.85011
1499.45
-11.4931
4.58505
1501.58
-9.00659
6.87604
1510.04
-14.7647
6.31104
1529.06
-25.0016
5.97643
1549.64
-32.655
12.08
1570.06
-40.0844
19.6663
-35.866
23.5039
1670.86
226.297
3689.3
1576.53
-104.611
275.756
1252.3
-126.491
429.044
1242.36
-60.9852
112.839
1284.31
-77.6002
51.3274
1377.42
-84.4844
-22.1631
1395.48
-93.296
28.1644
1374.87
-80.3052
36.8908
1288.18
-76.1532
83.9954
1215.33
-69.4886
63.7863
1171.11
-67.1244
48.2208
1162.1
-61.3754
29.9611
1173.52
-58.5251
25.5496
1194.15
-50.1658
18.0448
1215.41
-46.5972
16.3356
1232.99
-40.9175
8.57105
1240.43
-31.147
-1.29918
1240.1
-26.7066
-5.6182
1227.57
-17.6277
-9.92018
-3.95178
-19.5257
-26.8354
-422.069
-63.9024
454.721
-93.2637
-492.903
787.705
-90.5083
-368.967
962.941
-82.4992
-153.721
1078.01
-99.4621
-93.2029
1177.02
-97.3956
-86.1032
1219.28
-119.446
-16.1106
1228.99
-94.4829
4.46628
1188.51
-85.4664
49.7921
1146.75
-70.027
42.3034
1112.47
-74.2311
41.3841
1100.02
-73.1567
24.2359
1102.12
-78.0067
17.3779
1113.02
-71.9504
10.8875
1126.95
-70.7612
10.2317
1144.36
-59.0416
0.712984
1157.65
-39.0795
-5.35455
1163.59
-23.4697
-9.17707
1164.33
-3.64248
-14.7311
14.264
-16.0498
947.75
439.284
3223.31
703.349
-299.797
450.934
1013.66
-412.85
12.0332
1078.37
-224.708
77.4964
1039.32
-122.523
62.109
974.401
-71.9118
39.4367
941.249
-103.383
17.0889
915.437
-73.9358
5.26517
930.126
-105.448
5.29256
947.467
-97.213
9.84412
977.674
-120.046
15.6085
1004.04
-118.662
19.144
1029.88
-125.95
22.1021
1053.74
-115.471
19.6526
1073.02
-107.927
17.89
1094.07
-90.7653
10.6693
1116.36
-62.3764
1.01173
1128.83
-33.2857
-2.65392
1139.14
-5.7412
-8.20795
19.5059
-9.80075
1330.66
-296.801
-815.808
1262.64
-466.638
234.854
1374.2
-612.46
88.0541
1386.34
-326.349
89.5016
1226.65
-94.0509
131.219
1123.17
7.90215
23.6678
1030.27
-25.4767
14.9935
995.932
-21.8946
-17.7057
991.557
-88.3815
-12.6914
1012.8
-116.972
-1.48501
1038.78
-157.982
11.9533
1059.49
-156.075
16.7088
1071.65
-161.276
23.1654
1081.05
-149.212
24.3404
1083.24
-131.9
21.7821
1084.58
-105.125
13.0171
1091.99
-73.008
3.22553
1101.24
-41.9883
-0.543282
1117.86
-15.0479
-7.32088
15.814
-7.06259
1745.93
-522.591
1616.83
1799.78
-374.485
-146.01
1855.89
-102.25
-566.314
1888.26
13.2012
-371.922
1654.92
243.413
-104.128
1416.33
261.016
-14.5209
1257.83
113.971
19.0548
1157.48
86.8252
-8.3751
1105.49
-37.714
1.3312
1087.45
-97.9005
-1.0322
1095.74
-161.151
-5.12974
1100.72
-161.646
0.591754
1101.61
-167.151
4.98546
1095.49
-151.652
8.56199
1077
-128.017
14.6043
1052.69
-92.3053
11.4957
1037.88
-60.9316
2.72925
1034.48
-36.4761
-2.10831
1046.61
-17.5333
-9.64441
13.7167
-8.78479
583.67
1049.43
-1994.53
728.573
253.651
-773.039
1227.69
369.286
-970.652
1143.72
311.042
-213.875
1094.7
362.992
-70.5593
961.232
404.589
-10.1009
948.456
45.6656
29.0335
5.96703
43.651
2.42996
978.684
-1.95061
31.7662
14.5653
-1.89528
14.111
1021.53
-16.2713
16.8118
-31.9189
-17.8193
-31.3575
1069.25
-48.9098
15.3696
-36.4109
-44.4691
-31.2057
1096.61
-53.558
5.3085
-48.4177
-48.2912
-43.551
1108.94
-51.535
-1.21372
-40.0188
-46.4287
-34.784
1112.64
-48.1638
-2.53053
-41.4267
-42.8018
-35.9213
1111.1
-44.21
-6.32079
-33.631
-38.1751
-27.7789
1091.74
-113.103
4.44982
1060.75
-69.0733
7.75824
1035.02
-45.1397
9.93811
1018.3
-26.3679
6.6033
1013.72
-12.5847
-0.367884
15.3046
-2.39093
1335.04
-254.217
-350.076
1414.79
156.354
17.5408
1182.17
537.357
64.5503
1173.64
264.964
54.6059
1196.12
272.909
67.5988
290.575
71.8432
42.6784
302.106
287.03
297.431
117.189
76.1766
115.685
271.687
62.78
1.7734
-250.071
246.084
7.43708
-5.40066
-258.933
264.233
-20.4001
-1.17046
-274.434
279.972
-55.3717
0.923592
-290.402
289.917
-54.6981
1.62574
-291.589
289.44
-50.3871
1.00083
-291.023
287.375
-45.6701
1.15384
-287.195
285.249
-43.9471
1.68368
1103.46
-35.9925
5.97266
-284.24
-284.927
-271.37
-272.679
-25.6701
-28.6357
-19.0187
1087.09
-57.9136
5.20937
1066.24
-28.2715
3.97722
1049.08
-15.8363
6.63312
1032.6
-2.60845
6.50551
21.5419
2.36341
-1045.46
70.4132
-3158.97
-78.7036
-127.563
-682.838
636.751
472.486
-650.583
708.451
184.627
8.63744
203.734
121.265
77.0602
186.607
205.992
186.703
231.896
39.8296
3.85131
-19.9481
-66.7419
66.175
17.4896
3.02536
-72.3223
-4.20234
72.9946
3.94288
-0.41287
-80.2707
8.47094
80.0696
-8.14462
-0.125247
-79.282
13.9156
78.0883
-12.8305
0.108557
-77.2082
14.6051
76.3915
-14.0709
0.282376
-76.1926
12.9334
75.974
-12.9166
0.201771
-76.5459
11.5853
76.1161
-11.4105
0.254932
-76.1477
11.2818
75.7461
-11.4123
0.532094
-76.6768
304.289
-41.3277
5.65257
-77.0537
-75.3786
-75.4972
1178.73
-62.9328
23.9959
-303.19
-308.15
-290.485
-295.88
1145.51
-16.6433
21.5936
1109.67
0.907952
19.0941
1074.52
15.4623
17.0753
33.5611
7.72012
-525.894
-509.334
616.929
237.922
-256.08
-635.299
937.181
249.96
-476.733
879.037
148.067
94.7034
219.713
-5.47734
88.3263
239.849
219.881
238.011
-16.2994
244.026
-4.81669
-3.19721
-2.96054
-64.3553
67.4955
-0.764561
0.584906
1.89498
-71.8339
73.0683
-4.25469
1.12529
9.20016
-75.9885
76.3879
-10.0207
0.421246
12.3958
-76.7777
76.5213
-12.1418
0.0023346
12.5762
-75.984
75.8064
-12.6081
0.209566
12.6417
-75.0228
74.8408
-12.9691
0.509418
12.6201
-75.4001
76.1326
-13.9853
0.632595
13.8702
-78.8252
79.4205
-14.5259
0.060436
-80.7597
43.1966
320.567
-43.651
-1.49594
-79.7754
-79.3981
-78.6835
1265.68
-75.4348
-6.63747
-320.16
-313.045
-308.439
-304.901
1263.98
-21.3439
6.40145
1230.1
14.4796
20.3127
1158.27
53.7215
33.5699
62.3233
17.5501
3081
-475.565
-4338.23
2464.95
851.246
-491.277
1795.33
657.999
261.585
1386.77
399.513
157.116
272.892
63.9374
165.736
288.791
288.562
301.369
19.6809
276.946
-29.5289
5.79388
9.41587
-68.9421
70.867
-12.4013
1.06051
10.6727
-74.4108
75.4501
-12.5589
0.846793
9.22156
-75.8498
75.1224
-8.66317
0.16898
10.2368
-73.0941
73.0951
-9.88355
-0.354233
15.5094
-73.509
73.4313
-15.5493
0.117712
16.7727
-72.9795
72.8132
-16.9681
0.361631
16.6092
-72.1938
71.8982
-16.7594
0.445875
15.285
-71.3104
71.3994
-15.3583
-0.0156656
-72.6495
43.5759
290.958
-42.7539
-5.46393
-70.4222
-72.8687
-70.3753
1195.49
-86.9322
-38.8674
-295.24
-281.87
-292.02
-275.994
1240.21
-32.9569
-33.1114
1250.91
15.3334
-11.5494
1210.42
83.736
10.4712
91.4436
5.86132
918.592
108.757
-968.068
1178.46
1000.73
-409.35
1182.73
888.95
-235.213
1143.14
635.49
-196.397
233.76
150.128
10.2489
273.427
254.648
284.869
12.6179
251.149
-21.7134
-8.29347
13.4226
-69.4021
72.0532
-15.5653
-0.508336
15.5201
-74.8056
75.156
-15.1391
-0.731424
7.57071
-75.0755
74.4148
-6.71112
-0.198891
8.85024
-71.933
70.4692
-7.83026
0.44383
13.273
-67.4488
66.8603
-12.9135
0.228995
16.4447
-66.9815
67.076
-16.5712
0.0319621
17.1854
-67.6392
67.6672
-17.232
0.0185368
15.6083
-67.9831
67.9255
-15.4651
-0.0857371
-68.827
41.9568
270.579
-38.0477
-3.08693
-68.0463
-67.7507
-66.7774
1091.59
-89.2721
-23.2466
-272.723
-268.13
-264.963
-260.189
1124.73
-24.7592
-41.3383
1154.37
25.8499
-40.1508
1155.87
99.0206
-16.7861
108.713
-9.13753
1946.35
2157.16
725.025
1925.36
1117.26
-95.551
1802.1
941.944
70.2686
1788.57
612.101
36.9267
1638.33
216.419
83.9453
362.929
-59.4694
24.0223
28.1883
86.8441
24.1915
75.2359
372.452
356.222
367.714
16.4209
339.844
-43.0051
0.83431
14.7916
18.1959
15.8479
11.4975
-301.666
266.009
-25.326
15.8997
10.3119
12.3097
10.9643
4.85042
-257.053
255.51
-24.9093
5.9794
5.20718
5.12018
5.29565
8.37478
-259.415
264.285
-41.686
0.741231
9.75802
8.42896
9.51259
14.0358
-273.218
277.191
-60.9638
0.112124
14.7897
13.7286
14.324
16.6149
-279.779
278.826
-65.5235
0.654268
16.9298
16.0585
16.2191
16.4584
-280.107
278.02
-62.1471
0.428786
16.2517
15.6907
15.4039
14.5602
-276.978
272.618
-52.7887
1.31105
14.1705
13.7559
13.351
1055.19
-121.206
9.22853
33.8324
33.5114
26.2111
26.0758
-271.014
-271.029
-258.086
-262.717
1045.85
-77.4913
-2.43417
1052.18
-8.48983
-22.6046
1070.86
33.3844
-26.2127
1088.13
98.0878
-16.3368
109.049
-7.84995
524.078
1620.05
736.524
1180.06
1292.3
-831.019
1354.81
905.997
-138.803
1411.94
569.234
-14.2609
1360.34
247.836
20.1832
1295.59
40.7706
-35.4892
1289.43
-9.48304
-1.7872
8.36714
0.704261
9.31207
-0.959871
1303.06
-104.22
0.907078
15.8507
31.2493
13.3788
29.21
1303.38
-131.579
8.7164
29.6189
34.5078
27.5817
30.8294
1287.53
-200.899
11.4023
47.15
60.2513
43.4381
54.5105
1241.24
-205.145
20.1804
59.8213
62.8768
53.2492
55.3088
1194.18
-216.097
16.2283
63.3591
67.053
56.4628
60.0536
1141
-171.4
10.4267
57.2644
56.7874
50.4207
49.6739
1098.04
-154.329
14.0399
48.8738
48.5899
42.366
43.4209
1065.23
-94.2464
5.8533
1034.67
-51.8054
4.87672
1024.99
1.77888
-0.589015
1028.44
30.0019
-0.0676726
1046.77
78.323
1.43308
92.225
2.31009
646.154
1297.46
970.198
968.55
1125.62
-155.725
1535.3
1010.45
-671.202
1730.69
688.113
-314.269
1722.41
429.665
-173.546
1684.47
220.623
-141.909
1635.51
104.736
-65.2621
1575.18
13.474
-57.3636
1486.91
-35.2644
-8.04587
1390.58
-115.465
10.8946
1271.73
-117.27
30.9764
1172.11
-141.246
24.7742
1109.91
-112.527
3.32434
1064.38
-102.202
-6.59671
1038.78
-59.1372
-9.51276
1022.16
-31.7622
-3.42221
1018.99
4.24516
0.70202
1021.68
19.8706
7.444
1038.39
50.1794
11.4329
64.4927
11.019
1330.62
621.011
2391.35
1317.71
916.955
221.587
1428.11
804.729
95.3099
1609.07
586.514
-79.36
1635.96
439.723
-36.9444
1662.57
276.023
-82.0149
1638.48
152.735
-23.9017
1620.04
35.5853
-3.67185
1505.82
23.2305
55.7231
1351.11
-28.4868
67.735
1193.52
-30.8466
71.1599
1091.19
-75.3939
36.4804
1040.29
-71.1508
9.52395
1008.32
-70.9452
0.714612
995.032
-43.5297
-2.3201
988.354
-22.5044
-2.57962
994.668
-0.51144
-1.55771
1009.5
1.52388
3.51343
1034.46
16.9602
8.26464
35.2842
8.33984
1542.7
-1253.13
1256.5
1907.15
127.857
424.648
2050.86
344.353
316.67
2094.31
524.501
18.5639
1809.55
511.816
212.661
1591.03
339.47
155.078
1401.22
205.144
137.395
1293.75
53.1181
89.9423
1182.06
59.2967
75.6209
1092.37
7.74798
53.4514
1035.15
-10.2807
36.6532
998.652
-55.3723
16.4808
979.988
-63.6296
11.1431
965.683
-67.454
10.8141
950.888
-37.8981
9.1634
939.856
-14.9777
3.50579
939.902
-1.07454
0.516503
948.016
-3.53431
-3.05597
975.034
-4.86149
-5.19554
15.4897
-3.42778
-204.861
-1967.59
-2544.92
646.359
-805.436
82.0736
1487.41
-512.926
16.2236
2052.64
-145.195
104.467
2157.66
211.37
195.426
2039.9
240.593
216.639
1597.2
294.997
352.846
1273.8
178.618
197.901
1117.34
147.625
68.1323
1048.36
64.7105
12.0205
1031.22
17.8293
-10.9682
1023.17
-39.3163
-8.00592
1015.91
-59.4091
3.03377
995.115
-60.058
13.4016
952.327
-21.7082
26.5984
914.385
2.23708
20.7275
902.147
-0.58188
11.7451
914.823
-23.5424
7.33214
951.266
-43.9474
2.6436
-14.7158
2.18492
614.529
807.309
1476.87
769.405
-527.11
-433.202
1022.47
-384.4
-381.591
1252.55
-273.497
-101.777
1289.47
56.48
117.963
1258.25
106.878
164.936
1136.65
212.26
204.345
1081.72
149.911
83.6358
1077.18
120.517
31.6452
1109.23
70.0197
-37.3552
1160.82
11.5116
-45.28
1206.51
-40.725
-44.2817
1228.49
-71.1038
-10.2817
1220.84
-56.2788
3.869
1177.93
-18.7989
40.0017
1106.39
32.8665
40.9091
1034.84
57.6329
13.3351
995.809
36.3625
-20.8708
992.539
-27.3427
-13.3354
-24.3539
0.566429
740.835
-1770.21
527.607
-313.882
434.563
-291.356
561.263
-400.197
794.723
-176.98
1049.1
-147.497
1288.92
-27.5621
1515.97
-77.14
1701.51
-65.0227
1838.61
-67.0811
1892.32
-42.1929
1863.36
-11.767
1787.34
4.91108
1756.38
-25.3149
1780.48
-42.8985
1799.69
13.6563
1783.73
73.5931
1710.1
109.994
1508.6
174.153
119.432
951.293
2119.58
2078.6
717.527
218.085
-316.751
706.813
3.67907
-63.4003
755.464
27.1021
-279.602
902.111
-7.93307
-409.027
1012.34
-48.9587
-214.813
1098.5
-78.8923
-40.6519
1175.41
-89.701
19.6005
1235.95
-92.2448
81.846
1294.58
-83.2294
68.8261
1335.48
-65.6683
64.5063
1367.62
-48.7744
32.028
1386.66
-35.2841
25.0975
1399.33
-26.0961
18.0164
1408.26
-22.0789
20.0225
1418.5
-22.0366
18.1094
1430.94
-22.0894
15.6208
1448.02
-24.5248
19.5256
1474.05
-27.9916
21.6262
-20.7366
27.0254
1033.91
760.175
1074.95
621.716
-109.899
1015.94
801.817
-205.531
458.153
870.784
-98.835
169.809
983.701
-136.102
66.5794
1049.79
-126.583
-10.6259
1073.62
-124.196
49.6364
1072.59
-95.8622
44.0773
1054.65
-75.4128
85.1038
1042.25
-58.7898
51.75
1039.95
-51.1211
35.9761
1049.29
-44.1763
16.0178
1064.72
-40.8628
15.7019
1082.23
-35.1472
9.58313
1097.66
-32.4009
11.2258
1108.67
-27.5424
3.06568
1112.06
-19.7669
-7.00427
1110.72
-16.3366
-12.4651
1099.94
-6.35666
-20.7829
3.90747
-33.2615
492.07
-790.424
2778.08
437.667
-382.232
-166.167
644.945
-301.155
-480.621
751.073
-209.446
-149.239
828.794
-225.304
-81.722
877.243
-179.982
-81.1532
913.666
-172.237
-4.49238
933.511
-111.238
-0.00370317
943.173
-84.4153
49.133
946.75
-56.9459
36.8828
953.207
-55.9519
39.7577
962.531
-51.6452
22.3812
974.713
-54.3854
18.7184
988.239
-48.911
11.1257
1000.99
-45.9934
11.0735
1011.28
-36.6402
-0.475775
1016.34
-23.2591
-6.92731
1016.15
-13.9469
-11.375
1010.49
2.08798
-17.5203
13.2804
-19.2111
332.997
-791.319
3405.41
414.346
-464.966
452.318
914.09
-357.076
-431.79
988.114
-220.737
14.7637
958.313
-170.207
36.8128
897.243
-116.277
36.8011
862.225
-140.83
20.7001
830.711
-78.3927
3.93379
840.776
-95.1741
5.98712
852.14
-68.3657
9.90027
877.978
-83.7263
17.5441
899.33
-74.2585
20.4058
921.639
-78.9856
24.393
939.578
-67.6862
20.4887
954.129
-61.9126
19.2583
967.059
-49.0393
10.1389
976.931
-32.4466
0.327257
980.224
-16.1549
-3.7393
980.924
3.51657
-10.3369
17.3852
-11.774
906.114
-1385.99
-51.3281
984.474
-680.593
372.121
1197.55
-442.725
-39.3734
1201.71
-204.182
68.7825
1099.57
-81.8793
145.031
996.481
-21.1389
31.6233
897.413
-68.9853
42.2181
853.226
-41.2137
-10.6976
847.683
-102.324
0.00105306
864.092
-89.2927
3.03322
889.961
-114.295
16.6529
910.851
-97.9943
19.5548
927.203
-98.8
26.6273
939.422
-81.6008
26.0351
946.055
-69.6081
22.8452
950.201
-52.0458
11.8775
954.631
-36.0446
2.39289
957.3
-17.7579
-1.60858
961.733
0.531125
-8.76914
16.5532
-7.86442
2502.59
-404.255
2327.98
2099.3
-424.221
0.909305
1891.98
-119.593
-682.128
1797.66
-15.8747
-465.907
1529.2
199.977
-117.526
1282.22
206.831
4.48962
1119.24
27.3685
85.6859
1003.64
43.6692
22.3354
947.039
-56.9256
12.5351
924.722
-70.8241
2.81661
923.908
-116.637
-1.97407
925.587
-102.711
3.62896
926.898
-104.03
8.90524
925.428
-81.5948
10.0257
921.434
-65.9036
14.8939
914.293
-44.8425
11.4329
909.748
-31.4295
2.65891
908.606
-16.1311
-2.59262
912.188
-2.4205
-10.2755
13.7946
-8.78525
894.259
1150.99
-4426.27
1184.23
420.905
-1908.13
1073.93
332.658
-1312.61
998.892
186.28
-340.991
959.54
292.634
-123.863
821.649
343.162
-8.54072
809.983
26.6165
32.5064
-3.78143
20.6777
-7.95112
830.696
-4.0667
37.8767
12.2845
-3.88556
12.5132
869.377
-18.2966
18.1756
-30.4619
-18.8451
-29.3672
906.272
-37.8216
23.087
-23.7132
-34.2185
-19.6828
927.865
-39.9004
10.4701
-35.4179
-36.0964
-31.9758
938.318
-37.2959
3.69315
-25.4858
-33.562
-21.7271
941.555
-33.4421
3.12674
-26.587
-29.7716
-23.1242
939.766
-28.1052
-1.17025
-18.3043
-24.4429
-14.1038
930.078
-58.2547
6.48791
916.59
-31.6171
8.02077
905.25
-20.8893
10.7378
896.494
-7.59715
6.82596
893.43
-0.166581
0.441704
13.7651
-2.12206
664.211
569.499
734.013
807.283
271.116
24.2573
869.402
462.974
-127.884
943.011
171.571
-4.2946
1038.2
242.753
22.2903
253.907
75.5141
36.8189
262.578
245.092
252.17
111.798
75.9688
110.193
-9.27731
234.974
49.6386
5.18774
4.22294
-217.611
215.56
-0.460871
-5.77773
1.08252
-229.405
232.057
-20.2772
-1.75462
-0.125925
-238.805
243.305
-43.063
0.867308
-0.871933
-252.755
251.523
-39.9649
2.16807
0.413331
-252.811
251.496
-37.3872
0.992862
0.207182
-254.025
251.315
-32.2714
1.33177
-0.159036
-251.432
250.069
-28.1096
1.52691
964.579
-19.018
13.463
-249.648
-251.659
-237.919
-239.619
-10.4474
-15.3267
-6.68677
948.962
-17.0415
6.25128
929.064
-3.16532
6.15145
915.21
4.22991
8.65967
905.307
7.56799
8.674
17.3827
2.90422
-675.672
933.373
-6646.42
-67.61
174.518
-1194.3
388.366
447.279
-1090.86
493.475
116.397
-41.2981
181.16
120.893
15.9916
163.272
174.597
157.375
-7.73523
208.217
49.7562
6.4366
-4.0521
-17.9253
-60.1545
60.242
18.4819
3.408
0.0797979
-64.4197
-1.17093
64.1954
1.44702
-0.131627
0.0915823
-68.317
7.89929
68.2476
-7.82756
-0.0939303
-0.0186181
-68.7592
11.2667
68.0981
-10.761
0.174027
-0.232913
-68.2237
10.7925
67.6924
-10.4422
0.414013
-0.058807
-67.6325
9.58215
67.289
-9.40434
0.224514
-0.416125
-67.7507
8.55579
67.4404
-8.50182
0.672461
-0.930096
-67.7623
7.37141
67.4865
-7.4308
1.26538
-68.1057
-7.15807
268.515
-19.4865
9.1669
-68.4094
-66.6361
-66.9044
1024.77
0.655986
33.1235
-266.776
-272.699
-254.055
-258.065
994.747
17.8201
30.6309
964.33
30.2158
23.5249
942.104
27.3784
19.4906
27.2991
8.64844
-80.7744
307.585
19.3634
371.546
65.054
-978.156
588.471
287.831
-534.21
606.833
97.3546
95.3826
187.31
-12.5927
65.9596
203.307
178.815
193.254
-0.364162
-24.7699
212.006
0.889514
-0.451917
-2.1742
-6.40348
-58.7854
63.1787
1.67551
2.50885
-2.95278
0.716814
-68.4849
69.5952
-2.17414
3.29978
-1.84087
7.23978
-70.9792
70.7901
-7.30812
2.09836
-0.516488
9.76177
-69.7596
69.3333
-9.49888
0.679868
-0.945755
9.93487
-68.5694
68.4791
-9.95957
1.06078
-1.43701
9.73316
-68.8916
69.1857
-10.1274
1.53715
-1.03154
9.63646
-70.6829
71.247
-10.248
1.07906
-0.15597
8.53869
-72.6832
72.9282
-8.9054
0.277715
-73.256
1.12634
18.9488
289.321
-19.5101
-0.174139
-73.1383
-71.6692
-71.6488
1111.73
1.28887
1.9887
-287.531
-286.968
-273.081
-273.407
1083.59
41.4761
10.887
1043.18
63.7692
27.1642
999.114
68.0707
36.9457
53.2398
16.4213
825.909
-1301.42
-5583.31
370.252
215.399
-185.967
791.542
239.155
-111.028
778.962
132.57
134.481
220.844
-46.594
102.804
231.136
207.348
216.568
-15.8926
8.80955
236.867
-19.464
10.524
-5.67267
5.77064
-61.3694
64.7178
-8.9186
5.47218
-3.93906
7.59784
-68.9025
69.8404
-9.20414
4.60744
-2.44507
6.86264
-69.7583
68.9506
-6.49388
2.88405
-0.946458
8.86467
-66.4592
65.8042
-8.81599
1.55277
-0.555798
11.4428
-65.4161
65.6586
-11.57
0.44058
-0.795017
11.9331
-67.0064
67.4343
-12.1285
0.562485
-0.528306
11.353
-68.3122
68.5205
-11.3583
0.325289
0.540762
9.19611
-69.136
69.4097
-9.20122
-0.809431
-70.231
9.26341
19.0496
276.999
-19.3296
-11.8236
-67.758
-69.2618
-66.908
1088.36
-14.2258
-46.6161
-278.744
-263.89
-267.526
-254.938
1087.64
39.5943
-30.5032
1068.18
75.6181
-3.94736
1033.01
95.7728
17.9414
77.9251
5.64755
418.459
-1208.33
-817.759
253.014
275.028
-303.534
758.369
169.848
-671.262
690.004
201.568
-197.03
187.123
-64.7754
-60.8442
218.36
170.661
203.135
13.7003
20.3187
213.78
-42.5858
-18.0908
-0.966995
11.8626
-62.0025
65.9699
-15.213
0.349936
-2.11745
12.7333
-67.4116
66.7751
-12.7498
2.77045
-1.2781
5.70274
-64.4827
63.7574
-5.3665
1.66718
-1.16245
8.11051
-62.2777
61.7159
-7.66326
1.27698
-0.494597
11.0034
-60.6257
60.3419
-10.7414
0.516465
-0.0247058
12.1939
-60.3417
60.3763
-12.1309
-0.072813
0.233163
11.3211
-60.9631
61.1026
-11.2532
-0.440521
0.754646
9.16077
-61.9115
62.1584
-9.08208
-1.08024
-63.4151
5.97024
19.0518
249.16
-16.5206
-8.78676
-61.9995
-62.478
-60.982
995.227
-26.1085
-34.6682
-251.234
-243.62
-242.158
-234.911
1007.84
31.662
-46.0183
1008.2
66.637
-31.5254
998.073
96.2364
-7.12763
84.4955
-6.80676
668.472
-21.3572
-1081.46
1069.82
523.176
-745.046
1280.29
417.503
-387.857
1340.62
294.305
-116.142
1277.07
33.0489
49.6727
283.824
-110.187
2.98088
48.9599
89.1593
51.3452
91.2104
294.77
268.183
280.846
16.5806
-11.8226
266.659
-40.6932
8.81105
14.1156
16.4718
13.7022
9.00249
-27.4998
-240.148
225.119
-17.0435
27.3541
7.7499
8.31721
7.14849
5.276
-9.07852
-227.319
229.161
-23.8897
9.66885
5.47332
5.25683
5.45174
7.80735
-1.68763
-231.054
233.128
-35.0561
2.24762
8.47256
7.8025
8.33896
11.1073
-0.637937
-239.096
240.076
-45.6047
1.02676
11.3799
10.7821
10.9674
12.0047
-2.13627
-240.691
239.581
-45.9217
2.45883
11.9273
11.4627
11.3146
10.879
-2.45505
-241.171
239.934
-40.3982
2.71591
10.4657
10.2339
9.79578
8.51265
-4.21162
-239.399
237.531
-29.269
3.65396
8.00405
7.85228
7.32499
926.286
-48.6
5.12954
14.8899
15.2702
10.4245
11.7162
-237.683
-235.978
-227.087
-225.14
929.119
-19.879
-11.4963
935.79
28.9429
-26.557
945.237
53.5202
-22.5423
951.994
84.0432
-10.9009
77.8767
-3.60468
499.181
-133.705
-353.639
1012.9
551.483
-1373.05
1179.08
464.757
-352.236
1202.01
334.403
-77.2819
1127.21
116.578
11.4523
1023.65
6.85491
-48.9761
1019.92
-8.73369
1.1841
8.54072
-1.34542
6.20435
-3.89927
1035.95
-105.151
4.73584
13.0615
30.2215
11.7813
30.2267
1042.12
-120.483
17.1431
25.8738
28.4092
24.829
26.7672
1034.08
-174.068
20.9581
39.3941
49.0844
37.2182
46.8559
1010
-161.543
29.3437
45.1584
46.5046
41.872
42.929
984.06
-159.563
23.0239
45.2801
48.2978
41.0662
44.0633
950.388
-109.148
15.4128
37.4427
36.2807
32.6059
31.5047
924
-82.023
17.4763
27.7746
29.2045
23.0815
24.9134
907.947
-31.3416
4.64848
896.861
-6.50032
2.5839
899.736
27.7061
-2.22753
911
40.3001
1.88878
926.881
65.5071
4.08804
64.167
5.8601
631.643
647.599
2174.47
1284.94
327.763
-585.305
1539.37
594.781
-1055.66
1569.77
474.349
-484.611
1436.4
321.518
-245.116
1340.56
115.877
-155.092
1275.81
46.865
-56.111
1211.32
-43.3552
-54.6678
1152.49
-68.1111
-1.59311
1096.23
-120.822
13.9081
1031.61
-98.3485
32.3993
974.338
-104.919
27.4039
931.922
-67.375
3.96723
900.163
-52.4658
-4.39455
885.251
-18.559
-7.3829
879.155
-2.00366
-1.82327
884.948
20.3905
2.22429
897.611
25.8809
9.2001
917.5
43.9285
13.1226
46.9099
13.3822
798.856
821.174
-166.999
1009.51
410.202
-71.5027
1208.22
471.783
19.591
1292.24
420.176
-109.206
1254.92
345.664
-23.7647
1237.96
134.802
-83.9837
1209.73
51.2535
-0.0569435
1192.05
-32.2737
2.92498
1143.51
-26.3767
62.5283
1077.42
-55.4049
68.4095
999.735
-28.125
78.619
939.188
-46.2995
38.4085
900.581
-30.7575
11.5138
875.978
-28.3035
1.15548
866.443
-9.44186
-1.9022
862.037
0.324045
-0.500869
868.532
9.82212
2.5149
883.756
8.47933
5.69143
906.825
19.3218
9.80279
28.1372
9.78368
433.8
-593.663
2878.95
1040.55
330.896
-102.799
1480.25
391.299
-42.5417
1507.51
500.029
-88.5559
1366.44
464.918
234.478
1258.13
271.404
126.79
1146.69
154.409
145.678
1068.05
36.4179
99.8909
989.729
36.5538
91.0131
928.218
4.82463
54.7327
889.921
4.82301
42.0023
863.178
-19.0652
15.9895
849.166
-18.6537
13.052
840.667
-19.2455
10.255
833.686
-1.45968
8.16197
829.073
4.22234
4.22085
831.391
7.79582
0.225487
839.548
1.59214
-4.326
860.199
-2.00332
-4.52184
10.277
-2.63658
71.1964
-1590.87
-693.202
712.9
-338.949
110.216
1140.9
12.4938
-32.9761
1476.88
242.751
25.7684
1504.25
402.171
230.807
1464.84
294.405
233.044
1271.62
290.158
410.324
1103.22
173.052
229.665
970.596
132.482
104.826
904.795
63.1921
19.454
881.807
25.9253
-9.08191
869.041
-7.5765
-6.72855
860.606
-13.1002
5.91458
850.076
-7.95926
12.6456
832.066
19.7819
23.367
814.55
27.6795
14.7857
809.908
18.7315
5.45216
824.277
-10.7889
5.34398
854.764
-34.9921
5.14494
-13.8303
4.44073
1444.62
45.958
-1813.52
1145.4
-313.722
-159.212
1025.62
28.909
-278.225
1098.73
103.578
-35.7089
1036.67
367.822
214.364
1017.25
257.579
221.189
960.613
300.002
251.135
928.886
206.619
81.7959
919.996
161.583
11.4334
922.145
92.0187
-68.3301
933.537
34.4884
-65.2356
945.471
-11.1134
-52.6784
952.829
-23.6409
-7.09918
950.57
-14.1809
12.3496
942.677
29.5158
38.1604
929.105
59.9841
22.1761
912.75
55.7171
-7.29499
903.95
14.6758
-37.5357
910.13
-46.0622
-8.44541
-29.0818
5.75183
443.669
-7516.14
-72.9023
-111.033
334.766
-670.115
300.099
-261.952
580.918
-89.9772
744.914
-53.9144
958.566
58.7872
1100.77
-12.7205
1208.91
-11.5837
1291.46
-57.617
1333.41
-49.6457
1342.42
-31.8995
1344.95
-21.2531
1349.29
-43.8402
1393.45
-57.5429
1489.15
-22.0603
1553.28
65.1832
1515.9
162.05
1371.84
272.149
189.466
1372.89
-1018.48
-1382.63
948.618
-231.302
338.821
944.041
-203.631
144.807
896.476
-64.5871
-167.45
863.26
-34.8382
-340.973
902.054
-75.6148
-177.992
968.291
-96.7791
-10.1102
1045.51
-94.0939
36.475
1120.19
-83.1599
90.3291
1190.8
-65.2551
63.4662
1241.03
-45.8715
60.1548
1274.31
-31.7444
30.4859
1293.14
-21.189
27.4594
1303.89
-15.7545
23.0181
1311.86
-13.3338
25.3877
1321.62
-14.0032
22.354
1331.92
-13.4783
18.8003
1348.54
-15.0813
17.9842
1373
-13.9158
11.0864
-4.38383
17.1601
342.868
-664.109
-593.928
463.228
-352.029
1016.3
621.013
-303.575
400.312
697.17
-133.885
162.949
802.872
-148.289
74.3287
838.103
-124.417
2.94589
862.686
-116.331
44.6046
869.572
-79.3123
22.4092
884.067
-59.1746
46.6235
896.255
-41.2194
15.5257
912.776
-34.9444
8.52877
928.969
-29.2354
-2.68494
947.12
-27.3052
3.66714
963.104
-23.373
1.21822
976.996
-21.1469
5.1464
985.85
-17.079
-2.7118
987.606
-11.1027
-11.1364
985.359
-8.2883
-17.011
976.019
0.712553
-26.0707
7.71522
-35.7533
668.117
-1021.14
705.516
702.262
-390.891
-161.449
567.694
-358.855
-290.773
626.82
-241.473
-100.778
670.444
-237.369
-36.2661
694.288
-174.876
-54.5382
730.686
-160.221
2.99924
749.475
-92.5678
-5.53737
778.893
-71.7404
32.2811
798.409
-43.7817
19.9292
821.059
-43.4177
25.5805
837.859
-36.8643
13.2103
854.366
-38.585
13.4913
867.911
-33.2434
7.45059
879.683
-30.2285
8.38341
886.151
-22.6598
-1.36303
887.438
-13.359
-5.9581
884.646
-7.27463
-9.59663
876.693
6.2632
-15.1176
11.582
-15.6535
564.296
-249.35
1391.36
779.489
-130.422
-23.3446
871.944
-225.97
-657.13
889.094
-183.826
-60.0326
841.994
-158.818
5.36104
787.165
-110.482
27.2363
764.201
-134.498
17.9415
735.898
-62.0993
1.76835
747.118
-80.9447
3.97174
753.549
-45.8994
5.58601
775.398
-60.2558
12.5337
791.314
-46.3201
13.9461
810.43
-51.0971
17.7884
824.133
-40.3937
13.9366
836.468
-37.1106
13.8053
845.402
-27.3114
5.85635
850.174
-17.2654
-0.538624
849.645
-7.43797
-3.04629
846.425
7.57918
-8.43319
13.8821
-9.48544
1090.51
912.708
4841.24
708.682
108.091
515.431
852.564
-215.082
-194.143
856.654
-134.444
15.3102
840.116
-76.8519
79.6032
776.866
-34.9261
19.3177
736.348
-91.2958
39.5336
715.122
-45.6042
-5.9662
724.888
-95.5504
4.84118
740.727
-63.0724
4.36703
766.246
-83.6893
14.5672
784.617
-60.1507
15.0144
801.908
-62.165
20.4038
814.088
-44.5428
18.0043
822.494
-38.6434
15.972
827.332
-26.6698
6.39778
830.546
-18.816
0.729535
830.627
-7.52154
-1.6064
830.905
4.64645
-6.11425
13.5044
-5.91541
2083.29
999.168
2840.52
2024.29
282.203
-114.199
1693.97
26.5767
-593.47
1477.98
6.35043
-390.716
1201.33
170.437
-88.1583
1010.05
160.42
0.418798
931.569
-20.5083
93.3817
853.855
29.8657
24.5801
813.111
-55.9175
13.646
793.947
-42.8701
1.77792
791.712
-84.0028
0.574524
791.889
-61.3037
4.60519
795.094
-64.8563
8.39162
795.184
-41.5037
6.89641
796.029
-34.5468
9.95231
795.858
-21.8792
6.81284
795.629
-16.866
0.938592
794.951
-7.69616
-1.74084
795.836
0.164413
-6.67797
10.6824
-5.99617
2554.54
932.38
-4004.61
1872.77
652.562
-1596.72
1137.72
378.114
-929.092
902.813
136.254
-235.99
806.505
248.618
-105.736
663.611
295.558
-0.784853
681.112
7.03019
20.6626
-15.8573
1.8466
-19.1842
700.509
-4.17383
29.524
12.8271
-4.00075
14.1691
740.267
-18.52
12.8274
-27.6023
-18.3207
-25.8847
771.122
-28.3701
24.209
-13.0133
-24.6351
-8.82844
791.521
-29.7522
10.93
-25.9126
-26.3415
-22.855
801.425
-26.6203
7.4291
-14.3891
-23.2159
-10.7187
806.616
-23.1324
6.71275
-16.6751
-20.0013
-13.8246
806.53
-17.9526
3.11963
-7.91175
-15.1558
-4.68758
801.513
-28.3242
5.28237
794.908
-11.621
4.36773
790.201
-8.59307
7.17101
786.471
-1.46035
4.32094
785.317
0.859605
0.900505
9.91736
-1.31124
1214.39
317.092
2749.65
1177.4
497.121
216.684
912.954
451.837
62.8406
881.257
114.988
48.668
913.756
215.55
22.8595
217.282
72.5682
33.5651
224.27
206.979
213.296
104.648
71.607
101.917
-7.28161
199.152
32.6738
-0.232993
4.97282
-185.429
185.417
-5.47866
-3.65639
2.2207
-199.798
200.812
-19.2639
-2.49004
-0.953989
-205.35
209.21
-33.5844
2.3082
-1.98269
-218.09
216.85
-29.3723
2.84266
-0.901461
-218.109
217.403
-27.4344
2.42169
-1.12786
-220.627
218.319
-21.9951
2.2984
-1.41665
-218.693
217.303
-17.8868
2.74074
835.332
-9.86012
15.6551
-217.071
-218.764
-205.073
-205.908
-1.97581
-7.63613
0.440657
821.527
2.61586
5.81902
807.078
5.3523
6.65499
798.097
9.25071
6.93023
793.529
8.06455
6.03713
12.1139
2.1484
909.79
989.569
-3105.85
641.886
236.236
-665.512
386.735
378.933
-762.81
420.317
58.0385
-17.9304
156.342
103.811
-29.5363
141.349
147.162
132.732
-9.19782
178.498
51.4566
8.15345
-3.7176
-14.7496
-51.2289
51.2095
15.7346
2.7521
0.438065
-54.55
1.10039
54.2282
-0.676301
-0.540349
0.14327
-57.8423
7.22648
57.8612
-7.31953
-0.0691955
-0.212762
-58.7647
9.24883
58.3559
-8.97744
0.350181
-0.403765
-59.181
8.20672
58.8372
-7.99359
0.534508
-0.298366
-59.0763
7.23903
58.7524
-7.05527
0.43847
-0.883832
-59.3662
6.01711
59.1029
-5.91488
1.04497
-1.48058
-59.4201
4.58658
59.1227
-4.40836
1.59981
-59.5052
-9.03165
232.824
-7.4921
9.0677
-59.6828
-57.9595
-58.081
875.202
27.5778
33.0748
-230.561
-233.93
-217.105
-218.519
851.091
36.7678
23.3268
831.753
34.411
17.7028
821.111
24.117
14.0806
19.5497
5.83878
504.227
673.485
-2313.48
323.935
-45.9966
-515.631
455.143
104.05
-390.535
470.777
46.7025
91.0853
159.089
-20.3976
20.0829
171.912
149.025
160.835
-4.66797
-27.3741
181.386
2.67268
7.07228
-4.54115
-6.98539
-51.8852
55.9725
2.85678
4.58242
-3.6957
1.65369
-60.7031
61.4962
-2.37272
3.62164
-2.29935
6.99673
-62.2693
62.1082
-6.75171
2.21543
-1.08857
8.33218
-61.5348
61.3048
-8.07671
1.06306
-61.1275
-0.921136