/*--------------------------------*- C++ -*----------------------------------*\
  =========                 |
  \\      /  F ield         | OpenFOAM: The Open Source CFD Toolbox
   \\    /   O peration     | Website:  https://openfoam.org
    \\  /    A nd           | Version:  10
     \\/     M anipulation  |
\*---------------------------------------------------------------------------*/
FoamFile
{
    format      ascii;
    class       surfaceScalarField;
    location    "4.5";
    object      phi_0;
}
// * * * * * * * * * * * * * * * * * * * * * * * * * * * * * * * * * * * * * //

dimensions      [0 3 -1 0 0 0 0];

internalField   nonuniform List<scalar> 
38556
(
117.46
445.054
-271.027
446.973
83.4565
-412.969
535.9
-22.4439
-66.4834
708.867
35.7931
-208.76
973.856
9.88378
-274.872
1151.22
-20.5053
-156.862
1239.47
-55.785
-32.4661
1304.12
-72.5348
7.89144
1339.63
-87.0058
51.4898
1380.52
-86.0098
45.1227
1409.7
-69.5404
40.3562
1440.04
-46.27
15.9385
1457.61
-26.8431
9.27055
1469.03
-16.229
4.80796
1474.75
-12.8825
7.1614
1486.2
-18.0987
6.64776
1507.52
-27.647
6.32443
1529.66
-34.5643
12.4277
1551.09
-41.3028
19.8756
-36.3545
23.4927
1370.4
189.413
3389.63
1384.7
-144.204
213.357
1133.23
-167.822
396.853
1132.48
-50.1783
86.7127
1192.15
-86.958
37.1779
1298.02
-100.318
-26.0627
1322.89
-109.091
28.4403
1308.88
-96.0703
37.5479
1228
-91.7855
85.6574
1161.96
-84.5019
64.5313
1125.14
-81.2567
48.5423
1122.82
-73.8585
29.9079
1139.55
-69.2381
25.6637
1164.56
-59.3614
18.117
1189.43
-54.2281
16.4774
1209.79
-47.0789
8.61611
1219.28
-35.9084
-1.22088
1220.62
-30.1702
-5.74081
1208.76
-19.6271
-9.8094
-4.57237
-19.6279
5.95751
-293.498
216.525
385.644
-56.0664
-467.824
683.16
-92.6139
-372.725
869.791
-58.5906
-178.219
995.34
-107.585
-104.921
1100.53
-112.952
-92.5605
1150.43
-142.737
-16.2505
1166.77
-117.188
4.78171
1132.39
-108.815
51.4081
1097.05
-92.4772
43.3087
1069.38
-95.3252
41.744
1062.96
-91.6818
24.239
1070.23
-93.9969
17.4929
1085.34
-85.4641
10.988
1102.65
-81.8845
10.3464
1122.69
-67.8955
0.783595
1137.93
-45.8712
-5.27839
1145.45
-28.4113
-9.27879
1146.82
-6.53306
-14.4668
13.1502
-16.0129
720.118
643.663
2039.01
614.176
-306.455
356.331
928.618
-444.238
37.1825
1002.61
-244.979
112.396
963.524
-135.833
67.3342
892.372
-71.0676
29.2674
870.247
-134.589
13.9777
849.886
-101.431
4.60369
874.376
-139.03
5.72355
899.603
-128.481
10.777
936.96
-148.899
16.2173
969.261
-143.69
19.7076
1000.09
-147.391
22.5671
1027.93
-133.382
20.0722
1050.58
-122.703
18.1669
1074.4
-102.421
10.7121
1098.63
-71.1923
1.0896
1112.43
-39.6129
-2.59951
1123.41
-9.49406
-8.01695
17.9457
-9.67596
1023.85
-227.537
-1969.22
1171.94
-547.105
92.5543
1277.86
-653.236
103.083
1297.19
-369.239
104.934
1143.25
-133.814
151.918
1045.45
-6.9574
33.6852
962.095
-56.479
5.24789
931.213
-44.2021
-26.3462
940.059
-134.065
-13.8108
970.356
-157.337
-1.44093
1003.17
-194.004
12.2922
1029.2
-186.776
17.0597
1045.67
-187.483
23.6152
1058.49
-171.063
24.8609
1063.59
-149.957
22.1538
1067.34
-119.388
13.2197
1076.61
-83.8703
3.40995
1087.27
-49.8333
-0.438974
1104.7
-19.99
-6.93423
13.8338
-6.88436
1677.8
-392.554
1305.22
1738.29
-326.851
-280.746
1770.63
-55.6983
-629.876
1786.98
10.0639
-395.655
1569.05
180.212
-96.0959
1362.83
196.882
2.38274
1197.82
74.3496
34.1769
1098.45
53.1585
2.01135
1057.21
-94.2849
1.45544
1048.61
-148.552
-0.176885
1064.03
-204.728
-4.7013
1074.35
-198.25
1.15327
1079.39
-198.073
5.55033
1076.21
-177.27
9.38651
1060.32
-149.287
15.2195
1038.09
-109.126
11.9636
1025.03
-73.8214
3.0179
1023.02
-45.7824
-2.04114
1036.32
-23.2363
-10.0541
11.3799
-8.64387
444.799
1100.55
-902.946
517.536
354.143
-753.731
1096.04
329.003
-963.21
1048.23
246.595
-188.717
1015.23
281.108
-67.8978
901.039
323.587
-12.5138
902.979
31.1645
25.6793
-5.05883
29.6732
-9.04912
935.243
-7.37164
26.3408
4.91883
-7.49201
4.49939
986.713
-30.1676
18.5333
-51.7193
-31.6167
-50.7848
1040.26
-60.8633
15.5686
-53.0055
-56.2262
-47.5765
1072.2
-63.3884
5.54528
-62.9941
-57.9456
-57.8771
1088.85
-59.6792
-0.684914
-52.7169
-54.4918
-47.328
1096.08
-54.8572
-1.76647
-52.4641
-49.4232
-46.795
1096.68
-49.5306
-5.17027
-42.8266
-43.4232
-36.9241
1079.35
-137.409
5.4571
1050
-88.5671
8.78937
1025.59
-60.2049
10.7984
1010.04
-37.3982
7.15759
1006.45
-19.4799
-0.16611
12.5315
-2.34938
1229.12
15.145
1064.56
1263.98
92.3283
226.956
1089.18
444.176
59.6292
1110.19
183.844
41.7409
1141.35
188.799
61.1484
278.924
56.0158
40.7945
286.723
275.347
281.786
93.1667
60.2001
91.9828
262.699
45.9981
1.39091
-237.57
237.982
-2.16523
-5.6178
-249.262
258.968
-39.1595
-0.713115
-265.897
275.237
-71.3684
1.16591
-282.99
286.111
-68.3371
1.82794
-285.195
286.534
-62.2038
1.1858
-285.739
285.29
-55.772
1.36413
-282.704
283.794
-52.503
1.88197
1095.93
-41.3658
7.502
-280.418
-284.031
-267.583
-271.787
-34.2101
-33.9258
-27.5237
1080.91
-80.7242
7.17998
1060.97
-46.3056
6.03861
1044.74
-29.2637
8.09433
1029.27
-10.848
6.84165
18.2739
2.42081
-1462.48
-788.122
-2067.15
-267.653
-498.498
-603.997
521.576
286.97
-632.023
635.66
76.6486
-6.88819
190.296
33.0217
70.9705
168.728
192.491
168.952
221.935
21.6567
2.72044
-15.6441
-64.1652
64.0161
12.8203
2.97282
-69.0482
-2.91008
71.0651
1.23961
-0.346405
-78.7435
12.6536
79.2426
-13.1902
0.0374763
-77.696
17.5928
77.2865
-17.3606
0.177329
-75.8943
17.6746
75.8268
-17.9848
0.377722
-75.1754
15.4966
75.6745
-16.2522
0.256429
-75.7578
13.732
75.9884
-14.2614
0.298865
-75.491
13.074
75.7262
-13.8918
0.58252
-75.8118
304.874
-49.2669
5.83326
-76.9811
-74.5791
-75.4337
1177.36
-87.4716
25.1926
-301.268
-309.158
-288.561
-296.815
1144.93
-35.6438
21.7599
1109.83
-9.2194
15.061
1076.17
8.03499
14.7782
30.2166
7.61614
-236.909
-674.436
1492.01
158.812
-455.256
-438.963
854.367
76.8187
-485.403
812.474
45.3706
73.1705
212.715
-112.423
83.1695
225.479
212.715
223.84
9.63348
235.465
-29.968
-2.41469
3.15934
-62.8697
65.1365
-6.65712
1.23093
7.21037
-70.4718
71.9882
-9.85722
1.13052
14.4181
-75.132
75.5656
-15.2815
0.429759
17.0248
-76.1002
75.8932
-16.8176
-0.000147862
16.5911
-75.5315
75.3873
-16.6753
0.228398
16.1357
-74.7414
74.6132
-16.49
0.482573
15.5912
-75.3423
76.1357
-17.0031
0.618532
16.4031
-78.9086
79.5193
-17.0716
0.0577499
-80.6739
51.3326
321.391
-51.7092
-1.53473
-80.3021
-79.3066
-79.1972
1270.85
-99.5837
-6.59482
-320.41
-315.63
-308.634
-307.474
1270.1
-38.6166
3.73129
1235.33
7.3815
18.1636
1164.3
45.6497
33.4174
58.9722
17.525
3268.93
36.1884
-4307.58
2424.53
764.761
-375.619
1724.82
479.321
297.212
1348.52
241.718
179.95
268.078
-20.9928
139.216
277.338
283.104
289.355
49.8582
270.662
-56.8515
4.4099
16.2877
-68.5271
69.7954
-18.64
1.08399
16.6258
-73.8617
74.9913
-18.5995
0.844128
14.533
-75.5466
74.8634
-14.0405
0.190834
15.1451
-72.9737
73.0664
-14.8448
-0.393005
19.8014
-73.6573
73.6377
-19.9019
0.120115
20.4191
-73.3112
73.1846
-20.6757
0.383212
19.7079
-72.6284
72.352
-19.8909
0.459475
17.8878
-71.8271
71.9395
-17.9833
-0.0169041
-72.9792
51.7661
293.613
-50.9427
-5.54629
-71.3838
-73.1955
-71.3315
1207.99
-110.892
-38.8733
-297.317
-286.148
-294.08
-280.263
1252.23
-50.5091
-32.3458
1262.63
8.19411
-11.2187
1221.69
75.8081
10.7845
88.1845
6.18926
812.798
30.2665
-1247.6
1189.29
882.394
-494.127
1164.31
725.32
-221.013
1125.18
470.008
-189.161
234.522
66.3914
5.43865
265.948
254.753
277.134
44.6667
249.92
-50.9716
-9.09354
21.1585
-70.1874
71.9848
-22.4087
-0.547294
21.9352
-74.9183
75.3521
-21.5237
-0.845292
13.1224
-75.5113
74.8948
-12.3051
-0.200868
13.9927
-72.5307
71.1162
-13.0194
0.441195
17.7772
-68.2633
67.6966
-17.4456
0.235068
20.2974
-67.9267
68.0193
-20.44
0.0498829
20.3393
-68.5945
68.6245
-20.3893
0.0200208
18.272
-68.965
68.9095
-18.1134
-0.102992
-69.6333
50.061
274.664
-45.7559
-3.09134
-69.4835
-68.5571
-68.2037
1109.83
-113.304
-23.6236
-276.444
-273.284
-268.716
-265.35
1141.52
-41.9866
-40.2118
1171.9
15.5487
-37.7305
1172.55
91.3471
-16.1984
105.508
-8.76871
1683.68
2163.54
513.694
1848.11
967.068
-249.109
1792.26
744.292
36.8798
1799.3
428.385
34.5894
1655.66
105.326
104.7
370.659
-191.143
20.8892
64.2204
119.844
59.4501
107.679
372.434
363.96
367.669
25.0073
342.686
-69.0886
0.676304
22.0206
26.3809
22.9761
18.0564
-303.756
268.874
-49.6234
14.858
16.0277
18.923
16.6406
10.8387
-261.843
260.888
-46.0323
4.80384
10.1541
11.0342
10.1562
13.8307
-265.859
270.572
-60.8007
-0.0832027
14.4719
13.785
14.0833
18.7548
-280.099
283.562
-76.9832
-0.621493
18.7971
18.368
18.2218
20.586
-286.482
284.975
-78.6748
0.101955
20.1889
19.9309
19.3741
19.7951
-286.666
284.017
-73.1139
0.00626612
18.9291
18.9973
18.0357
17.3678
-283.356
278.422
-61.7194
0.916885
16.3516
16.526
15.4913
1079.94
-149.529
7.69502
42.6581
39.8561
35.0142
32.2805
-276.439
-278.139
-263.586
-269.749
1069.68
-99.9141
-3.13649
1074.13
-23.3803
-23.0508
1092.94
22.1789
-25.4407
1109.7
90.6224
-16.0399
105.912
-7.44261
403.112
1570.56
276.36
1140.24
1048.86
-818.924
1348.69
662.55
-126.703
1433.85
357.773
-14.5484
1398.71
104.162
36.3032
1328.16
-79.363
-41.2248
1329.61
-113.033
-10.7826
40.1808
23.308
39.9431
18.9322
1344.34
-202.212
-2.96943
43.0326
54.9021
39.99
52.5259
1345.16
-213.099
5.60767
52.0069
54.5536
49.6928
50.4132
1327.66
-270.239
9.64036
66.6668
77.4032
62.6726
71.3633
1279.02
-262.192
19.0634
76.1258
77.0485
69.3273
69.2592
1229.79
-263.373
15.3088
77.0118
78.7204
69.9995
71.5707
1174.59
-210.592
9.62834
68.8296
66.3401
61.8793
59.1077
1130.02
-186.655
13.3808
58.6035
56.2163
52.0373
50.9865
1095.53
-120.607
5.57243
1063.86
-73.0437
4.79576
1051.82
-8.63541
-2.69702
1055.01
19.1121
-0.129578
1072.98
71.1538
1.49636
89.2654
2.72463
333.103
755.698
324.45
919.259
662.155
-199.454
1565.48
697.399
-681.073
1782.91
459.517
-319.17
1798.83
244.839
-156.599
1751.84
91.1114
-123.478
1694.17
19.9045
-75.2713
1632.13
-75.7315
-64.4436
1540.62
-110.925
-10.6628
1440.57
-180.477
10.2889
1317.76
-170.201
30.8156
1215.11
-185.156
24.437
1150.04
-148.526
3.00128
1102.1
-131.806
-6.9066
1074.33
-83.0512
-9.78744
1056.17
-51.0451
-3.83925
1051.29
-4.71767
0.96533
1052.75
10.3613
7.29235
1068.94
43.5077
11.4534
61.8614
11.3869
1199.23
-33.2374
1339.6
1368.01
453.135
40.2415
1508.98
447.846
108.581
1711.84
330.699
-74.037
1743.46
251.178
-37.9588
1766.7
136.741
-68.8721
1737.46
62.0272
-12.8832
1704.06
-32.4535
-9.87771
1574.13
-29.8598
48.8646
1412.11
-85.3451
66.8904
1248.52
-77.6054
70.9926
1141.99
-115.003
36.3825
1086.95
-103.454
9.96043
1051.37
-97.1403
0.920147
1035.14
-64.465
-2.35821
1026.27
-39.1548
-3.02518
1032.23
-11.9521
1.2829
1045.02
-7.20494
4.76965
1069.16
11.0672
8.30469
33.1294
8.75136
2091.76
-1765.31
1040.92
2252.95
-53.7336
345.684
2250.76
148.796
301.242
2255.68
317.763
8.01534
1942.81
349.637
214.411
1710.78
216.45
152.318
1516.42
110.089
146.303
1391.78
-5.79983
97.9864
1265.39
13.6129
82.9168
1165.7
-39.9633
54.3096
1099.6
-49.6646
38.1533
1056.77
-89.0565
16.8835
1032.44
-90.6174
11.4923
1013.28
-88.9118
10.9337
994.896
-54.9325
8.85134
981.157
-28.2443
2.82809
979.874
-10.4695
-0.198998
987.368
-10.5487
-4.15022
1013.26
-9.35703
-5.46537
14.0097
-3.14185
277.398
-1995.68
-1864.83
1110.99
-981.289
93.9661
1852.07
-638.198
45.914
2320.9
-267.92
116.854
2356.25
121.235
193.051
2195.03
166.789
210.88
1722.6
234.234
348.279
1384.11
132.07
200.627
1218.62
109.181
69.9164
1135.14
30.7854
12.738
1103.95
-5.36994
-13.1112
1088.04
-64.5981
-8.54217
1073.47
-78.993
2.93873
1046.3
-75.0645
13.3307
999.511
-32.3979
24.25
958.716
-4.07315
16.6238
945.235
-6.48093
9.49242
956.913
-28.6629
6.43684
992.191
-47.1204
2.4854
-15.3869
2.4229
875.072
6.97675
608.331
1165.25
-695.865
-575.606
1357.6
-451.854
-378.687
1521.58
-335.732
-96.1737
1501.01
28.8565
112.954
1427.78
74.0272
165.99
1277.1
181.607
203.302
1202.1
124.905
82.173
1181.57
99.4593
30.2447
1200.49
51.5867
-39.7134
1242.74
1.16288
-48.7878
1277.14
-53.7849
-45.2167
1290.2
-80.9011
-11.1502
1275.81
-63.0564
2.3797
1227.58
-23.3014
39.1405
1152.73
30.3237
40.4478
1078.97
54.9896
12.2912
1038.52
33.2363
-21.4529
1034.46
-30.1296
-12.9235
-25.094
1.09026
1300.17
-1855.56
966.068
-361.762
763.607
-249.393
835.966
-408.092
1025.12
-160.293
1240.58
-141.437
1449.52
-27.3293
1652.73
-78.3083
1818.21
-66.024
1936.9
-67.1027
1977.56
-39.4912
1935.08
-11.3082
1850.36
3.81762
1814.38
-27.081
1834
-42.9157
1849.27
15.0481
1829.88
74.3796
1751.66
111.462
1546.7
174.829
119.015
736.155
1915.47
1503.48
559.711
195.324
-431.849
589.669
8.191
-104.632
652.49
18.8018
-290.383
810.944
-12.9241
-420.402
932.102
-59.6028
-218.417
1026.7
-87.9601
-39.1016
1111.39
-98.254
21.455
1178.72
-100.171
84.3293
1243.64
-90.5914
70.7882
1290.39
-72.3104
65.9182
1327.89
-54.898
33.3361
1351.62
-40.816
26.3566
1368.59
-31.0094
18.8557
1381.09
-26.0625
20.7193
1394.4
-25.1968
18.5321
1409.18
-24.4787
16.0211
1428.02
-26.3239
19.9172
1455.16
-29.0836
21.8224
-21.1651
26.9728
860.9
738.93
1587.7
458.538
-184.21
995.253
687.006
-266.049
442.625
765.15
-117.268
144.639
893.854
-156.705
52.254
969.99
-145.568
-16.2331
1001.22
-140.949
50.2005
1007.3
-112.06
45.2682
996.669
-90.8367
86.9589
991.279
-73.3972
52.7274
995.552
-64.7397
36.6984
1010.64
-56.3288
16.2459
1031.08
-51.4315
15.8484
1052.82
-44.2547
9.62108
1071.79
-39.9576
11.3989
1085.67
-33.6804
3.22269
1091.2
-24.495
-6.73447
1091.43
-19.7788
-12.5172
1081.23
-8.22848
-20.4651
3.21813
-33.4351
348.487
-902.794
1653.12
322.807
-457.831
-168.524
540.305
-353.553
-502.719
660.761
-250.458
-165.484
746.339
-255.014
-92.19
799.614
-205.136
-86.2671
844.151
-197.467
-4.26944
871.117
-134.23
-0.0145498
888.033
-107.428
51.0833
898.325
-78.5049
38.1238
911.204
-76.2241
40.3496
926.039
-69.5895
22.6649
943.137
-70.0558
19.0186
960.683
-62.1866
11.3744
976.759
-56.9512
11.2646
989.636
-45.4503
-0.324395
996.684
-30.0742
-6.74641
998.141
-18.8982
-11.6164
992.963
0.901733
-18.4191
12.1071
-19.1244
357.666
-958.316
2742.72
372.441
-518.334
402.06
833.281
-383.019
-394.192
910.008
-248.339
33.55
881.642
-200.938
41.624
817.521
-144.068
32.3206
792.576
-176.275
17.7308
765.806
-107.612
4.75571
785.664
-128.221
6.65802
804.677
-98.4913
11.7498
837.886
-111.764
18.5479
864.918
-98.5075
21.594
892.117
-99.9904
25.3022
913.934
-85.3273
21.3961
931.801
-76.4602
19.8084
947.324
-60.6427
10.382
959.152
-41.3341
0.522043
963.896
-22.5304
-3.71161
965.207
1.92183
-10.3485
15.7652
-11.5454
798.323
-1693.28
-1144.81
910.559
-770.62
232.606
1111.13
-473.947
-6.55878
1113.79
-237.822
91.7614
1017.16
-114.412
162.022
916.316
-42.0973
32.5542
830.346
-119.341
34.2834
790.049
-75.5341
-18.1265
796.765
-147.448
-1.30076
821.86
-128.041
3.01422
854.614
-149.342
17.1158
880.774
-127.837
20.2297
901.505
-124.505
27.3983
917.078
-103.097
27.058
926.628
-87.4137
23.5575
933.075
-66.2363
12.3661
939.307
-46.9132
2.75691
943.321
-25.5737
-1.40938
948.385
-2.26655
-7.80975
14.4533
-7.53756
2465.59
-156.436
1006.71
2053.04
-364.14
-274.68
1813.69
-73.0233
-791.441
1703.71
-21.2732
-502.23
1448.32
147.797
-102.915
1231.88
146.935
29.7879
1060.01
-0.600765
87.3134
943.913
18.722
23.8499
899.582
-114.14
12.4793
885.969
-119.391
4.78689
892.249
-159.159
-1.16366
899.216
-138.335
4.68405
904.778
-134.328
9.8112
906.308
-106.657
11.4168
905.086
-86.856
15.8837
900.015
-61.5165
12.3152
897.103
-44.1866
3.20333
897.069
-25.1868
-2.39379
901.846
-7.40104
-9.69692
11.3467
-8.49823
690.37
1306.38
-3753.43
976.494
494.774
-1898.77
942.247
301.413
-1303.4
900.626
148.498
-316.867
881.189
218.105
-118.769
762.002
265.909
-12.3015
764.636
18.4609
39.9319
-22.5871
14.3431
-27.7044
788.447
-10.059
35.9948
2.93983
-10.8078
3.18399
834.518
-31.6948
19.2842
-49.2753
-32.0623
-47.9288
877.394
-49.1055
22.4969
-39.5604
-45.3
-35.2298
903.514
-49.3424
10.528
-49.5002
-45.4531
-45.9669
918.139
-45.1568
4.39177
-37.7323
-41.3379
-33.809
924.93
-39.9081
4.07319
-37.2464
-36.1659
-33.6381
925.333
-33.2678
0.73282
-27.2631
-29.5094
-22.9233
918.009
-82.1951
8.12025
906.198
-50.7471
9.8309
896.111
-35.4773
12.1768
888.282
-17.9253
7.72469
886.156
-5.41909
-0.0213628
10.8661
-2.12806
231.36
434.668
1197.81
637.134
178.18
137.776
778.842
364.615
-145.281
881.283
111.155
-23.3572
985.858
162.378
12.2999
242.411
59.9905
34.03
247.926
233.678
237.797
88.7677
60.5507
87.4112
-7.61349
228.584
34.6188
5.28239
5.29274
-203.658
208.016
-13.7517
-5.95758
0.477501
-220.183
226.853
-37.922
-0.920242
-0.365799
-230.465
238.675
-58.1527
1.20354
-1.13818
-245.582
247.913
-52.994
2.459
0.151625
-246.6
248.699
-48.7386
1.33151
-0.0913136
-248.919
249.353
-41.9976
1.74667
-0.485702
-247.042
248.632
-36.3468
1.97519
957.113
-24.2478
16.5497
-245.864
-250.785
-234.182
-238.737
-18.9177
-20.4497
-15.1733
942.869
-39.2352
9.91278
923.831
-19.6477
9.24656
910.811
-6.05178
9.24094
901.963
2.12783
8.14266
13.9719
2.84562
-1166.33
101.769
-6501.95
-259.195
-158.092
-1174.86
270.494
264.875
-1061.97
420.726
30.0014
-75.9661
167.944
34.7171
3.6024
146.12
161.362
140.328
-6.53597
198.672
30.2548
5.54382
-4.12887
-14.0793
-57.7138
58.2635
14.1154
3.54301
0.104233
-61.4394
0.353309
62.6211
-1.45083
-0.188366
-0.254578
-66.922
11.5415
67.5917
-12.2063
0.249675
-0.178535
-67.4631
14.4576
67.5133
-14.6902
0.360902
-0.410247
-67.117
13.5243
67.2909
-13.8713
0.583343
-0.18643
-66.7357
11.9273
67.0788
-12.4471
0.363171
-0.542865
-67.0584
10.5312
67.3999
-11.1457
0.815874
-1.08494
-67.2075
9.0039
67.5425
-9.6959
1.44189
-67.3203
-7.54552
269.156
-27.2169
9.72828
-68.3368
-65.8729
-66.8402
1023.29
-19.8155
31.7836
-264.791
-273.597
-252.055
-258.858
993.672
6.99784
24.7343
964.948
17.5696
20.1636
944.233
19.1381
18.4825
23.79
8.71239
-18.0441
-98.9211
1183.81
307.188
-202.422
-719.865
513.38
111.272
-537.991
543.457
0.0271739
73.0673
180.737
-121.707
60.1715
189.797
172.456
179.89
-1.63246
-1.01228
204.243
-21.5143
0.653034
-3.39738
-1.3166
-57.4647
61.0051
-2.39737
3.57088
-3.55957
5.08729
-67.3313
68.6738
-6.8818
4.01167
-1.91862
11.7547
-70.2381
70.0882
-11.8881
2.20193
-0.533365
13.764
-69.2095
68.8277
-13.551
0.702163
-0.917681
13.4527
-68.2012
68.1609
-13.4988
1.00406
-1.35649
12.8587
-68.7242
69.0607
-13.2912
1.45252
-0.985459
12.3558
-70.6852
71.2838
-12.9962
1.0273
-0.160449
10.8295
-72.7926
73.0542
-11.2214
0.290652
-73.1711
1.19335
26.8067
290.041
-27.3078
-0.180542
-73.644
-71.5903
-72.1477
1115.99
-14.6203
-1.63918
-287.637
-289.445
-273.205
-275.852
1089.5
25.5005
11.7212
1048.86
50.6575
25.7138
1005.61
59.6192
36.1889
49.5809
16.4249
1034.46
-1182.23
-5735.51
365.015
161.649
-70.2485
750.627
111.204
-88.3325
746.429
45.5273
138.648
217.082
-173.979
89.8783
221.003
203.498
206.455
-13.3178
35.9786
230.677
-44.8251
8.56921
-5.56955
11.8781
-61.0096
63.8096
-14.5326
5.42405
-3.99343
12.8717
-68.4745
69.4966
-14.5906
4.69021
-2.49738
11.584
-69.5382
68.7676
-11.2669
2.9508
-0.910035
13.0968
-66.4082
65.8301
-13.1209
1.51227
-0.560801
15.1786
-65.6326
65.924
-15.3281
0.41881
-0.889454
15.1719
-67.3869
67.8358
-15.4004
0.66911
-0.575194
14.1572
-68.7774
69.0048
-14.1837
0.37433
0.540357
11.5517
-69.6746
69.9648
-11.5645
-0.817712
-70.5658
9.37653
26.9833
279.547
-27.2522
-11.9574
-68.6911
-69.6006
-67.8395
1100.26
-35.6444
-40.5956
-280.76
-268.071
-269.564
-259.115
1098.89
23.8155
-29.2923
1079.54
62.5032
-3.71574
1044.42
87.4113
18.1088
74.3173
6.07346
318.231
-1388.43
-1473.12
257.419
227.824
-499.491
739.577
107.617
-699.584
667.915
103.998
-175.969
186.938
-202.118
-61.7332
210.695
170.196
195.396
14.1977
51.3762
211.685
-71.2835
-19.0368
-1.11259
18.8533
-62.7176
65.9729
-21.4335
0.437499
-2.12706
18.3987
-67.5447
66.9652
-18.4548
2.76266
-1.27425
10.6257
-64.9025
64.2237
-10.3316
1.65895
-1.13448
12.6061
-62.8826
62.3624
-12.2012
1.24974
-0.514471
14.9351
-61.4258
61.1513
-14.6904
0.544262
0.0355636
15.5133
-61.2422
61.2762
-15.4629
-0.120054
0.272229
14.191
-61.8953
62.0336
-14.1089
-0.492637
0.823562
11.5447
-62.8873
63.1338
-11.4525
-1.16223
-64.2467
6.02173
26.8996
253.25
-23.951
-8.86672
-63.4051
-63.319
-62.3831
1013.38
-49.1736
-33.9311
-254.996
-248.687
-245.917
-239.947
1024.29
17.8781
-45.1814
1024.96
54.1051
-29.9998
1014.54
88.0746
-6.44391
81.0356
-6.36553
558.179
-84.7441
-2428.52
1023.59
423.196
-909.888
1276.56
253.632
-362.109
1356.58
158.408
-99.8361
1292.23
-85.6005
52.5305
291.141
-242.613
-0.000813243
83.8591
120.756
85.8719
122.564
294.957
275.562
281.021
24.1655
-11.2762
270.105
-64.4507
7.95637
20.6511
23.9019
20.088
15.2539
-25.4334
-242.712
228.313
-39.9117
24.8286
12.987
14.4261
12.2484
10.8505
-7.17815
-232.235
234.499
-44.1225
7.52834
10.01
10.7405
9.90752
12.8141
-0.492958
-237.214
239.227
-52.9153
0.954918
12.6121
12.658
12.3569
15.3832
0.334408
-245.729
246.282
-60.6116
0.0258035
14.8992
14.9936
14.4221
15.6557
-1.26942
-247.252
245.66
-58.4395
1.54144
14.8472
15.0677
14.1888
13.996
-1.74351
-247.647
245.876
-50.8099
1.93098
12.8914
13.3156
12.1902
11.1215
-3.64506
-245.735
243.34
-37.6694
2.99169
9.9461
10.4255
9.22431
951.279
-76.0547
2.01735
23.6259
21.2028
19.036
17.3718
-243.164
-242.932
-232.612
-232.075
952.959
-41.0277
-12.9621
957.706
16.5101
-26.4304
966.869
41.2737
-21.7722
973.268
76.1697
-10.5339
74.5632
-3.16068
334.114
-16.5094
499.728
963.778
327.977
-1353.37
1173.15
244.716
-327.162
1228.19
160.881
-72.0575
1161.05
-0.212691
18.0587
1053.97
-123.041
-53.7211
1059.77
-111.726
-6.33466
38.5182
15.6695
35.5012
11.7937
1076.79
-202.976
-0.100351
39.2189
53.293
37.5069
53.0601
1083.63
-200.853
12.6388
47.6692
47.4857
46.3534
45.4791
1073.98
-241.842
18.5609
58.1888
65.4953
55.7718
63.1166
1047.71
-217.207
27.9137
60.8593
60.0315
57.4324
56.2947
1019.62
-205.841
21.82
58.566
59.5009
54.2057
55.1539
983.891
-147.253
14.3338
48.6752
45.4053
43.7156
40.4785
955.987
-113.495
16.6172
37.2058
36.4669
32.4147
32.0749
938.262
-56.7061
3.94916
925.77
-25.4073
1.66725
926.843
15.4416
-2.70157
937.402
28.7461
1.83864
952.758
58.0555
4.25456
61.1136
6.43378
382.721
89.9796
1111.69
1233.78
11.4006
-733.934
1559.98
321.026
-1083.59
1618.79
270.351
-487.455
1508.48
154.708
-201.207
1400.78
7.56723
-146.38
1334.11
-50.1927
-70.1398
1268.65
-140.868
-61.0871
1206.74
-144.91
-4.69868
1146.83
-184.755
13.1116
1078.1
-150.108
32.4499
1017.4
-147.857
27.1494
971.878
-102.39
3.66013
937.606
-81.3081
-4.822
920.548
-41.2797
-8.15642
913.075
-18.5016
-3.2718
917.044
10.0871
2.35105
928.458
15.6254
8.99953
947.707
37.1115
13.1486
44.1981
13.9183
781.633
416.985
-894.288
1038.76
76.388
-281.875
1277.27
184.979
6.11933
1390.09
197.299
-113.809
1360.77
170.26
-24.1883
1338.43
40.0057
-78.967
1304.39
-31.9583
2.91683
1273.81
-118.856
-1.31006
1213.42
-94.2514
58.5992
1140.08
-112.1
67.5749
1055.43
-73.3484
78.8844
989.958
-84.5733
38.5699
946.921
-61.8325
12.4404
918.65
-53.6299
1.5124
906.18
-29.1491
-2.01791
900.05
-13.6797
-1.71717
905.539
2.76934
3.11191
918.588
2.21473
5.13104
941.028
13.2347
9.7417
25.889
10.3293
940.994
-1149.89
3049.43
1385.38
108.832
-131.15
1676.99
195.074
-0.454631
1661.37
301.195
-80.2623
1499.4
307.091
239.546
1382.26
154.57
154.891
1260.63
67.3634
168.618
1163.98
-23.1246
98.9026
1071.92
-12.5404
93.2679
1001.36
-42.6414
55.4055
953.636
-31.0317
43.5649
920.664
-51.2063
16.4884
901.179
-44.5108
13.6547
887.928
-40.0041
10.5589
877.394
-17.184
7.42089
870.093
-5.34575
1.79528
871.037
2.04747
-0.421689
878.539
-3.45218
-5.9849
897.913
-6.45762
-5.14673
8.6947
-2.33862
672.413
-1659.79
352.153
1159.03
-534.688
250.866
1476.42
-106.224
29.8219
1726.87
126.556
41.0508
1698
304.453
224.557
1621.46
218.331
223.66
1402.14
231.288
403.676
1214.28
125.849
239.507
1071.08
93.6568
106.916
990.086
29.3613
21.7342
953.796
4.5501
-12.4038
932.901
-31.4164
-7.4373
917.656
-31.9057
5.57891
900.876
-22.3845
12.4916
878.992
10.0817
18.8675
858.937
19.5705
11.7628
852.85
12.604
5.02326
866.077
-15.7689
5.52706
895.247
-38.1872
5.04491
-14.6353
4.79927
2071.87
-240.228
-1078.33
1584.06
-462.081
-160.409
1355.49
-16.206
-240.129
1359.48
54.7341
-28.3438
1243.16
318.402
215.328
1185.48
220.381
221.614
1101.45
269.668
248.954
1048.73
181.281
79.4615
1023.1
140.188
9.34761
1011.33
73.9388
-72.521
1013.49
19.9764
-66.3793
1014.69
-23.3387
-54.4908
1014.01
-33.0182
-9.36533
1005.67
-20.6857
9.03049
992.943
25.1135
36.8309
975.823
56.36
20.7785
957.357
52.28
-8.91848
946.755
11.2965
-37.9167
951.77
-48.5824
-7.54323
-29.6251
6.39406
955.059
-7000.41
269.327
-138.111
651.863
-648.135
565.64
-267.134
802.254
-78.5058
929.628
-48.4301
1112.86
59.1096
1231.54
-15.7129
1320.65
-14.9409
1387.3
-59.8192
1417.96
-50.1767
1415.4
-32.0861
1409.14
-22.9384
1407.43
-46.0568
1447.95
-58.3229
1540.42
-21.0559
1600.04
67.0386
1557.68
165.112
1410.81
273.123
188.822
1279.46
-1034.69
-537.993
769.78
-244.312
322.144
824.763
-236.979
77.364
794.953
-73.3485
-187.225
771.965
-43.9188
-353.494
821.599
-87.2263
-180.825
896.522
-105.832
-8.19306
981.742
-102.32
38.5553
1063.42
-90.7928
93.4463
1140.08
-72.5391
66.6607
1196.05
-52.5981
62.5486
1234.62
-38.0363
32.803
1258.14
-26.9116
29.7539
1273.21
-20.7832
24.562
1284.73
-17.3623
26.5646
1297.51
-17.1393
22.8913
1310.12
-15.8086
19.2231
1328.54
-16.7998
18.2955
1354.09
-14.8347
11.1046
-4.74008
17.1514
155.669
-901.954
-747.459
302.655
-455.855
1059.81
509.621
-360.367
359.048
597.819
-160.633
143.726
715.219
-168.931
59.8666
758.47
-143.576
-3.13425
790.786
-133.145
45.1981
804.904
-95.0312
23.8619
827.066
-74.274
48.2777
845.957
-55.3686
16.6658
868.896
-48.2352
9.39601
890.588
-41.0706
-2.41169
913.725
-37.6232
3.42284
933.889
-32.2544
0.92813
951.295
-28.5514
5.18267
962.94
-23.1507
-2.41128
966.81
-15.7853
-10.6275
966.092
-11.6988
-16.9006
957.26
0.0566051
-26.5243
6.93384
-35.9209
673.892
-1064.35
446.519
654.76
-450.673
-154.573
476.438
-401.365
-283.399
539.165
-277.837
-111.008
589.667
-263.849
-47.7739
616.976
-198.938
-58.2137
661.727
-185.046
2.88123
686.871
-114.436
-5.75414
724.228
-94.1756
33.6284
750.309
-64.1256
20.7989
779.528
-63.0401
25.936
801.659
-54.1598
13.6227
823.053
-53.8308
13.8326
840.529
-46.1473
7.79122
855.613
-40.9388
8.5676
864.681
-31.3112
-1.23193
867.986
-20.0258
-5.81104
866.567
-12.0674
-9.8277
859.319
3.77662
-14.8911
10.3221
-15.3244
578.944
-280.333
795.574
726.632
-71.1804
-125.122
795.899
-223.128
-641.696
809.602
-203.799
-54.1914
765.794
-186.463
8.04628
709.005
-135.561
25.7315
696.379
-170.622
15.9331
671.522
-89.759
4.93552
692.829
-113.653
4.82888
706.218
-74.579
8.81398
735.656
-87.5987
13.6688
757.016
-69.7859
15.8595
781.163
-71.6179
18.9429
798.658
-57.5014
15.2545
814.308
-51.3103
14.53
825.7
-38.6783
6.35674
832.453
-25.9876
-0.26842
833.307
-13.6353
-2.99801
830.721
4.38605
-8.37231
12.2177
-9.15232
872.936
568.357
3729.64
620.705
180.874
232.782
767.556
-192.622
-183.916
766.668
-132.492
21.342
757.492
-100.938
85.673
695.68
-52.4693
11.2744
670.522
-144.004
32.8225
653.497
-78.6595
-12.2011
674.656
-139.511
3.39797
698.711
-99.5393
3.92043
731.163
-117.885
14.9497
754.694
-88.9699
15.8833
776.512
-87.3087
21.2704
791.952
-65.3199
19.437
803.266
-56.013
16.9463
810.262
-40.475
7.16632
815.29
-29.4386
1.18019
816.794
-15.0576
-1.49097
817.457
2.15033
-6.23648
11.3875
-5.61877
2220.24
1470.29
2214.61
1975.96
432.899
-282.423
1611.77
96.138
-716.016
1386.82
9.65877
-419.425
1123.48
128.52
-69.0377
959.086
113.311
28.4043
875.004
-54.7476
82.1385
795.434
4.99033
19.7709
766.952
-111.999
13.4493
755.171
-88.946
5.97455
760.256
-125.658
1.52409
765.549
-95.8624
6.2835
773.202
-94.5032
9.35282
776.164
-65.9187
9.05308
779.875
-54.9265
11.0867
781.689
-37.8477
7.8738
783.081
-29.1498
1.52209
783.471
-16.2497
-1.59147
785.409
-2.96442
-6.51954
8.1914
-5.57397
2229.45
1042.71
-4061.26
1639.77
678.755
-1554.95
1002.72
348.797
-919.005
799.7
118.382
-222.574
727.072
180.778
-98.3986
606.031
222.179
-0.129503
634.839
3.08464
31.8985
-36.4527
-2.17502
-39.9783
658.757
-11.1435
30.2542
3.61631
-10.7292
5.06914
705.221
-31.4254
13.127
-45.8484
-31.0772
-43.9545
742.343
-39.0934
22.2617
-28.0547
-35.1834
-23.5014
767.248
-38.9458
10.6693
-39.7186
-35.4665
-36.5744
781.294
-34.2332
7.96774
-26.1693
-30.7638
-22.3181
790.009
-29.4072
7.49692
-26.9925
-26.2082
-24.034
792.34
-22.8887
5.18372
-16.4888
-19.9872
-13.336
789.674
-51.3081
7.16841
784.61
-29.4202
6.46676
781.176
-22.1047
8.56656
778.142
-10.2742
4.78258
778.125
-2.93914
-0.0291011
6.97114
-1.2926
846.535
293.426
2697.38
991.57
389.752
281.743
819.164
350.506
25.416
820.107
65.091
28.9908
862.329
139.64
11.2153
206.364
57.6056
28.9706
210.53
196.455
199.768
82.3213
56.7175
79.8074
-9.15636
194.067
20.1171
4.42001
4.94456
-170.664
178.354
-20.1414
-3.63621
1.33509
-190.884
195.655
-35.9594
-1.57237
-1.16743
-196.992
204.604
-47.9217
2.38417
-2.16051
-211.109
213.377
-41.9773
2.92396
-1.17041
-211.995
214.732
-38.435
2.63542
-1.54296
-215.595
216.486
-31.4326
2.67762
-1.90122
-214.342
216
-25.8635
3.21865
827.981
-14.8474
19.8648
-213.372
-217.966
-201.39
-205.092
-10.3262
-12.4196
-7.19149
815.449
-14.6024
7.62755
801.592
-6.22321
7.22202
793.559
0.806655
6.19262
790.331
2.48563
5.94587
8.66589
2.02672
406.127
739.372
-3679.48
446.088
-23.9661
-801.106
271.026
208.274
-744.679
347.248
-34.9036
-52.1936
143.43
20.7282
-48.8588
124.819
134.17
116.202
-8.06759
169.373
32.7863
6.94302
-3.81237
-11.3239
-48.9503
49.4147
11.8265
2.84541
-0.0340349
-52.0266
3.62071
52.9332
-4.39811
-0.0951939
-0.109505
-56.5799
10.5384
57.291
-11.308
0.168007
-0.339776
-57.5665
12.1757
57.845
-12.5787
0.464226
-0.48877
-58.183
10.7539
58.5198
-11.1983
0.596384
-0.409873
-58.2432
9.44803
58.5963
-9.93476
0.543465
-1.0295
-58.7352
7.87435
59.1178
-8.41833
1.19088
-1.68414
-58.9162
6.10752
59.2227
-6.54617
1.81629
-58.7288
-9.65477
233.672
-14.9364
9.6053
-59.6073
-57.1906
-58.0071
872.965
12.2973
28.8347
-228.332
-234.553
-214.88
-219.15
850.587
19.2539
21.6356
832.868
21.534
17.1556
823.47
15.9193
14.4468
16.0291
6.07862
247.944
-193.822
-2336.35
276.568
-343.619
-428.837
386.197
-43.0257
-396.32
409.755
-57.9459
72.551
153.172
-131.641
18.3078
159.271
143.171
148.374
-5.38204
-5.04867
174.902
-18.9411
7.64187
-5.03672
-2.36862
-50.5409
53.9954
-0.995976
4.94681
-4.42254
5.91916
-59.6319
60.585
-6.76058
4.31094
-2.44691
11.0797