/*--------------------------------*- C++ -*----------------------------------*\
  =========                 |
  \\      /  F ield         | OpenFOAM: The Open Source CFD Toolbox
   \\    /   O peration     | Website:  https://openfoam.org
    \\  /    A nd           | Version:  10
     \\/     M anipulation  |
\*---------------------------------------------------------------------------*/
FoamFile
{
    format      ascii;
    class       volScalarField;
    location    "4.5";
    object      turbidity_0;
}
// * * * * * * * * * * * * * * * * * * * * * * * * * * * * * * * * * * * * * //

dimensions      [0 0 0 0 0 0 0];

internalField   nonuniform List<scalar> 
12920
(
-0.0151965
-0.0413352
-0.056896
-0.0667479
-0.0817267
-0.103393
-0.128639
-0.152847
-0.177336
-0.202342
-0.22552
-0.246239
-0.265186
-0.283514
-0.30132
-0.318261
-0.333475
-0.34669
-0.358326
-0.369003
-0.0104728
-0.0302066
-0.0516702
-0.0728372
-0.0883026
-0.10128
-0.118513
-0.143226
-0.1787
-0.222905
-0.265442
-0.29879
-0.322361
-0.338665
-0.350002
-0.35728
-0.360477
-0.362078
-0.363505
-0.362764
-0.0234342
-0.0423624
-0.0542757
-0.0662525
-0.080208
-0.097353
-0.125123
-0.156252
-0.193751
-0.236878
-0.280119
-0.316969
-0.345646
-0.366787
-0.38159
-0.389131
-0.389068
-0.385765
-0.382414
-0.38275
-0.0289538
-0.0621583
-0.0777364
-0.1007
-0.136757
-0.183594
-0.229171
-0.268916
-0.299082
-0.32307
-0.341518
-0.358679
-0.375574
-0.393511
-0.411254
-0.426655
-0.435861
-0.438232
-0.435077
-0.431475
-0.0283143
-0.0377416
-0.0510813
-0.0716557
-0.0994258
-0.135676
-0.175074
-0.214692
-0.251798
-0.280453
-0.29929
-0.315823
-0.33311
-0.354907
-0.381666
-0.411533
-0.439042
-0.45917
-0.469538
-0.474813
-0.0269415
-0.0397271
-0.0479799
-0.0651833
-0.0934466
-0.132241
-0.176292
-0.213306
-0.237057
-0.250183
-0.257401
-0.266999
-0.279555
-0.299554
-0.329488
-0.369575
-0.412735
-0.449594
-0.475581
-0.494638
-0.0761851
-0.0542383
-0.0549158
-0.0911142
-0.128788
-0.165468
-0.195915
-0.212504
-0.208546
-0.20399
-0.20153
-0.204811
-0.211585
-0.225305
-0.251898
-0.294091
-0.346729
-0.403958
-0.45753
-0.500442
-0.0150605
-0.0388636
-0.0652147
-0.10566
-0.142297
-0.170694
-0.173975
-0.158646
-0.137188
-0.118446
-0.113262
-0.114643
-0.117306
-0.118336
-0.128455
-0.156053
-0.192421
-0.239347
-0.297384
-0.363991
-0.0541332
-0.0644806
-0.0739671
-0.115045
-0.140205
-0.143603
-0.150166
-0.134547
-0.106081
-0.090871
-0.0884811
-0.0924946
-0.096647
-0.099443
-0.106793
-0.124491
-0.147194
-0.178962
-0.222899
-0.279144
-0.111184
-0.0593818
-0.0740028
-0.109064
-0.132915
-0.128051
-0.119291
-0.105058
-0.0940323
-0.0910034
-0.0950389
-0.102108
-0.109393
-0.114868
-0.122678
-0.131625
-0.150091
-0.172979
-0.204326
-0.246325
-0.0224909
-0.0392642
-0.0636793
-0.0904494
-0.114292
-0.113153
-0.10801
-0.0991433
-0.0930724
-0.0956122
-0.106345
-0.12104
-0.13443
-0.142161
-0.143068
-0.131928
-0.146531
-0.167232
-0.193691
-0.226398
-0.0223412
-0.0485778
-0.0662725
-0.0809756
-0.102039
-0.10299
-0.107221
-0.110886
-0.108836
-0.114526
-0.135929
-0.159378
-0.17819
-0.188873
-0.189596
-0.172204
-0.171037
-0.179363
-0.198826
-0.224236
-0.0130037
-0.0393949
-0.0589358
-0.0756894
-0.0923855
-0.114921
-0.121386
-0.137737
-0.153066
-0.168295
-0.188558
-0.212085
-0.236325
-0.255343
-0.283251
-0.279221
-0.261438
-0.249038
-0.24834
-0.259774
-0.0243667
-0.0462845
-0.0639803
-0.0770383
-0.0906665
-0.106268
-0.130183
-0.154172
-0.178855
-0.20497
-0.235442
-0.270014
-0.305849
-0.340116
-0.369132
-0.388092
-0.390142
-0.378206
-0.361542
-0.355027
-0.0418482
-0.047397
-0.0522753
-0.061715
-0.0718537
-0.0822476
-0.0976372
-0.117415
-0.145392
-0.179767
-0.219891
-0.264059
-0.305817
-0.34166
-0.37345
-0.402298
-0.422968
-0.433891
-0.435992
-0.438014
-0.017888
-0.0357893
-0.0478877
-0.0576023
-0.0690988
-0.0810351
-0.0976731
-0.118375
-0.145446
-0.183949
-0.231395
-0.282387
-0.329999
-0.371208
-0.405891
-0.434968
-0.458036
-0.475105
-0.486731
-0.496487
-0.0157179
-0.0220379
-0.034758
-0.0512141
-0.0710459
-0.0967986
-0.125113
-0.157087
-0.192171
-0.229517
-0.265598
-0.301271
-0.341172
-0.384542
-0.427287
-0.463211
-0.48985
-0.507918
-0.521886
-0.533559
-0.0341786
-0.0412892
-0.048217
-0.0558919
-0.0658957
-0.0830287
-0.113299
-0.159871
-0.203479
-0.230568
-0.247511
-0.267853
-0.301038
-0.346792
-0.401457
-0.451206
-0.489294
-0.517227
-0.539558
-0.556458
-0.0172095
-0.0406523
-0.0584057
-0.0784632
-0.0974097
-0.125274
-0.158161
-0.189387
-0.205992
-0.204212
-0.202533
-0.206906
-0.22178
-0.247666
-0.288125
-0.340146
-0.395853
-0.445681
-0.494058
-0.543312
-0.0146419
-0.0307813
-0.0513019
-0.0682834
-0.0957913
-0.109749
-0.12494
-0.130979
-0.136266
-0.140821
-0.148558
-0.159787
-0.170997
-0.178681
-0.190496
-0.212438
-0.237318
-0.264047
-0.307567
-0.38248
-0.00320184
-0.00818202
-0.00790443
-0.010285
-0.0166662
-0.0254677
-0.0391298
-0.0530847
-0.0652471
-0.0680651
-0.064017
-0.0541945
-0.0441169
-0.0353486
-0.0305411
-0.0294314
-0.0320229
-0.03967
-0.0505235
-0.0618018
-0.0093124
-0.0136749
-0.0210983
-0.0166716
-0.0188581
-0.0265721
-0.0438983
-0.0627498
-0.0800522
-0.0826083
-0.0754963
-0.0627198
-0.0517271
-0.0406229
-0.0315618
-0.023248
-0.0183743
-0.0174822
-0.0191437
-0.0228701
-0.0121036
-0.00804545
-0.00756651
-0.00876927
-0.0127207
-0.0194213
-0.0335751
-0.0485683
-0.0638131
-0.0665406
-0.0648818
-0.0582298
-0.0531979
-0.0465286
-0.0402394
-0.0323536
-0.0273045
-0.0256563
-0.0273424
-0.0324338
-0.0123743
-0.0225183
-0.0192358
-0.0227691
-0.0258801
-0.0289531
-0.0344408
-0.0441596
-0.0573121
-0.0705714
-0.0838124
-0.0928555
-0.0978525
-0.0955652
-0.0872895
-0.072747
-0.0578122
-0.0483741
-0.0448685
-0.0473784
-0.00937108
-0.0164393
-0.0243092
-0.0284844
-0.0329696
-0.0286267
-0.0284159
-0.0352653
-0.0466725
-0.0608778
-0.0771303
-0.0920595
-0.104493
-0.111606
-0.110845
-0.101077
-0.087281
-0.0760374
-0.0694316
-0.0685022
-0.00910229
-0.0113138
-0.0144076
-0.0187712
-0.0229098
-0.024801
-0.0283394
-0.0306187
-0.0339071
-0.0385665
-0.0449364
-0.0550042
-0.0669975
-0.0783104
-0.0856416
-0.0842073
-0.0766402
-0.0695921
-0.0657622
-0.0665454
-0.0257959
-0.015098
-0.0128502
-0.0194875
-0.0282512
-0.0346473
-0.0396978
-0.0397024
-0.0358792
-0.0332095
-0.031825
-0.0335977
-0.0383033
-0.0456877
-0.0564196
-0.0662234
-0.0719101
-0.0717968
-0.0684778
-0.0681195
-0.008396
-0.014081
-0.0120423
-0.0241669
-0.0350273
-0.0403136
-0.0428325
-0.0365377
-0.0306129
-0.0276965
-0.0270143
-0.0288239
-0.0329257
-0.0359136
-0.0337606
-0.0378792
-0.0460259
-0.0555386
-0.06323
-0.0695115
-0.0203273
-0.00897043
-0.0106887
-0.0226856
-0.0346541
-0.0356283
-0.0463938
-0.0406437
-0.0369884
-0.0276922
-0.0246751
-0.030458
-0.0450188
-0.0627849
-0.0610448
-0.0451549
-0.0471148
-0.0532139
-0.0617107
-0.0690529
-0.0105389
-0.0114854
-0.0133869
-0.0269198
-0.0392208
-0.0362675
-0.0419231
-0.0469637
-0.0421397
-0.0312639
-0.0372057
-0.0567578
-0.0690915
-0.067445
-0.0497215
-0.0409297
-0.0482231
-0.0584817
-0.0684145
-0.0715302
-0.00609139
-0.0150683
-0.0218177
-0.0244001
-0.036191
-0.0405242
-0.0534804
-0.0629094
-0.0620126
-0.0471491
-0.0455033
-0.0557241
-0.0593003
-0.0498772
-0.0323594
-0.0279805
-0.0336936
-0.0427187
-0.0540158
-0.0602304
-0.0190594
-0.0152917
-0.0145434
-0.0178196
-0.0316803
-0.0342559
-0.0422512
-0.0562939
-0.0565798
-0.0462202
-0.0405014
-0.0427119
-0.0452166
-0.0431643
-0.0361755
-0.0331577
-0.0350614
-0.0399854
-0.0463623
-0.0514574
-0.00204143
-0.011618
-0.0209563
-0.0235349
-0.0305964
-0.0309979
-0.0391313
-0.0541504
-0.0409603
-0.0310577
-0.0318006
-0.0387691
-0.0489315
-0.0590381
-0.0571677
-0.0532993
-0.0502169
-0.049986
-0.0520397
-0.0550676
-0.00241991
-0.00873784
-0.0120939
-0.0127545
-0.0138271
-0.0143684
-0.0174887
-0.0211571
-0.0252459
-0.0307704
-0.0369663
-0.0418008
-0.0480581
-0.0594603
-0.0678509
-0.0726674
-0.0728069
-0.0727119
-0.0721419
-0.0719105
-0.00675311
-0.00640844
-0.00659143
-0.00679559
-0.00624584
-0.00614994
-0.00808637
-0.0126724
-0.0208509
-0.0321166
-0.04185
-0.0454553
-0.0434711
-0.0439247
-0.0477276
-0.0552015
-0.065487
-0.0762049
-0.082247
-0.0832141
-0.0100948
-0.00969119
-0.0106994
-0.00832204
-0.00701569
-0.00733016
-0.0110714
-0.0197271
-0.0366521
-0.0534532
-0.0642409
-0.0651077
-0.0609641
-0.0576487
-0.0567697
-0.0581701
-0.0623026
-0.067233
-0.0707841
-0.0709727
-0.00589377
-0.00879399
-0.0141906
-0.0192326
-0.0294878
-0.0353256
-0.0411905
-0.0500805
-0.0633792
-0.0691875
-0.0729991
-0.0751031
-0.0790122
-0.0805162
-0.076104
-0.0680685
-0.0606451
-0.0549526
-0.051799
-0.0513541
-0.00480275
-0.0134822
-0.0171751
-0.0237007
-0.0335962
-0.0476206
-0.0656578
-0.070948
-0.0601193
-0.0483229
-0.0482096
-0.0569761
-0.0731121
-0.0880424
-0.0963152
-0.0929075
-0.0830647
-0.0711206
-0.060956
-0.0536189
-0.00174434
-0.0103859
-0.0239875
-0.0372239
-0.0535193
-0.068767
-0.0764443
-0.0621336
-0.0431103
-0.0305287
-0.0286305
-0.0340727
-0.0455222
-0.0613495
-0.081874
-0.0926008
-0.0935
-0.0937812
-0.0928854
-0.0807319
-0.0077461
-0.0102421
-0.0159958
-0.0248863
-0.04114
-0.043032
-0.0432642
-0.0374607
-0.0328691
-0.0304675
-0.0302388
-0.0304143
-0.0310094
-0.0349188
-0.0457263
-0.0661275
-0.0963939
-0.136685
-0.1852
-0.224298
-0.00422865
-0.00312021
-0.00406171
-0.00690106
-0.0126709
-0.0198109
-0.0274814
-0.032389
-0.0349823
-0.0332362
-0.0295516
-0.0247431
-0.0203312
-0.0166516
-0.0142094
-0.0131128
-0.0134036
-0.0151668
-0.0179361
-0.0213076
-0.00326586
-0.00772613
-0.00947679
-0.0106877
-0.0157335
-0.021419
-0.0299006
-0.033152
-0.0322784
-0.0243152
-0.0171015
-0.0121781
-0.0102837
-0.00980573
-0.0104706
-0.0119642
-0.0142436
-0.0171387
-0.0204699
-0.0241916
-0.00337225
-0.00476574
-0.00559828
-0.00670764
-0.00932145
-0.0123552
-0.017715
-0.0197768
-0.0215929
-0.0190968
-0.0174648
-0.0158755
-0.0155715
-0.0155513
-0.0163344
-0.018008
-0.0209178
-0.0250338
-0.0301523
-0.0361702
-0.0154564
-0.0107929
-0.00797255
-0.00930283
-0.0111904
-0.0128076
-0.0155091
-0.018364
-0.0226672
-0.0262339
-0.0300809
-0.0317499
-0.0322859
-0.0308036
-0.0291412
-0.0281285
-0.0292186
-0.0325509
-0.0375009
-0.0434728
-0.00768321
-0.0112638
-0.0134915
-0.0139892
-0.0148933
-0.0143089
-0.0170071
-0.0211488
-0.0261822
-0.0317018
-0.0371593
-0.0412993
-0.0436589
-0.0432217
-0.0405944
-0.0371471
-0.0354016
-0.0362183
-0.0390802
-0.0432079
-0.00355087
-0.00495944
-0.00603529
-0.00877446
-0.0124705
-0.0151785
-0.0168815
-0.0178018
-0.0187729
-0.0213911
-0.0244588
-0.0284698
-0.0318932
-0.0337679
-0.0338681
-0.0324989
-0.0313313
-0.0315728
-0.0332501
-0.0359051
-0.0135288
-0.0131084
-0.00895696
-0.0109422
-0.014265
-0.0162919
-0.0158696
-0.0155513
-0.0144724
-0.0149145
-0.0158568
-0.0179837
-0.0207678
-0.0239336
-0.0271242
-0.0293575
-0.03062
-0.0311695
-0.0319267
-0.0334085
-0.00833018
-0.00851011
-0.00708534
-0.00940906
-0.0116261
-0.014278
-0.0147919
-0.0128053
-0.0120295
-0.0118242
-0.0121692
-0.0128124
-0.0139594
-0.0158705
-0.0203738
-0.0246282
-0.0288744
-0.0325554
-0.0356775
-0.0385124
-0.00700546
-0.00478452
-0.00522657
-0.00811829
-0.0110279
-0.0124638
-0.0152253
-0.0129348
-0.0107073
-0.010107
-0.0115019
-0.0144045
-0.0178983
-0.0195659
-0.0186503
-0.0245015
-0.0295514
-0.0343243
-0.0384856
-0.0416285
-0.00712098
-0.00591878
-0.00619102
-0.0106909
-0.0140916
-0.0126349
-0.0137833
-0.0132759
-0.011135
-0.0109101
-0.0142809
-0.0182915
-0.0202183
-0.0206285
-0.0202734
-0.0241465
-0.0299959
-0.0355462
-0.0391321
-0.0399787
-0.00131999
-0.00568825
-0.00779698
-0.0104978
-0.0155756
-0.0168313
-0.0220633
-0.0244917
-0.0193945
-0.0146816
-0.0148335
-0.0158975
-0.0160681
-0.0152943
-0.0158166
-0.0218205
-0.026869
-0.0319591
-0.0359288
-0.0374915
-0.00443169
-0.00638398
-0.00749346
-0.00913452
-0.0128441
-0.0129954
-0.0152774
-0.0182403
-0.0154743
-0.0125681
-0.0129236
-0.0140976
-0.0148382
-0.0157927
-0.0185075
-0.0236691
-0.0271458
-0.0308426
-0.0338674
-0.0357595
-0.00133696
-0.00470372
-0.00716004
-0.00851569
-0.0117891
-0.0108776
-0.0129731
-0.0136561
-0.010918
-0.0114077
-0.013778
-0.0168561
-0.0201565
-0.0232575
-0.0275211
-0.0295669
-0.03154
-0.0336114
-0.0354922
-0.0371688
-0.00324498
-0.00383589
-0.00431221
-0.00450852
-0.00487138
-0.00536811
-0.00668887
-0.00838929
-0.0105706
-0.0132322
-0.0160024
-0.0186664
-0.0219157
-0.0260298
-0.0293406
-0.0319646
-0.0339342
-0.0355941
-0.0367838
-0.0379683
-0.00204372
-0.00200733
-0.00274537
-0.00292605
-0.002901
-0.00379085
-0.00557017
-0.00831643
-0.0116795
-0.0151885
-0.017597
-0.0185238
-0.018617
-0.019433
-0.0212112
-0.0237452
-0.0268274
-0.0298209
-0.0320581
-0.0336064
-0.00472837
-0.00529991
-0.00461959
-0.00331255
-0.00323949
-0.00486991
-0.00786132
-0.0125362
-0.018777
-0.0237907
-0.0261094
-0.0250808
-0.023155
-0.0216696
-0.0209956
-0.0210375
-0.0219356
-0.0232209
-0.0249259
-0.026728
-0.0116211
-0.00610201
-0.00842217
-0.00968866
-0.0133548
-0.0148325
-0.0188977
-0.0237324
-0.0292088
-0.030835
-0.0314867
-0.0303289
-0.0289336
-0.0266506
-0.0239972
-0.02187
-0.0208866
-0.0210091
-0.0221419
-0.0240434
-0.00469019
-0.00797936
-0.0108642
-0.0145905
-0.0221898
-0.0312436
-0.0383875
-0.034214
-0.0277512
-0.0246472
-0.0251954
-0.0265187
-0.0281842
-0.0283667
-0.0276938
-0.0261022
-0.0250736
-0.0247151
-0.0243806
-0.0242523
-0.00258634
-0.0147201
-0.0215938
-0.0269963
-0.0361504
-0.0378492
-0.0342035
-0.0224259
-0.0165119
-0.0157564
-0.0187759
-0.0236649
-0.0292556
-0.0338227
-0.0380506
-0.0408334
-0.0440305
-0.0469849
-0.0446141
-0.0355136
-0.00294201
-0.00802554
-0.0117215
-0.0176986
-0.0249995
-0.0215315
-0.019393
-0.015814
-0.0142689
-0.0139836
-0.0153001
-0.0196591
-0.0283947
-0.0414358
-0.0579022
-0.0779113
-0.102001
-0.128681
-0.152106
-0.158821
-0.00243106
-0.00395793
-0.00415759
-0.00578578
-0.0103988
-0.0156836
-0.01985
-0.0215892
-0.0219485
-0.0203297
-0.0178431
-0.0148141
-0.012041
-0.00984442
-0.00847347
-0.0079048
-0.0080575
-0.0089269
-0.0105223
-0.0131265
-0.00513189
-0.00563012
-0.00694991
-0.00896635
-0.0115537
-0.0123207
-0.0141163
-0.0123564
-0.0106526
-0.00895903
-0.00856282
-0.009093
-0.0102309
-0.0119923
-0.0141689
-0.016658
-0.0191909
-0.0216284
-0.023829
-0.0259117
-0.00309864
-0.00308092
-0.00456895
-0.00606446
-0.00736578
-0.00797308
-0.00912101
-0.00884969
-0.00926545
-0.00932814
-0.0102314
-0.0115552
-0.0134641
-0.015777
-0.0184321
-0.0212391
-0.0239788
-0.026463
-0.0285258
-0.0299957
-0.00324752
-0.00489562
-0.0052569
-0.00647545
-0.00782103
-0.00865199
-0.00988131
-0.0106652
-0.0122303
-0.0134364
-0.015072
-0.0163038
-0.017753
-0.0192257
-0.0210533
-0.0230981
-0.0252198
-0.0271598
-0.0287306
-0.0297382
-0.00684901
-0.00937352
-0.00847104
-0.00786675
-0.00935322
-0.0105072
-0.0121795
-0.0134366
-0.0151753
-0.0168649
-0.0186656
-0.0197783
-0.0205795
-0.0208925
-0.0211854
-0.0216755
-0.0225918
-0.0237551
-0.0249785
-0.0260668
-0.00134568
-0.0021069
-0.00308406
-0.00562594
-0.00901057
-0.0109075
-0.0112244
-0.0115764
-0.0122257
-0.0137701
-0.015243
-0.0166867
-0.0176377
-0.0180179
-0.0181398
-0.0181994
-0.0184633
-0.0190111
-0.0197867
-0.0207233
-0.000900103
-0.00271859
-0.00459597
-0.00729734
-0.00925892
-0.00994338
-0.00893581
-0.00945753
-0.00966572
-0.0109871
-0.0123267
-0.0139064
-0.0152727
-0.0163112
-0.0170405
-0.0173965
-0.0176161
-0.0177929
-0.0182009
-0.0189561
-0.00492469
-0.00496702
-0.00520323
-0.00616166
-0.00711806
-0.0081595
-0.00799578
-0.00759553
-0.00780836
-0.00805049
-0.00910278
-0.0105933
-0.0127461
-0.0149232
-0.0171813
-0.018367
-0.0192811
-0.0198646
-0.0203824
-0.0209886
-0.00587296
-0.00414973
-0.0037745
-0.00511507
-0.00579241
-0.00705274
-0.00784791
-0.00692193
-0.00661587
-0.0070209
-0.00780852
-0.00879328
-0.0102946
-0.0127823
-0.0170973
-0.0201557
-0.0217082
-0.0224726
-0.0226146
-0.0222793
-0.00372438
-0.00328165
-0.00400661
-0.00576536
-0.00586396
-0.00582014
-0.00647652
-0.00620462
-0.00621361
-0.00702639
-0.00813731
-0.00938715
-0.0108202
-0.0127763
-0.017275
-0.0208865
-0.0225331
-0.0229041
-0.0220776
-0.0206018
-0.00243873
-0.00478279
-0.00473728
-0.00587234
-0.00671033
-0.00726117
-0.0086029
-0.00823272
-0.00745432
-0.0076735
-0.00864803
-0.00981203
-0.0113432
-0.0135641
-0.0172354
-0.020272
-0.021886
-0.0225538
-0.0224505
-0.0217198
-0.00536016
-0.00407204
-0.00492167
-0.00542406
-0.00595902
-0.00592936
-0.00647793
-0.00651014
-0.00635848
-0.00693691
-0.00811482
-0.00990118
-0.0125142
-0.0151647
-0.0179838
-0.019981
-0.021199
-0.0218486
-0.0222916
-0.0226792
-0.000259705
-0.00268623
-0.00419247
-0.00471255
-0.00565331
-0.0054767
-0.00594937
-0.00629414
-0.00700665
-0.0082093
-0.00986265
-0.0121499
-0.0148438
-0.017587
-0.0187672
-0.0199933
-0.0210176
-0.0219898
-0.0231133
-0.0244439
-0.00113704
-0.0024121
-0.00276529
-0.00323002
-0.00380821
-0.00465429
-0.00566202
-0.00686554
-0.00802034
-0.00914184
-0.0103588
-0.0116575
-0.0133171
-0.0151715
-0.0168754
-0.0185228
-0.0201968
-0.0219517
-0.0237422
-0.0257244
-0.00319007
-0.00352842
-0.00308108
-0.00280748
-0.0034457
-0.0048613
-0.00632223
-0.00786872
-0.00908834
-0.00988171
-0.0102332
-0.0104614
-0.0110202
-0.0120992
-0.0136532
-0.0154503
-0.0174895
-0.0195629
-0.0216079
-0.0235996
-0.00222489
-0.00254163
-0.00253053
-0.00301023
-0.0041939
-0.00625217
-0.00829714
-0.0103812
-0.0121793
-0.0127815
-0.0125115
-0.0117241
-0.011459
-0.011878
-0.0128573
-0.0142129
-0.0158422
-0.0175516
-0.0193681
-0.0211936
-0.004722
-0.00348398
-0.00491496
-0.00656518
-0.00890082
-0.0108396
-0.0131964
-0.0145732
-0.0155657
-0.0148106
-0.014033
-0.0131246
-0.0129001
-0.013108
-0.0137781
-0.0148333
-0.0161147
-0.0175128
-0.01896
-0.0205604
-0.00315309
-0.00370503
-0.00563267
-0.00854967
-0.0146517
-0.0184412
-0.0200778
-0.0167937
-0.014392
-0.0131945
-0.0130052
-0.0131587
-0.0136712
-0.014202
-0.0149451
-0.0158741
-0.0169188
-0.0179526
-0.0186477
-0.0195078
-0.0061313
-0.0121657
-0.0121406
-0.0161386
-0.0204418
-0.0171047
-0.0144518
-0.011351
-0.0112711
-0.0125671
-0.0143695
-0.0161483
-0.0178774
-0.0196906
-0.0221381
-0.0255602
-0.0296357
-0.0320782
-0.0301523
-0.0259454
-0.00292148
-0.00541975
-0.00675069
-0.0100764
-0.0130949
-0.0107895
-0.0101372
-0.00906475
-0.00904331
-0.010614
-0.0147289
-0.0218825
-0.0313162
-0.0424789
-0.0561102
-0.0723183
-0.0889734
-0.1016
-0.106819
-0.102176
-0.00202958
-0.00360556
-0.0037579
-0.00549954
-0.00997565
-0.0137491
-0.0150016
-0.0139024
-0.0121563
-0.00979932
-0.00818171
-0.00754125
-0.00811107
-0.00975142
-0.0123814
-0.0160063
-0.0204916
-0.0255146
-0.0307492
-0.0357892
-0.00488868
-0.00512073
-0.00635583
-0.0076302
-0.00819866
-0.00805451
-0.00837662
-0.00881447
-0.0100442
-0.0119841
-0.014386
-0.0169757
-0.0193668
-0.0215021
-0.0232923
-0.0248163
-0.0260688
-0.0270106
-0.0275901
-0.0276513
-0.00314766
-0.00409643
-0.00518613
-0.00619356
-0.00674454
-0.00728805
-0.00825406
-0.00954147
-0.0111379
-0.0129056
-0.014437
-0.0157481
-0.0166644
-0.0173181
-0.0177574
-0.0180722
-0.0183414
-0.0185288
-0.0187029
-0.0187459
-0.00547063
-0.00643388
-0.00610165
-0.00670715
-0.00751629
-0.00832807
-0.00938955
-0.0104003
-0.0115111
-0.0125015
-0.0133959
-0.0141734
-0.0148982
-0.0155511
-0.0162351
-0.016906
-0.0176087
-0.0182865
-0.0189056
-0.0194637
-0.0134105
-0.00744967
-0.00595322
-0.00730284
-0.00852613
-0.0091446
-0.00994875
-0.0106711
-0.0115143
-0.0122468
-0.0130014
-0.0136507
-0.0144016
-0.0151445
-0.016031
-0.0169872
-0.0180498
-0.0191353
-0.0202044
-0.0211904
-0.00289206
-0.00225107
-0.00390232
-0.00671999
-0.00856205
-0.00920229
-0.00947977
-0.0101393
-0.0109269
-0.0117375
-0.0125613
-0.0133909
-0.014352
-0.0153921
-0.0166045
-0.0178757
-0.019168
-0.0204081
-0.0215555
-0.0225238
-0.00106681
-0.0028493
-0.00458619
-0.00664586
-0.00762763
-0.00817414
-0.00838432
-0.00954302
-0.0105139
-0.0115315
-0.0125174
-0.0135198
-0.0146176
-0.0157758
-0.016999
-0.0182521
-0.019441
-0.0205021
-0.0213593
-0.0219734
-0.00253071
-0.00282976
-0.00339095
-0.00487339
-0.0058776
-0.00682055
-0.00701497
-0.00821312
-0.00923855
-0.010215
-0.0113223
-0.0122513
-0.013131
-0.0139927
-0.0161775
-0.0171381
-0.0180199
-0.0187318
-0.0192082
-0.0194567
-0.00234278
-0.00260531
-0.00326324
-0.00440732
-0.00524772
-0.00622209
-0.0066038
-0.00681606
-0.00768545
-0.00882799
-0.0102466
-0.011566
-0.0125025
-0.0129671
-0.0134246
-0.0152527
-0.0160484
-0.0166398
-0.0170126
-0.017141
-0.000713161
-0.00199727
-0.00332054
-0.00429015
-0.00505411
-0.00544212
-0.00587113
-0.00639231
-0.00754136
-0.00890044
-0.0103424
-0.011826
-0.0129986
-0.0134712
-0.012881
-0.0144608
-0.0153555
-0.0160871
-0.0166727
-0.0170616
-0.0015783
-0.00277966
-0.00353413
-0.00456555
-0.00542849
-0.0058553
-0.00620423
-0.00678686
-0.00786884
-0.00918503
-0.0106457
-0.0123335
-0.0134993
-0.0137951
-0.0131938
-0.0147676
-0.0158402
-0.0169055
-0.0179142
-0.0187377
-0.00356263
-0.00402334
-0.00399623
-0.00450936
-0.00509404
-0.00543604
-0.00562407
-0.00607254
-0.00697085
-0.00839142
-0.0104166
-0.0123693
-0.0135073
-0.0138464
-0.0137329
-0.0162717
-0.0174616
-0.0186745
-0.0197815
-0.0206682
-0.000660747
-0.00191555
-0.00281105
-0.00381239
-0.00461106
-0.00526364
-0.00562851
-0.00678637
-0.00815705
-0.00968728
-0.0112124
-0.0124483
-0.0134841
-0.0143267
-0.018058
-0.0194497
-0.0208189
-0.0222108
-0.0234286
-0.0244853
-0.000358937
-0.00206107
-0.00262927
-0.00365897
-0.00458725
-0.0054278
-0.0063984
-0.00758709
-0.00914977
-0.0108946
-0.0128074
-0.0147589
-0.0166363
-0.0184654
-0.020227
-0.0220285
-0.0237838
-0.0256123
-0.0274148
-0.0291852
-0.00149735
-0.00240819
-0.00261951
-0.00380004
-0.00507178
-0.006066
-0.00681873
-0.00779454
-0.00909107
-0.0108299
-0.0128083
-0.0150021
-0.017165
-0.0192649
-0.0212345
-0.0231343
-0.0249174
-0.0266443
-0.0282753
-0.0296834
-0.000462485
-0.00176228
-0.0031315
-0.00464652
-0.00594224
-0.00700334
-0.00780043
-0.00874524
-0.00994617
-0.0115074
-0.0134157
-0.0156744
-0.0179526
-0.0201998
-0.0222514
-0.0241592
-0.0258054
-0.0272321
-0.0282814
-0.0289554
-0.00107347
-0.00248796
-0.0049486
-0.00696749
-0.0079653
-0.0085943
-0.009348
-0.00999194
-0.0110399
-0.0123741
-0.0141728
-0.0162543
-0.0184957
-0.0208445
-0.0232327
-0.0255982
-0.0278677
-0.0299895
-0.0317791
-0.0331678
-0.00120677
-0.00239678
-0.00558003
-0.00828881
-0.0102197
-0.010485
-0.010858
-0.0106803
-0.0113497
-0.0125289
-0.0139392
-0.0155084
-0.0172087
-0.0191085
-0.0212274
-0.023602
-0.0261462
-0.0288911
-0.0317515
-0.0344369
-0.00462259
-0.00714321
-0.00751763
-0.00924103
-0.00964439
-0.00916807
-0.00996011
-0.0112649
-0.0129345
-0.014643
-0.0161543
-0.0177183
-0.0193349
-0.0211898
-0.0232121
-0.0256335
-0.0278636
-0.0293767
-0.0296386
-0.0297664
-0.00107546
-0.0035759
-0.00452743
-0.00579374
-0.00650545
-0.00610905
-0.00687087
-0.00825528
-0.0112091
-0.0152453
-0.0199204
-0.0246759
-0.0295873
-0.0349856
-0.0413233
-0.0483316
-0.0553252
-0.0594736
-0.0605608
-0.0592245
-0.0132257
-0.0150171
-0.0160587
-0.00794008
-0.00868608
-0.00889687
-0.00949663
-0.0174212
-0.0165761
-0.0175948
-0.00893997
-0.00973841
-0.00972161
-0.0103449
-0.0147009
-0.0127815
-0.0129253
-0.00877175
-0.00942376
-0.00787299
-0.00877759
-0.0156262
-0.0132174
-0.0139194
-0.00967018
-0.0102764
-0.00912155
-0.0101488
-0.14144
-0.124651
-0.111266
-0.148736
-0.13906
-0.120815
-0.108242
-0.112264
-0.107392
-0.0971099
-0.130435
-0.107664
-0.104648
-0.0952579
-0.09332
-0.0944201
-0.0898784
-0.102413
-0.0910762
-0.0924402
-0.0859083
-0.0881631
-0.0894766
-0.0908807
-0.088634
-0.086604
-0.0848306
-0.0867101
-0.0913203
-0.092034
-0.0967499
-0.0874648
-0.0921163
-0.0888884
-0.0972914
-0.095717
-0.0984828
-0.103422
-0.0939163
-0.0991
-0.100073
-0.106884
-0.0988921
-0.104974
-0.108992
-0.100627
-0.103943
-0.10855
-0.111396
-0.100018
-0.109984
-0.111473
-0.104536
-0.104212
-0.11156
-0.109892
-0.108477
-0.11494
-0.103975
-0.115797
-0.106413
-0.112608
-0.102834
-0.0961807
-0.100991
-0.0943102
-0.103392
-0.094959
-0.100165
-0.0941324
-0.0909441
-0.0931071
-0.0935366
-0.092504
-0.0877691
-0.0930871
-0.0942897
-0.093606
-0.0948685
-0.101167
-0.0874188
-0.0907863
-0.0960549
-0.103647
-0.100254
-0.103813
-0.11244
-0.093121
-0.101445
-0.106549
-0.115093
-0.107627
-0.11538
-0.123797
-0.104173
-0.110963
-0.117718
-0.123991
-0.113835
-0.126367
-0.13233
-0.112613
-0.115006
-0.125205
-0.123601
-0.116268
-0.133496
-0.133864
-0.114777
-0.111275
-0.120713
-0.106459
-0.101179
-0.108124
-0.10659
-0.105209
-0.099614
-0.103813
-0.104449
-0.0940329
-0.106315
-0.103319
-0.0978185
-0.0933172
-0.104227
-0.0999328
-0.0940329
-0.10216
-0.103289
-0.0926151
-0.0947966
-0.0986248
-0.101468
-0.103096
-0.10591
-0.119062
-0.0969035
-0.105802
-0.104926
-0.119387
-0.117304
-0.124591
-0.142173
-0.109233
-0.119329
-0.124702
-0.139577
-0.131445
-0.147785
-0.162225
-0.122375
-0.129103
-0.143717
-0.150655
-0.140995
-0.166015
-0.174094
-0.130021
-0.12541
-0.150303
-0.139425
-0.141862
-0.175527
-0.174692
-0.12096
-0.102668
-0.132801
-0.107363
-0.110118
-0.114835
-0.125435
-0.103859
-0.108511
-0.113008
-0.12466
-0.109723
-0.12935
-0.136959
-0.109355
-0.106332
-0.128493
-0.134519
-0.111119
-0.13928
-0.149106
-0.105075
-0.108839
-0.135935
-0.141369
-0.130042
-0.153807
-0.168058
-0.112769
-0.128125
-0.144262
-0.15577
-0.153777
-0.173921
-0.18997
-0.13354
-0.148643
-0.161709
-0.177438
-0.174207
-0.196366
-0.212728
-0.152843
-0.160937
-0.183919
-0.19993
-0.187128
-0.218582
-0.231938
-0.161382
-0.153211
-0.204843
-0.213003
-0.188736
-0.23564
-0.240462
-0.147243
-0.121737
-0.213118
-0.20277
-0.0441591
-0.0368451
-0.0403397
-0.0337805
-0.0283441
-0.0261361
-0.0216086
-0.0375062
-0.0413569
-0.039585
-0.0255263
-0.0194875
-0.0204185
-0.0172459
-0.0304594
-0.0372221
-0.0283269
-0.0182481
-0.016311
-0.0163862
-0.0153233
-0.0242028
-0.0262723
-0.0279245
-0.0162566
-0.0176094
-0.0155889
-0.0179176
-0.0283104
-0.0310682
-0.043856
-0.0183833
-0.0209582
-0.0190025
-0.0223809
-0.0405533
-0.0483827
-0.0600476
-0.0217935
-0.0239627
-0.0234134
-0.0257824
-0.0587575
-0.0628456
-0.0672
-0.024569
-0.0258734
-0.0262858
-0.0271475
-0.0712525
-0.067544
-0.0679054
-0.0260739
-0.0255615
-0.0273677
-0.0285222
-0.0463208
-0.0545892
-0.0639614
-0.0287421
-0.02354
-0.0355495
-0.0341069
-0.0446206
-0.0651884
-0.0645951
-0.0221198
-0.0184099
-0.0333667
-0.0290761
-0.0332221
-0.0626854
-0.0519814
-0.0174363
-0.0162256
-0.0270965
-0.0223214
-0.0335219
-0.0491672
-0.049113
-0.0164964
-0.0189631
-0.0217033
-0.0222803
-0.0519035
-0.0518184
-0.0611065
-0.0201303
-0.0237959
-0.022996
-0.0248643
-0.0674214
-0.0636779
-0.0672722
-0.0248828
-0.0270222
-0.0253685
-0.0260846
-0.0687795
-0.0666644
-0.0597689
-0.0272894
-0.0271155
-0.0259116
-0.0244151
-0.0628713
-0.0567891
-0.0479964
-0.0269362
-0.0270151
-0.0237523
-0.0219688
-0.0617492
-0.0415299
-0.0508767
-0.0377595
-0.0362099
-0.0336074
-0.0311984
-0.0635692
-0.0534402
-0.056056
-0.0352571
-0.030372
-0.0301253
-0.0258251
-0.0506673
-0.0552934
-0.04788
-0.0281442
-0.0226019
-0.0241918
-0.020575
-0.0440756
-0.0449376
-0.0411675
-0.0217667
-0.021724
-0.02013
-0.0209505
-0.0530502
-0.041694
-0.0443619
-0.0221429
-0.0232769
-0.0216947
-0.0240482
-0.0598919
-0.0451462
-0.0459255
-0.023733
-0.024538
-0.0245483
-0.0245966
-0.0526267
-0.0456211
-0.04283
-0.0243856
-0.0228197
-0.0241112
-0.0218286
-0.0420964
-0.0414684
-0.0370322
-0.0221114
-0.020283
-0.0210257
-0.019281
-0.0537065
-0.0431184
-0.0585663
-0.0326145
-0.0309597
-0.0327782
-0.0321089
-0.0575687
-0.0617751
-0.0567802
-0.0299191
-0.0255249
-0.0308036
-0.0257307
-0.0492637
-0.0519818
-0.0365188
-0.0239477
-0.0207072
-0.0242374
-0.0225171
-0.0408244
-0.0334698
-0.0312936
-0.0204026
-0.0216253
-0.0227615
-0.0249448
-0.0418366
-0.0319813
-0.03554
-0.0224913
-0.0251367
-0.0261461
-0.0295636
-0.044936
-0.0376773
-0.044638
-0.0257486
-0.0262231
-0.0309264
-0.0342773
-0.0440848
-0.047447
-0.0527781
-0.0258771
-0.0238418
-0.0352688
-0.0366558
-0.0395316
-0.0542312
-0.0544955
-0.0230277
-0.0210701
-0.0365666
-0.035174
-0.0139558
-0.0127195
-0.012518
-0.012435
-0.0107106
-0.0100743
-0.00868582
-0.011081
-0.0121512
-0.0106422
-0.0100347
-0.00905673
-0.0082977
-0.00756918
-0.0100882
-0.0101534
-0.00963798
-0.00895351
-0.00897494
-0.0075073
-0.00776356
-0.0109835
-0.00991946
-0.0119532
-0.00903868
-0.00928238
-0.00793946
-0.00855328
-0.0135536
-0.012881
-0.015819
-0.00936002
-0.00962347
-0.00877438
-0.00951858
-0.0170953
-0.0167514
-0.0190704
-0.00974331
-0.0102949
-0.00980461
-0.01079
-0.0194044
-0.0196505
-0.0210117
-0.0105668
-0.0117658
-0.0111568
-0.0123905
-0.0191129
-0.0214379
-0.0228387
-0.0123513
-0.0147496
-0.0128742
-0.0147688
-0.0136625
-0.0200368
-0.0232793
-0.00994284
-0.00830819
-0.0120621
-0.0107401
-0.0116623
-0.0231975
-0.0202702
-0.00791657
-0.00729871
-0.0102348
-0.00887158
-0.0105834
-0.0187956
-0.0155608
-0.00728723
-0.00771056
-0.00862303
-0.00862038
-0.01019
-0.0114863
-0.0125835
-0.0088747
-0.0131046
-0.00928716
-0.00978163
-0.013
-0.0153708
-0.0158932
-0.0110521
-0.0169549
-0.0117489
-0.0121946
-0.0199787
-0.0177796
-0.01787
-0.0100229
-0.0109625
-0.0105806
-0.0112785
-0.0204986
-0.0176906
-0.0169157
-0.0113066
-0.0124766
-0.0115697
-0.0127051
-0.0216569
-0.016686
-0.0165624
-0.012941
-0.0147538
-0.0131716
-0.0148906
-0.0247625
-0.0160284
-0.0182826
-0.0137278
-0.0116298
-0.0116969
-0.00947142
-0.021074
-0.0184546
-0.0167393
-0.0109101
-0.00910644
-0.00888627
-0.00766939
-0.0155165
-0.0157408
-0.0131869
-0.00876027
-0.00854062
-0.00749603
-0.00765505
-0.0104835
-0.0147295
-0.0139929
-0.01097
-0.0139839
-0.0108606
-0.0103592
-0.0116226
-0.0150361
-0.0150662
-0.0116539
-0.0154465
-0.0119583
-0.0113405
-0.0161869
-0.014059
-0.0141917
-0.0104601
-0.0111333
-0.0104824
-0.0116165
-0.0154529
-0.0142021
-0.0144756
-0.0114529
-0.012726
-0.0120782
-0.0136615
-0.0153746
-0.0146877
-0.0156697
-0.0132405
-0.0150432
-0.0142174
-0.0158897
-0.0181351
-0.014264
-0.0170359
-0.0109596
-0.00917135
-0.0107817
-0.00914867
-0.0164204
-0.0166275
-0.0134905
-0.00862116
-0.00752487
-0.00863917
-0.00824141
-0.0129955
-0.0124982
-0.0109829
-0.00741903
-0.00781133
-0.0084349
-0.00944311
-0.0126378
-0.0111156
-0.0124263
-0.00810614
-0.00926324
-0.00996859
-0.0116881
-0.0138299
-0.0131262
-0.0150782
-0.00969637
-0.01093
-0.0123805
-0.0141754
-0.0146763
-0.015845
-0.0178932
-0.011306
-0.0125218
-0.0148222
-0.0166128
-0.0154956
-0.0186159
-0.0205109
-0.0129943