/*--------------------------------*- C++ -*----------------------------------*\
  =========                 |
  \\      /  F ield         | OpenFOAM: The Open Source CFD Toolbox
   \\    /   O peration     | Website:  https://openfoam.org
    \\  /    A nd           | Version:  10
     \\/     M anipulation  |
\*---------------------------------------------------------------------------*/
FoamFile
{
    format      ascii;
    class       volVectorField;
    location    "4.5";
    object      U;
}
// * * * * * * * * * * * * * * * * * * * * * * * * * * * * * * * * * * * * * //

dimensions      [0 1 -1 0 0 0 0];

internalField   nonuniform List<vector> 
12920
(
(65.1793 75.8505 -28.2646)
(-52.0489 27.7493 -7.71102)
(76.964 1.3541 5.1522)
(24.4077 1.1986 -2.96642)
(103.834 0.648204 -5.50263)
(97.5802 -0.190632 -3.60979)
(126.776 -3.22905 -0.777339)
(125.181 -6.19612 0.188644)
(134.89 -7.44265 1.20286)
(135.303 -6.58929 1.0235)
(141.298 -4.14285 0.793449)
(142.382 -0.576276 0.0532856)
(146.358 2.18291 -0.175693)
(146.357 2.72034 -0.209001)
(147.873 2.51391 -0.114735)
(147.817 0.95438 -0.0285019)
(149.796 -2.0604 0.0166043)
(151.946 -3.80978 0.237587)
(155.047 -5.73978 0.546248)
(155.605 -6.23536 0.68812)
(225.854 7.68096 112.808)
(103.373 -36.8069 -4.54911)
(151.532 -14.5486 13.0313)
(86.0385 0.577817 3.50636)
(129.86 -1.80911 1.28663)
(116.862 -5.54693 -1.12904)
(138.224 -7.6462 0.00585207)
(130.868 -7.78239 0.52599)
(130.963 -9.34404 2.73101)
(117.664 -10.1175 2.4505)
(115.789 -9.46234 1.9038)
(111.146 -8.42268 1.32141)
(114.016 -7.37003 1.15345)
(114.92 -5.81312 0.840284)
(118.394 -4.946 0.71471)
(120.176 -4.36271 0.410202)
(122.092 -3.26526 0.0379808)
(121.931 -2.9405 -0.123579)
(123.08 -2.42669 -0.21214)
(118.976 -1.06917 -0.459553)
(52.3084 -52.7708 53.6598)
(-56.1365 -25.6884 -16.9035)
(104.989 -32.9203 -9.86528)
(49.5846 -21.8653 -5.97968)
(110.796 -23.2918 -3.92012)
(95.4674 -18.4599 -3.57872)
(120.288 -17.0769 -1.25893)
(113.942 -13.1153 0.0172977)
(118.837 -10.0364 1.65302)
(110.113 -7.23693 1.64089)
(109.901 -6.82327 1.47948)
(105.535 -6.21198 0.885455)
(107.466 -6.29791 0.588994)
(107.401 -5.80189 0.379553)
(109.88 -5.65255 0.351105)
(111.175 -4.84612 0.052581)
(113.565 -3.75069 -0.162048)
(114.077 -2.96838 -0.287116)
(115.854 -1.44461 -0.4699)
(113.778 0.169022 -0.510999)
(154.289 -11.2687 81.8489)
(-22.8761 -14.0933 5.73441)
(131.029 -4.72229 6.33583)
(71.6967 -4.85118 4.04083)
(120.455 -7.01671 2.18183)
(79.2558 -8.84832 0.988326)
(98.3775 -12.2594 0.399754)
(79.9017 -10.7057 0.197534)
(91.0378 -11.1082 0.116743)
(86.4051 -10.5487 0.30081)
(94.2814 -11.2956 0.467206)
(94.5994 -11.2993 0.638733)
(99.7357 -11.7205 0.725671)
(101.088 -10.6583 0.682735)
(104.773 -10.1734 0.624169)
(105.829 -8.3093 0.396609)
(109.149 -5.12028 0.0571815)
(110.495 -2.50404 -0.0493983)
(112.818 0.193881 -0.244714)
(112.093 2.49509 -0.287053)
(172.779 62.0906 -127.55)
(42.3927 -59.7898 -14.7022)
(167.613 -93.6877 -0.38187)
(112.705 -53.5863 2.75314)
(141.358 -30.1034 4.46753)
(99.2071 -13.6998 0.988964)
(108.421 -18.8079 -0.556177)
(89.8907 -12.4944 -1.18821)
(97.0491 -17.923 -0.845036)
(93.7064 -15.5117 -0.233796)
(100.747 -18.2565 0.24612)
(101.126 -16.8999 0.485652)
(104.903 -17.1547 0.716629)
(104.876 -15.3819 0.81159)
(106.916 -13.825 0.756938)
(106.203 -11.7429 0.500358)
(107.285 -8.83151 0.146873)
(107.881 -5.20903 0.0334244)
(110.278 -2.05373 -0.22499)
(110.813 1.16092 -0.219769)
(180.822 -179.694 -14.1869)
(152.985 -81.8972 -28.0792)
(196.035 -51.1772 -26.8753)
(172.131 -30.9979 -15.6099)
(184.379 -5.5367 -5.34644)
(139.592 4.47292 -1.71411)
(133.083 4.26699 -0.761706)
(110.956 0.632041 -0.839807)
(110.891 -7.20523 -0.338402)
(103.466 -14.2173 -0.175534)
(107.296 -18.4262 -0.301061)
(106.648 -18.8485 -0.100117)
(108.554 -18.8669 0.0263723)
(107.76 -17.7228 0.196735)
(107.616 -15.2229 0.495622)
(104.778 -11.4629 0.400336)
(102.887 -7.43916 0.0931162)
(101.879 -4.43574 -0.0459776)
(103.345 -1.78129 -0.36266)
(103.982 1.68486 -0.300742)
(136.272 124.628 -42.038)
(-41.9558 25.3478 -1.41717)
(163.787 31.8565 -28.9503)
(77.3122 26.328 -6.3737)
(133.262 38.7862 -2.13678)
(81.3483 34.2035 -0.629565)
(98.0917 5.9873 0.423559)
(87.1961 6.9073 0.728522)
(99.5349 -11.6601 0.568003)
(100.074 -14.1866 0.484445)
(107.742 -21.2375 0.152063)
(107.593 -19.3928 -0.0823276)
(109.986 -19.6068 -0.1658)
(109.406 -16.6256 -0.292637)
(109.746 -13.7213 0.0963532)
(106.277 -9.62953 0.23079)
(103.577 -6.798 0.304171)
(101.205 -4.30823 0.233375)
(101.3 -2.63857 -0.0127214)
(100.009 0.715044 -0.0873502)
(196.545 39.1452 -15.813)
(90.3556 12.2627 8.40998)
(140.738 19.1789 6.98516)
(86.8574 15.7176 3.22077)
(131.085 15.7507 3.18389)
(104.58 31.8855 1.62886)
(115.788 16.136 -0.550834)
(94.3862 -8.23936 -0.98854)
(102.635 -9.41262 -0.214886)
(108.445 -26.643 0.345141)
(114.608 -24.9721 0.47528)
(114.296 -24.1136 0.47893)
(114.32 -21.256 0.528869)
(113.179 -19.9361 0.626269)
(109.932 -12.5283 0.365604)
(109.126 -7.13884 0.213524)
(106.73 -4.55107 0.074138)
(104.9 -2.67801 0.202008)
(104.396 -0.975198 0.18934)
(101.332 1.92279 0.0808581)
(-46.2425 -33.1554 48.492)
(-172.482 25.1984 -7.89693)
(100.01 83.7169 -14.9707)
(23.3043 26.5317 0.642071)
(98.8054 25.5389 3.25621)
(72.6613 18.0235 0.276908)
(105.832 27.235 1.91324)
(113.328 3.21284 -0.292472)
(127.294 -18.2772 -0.0709506)
(124.218 -26.2802 0.21662)
(121.38 -26.8719 0.325001)
(120.488 -23.947 0.260954)
(121.126 -20.9038 0.226889)
(120.678 -20.0844 0.37216)
(121.76 -17.3832 0.907073)
(118.995 -8.04988 0.973664)
(116.117 -3.888 0.706651)
(112.062 -2.52375 0.472606)
(110.082 -0.885085 0.466685)
(104.831 1.93673 0.259526)
(45.9882 -78.9696 6.80572)
(-118.982 -113.686 -15.9837)
(146.165 -15.0287 -14.7647)
(40.3254 -10.016 1.8053)
(114.349 -17.6239 3.02517)
(79.5578 -7.04035 -0.856142)
(102.674 -8.70393 0.669313)
(114.147 -12.7861 0.344807)
(120.714 -22.2981 0.102763)
(121.549 -25.5934 -0.0355026)
(120.649 -24.5962 0.0395656)
(119.244 -24.3288 0.173171)
(120.616 -24.3776 0.301174)
(126.497 -25.7001 0.000133261)
(127.738 -20.2058 -0.261533)
(126.161 -8.22411 -0.132724)
(127.178 -2.42964 0.0773111)
(125.597 0.822547 0.508147)
(121.434 2.67609 1.07982)
(110.974 4.33463 0.669785)
(433.221 -26.9472 -146.387)
(219.2 29.1742 -62.5804)
(243.54 37.6306 7.33351)
(122.284 20.6678 6.80966)
(140.857 -1.44243 5.50505)
(98.5637 -23.5112 -0.612978)
(110.078 -27.5767 0.590958)
(119.102 -26.8337 0.177014)
(120.333 -20.9978 -0.147774)
(116.441 -21.9214 -0.291299)
(117.469 -30.1395 0.00355554)
(116.7 -31.5488 0.117466)
(115.45 -30.3718 0.197678)
(114.264 -27.4108 -0.00425559)
(115.41 -20.1189 -0.589552)
(117.441 -10.5504 -1.00676)
(122.742 -4.69108 -1.11272)
(126.064 0.472573 -0.577857)
(125.805 6.8294 0.18976)
(117.737 7.63578 0.236575)
(146.453 -37.9051 -20.216)
(39.5426 103.956 -28.2222)
(163.094 64.792 0.418638)
(81.8146 35.8068 -5.57112)
(133.636 -0.710782 1.38899)
(82.0717 -15.0933 -1.3064)
(113.919 -32.5848 -0.414663)
(120.147 -32.6882 -0.637792)
(120.173 -18.6633 -0.239177)
(114.389 -19.6634 0.149355)
(107.995 -25.8894 0.0834315)
(108.002 -30.8722 0.00364187)
(108.959 -31.3249 -0.0192978)
(109.565 -28.0452 -0.049675)
(108.879 -19.6188 -0.253712)
(109.22 -10.6131 -0.342796)
(111.118 -4.73556 -1.21067)
(115.236 0.864344 -1.54991)
(118.102 8.75095 -0.82495)
(115.362 10.2336 -0.384652)
(215.219 66.4068 -10.5843)
(156.209 75.7932 -6.6677)
(209.195 81.4493 4.78983)
(163.897 61.0222 3.50861)
(187.575 15.5916 4.7875)
(147.921 -24.9247 1.32776)
(146.701 -30.7796 -1.27462)
(111.507 -23.275 0.83825)
(103.57 -14.9291 0.422164)
(105.89 -21.4145 -0.0685701)
(112.142 -28.6398 -0.180555)
(113.088 -30.7772 -0.198496)
(113.187 -29.2048 -0.315783)
(111.471 -25.6335 -0.445367)
(108.018 -14.8904 0.498188)
(106.142 -10.7783 0.18684)
(105.705 -3.0667 -0.653635)
(107.057 2.32079 -0.995631)
(110.169 9.88093 -0.729979)
(110.549 11.0671 -0.363499)
(81.5495 247.711 -91.142)
(19.576 111.8 -30.335)
(171.06 75.4587 -4.0101)
(119.731 35.089 -0.114923)
(158.412 7.34001 0.747224)
(125.511 -7.99223 -1.2477)
(135.746 -5.05299 -0.532803)
(129.72 -17.2603 -0.179657)
(135.272 -18.0668 0.0397207)
(131.898 -24.8768 0.122719)
(130.491 -24.662 0.427637)
(123.117 -26.6236 0.318663)
(120.237 -22.0038 0.132932)
(112.613 -20.2918 0.303266)
(110.886 -13.6445 0.202325)
(106.201 -8.23238 0.230726)
(104.266 -1.29971 -0.0375939)
(103.757 2.41412 -0.0240941)
(105.63 8.6396 -0.0120511)
(107.5 10.3141 0.0344955)
(86.0298 120.192 46.1091)
(-0.918121 107.587 35.6179)
(176.271 77.502 -5.2415)
(153.882 49.5914 -4.74183)
(191.706 18.7661 -4.1157)
(169.404 -1.84427 -4.08278)
(174.254 -12.1133 -2.63578)
(163.324 -17.7024 -2.46448)
(159.243 -19.5605 -0.643012)
(146.444 -25.0673 0.202415)
(138.486 -24.3876 0.988408)
(122.635 -23.4219 0.792374)
(117.506 -17.981 0.0851311)
(110.017 -15.4295 -0.331809)
(107.657 -9.13312 -0.435927)
(104.827 -5.36236 -0.175793)
(103.809 -0.365127 -0.0139659)
(103.775 1.74927 0.217222)
(104.874 5.97865 0.359664)
(107.245 7.72524 0.368119)
(147.559 77.279 74.4905)
(73.8477 59.3184 16.9865)
(188.219 70.9706 6.624)
(143.269 49.8719 -1.95431)
(181.813 37.2748 -2.14122)
(166.181 23.8217 -2.79291)
(175.913 18.1603 -1.09479)
(167.736 6.17637 -0.647854)
(165.734 0.531544 1.52912)
(146.08 -7.63985 2.25303)
(132.306 -6.96006 2.21624)
(114.493 -11.2372 1.19863)
(110.434 -9.82511 0.333286)
(104.072 -9.31499 0.0388694)
(103.085 -6.30477 -0.0887871)
(101.294 -3.94169 -0.135673)
(101.11 -0.400323 -0.051718)
(102.368 0.579691 0.114254)
(104.367 3.11143 0.247268)
(107.588 4.83234 0.299505)
(234.603 -77.9084 -19.7926)
(152.343 43.1539 43.4759)
(254.169 45.6415 25.8325)
(210.206 37.6929 6.49084)
(219.117 29.0979 7.56711)
(169.988 12.7792 5.60557)
(161.526 -1.41989 4.1771)
(137.538 -8.74222 3.01284)
(133.135 -3.97682 2.62691)
(116.085 -6.27251 1.85123)
(112.01 -5.97253 1.16357)
(104.239 -9.39481 0.559228)
(103.15 -8.94781 0.361525)
(100.07 -8.62746 0.40612)
(99.2395 -5.487 0.343781)
(96.8732 -3.06673 0.144215)
(96.3451 -1.58415 0.0167874)
(96.4872 -1.728 -0.0794569)
(98.3943 -0.588444 -0.211443)
(102.154 1.91733 -0.131521)
(115.259 -318.683 -161.091)
(-40.301 -49.6696 -4.7041)
(178.019 -16.5741 3.37099)
(186.622 27.543 6.22229)
(241.613 44.2012 6.86031)
(223.368 34.3934 7.28019)
(200.842 26.9721 11.2141)
(139.828 10.0153 5.89521)
(128.637 8.11435 1.72059)
(109.972 0.311743 0.280579)
(110.568 -2.11098 -0.454154)
(106.138 -6.47663 -0.355267)
(106.804 -7.69449 0.0233906)
(104.308 -7.96053 0.451172)
(101.367 -4.64896 0.963831)
(95.5794 -1.94943 0.776895)
(93.0029 -0.156489 0.489617)
(92.8027 -0.00785943 0.247259)
(95.8077 -1.00361 -0.00527867)
(100.445 0.984122 -0.000945052)
(177.457 32.4185 14.6404)
(35.5416 -104.659 -38.2847)
(153.211 -87.1106 -21.4247)
(111.603 -67.74 -8.09786)
(163.205 -12.5419 0.860547)
(131.502 4.97966 4.32544)
(138.312 25.0145 6.09575)
(112.353 19.9973 3.05612)
(118.324 16.4829 1.61284)
(112.541 7.87607 -0.57524)
(120.583 2.53939 -1.13522)
(122.893 -4.71628 -1.27977)
(127.465 -6.73307 -0.366337)
(126.621 -6.09127 -0.276945)
(124.682 -1.23233 1.11865)
(117.777 1.35983 1.69389)
(109.608 -0.809643 0.864318)
(103.027 -5.26298 -0.30448)
(101.997 -8.31801 -0.610275)
(102.793 -4.12406 -0.104869)
(194.477 74.2863 92.026)
(29.5127 -2.36071 -6.02818)
(116.429 0.671523 -2.27222)
(27.4351 2.65235 -16.7101)
(109.356 17.8592 -8.80616)
(90.0813 9.9371 -7.504)
(138.179 12.1967 -3.5295)
(144.777 6.2072 -4.71)
(173.129 4.64188 -4.10194)
(183.646 3.70696 -3.16745)
(195.67 -1.64133 -1.49485)
(194.621 -4.98949 -0.231618)
(187.301 -8.77496 0.885711)
(179.142 -6.16532 -0.586266)
(179.595 -3.38365 -1.30458)
(183.605 4.51869 1.23935)
(182.776 11.8571 3.43628)
(179.564 12.1188 4.01183)
(168.786 2.79216 4.67841)
(139.249 -0.820057 3.00681)
(171.813 160.716 4.5087)
(-28.4475 6.26604 -31.1132)
(90.088 -5.71289 -8.14566)
(23.9936 -5.51317 -12.6655)
(93.2994 -4.40602 -16.2577)
(74.9964 -6.47541 -8.71288)
(105.514 -8.82016 -1.93006)
(103.645 -10.4013 0.385558)
(117.721 -10.6203 2.82347)
(120.246 -9.11753 2.5781)
(128.959 -6.80751 2.44718)
(130.797 -4.37246 1.23341)
(135.472 -2.61868 0.90974)
(136.091 -1.68198 0.584457)
(138.151 -1.32106 0.668068)
(138.923 -1.70023 0.551198)
(140.388 -2.43777 0.476884)
(141.701 -3.10657 0.730332)
(144.934 -4.52062 1.02532)
(146.492 -4.28346 1.18385)
(250.63 223.254 108.274)
(-50.7313 7.46146 24.8795)
(108.158 -1.21054 18.7356)
(37.1831 4.19355 4.96939)
(103.869 -1.53673 2.02755)
(82.1132 -5.51046 -0.683956)
(107.276 -8.03277 2.16194)
(96.9955 -8.60381 2.38784)
(104.105 -8.80188 4.03857)
(97.5521 -8.50715 2.74343)
(101.143 -7.31241 1.98968)
(99.4004 -6.29772 1.07902)
(103.131 -5.27596 0.90701)
(103.947 -4.2869 0.60654)
(106.911 -3.68942 0.598396)
(108.017 -3.15989 0.280077)
(109.322 -2.31427 -0.136712)
(108.948 -2.03139 -0.340798)
(110.103 -1.23021 -0.595526)
(106.367 0.00809088 -1.11876)
(109.107 -107.355 39.1139)
(-45.3049 -69.2518 -9.09345)
(96.9525 -60.642 -21.9686)
(26.8737 -36.7993 -7.74921)
(91.5358 -35.3988 -4.42613)
(64.1768 -26.8612 -3.60305)
(91.5071 -22.8241 -0.194614)
(81.1454 -15.3636 0.298612)
(92.3286 -10.4286 2.35383)
(87.3404 -6.68701 1.8224)
(92.538 -5.77483 1.84578)
(90.9143 -4.9083 1.06251)
(94.5064 -4.87608 0.816719)
(94.7798 -4.33854 0.503788)
(97.4687 -4.0836 0.480572)
(98.2986 -3.37934 0.0152507)
(99.7323 -2.43061 -0.260095)
(99.5341 -1.80179 -0.451844)
(100.786 -0.393643 -0.717348)
(97.9936 0.662298 -0.78064)
(107.067 -82.2985 158.198)
(-67.3084 -35.2586 31.0814)
(120.859 -20.5874 -3.60425)
(61.617 -21.7345 4.4428)
(111.553 -19.2434 2.98094)
(71.4015 -16.4198 1.6735)
(90.9575 -16.4197 0.869407)
(71.3782 -11.612 0.229421)
(82.5533 -10.533 0.300063)
(76.9038 -8.61499 0.509311)
(84.6435 -8.79646 0.787513)
(84.1822 -8.38221 0.926866)
(89.1289 -8.48157 1.07242)
(89.9465 -7.55967 0.91483)
(92.9942 -6.82816 0.826491)
(93.7281 -5.33503 0.469552)
(95.7663 -3.30686 0.0328778)
(95.8907 -1.78284 -0.158724)
(97.5691 0.460528 -0.429779)
(95.6171 1.8116 -0.488796)
(161.907 -132.309 -41.6329)
(7.08363 -77.7353 23.7581)
(152.271 -67.9305 6.53279)
(89.0005 -36.536 4.13829)
(129.206 -27.6699 6.98695)
(85.5317 -17.4441 1.66455)
(96.385 -22.2295 1.24971)
(75.192 -12.6568 -0.638393)
(83.2902 -16.4337 -0.215132)
(78.5428 -11.6909 0.115363)
(86.0746 -13.5131 0.702565)
(85.9172 -10.9875 0.86239)
(90.2958 -11.0594 1.15024)
(90.4969 -8.98482 1.16277)
(92.8814 -8.00564 1.00978)
(92.7004 -6.40302 0.560769)
(93.8246 -4.68446 0.123669)
(93.7652 -2.53041 -0.0655368)
(95.4803 -0.218611 -0.361657)
(94.2886 1.42115 -0.331924)
(289.12 -177.248 137.166)
(196.431 -102.484 10.9065)
(209.718 -45.0313 -22.6774)
(166.273 -23.8083 -16.0068)
(172.859 -4.62537 -3.24429)
(125.871 2.49078 1.13919)
(120.089 -2.49136 3.25031)
(96.0294 -4.57936 0.86193)
(94.8175 -11.2796 0.45825)
(87.7136 -12.6684 0.113061)
(90.4072 -14.6065 -0.135217)
(89.0371 -13.3085 0.140706)
(91.0577 -12.5985 0.36953)
(90.2294 -10.7115 0.494888)
(91.0538 -8.66961 0.692928)
(90.1303 -6.24907 0.54252)
(89.765 -4.24432 0.13967)
(89.2747 -2.3114 -0.1175)
(90.6438 -0.299638 -0.452282)
(89.7252 1.56935 -0.391544)
(117.913 151.063 -116.602)
(59.3631 33.4634 -65.0475)
(147.214 23.5431 -51.4403)
(61.8518 14.435 -11.8695)
(120.703 29.4707 -3.92699)
(66.5942 25.1135 -0.354634)
(84.978 -1.92143 1.57001)
(72.4092 5.03703 1.51728)
(84.8785 -11.3655 0.807028)
(84.0913 -10.3087 0.79069)
(91.0598 -16.1817 0.30327)
(90.4189 -13.2253 0.000722164)
(92.967 -13.301 -0.00642039)
(92.1267 -9.69456 -0.19024)
(92.6694 -7.9146 0.282409)
(90.9227 -5.41282 0.417567)
(90.0127 -4.1274 0.515196)
(88.715 -2.40008 0.314646)
(89.3079 -1.116 0.00184633)
(87.8762 0.845367 -0.0821187)
(101.603 58.6612 17.9018)
(-6.12464 32.7056 2.0867)
(108.236 21.5986 -2.96057)
(56.7453 7.61367 0.291807)
(115.528 11.4357 1.70412)
(88.3944 28.7208 1.75571)
(101.624 10.785 0.852723)
(81.5199 -8.84036 -0.899285)
(90.4809 -10.5624 -0.133246)
(93.6808 -21.8777 0.147486)
(99.3513 -19.2557 0.340118)
(98.8028 -18.6221 0.129805)
(99.6638 -15.5642 0.192277)
(98.7581 -13.7311 0.241074)
(95.8993 -7.40057 0.240568)
(95.2932 -3.90191 0.267787)
(92.8588 -2.38762 0.300749)
(91.2317 -0.843605 0.375524)
(91.159 0.0742115 0.333499)
(89.0475 1.4845 0.12751)
(21.3055 51.0238 -358.902)
(-154.274 20.8764 -46.898)
(78.6854 67.0818 -40.4675)
(-6.80521 16.1584 -1.2303)
(87.0524 23.9483 2.27966)
(64.8309 22.1215 0.971061)
(95.0942 25.1518 2.51497)
(100.081 -0.131713 -0.050073)
(107.729 -17.1117 0.0476647)
(107.709 -21.929 0.129363)
(107.131 -20.4879 0.286984)
(106.524 -18.1616 0.143698)
(106.948 -16.0153 0.39549)
(107.156 -13.7862 0.759606)
(107.232 -9.75981 1.4592)
(103.428 -3.15803 1.06217)
(100.783 -1.07252 1.04583)
(97.0834 -0.139911 0.87492)
(95.9271 0.406363 0.805073)
(92.47 1.5351 0.380986)
(62.7396 37.8282 102.329)
(-65.2455 -41.3392 -29.3169)
(111.54 -3.22605 -24.1713)
(2.5011 -9.77269 4.13474)
(99.1981 -15.795 3.5888)
(67.1479 -3.92143 -0.0516073)
(95.0179 -1.05026 1.80984)
(108.612 -8.55253 2.23307)
(112.011 -17.3791 1.31954)
(110.119 -20.4477 0.381236)
(108.832 -20.1705 0.682305)
(109.658 -19.6405 0.984349)
(112.874 -19.165 0.666633)
(115.99 -16.8261 0.135115)
(115.326 -10.6935 -0.141558)
(112.029 -0.355472 -0.351775)
(110.382 2.48862 0.294755)
(106.247 4.12017 1.03919)
(103.323 3.87946 1.59056)
(97.1988 3.48012 0.763064)
(306.938 -37.4207 -297.463)
(-85.4618 16.9854 12.8912)
(129.467 31.4114 7.90608)
(32.2163 11.543 6.90118)
(107.108 -5.51057 5.71898)
(84.0402 -16.6387 1.80428)
(99.8814 -20.7754 3.66375)
(110.073 -20.5556 2.79962)
(110.326 -16.7235 1.74841)
(105.798 -19.5782 0.634079)
(105.811 -23.4971 0.344878)
(107.792 -23.3615 0.627054)
(109.324 -21.5723 0.317254)
(110.655 -17.5528 -0.419765)
(109.75 -10.3388 -1.81177)
(108.744 -2.47584 -2.1019)
(109.94 2.98091 -1.53287)
(108.253 6.66631 -0.356831)
(106.978 8.51351 0.6418)
(101.034 6.69219 0.275307)
(198.801 -213.672 -112.549)
(-113.014 5.92662 -18.657)
(140.025 -5.8648 -22.1624)
(19.1716 -0.270781 -9.07036)
(105.107 -25.9206 -0.937589)
(67.6355 -22.3899 -3.14186)
(103.319 -30.5232 0.351601)
(107.306 -27.8979 1.62176)
(102.637 -15.1311 0.948582)
(99.4112 -18.1053 0.762691)
(97.1804 -22.0433 0.327885)
(96.9021 -23.4592 -0.010263)
(98.0313 -21.499 -0.222105)
(99.6505 -17.4782 -0.60589)
(99.7118 -10.1273 -1.24126)
(99.7473 -4.17878 -1.46749)
(101.236 2.05134 -2.07203)
(101.672 6.45992 -1.58835)
(102.272 9.48808 -0.521459)
(99.4897 8.45548 -0.326654)
(111.324 -26.3175 37.101)
(31.3642 26.7204 -10.6617)
(155.621 21.0581 -2.063)
(112.227 20.0177 -1.46904)
(150.175 -9.86604 3.04413)
(112.049 -30.892 0.45258)
(117.006 -29.003 1.24009)
(91.7536 -18.5975 4.32427)
(93.0372 -15.6551 1.32661)
(93.7874 -19.331 0.171072)
(97.6728 -22.9712 -0.0257546)
(97.2995 -22.868 0.228018)
(97.6701 -20.0962 0.308031)
(96.4242 -15.2115 0.509377)
(94.2753 -7.98338 0.202466)
(94.0364 -4.74842 -0.398315)
(94.3835 1.44039 -1.17401)
(95.0215 4.95984 -1.09252)
(96.9288 8.5934 -0.590056)
(96.3992 8.00897 -0.237687)
(105.016 -28.1907 78.8918)
(4.74115 45.4996 -48.6506)
(156.878 30.9695 -7.92799)
(97.8261 12.6109 -1.70825)
(139.216 -3.13292 1.17448)
(97.5985 -12.2912 -1.79735)
(109.126 -5.95254 -0.116792)
(102.417 -18.5521 0.0328927)
(109.124 -17.4745 0.471045)
(105.693 -22.8347 0.696714)
(105.904 -20.9063 1.10808)
(101.305 -20.7504 0.919743)
(99.8899 -15.2216 0.646625)
(94.7072 -12.1232 0.774204)
(93.9049 -6.11035 0.265221)
(91.611 -2.80352 0.130683)
(91.1616 1.69221 -0.108979)
(91.7537 3.86447 0.0183137)
(94.035 7.11358 0.112636)
(95.0571 7.13834 0.177639)
(71.7778 2.0677 -40.1563)
(47.2932 22.7386 -54.4572)
(183.967 29.5741 -47.5187)
(144.934 24.9748 -20.7009)
(169.081 8.65226 -9.85486)
(134.793 -5.71572 -6.45628)
(139.448 -10.9278 -2.93562)
(125.972 -16.581 -2.588)
(123.811 -17.8741 -0.184569)
(114.85 -21.6964 0.601905)
(111.111 -19.4019 1.45375)
(101.847 -17.9827 1.18658)
(98.6213 -12.3433 0.183428)
(93.1696 -9.18747 -0.205065)
(91.5511 -4.19435 -0.338046)
(90.0978 -1.74271 -0.115237)
(89.8513 1.32966 0.0780632)
(90.8091 2.4046 0.360737)
(92.9227 4.93887 0.540669)
(94.9517 5.28476 0.544695)
(118.024 63.4791 56.9134)
(27.6762 -4.79018 -3.11679)
(174.495 40.0846 -0.110796)
(112.416 33.7834 -4.62378)
(149.089 27.4587 -1.29691)
(122.959 11.0034 -3.30187)
(134.26 4.76039 -0.401116)
(122.859 -7.10192 0.0932996)
(124.894 -7.84065 2.53375)
(114.282 -12.0381 3.07227)
(109.266 -8.13218 3.48817)
(98.6317 -9.40873 1.73584)
(95.7995 -6.44966 0.464641)
(90.6332 -5.65726 0.0258001)
(89.9449 -3.17448 -0.115913)
(88.5887 -1.50382 -0.091954)
(88.5404 0.690047 0.046616)
(89.5468 1.17091 0.202377)
(91.9233 2.89771 0.400893)
(94.4456 3.76164 0.412526)
(153.489 -16.2497 94.1991)
(31.7269 28.8523 -19.9654)
(205.321 15.011 1.12902)
(142.376 17.9515 -4.97849)
(169.498 18.1848 9.65671)
(130.84 3.31487 6.52353)
(134.081 -5.27725 6.72231)
(113.725 -10.9591 4.59213)
(111.752 -6.99067 3.93352)
(98.6247 -7.09896 2.49981)
(96.5611 -4.16917 1.84617)
(90.4795 -5.43696 0.775171)
(89.7211 -4.3418 0.534677)
(87.2484 -3.84035 0.454458)
(86.9733 -1.83957 0.358782)
(85.5999 -0.793254 0.112136)
(85.3907 -0.077066 -0.00477891)
(85.6322 -0.60365 -0.19507)
(87.4947 0.104733 -0.228786)
(90.0355 1.55255 -0.106763)
(135.201 -193.684 -22.8216)
(5.02726 7.66813 7.33831)
(155.62 23.7267 -0.425702)
(135.407 43.1613 2.64788)
(178.497 46.3149 8.96673)
(154.873 30.9532 9.53615)
(154.585 21.7551 16.9037)
(120.82 8.93789 10.217)
(113.288 6.56433 3.90931)
(95.7788 0.536193 0.741845)
(95.876 -0.642177 -0.574011)
(90.7797 -3.19696 -0.323009)
(91.1765 -3.32375 0.206274)
(88.7418 -3.16614 0.593853)
(87.8146 -1.04908 1.05068)
(84.9707 0.00847318 0.698789)
(83.5612 0.556688 0.341462)
(83.6683 0.10718 0.297803)
(86.7349 -1.1331 0.206202)
(90.162 0.301253 0.199454)
(329.798 -92.1654 -6.10565)
(92.6427 -77.1633 -8.50988)
(162.027 -29.2546 -10.0089)
(102.473 -7.21496 -0.491509)
(141.475 24.3198 7.82127)
(102.408 19.7179 8.90616)
(119.081 29.4406 10.3128)
(96.1446 19.8821 3.74867)
(103.849 14.9713 0.885456)
(95.4861 7.31981 -2.43704)
(100.069 2.65193 -2.61566)
(97.7644 -1.66659 -2.30526)
(100.16 -1.93876 -0.512528)
(98.6719 -0.588464 0.504718)
(98.5701 3.40476 2.03411)
(96.7262 4.43613 1.53401)
(95.0874 2.37821 0.159812)
(93.0073 -2.85085 -1.42716)
(93.6019 -6.37276 -0.477192)
(94.6385 -3.26803 0.163333)
(301.844 74.415 -314.104)
(-106.892 13.6009 -15.5706)
(133.106 28.2425 -18.8008)
(-11.9768 19.5376 -15.43)
(98.2104 38.9235 -4.86104)
(57.5261 24.8579 -4.04379)
(109.944 25.2516 1.19403)
(106.509 17.6695 -1.42713)
(128.27 14.3984 -1.09767)
(129.754 8.6896 -2.27723)
(140.148 2.23768 -1.76431)
(138.28 -2.14402 -0.737173)
(139.431 -4.0809 -0.546274)
(138.28 -3.24649 -1.50558)
(138.908 1.67386 -2.102)
(146.755 6.85612 -0.244558)
(157.494 8.27222 2.35267)
(158.782 5.40901 4.74957)
(150.662 -2.91301 9.29935)
(130.024 -2.62108 6.58732)
(291.725 -197.336 77.6531)
(-6.33162 -64.0313 0.766448)
(118.103 -38.8125 1.39226)
(49.4146 -19.596 -9.34074)
(95.3487 -9.29319 -16.9929)
(65.0382 -11.1842 -8.73325)
(93.3966 -12.6492 -1.32254)
(89.4951 -12.5513 1.24859)
(105.773 -10.9864 3.81424)
(108.964 -8.16059 3.04218)
(119.424 -5.36366 2.81774)
(121.382 -3.07796 1.40424)
(126.174 -1.59783 1.15124)
(126.625 -0.942608 0.899034)
(128.487 -0.735506 0.971035)
(129.262 -1.134 0.927903)
(130.64 -1.58156 0.7982)
(131.606 -2.10528 0.853708)
(135.076 -2.65125 0.714023)
(136.089 -1.6223 0.968991)
(107.513 -27.6269 -34.4538)
(-55.6996 -7.31101 40.9851)
(87.9561 -8.86509 17.5882)
(16.3462 1.25344 7.08648)
(89.8941 -2.07185 2.51612)
(59.3995 -5.55998 -0.309028)
(87.4991 -7.6536 1.91115)
(74.2142 -7.30097 1.33827)
(86.0171 -6.67461 2.81712)
(81.345 -5.93983 1.44169)
(88.0289 -4.86404 0.915082)
(86.9607 -4.25306 0.222442)
(91.4163 -3.5475 0.342253)
(92.0489 -3.00252 0.15921)
(94.9087 -2.55586 0.308445)
(95.7991 -2.1362 -0.0148185)
(96.8801 -1.45772 -0.39768)
(96.3616 -1.15617 -0.639933)
(97.5227 -0.281131 -1.05592)
(94.1033 0.632578 -1.54334)
(159.634 -146.659 103.341)
(-7.40192 -91.1143 -0.295742)
(90.5619 -72.3752 -17.9139)
(14.8566 -40.7121 -5.86791)
(79.3328 -37.1301 -2.83368)
(44.1516 -26.291 -2.92108)
(74.7753 -21.5761 -0.216488)
(60.8987 -13.3197 -0.270635)
(75.5155 -9.29129 1.68373)
(71.0965 -5.74186 1.22705)
(78.9628 -5.01994 1.3781)
(77.9349 -3.99029 0.761959)
(82.4581 -3.90717 0.699193)
(82.6604 -3.27955 0.411998)
(85.4388 -2.97985 0.432495)
(85.9672 -2.3241 -0.0346993)
(86.9573 -1.56976 -0.276088)
(86.4327 -1.08086 -0.458998)
(87.4699 0.174248 -0.748303)
(84.4907 0.796453 -0.780168)
(114.766 -61.0581 39.7782)
(-4.85774 -13.8335 8.39626)
(116.557 -16.8483 -26.8697)
(53.5908 -22.7978 -1.78251)
(100.163 -19.2636 0.411614)
(58.829 -16.0594 1.2119)
(81.4633 -15.4739 0.717849)
(61.145 -10.1579 0.169889)
(73.7006 -9.30913 0.22348)
(66.9103 -7.06464 0.374519)
(74.8231 -7.14209 0.657706)
(73.3883 -6.41861 0.76193)
(78.2351 -6.3449 0.926763)
(78.4937 -5.52032 0.769294)
(81.2587 -4.81541 0.738231)
(81.8214 -3.63342 0.356556)
(83.2555 -2.21811 0.00770525)
(82.9445 -1.18443 -0.1421)
(84.2732 0.551383 -0.431496)
(81.9211 1.33733 -0.477384)
(249.831 -31.0963 33.1128)
(-17.9323 -23.602 17.9328)
(125.935 -47.2401 -8.39078)
(45.4661 -27.9364 2.22184)
(104.133 -25.1501 5.00518)
(57.9534 -16.3273 1.19803)
(79.7153 -21.9576 1.82753)
(59.4679 -10.9148 -0.414896)
(71.3599 -14.8051 0.127752)
(65.7956 -8.75776 0.166012)
(74.0461 -10.5026 0.659264)
(73.0989 -7.42236 0.748436)
(77.781 -7.66634 1.01438)
(77.8551 -5.61132 0.966583)
(80.3594 -5.08547 0.853854)
(80.4002 -3.78708 0.411434)
(81.4622 -2.75839 0.0805604)
(81.204 -1.40127 -0.0550565)
(82.6028 0.283931 -0.331685)
(80.8963 1.19606 -0.306829)
(239.301 143.605 -20.5914)
(192.939 19.5056 -24.488)
(202.103 -15.3674 -35.0781)
(135.3 -14.2018 -22.8599)
(141.099 -4.85177 -5.75586)
(92.0396 -0.751534 0.178165)
(99.0267 -6.78162 3.75166)
(79.5314 -6.91785 1.09403)
(81.2051 -11.5455 0.559803)
(74.4464 -10.4917 0.171925)
(77.4146 -11.6451 -0.00454618)
(75.4891 -9.47457 0.162956)
(77.7936 -8.78584 0.36161)
(77.0528 -6.77623 0.352679)
(78.0894 -5.47685 0.529836)
(77.9213 -3.84687 0.406685)
(78.1975 -2.76756 0.0945612)
(77.9139 -1.41792 -0.0833693)
(79.1834 0.0505812 -0.354927)
(77.8224 1.18484 -0.320877)
(306.332 121.282 -186.26)
(187.809 52.096 -88.3813)
(165.054 24.368 -53.4869)
(55.8382 10.6484 -15.0386)
(108.414 24.5177 -6.01853)
(48.0242 19.082 -0.48458)
(72.3267 -7.95401 1.43737)
(58.8702 4.59327 1.48155)
(72.481 -10.7615 0.717748)
(70.4743 -6.97661 1.03853)
(77.6117 -12.658 0.538818)
(76.52 -8.85659 0.329997)
(79.4066 -9.32649 0.296838)
(78.6292 -5.69269 0.14022)
(79.4291 -4.86822 0.285709)
(78.3586 -3.2511 0.301751)
(78.1468 -2.70611 0.400862)
(77.4726 -1.60568 0.258045)
(78.4089 -0.683736 0.0344341)
(77.0817 0.593367 -0.0538906)
(168.851 50.586 97.3218)
(54.0999 61.2 4.23586)
(120.259 27.6461 -4.04704)
(54.8532 4.87082 -0.343631)
(105.677 8.17459 0.0568187)
(73.2097 25.3661 1.15809)
(87.3276 4.44287 0.650291)
(69.019 -9.35775 -0.684428)
(78.3586 -10.8438 -0.272839)
(79.8881 -17.8376 0.279245)
(85.436 -14.9156 0.436274)
(84.9162 -14.3822 0.290139)
(86.3775 -11.3698 0.321058)
(85.6814 -9.64068 0.384202)
(83.0389 -4.4979 0.92472)
(82.2359 -2.02774 0.361403)
(80.334 -1.2967 0.317813)
(79.2212 -0.301113 0.317751)
(79.6274 0.12762 0.289527)
(78.1411 0.953835 0.114593)
(174.714 -12.3152 -190.363)
(-11.2601 39.0391 -49.055)
(77.5034 60.7592 -43.0798)
(-9.42176 10.5351 -3.65716)
(77.7537 21.9632 -1.40818)
(54.2779 22.3285 1.15146)
(80.0833 21.3187 2.12764)
(84.2784 -5.04784 -0.147112)
(90.9481 -15.8039 -0.000809869)
(91.7928 -18.5355 0.229736)
(92.8336 -16.1886 0.344161)
(92.7652 -14.2481 0.284767)
(93.5193 -11.8395 0.680934)
(93.704 -9.06873 1.07727)
(93.0873 -5.69878 1.57023)
(88.3595 -0.661039 1.49996)
(85.8106 0.242179 1.12844)
(83.2866 0.496139 0.87413)
(83.124 0.450337 0.680513)
(80.9891 1.00608 0.283249)
(172.202 139.139 -41.8105)
(-79.0426 -32.2099 -31.6202)
(99.2452 -14.3504 -21.3542)
(-12.8586 -15.2939 2.28121)
(88.7361 -16.9903 1.39338)
(55.028 -2.64727 0.810947)
(83.6184 1.6413 2.99669)
(95.8454 -8.81682 2.57915)
(97.9252 -16.1331 1.49417)
(96.5052 -17.6424 0.529647)
(96.4444 -16.4524 0.752347)
(98.0662 -15.4307 1.03004)
(100.475 -13.7092 0.827077)
(101.758 -9.9905 0.582653)
(99.818 -3.96735 0.313564)
(94.8152 3.11183 0.323838)
(92.1001 4.17433 0.650284)
(88.5664 4.39861 1.09133)
(87.4472 3.17754 1.3072)
(84.1298 2.45079 0.520377)
(345.735 -80.664 -69.6183)
(23.5076 -19.7639 -15.2107)
(121.765 12.7107 -12.1075)
(19.9744 6.98926 4.4784)
(94.8308 -6.16412 2.90987)
(66.8563 -14.3731 1.83097)
(83.0248 -15.476 4.30321)
(93.7143 -14.6876 3.42687)
(95.404 -14.2507 2.03368)
(93.9321 -17.451 1.49325)
(96.5835 -20.4257 -2.53624)
(99.3354 -18.339 -0.256079)
(100.218 -14.7744 -0.324635)
(100.821 -10.2425 -0.954647)
(97.8935 -3.70691 -1.93511)
(93.7755 1.91198 -1.31063)
(92.5469 5.68842 -0.85009)
(90.2768 7.06846 0.0466978)
(89.8162 6.75452 0.754113)
(86.0917 4.53117 0.178372)
(256.276 144.535 -24.2158)
(30.3194 33.7601 -24.1353)
(130.481 -8.56863 -28.144)
(5.21154 -6.16057 -6.01525)
(90.6405 -28.9096 -3.60599)
(47.4626 -23.3114 -2.12617)
(82.9084 -27.7081 1.08714)
(88.3251 -18.7187 2.07145)
(87.7295 -12.798 1.42714)
(87.168 -15.7303 0.787228)
(86.754 -18.0348 0.234489)
(87.4976 -17.8471 -0.267064)
(88.8652 -15.0262 -0.771012)
(90.647 -10.9735 -1.28027)
(89.8531 -4.82406 -1.72623)
(87.7601 -0.488451 -1.23288)
(87.4293 4.39653 -1.55701)
(86.8446 6.63429 -0.880893)
(87.5564 7.52411 -0.0565576)
(85.3789 5.77904 -0.212596)
(190.392 97.5803 -129.122)
(22.8038 22.5605 -47.0642)
(143.768 5.20925 -26.668)
(85.7778 5.72369 -7.37123)
(127.228 -17.7137 0.818096)
(85.7541 -32.2467 -0.450572)
(93.8293 -24.8746 1.89657)
(75.5075 -14.6527 3.45277)
(81.2149 -14.3049 1.1767)
(80.8302 -16.6437 0.385625)
(84.0135 -18.5996 0.214655)
(83.6377 -17.221 0.38153)
(84.8721 -14.1675 0.336457)
(84.4091 -9.67183 0.337969)
(82.5003 -4.50195 0.0665535)
(82.6121 -2.1509 -0.567513)
(82.714 2.61423 -0.950316)
(82.9432 4.51484 -0.684551)
(84.5173 6.43147 -0.291919)
(83.9656 5.25783 -0.0232911)
(321.289 227.728 -38.0538)
(-18.8292 33.1497 -39.2192)
(157.304 5.96195 -22.0847)
(77.447 0.196535 -5.09061)
(121.776 -10.3494 -0.099508)
(73.9104 -14.9171 -2.37454)