/*--------------------------------*- C++ -*----------------------------------*\
  =========                 |
  \\      /  F ield         | OpenFOAM: The Open Source CFD Toolbox
   \\    /   O peration     | Website:  https://openfoam.org
    \\  /    A nd           | Version:  10
     \\/     M anipulation  |
\*---------------------------------------------------------------------------*/
FoamFile
{
    format      ascii;
    class       volScalarField;
    location    "8.6";
    object      k;
}
// * * * * * * * * * * * * * * * * * * * * * * * * * * * * * * * * * * * * * //

dimensions      [0 2 -2 0 0 0 0];

internalField   nonuniform List<scalar> 
12920
(
4455.7
4187.78
3514.61
1963.84
925.299
525.375
387.111
286.394
239.162
233.185
228.891
219.229
196.898
169.836
138.927
109.709
87.1367
73.4879
69.7425
63.6454
2881.68
3089.66
1856.21
1252.02
857.326
734.772
592.986
423.455
295.767
243.548
217.388
199.037
177.624
157.203
142.257
136.735
136.761
139.621
142.619
140.498
11909.3
6307.5
1532.08
705.589
616.743
581.8
462.382
346.266
265.554
222.924
194.87
181.127
174.664
173.534
175.151
178.033
177.787
175.41
171.139
157.721
2637.18
3037.07
1919.83
1064.45
709.617
584.921
453.021
362.559
287.297
246.758
219.156
204.204
195.814
193.059
190.967
188.451
184.676
179.332
174.542
160.492
2378.65
5201.11
2555.26
1469.07
920.799
685.809
497.388
386.458
294.017
257.588
233.652
225.394
217.162
212.13
205.93
199.562
193.899
185.416
179.824
166.493
412.856
1370.81
1681.77
1654.91
1167.71
791.663
522.93
375.739
282.465
246.884
225.769
216.047
206.805
202.11
196.399
190.464
184.891
176.934
172.551
161.879
759.736
676.974
1119.2
1468.73
1150.8
745.885
476.724
348.199
287.571
253.097
228.809
212.416
198.604
189.771
180.696
173.696
166.846
160.366
157.045
148.22
1485.99
2450.02
2264.35
1633.4
1111.14
811.851
471.977
278.064
209.921
142.925
121.515
117.691
115.943
108.288
167.702
151.634
141.909
136.105
132.614
122.066
2785.22
1987
1793.64
1487.57
1090.05
626.571
398.373
148.867
131.659
120.822
83.4374
73.939
68.427
60.5482
98.818
128.194
115.142
107.354
101.171
90.4429
1712.9
1289.18
1613.09
1402.82
1031.69
543.771
253.337
141.087
185.726
174.977
94.504
74.2598
59.5611
50.5582
79.5908
97.6403
85.4178
78.712
74.8798
74.7883
1196.07
1558.27
1560.78
1140.17
838.994
481.594
211.927
172.804
200.773
173.87
66.6528
58.6401
49.3698
42.3001
58.3665
78.2234
73.3801
72.1432
72.2206
74.3182
375.588
2173.04
1358.16
718.858
578.828
323.838
197.457
180.028
204.976
205.436
185.992
67.993
118.517
70.5511
68.8184
89.0905
83.7319
79.1143
75.3347
73.565
2141.56
3577.64
2403.41
1240.8
744.428
546.855
301.104
213.054
222.829
260.489
277.635
259.755
210.26
125.986
106.168
90.4637
82.5237
78.0641
76.718
74.3331
8401.02
6308.94
3383.5
1573.69
779.535
523.024
376.113
273.136
214.488
173.081
174.94
164.885
135.244
115.416
105.456
100.141
97.7929
95.8251
94.5101
87.1302
8197.37
6105.82
4607.17
2887.7
1391.71
740.147
452.864
329.47
228.639
184.091
162.664
154.37
146.909
147.96
152.367
154.057
153.118
146.869
141.505
123.229
2614.12
3566.34
2936.72
1581.21
879.474
580.909
397.413
281.165
214.038
190.97
178.375
177.156
177.447
181.179
184.765
185.092
183.915
178.474
171.686
149.26
1750.7
1983.29
1750.35
1324.3
863.025
552.682
345.064
237.441
189.846
176.698
171.432
170.87
170.481
170.317
169.388
164.663
159.174
149.85
143.839
126.766
7260.31
4412.85
2025.33
1179.24
716.443
457.333
308.498
243.217
198.664
176.759
157.367
148.41
140.109
134.591
128.214
120.917
113.578
105.773
102.354
95.8596
3858.78
2364.62
1864
1183.78
818.99
601.51
431.122
353.126
291.94
254.724
209.908
184.01
160.69
149.36
138.195
130.561
120.287
110.106
98.0505
83.2196
1784.59
1148.89
1109.47
981.45
690.636
470.373
332.957
269.44
218.084
183.511
152.89
130.826
113.771
100.319
88.6575
77.3205
68.6111
63.8901
61.7849
56.1698
5600.96
4931.25
2428.99
1478.91
905.803
698.139
547.045
501.825
489.278
468.66
428.289
379.252
326.262
275.955
233.611
202.285
178.449
159.407
152.541
139.713
9265.36
5737.82
2394.18
2013.54
1550.16
1576.84
1184.34
924.142
691.592
649.096
575.836
540.198
484.897
455.36
435.076
432.581
433.41
434.57
443.86
450.712
7666.81
5635.02
2556
1480.31
1365.96
1372.94
1122.64
903.821
708.068
631.041
558.245
544.719
536.096
543.482
547.508
546.993
537.676
524.946
514.398
482.775
5703.93
9373.1
5023.65
2451.64
1463.99
1388.61
1153.85
942.541
769.798
685.289
613.187
585.789
567.861
565.32
559.689
553.845
541.67
528.081
514.395
478.453
9945.84
15630.9
6916.35
3422.63
1826
1599.45
1184.85
1032.64
790.212
732.911
664.056
647.341
621.128
608.887
592.113
576.186
559.068
538.291
522.448
486.344
7505.21
7052.17
6010.23
4350.77
2399.83
1870.24
1160.54
961.144
745.738
694.065
635.343
616.311
587.9
572.749
556.968
542.346
526.989
508.281
496.326
467.271
10263.1
6776.31
4931.92
4138.54
2229.96
1656.45
1062.11
872.99
755.909
685.971
615.268
576.43
540.135
519.81
500.672
485.953
471.554
457.45
447.976
422.444
1571.36
5234.31
5059.95
3594.13
2255.02
1735.87
1227.31
1008.27
820.337
612.701
511.913
460.28
427.532
399.008
402.573
389.005
379.189
372.386
365.365
342.676
6195.48
4764.34
4460.43
3371.33
2288.51
1771.54
1292.57
983.842
839.105
659.203
478.857
402.813
342.387
311.495
298.156
291.212
283.522
278.87
270.545
258.126
1242.09
3264.79
4007.81
3122.46
2199.2
1692.01
1200.48
1000.78
943.968
781.58
492.79
365.93
273.711
237.05
222.014
213.761
207.994
208.676
211.009
220.811
2651.48
4743.37
4008.47
2517.91
1850.1
1529.67
1170.41
1039.37
931.889
736.653
414.403
292.504
223.15
191.277
160.534
179.198
186.255
198.417
205.627
223.21
2482.14
7160.57
3437.96
1807.94
1497.44
1276.36
1194.09
1003.05
960.851
879.938
708.532
461.157
519.209
354.782
198.394
208.755
210.841
212.285
212.248
215.411
13742.5
8449.29
5621.43
2988.06
1755.97
1349.84
1022.85
957.355
880.724
875.808
872.769
794.083
694.201
435.025
250.975
230.091
221.608
220.432
219.502
216.923
31431.9
14399.8
7295.9
3486.49
1700.55
1315.43
922.352
692.256
564.382
468.658
460.398
421.297
350.348
302.974
281.475
273.84
270.812
266.47
262.518
245.481
27576.8
15917.9
9055.55
4899.48
2192.25
1593.06
964.083
805.821
571.555
501.419
444.873
421.471
398.464
397.249
401.276
401.108
398.255
386.31
375.264
334.381
12675.7
8067.07
5894.97
3299.73
1746.71
1281.22
809.978
667.692
550.859
526.133
497.946
495.878
491.604
492.988
494.446
491.834
488.58
478.056
465.171
416.403
10200.8
5050.06
4493.01
3118.71
1958.9
1221.89
728.946
594.012
505.837
493.748
475.361
475.425
469.69
470.951
469.048
460.706
450.984
433.108
418.633
377.586
10243
8193.45
4726.53
2690.71
1395.06
942.86
675.936
619.987
521.712
482.59
428.329
414.105
387.357
380.534
365.587
353.508
338.366
326.368
319.547
305.19
3398.71
5337.67
4093.53
2528.91
1324.14
1051.12
816.322
792.023
693.49
611.103
508.581
462.356
412.402
393.009
367.309
353.71
341.317
329.647
301.483
262.612
1193.02
2368.38
2257.11
1725.32
1269.24
983.464
769.973
623.447
499.441
412.597
341.369
295.344
255.801
224.046
197.603
176.407
160.473
147.082
141.294
129.811
9724.64
4033.86
2236.81
1615
1060.39
787.892
640.438
599.223
558.409
510.223
450.609
390.328
331.483
280.344
240.932
211.566
189.749
174.803
168.859
165.523
9906.93
6684.66
2975.08
2399.08
1863.43
1705.26
1270.08
1161.76
982.045
934.577
832.516
785.16
715.859
678.952
642.72
619.561
600.252
592.986
593.88
586.113
8883.99
7927.59
4255.36
2457.14
2144.74
1826.7
1434.84
1217.09
1033.93
957.756
879.769
857.756
824.364
808.085
779.958
753.684
726.897
703.008
684.455
642.504
23591.6
14436.7
6285.75
3347.47
2305.31
1936.42
1515.03
1259.02
1082.38
979.816
903.361
867.519
834.96
814.788
789.581
766.444
741.399
714.694
691.814
646.443
37697.2
23328.6
8871.7
3954.37
2465.38
2102.68
1577.88
1363.85
1134.95
1042.13
951.398
907.953
865.348
836.96
805.839
777.427
749.579
718.666
694.86
651.806
16254.9
11450.6
7607.8
4567.88
2698.7
2174.47
1573.51
1380.76
1136.33
1028.94
920.7
867.707
818.176
789.057
759.998
733.905
709.363
682.626
664.179
626.904
12107.4
8975.95
6632.02
4265.06
2521.11
1993.01
1522.35
1304.83
1099.9
961.009
842.215
781.125
730.555
703.357
676.187
654.373
634.576
614.452
599.593
567.422
3087.47
6264.19
5935.89
3977.25
2674.32
2060.08
1711.9
1430.82
1161.33
875.618
740.483
645.936
597.707
560.86
537.576
525.027
515.32
503.881
492.471
468.07
4901.16
5760.27
5365.88
4002.58
2769.83
2219.81
1816.85
1497.76
1161.39
852.734
652.204
539.959
466.345
430.534
403.099
385.64
385.127
383.266
378.093
374.393
3086.39
5482.06
5348.96
3709.04
2668.05
2136.01
1799.47
1474.96
1218.42
894.464
616.292
451.654
346.075
312.043
292.661
287.693
293.384
303.779
312.448
333.849
12195.6
7617.13
5058.25
3004.8
2339.37
1962.88
1701.88
1431.1
1177.76
891.934
461.993
257.209
267.096
235.126
221.951
256.532
274.552
295.2
307.924
334.313
6542.93
10194.6
4735.3
2571.61
2034.41
1770.01
1693.04
1376.54
1222.97
1044.83
837.464
750.033
707.754
440.349
269.386
288.913
297.989
306.165
310.623
320.952
17591.8
10011
6742.88
3588.39
2305.3
1707.41
1487.8
1317.37
1121.45
1087.03
1064.59
1043.32
920.701
516.66
335.395
321.958
316.195
314.81
312.615
310.839
26282.8
13139.3
7683.43
3973.86
2219.7
1619.47
1217.58
915.598
755.576
619.948
594.661
538.113
463.684
413.333
388.521
377.443
368.827
358.089
347.881
326.528
31318.2
18512.8
8917.4
4894.95
2580.98
1805.17
1225.83
1027.18
788.837
704.479
619.979
584.52
549.367
539.203
528.372
512.063
496.355
472.177
450.944
397.823
22831.2
11436.8
6940.3
3803.47
2281.01
1561.63
1122.47
928.279
809.522
754.37
708.979
690.198
665.933
656.135
637.123
617.212
595.138
565.339
539.541
473.792
15097.5
9595.59
6375.75
4125.08
2657.65
1611.04
1084.38
898.238
784.003
744.944
701.54
687.321
660.869
648.212
623.564
600.843
576.863
548.524
526.271
471.391
6832.38
9775.27
6512.88
3526.8
2101.17
1440.48
1091.43
937.975
780.989
708.616
635.334
609.64
572.118
559.302
534.218
518.183
498.119
481.61
468.713
437.318
8776.07
6707.07
4298.31
2631
1789.52
1504.03
1202.07
1092.95
880.825
775.753
650.839
600.504
541.789
520.498
492.246
480.544
465.734
453.773
431.289
403.98
2231.58
2859.8
2434.8
1829.48
1391.72
1127.59
903.276
719.447
564.966
453.093
370.038
311.795
266.046
232.006
206.609
186.257
172.214
162.416
162.93
164.675
7753.73
3847.52
2034.82
1398.56
971.871
750.673
659.837
621.429
564.313
497.606
428.865
361.595
303.699
256.496
224.481
202.632
190.456
184.577
184.521
186.418
10683.9
8636.81
3864.46
2338.7
1951.3
1664.5
1452.71
1346.78
1223.93
1148.45
1049.94
979.987
907.197
858.671
817.461
786.511
764.972
750.15
739.206
711.802
7201.1
8845.77
5873.85
3119.18
2727.29
2058.52
1735.49
1445.57
1320.96
1215.77
1153.59
1102.78
1059.11
1015.63
974.535
933.532
899.859
865.872
837.404
792.461
8093.78
10382.8
7709.76
3996.96
2958.98
2209.09
1825.12
1485.96
1355.59
1219.85
1159.07
1102.37
1064.85
1023.85
988.786
951.07
917.705
880.888
849.006
802.6
18831.4
18292.2
9515.94
4332.67
3021.02
2292.79
1900.05
1581.89
1419.56
1272.17
1192.07
1122.4
1077.05
1031.12
992.299
952.398
917.903
880.052
849.375
806.799
23825.6
14070.8
8877.44
4696.39
3113.26
2306.74
1930.56
1632.82
1422.14
1260.6
1148.7
1072.83
1015.94
973.974
936.507
901.561
871.262
839.726
814.45
778.413
13233.3
10566.1
7708.65
4318.42
2970.92
2244.84
1906.55
1567.74
1337.67
1154.57
1027.52
954.659
900.201
866.204
833.335
806.872
783.551
759.494
738.292
708.64
7530.13
8111.86
6911.66
4245.15
3165.77
2361.1
2066.54
1667.36
1345.36
1046.19
900.994
792.901
740.016
699.668
667.413
655.946
645.18
630.674
615.32
597.506
13353.7
7843.01
6698.83
4405.58
3204.93
2531.2
2180.41
1715.02
1287.59
950.063
761.276
637.34
569.78
536.151
504.182
489.356
493.234
495.252
495.538
499.683
15509.1
8894.01
6947.5
4254.36
3072.91
2436.73
2141.59
1688.56
1293.34
907.666
655.649
486.572
401.428
386.287
374.05
384.979
397.506
417.249
432.357
462.155
13395.6
10301.4
6421.53
3598.76
2758.78
2252.77
1994.12
1622.95
1270.6
929.159
523.251
375.531
329.205
297.641
312.727
363.124
385.903
411.566
429.451
460.247
23705.7
14430.5
6150.84
3259.81
2476.59
2114.57
1985.7
1572.27
1325.24
1090.99
925.141
903.079
717.014
455.088
354.208
391.155
402.384
415.067
422.675
438.989
16185.9
11710.2
7496.68
3938.51
2870.33
2039.62
1783.67
1469.77
1204.87
1157.4
1104.44
1101.24
844.276
520.394
430.018
423.161
418.61
416.252
413.752
414.828
17397.8
12452
7809.97
4016.62
2710.63
1855.51
1462.12
1109.18
907.507
734.211
698.554
620.979
566.243
521.791
497.993
479.827
465.392
448.004
432.923
416.651
19442.8
13474.2
8788.8
4692.9
2974.4
1949.29
1516.47
1220.04
992.233
875.256
780.305
731.653
694.171
672.598
646.452
613.665
584.424
548.337
515.1
466.63
26870.1
12360.1
7685.42
4104.65
2775.73
1757.07
1451.14
1158.46
1061.41
953.253
907.362
861.124
833.989
804.162
770.476
729.708
690.292
643.413
602.43
536.92
15489.5
11349.1
7953.44
4769.32
3180.87
1841.97
1426.14
1151.34
1055.01
968.23
920.326
878.322
843.692
808.485
770.47
729.305
691.678
649.234
613.895
555.84
1923.14
8902.12
8263.17
4185.99
2703.32
1748.95
1457.88
1178.42
1026.17
907.706
839.303
791.673
754.077
727.738
698.027
670.77
644.843
618.136
594.602
557.875
7866.18
6489.43
4717.21
2783.51
2255.49
1758.99
1490.31
1279.42
1048.17
905.903
783.528
725.946
673.753
653.387
629.133
615.948
599.734
584.059
564.667
545.022
7188.02
3606.88
2598.77
1960.81
1422.36
1086.27
861.924
666.652
519.934
405.535
331.171
277.204
241.12
214.132
195.826
181.592
174.858
174.56
182.033
184.976
8560.82
4181.08
2013.63
1081.64
765.998
686.242
648.806
590.22
501.872
430.926
357.253
294.171
246.091
216.46
199.522
189.668
185.392
184.022
185.938
186.373
11817
9318.75
4609.58
2528.1
2559.81
1955.42
2011.1
1627.5
1630.96
1390.03
1349.47
1183.05
1144.77
1055.02
1036.36
989.485
972.579
940.629
919.028
886.948
8886.52
9626.2
6828
3847.48
3753.73
2481.21
2329.18
1756.35
1753.07
1514.98
1504.58
1370.25
1343.03
1249.7
1217.23
1150.24
1118.41
1069.8
1035.77
993.489
13976.4
11199.6
9226.06
4693.96
4076.78
2639.21
2409.19
1799.66
1765.17
1515.89
1499.37
1376.77
1351.51
1268.74
1237.08
1174.52
1139.82
1090.51
1053.12
1009.37
22136.8
18206.5
10639.9
5176.62
4144.09
2680.1
2482.68
1899.39
1830.64
1555.32
1519.18
1385.24
1354.17
1269.99
1233.45
1172.25
1136.49
1089.18
1054.36
1015.52
21919.8
15610.2
10647.1
5396.9
4030.69
2716.41
2501.55
1940.48
1800.37
1527.8
1450.16
1324.7
1273.91
1206.72
1165.52
1117.97
1084.26
1047.27
1016.07
986.096
12823
12095.7
9112.04
4985.3
3972.41
2716.73
2434.39
1943.57
1670.38
1406.84
1296.53
1187.13
1139.63
1084.82
1048.46
1013.92
987.572
958.031
930.721
908.632
13625.6
10513.9
8267.15
4874.78
4065.34
3020.32
2437.51
1923.85
1567.59
1255.85
1111.68
993.966
939.857
892.678
868.906
850.409
832.154
815.023
795.492
787.452
28090.4
11479.9
7921.66
5127.03
3829
2963.94
2586.14
1887.16
1426.85
1083.25
911.059
790.968
743.643
712.319
686.97
671.007
669.308
671.765
675.195
688.981
19515.5
13129.3
8980.13
5041.05
3603.66
2784.03
2484.5
1883.48
1364.34
945.428
695.096
556.285
556.26
574.104
564.203
571.449
578.793
600.577
620.801
655.56
26956.5
13191.1
7538.33
4556.42
3331.63
2587.12
2277.44
1818.89
1360.35
927.542
620.466
459.058
470.911
510.492
526.043
561.479
571.615
597.637
618.532
651.972
21700.7
14683.6
7095.08
4262.16
3061.4
2539.49
2319.64
1779.01
1449.9
1156.22
989.043
887.116
721.43
587.969
556.57
577.914
581.739
591.381
602.364
623.357
16405.2
12987.9
8455.18
4593.05
3858.69
2665.98
2098.66
1609.62
1351.69
1204.97
1118.76
993.462
777.211
625.569
613.872
598.437
587.09
581.948
579.213
583.594
18851.2
14245.7
8741.6
4785.16
3605.2
2343.43
1874.8
1484.69
1139.39
939.49
877.981
766.288
755.148
697.421
678.053
639.334
622.304
594.048
579.153
569.723
16178.2
14101.9
9697.27
4943.1
3895.56
2315.13
2075.91
1507.23
1303.41
1099.26
1013.68
933.399
908.159
859.151
819.753
766.068
725.663
674.358
635.565
597.978
13077.6
13335.5
8852.08
4794.66
3579.41
2101.29
1978.22
1455.2
1425.46
1199.41
1185.24
1076.13
1070.73
997.761
963.874
885.262
839.272
768.248
720.046
662.981
26785.5
13798.1
9912.57
5260.29
3968.99
2097.06
1967.74
1431.64
1441.76
1225.06
1217.14
1106.92
1089.32
1008.89
970.939
894.707
852.392
788.451
747.06
695.534
21103.7
21465
11864.7
4696.45
3649.97
2030.11
2002.93
1422.61
1394.68
1130.72
1129.27
1008.24
1002.65
933.703
914.343
856.838
833.447
786.296
759.573
730.187
6937.05
9469.71
5749.9
3381.82
2951.98
1938.08
1980.33
1450.13
1367.26
1049.85
1016.93
893.464
887.303
835.405
826.658
792.78
782.386
759.487
751.222
746.562
3428.83
2534.6
2123.96
1818.97
1313.9
931.912
696.364
517.954
390.41
304.67
256.353
220.482
200.401
182.865
175.399
166.722
165.06
165.138
171.795
161.75
668.684
877.75
535.191
907.17
701.934
906.062
512.701
488.898
458.856
320.095
649.904
516.491
435.768
351.04
541.837
1002.4
802.769
932.485
539.759
1037.45
850.01
298.074
730.588
617.106
453.428
361.152
801.365
755.682
187.26
278.402
133.521
967.664
784.596
911.076
768.153
128.599
127.258
159.131
759.176
716.865
767.751
806.695
125.538
167.21
169.749
692.154
619.544
801.458
738.835
92.6198
167.196
123.88
572.601
436.015
705.174
513.673
73.115
103.883
77.424
410.126
364.281
457.542
363.638
71.0213
75.8543
67.1015
350.821
310.346
340.598
278.058
61.8885
63.2741
55.2231
298.857
276.226
262.355
232.41
48.4765
53.7246
43.0641
270.609
266.99
226.486
214.447
138.359
242.308
160.11
923.743
816.767
996.404
905.075
180.701
167.355
198.336
819.139
837.459
892.613
851.836
181.688
199.303
184.209
827.077
751.77
830.339
721.342
114.788
170.332
80.2984
711.74
493.381
662.806
405.692
76.1114
67.7601
63.5051
434.902
349.298
358.779
294.572
63.4363
60.7547
49.1559
326.24
261.108
268.302
203.801
51.9245
47.306
42.6563
244.691
215.233
193.498
171.583
42.1479
40.8965
31.2127
209.916
203.712
163.87
149.506
159.955
204.367
174.395
946.855
897.183
951.43
902.606
200.752
188.241
212.312
890.952
853.573
898.026
878.868
186.027
213.391
208.549
831.06
724.041
865.769
803.134
83.805
202.359
179.906
668.663
410.028
774.875
642.545
59.4236
154.776
61.0245
353.725
289.518
539.132
340.906
50.2336
63.6677
88.2322
264.707
207.66
343.589
369.834
45.2908
89.4905
69.0416
202.161
185.112
370.213
297.751
30.5874
64.1817
35.8399
171.405
144.085
265.227
174.931
170.686
233.465
113.19
985.812
877.932
775.391
707.364
201.744
110.628
125.566
867.049
858.555
713.961
757.627
206.95
136.585
169.437
853.794
817.662
763.275
784.216
196.15
179.164
196.48
799.56
714.403
789.336
787.781
72.7742
199.603
186.926
657.217
376.447
782.591
680.359
116.053
159.8
97.414
375.612
448.909
623.42
552.777
79.641
102.809
97.2192
453.941
357.176
556.381
505.929
38.3591
78.1454
46.5098
309.833
189.957
433.107
233.618
1015.41
1203.22
981.317
1700.12
1463.75
1668.48
1437.22
882.912
965.428
947.853
1403.18
1184.52
1386.98
1229.24
722.489
926.002
824.774
1105.98
898.435
1167.32
958.484
508.353
777.14
566.877
817.839
652.072
879.909
660.512
420.344
511.878
409.55
617.279
536.554
610.827
493.554
355.001
382.112
311.33
511.614
453.64
459.581
378.989
317.077
294.379
262.626
439.48
410.444
361.084
328.938
301.853
256.349
240.217
404.116
393.262
322.592
306.848
1015.27
1230.15
1075.65
1680.17
1439.66
1658.3
1432.15
968.073
1047.15
965.768
1388.06
1233.86
1372.05
1200.68
833.987
933.377
796.838
1173.81
963.139
1140.15
930.671
549.993
731.638
471.15
881.887
649.688
858.938
561.469
393.881
418.561
329.935
596.652
473.8
491.899
348.892
291.505
297.775
222.432
437.706
350.823
307.545
234.217
242.556
211.774
190.199
332.101
301.372
230.539
222.586
227.143
182.345
165.338
296.219
288.204
217.49
210.975
1061.75
1168.85
1053.44
1597.69
1411.91
1586.09
1379.38
964.425
1035.73
988.703
1357.1
1192.94
1334.05
1214.68
799.133
967.945
884.788
1134.43
933.732
1172.08
1030.83
474.334
849.861
693.643
866.071
560.426
979.189
783.532
325.459
594.824
410.095
486.228
331.842
704.861
564.375
227.481
403.335
426.585
282.875
249.296
564.155
579.911
206.823
425.808
341.253
256.582
243.458
556.593
422.345
158.696
302.108
195.254
226.505
201.719
368.955
247.318
1024.46
1036.1
880.362
1594.91
1346.58
1438.16
1252.45
973.051
881.862
898.109
1304
1210.71
1234.14
1184.24
904.823
892.409
882.87
1176.92
1061.71
1147.47
1071.51
773.354
882.39
868.992
1019.75
872.472
1058.99
1026.43
465.065
860.198
752.235
810.606
679.854
1011.69
939.394
517.133
708.413
656.937
683.233
702.693
930.569
913.939
409.455
655.772
584.573
678.799
503.632
892.649
716.329
211.405
503.127
261.57
430.878
266.702
596.166
326.68
1570.95
1788.76
1540.2
2094.91
1786.48
2066.5
1752.09
1247.97
1479.64
1286.1
1677.06
1363.21
1661.32
1379.4
934.38
1213.23
976.692
1265.69
1006.24
1281.79
996.325
688.06
893.122
679.654
928.784
774.231
911.235
717.896
565.697
630.618
510.692
736.24
639.558
669.62
546.598
480.568
475.949
395.248
612.93
555.76
512.277
438.677
436.749
377.696
346.637
542.254
513.623
424.296
400.876
418.026
340.518
324.358
507.394
494.111
396.205
381.99
1536.45
1762.67
1513.94
2068.99
1737.91
1991.21
1687.85
1289
1446.67
1252.21
1650.35
1381.95
1602.43
1348.64
980.483
1183.7
954.13
1286.14
995.444
1259.99
986.759
808.789
809.137
887.625
901.747
798.353
817.861
896.011
560.403
570.373
595.542
631.093
547.695
584.24
610.099
364.33
285.471
235.398
479.051
399.366
327.498
279.677
316.832
234.574
231.222
384.941
365.422
275.499
271.522
303.893
227.528
223.775
362.651
357.332
271.916
277.092
1494.01
1687.98
1457.65
1933.76
1669.03
1916.08
1630.28
1243.71
1405.31
1264.96
1586.85
1341.23
1558.94
1363.11
958.922
1215.9
1058.1
1256.9
995.419
1298.25
1100.73
816.589
789.179
913.77
906.566
817.836
718.385
934.14
369.094
403.714
495.108
359.582
432.539
302.807
436.137
258.797
621.618
616.522
341.369
316.992
748.868
654.081
250.669
580.609
434.679
312.186
282.475
604.653
448.772
213.847
379.554
259.455
273.842
267.786
398.476
306.594
1425.05
1550.96
1341.18
1918.62
1599.91
1807.13
1522.69
1263.47
1316.52
1244.98
1534.08
1365.08
1478.1
1349.48
1091.08
1199
1107.76
1308.62
1138.7
1287.23
1171.5
893.385
1094.12
1059.99
1084.86
941.763
1157.45
1124
743.539
1044.17
991.362
907.737
885.827
1109.38
1105.12
747.639
990.715
974.263
886.827
790.137
1112.28
1044.69
515.065
942.146
721.433
726.748
515.895
974.421
667.709
279.041
595.47
339.171
449.112
324.098
562.365
379.72
1836.37
2145.57
1800.52
2455.68
1971.82
2407.46
1948.16
1387.4
1699.63
1392.92
1822.49
1471.9
1815.04
1438.82
1024.96
1289.62
998.058
1367.03
1098.31
1322.76
1020.76
799.561
914.798
726.638
1028.51
891.097
940.78
759.043
663.404
678.515
556.53
853.622
757.402
712.036
601.327
582.587
523.316
455.407
733.428
691.433
576.065
542.898
542.199
443.181
424.464
681.639
657.808
541.531
540.015
521.78
420.562
405.958
651.144
633.986
537.828
523.149
1785.04
2049.59
1729.63
2373.58
1932.84
2227.6
1865.89
1395.7
1638.56
1366.51
1808.08
1440.65
1756.55
1424.56
994.497
1272.06
986.084
1321.83
1004.24
1310.72
987.425
707.65
904.936
594.142
919.59
724.896
896.528
659.519
522.922
517.623
387.901
673.763
551.899
592.075
445.824
413.216
356.387
301.05
524.025
492.143
414.484
386.279
388.039
296.085
295.189
494.694
505.429
394.908
429.036
380.762
297.314
302.51
505.802
498.951
435.346
438.526
1711.15
1980.25
1674.47
2184.46
1848.36
2196.97
1824.14
1360.41
1596.7
1383.89
1742.36
1424.41
1725.18
1460.77
996.938
1314.7
1106.44
1315.34
1001.24
1377.87
1130.99
605.189
1041.39
862.174
914.865
670.539
1058.29
890.826
399.812
819.826
776.201
601.909
463.429
854.849
784.138
336.575
762.716
652.248
436.505
409.071
755.683
649.991
303.07
602.869
454.395
413.259
430.408
616.749
523.837
294.113
409.078
329.845
433.321
433.899
500.195
459.416
1644.86
1889.32
1564.61
2215.4
1795.41
2157.03
1681.79
1385.97
1513.04
1366.42
1700.7
1462.27
1605.64
1420.86
1146.34
1301.19
1184.12
1390.9
1181.15
1356.6
1233.14
953.836
1170.06
1133.75
1119.59
987.55
1210.59
1145.29
908.309
1119.13
1122.45
962.74
914.982
1129.56
1106.89
782.202
1126.77
1027.08
887.502
748.334
1085.03
908.525
515.338
947.494
645.411
697.678
562.654
835.487
632.464
346.071
554
397.329
528.903
471.22
581.862
498.842
2042.96
2535.06
2032.3
3185.14
2490.46
3139.8
2520.98
1533.62
1888.07
1488.43
2331.84
1971.82
2357.55
1923.48
1152.92
1367.89
1056.65
1869.4
1568.26
1796.07
1455
948.231
974.676
789.696
1511.43
1390.85
1365.03
1175.37
814.536
742.916
637.477
1366.42
1259.59
1130.05
1045.19
752.571
616.133
600.341
1242.67
1211.58
1040.86
1103.93
719.413
603.243
606.079
1210.28
1174.95
1112.72
1112.72
691.258
604.012
585.661
1171.01
1122.59
1109.12
1072.33
2018.55
2316.11
1948.15
3040.54
2512.34
2827.7
2435.22
1489.61
1832.67
1476.85
2360.24
1925.17
2311.58
1916.42
1032.9
1353.41
1006.37
1784.06
1413.33
1768.27
1362.24
746.051
910.358
674.415
1315.32
1101.17
1246.46
986.112
579.228
608.861
465.702
1051.01
956.58
921.257
787.144
546.04
439.14
436.33
953.834
1043.31
783.953
911.809
573.693
457.657
506.15
1075.56
1090.94
979.229
1045.26
562.188
512.454
508.747
1089.66
1048.82
1047.15
1002.88
1930.63
2302.27
1911.37
2793.75
2414.75
2845.09
2403.47
1478.97
1805.34
1523.53
2297.23
1924.16
2287.87
1989.33
1020.93
1434.26
1165.49
1781.61
1380.55
1886.76
1564.65
686.655
1087.24
913.887
1265.12
1003.78
1472.18
1272.84
483.032
875.951
789.721
936.895
797.264
1222.17
1079.52
454.347
759.193
673.8
792.223
914.232
1051.63
1074.17
506.509
650.634
581.929
980.074
1043.37
1090.49
1075.85
505.175
564.423
527.907
1045.43
1005.65
1069.43
1018.14
1881.17
2271.05
1742.62
2852.06
2367.03
2826.89
2180.91
1524.93
1656.98
1469.63
2253.89
1988.09
2064.24
1877.66
1222.55
1409.93
1279.81
1913.64
1636.61
1845.46
1695.57
1017.01
1250.31
1171.45
1556.51
1392.16
1625.63
1536.28
919.846
1154.26
1107.2
1349.37
1209.19
1516.66
1382.77
762.758
1072.26
889.914
1171.94
1146.38
1321.08
1180.32
613.548
827.491
663.622
1133.41
1090.67
1157.84
1083.4
538.764
624.711
555.032
1081.17
1037.01
1064.47
995.773
731.083
732.426
650.373
683.15
717.152
744.504
665.668
810.216
878.963
771.711
891.354
794.782
892.757
704.107
711.47
623.37
641.698
441.282
700.493
632.777
543.302
815.151
905.564
827.994
901.109
823.825
899.966
818.784
740.612
694.005
760.494
682.894
753.685
676.037
746.813
812.283
896.404
899.904
776.891
898.559
697.112
813.635
718.06
427.467
650.027
631.092
639.654
532.724
726.427
514.208
528.398
461.474
500.353
503.679
540.997
470.312
516.353
562.353
398.19
374.431
511.035
569.622
324.087
462.014
418.033
351.747
288.399
460.331
418.908
293.977
568.846
642.001
601.969
626.204
594.466
619.797
574.49
521.33
509.235
557.733
481.838
550.469
476.632
526.581
520.127
360.635
584.925
388.006
575.193
313.889
528.283
467.928
293.663
433.254
367.941
424.201
291.17
477.789
660.423
654.047
580.427
438.803
695.003
556.818
528.276
897.67
955.187
943.385
1019.16
882.862
972.78
958.158
802.523
691.688
877.401
819.818
792.083
701.419
891.542
831.263
919.808
829.022
954.072
734.789
947.334
859.031
665.01
410.255
668.693
602.126
545.241
529.147
723.126
909.185
1030.5
990.023
974.986
984.275
968.414
916.907
814.543
835.622
740.248
911.285
717.474
902.629
828.615
319.05
349.765
324.54
247.996
372.784
246.554
315.075
553.269
605.614
671.247
754.786
539.853
617.165
704.095
515.703
454.804
630.715
672.52
486.357
503.313
676.354
382.204
329.146
399.994
517.779
283.004
437.806
466.405
370.565
281.514
372.308
439.606
261.815
377.755
445.601
589.035
778.925
672.094
770.089
640.183
738.816
628.876
565.814
721.201
599.641
758.932
559.769
722.394
608.941
351.064
478.475
352.843
689.988
663.413
713.197
683.494
240.043
278.903
235.496
598.079
503.894
652.406
599.92
174.499
207.073
186.513
485.148
466.735
559.27
529.148
134.285
156.398
131.089
401.25
341.368
438.794
358.24
116.339
119.16
116.934
333.477
331.329
326.683
319.507
119.328
115.39
111.365
323.421
310.621
308.769
295.034
109.893
106.019
101.933
301.637
294.652
280.712
270.519
97.7407
99.4667
84.1454
279.185
296.961
261.119
274.976
547.943
579.15
451.618
1073.88
949.577
1056.29
914.178
425.746
320.999
356.155
505.707
449.316
489.176
277.862
297.124
127.041
127.387
293.902
294.049
290.182
114.876
361.482
128.805
123.69
298.878
296.751
352.93
127.826
358.148
115.168
130.059
279.563
267.585
365.518
128.316
233.93
76.5029
96.9024
208.202
200.092
263.231
85.4851
200.346
73.1046
75.7938
194.5
192.725
207.127
74.533
169.661
65.3006
67.3992
173.446
168.622
177.006
64.5669
152.627
59.0045
59.2094
156.204
154.193
155.741
57.7273
84.6057
90.0608
70.1929
220.156
231.822
197.748
205.128
416.943
546.456
415.146
1042.76
923.325
1070.37
978.292
365.744
193.019
248.673
378.106
340.447
386.232
190.425
454.482
151.585
150.201
377.603
425.966
413.865
160.38
504.28
186.15
192.394
493.456
492.796
506.999
192.195
399.277
164.002
174.075
460.665
425.259
452.336
156.22
206.418
83.0379
81.2988
249.666
224.162
218.876
76.0013
173.255
71.2634
70.9105
197.005
186.766
185.839
66.5004
131.658
56.174
54.2484
153.557
144.69
139.496
51.3509
117.674
49.6225
47.0237
129.468
127.646
119.128
46.4102
65.3189
67.7623
52.2337
170.424
181.607
143.05
148.886
371.461
432.208
351.757
936.964
874.654
904.053
865.476
382.675
163.083
201.559
382.584
393.227
370.272
155.829
519.922
187.486
176.01
489.258
511.293
497.054
190.847
520.009
199.119
203.244
522.522
513.159
529.82
201.568
420.496
148.608
180.975
440.471
374.547
459.982
167.187
150.604
60.0766
73.4115
169.451
157.375
178.555
60.5131
153.594
55.1872
58.0872
156.396
147.064
157.734
56.5672
142.01
48.7842
54.6112
127.592
125.446
142.615
54.8132
108.327
39.307
48.3146
106.275
99.3776
120.468
42.4333
44.7074
60.3912
42.3301
121.517
128.331
125.316
128.36
320.813
310.568
312.909
800.052
942.219
699.671
676.634
377.023
168.712
191.081
416.852
437.477
365.034
159.675
431.191
190.17
150.198
495.568
509.857
420.501
153.94
496.33
206.978
175.348
533.127
534.74
480.862
183.836
519.52
202.934
201.619
524.944
516.231
520.653
202.504
465.041
160.798
200.353
456.068
365.651
497.982
191.427
198.26
75.4
79.4459
171.928
208.101
185.83
78.4334
323.577
115.534
126.026
296.749
291.277
319.71
126.348
178.506
62.4248
77.0282
181.996
162.626
203.644
67.0872
44.4524
74.0528
54.458
144.304
140.577
163.589
163.855
222.948
299.807
229.6
552.056
574.62
566.778
645.9
215.744
221.423
210.585
624.151
639.765
632.985
515.285
244.887
188.664
183.805
641.891
656.081
476.01
498.846
266.274
184.924
179.042
672.091
681.967
534.469
527.348
279.945
179.568
182.973
681.953
658.378
530.462
533.576
228.977
186.258
178.962
596.423