/*--------------------------------*- C++ -*----------------------------------*\
  =========                 |
  \\      /  F ield         | OpenFOAM: The Open Source CFD Toolbox
   \\    /   O peration     | Website:  https://openfoam.org
    \\  /    A nd           | Version:  10
     \\/     M anipulation  |
\*---------------------------------------------------------------------------*/
FoamFile
{
    format      ascii;
    class       volScalarField;
    location    "8.6";
    object      nut;
}
// * * * * * * * * * * * * * * * * * * * * * * * * * * * * * * * * * * * * * //

dimensions      [0 2 -1 0 0 0 0];

internalField   nonuniform List<scalar> 
12920
(
9.49291
14.3253
11.0582
7.77011
3.33769
3.09707
2.49821
2.4165
1.85892
2.00292
1.84778
1.86329
1.63698
1.47583
1.20891
0.994153
0.801124
0.711507
0.700189
0.660334
8.5843
12.5176
8.97395
7.94179
4.76592
6.07416
4.60625
4.57169
2.95697
2.86966
2.3247
2.2752
1.96479
1.87006
1.74925
1.88825
1.95886
2.08912
2.12525
2.07407
16.3385
17.9584
7.4838
5.97298
5.56373
5.40609
4.82728
4.17899
3.65913
3.35254
2.87798
2.83479
2.4711
2.60431
2.61884
2.86699
2.94041
2.97304
2.93682
2.78435
5.37822
12.4373
9.42162
7.33976
5.47425
5.42311
4.77683
4.27434
3.80534
3.52643
3.32295
3.20739
3.14054
3.11835
3.10147
3.08121
3.05034
3.00606
2.96581
2.84431
7.45111
15.4693
11.405
8.61204
6.80797
5.87367
5.0051
4.41431
3.84991
3.60274
3.43066
3.36949
3.30733
3.26884
3.22085
3.17085
3.1256
3.05667
3.01023
2.89667
1.29444
8.37776
9.1815
9.11433
7.67427
6.31812
5.13447
4.35398
3.77341
3.52663
3.37216
3.299
3.22769
3.19101
3.14562
3.09789
3.05223
2.98592
2.94869
2.85612
1.53992
2.77369
4.20122
8.57273
7.60949
6.13467
4.9019
4.18876
3.80503
3.56962
3.39416
3.27065
3.16277
3.09182
3.01712
2.95829
2.89947
2.84263
2.81302
2.73291
3.28746
10.9951
10.577
9.07108
7.47395
6.3902
2.1878
1.80724
1.29653
1.34305
1.23753
1.21768
1.20887
1.16837
2.9059
2.76371
2.67387
2.61871
2.58488
2.48025
4.98354
5.7154
9.50839
8.63359
7.39112
2.80298
0.871483
0.524199
0.415399
0.429033
0.402061
0.482408
0.464412
0.436975
1.11552
2.54064
2.40821
2.32564
2.25793
2.13513
4.95554
4.09024
9.00123
8.38344
7.1948
2.608
0.888834
0.580096
0.714503
0.557545
0.412672
0.483172
0.432858
0.398705
1.00042
2.21742
2.07439
1.99161
1.94262
1.94151
4.46491
3.97302
8.86041
7.55491
6.48859
2.45486
0.812828
0.736947
0.794455
0.704727
0.31219
0.429346
0.393849
0.364733
0.856876
1.98478
1.92259
1.90653
1.90757
1.93522
1.08375
8.67043
8.24685
4.57643
5.39156
1.97269
0.784502
0.7521
0.802483
0.714079
0.54577
0.220134
0.561426
0.466831
0.931448
2.11784
2.05344
1.99633
1.94827
1.92537
6.98199
13.3794
10.9828
7.90037
6.11956
5.24668
1.94326
1.63695
1.6737
1.8097
1.6313
1.21987
0.903953
0.817682
2.31347
2.13478
2.03904
1.98332
1.96619
1.93556
20.7952
17.7797
13.0414
8.89718
6.26143
5.13128
4.34898
3.70774
3.28603
2.95199
2.96987
2.88403
2.61197
2.41174
2.30491
2.24591
2.21942
2.1972
2.18229
2.09584
18.4467
17.6362
15.1949
12.0521
8.39972
6.11732
4.77705
4.07412
3.39397
3.04531
2.86214
2.78825
2.71945
2.72857
2.76902
2.78481
2.7766
2.71996
2.67005
2.49258
11.5527
13.3348
12.1406
8.92412
6.6614
5.40643
4.47167
3.76208
3.28317
3.10098
2.99671
2.98621
2.98858
3.01998
3.04988
3.05278
3.0432
2.99818
2.94082
2.74316
5.70557
8.26659
9.37963
8.15045
6.58784
5.27505
4.16977
3.45915
3.09236
2.983
2.93792
2.93305
2.92964
2.92837
2.9206
2.88011
2.83187
2.74787
2.68252
2.45611
17.7199
15.0302
8.72623
7.7129
5.49599
4.79789
3.94066
3.49942
3.16295
2.98393
2.81542
2.73429
2.65672
2.60405
2.54184
2.46868
2.27225
2.14483
2.06755
2.0403
8.59767
10.8953
9.67509
7.6995
6.40218
5.49229
4.65333
4.21342
3.83257
3.58139
3.25172
3.0449
2.84547
2.74341
2.639
2.56546
2.2558
1.97715
1.69042
1.47434
5.41325
6.47051
7.02387
7.01265
5.74636
4.86649
3.40306
3.6835
2.38119
2.25375
1.62404
1.43488
1.15078
1.02132
0.858317
0.75415
0.668521
0.656269
0.665398
0.623609
42.1626
22.1085
15.1747
8.2854
6.7458
8.89644
9.48744
12.1327
11.4184
12.0436
10.1627
9.12241
7.62546
6.59881
5.60347
4.87939
4.24946
3.75828
3.57314
3.18547
26.054
33.5905
18.1748
15.8194
15.267
19.4509
18.0102
17.1557
15.1907
15.5369
14.3264
13.7119
12.7537
12.6353
13.059
14.1956
15.1785
15.4821
15.7388
15.4843
16.1861
38.2509
24.12
16.7254
18.6657
23.2322
23.4986
21.9171
18.4852
17.2165
15.454
15.1571
15.0946
15.7611
16.6342
17.409
17.6725
17.5473
17.2133
16.2849
14.3643
48.1754
39.7587
22.9318
16.7121
21.9886
24.3111
23.6167
21.1949
20.0841
18.4198
18.0912
17.7857
17.9653
17.9883
18.1254
17.9431
17.7839
17.4143
16.5456
18.514
60.6348
54.6532
34.5773
20.8604
22.1339
20.0754
20.8235
18.0954
18.8666
18.5982
19.2955
19.0961
19.1658
18.9188
18.6978
18.3525
18.0241
17.6501
16.8537
20.8492
37.2486
47.8406
43.0968
29.0551
25.5935
18.4446
17.4503
15.8344
17.1671
18.0403
19.166
19.1563
18.9744
18.6186
18.2944
17.9072
17.5428
17.2516
16.5615
26.7688
26.8906
35.086
41.8707
30.7718
24.6856
18.1072
16.5811
16.5935
17.3448
17.9663
18.4585
18.2485
17.9804
17.5691
17.2369
16.8546
16.5775
16.3224
15.6053
7.78384
39.9769
46.1791
42.8008
31.5928
26.0263
17.5979
15.3024
14.5322
13.6052
14.312
15.3269
15.2491
14.6595
16.1218
15.4991
15.1345
14.9395
14.6918
13.9314
21.0789
31.3763
44.385
41.8884
32.9149
23.9227
16.6121
14.3054
14.8754
13.5585
11.4546
13.0574
13.0016
12.5579
12.9473
13.4154
12.9243
12.7311
12.4144
12.0734
5.33845
28.4333
42.8887
40.1095
33.8088
24.0219
16.3071
16.4509
19.2268
16.1685
10.9369
12.094
10.6302
10.0594
10.4134
10.8868
10.7041
10.8722
11.0432
11.4275
7.41303
42.1371
47.5262
34.5777
29.4867
23.7534
18.7537
20.7052
21.6446
17.5418
9.8989
8.74284
6.81565
6.90632
7.19265
9.34079
9.87898
10.5043
10.786
11.3054
11.0437
53.8123
41.9743
28.4004
27.1042
22.0303
18.9552
19.5848
20.6873
20.3069
15.9852
9.80847
12.7727
8.39049
8.34502
10.6741
10.7531
10.7092
10.6162
10.7926
41.7799
51.6758
49.1452
37.5198
27.9397
25.3985
18.1486
18.2804
18.194
18.8055
18.7018
16.7074
12.9365
7.99952
11.0878
11.0268
10.9024
11.107
11.1917
11.1953
57.3133
60.5264
53.3622
39.9089
26.5328
23.7559
20.0278
17.0327
15.8446
14.0288
13.2905
12.0762
11.5541
12.7402
12.8918
12.768
12.638
12.4759
12.2938
11.7053
81.6865
69.5652
50.9656
37.4019
24.442
22.9141
17.8821
17.885
15.3315
15.6514
15.28
15.2565
15.2552
15.6582
15.7243
15.2862
14.8267
14.3312
13.9213
12.825
36.9444
50.0279
50.8806
36.5436
22.8148
19.8232
15.4798
16.185
15.6603
16.3845
16.3861
16.7889
16.8041
16.7893
16.5898
16.2443
15.8442
15.3945
14.9329
13.6445
28.4326
34.6931
40.886
35.0339
28.3741
21.2065
15.161
15.0417
14.4866
15.2026
15.0419
15.3028
15.1274
15.3011
15.246
14.9988
14.6587
14.0631
13.5434
12.4838
32.1672
50.4802
44.4751
31.0089
19.0194
15.6264
13.7547
15.5185
15.0803
15.4313
14.3896
14.3689
13.5302
13.4535
13.0163
12.7134
12.2264
11.8911
11.6562
11.46
18.5487
36.6442
39.4982
28.378
15.766
14.2643
13.9071
16.8087
17.7277
17.3813
16.1442
15.6077
14.7932
14.5531
13.9908
13.6413
13.1722
12.6457
11.2276
9.86262
2.40477
27.1767
26.6229
23.2724
19.9653
17.5816
15.5608
14.0055
12.5379
11.3971
10.3671
9.64305
8.47548
7.26199
5.80669
5.03246
4.48154
4.2869
4.28108
4.09497
19.5212
35.4834
22.1567
22.5409
18.2681
15.7502
14.1933
13.7237
13.2501
12.6686
11.9085
11.086
9.57969
8.18678
6.9436
5.91018
5.19094
4.91117
5.13882
5.68543
28.9697
48.3081
31.9313
28.9255
28.4717
31.5144
28.1072
28.4032
26.6515
26.103
24.2945
23.4303
22.4212
22.2421
22.1815
22.3481
22.3489
22.4113
22.4846
22.2048
27.5186
55.7288
46.0998
34.8683
37.0691
38.6687
36.4987
34.5069
31.3225
29.5902
27.7172
27.1856
26.7232
26.9855
27.0382
26.9724
26.6078
26.1346
25.6211
24.4935
63.2417
56.9437
52.2535
40.9051
36.323
39.9239
38.6868
36.8546
34.2594
32.5636
30.9163
30.1456
29.4775
29.1037
28.6374
28.2312
27.6567
27.0741
26.4482
25.2919
81.1804
66.1936
62.6398
49.9543
38.451
39.287
35.0109
34.8374
32.5819
32.5036
31.6668
31.3255
30.6272
30.08
29.4142
28.7887
28.1184
27.4278
26.7909
25.6861
62.7238
63.4186
67.1525
58.1168
42.7363
38.3451
32.4431
32.3214
31.1566
31.7175
31.4266
31.1985
30.4325
29.7484
28.9891
28.2887
27.6012
26.8904
26.3533
25.2499
47.727
54.1455
60.9795
58.9212
43.9202
37.581
33.0213
31.9033
31.0415
30.8342
30.0253
29.5503
28.6081
27.9847
27.2256
26.5943
25.9666
25.3726
24.8922
23.8137
9.77975
53.2927
61.4402
59.0618
47.1097
39.6981
33.3638
30.3818
28.6256
26.5006
26.4168
25.771
25.0141
24.0288
23.4479
23.2601
22.995
22.6543
22.2372
21.3709
18.21
48.6584
56.0909
58.8001
49.9181
41.0765
33.5185
30.5297
27.9784
23.9949
22.344
22.1867
20.9757
20.0905
19.2649
18.5609
18.8893
19.0094
18.884
18.864
8.35422
49.6006
60.1371
57.2237
50.4988
42.2151
34.7193
32.3529
30.5002
24.1099
20.1507
18.4845
15.4995
14.9942
14.6458
14.5289
15.3408
16.109
16.5823
17.5421
32.3403
66.3609
65.6352
53.2189
47.4779
41.7796
37.1611
35.3545
32.4467
26.4543
7.3183
4.41755
7.47828
8.87327
10.1174
12.7744
14.3293
15.5912
16.2383
17.3405
20.7676
70.2474
62.4932
49.9357
44.7932
38.8945
35.1913
33.0048
31.7689
28.9733
21.8986
17.0398
17.2341
12.0529
12.6422
14.5653
15.5594
16.1931
16.4849
17.005
37.8908
65.8077
65.8523
55.3119
45.558
39.9031
34.3541
30.7294
27.909
26.9973
25.4355
23.3099
18.583
12.9602
16.2716
16.6418
16.8544
17.0703
17.0854
17.0604
86.6815
76.1279
67.4043
56.8195
43.5901
37.6558
32.5117
28.4341
24.6815
21.9694
20.1331
18.9728
19.1254
19.723
19.4304
19.2129
18.8639
18.45
18.0084
17.2341
89.1998
81.4319
68.7991
56.978
42.3249
37.0777
30.8341
29.9621
26.6158
26.4258
24.6708
24.2925
23.704
23.5512
22.9466
21.9577
21.1411
20.1899
19.4942
18.0317
77.7799
72.0411
69.291
54.3622
39.8939
34.0498
29.4675
28.8576
27.8946
27.5787
26.9519
26.583
25.7375
25.1605
24.22
23.3144
22.4549
21.4511
20.6881
18.9536
71.6539
60.1157
60.6778
54.2645
46.0476
36.4322
29.4586
28.0036
26.7813
26.6412
25.8288
25.4743
24.6071
24.1307
23.2466
22.4487
21.6267
20.7344
20.0328
18.6701
16.751
39.0807
65.0705
51.6173
37.3039
31.2904
28.2295
28.2068
26.508
25.7932
24.2799
23.6681
22.527
22.0557
21.1719
20.5582
19.8181
19.2813
18.9141
18.3798
25.0249
30.9669
53.6318
39.4229
28.8937
27.8951
26.5732
27.4495
25.8315
24.7054
22.8743
21.9481
20.7863
20.301
19.6123
19.2534
18.7386
18.2465
17.3175
16.4534
5.62352
16.0788
27.6614
23.9681
20.9072
18.822
16.8508
15.0446
13.3353
11.9438
10.7945
9.90929
8.6991
7.30455
6.26599
5.76648
5.59472
5.83199
6.49609
7.2008
30.2175
33.5348
25.3036
20.973
17.4961
15.3741
14.405
13.9776
13.3228
12.0443
11.0103
8.83797
7.81328
6.38297
5.76097
5.14627
5.09666
5.45863
6.06382
6.74958
46.6446
58.0199
43.2342
37.023
34.7926
34.9046
32.5745
32.48
30.8772
29.8434
28.24
27.0862
25.9953
25.3262
24.7794
24.409
24.1953
24.1167
24.086
23.5995
37.6564
63.089
60.8105
49.3819
48.5237
46.1809
42.3072
39.3902
36.6289
34.6242
33.0516
32.036
31.3234
30.694
30.0927
29.4375
28.8309
28.2052
27.6509
26.7064
56.2741
54.5917
64.9089
56.9553
51.3875
49.3986
45.1983
42.1359
39.3904
37.2278
35.6338
34.4257
33.5103
32.615
31.8345
31.0213
30.2627
29.4723
28.7621
27.6657
51.4415
79.2243
70.559
62.053
51.8465
49.1199
44.0873
42.2901
39.8506
38.2362
36.7086
35.4605
34.4117
33.3843
32.4793
31.5826
30.7627
29.8876
29.1639
28.02
80.551
77.5976
74.8031
65.9957
52.559
47.1533
42.8217
41.3849
39.4497
38.0372
36.512
35.2225
33.9957
32.9821
32.013
31.1139
30.2795
29.3807
28.687
27.5525
36.1164
70.1095
75.3184
66.726
52.9185
47.043
43.4107
41.2076
38.3062
36.6319
34.1695
32.9705
31.4688
30.6471
29.8253
29.1321
28.4156
27.6364
26.9946
25.9695
25.7055
63.1532
73.7437
67.3272
56.431
48.9403
44.1826
40.5533
36.5853
32.865
30.5875
28.3567
26.9885
25.822
23.8565
24.7041
24.7736
24.4098
23.9612
23.3455
37.4125
62.1848
67.9344
67.3665
59.0537
51.0613
42.8998
39.4033
34.3038
28.7054
25.756
22.9139
21.0214
19.915
18.1878
18.4092
19.8496
20.3314
20.4738
20.5873
25.4606
46.4276
67.0566
65.6469
58.9591
51.4715
45.3823
39.0451
33.0173
26.433
22.1434
17.8546
14.6423
13.9351
13.1794
14.5251
16.2661
17.3978
18.0425
19.1336
43.6724
69.9724
72.3588
63.8389
56.6824
50.8218
45.9107
39.5134
32.9787
26.4299
10.323
9.77464
10.0073
9.79547
10.4654
13.4208
15.6286
17.0773
17.8549
18.9802
61.3082
74.3058
70.0843
60.7308
52.7777
47.397
43.6376
37.8117
33.0387
28.3547
22.7456
20.3142
17.3212
14.119
12.1429
14.8966
16.7233
17.7358
18.1389
18.7052
43.9001
78.4327
75.9893
65.2026
54.9489
47.2569
41.7609
35.3706
30.4296
27.8881
25.741
23.2138
18.9532
16.6055
16.5631
17.8426
18.3651
18.4718
18.4181
18.3777
43.8029
84.9832
80.0668
66.2497
52.8458
45.047
38.2306
34.2668
28.7895
26.2875
23.9447
22.9374
21.8536
21.4902
20.9177
20.622
20.1561
19.557
19.0184
18.4052
84.3997
90.1717
80.8063
67.544
52.6737
45.236
38.5347
36.4071
32.4792
31.5887
28.8169
27.8536
26.4577
25.638
24.5812
23.4263
22.425
21.3422
20.3828
19.1691
90.3517
84.7308
79.7499
64.7647
50.8411
43.027
38.0765
35.8614
33.9813
32.6807
31.2997
30.0729
28.8552
27.619
26.3907
25.1008
23.9754
22.8091
21.7539
20.2547
81.0696
73.9122
72.8601
65.6553
54.9924
44.1641
37.2853
34.7504
32.8265
31.8623
30.4736
29.4182
28.1994
27.0483
25.8888
24.7489
23.7191
22.6979
21.8125
20.5797
5.27419
33.5459
50.0534
63.4325
48.6759
40.7416
36.2405
34.16
31.34
29.8014
28.0081
26.9518
25.7568
24.9378
24.012
23.1926
22.4664
21.8009
21.2888
20.5664
23.2836
36.8188
56.8803
45.3546
38.0451
35.2649
32.3862
31.2966
28.2415
26.2489
24.062
22.9446
21.9053
21.4832
21.024
20.6945
20.2845
19.8432
19.328
18.619
14.4785
22.4363
26.8684
24.8174
21.1482
18.4789
16.4644
14.484
12.7947
10.3549
9.16715
6.99781
6.31686
5.42146
5.24623
5.10178
5.33939
5.95614
6.84645
7.63195
21.1346
26.8161
16.6698
18.4793
9.56781
14.6938
8.89019
13.6267
9.08651
11.6489
9.56772
9.62832
8.80747
8.25993
7.93018
7.73165
7.64384
7.61524
7.65445
7.66353
46.4933
58.7027
41.0709
35.4032
31.1253
33.3184
29.8989
30.435
27.6548
27.0022
24.9434
23.7167
22.5636
21.7697
21.3063
20.9131
20.6738
20.4105
20.1639
19.8565
36.2673
50.9655
62.2964
37.1967
48.3349
44.4507
39.1525
37.5035
33.6523
32.8055
30.5536
29.7149
28.4383
27.5348
26.7243
25.9293
25.3256
24.6779
24.1089
23.4957
35.9156
63.7513
68.7615
63.32
53.5715
50.0225
42.5072
40.4224
36.2672
35.1376
32.6336
31.7562
30.3507
29.3783
28.4135
27.4631
26.6843
25.868
25.1825
24.4067
28.2726
86.2728
74.406
59.5014
52.9586
38.2342
43.6351
42.3169
37.9109
36.4049
33.7498
32.6012
31.1194
30.0503
29.0028
28.0405
27.2048
26.343
25.6367
24.7875
89.1029
86.1367
80.5468
59.4159
54.3258
33.5703
44.0881
42.2648
38.3436
35.9759
33.5527
32.0992
30.6934
29.64
28.596
27.6511
26.8004
25.9158
25.212
24.4028
46.7187
70.4517
79.2813
41.0831
53.6314
31.0318
45.2725
31.6027
37.3439
33.7207
31.361
29.9447
28.3005
27.4385
26.5535
25.8477
25.0952
24.3016
23.6342
22.9387
50.4624
71.9997
78.996
57.589
57.5582
31.1054
46.4722
42.4465
35.8086
31.3585
27.2592
25.1574
23.5267
22.6847
21.3224
21.9741
21.8544
21.3652
20.9332
20.5995
73.5897
46.3456
74.7213
35.0614
60.1427
52.9496
45.9695
38.7465
30.8942
24.7529
20.8685
18.2346
17.0419
16.3376
15.6366
16.9275
17.8798
18.0652
18.2185
18.4383
63.4321
63.1602
71.3619
45.343
60.3131
52.876
45.3802
35.2721
27.2674
20.664
15.842
12.4031
11.8268
12.1498
12.2765
14.3974
15.5527
16.2036
16.7841
17.5318
60.4007
68.62
75.5163
27.9162
56.8608
51.3636
44.1931
33.8907
26.2291
19.944
13.6713
10.1822
9.63595
10.3355
11.1681
14.0168
15.303
16.096
16.6845
17.3983
80.4307
85.7516
75.9382
29.7947
52.676
46.0624
41.6779
33.0133
26.9709
22.2519
19.1833
17.2538
14.4965
12.0231
11.8128
14.5991
15.7702
16.255
16.5838
17.023
60.4007
90.3707
80.352
39.4907
53.8577
28.6906
39.9618
33.7782
27.6531
25.4813
23.2318
21.0514
17.244
14.5799
15.3429
16.2432
16.463
16.3871
16.4117
16.4519
80.506
90.6192
85.8985
35.6394
51.8962
19.9913
37.1051
16.775
24.6995
14.7147
20.3123
15.3798
20.2062
19.1277
18.6337
18.0533
17.5061
16.8669
16.459
16.1953
46.8632
81.7838
84.8222
48.6608
51.9835
28.4932
37.8266
29.213
31.7142
24.5751
27.364
24.3349
24.1031
22.9151
21.7142
20.4952
19.4051
18.2286
17.3275
16.5715
44.4811
80.486
84.6676
46.0712
51.0205
23.7189
37.4009
24.2116
32.4117
26.6504
29.0265
27.879
26.1006
24.8257
23.4572
21.9987
20.8379
19.4895
18.4606
17.4324
53.9955
83.9267
80.6435
56.3852
53.9667
29.5528
35.8433
31.1592
30.8845
30.1465
28.0185
26.9578
25.4446
24.1722
23.0365
21.6904
20.7506
19.6248
18.7973
17.9207
30.0057
66.5463
54.3108
64.4093
49.6484
30.1074
35.2283
31.3562
28.822
27.3881
25.3509
24.4456
23.1643
22.3596
21.4695
20.5875
19.97
19.1585
18.6788
18.152
29.7345
23.0114
43.0215
19.7172
38.3871
26.1115
31.149
29.4053
25.142
22.6458
20.7861
19.8695
19.0757
18.6855
18.1849
17.7433
17.3753
16.9437
16.7268
16.4267
5.93496
10.9785
10.7334
23.8958
13.2205
17.1229
12.2543
12.7728
10.2676
9.79835
8.80428
8.33514
7.94648
7.59096
7.43417
7.24794
7.21144
7.21337
7.35841
6.63829
20.2897
24.7504
6.98868
26.6301
23.323
25.614
5.47671
19.2401
6.04677
5.70831
22.5505
19.6994
4.90843
7.02317
8.44523
28.3633
20.743
27.1849
7.19266
28.6835
21.3247
4.91656
17.8231
13.2635
6.25733
7.00484
19.0382
17.1849
0.675052
0.817569
0.448936
9.97694
9.26731
10.0101
9.8037
0.458743
0.467756
0.604741
9.7343
10.8157
10.7353
13.8204
0.475263
0.597537
0.541714
10.9433
10.8298
14.2428
13.6651
0.471568
0.51918
0.428276
10.4143
8.51059
12.9463
9.0095
0.479005
0.389839
0.475274
8.3868
9.46572
8.25266
9.20802
0.472277
0.488251
0.459413
9.84528
10.045
9.4972
9.21265
0.440951
0.446165
0.416746
9.95715
9.71271
8.98617
8.58455
0.391176
0.411064
0.369078
9.63265
10.0062
8.5215
8.78865
0.541919
0.868721
0.70873
10.5111
11.0269
12.5623
13.8855
0.735058
0.72478
0.789494
12.0463
14.9363
14.8304
16.8558
0.591952
0.791535
0.760989
15.2517
14.1386
16.8846
14.9984
0.437224
0.688902
0.368641
13.1973
8.85087
13.6621
8.36208
0.489101
0.342343
0.446807
8.28894
9.31162
7.92159
8.22642
0.446738
0.437164
0.393119
9.37264
8.68511
7.85072
6.46356
0.404078
0.385608
0.366182
8.41586
7.99355
6.21845
6.01222
0.364951
0.358551
0.313873
7.93954
8.37777
5.95612
6.09785
0.708901
0.797869
0.740074
12.7839
14.9109
13.1529
15.4475
0.794417
0.76894
0.816715
15.8438
17.2871
16.1523
17.1119
0.764734
0.818807
0.774098
17.1884
15.3337
17.1475
16.5392
0.349837
0.717546
0.570836
14.0915
8.39109
16.0323
13.0319
0.401821
0.450429
0.234657
7.54653
7.87276
10.4849
6.58741
0.397365
0.270662
0.526472
7.55551
6.19016
7.67344
9.23294
0.377382
0.530725
0.466751
6.02845
5.84593
9.32617
7.26091
0.310654
0.449749
0.27108
5.74938
5.8201
6.48473
6.05459
0.732167
0.853593
0.595458
13.7482
14.7452
9.98168
11.1487
0.79614
0.59022
0.627992
15.2141
16.1985
11.7996
13.5859
0.749314
0.655608
0.644797
16.3995
16.501
13.9991
15.3007
0.60769
0.72206
0.576554
16.3168
14.591
15.6141
15.9531
0.205376
0.602024
0.440704
13.1529
6.78033
15.9002
13.3662
0.460489
0.390584
0.196525
7.17215
10.6729
12.0326
11.3625
0.50213
0.221149
0.227742
10.8554
8.08881
11.5675
8.9346
0.26821
0.241127
0.226685
6.9873
6.2062
7.27399
6.6824
13.8339
15.9046
14.1462
29.4959
27.0783
29.82
27.6513
14.7592
15.0831
17.9033
26.8757
25.5298
27.9518
28.1347
14.2725
18.1587
16.9297
25.0501
22.7832
27.6309
24.1366
11.4956
15.8695
11.3826
21.6436
19.8796
22.3325
18.4349
12.7038
10.8132
12.1774
19.9784
20.5971
18.5197
18.9556
13.1254
12.3857
11.7655
20.5494
19.9142
18.6081
16.9234
12.6383
11.465
10.9598
19.6458
19.0079
16.4693
15.7911
12.4767
10.8863
10.7804
18.8578
18.6646
15.7054
15.5403
15.4814
18.4438
18.7608
30.4893
28.7157
32.8969
31.8343
19.0617
19.6095
21.3461
28.9827
29.006
31.858
31.0862
17.4519
21.2382
18.6524
28.4237
24.4937
30.314
25.8834
11.2863
16.9947
10.9444
22.5493
18.284
23.7394
12.2241
12.1357
10.3484
10.0083
18.3097
18.1577
10.7992
8.36988
10.9913
9.39968
7.39396
17.5792
15.3417
7.91831
6.84338
10.1085
7.12982
7.12212
14.8255
14.2681
7.13721
8.40638
10.2121
7.11609
7.16848
14.2722
14.6116
8.68804
9.68064
19.9018
18.7527
20.1347
33.2831
32.6152
32.1829
31.6173
21.8661
20.73
21.5578
32.587
31.5377
31.5873
31.0482
19.1056
21.549
20.6334
30.7423
26.4307
30.6507
28.437
10.9662
19.9232
15.9078
24.6274
12.4084
27.1864
20.5498
9.43159
13.1263
8.89678
10.7769
7.16146
17.6179
12.5049
6.90392
9.44041
10.8082
6.09286
6.45514
12.4611
14.462
7.00498
10.9887
8.68308
7.24568
8.61379
14.3672
11.4391
6.79184
7.75934
7.31172
8.58079
8.99838
10.7212
10.7108
19.2053
16.3907
15.6781
31.5933
30.446
24.4217
27.763
20.5062
16.2907
17.7466
30.3416
30.0848
27.6909
27.3754
20.6287
18.0645
19.0439
29.9047
28.5978
27.1186
26.9473
17.8274
19.3187
19.453
27.7757
23.44
26.8961
26.1512
9.61154
19.3033
16.3144
21.1446
15.6935
25.705
22.6883
12.5739
15.0289
14.226
15.604
16.8331
21.9386
20.6038
9.67851
14.268
10.9616
16.6104
12.526
19.935
14.441
7.46958
9.11267
8.07811
11.1926
11.2401
12.2352
12.6654
30.9833
34.1121
31.5369
38.2893
39.1235
43.3663
39.2782
28.6644
31.5057
30.6524
38.0642
34.8267
38.1811
34.6222
25.1556
29.8873
25.8104
33.6078
29.4876
33.2152
28.3027
22.3378
23.9621
20.5675
28.3624
26.383
26.7417
23.9276
22.3795
20.5625
20.2869
25.8959
24.1267
23.3397
21.0155
21.279
19.7452
17.7955
23.5766
22.136
20.0865
17.7012
20.243
17.3191
16.6175
21.752
20.8231
17.197
16.3803
19.8073
16.5268
16.3098
20.6615
20.3011
16.2539
15.8759
32.4304
36.846
35.129
43.6393
39.5836
44.7023
40.6873
31.3423
34.8071
33.0739
38.4379
34.7229
39.351
35.129
26.0794
32.0826
27.2426
33.2897
28.2655
33.6172
28.5389
23.5042
22.2477
24.3746
25.3792
22.2577
23.6888
25.57
19.2628
20.0656
19.0793
21.5268
18.6493
21.1662
19.9913
16.0189
6.10608
6.56978
18.633
15.9483
7.89951
8.43387
14.9789
7.04396
8.60836
15.446
14.8471
8.69972
9.64282
15.2978
8.97938
10.192
14.8167
14.8557
9.95168
10.8585
35.7209
35.8213
34.4654
44.7201
40.8268
43.0953
39.5106
33.4448
34.1769
32.9866
39.4886
35.2354
38.3765
35.0232
27.721
32.4
29.7379
33.7328
28.7426
33.85
30.134
11.3528
14.1597
26
22.8101
18.2472
3.16992
25.9045
3.83251
6.41137
8.48697
2.077
7.33816
1.95225
4.39174
6.57949
13.4699
15.4471
7.72861
9.17285
17.3454
16.6412
8.86389
15.0151
12.1234
9.50315
9.79464
15.8235
13.8353
9.454
11.704
11.39
9.797
10.2835
13.4001
11.9476
33.3376
27.6115
30.8672
42.4255
38.634
30.8012
36.5753
32.1423
30.5417
29.5838
37.5378
34.5979
35.5664
32.9969
29.9365
29.1138
28.4184
33.6079
30.4037
32.009
29.7918
24.2275
28.2453
27.192
29.2351
24.6621
29.303
27.5948
17.0551
26.671
23.8957
22.8482
20.2142
26.9969
25.1265
17.835
23.2616
21.694
20.1281
18.7021
24.5847
22.2352
13.0564
20.7473
14.8804
17.6101
14.5875
20.7492
15.7711
12.0453
12.8075
13.8249
14.211
12.7063
15.4669
15.2812
40.6009
45.2628
40.3943
45.3698
41.4045
46.6569
39.613
35.7356
38.9824
34.6916
39.8534
34.8401
37.5564
31.6819
29.8286
33.1142
28.0985
32.7498
27.5406
29.7199
24.5005
26.4505
26.636
23.7135
26.3302
23.3486
23.1313
19.6229
23.5266
22.9281
20.1588
22.3224
19.8213
18.5495
15.6173
21.4231
19.1778
16.752
19.2772
18.1432
14.8201
13.4368
20.0856
16.2544
15.4294
17.8136
17.1068
13.2985
13.1488
19.6163
15.2935
14.9338
16.975
16.7112
13.1018
12.8374
40.5138
45.9696
41.1009
46.6265
39.2789
46.0001
38.5219
34.617
39.4716
34.5892
37.1728
31.2418
36.3443
30.2774
27.9548
32.9462
27.9673
29.2765
24.1218
28.4718
23.506
23.0923
25.9221
11.0534
22.7064
19.0263
22.0371
16.329
18.9443
9.82994
9.71516
17.8687
14.6747
14.7292
11.5118
15.1467
9.72567
9.21202
13.7666
12.1523
10.7103
9.2758
13.99
9.26987
9.72776
12.0554
12.1705
9.28118
9.87956
13.953
9.91967
10.5636
12.186
12.1553
10.0461
10.3578
41.1417
44.3469
39.9587
45.6763
38.312
44.1446
37.4434
34.6119
38.5428
34.5023
36.1482
30.1198
35.4901
30.2681
28.1149
33.157
29.2182
28.3477
23.4912
28.6876
24.595
11.7533
27.8346
21.653
22.0668
16.0492
23.3729
19.7057
9.67023
19.7378
17.9397
14.4613
11.5803
18.6562
16.8068
9.93504
17.8097
16.4741
10.9553
9.75702
16.2627
14.4688
9.85214
15.6715
13.7676
9.66998
9.84786
13.8693
12.055
10.1163
13.1536
11.4933
9.92818
10.1656
11.5387
10.7695
39.169
34.0211
37.2715
43.2245
36.912
37.5252
36.0654
34.2124
36.1141
33.1167
35.0743
30.2907
34.6787
30.7418
29.521
31.9727
29.3653
28.8646
25.1069
29.225
26.3175
24.2682
28.8017
27.0639
24.0484
21.2481
25.8198
24.3944
20.5321
26.4832
24.8598
20.4716
18.9408
23.9423
22.797
18.4018
23.5713
21.7129
18.4125
16.1635
22.317
19.3483
14.6811
20.302
16.2662
15.3204
12.9487
18.1736
15.1206
12.1713
15.9289
14.8202
12.2655
11.1138
14.2825
12.7119
40.4379
45.1968
37.8337
14.2849
10.8966
15.7629
13.7718
33.0389
35.7391
29.6876
10.0282
10.5673
12.6431
10.7138
25.8935
27.7269
22.5535
9.60272
8.04522
10.0986
7.67965
21.8369
21.1721
17.6487
7.61307
8.38392
7.17407
6.53463
18.6885
16.6413
14.1821
8.09443
7.57779
6.40971
6.21727
17.3139
13.6308
12.9603
7.32617
7.77303
6.37335
7.83939
16.4611
12.9632
12.968
7.59074
7.48224
7.79588
7.67938
16.1127
12.9334
12.7072
7.33503
7.50864
7.67194
7.50394
37.4248
44.6396
36.3242
15.2112
14.0228
12.8326
13.9923
29.2388
34.1598
28.1894
13.0064
10.9353
13.318
11.2212
22.0827
26.3651
21.3982
9.92382
7.36398
9.92035
7.09834
16.9472
19.9141
15.2624
6.82167
5.9529
6.4205
5.20954
13.064
13.8423
10.6686
5.77856
5.50074
4.91072
4.21864
11.7151
9.89473
9.10868
5.65378
7.23815
4.3227
6.0004
12.1292
9.39078
10.2783
7.68896
7.57234
6.9264
7.36092
12.1093
10.444
10.6855
7.57346
7.47289
7.39742
7.28378
36.0394
42.522
35.2239
12.6775
13.9725
13.5398
14.1735
28.0146
33.3051
28.2555
13.3259
11.4361
13.433
12.5292
21.3757
26.736
22.6348
10.1557
7.2987
11.6383
8.89981
15.0686
21.4591
18.2742
6.64537
5.33259
8.33632
7.51803
10.8254
17.4472
15.6909
4.97778
4.19292
7.28293
6.1744
9.45113
15.14
13.6296
4.28068
5.92717
6.00112
6.95521
10.226
13.1798
11.8213
6.86328
7.3591
7.46082
7.5166
10.5385
11.4848
10.9778
7.40184
7.29992
7.5825
7.57877
34.8338
39.9857
34.725
13.6875
13.3493
11.7784
9.08714
28.3305
33.2914
29.0531
12.7123
12.438
8.80725
10.7855
23.2787
27.5259
25.0521
12.2372
9.57711
11.1954
9.11959
19.7758
24.6152
23.2254
9.108
8.65447
9.28631
10.1628
17.7997
22.7886
21.7675
8.50121
7.28849
10.3645
8.47381
15.2118
21.1926
18.2277
7.01117
7.70422
7.97722
7.63027
12.5153
17.1372
14.3208
7.57867
7.655
7.43948
7.38669
11.2424
13.6297
12.4934
7.71173
7.53039
7.43154
7.51261
21.8034
20.8905
19.5634
21.8699
20.508
22.4971
20.7348
21.1329
24.7202
13.7509
22.6776
21.6177
25.7258
4.20961
17.4367
16.6403
9.00731
2.28697
18.4658
15.6442
2.56106
24.4286
26.2587
25.2503
26.6193
24.7417
26.3536
24.9156
22.7552
22.913
24.1722
21.9539
23.6369
21.5301
23.2988
21.5579
22.4059
26.6291
11.8992
26.3766
4.11347
23.2656
17.6643
2.24146
17.2512
6.87054
15.7033
2.52463
19.5188
18.3617
19.7864
17.2231
19.8491
18.0241
20.6129
17.4236
13.4724
15.5239
5.32214
2.10806
14.6398
14.4269
1.98279
12.4268
13.0417
5.18359
4.04772
13.6776
12.2105
2.72967
19.5762
22.3473
21.7108
20.7949
21.7204
20.5504
19.6618
18.4883
20.0009
20.7518
17.3633
20.9336
17.453
18.489
13.2789
2.06026
15.7037
4.72294
14.3849
1.94269
14.46
12.2712
4.21641
13.0061
5.61306
12.1667
2.6677
13.4895
6.97061
10.2496
10.0465
2.29315
12.8206
2.64258
5.2566
22.9295
27.3034
26.4559
28.9733
23.9295
27.8366
26.8404
17.3115
15.3988
23.9277
20.553
19.3682
13.3953
23.9624
11.5354
22.6416
14.0754
26.7408
3.38177
26.0837
18.4432
6.96306
2.22306
9.12315
9.38709
2.62016
5.33002
12.1248
23.0429
29.0725
27.7915
26.7144
27.9837
26.9145
24.2781
17.3857
20.7609
15.7392
24.2168
13.614
24.0497
19.4671
3.53242
5.4999
5.29967
2.84214
6.06446
1.86217
4.16539
9.50739
12.747
15.5037
17.6934
10.8751
10.9938
15.5878
8.85933
8.48024
13.8294
14.3794
9.21636
9.02363
14.4625
4.17757
1.9924
5.9255
8.17022
1.89127
4.51396
7.73409
4.59554
3.51092
6.04899
9.12929
2.02482
5.90254
8.11197
10.4349
18.1319
13.6305
17.6323
11.4081
16.4075
12.7923
10.3017
15.8506
13.294
17.1546
11.027
15.7503
12.6958
2.09884
2.34464
2.10458
6.3406
7.09107
6.33071
7.09218
1.59154
1.8474
1.49905
6.94133
6.3148
7.37636
7.38176
1.48266
1.29336
1.29947
6.60841
6.81921
7.54945
7.60496
1.30048
1.40371
1.28484
6.64
6.18976
6.97336
6.46478
1.20974
1.22438
1.21279
6.73585
7.55669
6.48798
7.03703
1.22528
1.20489
1.18395
7.93638
7.77333
7.55668
7.82241
1.17596
1.15541
1.13281
7.82481
7.90245
7.75455
7.70314
1.11026
1.11911
1.03092
7.46128
8.81794
7.535
9.59129
2.48097
2.69135
2.38142
8.90897
8.75499
8.75882
8.76889
2.53325
0.876688
0.837985
2.7131
2.58297
2.64759
0.666789
2.89917
0.480164
0.432213
2.37019
2.65196
2.47291
0.414102
4.18403
0.447332
0.426361
3.02742
3.05914
4.02836
0.435771
4.21493
0.490416
0.450614
3.11807
3.06178
4.31474
0.456113
2.68444
0.448411
0.381542
2.59236
2.57342
3.01275
0.376244
3.26513
0.47925
0.488004
3.00682
3.12411
3.12295
0.484052
3.23584
0.453064
0.460552
3.09563
3.12067
3.2929
0.450675
3.11191
0.430726
0.431651
3.0078
3.01667
3.1402
0.426145
1.03246
1.06435
0.941003
6.97959
8.08753
6.86006
8.48323
2.28681
2.61444
2.28173
9.18465
9.19389
9.78458
10.3199
2.59765
0.714074
0.880092
2.28461
2.33559
2.38749
0.771273
4.84867
0.628859
0.628561
3.75735
4.52718
4.16566
0.683812
5.72151
0.669271
0.777649
5.57197
5.58384
5.74265
0.751659
4.4115
0.531148
0.617364
5.08275
4.55148
5.03956
0.568841
2.95266
0.41869
0.411014
2.88597
2.85997
2.86218
0.428076
2.94886
0.47342
0.472272
3.09589
3.11849
3.02891
0.457442
2.69819
0.420338
0.413094
2.94258
2.87344
2.74595
0.401863
2.61673
0.395008
0.384459
2.76534
2.77063
2.61422
0.381945
0.907388
0.923021
0.811474
6.12593
7.5318
5.29828
6.63509
2.15876
2.32538
2.10085
9.14607
9.94198
8.71603
10.0404
3.13549
0.714616
0.792236
2.54746
3.15992
2.47331
0.698027
5.80834
0.767555
0.743791
5.31821
5.69409
5.48093
0.774437
5.94304
0.791174
0.799309
5.9704
5.8958
6.02296
0.795992
4.89489
0.579473
0.723733
5.14741
4.32338
5.36364
0.644335
1.89876
0.320406
0.284708
2.18839
2.22181
2.07969
0.280121
2.87098
0.416664
0.387388
2.72076
2.7503
2.72761
0.421767
2.73086
0.391511
0.414334
2.56555
2.52267
2.77739
0.415162
2.237
0.351605
0.389923
2.26963
2.25471
2.33115
0.365494
0.750716
0.872089
0.730798
4.56342
5.97813
4.41416
6.15276
2.00789
1.97432
1.98347
9.79539
11.14
8.24688
8.13261
2.96477
0.726732
0.77098
3.06331
3.77709
2.53717
0.706252
4.645
0.772985
0.687021
5.31387
5.53424
4.36298
0.69581
5.51329
0.80637
0.742212
5.83652
5.87202
5.35577
0.735806
5.81219
0.674559
0.701827
5.85169
5.77588
5.80266
0.671759
5.17281
0.431488
0.586245
5.09422
3.83717
5.61735
0.52518
2.42966
0.265476
0.199949
2.05048
3.11626
1.93304
0.210025
4.82874
0.603648
0.3785
4.7021
4.60541
4.85495
0.425002
2.76719
0.400009
0.392923
2.97817
2.76198
3.02409
0.344417
0.728276
0.966388
0.699729
4.64631
6.53638
5.19753
6.80131
1.67359
1.93933
1.6985
6.17674
7.43164
6.34364