/*--------------------------------*- C++ -*----------------------------------*\
  =========                 |
  \\      /  F ield         | OpenFOAM: The Open Source CFD Toolbox
   \\    /   O peration     | Website:  https://openfoam.org
    \\  /    A nd           | Version:  10
     \\/     M anipulation  |
\*---------------------------------------------------------------------------*/
FoamFile
{
    format      ascii;
    class       volScalarField;
    location    "8.6";
    object      omega_0;
}
// * * * * * * * * * * * * * * * * * * * * * * * * * * * * * * * * * * * * * //

dimensions      [0 0 -1 0 0 0 0];

internalField   nonuniform List<scalar> 
12920
(
304.153
296.684
266.684
194.22
132.325
101.277
87.6304
75.4088
69.0598
68.2274
67.5844
66.0937
62.5719
58.0644
52.4673
46.5911
41.5337
38.1844
37.2174
35.562
254.14
245.593
191.338
157.633
130.453
121.231
108.66
91.5606
76.5271
69.5292
65.73
62.8741
59.3741
55.8391
53.1347
52.1239
52.1346
52.6879
53.2358
52.8216
492.569
348.328
168.703
117.988
111.102
107.818
95.8065
82.8491
72.5825
66.5039
62.2064
59.9806
58.9168
58.7373
59.0194
59.4871
59.4391
59.0263
58.2955
55.9434
227.071
243.036
193.117
144.798
118.871
108.014
94.8935
84.8566
75.5191
69.9988
65.9854
63.7022
62.3914
61.951
61.6118
61.1954
60.5736
59.6835
58.8746
56.4414
208.733
313.533
222.992
170.543
135.422
116.915
99.447
87.5543
76.3885
71.5276
68.1486
66.9327
65.7024
64.934
63.9735
62.9692
62.0669
60.6859
59.763
57.5003
88.8744
161.581
183.671
181.992
152.152
125.324
101.873
86.2822
74.8781
70.0446
66.994
65.5244
64.1067
63.3685
62.4659
61.5091
60.6027
59.2813
58.5429
56.7026
129.391
111.461
151.669
171.956
151.42
121.568
97.2868
83.1637
75.6417
70.9642
67.4676
64.9918
62.8342
61.4132
59.9214
58.7422
57.5687
56.439
55.8529
54.2596
177.93
225.263
212.683
180.248
148.922
127.242
194.747
148.868
129.173
106.326
98.1686
96.6465
95.8957
92.6601
57.7569
54.8983
53.0987
51.9977
51.3279
49.2337
242.443
199.304
188.689
172.846
147.962
224.151
358.456
216.707
204.718
196.351
162.703
153.306
147.298
138.476
88.6181
50.4976
47.8425
46.184
44.8245
42.3718
175.569
160.025
179.613
167.873
143.778
209.417
286.72
213.18
243.563
236.334
172.854
153.906
137.746
126.969
79.6656
44.0661
41.1996
39.5376
38.559
38.5339
149.856
176.885
176.44
151.482
129.646
196.998
262.321
234.8
253.066
235.382
145.589
136.771
125.557
116.124
68.1964
39.4399
38.1898
37.8582
37.8778
38.4188
91.8756
208.858
165.356
120.057
107.59
161.692
253.329
239.706
255.855
256.204
243.89
148.055
194.261
149.465
73.8979
42.1039
40.8059
39.6526
38.6854
38.224
211.573
268.306
219.423
157.316
121.822
104.342
155.42
130.317
133.328
144.132
148.811
143.892
129.495
99.6799
45.9031
42.3999
40.4919
39.3768
39.0342
38.4171
404.254
356.065
260.021
177.166
124.721
102.039
86.6217
73.7511
65.3347
58.6787
58.9117
57.164
51.7764
47.8749
45.7763
44.615
44.0886
43.6345
43.3254
41.5835
365.293
344.606
304.083
239.883
165.245
120.857
94.8521
80.9176
67.4063
60.4917
56.8751
55.4028
54.0696
54.2821
55.0842
55.3711
55.1908
54.0293
53.0242
49.4491
228.724
269.091
242.488
177.361
132.032
107.586
88.9877
74.8123
65.2412
61.6321
59.5752
59.3804
59.4318
60.0472
60.6336
60.68
60.4818
59.5678
58.4151
54.4265
177.231
197.758
186.959
162.918
131.192
104.864
82.7977
68.6703
61.4319
59.2775
58.3999
58.3055
58.2425
58.2093
58.0418
57.2064
56.2382
54.5586
53.4498
50.1585
398.491
291.01
198.067
152.913
119.394
95.423
78.3699
69.562
62.8598
59.2722
55.9307
54.3079
52.7684
51.7116
50.4636
48.9975
47.4809
45.8173
45.0725
43.6187
274.928
217.52
193.101
154.315
128.42
109.83
92.8426
83.9427
76.2662
71.1821
64.5937
60.4626
56.4996
54.4674
52.3875
50.9048
48.8494
46.7336
44.0911
40.6312
185.388
151.494
149.17
140.408
117.45
96.7437
81.3705
73.208
65.8552
60.3931
55.1158
50.9789
47.5422
44.6405
41.9557
39.175
36.9178
35.641
35.0508
33.4118
133.443
126.344
87.2725
68.2461
53.4458
47.1385
41.7419
40.029
39.5218
38.6571
36.9306
34.7323
32.1984
29.6007
27.231
25.3403
23.8005
22.5004
22.0137
21.0646
194.761
172.005
132.515
127.715
101.32
80.8912
65.6946
53.8108
45.5113
41.7878
40.2235
39.4214
38.0337
36.0342
33.2948
30.4522
28.5493
28.0744
28.2098
29.1208
171.467
146.714
105.672
88.6351
73.211
59.0697
47.7348
41.2309
38.3211
36.6762
36.1513
35.9649
35.5354
34.4877
32.9148
31.4199
30.428
29.9233
29.8916
29.6541
233.836
191.774
126.826
107.338
87.6788
63.0956
47.4243
39.9138
36.3416
34.1409
33.3103
32.3966
31.9441
31.4808
31.1248
30.565
30.197
29.7029
29.5451
28.9246
372.585
255.162
126.151
99.3411
87.8064
72.3466
59.0781
49.632
43.6922
38.8614
35.7143
33.5603
32.5399
31.7842
31.3107
30.8277
30.4739
29.8743
29.6073
28.8654
280.808
189.318
125.813
101.08
82.7159
73.203
63.0124
55.1217
47.1023
40.4231
35.2122
32.1609
30.7004
30.197
29.9263
29.6566
29.4392
28.9833
28.777
28.2237
354.348
231.828
139.994
96.9704
72.4589
67.1762
58.7387
52.6915
45.5757
39.5513
34.2537
31.2386
29.6121
28.9224
28.5096
28.2041
27.9883
27.6041
27.4534
27.0804
108.918
130.906
109.437
84.0121
71.543
66.8388
69.8059
66.0493
56.5182
45.0516
35.7714
30.04
28.0452
27.231
24.9762
25.1066
25.0638
24.9349
24.8764
24.6053
240.626
124.412
100.879
80.7431
69.715
74.1847
77.8892
68.8465
56.4408
48.6644
41.8419
30.8478
26.3432
24.8125
23.0317
21.7098
21.943
21.911
21.7981
21.385
136.495
115.679
93.7144
78.1084
65.2228
70.5695
73.7028
60.8747
49.1529
48.4385
44.9816
30.246
25.764
23.58
21.329
19.6361
19.4348
19.1975
19.1119
19.3274
179.062
113.95
84.5578
72.9814
62.9371
64.5008
62.4842
50.2562
43.1034
42.0518
41.8866
33.4922
32.806
27.698
22.3271
19.186
18.8579
18.8941
19.0702
19.7505
166.946
133.855
82.2158
63.7871
55.3663
57.934
63.0656
51.3095
46.525
43.3997
44.41
47.0736
40.7322
42.3729
23.7437
19.5569
19.6131
19.8305
19.9982
19.9665
322.799
164.542
114.966
79.8145
62.9114
53.191
56.381
52.4718
48.4938
46.6531
46.7505
47.6177
53.8674
54.3448
22.6028
20.8659
20.3326
19.8523
19.6183
19.3812
437.8
241.621
137.667
87.4177
64.1535
55.4258
46.142
40.6957
35.6734
33.453
34.6766
34.8835
30.2656
23.7563
21.8366
21.4566
21.4383
21.3683
21.361
20.9763
315.932
230.95
179.338
130.91
89.3579
69.4594
53.9358
45.0746
37.3026
32.0648
29.1386
27.6415
26.1292
25.388
25.5426
26.2654
26.8832
26.9742
26.9701
26.0807
344.306
162.862
116.41
90.4784
76.6801
64.7546
52.3712
41.2897
35.1992
32.1387
30.4115
29.5598
29.283
29.3916
29.8327
30.3062
30.8623
31.0766
31.1696
30.5327
251.895
146.358
110.436
89.1811
69.0852
57.6774
48.106
39.5139
34.9397
32.5017
31.6281
31.0922
31.0731
30.8039
30.788
30.7392
30.787
30.8174
30.9272
30.26
195.864
162.163
106.149
86.9128
73.4965
60.3982
49.169
39.9709
34.609
31.2893
29.7818
28.836
28.6443
28.3003
28.0997
27.8191
27.6878
27.458
27.4236
26.6377
107.779
142.18
103.828
89.232
84.2706
73.9185
58.7579
47.146
39.1348
35.1727
31.513
29.6322
27.8856
27.0117
26.261
25.9386
25.9234
26.0814
26.8641
26.6356
64.9836
87.5415
84.9303
74.2972
63.6922
56.0186
49.5387
44.5547
39.8626
36.2235
32.946
30.644
28.5145
26.6789
25.0564
23.6733
22.5804
21.6216
21.1936
20.3099
164.348
114.125
84.5862
71.699
58.0758
50.045
45.1665
43.7235
42.1954
40.3147
37.8673
35.2279
32.4513
29.8371
27.6584
25.9173
24.5451
23.5616
23.1615
22.9323
160.323
139.117
93.4423
83.0619
65.3735
54.0468
45.1665
40.8881
36.8514
35.8131
34.2806
33.5162
31.9282
30.5203
28.9694
27.7188
26.859
26.4637
26.4186
26.4003
160.888
142.282
92.477
70.6265
57.9147
47.2604
39.3201
35.2836
33.0288
32.3876
31.7621
31.5678
30.8586
29.9488
28.8489
27.9453
27.3237
26.9055
26.7206
26.2357
376.111
250.502
119.563
81.8972
63.4941
48.5063
39.1752
34.1759
31.6132
30.1056
29.2352
28.7908
28.3373
28.0055
27.5797
27.1557
26.8142
26.4041
26.1635
25.5638
501.019
357.312
140.638
79.2307
64.2568
53.5913
45.1186
39.1823
34.8505
32.0754
30.056
28.9968
28.2667
27.8357
27.4065
27.0133
26.6662
26.2093
25.9435
25.3817
216.09
182.227
113.521
78.7079
63.2711
56.8228
48.5588
42.7458
36.4777
32.4426
29.3007
27.8194
26.8945
26.5335
26.2258
25.9516
25.7083
25.3931
25.2102
24.8347
200.143
161.087
108.811
72.3648
57.4686
53.0906
46.1507
40.9218
35.4452
31.1732
28.0578
26.4426
25.5466
25.143
24.8453
24.6141
24.4461
24.2247
24.0947
23.8341
119.119
118.056
96.7945
67.4341
56.8786
51.9734
51.3403
47.185
40.5978
33.0564
28.0352
25.0684
23.8994
23.3459
22.9339
22.5793
22.4172
22.2488
22.1527
21.9072
154.152
119.18
96.4113
68.4516
55.6319
54.1367
53.7381
49.1025
41.5347
35.5675
29.1977
24.3396
22.2366
21.4322
20.9267
20.7835
20.395
20.1675
20.0269
19.8506
174.97
111.126
89.1889
65.1225
52.99
50.678
51.8817
45.6164
39.9847
37.1404
30.5701
24.4414
22.3424
20.8191
19.9872
19.8074
19.1303
18.8631
18.8477
19.0362
380.1
115.978
77.5276
56.6792
49.3716
47.0446
45.8473
40.5122
36.3265
33.7193
63.1053
58.4776
35.8038
26.522
21.9449
20.0872
19.1664
18.9403
18.9693
19.2852
238.329
145.88
76.2003
51.6128
45.4815
45.5256
48.1915
41.7695
38.5441
36.1073
38.2852
44.0723
41.1364
36.5343
21.3004
19.8393
19.1578
18.9132
18.8487
18.8788
247.014
154.294
103.204
65.0983
50.6837
42.8234
43.3138
42.9316
40.2523
40.3202
41.9344
44.8534
49.6548
39.7447
20.6042
19.349
18.7651
18.4466
18.302
18.2236
323.218
174.351
115.173
70.1618
51.0034
43.0441
37.5087
32.2303
30.6558
28.2496
29.5545
28.3603
24.2207
20.9531
20.0003
19.652
19.5588
19.4144
19.3227
18.9493
368.083
231.229
130.222
85.9003
60.9444
48.6804
39.7796
34.2995
29.66
26.6781
25.1472
24.0749
23.1859
22.91
23.0424
23.3361
23.4913
23.3974
23.1399
22.0645
309.491
159.149
100.467
70.0991
57.2774
45.9145
38.1223
32.1901
29.0415
27.3736
26.324
25.9827
25.8947
26.0976
26.3243
26.4903
26.5185
26.3674
26.09
25.0009
213.496
160.889
105.544
76.2555
57.8146
44.2437
36.8271
32.0899
29.2904
27.9788
27.1776
26.997
26.8724
26.8771
26.8375
26.7779
26.6858
26.4654
26.2792
25.2512
163.266
169.546
98.0026
68.2562
56.3956
46.0635
38.6873
33.2671
29.4743
27.4835
26.1779
25.7687
25.4071
25.3679
25.2414
25.214
25.1429
24.9853
24.7863
23.7935
206.715
119.515
80.1597
66.8371
62.0717
54.018
45.2792
39.8437
34.1149
31.4087
28.4603
27.3662
26.071
25.6446
25.1052
24.9654
24.8622
24.8771
24.9107
24.5555
82.6113
95.3516
88.1687
76.4809
66.6898
60.0074
53.6772
47.8673
42.3963
37.9572
34.2975
31.4784
29.0733
27.1485
25.62
24.3259
23.3937
22.7239
22.7616
22.881
155.841
110.04
80.4436
66.7391
55.5545
48.8469
45.857
44.514
42.3999
39.7997
36.9327
33.9033
31.062
28.5419
26.699
25.367
24.5949
24.2148
24.2136
24.3383
156.538
150.424
88.9995
63.2125
56.0454
47.6693
44.5802
41.4521
39.6287
38.4784
37.1724
36.1718
34.8889
33.8948
32.9826
32.2153
31.6113
31.1
30.6854
30.1563
150.566
140.873
96.7713
63.3023
56.2061
44.5863
41.0017
36.6986
36.0585
35.1189
34.9027
34.4242
33.808
33.0842
32.3784
31.707
31.2069
30.6945
30.2808
29.6682
144.505
160.262
118.398
70.1208
57.5499
44.7146
40.3692
35.27
34.4135
32.7751
32.528
32.0252
31.7764
31.3921
31.0584
30.6567
30.3219
29.8855
29.5156
29.0078
216.202
234.167
133.396
69.7555
58.2672
46.6938
43.106
37.4214
35.6223
33.2792
32.4755
31.657
31.3006
30.8886
30.5518
30.1555
29.837
29.444
29.1234
28.7932
238.118
182.96
119.248
71.3166
59.2924
48.9761
45.0969
39.4732
36.0507
33.146
31.4603
30.4604
29.8852
29.5314
29.2544
28.9759
28.7734
28.5803
28.3908
28.2527
195.176
152.224
102.876
64.8323
56.1638
47.7614
43.9506
38.0684
34.9311
31.5255
30.0754
28.9594
28.6087
28.2667
27.9419
27.6975
27.5744
27.4813
27.3497
27.2881
162.37
129.097
93.9203
63.1999
56.162
48.2998
46.8074
41.193
36.8071
31.8605
29.4719
27.9783
27.4348
27.1118
27.9883
26.5554
26.0437
25.836
25.6792
25.5938
258.973
127.067
99.6203
65.7921
54.3915
49.6556
48.4968
43.5892
37.5754
33.1292
29.5766
27.8318
27.1208
26.9375
27.745
26.5965
24.8518
24.3589
24.203
24.2726
384.963
165.342
104.22
65.1263
52.267
47.3945
47.265
43.3016
39.2177
34.3659
29.6192
27.2604
27.418
27.7277
28.4024
26.5208
24.4434
23.9846
23.9652
24.1578
236.869
147.899
89.6958
56.6095
48.7566
44.3579
43.4822
41.1215
38.5686
35.1735
50.6978
38.49
32.9245
30.3898
29.8982
27.0723
24.698
24.1024
24.0545
24.2525
349.069
197.277
88.4327
53.8318
46.9694
44.6214
45.5876
41.6411
40.1611
38.5268
40.73
44.5162
41.4458
32.2079
29.1866
26.2706
24.065
23.4033
23.3027
23.4713
203.987
150.925
99.4305
60.6074
52.295
43.1982
42.7281
41.6135
39.6528
41.5565
42.9765
46.9529
44.5803
31.3011
25.9686
23.7166
22.7927
22.5323
22.4634
22.5736
202.485
147.369
98.0556
60.7291
51.327
41.2283
38.2852
32.3985
31.5607
27.9499
29.1803
27.0808
25.9011
24.2784
23.804
23.2659
23.0862
22.9045
22.7603
22.6364
230.641
150.7
109.407
69.6199
56.4799
43.114
39.3575
33.5294
30.566
27.722
27.0882
26.2755
26.2389
26.2385
26.3008
26.1973
26.0605
25.6901
25.2686
24.3375
297.087
145.671
96.7289
63.4927
54.6571
40.8754
38.1248
32.3275
31.2449
29.1832
28.9966
28.6456
28.9083
29.1224
29.1973
29.0722
28.7905
28.2053
27.6894
26.5008
191.014
152
109.408
72.879
57.9107
41.734
38.2515
33.1422
32.1409
30.3948
30.2024
29.8608
29.9188
29.8903
29.7583
29.4646
29.1571
28.598
28.1388
26.9999
86.1671
158.437
118.571
65.6413
55.5398
42.954
40.2387
34.5073
32.7405
30.4592
29.9629
29.3731
29.2728
29.1786
29.0646
28.9161
28.6964
28.347
27.9231
27.1164
216.114
120.467
83.0552
61.5276
59.3488
49.9718
46.0446
40.8981
37.1113
34.5066
32.5549
31.632
30.7492
30.4064
29.9166
29.7566
29.5601
29.4278
29.2099
29.268
148.22
104.887
90.86
79.151
67.3423
58.8656
52.41
46.065
40.6593
35.8995
32.4377
29.6771
27.6783
26.0844
24.9447
24.0225
23.5778
23.5616
24.0577
24.2487
155.431
114.74
79.7952
58.4546
49.2931
46.7471
45.4748
43.3557
39.9548
37.0143
33.6879
30.5603
27.9454
26.2093
25.1626
24.5338
24.2563
24.1677
24.296
24.324
190.11
159.962
112.895
71.1701
82.8716
58.9071
67.6908
53.699
59.3173
51.7165
54.3929
50.1153
50.9936
48.6893
48.8789
47.5343
47.2652
46.2946
45.7833
44.8627
176.917
148.045
110.685
70.5372
78.259
53.3529
59.8481
46.9504
52.3766
46.3494
49.4949
46.303
47.4526
45.579
45.7536
44.5472
44.351
43.5301
43.1403
42.456
250.018
176.86
135.087
74.2963
76.6489
52.8503
57.0281
44.6184
48.9321
43.2755
46.1675
43.5143
44.7281
43.3544
43.7226
42.9377
42.8895
42.3241
41.9848
41.5187
228.295
212.51
143.32
76.6093
78.7569
53.2734
57.2505
44.9583
48.548
42.8486
45.2272
42.6405
43.7044
42.4201
42.702
41.9644
41.9385
41.5032
41.2823
41.1267
204.986
182.531
133.598
76.662
74.6658
53.8807
57.0823
45.8006
47.1867
42.5972
43.4079
41.4088
41.665
40.8545
40.9077
40.5745
40.6034
40.5569
40.4452
40.5606
184.175
151.953
116.476
70.933
74.6141
54.2241
54.0674
45.3955
44.9176
40.5901
41.4932
39.7464
40.4065
39.6554
39.618
39.3563
39.487
39.5583
39.5142
39.7552
197.032
147.234
105.318
68.481
71.0482
58.804
52.5242
45.3318
43.7801
40.0409
40.7362
39.476
39.8975
39.3178
40.8825
38.8273
38.1959
38.2701
38.1205
38.3561
391.321
163.53
107.394
70.8888
63.959
55.9254
56.2936
48.7305
46.1102
43.7135
43.5772
43.3269
43.5851
43.5623
43.9606
39.7676
37.5446
37.2987
37.1694
37.4873
312.792
210.56
127.254
72.3673
60.0724
52.7118
54.7066
53.3505
49.9696
45.7167
43.8451
44.8293
47.0117
47.2374
46.0142
39.8184
37.3215
37.1748
37.0934
37.5124
362.94
177.866
101.042
67.7562
58.877
50.4762
51.5142
53.5958
51.8037
46.5139
45.3998
45.0723
48.8691
49.4027
47.1687
40.1889
37.461
37.2405
37.1795
37.5937
274.036
171.571
94.0137
68.9864
58.2431
55.1686
55.7233
53.8439
53.6775
51.9031
51.5103
51.3965
49.7527
48.8992
47.17
39.7144
36.9966
36.4853
36.423
36.7296
192.074
144.241
106.595
67.3984
72.2574
58.5972
52.6226
47.714
48.8828
47.3179
48.1114
47.216
45.0482
42.9046
40.133
36.9578
35.7586
35.6096
35.3823
35.5699
243.347
158.712
102.544
71.9422
69.9688
53.0683
50.7335
43.182
40.0441
34.8904
37.4136
34.4566
37.4471
35.9618
36.489
35.4991
35.6439
35.3093
35.2762
35.2696
198.898
149.321
115.721
72.3162
75.5774
52.4467
55.2419
41.9264
41.2664
36.0164
37.1347
36.0493
37.7838
37.5956
37.8663
37.4863
37.5086
37.1028
36.7851
36.1836
174.494
146.675
105.259
70.5797
70.6965
48.3024
53.2328
40.3378
44.1928
38.0605
40.9919
38.6835
41.1807
40.3198
41.2483
40.3811
40.4224
39.5533
39.1383
38.1532
286.997
163.936
123.717
73.1659
74.1236
49.0477
55.2512
42.1707
46.9301
40.7406
43.6369
41.1964
42.9932
41.8929
42.3168
41.4025
41.2328
40.3196
39.8851
38.9425
301.542
283.602
159.179
72.7105
73.8731
49.1765
57.2187
43.2966
48.6546
41.3888
44.7554
41.3766
43.4723
41.9107
42.7645
41.7759
41.8983
41.1952
40.8163
40.3726
222.831
173.171
103.241
72.3664
77.4934
54.4288
63.9935
49.4612
54.6973
46.5365
49.1764
45.1489
46.7363
44.8959
45.6621
44.8679
45.2218
45.0126
45.1024
45.6473
92.0704
88.9679
82.0238
76.2838
64.7247
54.4857
47.0699
40.5745
35.2092
31.105
28.5313
26.4604
25.2263
24.096
23.6001
23.0086
22.8952
22.8993
23.3487
22.6608
32.9469
35.4295
76.3883
34.0897
30.1012
35.249
93.4416
25.4124
75.8308
56.3819
28.8239
26.2254
88.8188
50.1801
64.0357
35.3823
38.7011
34.2932
74.9254
36.2067
39.8576
60.831
41.0034
46.5604
72.5038
51.6682
42.1014
44.0156
244.346
300.077
207.049
97.2551
84.8113
91.3549
78.3902
202.945
202.587
225.979
78.0643
66.3249
71.5326
58.4375
200.404
231.353
232.977
63.2852
57.2216
56.344
54.1689
171.825
231.18
198.057
55.0174
51.3017
54.5825
57.0859
152.994
181.389
157.223
48.9511
38.4696
55.4512
39.4317
150.665
155.604
146.223
35.6271
30.9136
35.8345
30.1946
140.59
141.967
132.661
30.0206
28.4636
29.2117
27.0901
123.809
130.846
116.447
28.0993
26.6892
26.5944
24.4009
211.313
280.763
226.469
88.1881
74.1349
79.6474
65.2963
240.475
231.394
251.601
68.0522
56.1281
60.2608
50.5862
240.808
252.146
242.41
54.2953
53.2664
49.2299
48.153
190.263
232.822
159.412
54.0458
55.7748
48.5845
48.5461
155.849
146.865
142.319
52.3741
37.4657
45.266
35.81
142.143
139.129
125.211
34.787
30.0768
34.1858
31.5723
128.657
122.858
116.658
29.0906
26.9437
31.1592
28.5536
115.324
114.225
99.3549
26.4567
24.3173
27.5248
24.5243
225.973
257.802
236.044
74.3217
60.265
72.5327
58.5341
253.039
245.21
260.393
56.3072
49.4359
55.6995
51.4506
243.606
261.054
258.076
48.4094
47.2818
50.5744
48.6385
162.999
254.237
239.89
47.5185
48.9058
48.4132
49.3904
137.739
222.128
140.013
46.8925
36.7865
51.538
51.7915
126.6
143.087
167.898
35.0572
33.6092
44.8356
40.1307
120.174
168.754
147.857
33.5988
31.6816
39.7835
41.1136
98.4095
142.739
106.364
29.8131
24.7582
40.9857
28.8344
233.51
275.049
190.77
71.8632
59.6492
77.872
63.5968
253.808
187.465
200.416
57.0995
53.1015
60.6095
55.8627
257.124
208.482
232.734
52.1527
49.6309
54.6057
51.3489
250.498
239.147
250.679
49.0788
49.0435
50.6277
49.4708
152.706
252.583
244.528
50.0675
55.5959
49.2971
50.9993
192.534
225.516
177.431
52.3997
42.1379
51.8891
48.7122
158.304
181.908
175.077
41.9073
44.2866
48.1957
56.964
109.941
156.998
121.321
44.4413
30.5284
59.6848
34.7186
73.5331
75.7479
69.4061
57.7252
54.1313
56.0469
52.0046
59.8598
64.0227
52.9975
52.2575
46.423
49.6434
43.7285
50.6319
51.0554
48.8085
44.1781
39.4584
42.2882
39.7656
44.2564
49.0693
49.8571
37.8197
32.8168
39.4584
35.8261
33.0738
47.3198
33.594
30.909
26.0498
32.9645
26.0301
27.0594
30.8344
26.4732
24.8995
22.7883
24.6987
22.4046
25.1052
25.6906
23.9775
22.3761
21.6033
21.9356
20.8405
24.2165
23.5617
22.3016
21.4343
21.0789
20.5493
19.7521
65.6314
66.8281
57.4207
55.1889
50.1632
50.5024
45.0225
50.8358
53.4551
45.2839
47.9178
42.5733
43.0975
38.6526
47.8705
43.9912
42.7705
41.3359
39.3741
37.6395
35.981
48.7557
43.11
43.0747
39.161
35.5192
36.1987
45.8457
32.4264
40.4309
32.9811
32.5612
26.0914
45.5191
41.8199
26.535
31.7017
30.1305
24.9036
22.883
38.9618
34.3229
24.0108
29.7481
26.72
22.4162
21.1341
32.3759
26.5073
22.2619
25.6362
23.0821
20.7657
19.7307
25.0565
21.8061
53.4218
62.3896
52.4073
48.0717
43.3271
49.3453
43.6913
44.155
50.0509
45.9418
41.6804
37.8583
42.2986
39.1769
41.8814
44.9922
42.9504
36.9325
35.3586
38.2901
36.2972
43.289
42.7285
43.6759
35.2086
45.1288
36.0666
38.1536
34.5303
45.4128
46.1548
45.1317
46.4835
40.0441
45.1908
33.0124
42.7948
39.5354
46.5571
38.715
45.323
40.1586
29.5384
38.8283
39.398
35.4896
28.2887
38.8114
36.9933
23.3781
39.0091
26.6676
26.4145
22.4296
34.4249
23.0732
53.4337
63.2203
56.2739
50.6102
44.2956
48.9727
45.1809
47.5385
54.2221
50.6939
43.0437
40.3036
44.6162
43.3275
43.9314
49.4834
46.4449
39.4095
37.175
42.3808
39.8304
43.4516
45.7474
44.7545
36.7637
37.2661
39.4255
39.3227
48.4613
44.6392
46.2062
38.3879
43.3876
39.4252
41.492
41.194
47.2172
46.2529
43.8464
41.8045
42.4945
44.4359
42.4206
46.0515
53.5895
40.9356
40.2922
44.86
49.7015
28.2462
55.3386
32.185
38.5351
23.6952
48.7873
25.471
50.7717
52.491
48.8681
48.9606
45.7401
47.7159
44.6551
43.5605
46.9911
41.9937
44.1181
39.1823
43.5605
39.8867
37.1617
40.6316
37.8855
37.6967
34.1483
38.6317
35.2325
30.8095
37.3178
33.0411
32.7745
29.3594
34.1023
30.009
25.2768
30.657
25.1701
28.4442
26.5159
28.694
26.0127
22.5904
24.1069
22.2191
26.0072
25.1143
25.5075
24.7847
21.5822
21.8168
20.867
24.9374
24.6725
24.6744
24.4745
21.1111
20.6103
19.89
24.5644
24.3517
24.377
24.0696
47.4045
47.9204
43.1278
47.4918
43.9501
44.6146
41.5264
41.161
41.5904
37.8881
42.982
39.8427
40.764
38.4262
37.638
36.9213
35.0344
38.6737
35.2457
37.5118
34.5893
34.417
36.401
36.448
35.5619
35.8903
34.5456
35.0638
29.099
28.4144
31.2055
29.3094
29.3663
27.5976
30.5185
22.7586
47.0132
35.9499
25.7176
25.0458
41.6145
33.2339
21.1614
33.3917
26.8954
24.9244
24.6119
31.7207
28.1727
19.8687
25.3662
21.9673
24.4749
24.0613
27.3311
25.5257
41.8601
47.1687
42.3542
43.29
40.9259
44.5197
41.3232
37.2171
41.1792
38.3971
40.2296
38.1009
40.682
38.9673
34.6102
37.5728
35.6225
37.2933
34.6588
38.3964
36.5672
71.2964
54.9818
35.1328
39.6339
44.4364
227.683
35.9843
96.3043
62.9779
58.3067
173.494
58.9598
155.391
99.2257
39.4477
46.1939
39.9734
44.3154
34.6282
43.2236
39.353
28.3108
38.7393
35.9108
32.9032
28.8545
38.2637
32.4286
22.6309
32.4161
22.7659
27.9604
26.0458
29.716
25.6621
42.8106
46.2616
43.5109
45.307
41.4746
44.3854
41.6815
39.3629
43.1488
42.15
40.9278
39.5061
41.5942
40.9643
36.4916
41.25
39.0414
38.9832
37.497
40.2798
39.3781
36.9092
38.784
39.0546
37.1524
38.2222
39.5443
40.813
43.6573
39.2168
41.5729
39.7739
43.8838
41.165
44.0659
41.9806
42.6657
44.9884
44.1177
42.3034
45.3198
47.0619
39.5217
45.4944
48.5577
41.3268
35.356
47.0463
42.313
23.1407
46.5252
24.2859
31.5675
25.5035
36.272
24.821
45.311
47.4619
44.6287
52.224
47.6836
51.5605
49.1832
38.8672
43.6573
40.2031
45.7697
42.2345
48.3385
45.4209
34.3906
38.9913
35.5533
41.7379
39.88
44.515
41.689
30.2489
34.3744
30.6548
39.0692
38.1426
40.6998
38.7068
28.2145
29.6035
27.6148
38.2281
38.2061
38.4123
38.5179
27.2115
27.2943
27.1902
38.0571
38.1044
38.8811
40.4214
27.0108
27.2712
27.5212
38.2708
38.4545
40.7407
41.095
26.6053
27.5108
27.1847
38.3743
37.9648
41.0769
40.8143
44.1127
44.6554
42.1293
50.8854
49.2056
48.4279
48.4213
40.369
41.5598
39.5492
48.6446
46.1211
48.3199
47.059
35.607
38.65
35.284
45.1624
41.6644
46.059
42.0575
30.6553
34.8919
53.639
40.5324
38.1276
40.7273
40.4115
27.6121
52.6326
40.0307
37.7351
37.6332
40.229
38.7591
27.2836
36.7219
32.7197
38.0784
40.5151
38.7303
41.6609
27.7435
31.9676
30.3511
41.055
41.5583
42.5705
43.4682
27.2859
29.9753
28.6271
41.5372
41.1126
43.3797
42.4185
41.6387
44.7041
41.9646
47.8098
48.2278
49.7438
48.7103
39.3477
41.4861
40.1607
48.1867
47.299
48.6058
48.2627
35.4867
39.699
37.9144
46.4236
42.6734
48.0382
46.0273
51.4382
37.4567
39.8358
41.4967
41.8053
45.3256
45.253
41.4299
41.5639
43.3157
41.6577
40.0563
45.8741
46.7036
33.9175
42.8784
39.6322
39.8761
41.9395
46.5061
44.9464
30.769
38.5098
32.9961
42.7571
43.747
44.493
43.4885
29.0606
31.0874
28.6873
43.6899
42.7636
43.387
42.7326
42.0555
44.9243
42.0287
51.2901
48.6424
52.1306
46.6747
40.5639
41.9309
41.3265
48.49
48.275
46.3258
46.2196
38.8819
40.7591
40.3762
48.1889
47.0775
46.42
46.8654
39.35
40.6707
41.9736
46.5931
46.521
46.902
46.9639
44.3055
42.3315
45.2328
47.0753
48.3498
47.1928
48.578
42.5557
46.377
47.2189
48.2392
46.3239
48.6509
46.978
35.0891
46.746
39.6239
45.5665
43.4825
46.0007
41.8354
28.4207
34.7173
26.7821
43.157
42.4701
40.7699
39.2711
50.5688
56.0542
53.6853
77.0029
68.5189
78.4438
76.4998
46.3337
52.7923
50.0644
68.1233
71.1121
76.0528
76.29
44.4693
49.2635
46.8027
71.7838
70.0113
76.3618
79.0172
43.3273
45.9915
44.7043
70.5787
73.664
80.0715
83.417
43.5164
44.6065
44.9165
74.6888
74.0121
84.0026
84.1502
43.3975
45.1683
46.2913
74.1273
75.0721
83.4818
80.8226
43.6511
46.5061
46.7132
75.5482
75.0488
80.3808
79.8038
42.8403
46.6796
46.0742
75.2415
73.7498
79.8348
79.599
53.8909
51.8687
53.57
75.3324
77.0666
71.3763
77.9358
50.8757
53.5773
52.3187
77.1734
77.5167
78.8026
80.7431
46.734
51.2747
47.0374
77.8724
81.8027
82.1339
88.9844
43.9865
45.7268
44.196
83.1885
86.4888
91.1166
94.4497
44.3189
44.0006
43.6617
87.12
87.2308
94.8987
93.5418
46.5878
44.3641
47.9008
86.377
82.4779
91.8909
85.8421
47.2832
48.7323
49.255
81.3888
80.3793
83.9356
81.5908
46.418
49.0758
47.6229
80.4054
79.6188
81.483
79.8582
53.5062
54.1419
54.2131
71.4654
77.9929
75.3734
79.0863
52.7197
54.147
53.8421
79.0081
81.4647
79.6001
81.8359
47.7666
53.57
51.4474
83.0202
90.2817
82.9865
87.9512
45.5745
50.6337
49.9866
92.5999
95.4294
89.3703
90.792
44.6391
50.1912
50.3266
95.3861
92.9082
90.3808
86.4183
48.0691
50.136
49.421
91.2095
85.4547
84.7688
81.1665
49.5425
49.3556
49.2267
83.7279
81.7515
80.7898
81.3483
47.9471
49.1467
48.0954
81.7204
80.2996
81.598
80.7051
53.9715
56.9706
50.2171
76.3623
77.9782
77.3255
69.86
53.7494
49.7845
50.5127
78.4361
81.2668
69.6832
75.3355
52.4574
51.1522
51.0249
82.2679
85.6875
77.9709
76.3854
51.3759
50.7442
50.359
86.6278
88.0033
75.1452
77.5976
51.657
50.5704
50.8151
87.8139
83.9837
78.6125
75.1504
50.1241
50.5708
48.7884
82.4399
79.7852
74.3296
75.6654
49.0196
48.2609
46.3145
79.9589
81.2124
77.1272
78.2728
47.9197
45.8259
44.38
81.5759
81.302
78.6146
77.4316
33.5272
35.0714
33.2345
31.2318
34.9724
33.0987
32.0995
38.1786
35.5683
55.6336
39.1361
36.6937
34.6956
167.878
40.7059
37.4267
70.8066
193.334
37.8663
40.4136
212.856
33.367
34.511
32.8067
33.8708
33.3116
34.1671
32.8647
32.5426
30.2885
31.4703
31.1115
31.8913
31.401
32.0539
37.5032
39.7646
33.7852
64.3615
34.0509
170.131
34.8772
40.5663
191.131
37.6775
91.4214
40.7265
211.789
37.1561
28.0194
26.701
26.8086
25.2125
27.9508
26.2456
27.015
38.3646
36.2253
74.8431
177.834
34.9275
39.4972
163.545
37.2771
32.1422
68.0292
71.7657
33.7095
34.4354
107.627
29.0701
28.7273
27.731
30.1235
27.3694
30.1667
29.2319
28.2185
25.4667
26.8821
27.7739
26.2994
27.336
28.4989
39.2337
175.286
37.2783
82.2939
40.0205
161.703
36.5865
38.2424
70.1857
33.3844
65.8076
34.9854
109.099
35.4978
94.3391
63.4739
57.6587
191.883
53.95
211.505
100.301
38.9661
35.0058
35.6835
35.2099
36.8189
34.9508
35.7064
46.1746
44.8527
36.6693
39.8684
40.7881
52.2323
37.1812
71.4265
40.4895
57.9996
35.6289
218.401
36.2243
46.1158
95.1051
185.22
72.9165
64.0128
209.077
99.0804
59.3764
39.2687
35.478
35.6417
36.5148
35.1766
35.986
37.6732
46.6678
40.2293
46.9546
37.6229
52.5726
37.5049
42.4406
90.3113
63.6942
61.349
88.0267
61.5258
132.421
75.8507
58.1591
47.4798
43.3316
42.6536
49.6681
56.0582
45.1859
58.1744
53.6553
45.6563
46.7945
52.8405
55.8042
46.7872
91.4978
165.679
67.5719
63.3145
149.997
96.9275
60.319
80.6042
81.1112
61.6496
48.2079
129.405
64.153
54.941
56.3744
42.9522
49.2621
43.6989
56.0345
45.04
49.1314
54.8914
45.5314
45.1301
44.2692
50.7773
45.8804
47.9655
167.679
196.068
168.05
109.142
93.7811
113.017
96.6214
138.401
149.211
137.015
86.3742
79.8915
88.6245
81.3587
117.746
128.413
121.79
73.4986
68.4281
74.1652
69.5561
103.317
111.476
102.096
60.4106
55.1351
62.9105
55.4198
96.2826
97.4342
96.5283
49.483
43.8343
50.3806
45.3745
97.496
95.8682
94.1388
40.7364
39.9734
40.8698
37.7217
93.5375
91.8234
90.044
38.5264
37.3156
36.2095
35.1261
88.0252
88.9435
81.535
37.4035
33.6503
34.6663
28.6166
209.268
216.132
190.057
121.302
108.663
121.451
104.557
168.736
321.272
339.296
187.158
174.556
185.677
298.783
102.546
201.556
201.696
123.928
110.869
117.299
191.96
86.4742
202.993
198.994
98.689
97.0537
87.6665
202.233
85.09
191.691
204.037
89.5566
87.3413
84.8092
202.636
87.197
156.332
175.647
80.3403
77.8123
87.5704
164.937
61.2787
152.819
155.575
64.5712
61.6923
66.2899
154.193
52.4181
144.357
146.494
55.9096
54.059
53.7648
143.417
49.0385
137.188
137.306
51.8211
51.1436
49.6004
135.601
81.9786
84.7214
74.5652
31.4992
28.6354
28.8145
24.1252
182.843
209.938
182.473
114.277
100.732
110.181
95.082
141.454
249.667
284.402
166.239
146.289
162.705
248.108
93.8696
220.789
219.612
100.653
94.2446
99.5263
226.776
88.2138
243.812
247.786
88.6306
88.3456
88.346
247.657
90.5521
228.487
235.572
90.7988
93.5534
89.8464
222.351
69.7921
162.425
160.538
86.2751
78.1783
76.2932
155.522
58.7338
150.707
150.317
63.5657
59.8516
61.3241
145.511
48.7996
133.791
131.463
52.1908
50.3654
50.7987
127.933
44.9915
125.781
122.485
46.8384
46.0896
45.5911
121.681
71.9914
73.5183
64.3698
27.8153
24.0782
26.9986
22.4063
172.536
186.645
167.873
103.178
88.216
104.414
86.3661
122.724
229.014
256.171
151.167
125.114
150.683
224.197
89.6032
244.617
236.939
92.1202
89.8779
90.8164
246.776
87.5538
252.032
254.63
87.5788
87.0881
88.0296
253.601
85.9974
217.136
240.348
85.6373
86.7211
85.8271
231.008
79.3749
138.499
152.878
77.4153
70.846
85.9643
138.976
53.5172
132.602
136.174
57.4803
53.4573
57.8363
134.296
52.0836
124.809
131.981
49.7967
49.7889
51.4308
132.179
48.3868
111.929
124.034
46.8168
44.0632
51.6966
116.192
59.5576
69.2971
57.9044
26.6197
21.439
28.3496
20.8119
160.046
157.706
158.024
82.052
84.7131
85.181
83.3038
127.455
232.98
249.656
137.075
116.383
144.614
227.154
92.9531
246.376
218.923
93.4051
92.2443
96.5219
221.463
90.1189
257.126
236.632
91.4296
91.1456
89.8903
242.354
89.4745
254.709
253.83
89.7945
89.469
89.8166
254.456
90.0755
226.47
253.181
89.6685
95.5317
88.7656
247.415
81.4273
155.827
159.739
83.7236
66.8812
96.1735
158.971
67.1141
191.345
200.321
63.1861
63.2891
65.943
200.339
64.4875
140.608
155.828
61.1804
58.8763
67.4483
145.725
59.2691
76.6282
65.6986
30.9877
21.4317
31.3861
24.0305
133.477
155.025
135.47
89.6708
77.479
89.6412
72.7508
131.103
132.782
129.653
66.6891
63.3976
67.3562
64.2884
139.771
122.757
121.065
61.3011
60.0806
60.0623
57.6372
145.658
121.319
119.241
60.1804
60.3315
58.6082
58.5902
149.305
119.424
120.512
60.2369
60.3108
57.9898
58.8417
135.302
121.584
119.156
61.6317