/*--------------------------------*- C++ -*----------------------------------*\
  =========                 |
  \\      /  F ield         | OpenFOAM: The Open Source CFD Toolbox
   \\    /   O peration     | Website:  https://openfoam.org
    \\  /    A nd           | Version:  10
     \\/     M anipulation  |
\*---------------------------------------------------------------------------*/
FoamFile
{
    format      ascii;
    class       volScalarField;
    location    "8.6";
    object      p;
}
// * * * * * * * * * * * * * * * * * * * * * * * * * * * * * * * * * * * * * //

dimensions      [0 2 -2 0 0 0 0];

internalField   nonuniform List<scalar> 
12920
(
-92197.9
298123
252100
295692
297556
322730
317119
313798
295125
279483
255195
232776
205701
179020
149513
120222
89209.8
58469.8
27641.6
1885.43
206320
291288
271735
311295
313679
334072
323638
319341
299835
283352
258075
234851
207004
179924
150335
121018
89838.3
59003.1
27923.6
2016.96
136003
335969
284096
347579
334743
354583
335686
330125
307416
289977
262928
238815
209897
182198
152047
122461
91065.2
59889.3
28412.8
2245.35
180977
368258
352516
397498
373089
379180
355354
343968
317760
297361
268793
243541
213979
185304
154669
124649
92790.9
61075.7
29040.1
2590.21
520835
503637
438409
456099
409231
410365
377041
360699
329648
306215
275501
248825
218201
189028
157763
127190
94794.1
62499.2
29714.9
2976.01
490165
561456
509393
513142
461756
446147
404428
378725
343740
314872
283038
253821
222855
192770
161335
130052
97093.7
64158.7
30616.3
3476.32
1.0658e+06
756956
601523
585000
498262
475497
426315
396348
356281
324793
290376
259701
228028
197804
165376
133120
99497.1
65852.8
31746.5
4070.59
778212
792504
657352
635129
549219
509530
456765
417113
375419
338277
302949
270883
239214
208455
170498
136338
101880
67606.2
32710
4725.87
947582
887449
681898
665135
564560
538887
485265
438201
393591
351883
313609
279069
247414
215831
178896
139443
103676
68993.3
33495.2
5487.32
1.09108e+06
981840
707329
694841
590774
562427
507385
454574
406790
362277
321006
283308
250160
218145
180932
139540
104619
69860.8
34027.4
6078.37
871257
951688
733765
700743
594686
575584
519728
466672
417415
371371
328490
287325
254422
221955
181975
139904
105174
70334.8
34375.5
5975.23
1.17044e+06
1.00164e+06
760258
719396
615335
584951
529606
474210
425656
379835
336677
295841
257713
222630
184582
141774
105837
70949.1
34486
6401.67
718680
820718
657475
692111
598085
562113
518504
471925
425836
382906
339257
297929
258238
221598
177688
143227
107891
71919.2
34843.2
6777.37
767147
822188
702187
697826
593129
564154
493193
459639
410209
371355
327194
291570
251087
218373
181386
146987
109849
73016.5
35272.4
6407.72
527781
682700
577577
607863
562468
540794
489543
455071
408181
370306
330932
294002
255928
222307
185189
149133
111149
73360.9
35396.7
4965.67
497965
687436
609722
615712
544682
534327
472215
449217
400658
369957
329402
297255
258621
223420
185652
149499
111208
73394.6
35187.2
4011.38
441659
536278
494032
550499
498739
504050
461846
441300
400509
369591
330702
296832
258999
223000
185500
149224
111114
73211.3
35120.9
3489.04
604449
582058
544218
550830
500561
505433
453483
437880
394749
367092
328163
295921
257842
222598
184885
148847
110697
72903.7
34801.8
3301.66
293648
448321
420767
510184
466571
489374
444251
429529
390068
362498
325121
292890
255979
220949
183695
147633
109815
72209.3
34553.7
2940.48
516778
541389
466931
550818
483616
495838
445020
428739
389300
361581
324648
292339
255679
220782
183547
147370
109524
72001.4
34590.7
2668.59
-85983.7
291867
242200
293119
296923
323241
316480
313655
295172
279462
255022
232770
205707
179136
149526
120229
89165
58398.8
27555.7
2075.11
199649
282489
263399
310268
313078
334289
323300
319571
299734
283382
257924
234839
206918
179918
150257
120971
89757.3
58937.4
27924.1
2294.62
24762
261919
269780
348449
333348
354968
335278
330372
307264
290062
262789
238814
209826
182240
152014
122497
91062.9
59900.3
28450.2
2621.76
234286
355201
348081
396506
371723
379563
354999
344327
317547
297557
268769
243562
213821
185326
154643
124690
92810.8
61120.8
29061.2
3035.26
645885
498892
435331
455464
408565
410958
376539
361170
329388
306403
275386
248949
218154
189085
157726
127252
94821.2
62547.8
29668.1
3417.78
508693
565132
509313
513751
459562
446817
404031
379113
343600
314956
283028
253872
222891
192806
161315
130121
97124.8
64214.2
30555
4010
987987
744135
598228
583915
495404
476371
425519
396621
356183
324886
290271
260026
228164
197836
165323
133134
99518.2
65908.3
31754.8
4696.8
800219
778259
652829
635257
548013
509780
455923
417495
375590
338922
303548
271346
239610
208833
170589
136299
101904
67674.5
32684.7
5391.22
936294
864568
683626
663040
563482
540002
485004
438285
393574
352116
314225
279941
247549
215748
179041
139356
103698
69105.9
33507.1
6244.54
982535
958967
711227
691296
590669
562029
507749
454548
406702
362119
321023
283549
250297
217877
180795
139508
104632
69990.7
34074.4
6837.16
947978
949200
737912
696991
598503
573714
519703
466598
417223
371128
328489
288171
254309
221771
181858
139896
105163
70454.3
34380.6
6675.33
1.11677e+06
988913
763886
720527
617974
584516
528387
473828
425478
379718
336713
295990
257551
222412
184738
141818
105732
71071.6
34370.4
7355.65
759653
828114
662265
692090
598598
562936
518698
471145
426431
383391
339491
298083
258287
221726
177523
143096
108060
72036.7
35045.1
7485
721744
822387
706634
697526
593584
563177
494523
459113
410471
371419
327595
291432
250500
217649
180924
146641
109679
73022.8
35293.2
7245.19
490211
659595
577109
608454
562484
541885
489205
455088
408769
372915
331264
293789
255424
220948
184934
149227
111224
73423.8
35358.3
5642.19
533629
690137
608905
618635
543572
536609
471665
450530
401008
370427
329236
297143
258632
223311
185620
149583
111236
73430.5
35063.1
4658.8
482691
554851
494649
549266
495769
504658
461105
442202
400356
369859
330571
296928
258973
222994
185408
149272
111137
73260.2
35062.2
4090.01
529585
566318
538176
548728
498447
506380
452812
438804
394425
367280
327864
295995
257710
222591
184796
148826
110730
72998
34781
3815.28
223429
438345
420893
503272
465145
490735
443591
430159
389876
362762
325047
293013
255952
220987
183669
147653
109819
72230.3
34561
3381.34
423408
534576
462515
547794
482381
495709
444833
428756
389150
361592
324592
292389
255689
220843
183503
147398
109503
71998.4
34631.8
3013.47
-120919
299345
224957
293763
297464
323463
315772
313593
294880
279337
254634
232780
205782
179423
149599
120306
89110.4
58313.3
27412.7
2577.83
72473.2
268819
254976
310898
311739
334576
322718
320041
299513
283435
257651
234873
206811
179979
150137
120940
89590.6
58879.1
27946.6
2963.72
-73764.1
272035
261153
351539
331675
355721
334638
330887
306976
290167
262476
238818
209671
182271
151947
122538
91057.4
59959.2
28592.8
3464.05
186301
356033
345380
395896
369736
380187
354390
344992
317205
297886
268753
243632
213669
185381
154598
124760
92850
61239.8
29175.2
3965.92
543974
495989
430018
454925
407611
412013
375688
362043
328816
306795
275185
249206
218049
189211
157670
127370
94881.7
62679.4
29666.1
4353.96
538823
558702
504708
515589
457769
448149
403372
379941
343293
315162
282853
253968
222884
192844
161275
130241
97204.9
64383.9
30522.9
5061.79
747272
706463
587554
583066
492070
477688
424399
397029
356322
325222
290340
260201
228146
197707
165143
133053
99503.6
66021.6
31957.6
5822.59
789429
746232
649309
637131
546680
510823
455348
417123
375960
339151
303758
270942
238889
207899
169840
135958
101774
67691.8
32982.6
6228.88
881433
832156
681285
661301
565680
538642
485220
438483
393807
352754
314780
280201
247041
214783
178011
138846
103415
69016.2
33866.7
6667.76
926666
925823
714264
685991
591875
561486
507572
454284
406445
361998
321674
284830
250553
217186
180101
139336
104550
69967.3
34485.2
6996.5
982960
945366
738548
694824
601447
572588
518232
465942
416822
369648
328549
290022
254186
220710
181737
140086
105257
70501.6
34676.9
6952.85
1.13515e+06
981822
770540
722216
618351
584312
527481
472732
425036
379510
336886
296206
257489
222235
185232
142186
106008
71213.2
34909.8
7197.74
690042
819670
669320
689923
599274
564582
519283
470632
424770
383492
339956
298439
258579
222229
178282
143565
108393
72242.7
35187.3
6932.06
936627
832484
713647
695840
595835
560244
496282
458671
411022
371487
328264
291526
250955
217127
180514
146380
109524
73076
35287.4
6776.38
581134
656626
588384
614450
563035
542420
488839
456833
409937
373308
331655
294034
255371
219875
184017
148719
111103
73428
35672
6371.43
732681
712471
616202
620816
544958
537384
472561
451687
401267
370801
328685
296464
257966
222827
185545
149592
111203
73601.4
34875
5888.94
508931
574293
498306
546124
493608
504189
460786
443004
400106
370073
330097
296924
258832
222907
185181
149274
111272
73467.8
35005.9
5232.63
445793
563297
538028
546384
496735
507636
452864
439351
394090
367409
327395
296233
257429
222561
184621
148897
110872
73245.7
34739.6
4965.31
197256
428743
416562
497631
462907
489042
442479
431242
389698
363191
324927
293235
255907
221075
183610
147748
109851
72312.9
34651
4337.84
274228
497862
461171
544698
480305
495277
444396
428925
389009
361657
324491
292480
255705
221022
183503
147446
109447
71998.6
34759
3755.23
88171.2
295264
222328
293040
296698
323597
315167
313601
294471
279107
253899
232798
205919
179958
149703
120378
89027.3
58215.8
27226.1
3477.97
-84778.9
241951
244006
310861
310236
335455
322052
320856
299272
283624
257281
234898
206617
180033
149939
120857
89287.1
58822.2
28213.1
4244.26
-195815
231959
249277
348892
329278
355992
334016
331336
306587
290297
262018
238847
209547
182377
151928
122624
91103.9
60122.4
28979.5
4646.64
36924.6
326932
333910
394184
367404
380675
354263
345714
316872
297912
268690
243665
213595
185452
154595
124821
92936.4
61436.3
29654.4
4918.48
430962
466675
420872
453615
405759
412806
374989
363151
328180
307333
274783
249561
217884
189435
157640
127517
95019.5
62945.4
30031.2
4797.72
435479
535678
498379
515211
456250
448514
402113
381133
343099
315714
282830
254332
222837
192892
161216
130136
97211.6
64498.2
30939.7
4850.94
705741
687330
573784
577980
491660
477019
424532
397253
356349
325462
290378
260256
227969
197525
164971
132928
99475.4
66131.9
32206
5104.68
556384
690486
646614
635982
546829
509991
455122
416908
375720
339311
303789
270769
238367
207150
169589
135715
101679
67735.8
33264.3
5215.36
764998
789722
676842
657787
567197
537528
484907
437959
393443
353120
315132
280453
246918
214264
177398
138789
103267
69024.4
34148
5407.56
757137
917876
716741
681870
593018
561224
506762
453559
406328
362746
322523
285606
250772
216834
179910
139484
104491
70009.5
34739.2
5608.09
951935
929092
742119
695439
602788
572576
517894
464278
416280
370559
329595
291000
254278
219962
181841
140383
105340
70468.9
34956.5
5645.51
1.16169e+06
975353
772785
722646
619057
584372
527852
471485
424055
379260
337007
296478
258136
222369
185406
142612
106203
71368.5
35297.6
5679.77
932583
829198
679788
688512
601804
563660
519084
470482
424238
381961
340048
299052
259398
223299
178915
143635
108272
72463.6
35724.2
5405.84
1.02384e+06
836785
721341
693690
598104
558340
497783
458303
411363
371910
329121
291763
251525
217042
180579
146239
109559
73139.5
35797.4
5262.78
547337
647562
587625
614805
564222
541748
489077
456922
410584
373320
332108
294168
255689
219911
183771
148329
111002
73514
36064.9
5253.91
676296
727916
613982
619070
547824
535461
474580
451419
401980
370930
329107
295867
257492
222240
184851
149188
111170
73820.5
35647.6
5495.66
584020
601249
502300
540957
493806
503720
460599
443502
399925
370291
329687
296309
257871
222533
184872
149317
111496
73841.1
35599.6
5574.63
439859
569222
539632
545487
496896
508675
452897
439986
393721
367736
326856
295643
256645
222245
184415
148843
111045
73633.7
35134.9
5933.76
120172
407171
410547
492585
462481
487428
440695
430755
389473
363324
324812
293259
255783
221121
183549
147770
109888
72467.7
34967.6
5647.09
371455
518486
459696
540923
477893
494457
443943
429273
388892
362001
324459
292735
255785
221341
183462
147517
109303
71973.6
34908.7
4903.95
124780
303372
219469
293588
296551
323868
314696
313692
293934
278776
252600
232850
206202
180952
149973
120656
89148.4
58362.1
27474.3
3262.4
-69244.4
238494
236657
312757
308871
336662
321050
322234
299123
284019
257189
235165
206769
180405
150085
121120
89558.5
58993.8
28405.9
2925.88
-303531
218400
251659
348279
329891
356525
333885
331655
306427
290474
262034
239105
209563
182482
151978
122697
91174
60203.5
29214.2
3256.89
70892.6
326948
327624
397271
368019
381308
354508
345763
317279
297906
268709
243718
213610
185498
154627
124851
93000.2
61521.7
29929.7
3402.17
419392
462271
417950
454159
405665
412041
375877
362636
328753
307070
275195
249380
218048
189324
157709
127447
95079.4
63011.6
30467.9
3360.63
305885
511999
492685
512628
456462
446815
403179
380688
343502
315746
283038
254311
222882
192847
161236
130072
97287.5
64634
31382.8
3435.9
721471
677056
563901
574768
493200
474767
425982
397299
356897
325679
290611
260334
227946
197397
164962
132878
99559.4
66302.6
32566.7
3670.33
521669
667940
647060
633118
547799
508178
455278
417165
375670
339540
303761
270574
238036
206804
169611
135648
101721
67904.5
33579.7
3847.67
807745
759247
676372
656730
567479
536504
484663
437829
393382
353404
315452
280447
246817
213976
177241
139008
103271
69153.2
34431
4041.99
766949
885838
716734
678714
593236
560183
506914
453270
406306
363111
323028
285942
250942
216896
180073
139820
104474
70099.5
34993.4
4219.79
1.02175e+06
928637
742954
696448
603074
572505
518222
463815
416035
371575
329996
291185
254412
219827
182070
140712
105352
70571
35269.5
4298.21
1.17841e+06
974225
775438
723522
619729
584082
528135
471540
423505
379044
336907
296827
258760
222720
185521
143105
106371
71572.1
35643.7
4345.51
891023
822828
685025
688353
604091
562693
518668
470310
424028
381619
339242
298891
259816
223366
179271
143643
108229
72616
36090.7
4171.08
963124
836089
719902
692809
598748
557525
498804
458013
411788
372078
329651
292164
252428
217698
180800
146158
109597
73273.6
36249.6
4053.94
597042
654942
592409
615329
565876
540817
489768
455894
410830
373084
332235
294234
256352
220009
183773
148110
110972
73642.1
36412
3999.77
626471
723105
614156
617674
550565
533764
476334
450576
403002
370850
329522
295791
257609
221997
184666
148971
111216
73900.7
36107.1
4285.72
724656
619263
504550
536320
495206
502031
461742
442848
400550
370012
329941
296002
257863
222342
184856
149141
111521
73934.6
36035.1
4469.08
81599.3
536247
526493
544383
498321
508120
454585
439367
394576
367446
327175
295281
256755
222100
184370
148764
111032
73625.2
35539.7
4808.89
235737
417066
410319
491320
463227
485008
441148
430332
389529
363366
324837
293245
255768
221134
183531
147771
109994
72528.7
35159.9
4807.44
374913
508027
456767
541072
475347
494600
443542
429775
388780
362400
324423
293119
255909
221932
183394
147633
108977
71839.2
34978.7
6583.39
331299
368049
337202
362605
332014
368746
337985
293641
326662
297816
322361
294364
327480
298988
339224
377397
345247
369843
339990
377262
345308
300039
334949
304339
329378
300932
335098
304551
450782
502691
463090
485262
450612
502959
463082
405767
450974
415242
438222
405567
450950
415174
362891
403950
370515
393559
362675
403902
370384
323519
359948
328995
352014
323339
359886
328965
286952
319269
290899
313975
286621
319342
290898
253927
282225
256888
279732
253805
282371
256965
222081
249321
225149
247662
221819
249453
225043
190485
217501
192211
215937
189935
217446
191971
467122
517430
476850
507675
467101
517900
476873
418299
463980
426859
454576
418272
464004
426785
373093
414951
380304
406739
372963
414840
380120
330921
369137
336961
362169
330915
368996
336931
292298
326527
296038
321010
292313
326503
296077
257985
286250
261268
283405
258085
286554
261397
226251
253526
229921
250226
226141
253427
229705
192943
221186
194527
218042
192798
221063
194385
479495
526822
485296
519912
479464
526883
485172
429397
472753
435772
466631
429295
472671
435644
382571
423827
388979
417289
382386
423709
388855
339014
377835
345237
371231
338992
377745
345216
297465
334732
303830
328491
297663
334726
303940
262302
293757
265524
287898
262377
293969
265479
230936
256720
231243
254335
230700
256582
230935
195052
222467
195624
221863
195022
222271
195533
486523
525677
488564
529074
486221
526122
488863
437381
476766
440890
474042
437245
477143
440836
390814
428828
396101
425551
390691
428941
395939
347191
384366
353057
379756
347129
384401
353031
305818
341043
311101
336688
305884
341027
311112
266857
299719
271246
295936
266753
299750
271168
231231
260461
233225
257581
231009
260371
233140
195857
223409
197239
222472
195678
223391
197062
450475
502959
463027
485370
449929
503740
462721
405489
450924
415111
438691
405032
450778
414843
362495
403860
370318
393799
362107
403721
370103
323209
359862
328953
352611
323376
359852
329055
286668
319388
290950
314717
287805
319839
291810
254024
282524
257152
280090
254647
283402
257569
221911
249509
224998
247113
222183
249702
224738
189682
217277
191882
214955
189615
216839
191418
467056
517938
476818
508158
466787
516822
476378
418235
463975
426735
454370
418015
463715
426482
372893
414778
380004
406515
372659
414509
379467
330905
368880
336925
361989
330997
367780
337064
292378
326491
296159
321415
293277
326588
297803
258247
286822
261484
284500
258675
288349
261840
226014
253403
229493
250497
225603
253347
228480
192684
220925
194344
217358
192101
220077
193944
479414
526991
485027
518563
478801
526286
484143
429239
472587
435558
466275
428967
472061
435174
382278
423637
388791
416941
381810
423320
388518
338988
377700
345217
370083
339113
377488
345236
297767
334750
303998
328570
299106
334883
304242
262450
294054
265477
289543
262801
294347
265482
230515
256539
230822
254240
229491
256438
230493
194983
222196
195499
221019
194694
221988
195266
485911
526232
488985
527520
485127
526145
489397
437139
476909
440682
473129
436695
476212
439820
390627
429018
395823
425167
390356
428874
395308
347119
384437
353023
379565
347101
384577
352930
305896
341049
311106
336831
306004
341196
310994
266734
299804
271163
296150
266677
299895
270965
230922
260387
233150
257483
230675
260313
233053
195592
223461
196987
222263
195208
223661
196459
450038
503706
462560
485335
450217
502946
462174
404923
450718
414733
438043
404841
450424
414494
362443
403679
370078
393522
363198
403600
370571
323557
359905
329348
353049
324188
360526
330013
288161
320089
292131
315031
288901
320741
292821
254742
283693
257690
280409
255072
284315
258022
222183
249765
224634
246929
222228
249948
224461
189595
216699
191274
214355
189407
216439
190822
466625
516357
475873
506971
465856
515972
474480
417918
463514
426362
453691
417656
462141
425839
372626
414396
379334
406337
373069
414061
379609
353998
351405
364356
362189
353666
351667
364550
313816
312048
323311
321932
313554
312334
323575
258805
288883
261973
285506
259139
289751
262249
225457
253292
228214
250716
225198
253341
227682
191968
219797
193850
216858
191539
219180
193470
478217
526078
483579
517969
476796
526023
482358
428836
471771
435007
464500
428189
470297
434202
381688
423183
388403
416394
381702
422577
388136
361150
360564
372442
371357
361613
361942
372216
321060
317917
331010
329080
320778
318113
331231
262934
294457
265512
290927
263179
294825
266055
229197
256441
230406
254186
228587
256977
230316
194579
221922
195226
220032
194175
221721
195287
484796
526025
489412
527798
483978
526289
489371
436508
476069
439441
471564
435560
475667
438819
390240
428400
395048
424351
389856
426698
394391
347098
384644
352867
379398
347086
384165
352323
306048
341303
310966
337036
306116
341674
310543
266661
300017
270958
296400
266701
300316
270727
230608
260365
232941
257885
230748
260933
232490
195127
223804
196306
222314
195484
224556
196807
450196
502656
462081
484925
450227
502604
461904
404900
450320
414459
437886
405189
450102
414425
363359
403584
370677
393407
363960
403581
370918
324423
360630
330182
353335
325019
360889
330591
289066
320907
292969
315411
289457
321317
293319
255220
284444
258121
280481
255572
284734
258351
222280
250007
224462
246873
222431
250154
224495
189543
216420
190888
214059
189729
216411
190856
465717
515871
474308
507008
465465
516022
474001
417593
461930
425676
453305
417495
461539
425420
373178
413996
379817
406296
373411
413850
380207
332179
368703
338039
363036
332569
369489
338290
294478
327702
299515
322921
294773
328112
299068
259229
289773
262300
285873
259429
289823
262410
225188
253360
227641
250914
225231
253422
227559
191602
219120
193526
216868
191590
219007
193409
476632
525949
482280
518359
476353
526154
482384
427971
470134
433879
463893
427673
469928
433379
381916
422337
388102
416076
382272
421900
388049
340022
377268
345338
371501
340140
377288
345419
300745
335117
304670
329906
300531
335198
304886
263225
294959
266305
291159
263284
295187
266644
228545
257188
230333
254448
228466
257550
230577
194263
221707
195411
219856
194217
221883
195508
483897
526211
489276
528192
483899
526618
488852
435163
475591
438792
471542
434776
475163
438842
389769
426425
394239
423577
389594
425971
394084
347035
383792
352000
379070
346926
382966
351613
306122
341826
310382
336910
306275
340945
310402
267053
300607
270676
296768
267662
300539
271615
230839
261340
232797
258656
231175
261829
233683
195653
224641
197236
222638
195844
224770
198126
450264
502409
461884
484513
450643
501860
461921
405237
450070
414442
437663
405553
450035
414541
364172
403602
370992
393486
364380
403686
371198
325219
360961
330701
353485
325940
361139
330992
289577
321425
293405
315527
289738
321650
293565
255670
284798
258401
280362
255775
284862
258481
222495
250182
224508
246645
222648
250169
224526
189987
216414
191047
213772
190500
216368
191417
465430
515860
473949
506320
465371
515019
473767
417488
461451
425364
453172
417566
461137
425295
373479
413823
380285
406411
373680
413848
380505
332671
369561
338368
363317
332923
369759
338572
294850
328218
299131
323268
294984
328440
299245
259467
289841
262435
285991
259461
289833
262330
225255
253496
227495
250912
225294
253493
227483
191797
218937
193547
216932
192246
218925
193927
476312
526077
482406
518055
476186
525653
482435
427604
469884
433307
463575
427473
469650
433167
382347
421821
388041
416016
382562
421568
388094
340203
377294
345447
371767
340366
377356
345517
300587
335228
304910
330178
300691
335278
304832
263334
295135
266721
291171
263260
295156
266775
228434
257641
230651
254425
228309
257739
230726
194385
221936
195683
219736
194707
222041
196097
483978
526663
488816
527793
484147
526481
489125
434726
475071
438889
471523
434612
475037
439346
389563
425898
394081
423339
389547
426029
394148
346933
382729
351630
378989
346942
382595
351740
306298
340647
310579
336817
306280
340387
310904
267771
300547
271874
296815
267928
300461
272364
231271
261843
233922
258923
231433
261795
234442
196049
224813
198516
222870
196551
224859
199264
343730
341390
333251
331571
343460
341628
333529
354891
365872
358347
369338
354856
365950
357796
345312
334999
348066
337352
345175
335256
348351
354298
362393
352127
364957
351956
364752
354466
344017
331824
342064
333989
341887
333802
344167
355273
369637
366469
358974
366131
358217
355791
345614
337512
335724
348656
335529
348326
345887
304393
302864
294822
293997
304113
303189
295179
315580
324945
316192
326748
315201
325264
315971
306861
296813
306560
297482
306227
297271
307366
314067
322175
312763
324031
312581
323830
314286
304650
294216
303588
295601
303430
295415
304858
315834
326924
325737
317028
325553
316126
315957
307068
297988
297711
307244
297614
307387
306968
351762
350246
341365
339837
351731
351010
341542
364370
375358
366391
377320
364365
375338
366314
353752
343256
355809
345266
353760
343299
355788
361291
371538
361397
372553
362282
372212
361942
351914
340224
351041
341858
351464
341704
352217
364369
377275
375313
366305
375318
366280
364410
353751
345287
343477
355830
343367
355795
353914
312030
308341
301134
298345
311321
307895
301835
322716
332924
324650
335021
322615
333016
324742
312501
302254
314529
304427
312476
302286
314652
321360
329393
318777
331561
318450
331437
321405
312208
298659
308941
302202
307743
302269
311947
322831
335076
333207
324830
333108
324808
322948
312628
304498
302816
314820
302526
314746
312852
439765
472075
448247
456659
439668
472003
447988
398784
428427
404800
417173
398717
428463
404599
358388
384968
361962
375497
358173
385049
361688
321805
345317
323512
338482
321663
345513
323301
286785
308725
287220
303179
286695
309037
286858
255245
275746
254587
271141
255054
276023
254334
223433
244002
222633
239395
223193
244263
222285
193850
212672
191839
208615
193563
212893
191533
508985
554090
517741
539194
508744
554349
517444
478831
474845
492991
485162
474807
492999
478849
431002
428377
443560
438171
428386
443544
431017
386205
384312
398120
393563
384299
398109
386235
344366
343288
355517
351911
343288
355558
344389
305786
305780
316372
313673
305791
316437
305810
270361
271057
280864
279200
271032
281009
270432
238270
239329
249149
247526
239249
249302
238394
206487
207668
217601
215920
207595
217707
206622
163746
181875
160028
179039
163483
181994
159736
527299
569575
533525
562449
527064
569662
533139
497069
493270
511383
507409
493287
511420
497039
445400
442147
457936
454588
442146
457974
445348
398064
395368
409610
406777
395341
409596
398094
353725
351586
364581
362251
351557
364553
353744
312869
311220
322767
321008
311221
322766
312874
275535
274515
284368
283314
274514
284370
275530
243480
242212
251226
250168
242212
251229
243484
210504
209773
218971
218139
209757
218959
210520
162502
181373
163374
180927
162385
181316
163268
536845
581084
540832
575088
536351
580371
540310
507660
505560
521966
519736
505570
521930
507711
456395
453980
469097
466657
453960
469072
456423
407889
405619
419760
417382
405583
419726
407926
362536
360344
373611
371339
360315
373575
362571
320232
318115
330632
328494
318128
330638
320212
279888
278440
289179
287493
278407
289370
279884
247393
246728
255221
254398
246701
255192
247456
213333
213019
222364
221946
213011
222338
213340
164020
182285
164006
181919
163921
182227
163905
540822
579490
542560
584823
540814
578841
542862
514024
513337
530951
529394
513265
530887
514071
462627
461497
475570
474194
461478
475502
462685
415362
413745
427353
425637
413711
427332
415401
370595
368763
381784
379812
368734
381770
370625
327925
326180
338644
336660
326156
338619
327958
287607
285894
297687
295865
285903
297716
287594
249260
248547
258822
257657
248492
258778
249313
213839
213670
223045
222584
213634
223018
213875
164005
182383
168260
184627
163806
182455
168117
490786
513773
491180
518677
490792
514051
491956
444669
469068
447400
471724
444375
468287
447009
400346
423809
403575
426207
400099
423845
403119
358710
382754
362591
383105
358674
383072
362532
316289
338312
320125
339340
316204
338401
320102
276260
297636
280525
297983
276195
297695
280479
237653
257811
241900
258261
237546
257816
241803
201435
222063
206499
221655
201295
222107
206343
439599
471539
447596
456012
439761
471685
447235
398580
428696
404311
417782
398330
429001
403869
357711
385261
361197
375871
357727
385595
360818
321426
345863
323002
339089
321542
346248
323202
286767
309659
286949
303661
287444
309824
287682
254663
276004
254451
271068
254840
275902
254601
222882
244176
222293
239271
223049
243739
222585
193135
212628
191055
208476
192643
212030
190955
508181
554786
516886
539702
507405
554144
515962
478540
474625
493056
485213
478606
474589
493436
430616
428244
443629
438378
430763
428131
443692
385835
384220
398180
393618
385963
384166
398230
344055
343169
355770
352285
344169
343094
355919
305532
305570
316952
314511
305587
305509
317250
270823
271176
281877
279990
270478
271481
282008
238475
239092
249391
247368
238305
239213
249246
206180
207151
217464
215479
206162
207119
217206
163031
181936
159358
178605
162738
181445
159318
526705
568838
532300
562004
525482
568369
531776
497025
493272
511894
508096
497053
493273
512189
445335
442078
457952
454503
445395
442024
457901
397842
395207
409500
406649
397918
395137
409442
353597
351436
364410
362067
353630
351390
364361
312895
311231
322745
321065
312856
311282
322766
276204
274747
284616
283841
275877
275075
284947
243267
242207
251309
250366
243329
242204
251346
210000
209498
218710
217705
210231
209304
218460
162205
181188
163130
180399
162129
181011
163014
535334
578810
539394
572999
534899
578415
539805
506779
505239
521725
519411
507333
504881
521389
456176
453877
468967
466540
456261
453813
468889
407612
405401
419554
417142
407703
405314
419468
362275
360161
373360
370940
362376
360114
373226
320404
318148
330674
328495
320339
318147
330712
280679
279028
289994
288529
280441
279437
290223
246906
246364
255079
254287
247046
246212
255057
213183
212855
222152
221620
213251
212743
222029
163811
182174
163822
181803
163665
182151
163692
541283
578919
543605
584596
542485
579126
544789
513317
513146
529571
527924
513744
512781
529055
461708
461156
474925
473551
461926
460959
474966
415022
413527
427176
425388
415132
413431
427108
370447
368627
381719
379672
370490
368578
381695
328003
326227
338651
336743
327977
326265
338680
287582
285985
297767
296042
287597
286014
297794
249092
248318
258725
257524
249128
248263
258715
213584
213456
222917
222356
213655
213378
222896
163507
182616
167957
184935
163112
182890
167671
491873
514279
493036
519467
492118
514276
493426
443247
467813
446817
470709
442541
467638
446819
399646
423160
402887
425915
399015
422786
402897
358599
382756
362423
383730
358454
381481
362181
316108
338648
320055
339695
315937
338996
319907
276080
297820
280412
298222
275916
297990
280254
237305
257860
241570
258373
236984
257953
241134
201058
222208
206107
221903
200650
222423
205738
440456
471110
448027
455991
440636
471708
448040
397810
428403
403191
416872
397978
428202