/*--------------------------------*- C++ -*----------------------------------*\
  =========                 |
  \\      /  F ield         | OpenFOAM: The Open Source CFD Toolbox
   \\    /   O peration     | Website:  https://openfoam.org
    \\  /    A nd           | Version:  10
     \\/     M anipulation  |
\*---------------------------------------------------------------------------*/
FoamFile
{
    format      ascii;
    class       volScalarField;
    location    "8.6";
    object      turbidity;
}
// * * * * * * * * * * * * * * * * * * * * * * * * * * * * * * * * * * * * * //

dimensions      [0 0 0 0 0 0 0];

internalField   nonuniform List<scalar> 
12920
(
-0.0394308
-0.051277
-0.0563467
-0.0581271
-0.0667293
-0.0938509
-0.130769
-0.157089
-0.165398
-0.159249
-0.153119
-0.150963
-0.157382
-0.172519
-0.199361
-0.233289
-0.266945
-0.290177
-0.302058
-0.308404
-0.0173351
-0.0386044
-0.0535581
-0.0634603
-0.0767472
-0.0994224
-0.129452
-0.165669
-0.196209
-0.213682
-0.221754
-0.228666
-0.241038
-0.261993
-0.291076
-0.321341
-0.343726
-0.356051
-0.369614
-0.39
-0.0201144
-0.0376757
-0.0630598
-0.0894987
-0.11852
-0.15058
-0.189736
-0.228453
-0.260938
-0.282651
-0.295735
-0.304137
-0.315318
-0.332333
-0.354761
-0.378664
-0.400832
-0.42094
-0.443338
-0.467779
-0.024149
-0.0332753
-0.0495689
-0.0690208
-0.0964679
-0.136943
-0.179802
-0.218871
-0.262054
-0.302619
-0.334064
-0.356438
-0.372642
-0.386166
-0.400693
-0.416785
-0.434555
-0.454017
-0.476024
-0.499701
-0.0319044
-0.0289521
-0.0468324
-0.0684734
-0.0894928
-0.118192
-0.150571
-0.18759
-0.227418
-0.271072
-0.311674
-0.345032
-0.370847
-0.390578
-0.408142
-0.424395
-0.442129
-0.461378
-0.483897
-0.50612
-0.0105377
-0.0231641
-0.0398026
-0.0596214
-0.0845269
-0.112072
-0.142992
-0.178923
-0.221128
-0.268222
-0.312196
-0.350447
-0.380046
-0.402462
-0.422915
-0.441851
-0.461752
-0.481451
-0.501654
-0.520832
-0.0100342
-0.0170915
-0.0298259
-0.0544246
-0.0854995
-0.117028
-0.15233
-0.188728
-0.221482
-0.255101
-0.281391
-0.312935
-0.340968
-0.373184
-0.405908
-0.43666
-0.46531
-0.490099
-0.512588
-0.532484
-0.0142429
-0.0243816
-0.0391837
-0.0636039
-0.0909621
-0.118272
-0.126751
-0.13921
-0.152929
-0.155597
-0.167063
-0.178495
-0.198074
-0.223332
-0.245045
-0.302563
-0.351077
-0.390952
-0.425763
-0.453569
-0.0279778
-0.043009
-0.0586193
-0.0780396
-0.100925
-0.105956
-0.1124
-0.110078
-0.119083
-0.122558
-0.111248
-0.115421
-0.120084
-0.122404
-0.142192
-0.176001
-0.23069
-0.279369
-0.323951
-0.361694
-0.0319034
-0.0583624
-0.0654493
-0.0813623
-0.0997775
-0.0975785
-0.0966752
-0.0870218
-0.0802894
-0.0777443
-0.0782948
-0.0951966
-0.0978282
-0.092656
-0.0963829
-0.132982
-0.187522
-0.23941
-0.286797
-0.329084
-0.0474754
-0.0699061
-0.0720812
-0.094662
-0.115555
-0.107902
-0.0974882
-0.0796615
-0.0668715
-0.0604251
-0.068966
-0.0925221
-0.0932665
-0.0897132
-0.0927196
-0.128914
-0.177634
-0.227179
-0.275626
-0.323152
-0.0229672
-0.0681835
-0.089722
-0.127435
-0.146632
-0.120515
-0.109511
-0.0874489
-0.0734643
-0.0629822
-0.0571508
-0.071029
-0.0780242
-0.080331
-0.098434
-0.1443
-0.196096
-0.254916
-0.322691
-0.395032
-0.0375112
-0.0637791
-0.0713021
-0.100225
-0.129183
-0.156659
-0.155823
-0.149601
-0.141894
-0.111612
-0.0892631
-0.0758447
-0.074437
-0.0911368
-0.172388
-0.237722
-0.313973
-0.397034
-0.479285
-0.55011
-0.0828835
-0.0599385
-0.0638553
-0.0938464
-0.125195
-0.157798
-0.196294
-0.24064
-0.259828
-0.268522
-0.24021
-0.233164
-0.241503
-0.277438
-0.325413
-0.384636
-0.444219
-0.497647
-0.543616
-0.587004
-0.045932
-0.0386961
-0.0527245
-0.0746396
-0.10119
-0.133671
-0.173949
-0.21825
-0.263477
-0.298673
-0.303802
-0.302688
-0.301193
-0.310222
-0.325107
-0.347939
-0.373948
-0.400956
-0.431953
-0.472493
-0.0581792
-0.0616066
-0.0705035
-0.0994646
-0.1236
-0.154502
-0.192647
-0.241833
-0.285204
-0.3177
-0.333064
-0.338717
-0.339945
-0.337888
-0.340344
-0.348111
-0.360395
-0.377473
-0.399671
-0.427014
-0.0270532
-0.0761904
-0.0954541
-0.11674
-0.139973
-0.171458
-0.210302
-0.254812
-0.293781
-0.323322
-0.34318
-0.356329
-0.365138
-0.37343
-0.382363
-0.393574
-0.406974
-0.422739
-0.441997
-0.46628
-0.0267543
-0.0476839
-0.085341
-0.125726
-0.15716
-0.190974
-0.22822
-0.267334
-0.302373
-0.331976
-0.356363
-0.376647
-0.393469
-0.409203
-0.424606
-0.440865
-0.458534
-0.478473
-0.501921
-0.529686
-0.0306182
-0.062147
-0.0912636
-0.122117
-0.145261
-0.169475
-0.194727
-0.215967
-0.231807
-0.241044
-0.256932
-0.274369
-0.295688
-0.31637
-0.339842
-0.364175
-0.393789
-0.425109
-0.456018
-0.492063
-0.0436823
-0.0524173
-0.0766342
-0.106363
-0.140097
-0.169394
-0.195795
-0.218455
-0.238974
-0.256513
-0.272469
-0.287836
-0.303053
-0.318173
-0.332671
-0.344859
-0.354224
-0.359251
-0.366192
-0.379737
-0.0128308
-0.0232829
-0.0299436
-0.0384335
-0.0544592
-0.0669228
-0.0688186
-0.0552678
-0.0393768
-0.0292847
-0.0237704
-0.0209425
-0.0199068
-0.0199379
-0.0205832
-0.0211526
-0.0213409
-0.0211778
-0.0215968
-0.0238364
-0.00791119
-0.0174159
-0.0287118
-0.0361145
-0.0447999
-0.0505429
-0.0673574
-0.0771349
-0.084105
-0.084737
-0.087985
-0.0913347
-0.095674
-0.095405
-0.0870886
-0.068195
-0.0493616
-0.0431644
-0.049563
-0.0687443
-0.00314316
-0.0136903
-0.0274257
-0.038276
-0.0389351
-0.0315677
-0.038166
-0.0501978
-0.0706458
-0.0860677
-0.0994302
-0.104799
-0.103642
-0.0930136
-0.0771854
-0.0618183
-0.0548388
-0.0589049
-0.0742308
-0.0953824
-0.00600599
-0.00684965
-0.0162686
-0.0303995
-0.0442082
-0.0360348
-0.0307107
-0.0326033
-0.0417544
-0.0481091
-0.0567207
-0.0587865
-0.0576524
-0.0523047
-0.0473299
-0.0436617
-0.0451793
-0.0515737
-0.0645834
-0.0783011
-0.0124716
-0.00849261
-0.0117473
-0.0202448
-0.0359462
-0.0393322
-0.0491679
-0.0551975
-0.0690842
-0.067909
-0.0622773
-0.0498048
-0.0415719
-0.034647
-0.031127
-0.0303949
-0.0321773
-0.0359239
-0.0423248
-0.0485317
-0.00492381
-0.00680057
-0.00920038
-0.0132707
-0.0219455
-0.0317432
-0.0539694
-0.0723775
-0.0878854
-0.083554
-0.0671461
-0.0464867
-0.0337913
-0.0275736
-0.0247818
-0.0240877
-0.0248225
-0.026464
-0.0295027
-0.0342357
-0.0036624
-0.0044236
-0.008663
-0.0147785
-0.027157
-0.0404174
-0.0629275
-0.0782807
-0.079416
-0.0667292
-0.0461396
-0.0297864
-0.021321
-0.0183961
-0.017757
-0.0184374
-0.0200806
-0.0224017
-0.0271952
-0.0378987
-0.00196351
-0.0023341
-0.0060391
-0.0140953
-0.0269494
-0.0407528
-0.0541523
-0.0760314
-0.0865944
-0.0859953
-0.0632174
-0.0306907
-0.0172278
-0.0142869
-0.0137931
-0.0155669
-0.0182502
-0.0224263
-0.0299439
-0.0436713
-0.0134715
-0.00962273
-0.00812921
-0.0131814
-0.023713
-0.0334022
-0.0477772
-0.070002
-0.0746019
-0.080752
-0.0813451
-0.0416558
-0.0143917
-0.0114203
-0.0120394
-0.016748
-0.0222124
-0.0294129
-0.0391045
-0.0509242
-0.0042224
-0.0172118
-0.00813748
-0.0102738
-0.0155087
-0.0213681
-0.0426839
-0.0445102
-0.0332746
-0.0452555
-0.0695632
-0.0442134
-0.021635
-0.0149807
-0.01363
-0.0236965
-0.0304609
-0.036641
-0.0418726
-0.0474594
-0.0309474
-0.020549
-0.0119963
-0.0155002
-0.019737
-0.0194262
-0.0241371
-0.017681
-0.0193357
-0.0340159
-0.0641748
-0.0638932
-0.0671694
-0.0646535
-0.0369873
-0.0340509
-0.0378267
-0.0427923
-0.0480744
-0.0541885
-0.0293989
-0.0185208
-0.0182789
-0.0288166
-0.0242475
-0.0236795
-0.0349131
-0.023664
-0.0184059
-0.0223497
-0.0401571
-0.0603521
-0.0629122
-0.0747235
-0.0738874
-0.0583521
-0.0603389
-0.0664782
-0.0750239
-0.0803694
-0.0258321
-0.0132991
-0.0125033
-0.0168803
-0.0281652
-0.0385823
-0.0503714
-0.0556606
-0.0540412
-0.0464717
-0.0445818
-0.0489682
-0.0588623
-0.0781151
-0.0775105
-0.0779144
-0.0794683
-0.0794482
-0.080067
-0.0831592
-0.0586418
-0.0292559
-0.018552
-0.0226078
-0.0411443
-0.0482546
-0.0598985
-0.0784588
-0.0733045
-0.0707025
-0.0672919
-0.0687471
-0.0649394
-0.0598374
-0.0570489
-0.0570904
-0.0600862
-0.0658254
-0.0756153
-0.0884719
-0.0209779
-0.0230782
-0.0273835
-0.0320025
-0.0433081
-0.0476615
-0.0644372
-0.0727487
-0.0810897
-0.0697306
-0.0566298
-0.0485205
-0.0446995
-0.0421866
-0.0430756
-0.0468626
-0.0532039
-0.0622773
-0.0761472
-0.0947182
-0.0633841
-0.0297514
-0.0241946
-0.0323939
-0.0522244
-0.0645485
-0.0825944
-0.0849594
-0.0843093
-0.0724781
-0.0602058
-0.0481418
-0.0413171
-0.0384637
-0.0391086
-0.0427085
-0.0494169
-0.0601987
-0.077498
-0.100839
-0.0190017
-0.033777
-0.0264407
-0.0371216
-0.0522373
-0.0733275
-0.0960021
-0.101895
-0.103483
-0.0968904
-0.090161
-0.0822445
-0.0785109
-0.0738819
-0.0753653
-0.081882
-0.0937359
-0.110891
-0.13301
-0.152243
-0.00974256
-0.0231015
-0.0355059
-0.0572591
-0.08488
-0.098123
-0.10545
-0.0954195
-0.0904003
-0.085668
-0.0895614
-0.0939102
-0.104251
-0.114096
-0.128036
-0.143458
-0.160377
-0.176022
-0.189032
-0.188659
-0.0035389
-0.0154084
-0.0348342
-0.0587034
-0.0828998
-0.0838222
-0.0756756
-0.0494963
-0.0315004
-0.0232925
-0.0221001
-0.0238788
-0.0278959
-0.0333135
-0.0418319
-0.0547695
-0.0753255
-0.106148
-0.154052
-0.196288
-0.00765021
-0.0191347
-0.0295309
-0.037888
-0.0400534
-0.0380526
-0.0340601
-0.0319873
-0.0348148
-0.0388004
-0.0446889
-0.0477793
-0.0507088
-0.0498641
-0.0480728
-0.0448772
-0.042437
-0.0424482
-0.049483
-0.0675782
-0.0151012
-0.0175948
-0.0236141
-0.0297033
-0.0403104
-0.0413857
-0.0353158
-0.0264271
-0.0209734
-0.0182328
-0.0166736
-0.0151854
-0.0136866
-0.0121738
-0.0110158
-0.0103283
-0.0102384
-0.0109096
-0.0126242
-0.0154837
-0.00622118
-0.0124381
-0.0185144
-0.0210414
-0.0261936
-0.0257035
-0.0329954
-0.0342859
-0.0378561
-0.0387598
-0.0406242
-0.0392849
-0.03651
-0.0310211
-0.0251039
-0.0203541
-0.0195237
-0.0227318
-0.0295179
-0.0388336
-0.00194276
-0.0083514
-0.0136617
-0.0166094
-0.0151332
-0.0145003
-0.0189295
-0.0239256
-0.0313845
-0.0359035
-0.0391918
-0.0377363
-0.0341139
-0.0286785
-0.0250609
-0.0243659
-0.0269129
-0.0316183
-0.0378661
-0.0433741
-0.00582823
-0.00658736
-0.0107509
-0.0153681
-0.0191201
-0.0146982
-0.0152152
-0.015825
-0.0170075
-0.0173206
-0.0181316
-0.0180804
-0.0179943
-0.0179558
-0.0188088
-0.0205167
-0.0230524
-0.0257875
-0.0286826
-0.0305159
-0.00724034
-0.00826431
-0.00842917
-0.0121016
-0.0187863
-0.0196323
-0.0258656
-0.0256944
-0.0267589
-0.0222855
-0.0187315
-0.0157241
-0.0144667
-0.0141224
-0.0145204
-0.0153915
-0.0164863
-0.0175125
-0.0185135
-0.0190654
-0.00203955
-0.00404827
-0.00741837
-0.0122209
-0.020147
-0.0266929
-0.0378305
-0.0391905
-0.0368077
-0.027296
-0.0189211
-0.0137447
-0.0116483
-0.0111024
-0.0111423
-0.011545
-0.0121487
-0.0128866
-0.0138957
-0.0152981
-0.000912128
-0.00319058
-0.00697308
-0.014667
-0.0255112
-0.0322793
-0.0381064
-0.0367843
-0.0285364
-0.0197852
-0.0130024
-0.00999568
-0.00892288
-0.00890744
-0.00940567
-0.010391
-0.0119205
-0.0141027
-0.0172105
-0.0215413
-0.000577888
-0.0022004
-0.00503018
-0.0108865
-0.0191496
-0.0272791
-0.0320077
-0.0378192
-0.0360186
-0.0266626
-0.0149243
-0.00895204
-0.00778018
-0.00792897
-0.00990516
-0.0119539
-0.0144808
-0.0174156
-0.0206468
-0.0238747
-0.00456923
-0.00483171
-0.00496284
-0.00708525
-0.0120388
-0.0195002
-0.0267105
-0.0335759
-0.0349794
-0.0342242
-0.021287
-0.00892735
-0.00708036
-0.00768878
-0.0100777
-0.0155134
-0.0183342
-0.0207771
-0.0227221
-0.0240586
-0.00598791
-0.00643049
-0.0034933
-0.00453594
-0.0072737
-0.0104206
-0.018144
-0.0200672
-0.0219291
-0.0341637
-0.0275567
-0.0120377
-0.00966073
-0.0100046
-0.0139873
-0.0186399
-0.0208127
-0.0227323
-0.0245825
-0.0266236
-0.0329277
-0.0052742
-0.00497672
-0.00616979
-0.008457
-0.00929666
-0.0113067
-0.013431
-0.0186779
-0.032289
-0.0378167
-0.0374668
-0.0446492
-0.0332779
-0.0218314
-0.0233015
-0.0247543
-0.0262741
-0.0278378
-0.0296052
-0.030215
-0.0132444
-0.00952963
-0.0117336
-0.0143822
-0.0197318
-0.024161
-0.0232818
-0.0252315
-0.0321484
-0.0424629
-0.0513212
-0.0587435
-0.060183
-0.0393198
-0.0310608
-0.0306474
-0.0309676
-0.0314048
-0.0313929
-0.0150754
-0.0120609
-0.0107255
-0.0119355
-0.0181352
-0.0247241
-0.0289976
-0.0379656
-0.0434481
-0.0480325
-0.0521786
-0.0546894
-0.0599867
-0.060824
-0.0368691
-0.033543
-0.031728
-0.0302333
-0.0296164
-0.0296554
-0.0170032
-0.016324
-0.0152663
-0.0166128
-0.0254721
-0.029048
-0.0343751
-0.0374931
-0.0371333
-0.0364611
-0.0397587
-0.0388301
-0.0349152
-0.0299817
-0.0279285
-0.0277715
-0.0288019
-0.0304429
-0.0327125
-0.0345707
-0.0105339
-0.0136419
-0.0156374
-0.0179394
-0.0251381
-0.0290032
-0.0371906
-0.0357807
-0.034447
-0.0277566
-0.0259708
-0.0244877
-0.0242345
-0.0242782
-0.0256939
-0.0282096
-0.0314502
-0.0352861
-0.0400213
-0.0439386
-0.0184065
-0.0136413
-0.0136722
-0.0206624
-0.0330834
-0.0374965
-0.0429942
-0.0385082
-0.0335579
-0.0275008
-0.0238914
-0.02231
-0.0228824
-0.0248299
-0.0278892
-0.0318609
-0.0366032
-0.0422331
-0.049443
-0.0560084
-0.0115295
-0.0175723
-0.0125512
-0.0159064
-0.0249624
-0.036942
-0.0472339
-0.0452919
-0.0423976
-0.0372042
-0.0343497
-0.0331716
-0.0347648
-0.0377571
-0.0424501
-0.0478272
-0.0534045
-0.0589959
-0.0653439
-0.0674258
-0.00285194
-0.00838916
-0.0131159
-0.0287293
-0.0479211
-0.0497786
-0.0468475
-0.0373723
-0.0341385
-0.0328462
-0.0360589
-0.0403763
-0.0476927
-0.0553601
-0.0643222
-0.0722936
-0.0786108
-0.0811045
-0.0803996
-0.0713766
-0.00697859
-0.0148724
-0.0216939
-0.0357513
-0.0478894
-0.0385767
-0.0282989
-0.0176047
-0.0132765
-0.0123563
-0.0135309
-0.0158117
-0.0192727
-0.0238915
-0.0305001
-0.0393582
-0.0510682
-0.0650347
-0.0820449
-0.0922503
-0.0112079
-0.013219
-0.01729
-0.0217404
-0.0232356
-0.0227144
-0.0201972
-0.0171948
-0.0154386
-0.0147848
-0.0158278
-0.0169588
-0.0182842
-0.0188047
-0.0191322
-0.0195804
-0.0214381
-0.0257312
-0.0345558
-0.0459032
-0.00565056
-0.0111647
-0.0166813
-0.021617
-0.0254766
-0.022479
-0.0181946
-0.0146873
-0.0128744
-0.0114892
-0.0101975
-0.00890339
-0.00789233
-0.00734566
-0.0073078
-0.00785547
-0.00890312
-0.0103832
-0.0121463
-0.014037
-0.00416518
-0.00640534
-0.00910725
-0.0116595
-0.0138374
-0.0128921
-0.0142709
-0.0142701
-0.0151806
-0.0145932
-0.0141762
-0.0126302
-0.0117447
-0.0110566
-0.0113503
-0.0124688
-0.0144549
-0.0170022
-0.0199933
-0.0229876
-0.000578207
-0.00291411
-0.00542935
-0.00761062
-0.00829679
-0.00920413
-0.0111884
-0.0125603
-0.0143641
-0.0144707
-0.0145774
-0.0136
-0.0131495
-0.0130687
-0.0139251
-0.0153273
-0.0171329
-0.0189698
-0.0208455
-0.022087
-0.00055765
-0.00193462
-0.00451626
-0.00697514
-0.00894077
-0.00872284
-0.00956902
-0.00963609
-0.00966707
-0.00962915
-0.0097436
-0.00992705
-0.0104228
-0.0111408
-0.0120979
-0.0130968
-0.0141042
-0.0149643
-0.0158137
-0.0164018
-0.00136005
-0.00343127
-0.00547193
-0.00847038
-0.0122068
-0.0123003
-0.0140191
-0.0120985
-0.0112089
-0.00976361
-0.00894601
-0.00854759
-0.00857444
-0.00892617
-0.00944468
-0.0100703
-0.0106993
-0.0113129
-0.0120009
-0.0126928
-0.00152227
-0.00321239
-0.00635523
-0.0112534
-0.0175573
-0.018678
-0.0199939
-0.0162319
-0.0128643
-0.00944566
-0.00757659
-0.00692443
-0.00688949
-0.00724761
-0.00772494
-0.00832153
-0.00899124
-0.00977147
-0.0107398
-0.0119237
-0.00064358
-0.00305677
-0.00714228
-0.0131117
-0.0187384
-0.0188542
-0.016694
-0.0136018
-0.0095046
-0.00735596
-0.00622401
-0.00606653
-0.00636209
-0.00695133
-0.00776986
-0.00875636
-0.00993089
-0.0113106
-0.0129519
-0.0148495
-0.000578048
-0.00232038
-0.00469884
-0.00878259
-0.0126837
-0.0150652
-0.0153874
-0.0146164
-0.0112728
-0.00789909
-0.00608707
-0.00579697
-0.00618523
-0.00688837
-0.00855946
-0.00950028
-0.0104597
-0.0114859
-0.0126599
-0.0139442
-0.00464144
-0.00293643
-0.00319738
-0.00507794
-0.00798422
-0.0116307
-0.0137785
-0.0142422
-0.0120365
-0.00926713
-0.00637412
-0.00599301
-0.00680656
-0.00777824
-0.00921349
-0.0103123
-0.0109697
-0.0116157
-0.0123078
-0.0130479
-0.00917009
-0.00460074
-0.00301584
-0.0038268
-0.00624765
-0.00789818
-0.0106695
-0.0104736
-0.0103776
-0.0115595
-0.00813667
-0.00804896
-0.00907833
-0.00999214
-0.0114976
-0.0141435
-0.0152232
-0.0161722
-0.0169455
-0.0176002
-0.0110975
-0.00375018
-0.00412678
-0.0060103
-0.0091156
-0.0108362
-0.0121471
-0.011469
-0.0124909
-0.0164883
-0.0207048
-0.0246214
-0.0235316
-0.0172795
-0.0159848
-0.0173219
-0.0183436
-0.019517
-0.0207533
-0.0219433
-0.0281396
-0.014701
-0.00868963
-0.0105539
-0.0142275
-0.0178465
-0.0201888
-0.0233944
-0.0263228
-0.0306505
-0.0405582
-0.0525394
-0.0534982
-0.0350902
-0.0200666
-0.0171098
-0.017257
-0.0177694
-0.0184231
-0.0191155
-0.00897726
-0.00824077
-0.00759604
-0.00998289
-0.0142413
-0.0167199
-0.0197697
-0.0260462
-0.0304391
-0.0415623
-0.0510388
-0.0550581
-0.0499781
-0.0332943
-0.0173899
-0.0163086
-0.0158524
-0.0156265
-0.0157186
-0.0160504
-0.00455208
-0.00806894
-0.00869674
-0.0127905
-0.0167681
-0.0170685
-0.0184296
-0.0177002
-0.0205994
-0.0195395
-0.0218701
-0.0200074
-0.0175481
-0.0156634
-0.0150337
-0.0149913
-0.0151778
-0.01543
-0.0157915
-0.0161691
-0.00241831
-0.00884154
-0.0107091
-0.0139385
-0.0180794
-0.0180283
-0.02002
-0.0171926
-0.0167989
-0.0152162
-0.0154307
-0.0152972
-0.0153662
-0.0156007
-0.0159728
-0.0165056
-0.0170027
-0.0174805
-0.0180185
-0.0181579
-0.00894758
-0.0115075
-0.011243
-0.0161258
-0.020331
-0.0199472
-0.0203104
-0.0177993
-0.0163308
-0.0159104
-0.0161341
-0.0170323
-0.0179266
-0.0189141
-0.0197282
-0.020438
-0.0210678
-0.021706
-0.0226756
-0.022795
-0.00536535
-0.00919038
-0.00885874
-0.0117717
-0.0155234
-0.0189523
-0.0217244
-0.0204025
-0.020155
-0.0200668
-0.0210993
-0.0225855
-0.0241947
-0.0253752
-0.0261624
-0.0263663
-0.0262616
-0.0259654
-0.0260959
-0.0242177
-0.000168132
-0.00228673
-0.00832897
-0.0167519
-0.0216964
-0.0208017
-0.0191565
-0.0172363
-0.0185039
-0.0205724
-0.0240826
-0.0274547
-0.0312258
-0.0339028
-0.0359707
-0.0363384
-0.0356522
-0.0336316
-0.0316061
-0.0280195
-0.00418184
-0.00760642
-0.0119785
-0.0157585
-0.0158801
-0.0131262
-0.0112984
-0.00990345
-0.00992295
-0.0109696
-0.0127746
-0.0151478
-0.0181179
-0.0216849
-0.0258839
-0.0302337
-0.0347412
-0.039119
-0.04383
-0.0457196
-0.0150381
-0.00974896
-0.0106956
-0.0131394
-0.0144522
-0.0143625
-0.0133661
-0.0118275
-0.0108509
-0.0103599
-0.0104937
-0.0106731
-0.0110836
-0.0117822
-0.0134397
-0.016297
-0.0204773
-0.0257656
-0.0321275
-0.0386654
-0.00383848
-0.00699492
-0.0102973
-0.0124006
-0.0129656
-0.0122285
-0.0115157
-0.0101896
-0.00847031
-0.00700537
-0.00624874
-0.00634454
-0.00713881
-0.00835719
-0.00976129
-0.0111727
-0.0125673
-0.0139591
-0.0153743
-0.0167905
-0.00205966
-0.00573815
-0.00811251
-0.00939621
-0.00970489
-0.00894263
-0.00813402
-0.00734348
-0.00724881
-0.00745237
-0.00809023
-0.00879787
-0.00961442
-0.0103792
-0.0110954
-0.011751
-0.0123977
-0.0130402
-0.0137859
-0.0145437
-0.000525567
-0.00368148
-0.00596012
-0.00699402
-0.00730226
-0.00735691
-0.00751705
-0.00764984
-0.00810262
-0.00849385
-0.00916521
-0.00980415
-0.0105139
-0.0111182
-0.0116379
-0.0120088
-0.0122966
-0.0124962
-0.0127277
-0.0129253
-0.000528915
-0.00237864
-0.00495388
-0.00639376
-0.00691589
-0.00695344
-0.00695855
-0.00710046
-0.00738917
-0.00793515
-0.00857964
-0.00927726
-0.00991162
-0.0104507
-0.0108689
-0.0111802
-0.0114225
-0.0116224
-0.0118522
-0.0120907
-0.00121124
-0.00353245
-0.00623122
-0.00749386
-0.00791359
-0.00733026
-0.0069727
-0.00663123
-0.00665287
-0.00705756
-0.00761286
-0.00833024
-0.00898886
-0.00961336
-0.0101353
-0.0105871
-0.0109751
-0.0113235
-0.0116585
-0.0119711
-0.00104791
-0.00314158
-0.00618745
-0.00822037
-0.00893174
-0.00779081
-0.00715809
-0.00629542
-0.00610051
-0.00638087
-0.00696593
-0.00773559
-0.00848038
-0.0092087
-0.00989009
-0.0105396
-0.0111624
-0.011759
-0.0123251
-0.0128314
-0.000730013
-0.0030517
-0.00608913
-0.00797584
-0.00818768
-0.00715408
-0.00601181
-0.00571449
-0.00568195
-0.00615824
-0.0068428
-0.00760505
-0.00839198
-0.00917974
-0.00997159
-0.0107616
-0.0115516
-0.012329
-0.0130806
-0.0137532
-0.00139019
-0.00239543
-0.00433945
-0.0060347
-0.00654007
-0.00638105
-0.00594505
-0.00574185
-0.00540103
-0.00581083
-0.0063751
-0.00709567
-0.00779153
-0.00850911
-0.00986223
-0.0105342
-0.0111992
-0.0118373
-0.0124333
-0.0129368
-0.00679444
-0.00285616
-0.00272649
-0.00420405
-0.00519582
-0.00588539
-0.00570555
-0.0054481
-0.00526709
-0.00560142
-0.00622208
-0.00685657
-0.00739942
-0.00790911
-0.00886486
-0.0102559
-0.0107319
-0.0111613
-0.0115486
-0.0118721
-0.0075827
-0.0064714
-0.00353893
-0.00400243
-0.00575372
-0.00582547
-0.00583491
-0.00518727
-0.00550913
-0.00646875
-0.00769579
-0.0086594
-0.00933621
-0.00976473
-0.0105689
-0.0114877
-0.0115778
-0.0115915
-0.0115936
-0.011682
-0.00504262
-0.00374442
-0.00396602
-0.00627864
-0.00858899
-0.010045
-0.0101808
-0.00886083
-0.00910293
-0.0109396
-0.0126838
-0.013119
-0.0127055
-0.0129299
-0.0134633
-0.0129266
-0.0129337
-0.0128257
-0.0126699
-0.0126628
-0.0068717
-0.0055282
-0.00636963
-0.00890261
-0.0104483
-0.0124959
-0.0127757
-0.01448
-0.0160751
-0.0197128
-0.0254646
-0.0262242
-0.018365
-0.013694
-0.0125394
-0.0115062
-0.0115213
-0.0114974
-0.0114374
-0.0114819
-0.00282372
-0.00420639
-0.00579973
-0.00835749
-0.00968358
-0.0103596
-0.0113294
-0.013373
-0.0148344
-0.0199386
-0.0236605
-0.0238119
-0.0177737
-0.0125862
-0.0101005
-0.00997201
-0.00993266
-0.00996666
-0.0101348
-0.0104263
-0.00205547
-0.00466224
-0.0070152
-0.00896928
-0.009358
-0.00991507
-0.010309
-0.010246
-0.0108077
-0.0105637
-0.0105687
-0.0101656
-0.00968347
-0.00945625
-0.00938031
-0.0094129
-0.00955111
-0.00978572
-0.0101419
-0.010575
-0.00126249
-0.00757498
-0.00839542
-0.00977459
-0.0102583
-0.0101342
-0.010575
-0.0102346
-0.0102862
-0.0101187
-0.00994274
-0.00977922
-0.0095844
-0.00947064
-0.00940272
-0.00944373
-0.00958756
-0.00985285
-0.0102532
-0.0106958
-0.00225013
-0.0085001
-0.00954449
-0.0107421
-0.0103664
-0.0107985
-0.0108507
-0.0110654
-0.010987
-0.0111547
-0.0109664
-0.0108272
-0.0105846
-0.0103892
-0.0102135
-0.0101616
-0.0102199
-0.0104019
-0.0107808
-0.0110834
-0.00838896
-0.0085641
-0.00950362
-0.0102444
-0.0102289
-0.0111981
-0.0120838
-0.0126021
-0.0130254
-0.0132466
-0.0132668
-0.0130413
-0.0127417
-0.0122452
-0.0118387
-0.0114821
-0.0112626
-0.011201
-0.0113926
-0.0114149
-0.00103772
-0.00398001
-0.00795004
-0.0100767
-0.00970662
-0.0105172
-0.0114935
-0.0128201
-0.0143818
-0.0154875
-0.0163883
-0.0166768
-0.0168842
-0.0165248
-0.0161844
-0.0155575
-0.0150356
-0.0144853
-0.0142015
-0.0140097
-0.00181642
-0.00486522
-0.00874179
-0.00932741
-0.00825419
-0.00736363
-0.00746183
-0.00880358
-0.0108865
-0.0134235
-0.016135
-0.0187879
-0.0211761
-0.0232387
-0.0249887
-0.0264743
-0.0278276
-0.0291732
-0.030441
-0.0318792
-0.00743685
-0.0067275
-0.00826695
-0.00936612
-0.00962729
-0.00838296
-0.00706453
-0.00600046
-0.00605312
-0.00685123
-0.0088597
-0.0120355
-0.0160418
-0.0206294
-0.0250512
-0.0294886
-0.033629
-0.0377143
-0.0415286
-0.0458925
-0.0323653
-0.0324564
-0.0352462
-0.0164546
-0.0118799
-0.0196717
-0.0205935
-0.0142144
-0.0331733
-0.0287581
-0.0102954
-0.00849173
-0.0206055
-0.021903
-0.0385046
-0.0308729
-0.0399657
-0.0208812
-0.0227729
-0.0284805
-0.0348466
-0.0357809
-0.0424465
-0.047986
-0.0237197
-0.0277973
-0.0375217
-0.0465346
-0.110729
-0.102708
-0.0954003
-0.109767
-0.110787
-0.100161
-0.0964426
-0.115507
-0.0922846
-0.0866348
-0.111758
-0.120344
-0.0943396
-0.0879464
-0.123275
-0.0865101
-0.0867486
-0.12333
-0.124029
-0.0862419
-0.0841728
-0.114064
-0.0858261
-0.0811554
-0.121921
-0.114698
-0.0834492
-0.0839204
-0.112023
-0.0811689
-0.0905782
-0.112366
-0.103216
-0.0856984
-0.0849784
-0.12047
-0.0948417
-0.0996745
-0.0981297
-0.0838151
-0.0804652
-0.0658696
-0.120065
-0.0989174
-0.0952739
-0.0815163
-0.0823267
-0.0631745
-0.0594575
-0.13474
-0.0943574
-0.0932112
-0.0851945
-0.0957343
-0.058626
-0.056767
-0.0898204
-0.0924684
-0.0841582
-0.0935308
-0.0902952
-0.0862013
-0.07823
-0.0810101
-0.0808844
-0.071086
-0.0873555
-0.0742641
-0.0711768
-0.0485338
-0.0787904
-0.0684342
-0.0631438
-0.0714415
-0.0708521
-0.0444957
-0.0461493
-0.0761994
-0.0623935
-0.0677995
-0.071847
-0.0785571
-0.0503998
-0.068423
-0.0912696
-0.0730415
-0.0907817
-0.0819791
-0.0836829
-0.0745855
-0.0842966
-0.0987031
-0.0944539
-0.0960178
-0.0802798
-0.0687156
-0.08414
-0.0801241
-0.0938852
-0.0949499
-0.0913453
-0.0660405
-0.0598835
-0.0797538
-0.077494
-0.0896744
-0.0900469
-0.0853386
-0.0579258
-0.053076
-0.0748704
-0.0630518
-0.0836762
-0.100406
-0.0869396
-0.0910686
-0.0727516
-0.0947314
-0.0728807
-0.0694994
-0.0828253
-0.0728619
-0.0636211
-0.0422475
-0.0628163
-0.040133
-0.0613575
-0.0701723
-0.063301
-0.0389956
-0.0411094
-0.0359127
-0.031223
-0.0642398
-0.0613835
-0.0578575
-0.0454276
-0.0640308
-0.0322541
-0.0443899
-0.0882486
-0.0583234
-0.0717068
-0.070566
-0.0827887
-0.050945
-0.0692351
-0.0943513
-0.0781076
-0.0824265
-0.0828405
-0.0801906
-0.0711342
-0.0700001
-0.09055
-0.0812308
-0.0818595
-0.081075
-0.0837787
-0.0704254
-0.0772909
-0.0852844
-0.0837382
-0.0882362
-0.0829411
-0.0724555
-0.0815034
-0.0902616
-0.0921025
-0.141025
-0.123394
-0.104538
-0.0822073
-0.139487
-0.127136
-0.0764889
-0.120341
-0.115229
-0.0741572
-0.0507709
-0.124261
-0.109541
-0.0653681
-0.111611
-0.0898912
-0.0444841
-0.033104
-0.100262
-0.0650571
-0.0576763
-0.0832433
-0.0678418
-0.0320927
-0.038561
-0.0560875
-0.0412461
-0.065214
-0.0642895
-0.0584374
-0.0440034
-0.0630554
-0.0398998
-0.0457644
-0.0785613
-0.0586662
-0.0632242
-0.0665242
-0.0671369
-0.0495019
-0.0573342
-0.0781939
-0.0644576
-0.0664744
-0.0674194
-0.073857
-0.0588218
-0.0650496
-0.0884584
-0.0696619
-0.0892243
-0.078513
-0.092252
-0.0701555
-0.0962221
-0.0671426
-0.0490101
-0.0613393
-0.042457
-0.0467594
-0.036051
-0.0350383
-0.0730025
-0.0582444
-0.0440627
-0.0485097
-0.052459
-0.0342785
-0.0348361
-0.0785956
-0.0419684
-0.0452206
-0.0525057
-0.050608
-0.0355017
-0.0398714
-0.0842777
-0.0509652
-0.0701345
-0.0491904
-0.0395283
-0.0419846
-0.0414856
-0.0549253
-0.0724992
-0.0544449
-0.0334845
-0.0171564
-0.0365502
-0.0181043
-0.017447
-0.0430264
-0.0198893
-0.0137269
-0.00969122
-0.0142939
-0.00975203
-0.0115423
-0.0168437
-0.012841
-0.00932965
-0.00937964
-0.00936556
-0.00927198
-0.0117555
-0.0121763
-0.0113074
-0.00961497
-0.0105257
-0.00948375
-0.0107712
-0.0490052
-0.0268344
-0.0239069
-0.028394
-0.0282699
-0.0179904
-0.0170406
-0.033982
-0.0219042
-0.0201947
-0.0280146
-0.0292354
-0.0170858
-0.019433
-0.0389168
-0.0212652
-0.0304076
-0.0302457
-0.0367661
-0.0212599
-0.0312563
-0.0666999
-0.0370754
-0.0610554
-0.0396867
-0.0411805
-0.0356247
-0.0435261
-0.053764
-0.0660386
-0.0633574
-0.0367085
-0.0197078
-0.0422585
-0.0339007
-0.0245373
-0.0598067
-0.0568751
-0.0161846
-0.0117021
-0.0329426
-0.0352106
-0.0163289
-0.0576666
-0.0535481
-0.0111784
-0.0104707
-0.0356782
-0.0304629
-0.0125082
-0.0489866
-0.0320472
-0.0105035
-0.0116245
-0.0271636
-0.0194811
-0.0189087
-0.0270173
-0.017371
-0.0159143
-0.014991
-0.0188512
-0.0166083
-0.0180112
-0.0153074
-0.0145627
-0.0153124
-0.0182998
-0.0165274
-0.0187373
-0.0280757
-0.0152977
-0.0203386
-0.0201852
-0.0299463
-0.0202136
-0.0270715
-0.0580265
-0.0233528
-0.039192
-0.0342604
-0.0449899
-0.0302413
-0.0411046
-0.0665272
-0.0466678
-0.0626318
-0.045629
-0.0405103
-0.0443958
-0.0496771
-0.0649009
-0.0629837
-0.0641121
-0.0406856
-0.0471539
-0.0513752
-0.0584637
-0.0680129
-0.0655216
-0.0731761
-0.0486154
-0.0436032
-0.0602183
-0.0634398
-0.045596
-0.0766846
-0.0783658
-0.0391345
-0.0259966
-0.0627134
-0.050666
-0.0268283
-0.0499941
-0.0655303
-0.0283214
-0.0232559
-0.0390436
-0.0398952
-0.0189485
-0.0629821
-0.0496885
-0.0224209
-0.022325
-0.0405471
-0.0413781
-0.0203317
-0.045459
-0.0345561
-0.0230857
-0.0280582
-0.0404309
-0.0381362
-0.0339879
-0.0326522
-0.0320557
-0.030598
-0.039835
-0.0387347
-0.0423406
-0.0581871
-0.0333856
-0.0421061
-0.0429415
-0.0496916
-0.0437036
-0.0474697
-0.0619436
-0.0456337
-0.0526546
-0.0515382
-0.0573352
-0.0486423
-0.0512637
-0.0703116
-0.0541843
-0.0621123
-0.0587328
-0.0635171
-0.0520401
-0.0595784
-0.0830743
-0.0679282
-0.0902955
-0.0643885
-0.0565471
-0.0637753
-0.0655992
-0.0323319
-0.0227088
-0.025487
-0.0243588
-0.0235681
-0.0189561
-0.0183186
-0.0349393
-0.0248205
-0.023531
-0.0232208
-0.021297
-0.0181826
-0.0171321
-0.0352671
-0.0245089
-0.0325213
-0.019822
-0.01583
-0.0168119
-0.0166318
-0.0256735
-0.0352333
-0.0319077
-0.0141431
-0.00962809
-0.0160888
-0.011059
-0.010809
-0.0267734
-0.0126134
-0.00840258
-0.00681977
-0.00941285
-0.0074334
-0.00712266
-0.0102975
-0.00813404
-0.00673611
-0.00705589
-0.00746191
-0.008208
-0.00745373
-0.00809775
-0.00864813
-0.00727665
-0.00809085
-0.0085549
-0.00972399
-0.00857174
-0.00900971
-0.0105952
-0.00843595
-0.00953886
-0.0101528
-0.011514
-0.020344
-0.0112095
-0.0126098
-0.0152003
-0.0160547
-0.0108743
-0.0123224
-0.0205595
-0.0133419
-0.0167524
-0.0162581
-0.0159084
-0.0126993
-0.0137785
-0.0309111
-0.0185806
-0.028215
-0.0158815
-0.0166981
-0.0144581
-0.017663
-0.0291049
-0.0359617
-0.0333195
-0.0285788
-0.0356233
-0.0289128
-0.0282893
-0.0180311
-0.0222474
-0.0290767
-0.01968
-0.0243897
-0.0158152
-0.0214392
-0.00981173
-0.0286356
-0.0310351
-0.00853917
-0.00923439
-0.0219026
-0.0208964
-0.00976228
-0.0312974
-0.0261618
-0.00954014
-0.0105628
-0.0201891
-0.0172889
-0.0115034
-0.0233564
-0.0176317
-0.0109444
-0.0121973
-0.016514
-0.01561
-0.0126537
-0.0168882
-0.0176712
-0.0119447
-0.0129741
-0.0186819
-0.020686
-0.0168975
-0.0181136
-0.020621
-0.0133159
-0.0145825
-0.0212209
-0.0231193
-0.0277329
-0.0219835
-0.028097
-0.0153394
-0.0189113
-0.0238761
-0.0269729
-0.0319955
-0.0354248
-0.0312187
-0.0284693
-0.0348833
-0.0319562
-0.0287854
-0.0397415
-0.0362444
-0.0410363
-0.0376674
-0.04088
-0.0378996
-0.0385598
-0.0439445
-0.0506324
-0.0582078
-0.0289655
-0.0298616
-0.04959
-0.0545693
-0.0376562
-0.0595972
-0.0598051
-0.0288239
-0.0225163
-0.0538931
-0.0433147
-0.0224762
-0.0573674
-0.0429215
-0.0205413
-0.0174635
-0.0380682
-0.026114
-0.0233073
-0.0280461
-0.0327401
-0.0244138
-0.0253698
-0.0266074
-0.0309315
-0.0243829
-0.0339962
-0.0371367
-0.0257734
-0.0270034
-0.0329498
-0.0364229
-0.0298988
-0.0376613
-0.0394025
-0.0275987
-0.0305611
-0.0369804
-0.0401723
-0.0399933
-0.0406692
-0.0450239
-0.0320852
-0.0385975
-0.0421594
-0.0491622
-0.0488577
-0.0463581
-0.0496693
-0.0413197
-0.0504367
-0.0512855
-0.0557725
-0.0575807
-0.0506673
-0.0525271
-0.0532685