/*--------------------------------*- C++ -*----------------------------------*\
  =========                 |
  \\      /  F ield         | OpenFOAM: The Open Source CFD Toolbox
   \\    /   O peration     | Website:  https://openfoam.org
    \\  /    A nd           | Version:  10
     \\/     M anipulation  |
\*---------------------------------------------------------------------------*/
FoamFile
{
    format      ascii;
    class       volScalarField;
    location    "8.6";
    object      turbidity_0;
}
// * * * * * * * * * * * * * * * * * * * * * * * * * * * * * * * * * * * * * //

dimensions      [0 0 0 0 0 0 0];

internalField   nonuniform List<scalar> 
12920
(
-0.0391935
-0.0513123
-0.0560711
-0.0577258
-0.0666454
-0.0943067
-0.131192
-0.157105
-0.165046
-0.158802
-0.152736
-0.150702
-0.157264
-0.172565
-0.199545
-0.233544
-0.267111
-0.290188
-0.301944
-0.308245
-0.0180371
-0.0388098
-0.0534304
-0.0631883
-0.0766961
-0.0995081
-0.129623
-0.165855
-0.196242
-0.213519
-0.221496
-0.22843
-0.240899
-0.261981
-0.291125
-0.32134
-0.343568
-0.355838
-0.369443
-0.389873
-0.0203073
-0.0379657
-0.0632434
-0.0894668
-0.118463
-0.15054
-0.189736
-0.228408
-0.260807
-0.282435
-0.295453
-0.303852
-0.315079
-0.332165
-0.354623
-0.378514
-0.400645
-0.420748
-0.443162
-0.467613
-0.0232315
-0.0331929
-0.0494754
-0.068889
-0.0964917
-0.136974
-0.179745
-0.218781
-0.261944
-0.30246
-0.333831
-0.356147
-0.372328
-0.385858
-0.400393
-0.416493
-0.434272
-0.453746
-0.475773
-0.49946
-0.0317117
-0.0291493
-0.0470562
-0.0683666
-0.0893262
-0.11808
-0.150458
-0.187485
-0.22738
-0.27103
-0.311566
-0.344837
-0.370579
-0.390262
-0.407811
-0.424078
-0.441821
-0.461091
-0.483613
-0.505854
-0.0101668
-0.022957
-0.0397509
-0.0596047
-0.0844779
-0.112022
-0.142925
-0.178897
-0.221158
-0.268233
-0.312115
-0.350259
-0.379777
-0.402189
-0.42262
-0.441569
-0.461455
-0.48115
-0.501344
-0.520535
-0.0102971
-0.0168931
-0.0298244
-0.0545323
-0.085555
-0.117093
-0.152291
-0.188675
-0.221316
-0.254866
-0.281138
-0.312645
-0.3407
-0.372922
-0.405643
-0.436402
-0.465035
-0.489804
-0.512271
-0.532166
-0.0139892
-0.0242934
-0.0392425
-0.0636505
-0.0909281
-0.118226
-0.126684
-0.139005
-0.15265
-0.155429
-0.166906
-0.178387
-0.197941
-0.22322
-0.244775
-0.30227
-0.350771
-0.390617
-0.425379
-0.453189
-0.027681
-0.0427899
-0.0585952
-0.0777353
-0.100624
-0.105812
-0.112277
-0.109965
-0.119042
-0.122344
-0.111012
-0.115421
-0.119983
-0.122337
-0.142113
-0.175654
-0.230345
-0.279016
-0.323583
-0.361339
-0.0306706
-0.0580636
-0.0652732
-0.081008
-0.0994698
-0.0974826
-0.0965652
-0.0869188
-0.0802324
-0.0776322
-0.0783838
-0.0953221
-0.0978413
-0.0926649
-0.0963378
-0.13268
-0.187235
-0.239128
-0.286501
-0.328794
-0.0453198
-0.0695009
-0.0718159
-0.0942073
-0.11523
-0.107902
-0.0974793
-0.0795964
-0.0668152
-0.0604027
-0.0690747
-0.0925937
-0.0932793
-0.0897365
-0.0926679
-0.128634
-0.177372
-0.226923
-0.275355
-0.32289
-0.0239008
-0.0681011
-0.0891149
-0.126911
-0.146301
-0.120498
-0.109509
-0.0874139
-0.0734253
-0.0629377
-0.0571421
-0.0710895
-0.0779982
-0.0804365
-0.0984556
-0.144047
-0.195863
-0.25471
-0.322515
-0.394819
-0.0370852
-0.0635764
-0.0710512
-0.0999261
-0.128896
-0.156416
-0.155747
-0.149491
-0.141611
-0.1115
-0.0892036
-0.0758422
-0.0744925
-0.0914324
-0.172362
-0.237678
-0.313931
-0.396963
-0.479128
-0.549927
-0.0807495
-0.0599427
-0.0638104
-0.0935705
-0.124887
-0.157548
-0.195982
-0.240302
-0.259429
-0.268047
-0.239999
-0.23309
-0.241621
-0.277583
-0.32549
-0.384649
-0.444176
-0.497538
-0.543446
-0.586907
-0.0441645
-0.0383482
-0.0527384
-0.074785
-0.101379
-0.133721
-0.173909
-0.218173
-0.263305
-0.298385
-0.303428
-0.302373
-0.300975
-0.309955
-0.324904
-0.347744
-0.37375
-0.40077
-0.431827
-0.472471
-0.0573983
-0.061374
-0.0704214
-0.0993625
-0.123479
-0.154316
-0.192513
-0.241645
-0.28497
-0.317363
-0.332696
-0.33833
-0.339595
-0.337579
-0.340067
-0.347862
-0.360159
-0.37724
-0.399462
-0.426885
-0.0260682
-0.0760125
-0.0952811
-0.116446
-0.139772
-0.171284
-0.2102
-0.25466
-0.293562
-0.323023
-0.342832
-0.355957
-0.364767
-0.373067
-0.382017
-0.393238
-0.406647
-0.42243
-0.441715
-0.466044
-0.0277949
-0.0481769
-0.0860713
-0.125927
-0.157126
-0.19083
-0.228064
-0.267111
-0.302105
-0.33167
-0.356035
-0.376308
-0.393132
-0.408867
-0.42428
-0.440548
-0.458233
-0.478195
-0.501668
-0.52946
-0.0298451
-0.0615891
-0.0911269
-0.121805
-0.144903
-0.169179
-0.194441
-0.215645
-0.231428
-0.240749
-0.256672
-0.274167
-0.29549
-0.316206
-0.339713
-0.364117
-0.393742
-0.425027
-0.455904
-0.491992
-0.0430767
-0.0519369
-0.0763153
-0.106307
-0.14004
-0.169274
-0.195594
-0.218224
-0.238713
-0.256236
-0.272185
-0.28755
-0.302769
-0.317889
-0.332381
-0.344556
-0.353889
-0.358901
-0.365873
-0.379528
-0.0127578
-0.0233747
-0.0299824
-0.0385575
-0.0546255
-0.0669343
-0.068561
-0.054896
-0.0391393
-0.0291533
-0.0237026
-0.0209146
-0.0199036
-0.0199517
-0.0206021
-0.0211692
-0.0213495
-0.0211817
-0.0216056
-0.0238656
-0.00807841
-0.0175583
-0.028835
-0.0360901
-0.0446957
-0.0504657
-0.067428
-0.0771682
-0.0840731
-0.0846891
-0.0879582
-0.0913284
-0.0956414
-0.0952954
-0.0868192
-0.0678603
-0.0491898
-0.0431316
-0.0496417
-0.0689256
-0.00300557
-0.0136764
-0.0273572
-0.0381451
-0.0386155
-0.0313643
-0.0380708
-0.0502456
-0.070691
-0.0861074
-0.0994023
-0.104729
-0.103482
-0.0927742
-0.076932
-0.0616368
-0.0547732
-0.0589502
-0.0743461
-0.0955376
-0.00569207
-0.00684854
-0.0164673
-0.0305557
-0.0441286
-0.0357734
-0.0305496
-0.0325985
-0.0417976
-0.0481336
-0.0566989
-0.0587038
-0.0575284
-0.0521712
-0.0472064
-0.0435861
-0.0451537
-0.0516025
-0.0646195
-0.0783683
-0.0127249
-0.00849438
-0.0118516
-0.0203318
-0.0359597
-0.039286
-0.0491451
-0.055248
-0.0690715
-0.0678363
-0.0621147
-0.0496789
-0.0414604
-0.0345849
-0.0310836
-0.0303754
-0.0321737
-0.0359312
-0.0423115
-0.0485435
-0.00472747
-0.00683454
-0.00921022
-0.0133004
-0.0219788
-0.0317894
-0.0540795
-0.0725053
-0.0878161
-0.0833528
-0.066879
-0.0463428
-0.0337219
-0.0275362
-0.0247615
-0.0240776
-0.0248179
-0.0264625
-0.0294733
-0.0342439
-0.003636
-0.00440725
-0.008647
-0.0148486
-0.0272594
-0.0405859
-0.0630381
-0.078278
-0.0792432
-0.0664588
-0.0459649
-0.0296852
-0.0212827
-0.0183752
-0.0177478
-0.0184343
-0.0200828
-0.0224083
-0.02719
-0.0379408
-0.00202199
-0.00232835
-0.00608649
-0.0141624
-0.0270444
-0.0408603
-0.0541942
-0.075996
-0.0865365
-0.0858408
-0.0630003
-0.030582
-0.0171864
-0.0142737
-0.0137938
-0.0155708
-0.0182588
-0.0224428
-0.0299759
-0.0437206
-0.0133519
-0.00957957
-0.00814072
-0.0131505
-0.0237246
-0.0333422
-0.0477687
-0.0698876
-0.0744258
-0.0806465
-0.0812639
-0.0414415
-0.0143483
-0.0114145
-0.0120416
-0.0167611
-0.0222332
-0.0294424
-0.0391323
-0.0509587
-0.00402307
-0.017296
-0.00817045
-0.0102661
-0.0155119
-0.0213277
-0.0424821
-0.0441056
-0.0331336
-0.0453234
-0.0695136
-0.044033
-0.0216187
-0.0149641
-0.0136335
-0.0237196
-0.0304877
-0.0366657
-0.041892
-0.0474734
-0.0310309
-0.0206013
-0.0120049
-0.0154139
-0.0197718
-0.0194364
-0.0240432
-0.0176181
-0.0193384
-0.0341218
-0.0642108
-0.0639169
-0.0672669
-0.0645786
-0.0368998
-0.034052
-0.0378444
-0.0428126
-0.0480914
-0.0541956
-0.029175
-0.0182605
-0.0182319
-0.0286339
-0.0242231
-0.0234783
-0.0344393
-0.0236044
-0.0184136
-0.0223821
-0.0402241
-0.0603338
-0.0629533
-0.074844
-0.0738174
-0.0583464
-0.0603568
-0.0665026
-0.0749985
-0.0803692
-0.0246946
-0.0132414
-0.0125044
-0.0168818
-0.0280547
-0.0385693
-0.0503615
-0.0555524
-0.0539765
-0.0465043
-0.0446358
-0.0490368
-0.0589985
-0.0782925
-0.077467
-0.0778954
-0.0794588
-0.0794377
-0.0800503
-0.0831576
-0.0575046
-0.0292738
-0.0185311
-0.0225456
-0.0410676
-0.048246
-0.0598642
-0.0784053
-0.0733235
-0.0706824
-0.0673078
-0.0686759
-0.06483
-0.0597175
-0.0570039
-0.0570718
-0.0600867
-0.0658497
-0.0756536
-0.0885123
-0.0203858
-0.0232276
-0.027465
-0.032
-0.0431845
-0.0475567
-0.0643804
-0.0727225
-0.0810223
-0.0696945
-0.0565974
-0.0484759
-0.0446435
-0.0421527
-0.0430687
-0.04688
-0.0532394
-0.0623294
-0.0762228
-0.0948185
-0.0636712
-0.0300327
-0.0242798
-0.0324291
-0.0522015
-0.0645695
-0.0824824
-0.084908
-0.0842007
-0.0724025
-0.0601127
-0.048082
-0.0412859
-0.0384517
-0.0391133
-0.0427321
-0.0494593
-0.0602631
-0.077594
-0.100981
-0.0188382
-0.033871
-0.0264945
-0.037028
-0.0522193
-0.0733877
-0.0959586
-0.101846
-0.103354
-0.0967572
-0.0900343
-0.0821303
-0.078412
-0.0738389
-0.0753622
-0.081932
-0.0938095
-0.110968
-0.13308
-0.152344
-0.0103862
-0.0237496
-0.036109
-0.0574697
-0.0849837
-0.098042
-0.105221
-0.0952354
-0.0902011
-0.0855682
-0.0894489
-0.0938452
-0.104186
-0.114066
-0.128012
-0.143456
-0.160382
-0.176002
-0.188954
-0.188567
-0.00319712
-0.0150956
-0.0348968
-0.0585987
-0.0827614
-0.0836978
-0.075321
-0.0492442
-0.0313495
-0.0232449
-0.0220906
-0.0238913
-0.0279135
-0.0333509
-0.0418946
-0.0548734
-0.0754953
-0.106406
-0.154295
-0.196444
-0.00822028
-0.0188878
-0.0295361
-0.0379501
-0.0400448
-0.0379979
-0.0339961
-0.0319596
-0.0348215
-0.0388289
-0.0446966
-0.0477712
-0.0506728
-0.0498298
-0.0480158
-0.0448359
-0.0424063
-0.0424498
-0.0495636
-0.0677368
-0.0141881
-0.0176601
-0.0236436
-0.0297851
-0.0403332
-0.0412204
-0.0350749
-0.026267
-0.0209027
-0.0182055
-0.0166609
-0.015176
-0.0136758
-0.0121638
-0.0110071
-0.0103233
-0.010238
-0.0109155
-0.0126373
-0.0155037
-0.0066029
-0.0125535
-0.018627
-0.0209942
-0.0260788
-0.0256338
-0.0329789
-0.0342883
-0.0378531
-0.0387677
-0.0406196
-0.0392682
-0.036462
-0.030955
-0.0250261
-0.0203104
-0.019523
-0.0227576
-0.0295626
-0.0388868
-0.00179187
-0.00837336
-0.0137335
-0.0165308
-0.0150121
-0.0144579
-0.0189077
-0.0239367
-0.0313934
-0.0359099
-0.0391633
-0.0376904
-0.0340416
-0.0286126
-0.025021
-0.0243604
-0.026929
-0.031647
-0.0378951
-0.0433981
-0.00577036
-0.00659536
-0.0108756
-0.0154204
-0.0190234
-0.0146407
-0.0151997
-0.0158173
-0.0170042
-0.0173095
-0.0181153
-0.0180589
-0.017972
-0.0179406
-0.0188016
-0.0205185
-0.0230578
-0.0257938
-0.0286829
-0.0305164
-0.00778594
-0.00846142
-0.00848244
-0.0121256
-0.018806
-0.0196508
-0.0258792
-0.0257118
-0.0267282
-0.022256
-0.0186936
-0.0157065
-0.0144545
-0.0141172
-0.0145172
-0.0153899
-0.0164844
-0.0175097
-0.0185065
-0.0190609
-0.00214701
-0.00405538
-0.00743128
-0.0122495
-0.0201938
-0.0267747
-0.0378748
-0.0392071
-0.0367109
-0.0272074
-0.0188563
-0.0137218
-0.0116393
-0.0110975
-0.0111392
-0.0115423
-0.0121465
-0.0128851
-0.0138935
-0.0153004
-0.000847386
-0.00317301
-0.00697319
-0.014702
-0.0255632
-0.0323502
-0.0380858
-0.036709
-0.028441
-0.019701
-0.0129712
-0.00998163
-0.00891877
-0.00890503
-0.00940542
-0.0103927
-0.0119247
-0.0141104
-0.0172216
-0.0215571
-0.000606625
-0.00222473
-0.00505241
-0.0108958
-0.0191509
-0.0272661
-0.0319849
-0.0377467
-0.0359592
-0.0265784
-0.0148705
-0.00893762
-0.00777648
-0.00792771
-0.00990833
-0.0119598
-0.0144889
-0.0174255
-0.0206568
-0.0238829
-0.00459423
-0.00486708
-0.00495313
-0.00703967
-0.0119987
-0.0193604
-0.0266362
-0.0334935
-0.034917
-0.0341989
-0.0212189
-0.00890714
-0.00707872
-0.00769013
-0.0100826
-0.0155211
-0.0183421
-0.0207841
-0.0227263
-0.0240574
-0.00589571
-0.00643133
-0.00348868
-0.00451997
-0.00725802
-0.0103656
-0.0180224
-0.0199773
-0.0219169
-0.0341752
-0.0274645
-0.0120285
-0.00966352
-0.0100071
-0.0139955
-0.0186459
-0.0208181
-0.022737
-0.0245869
-0.0266255
-0.0322708
-0.00528698
-0.00495564
-0.00614058
-0.00843643
-0.00928313
-0.0113043
-0.0134403
-0.0187077
-0.0323383
-0.0378295
-0.0375737
-0.0447025
-0.0332094
-0.0218139
-0.0233036
-0.0247586
-0.0262782
-0.02784
-0.0296052
-0.0304143
-0.013256
-0.009515
-0.0116816
-0.0143333
-0.019655
-0.0241184
-0.0232939
-0.0252677
-0.0322064
-0.0425158
-0.0513896
-0.0587671
-0.0601583
-0.0392609
-0.0310561
-0.0306474
-0.0309656
-0.0313981
-0.0313789
-0.0142061
-0.0120719
-0.0107421
-0.0119178
-0.0180947
-0.0247017
-0.0289699
-0.0379439
-0.0434638
-0.0480732
-0.052223
-0.0547343
-0.0600558
-0.060742
-0.0368245
-0.0335275
-0.0317188
-0.0302286
-0.0296084
-0.0296416
-0.0179942
-0.0163891
-0.0153187
-0.016582
-0.025459
-0.0290261
-0.0343676
-0.0374794
-0.0371358
-0.0364576
-0.0397352
-0.0387757
-0.0348444
-0.0299391
-0.0279141
-0.027768
-0.0288036
-0.0304474
-0.0327153
-0.0345696
-0.0108836
-0.0137117
-0.0156536
-0.0179227
-0.0250852
-0.0289683
-0.0371582
-0.0357682
-0.0344242
-0.0277481
-0.0259559
-0.0244723
-0.0242146
-0.0242743
-0.0256996
-0.0282213
-0.031465
-0.0353011
-0.0400351
-0.0439447
-0.0192279
-0.0136156
-0.0136876
-0.0206833
-0.0330709
-0.0374821
-0.0429245
-0.0384794
-0.0335195
-0.0274768
-0.0238718
-0.0223007
-0.0228798
-0.0248373
-0.0279025
-0.0318763
-0.036621
-0.0422537
-0.0494673
-0.0560298
-0.0118259
-0.0176676
-0.012545
-0.0158728
-0.024979
-0.0369469
-0.0471875
-0.0452597
-0.0423303
-0.0371623
-0.0343076
-0.033148
-0.0347569
-0.0377642
-0.0424637
-0.0478462
-0.0534231
-0.0590105
-0.0653476
-0.067429
-0.0031118
-0.00879158
-0.0133288
-0.0289305
-0.0479879
-0.0497092
-0.046702
-0.0372991
-0.0340795
-0.0328298
-0.0360406
-0.0403797
-0.0476945
-0.0553744
-0.0643337
-0.0723086
-0.0786095
-0.0810757
-0.0803287
-0.071316
-0.0070222
-0.014854
-0.0216502
-0.0356654
-0.0477441
-0.0384692
-0.0281404
-0.0175474
-0.0132524
-0.0123525
-0.0135368
-0.0158235
-0.019289
-0.023917
-0.030539
-0.039414
-0.0511379
-0.0651114
-0.0820881
-0.092254
-0.0108618
-0.0131821
-0.0172741
-0.0217656
-0.0232411
-0.0226993
-0.0201669
-0.0171629
-0.0154144
-0.0147755
-0.0158261
-0.0169626
-0.0182859
-0.018807
-0.0191314
-0.0195848
-0.0214541
-0.0257701
-0.0346176
-0.045973
-0.00558094
-0.0112128
-0.0167327
-0.0216521
-0.0254146
-0.0223511
-0.0180872
-0.0146385
-0.0128553
-0.0114781
-0.0101866
-0.00889448
-0.00788517
-0.00734116
-0.00730665
-0.00785746
-0.00890814
-0.0103895
-0.0121532
-0.0140432
-0.00414816
-0.00646542
-0.00914029
-0.0116454
-0.0137731
-0.0128686
-0.0142565
-0.0142736
-0.0151807
-0.0145932
-0.0141702
-0.0126246
-0.0117359
-0.0110523
-0.0113473
-0.0124729
-0.0144628
-0.017012
-0.0200024
-0.0229955
-0.000572861
-0.00293438
-0.00543133
-0.00757271
-0.00826386
-0.0091941
-0.0111817
-0.0125622
-0.0143607
-0.014469
-0.0145641
-0.0135906
-0.0131385
-0.0130649
-0.013926
-0.0153321
-0.0171381
-0.0189749
-0.0208477
-0.0220883
-0.000555627
-0.00195648
-0.00455876
-0.00699059
-0.00891144
-0.00871593
-0.00956513
-0.00963146
-0.00966382
-0.00962451
-0.0097393
-0.00992391
-0.0104207
-0.0111402
-0.0120976
-0.0130968
-0.0141037
-0.0149636
-0.0158116
-0.0164008
-0.00150485
-0.00351978
-0.00550793
-0.00849346
-0.0122314
-0.0123167
-0.0140166
-0.0121002
-0.0111985
-0.00975912
-0.00894016
-0.0085453
-0.00857229
-0.00892454
-0.00944318
-0.0100688
-0.0106979
-0.0113116
-0.0119991
-0.012692
-0.00153833
-0.00320908
-0.00636305
-0.0112807
-0.0175995
-0.0187169
-0.0199809
-0.0162288
-0.0128319
-0.00943044
-0.00756871
-0.00692167
-0.00688817
-0.00724599
-0.00772388
-0.00832044
-0.00899048
-0.00977111
-0.0107397
-0.0119242
-0.000624364
-0.00303003
-0.00712674
-0.0131056
-0.0187414
-0.0188617
-0.0166755
-0.0135719
-0.00948522
-0.00734282
-0.00622118
-0.00606485
-0.00636143
-0.00695079
-0.00776984
-0.00875683
-0.00993179
-0.011312
-0.0129533
-0.0148497
-0.000579237
-0.00232117
-0.00469551
-0.00876076
-0.0126598
-0.01504
-0.0153804
-0.014604
-0.0112618
-0.0078876
-0.00608306
-0.00579552
-0.00618499
-0.00688846
-0.00855948
-0.00950052
-0.0104599
-0.011486
-0.0126592
-0.0139407
-0.00446093
-0.00293714
-0.00316854
-0.00503878
-0.00795135
-0.0115561
-0.0137506
-0.0142206
-0.0120288
-0.00926152
-0.00637003
-0.00599242
-0.00680743
-0.00777978
-0.00921457
-0.0103125
-0.0109696
-0.0116154
-0.0123064
-0.0130428
-0.00866598
-0.00460069
-0.00300579
-0.00381075
-0.0062348
-0.00786828
-0.010629
-0.0104467
-0.0103748
-0.0115475
-0.00813405
-0.00805233
-0.00907945
-0.00999269
-0.0114979
-0.0141441
-0.0152238
-0.0161729
-0.0169456
-0.0175962
-0.00995995
-0.00372558
-0.0040902
-0.00597675
-0.00908488
-0.0108148
-0.0121598
-0.0114844
-0.012513
-0.0165092
-0.0207422
-0.0246771
-0.0235457
-0.0172715
-0.0159831
-0.0173216
-0.0183437
-0.0195169
-0.0207528
-0.0219407
-0.0290744
-0.0147158
-0.00868334
-0.0105231
-0.014208
-0.0178324
-0.020167
-0.0233935
-0.0263561
-0.0307221
-0.0406578
-0.0526245
-0.0535119
-0.0350297
-0.0200524
-0.0171071
-0.0172558
-0.0177678
-0.0184207
-0.0191096
-0.00932902
-0.00822817
-0.00758943
-0.00995842
-0.014226
-0.0167083
-0.0197338
-0.0260728
-0.0304482
-0.0415762
-0.0510591
-0.055055
-0.0499011
-0.033192
-0.0173765
-0.0163038
-0.0158493
-0.0156256
-0.0157171
-0.0160444
-0.00483536
-0.0080857
-0.00867952
-0.012761
-0.0167651
-0.0170554
-0.0184303
-0.0176807
-0.0205981
-0.0195332
-0.0218498
-0.0199873
-0.0175236
-0.0156534
-0.0150313
-0.0149906
-0.0151777
-0.0154299
-0.0157908
-0.0161633
-0.00232709
-0.00881649
-0.0107039
-0.013918
-0.01805
-0.0180079
-0.0199935
-0.017187
-0.0167918
-0.0152134
-0.0154258
-0.0152954
-0.0153639
-0.015602
-0.0159751
-0.016507
-0.0170037
-0.0174804
-0.0180173
-0.0181539
-0.00898362
-0.0115789
-0.0112544
-0.0161259
-0.0203243
-0.0199307
-0.0202837
-0.01779
-0.0163218
-0.0159039
-0.0161318
-0.0170292
-0.0179276
-0.0189144
-0.0197292
-0.0204383
-0.021068
-0.0217059
-0.022676
-0.0227925
-0.00539058
-0.00930819
-0.00885565
-0.0117607
-0.0155238
-0.0189455
-0.0216961
-0.0203956
-0.0201384
-0.0200618
-0.0210931
-0.0225825
-0.0241922
-0.0253741
-0.0261601
-0.0263644
-0.0262592
-0.0259621
-0.0260887
-0.0242077
-0.0001781
-0.00248537
-0.00860737
-0.0168624
-0.0217276
-0.0207704
-0.0191099
-0.0172269
-0.0184956
-0.0205764
-0.0240827
-0.0274585
-0.0312255
-0.0339045
-0.0359666
-0.0363322
-0.0356396
-0.0336148
-0.0315815
-0.0280042
-0.00376021
-0.00741002
-0.0119393
-0.0156943
-0.0158145
-0.0131138
-0.0112732
-0.00989876
-0.0099226
-0.0109721
-0.01278
-0.0151548
-0.0181285
-0.0216988
-0.0259003
-0.0302499
-0.034755
-0.0391285
-0.0438256
-0.0457126
-0.0151989
-0.00965642
-0.0106969
-0.0131694
-0.014471
-0.0143651
-0.0133552
-0.0118149
-0.0108405
-0.0103558
-0.0104923
-0.0106734
-0.0110841
-0.0117861
-0.0134496
-0.0163148
-0.0205025
-0.0257967
-0.0321592
-0.0386999
-0.00374676
-0.00700691
-0.0103239
-0.0124045
-0.012933
-0.0122007
-0.0115014
-0.0101815
-0.00846184
-0.00699929
-0.00624625
-0.00634476
-0.00714031
-0.00835875
-0.00976206
-0.0111728
-0.0125668
-0.0139584
-0.015374
-0.0167911
-0.00212826
-0.00577057
-0.00812411
-0.0093938
-0.009691
-0.008934
-0.00812582
-0.0073396
-0.00724745
-0.00745201
-0.00808959
-0.00879704
-0.0096135
-0.0103782
-0.0110944
-0.0117498
-0.0123963
-0.0130385
-0.0137836
-0.0145408
-0.000502907
-0.00368459
-0.00595045
-0.00698965
-0.00729424
-0.00735297
-0.00751447
-0.00764937
-0.00810137
-0.00849322
-0.0091633
-0.00980293
-0.0105124
-0.0111171
-0.011637
-0.0120082
-0.0122959
-0.0124954
-0.0127262
-0.0129215
-0.000509137
-0.00238497
-0.00496005
-0.00639285
-0.006912
-0.0069521
-0.00695658
-0.00709882
-0.00738722
-0.00793288
-0.00857745
-0.00927522
-0.00990991
-0.0104492
-0.0108677
-0.0111792
-0.0114216
-0.0116214
-0.0118509
-0.0120889
-0.00136154
-0.00361024
-0.00626188
-0.00749654
-0.00791923
-0.00733212
-0.0069715
-0.00662979
-0.00665064
-0.00705443
-0.00761023
-0.00832749
-0.00898664
-0.00961129
-0.0101336
-0.0105857
-0.0109739
-0.0113224
-0.0116575
-0.0119708
-0.00100012
-0.00312241
-0.00617982
-0.00822098
-0.00894046
-0.00779432
-0.00715713
-0.00629214
-0.00609604
-0.00637707
-0.00696311
-0.00773258
-0.00847782
-0.0092062
-0.00988791
-0.0105376
-0.0111606
-0.0117574
-0.0123238
-0.0128319
-0.00068133
-0.00302004
-0.00607215
-0.00796618
-0.00818917
-0.00715595
-0.00601132
-0.00570865
-0.00567887
-0.00615476
-0.0068399
-0.00760204
-0.00838912
-0.00917694
-0.00996895
-0.0107591
-0.0115492
-0.0123267
-0.0130786
-0.0137528
-0.00138133
-0.00239407
-0.00433387
-0.00602666
-0.00653523
-0.00637585
-0.00594783
-0.00573924
-0.00539915
-0.00580712
-0.00637248
-0.00709238
-0.00778892
-0.0085056
-0.00985986
-0.0105318
-0.0111969
-0.0118352
-0.0124316
-0.0129363
-0.00680141
-0.00285073
-0.00270137
-0.00418886
-0.00518806
-0.00587087
-0.00570553
-0.00544492
-0.00526595
-0.00559864
-0.00621991
-0.00685458
-0.00739741
-0.00790681
-0.00886171
-0.0102541
-0.0107303
-0.0111598
-0.0115474
-0.0118715
-0.00774638
-0.00647554
-0.00352795
-0.00399127
-0.00574925
-0.00582574
-0.0058335
-0.00518682
-0.00550866
-0.00646827
-0.00769616
-0.00865937
-0.00933606
-0.00976466
-0.0105681
-0.0114875
-0.0115777
-0.0115915
-0.011593
-0.0116794
-0.00504596
-0.00373861
-0.00393186
-0.00625426
-0.0085714
-0.0100336
-0.0101897
-0.00887297
-0.00911185
-0.0109476
-0.0126929
-0.013128
-0.0127076
-0.0129278
-0.0134617
-0.0129264
-0.0129341
-0.0128261
-0.0126696
-0.0126588
-0.00647245
-0.00551432
-0.00634771
-0.00888987
-0.0104419
-0.0125027
-0.0127514
-0.0144744
-0.0160812
-0.0197312
-0.0255022
-0.0262694
-0.0183833
-0.0136941
-0.0125384
-0.0115055
-0.0115211
-0.0114973
-0.0114366
-0.0114785
-0.00272512
-0.00419102
-0.00577416
-0.00834646
-0.00968106
-0.0103562
-0.0113133
-0.0133786
-0.0148164
-0.0199338
-0.0236535
-0.0238088
-0.0177447
-0.012575
-0.0100985
-0.00997102
-0.0099318
-0.00996586
-0.0101335
-0.0104242
-0.00210512
-0.00465768
-0.0069971
-0.00895837
-0.00935166
-0.00991
-0.010308
-0.0102413
-0.010807
-0.010562
-0.0105658
-0.0101643
-0.00968217
-0.00945538
-0.0093797
-0.00941229
-0.00955017
-0.00978442
-0.0101403
-0.0105733
-0.00122959
-0.0075636
-0.00838242
-0.00976222
-0.0102461
-0.0101253
-0.0105689
-0.0102315
-0.0102845
-0.010118
-0.00994294
-0.0097795
-0.00958474
-0.00947076
-0.00940258
-0.00944315
-0.00958661
-0.00985138
-0.0102516
-0.0106941
-0.00215047
-0.00857043
-0.00954103
-0.0107375
-0.010364
-0.0107904
-0.0108457
-0.0110616
-0.0109855
-0.0111531
-0.0109664
-0.0108266
-0.010585
-0.0103892
-0.0102135
-0.0101611
-0.0102192
-0.0104005
-0.0107795
-0.0110803
-0.008917
-0.00858231
-0.00950288
-0.010243
-0.0102247
-0.0111935
-0.0120784
-0.0125989
-0.0130229
-0.0132447
-0.0132659
-0.0130401
-0.0127412
-0.012245
-0.0118385
-0.0114818
-0.0112619
-0.0111993
-0.0113906
-0.0114105
-0.00109341
-0.00411003
-0.00806223
-0.0100931
-0.00970442
-0.0105081
-0.0114865
-0.0128152
-0.0143782
-0.0154848
-0.0163865
-0.0166748
-0.016883
-0.0165238
-0.016183
-0.0155569
-0.0150343
-0.0144831
-0.0141985
-0.0140035
-0.00158104
-0.00477638
-0.00873515
-0.00932508
-0.0082516
-0.00736172
-0.00745869
-0.00880021
-0.010884
-0.01342
-0.0161326
-0.0187851
-0.0211734
-0.0232354
-0.0249854
-0.0264708
-0.0278245
-0.0291696
-0.0304356
-0.0318729
-0.00668176
-0.00667597
-0.0082495
-0.00937395
-0.00962918
-0.00837679
-0.0070577
-0.0059971
-0.00605077
-0.00685312
-0.00886377
-0.0120425
-0.0160503
-0.0206376
-0.0250602
-0.0294967
-0.0336399
-0.0377263
-0.0415455
-0.0459084
-0.032281
-0.0325087
-0.0352616
-0.0164381
-0.0118586
-0.0196735
-0.0205976
-0.0141881
-0.0331778
-0.0287979
-0.0102834
-0.00849529
-0.0206279
-0.0219498
-0.038524
-0.030928
-0.040014
-0.0209122
-0.0228052
-0.0285493
-0.0349321
-0.0358664
-0.0424906
-0.0480634
-0.0237624
-0.0278634
-0.0376124
-0.0466413
-0.110581
-0.102645
-0.0952801
-0.109624
-0.110655
-0.100111
-0.0963246
-0.115474
-0.0921731
-0.0865908
-0.111664
-0.120312
-0.0942112
-0.0877552
-0.123131
-0.0864683
-0.0866461
-0.123286
-0.123892
-0.0860523
-0.083986
-0.113805
-0.085692
-0.0810862
-0.121741
-0.114542
-0.0832685
-0.083879
-0.112086
-0.0811653
-0.0907281
-0.112223
-0.1031
-0.085686
-0.0848817
-0.120437
-0.0949695
-0.0996998
-0.0979705
-0.083749
-0.0803516
-0.0658391
-0.120092
-0.0989269
-0.0952837
-0.081387
-0.0823823
-0.063161
-0.0594612
-0.134752
-0.0943682
-0.0932364
-0.0851411
-0.0957303
-0.0586187
-0.0567729
-0.0897015
-0.0924368
-0.0840939
-0.0934173
-0.0901405
-0.0861974
-0.0780993
-0.0809514
-0.080808
-0.0710039
-0.0871738
-0.0740478
-0.0710063
-0.0483981
-0.0786881
-0.0683568
-0.0630904
-0.0712512
-0.0707197
-0.0443992
-0.0461648
-0.0762171
-0.0623606
-0.0678993
-0.0717336
-0.0785755
-0.050444
-0.0685058
-0.0914307
-0.0731776
-0.0908993
-0.0820105
-0.0836168
-0.0746583
-0.0842959
-0.0987282
-0.0945357
-0.0960354
-0.0802024
-0.0687001
-0.0841283
-0.080164
-0.0938931
-0.094965
-0.0913617
-0.0660319
-0.0598673
-0.0797954
-0.0774713
-0.0896884
-0.0900595
-0.0853375
-0.057907
-0.0530683
-0.074825
-0.0629901
-0.0836183
-0.100362
-0.0868798
-0.091052
-0.07261
-0.0946591
-0.0727217
-0.0694376
-0.0827727
-0.0728267
-0.0634724
-0.0421512
-0.0626748
-0.0400983
-0.0613217
-0.070139
-0.0632691
-0.0389327
-0.0411416
-0.0358959
-0.0312388
-0.0643123
-0.061352
-0.0578491
-0.0454835
-0.0641013
-0.0322804
-0.0444408
-0.0883573
-0.0583385
-0.0718143
-0.0706313
-0.082785
-0.050998
-0.069228
-0.0943626
-0.0781656
-0.0823928
-0.0828232
-0.0802523
-0.0711057
-0.0700269
-0.0905793
-0.0812133
-0.0819257
-0.0811373
-0.0837856
-0.070465
-0.0773901
-0.0852813
-0.0838288
-0.0882854
-0.0829196
-0.0723764
-0.0816139
-0.0902746
-0.0920682
-0.140793
-0.123403
-0.104427
-0.0821014
-0.139234
-0.127049
-0.0764519
-0.120245
-0.115108
-0.0740531
-0.0507181
-0.124136
-0.109315
-0.0653227
-0.111439
-0.0898091
-0.0444499
-0.0331033
-0.100045
-0.0650065
-0.0576495
-0.0831157
-0.0677734
-0.0321035
-0.0386074
-0.0560226
-0.0412495
-0.0653003
-0.0642163
-0.0584297
-0.0440594
-0.0630673
-0.0399089
-0.045789
-0.0785295
-0.0586743
-0.0632099
-0.0665023
-0.0671568
-0.0495262
-0.0573257
-0.0782533
-0.0644401
-0.0665309
-0.0674578
-0.0739711
-0.0588355
-0.065166
-0.0885508
-0.0698629
-0.089464
-0.0786519
-0.0923174
-0.070366
-0.0964706
-0.0670822
-0.0490012
-0.0610488
-0.0424041
-0.0467144
-0.036034
-0.034953
-0.0728221
-0.057885
-0.0438206
-0.0484408
-0.052359
-0.0341985
-0.0347714
-0.0784347
-0.041768
-0.0451923
-0.0524091
-0.0505269
-0.0354447
-0.0398633
-0.0841747
-0.0509828
-0.0701265
-0.0491112
-0.0394076
-0.0419834
-0.0413907
-0.0546437
-0.0724301
-0.0541768
-0.0333608
-0.0170947
-0.0364264
-0.0180397
-0.0173822
-0.0427996
-0.0198375
-0.0136785
-0.00967906
-0.0142591
-0.00974924
-0.011536
-0.0168171
-0.0128325
-0.00932002
-0.00938039
-0.0093653
-0.00927351
-0.0117481
-0.0121672
-0.0113064
-0.00961341
-0.0105282
-0.00948625
-0.0107769
-0.0485964
-0.0267835
-0.0238011
-0.0282613
-0.0281593
-0.0179726
-0.017015
-0.0337946
-0.0218078
-0.0201662
-0.0279234
-0.0291782
-0.0170639
-0.0194371
-0.0389394
-0.0212578
-0.0304929
-0.0302044
-0.0367753
-0.021277
-0.0313093
-0.066723
-0.0372014
-0.0611286
-0.0397037
-0.0410968
-0.0356843
-0.0435268
-0.0535462
-0.0660646
-0.0633027
-0.0365971
-0.0196573
-0.042241
-0.0339334
-0.024505
-0.0598037
-0.0569716
-0.0161594
-0.0117033
-0.0330043
-0.0352843
-0.0163151
-0.0577463
-0.0534936
-0.0111801
-0.010471
-0.0357276
-0.0304197
-0.0125027
-0.0489029
-0.0319619
-0.0105047
-0.0116308
-0.0271107
-0.0194549
-0.0188349
-0.0267502
-0.0172749
-0.0158997
-0.0149744
-0.0187633
-0.0166083
-0.0179987
-0.0152764
-0.0145651
-0.0153019
-0.0183137
-0.0165346
-0.0187592
-0.0281452
-0.0153048
-0.0203652
-0.0202099
-0.0300022
-0.0202411
-0.0271184
-0.0580923
-0.0233891
-0.0392577
-0.0343218
-0.0450061
-0.0302923
-0.0411506
-0.066496
-0.046727
-0.0626059
-0.0456276
-0.0405788
-0.0444342
-0.0497287
-0.0650185
-0.06298
-0.0641571
-0.0407837
-0.0472528
-0.0514464
-0.0585095
-0.0679815
-0.0655703
-0.0732644
-0.0486809
-0.0435446
-0.0602559
-0.0634553
-0.0454747
-0.0767688
-0.0783004
-0.0390542
-0.0259421
-0.062694
-0.0505646
-0.0266775
-0.0497857
-0.0652908
-0.0282797
-0.0232459
-0.0389803
-0.0398714
-0.0189521
-0.0627422
-0.0495729
-0.0224237
-0.0223506
-0.0404928
-0.0413301
-0.020357
-0.0453689
-0.034557
-0.0231161
-0.0281069
-0.0404068
-0.0381864
-0.034047
-0.0326438
-0.0320812
-0.0306504
-0.0398869
-0.0387714
-0.0423902
-0.0581823
-0.0334168
-0.042122
-0.0429869
-0.0497354
-0.043748
-0.047499
-0.0619744
-0.0456498
-0.0526479
-0.0515932
-0.0573659
-0.0486678
-0.0512665
-0.0704199
-0.0542054
-0.0622559
-0.0587611
-0.0635567
-0.0520631
-0.0596952
-0.0830687
-0.0681419
-0.0904505
-0.0644012
-0.0564577
-0.0638718
-0.0655251
-0.0322781
-0.022663
-0.025386
-0.0242971
-0.0235409
-0.0189289
-0.0182982
-0.0348585
-0.0247226
-0.0234808
-0.0231873
-0.0212478
-0.018163
-0.0171183
-0.0352286
-0.0244782
-0.032534
-0.019788
-0.015801
-0.016803
-0.0166239
-0.0256032
-0.0352349
-0.0318169
-0.0141183
-0.00960718
-0.0160719
-0.0110364
-0.0107801
-0.0266735
-0.0125776
-0.0083877
-0.00681703
-0.00939836
-0.0074339
-0.00711969
-0.0102811
-0.00813425
-0.00673374
-0.00705596
-0.00746376
-0.00820993
-0.00745443
-0.00809907
-0.00865038
-0.00727744
-0.00809165
-0.00855696
-0.00972571
-0.0085742
-0.00901306
-0.0106007
-0.00843822
-0.00954067
-0.0101548
-0.0115158
-0.0202381
-0.0111933
-0.0125995
-0.0151291
-0.0160276
-0.0108681
-0.0123187
-0.0205304
-0.0133406
-0.0167675
-0.0162352
-0.0158966
-0.0126966
-0.0137868
-0.0309356
-0.0186046
-0.0282656
-0.0158754
-0.0166916
-0.0144714
-0.0176774
-0.0290861
-0.035945
-0.033344
-0.0285758
-0.035621
-0.028882
-0.0282953
-0.0180004
-0.0221707
-0.0290035
-0.019617
-0.0243328
-0.015771
-0.0213897
-0.0098149
-0.0287075
-0.0311022
-0.00854345
-0.00923759
-0.0219535
-0.0209243
-0.00976397
-0.031342
-0.0261266
-0.00954292
-0.0105647
-0.0202063
-0.0172821
-0.0115093
-0.0233162
-0.0176155
-0.0109463
-0.0121981
-0.016507
-0.0156079
-0.0126581
-0.0168046
-0.0176829
-0.0119476
-0.0129799
-0.0186183
-0.0206947
-0.01692
-0.0181305
-0.02065
-0.0133239
-0.0146012
-0.0212354
-0.023153
-0.0277862
-0.0220181
-0.0281496
-0.0153626
-0.0189374
-0.0239174
-0.0270361
-0.0320286
-0.0354736
-0.0312663
-0.0284981
-0.034926
-0.0319551
-0.0288324
-0.0397772
-0.0362672
-0.0410612
-0.0376733
-0.0409159
-0.0379274
-0.0385804
-0.0440341
-0.0507152
-0.0582518
-0.0290342
-0.0299093
-0.049694
-0.05462
-0.0375995
-0.0596301
-0.0597926
-0.0288456
-0.0224995
-0.0539221
-0.0432605
-0.0224385
-0.0573212
-0.0428299
-0.0205245
-0.0174559
-0.0380061
-0.0260777
-0.0233068
-0.0279778
-0.0327027
-0.0244049
-0.0253747
-0.0265764
-0.0309072
-0.0244139
-0.0339494
-0.0371304
-0.0257841
-0.0270336
-0.0329128
-0.0364288
-0.0299538
-0.037663
-0.0394569
-0.0276371
-0.0306267
-0.0369952
-0.0402338
-0.0400498
-0.0407137
-0.0450829
-0.0321578
-0.0386901
-0.0422161
-0.049237
-0.0489259
-0.0464106
-0.0497095
-0.0414164
-0.0505319
-0.0513529
-0.0558078
-0.0576086
-0.050698
-0.0525302
-0.0533493
-0.0572834
-0.0564313