/*--------------------------------*- C++ -*----------------------------------*\
  =========                 |
  \\      /  F ield         | OpenFOAM: The Open Source CFD Toolbox
   \\    /   O peration     | Website:  https://openfoam.org
    \\  /    A nd           | Version:  10
     \\/     M anipulation  |
\*---------------------------------------------------------------------------*/
FoamFile
{
    format      ascii;
    class       volScalarField;
    location    "3.6";
    object      k;
}
// * * * * * * * * * * * * * * * * * * * * * * * * * * * * * * * * * * * * * //

dimensions      [0 2 -2 0 0 0 0];

internalField   nonuniform List<scalar> 
12920
(
3648.78
1768.94
695.276
617.793
565.765
519.69
445.397
381.728
332.912
291.308
235.473
169.591
118.083
89.2893
77.0047
69.412
64.9029
62.6868
62.106
60.6611
2671.98
2363.31
1602.68
1322.35
1183.66
1049.16
774.764
560.096
389.283
298.14
239.748
203.724
176.924
151.848
132.239
121.076
115.676
113.126
113.044
114.002
1316.44
1443.04
1205.38
1189.28
1235.9
1310.66
1271.84
1113.11
765.831
494.193
320.792
224.497
172.937
146.001
136.402
131.12
127.393
121.571
118.813
112.6
974.71
1078.38
1064.16
979.081
970.44
985.976
947.484
801.762
560.987
383.039
276.957
217.329
188.087
173.556
164.858
153.049
144.231
131.805
124.4
111.22
781.651
1554.06
1541.71
1155.91
859.11
733.844
605.13
510.486
423.38
366.085
336.168
323.197
300.126
251.695
201.543
165.407
149.063
134.312
126.178
110.199
5333.04
2486.43
2254.53
1496.29
1058.19
834.624
650.093
545.122
464.785
415.084
366.922
310.231
245.154
190.645
159.614
142.075
132.662
120.14
114.629
102.773
2468.11
2907.14
2394.55
1460.8
933.566
695.409
563.662
496.955
437.758
395.013
341.134
273.069
212.557
172.36
151.85
138.616
128.732
115.479
109.372
98.9925
1795.36
2888.86
2825.63
2388.3
1576.88
1044.73
606.406
335.525
273.656
251.15
226.201
180.397
134.91
103.375
148.969
146.6
136.229
115.897
105.572
96.9608
7575.49
3755.58
2673.88
2208.23
1646.66
849.224
391.644
226.383
168.35
126.429
105.82
83.5303
54.5538
43.9827
97.8906
139.814
125.337
112.146
103.113
93.561
1700.64
2553.09
1823.77
1542.83
1468.12
981.089
401.827
144.421
117.517
116.56
100.543
77.9679
64.0705
65.847
113.354
125.541
99.3688
90.575
83.3484
79.5027
958.03
562.539
739.857
1186.7
1327.21
951.241
496.978
241.116
133.249
107.681
102.406
86.4251
84.4954
92.8764
143.894
127.134
97.0388
84.8569
75.0475
70.3186
4600.63
2477
1143.51
1131.88
1004.09
600.084
309.234
131.505
85.8913
93.2692
97.8569
127.455
136.574
127.182
155.762
107.932
86.1618
76.3554
68.0916
64.3863
1642.95
1288.61
941.721
1004.63
824.865
596.03
344.349
218.294
178.655
178.842
209.299
256.695
253.901
209.834
192.636
117.554
87.2292
74.5541
66.6564
62.182
7330.86
2016.11
1154.04
1178.1
998.238
867.015
667.192
569.312
511.296
491.305
472.767
451.189
395.167
305.604
218.96
149.762
107.862
86.031
75.0098
64.7092
9057.49
3670.69
2158.02
1734.08
1248.41
959.587
763.663
678.981
591.572
530.694
470.994
417.72
356.713
283.473
210.37
151.628
115.798
92.1779
81.3866
67.5374
4103.78
2317.5
1708.93
1420.84
1008.94
718.507
646.295
628.89
576.734
504.386
413.634
328.74
258.907
198.077
155.244
125.155
108.5
93.371
86.4097
72.3078
701.322
1936.93
1156.49
724.172
511.948
488.063
513.737
529.085
499.502
435.374
350.885
268.848
201.216
155.243
131.16
115.994
109.735
101.305
96.9576
84.7019
2413.67
987.082
932.084
868.088
687.288
497.876
421.269
417.331
411.874
391.121
326.668
253.417
195.959
158.419
138.568
127.506
124.353
120.186
117.43
107.638
2995.87
800.838
880.185
696.73
526.053
440.797
372.914
368.922
352.32
323.432
269.423
219.628
179.981
153.091
141.399
140.202
140.896
141.061
139.746
126.674
2279.56
1819.25
943.652
611.123
324.437
245.627
223.96
209.422
190.082
169.298
149.174
132.013
118.501
107.593
100.875
94.6001
91.7658
87.7259
84.5517
74.2431
3844.96
2383.3
2098.53
1782.69
1508.18
1249.91
986.299
822.439
709.543
600.954
462.772
327.805
237.058
187.355
156.825
140.528
136.039
135.69
136.695
140.28
6435.91
4648.36
4266.71
3486.32
2871.82
2260.72
1565.27
1161.59
844.851
685.428
583.864
524.746
468.44
400.661
352.405
335.308
333.918
336.168
340.032
348.594
3557.02
4330.97
3969.66
3555.29
3387.99
3289.58
2916.75
2368.85
1583.91
989.462
687.483
534.962
447.201
398.873
389.333
383.537
378.15
371.321
365.897
352.544
5280.89
4694.79
3527.24
2807.78
2666.76
2691.89
2472.3
1942.86
1270.05
870.136
677.218
578.424
533.334
496.883
466.017
436.362
417.572
392.15
372.824
340.91
6308.14
4951.71
4277.35
2828.85
2170.78
1923.45
1540.67
1315.77
1081.99
968.521
897.556
854.585
774.441
639.454
514.865
446.865
424.236
394.69
371.976
330.812
11927.9
6972.98
5298.67
3365.64
2432.4
2045.31
1613.43
1398.71
1187.2
1048.46
915.106
776.61
621.024
498.611
435.952
401.487
380.165
350.845
335.265
302.984
5842.4
6477.84
5232.35
3288.81
2108.47
1680.22
1395.08
1245.15
1091.11
960.556
819.751
668.355
537.937
453.463
411.309
382.813
358.292
329.34
313.006
287.578
3306.32
5116.28
5343.73
4635.08
2947.25
2165.46
1541.4
1233.45
979.97
817.334
686.845
549.607
426.096
365.219
392.071
375.183
336.27
302.288
283.093
273.119
5691.77
5496.62
4361.05
3886.24
2528.05
1851.66
1327.95
1148.97
887.893
689.21
551.746
425.624
324.423
297.19
314.504
319.125
301.954
278.933
263.603
261.282
3223.42
4730.47
3838.93
3797.79
3458.71
2610.91
1546.58
974.147
761.385
642.837
521.303
416.863
333.423
284.185
271.993
250.471
229.737
226.045
226.675
234.924
4005.64
4764.1
3621.77
3903.8
3492.59
2822.6
1917.59
1326.83
825.784
582.278
489.344
401.677
370.966
379.06
372.242
261.702
225.937
208.487
199.188
202.703
9876.48
5171.85
3065.82
3314.38
2292.84
1833.6
1247.22
772.646
618.024
569.965
555.771
600
601.535
530.083
395.743
242.664
208.82
190.887
184.761
187.609
11935.9
7642
3380.07
2875.02
1854.87
1459.22
1086.59
924.368
863.846
852.337
904.719
923.901
830.473
656.672
376.226
259.575
218.835
198.461
186.436
183.794
8235.8
5295.21
3619.1
3028.41
2303.5
2118.71
1748.11
1612.03
1470.73
1418.12
1310.82
1175.88
984.33
739.818
502.122
340.563
266.689
229.385
207.055
188.311
14601.8
8796.06
5550.13
3920.15
2409.4
2213.42
1910.73
1839.66
1632.24
1473.92
1291.5
1128.44
944.479
725.74
515.133
371.613
297.982
251.06
224.425
192.42
20860.3
7103.14
4231.38
3071.45
1912.16
1858.11
1752.24
1697.69
1486.51
1295.2
1068.71
867.281
676.534
516.65
406.137
334.823
297.344
263.041
243.928
207.997
2497.49
7502.82
2714.02
1810.85
1281.5
1452.18
1430.78
1396.63
1208.44
1049.99
847.926
667.47
505.748
408.304
359.518
327.398
311.048
292.071
281.302
249.285
6210.13
4006.51
2673.16
2244.66
1611.61
1486.45
1204.93
1178.7
1076.8
954.243
773.696
623.412
499.952
432.114
396.159
373.986
366.43
353.842
345.364
318.446
6682.18
2543.38
2682.25
1987.82
1379.79
1214.06
1000.65
957.589
856.282
759.525
629.831
529.918
455.283
417.531
405.144
404.663
406.672
406.255
399.583
362.556
6800.15
2565.66
1791.13
1359.84
760.525
591.549
508.723
461.225
400.789
347.167
291.11
251.83
226.307
214.175
207.968
206.12
206.674
207.217
205.131
185.277
2056.18
2343.49
2147.19
1941.39
1745.49
1404.91
1097.93
889.873
723.641
557.557
408.251
298.394
236.437
206.934
192.793
183.082
180.641
177.445
177.394
177.256
12232.6
6664.58
5299.33
4464.71
3471.43
2474.52
1585.37
1155.22
864.739
734.328
646.094
609.114
579.138
551.103
531.784
526.876
528.641
534.601
543.6
562.01
2426.79
5035.9
5324.59
5035.79
4515.83
3811.34
2772.08
2031.33
1434.2
1106.54
891.088
760.951
684.866
642.138
622.071
606.933
596.258
586.562
580.835
568.257
7144.25
6883.57
5454.22
4410.27
3855.9
3471.41
2620.77
1958.95
1412.96
1126.9
948.219
836.345
768.706
713.057
672.027
637.756
612.361
583.192
564.922
532.489
10404.8
7812.12
5711.05
4025.14
3236.69
2739.68
2119.71
1749.34
1433.99
1270.57
1138.4
1023.11
902.648
787.336
705.137
650.458
616.084
574.094
548.461
503.945
9862.91
9111.09
6516.41
4398.46
3405.38
2796.24
2198.41
1842.72
1528.41
1302.66
1108.48
926.923
782.748
683.054
625.728
582.854
552.377
516.527
498.441
461.18
6741.46
8134.14
6530.13
4156.5
3012.84
2438.03
1965.32
1660.43
1385.27
1169.95
976.708
817.336
709.695
641.858
598.399
559.119
525.9
491.288
473.444
441.801
3990.5
5681.97
6412.83
5561.62
3563.5
2717.76
2108.04
1707.63
1335.36
1061.27
874.656
720.263
620.528
572.876
574.889
532.121
487.883
454.85
439.596
427.334
3218.5
5927.62
5407.29
4457.45
2800.15
2246.62
1944.97
1648.22
1230.44
948.082
758.638
616.613
530.938
496.826
478.533
471.05
443.25
422.304
413.955
415.207
5332
7620.52
5987.9
5145.62
4033.27
2922.39
1914.65
1420.76
1105.67
883.833
708.438
574.129
468.366
390.232
354.145
371.34
370.952
373.31
377.39
392.607
14616.1
11805.1
7069.48
5801.16
3937.85
3146.11
2217.4
1554.95
1106.47
852.599
548.906
401.369
381.107
422.766
417.893
366.106
346.207
340.58
340.388
349.083
9705.23
8232.6
5730.92
4145.58
2722.24
2198.64
1652.2
1240.03
1050.7
902.037
838.384
798.805
723.9
605.57
435.321
347.625
317.686
303.969
302.113
308.672
4574.25
5892.18
4986.27
3658.93
2566.55
2187.27
1751.61
1547.38
1398.41
1297
1222.13
1091.53
892.559
666.746
445.431
366.517
327.926
304.322
293.397
293.495
10951.6
6218.04
5139.85
3798.23
3048.2
2821.03
2433.37
2272.14
2010.44
1808.83
1544.71
1280.98
1009.72
757.295
569.155
445.854
377.909
334.411
306.78
290.051
11860.2
8308.95
5841.88
4296.74
3131.49
2955.26
2589.07
2398.14
2058.23
1797.03
1503.62
1243.48
988.368
751.903
577.867
467.409
399.047
348.707
317.125
286.275
13695.7
7385.29
5396.12
4022.95
3058.95
2876.15
2478.49
2219.26
1854.03
1553.35
1246.3
997.262
786.253
624.737
517.889
451.109
408.556
368.531
344.44
305.814
32329.8
18164.7
4859.96
3030.42
2455.19
2302.24
2031.52
1781.71
1471.87
1235.18
986.757
801.672
661.258
573.425
515.756
472.981
450.607
422.125
405.921
364.241
14761.2
6707.51
3854.06
3007.32
2388.39
2113.62
1757.05
1570.34
1313.43
1122.63
920.87
786.826
688.686
629.288
592.656
564.839
553.46
529.925
514.491
473.164
5855.55
3717.73
3290.62
2292.79
1944.17
1563.45
1368.88
1207.62
1048.86
924.416
801.424
729.243
676.848
646.431
635.028
631.921
632.791
626.155
604.332
542.422
782.942
1736.43
2139.99
1642.34
987.003
751.863
650.278
559.978
485.632
423.324
372.062
340.7
322.721
307.233
298.403
287.814
281.665
267.186
252.121
216.786
1130.51
2153.52
2487.48
2301.14
1870.52
1363.61
1041.55
801.933
599.793
427.327
319.315
258.649
227.242
208.924
200.335
193.883
191.62
189.189
188.539
186.692
13130.5
7214.92
6915.24
5379.9
3925.44
2435.13
1533.93
1143.88
927.059
854.881
802.141
793.972
783.614
781.161
782.691
789.43
807.562
825.604
846.565
873.246
13030.3
10708.4
8789.12
7288.05
5831.18
4031.64
2648.52
1884.1
1475.92
1262.55
1117.59
1024.96
967.85
935.019
917.248
904.261
896.126
888.792
883.602
875.462
9406.69
8623.89
7015.66
5782.81
5001.81
3815.41
2746.65
2045.84
1622.71
1376.35
1226.02
1111.51
1041.87
980.509
941.72
905.757
880.172
851.284
833.12
803.182
7525.54
8602.94
6896.43
4922.98
4217.39
3251.55
2561.33
2071.91
1760.27
1540.75
1373.95
1218.43
1104.68
1012.29
954.854
905.17
868.52
823.367
796.323
752.054
6156.16
8666.16
7462.39
5036.7
4264.84
3300.54
2700.56
2211.46
1841.56
1536.49
1313.04
1120.88
1002.32
918.375
866.903
818.402
784.557
747.251
728.111
689.661
9193.3
9972.08
7654.19
4715.7
3813.58
2969.67
2428.16
1968.5
1631.84
1354.36
1157.84
1012.99
931.726
872.835
832.774
786.978
752.883
718.809
701.741
667.696
19344.4
11139.1
8894.84
6192.91
4167.57
3235.1
2609.45
2021.59
1566.89
1232.21
1036.51
904.502
834.056
789.945
794.399
742.662
704.583
681.131
672.482
656.333
22128.9
10000.1
6682.37
4756.48
3250.83
2762.13
2475.23
1961.45
1439.97
1124.01
922.03
802.459
739.778
707.535
687.494
692.7
662.189
651.211
650.907
650.87
12322.1
10330.5
7667.04
5798.19
4265.31
3037.18
2234.67
1728.02
1339.69
1055.23
848.352
703.346
602.402
549.286
556.254
617.402
615.487
616.92
620.265
630.884
27915.6
12489.6
9085.92
6095.61
4057.32
3115.89
2268.18
1663.65
1312.69
1047.9
775.082
557.385
470.814
483.922
534.599
577.836
563.681
559.035
559.062
567.082
16652.5
10662.2
7565.5
4433.13
3196.34
2479.74
1969.82
1617.32
1379.12
1176.4
1027.05
882.014
751.156
634.393
537.533
521.277
493.601
485.902
486.222
498.327
4638.22
7184.39
6477.32
4056.77
3271.37
2781.39
2344.71
2053.02
1803
1591.28
1365.11
1117.25
871.693
666.108
571.403
517.523
484.718
464.604
458.348
464.819
10440.1
7467.31
6330.63
4294.31
3854.42
3370.67
3047.69
2745.7
2378.7
2015.11
1638.18
1293.26
1010.97
798.839
666.144
578.61
522.626
481.768
456.995
448.832
10593.9
9140.3
6381.82
4378.98
3891.93
3389.55
3122.69
2764.78
2358.38
1955.82
1589.55
1267.52
1007.28
806.969
679.735
594.481
534.807
486.316
454.736
431.938
10310.1
7462.98
6174.91
4460.87
4056.59
3393.07
3011.78
2522.72
2102.74
1672.51
1346.42
1076.44
887.225
750.175
665.061
602.065
558.734
514.5
486.693
451.622
10153.7
9098.46
5676.21
3729.04
3439.16
2723.3
2457.14
1968.09
1649.7
1326.68
1101.94
935.376
828.551
751.062
699.702
654.303
628.453
590.22
569.075
521.955
17477.9
8294.77
5438.43
3709.02
3178
2476.12
2155.54
1759.54
1488.64
1244.42
1082.16
980.087
912.806
865.88
837.636
806.33
790.904
753.976
732.068
678.876
18915.7
4851.07
3718.37
2675.34
2477.05
1764.59
1649.35
1342.33
1211.56
1084.96
1014.19
985.085
963.899
947.108
941.264
932.582
930.137
905.8
867.847
796.883
2401.34
2090.49
2076.33
1305.4
993.813
766.434
674.148
560.672
491.846
434.274
390.375
367.234
354.119
336.95
326.171
305.225
293.831
270.802
258.023
225.53
2338.58
2574.21
2736.39
2365.71
1677.73
1118.48
770.401
517.665
365.91
280.934
240.747
219.353
208.865
201.389
197.747
192.989
190.689
185.36
183.027
178.171
21435.5
10315.8
9369.67
5588.43
4494.69
2118.31
1696.97
1207.48
1195.99
1123.64
1149.93
1142.46
1163.05
1175.05
1208.09
1227.01
1261.94
1284.37
1307.61
1345.85
24965.1
20976
14275.6
8688.96
6902.26
3721.15
2696.36
1840.3
1723.02
1525.09
1484.5
1378.81
1361.3
1331.25
1332.45
1325.01
1323.99
1319.64
1314.81
1317.48
31691.9
11197.5
8996.92
6162.89
5872.54
3654.74
2936.21
2072.32
1926.91
1655.25
1588.53
1446.78
1405.63
1334.54
1314.54
1277.94
1260.8
1234.55
1219.33
1200.34
11976.6
10167.8
9157.34
5583.72
5282.8
3439.35
3039.66
2261.77
2108.55
1769.26
1653.12
1457.83
1398.3
1320.81
1299.98
1258.04
1229.72
1184.31
1159.98
1126.88
8019.9
8845.76
8733.77
5712.36
5221.51
3548.61
3220.61
2454.47
2160.19
1746.78
1561.2
1370.66
1302.02
1230.2
1194.06
1143.17
1117.22
1085.94
1070.5
1042.41
22929.8
10421.9
8995.87
5199.72
4748.07
3285.91
2904.22
2172.19
1897.23
1539.04
1410.8
1266.7
1230.25
1172.42
1150.89
1105.37
1085.88
1058.86
1045.72
1019.2
14628.8
10181.3
11106.1
6321.1
4993.1
3663.21
3118.97
2307
1852.71
1481.46
1332.7
1227.93
1189.9
1146.32
1120.3
1068.64
1046.9
1034.3
1028.33
1009.74
22765.3
11035.2
8707.5
5095.38
3978.68
3264.38
3033.68
2263.03
1730.83
1414.69
1240.57
1161
1126.87
1103.22
1092.4
1038.68
1010.09
1009.41
1013.13
1007.03
4328.87
10093.9
9811.05
6141.76
4742.72
3271.81
2681.52
2119.61
1699.91
1341.91
1093.73
957.688
950.493
968.269
1001.51
988.644
982.182
983.349
990.834
982.07
25076.4
14826
11452.8
6128.98
4497.94
3118.45
2468.65
2014.93
1697.56
1322.31
1030.21
795.948
781.506
875.562
944.897
933.017
908.534
898.396
901.964
897.89
38516
16156.4
9367.92
5180.81
3918.55
2748.79
2394.51
2111
1847.38
1538.8
1250.87
1028.37
950.971
907.353
886.889
823.259
801.929
792.405
796.358
808.348
12331.9
10459.9
8501.71
4634.1
4335.34
3140.39
2916.33
2526.26
2244.51
1891.44
1548.75
1219.91
1001.05
872.875
826.836
775.954
751.581
738.925
739.432
755.716
27476.3
10266.3
7470.24
5183.61
4782.64
3665
3655.32
2960.93
2676.14
2075.68
1697.03
1301.59
1091.92
937.338
867.004
800.76
766.144
732.123
722.174
724.827
7143.16
10572.4
8197.5
4784.95
4838.63
3562.87
3652.51
2913.23
2581.5
1951.45
1626.62
1267.86
1083.21
931.274
860.507
795.371
754.641
710.684
690.861
685.311
11480
9130.21
7112.63
5369.12
4935.57
3611.7
3486.39
2598.41
2302.91
1664.4
1445.86
1146.88
1044.6
923.543
880.347
816.586
784.397
737.927
716.235
696.182
9477.09
9754.67
7134.77
4710.74
4357.74
2982.93
2855.73
2022.71
1825.89
1354.07
1254.13
1071
1035.3
957.618
935.249
883.54
859.731
811.057
789.267
752.053
23171.6
9681.76
6908.33
4510.22
3898.47
2740.19
2530.23
1838.32
1696.9
1335.18
1298.18
1187.55
1184.3
1137.89
1127.51
1086.21
1065.65
1011.82
988.463
935.219
22529.1
6793.27
4086.76
3748.05
2930.17
2057.64
1966.69
1429.75
1440.81
1240.74
1301.75
1277.53
1326.5
1311.33
1306.31
1261.32
1244.1
1200.05
1180.9
1136.22
1251.78
2122.07
1761.25
1066.74
922.305
692.673
607.003
502.342
445.252
402.89
376.532
358.702
347.672
332.287
316.642
284.312
252.773
216.55
202.093
177.897
748.167
856.686
607.048
1011.22
856.358
984.045
721.616
604.38
546.677
435.837
812.487
700.669
651.909
529.929
607.921
877.141
801.747
999.071
752.859
1064.12
957.15
432.45
786.406
748.082
679.505
529.433
925.212
832.193
229.672
258.426
121.05
924.789
946.381
836.953
758.735
185.586
113.012
116.485
922.778
802.029
730.095
669.995
131.908
118.793
118.228
743.959
622.476
652.4
584.757
109.46
116.006
100.364
584.29
502.274
559.211
476.736
90.8167
95.0033
75.0463
470.843
393.464
450.138
371.517
62.2021
69.4005
62.5781
360.601
283.859
350.482
299.708
44.1404
60.6289
59.4066
263.615
239.689
285.229
256.94
40.3944
60.3073
54.1973
239.928
256.436
250.281
238.03
168.459
530.559
305.524
1272.25
902.629
1658.99
1346.86
118.234
248.763
143.4
813.269
667.557
1186.7
801.409
117.208
133.008
116.473
639.507
577.274
703.023
541.202
105.984
113.396
107.35
555.241
479.473
514.723
459.038
81.2559
104.092
94.9662
453.453
381.229
438.894
375.508
67.9749
88.1311
75.0452
361.47
303.471
352.985
307.375
63.6802
75.3547
82.996
287.66
258.161
301.407
301.409
56.6396
84.5326
70.4589
251.503
241.862
303.735
311.281
294.783
404.757
186.632
1554.37
1285.42
1251.63
788.377
140.626
148.56
92.8309
1130.5
780.445
657.792
482.296
111.834
87.3053
89.5376
694.981
523.333
476.697
477.007
103.924
93.6086
97.8852
496.749
447.131
472.199
458.235
92.0286
98.7725
112.559
431.815
377.751
459.19
480.185
82.0016
118.815
128.789
360.27
337.189
488.252
500.36
92.78
129.117
125.725
337.635
345.588
499.911
474.702
71.9067
120.913
87.2244
346.266
336.082
457.136
397.511
159.73
246.003
125.416
959.701
700.219
736.853
655.389
88.8999
114.414
76.9965
608.445
480.969
633.593
578.171
90.3402
73.1688
64.0315
478.477
479.395
564.594
511.625
95.9507
62.071
64.172
471.007
462.295
503.978
518.51
120.73
68.6109
112.56
468.39
513.639
541.286
629.364
136.655
125.01
148.858
526.201
541.083
652.034
675.81
131.523
150.653
143.19
539.579
504.033
668.44
593.488
90.2275
135.013
96.1773
482.764
408.262
552.887
435.869
1197.87
1132.5
948.319
1781.87
1650.68
1592.23
1385.33
962.345
905.375
804.731
1546.41
1263.31
1309.79
1109.58
735.608
775.585
681.296
1164.14
957.07
1051.9
892.789
586.903
648.77
551.782
897.106
758.242
844.665
715.522
459.368
521.398
435.479
716.185
606.732
677.264
576.432
343.812
411.528
351.718
573.336
498.415
547.761
474.999
298.238
335.15
298.362
482.508
453.879
454.663
403.491
300.051
289.196
263.626
449.225
442.348
390.214
355.449
1068.43
2011.74
1538.15
1842.31
1430.29
2267.04
1726.72
799.028
1376.16
951.972
1330.08
1095.48
1572.08
1164.93
672.511
830.492
632.159
1036.35
882.262
1058.75
839.897
551.139
598.772
522.088
835.129
707.946
799.32
624.011
440.236
495.69
417.43
670.026
569.999
574.748
458.534
351.465
392.559
340.451
540.701
461.604
428.22
361.201
293.675
331.605
327.227
438.316
378.623
348.849
346.313
263.123
329.497
333.512
363.269
336.108
352.731
367.675
1481.03
1558.47
977.982
2198.47
1683.52
1805.24
1277.71
939.121
837.285
633.323
1537.75
1158.05
1167.52
990.613
615.119
618.646
584.053
1054.36
829.673
956.496
842.078
511.091
568.639
539.621
791.641
616.555
809.09
743.645
421.495
538.536
549.857
570.271
461.129
732.404
708.765
371.435
554.876
559.768
432.939
391.316
701.557
672.68
378.136
557.158
523.208
392.328
414.965
659.033
599.898
361.962
503.674
429.227
419.792
407.654
574.605
485.074
873.178
999.498
833.158
1571.66
1220.57
1489.02
1314.23
627.933
806.79
729.701
1139.65
992.322
1275.8
1146.22
586.781
710.44
643.618
960.323
856.922
1112.79
1008.96
551.645
633.53
645.571
827.156
781.802
992.983
973.602
590.774
666.93
738.921
777.664
768.201
976.371
968.965
606.424
755.155
757.26
762.387
726.219
957.097
879.849
554.431
740.438
647.579
707.458
630.089
843.517
711.854
437.82
605.442
467.228
598.226
491.354
661.155
501.983
1761.54
1725.87
1497.66
2337.45
2043.06
2068.06
1783.95
1331.84
1413.11
1186.17
1887.34
1498.07
1673.08
1376.4
1010.75
1121
945.594
1388.22
1146.31
1293.61
1082.02
801.711
893.818
757.122
1077.63
919.388
1022
868.18
648.38
717.234
613.592
876.231
774.456
825.045
718.203
545.549
584.412
510.4
748.633
691.32
689.457
618.149
501.94
489.607
437.058
679.899
652.722
598.881
553.429
482.661
423.523
385.191
646.328
626.275
542.992
515.65
1524.1
2283.22
1740.85
2145.53
1769.85
2321.84
1799.34
1170.37
1588.15
1208.12
1652.26
1360.59
1659.17
1344.97
934.992
1111.77
894.567
1280.98
1071.87
1261.34
1047
865.883
835.856
870.685
928.065
823.977
877.149
915.589
690.397
671.322
695.19
744.138
657.245
705.725
730.173
492.55
407.069
349.73
668.881
585.972
490.741
416.088
405.963
341.071
345.978
562.326
507.532
404.073
399.528
360.757
354.244
371.651
496.079
482.618
405.715
427.355
1698.66
1831.55
1346.97
2247.38
1750.39
1931.9
1567.79
1200.02
1249.41
1081.32
1620.49
1333.87
1490.78
1315.12
887.198
1041.53
912.856
1254.91
1047.84
1261.86
1106.85
826.956
771.818
850.425
897.652
786.71
742.765
907.38
592.021
505.692
622.982
440.015
588.981
399.878
627.041
375.427
735.811
693.317
485.027
434.315
803.357
724.218
416.139
676.059
609.962
432.654
445.95
699.501
626.973
413.796
583.428
490.909
452.566
456.383
602.356
524.793
1315.44
1645.68
1452.34
1880.59
1590.28
2066.32
1837.66
1088.77
1408.79
1262.36
1520.25
1346.19
1775.79
1578.36
933.981
1223.52
1108.52
1294.55
1147.48
1525.49
1373.54
847.249
1089.62
1054.42
1107.95
1013.84
1342
1240.25
810.755
1050.29
1013.96
985.749
896.672
1209.26
1090.12
746.693
993.416
894.25
866.549
774.604
1047.17
899.874
638.793
853.523
713.068
744.012
651.218
851.197
701.705
495.568
661.373
500.923
619.67
525.489
653.535
520.327
2128.61
2184.09
1873.46
2882.14
2382.6
2555.13
2167.97
1551.25
1753.57
1437.32
2181.68
1745.27
2025.11
1675.78
1193.62
1350.33
1129.49
1639.17
1393.2
1584.94
1340.14
963.978
1066.84
907.371
1322.23
1169.44
1266.3
1086.2
825.795
863.442
757.064
1136.6
1062.61
1041.43
942.35
749.858
729.196
662.35
1046.03
1007.81
920.176
887.343
713.895
645.266
606.973
1002.48
983.047
884.4
876.002
681.41
598.696
572.489
976.443
943.047
874.277
863.249
1850.08
2349.03
1838.57
2550.51
2135.82
2502.02
2049.92
1423.41
1703.62
1401.38
2002.55
1676.66
1935.2
1663.13
1119.09
1317.79
1096.24
1585.56
1324.38
1572.38
1299.6
893.39
1033.49
828.011
1246.02
1055.72
1215.04
1010.58
735.031
762.099
604.037
1006.88
893.537
947.284
771.937
623.562
557.376
463.487
866.296
822.964
722.653
649.711
557.4
447.778
440.855
821.739
823.278
652.487
700.952
538.318
447.942
469.714
825.351
832.23
718.589
755.566
1786.61
1986.99
1651.66
2396.83
1996.26
2226.89
1965.92
1390.79
1576.54
1394.99
1897.63
1659.12
1899.3
1718.42
1099.3
1338.83
1173.26
1574.02
1310.02
1653.47
1432.26
844.296
1126.29
1003.43
1230.62
1023.42
1361.63
1167.66
603.845
964.843
853.129
956.261
772.821
1107.39
945.03
479.646
819.506
732.589
723.192
655.906
902.643
831.597
476.373
707.754
640.739
660.659
712.978
824.089
804.146
492.705
619.167
550.876
729.695
759.208
796.081
767.446
1687.26
2210.52
1962.32
2272.55
2036.41
2629.37
2352.84
1434.58
1893.5
1680.12
1968.26
1773.3
2266.95
2024.28
1220.41
1621.83
1457.32
1709.14
1499.2
1956.5
1749.37
1062.83
1419.96
1291.4
1430.59
1237.34
1686.51
1472.32
917.33
1251.15
1107.17
1177.08
1011.75
1406.35
1201.73
781.902
1058.61
900.493
967.11
879.561
1139.84
972.445
662.955
850.996
704.917
862.017
812.988
927.477
816.153
550.24
660.528
540.353
797.985
756.761
786.334
715.313
2470.1
2701.2
2283.79
3398.79
2724.86
3100.47
2629.92
1830.94
2135.46
1784.89
2508.71
2120.53
2476.4
2139.66
1485.36
1694.8
1442.11
2033.74
1782.55
2053.35
1770.76
1267.83
1364.72
1179.55
1712.94
1593.27
1686.51
1498.45
1174.91
1135.55
1041
1577.9
1520.18
1459.92
1376.07
1129.19
1022.73
1011.58
1509.17
1490.08
1369.48
1403.66
1109.52
1015.12
1014.08
1493.18
1468.65
1412.58
1406.26
1065.57
1013.42
1001.06
1463.68
1414.89
1406.03
1387.78
2255.01
2583.1
2157.68
3059.41
2617.57
2856.6
2515.76
1792.66
2050.98
1787.41
2480.23
2162.75
2424.1
2177.24
1425.55
1693.38
1398.28
2065.21
1752.9
2071.19
1730.14
1142.8
1305.93
1086.99
1660.22
1451.12
1622.14
1374.39
982.311
1022.11
843.621
1404.33
1299.79
1307.65
1130.2
940.881
797.057
757.029
1287.8
1334.02
1101.73
1162.65
964.751
777.127
852.094
1356.76
1367.19
1215.03
1284.12
972.166
869.841
898.989
1369.63
1358.77
1293.83
1297.94
2104.18
2332.36
2099.11
2734.14
2465.48
2672.02
2515.43
1786.14
2036.92
1858.18
2393.73
2183
2456.85
2278.27
1410.97
1789.34
1547.04
2082.39
1749.76
2196.98
1900.43
1099.1
1466.03
1245.36
1641.86
1384.25
1797.1
1527.42
843.315
1178.77
1004.82
1312.47
1126.86
1450.07
1265.94
759.641
963.141
915.652
1098.45
1162.01
1234.77
1259.58
858.907
919.376
917.437
1215.15
1284.14
1280.08
1283.6
898.966
912.836
890.417
1292.43
1289.57
1281.07
1261.05
2177.81
2771.51
2491.97
2770.75
2605
3147.59
2881.74
1914.67
2400
2155.05
2534.25
2332.05
2769.87
2529.92
1617.24
2083.59
1862.5
2255.19
1971.59
2447.97
2190.19
1318.13
1786.74
1549.94
1868.78
1599.14
2072.57
1811.06
1072.82
1476.21
1260.24
1519.38
1329.89
1717.77
1495.9
960.686
1194.96
1035.43
1292.6
1287
1417.67
1297.8
917.847
994.004
899.867
1286.04
1268.8
1260.39
1211.07
875.401
875.048
818.487
1263.25
1239.29
1189.07
1157.99
817.585
790.444
735.562
785.385
778.042
829.565
772.704
858.094
857.376
783.564
900.189
814.199
905.447
767.075
795.274
708.614
687.897
524.646
758.198
740.495
615.523
905.451
969.78
954.976
1000.04
916.201
958.03
944.063
855.965
821.023
903.764
844.803
866.86
809.177
893.123
897.765
936.563
993.803
901.903
950.223
792.375
938.457
837.238
553.294
823.713
811.26
780.269
644.354
880.396
651.998
636.655
586.356
636.783
620.668
669.998
616.05
647.9
662.105
497.701
462.859
621.141
690.417
419.459
599.509
541.223
456.622
391.916
578.356
561.304
389.534
723.688
778.447
772.13
799.107
738.975
764.9
756.629
684.001
668.476
735.107
677.517
702.462
646.295
716.391
683.243
490.335
770.669
602.278
728.169
448.473
722.795
632.598
417.04
631.181
565.645
591.59
414.11
674.991
738.552
681.779
664.924
503.774
719.614
596.075
672.842
875.53
857.929
846.491
941.491
817.836
917.987
908.561
833.136
748.089
821.453
856.769
780.014
796.763
880.475
891.675
944.681
933.365
1012.16
803.992
961.575
958.205
804.018
555.969
839.051
823.581
653.154
734.194
889.127
933.858
1003.33
1032.04
1025.81
976.035
968.19
989.024
889.62
908.73
900.44
990.62
849.356
936.972
943.935
577.403
458.855
544.755
365.381
567.201
359.774
550.782
741.535
723.106
772.641
836.612
701.724
767.394
817.493
721.264
669.407
760.556
781.464
685.471
699.842
799.77
641.325
487.883
620.906
767.285
443.361
682.927
716.515
616.178
403.549
564.485
634.758
398.367
583.647
673.792
782.622
882.975
860.174
893.453
814.636
857.732
821.663
755.588
809.126
753.811
862.717
728.124
833.616
787.035
432.963
619.274
463.892
857.742
775.833
928.432
894.399
286.807
363.02
292.41
693.673
649.753
841.003
744.85
254.616
256.649
233.115
597.891
577.551
665.772
610.21
239.244
219.443
203.572
531.025
497.195
557.95
507.136
200.937
187.888
168.563
451.163
416.595
458.638
409.129
152.658
147.954
123.226
364.449
320.812
355.695
297.802
111.289
100.386
83.8563
275.022
242.865
244.523
209.44
83.0552
80.0464
59.7005
226.065
243.845
202.213
223.69
611.101
813.979
479.665
1137.26
889.179
1099.57
806.535
407.874
294.885
360.769
501.565
453.932
473.408
260.942
367.802
212.35
159.905
407.627
396.222
364.794
150.433
338.68
153.03
137.364
329.957
311.132
350.18
130.122
279.239
119.46
110.652
261.189
254.436
292.416
105.306
221.333
100.709
90.5583
219.107
211.402
235.916
85.8074
155.175
78.4507
69.253
166.59
154.888
169.521
63.6229
118.833
49.5772
50.9895
113.102
105.401
124.232
49.3861
132.311
44.7923
51.0177
104.457
112.375
123.128
54.1472
84.7253
101.061
77.1064
224.577
247.221
209.266
216.983
721.171
939.485
800.133
1483.94
1364.75
1639.76
1632.1
624.803
279.632
448.225
604.309
549.065
664.26
338.724
471.677
129.765
193.843
399.812
365.088
524.603
168.173
326.427
117.179
122.767
328.531
324.594
337.971
119.493
305.847
114.591
117.029
315.294
305.989
314.081
114.922
252.519
93.9021
102.468
262.349
243.627
266.3
97.4782
205.427
75.9974
87.5679
204.594
195.269
220.798
82.6331
165.85
62.8186
67.1359
158.958
155.552
166.992
66.9733
170.371
67.1589
72.5886
157.066
157.226
169.856
73.7937
89.8059
130.271
102.115
216.27
221.965
256.04
247.291
757.903
846.773
664.254
1522.96
1493.11
1400.73
1318.76
644.54
399.314
478.56
729.575
708.502
693.769
373.473
301.47
190.014
214.258
491.14
386.996
375.612
170.223
316.387
125.197
125.177
361.644
340.423
324.41
117.323
263.435
106.04
99.9162
282.442
276.441
264.272
100.106
255.913
100.744
100.672
261.704
255.909
259.864
99.5777
238.764
82.3526
91.3985
218.841
210.273
238.079
91.5613
256.409
88.6262
101.401
214.066
219.38
252.975
103.668
249.822
92.6052
103.824
225.979
225.18
255.36
101.309
107.102
157.218
107.496
296.753
264.116
317.095
267.747
446.994
488.885
361.996
1021.81
897.865
836.502
721.741
349.438
245.428
275.718
439.395
415.146
387.148
213.877
226.682
110.602
123.518
263.808
228.736
249.107
107.226
223.861
85.9876
85.9705
212.114
216.989
216.979
86.0795
234.802
94.5238
88.7223
244.496
248.035
235.945
87.8442
278.514
103.096
92.4756
260.985
276.99
253.686
102.476
351.641
132.593
131.678
324.626
334.823
338.053
138.157
366.932
136.098
144.613
344.587
343.696
367.93
144.156
318.439
120.646
133.097
317.111
305.064
334.698
123.885
100.535
145.86
94.4264
322.197
250.332
310.769
223.287
265.532
367.538
258.873
573.086
549.893
589.109
574.195
189.527
221.8
203.915
523.258
508.526
564.671
572.236
176.622
202.374
205.803
505.43
510.431
602.059
638.228
186.728
219.908
236.333
534.369
573.547
683.782
722.625
238.182
251.9
258.798
632.582
687.336
758.7
771.231
259.186
262.499
259.665
722.944
723.902
769.851
749.06
231.524
245.935