/*--------------------------------*- C++ -*----------------------------------*\
  =========                 |
  \\      /  F ield         | OpenFOAM: The Open Source CFD Toolbox
   \\    /   O peration     | Website:  https://openfoam.org
    \\  /    A nd           | Version:  10
     \\/     M anipulation  |
\*---------------------------------------------------------------------------*/
FoamFile
{
    format      ascii;
    class       volScalarField;
    location    "3.6";
    object      omega_0;
}
// * * * * * * * * * * * * * * * * * * * * * * * * * * * * * * * * * * * * * //

dimensions      [0 0 -1 0 0 0 0];

internalField   nonuniform List<scalar> 
12920
(
279.819
180.859
115.512
110.652
106.234
101.73
94.159
87.1647
81.423
76.0949
68.2464
57.7858
48.2234
42.0237
39.074
37.1087
35.8957
35.2874
35.1242
34.7081
235.93
218.68
177.888
162.203
153.534
144.392
123.896
105.173
87.6948
76.8082
68.918
63.5647
59.2274
54.8506
51.198
49.009
47.9098
47.3851
47.369
47.5722
157.066
164.943
152.413
153.345
157.381
161.893
159.256
148.236
122.573
98.3529
79.322
66.4838
58.4493
53.7927
52.0381
51.0187
50.2711
49.0985
48.5359
47.2463
139.281
146.1
145.382
139.62
139.144
140.145
137.244
125.673
104.951
86.7513
73.8855
65.5602
61.0813
58.713
57.205
55.1006
53.4768
51.1059
49.6405
46.9435
114.75
176.463
174.987
151.279
130.654
120.739
109.582
100.613
91.6489
85.2886
81.8531
80.2652
77.2386
70.5983
63.1366
57.2343
54.3598
51.5943
49.9955
46.726
291.947
222.672
211.811
172.863
145.433
128.94
113.71
104.107
96.1543
90.8745
85.3794
78.3973
69.6071
61.393
56.2316
53.0809
51.2924
48.8059
47.6711
45.1377
234.436
242.628
217.973
169.466
135.631
117.518
105.924
99.4641
93.3459
88.6305
82.2676
73.5122
64.8428
58.4374
54.8907
52.4472
50.5266
47.8469
46.5668
44.3078
182.029
241.522
238.476
217.926
176.663
143.595
218.995
163.237
147.897
141.626
134.174
119.61
103.352
90.5109
54.4731
54.0192
51.9843
47.9241
45.7552
43.8602
379.383
273.737
232.281
210.682
181.108
259.327
352.587
269.951
231.249
200.664
183.53
162.684
131.175
118.575
88.4055
52.7016
49.8923
47.1776
45.2234
43.0805
193.223
227.057
189.727
175.792
171.553
280.378
356.37
214.665
193.658
192.681
178.559
157.582
142.787
145.123
94.9353
49.7944
44.3639
42.395
40.6627
39.7228
109.744
99.1348
124.874
155.758
163.359
275.282
397.977
274.56
205.659
184.901
180.641
165.628
164.642
172.144
106.721
50.0457
43.8235
41.0176
38.5768
37.3598
315.412
207.77
147.098
150.541
141.347
218.029
313.475
203.932
165.763
172.58
176.667
202.005
208.602
200.87
110.687
46.0814
41.3125
38.9169
36.7476
35.7456
188.412
153.8
135.976
142.048
127.75
108.599
165.401
131.869
119.493
119.697
129.809
143.11
141.996
128.695
61.4508
48.0764
41.527
38.4339
36.3493
35.1198
379.972
197.594
152.3
153.953
141.474
131.341
115.198
106.326
100.884
98.9108
97.0174
94.7089
88.4342
77.6702
65.6741
54.3067
46.139
41.2561
38.54
35.8104
395.77
265.239
207.016
186.142
157.899
138.151
123.226
116.162
108.389
102.639
96.6957
91.0075
84.0239
74.8309
64.4181
54.6975
47.8354
42.7063
40.1453
36.5796
286.082
214.252
184.641
168.497
141.554
119.456
113.488
111.915
107.063
99.9866
90.4531
80.5881
71.4907
62.5297
55.3797
49.7552
46.3553
43.0096
41.3764
37.8489
119.212
191.588
151.298
119.481
100.718
98.6076
101.348
102.764
99.6929
92.9431
83.3728
72.9065
63.0561
55.4146
50.9715
47.9585
46.6588
44.8328
43.8535
40.9645
197.349
139.319
135.411
131.635
116.714
99.0813
91.5151
91.1877
90.6045
88.2071
80.4588
70.8191
62.2682
56.0108
52.4146
50.3045
49.6901
48.8433
48.2702
46.1878
247.882
125.257
131.609
117.822
102.524
93.5214
86.1581
85.7138
83.7494
80.153
73.0946
65.9652
59.7102
55.0902
52.9922
52.7827
52.9109
52.9333
52.6625
50.0816
219.725
189.468
135.455
109.441
79.8302
69.8551
66.7954
64.5622
61.4748
57.9887
54.4372
51.1997
48.5089
46.2262
44.7634
43.3533
42.7046
41.7444
40.9702
38.36
106.61
87.5673
81.2809
75.1403
69.2123
62.9843
55.9655
51.1512
47.5217
43.6665
38.2283
32.137
27.3563
24.3401
22.2837
21.116
20.7907
20.7679
20.8461
21.1207
229.853
147.142
114.014
93.9849
78.5009
69.1886
61.5596
55.1664
47.8933
42.0347
38.5539
36.7133
35.8704
34.4493
31.6355
28.7496
26.5762
25.1838
24.4683
24.2877
190.564
157.618
128.413
106.976
90.5234
83.1419
79.1597
78.4391
77.6214
69.9593
54.4484
44.5092
39.0915
35.081
31.9679
29.6501
28.0831
26.6685
25.8404
24.5808
226.272
188.518
131.395
99.8037
82.2934
76.5366
73.7551
71.9461
67.9779
57.6094
48.0687
41.7806
38.1114
35.3206
33.1015
30.8249
29.0043
27.2149
26.3516
24.4313
221.619
179.05
111.387
89.8781
76.6708
69.4263
62.936
57.1679
52.2326
48.0569
45.2409
43.7741
43.1365
42.3962
40.0046
34.4505
30.1535
27.161
26.0046
23.9104
239.263
152.182
108.857
93.1135
80.7103
69.3056
60.3306
53.7146
48.663
45.4733
42.7137
39.9034
36.7083
33.389
30.3267
27.8211
26.1256
24.5175
23.6379
22.3181
218.937
132.579
99.1884
82.6118
75.7518
66.2474
56.1433
49.7564
45.3475
42.5917
39.9546
37.4256
35.2433
33.2473
31.4441
29.4159
27.1181
24.6181
23.0217
21.8942
163.638
134.595
118.903
100.02
92.0906
79.4061
78.338
67.6931
53.1034
46.0054
42.6373
39.6741
37.1654
34.8955
31.1065
30.4481
28.6121
25.1478
22.8076
21.9092
177.071
133.568
113.345
108.635
110.33
110.903
92.2146
66.1074
54.3006
44.3928
40.6128
38.4671
35.362
32.0089
27.2839
26.4701
26.0348
24.4186
22.8847
22.2438
127.901
137.048
117.92
101.283
88.9209
95.3114
91.3226
63.9643
50.4848
42.4584
37.8236
34.4987
31.6927
29.2861
31.0976
29.4086
25.5926
23.5788
22.5706
22.0682
141.728
176.525
154.752
122.501
93.8691
91.4703
89.0537
86.4213
77.5606
40.9608
35.394
34.5818
34.7717
36.1756
35.8577
28.43
23.5815
22.0252
21.6983
20.8913
273.897
190.358
129.708
94.3979
78.9071
82.8838
84.6541
78.18
61.9377
44.2764
35.8217
35.0811
37.5902
39.3198
38.6355
27.3496
22.4591
20.5867
19.4567
18.57
389.137
288.703
138.636
87.7738
72.0983
62.4304
64.3421
59.6842
52.9169
48.6488
48.7539
49.6894
48.5944
45.1713
37.9951
29.583
23.6311
20.5896
19.0942
18.1237
200.878
148.019
104.829
80.5381
71.4307
66.3303
64.5354
62.6179
59.9488
56.8324
53.0698
50.0028
47.9265
46.2943
42.5482
34.9399
27.8455
23.046
20.6532
18.6495
277.393
188.717
148.721
117.197
97.142
79.6332
69.2593
62.668
58.5173
54.8663
52.0033
49.8708
47.5303
44.0025
39.5546
33.2838
27.3405
22.6818
20.5271
18.5489
444.36
171.058
147.651
126.838
99.9108
75.0438
62.4476
55.771
51.9679
49.1074
46.9862
44.3324
40.1613
34.0336
29.6156
26.2008
23.7917
21.7576
20.923
19.3555
231.991
183.227
118.327
92.4478
74.9634
63.3139
55.7554
50.2522
46.9618
44.7937
42.7946
39.9511
35.59
30.0767
26.191
24.0059
23.0667
22.4373
22.2528
21.4867
226.147
155.475
98.7589
82.4531
73.1381
67.0015
58.5513
50.8973
46.1019
43.5994
41.5744
39.0197
35.2226
30.3011
26.7892
25.0829
24.5673
24.3883
24.3168
23.8171
240.563
98.5954
83.5579
74.5337
65.4067
56.1923
50.0533
44.412
41.5096
39.5791
38.2323
36.3169
33.5874
30.2095
28.1013
27.3474
27.274
27.2325
27.0562
25.9656
150.671
86.4199
75.4912
65.6909
49.0239
43.3792
40.2673
38.3195
35.698
33.2012
30.3889
28.2662
26.8086
26.0909
25.7174
25.6083
25.6442
25.6731
25.5344
24.2346
82.8114
86.1979
82.0246
78.5014
74.5562
66.8016
59.0524
53.1756
47.9163
41.9881
35.8847
30.6874
27.3575
25.6167
24.737
24.1128
23.9545
23.7436
23.7406
23.732
314.358
171.918
115.544
88.3319
70.2472
58.6622
49.3372
43.6435
38.17
34.845
32.4117
31.0757
30.099
28.9547
27.8992
27.1165
26.7613
26.756
26.8564
27.1775
123.747
151.243
139.841
110.953
85.7539
70.4956
60.7858
56.0482
51.5366
45.6409
39.4575
34.9104
31.9202
29.726
28.2526
27.2235
26.536
26.0245
25.6444
25.3013
152.583
159.447
136.926
103.203
79.4269
66.9992
58.0833
52.9727
47.3266
41.885
37.398
34.0229
31.7476
29.9311
28.5358
27.3288
26.404
25.576
25.0739
24.3194
197.966
153.608
110.388
79.677
64.927
57.0637
50.141
45.6315
41.6424
39.1001
37.0786
35.6847
34.4716
32.9228
30.7807
28.4243
26.6533
25.3072
24.6024
23.6918
182.826
155.321
99.362
76.5765
64.4878
55.8762
48.627
44.1247
40.0691
37.3179
34.7562
32.2114
29.9489
28.0075
26.4659
25.199
24.2963
23.5169
23.0598
22.5485
156.945
127.929
93.3313
67.8404
58.7473
51.3389
44.7691
40.4872
37.1602
34.6351
32.5176
30.7023
29.4534
28.3053
27.2386
25.9089
24.6665
23.5845
22.9416
22.4874
182.899
137.64
114.82
85.975
69.0511
57.9642
52.9718
46.3584
39.2545
35.0558
32.6938
30.9401
29.9636
29.3636
28.8434
27.5855
25.8808
24.2821
23.4622
23.0105
146.295
131.662
97.9386
79.8476
69.3061
65.9296
56.8317
47.1743
39.8524
34.8216
32.4305
30.8054
29.2645
27.954
26.8549
27.5723
26.5486
25.3084
24.6666
23.9978
121.049
138.97
107.306
87.247
71.7776
66.0744
56.7549
46.3482
39.5363
34.3903
31.1582
29.4992
28.8231
29.1212
30.5058
29.3943
27.4169
25.91
25.1274
24.2323
228.854
193.667
130.789
95.2707
71.2171
64.8391
59.6816
57.5594
47.7503
32.8042
68.6861
63.0099
49.5768
37.63
30.8439
27.3326
25.2597
23.9459
23.3194
22.4392
196.756
140.024
98.918
69.8222
58.5241
57.9155
57.4714
53.6186
45.1644
36.4863
33.453
33.0967
33.0517
32.4029
29.769
24.8329
22.7462
21.5621
20.8179
20.4135
140.091
157.716
99.6293
66.5799
56.4604
52.372
51.2097
47.7515
44.4057
42.5815
41.4875
39.4214
36.675
33.9902
28.235
24.3589
21.9077
20.5351
19.8011
19.5389
233.987
123.621
91.8646
68.5141
60.181
57.4752
54.865
53.0657
49.6865
46.7045
43.1412
40.1245
37.4676
34.3758
30.5386
26.1943
22.95
20.9656
19.9247
19.3274
193.747
138.164
113.868
87.4289
71.2512
62.2808
55.9744
52.4287
48.5994
45.5672
42.5617
39.7001
36.4918
32.6837
29.0518
25.4347
22.6115
20.6896
19.7399
19.0742
234.352
140.7
113.961
92.6788
73.0417
59.7534
51.8428
47.4873
43.9573
41.2722
38.3903
34.8452
30.8704
27.1843
24.6623
22.8669
21.7226
20.7738
20.3409
19.6981
643.511
346.205
109.174
76.0294
60.9178
51.2656
45.2896
41.9321
39.0595
37.1005
34.4078
31.4011
28.1512
25.4853
23.8038
22.7902
22.3761
22.0394
21.9011
21.4103
273.15
162.637
99.8369
73.8012
60.8859
53.0103
45.5586
41.3259
37.9024
36.1579
33.8645
31.5622
28.9569
26.8505
25.644
25.1194
25.0894
25.0606
24.9969
24.5805
157.456
90.9648
76.1542
60.7537
54.4689
45.6368
40.9791
37.5437
35.2717
34.1069
32.7973
31.574
30.4713
29.8382
29.8137
29.9865
30.4197
30.5041
30.2882
29.1161
45.1964
74.4553
83.2621
72.1722
55.9384
48.9377
45.5091
42.2143
39.2902
36.6724
34.3777
32.9027
32.0277
31.2495
30.7996
30.2479
29.9185
29.1186
28.2768
26.2146
61.4809
83.098
89.0184
85.7789
77.1729
65.8145
57.5121
50.4298
43.5402
36.7228
31.7607
28.6136
26.8406
25.7488
25.2204
24.8138
24.6698
24.5121
24.4687
24.3453
277.601
158.885
125.926
87.8318
71.3215
57.5382
49.585
44.6888
40.6094
38.1431
36.6152
36.335
36.645
37.1136
37.967
38.7051
39.6126
40.1928
40.607
41.0895
258.61
243.186
177.498
120.354
89.929
67.6726
56.0876
49.3836
45.1373
42.0649
39.467
37.3972
36.1266
35.5676
35.7389
36.0114
36.3211
36.5812
36.6515
36.9526
163.701
156.985
124.922
94.4288
79.0726
63.5912
54.5399
48.3719
44.3652
41.1403
38.8713
36.8964
35.7919
34.8572
34.5546
34.3581
34.3944
34.4863
34.5273
34.7949
133.638
141.018
106.246
74.4278
65.303
54.4594
49.5425
44.9099
42.4405
40.278
38.8257
37.4532
36.5168
35.4948
34.6561
34.0536
33.8824
33.7681
33.6838
33.8846
128.301
130.635
98.3853
70.3208
63.7236
53.632
49.2598
44.8897
41.7867
38.8656
36.6316
34.5762
33.3998
32.5246
32.2178
31.9646
32.0199
32.1944
32.3266
32.7289
156.836
143.121
95.2255
63.1721
57.9565
49.1715
45.3044
40.812
38.3875
35.7427
34.4928
33.4248
33.1516
32.759
32.689
32.3564
32.4197
32.597
32.7052
32.9862
348.044
228.135
139.924
83.3552
64.6828
54.2901
48.9413
42.9523
38.2101
35.1124
33.6385
33.1223
33.2605
33.3025
36.1218
34.5758
34.0551
33.848
33.8524
33.7112
431.294
174.293
96.4757
68.5276
58.0448
52.9069
49.5103
43.907
38.3622
35.7202
34.2823
33.8349
33.7531
33.956
35.9979
38.3043
36.6799
35.6894
35.416
34.7655
225.095
178.344
113.674
81.0023
65.9436
55.7414
48.2708
43.5593
39.5669
36.1372
33.7604
32.9762
34.1529
35.7021
38.6017
40.1748
38.2078
36.6414
36.0636
34.9012
307.515
162.648
121.92
83.2547
64.4589
56.8866
50.5721
46.3713
41.2648
36.2052
52.1583
49.6795
42.6802
38.4152
37.7289
38.921
36.5829
34.699
33.9967
33.0753
226.803
144.757
99.3868
64.0021
56.2456
50.8555
48.2307
45.9703
42.3801
38.8869
37.2401
36.1287
35.2947
34.4075
34.6627
35.2244
33.2142
31.9005
31.4668
31.1256
132.81
124.042
91.8354
60.9133
56.6094
51.7352
49.6988
47.3731
45.1372
43.4846
41.0088
38.3177
35.5863
33.2029
32.9727
31.0618
30.1969
29.7217
29.6898
29.8506
202.882
117.08
94.0432
66.1405
62.6113
57.1673
55.2084
52.2375
49.3812
46.0973
42.6998
39.3004
36.524
33.8426
31.5303
29.4596
28.8424
28.7078
28.8151
29.17
182.795
135.461
96.8615
69.6822
64.9489
56.8874
54.9298
51.1623
48.2678
44.867
41.7691
38.4189
35.4536
32.6472
30.4939
28.7278
28.0779
27.9348
28.0299
28.4573
167.193
120.351
98.078
74.8452
67.2429
55.9154
52.4192
47.4577
44.7709
41.0711
38.0627
34.7543
32.1692
30.2585
29.1914
28.5264
28.4542
28.3489
28.416
28.8046
233.93
157.511
96.1875
66.0708
59.1505
47.7403
45.7646
41.2462
39.6835
36.8801
34.7947
32.6687
31.153
30.1433
29.8061
29.5807
29.683
29.5668
29.5113
29.7244
241.852
157.174
100.199
68.852
59.0763
48.3176
45.0298
40.5516
38.9048
36.9168
35.5557
34.3887
33.5958
33.374
33.5526
33.7426
33.9789
33.9062
33.8095
33.6588
347.402
104.937
74.0999
57.8192
53.8816
43.0675
42.3639
38.5577
38.353
37.73
37.899
38.3502
39.4904
40.7054
41.9068
42.5347
43.0513
42.9727
42.3809
41.3885
82.1907
82.2312
81.6931
64.2937
56.2679
49.4253
46.3174
42.2376
39.5401
37.1555
35.2285
34.1728
33.5585
32.7291
32.1976
31.1431
30.5506
29.3194
28.614
26.7391
82.5731
90.8281
93.4438
87.055
73.0877
59.6029
49.3988
40.4586
34.0092
29.819
27.6198
26.3739
25.7403
25.276
25.0454
24.7401
24.5886
24.2368
24.0821
23.7554
316.123
171.025
146.178
83.9002
86.5945
61.9749
65.3693
55.8773
57.898
55.2759
57.33
57.254
58.37
58.8471
60.2579
61.0069
61.8812
62.407
62.5745
63.2256
295.113
283.567
215.329
122.233
102.538
66.7144
65.0351
54.8397
56.3705
53.8183
55.0968
54.0496
54.6845
54.6578
55.4559
55.7497
56.1574
56.3207
56.2638
56.6001
351.907
175.959
137.229
88.3488
87.2308
61.9956
62.7331
54.2083
55.9448
53.2708
54.1623
52.9836
53.475
53.154
53.653
53.682
53.8953
53.9851
53.9634
54.2376
183.342
151.813
126.494
74.3541
77.4623
56.7492
60.1174
52.0211
54.2941
51.3089
52.1878
50.8685
51.5532
51.5483
52.5959
53.0036
53.3415
53.2569
53.0962
53.2842
145.182
123.535
108.46
71.1097
74.8782
56.7383
60.2255
53.5287
53.8549
50.4403
49.9841
48.799
49.4245
49.7915
50.4822
50.6029
50.8898
51.1938
51.3553
51.9741
287.465
130.28
104.222
64.8055
69.9723
52.5063
55.3403
47.9912
49.1554
46.2386
47.4157
47.0999
48.6405
49.3455
50.6673
50.7649
51.1437
51.3958
51.5334
52.1502
233.271
160.001
143.573
78.6158
76.103
62.1938
58.402
50.5875
49.3815
47.1668
48.6611
49.477
51.497
52.3362
54.9451
53.1251
52.6836
52.5152
52.5003
52.7137
372.683
175.429
115.259
68.1501
67.6078
58.8281
59.5573
54.2035
53.3958
53.6232
54.3794
55.5895
56.7682
57.5677
59.4671
56.238
54.1331
53.4998
53.4023
53.2667
149.121
173.34
137.402
78.8256
73.9908
59.7866
58.4304
60.0408
60.604
58.7407
57.6393
58.745
60.9704
61.3558
61.0366
56.3098
54.6444
53.8279
53.7396
52.926
271.69
165.792
136.753
78.6445
74.5276
58.6375
57.0239
61.1819
62.5622
58.1049
55.7092
56.9285
61.8411
62.019
60.443
55.152
52.8809
51.7294
51.4628
50.4594
372.153
181.602
114.19
72.4209
69.3381
55.0735
56.2396
61.6744
62.8648
61.2341
59.1305
57.7875
58.0844
58.2
57.6119
51.6219
49.8216
48.7248
48.528
47.8022
190.104
140.711
108.547
66.4233
72.5689
55.6985
58.8564
58.314
59.2047
57.2803
55.0158
51.9886
51.3007
51.266
50.1326
47.7904
46.9704
46.4044
46.282
46.1821
421.045
146.922
103.21
74.4017
75.3262
60.0583
64.1468
56.6612
58.5332
53.8422
52.7042
48.7035
47.9308
46.5679
46.6404
46.3033
46.2992
45.863
45.7464
45.6988
171.891
156.184
109.692
67.7761
73.8695
56.8537
62.7445
54.2535
55.5661
50.5037
49.8043
46.4131
45.896
44.7003
44.9347
44.9176
45.0643
44.67
44.5302
44.6463
174.532
130.004
99.7545
77.0104
74.2789
57.8319
61.1778
51.6202
53.3832
47.2703
47.4928
44.4362
44.9208
44.3114
45.095
44.9881
45.3316
45.0362
45.0928
45.242
195.382
151.195
104.612
71.1462
67.62
50.202
54.1936
44.6614
47.9665
42.6997
44.5533
42.6316
44.1909
44.1246
45.2081
45.2742
45.8157
45.6941
45.7863
45.9203
311.123
159.815
108.731
75.0533
66.8638
51.4135
53.9145
45.3813
48.7315
44.3654
47.0134
45.8847
48.0223
48.219
49.4516
49.6242
50.192
50.0888
50.2355
50.1036
386.242
145.421
81.832
84.8106
62.6831
51.4725
54.4734
45.2065
51.4969
48.2167
53.4343
53.8989
57.6229
58.7445
60.6785
60.7784
61.0581
60.6108
60.3956
60.0825
60.3563
82.6675
74.9617
58.3002
54.2059
46.9615
43.9376
39.9642
37.6235
35.7925
34.6053
33.7775
33.2491
32.4976
31.7054
30.0182
28.2898
26.182
25.2984
23.7365
31.7885
34.2914
82.2031
34.5776
32.6251
35.066
89.874
29.8052
81.7171
60.21
32.1806
31.3251
88.8373
63.3518
67.9121
36.0444
33.7456
34.2824
75.8289
36.3345
35.7991
63.4724
33.4674
33.0615
75.9422
65.7416
35.6921
35.1263
272.646
285.062
196.019
112.529
82.5661
110.016
70.7354
243.057
189.808
192.904
76.6355
68.3979
66.0029
57.3864
204.939
194.682
193.99
63.6513
53.7022
54.8925
48.791
186.79
192.071
178.411
51.1365
47.5054
47.2197
43.9863
169.835
173.591
154.063
46.5813
44.6952
43.1904
41.0004
140.018
148.245
141.254
43.9516
41.0015
40.0202
37.6837
118.681
138.989
137.754
39.7632
36.6573
36.5079
31.9498
114.06
138.848
131.348
35.5515
31.9492
30.9313
29.417
231.497
412.45
310.672
112.054
79.3207
110.287
98.0084
194.258
279.046
213.341
72.4927
59.4539
96.5219
90.2436
193.313
205.419
192.437
56.0027
48.8729
80.2525
48.6954
183.447
189.911
184.821
47.2374
43.5421
45.0452
39.7015
160.64
182.038
173.624
42.4872
39.3196
38.8566
37.4912
146.869
167.021
154.784
38.4966
36.5916
37.2754
35.8046
142.7
155.155
162.986
35.3611
31.7594
35.5609
36.2225
134.274
164.338
149.682
31.4243
30.5159
36.9198
37.9392
304.931
357.75
242.409
108.417
97.9105
109.194
95.2743
211.522
216.273
171.605
97.0173
92.2105
92.3176
81.593
188.203
166.703
169.402
84.3789
49.3907
74.0121
52.5393
181.949
173.065
176.596
45.065
39.469
48.2415
40.1866
170.845
177.459
190.051
38.7014
37.4426
38.6584
37.0402
161.92
195.153
202.72
37.1309
36.4273
37.0797
38.6537
172.113
202.906
199.837
36.4891
38.0474
39.55
41.7148
150.95
195.851
165.987
38.8224
38.7584
42.1169
41.704
224.714
280.498
200.073
100.673
89.8774
86.4393
72.0759
168.387
191.139
156.259
85.7016
72.2581
69.9416
59.2915
170.109
152.61
141.875
66.9667
52.1674
57.1186
48.5484
174.816
139.891
142.511
48.19
40.3268
46.9609
43.4441
196.742
147.856
189.665
38.8616
37.8361
43.4409
44.9489
208.682
199.898
217.679
38.0431
40.3278
46.2365
49.7262
204.369
218.742
212.616
41.2914
43.3537
50.517
50.9127
168.807
206.362
174.201
43.6911
42.7092
50.5559
49.4736
70.7935
93.34
62.9541
63.338
52.5471
61.7548
49.2727
58.3809
59.0577
51.6867
50.1038
44.3613
47.1464
42.1283
46.5565
49.4547
43.9247
41.9539
37.2804
40.5644
36.632
41.4214
42.5172
39.4194
36.0725
33.9589
35.5901
33.0686
39.0541
38.6166
36.5773
33.4211
32.1226
32.3961
30.7072
36.1875
35.7896
33.4891
31.6653
30.2078
30.1578
28.5927
32.9225
32.434
29.1078
29.7981
28.4444
28.0938
26.9637
29.646
28.4027
27.9226
28.0353
27.0248
26.7605
26.6349
69.0441
90.0931
86.1163
62.7733
51.308
64.7131
61.9082
53.5002
85.7579
82.0652
49.0626
43.1326
61.772
57.0543
43.974
72.8349
44.1714
41.216
36.6182
50.5571
36.6964
38.8498
40.7679
36.0442
35.4393
32.5452
34.6294
45.5271
35.181
35.3978
34.4328
31.8047
30.1774
46.2847
43.6777
32.6313
34.2926
33.8359
29.7853
28.8624
42.6197
42.3881
29.4216
33.8509
34.6705
28.6321
28.5189
42.2152
39.2788
29.3556
35.0691
36.0334
28.651
28.5324
37.9857
33.8184
86.3505
90.2335
85.5661
64.7326
62.9775
65.8769
63.0402
84.6038
83.9143
75.5476
63.2084
60.1274
62.3724
55.6655
44.9984
68.4818
48.4354
53.314
37.4822
51.2942
39.8074
35.9684
44.3467
36.7291
34.3934
43.7183
37.2358
33.4723
34.6699
35.3816
34.0784
44.943
46.0312
33.0022
32.5885
34.5967
34.1141
35.3825
46.2159
45.3494
32.5961
32.8298
35.8001
36.073
37.7188
43.6344
38.2669
32.9225
32.9565
36.5945
38.0349
38.6869
36.6819
32.9492
32.8709
31.9559
81.0423
73.3267
65.4953
62.7467
59.8468
56.587
51.9118
66.7984
63.4348
54.8697
58.367
51.4025
50.772
45.9432
48.0194
52.6447
45.8489
48.3366
39.6812
44.6454
40.7481
37.0825
44.4133
41.7644
37.5034
33.7825
40.1356
39.1892
34.929
41.7691
42.7909
33.2956
32.9503
39.1973
38.9677
36.8758
43.5484
45.2986
32.9958
33.3896
38.8626
38.0276
39.0814
45.5645
45.0649
33.5095
33.4946
37.6529
36.1957
39.5203
44.6211
44.7217
33.3674
32.2489
35.6946
33.8843
49.4167
55.6019
46.781
49.7715
45.5473
47.8948
43.7906
41.948
44.9768
40.4183
43.6677
39.0494
42.4976
38.9385
35.8443
39.0146
35.4931
37.6874
35.117
37.9491
35.429
32.9212
34.5471
32.2272
34.4447
33.0389
34.7027
32.8815
31.2127
31.6083
30.0426
32.706
31.9304
32.3922
31.2448
29.5795
29.5639
28.3229
31.7565
31.2478
31.013
30.7958
28.2329
27.9755
27.2566
31.1877
31.0093
30.8398
31.1851
27.1591
27.1364
26.9723
30.9851
30.7934
31.3269
31.7417
48.2189
59.6616
56.7103
48.8043
44.265
51.8712
47.7828
41.1918
56.2476
50.6717
42.9654
39.3523
46.6548
41.9954
35.4633
45.8212
35.4129
38.2694
35.4043
40.0074
35.3423
32.8214
33.416
33.9827
33.8587
33.0346
32.9696
33.4899
31.7191
30.625
31.5825
31.0033
31.2607
30.5455
31.9326
28.903
54.9097
49.4452
31.2098
31.3944
56.7876
46.4974
29.0008
47.8134
41.5028
31.6032
32.308
44.2541
39.5386
28.8156
39.5035
33.9469
32.5006
32.6877
38.3803
35.5264
57.7083
60.0526
57.5294
51.6463
48.1339
50.3776
47.6441
53.0977
56.7404
50.5625
47.1959
42.7673
46.816
43.0342
36.1857
47.1021
38.1379
40.6576
35.7746
41.4842
37.3816
60.0398
50.6188
35.0976
38.7781
40.7522
229.922
35.8142
74.35
68.0268
52.569
191.799
52.235
178.437
78.3258
53.5682
33.0104
32.8241
62.5712
49.1762
34.9025
34.0891
39.9902
32.7526
32.3222
45.7903
39.0418
33.817
32.9794
32.8306
32.1252
30.8922
37.5044
34.571
32.6887
31.4434
54.9511
53.3153
49.5237
49.1081
46.9218
49.0882
46.5249
47.668
48.4961
44.3971
46.0427
42.5819
45.8105
43.0686
38.1832
43.25
40.0929
41.3147
37.9102
42.3868
40.5465
33.7819
39.6139
38.8068
37.0936
35.8369
40.2742
39.2946
33.1119
38.7507
38.1354
35.6234
34.9675
38.9855
37.5623
33.0859
37.8834
36.6682
34.7412
34.0334
37.0758
35.367
32.6371
36.2144
34.5883
33.7897
32.9117
34.8023
32.9688
31.0854
34.0319
31.9645
32.56
31.2271
32.3245
30.0139
45.8266
47.5358
44.3614
55.2655
51.9278
53.3739
53.2193
39.4871
43.1785
40.0272
50.0181
47.3823
52.7298
52.3622
36.286
39.2043
36.9936
47.5243
47.6983
52.5233
51.3851
34.5061
36.2916
34.5328
47.5329
47.5231
50.6438
49.4178
33.8712
34.0863
33.1588
47.8775
48.6255
49.4415
49.8327
33.697
33.0762
33.5233
48.8051
49.2657
50.0907
51.4835
33.9065
33.8171
34.67
49.6093
50.2267
51.9927
52.7968
33.5995
34.9202
35.2144
50.3176
50.346
52.9629
53.3842
44.7049
50.9303
47.1415
53.7066
53.8909
54.5793
54.8015
40.4605
46.068
42.2742
53.6905
53.6173
54.9664
55.39
36.9542
40.7826
36.8486
53.5899
51.1042
54.864
50.3286
34.1925
36.1255
53.0507
50.0385
48.081
48.7455
47.0458
33.0028
53.867
49.2986
47.9119
48.4728
47.1083
47.3692
33.7122
47.2257
42.8199
49.2731
51.3606
47.6547
51.5152
35.3935
41.7033
39.5068
52.1273
53.2624
52.5063
54.2219
35.9136
39.0322
37.5505
53.4373
53.7737
54.316
54.2995
47.2744
48.9715
46.8677
53.5298
54.465
51.6958
54.3861
42.8126
46.2212
43.4017
54.8562
55.6585
55.1603
56.3438
37.1803
42.3005
38.9474
55.1672
50.6194
56.2601
53.2491
51.0281
38.0352
37.1408
49.0613
47.6341
51.9405
49.5374
50.7856
36.9802
36.3278
47.6673
47.6523
49.0693
48.024
44.4116
36.0811
35.4577
47.8411
51.4602
48.222
50.1734
39.1871
35.2887
34.8325
52.4003
53.8898
50.7381
51.2425
36.8001
34.6733
33.8097
53.9481
53.9404
51.3097
51.5492
46.6238
49.1975
47.163
52.2731
55.013
54.9616
55.5859
43.3169
46.5208
44.1598
55.5929
56.33
55.384
54.7368
39.6453
43.5682
42.0202
56.2815
54.3069
54.7112
54.1823
37.5151
41.7304
40.5026
53.205
50.9019
53.617
51.6964
36.3946
40.099
38.4943
50.3904
49.1131
51.141
49.4401
35.4852
37.9662
36.2135
49.1501
49.9885
48.7737
47.5951
34.6429
35.6672
33.9817
50.2709
50.4337
47.4128
47.3372
33.4437
33.4306
31.4509
50.4637
50.772
47.2236
47.0565
55.9331
58.2438
58.9214
75.0157
70.9558
76.496
77.8653
52.8112
58.7566
59.1741
69.9512
71.8487
78.0458
79.9536
53.8307
59.4235
58.92
72.7694
73.0008
80.6785
83.5656
53.8082
58.5778
58.0132
72.7969
74.1475
84.5191
86.0013
55.3642
58.1143
58.5181
74.8666
75.4531
86.3328
85.7146
56.2987
58.7892
60.0556
75.5171
76.5438
85.0372
81.8162
57.4592
60.4266
60.7729
77.0163
77.2887
81.2433
80.0824
57.4669
60.8578
60.8972
77.3637
76.7707
80.0343
79.3903
59.9086
58.4744
60.7532
76.7447
79.5012
74.1851
80.2764
60.5458
61.3888
62.4818
79.8817
81.7446
81.3907
84.6593
59.4428
62.2915
59.31
82.6569
87.0872
86.554
94.6897
57.5913
57.7989
55.3636
88.4059
90.1194
97.0631
99.8833
58.3386
55.3392
55.9792
90.3552
89.444
100.054
97.9391
60.4253
57.0981
61.0418
88.4626
83.6798
95.84
88.0989
61.3326
62.0372
62.5212
82.3798
80.3686
85.4606
80.9735
61.2327
62.3144
61.6133
80.1721
79.1375
80.4091
78.8288
60.2568
55.3025
60.1529
72.0367
79.3431
70.2937
78.9657
62.7066
61.3056
62.9874
80.9006
84.75
80.4135
83.2075
59.613
63.0336
61.6165
86.7214
95.0709
84.0579
88.7432
55.8187
60.6231
58.6087
97.5709
100.048
89.9586
90.8415
55.9479
58.2256
57.4995
100.023
97.918
90.5868
89.0938
60.8922
57.7506
58.7621
95.8359
88.0997
87.6979
82.4085
62.2484
59.1404
59.2494
85.4244
80.8671
80.7882
78.5345
61.3249
59.2448
59.1695
80.2732
78.5698
78.2709
77.3139
60.7929
58.7582
60.375
71.6411
79.2129
72.7216
75.7003
62.8225
60.2661
60.2973
80.2455
82.3341
75.5597
77.0476
61.8577
60.4394
60.182
82.6653
85.604
77.5468
77.4193
59.5701
59.5202
57.8086
86.269
86.6901
76.35
76.0089
57.9179
57.2769
55.7177
86.3552
84.8291
75.5316
74.5297
57.9492
54.9899
54.1919
83.6061
79.6762
73.4355
73.5332
58.1459
54.0752
54.177
78.7351
77.4734
73.247
73.6971
58.3477
54.1812
54.2856
77.3423
76.6577
73.4397
73.1502
32.4846
32.5392
31.9601
31.5432
32.4238
32.1945
32.1881
36.6164
33.6548
52.0203
37.9896
34.1578
33.4774
174.145
40.485
36.7631
72.4944
210.662
35.8246
41.7421
225.681
33.017
33.8882
33.8082
34.3202
33.0702
33.5707
33.6831
32.8136
31.8003
33.1637
33.2379
32.3791
32.618
33.4284
37.139
38.8182
34.3135
57.6189
33.6653
180.091
35.3503
41.4697
217.168
39.4224
81.3905
42.9751
231.817
37.9701
31.6575
30.1747
30.9261
29.8764
31.0596
30.1752
31.5899
42.0402
37.0435
80.4526
197.826
37.0648
42.0738
186.338
42.161
36.8636
72.8795
88.5379
37.1529
40.807
124.076
32.314
31.3222
31.8072
33.0786
30.9173
32.4396
32.9789
32.3145
30.3547
31.5279
32.9853
30.6026
32.2909
32.9711
43.5938
204.396
40.0195
86.6775
43.4287
193.454
40.3537
43.6645
91.8113
40.1231
76.7215
42.1309
130.193
40.5179
76.6126
63.4308
51.567
205.18
48.0816
217.786
79.6367
36.6765
35.3864
34.7892
35.4598
35.4635
35.0832
34.7284
39.403
37.1332
34.1247
34.3929
36.3431
40.5778
34.5212
60.341
39.9796
55.165
35.951
226.682
36.0062
43.0348
77.0285
214.824
71.0158
54.7449
227.411
79.9101
51.4182
37.0253
35.5378
35.8719
35.9084
35.2289
35.0782
36.6046
39.9466
35.0426
39.311
35.8407
41.1771
35.0662
38.3203
67.7131
69.3472
50.0003
112.969
51.5713
160.161
62.6243
40.1573
37.2753
33.2858
34.2153
37.1575
40.5546
34.0513
39.1827
36.4134
33.1439
33.695
36.8012
38.4336
33.8444
74.6763
201.231
75.0084
55.2813
187.347
78.5187
54.7225
67.6431
108.885
74.0126
51.1719
159.568
62.1068
53.5086
40.7849
34.9261
39.5278
35.5474
41.1739
34.7724
39.3994
39.8175
34.351
38.478
35.3423
39.0162
34.546
39.006
185.178
221.599
191.631
120.636
108.623
128.191
108.752
151.271
169.375
152.144
96.1805
84.9009
96.5286
85.117
142.726
142.712
136.102
76.4237
70.8286
73.2056
64.6782
138.139
132.068
127.16
67.5571
66.2479
59.1466
56.2555
126.364
122.094
115.585
63.3623
61.432
53.8809
52.3447
109.982
108.147
98.564
57.3271
54.9427
50.0577
48.0312
93.8948
88.934
81.493
51.7596
48.9118
46.8581
45.2406
81.0293
79.7382
69.0549
46.8608
40.7307
44.1087
37.2241
220.096
253.204
193.822
164.532
134.051
166.084
137.601
165.399
308.138
337.797
199.541
172.135
198.827
287.472
109.526
260.762
225.738
131.098
129.042
116.596
218.917
92.6314
220.556
208.926
117.069
114.236
96.4073
203.229
79.8328
195.116
187.447
102.459
101.036
81.7507
182.862
75.0164
179.083
169.505
93.9758
92.94
75.663
164.974
68.8043
157.581
147.957
84.8304
83.2515
71.3863
141.767
61.1338
125.268
127.264
68.7895
65.5217
61.3352
125.474
53.9988
119.882
128.04
57.7493
55.9937
57.4266
131.804
82.1981
89.6517
78.2038
33.3385
28.4797
32.6798
27.6353
239.494
274.999
253.057
153.281
129.249
151.045
127.238
181.486
297.513
378.157
214.101
174.845
214.473
328.422
115.408
203.514
247.736
108.391
100.09
125.261
230.463
83.0186
193.353
197.68
86.1257
83.3599
88.4697
195.189
74.8553
190.877
193.079
76.6514
75.257
75.9993
191.157
68.9625
172.467
180.39
72.165
71.1716
71.3179
176.005
63.9086
155.609
166.894
64.5613
64.225
64.0607
161.861
55.6196
141.594
146.306
61.7409
58.0194
58.9624
146.239
53.7309
146.418
152.372
51.671
51.6416
53.4085
153.512
84.363
101.721
89.9014
37.6031
35.8305
42.9655
42.1674
245.491
259.767
229.345
148.092
124.377
148.212
124.4
185.253
356.803
390.212
217.511
186.558
217.741
344.569
155.518
243.596
258.799
157.878
155.048
160.051
230.598
92.2724
199.01
199.093
109.829
92.9057
108.95
191.917
67.6443
183.651
178.204
70.9688
68.8558
69.6376
178.599
64.7076
179.092
179.1
66.1152
65.3758
65.3315
178.037
61.943
161.936
170.746
64.1632
62.5042
62.4021
171.035
64.2221
168.544
180.158
59.9232
60.248
63.0507
181.997
67.9487
171.829
181.858
64.0332
64.9695
67.6245
179.361
92.0159
111.451
92.0591
45.8625
45.1443
47.23
46.0637
188.137
197.296
169.725
128.002
110.452
120.544
99.3033
149.943
278.893
296.153
176.367
159.879
171.018
260.832
105.978
187.234
198.205
123.477
113.414
115.072
184.736
78.939
165.914
165.841
86.6381
80.5818
83.5209
165.97
66.9427
173.532
167.793
69.5516
67.792
68.8816
166.906
63.2689
181.832
171.872
63.8645
63.8641
62.8926
181.554
68.8039
205.868
205.258
66.5598
67.7537
67.066
210.151
75.5712
208.187
214.6
71.7809
73.0121
74.197
214.207
76.21
195.47
205.307
74.3372
73.9321
76.8653
197.885
88.8116
106.813
85.8292
49.9724
48.1358
53.973
50.3231
145.46
170.956
143.822
97.0161
85.3207
98.2118
84.9954
122.914
133.097
127.651
77.4188
71.3518
77.8733
73.2687
118.895
127.385
128.575
66.5002
62.0509
69.6958
67.1699
122.436
132.97
137.687
58.9918
57.9927
65.6846
65.4815
138.22
141.997
143.746
58.7191
61.1206
65.1215