/*--------------------------------*- C++ -*----------------------------------*\
  =========                 |
  \\      /  F ield         | OpenFOAM: The Open Source CFD Toolbox
   \\    /   O peration     | Website:  https://openfoam.org
    \\  /    A nd           | Version:  10
     \\/     M anipulation  |
\*---------------------------------------------------------------------------*/
FoamFile
{
    format      ascii;
    class       volScalarField;
    location    "3.6";
    object      p;
}
// * * * * * * * * * * * * * * * * * * * * * * * * * * * * * * * * * * * * * //

dimensions      [0 2 -2 0 0 0 0];

internalField   nonuniform List<scalar> 
12920
(
-1.22114e+06
-1.05644e+06
-991392
-849750
-783649
-670277
-598618
-518404
-454087
-391626
-338279
-289357
-246778
-207624
-172177
-138715
-108079
-79271.5
-49705.5
-16037.5
-1.59392e+06
-1.15338e+06
-1.0301e+06
-858244
-781341
-664156
-591278
-509733
-446077
-384066
-332028
-284080
-242469
-204253
-169509
-136576
-106448
-78162.5
-49033.3
-15926.1
-1.47907e+06
-1.14518e+06
-1.01905e+06
-841623
-750126
-640796
-565386
-487636
-426309
-366949
-317238
-272112
-232524
-196259
-163450
-131877
-102874
-75624.2
-47458.2
-15359.8
-1.43408e+06
-1.14101e+06
-995545
-805490
-718179
-609960
-537702
-461435
-402912
-346493
-299585
-256890
-219631
-185270
-154553
-124961
-97611.8
-71843.6
-45029.2
-14335.9
-1.26715e+06
-1.01967e+06
-919785
-731919
-650033
-553901
-488136
-419651
-368199
-317599
-275789
-236778
-202841
-171216
-142565
-115573
-90402.9
-66630.2
-41690.5
-12842.8
-933746
-812423
-784553
-632914
-576136
-490510
-437188
-376027
-329675
-284906
-247418
-212793
-182189
-153833
-128216
-103931
-81446.5
-60214.2
-37613.7
-10984.9
-903759
-726619
-660726
-528701
-480631
-407612
-365303
-315309
-279792
-243200
-213132
-184262
-158551
-134232
-111816
-90345.1
-70926.7
-52702
-32821.2
-8786.24
-753842
-575378
-518999
-417099
-386502
-325891
-315141
-276318
-243541
-215256
-189700
-165347
-142978
-121724
-92170.8
-74246.1
-59025.4
-44350.7
-27507.3
-6287.88
-648854
-375747
-381090
-284063
-272503
-256739
-248151
-219501
-195527
-173755
-154257
-135728
-118298
-101176
-78861.2
-57872
-46130.6
-35162.4
-21742
-3651.42
-337999
-147127
-183559
-148331
-156650
-156539
-160578
-147484
-133879
-120609
-108254
-96697
-85260.3
-73569.4
-57834.6
-41539.4
-33466.7
-25744.2
-15645
-967.695
-582527
-133217
-104987
-34461.8
-45420.9
-58244.4
-76410.8
-75487.2
-70685.6
-66440
-62159.2
-57691.8
-52682.3
-46155.4
-36905.3
-25798.6
-21195.4
-16870.5
-9978.88
1530.93
145784
163632
124869
119138
52306
30781
1932.69
-6910.75
-12032.3
-15513.2
-17992.1
-19636.4
-19999.3
-19916.7
-15870.1
-9785.91
-8720.39
-7811.23
-4524.74
3901.4
313362
346049
255794
224190
149216
131750
86507.9
66732.6
50666.4
38684.8
28637.1
21460
15130.9
9891.48
9203.63
6174.71
3456.62
499.721
673.008
6037.18
555067
530830
343680
318880
223696
206993
154063
132960
104484
87804
69289.9
56712
44509.6
35195.8
26516.8
20201
14060.6
8246.06
5279.07
7998.02
654939
696435
504578
440293
326132
286485
220263
188133
148087
123533
98001.4
80421.2
63763.6
51097.7
39278
29928.6
21487
13605.7
9160.94
9593.21
988190
786371
587321
511326
381550
339166
262812
226911
179478
151479
120733
100052
79666.6
64217.7
49687.7
38310.1
27726.2
18107.4
12031.2
10831.1
826326
858772
628582
561687
438871
386889
304175
263048
207550
175996
139842
116255
92400.9
74624.6
58060.7
44969.1
32793.7
21767.5
14457.3
11860.3
913155
885020
655077
581019
459513
407299
322741
281807
224874
191558
153340
127942
102068
82780.6
64721.7
50374.7
37007.1
24958.6
16660.8
12942.1
943932
802856
657748
596922
476997
426892
339158
297744
237788
203545
162786
136145
108571
88147.2
69068.6
53874.4
39852.3
27293.8
18471.3
13817.4
811110
728178
647778
591530
487570
431915
345260
303300
243318
208487
167335
140140
112031
91029.9
71567.9
55900.3
41487.3
28725.9
19744.8
14677.2
-1.21639e+06
-1.04846e+06
-994255
-849852
-783810
-669829
-598564
-518248
-453974
-391457
-338297
-289429
-246875
-207660
-172186
-138733
-108093
-79284.1
-49717.1
-16048.5
-1.51548e+06
-1.14761e+06
-1.03483e+06
-857786
-781275
-664198
-591459
-509794
-446130
-384167
-332271
-284326
-242699
-204389
-169567
-136644
-106477
-78218.9
-49088.7
-15960.4
-1.46174e+06
-1.14618e+06
-1.02171e+06
-841459
-750713
-641601
-566224
-488076
-426585
-367168
-317349
-272053
-232408
-196216
-163465
-131928
-102925
-75684.1
-47508.8
-15397.6
-1.45629e+06
-1.12779e+06
-994910
-804773
-718080
-609570
-537554
-461328
-402886
-346405
-299614
-256833
-219568
-185213
-154469
-124943
-97608.9
-71894.7
-45069.9
-14360.4
-1.36499e+06
-1.02638e+06
-916281
-732526
-649496
-553647
-487692
-419240
-368030
-317499
-275757
-236769
-202868
-171213
-142551
-115445
-90384.9
-66670.2
-41742.5
-12881.9
-858344
-812720
-782755
-633397
-575432
-490014
-436613
-375586
-329664
-284897
-247446
-212841
-182263
-153890
-128226
-103900
-81397
-60232.4
-37643.7
-11003.3
-834504
-714787
-663921
-529407
-480655
-407230
-365169
-314902
-279706
-243276
-213282
-184358
-158539
-134026
-111714
-90341.7
-70873.9
-52698.9
-32836.6
-8791.46
-717169
-570064
-519832
-417567
-386650
-325994
-315500
-276515
-243824
-215375
-189693
-165336
-142934
-121431
-92119.9
-74412.2
-58966
-44245.8
-27496.5
-6368.96
-508849
-369908
-373774
-282617
-272862
-256907
-248891
-220203
-195981
-174019
-154406
-135752
-118176
-101098
-79364.6
-57999.3
-46186.8
-35143.7
-21749.8
-3753.26
-208625
-126553
-178069
-146046
-154925
-157929
-162077
-147692
-133682
-120508
-108230
-96668
-85328.1
-73675.9
-57787.6
-41531.6
-33485
-25842.1
-15831.6
-1105.51
-527742
-102347
-104140
-31341.3
-47132.3
-59948.4
-77076.2
-75654
-70696.5
-66392.3
-62074.4
-57686.6
-52621.3
-46391.6
-36856.7
-25710.9
-21134.7
-16980.9
-10213.2
1356.32
40467.5
156010
119157
116542
50699.4
30285.4
1796.2
-6883.09
-12005.5
-15445.3
-18011.1
-19635.3
-20002.1
-19735.2
-15622.4
-9607.58
-8667.73
-7938.7
-4687.11
3736.22
294378
367393
255495
223398
148559
132001
87162.6
67387.2
51187.7
39157
29129.9
21637
14966.1
9941.34
9519.63
6455.12
3624.13
494.128
560.34
5868.44
526470
520498
340682
319336
222590
207827
154457
133534
104734
88055.1
69402.5
56820.6
44551.6
35205.3
26423
20066.7
13924.4
8136.26
5159.66
7807.78
847822
705512
507844
441423
326392
287159
220081
188273
147862
123526
97949.8
80467.8
63762.7
50955.3
39094.9
29800.9
21413.8
13462.8
8923.64
9327.42
1.03032e+06
791947
589729
512637
381655
339846
262310
227115
179235
151453
120694
100080
79592.1
64146.5
49568
38227.1
27670.5
17990.7
11788.3
10535.9
796174
856847
628961
561356
439244
387586
303653
262758
207296
175993
139710
116213
92328.3
74575.3
57936.9
44885.8
32765.5
21684.4
14237.5
11585.7
988613
872278
661561
579904
459508
407702
322095
281895
224539
191546
153121
127828
101979
82735.3
64627
50290.2
36987
24890.1
16483.1
12654.4
899583
804192
658657
596366
475601
427299
338477
297853
237513
203508
162521
136068
108462
88092.3
69009.3
53830.4
39832.4
27222.1
18331.7
13632
811071
720728
645801
591226
487356
432252
344851
303346
243110
208461
167231
140098
111969
90984.5
71543.3
55897.4
41487.1
28714.5
19705.7
14610.5
-1.24475e+06
-1.04202e+06
-991938
-850757
-783308
-669416
-598238
-517839
-453645
-391208
-338205
-289424
-246940
-207692
-172224
-138771
-108134
-79326
-49730.3
-16049.8
-1.35201e+06
-1.14079e+06
-1.0343e+06
-856349
-780463
-663930
-591585
-509676
-446241
-384260
-332418
-284486
-242876
-204524
-169654
-136747
-106572
-78294.3
-49149.4
-15972.9
-1.4946e+06
-1.1395e+06
-1.01823e+06
-843043
-750793
-641806
-566552
-487993
-426511
-367112
-317410
-271975
-232376
-196148
-163429
-132002
-102994
-75773.9
-47562.7
-15342.9
-1.35747e+06
-1.10026e+06
-994771
-804944
-717424
-608715
-536919
-460762
-402824
-346313
-299636
-256777
-219550
-185204
-154387
-124892
-97585.4
-71938.4
-45099.9
-14275.7
-1.44196e+06
-1.02498e+06
-915157
-732896
-648655
-553502
-487316
-418822
-367887
-317366
-275723
-236706
-202819
-171132
-142474
-115281
-90284.4
-66690
-41781.7
-12815.9
-860494
-809053
-780334
-632862
-574206
-488975
-435430
-374944
-329578
-284769
-247375
-212752
-182206
-153844
-128238
-103876
-81315.7
-60243.7
-37684.6
-10944.9
-815855
-698504
-670478
-529945
-480343
-406327
-364860
-314394
-279479
-243201
-213278
-184203
-158218
-133760
-111584
-90333.6
-70820.7
-52703.1
-32893.9
-8782.91
-644361
-548502
-516833
-417355
-386076
-325999
-315566
-277006
-244159
-215360
-189481
-165170
-142618
-121149
-91938.8
-74519.3
-58938.7
-44228.4
-27497.5
-6417.79
-443428
-339097
-366849
-281317
-271658
-256632
-250086
-221060
-196431
-174189
-154403
-135658
-118016
-100903
-79512.5
-58220.2
-46244.7
-35218.6
-21820.7
-3901.86
-45770.4
-87551
-168080
-141749
-153241
-158875
-163202
-147932
-133606
-120434
-108287
-96730
-85348.5
-73846.5
-58029.1
-41614.8
-33544.6
-25995.2
-16094
-1322.11
-389907
-64321.4
-109189
-31794.4
-50888.8
-62017.2
-78151.7
-75815.3
-70917.3
-66847.8
-61315.4
-57544.1
-52529
-46471.5
-36654.3
-25593.4
-21093.2
-17137
-10553.3
1067.97
60784.1
184975
119736
115060
48412.6
28913.9
1487.4
-6769.37
-11895.1
-15399.9
-18048.5
-19597.7
-19979.6
-19411
-15002.9
-9363.43
-8614.24
-8102
-4996.33
3439.1
258207
346604
250642
221452
147067
132460
88276.6
68235.4
51891.8
39735.6
29609.8
21739.7
14920.9
10052
9892.82
6761
3792.2
473.507
299.434
5549.1
430316
515606
341702
319690
220278
208633
154750
134709
104922
88284.1
69435.8
56913.4
44494.8
35254.2
26222.7
19780.2
13702.6
7918.56
4901.71
7445.17
893235
707366
508261
443325
326425
288168
219635
188399
147619
123605
97918.3
80622.7
63733.8
50860
38906.8
29598.5
21286.4
13236.3
8393
8856.84
1.09461e+06
799132
595866
512424
381274
340209
261326
227146
178927
151484
120671
100208
79481.2
64055.4
49397.9
38074
27613
17801.8
11288
10021.7
896484
892512
650295
564663
440160
388524
302867
262675
206962
176082
139587
116314
92212.2
74494.2
57765.6
44743.8
32723.3
21537.1
13777.1
11084.6
986540
868685
665492
579091
460118
408214
321258
281766
224144
191605
152994
127886
101821
82666.1
64470.1
50183.3
36965.8
24780.9
16132.8
12241.1
732592
802651
658214
597737
477089
427589
337860
297884
236886
203565
162322
136034
108293
87997.6
68926.3
53797.8
39847
27156.9
18144.5
13339.4
629865
691287
641995
590055
487139
432524
344300
303332
242707
208411
167069
140038
111869
90901.7
71515.7
55921.8
41512.4
28714.3
19643.5
14497.6
-1.22717e+06
-1.04117e+06
-993067
-850452
-783007
-668892
-598247
-517476
-453347
-390996
-338145
-289403
-246906
-207663
-172229
-138785
-108134
-79344.1
-49774.6
-16042
-1.37671e+06
-1.12939e+06
-1.03493e+06
-856708
-780200
-664367
-591789
-509626
-446290
-384285
-332526
-284591
-242947
-204528
-169698
-136791
-106583
-78361.2
-49281.6
-15922.7
-1.37097e+06
-1.12698e+06
-1.01599e+06
-843562
-751293
-642039
-566434
-488055
-426744
-367277
-317594
-271988
-232406
-196056
-163348
-132014
-102993
-75820.8
-47620.6
-15041.6
-1.34764e+06
-1.08285e+06
-992886
-804229
-717081
-608132
-536190
-460420
-402997
-346300
-299684
-256729
-219532
-185203
-154347
-124856
-97517.4
-71933
-45113.1
-13946.9
-1.33115e+06
-992669
-907216
-732271
-647413
-553032
-487000
-418658
-367827
-317254
-275679
-236650
-202725
-171061
-142446
-115203
-90175.4
-66658.3
-41805.6
-12545.6
-794051
-799611
-779483
-632966
-572808
-488192
-433649
-374257
-329547
-284583
-247166
-212560
-182099
-153761
-128216
-103879
-81236.6
-60247.8
-37777.7
-10770.3
-740756
-683838
-669443
-529100
-479477
-405804
-364246
-314005
-279176
-242735
-212898
-183714
-158018
-133607
-111484
-90290.8
-70752.6
-52712
-33032.9
-8713.32
-594588
-513164
-513264
-417026
-385001
-326327
-315771
-277331
-244440
-215267
-189119
-164894
-142346
-120956
-91751.4
-74578
-58955.5
-44264.6
-27652.1
-6357.96
-186056
-264365
-367609
-278872
-271520
-256883
-251393
-221575
-196596
-174270
-154317
-135327
-117894
-100984
-79479.8
-58350.3
-46313.4
-35330.5
-22036.2
-3961
129036
-46181.4
-161147
-138421
-152404
-159654
-163959
-148191
-133642
-120467
-108416
-96916.7
-85424.2
-73821
-57927.5
-41737.5
-33586.2
-26153.4
-16438.2
-1483.45
-281979
-11099.2
-99978.6
-31302.2
-53370
-63743
-79371.6
-76056.1
-71169.7
-66331.7
-61500
-57571.1
-52410.4
-46429.4
-36314.3
-25478.7
-21067.5
-17275.8
-10960.6
753.394
63110.1
186242
118324
110053
46395.1
26998.2
975.801
-6604.11
-11732.5
-15356.2
-18046.9
-19565.8
-19950
-19264.2
-14409.2
-9074.1
-8539.25
-8229.76
-5415.34
2989.51
335084
372710
251906
220147
146107
132964
89158.3
68690.7
52407.2
40084.2
29808.5
21727.9
14891.8
10264.6
10124.3
6812.98
3876.78
437.494
-163.949
4992.47
396172
502817
343415
320852
220722
209526
154973
135133
104825
88408.8
69394
56874.2
44330.7
35225.9
25992.4
19500.6
13542.2
7670.49
4334.34
6825.67
850115
709184
510419
446305
326898
289190
219163
188687
147307
123722
97807.8
80736.9
63585.2
50744
38631.6
29350.9
21175.7
13025.9
7618.31
8092.72
1.05845e+06
813764
593880
513375
381498
341129
260686
227246
178523
151448
120628
100286
79238.6
63896.9
49154.9
37875.5
27522.5
17608.1
10513.6
9184.17
1.02921e+06
874423
636358
564728
439824
389010
302373
262727
206560
176168
139654
116468
92087.5
74349.9
57479.4
44532
32643
21384.8
12993.9
10154.2
1.0072e+06
875885
667686
579661
461221
408505
320772
281861
223966
191736
152966
127997
101532
82453.5
64245.7
50038.8
36936.9
24669
15567.5
11527.1
801570
812600
651632
597619
480820
427792
337257
298152
236657
203698
162027
135954
108018
87903.8
68842.6
53776.1
39897.8
27141.1
17869.9
12927.5
503176
672620
638030
590132
486333
433042
343480
303284
242265
208373
166860
139977
111778
90843.4
71493.3
55973.5
41554
28729.6
19533.5
14261.5
-1.11526e+06
-1.01804e+06
-997400
-848582
-781565
-668504
-598143
-517208
-453185
-390863
-338096
-289366
-246864
-207638
-172214
-138774
-108121
-79361.6
-49821.5
-16071.1
-1.38814e+06
-1.12125e+06
-1.03772e+06
-856361
-779381
-664499
-592041
-509408
-446300
-384279
-332613
-284629
-242976
-204506
-169680
-136769
-106549
-78403.6
-49461.6
-15886.3
-1.50379e+06
-1.13049e+06
-1.01666e+06
-844649
-751548
-641843
-565513
-487540
-426794
-367292
-317710
-272034
-232470
-196028
-163340
-132026
-102980
-75874.1
-47767.8
-14853.5
-1.28282e+06
-1.06803e+06
-991003
-802953
-716623
-606942
-535400
-459570
-403253
-346217
-299724
-256683
-219525
-185185
-154306
-124852
-97453.1
-71937.3
-45206.4
-13751.5
-1.36102e+06
-981865
-915497
-733327
-645896
-552097
-486238
-418695
-367835
-317164
-275668
-236567
-202574
-170974
-142422
-115165
-90100.8
-66648.7
-41919.8
-12419.4
-839753
-801079
-782390
-631365
-570980
-487118
-432354
-373416
-329669
-284174
-246828
-212309
-181937
-153637
-128159
-103853
-81165.9
-60271.1
-37988.3
-10777.8
-923460
-701513
-672890
-528393
-478125
-405379
-363160
-313617
-279113
-241842
-212611
-183137
-157940
-133416
-111352
-90238.1
-70682.4
-52747.2
-33326.2
-8806.08
-574617
-495342
-513399
-416703
-384264
-326852
-315945
-277327
-244572
-215051
-188931
-164457
-142077
-120836
-91652.6
-74633.8
-58914
-44339.1
-28095.1
-6530.24
-38277.4
-239037
-364569
-277796
-271206
-257822
-251977
-221724
-196515
-173952
-153823
-135114
-117835
-100951
-79080.1
-58560
-46361.4
-35493.3
-22600.1
-4163.54
43397.4
-31085.6
-159928
-136434
-151793
-160636
-164282
-148408
-133725
-120579
-108502
-96910.6
-85249.9
-73746.9
-57764.5
-41859
-33637.1
-26323.9
-16944.3
-1760.3
-84302.9
8192.12
-93752.7
-31911.7
-55091.5
-65428.5
-80113.3
-76230.2
-71327.9
-66639.7
-62042.2
-57424
-52259.1
-46385.6
-35949.7
-25451.9
-21085.6
-17414.9
-11413.4
384.772
199094
204390
127308
108150
46236.8
27580.9
837.264
-6405.87
-11556.5
-15363.7
-18078.7
-19530.9
-19900.5
-19155.5
-13894.8
-8904.63
-8552.34
-8335.45
-6013.99
2408.36
203930
345620
249126
217835
145138
133575
89590
68502.3
52610.6
40108.5
29681.7
21451
14736.4
10570
10399
6757.5
3912.29
327.015
-946.106
4168.78
397032
509174
341875
322141
223405
209234
156185
135467
104568
88510.1
69305.7
56808.5
44190.1
35289.2
25886.8
19344.7
13496.4
7509.34
3432.29
5947.74
783358
704267
511398
448155
327345
290072
218715
189318
146985
124180
97675.6
81154.6
63438.7
50744.5
38405.6
29160.8
21133.6
12864.9
6675.58
7003.78
1.0694e+06
820762
592507
513505
383894
342191
260879
227489
178368
151393
120658
100430
78938.9
63784.1
48904.6
37664.2
27445.8
17467.3
9566.85
8054.98
1.15221e+06
911438
647941
566151
441484
389619
302639
262922
206625
176325
139848
116705
92015.9
74139.9
57038
44242.4
32580.7
21229.3
12013.3
8862.49
1.10417e+06
879385
665964
578244
463667
407886
321719
282236
224245
191859
153037
128170
100961
82195.5
63907.2
49913
36940.3
24575.3
14736.2
10303.3
773666
816893
650434
597805
483054
427700
339307
298707
237210
203939
161199
135945
107681
87842.7
68768.4
53823.5
40043
27171.3
17501.1
12367.2
342759
672145
632090
589804
487148
434437
342691
303359
241907
208429
166685
139968
111726
90854.2
71531.2
56039
41654.2
28720.6
19440.3
14082.9
-111264
-78666.2
-75525.1
-120440
-111334
-78638.8
-75391.2
-99507.8
-74029.1
-68205.2
-108379
-99658
-73886.5
-68078.8
-62433.1
-27877.5
-28660.9
-66832.4
-62347.1
-27899.2
-28690.8
-58785.1
-28861.1
-29147.6
-61210.4
-58710.2
-28886.9
-29118.4
-227651
-184485
-170253
-248390
-228118
-184896
-170346
-202404
-166014
-153679
-219958
-202724
-165969
-153544
-179804
-149542
-137823
-195816
-179981
-149451
-137834
-159795
-134135
-123473
-173922
-159909
-134121
-123421
-140924
-120001
-109894
-154352
-140954
-119934
-109854
-123238
-106626
-96875.2
-135725
-123178
-106588
-96881.7
-105681
-93591.4
-83889.4
-118195
-105707
-93612.6
-83938.4
-88616.8
-80565.6
-70664.4
-101134
-88848.1
-80616.5
-70738.6
-150946
-99673.8
-95143.8
-161439
-151252
-99959
-95332.2
-137284
-93419.6
-87764.7
-147639
-137130
-93518.4
-87835.9
-123830
-85938
-81175.6
-133724
-123749
-85933.5
-81187.4
-111256
-79621.3
-75036.2
-120533
-111224
-79625.5
-75031.7
-99526.4
-73522
-68908.4
-108232
-99514.1
-73510.4
-68881.4
-88105.5
-67321.5
-62501
-96672.2
-88156
-67294.2
-62423.6
-76610.3
-60783.8
-55120.2
-85313.8
-76669.1
-60785
-55164.3
-64485.6
-52954
-47530.4
-73637.8
-64506.6
-53067.4
-47635.1
-76426
-17892.4
-22708.9
-76570.9
-76624.2
-17916.8
-22728.6
-72022.7
-23757.9
-25967.6
-75605.6
-72023.8
-23758
-25914
-67482.8
-26500.4
-27721.8
-70664.6
-67462.3
-26473.3
-27648
-63245.6
-27961
-28595.2
-66396.8
-63186
-27901.3
-28608.4
-58833.7
-28752.4
-29118.3
-62109.9
-58863.2
-28788.1
-29172.9
-54123.6
-29101.8
-28473
-57700.2
-54005.2
-29134.4
-28497.4
-47958.1
-28118.5
-26999.1
-52634.6
-48021
-28145.9
-26921.7
-41535.7
-26496.6
-25101.9
-46348.2
-41612.3
-26436.5
-25140
-5210.23
57602.8
47655.1
1896.92
-5190.98
57991.2
47955.7
-10979.1
43696.6
34067.4
-6892.36
-10922.7
43991.9
34292.2
-14805.5
30973.8
23800.3
-12034.3
-14718.6
31230.7
23987.1
-17442.7
21466.1
15399.9
-15461.1
-17437.8
21681.2
15576.9
-19342.5
13733.9
9188.36
-18005.4
-19360
13974.9
9339.24
-20027
8167.44
4784.6
-19644.2
-20038.9
8309.09
4696.18
-19972.6
3978.19
588.043
-20007.6
-19890.8
3967.56
697.608
-19064.5
-37.4618
-3389.73
-19812.1
-19053.5
131.338
-3186.38
-228326
-185363
-170440
-249560
-229064
-186014
-170785
-202880
-165990
-153490
-220861
-203250
-166131
-153450
-180080
-149423
-137827
-196323
-180240
-149383
-137787
-159974
-134106
-123402
-174140
-159983
-134046
-123363
-140980
-119913
-109849
-154391
-141039
-119885
-109904
-123170
-106583
-96886.5
-135695
-123055
-106660
-96905.9
-105718
-93618.4
-83964.9
-118041
-105697
-93640.5
-84025
-88869.8
-80660.2
-70763.9
-100930
-89001.8
-80771.7
-71209.6
-151381
-100393
-95393.9
-162766
-151742
-100821
-95552.7
-137095
-93561.9
-87862.2
-147867
-137067
-93684.4
-87972.3
-123719
-85972.1
-81184.7
-133613
-123638
-86150.1
-81049
-111220
-79619.2
-75033.3
-120454
-111249
-79304.4
-75286.4
-99507.9
-73513.8
-68808
-108267
-99500.8
-73799.1
-68580.2
-88173.3
-67253.2
-62423.9
-96698.1
-88210.1
-67079.2
-62394.7
-76696
-60763.3
-55183.4
-85352.5
-76777.4
-60695.3
-55233.1
-64480.5
-53125.4
-47608.6
-73791.5
-64840.2
-53265.2
-47765.5
-76682.8
-18228.6
-22747.1
-77613.2
-76868.1
-18499
-22758.6
-72042.3
-23763.3
-25895.8
-75771.3
-72128.1
-23740.7
-25889.5
-67464.5
-26448.1
-27624.2
-70857.3
-67427.1
-26388.7
-27584.2
-63149.6
-27886.7
-28615.5
-66339.8
-62732.4
-27869.6
-28640.8
-58846.3
-28802.7
-29184.5
-61675.8
-58983.5
-28841.9
-29169.5
-54015
-29134
-28492.8
-57658.6
-53940.9
-29108.9
-28471.6
-48040.5
-28139.6
-26885.1
-52554.6
-48070
-28099.1
-26763.6
-41558.8
-26393.2
-25054.5
-46466.3
-41588
-26222.5
-24953.7
-5190.38
58050.8
48152.4
1717.87
-5156.96
58711.5
48760.9
-10909.1
44176.1
34442.6
-6799.13
-10845.4
44741.4
34907.5
-14693.3
31400.1
24119
-11925.6
-14636
31844.7
24465.7
-17440.9
21835.6
15727.1
-15409.4
-17464.6
22221.2
15997.1
-19356.9
14106.3
9429.74
-18035.6
-19338.1
14381.2
9638.05
-20033.9
8386.76
4688.41
-19605.1
-20006.6
8574.71
4650.37
-19838
3979.3
750.092
-19982
-19675.5
3924.82
853.569
-18896.6
204.074
-2896.34
-19478.9
-18651
424.301
-2428.5
-229252
-186462
-170903
-250953
-229715
-187063
-171229
-203365
-166195
-153460
-221456
-203510
-166399
-153516
-180304
-149380
-137770
-196556
-180419
-149397
-137767
-160002
-134022
-123355
-174215
-160029
-134013
-123403
-141072
-119886
-109953
-154346
-140792
-119964
-110140
-123074
-106728
-96914.2
-135400
-122947
-106909
-96985.2
-105727
-93645
-84035.6
-117926
-105957
-93712.7
-84027.5
-88974.6
-80787.9
-71214.3
-100971
-89101.5
-80778
-71286.4
-151851
-101236
-95622.1
-163643
-152133
-101703
-95859
-137075
-93728
-88033.7
-148129
-137132
-93887.5
-88250.6
-123609
-86217.9
-80958.6
-133626
-123601
-86433.1
-81012.4
-103743
-117356
-106523
-120413
-103886
-117349
-106411
-94318.8
-105323
-96668.7
-108309
-94265.3
-105345
-96679.3
-88221.1
-66895.1
-62351
-96882.1
-88344.3
-66819.4
-62259
-76782.2
-60673.4
-55240.3
-85439
-76749.8
-60575.4
-55229.1
-64840.7
-53293.3
-47724.9
-73849.4
-64962.6
-53317.6
-47806.8
-76941.9
-18913
-22795
-78835.5
-77208.3
-19474.4
-22924.1
-72171.9
-23752.7
-25898.8
-75992
-72350.8
-23786.5
-25882.7
-67403.6
-26395.2
-27580.6
-71108.4
-67496
-26385.7
-27584.9
-52875.1
-64781.6
-53427.6
-66224.1
-52730
-62410.3
-53442.8
-49657.4
-60373.5
-50384.5
-58881.6
-49754.3
-57849.7
-50374.1
-53901.3
-29095.7
-28457.6
-57472.1
-53809.4
-29074.1
-28390.8
-48069.4
-28082.6
-26725.5
-52425.5
-48039.9
-28028.6
-26633.9
-41507.5
-26171.7
-24787.7
-46447.8
-41452.5
-26066.2
-24619.1
-5146.01
58794.4
48968.2
1202.27
-5106.48
59488.7
49537.8
-10814.9
44947.1
35075.8
-6648.76
-10682
45487.7
35453
-14619.1
32007.3
24596.5
-11775.9
-14560.5
32390.7
24876.8
-17479.5
22366.2
16106.4
-15366.5
-17485.4
22650.7
16242.2
-19331.9
14470.5
9692.44
-18053.9
-19296.9
14601
9752.52
-19997.7
8619.99
4648.82
-19574.3
-19971.2
8651.77
4692.66
-19631.4
3897.95
905.012
-19953.8
-19542.3
3977.01
1054.28
-18448.8
449.127
-2221.23
-19283
-18208
748.616
-1832.3
-229879
-187358
-171327
-251618
-230160
-187474
-171581
-203550
-166465
-153538
-221704
-203501
-166645
-153614
-180557
-149409
-137787
-196526
-180572
-149451
-137880
-160116
-134036
-123440
-174075
-159779
-134141
-123516
-140736
-120007
-110186
-153911
-140582
-120095
-110198
-122915
-106937
-97041.4
-135128
-122854
-106904
-97017
-105978
-93772.7
-84016.4
-117840
-106030
-93694.6
-83936.5
-88983.2
-80761.2
-71154.6
-100970
-88943.8
-80681.4
-71133.8
-152217
-102155
-95939.9
-164072
-152417
-102479
-96145.3
-137156
-93944.7
-88319.6
-148349
-137236
-94086.8
-88479.2
-123630
-86503.1
-81159.6
-133701
-123730
-86669.4
-81495.8
-111362
-79324.3
-75150.1
-120555
-111431
-79833.2
-74917.6
-99723.7
-73633.9
-68527.4
-108494
-99818.2
-73369.3
-68582.6
-88351.9
-67003.1
-62229.3
-96909
-88196.1
-67000.5
-62126.3
-76727
-60553.2
-55199.4
-85282.3
-76665
-60450
-55197.7
-64753.6
-53301.2
-47686.9
-73760
-64856.6
-53295.5
-47705.9
-77299.1
-19857.4
-22964.1
-79782.8
-77510.8
-20212
-23029.2
-72410.3
-23788.1
-25863.8
-76204.6
-72532.2
-23741.8
-25776.3
-67561.8
-26370.6
-27585.9
-71297.5
-67781.2
-26294.5
-27598.1
-62591
-27904.6
-28693.5
-66605.1
-63121.8
-27954.6
-28766.9
-58935.9
-28888.5
-29120.6
-61989.4
-58644.6
-28940.1
-29091.9
-53789.1
-29065.3
-28369
-57442.3
-53663
-29009.3
-28291.6
-48017.8
-28005.2
-26613.8
-52304.2
-47980.5
-27924.9
-26542.5
-41312.4
-26045.9
-24452.9
-46393.1
-41274.5
-25962.2
-24380.3
-5092.39
59556.8
49660.4
942.234
-5023.06
60241.4
49759.4
-10631.6
45619.9
35546.2
-6456.54
-10481.9
45747.5
35600.5
-14538.7
32502.6
24952.6
-11599.6
-14496
32652.5
24994.9
-17476.3
22731.1
16265
-15357.2
-17495.6
22761.9
16176.5
-19279.5
14625.2
9749.5
-18065.5
-19239.1
14603.1
9690.52
-19952.7
8641.57
4669.41
-19540.2
-19896.7
8605.24
4523.44
-19528.4
3985.04
1074.74
-19907.9
-19429.8
3928.48
1065.39
-18028.6
840.876
-1621.14
-19169
-17914.7
914.832
-1353.33
-230173
-187634
-171670
-251999
-229718
-187261
-171785
-203515
-166719
-153646
-221507
-203044
-166812
-153752
-180372
-149470
-137908
-196472
-180031
-149506
-137866
-159568
-134170
-123515
-173926
-159123
-134071
-123409
-140562
-120083
-110128
-153791
-140273
-119897
-109895
-122826
-106839
-96994.2
-135129
-122499
-106593
-96895.7
-106011
-93664.9
-83926.3
-117739
-105608
-93589.4
-83923.5
-88589.1
-80667.6
-70879.7
-100790
-88060.2
-80650.5
-70735
-152473
-102854
-96190.3
-164170
-152557
-102759
-96235.8
-137269
-94114.8
-88530.8
-148489
-137348
-94135.7
-88551.7
-123758
-86724.9
-81563.2
-133743
-123730
-86730.3
-81639.1
-111445
-79892.5
-74946.5
-120517
-111358
-79977.2
-75057.9
-99831.4
-73382.3
-68604.1
-108370
-99679.2
-73504
-68705.3
-88166.8
-66992.8
-62088.3
-96773.7
-88138.6
-67075.5
-62106
-76654.9
-60411
-55190.2
-85228.2
-76657.2
-60402.1
-55185.5
-64615.6
-53288.9
-47467
-73732.3
-64600.2
-53264.2
-47471.3
-77551.2
-20467.6
-23036.5
-80012.2
-77570.9
-20327.4
-22996.3
-72559.7
-23710.9
-25745.7
-76231.5
-72558
-23638.5
-25697.7
-67814.2
-26264.5
-27603.5
-71319
-67865.4
-26202.3
-27619.5
-63176.2
-27972
-28796.7
-66730.4
-63346.6
-28031.7
-28889.4
-58645
-28959.6
-29074.8
-62196.4
-58679.6
-29021.5
-29079
-53615.3
-28985
-28264.6
-57453.5
-53608
-28981.7
-28277
-47972.5
-27901
-26531.6
-52239.1
-47977.4
-27913.3
-26577.7
-41039.6
-25948.4
-24119.4
-46371.5
-41081
-25964.9
-24133.5
-4999.23
60209
49766.1
1110.43
-4932.55
60000.8
49544.6
-10440
45779.9
35653.9
-6312.44
-10374.9
45507.4
35703.5
-14491.4
32727.4
25050
-11465.5
-14519.9
32572.9
25010
-17513.7
22797
16199.4
-15399
-17594.2
22513.7
16177.8
-19229.7
14624.8
9712.29
-18129.3
-19264.2
14429.4
9624.9
-19883.6
8610.3
4510.07
-19555.6
-19919.2
8243.5
4338.82
-19413.9
3889.33
1115.14
-19930.9
-19476.5
3513.02
1120.11
-17687
908.565
-967.984
-19175.4
-17721.6
741.154
-718.432
-101410
-114297
-99058.1
-111280
-101491
-114305
-99023.1
-91228.3
-93084.6
-78160.2
-78354.7
-91335.4
-92891.3
-79864.7
-89328.7
-87301
-77120.6
-77901.7
-89356.9
-87247.4
-79754.7
-103734
-120412
-117380
-106527
-117356
-106401
-103888
-101418
-111304
-114346
-99095.8
-114321
-99042
-101517
-91165.2
-78210
-93071.3
-78051.5
-92842.9
-79724.5
-91297.5
-89288.7
-77880.3
-87273.6
-77022
-87230.3
-79756.9
-89326.3
-91915.1
-102379
-89314.3
-99530.8
-91860.8
-102395
-89331.5
-83008.1
-85241.9
-72426
-76384.4
-83124.5
-85178.7
-74593.2
-80646.1
-78588.3
-70795.2
-67989.2
-80776.8
-78408.4
-72347.2
-94332.4
-108341
-105432
-96723.5
-105384
-96702.2
-94319.3
-91916.2
-99583.3
-102511
-89344.9
-102442
-89335.5
-91900.3
-82989.1
-76334.5
-85205.9
-72263
-85163.9
-74558.4
-83061.5
-80608.3
-67930.6
-78518.4
-70736.3
-78344.1
-72300.2
-80730.3
-51880
-63447.7
-51037.2
-60018.7
-51797.2
-61033.7
-51074.6
-40126.6
-40392.9
-28170.5
-27882.9
-40212.9
-40323.1
-28182.2
-40032.8
-39939.9
-28413.5
-28680.7
-40059.9
-39979.6
-28432.1
-52881
-66229.8
-64668.5
-53469.1
-62277.7
-53483.5
-52698.3
-51880.5
-59908.8
-63357.9
-51032.5
-60918.2
-51078.5
-51792.8
-40120.3
-27891.8
-40439.7
-28181
-40341.4
-28185.6
-40219.9
-40056.2
-28691.4
-39986.6
-28447.1
-39992.4
-28444.3
-40096
-48776.8
-59554.2
-48643
-58922.4
-49059.1
-57330
-48440.9
-39745.9
-39788.6
-29025.9
-28877.2
-39680.2
-39836.5
-29024.7
-39657.6
-39277.3
-29087.7
-29124.3
-39539.6
-39362.8
-29066.4
-49656.6
-58838.6
-60197.2
-50360.8
-57789
-50382.4
-49686.4
-48760.8
-59012.2
-59334.4
-48567.9
-57455.5
-48428.3
-48990.1
-39752.9
-28886.3
-39825.8
-29030
-39847.4
-29026
-39699.4
-39671.9
-29115.6
-39249
-29077.1
-39367.9
-29062.8
-39541
-297789
-281640
-261543
-315060
-297899
-281494
-261672
-261526
-242608
-229353
-276377
-261659
-243073
-229717
-230903
-214828
-203372
-243635
-230970
-215073
-203584
-203918
-190442
-180558
-215304
-203976
-190602
-180722
-178594
-168553
-159010
-189695
-178616
-168674
-159088
-155041
-147549
-138773
-165333
-155047
-147574
-138728
-133239
-128067
-119567
-142987
-133271
-127887
-119347
-112310
-108963
-101288
-121584
-112250
-108936
-101329
-251207
-214771
-205010
-256732
-251246
-214706
-205456
-221701
-242541
-228778
-248322
-242583
-228909
-221757
-196873
-214434
-201860
-219588
-214510
-201880
-196857
-175595
-190538
-180169
-195594
-190581
-180223
-175579
-156480
-169394
-160512
-173790
-169433
-160529
-156453
-139026
-150064
-142793
-154292
-150091
-142801
-139018
-122496
-131762
-126021
-135737
-131775
-126024
-122485
-106416
-114311
-110024
-118293
-114290
-109974
-106389
-90778.7
-97258.9
-94157.9
-101166
-97266.8
-94165.7
-90769.5
-72072.4
-67883.2
-63275.5
-79109.8
-72365.1
-67906.7
-63308.3
-156741
-114224
-112754
-156992
-157725
-114277
-112852
-138309
-157678
-141260
-160822
-157736
-141587
-138226
-126196
-144100
-129146
-147555
-144113
-129199
-126143
-114969
-130446
-117704
-133833
-130421
-117694
-114997
-104259
-117443
-106949
-120593
-117424
-106918
-104287
-94038
-105300
-96515.9
-108247
-105295
-96516.6
-94035.6
-84363.9
-93860.4
-86799.5
-96690.2
-93848.9
-86793.9
-84369.5
-74634.8
-82457
-77005.7
-85287.2
-82458
-77034.5
-74631.8
-63901.1
-70500.5
-66700.2
-73584.6
-70508.5
-66714.6
-63898.2
-53021.1
-47448.7
-43785.5
-57801.1
-53011.5
-47432.1
-43843.3
-66110.6
-16441.2
-25914.2
-58226.2
-65924.1
-16563.3
-25892.5
-58135.3
-77449.5
-57394.5
-76526.6
-77486.7
-57584.2
-58124.2
-57485.7
-74398.3
-57979.8
-75514.2
-74418.3
-57975.2
-57484.3
-55143.4
-69556.3
-55766.9
-70670