/*--------------------------------*- C++ -*----------------------------------*\
  =========                 |
  \\      /  F ield         | OpenFOAM: The Open Source CFD Toolbox
   \\    /   O peration     | Website:  https://openfoam.org
    \\  /    A nd           | Version:  10
     \\/     M anipulation  |
\*---------------------------------------------------------------------------*/
FoamFile
{
    format      ascii;
    class       surfaceScalarField;
    location    "3.6";
    object      phi;
}
// * * * * * * * * * * * * * * * * * * * * * * * * * * * * * * * * * * * * * //

dimensions      [0 3 -1 0 0 0 0];

internalField   nonuniform List<scalar> 
38556
(
1493.02
-1646.57
1064.2
993.609
-565.173
1064.58
992.623
-165.014
166.001
1053.45
-10.9999
-49.8251
1071.65
-38.0766
19.8764
1123.85
-54.6895
2.48922
1120.81
-49.2499
52.2835
1137.63
-54.6819
37.8685
1141.25
-41.1889
37.5618
1143.78
-11.318
8.78833
1088.23
51.1103
4.44774
982.079
90.2098
15.9377
878.658
62.5833
40.8375
824.161
14.2288
40.2684
811.732
-45.7717
58.2011
817.557
-74.6847
68.8592
832.127
-84.0999
69.5296
850.948
-85.565
66.7447
883.136
-83.8647
51.6763
-68.9385
42.5996
-113.613
-694.847
-1617.86
-55.72
-130.41
-492.656
441.281
-223.243
-438.772
576.206
31.1405
-177.065
755.264
-50.9809
-166.154
853.905
8.34559
-161.676
885.284
3.53197
-84.1611
888.237
10.2146
-67.85
858.564
0.445698
-11.961
852.91
8.53161
-14.196
868.325
36.9761
-1.2807
889.718
70.5851
-1.76813
899.294
55.4214
-2.41444
879.959
23.1369
10.4264
837.905
-34.3165
30.5991
806.717
-68.4478
24.9512
791.967
-82.9138
13.5636
785.935
-83.2817
3.74915
785.037
-80.7172
-2.24981
-67.218
-4.21681
548.808
191.109
-1344.85
1057.17
382.995
-1021.76
1312.15
146.647
-624.872
1522.27
170.83
-349.814
1487.85
145.054
-161.614
1523.39
135.371
-162.562
1533.88
118.36
-125.323
1562.16
95.3268
-113.396
1461.59
80.3685
20.6553
1259.8
94.1631
116.158
1061.51
106.074
129.188
956.054
108.53
67.5125
888.943
71.9197
50.6128
838.216
18.6683
55.1956
811.151
-45.0841
37.8327
796.575
-78.8642
24.9919
789.567
-92.5469
16.6412
783.641
-88.9112
11.556
775.34
-82.9444
10.5275
-70.4689
8.29564
-390.498
140.527
385.745
317.359
-322.82
-2.04195
676.62
-68.4416
-144.173
947.432
-18.8419
-81.1395
1071.55
72.535
-51.5976
1200.07
83.6623
-76.8126
1253.87
81.4406
-16.8764
1273.96
85.0823
-9.84747
1167.45
101.394
85.4812
1030.69
129.743
101.177
929.903
123.667
83.197
883.352
106.244
48.8369
860.007
66.1691
29.0954
834.672
22.373
21.6307
810.233
-34.306
13.6608
791.618
-74.0221
13.7733
781.601
-91.9656
9.43562
772.464
-87.213
7.4393
756.83
-77.2117
9.9008
-66.6511
6.90244
-145.221
-1176.98
-42.6785
-24.4784
-773.719
330.157
577.33
-491.313
-178.936
784.945
-318.608
92.1505
868.426
-85.9788
75.0326
910.062
-20.0593
62.0859
902.46
18.7671
70.2756
894.572
52.9899
39.9799
883.211
71.2216
41.5338
891.498
99.3621
22.0938
906.818
96.1956
12.1519
935.954
86.5139
-9.40639
962.943
47.5061
-8.32516
955.476
18.2497
11.5902
893.695
-15.2531
42.728
823.097
-50.6517
47.2276
782.368
-73.9117
22.6746
759.056
-72.2683
8.3672
739.109
-63.8767
6.61232
-58.5106
4.09045
166.234
-1624.19
-2824.6
-248.642
-441.661
82.8174
501.146
-817.702
-423.399
546.742
-488.685
124.481
680.949
-319.306
99.1204
723.816
-99.6042
36.6781
766.448
-68.2817
44.4165
784.424
34.5479
0.466005
799.742
56.7745
-0.870839
811.447
104.018
-16.3615
814.811
104.519
-11.6879
800.943
104.958
-4.57549
765.313
69.1845
13.9515
727.295
29.241
27.0267
702.43
-14.2115
23.8235
689.653
-48.771
10.8963
684.568
-73.4167
4.58959
681.819
-71.5383
2.01913
678.703
-63.587
2.82632
-59.0519
2.22088
-421.165
-897.635
253.036
208.752
-728.625
-342.953
470.448
-735.794
-343.604
591.93
-542.954
-67.2135
650.214
-467.531
89.9412
633.504
-181.275
98.3809
643.556
-28.2279
74.5816
-46.6123
-28.7758
-49.2998
651.488
-1.60301
27.4764
-2.44713
0.448197
2.74197
674.726
13.392
2.59093
0.67517
15.7712
1.1074
693.863
27.7865
-15.2647
24.1665
26.8819
21.3111
710.562
34.0944
-16.8953
23.0715
29.7639
17.7854
719.852
33.3217
-7.18572
23.9737
27.7504
17.8071
718.69
25.3178
10.316
11.3252
18.938
4.44986
720.993
10.7932
20.7473
-3.82186
5.36687
-6.14757
731.867
-46.2847
21.1997
730.208
-65.1286
18.0164
714.238
-72.519
15.0728
694.13
-58.3202
6.88983
682.02
-54.0035
2.52651
-56.5578
0.853349
221.294
-1472.2
852.075
846.338
-793.143
-560.525
1077.77
-252.169
-715.058
1278.58
-355.862
-387.899
1233.68
-333.281
-89.3577
294.564
-33.6002
15.1266
295.579
290.595
284.849
-22.2797
-44.109
-28.3159
277.235
-29.1514
18.2531
-245.992
227.183
-0.0501094
17.2563
-203.221
188.246
22.446
5.92157
-174.043
174.016
29.1197
-1.30556
-172.49
174.51
35.1403
-3.06623
-173.137
176.333
32.6047
-2.47954
-177.172
180.428
20.9636
1.09838
-183.626
190.681
-0.207491
3.94619
780.105
-23.0519
37.1604
-192.882
-197.14
-183.631
-187.497
-34.2472
-17.7435
-27.3572
783.934
-100.187
31.2294
754.584
-64.4017
21.2328
716.808
-34.4102
13.8659
700.535
-35.0967
-2.63391
-50.2399
-4.64196
376.58
-1806.87
-5003.96
672.543
12.3963
-1101.5
1246.85
-212.348
-614.129
1424.36
-281.679
-251.695
300.812
-315.17
158.317
273.222
346.553
327.347
272.298
-28.0617
22.9759
5.61688
-63.1719
58.4385
-2.78523
1.9018
-49.2599
-4.70824
50.0342
4.83742
-0.903481
-47.9798
-10.8172
47.4895
11.4723
-0.164765
-43.2141
-9.6481
43.208
9.82121
-0.167028
-42.7479
-9.16063
43.3873
8.52645
-0.00519681
-43.6186
-8.16735
44.1142
7.46982
0.201974
-44.7523
-3.6538
45.627
2.13653
0.642545
-45.9461
4.12667
45.5275
-5.28286
1.57483
-43.4519
177.026
-29.1682
2.49527
-42.887
-43.9437
-43.1219
754.848
-142.836
14.3334
-180.969
-186.789
-178.518
-180.258
752.987
-74.0139
11.4727
741.984
-24.5846
1.1774
739.82
-21.9772
-10.9554
-43.6353
-8.72542
710.077
-365.339
-1299.06
1278.48
283.117
-839.122
1319.73
-60.6024
-192.993
1337.59
-194.674
-104.866
287.315
-119.405
-16.061
276.249
306.722
287.597
27.2678
277.553
-12.0586
-5.44629
-0.580959
-63.4834
56.6556
5.35967
2.04911
-4.30915
-46.0271
43.9109
6.44164
-0.0162633
-9.12936
-44.1514
45.7808
6.59315
0.906844
-8.61981
-50.2739
50.8695
7.68481
0.339394
-4.76041
-50.8778
50.3659
4.67998
0.592296
-4.23924
-47.922
47.6262
3.95851
0.576552
0.261094
-46.2379
45.1422
-0.275916
1.11053
5.33765
-43.7171
44.3095
-5.10936
-0.820685
-47.506
36.9475
203.197
-43.2835
-2.06382
-51.079
-46.5159
-49.6958
780.965
-154.089
24.5441
-200.04
-208.874
-188.694
-196.648
773.537
-77.4174
10.8313
773.874
-30.1723
5.25041
773.937
-25.6685
3.62819
-42.9055
1.2752
2118.7
-2320.55
-1213.3
2966.48
-306.735
-257.929
2240.04
-121.516
787.35
1784.79
-116.169
376.747
331.212
134.121
195.097
304.537
358.52
341.898
12.886
299.409
13.4127
5.50464
-3.95811
-75.8221
75.1504
6.55713
-1.92736
-16.5038
-77.0751
72.7093
16.3779
4.49175
-8.97728
-56.5015
54.0338
12.6317
-1.18677
-8.33478
-49.2672
48.5736
9.13211
-0.103674
-6.3608
-47.2877
47.2476
6.45234
-0.0514227
-3.27386
-46.5243
46.0012
3.30931
0.487661
0.348345
-47.2234
48.8239
-1.37771
-0.571151
7.33797
-54.3871
55.7394
-8.50551
-0.18475
-55.636
47.0761
215.829
-47.8362
4.55756
-56.3729
-53.5152
-54.1024
728.645
-125.004
25.8398
-203.123
-202.932
-189.618
-187.896
703.439
-62.4275
10.2161
700.288
-38.161
11.1391
690.737
-35.5063
19.3895
-45.1762
12.7673
2837.66
-248.4
-1342.67
2889.11
37.6426
-395.822
1592
267.547
908.044
1004.64
176.4
294.794
190.098
235.43
190.703
147.524
205.793
169.212
-27.4946
190.842
19.8962
6.85437
-9.8225
-54.878
54.2919
8.97471
1.43386
-10.8481
-51.0292
49.6106
10.6782
1.58864
-15.2245
-50.7043
52.1883
13.9909
-0.250351
-12.3087
-53.3399
52.8222
13.5604
-0.734027
-10.0096
-48.5729
47.5076
11.6866
-0.611605
-3.42761
-49.2365
50.9518
3.44454
-1.73221
3.09224
-55.9898
57.1292
-2.94762
-1.28395
8.63135
-58.769
58.6582
-8.00349
-0.517043
-55.5928
47.8637
210.36
-43.9968
4.74596
-56.6993
-52.8214
-53.8589
658.592
-88.1167
39.9747
-189.852
-192.262
-175.077
-178.262
619.475
-51.2313
27.9205
606.856
-39.7682
14.2259
600.866
-41.3449
11.8289
-45.2487
4.11477
2228.56
-518.376
731.871
2251
156.082
-140.871
1471.73
665.042
381.767
1127.08
344.486
176.563
930.757
264.402
167.355
230.173
-56.4317
42.4599
9.68837
24.3996
-2.0952
16.9168
217.499
229.3
218.846
0.244794
218.328
15.0714
7.84295
-4.65972
-0.889002
-5.7648
-7.08679
-204.212
207.704
16.6861
9.34756
-7.72038
-7.14015
-7.57785
-12.3995
-215.438
222.349
31.0728
11.3085
-13.1185
-11.6315
-12.1424
-13.8371
-223.847
234.204
35.3348
6.29381
-13.4839
-12.5046
-12.1602
-10.3445
-250.233
269.215
20.24
-3.90711
-9.16153
-8.44724
-7.36133
-1.82372
-278.273
285.411
6.48848
-7.91611
-1.50882
-1.26595
-1.11181
2.24661
-283.63
278.71
-1.47037
-1.72568
1.75883
2.26158
1.84871
6.38239
-265.972
253.658
-15.6186
3.35442
6.23762
6.14692
5.81136
776.993
-57.446
44.0307
36.2869
27.4947
31.5376
22.0326
-229.855
-230.374
-207.58
-213.12
675.08
-38.7782
52.5746
618.939
-18.7193
23.6284
592.329
-22.7862
9.62795
578.944
-33.1079
5.14794
-41.9078
2.67529
561.301
-430.773
-1825.02
458.74
339.431
-80.7887
461.934
549.267
112.58
622.792
279.889
-96.2608
805.446
89.3657
-7.61765
924.698
-95.0387
-80.6448
1040.21
-28.1636
27.0029
-18.0845
-36.4296
-21.2311
-38.6019
1118.5
-96.6551
17.5979
-1.29993
4.47173
-4.96575
2.55331
1147.42
2.60337
49.6646
-15.1466
-24.505
-17.1791
-24.3495
1154.06
16.8223
27.1574
-15.3801
-10.2143
-14.8246
-10.2102
1124.43
81.7008
10.7324
-15.1592
-16.4377
-15.051
-16.1552
1101.01
84.0293
-18.5724
-11.6295
-10.8224
-10.3433
-9.23369
1072.18
59.9041
-11.8893
-5.76359
-6.07811
-3.08691
-4.26289
1021.79
-10.1513
18.4893
10.839
10.331
12.218
8.67127
914.237
-3.07215
53.1758
791.18
19.276
65.0024
698.006
29.2714
45.183
640.067
13.2623
21.8908
604.199
-9.72204
12.4819
-30.7305
5.72746
527.757
-319.033
-4409.28
1065.13
442.768
-640.704
1265.06
569.439
-220.107
1344.48
334.059
-133.589
1239.48
161.039
33.3287
1235.93
-87.6649
-3.82167
1184.47
-32.4444
55.733
1167.87
-79.5156
-0.533009
1126.77
30.3196
13.377
1103.39
47.4878
-7.28531
1076.55
108.863
-0.315724
1061.67
101.989
-3.08254
1023.93
88.2321
9.41279
956.319
42.1047
15.3547
859.919
58.2343
35.0928
759.971
75.912
43.3122
676.633
81.1438
31.466
616.68
60.8964
12.319
580.755
21.9716
4.23098
-15.5849
1.65202
-146.521
607.803
-299.849
771.895
-389.277
-86.3715
1086.5
20.5339
234.3
1249.65
-24.4427
195.348
1097.12
9.70713
303.871
1040.74
-132.065
100.776
943.419
-12.3402
77.2167
937.885
-42.8006
-31.1811
921.509
68.1216
-21.426
927.052
78.4231
-36.4783
914.578
133.508
-12.1709
890.969
128.225
-2.62656
818.44
127.373
33.3887
739.771
97.1135
23.6603
683.021
100.362
14.6222
650.677
97.7171
10.5389
631.928
97.4928
2.40068
617.033
78.199
-2.40763
602.969
34.392
1.6436
-5.82648
0.828769
-194.679
300.278
3847.29
525.779
-62.3536
-1047.38
984.241
-281.211
-156.717
1039.06
-218.472
139.21
920.69
-127.861
255.938
863.716
-172.743
97.6524
771.578
-18.3079
98.1052
756.336
-10.8438
-16.7143
751.335
89.2753
-16.153
769.225
101.708
-41.1747
773.222
145.001
-15.4898
758.126
150.213
-6.8923
700.631
155.087
29.7806
640.296
132.724
24.7246
611.133
116.319
13.2066
606.208
99.4083
3.23315
612.156
96.0883
-4.54283
623.485
72.3707
-5.50151
628.012
30.7787
-0.91347
-1.65544
-0.660187
190.141
-1135.54
-2749.22
316.653
-41.299
-147.566
902.092
-313.543
-553.107
1019.58
-231.43
-104.534
1063.89
-123.273
-48.8921
1057.24
-129.276
-36.821
900.462
37.7126
100.761
830.005
39.1001
20.5124
782.19
116.162
20.928
789.102
115.155
-20.3587
786.289
150.679
-2.86536
777.329
158.707
0.46631
740.447
168.887
23.0816
696.534
159.972
16.6646
665.187
141.022
6.644
659.362
109.271
-4.03844
672.696
90.8349
-8.08038
695.655
60.1307
-10.7193
709.914
24.5319
-8.01189
2.22963
-5.71012
-268.938
360.524
-586.815
-32.8591
178.865
-456.243
439.508
-537.604
-248.307
608.06
-397.702
-2.28032
679.006
-216.773
22.5544
693.931
-58.0031
-86.1985
649.751
56.3229
25.5703
652.655
73.5523
-37.356
669.39
106.772
-7.34486
699.99
112.495
-27.9409
723.48
127.717
-0.527528
734.947
143.468
3.77216
729.496
152.38
21.9577
718.731
154.159
16.5789
708.881
144.719
6.1534
715.688
115.866
-13.4023
733.082
96.1721
-22.7307
737.219
83.0749
-27.0817
732.806
63.1041
-34.1586
35.3735
-30.6027
2160.05
264.135
1794.65
544.266
1182.67
74.3695
930.201
-145.229
725.326
-11.8987
672.441
-5.11813
638.006
90.7579
663.713
47.8454
689.139
81.3466
726.659
74.9755
757.286
97.0894
793.236
107.517
825.08
120.537
861.616
117.623
897.666
108.668
933.5
80.0317
971.976
57.6961
1016.16
38.893
1060.2
19.0614
16.9883
-334.029
-272.391
73.7822
127.36
-337.14
940.334
745.862
-520.3
67.7986
914.317
-250.597
32.3169
993.835
-183.101
123.46
1046.67
-115.269
64.9234
1035.8
-58.2458
121.398
1038.32
-41.0167
76.3649
1019.2
-17.0785
73.7623
994.123
-9.91424
43.7784
922.399
17.1863
58.9848
835.465
29.6085
73.2631
777.179
8.05233
91.0714
756.767
-27.4188
88.0991
764.049
-52.1104
103.029
781.787
-58.5695
109.692
810.161
-60.7429
101.898
842.267
-55.8256
90.4645
882.103
-50.8685
62.7085
-38.5146
51.3837
-344.261
-1260.39
-2469.67
-300.625
-363.021
-510.412
285.543
-689.467
-855.773
437.66
-275.083
-304.697
558.37
-267.498
-202.465
587.531
-122.221
-183.884
581.929
-54.8114
-81.9933
577.783
-5.80562
-98.9154
585.649
7.86383
-44.7691
607.143
10.9543
-56.5593
633.959
13.8587
-24.7683
659.446
18.0885
-15.7353
672.696
3.46795
-11.0806
676.803
-21.4065
0.307765
679.135
-41.303
17.4593
682.09
-46.8559
10.2831
686.102
-49.7733
-1.41891
691.07
-46.0185
-11.0257
699.612
-44.6557
-17.0042
-35.9841
-13.8053
-67.8257
-2226.86
592.469
399.456
-876.759
-975.306
874.148
-477.577
-1311.45
1075.95
-144.168
-682.534
1022.36
-83.3546
-292.167
988.627
-25.6429
-225.406
927.691
5.22894
-124.428
905.684
16.6743
-113.869
868.874
40.5298
24.7997
828.354
65.5473
102.085
773.357
70.501
127.542
723.583
61.4243
73.9504
692.104
28.9731
56.5871
672.159
-0.435471
54.1701
663.285
-32.7209
38.1241
661.031
-45.7139
26.1035
661.294
-49.8969
16.5019
661.101
-44.7494
10.4803
661.699
-43.4405
8.71447
-37.1617
8.62858
170.158
-1836
-227.552
471.07
-1222.41
42.6936
556.715
-503.725
-203.67
701.73
-253.045
-117.276
725.334
-83.0081
-75.5484
765.129
-30.5946
-111.656
764
4.34621
-14.8649
765.996
26.8731
-22.0425
748.202
58.7795
85.0256
727.094
92.8781
94.9551
697.626
91.1414
92.0244
674.443
76.0231
57.4207
660.558
37.6433
34.3104
649.086
6.80175
25.8653
642.707
-30.0144
17.3339
640.244
-45.4353
15.9578
638.937
-50.738
11.5828
636.734
-44.1821
9.07518
633.504
-40.9494
10.6404
-36.2315
8.40935
288.489
-2185.56
-920.059
320.283
-1169.19
245.15
455.654
-598.105
-219.929
587.467
-358.52
65.8117
641.023
-121.607
60.0756
659.304
-39.5142
52.7243
657.948
0.11939
75.8585
651.139
41.781
31.8812
646.113
59.891
45.4475
653.741
84.7071
22.6371
662.235
74.8827
19.9163
671.55
59.0698
-1.76775
677.908
22.1151
0.84473
675.421
1.70518
19.1736
664.673
-20.5992
44.0615
650.017
-29.6145
46.0623
636.486
-39.8933
25.3616
625.572
-36.9759
12.0743
617.817
-35.6358
9.05413
-34.0986
6.31006
489.501
-810.915
-3686.81
148.182
-595.452
-149.605
282.342
-674.909
-480.755
362.112
-385.439
71.6306
482.999
-227.121
83.7479
510.505
-56.8135
26.4717
558.344
-60.3602
57.0568
567.366
31.9404
1.28446
581.055
37.5101
7.82084
587.694
74.1441
-12.4369
586.507
66.2221
-1.84084
580.345
53.8484
6.80843
578.05
14.8631
23.4987
575.564
-2.41319
33.6308
573.164
-21.9693
27.5931
572.205
-31.0796
13.3211
573.603
-42.9539
6.25198
575.774
-42.103
4.97502
579.374
-41.2876
4.87841
-39.528
5.3909
106.364
121.959
434.27
276.963
-432.426
-676.578
277.092
-590.958
-427.684
363.778
-431.537
-107.802
477.344
-334.685
83.9383
479.737
-57.3855
96.5599
501.996
-13.0349
84.8001
-36.1014
-10.4171
-33.284
497.35
7.0823
35.3114
5.52156
9.77764
6.37046
504.761
13.3417
12.4963
-2.09166
12.5032
-3.55976
511.181
20.5782
-9.46729
13.1619
18.1909
9.99609
521.918
19.9335
-7.2047
6.66715
16.5893
2.60396
534.333
15.6367
0.588719
4.67688
12.0812
1.26453
551.008
6.83237
14.5032
-7.72938
4.12396
-9.22675
569.414
-0.804332
25.5397
-12.1495
-1.0102
-11.6472
585.539
-42.3486
25.4538
591.863
-42.1069
22.7198
591.134
-44.0518
16.9002
586.731
-39.233
8.42265
586.052
-42.7642
4.68214
-44.4827
4.75282
866.43
-821.725
849.251
1154.93
-632.47
-648.979
937.358
-298.039
-790.407
892.886
-349.216
-425.748
786.766
-223.728
-94.1943
197.479
-12.7629
33.0842
190.417
176.621
170.051
-5.44129
-6.79887
1.859
-38.1631
194.914
-6.98391
34.6764
-35.0623
-172.285
164.47
11.2258
38.7341
-13.076
-150.371
142.413
20.4999
13.8757
0.535827
-131.663
133.277
19.1348
-0.706238
2.20873
-132.754
136.033
17.5829
-3.13731
-0.288054
-136.062
141.606
10.2174
0.163957
-6.7778
-145.498
151.824
0.518677
6.76589
-9.68173
-155.689
161.902
-7.89504
10.559
647.178
-10.9136
42.2177
-162.136
-167.921
-150.954
-156.77
-21.1409
-7.49749
-17.2506
648.515
-49.2445
37.0306
632.663
-31.0251
24.0578
616.588
-23.5071
14.215
612.137
-38.4211
-2.52619
-48.748
-0.643522
367.702
-1206.6
-2132.89
566.853
-341.73
-1591.39
753.356
-549.16
-549.511
762.254
-388.453
-221.355
215.151
-218.696
149.796
199.357
185.447
165.787
-34.6648
223.708
-15.0628
28.4086
-8.45876
2.10957
-57.1494
55.1306
-0.420336
8.78836
-1.31775
-44.1874
-5.5561
42.9201
5.57798
2.56321
-2.47026
-37.9886
-8.26223
37.6474
8.40024
2.67341
-0.898544
-35.2511
-6.03854
35.636
5.75812
0.794039
-0.884663
-35.9511
-4.34442
36.7839
3.61706
0.779163
-1.62214
-37.6153
-2.18394
38.4043
1.44094
1.57617
-2.90999
-39.525
1.12863
40.3332
-2.05727
3.03046
-3.78729
-40.9849
3.35908
41.3771
-3.86005
3.89607
-41.0813
-4.60486
165.312
-16.8011
7.29774
-40.8028
-40.1686
-40.0649
660.767
-69.7159
24.4091
-165.335
-167.738
-157.514
-159.785
656.121
-27.8602
12.9535
649.348
-17.6909
2.13486
646.314
-36.2977
-10.0453
-51.3754
-5.39492
801.569
-139.655
-1307.75
898.891
242.075
-1520.25
951.942
-179.385
-615.82
932.547
-219.844
-254.08
225.132
-71.6583
-50.5035
208.209
201.094
185.517
2.56101
18.05
226.968
-15.4302
-7.01684
-6.9827
-3.3074
-58.0298
54.7737
6.90653
6.63964
-4.49582
-7.84641
-43.4396
41.2626
9.18823
5.33102
-3.81007
-6.39671
-40.5041
41.1463
5.2013
4.36335
-1.37105
-3.82199
-42.1803
42.1119
3.65007
1.6114
-1.40006
-1.99588
-41.4794
41.2197
2.17706
1.47855
-1.75581
-0.392461
-40.6839
40.5715
0.434009
1.82668
-1.66686
2.45651
-40.2709
40.2197
-2.24059
1.50217
1.02058
4.97653
-40.5412
40.8573
-5.40408
-0.909058
-41.9158
1.12037
27.1349
172.969
-32.3114
0.937212
-44.1282
-40.9072
-42.8985
679.737
-79.5549
30.6888
-171.204
-177.348
-161.572
-165.919
680.398
-32.9425
15.2527
679.856
-21.225
9.32744
673.271
-34.6649
8.57982
-45.6784
2.8226
605.25
-1512.54
-1509.58
1311.12
-302.551
-419.174
1238.5
-135.68
816.263
1149.19
-89.0654
335.285
253.382
148.116
206.134
234.237
226.742
204.015
0.489204
9.13497
238.608
22.8103
-17.6606
3.05836
-4.91296
-59.5959
59.138
7.07599
-4.76356
-4.91527
-11.6552
-62.016
62.7389
11.243
4.60457
-7.02284
-8.40943
-57.516
53.0836
11.004
8.86067
-1.26144
-4.80184
-44.9188
43.6815
5.50948
1.79108
-0.486741
-2.83961
-41.632
41.4253
2.92239
0.61065
-0.271743
-0.380847
-41.7765
42.2164
0.250626
-0.0378766
1.7306
2.69529
-44.0366
44.7233
-3.10317
-2.00942
0.845148
6.83601
-46.1371
46.3677
-6.95332
-0.958456
-45.3082
-7.22529
33.9519
176.24
-33.0771
8.52372
-45.6128
-43.6286
-43.864
630.132
-63.8711
23.6839
-169.259
-164.796
-157.013
-152.591
627.149
-33.3315
13.5881
625.084
-24.6734
16.6525
613.956
-29.8285
25.6811
-34.6192
12.3994
705.776
-246.606
-1550.24
794.935
-520.067
-267.464
675.892
132.704
758.704
539.325
141.937
200.358
142.871
218.637
181.259
114.17
122.214
98.9924
-5.6406
-28.8301
157.219
24.0581
-3.9354
-2.10345
-9.42843
-49.2618
50.3004
8.61906
1.8742
-6.71509
-9.86949
-50.5544
50.1857
9.17405
7.77928
-3.99311
-12.5
-50.3076
50.3573
11.1676
5.27586
-1.06012
-8.16358
-47.9184
46.7858
8.802
1.55429
1.78958
-4.45469
-44.6622
44.4497
4.92664
-2.04908
4.11061
0.0217265
-44.8663
45.1719
-0.0245392
-4.41333
3.02946
3.77968
-45.9201
46.0169
-3.67319
-3.23276
1.11053
6.64875
-45.6141
45.2544
-6.26208
-1.13754
-42.6251
-7.47465
31.9801
163.611
-29.7676
9.0646
-43.1229
-40.6526
-41.0124
556.855
-43.1854
43.5937
-151.35
-152.085
-138.751
-138.974
550.892
-29.2909
29.843
545.325
-24.5078
19.6275
538.398
-27.0598
15.9871
-28.6834
3.97216
2257.85
-275.353
-2533.41
1560.32
-63.1744
99.7666
944.733
529.119
600.942
784.698
260.283
218.252
747.129
220.35
203.211
195.832
-64.296
52.6151
4.95081
23.5923
7.06744
27.2432
185.443
184.071
173.07
-1.20811
-16.5493
189.103
16.0507
18.8853
-4.87055
-1.08275
-4.49706
-5.88463
-16.934
-174.81
178.875
16.9409
20.0212
-6.49346
-5.5085
-6.20639
-8.99965
-16.5508
-188.216
196.236
26.3533
18.2384
-9.41727
-8.61887
-9.02427
-8.22671
-8.88588
-197.369
204.255
23.5531
9.56046
-7.89767
-7.65809
-7.33097
-4.25872
4.11379
-209.175
212.087
11.9495
-3.81914
-3.80319
-3.71153
-3.38318
0.263605
9.15842
-206.984
204.559
1.45441
-9.03022
-0.00263711
0.470542
0.111535
3.32773
2.72766
-197.824
194.732
-7.2752
-4.04104
2.58015
3.29237
2.48038
5.32116
-2.41292
-185.48
182.747
-14.9651
1.12745
4.50648
5.05873
4.0976
593.515
-15.7145
54.5178
23.658
11.7489
19.1761
7.36894
-170.571
-174.942
-150.443
-154.283
555.518
-9.18641
56.5724
528.518
-5.32953
26.6669
512.446
-11.2626
12.4551
503.319
-19.8019
7.01745
-25.1418
3.55535
-425.742
-967.434
1349.95
-188.146
79.9142
-461.473
213.402
252.974
-12.8232
382.518
87.3943
-92.4879
598.282
-8.75322
5.72133
670.261
-134.794
-82.1258
775.487
4.98306
49.9708
-23.6577
-42.2599
-24.3467
-42.9128
833.522
-43.0805
19.4444
-7.66177
-0.755336
-7.38584
-0.998218
856.136
68.9212
63.3823
-22.7577
-29.3949
-23.4503
-29.6495
853.284
58.5309
30.0433
-17.3646
-12.4972
-16.759
-11.9443
819.189
90.8257
17.273
-15.5457
-16.6075
-14.9159
-16.2018
785.88
55.7994
-17.0569
-6.64969
-6.08893
-5.71901
-5.54858
747.873
30.4261
-1.42006
0.575559
-2.03099
1.09114
-2.52377
711.036
-0.497066
27.3733
10.4981
4.86662
9.83921
3.24664
660.196
25.9586
62.342
605.026
35.4003
75.5862
559.23
33.6632
51.9857
528.443
14.6486
26.7667
509.302
-2.53739
14.3591
-17.3581
6.9539
907.271
-1085.84
-2689.63
1142.12
142.281
-937.924
1070.8
326.274
-222.08
1023.04
117.078
-115.514
898.737
41.0851
107.793
895.575
-128.533
-6.92141
881.585
0.648749
74.0572
865.272
-22.3102
-4.9905
832.505
95.2265
19.8387
808.741
83.7806
-8.77119
777.162
115.669
6.42076
748.602
82.1726
-0.895975
704.203
65.3404
18.8977
654.577
43.8826
20.6009
609.463
63.9062
42.2594
568.698
69.336
50.1409
532.06
65.9071
35.86
502.619
41.3316
15.0774
486.419
11.2767
6.61641
-11.5429
3.48951
506.378
-438.324
-233.953
420.146
-121.658
263.799
817.67
146.847
16.2027
887.833
16.3331
225.93
817.132
50.4407
365.216
793.154
-87.7495
83.9711
736.601
38.7031
95.7155
726.531
-5.41782
-38.0041
702.385
108.959
-11.0118
691.883
91.5531
-33.7486
666.128
129.744
-0.491719
638.858
104.092
2.72361
597.184
101.064
39.3395
558.148
80.6614
25.9182
533.655
83.5761
19.4447
523.994
76.2721
13.2642
517.747
70.7916
3.76285
510.41
46.6385
-0.37747
504.848
14.7911
3.69122
-8.40987
2.34918
353.313
191.216
-279.584
503.429
288.798
-1607.95
783.903
71.0002
-361.344
764.548
72.1992
102.698
696.371
116.549
258.007
643.371
-8.18917
71.0926
599.166
83.9382
97.0743
577.411
31.7085
-32.0853
566.849
114.117
-10.7494
563.57
99.7315
-46.0739
555.542
128.527
-6.24572
542.633
114.82
-4.71055
528.174
114.882
30.421
514.717
99.0307
19.8123
508.883
90.4279
12.1895
512.55
74.4101
1.42829
520.275
64.8946
-6.37085
524.738
42.3245
-5.65067
525.484
14.4329
-1.30209
-5.70059
-0.791063
824.401
505.604
-2555.66
714.493
407.583
-156.444
738.406
83.6122
-589.632
713.936
66.0609
-73.9263
690.784
129.947
-39.1388
666.036
25.3608
-45.6237
613.393
121.317
116.027
594.97
62.3346
8.30905
576.947
122.716
30.3515
579.446
101.368
-24.4941
576.854
124.345
3.90858
574.921
117.013
0.206851
569.903
120.879
22.1025
566.312
109.038
10.2486
565.62
96.4372
1.32632
574.376
72.7761
-11.1605
590.209
56.4871
-15.5058
602.806
35.219
-16.2105
608.428
11.7456
-10.9473
-3.36373
-7.17742
-604.55
1630.97
1002.89
-361.676
383.523
-675.057
-33.3523
-154.535
-338.484
194.379
-168.425
4.47519
423.865
-65.9556
-11.0296
433.639
-7.14479
-63.467
478.678
68.4261
33.4223
491.133
61.2522
-48.7287
523.639
88.5451
-5.6801
548.272
87.3866
-38.5927
576.989
96.7685
-1.66753
599.525
106.179
-7.93012
617.921
112.454
11.9872
634.556
110.363
-1.3806
651.808
99.0308
-13.6924
672.73
76.9293
-38.4772
694.2
63.872
-51.586
702.615
59.2346
-59.5126
703.6
38.983
-62.381
14.4535
-47.7189
1606.66
1977.72
1030.87
1503.58
867.045
83.6585
650.592
-97.2008
552.211
20.5259
540.51
-0.56153
562.728
136.966
595.745
76.0804
630.085
135.552
668.952
123.495
705.777
157.032
753.947
165.526
802.631
184.307
859.485
171.131
916.28
150.904
965.557
107.684
1016.31
70.8197
1069
45.4356
1107.53
19.5105
20.7633
-62.2937
323.537
128.84
629.834
-115.09
363.296
760.47
-271.264
208.427
865.83
-124.145
51.1024
891.394
-114.06
211.955
925.888
-65.5513
95.9808
911.377
-21.22
157.128
903.672
-9.37825
93.4486
862.942
13.3788
101.113
812.798
19.8414
74.0817
746.771
28.9665
96.0451
699.256
21.2051
99.5733
685.076
2.84043
102.411
690.637
-18.748
101.286
714.556
-27.9993
107.109
749.879
-28.4454
102.814
794.323
-28.6715
86.1254
835.313
-21.8453
71.3202
873.877
-19.3947
43.5394
-12.5487
36.8857
58.8295
677.741
-2441.2
-20.682
-173.059
-372.932
286.597
-774.381
-659.934
351.962
-340.998
-153.21
408.352
-291.451
-81.464
406.65
-123.911
-123.823
404.414
-50.6517
-50.3258
406.365
-1.13963
-109.104
429.867
8.33519
-63.2275
455.81
7.5152
-70.1761
485.635
5.30144
-30.9286
510.635
4.98146
-24.512
527.671
-4.92096
-20.3557
541.906
-18.2735
-14.4011
558.803
-23.6121
-3.82493
574.339
-23.4778
-10.2203
586.976
-25.5694
-17.1579
596.987
-21.7295
-21.1528
607.725
-22.5391
-24.5978
-17.4731
-16.7846
2029.31
-273.318
-852.62
1926.29
-630.204
-415.143
1302.08
-529.777
-931.843
1070.65
-239.273
-552.836
804.13
-124.059
-193.037
682.175
-67.2507
-160.112
587.871
-13.1592
-67.6159
544.356
6.60325
-78.0967
524.832
28.7752
23.8839
527.715
44.2206
62.496
532.261
44.4674
83.831
526.299
36.9292
47.9642
521.458
16.1589
40.3483
523.568
-0.310171
34.0964
529.127
-13.9003
22.8541
536.782
-19.719
14.6897
543.183
-23.8604
8.39188
547.344
-20.7093
5.29805
552.039
-22.5112
3.99238
-19.1548
7.02076
544.346
-1047.07
1336.11
768.811
-1098.48
286.509
542.684
-488.965
-18.3549
571.392
-280.201
-105.056
494.461
-116.706
-5.96989
480.877
-76.5999
-88.7232
465.033
-21.6486
9.46854
460.463
10.9843
-21.8529
468.902
37.7906
67.5706
482.314
64.1432
61.6207
491.52
61.1864
66.0998
495.89
49.7009
40.2788
499.016
21.7569
25.5859
502.545
3.06271
18.9638
508.071
-15.3181
13.226
513.448
-19.6598
10.5213
517.798
-24.1714
7.54348
520.368
-20.7344
6.53043
523.129
-21.9802
7.34824
-19.8222
7.50585
27.3766
-1717.84
-2301.7
390.427
-1050.07
-166.311
409.436
-499.724
-228.179
462.795
-306.136
38.3877
458.477
-102.79
50.4777
448.917
-42.7831
28.467
451.322
-13.5236
65.3283
447.574
28.206
18.4081
453.487
39.0965
38.2282
464.462
60.6053
15.1996
476.783
49.1271
19.6551
485.737
35.7943
3.18472
491.675
9.56016
7.10296
496.725
-0.323827
17.5101
505.292
-11.14
31.3172
512.21
-11.1993
30.6834
513.665
-17.008
16.7433
511.886
-15.8784
8.99766
510.863
-19.5225
7.61984
-19.9696
6.76041
614.951
-767.888
-2627.78
200.515
-540.538
-244.706
175.635
-523.947
-431.651
200.17
-288.412
29.3713
303.615
-168.212
45.7243
317.647
-36.7173
6.37399
383.831
-70.0365
47.3861
394.289
20.6479
-1.61559
414.202
13.2248
13.7794
421.272
46.9259
-5.82771
426.374
35.533
6.65141
430.512
26.5556
11.9092
441.751
-0.094624
21.9147
452.888
-3.88055
26.0502
460.925
-11.7479
20.1644
466.835
-14.5983
10.8099
472.862
-21.9864
5.20326
478.507
-22.2777
5.72907
485.3
-26.4625
5.02605
-25.8219
6.77709
409.08
-345.942
-26.7938
231.717
-377.424
-662.329
179.739
-532.12
-367.533
235.223
-362.309
-89.3883
332.872
-251.35
69.4274
330.865
-8.00675
69.8558
360.263
-6.41788
64.9921
-32.1596
-7.48324
-33.5656
356.082
10.6757
27.3504
6.30456
10.3838
5.42574
366.759
9.34681
14.7352
-6.87316
7.5436
-9.70823
372.171
13.872
-1.69393
5.25498
11.6512
2.96283
386.657
11.2104
1.37216
-2.7149
9.19022
-5.21628
402.067
7.51061
5.03548
-2.89848
6.09118
-4.0044
423.224
1.56053
11.792
-11.0193
1.38826
-10.4693
445.044
-0.688058
20.1674
-11.0957
0.260336
-8.80482
464.083
-24.8368
19.504
475.972
-21.1511
17.3833
483.177
-23.9373
11.6463
486.217
-24.1751
7.27927
491.572
-32.2873
5.15234
-31.9791
6.96603
1623.67
-989.345
533.626
1560.46
-631.935
-331.255
941.609
-264.626
-439.048
701.082
-273.738
-273.792
535.202
-138.604
-41.06
128.397
8.52695
35.3906
122.228
112.361
105.48
16.4732
11.5475
19.8743
-40.3882
126.813
3.46244
32.0921
-37.5484
-107.847
109.935
13.0031
33.1328
-13.4102
-105.254
103.102
14.2964
10.6126
0.10134
-95.7403
99.286
10.4693
-0.244316
2.37913
-99.7141
103.867
7.3934
-2.71539
-1.27617
-104.602
111.084
1.11161
1.19328
-7.015
-115.184
121.536
-3.5259
5.74899
-10.8127
-124.56
130.008
-5.18031
9.85703
515.49
-2.36502
32.75
-129.267
-135.733
-117.779
-123.04
-11.8837
-0.427699
-10.3637
521.279
-19.3361
29.4261
517.628
-14.0899
17.8613
513.639
-16.1743
10.2033
515.189
-36.6791
0.316012
-38.3421
3.88636
1351.62
-1898.02
-1404.01
853.667
-500.263
-1225.11
586.574
-377.893
-169.15
458.722
-215.994
-151.248
129.684
-104.415
133.291
109.63
111.377
90.3465
-30.6026
138.197
9.21031
21.4068
-10.5529
-1.59314
-37.7764
36.6559
4.00427
9.2623
-4.32556
-30.361
-5.50852
30.1007
5.70342
4.391
-2.86285
-28.3452
-5.64036
28.7576
5.45683
2.63397
-0.758904
-27.9907
-3.23476
28.61
2.79374
0.580608
-0.833723
-29.2322
-1.62384
30.0481
0.953735
0.687892
-1.5714
-30.7498
0.208028
31.6117
-0.869333
1.37075
-3.1108
-32.6797
1.52965
33.594
-2.24357
2.91047
-3.52852
-34.3348
1.70177
35.0549
-2.23948
3.34612
-34.986
-7.65716
140.96
-5.48332
7.96435
-35.3287
-33.7161
-34.1179
545.37
-21.7233
21.7734
-139.121
-142.509
-127.968
-130.748
543.466
-10.7883
11.5552
540.209
-14.2559
3.47409
539.145
-41.982
-3.67893
-43.2054
0.362372
2073.13
-171.974
-249.55
1163.82
211.09
-1322.29
820.82
5.1266
-655.841
683.222
-95.0874
-237.389
151.629
13.3768
-20.1248
137.712
129.878
115.832
0.047251
-5.24467
146.804
10.5884
-0.565805
-8.73916
-7.65853
-38.1828
36.5294
10.1409
7.91013
-6.09919
-7.47666
-33.3359
32.8073
8.14924
5.95526
-4.81935
-3.99518
-33.5725
34.0956
3.65038
4.64104
-2.02403
-1.49662
-34.8646