/*--------------------------------*- C++ -*----------------------------------*\
  =========                 |
  \\      /  F ield         | OpenFOAM: The Open Source CFD Toolbox
   \\    /   O peration     | Website:  https://openfoam.org
    \\  /    A nd           | Version:  10
     \\/     M anipulation  |
\*---------------------------------------------------------------------------*/
FoamFile
{
    format      ascii;
    class       surfaceScalarField;
    location    "3.6";
    object      phi_0;
}
// * * * * * * * * * * * * * * * * * * * * * * * * * * * * * * * * * * * * * //

dimensions      [0 3 -1 0 0 0 0];

internalField   nonuniform List<scalar> 
38556
(
1572.27
-2020.87
1051.73
1079.23
-592.561
1085.59
1149.35
-212.841
142.72
1217.04
-1.71007
-65.9766
1229.85
-27.9929
15.188
1274.5
-46.5074
1.85045
1258.87
-38.0864
53.7232
1264.36
-44.6399
39.1468
1258.21
-32.2172
38.3679
1250.33
-0.502062
8.37686
1185.44
60.5634
4.33074
1071.14
98.2081
16.0911
961.679
68.7672
40.6935
902.533
18.6392
40.5071
886.051
-42.0765
58.5588
888.38
-71.3413
69.0117
900.194
-81.4005
69.5868
917.243
-83.6844
66.6352
948.347
-82.6384
51.535
-68.3923
42.5116
169.44
-621.747
-1349.78
175.388
-56.2118
-542.297
657.147
-241.615
-452.986
767.556
55.871
-167.99
925.563
-18.6723
-167.327
1009.41
32.675
-163.034
1024.95
29.7041
-83.3247
1014.92
31.6194
-66.2289
973.645
21.4105
-12.3547
959.601
27.131
-13.5896
966.004
55.5424
-1.38131
979.594
87.0633
-2.44602
982.482
68.7371
-2.857
957.446
33.0105
10.6647
911.078
-26.4846
30.7758
876.427
-61.4214
24.7309
858.888
-77.3739
13.5125
850.995
-79.3087
3.51723
849.077
-78.2106
-2.51037
-66.2449
-4.48994
584.032
-366.966
-1197.6
1332.57
248.003
-1052.75
1558.96
140.13
-608.139
1730.94
208.693
-324.802
1664.99
189.066
-141.79
1678.43
176.121
-156.886
1675.3
157.657
-124.816
1689.68
130.341
-113.104
1573.58
111.987
25.5213
1358.95
123.488
118.271
1153.53
132.126
128.84
1041.79
131.023
67.78
968.706
90.4006
51.4186
913.373
32.6593
55.684
882.576
-33.5502
37.8633
864.652
-68.3611
24.8634
854.916
-84.2307
16.5933
847.203
-82.9411
11.3447
837.87
-79.2058
10.3289
-68.9563
7.8196
226.115
257.013
284.523
661.633
-249.918
62.4037
928.134
20.8962
-147.268
1153.1
65.3632
-81.6365
1250.33
142.035
-50.1984
1355.78
142.455
-71.7871
1392.55
132.742
-11.8576
1397.76
132.534
-7.40069
1276.31
145.482
87.9578
1128.2
169.128
102.465
1020.05
157.461
82.8177
966.763
135.231
49.0802
937.633
90.1012
29.4291
907.374
41.309
21.6089
878.678
-19.0738
14.2201
857.065
-60.7726
14.0245
844.587
-81.4764
9.72428
833.866
-79.6478
7.42748
817.29
-72.4895
9.85945
-64.6125
6.34826
542.87
-189.78
19.8355
323.705
-439.741
408.987
823.142
-304.114
-174.427
987.943
-183.904
84.4664
1038.54
22.3766
69.0606
1056.33
68.6827
55.9802
1029.95
91.6752
67.4472
1008.43
113.713
40.3457
986.605
124.541
42.7633
985.781
147.009
22.9435
993.405
137.407
12.43
1016.06
121.882
-9.30642
1037.45
76.792
-8.08347
1024.9
41.412
12.4543
957.373
5.552
42.8975
884.605
-36.4705
48.4655
842.033
-61.8072
22.9028
817.527
-63.4557
8.31394
796.934
-58.3798
6.4838
-56.059
3.58522
259.311
-1685.56
-2610.82
-57.4735
-235.742
112.786
687.787
-646.407
-402.967
720.109
-353.73
137.503
836.345
-202.193
108.334
860.584
8.63478
35.8097
884.881
23.9336
43.4437
892.703
104.866
1.02569
897.762
119.868
-0.386252
900.022
160.353
-15.6035
895.549
153.083
-11.2036
874.936
146.297
-3.80277
833.71
103.339
14.6795
791.214
56.2715
27.636
762.865
10.0558
23.8456
747.6
-32.4508
11.2457
740.784
-60.2715
5.27982
736.957
-61.6852
2.05636
733.371
-57.3826
2.58938
-56.3191
1.7752
-153.397
-712.278
1292.28
349.651
-532.277
-206.513
638.632
-566.865
-368.522
744.247
-395.919
-63.4255
787.206
-337.596
92.4434
752.675
-52.807
95.9733
750.278
-5.29175
73.0648
-15.797
-6.24098
-19.4049
746.015
16.6018
26.5399
21.454
17.9039
26.6291
761.223
27.0289
3.30023
22.2511
29.4863
22.5937
772.662
40.1029
-14.3347
43.5331
39.0987
40.5142
783.117
44.652
-16.2965
39.8029
40.1488
34.3214
787.2
41.8808
-6.02491
38.3004
36.1087
31.9492
781.244
31.888
13.0693
23.0741
25.2988
15.9642
779.278
15.6354
22.9005
5.75384
10.4919
3.45619
787.759
-20.7348
22.3095
784.106
-47.2305
18.4326
766.077
-57.9317
15.6898
745.065
-47.5715
6.89812
732.888
-47.278
2.0718
-53.5151
0.0602942
496.505
-1177.6
2015.48
1019.03
-563.921
-490.882
1229.69
-60.8753
-716.653
1413.18
-194.413
-384.991
1348.36
-191.093
-81.688
320.931
-3.30027
16.2724
323.465
317.219
312.895
12.8025
-12.9227
8.19522
299.111
-1.23835
17.7662
-271.239
248.024
22.6096
17.2068
-226.303
206.336
41.3133
5.68201
-194.661
190.628
45.4417
-1.30602
-191.664
190.082
49.0062
-2.77168
-190.983
190.881
44.1588
-2.17576
-193.793
193.934
30.1572
1.58931
-199.129
203.044
7.71451
4.00647
831.787
-18.8157
38.9463
-206.771
-209.845
-197.542
-200.107
-26.1789
-13.0103
-19.1988
832.472
-78.8142
30.8985
801.352
-48.9586
22.1475
762.838
-23.3562
14.2984
747.318
-28.4029
-3.35497
-47.1404
-5.44314
454.506
-1475.71
-4169.81
849.562
111.39
-1070.37
1379.83
-31.7114
-559.428
1535.95
-115.553
-234.981
320.707
-157.049
167.087
295.876
366.833
351.399
288.65
6.4428
22.3138
-1.18372
-68.0471
62.8338
4.70876
1.68827
-54.8681
-10.0429
54.3685
11.5103
-0.967737
-52.8903
-15.2321
51.357
17.0059
-0.240411
-47.6426
-13.3019
46.7617
14.3967
-0.213952
-46.9006
-12.1642
46.745
12.3333
-0.0134302
-47.5224
-10.5276
47.2739
10.5423
0.233754
-48.4446
-5.3881
48.6896
4.48005
0.663037
-49.2187
2.38701
48.4043
-3.14273
1.57017
-46.7543
187.878
-22.8512
2.31742
-45.9711
-47.2467
-46.1877
798.143
-118.977
13.2581
-192.856
-197.263
-190.389
-190.729
795.15
-57.3147
11.3491
783.514
-12.0442
0.323855
782.234
-15.4507
-11.6723
-40.7268
-9.56807
926.95
-123.373
-1277.97
1373.44
452.148
-787.251
1385.72
84.7669
-128.753
1395.66
-36.8188
-88.6776
298.705
41.0582
-16.7988
293.298
318.229
304.12
-11.4573
291.561
23.5583
-4.95778
-9.06181
-66.3727
60.2462
13.4123
1.77609
-11.2749
-49.8134
47.6525
13.4826
-0.0468919
-15.179
-47.8099
49.3994
12.6035
0.986021
-13.6094
-53.6314
54.1331
12.7626
0.345099
-8.87457
-53.9146
53.3341
8.87482
0.580255
-7.6417
-50.7716
50.4632
7.39814
0.551945
-2.62714
-48.9377
47.8473
2.61244
1.10505
3.10455
-46.4612
47.0755
-2.84904
-0.869817
-50.2571
29.4468
213.304
-35.6313
-1.91886
-53.5512
-49.2377
-52.1551
817.646
-129.577
24.6158
-209.893
-217.681
-198.603
-205.485
809.762
-59.7159
10.2846
810.888
-18.1407
4.97106
811.577
-19.0201
2.8797
-39.9146
-0.0177845
2584.63
-1696.37
-1147.06
3161.04
8.84286
-133.101
2330.75
120.374
794.681
1823.03
90.9189
379.975
334.738
320.375
180.433
315.126
361.359
352.061
-24.2334
306.551
49.5284
2.89223
-13.18
-77.0469
77.3666
14.8227
-1.9624
-23.9268
-79.287
74.6807
23.8509
4.68222
-15.1702
-58.7043
56.2499
18.8854
-1.26081
-13.5842
-51.5134
50.8192
14.3821
-0.103722
-10.7292
-49.5148
49.4671
10.8224
-0.0453895
-6.81459
-48.6852
48.1737
6.85376
0.4723
-2.57918
-49.4686
51.016
1.67548
-0.643782
5.07623
-56.7324
57.9852
-6.16191
-0.167173
-57.9042
39.2047
224.071
-40.0137
4.82141
-58.3265
-55.7907
-56.0624
759.266
-101.113
26.3568
-211.356
-209.888
-197.899
-194.944
734.682
-45.5325
10.4001
732.722
-26.795
10.6144
723.938
-28.5032
18.2673
-42.2271
11.5804
2844.61
114.966
-1404.13
2840.93
383.313
-370.783
1533.12
519.339
908.842
977.473
378.565
268.001
185.142
411.178
175.725
151.726
200.808
173.269
-69.9307
192.551
56.3044
6.2177
-18.7978
-54.8423
55.1461
17.0257
1.46828
-18.278
-52.1262
50.7857
18.0646
1.55387
-21.4836
-52.1167
53.5916
20.279
-0.27028
-17.5928
-54.7167
54.1635
18.8628
-0.716866
-14.4328
-49.9355
48.9155
16.0943
-0.641555
-6.87167
-50.8358
52.5767
6.86591
-1.73508
-0.0709038
-57.6753
58.8046
0.21754
-1.27591
6.27618
-60.4175
60.3014
-5.67657
-0.483511
-57.4037
40.0278
216.497
-36.1758
5.17917
-58.1515
-54.6488
-55.3238
684.002
-65.3561
40.9258
-196.367
-198.274
-181.644
-184.401
645.846
-34.9585
27.5814
634.432
-28.4224
13.0413
629.662
-34.2752
10.543
-42.3619
2.57745
2190.93
385.013
1025.39
2147.36
506.814
-79.9377
1403.64
890.522
372.538
1075
544.136
163.07
901.851
424.721
159.606
222.077
82.0171
42.9576
-29.5698
-10.6735
-41.7367
-18.4932
216.103
221.478
217.692
-8.81407
215.353
42.741
8.79786
-12.4019
-10.0368
-13.562
-14.5412
-203.014
207.347
42.8531
10.0797
-14.1935
-14.5293
-14.0014
-18.8361
-215.93
223.301
53.7172
11.8935
-18.613
-17.9724
-17.5604
-19.2949
-225.674
236.476
54.2661
6.65944
-17.9846
-17.8521
-16.5959
-14.9106
-253.275
272.26
35.9765
-3.5242
-12.7139
-12.9374
-10.8757
-5.55869
-281.539
288.407
19.6307
-7.8848
-4.21939
-4.93011
-3.90612
-0.933935
-287.208
282.611
9.41023
-1.71545
-0.663946
-0.9263
-0.572806
3.81108
-269.958
257.879
-7.42546
3.33043
4.62822
3.57448
4.16075
793.747
-32.8555
45.0115
27.7992
23.2362
23.0307
17.7716
-234.229
-234.176
-212.155
-217.18
694.444
-19.0765
53.0233
639.614
-2.75779
22.6299
614.814
-12.698
9.07482
603.26
-26.5345
3.81345
-39.2159
0.899354
324.406
-264.878
-2214.73
388.895
583.449
-141.123
395.496
786.478
97.4431
565.926
468.03
-94.3237
763.384
239.986
-12.7233
891.648
32.0729
-78.3196
1016.62
75.7561
25.1636
-47.3453
-62.8688
-50.5603
-65.1215
1102.05
-8.153
18.6031
-26.7282
-18.6432
-30.4631
-20.0368
1137.55
75.0414
51.0959
-37.0101
-42.9392
-38.921
-42.7709
1148.73
79.1138
28.1453
-34.3295
-25.1856
-33.6866
-25.234
1123.24
134.751
10.6726
-31.3215
-28.9357
-31.0915
-28.5851
1103.59
128.188
-18.6999
-25.5203
-20.9475
-24.1322
-19.2394
1078.46
95.2127
-11.7977
-17.4693
-13.9413
-14.6539
-12.2268
1030.12
18.1841
18.4176
1.69827
4.2326
3.18728
2.62544
924.529
20.5789
52.1548
803.853
38.082
63.5173
713.3
43.5016
44.2934
657.278
22.8771
20.4471
623.996
-4.40655
11.1545
-28.4547
3.76198
376.603
76.4176
-3138.98
912.568
673.192
-625.708
1129.35
772.806
-203.106
1237.02
486.925
-126.573
1155.43
287.481
34.1029
1171.68
22.1209
-6.30099
1136.7
55.3341
55.4029
1130.7
0.478811
-2.63089
1100.41
93.7021
11.6317
1085.09
102.113
-7.68401
1065.84
154.686
-0.684762
1056.48
140.254
-2.70185
1023.07
119.087
9.53501
958.499
67.2891
15.462
865.568
79.1457
34.3644
768.758
92.4031
42.489
688.013
93.3363
30.9106
630.387
69.2471
11.2558
596.965
26.8205
2.19495
-13.6948
-0.251773
-428.697
838.712
667.964
505.459
-220.454
-40.5098
902.074
110.697
265.494
1122.37
71.6942
194.939
995.779
107.397
306.672
962.298
-51.7803
107.382
882.244
61.5193
73.8688
891.839
20.3488
-29.4651
886.962
121.65
-23.0712
901.689
124.173
-36.788
897.208
171.399
-12.2326
879.386
160.081
-2.00462
812.139
153.232
33.1025
738.085
118.151
23.1929
685.969
117.507
13.7537
657.186
111.275
9.91131
640.76
107.607
2.15487
627.864
85.1829
-3.03947
616.144
38.6134
-0.0734382
-4.32386
-0.931996
-422.795
220.899
3289.58
422.429
-78.9604
-986.717
826.603
-212.471
-81.0058
900.024
-153.012
151.285
808.027
-66.2276
265.621
768.515
-114.007
101.738
698.308
36.4756
95.2501
698.935
34.7736
-15.0516
707.771
130.24
-17.4252
736.634
136.457
-41.1475
749.996
174.067
-16.0286
741.93
174.672
-6.52568
690.719
174.926
29.5179
635.774
148.783
24.3124
611.621
129.436
12.2245
610.355
109.831
2.71038
618.707
104.004
-4.74848
632.078
77.8886
-6.07668
638.571
34.2808
-2.16046
-0.412861
-2.49377
5.39906
-1052.79
-1856.78
119.435
9.65413
-202.651
718.929
-278.317
-533.647
878.314
-199.26
-113.137
946.406
-85.1258
-49.194
958.476
-91.636
-34.4403
821.97
73.0166
99.9642
765.314
69.6548
21.7747
733.384
142.983
19.1872
751.766
138.408
-20.3334
759.083
170.269
-3.51968
757.656
175.321
0.778808
727.434
182.511
22.637
688.917
171.016
16.283
662.623
149.802
5.92817
660.8
116.246
-4.59322
676.784
96.2518
-8.23095
701.833
64.1004
-11.2611
718.223
27.307
-9.41617
3.46451
-7.66037
-490.217
931.583
-984.311
-271.485
237.145
-446.222
273.108
-553.477
-269.434
479.399
-389.706
-15.8448
562.161
-193.337
25.449
593.956
-40.2526
-83.1783
568.616
74.7922
23.5644
585.456
88.9759
-36.1616
617.164
120.451
-9.17582
659.239
124.252
-27.9188
692.906
137.643
-1.04046
712.57
152.003
3.65404
714.279
159.405
21.3965
709.297
159.808
16.1901
704.386
149.158
5.55542
715.092
119.317
-13.7772
735.172
98.9712
-22.7991
741.464
85.3742
-27.5665
739.116
64.8201
-35.1648
36.2988
-31.9677
1687.61
-395.377
1575.32
349.437
1010.41
11.4325
783.913
-163.211
603.972
-13.3962
568.886
-5.16608
554.714
88.9635
595.087
48.6035
635.127
80.4099
684.266
75.1127
725.129
96.7804
769.495
107.636
808.466
120.435
850.871
117.402
891.685
108.345
931.228
79.7734
972.714
57.4859
1019.55
38.537
1065.76
18.6121
16.4784
-304.479
-348.473
-73.7392
260.805
-409.743
930.053
902.005
-575.298
76.818
1083.31
-267.362
20.077
1154.46
-178.43
122.468
1197.76
-107.653
66.2056
1173.69
-46.9491
124.745
1164.62
-29.9714
78.1845
1135.3
-6.12835
73.8147
1100.07
0.464672
43.1467
1019.53
25.0434
59.8264
924.913
36.7749
73.9318
860.796
13.4879
91.3228
835.499
-22.6647
88.4688
838.565
-47.8921
103.385
852.792
-55.026
109.811
878.464
-57.9344
101.849
908.786
-53.8504
90.1645
947.466
-49.5806
62.4349
-37.9535
51.2951
-57.4523
-1100.03
-1918.47
-29.9032
-414.528
-565.062
493.905
-720.297
-831.795
623.182
-269.688
-294.941
724.499
-244.58
-202.494
739.145
-99.3173
-186.016
718.565
-25.4162
-84.2777
702.114
18.8276
-98.5769
700.066
27.001
-43.4358
712.875
29.0293
-54.9633
731.09
30.0947
-24.6468
749.058
32.5164
-16.1558
756.002
14.1747
-10.4881
754.692
-11.6273
0.937289
752.76
-32.6994
17.5153
752.111
-39.6458
9.99924
753.222
-44.2243
-1.30846
756.399
-42.0614
-11.448
763.918
-42.1552
-17.4555
-35.0883
-14.1221
-26.8834
-3025.6
-230.096
627.562
-1027.01
-1094.71
1101.16
-481.19
-1320.84
1277.57
-94.5408
-676.366
1194.89
-14.2169
-289.469
1139.34
23.2207
-223.871
1065.12
46.1879
-122.204
1029.79
52.2555
-111.2
981.674
71.6441
28.993
930.707
94.1363
104.132
866.696
95.5589
127.386
809.623
82.9144
74.4547
772.21
46.5841
56.4226
747.603
14.0685
54.5949
734.819
-21.2102
39.1577
729.203
-35.6208
26.4553
726.798
-41.7865
16.56
724.821
-38.9388
10.1991
724.395
-39.8149
8.41434
-35.6516
7.66722
830.666
-1738.35
131.123
805.366
-1199.19
259.882
803.344
-434.103
-192.334
903.846
-165.058
-111.62
900.898
7.31619
-68.7835
917.161
39.7132
-104.543
899.282
63.5916
-11.3821
887.545
73.9853
-17.3941
858.079
101.549
87.5181
826.476
131.526
96.679
788.16
124.476
92.2169
757.725
104.426
58.0046
738.109
60.9307
34.6983
722.073
25.4568
26.2567
711.332
-13.8528
17.6036
705.83
-33.1293
17.0358
701.945
-40.7153
12.5376
698.205
-37.0087
9.23781
694.099
-36.499
10.649
-34.261
7.47728
994.89
-1470.7
-543.794
716.637
-897.636
385.686
709.839
-428.045
-173.687
784.973
-226.972
71.2466
809.165
-11.2742
63.4591
804.066
52.2545
48.5374
784.992
74.6839
75.4288
764.525
102.867
31.9319
748.977
112.94
46.9199
747.413
131.779
24.255
748.05
115.442
20.8256
750.714
93.6492
-1.19307
751.859
50.2323
1.46998
744.857
24.6474
20.2654
729.439
0.353684
44.1093
712.001
-13.5474
46.3213
696.428
-28.9959
26.7574
684.115
-29.0499
12.668
675.743
-30.5658
8.92201
-31.7463
5.40065
675.938
-513.601
-4611.8
330.624
-374.083
-65.4541
458.379
-509.909
-448.858
530.708
-246.208
84.4106
634.146
-99.8222
93.4438
645.836
50.3914
25.9831
675.562
32.4565
55.9442
674.75
100.854
3.85046
678.231
99.4145
9.65854
675.761
129.002
-10.357
666.95
113.434
-0.384797
654.466
93.4347
8.89617
646.863
47.4411
25.0735
639.809
25.0926
34.245
633.973
2.56824
27.467
630.403
-11.9297
13.1982
630.014
-30.5207
7.19329
631.081
-33.1241
5.06334
634.229
-35.4981
4.37395
-36.8386
4.54086
253.675
395.058
723.697
451.077
-240.104
-537.894
437.723
-418.282
-446.796
511.057
-281.632
-101.336
612.423
-200.196
91.4514
599.187
66.9272
92.673
608.192
9.53338
83.075
-5.26058
11.7746
-2.60622
591.538
23.1467
35.6761
29.4359
25.5651
30.2248
590.348
26.9496
14.2996
19.0494
26.0671
17.5394
589.564
32.3427
-7.11967
31.8569
29.8293
28.5419
594.267
29.8257
-4.97891
22.7113
26.3369
18.5395
602.195
23.5129
2.6706
18.3451
20.0012
14.9517
613.44
13.3342
17.6227
4.42194
11.0127
2.87349
627.861
4.36192
27.2185
-1.48461
4.10621
-0.629575
641.58
-15.3974
26.556
646.141
-21.8332
23.7754
643.412
-29.6875
17.5857
638.038
-29.1791
8.3274
637.158
-36.4023
3.85605
-41.6288
3.51775
1119.37
-612.512
1114.71
1337.56
-441.292
-507.885
1081.63
-99.6403
-779.362
1021.51
-185.189
-421.317
899.362
-67.3515
-92.3818
223.158
18.4682
34.6774
217.728
202.085
197.202
29.4221
22.9206
36.8999
-36.918
216.885
18.3598
34.3651
-35.2375
-197.887
185.05
32.6519
38.5693
-12.7296
-173.26
160.392
39.0713
13.4755
0.406425
-152.148
149.824
34.8826
-0.621863
1.49442
-151.772
151.52
30.8255
-2.24239
-0.972867
-153.814
156.17
21.1391
0.99079
-7.67575
-162.091
165.263
10.4189
7.41901
-9.7464
-171.097
174.214
0.238261
10.7536
698.439
-5.02385
44.7671
-176.105
-180.495
-164.949
-169.306
-12.9383
-2.07024
-8.76949
697.571
-27.5382
37.4716
680.008
-13.4915
23.514
663.127
-11.4454
13.4459
659.099
-31.9166
-3.81211
-45.6184
-2.41437
524.775
-1311.6
-2008.45
683.7
-231.636
-1438.95
870.062
-346.88
-498.549
861.383
-210.173
-201.319
234.709
-52.536
162.695
222.084
205.325
188.841
-34.3978
240.363
17.3907
29.8222
-8.04518
-4.66048
-61.7655
59.2249
6.71883
8.52736
-1.06324
-49.377
-10.7354
46.9669
11.9209
2.28797
-2.30717
-42.6202
-12.5391
41.3555
13.6182
2.49281
-0.835062
-39.5165
-9.53128
39.0868
10.0736
0.722522
-0.944246
-39.9615
-7.18776
40.0635
7.18878
0.84119
-1.71732
-41.4145
-4.49318
41.549
4.42267
1.65329
-2.794
-43.053
-1.09793
43.2334
0.77729
2.93422
-3.88663
-44.2684
1.39697
44.2275
-1.49331
4.02381
-44.3258
-4.59137
176.067
-10.0788
8.16205
-43.8234
-43.3856
-43.0477
704.444
-47.7949
24.5804
-177.373
-178.299
-169.491
-170.346
698.609
-8.86031
12.5533
691.201
-4.58857
0.874895
688.954
-29.9589
-11.3834
-48.3005
-7.04392
1027
-48.4546
-464.388
905.486
399.959
-1297.33
1002.75
-35.3069
-537.589
989.143
-66.7492
-218.495
236.218
82.1574
-36.4078
224.245
212.064
201.531
1.83807
-15.2931
240.136
18.46
-8.92318
-6.48644
-11.5239
-60.8513
58.1313
14.5728
6.15761
-4.44834
-14.5529
-46.9804
44.7815
15.9186
5.28158
-3.84911
-11.9929
-43.9473
44.5217
10.8764
4.39108
-1.35673
-8.46207
-45.3398
45.1953
8.37752
1.58582
-1.33122
-5.87484
-44.4191
44.1151
6.11423
1.39583
-1.66291
-3.62737
-43.4983
43.3578
3.70892
1.72192
-1.64068
-0.575531
-43.0184
42.9291
0.835194
1.47029
1.06203
2.70699
-43.2498
43.5711
-3.16518
-0.92511
-44.6316
0.949848
19.8643
183.15
-24.8849
1.11412
-46.5952
-43.6087
-45.3577
716.922
-57.5278
31.3297
-181.16
-186.297
-171.52
-174.925
717.309
-14.8608
15.8983
717.22
-8.29643
8.76751
711.265
-28.0472
6.92287
-42.67
0.584153
1039.28
-1097.25
-712.75
1501.95
-18.3356
-177.48
1341.86
100.534
818.937
1202.27
117.857
334.96
257.466
331.665
183.325
245.264
231.598
215.538
2.28459
-27.6654
245.855
58.4766
-21.4844
3.49537
-13.3193
-60.9623
61.3637
14.619
-5.19649
-5.15388
-18.6025
-64.5503
65.2341
18.2574
4.81522
-6.82281
-14.2614
-59.6799
55.2143
16.8929
8.65691
-1.19543
-9.63878
-47.1004
45.8679
10.3523
1.71443
-0.535627
-6.91053
-43.777
43.5614
6.93473
0.72699
-0.211612
-3.71696
-43.9599
44.412
3.59616
-0.119688
1.773
-0.370936
-46.2196
46.8808
-0.0219018
-2.04138
0.809794
4.60825
-48.3694
48.5832
-4.71575
-0.916063
-47.5758
-7.71325
26.2474
184.578
-25.389
9.15376
-47.5873
-45.8828
-45.8312
661.596
-42.3997
24.6437
-177.671
-172.004
-165.442
-159.893
658.935
-15.9306
14.1307
657.753
-12.6081
16.1083
647.496
-23.1254
23.6017
-31.6692
10.1046
703.563
-140.451
-1780.95
771.417
-230.581
-226.392
655.695
386.916
738.182
531.071
345.869
164.614
139.341
394.117
161.564
119.371
119.44
104.627
-4.16966
-69.8925
159.461
59.9627
-6.02016
-2.14747
-17.8246
-49.3844
51.251
16.3366
1.76884
-6.70339
-16.8988
-51.7491
51.3981
16.1393
7.81385
-3.9613
-18.3937
-51.6669
51.7189
17.056
5.24704
-1.03839
-13.0699
-49.2911
48.1637
13.7191
1.51659
1.86494
-8.47291
-46.1172
45.9161
8.94147
-2.13246
4.12721
-3.26883
-46.4179
46.7293
3.26681
-4.43657
3.02276
0.766672
-47.5636
47.6578
-0.656562
-3.22711
1.02721
4.41415
-47.2884
46.9298
-4.02956
-1.0532
-44.4345
-8.19716
24.3726
170.085
-22.1871
9.9682
-44.6154
-42.4671
-42.5241
583.447
-21.2202
43.6561
-157.981
-158.401
-145.425
-145.55
578.028
-12.0487
29.118
573.365
-13.0271
18.1232
567.576
-20.523
13.7304
-25.9202
1.29072
2206.85
396.842
-3578.16
1468.46
297.392
130.478
888.924
759.557
579.435
741.187
461.958
194.718
723.494
380.839
190.577
188.694
76.5037
52.9403
-34.3795
-12.0434
-32.0793
-7.345
184.71
177.061
172.389
-9.88325
-17.869
186.74
43.2781
20.4952
-12.4031
-9.66882
-11.9945
-13.0128
-18.0127
-173.963
178.895
42.5553
21.174
-12.6927
-12.569
-12.3737
-15.0576
-17.4338
-189.042
197.452
48.2625
19.1994
-14.5936
-14.6208
-14.1663
-13.337
-9.45584
-199.295
206.41
41.9166
10.1457
-12.1259
-12.7226
-11.5357
-8.53171
3.62548
-211.79
214.736
27.2099
-3.40793
-7.16926
-7.94236
-6.73058
-3.2469
9.16247
-209.874
207.551
14.3375
-9.02088
-2.98271
-3.04346
-2.88315
-0.0382018
2.50388
-201.487
199.051
3.71615
-3.96067
0.179705
-0.0546395
0.0899032
2.76424
-2.38415
-189.951
187.594
-6.48962
1.11679
2.67785
2.4947
2.17742
612.281
11.5937
55.5532
15.1674
6.46206
10.5606
2.21128
-175.4
-179.203
-155.473
-158.742
576.192
12.2429
55.6491
550.543
10.4587
25.7715
535.681
-0.0400069
10.9495
528.15
-13.637
4.45842
-22.5648
0.391497
-590.263
-521.935
758.076
-217.943
347.018
-563.07
154.013
491.206
-6.16187
337.34
275.43
-91.1233
558.169
142.798
4.48881
639.848
-6.16911
-77.3259
752.582
106.116
49.9192
-52.7251
-68.5208
-53.2205
-69.1396
818.029
47.6434
17.6178
-33.1008
-22.9486
-32.8311
-23.2245
846.842
143.466
64.0355
-44.4094
-47.7911
-45.0095
-48.0078
848.71
121.496
30.9089
-36.1318
-27.5655
-35.4535
-26.9767
818.923
143.093
16.7269
-31.3486
-28.9191
-30.6312
-28.4622
789.468
98.9001
-17.3883
-20.1904
-15.9392
-19.2295
-15.3977
755.436
65.473
-0.959495
-10.9284
-10.2744
-10.3954
-10.6815
721.332
28.536
28.3795
1.04825
-1.32098
-1.07881
-3.04179
672.782
50.1605
62.1384
619.998
54.2304
74.3135
576.075
47.769
50.9058
546.971
24.3747
25.1367
529.736
3.31502
11.437
-15.1398
3.39403
675.375
-743.628
-2646.75
970.324
392.322
-965.961
928.691
526.816
-197.082
913.126
265.689
-101.266
816.09
166.828
107.11
834.506
-27.4431
-3.44391
835.438
88.9988
71.5887
830.268
52.8136
-2.63148
808.039
159.67
17.6557
792.159
138.483
-8.79063
767.828
160.986
5.75338
744.455
119.837
-0.265515
704.921
96.1101
18.431
659.07
69.371
20.4778
617.62
84.7045
41.2711
579.763
85.6191
48.9567
545.31
77.9808
35.1525
517.598
49.603
13.7393
503.436
16.2703
3.40079
-9.64884
0.172114
34.6547
-596.087
28.1324
109.129
-6.65269
283.991
634.034
245.831
21.574
761.761
110.805
222.096
718.283
149.144
367.833
717.692
-5.0702
85.5998
678.397
111.988
90.1747
682.541
56.603
-37.3983
669.782
162.479
-13.1217
668.41
137.052
-33.985
650.544
167.15
-0.529688
629.368
135.498
3.51046
593.333
126.697
38.5504
558.886
101.711
25.2994
538.616
100.527
18.2015
532.18
89.6694
12.2964
528.022
80.7988
3.49474
522.262
53.5697
-1.2455
518.705
19.1634
0.590183
-6.7748
-0.875694
157.16
205.695
770.757
366.047
298.002
-1500.26
625.423
144.427
-238.978
628.335
139.189
119.989
585.677
189.388
268.036
552.592
53.6799
76.0727
528.851
137.872
93.1067
523.077
78.6105
-31.2852
525.658
154.786
-12.3137
533.274
134.157
-45.8682
534.536
157.161
-7.30125
528.944
138.857
-4.29374
520.802
134.436
29.9212
512.377
115.126
19.3231
510.912
103.468
10.7479
517.924
84.7377
0.630104
527.888
72.7003
-6.61337
534.073
47.9353
-6.62754
536.587
18.1155
-3.62621
-4.15208
-4.22265
545.36
518.825
-2698.47
508.689
387.966
-255.943
563.731
130.455
-574.718
571.011
101.926
-83.1529
575.43
169.391
-33.6156
571.934
63.7999
-41.0651
539.185
155.783
114.804
534.613
92.4687
12.4882
530.88
149.181
28.5249
544.581
124.343
-24.2205
551.789
143.549
2.88399
557.37
133.392
0.664105
559.093
134.291
21.0595
560.758
119.95
9.79355
564.528
105.205
0.420649
576.853
79.8019
-11.9825
595.078
61.9137
-15.6693
609.509
39.3401
-17.0973
617.143
14.6895
-13.6237
-2.03327
-10.5351
-834.412
2044.37
593.814
-590.101
422.281
-724.848
-189.173
-146.944
-392.963
78.1811
-161.004
-20.2684
311.027
-45.5065
7.50026
341.638
12.4984
-62.488
401.264
86.2644
33.4574
427.797
76.2779
-46.5043
473.834
102.15
-8.18064
509.628
98.9901
-38.3599
548.365
106.745
-2.97369
578.825
114.616
-8.03032
604.164
119.41
10.9387
626.405
115.883
-1.98373
648.283
103.478
-14.5953
672.806
80.4876
-38.9856
696.847
66.7457
-51.6727
707.299
61.579
-60.2573
710.27
40.7801
-64.2266
15.4829
-50.3268
1158.76
399.989
823.781
1106.7
712.28
-24.0112
509.674
-121.61
435.249
15.5225
440.92
1.66126
481.258
134.89
528.533
77.6066
576.98
134.113
627.295
123.788
674.237
156.583
730.752
165.737
786.479
184.117
849.075
170.689
910.537
150.361
963.437
107.361
1017.11
70.5583
1072.24
44.991
1112.86
18.7667
19.7191
170.607
300.257
1136.17
737.425
-124.192
487.426
918.137
-309.03
205.135
1034.45
-137.64
41.4038
1051.43
-110.485
215.977
1076.62
-59.1644
100.173
1048.42
-2.62106
155.57
1029.2
4.5893
92.811
978.132
22.8544
102.032
918.176
28.2541
74.8492
843.963
36.9318
97.1071
789.357
28.0683
100.47
769.102
8.62733
102.95
769.601
-13.894
101.864
789.302
-23.7231
107.407
821.211
-24.921
102.823
862.894
-25.8557
86.0218
901.943
-19.865
70.9802
939.341
-18.1795
43.2158
-12.0206
36.9589
285.719
699.412
-2560.76
137.614
-222.264
-318.885
477.946
-821.03
-660.126
535.016
-338.334
-151.317
573.311
-268.114
-83.1604
556.957
-100.289
-128.538
540.06
-20.3871
-49.6138
529.983
23.9835
-107.894
543.726
27.7842
-62.109
560.723
25.0445
-68.7504
582.29
20.713
-29.9945
600.128
18.1312
-24.0571
610.992
7.83962
-20.5644
619.893
-7.59086
-14.2666
632.582
-15.5313
-3.36536
644.553
-16.8649
-10.0282
654.428
-20.1988
-16.8404
662.482
-17.9122
-21.4551
672.264
-20.0936
-25.3234
-16.4753
-17.2336
2382.04
-596.6
-333.107
2209.98
-729.512
-415.403
1535.43
-535.863
-931.458
1268.75
-196.371
-551.648
975.309
-73.3978
-190.741
830.8
-17.1206
-162.53
723.623
29.9658
-65.3794
666.757
43.3317
-73.6827
636.722
59.3307
27.4815
630.004
71.8187
64.0758
625.884
68.7148
83.5041
612.419
57.8584
48.1929
601.761
33.6748
41.2448
599.313
14.3793
35.0733
600.686
-0.748639
23.0016
605.051
-9.77309
14.9986
608.914
-16.7006
9.19946
611.253
-15.4875
5.43492
615.213
-19.0835
3.44477
-17.7055
6.01186
1026.06
-1246.38
2003.9
1097.95
-1084.03
542.505
793.115
-415.145
-8.21252
775.533
-193.743
-96.6653
668.001
-32.195
-2.45539
630.83
-0.467696
-84.0247
598.336
40.2548
10.8231
580.69
59.8182
-16.2344
578.293
79.5213
69.7247
581.543
101.742
63.5052
582.107
93.8231
66.5449
579.272
77.5496
41.1478
576.708
44.6737
26.2643
575.704
21.9289
19.711
577.067
1.69174
13.8006
579.175
-5.62823
10.7826
581.073
-14.5845
8.52346
582.052
-14.1546
6.92559
584.154
-17.9129
7.37665
-17.9983
6.46019
757.419
-1197.47
-1661.68
774.717
-804.556
88.9123
666.131
-318.06
-162.187
660.843
-166.752
49.5426
624.689
9.42894
57.9895
592.83
49.8283
30.0999
577.515
62.2739
68.7246
560.598
89.6943
18.9727
555.84
91.5979
39.6018
557.73
106.825
17.2818
562.253
88.9757
21.1491
564.76
69.6044
4.2455
565.47
37.244
8.1898
566.175
22.9656
18.5242
570.59
10.1178
31.2679
574.734
5.98464
30.5643
573.875
-3.99394
17.0268
570.589
-7.13478
8.93364
569.182
-14.9698
7.38562
-17.7599
5.58828
830.72
-210.352
-1582.85
340.697
-300.281
-79.7063
346.095
-357.521
-414.795
362.36
-138.865
40.2582
449.725
-40.0826
55.5898
451.972
68.3599
5.20444
499.873
22.4179
47.899
501.053
88.9188
3.44613
510.664
74.4211
17.2242
509.145
100.383
-2.39545
506.64
81.5527
9.54288
504.797
65.5642
14.7791
510.662
32.9984
23.4542
517.425
23.9344
26.5141
522.081
12.6843
20.2447
525.475
4.66279
11.126
529.557
-6.86697
5.98396
534.062
-12.617
6.04065
540.574
-21.1111
4.00317
-23.3087
5.62778
529.749
-52.3107
-866.651
421.835
-158.863
-571.399
335.311
-352.365
-365.427
382.14
-208.93
-78.0987
464.377
-111.884
81.0154
450.221
106.33
68.8587
465.745
15.2551
65.7077
-1.75284
14.1313
-3.37195
450.516
26.6515
27.571
30.152
26.3122
29.1368
451.817
22.9186
16.3107
14.783
21.1553
12.2528
450.611
25.3288
1.31639
23.5273
23.1117
21.1852
459.386
20.8033
3.69078
13.3281
18.8196
11.1568
469.952
15.6348
6.61239
10.9844
14.388
10.0496
485.48
8.7295
13.1779
2.19549
8.53427
2.45599
503.79
4.67203
20.849
-0.0479301
5.72602
1.64378
520.544
1.90275
20.5832
530.486
0.410891
18.0851
535.905
-7.01971
12.3196
537.872
-13.2304
6.97473
543.202
-26.2392
3.65412
-29.2471
5.39803
1771.95
-861.252
981.53
1734.23
-438.075
-190.959
1080.6
-69.4509
-408.642
823.415
-102.523
-270.54
647.224
12.772
-40.8469
153.372
35.1467
35.0441
148.87
137.283
132.094
52.3175
38.2297
55.8744
-40.8334
148.424
28.4237
32.612
-37.2037
-133.517
130.211
34.1551
33.0062
-12.9843
-127.851
120.97
32.6984
10.0852
-0.029785
-116.366
115.826
25.9271
-0.0282626
1.34189
-118.669
119.364
20.5625
-1.79531
-2.21835
-122.316
125.647
12.59
1.93248
-7.38526
-131.536
134.78
6.8937
5.97735
-10.9877
-140.016
142.387
3.29411
9.99429
566.915
2.7881
34.7321
-143.282
-148.339
-131.788
-135.632
-3.53198
4.66715
0.139941
570.71
4.77802
29.3098
565.73
3.68549
17.7893
560.709
-3.60105
8.83671
562.624
-30.3234
-1.64304
-35.4259
1.64378
1566.72
-1745.8
-379.072
967.961
-329.642
-948.619
692.283
-205.377
-86.9451
551.818
-41.9916
-121.385
149.57
60.0992
140.332
132.456
131.519
113.309
-32.9526
154.34
40.9728
22.3557
-10.1424
-7.66683
-42.3394
40.5572
10.816
8.77548
-4.13355
-35.1897
-10.5646
33.9447
11.7438
4.19937
-2.75545
-32.7689
-9.85318
32.3435
10.4953
2.53875
-0.738014
-32.135
-6.68314
31.9819
7.01291
0.561396
-0.923859
-33.1279
-4.54196
33.2648
4.5588
0.770153
-1.58569
-34.4298
-2.46206
34.7087
2.37022
1.39862
-3.03761
-36.1898
-0.703018
36.4373
0.62922
2.86391
-3.50723
-37.6438
-0.0791913
37.8075
0.159904
3.26277
-38.271
-8.38971
151.495
1.86734
8.55196
-38.3533
-36.9843
-37.1283
589.561
3.61877
22.1175
-151.226
-153.224
-140.087
-141.401
586.585
7.82114
11.3934
582.626
-1.1902
2.423
582.163
-35.3946
-5.84919
-40.0779
-2.21529
2087.17
-13.375
432.598
1148.75
379.81
-1068.36
861.138
141.578
-596.935
736.215
71.5174
-207.081
162.343
173.971
-2.2595
153.294
140.89
131.668
1.51801
-42.1206
159.863
44.8275
-1.74423
-8.32521
-15.4478
-40.9856
39.8107
17.4083
7.53961
-6.04887
-13.8336
-36.744
36.1774
14.5433
5.90578
-4.8121
-9.33817
-36.832
37.2912
9.0685
4.62258
-2.0044
-6.00707
-37.8969
37.8046
6.1831
1.92065
-37.3603
-1.28045
-3.95503
37.2067
4.18012
1.20897
-36.9594
-1.36144