/*--------------------------------*- C++ -*----------------------------------*\
  =========                 |
  \\      /  F ield         | OpenFOAM: The Open Source CFD Toolbox
   \\    /   O peration     | Website:  https://openfoam.org
    \\  /    A nd           | Version:  10
     \\/     M anipulation  |
\*---------------------------------------------------------------------------*/
FoamFile
{
    format      ascii;
    class       volScalarField;
    location    "3.6";
    object      turbidity_0;
}
// * * * * * * * * * * * * * * * * * * * * * * * * * * * * * * * * * * * * * //

dimensions      [0 0 0 0 0 0 0];

internalField   nonuniform List<scalar> 
12920
(
-0.032928
-0.0395655
-0.0508045
-0.0638444
-0.0817013
-0.100097
-0.118316
-0.136739
-0.155453
-0.176111
-0.204082
-0.244846
-0.297305
-0.351523
-0.398266
-0.43837
-0.473958
-0.505288
-0.531914
-0.55358
-0.0157913
-0.0397249
-0.0477462
-0.0576547
-0.0659058
-0.0764148
-0.095854
-0.122603
-0.156154
-0.188684
-0.220486
-0.251215
-0.282544
-0.315803
-0.35486
-0.399414
-0.445145
-0.487766
-0.523291
-0.552089
-0.012584
-0.0218759
-0.0347165
-0.0466162
-0.0556534
-0.0622817
-0.0713402
-0.0850843
-0.106725
-0.139714
-0.185031
-0.234016
-0.280017
-0.3231
-0.363384
-0.401569
-0.439784
-0.479262
-0.519868
-0.560712
-0.0314463
-0.053115
-0.0580218
-0.0645511
-0.0728107
-0.0830079
-0.0991418
-0.120101
-0.146636
-0.180262
-0.21887
-0.256868
-0.291392
-0.322096
-0.350572
-0.381036
-0.416005
-0.454758
-0.495515
-0.53652
-0.028165
-0.0715766
-0.0836056
-0.0967124
-0.10912
-0.124171
-0.141802
-0.160369
-0.178616
-0.196112
-0.211878
-0.225569
-0.24086
-0.260552
-0.289535
-0.330989
-0.378081
-0.424645
-0.468399
-0.508075
-0.0594976
-0.0624357
-0.0745382
-0.0994014
-0.119269
-0.136358
-0.15243
-0.166332
-0.178947
-0.191695
-0.209843
-0.236274
-0.270271
-0.307444
-0.34205
-0.370338
-0.395896
-0.423327
-0.451712
-0.477245
-0.0374081
-0.0507445
-0.0603782
-0.0889556
-0.116787
-0.14416
-0.164138
-0.178504
-0.190312
-0.202619
-0.221935
-0.247999
-0.27297
-0.289551
-0.297233
-0.305661
-0.320835
-0.343497
-0.366663
-0.386123
-0.0185717
-0.0298394
-0.0367774
-0.0515481
-0.0733748
-0.100994
-0.110416
-0.13201
-0.152723
-0.167459
-0.183208
-0.199046
-0.206775
-0.191944
-0.151925
-0.168618
-0.193099
-0.221367
-0.247257
-0.271356
-0.0252925
-0.0265994
-0.0410523
-0.0555265
-0.0740102
-0.0807112
-0.0975824
-0.122571
-0.1381
-0.145331
-0.150444
-0.153658
-0.140833
-0.108656
-0.10482
-0.13866
-0.166755
-0.193706
-0.218975
-0.246901
-0.0164687
-0.0313342
-0.0460979
-0.056602
-0.06921
-0.0707301
-0.0825932
-0.108026
-0.122152
-0.123845
-0.118243
-0.109915
-0.096469
-0.0912001
-0.101327
-0.140604
-0.173089
-0.205578
-0.239318
-0.274762
-0.00710907
-0.015372
-0.0276758
-0.0483911
-0.072359
-0.0768769
-0.0793519
-0.0829703
-0.100073
-0.106925
-0.100656
-0.0942995
-0.0956148
-0.101188
-0.114519
-0.161004
-0.200267
-0.242423
-0.288679
-0.337451
-0.0113574
-0.0214117
-0.0380708
-0.0718694
-0.0998503
-0.0982146
-0.0963975
-0.0964967
-0.102058
-0.105869
-0.105556
-0.107251
-0.109656
-0.112459
-0.134805
-0.209521
-0.271277
-0.338363
-0.405312
-0.464259
-0.0135278
-0.0244764
-0.0443976
-0.0814769
-0.112516
-0.133476
-0.12794
-0.120219
-0.115583
-0.113977
-0.113575
-0.114297
-0.119424
-0.134287
-0.213017
-0.284399
-0.367297
-0.453121
-0.533497
-0.601015
-0.0274069
-0.035859
-0.0588364
-0.0774001
-0.0960532
-0.105879
-0.120958
-0.133809
-0.14552
-0.15789
-0.170302
-0.184852
-0.208857
-0.242443
-0.286109
-0.346988
-0.425723
-0.511948
-0.593908
-0.665859
-0.0214617
-0.035671
-0.0542658
-0.0700623
-0.0869971
-0.103346
-0.11853
-0.132987
-0.149133
-0.166137
-0.184497
-0.204509
-0.228245
-0.257807
-0.296594
-0.35
-0.418758
-0.496197
-0.574058
-0.646326
-0.0324837
-0.0424766
-0.0536553
-0.0674714
-0.0858283
-0.109826
-0.12969
-0.142909
-0.157257
-0.174967
-0.199277
-0.228577
-0.264206
-0.308632
-0.35654
-0.406322
-0.457638
-0.50962
-0.564511
-0.618565
-0.0156427
-0.0416093
-0.0597666
-0.0763282
-0.0952815
-0.118993
-0.140806
-0.154672
-0.169081
-0.184978
-0.210056
-0.242753
-0.284247
-0.334923
-0.386494
-0.431975
-0.469935
-0.506446
-0.544753
-0.582954
-0.0338543
-0.0411482
-0.052239
-0.0613672
-0.0773757
-0.0992492
-0.128314
-0.157174
-0.178419
-0.194967
-0.218075
-0.24858
-0.287939
-0.33516
-0.382646
-0.421513
-0.45248
-0.479336
-0.506276
-0.534421
-0.02418
-0.0523535
-0.0552178
-0.0740746
-0.0935743
-0.114202
-0.146826
-0.17088
-0.193404
-0.212338
-0.238243
-0.268097
-0.30343
-0.341433
-0.374049
-0.392604
-0.402166
-0.40731
-0.41413
-0.434742
-0.0303967
-0.0435654
-0.0504999
-0.0721894
-0.111321
-0.147352
-0.175862
-0.200225
-0.220698
-0.240337
-0.261286
-0.284878
-0.310984
-0.337529
-0.361205
-0.380206
-0.395457
-0.408528
-0.421263
-0.435314
-0.010352
-0.00994655
-0.00434877
-0.00441344
-0.00750273
-0.0139551
-0.0241184
-0.0313199
-0.0355815
-0.0383415
-0.0501552
-0.0766643
-0.114281
-0.152109
-0.185461
-0.20927
-0.222237
-0.226751
-0.221378
-0.210396
-0.00435769
-0.00439341
-0.00499548
-0.00572971
-0.00858946
-0.0143143
-0.0233064
-0.0324501
-0.0413446
-0.0499921
-0.0617243
-0.0769073
-0.0950716
-0.115293
-0.129772
-0.130759
-0.120815
-0.106066
-0.0939065
-0.0857688
-0.0153772
-0.00983379
-0.0076922
-0.00690976
-0.00742449
-0.0105171
-0.0180317
-0.0314659
-0.0528314
-0.0769128
-0.0970345
-0.113542
-0.129738
-0.141045
-0.142721
-0.140879
-0.139119
-0.138429
-0.140282
-0.143713
-0.029468
-0.0263337
-0.0193749
-0.0162331
-0.0155046
-0.0186207
-0.028071
-0.0437966
-0.0661215
-0.0851336
-0.0972072
-0.10398
-0.106875
-0.107985
-0.109162
-0.111439
-0.113793
-0.117593
-0.123278
-0.125997
-0.020592
-0.0251305
-0.0221582
-0.0297032
-0.034723
-0.0379012
-0.0426104
-0.0456951
-0.0508687
-0.0543849
-0.057587
-0.0627307
-0.0721085
-0.0877064
-0.103071
-0.106367
-0.097822
-0.0891414
-0.0862455
-0.0842209
-0.0056344
-0.0139424
-0.0164482
-0.0265707
-0.0327157
-0.0308216
-0.0305139
-0.0283626
-0.029873
-0.0337644
-0.0396459
-0.048088
-0.0597174
-0.0689823
-0.0692494
-0.0629371
-0.0555865
-0.0495672
-0.0461154
-0.0439701
-0.00589952
-0.00725597
-0.00832078
-0.0192732
-0.0350745
-0.037207
-0.0326337
-0.0274128
-0.0269976
-0.0326499
-0.0427619
-0.0567986
-0.0727469
-0.0837842
-0.0850575
-0.0785662
-0.0670513
-0.0527844
-0.0411558
-0.0346037
-0.00587316
-0.00376367
-0.0048618
-0.00926394
-0.0202552
-0.0318571
-0.0437846
-0.0530108
-0.0433682
-0.0374653
-0.0456712
-0.0637384
-0.0866902
-0.0983069
-0.0836726
-0.077962
-0.0685622
-0.056007
-0.0439621
-0.0368596
-0.00113901
-0.00497146
-0.011851
-0.0190863
-0.0402494
-0.05014
-0.0571623
-0.0498294
-0.0518337
-0.0528015
-0.069329
-0.0921802
-0.104829
-0.100841
-0.0882759
-0.0806109
-0.0738351
-0.0635269
-0.0545678
-0.0488782
-0.00115178
-0.00527368
-0.00828489
-0.00879195
-0.0143859
-0.0229512
-0.0447115
-0.0700305
-0.0756262
-0.0674711
-0.0714146
-0.076117
-0.0770427
-0.0774206
-0.0843688
-0.0920019
-0.089738
-0.0832938
-0.0773613
-0.0720866
-0.00200294
-0.00654178
-0.0145443
-0.0171093
-0.0214567
-0.0242204
-0.032652
-0.0541763
-0.0765632
-0.0632528
-0.0547032
-0.0610374
-0.0617495
-0.0680909
-0.0886382
-0.101732
-0.103269
-0.104082
-0.105462
-0.100971
-0.00446438
-0.0137457
-0.0250065
-0.0211001
-0.0337324
-0.0372164
-0.0516314
-0.0752639
-0.0836448
-0.0796846
-0.0710951
-0.0618325
-0.056122
-0.0628381
-0.099613
-0.11326
-0.109458
-0.10407
-0.0993427
-0.0918664
-0.00628496
-0.00904305
-0.0207865
-0.0215693
-0.0343941
-0.0400079
-0.0493951
-0.0613665
-0.0665636
-0.0645449
-0.0568352
-0.0511057
-0.0531019
-0.0709888
-0.112072
-0.126553
-0.122672
-0.113694
-0.107993
-0.103974
-0.0038394
-0.00936007
-0.0133345
-0.0117029
-0.0157595
-0.0165246
-0.0258519
-0.0313679
-0.035708
-0.0343048
-0.0321531
-0.035472
-0.0500681
-0.0794991
-0.115296
-0.141536
-0.147008
-0.138424
-0.128463
-0.121454
-0.00475441
-0.00924115
-0.0141283
-0.0177823
-0.0250519
-0.0225852
-0.0223215
-0.0197239
-0.0215147
-0.0229995
-0.026747
-0.0338302
-0.0464483
-0.0657273
-0.0915722
-0.109928
-0.109973
-0.0966278
-0.086699
-0.0860399
-0.0179366
-0.0130894
-0.0233302
-0.029521
-0.0373063
-0.0303447
-0.0212642
-0.0141381
-0.0148214
-0.0187503
-0.0268287
-0.0383437
-0.0523068
-0.0588608
-0.0631242
-0.0665753
-0.066203
-0.0663925
-0.0693308
-0.0738963
-0.00819289
-0.0137338
-0.0285434
-0.0327886
-0.0402816
-0.0307098
-0.0222241
-0.0136355
-0.0148327
-0.0210138
-0.0331897
-0.0493238
-0.0666726
-0.0702632
-0.0643739
-0.0602085
-0.061356
-0.0671557
-0.0765967
-0.0846994
-0.00542567
-0.00980536
-0.0126835
-0.01542
-0.0238999
-0.0294365
-0.0349043
-0.0261911
-0.0220606
-0.0256932
-0.037629
-0.0530554
-0.0672084
-0.0673101
-0.0595062
-0.0537314
-0.0525205
-0.0545793
-0.058694
-0.0635444
-0.00908394
-0.0133425
-0.00965097
-0.0159725
-0.0267744
-0.0270499
-0.0293265
-0.0240038
-0.0253552
-0.0322694
-0.0451459
-0.0588655
-0.0687264
-0.0652933
-0.054473
-0.0453422
-0.040042
-0.0380286
-0.039125
-0.0433332
-0.0159219
-0.0150437
-0.00880453
-0.0162546
-0.0342698
-0.045653
-0.0589079
-0.0664303
-0.0800074
-0.0946947
-0.112813
-0.130287
-0.145229
-0.154176
-0.157326
-0.154337
-0.14744
-0.138861
-0.131898
-0.130455
-0.00304967
-0.00296666
-0.00247099
-0.00346356
-0.00591421
-0.00965557
-0.0141212
-0.018231
-0.023435
-0.03232
-0.0473309
-0.0676307
-0.089057
-0.107355
-0.121243
-0.129294
-0.130491
-0.126471
-0.116687
-0.104711
-0.00311002
-0.00355069
-0.00434236
-0.00561251
-0.00877685
-0.0139486
-0.0202981
-0.0267032
-0.0333219
-0.0398016
-0.0461539
-0.0502406
-0.0516089
-0.051023
-0.0479608
-0.0415561
-0.0354064
-0.0313933
-0.0295668
-0.0294127
-0.00279576
-0.00492918
-0.0056153
-0.00583448
-0.00736484
-0.0118193
-0.0199408
-0.0306214
-0.0433074
-0.0544498
-0.062335
-0.0664236
-0.067994
-0.0662754
-0.0613246
-0.0560903
-0.0519765
-0.0493625
-0.048838
-0.0499168
-0.00892154
-0.0140814
-0.013723
-0.0125249
-0.0124181
-0.015432
-0.0229177
-0.0327326
-0.0436317
-0.0508576
-0.0537579
-0.0532976
-0.0514429
-0.0498822
-0.0488804
-0.0483504
-0.0480321
-0.048106
-0.0489243
-0.0497835
-0.00990911
-0.0139925
-0.015552
-0.01673
-0.0176647
-0.0194745
-0.0234104
-0.0274704
-0.0318364
-0.0348565
-0.0371265
-0.0394145
-0.0424001
-0.0457828
-0.0470292
-0.0441357
-0.0392833
-0.0358523
-0.0346499
-0.0347718
-0.00427649
-0.0122914
-0.0125294
-0.0138744
-0.0151222
-0.0154116
-0.0173591
-0.0197727
-0.0226361
-0.0252815
-0.0273043
-0.0288076
-0.0294078
-0.0287451
-0.0263372
-0.0237774
-0.0222303
-0.0221203
-0.0233666
-0.0258539
-0.00141193
-0.00395627
-0.00597406
-0.0100338
-0.014275
-0.0152102
-0.0164857
-0.0188309
-0.022345
-0.0261402
-0.0301343
-0.0337357
-0.0361087
-0.0358805
-0.0325371
-0.0278182
-0.0235916
-0.0210981
-0.0210507
-0.0232598
-0.00185626
-0.00168432
-0.002717
-0.00576765
-0.0113899
-0.0161158
-0.0198118
-0.0227066
-0.0240195
-0.0287609
-0.0355256
-0.0439465
-0.0511824
-0.0537368
-0.040807
-0.0337865
-0.0270797
-0.0223607
-0.0208099
-0.0222648
-0.000191219
-0.00208571
-0.00675143
-0.0123812
-0.0262518
-0.0290078
-0.0281508
-0.0240533
-0.0268281
-0.0337731
-0.0443381
-0.0549947
-0.0612105
-0.061695
-0.0535543
-0.0360677
-0.028989
-0.0240911
-0.0226016
-0.0237236
-0.000400885
-0.00145143
-0.00274434
-0.00489058
-0.0108497
-0.0177956
-0.0271664
-0.0305306
-0.0303899
-0.0312522
-0.037255
-0.0452401
-0.051307
-0.0549025
-0.057616
-0.04366
-0.0365814
-0.0316123
-0.029774
-0.0298334
-0.00292606
-0.00378107
-0.00695053
-0.00829471
-0.0147499
-0.0182447
-0.0239252
-0.0359395
-0.0413389
-0.0364819
-0.0370258
-0.0358079
-0.0370674
-0.0457636
-0.0610262
-0.0474986
-0.0430579
-0.0416187
-0.0414698
-0.0398938
-0.00243384
-0.00696398
-0.010295
-0.0107666
-0.0205905
-0.0243935
-0.0341459
-0.0469492
-0.0484355
-0.0447748
-0.0337296
-0.0269134
-0.0318856
-0.0475176
-0.0671242
-0.0504304
-0.0444687
-0.0411107
-0.0389779
-0.0371764
-0.000517625
-0.00608606
-0.0100602
-0.00998787
-0.0174991
-0.0198583
-0.0244225
-0.0297217
-0.031875
-0.0299231
-0.0256962
-0.0270972
-0.037079
-0.0539824
-0.0609856
-0.0571777
-0.0493134
-0.0436655
-0.0409239
-0.0398241
-0.00159323
-0.00389854
-0.00484415
-0.00571731
-0.00856832
-0.00898424
-0.0125076
-0.0135897
-0.0147982
-0.015634
-0.0191627
-0.0265883
-0.0376737
-0.0507206
-0.0614453
-0.0641304
-0.0581334
-0.0506121
-0.0459991
-0.0444095
-0.00109014
-0.0051711
-0.00955802
-0.00981768
-0.010897
-0.00848371
-0.00890431
-0.00912824
-0.0106615
-0.0128619
-0.0169509
-0.0225208
-0.0297847
-0.0376188
-0.0445839
-0.0462038
-0.0422546
-0.0373653
-0.0354938
-0.0368756
-0.00402587
-0.00866685
-0.012757
-0.0143043
-0.0151387
-0.00935449
-0.00752069
-0.00765171
-0.00954027
-0.01248
-0.0167227
-0.0213155
-0.0260469
-0.0291958
-0.0313423
-0.0320132
-0.0315808
-0.0312079
-0.0314048
-0.0321351
-0.0108034
-0.00969638
-0.0123805
-0.0116255
-0.0139029
-0.00874713
-0.00771478
-0.00876544
-0.0116545
-0.0157732
-0.0208131
-0.0253112
-0.0288272
-0.0296394
-0.0298363
-0.030517
-0.031657
-0.0329593
-0.0342185
-0.0349015
-0.00241
-0.00375419
-0.00534036
-0.00714216
-0.0107577
-0.0120858
-0.0129231
-0.0122489
-0.0145625
-0.0183423
-0.022597
-0.0254287
-0.0267591
-0.0256297
-0.0246655
-0.024673
-0.0254704
-0.0267523
-0.0283272
-0.0300451
-0.00266987
-0.0059244
-0.00742696
-0.0101526
-0.0139485
-0.013519
-0.013631
-0.0144005
-0.0168732
-0.0197215
-0.0225598
-0.0238728
-0.0242079
-0.0230972
-0.022397
-0.022351
-0.0230047
-0.0243223
-0.0264119
-0.0288695
-0.00118283
-0.0066445
-0.00664248
-0.00959325
-0.0163362
-0.022155
-0.0302387
-0.0376062
-0.0478588
-0.0584259
-0.0698225
-0.0794785
-0.0869024
-0.0899658
-0.0894275
-0.0855939
-0.0801681
-0.0750744
-0.0710147
-0.0682745
-0.00188522
-0.00244334
-0.00365065
-0.0052787
-0.0072875
-0.00979325
-0.0130647
-0.0180472
-0.0260096
-0.0374018
-0.0506488
-0.0634631
-0.0737069
-0.0806073
-0.0839065
-0.0830964
-0.0782904
-0.0707814
-0.061064
-0.0514437
-0.00319253
-0.00325469
-0.00408427
-0.00637687
-0.0106943
-0.0154839
-0.0199692
-0.0241512
-0.0280162
-0.0304248
-0.0310423
-0.0294566
-0.0268877
-0.0240491
-0.0220835
-0.0212038
-0.0208481
-0.0212362
-0.0220074
-0.0233341
-0.00475065
-0.00576228
-0.00502744
-0.00515056
-0.00779213
-0.013104
-0.0199207
-0.0255452
-0.0306216
-0.0327248
-0.0327562
-0.0307698
-0.0285247
-0.0260799
-0.0238151
-0.0224778
-0.0221876
-0.022711
-0.0238957
-0.0253421
-0.00501072
-0.010219
-0.00971682
-0.00883789
-0.0100528
-0.0138896
-0.0195997
-0.0238241
-0.0271671
-0.0276038
-0.0266432
-0.0248854
-0.0234787
-0.0227526
-0.0225557
-0.0228209
-0.023565
-0.0247447
-0.0263599
-0.0280221
-0.00408003
-0.0127814
-0.0139974
-0.0127282
-0.012894
-0.0146734
-0.017344
-0.0190662
-0.020342
-0.0206201
-0.0208682
-0.0211152
-0.0217354
-0.0222066
-0.0220635
-0.021417
-0.0212411
-0.022148
-0.0240427
-0.0265283
-0.00123225
-0.0082162
-0.0111545
-0.0115142
-0.0117034
-0.0125052
-0.0139511
-0.0150214
-0.0155985
-0.0157234
-0.0156403
-0.0156817
-0.0157214
-0.0159483
-0.0164821
-0.0177297
-0.0197753
-0.0225535
-0.0259772
-0.0299305
-0.00147288
-0.00528035
-0.00667122
-0.00860342
-0.0103706
-0.0117307
-0.0135741
-0.0147179
-0.0153049
-0.0155293
-0.0158189
-0.0162488
-0.0165494
-0.0166972
-0.0169299
-0.0179102
-0.0199101
-0.022957
-0.0268672
-0.0314767
-0.00197258
-0.00182546
-0.00284215
-0.00589337
-0.00966998
-0.0122118
-0.0137965
-0.0161527
-0.0167936
-0.0181077
-0.0196323
-0.0215403
-0.0219712
-0.0204285
-0.0166731
-0.0168147
-0.0181539
-0.0208335
-0.024609
-0.0291873
-0.00122873
-0.00253241
-0.00558895
-0.00974995
-0.0165766
-0.0165787
-0.0157658
-0.0167612
-0.0200279
-0.0238082
-0.0283142
-0.0316817
-0.0319311
-0.0280782
-0.0179243
-0.014663
-0.015988
-0.0185508
-0.0221039
-0.0262893
-0.000797705
-0.00120761
-0.00247888
-0.0049403
-0.00945994
-0.0132634
-0.016986
-0.0192197
-0.0211644
-0.0237871
-0.0276067
-0.0287753
-0.0251325
-0.0213166
-0.0168895
-0.015698
-0.0168344
-0.0190432
-0.0220737
-0.0255153
-0.00367331
-0.00264486
-0.00383512
-0.00684882
-0.0126707
-0.0148728
-0.0180819
-0.0234815
-0.0254964
-0.0245597
-0.0245799
-0.0268193
-0.0288937
-0.0296146
-0.0234458
-0.0188588
-0.0201178
-0.0221544
-0.0243578
-0.0264763
-0.00306128
-0.00417088
-0.00520342
-0.0090612
-0.0150624
-0.0174583
-0.0227898
-0.0278132
-0.0266456
-0.0207402
-0.0179885
-0.0215556
-0.0268507
-0.0302764
-0.0257649
-0.0224118
-0.0226709
-0.0233961
-0.0244574
-0.0259689
-0.000341114
-0.00377452
-0.00479595
-0.0069693
-0.011038
-0.0110332
-0.0133666
-0.0154709
-0.0156774
-0.0154231
-0.0175662
-0.0220594
-0.0270009
-0.0308585
-0.0276703
-0.0262527
-0.0251201
-0.0252342
-0.0261841
-0.0276339
-0.000680628
-0.00161592
-0.0024013
-0.00384175
-0.00550249
-0.00550777
-0.00747371
-0.00862299
-0.0108878
-0.0137648
-0.0175553
-0.0217216
-0.0256964
-0.0289842
-0.030493
-0.0299643
-0.0286423
-0.0284529
-0.0296719
-0.031826
-0.000619761
-0.00315891
-0.00515345
-0.00478357
-0.00538603
-0.00520137
-0.00626391
-0.00763782
-0.00994534
-0.0125914
-0.0156484
-0.0184184
-0.021203
-0.0234037
-0.0250251
-0.0256712
-0.0262236
-0.0277006
-0.0303271
-0.0337692
-0.000955069
-0.00309463
-0.0043014
-0.00530904
-0.00574032
-0.0050821
-0.00609168
-0.00783998
-0.0100776
-0.0124865
-0.0149536
-0.0169703
-0.0188626
-0.020264
-0.021546
-0.02278
-0.024247
-0.026088
-0.0282288
-0.0305197
-0.000463343
-0.00251568
-0.00363493
-0.0048676
-0.00570299
-0.00593678
-0.00732489
-0.0095336
-0.0117393
-0.0139122
-0.0158176
-0.017235
-0.0185383
-0.0195312
-0.020745
-0.0222521
-0.0239942
-0.0259059
-0.0280173
-0.0303444
-0.0019198
-0.00291526
-0.00437107
-0.00627812
-0.00760239
-0.00830293
-0.00934141
-0.0108793
-0.0126677
-0.014054
-0.0151116
-0.0156743
-0.0162926
-0.0170055
-0.0181197
-0.0195916
-0.0212839
-0.0231993
-0.0255132
-0.0284774
-0.00511273
-0.00546189
-0.00763573
-0.00895314
-0.00980117
-0.0108184
-0.0117375
-0.013186
-0.0143247
-0.0153145
-0.0160889
-0.0167896
-0.0175428
-0.0184431
-0.0195481
-0.0209031
-0.022512
-0.024031
-0.0252413
-0.0262641
-0.00197986
-0.0046655
-0.00696144
-0.00936629
-0.0130957
-0.0167432
-0.0225807
-0.0288692
-0.0362999
-0.0434384
-0.0503779
-0.0552684
-0.0583491
-0.0583214
-0.0560073
-0.051797
-0.0463392
-0.0416215
-0.038326
-0.0361873
-0.00190525
-0.00390512
-0.0058467
-0.00804568
-0.0104336
-0.0141031
-0.0191409
-0.0257336
-0.0326078
-0.0382461
-0.0421956
-0.0440724
-0.0439227
-0.0421581
-0.0389916
-0.0344942
-0.0293243
-0.0247762
-0.0212407
-0.0195287
-0.00472341
-0.00354287
-0.00531727
-0.0100181
-0.0148989
-0.018934
-0.0223814
-0.024159
-0.0243941
-0.023133
-0.0216295
-0.0203492
-0.0195009
-0.0190142
-0.0188453
-0.0188797
-0.0189182
-0.0189842
-0.0189507
-0.0187965
-0.00408045
-0.00492482
-0.00418183
-0.00569977
-0.0100876
-0.0138213
-0.0160901
-0.0163652
-0.0166431
-0.0160024
-0.0157797
-0.0156222
-0.0159481
-0.0164044
-0.016925
-0.0173926
-0.0177039
-0.0177809
-0.0176039
-0.017244
-0.0106224
-0.00960815
-0.00794705
-0.00776426
-0.00973739
-0.0115692
-0.0132359
-0.0135315
-0.0142199
-0.0142918
-0.0147703
-0.0153645
-0.016281
-0.0172679
-0.0182355
-0.0190328
-0.0196215
-0.0198954
-0.0199227
-0.0197097
-0.00409616
-0.0128501
-0.0124321
-0.00990209
-0.00974936
-0.0104439
-0.0113562
-0.0118201
-0.0127007
-0.0134442
-0.0145839
-0.0157348
-0.0170556
-0.0183166
-0.0195668
-0.0207427
-0.0218594
-0.0228135
-0.0236428
-0.0243373
-0.00177278
-0.00963434
-0.01174
-0.00998227
-0.00941354
-0.00975625
-0.0105024
-0.0111101
-0.01223
-0.0135077
-0.0151134
-0.0167016
-0.0183385
-0.0198766
-0.021325
-0.0225754
-0.0236395
-0.0245599
-0.0254428
-0.0264197
-0.00384129
-0.00726403
-0.00740515
-0.00821514
-0.00908517
-0.00995356
-0.0107407
-0.011469
-0.0126886
-0.0141092
-0.0157819
-0.0174125
-0.0190006
-0.0204095
-0.0215852
-0.0224261
-0.0228934
-0.0231126
-0.0231792
-0.0234182
-0.000952315
-0.00273125
-0.00470775
-0.00722392
-0.00918153
-0.0101886
-0.0107754
-0.0116582
-0.0119847
-0.012626
-0.0137719
-0.0147667
-0.0162882
-0.0179635
-0.0196099
-0.0201324
-0.0200048
-0.0194209
-0.0185718
-0.0179241
-0.000435428
-0.00193373
-0.00517677
-0.00847228
-0.0104571
-0.010933
-0.0109632
-0.0116741
-0.0119843
-0.0118937
-0.0118878
-0.0118459
-0.0125502
-0.0143263
-0.0177261
-0.0178247
-0.0178448
-0.0170295
-0.0156806
-0.0141858
-0.000135645
-0.000680355
-0.00270475
-0.00637765
-0.0092213
-0.0107825
-0.0120394
-0.0129895
-0.0128442
-0.0125084
-0.0117408
-0.0107125
-0.0110075
-0.0123143
-0.0160052
-0.0176141
-0.018365
-0.0181255
-0.0169944
-0.0152752
-0.00186445
-0.00264862
-0.00448221
-0.00793751
-0.0105986
-0.0115269
-0.0130532
-0.0146778
-0.0142798
-0.0132001
-0.0124907
-0.0120366
-0.0121208
-0.0127323
-0.0157915
-0.0186274
-0.0200316
-0.0207202
-0.0205454
-0.0196596
-0.00692935
-0.0034595
-0.00480895
-0.00800323
-0.00995451
-0.0112916
-0.0129864
-0.0137315
-0.0129149
-0.0127755
-0.0133734
-0.0139291
-0.014377
-0.0150274
-0.017735
-0.0204902
-0.0214972
-0.0220823
-0.022083
-0.0216408
-0.000903944
-0.00212285
-0.00342681
-0.00588124
-0.00752531
-0.00833272
-0.00934163
-0.0107555
-0.0124467
-0.0144734
-0.0164127
-0.0178982
-0.0191982
-0.0204198
-0.0236271
-0.0246534
-0.0255004
-0.0261548
-0.0264179
-0.0264421
-0.00107389
-0.001037
-0.00213378
-0.00369143
-0.00514204
-0.00687451
-0.00945501
-0.0121177
-0.0147445
-0.0173205
-0.0196123
-0.0217513
-0.0236274
-0.0254541
-0.0271002
-0.0288384
-0.030696
-0.0326935
-0.0346286
-0.0364714
-0.000221589
-0.00144203
-0.0028956
-0.00397254
-0.00526514
-0.00738661
-0.00978567
-0.0124492
-0.0150387
-0.0176061
-0.0199543
-0.0222381
-0.0242942
-0.0262472
-0.0280263
-0.0296994
-0.031183
-0.0324002
-0.0333777
-0.0343179
-0.000694359
-0.00152456
-0.00270194
-0.00406192
-0.00552398
-0.00781527
-0.0103278
-0.0131658
-0.0157152
-0.0183526
-0.0206831
-0.0230889
-0.0251763
-0.0271404
-0.0287151
-0.0298559
-0.0303787
-0.0301916
-0.0294027
-0.0282744
-0.000507409
-0.00169388
-0.00280796
-0.00448647
-0.00642236
-0.00888655
-0.0112192
-0.013519
-0.0158594
-0.0181714
-0.0206453
-0.0232663
-0.0259083
-0.0286421
-0.0311983
-0.0335431
-0.0355411
-0.0371174
-0.0381324
-0.0384459
-0.00355038
-0.0033568
-0.00479312
-0.00618324
-0.0076077
-0.00936516
-0.0108975
-0.0122288
-0.0137075
-0.0150155
-0.0169469
-0.0191346
-0.021907
-0.025055
-0.0286103
-0.0324416
-0.0364617
-0.0405001
-0.0443837
-0.0477903
-0.00822474
-0.00614521
-0.007921
-0.0091044
-0.0102468
-0.0123651
-0.013404
-0.015145
-0.0160347
-0.017077
-0.0177964
-0.0180887
-0.0185142
-0.0190608
-0.0199282
-0.0213387
-0.0236267
-0.0268729
-0.0306087
-0.0343643
-0.0014016
-0.00496629
-0.00820327
-0.0110197
-0.0136895
-0.0163912
-0.019963
-0.0228259
-0.0265068
-0.0290734
-0.0314882
-0.0323791
-0.0322756
-0.0303375
-0.0274206
-0.024034
-0.020996
-0.0192182
-0.0187693
-0.0192929
-0.0354025
-0.0336852
-0.03528
-0.0269345
-0.0302394
-0.0285124
-0.0301928
-0.0432736
-0.0362347
-0.0386313
-0.0313558
-0.033935
-0.0306174
-0.0314214
-0.0369272
-0.0430507
-0.0354492
-0.0288406
-0.0285671
-0.0273895
-0.0229476
-0.0362327
-0.0328041
-0.0275755
-0.0286227
-0.0295954
-0.022162
-0.0228187
-0.116502
-0.100276
-0.119444
-0.0921381
-0.113416
-0.0908824
-0.113475
-0.134529
-0.123298
-0.129473
-0.120601
-0.133058
-0.119427
-0.128212
-0.143625
-0.130382
-0.130154
-0.135576
-0.137277
-0.128927
-0.127261
-0.148706
-0.129286
-0.125682
-0.137275
-0.13693
-0.126058
-0.122289
-0.153345
-0.124443
-0.120267
-0.137216
-0.136446
-0.121081
-0.11643
-0.147008
-0.118223
-0.107411
-0.135348
-0.127949
-0.114112
-0.105694
-0.115866
-0.10283
-0.0934319
-0.124122
-0.113111
-0.103348
-0.10016
-0.0976317
-0.0923418
-0.0923265
-0.110399
-0.106612
-0.100156
-0.102293
-0.102901
-0.0724239
-0.0787938
-0.0770302
-0.0997697
-0.0646553
-0.0738212
-0.119689
-0.0822268
-0.0967355
-0.106285
-0.117985
-0.0780789
-0.0903943
-0.124411
-0.101453
-0.109149
-0.119874
-0.120688
-0.0947592
-0.10211
-0.119912
-0.109316
-0.105111
-0.119763
-0.115341
-0.101422
-0.0939409
-0.112408
-0.102939
-0.0963339
-0.113624
-0.107557
-0.0920902
-0.0914515
-0.0998214
-0.0944364
-0.0915149
-0.10515
-0.0988963
-0.0924814
-0.0948247
-0.0912925
-0.0918428
-0.0953746
-0.0977505
-0.0963732
-0.0946491
-0.0953664
-0.0920171
-0.0966667
-0.099642
-0.0963984
-0.0992161
-0.0968198
-0.103195
-0.0806965
-0.0855717
-0.090414
-0.0740533
-0.0776939
-0.0828664
-0.0886665
-0.0957156
-0.0922776
-0.0991127
-0.0802979
-0.0897947
-0.0903902
-0.095952
-0.106968
-0.101284
-0.105192
-0.0937411
-0.101296
-0.0981851
-0.10415
-0.102647
-0.105532
-0.104358
-0.101032
-0.0961919
-0.105337
-0.102837
-0.0953973
-0.10379
-0.103883
-0.0950724
-0.0955784
-0.0995093
-0.0876229
-0.094418
-0.104615
-0.107364
-0.0962247
-0.0952823
-0.0845838
-0.0821756
-0.100004
-0.108176
-0.110173
-0.0947836
-0.0971799
-0.0838511
-0.0950293
-0.104099
-0.111
-0.115337
-0.0993842
-0.10632
-0.100103
-0.114577
-0.0956619
-0.10698
-0.106658
-0.0938016
-0.0939707
-0.104361
-0.105533
-0.100558
-0.106381
-0.105696
-0.094761
-0.0983315
-0.105581
-0.105725
-0.105378
-0.105754
-0.106675
-0.0999928
-0.105192
-0.106079
-0.108066
-0.105676
-0.107003
-0.107438
-0.106515
-0.104435
-0.108765
-0.108905
-0.106554
-0.107507
-0.107525
-0.1009
-0.0891166
-0.107497
-0.100674
-0.109174
-0.107355
-0.107523
-0.086434
-0.0846279
-0.0987909
-0.0969791
-0.111395
-0.108292
-0.114426
-0.0862279
-0.097253
-0.0985292
-0.109947
-0.118651
-0.118613
-0.135652
-0.102562
-0.118724
-0.116549
-0.135884
-0.0506357
-0.0690267
-0.0747157
-0.0444567
-0.0384346
-0.0505137
-0.0418896
-0.051897
-0.0751265
-0.0726664
-0.0369755
-0.0350814
-0.0394021
-0.0355194
-0.0512041
-0.0706132
-0.066929
-0.0351826
-0.0379887
-0.0351313
-0.0362812
-0.0636603
-0.0680261
-0.0779883
-0.0401493
-0.0477959
-0.0374006
-0.0424255
-0.0863707
-0.0819141
-0.0894104
-0.0512104
-0.0605843
-0.0444175
-0.049948
-0.103459
-0.0899105
-0.0874061
-0.0635857
-0.0695184
-0.0515281
-0.0558013
-0.102571
-0.0860831
-0.0830054
-0.0705272
-0.0706392
-0.057107
-0.060703
-0.0964218
-0.0828207
-0.0861872
-0.0701298
-0.0683007
-0.0618863
-0.065947
-0.0653204
-0.0271025
-0.0409373
-0.0371656
-0.0399597
-0.0262638
-0.0361338
-0.0767519
-0.0493766
-0.0708578
-0.0393169
-0.0371745
-0.0393518
-0.0449225
-0.0687349
-0.0737368
-0.0640882
-0.0363626
-0.0354127
-0.0440297
-0.0386652
-0.0695837
-0.0585892
-0.0487258
-0.0358946
-0.0394258
-0.0381499
-0.0405068
-0.0755022
-0.0489882
-0.0572735
-0.0410808
-0.0465413
-0.0419198
-0.0452211
-0.0770631
-0.0605973
-0.064828
-0.0484258
-0.0536837
-0.0456437
-0.0453614
-0.0768099
-0.0650188
-0.0668769
-0.0551463
-0.0588486
-0.0453232
-0.0479171
-0.0826514
-0.0688699
-0.0800386
-0.0601511
-0.0652774
-0.0500052
-0.060089
-0.0461283
-0.0446965
-0.0683635
-0.0312098
-0.039934
-0.039358
-0.0521543
-0.0737064
-0.0742639
-0.0841283
-0.0430755
-0.0490175
-0.055016
-0.0574711
-0.0685404
-0.0851082
-0.0804928
-0.0481979
-0.0427692
-0.0563806
-0.0525395
-0.0545327
-0.077446
-0.0690731
-0.0421994
-0.0439218
-0.0517645
-0.0474581
-0.0598089
-0.0668151
-0.0607168
-0.0447211
-0.044373
-0.0448089
-0.0371124
-0.0617083
-0.0589555
-0.0556942
-0.0435888
-0.0417893
-0.0356073
-0.0357696
-0.065253
-0.055594
-0.0600335
-0.0419102
-0.0459468
-0.0372969
-0.0458779
-0.0816384
-0.0636672
-0.0828903
-0.0486509
-0.0605752
-0.0500586
-0.065998
-0.0705391
-0.0561867
-0.068659
-0.043294
-0.0520972
-0.0434464
-0.0466542
-0.0830179
-0.0718789
-0.0792044
-0.0542253
-0.0561888
-0.0475828
-0.0504313
-0.0812738
-0.0810219
-0.085371
-0.0556792
-0.054315
-0.051418
-0.0539959
-0.0733917
-0.0861279
-0.0837885
-0.0540007
-0.0494715
-0.0542117
-0.0509889
-0.0640268
-0.0811739
-0.0704343
-0.04643
-0.0377268
-0.0484736
-0.0405629
-0.0568564
-0.0665696
-0.057341
-0.0360135
-0.0359579
-0.0388709
-0.039066
-0.0592343
-0.0557597
-0.058986
-0.0375746
-0.0469127
-0.0411227
-0.0523932
-0.0840471
-0.0641502
-0.0927993
-0.0514708
-0.0685365
-0.0579246
-0.0770193
-0.0241269
-0.0357381
-0.0307758
-0.0215641
-0.0196403
-0.024833
-0.0213759
-0.0256063
-0.0296591
-0.0288511
-0.020249
-0.023242
-0.0213222
-0.0229386
-0.0313866
-0.029041
-0.0311336
-0.0247577
-0.0287346
-0.023736
-0.0264297
-0.0413359
-0.0324173
-0.0376311
-0.0302661
-0.0340954
-0.0274319
-0.0306855
-0.0525048
-0.0396106
-0.045308
-0.0354312
-0.0385911
-0.0317878
-0.0344948
-0.0602365
-0.047051
-0.0515884
-0.039468
-0.0409644
-0.0349918
-0.0347659
-0.0619872
-0.0527735
-0.0553136
-0.0410407
-0.0396572
-0.0341537
-0.0316363
-0.0601378
-0.0559779
-0.0583176
-0.0386557
-0.0346133
-0.0307825
-0.0288928
-0.0302466
-0.019677
-0.0280412
-0.0215846
-0.0217193
-0.0188626
-0.0232786
-0.030674
-0.0319672
-0.038206
-0.0219189
-0.0231532
-0.0244062
-0.0262561
-0.0305239
-0.0374765
-0.0339606
-0.0237018
-0.0259653
-0.026496
-0.02771
-0.0297225
-0.0323337
-0.0307126
-0.0286927
-0.031548
-0.0299184
-0.0285682
-0.0364624
-0.039224
-0.0363427
-0.0348529
-0.0383637
-0.0367313
-0.0346319
-0.0501429
-0.0391502
-0.0403436
-0.0343048
-0.0334703
-0.0318305
-0.0328098
-0.0539661
-0.041001
-0.0451153
-0.0326367
-0.0301423
-0.0330938
-0.0343638
-0.0586585
-0.0473473
-0.0564441
-0.0295454
-0.0287557
-0.0348863
-0.0361352
-0.03198
-0.03275
-0.0457102
-0.0226164
-0.0259057
-0.0288371
-0.0333613
-0.0421426
-0.0483607
-0.0499604
-0.0269169
-0.0285087
-0.0338767
-0.0333706
-0.0374428
-0.0489343
-0.0448205
-0.0285726
-0.0286701
-0.0326459
-0.0290052
-0.0342836
-0.0365446
-0.0397743
-0.0332957
-0.0389081
-0.0337766
-0.0351433
-0.0301285
-0.0369356
-0.0354187
-0.0338591
-0.0341179
-0.0333931
-0.0311014
-0.0361779
-0.0271032
-0.0297604
-0.0302804
-0.0329166
-0.0238875
-0.0285896
-0.0428195
-0.0319363
-0.0419946
-0.033866
-0.0366261
-0.030416
-0.0357161
-0.056899
-0.0464172
-0.0612625
-0.0374045
-0.0387084
-0.0371492
-0.0393319
-0.0447576
-0.0318669
-0.0371379
-0.0290548
-0.0323913
-0.0261356
-0.0267666
-0.048834
-0.0386461
-0.042621
-0.0329324
-0.0328085
-0.027078
-0.0276717
-0.0462566
-0.0436815
-0.0452272
-0.0321924
-0.0285674
-0.0274658
-0.025205
-0.0367378
-0.0445909
-0.0380622
-0.0268498
-0.022108
-0.0239363
-0.0206766
-0.027556
-0.0349738
-0.0281096
-0.0212681
-0.0220081
-0.0202787
-0.0220925
-0.029561
-0.0273475
-0.0305243
-0.0231663
-0.0282667
-0.0236256
-0.029878
-0.0427489
-0.0333188
-0.0457077
-0.0302511
-0.0360327
-0.0323473
-0.0393551
-0.0633722
-0.0511828
-0.068642
-0.0375875
-0.0400455
-0.0413255
-0.0448404
-0.0159057
-0.0184452
-0.0181326
-0.014087
-0.0146533
-0.0151746
-0.0153383
-0.0191564
-0.0185357
-0.0202931