/*--------------------------------*- C++ -*----------------------------------*\
  =========                 |
  \\      /  F ield         | OpenFOAM: The Open Source CFD Toolbox
   \\    /   O peration     | Website:  https://openfoam.org
    \\  /    A nd           | Version:  10
     \\/     M anipulation  |
\*---------------------------------------------------------------------------*/
FoamFile
{
    format      ascii;
    class       volVectorField;
    location    "3.6";
    object      U;
}
// * * * * * * * * * * * * * * * * * * * * * * * * * * * * * * * * * * * * * //

dimensions      [0 1 -1 0 0 0 0];

internalField   nonuniform List<vector> 
12920
(
(280.118 -307.811 39.9492)
(38.3126 -56.5026 23.0202)
(145.39 15.3193 3.35515)
(74.4258 7.2834 -6.77303)
(129.464 3.27677 -3.21877)
(104.4 -8.12354 -2.03292)
(120.47 -9.65024 0.109539)
(113.08 -12.0901 0.388227)
(117.57 -10.2477 0.520535)
(115.568 -5.0448 -0.539551)
(115.379 6.90575 -1.17374)
(104.251 11.6924 -0.784227)
(92.6077 6.17041 0.300074)
(83.2907 -1.05113 0.61489)
(80.8668 -6.02211 1.31971)
(80.6467 -7.7433 1.74842)
(81.3121 -8.26554 1.86105)
(82.8923 -8.43474 1.87527)
(85.2344 -8.40779 1.52898)
(92.6262 -7.2195 1.25022)
(152.725 -129.949 -146.466)
(-145.853 -86.1979 -30.8908)
(97.3293 -62.8266 -9.33496)
(11.4637 -13.6247 -2.02061)
(97.8238 -14.664 -4.00835)
(72.9746 -4.40942 -5.03435)
(98.4346 -1.25483 -3.24532)
(88.6729 1.14387 -2.41885)
(91.9668 2.12936 0.0173188)
(84.9308 2.6315 0.285876)
(87.6667 4.12717 0.387521)
(88.1005 7.14238 0.04615)
(90.3282 7.00133 -0.131383)
(89.6204 4.38382 0.269618)
(85.601 -2.72795 1.20129)
(81.0667 -6.85597 1.04462)
(78.6518 -8.2885 0.694135)
(77.4745 -8.49649 0.375105)
(77.7053 -8.24507 0.175408)
(80.4084 -6.55735 0.0500714)
(95.6937 -7.09889 -43.9995)
(45.6087 47.66 -27.8839)
(156.272 6.15852 -7.04563)
(138.367 12.3842 -3.67148)
(165.646 1.47562 -1.4955)
(149.341 3.73458 -4.20071)
(158.938 1.7713 -4.92557)
(156.857 1.63212 -4.93128)
(158.553 -1.12682 -0.221311)
(138.329 0.843158 3.72398)
(115.273 5.70351 4.22825)
(98.4691 9.19758 2.0791)
(92.8664 5.97276 1.64962)
(84.5962 1.67573 1.93531)
(81.8488 -3.05542 1.28792)
(79.2796 -5.94659 0.815884)
(78.2511 -7.60912 0.551073)
(77.2326 -7.66549 0.408813)
(77.3381 -7.58198 0.38901)
(78.6272 -6.74392 0.309875)
(25.9993 -82.0113 10.4955)
(-16.3442 -25.425 -7.26243)
(110.33 9.26775 -2.23857)
(68.6229 18.8824 -1.50172)
(121.388 25.3117 -0.461365)
(111.63 23.8321 -1.63544)
(131.74 22.9003 -0.508939)
(128.512 19.4465 -0.379481)
(128.835 19.5716 2.96966)
(108.945 20.6471 3.69341)
(98.5664 18.1622 2.64261)
(88.5804 14.9983 1.50962)
(87.8764 10.5966 0.964394)
(83.5861 3.82769 0.711196)
(81.758 -4.44319 0.428285)
(78.8124 -8.55784 0.420135)
(77.4288 -9.95025 0.26436)
(76.177 -9.4332 0.200355)
(75.8859 -8.5487 0.319446)
(76.129 -7.13373 0.253531)
(121.816 61.0462 -29.643)
(-72.7184 -76.5922 5.69751)
(115.76 -36.578 -3.08829)
(54.4916 -28.9226 3.64253)
(105.425 -8.11605 3.52256)
(85.6915 -3.07254 2.71446)
(100.853 -1.10724 2.67103)
(88.7041 3.07272 1.80271)
(92.486 5.83787 1.5597)
(88.0685 10.0145 0.858114)
(91.1117 10.5695 0.352723)
(91.1197 9.72157 -0.552987)
(95.4118 5.52696 -0.586856)
(96.2142 2.91129 0.106422)
(92.9915 -0.896596 1.36924)
(83.6609 -4.55954 1.68346)
(78.4571 -7.11981 0.685281)
(74.9246 -7.03547 0.17045)
(74.102 -6.2573 0.166996)
(74.0974 -5.88842 0.138311)
(223.248 -211.638 9.43902)
(-149.613 -55.6119 6.99137)
(132.053 -56.5496 -15.2159)
(20.2618 -34.9609 4.8224)
(93.2397 -11.8219 3.83793)
(61.9752 0.307097 1.4495)
(85.6737 8.15165 1.3787)
(76.2051 11.7254 0.0300612)
(82.5392 13.1441 -0.143387)
(80.2777 14.5595 -0.660476)
(82.4247 13.1598 -0.670501)
(80.6204 11.5818 -0.544162)
(78.445 7.4954 0.106267)
(73.1222 3.48426 0.657643)
(70.0561 -0.97968 0.709266)
(67.9703 -3.89472 0.321565)
(67.0559 -6.06864 0.121644)
(66.3927 -6.25574 0.0105275)
(66.8672 -5.77935 0.0533056)
(68.9881 -5.45533 0.0320507)
(15.9774 -156.343 38.4952)
(-25.9928 -37.9994 -2.86293)
(107.73 -96.3016 -8.34155)
(29.7607 -55.0921 -1.58983)
(92.831 -45.5254 3.45279)
(54.8306 -17.1539 3.54518)
(74.9269 -18.7644 2.439)
(61.1218 2.14481 0.891138)
(70.0073 4.96388 -0.0625142)
(67.0095 13.0928 -0.728833)
(71.1838 13.4574 -0.919655)
(70.345 14.3668 -0.56853)
(71.8444 10.3579 0.156043)
(69.7382 5.36003 0.649981)
(71.6452 -0.785878 0.691821)
(71.7916 -4.42187 0.555912)
(70.7122 -6.84397 0.52378)
(68.0512 -6.72996 0.221751)
(67.1601 -6.08369 0.0569866)
(69.0272 -5.93316 -0.0318368)
(71.9549 7.11387 22.6209)
(57.5805 -78.0851 -21.6398)
(143.954 -26.3348 -25.3728)
(108.864 -36.4032 -13.4944)
(146.372 -34.504 -3.74647)
(114.548 -13.8565 -0.19882)
(120.136 -5.48082 0.487325)
(95.5036 0.502205 0.553274)
(78.3717 10.3682 0.0239533)
(68.7344 15.2044 -0.474681)
(69.0272 18.614 -0.765844)
(68.8756 17.2033 -0.911684)
(70.223 13.7856 -0.650818)
(73.31 6.17687 -0.10466)
(75.6395 -7.16627 1.33581)
(76.8197 -6.52561 0.953705)
(75.6537 -5.76145 0.735618)
(70.5932 -3.5688 0.593616)
(68.6412 -3.81234 -0.050613)
(70.8973 -4.90492 -0.223105)
(191.578 -225.357 -203.031)
(-47.3063 -32.3581 -38.5298)
(171.502 -10.1008 -18.5702)
(114.785 -13.7325 -9.23591)
(161.994 -14.5446 4.7891)
(105.407 -6.75817 1.8788)
(98.9702 -0.868586 2.77537)
(79.5224 14.6454 0.218164)
(76.2375 24.4184 -0.482349)
(68.3744 20.7851 -0.460265)
(68.0685 18.6726 -0.329063)
(69.0857 16.3026 -0.348485)
(71.0086 7.52206 -0.262231)
(71.876 -6.4979 0.515333)
(68.3543 -7.70248 0.288915)
(72.6116 -10.7993 0.367377)
(73.444 -5.19809 0.446094)
(71.7115 -2.27661 0.0641487)
(71.9494 -2.35641 -0.314458)
(75.0535 -4.65402 -0.341116)
(124.868 5.19949 -73.6984)
(62.7557 81.9559 -12.9513)
(161.813 -0.562271 2.94487)
(114.532 -20.0834 0.704253)
(141.696 -28.7363 0.660468)
(102.243 1.59855 -2.08989)
(93.0657 14.1404 2.57686)
(70.4914 13.047 -0.54233)
(70.5875 17.7433 0.222256)
(79.3802 17.3381 0.0813421)
(79.2152 10.9106 0.223082)
(74.2212 9.56118 0.172753)
(71.0757 0.659948 0.441268)
(68.1525 -6.7747 -0.462944)
(78.5612 -14.2619 -0.330562)
(75.9011 -14.899 0.912517)
(74.7704 -7.63634 0.448839)
(73.9768 -2.02863 0.174496)
(75.4521 -1.43948 0.0681171)
(77.9174 -3.55769 0.051909)
(273.459 -116.869 34.7495)
(252.226 -17.6965 10.0797)
(285.472 -0.263017 31.9649)
(171.672 -4.50724 17.0701)
(166.269 20.3448 6.59264)
(111.633 8.66822 0.879284)
(117.177 16.4921 -1.14904)
(119.303 33.9119 2.39001)
(85.6889 23.1903 -1.23487)
(75.6819 18.9938 -0.158772)
(73.0128 14.3716 -0.0774585)
(71.2685 8.61495 0.242621)
(73.9649 0.748376 -0.312043)
(85.7848 -10.5674 -0.0844327)
(85.0856 -17.3044 0.567384)
(71.9363 -13.214 1.16516)
(67.6743 -5.87894 0.436402)
(66.498 -3.1441 0.376471)
(67.7424 -3.02813 0.540669)
(68.6005 -4.5645 0.477006)
(260.951 -173.691 -98.0254)
(311.375 5.572 -39.4298)
(241.579 15.1526 26.9071)
(71.7894 8.95747 11.7529)
(102.157 27.4641 6.5404)
(58.0977 25.4011 0.609045)
(84.0999 23.9558 1.01228)
(76.5529 24.0155 0.623242)
(79.0862 29.47 -0.371378)
(81.8211 25.7812 -0.531449)
(73.3492 22.0045 -0.230768)
(76.8587 9.4426 -0.700114)
(87.5467 -2.7377 -0.525944)
(91.152 -10.7726 -0.248959)
(83.7296 -16.6604 0.589171)
(65.1231 -8.93574 1.50101)
(59.8785 -4.58581 1.03139)
(57.0337 -3.16648 0.385293)
(57.882 -3.18874 0.312131)
(60.1053 -4.01367 0.16379)
(234.339 128.48 123.517)
(207.053 32.9838 21.2194)
(196.338 61.8301 11.6114)
(86.2076 45.5636 5.41481)
(112.254 41.9451 4.94356)
(69.5846 3.00344 1.03453)
(89.6472 11.0936 0.627)
(76.5277 15.1848 0.800747)
(83.8676 24.1546 1.32)
(86.3386 24.9092 0.823951)
(100.623 16.0166 -0.407576)
(109.514 5.8983 -1.00221)
(109.902 1.23472 -0.3221)
(101.716 -5.79367 0.261047)
(80.4662 -7.70602 1.46318)
(67.5666 -5.84979 1.79152)
(60.1194 -3.73675 0.805149)
(55.928 -3.47077 0.281611)
(55.5795 -4.14258 0.13101)
(57.5665 -4.6299 0.0861251)
(138.305 -165.026 -205.234)
(-47.2167 21.4863 -1.4696)
(91.8307 79.1539 4.6316)
(-1.08461 38.9617 -2.73907)
(95.936 23.5638 -0.453091)
(62.5272 -2.24201 -2.54432)
(100.966 10.2845 0.490257)
(99.1868 -4.72635 0.53188)
(110.997 6.9107 1.55125)
(109.766 4.87416 1.01182)
(110.401 10.7068 0.324529)
(105.954 10.1502 -0.66299)
(105.019 7.54523 -0.730311)
(101.03 -1.38165 0.311165)
(94.6333 -1.1633 1.55105)
(80.2119 0.0617411 1.95089)
(69.9206 1.06646 1.38128)
(61.3627 0.0259373 0.645121)
(58.9794 -1.65752 0.363469)
(58.8329 -3.36209 0.156168)
(118.657 34.1679 -90.6636)
(5.12508 57.8456 -4.22757)
(154.627 67.1869 -2.40097)
(95.1853 43.5737 -4.85568)
(139.599 17.6 -1.01173)
(102.445 -4.64301 -0.458898)
(121.56 -3.20018 1.46518)
(106.149 -5.92508 0.0376468)
(111.682 3.00115 0.300703)
(103.775 5.88864 -0.224404)
(104.852 11.7956 -0.162786)
(101.082 11.4468 -0.210391)
(101.2 8.33909 0.0143538)
(94.6304 1.76438 0.210305)
(87.2945 2.61895 0.861377)
(76.0551 5.31751 1.23874)
(67.4554 5.93166 0.969047)
(59.1942 3.47593 0.333626)
(56.362 0.236632 0.0724663)
(56.3348 -2.46672 0.00672599)
(-33.365 -41.5394 5.1299)
(-7.43646 41.0287 -8.74501)
(131.411 58.3349 13.0719)
(80.3497 34.0701 7.74051)
(131.958 22.3615 9.45294)
(82.6357 -4.60195 4.00405)
(99.5522 3.57942 2.35394)
(79.4774 -3.21087 -0.824809)
(90.235 9.40501 -1.01756)
(83.6742 9.1206 -1.41355)
(88.3068 14.4587 -0.730326)
(84.6561 12.7673 -0.297805)
(82.5058 12.4347 0.909242)
(71.7237 9.1714 0.684387)
(66.4796 10.9447 0.337368)
(61.3082 11.4275 0.284335)
(60.0489 11.4362 0.0168371)
(57.4667 9.52004 -0.168815)
(57.9097 4.64409 -0.011568)
(58.9919 -0.408037 -0.0145978)
(16.0122 181.931 81.1422)
(-92.1434 -84.5986 -19.1471)
(134.782 -47.3118 -2.15051)
(55.8463 -30.1663 5.39629)
(115.798 -7.66301 9.01769)
(60.0113 -11.3251 4.52621)
(86.6949 2.06691 3.58215)
(57.3828 0.284078 -0.257566)
(74.7291 10.5732 -0.712655)
(65.0816 11.7939 -1.43938)
(74.3127 16.2123 -0.843774)
(70.1724 16.0776 -0.504513)
(69.8251 15.4838 1.03257)
(60.5814 12.1592 0.976371)
(57.4666 10.6568 0.43424)
(55.7598 9.28765 0.109944)
(56.5552 8.95649 -0.131542)
(56.8166 6.7407 -0.206173)
(59.6194 2.65262 -0.0435249)
(62.04 -0.555758 -0.0362802)
(133.805 -133.648 -13.5809)
(-102.005 84.0949 1.2487)
(126.625 6.70198 -8.90844)
(45.6456 -5.33318 -3.91938)
(121.419 -11.4854 -1.37497)
(81.758 -19.4455 -0.736071)
(101.852 -2.19611 3.36295)
(67.8754 1.20344 1.18482)
(78.0467 10.3003 0.533586)
(67.3647 11.1042 -0.703233)
(75.4206 15.2585 -0.38939)
(71.3343 16.051 -0.13579)
(72.1253 17.366 0.792225)
(65.9797 15.9435 0.722793)
(62.9258 13.8996 0.297726)
(60.805 11.6504 -0.0270064)
(61.818 11.0723 -0.14127)
(63.3633 8.33571 -0.25296)
(67.249 3.90881 -0.2321)
(70.6024 0.350076 -0.214987)
(51.233 -105.088 0.0686148)
(-110.707 -88.2433 -7.88443)
(78.5457 -66.5426 -6.62679)
(-5.26674 -35.3169 -0.100497)
(91.9294 -9.06333 0.850592)
(34.2291 -1.49594 -2.9842)
(76.9646 13.656 0.559228)
(42.7563 10.3169 -0.98573)
(67.3859 15.7181 -0.306637)
(55.5862 14.4627 -0.942291)
(68.91 16.7671 -0.200864)
(65.2197 17.2619 0.124354)
(69.4238 17.6019 0.809866)
(66.3698 16.9979 0.81381)
(66.8588 15.0533 0.506745)
(65.4086 10.7977 -0.0374058)
(68.1588 7.58192 -0.318581)
(68.8273 4.08975 -0.425856)
(69.9739 1.30551 -0.789425)
(72.3368 0.236768 -0.878847)
(250.038 194.522 -40.7229)
(168.224 128.325 -23.8465)
(167.563 -47.4588 0.275438)
(55.5378 -47.9778 -5.31158)
(97.9527 -32.7434 1.58418)
(34.6743 -9.47422 0.659223)
(73.2902 -1.45129 2.91638)
(43.8031 5.05663 1.47178)
(68.4274 6.49212 2.10167)
(58.2656 8.73315 1.94717)
(71.382 9.59784 2.50026)
(69.3174 12.1254 2.96385)
(76.7012 13.5351 3.33578)
(77.8751 14.3885 3.41145)
(83.6224 14.3972 3.08243)
(86.1077 12.792 2.23161)
(90.7353 11.9793 1.50518)
(93.8126 12.8115 1.25033)
(100.648 11.5776 0.845336)
(107.055 7.06395 0.645473)
(36.0397 -62.303 62.5464)
(-115.136 -60.9689 68.9966)
(116.169 -34.3381 8.02371)
(54.1882 -18.0351 2.88241)
(121.753 -8.55266 4.50597)
(96.4876 -10.9531 2.18578)
(112.871 -9.00327 4.16022)
(103.74 -10.6953 2.69732)
(107.072 -7.78065 2.51049)
(101.754 -4.23295 1.27242)
(99.2741 2.5911 1.50592)
(87.2864 4.90559 2.02123)
(80.339 1.5406 2.92816)
(75.3527 -2.51057 2.60124)
(75.3851 -5.38933 3.35167)
(76.6224 -6.15935 3.76154)
(78.2099 -6.46735 3.70778)
(81.6079 -6.00051 3.47191)
(84.785 -5.38002 2.61037)
(92.8605 -4.13 2.17176)
(117.129 -32.7637 10.9049)
(-156.971 -34.9779 -10.9117)
(78.8413 -85.468 -28.4035)
(-1.1879 -36.6973 -11.6389)
(82.7667 -31.5164 -9.41919)
(47.9417 -13.1557 -8.03471)
(70.6263 -3.45693 -3.51617)
(55.9241 2.21622 -3.12461)
(62.9801 3.77766 -0.930906)
(59.4806 2.14397 -1.42604)
(64.1625 1.45854 -0.499074)
(64.8928 1.7022 -0.243345)
(67.6236 0.555514 -0.108919)
(67.1429 -2.53421 0.501469)
(67.6108 -4.64931 1.23136)
(67.4228 -5.23438 0.92232)
(67.5264 -5.42016 0.391711)
(67.5366 -4.99646 -0.0765944)
(68.7291 -4.68758 -0.353007)
(72.3114 -3.56016 -0.326329)
(39.565 -228.004 -24.1543)
(-47.9242 -59.281 -53.0294)
(115.337 -58.5464 -45.2414)
(90.7589 -21.714 -23.5497)
(124.027 -20.6711 -11.4592)
(97.633 -11.1166 -9.32438)
(103.923 -7.54316 -5.68328)
(90.944 -3.19222 -4.50557)
(93.5188 -0.867094 1.72215)
(85.0755 1.86235 5.40867)
(82.4991 3.32104 6.10481)
(73.8414 3.85029 3.39199)
(71.207 1.39531 2.51462)
(67.0255 -0.801497 2.52973)
(66.3569 -2.49717 1.75925)
(65.3337 -3.25447 1.17522)
(65.2388 -3.86268 0.755418)
(64.7261 -3.70651 0.512825)
(65.4335 -3.91487 0.462474)
(67.836 -3.48109 0.437731)
(112.194 -273.401 11.1299)
(6.55209 -148.052 11.4776)
(107.3 -48.1491 -8.40608)
(47.1349 -14.3793 -4.21309)
(94.1111 0.788904 -3.53767)
(69.7652 2.8694 -4.39378)
(86.9928 7.355 -0.747808)
(75.5452 7.39962 -0.328383)
(80.6284 11.0527 3.92169)
(73.5969 13.8573 4.4859)
(73.4112 13.3175 4.05483)
(67.5289 10.7983 2.46763)
(67.3548 6.37449 1.43684)
(64.4118 1.89198 1.10224)
(64.0277 -2.76819 0.766695)
(63.176 -4.64352 0.717096)
(62.9918 -5.14686 0.510917)
(62.2959 -4.55593 0.397687)
(62.7975 -4.30994 0.490051)
(64.5971 -3.72528 0.403855)
(148.971 -131.113 39.6259)
(-14.5334 -111.702 33.1518)
(104.998 -60.3983 -10.7858)
(36.4586 -39.4356 1.92502)
(85.7089 -17.4649 2.17357)
(59.8297 -9.5825 2.24895)
(77.1597 -4.33564 3.24021)
(63.6492 1.971 1.63086)
(69.1017 5.31868 1.92522)
(64.2321 9.22261 1.01164)
(67.6367 8.78337 0.686984)
(65.8939 7.76473 -0.173026)
(67.9838 3.88325 -0.0708018)
(66.855 1.40793 0.814538)
(66.5738 -1.91955 2.04488)
(64.4951 -2.90907 2.21543)
(63.1434 -3.74977 1.15688)
(61.2561 -3.35386 0.522767)
(61.2716 -3.27081 0.378182)
(62.7281 -3.22307 0.275323)
(153.209 -205.229 -205.06)
(-36.3441 -95.4363 1.29559)
(102.581 -51.0755 -17.3387)
(2.02867 -30.3234 5.57045)
(76.0017 -8.78638 4.83098)
(39.4464 1.08706 1.35403)
(66.1497 7.00695 2.37089)
(54.2491 10.3229 -0.0146661)
(61.3148 11.1921 0.175571)
(58.0506 12.3048 -0.614413)
(60.1724 10.5618 -0.222408)
(57.4646 7.92012 0.206988)
(57.7427 3.76913 0.995154)
(56.5977 1.16395 1.46301)
(56.4564 -1.07873 1.21477)
(55.8922 -1.92917 0.595947)
(55.8246 -2.98065 0.291769)
(55.5761 -3.03212 0.200118)
(56.5932 -3.15793 0.224914)
(59.4307 -3.2383 0.204443)
(81.2322 10.0228 70.1686)
(-8.1749 -26.0039 -13.129)
(94.624 -76.3922 -19.9894)
(2.6378 -41.351 -4.21975)
(75.7436 -33.1984 3.79018)
(37.7655 -9.34726 4.4305)
(61.6322 -15.8933 3.6523)
(46.4827 2.89804 1.55371)
(54.0864 2.62039 0.452115)
(49.1831 9.02736 -0.440697)
(52.7617 8.06055 -0.430129)
(51.3115 7.4613 0.0405807)
(54.0269 2.61857 0.836895)
(54.3134 0.479804 1.19145)
(56.8891 -2.2114 1.13009)
(57.4205 -3.42015 0.924584)
(57.6368 -4.34102 0.737428)
(56.7169 -4.27419 0.370862)
(57.1883 -4.29868 0.197742)
(59.8501 -4.25448 0.148651)
(135.678 22.2243 84.9562)
(105.971 -40.2791 -23.3997)
(149.437 -19.8925 -33.2058)
(74.8231 -29.9008 -17.7551)
(104.518 -22.4509 -3.71833)
(67.1524 3.63404 1.42359)
(86.2692 2.47246 5.87534)
(68.744 6.4252 6.26801)
(59.5165 11.3475 2.26336)
(52.4514 12.3833 -0.0586486)
(53.5941 12.1583 -0.418073)
(54.6463 9.17301 0.135062)
(58.4081 5.11666 1.18384)
(62.3706 0.342033 1.66414)
(62.662 -5.03095 1.70993)
(63.2863 -3.65786 1.40854)
(62.3426 -3.13234 1.01977)
(59.6982 -2.45812 0.657145)
(59.6042 -3.39265 -0.107778)
(62.2549 -4.19766 -0.112921)
(150.337 -137.821 -147.814)
(-23.172 -46.9146 -52.899)
(141.281 -22.4753 -26.1539)
(43.6662 -19.0893 -9.64355)
(102.872 -9.36949 7.48032)
(83.7971 -1.93684 5.16824)
(93.1916 2.34466 5.88588)
(70.502 13.8448 1.5464)
(60.9452 18.6842 1.69903)
(56.5856 13.9457 0.604834)
(57.8181 10.0995 0.612514)
(60.0917 5.64637 1.08305)
(62.8661 -0.940559 1.88994)
(64.7806 -4.56277 2.59433)
(63.8164 -2.9005 0.963958)
(63.7867 -4.56658 0.692468)
(63.6002 -2.11135 0.434706)
(62.3809 -1.58012 0.0321792)
(62.8437 -3.40574 -0.509999)
(65.4316 -5.06362 -0.342871)
(153.408 3.27057 -81.364)
(34.1355 25.0494 -52.0674)
(130.497 -41.354 -15.477)
(73.0735 -31.4977 -7.95519)
(103.6 -19.0326 -1.99)
(83.1617 0.716313 -1.10809)
(91.3125 15.991 4.46184)
(67.0606 19.311 3.17981)
(64.7326 13.8418 2.67119)
(66.6638 9.60978 0.925854)
(65.1888 6.17324 0.867435)
(63.6023 2.78902 1.09346)
(62.7593 -2.5842 0.99704)
(63.526 -6.87393 -0.676884)
(66.5573 -10.5445 0.025377)
(65.0451 -7.10993 1.10098)
(65.4489 -2.63791 0.43216)
(64.7645 -1.47956 0.241202)
(65.9437 -2.96132 0.195742)
(67.3274 -4.70103 0.0682652)
(158.727 -45.6735 -115.311)
(40.7469 39.4277 -27.5745)
(162.95 13.7501 33.354)
(96.5134 3.1201 15.6331)
(114.681 22.1276 8.2378)
(91.1117 13.4379 -2.22225)
(93.0321 16.5999 -2.72123)
(98.5513 24.6607 3.0079)
(86.4053 20.9169 5.18281)
(69.4241 12.4548 0.824391)
(65.4461 8.11282 0.403844)
(65.3628 3.07102 0.114285)
(68.9031 -3.15522 -1.21346)
(71.9378 -9.11843 -0.611179)
(67.9062 -11.7246 1.35868)
(60.1791 -6.38306 0.981543)
(59.8658 -2.84841 0.454078)
(59.1326 -2.20876 0.488773)
(60.1106 -3.14902 0.884443)
(60.907 -3.98193 0.518896)
(155.227 -117.061 -40.9568)
(7.84139 -56.6642 -0.712892)
(118.746 -2.74777 40.648)
(10.8818 7.67871 9.67647)
(74.5049 28.4804 7.83251)
(44.1631 23.6175 -0.472416)
(77.4415 21.768 1.12985)
(77.6936 21.9325 4.73971)
(77.8598 24.4135 3.06337)
(73.1713 18.1032 0.86104)
(68.8636 11.1345 -1.23545)
(69.7239 2.25563 -2.75077)
(71.2995 -4.63632 -2.0437)
(70.2731 -8.48114 -0.68477)
(63.1704 -10.2249 1.48444)
(52.3939 -4.12543 1.82543)
(52.4129 -2.56023 1.25131)
(50.9016 -1.80586 0.685197)
(51.8427 -1.97144 0.578462)
(53.6892 -2.48475 0.184875)
(337.449 78.3781 -67.7262)
(116.501 -12.4261 -26.37)
(140.139 54.7254 18.4779)
(39.5063 40.9162 8.78331)
(92.5621 37.7647 8.2357)
(52.6408 -0.835211 2.3431)
(78.327 10.8588 2.96854)
(65.2481 13.9642 3.20575)
(73.7862 18.7927 3.0406)
(75.8765 16.1097 1.66363)
(81.2506 9.35873 -0.571099)
(78.7444 2.99463 -1.48938)
(75.2036 -1.99099 -0.640733)
(69.6414 -4.95163 -0.00948609)
(57.9349 -3.41674 2.23793)
(53.64 -2.59615 2.60502)
(50.3514 -1.9986 1.16047)
(47.8118 -2.12448 0.502752)
(47.8975 -2.60219 0.259415)
(50.177 -2.85343 0.14412)
(34.3873 -103.063 69.7957)
(-141.453 11.6314 -12.6323)
(71.8648 57.7806 2.85501)
(-29.3862 27.1132 -4.52817)
(80.608 18.6781 -0.236603)
(36.9359 -2.45556 -3.38922)
(76.7014 15.9918 1.89876)
(70.6482 0.566672 0.982202)
(82.8671 13.1546 2.61508)
(79.8229 8.6824 1.29892)
(80.4318 11.792 0.580491)
(75.095 7.14456 -0.792355)
(73.1193 4.53325 -0.196869)
(68.3462 -0.362667 1.17286)
(65.4874 2.02384 2.6777)
(58.8434 2.15682 3.19081)
(54.3497 2.15687 2.15621)
(49.4898 0.638802 1.08477)
(48.7446 -0.645996 0.613449)
(50.1526 -1.79061 0.289962)
(114.689 -84.889 -161.478)
(38.5749 9.7604 -45.4962)
(148.69 27.722 -12.8118)
(62.571 15.3913 -4.97016)
(109.445 0.878943 3.86143)
(64.3333 -11.8354 0.0809405)
(92.2828 -0.789644 2.92208)
(75.0916 -0.183078 -0.120277)
(82.5416 10.4216 0.614034)
(74.3123 10.4435 -0.424384)
(75.7046 12.4682 0.0812433)
(70.5531 8.82097 -0.0543745)
(69.3015 5.47076 0.7353)
(62.756 3.06165 0.91815)
(59.1653 5.34 1.82879)
(54.4405 6.4708 2.16095)
(51.1691 5.78417 1.52055)
(46.8737 3.13274 0.610121)
(46.0761 0.516608 0.258482)
(47.8366 -1.39105 0.131404)
(120.007 -94.6122 -0.793325)
(-58.1063 29.7135 4.17074)
(119.611 49.3026 4.80419)
(37.7992 19.4693 8.9093)
(104.747 15.6908 15.3137)
(53.7228 -5.03319 4.40278)
(79.7351 8.92655 3.6143)
(58.2298 2.5095 -1.57987)
(69.6626 14.771 -0.876791)
(60.6663 11.7123 -1.57319)
(64.6824 15.1496 -0.273228)
(58.8481 11.4764 0.075966)
(58.2497 10.7419 1.72999)
(52.0592 8.27071 1.1761)
(50.1698 9.39477 0.789473)
(48.0951 8.98196 0.5306)
(48.3309 8.53803 0.153944)
(46.6791 5.9706 -0.0465395)
(47.5388 2.23225 0.144873)
(49.8005 -0.680648 0.0795336)
(124.244 32.0035 178.788)
(-86.8495 -28.7488 -77.0482)
(128.412 -11.2322 -13.3037)
(21.4148 -4.52233 4.64715)
(97.6236 7.99271 11.6333)
(33.0115 -2.79852 3.61055)
(70.6191 8.55318 4.03102)
(39.0616 3.91315 -1.20389)
(58.1153 13.3147 -0.735404)
(45.0083 11.8148 -1.9041)
(53.7774 14.7488 -0.474203)
(47.479 12.5423 -0.0991072)
(49.9296 11.9396 1.33252)
(46.3714 9.78004 0.98782)
(46.9331 8.84843 0.573279)
(46.1354 7.45053 0.123385)
(47.6857 6.52932 -0.247429)
(47.5075 3.99791 -0.252386)
(49.323 1.16589 -0.0681907)
(51.9075 -0.791843 -0.0524627)
(152.241 34.0851 -155.501)
(-26.856 101.052 -15.5678)
(117.201 39.2125 -32.7552)
(16.7832 26.3046 -4.99799)
(92.3443 19.496 -2.81524)
(35.5167 4.85747 -1.92894)
(71.1987 11.3014 4.288)
(41.1925 5.76407 0.48844)
(58.4232 12.4427 0.974982)
(46.1812 10.6953 -0.959401)
(55.1137 13.4198 0.0800273)
(49.9586 12.509 0.16103)
(53.3525 12.8828 1.02702)
(50.9275 11.5931 0.594252)
(52.2926 10.5392 0.197845)
(51.7725 8.4914 -0.337222)
(54.0304 7.26918 -0.518633)
(54.7966 5.07697 -0.623326)
(57.387 2.14046 -0.478614)
(60.2163 -0.13415 -0.331473)
(4.95602 24.9912 -10.0888)
(-148.544 -30.1791 -26.1317)
(37.5288 -21.2062 -13.1026)
(-56.4831 -8.98362 -0.525194)
(74.1211 9.85749 0.321753)
(0.689237 4.63878 -3.64898)
(60.8284 16.8862 1.23484)
(24.7729 10.3739 -1.97194)
(53.8817 14.8989 -0.360417)
(40.1383 12.1119 -1.33889)
(54.4184 13.3317 0.107392)
(50.6077 12.4954 0.135418)
(57.1731 12.4887 0.909792)
(56.4563 11.1723 0.498103)
(60.0769 9.51409 -0.0377539)
(60.8891 6.6778 -1.06523)
(64.2262 4.52035 -1.51843)
(65.1046 2.36003 -1.77548)
(66.8682 0.519887 -2.01567)
(69.6227 -0.4017 -1.6421)
(258.698 274.971 48.8642)
(42.6613 96.5127 62.375)
(141.993 -14.0963 2.54719)
(17.6423 -27.8453 -6.18321)
(81.3517 -20.9406 -2.73387)
(16.4251 -5.04361 -0.959071)
(66.0125 -2.18877 4.20201)
(36.0982 2.56313 2.37967)
(62.7658 3.70549 4.33014)
(52.2244 6.08965 4.06016)
(65.9978 6.91137 5.23522)
(64.4636 9.44993 5.63434)
(73.7488 10.6844 6.29041)
(76.3587 11.4618 5.99064)
(84.7144 10.8078 5.60268)
(88.7445 9.13585 4.16146)
(94.5141 8.58773 3.10316)
(98.8907 9.79134 1.8468)
(106.127 7.5687 0.664811)
(111.025 3.53528 0.691731)
(9.91849 48.8359 -96.1629)
(-14.4854 1.06746 6.95656)
(119.932 19.9847 -4.21969)
(53.8956 12.0689 -1.5509)
(113.259 7.5787 5.82268)
(84.1645 -1.43884 3.05559)
(101.148 -1.7357 5.87887)
(90.688 -4.56706 3.61395)
(93.2474 -0.494009 3.60843)
(84.4039 2.89549 2.36421)
(80.4142 5.40092 3.31992)
(71.1274 4.19013 3.90092)
(69.3363 1.43418 4.36448)
(68.0271 -1.01428 4.45547)
(69.5438 -2.33293 4.88242)
(72.6057 -2.57722 4.99884)
(75.8549 -2.5874 4.41997)
(80.7799 -1.8321 3.74671)
(84.2259 -1.47653 2.42999)
(91.7628 -0.820933 1.9935)
(140.118 -8.95171 -188.573)
(-98.7453 -39.8342 -41.6694)
(85.948 -89.8431 -38.6692)
(-6.79835 -40.9179 -11.0814)
(71.1691 -33.671 -6.26068)
(28.8762 -12.9694 -6.48034)
(53.8474 -3.02952 -2.88827)
(37.3978 2.06699 -4.70555)
(47.4188 3.34358 -2.68995)
(44.0644 1.6411 -3.13277)
(49.5146 1.01334 -1.48021)
(50.0346 0.641033 -1.04084)
(52.8665 -0.567115 -0.808342)
(53.047 -2.37098 -0.39419)
(54.8909 -2.89786 0.143874)
(56.1974 -2.80676 -0.139551)
(57.3287 -2.90338 -0.499597)
(58.0056 -2.37173 -0.806643)
(59.5128 -2.30186 -0.973387)
(63.1848 -1.64035 -0.641039)
(300.62 89.6419 -5.85362)
(182.429 -16.2515 -24.9142)
(187.099 -68.8575 -57.435)
(105.176 -30.9588 -31.6759)
(109.716 -23.195 -11.1047)
(67.9812 -11.6048 -8.52616)
(72.486 -7.16081 -4.32099)
(54.7409 -2.11874 -4.46028)
(57.8034 -0.232705 0.492223)
(52.304 1.51605 2.96155)
(55.4583 1.69978 4.23949)
(52.9744 1.88721 2.63651)
(52.8326 0.502378 2.09783)
(51.5103 -0.478467 1.90074)
(52.3831 -0.879465 1.36848)
(52.6143 -1.06576 0.893708)
(53.2772 -1.55098 0.539979)
(53.2154 -1.47922 0.336088)
(54.3217 -1.86009 0.312068)
(57.0672 -1.65783 0.429856)
(114.047 -175.6 64.7156)
(47.5904 -130.702 15.2502)
(112.403 -47.7161 -6.37208)
(39.1113 -21.3154 -5.34478)
(76.3327 -7.08524 -1.89817)
(41.2127 -4.51473 -4.13941)
(59.0906 2.30992 -0.0556591)
(43.8979 3.87829 -1.07368)
(51.4286 7.82348 3.07683)
(47.2936 9.7209 3.22968)
(51.0583 9.54792 3.40324)
(48.9498 7.69444 2.20413)
(50.4414 4.52695 1.3523)
(49.2108 1.62379 0.992663)
(50.1714 -1.16626 0.72491)
(50.257 -2.044 0.63547)
(50.716 -2.37265 0.45329)
(50.4635 -2.01697 0.367705)
(51.4821 -2.17677 0.449692)
(53.9116 -1.93562 0.438712)
(121.257 -154.689 -114.494)
(-9.58105 -112.419 3.16368)
(102.185 -57.6842 -6.33124)
(27.1476 -38.101 2.49689)
(70.6478 -17.5962 1.99927)
(38.1503 -10.5602 1.46775)
(57.4285 -5.47956 2.95882)
(42.3337 1.48739 1.08483)
(50.0012 3.91571 1.88803)
(45.0787 7.35876 0.947087)
(49.1804 6.38313 1.0198)
(47.492 5.46272 0.147685)
(49.4479 2.39729 0.256876)
(48.3787 0.828653 0.805042)
(49.5511 -0.92075 1.54634)
(49.9007 -1.05577 1.64591)
(50.3753 -1.57438 0.983958)
(49.6274 -1.44339 0.50826)
(50.2824 -1.67664 0.427667)
(52.3995 -1.75215 0.365158)
(175.117 -75.6404 -126.241)
(-16.2384 -72.9885 -5.58126)
(93.775 -35.1886 -18.7794)
(-13.8316 -21.585 1.02612)
(61.0107 -4.33413 2.94165)
(18.4984 1.64725 0.420247)
(49.3378 4.95572 2.51064)
(36.2055 7.81178 0.130063)
(45.024 8.07291 0.658975)
(41.3124 9.15731 -0.194022)
(43.896 7.63023 0.271842)
(41.9812 5.39215 0.506661)
(43.5002 2.44445 0.999632)
(43.8091 1.23605 1.31404)
(44.8904 -0.0417091 1.01727)
(45.2087 -0.312983 0.534854)
(45.637 -1.18737 0.291119)
(45.7568 -1.26074 0.270897)
(47.0699 -1.69669 0.246743)
(50.2092 -1.90386 0.339697)
(129.755 -51.1261 27.2929)
(-26.3169 -34.8904 -24.879)
(87.6219 -67.3562 -18.5187)
(-10.0554 -33.3798 -5.10319)
(63.4119 -26.4832 3.15138)
(21.8195 -5.96689 3.68976)
(48.1922 -15.9342 3.36605)
(32.0222 2.69655 1.5472)
(40.6742 0.163736 0.901177)
(35.2741 6.27631 -0.0509387)
(39.1826 4.41327 0.161858)
(38.1217 4.18669 0.33126)
(41.0728 0.546376 0.690406)
(41.9158 0.108009 1.07709)
(44.6024 -1.167 1.07868)
(45.5682 -1.76719 0.95036)
(46.536 -2.55208 0.663745)
(46.3731 -2.5653 0.363539)
(47.5215 -2.94601 0.225499)
(50.6687 -2.88229 0.318843)
(213.159 -7.08393 40.3271)
(164.156 -24.9476 -16.98)
(164.913 -16.7346 -28.1344)
(60.275 -25.3723 -15.9308)
(82.0035 -14.8655 -3.43429)
(39.2481 12.56 1.41691)
(59.558 6.44065 6.14896)
(45.1972 9.05423 5.81251)
(43.2407 9.58984 1.95887)
(38.812 9.17249 0.0585628)
(40.721 8.07049 -0.239045)
(42.3721 5.14228 0.346037)
(46.4731 2.45376 1.09854)
(49.9609 0.643243 1.75754)
(49.3587 -2.62926 1.87213)
(50.2944 -1.51874 1.51659)
(50.1385 -1.51434 0.958107)
(49.0571 -1.56541 0.538301)
(49.7743 -2.72904 -0.0432937)
(52.7055 -3.10221 0.126115)
(275.574 -163.22 -42.9951)
(34.9743 -66.0536 -68.7618)
(136.653 -21.8457 -12.5502)
(14.9075 -12.0729 -7.16472)
(73.249 -1.33536 5.60436)
(47.3064 8.50795 4.3794)
(62.9511 9.39004 6.44399)
(49.5528 13.5493 2.89016)
(46.5154 13.4983 1.81694)
(45.5026 8.52656 0.480504)
(47.2994 4.86671 0.545364)
(49.4417 1.08139 0.952901)
(52.324 -1.66301 1.92377)
(54.6253 -2.05855 2.2393)
(54.2884 0.730086 1.322)
(52.2863 -1.23638 1.16493)
(52.2385 -0.511695 0.586908)
(51.393 -1.16771 0.0911152)
(52.1326 -3.75143 -0.286293)
(54.7093 -4.112 -0.0578485)
(315.161 -68.8637 4.48247)
(89.0079 20.526 -55.9321)
(128.178 -16.7685 -27.9498)
(49.8176 -11.9342 -9.87585)
(77.9269 -3.6096 -1.57464)
(51.4808 13.1143 0.00740046)
(60.3177 20.7769 5.35313)
(52.9866 17.7752 3.86917)
(54.0047 10.1299 3.03404)
(55.0067 5.4524 1.0863)
(54.1069 2.57531 0.624081)
(53.3381 -0.27667 0.785682)
(53.5303 -2.79161 0.324114)
(54.2165 -4.23337 -0.0835993)
(54.9673 -5.10846 0.597539)
(52.9538 -1.78844 1.35525)
(53.7764 -0.837094 0.780604)
(53.2354 -1.17094 0.495958)
(54.2898 -3.73731 0.426435)
(55.7617 -4.04392 0.1723)
(9.51876 21.4706 43.7418)
(-140.492 39.061 -3.32384)
(77.0603 26.9511 27.1338)
(27.207 8.94973 10.2812)
(77.1956 26.2626 6.28887)
(54.3307 14.6809 -3.44785)
(61.0327 17.3085 -2.11601)
(63.8183 19.1142 2.96625)
(62.7619 14.0366 6.0013)
(59.0834 8.02217 1.1908)
(57.5017 4.6677 -0.0391436)
(57.9509 1.88504 -0.410912)
(58.2462 -2.75018 -1.48405)
(58.0022 -5.84261 -0.611197)
(54.2375 -6.16518 1.3395)
(49.7555 -2.41331 1.05375)
(50.1971 -1.39624 0.672111)
(49.3669 -1.76086 0.81741)
(50.0148 -2.97739 1.03633)
(51.0512 -3.00842 0.437699)
(191.726 -217.288 -36.2622)
(-67.0461 -67.9188 -12.1289)
(94.9501 -8.15288 21.8307)
(-24.6768 4.46798 5.7323)
(56.8816 26.3933 5.54862)
(18.0982 18.2063 -1.31911)
(51.9075 15.7977 2.60472)
(56.2416 15.7849 5.6392)
(61.2228 17.4722 4.27545)
(60.3107 12.5252 1.23257)
(58.3221 6.29824 -1.54973)
(56.9287 0.599439 -2.81829)
(55.8545 -3.10113 -2.08978)
(53.9665 -4.90379 -0.649521)
(48.2753 -4.82956 1.56599)
(42.6912 -1.5343 1.84198)
(44.0447 -1.17616 1.17079)
(42.9951 -0.857166 0.817941)
(44.0746 -1.05304 0.590054)
(45.8381 -1.40099 0.138289)
(205.983 -9.47793 -188.863)
(-9.23782 45.3443 15.598)
(93.056 63.596 23.9236)
(2.64557 35.1609 7.91517)
(77.1209 32.8518 7.11216)
(33.7068 -5.12285 2.01107)
(61.8215 9.60774 3.86741)
(48.4193 12.7649 3.32324)
(58.1234 16.1698 2.80632)
(58.4878 12.5201 1.42074)
(60.899 6.84014 -0.549497)
(56.6106 2.02454 -1.30022)
(53.5951 -1.08978 -0.783613)
(49.3374 -2.23067 0.353092)
(41.7841 -0.839177 2.34591)
(41.8456 -0.720901 2.12877)
(41.0223 -0.785189 1.01719)
(39.6097 -1.06712 0.504478)
(40.0841 -1.47142 0.238439)
(42.593 -1.65864 0.161133)
(25.8234 106.775 -19.2771)
(-173.971 -4.08343 -31.1272)
(61.4705 39.0808 -2.48839)
(-47.7156 15.6357 -2.62163)
(67.7511 14.5184 0.323268)
(13.6987 -2.79347 -2.91532)
(55.3641 20.5706 2.31804)
(45.4161 2.56535 0.778948)
(59.0556 15.7472 2.62745)
(55.1617 8.71035 1.18665)
(57.3979 10.965 0.763777)
(52.4009 5.28071 -0.590298)
(50.8915 4.36578 0.0696229)
(46.6375 1.43958 1.01073)
(45.2152 3.27222 2.1541)
(43.2196 3.0266 2.65065)
(42.2945 2.68419 1.86057)
(39.7211 1.14894 0.976131)
(40.0338 0.134818 0.520543)
(42.2538 -0.825509 0.286384)
(75.8822 -235.374 -58.9304)