/*--------------------------------*- C++ -*----------------------------------*\
  =========                 |
  \\      /  F ield         | OpenFOAM: The Open Source CFD Toolbox
   \\    /   O peration     | Website:  https://openfoam.org
    \\  /    A nd           | Version:  10
     \\/     M anipulation  |
\*---------------------------------------------------------------------------*/
FoamFile
{
    format      ascii;
    class       volVectorField;
    location    "3.6";
    object      U_0;
}
// * * * * * * * * * * * * * * * * * * * * * * * * * * * * * * * * * * * * * //

dimensions      [0 1 -1 0 0 0 0];

internalField   nonuniform List<vector> 
12920
(
(300.123 -343.475 44.3626)
(53.747 -56.4229 24.4794)
(163.933 14.6311 2.42322)
(88.1284 6.94204 -6.93826)
(142.52 3.59477 -3.15518)
(116.578 -7.83045 -1.92798)
(130.745 -9.13404 0.152421)
(122.521 -11.4852 0.418683)
(125.99 -9.60649 0.543844)
(123.178 -4.23368 -0.527614)
(122.019 7.52918 -1.18315)
(110.021 12.0651 -0.789424)
(97.7862 6.34973 0.286766)
(88.119 -0.931024 0.609933)
(85.4283 -5.90799 1.32261)
(84.9504 -7.6289 1.74636)
(85.3509 -8.17132 1.85796)
(86.9777 -8.37046 1.87052)
(89.7046 -8.36339 1.52286)
(97.045 -7.20919 1.24407)
(189.772 -152.743 -133.848)
(-101.45 -90.3328 -28.8153)
(121.224 -62.6846 -10.099)
(28.263 -11.2391 -1.82351)
(111.645 -11.2359 -3.93891)
(85.5556 -1.64574 -5.01161)
(109.012 1.53725 -3.25063)
(98.2183 3.60811 -2.41418)
(100.292 4.25488 0.0650611)
(92.3266 4.45267 0.2656)
(94.2041 5.65806 0.342382)
(93.9386 8.35136 -0.00228439)
(95.585 7.96385 -0.179866)
(94.4069 5.05555 0.249771)
(90.0487 -2.27253 1.19412)
(85.2656 -6.47022 1.02566)
(82.5994 -7.97913 0.681958)
(81.4586 -8.27699 0.359968)
(82.0558 -8.10685 0.160598)
(84.7452 -6.50923 0.035677)
(124.77 31.867 -45.5818)
(83.5091 61.5543 -27.3382)
(180.533 12.141 -6.63441)
(156.586 18.2283 -3.54514)
(179.408 6.92277 -1.66878)
(161.26 8.32908 -4.50954)
(169.307 5.9755 -5.14801)
(166.072 5.29286 -5.02656)
(166.449 1.94279 -0.162763)
(144.648 3.58241 3.78374)
(121.005 8.03025 4.18486)
(103.77 11.044 2.0617)
(97.6985 7.43078 1.67027)
(89.0464 2.85102 1.93716)
(86.0973 -2.15793 1.26911)
(83.3407 -5.24652 0.794934)
(82.0757 -7.06594 0.534718)
(81.0957 -7.26935 0.392081)
(81.5632 -7.32906 0.375581)
(82.8188 -6.63829 0.291732)
(39.1562 -45.2214 6.96978)
(1.79992 -4.55702 -5.39541)
(129.075 20.9446 -2.03538)
(85.0828 28.8554 -1.31747)
(134.179 33.8446 -0.410439)
(122.92 30.7466 -1.58217)
(141.553 28.7622 -0.468721)
(137.064 24.371 -0.330335)
(136.037 23.7289 3.03123)
(114.955 24.0896 3.70657)
(104.061 20.9353 2.60351)
(93.6136 17.2974 1.49838)
(92.4775 12.4585 0.965209)
(87.8055 5.33015 0.716685)
(85.7361 -3.20897 0.436205)
(82.6344 -7.56809 0.415361)
(81.0548 -9.16643 0.257107)
(79.8684 -8.84921 0.184651)
(79.9402 -8.15557 0.30811)
(80.0844 -6.95734 0.235547)
(127.849 101.382 -56.6644)
(-63.2123 -48.9256 2.19439)
(126.817 -18.1634 -2.08639)
(69.3598 -14.5855 3.72342)
(116.162 3.29822 3.76634)
(94.9791 5.97508 2.83543)
(109.046 6.15013 2.81248)
(95.7822 9.15402 1.88638)
(98.6987 10.9399 1.5798)
(93.699 14.2355 0.850372)
(96.195 14.0306 0.335512)
(95.7887 12.5661 -0.578914)
(99.7378 7.85403 -0.595276)
(100.175 4.88696 0.114827)
(96.6232 0.740468 1.39338)
(87.1211 -3.24401 1.69626)
(81.7951 -6.08024 0.670593)
(78.364 -6.26158 0.151237)
(77.9167 -5.74844 0.151952)
(77.722 -5.65556 0.117402)
(208.129 -183.842 16.7125)
(-151.133 -35.403 6.86583)
(136.486 -36.7063 -14.9733)
(29.4826 -19.1902 4.77802)
(100.763 1.26858 3.87884)
(69.1871 11.215 1.56006)
(92.3765 17.0359 1.51622)
(82.4865 19.011 0.102349)
(88.0097 19.1807 -0.160548)
(85.2151 19.5501 -0.680576)
(86.8678 17.2578 -0.689653)
(84.6633 14.9466 -0.559948)
(82.163 10.2965 0.0882664)
(76.6027 5.81568 0.640172)
(73.3824 0.999862 0.701361)
(71.1617 -2.24527 0.318399)
(70.0922 -4.7828 0.122478)
(69.5233 -5.31928 -0.000673164)
(70.3857 -5.16182 0.042849)
(72.2052 -5.16408 0.016884)
(18.1499 -147.319 39.4993)
(-23.6507 -23.6983 -1.47463)
(114.746 -79.4991 -8.70006)
(37.2791 -40.2164 -1.54181)
(98.5264 -32.5031 3.53495)
(59.9048 -5.38586 3.68468)
(79.5548 -8.22234 2.46491)
(65.5152 10.7396 0.965904)
(74.0268 12.1562 -0.0782576)
(70.794 18.8887 -0.770078)
(74.7077 18.2309 -0.968398)
(73.6846 18.3041 -0.600556)
(75.0409 13.5657 0.137359)
(72.8533 8.10338 0.681432)
(74.674 1.59573 0.700497)
(74.6162 -2.44127 0.546405)
(73.3219 -5.34775 0.526169)
(70.7879 -5.65509 0.214535)
(70.3058 -5.37915 0.0483258)
(71.7506 -5.59418 -0.0458645)
(73.899 10.3632 28.7123)
(62.5657 -59.2059 -21.0866)
(149.51 -9.1815 -25.5127)
(113.853 -21.8475 -13.3287)
(150.742 -21.7767 -3.57336)
(118.816 -2.17487 -0.0847925)
(121.989 4.0079 0.591341)
(98.5825 9.05844 0.48265)
(81.3028 17.5938 -0.0355118)
(71.536 21.2717 -0.50778)
(71.8918 23.6419 -0.782142)
(71.6806 21.3553 -0.924805)
(72.9654 17.1912 -0.662686)
(76.2256 9.08211 -0.03033)
(78.2663 -4.36489 1.31034)
(79.1209 -4.34038 0.913859)
(77.7206 -4.07416 0.736257)
(72.8538 -2.36207 0.60315)
(71.3949 -3.0466 -0.0550854)
(73.0708 -4.54845 -0.246823)
(164.937 -190.131 -169.421)
(-35.1942 -8.87876 -35.7275)
(176.283 9.10279 -16.9134)
(118.953 1.51872 -8.86561)
(165.183 -0.912629 5.11271)
(105 4.35233 1.86114)
(99.2292 9.71704 2.73084)
(81.2952 23.7239 0.141512)
(78.1608 31.9521 -0.54738)
(70.3768 27.3639 -0.49483)
(70.183 24.4553 -0.363797)
(71.2188 21.2313 -0.363827)
(73.2996 11.6104 -0.253481)
(74.1239 -3.01691 0.521784)
(70.5708 -4.96856 0.199472)
(74.3972 -8.58267 0.342415)
(75.0804 -3.42411 0.430948)
(73.5471 -0.973762 0.0657009)
(74.2874 -1.53302 -0.31841)
(76.6405 -4.29378 -0.365651)
(137.869 -6.10807 -33.2923)
(72.7506 90.1274 -7.00992)
(161.943 11.131 4.23468)
(113.791 -7.43905 1.06518)
(142.406 -16.1079 1.07615)
(100.868 13.7595 -2.30664)
(91.7188 24.3407 2.47965)
(71.2847 21.6896 -0.600606)
(71.8824 25.5444 0.248327)
(80.697 24.0505 0.0907104)
(80.4464 16.8587 0.233201)
(75.5027 14.6538 0.178332)
(72.4117 4.89862 0.408824)
(69.8067 -3.22395 -0.474796)
(79.951 -11.7509 -0.319007)
(77.1697 -12.7991 0.903028)
(75.9884 -5.87638 0.440498)
(75.4093 -0.737703 0.146991)
(77.3446 -0.618851 0.0289139)
(78.8732 -3.20576 0.0181931)
(308.675 -89.3519 55.4671)
(291.17 -0.538013 15.3549)
(294.878 15.9643 32.9154)
(171.91 10.0341 16.8949)
(165.602 31.8616 6.05831)
(108.453 19.2765 0.854515)
(114.599 26.1495 -1.16108)
(118.665 42.0176 2.48643)
(85.6382 30.1717 -1.24729)
(75.8815 25.2371 -0.138597)
(73.4146 19.8443 -0.0655818)
(71.7046 13.3056 0.243852)
(74.9029 4.6546 -0.290702)
(86.7757 -7.35949 -0.135052)
(85.9206 -14.7554 0.561371)
(72.703 -11.1199 1.16111)
(68.4673 -4.20691 0.441551)
(67.512 -1.94049 0.350203)
(69.2142 -2.27423 0.49666)
(68.9695 -4.23648 0.437487)
(262.61 -112.702 -128.402)
(315.377 41.3538 -37.9844)
(235.388 36.0587 28.5571)
(64.9605 22.9001 11.0415)
(97.788 37.8476 6.19063)
(53.4963 34.1828 0.558942)
(81.1084 31.9999 1.04648)
(75.33 31.4782 0.600495)
(78.5641 35.9582 -0.374597)
(81.3687 31.5102 -0.515571)
(72.9996 27.0264 -0.234977)
(76.9515 13.8719 -0.696884)
(87.7453 1.1171 -0.514287)
(91.3004 -7.6833 -0.231784)
(83.9275 -14.2595 0.610579)
(65.457 -6.84464 1.52013)
(60.2097 -2.96469 1.04039)
(57.5898 -2.03254 0.359316)
(58.9223 -2.48349 0.280597)
(59.9408 -3.70592 0.125044)
(236.37 148.054 132.82)
(205.247 49.3571 22.3622)
(189.263 73.5624 11.274)
(77.8783 55.2608 5.05842)
(107.088 50.3765 4.82641)
(65.6194 11.5204 1.02871)
(85.4771 18.5316 0.76167)
(74.3475 21.8922 0.904275)
(82.3992 29.91 1.39072)
(85.3212 29.9174 0.870282)
(100.183 20.2409 -0.341422)
(109.164 9.71109 -0.956659)
(109.29 4.63317 -0.3389)
(101.097 -2.83997 0.297508)
(80.0922 -5.30697 1.52897)
(67.3212 -3.93338 1.85507)
(59.9416 -2.27244 0.847849)
(56.0391 -2.4463 0.281086)
(56.215 -3.51341 0.11226)
(56.9083 -4.35716 0.0488435)
(138.772 -137.432 -200.941)
(-55.8848 45.3676 -1.08166)
(80.9055 93.4488 4.00015)
(-8.71414 50.456 -2.81009)
(90.4873 32.7142 -0.681487)
(58.7044 5.86549 -2.39266)
(97.4759 16.8621 0.623142)
(96.7351 1.15644 0.656841)
(108.957 11.7511 1.61573)
(108.077 9.04473 1.04697)
(108.917 14.1362 0.335059)
(104.75 13.005 -0.656191)
(104.011 9.82619 -0.712733)
(100.118 0.65428 0.346309)
(93.8431 0.613305 1.55569)
(79.5246 1.48624 1.9305)
(69.3124 2.14596 1.34308)
(61.0627 0.80572 0.621309)
(59.24 -1.1437 0.341403)
(57.7342 -3.13782 0.1157)
(99.7626 65.4255 -55.1099)
(-4.15231 74.9341 -0.37323)
(141.889 81.0283 -1.76222)
(84.4103 53.8238 -4.74671)
(131.746 25.4619 -0.858715)
(96.124 2.00199 -0.308159)
(116.376 2.54008 1.46864)
(102.058 -0.94515 0.051539)
(108.311 7.07654 0.270977)
(101.071 9.3119 -0.231074)
(102.653 14.5826 -0.165716)
(99.3528 13.7268 -0.197267)
(99.7705 10.107 0.020887)
(93.3531 3.22849 0.186283)
(86.1776 3.89447 0.831948)
(75.124 6.32543 1.2136)
(66.6316 6.66782 0.946384)
(58.7265 3.99525 0.298053)
(56.4234 0.604119 0.0277287)
(54.8932 -2.30603 -0.0490243)
(-51.8299 -42.9295 10.6627)
(-34.6682 46.8059 -7.97293)
(115.913 63.4976 14.0605)
(68.018 39.3005 8.06586)
(123.177 27.722 9.5237)
(75.746 -0.0551501 3.97614)
(93.6431 7.89592 2.22452)
(74.9356 0.572543 -0.845512)
(86.3564 12.5976 -1.05927)
(80.5948 11.8571 -1.4197)
(85.7122 16.6794 -0.724396)
(82.5442 14.6108 -0.275133)
(80.6596 13.9009 0.90507)
(70.1102 10.3666 0.664822)
(65.1722 11.9398 0.309821)
(60.2484 12.2308 0.265035)
(59.1046 12.0321 0.00245406)
(56.8743 9.93626 -0.194505)
(57.8249 4.87937 -0.0553992)
(57.3227 -0.303046 -0.0744515)
(15.3915 172.952 57.3554)
(-93.5267 -83.5584 -18.2489)
(121.02 -45.8561 -1.91754)
(44.7886 -27.9162 5.44068)
(107.091 -3.92771 9.12112)
(52.0725 -8.33179 4.59634)
(80.2961 5.00896 3.45953)
(51.9565 2.93064 -0.380203)
(70.2265 12.9101 -0.763792)
(61.4898 13.8469 -1.44414)
(71.298 17.9067 -0.858574)
(67.7441 17.508 -0.499537)
(67.7097 16.6158 1.03102)
(58.7882 13.0657 0.963987)
(56.0189 11.4169 0.405318)
(54.5751 9.91184 0.0923104)
(55.49 9.44061 -0.139661)
(56.1242 7.07818 -0.223021)
(59.4236 2.87151 -0.0810626)
(60.1894 -0.449114 -0.0911434)
(104.874 -107.865 0.92993)
(-115.705 78.6102 -1.90276)
(110.839 5.58369 -7.06359)
(35.0913 -5.14833 -4.08067)
(113.816 -10.7867 -1.29823)
(74.5431 -18.2534 -0.64143)
(95.6522 -0.642928 3.30015)
(62.5626 2.74208 1.15872)
(73.5127 11.7955 0.461488)
(63.6816 12.455 -0.719636)
(72.2734 16.4306 -0.423522)
(68.7638 17.0689 -0.152364)
(69.891 18.2062 0.787952)
(64.103 16.6224 0.710537)
(61.3678 14.4553 0.275315)
(59.5198 12.1131 -0.0442541)
(60.6714 11.4435 -0.145666)
(62.6057 8.60692 -0.266475)
(66.9563 4.10495 -0.262271)
(68.5676 0.449785 -0.272231)
(43.8115 -120.721 -5.12908)
(-127.856 -103.237 -7.43551)
(68.5366 -68.685 -6.12849)
(-14.3001 -35.2011 -0.125348)
(84.2126 -7.43944 0.54859)
(26.9604 -0.372176 -2.96667)
(70.6855 14.7915 0.448884)
(37.3981 11.293 -0.988322)
(62.7363 16.6545 -0.349911)
(51.6878 15.3034 -0.955869)
(65.5673 17.4896 -0.236335)
(62.4758 17.9008 0.116657)
(67.0536 18.1195 0.799053)
(64.4247 17.4245 0.805119)
(65.231 15.3755 0.49329)
(64.0652 11.044 -0.0471595)
(66.9635 7.78882 -0.320478)
(67.9937 4.27218 -0.438366)
(69.5675 1.47636 -0.813293)
(70.1157 0.344155 -0.913227)
(255.653 190.275 -29.2618)
(165.931 117.372 -23.2343)
(164.644 -51.256 0.740354)
(46.7004 -48.7428 -5.38933)
(90.7168 -31.9337 1.68739)
(26.8112 -9.09688 0.71637)
(67.016 -1.18509 2.85079)
(38.5234 5.31698 1.46111)
(63.7999 6.72266 2.07002)
(54.3693 8.96859 1.94049)
(68.0244 9.81109 2.49015)
(66.5637 12.3484 2.96536)
(74.3499 13.7326 3.33368)
(75.9689 14.5434 3.40699)
(82.0473 14.5205 3.0735)
(84.7851 12.889 2.22287)
(89.5671 12.0801 1.49974)
(93.0544 12.9083 1.24577)
(100.341 11.6186 0.833959)
(104.754 7.08577 0.631092)
(39.3339 -91.3712 58.881)
(-98.6707 -68.7764 73.8662)
(133.114 -36.6604 8.33295)
(68.6261 -18.2365 2.89792)
(135.076 -8.01231 4.75055)
(108.771 -10.5473 2.36273)
(123.145 -8.44334 4.26749)
(113.183 -10.1011 2.78459)
(115.467 -7.1322 2.61141)
(109.28 -3.55644 1.35753)
(105.89 3.09499 1.52083)
(93.0773 5.25321 2.01052)
(85.591 1.75724 2.88929)
(80.236 -2.35482 2.58214)
(79.9757 -5.25122 3.34621)
(80.9412 -6.03647 3.75147)
(82.2673 -6.36677 3.69463)
(85.7174 -5.92617 3.45268)
(89.2775 -5.32925 2.5946)
(97.2824 -4.1218 2.15924)
(138.866 -45.0189 72.9301)
(-121.405 -38.3975 -4.90086)
(101.06 -85.8886 -29.2943)
(15.502 -34.842 -11.2074)
(96.1961 -28.3897 -9.16743)
(60.1819 -10.5615 -7.9445)
(80.9178 -0.693715 -3.53656)
(65.3509 4.67007 -3.11495)
(71.242 5.8819 -0.953495)
(66.867 3.90117 -1.51525)
(70.6717 2.91953 -0.5861)
(70.7138 2.88071 -0.334043)
(72.8607 1.49905 -0.202281)
(71.9525 -1.83792 0.439109)
(72.1216 -4.12092 1.19316)
(71.6657 -4.8177 0.876411)
(71.4975 -5.10046 0.355023)
(71.5297 -4.77402 -0.115401)
(73.1047 -4.54836 -0.385773)
(76.6622 -3.52443 -0.357224)
(62.4401 -203.616 -26.04)
(-18.4602 -48.0556 -52.7453)
(136.109 -52.1048 -45.1165)
(108.237 -15.6337 -23.749)
(137.567 -15.1543 -11.6159)
(109.387 -6.54059 -9.67357)
(114.049 -3.30974 -5.9699)
(99.8384 0.512386 -4.64749)
(101.266 2.314 1.72465)
(91.8794 4.56709 5.4083)
(88.5074 5.57376 6.05168)
(79.2173 5.68058 3.37304)
(76.0848 2.89269 2.5377)
(71.502 0.42751 2.54225)
(70.6169 -1.55069 1.7355)
(69.4072 -2.52343 1.12827)
(69.0712 -3.30636 0.717751)
(68.59 -3.30602 0.469514)
(69.6713 -3.6615 0.430556)
(72.0474 -3.37867 0.408727)
(128.142 -253.172 8.01139)
(26.6598 -128.888 15.7789)
(125.429 -35.611 -8.89199)
(63.4748 -4.23311 -4.13619)
(106.67 9.49586 -3.46065)
(80.876 9.87146 -4.22313)
(96.5476 13.3458 -0.616954)
(83.9279 12.4171 -0.24202)
(87.8134 15.2517 3.9559)
(79.9666 17.3366 4.49542)
(79.0441 16.1308 4.01481)
(72.5762 13.093 2.4503)
(71.9642 8.24702 1.43264)
(68.6395 3.44503 1.10269)
(68.0174 -1.47384 0.786155)
(67.0101 -3.60957 0.709078)
(66.6198 -4.348 0.497266)
(65.9729 -3.96581 0.360622)
(66.8555 -3.9231 0.462935)
(68.5734 -3.5518 0.379771)
(166.697 -82.5485 11.5849)
(3.56928 -85.1614 28.2126)
(118.105 -42.1245 -10.567)
(50.9263 -25.3455 1.91272)
(96.3446 -6.14276 2.63577)
(69.0454 -0.522982 2.47874)
(85.3231 3.00122 3.48764)
(70.7142 8.09544 1.79891)
(75.2906 10.4191 1.96278)
(69.8527 13.4262 1.00952)
(72.6925 12.2349 0.661347)
(70.4939 10.6117 -0.199219)
(72.2164 6.22432 -0.0886075)
(70.7825 3.37661 0.82656)
(70.2641 -0.254444 2.08302)
(68.0155 -1.5527 2.26489)
(66.495 -2.68699 1.15169)
(64.6925 -2.57337 0.485083)
(65.0782 -2.76303 0.343974)
(66.3752 -2.98701 0.247521)
(151.806 -181.988 -189.706)
(-43.2604 -74.0904 3.08667)
(107.278 -32.1218 -16.8515)
(11.3864 -14.7425 5.51888)
(83.4864 4.05223 5.06325)
(46.6554 11.9396 1.72938)
(72.761 15.8319 2.79015)
(60.4485 17.6111 0.168927)
(66.7186 17.2209 0.145071)
(62.9673 17.2759 -0.643532)
(64.5872 14.6432 -0.258232)
(61.4981 11.262 0.184319)
(61.4904 6.56488 0.965563)
(60.1236 3.52734 1.4439)
(59.8074 0.928438 1.19777)
(59.0942 -0.265925 0.59216)
(58.8592 -1.67871 0.29909)
(58.699 -2.08555 0.17867)
(60.1134 -2.54204 0.1998)
(62.6595 -2.94413 0.183308)
(85.1923 23.0681 69.5626)
(-6.50866 -11.6346 -10.5749)
(101.057 -59.8818 -22.0435)
(10.3036 -26.5514 -4.33786)
(81.51 -20.2426 3.88291)
(42.9922 2.26854 4.82829)
(66.2876 -5.49284 3.77063)
(50.8362 11.3193 1.7344)
(58.0146 9.73609 0.443102)
(52.9151 14.7628 -0.51106)
(56.2496 12.8063 -0.5273)
(54.6338 11.3604 -0.0164028)
(57.2529 5.85941 0.843543)
(57.4417 3.29519 1.261)
(59.8927 0.198268 1.15222)
(60.2439 -1.4322 0.900284)
(60.2647 -2.83372 0.744836)
(59.457 -3.19271 0.357747)
(60.3471 -3.59537 0.174963)
(62.5831 -3.91829 0.122404)
(142.116 41.966 95.675)
(110.806 -21.2787 -21.1641)
(154.419 -1.97815 -33.3164)
(79.2864 -15.1162 -17.7324)
(108.674 -9.57962 -3.42201)
(71.418 15.2469 1.45735)
(88.1759 11.6382 6.09943)
(71.9128 14.7483 6.04941)
(62.537 18.4605 2.08739)
(55.2413 18.3248 -0.156058)
(56.4421 17.1114 -0.438855)
(57.4496 13.293 0.0863267)
(61.201 8.59432 1.25675)
(65.3073 3.2578 1.82684)
(65.2296 -2.26945 1.69659)
(65.5761 -1.47459 1.33539)
(64.4334 -1.45797 1.02675)
(61.9962 -1.26143 0.675932)
(62.3633 -2.6357 -0.116129)
(64.4391 -3.83892 -0.156709)
(149.97 -104.282 -106.586)
(-23.7753 -22.6033 -44.4592)
(144.253 -2.93622 -23.6087)
(46.3898 -3.59614 -9.16182)
(105.394 4.55026 7.91222)
(83.6622 9.11365 5.24028)
(93.3522 12.8013 5.31502)
(72.2802 22.7473 1.03835)
(62.9571 26.1912 1.44723)
(58.5986 20.5113 0.466543)
(59.9222 15.8746 0.540132)
(62.2191 10.543 1.06601)
(65.1405 3.1727 2.06422)
(67.0245 -1.03999 2.62029)
(66.0049 -0.123167 0.750805)
(65.5888 -2.3529 0.608512)
(65.2468 -0.377453 0.404095)
(64.2307 -0.308235 0.0248055)
(65.1856 -2.62283 -0.523982)
(67.0213 -4.69662 -0.40046)
(148.014 -20.6009 -39.8903)
(26.2201 33.0765 -39.8369)
(128.005 -30.4435 -12.3515)
(72.1243 -18.5447 -6.81946)
(104.109 -6.39789 -1.20348)
(81.3341 12.8546 -1.49914)
(90.1484 26.0471 3.92345)
(67.8364 27.7224 3.06686)
(65.8815 21.3997 2.71578)
(67.8578 16.2663 0.975386)
(66.3952 12.0154 0.924408)
(64.8778 7.78945 1.16227)
(64.1457 1.61467 0.959607)
(65.1251 -3.33894 -0.757757)
(67.9346 -7.98375 -0.0249065)
(66.3388 -4.96244 1.05709)
(66.6772 -0.941585 0.401162)
(66.1844 -0.233175 0.176095)
(67.8383 -2.18818 0.106701)
(68.3052 -4.34925 -0.0149274)
(193.98 -43.0774 -93.9641)
(76.2064 52.0563 -14.7033)
(170.251 28.4058 34.2675)
(98.9747 16.9587 15.7903)
(114.296 33.4565 7.10132)
(87.9677 23.7311 -3.38382)
(90.5818 25.8506 -3.08178)
(98.6691 32.64 3.09003)
(86.2849 27.7452 5.10133)
(69.616 18.553 0.842738)
(65.7742 13.4831 0.484716)
(65.87 7.63592 0.170344)
(69.7091 0.772511 -1.16612)
(72.7903 -5.88863 -0.677414)
(68.7327 -9.13266 1.38475)
(61.0134 -4.28969 0.989004)
(60.6677 -1.20434 0.463006)
(60.1278 -1.01668 0.422185)
(61.5757 -2.4064 0.77494)
(61.3113 -3.64688 0.415973)
(161.455 -76.0727 -63.9577)
(13.8825 -28.5568 4.69217)
(117.106 18.1915 41.0698)
(4.95477 21.4875 8.7774)
(70.4096 38.9109 7.179)
(39.6025 32.453 -0.86972)
(74.5362 29.838 1.07209)
(76.5409 29.3291 4.75196)
(77.211 30.7874 3.05814)
(72.684 23.6834 0.878548)
(68.6153 16.0446 -1.269)
(69.7028 6.66475 -2.72262)
(71.3776 -0.774773 -2.00323)
(70.3642 -5.28478 -0.530064)
(63.3625 -7.68943 1.65932)
(52.7986 -2.0367 1.89924)
(52.7608 -0.94287 1.28087)
(51.4468 -0.662743 0.629168)
(52.8771 -1.25395 0.488269)
(53.5527 -2.17296 0.0816316)
(344.024 94.656 -77.1)
(110.983 3.32989 -23.0792)
(132.966 67.2728 19.2861)
(31.6967 50.9366 8.15479)
(87.7163 46.2452 7.9178)
(48.9361 7.84597 2.41093)
(74.3364 18.2512 3.42116)
(63.0438 20.6144 3.53683)
(72.3182 24.4703 3.28643)
(74.8114 21.0685 1.85302)
(80.5042 13.6576 -0.366868)
(78.112 6.82224 -1.40894)
(74.5279 1.40071 -0.674119)
(69.1276 -1.94067 0.0993905)
(57.648 -1.03371 2.39916)
(53.4666 -0.709295 2.75132)
(50.1827 -0.562376 1.25525)
(47.906 -1.09809 0.508449)
(48.5221 -1.96692 0.196521)
(49.5426 -2.57792 0.0391802)
(34.2931 -69.8896 60.7404)
(-148.979 33.1514 -13.407)
(60.553 71.7964 2.14048)
(-36.6747 38.8914 -4.64101)
(75.0399 28.0204 -0.93296)
(33.1528 5.80701 -3.1297)
(73.0397 22.5666 2.12028)
(68.1006 6.4642 1.32827)
(80.7055 17.9475 2.72735)
(78.0592 12.8138 1.37464)
(78.8978 15.1489 0.610791)
(73.8475 9.9387 -0.758675)
(72.0453 6.8236 -0.185991)
(67.4371 1.71008 1.19399)
(64.7323 3.7775 2.63385)
(58.2414 3.53273 3.10922)
(53.8001 3.20395 2.06858)
(49.2233 1.40794 1.016)
(49.0095 -0.133579 0.549541)
(49.0855 -1.5693 0.172273)
(105.627 -32.7585 -111.913)
(17.9846 27.1269 -41.7613)
(134.981 41.9399 -11.8067)
(51.1219 25.8087 -4.39934)
(101.286 9.04562 4.16627)
(57.9809 -5.06254 0.339757)
(87.0631 4.96176 2.85471)
(71.0158 4.8156 -0.110015)
(79.1341 14.4662 0.54169)
(71.6187 13.8085 -0.425661)
(73.4842 15.1793 0.0779041)
(68.7829 11.0309 -0.00800486)
(67.7977 7.25962 0.733918)
(61.4807 4.58737 0.861258)
(58.1002 6.60905 1.75234)
(53.584 7.46262 2.0901)
(50.396 6.52059 1.46832)
(46.4258 3.65401 0.52433)
(46.1413 0.88454 0.108305)
(46.4421 -1.23291 -0.0211615)
(107.22 -115.84 12.9219)
(-89.2566 35.3859 6.6067)
(103.945 54.5751 7.06218)
(24.8358 24.6093 9.32275)
(95.6548 21.1863 15.3982)
(46.9414 -0.328668 4.39797)
(73.8689 13.2908 3.33381)
(53.7357 6.28471 -1.62849)
(65.7475 17.9468 -0.968792)
(57.579 14.4285 -1.58475)
(62.0595 17.3311 -0.278619)
(56.72 13.2953 0.112979)
(56.4098 12.202 1.70025)
(50.5167 9.4774 1.1295)
(48.9037 10.3801 0.721597)
(47.071 9.77796 0.478043)
(47.4025 9.13521 0.125036)
(46.079 6.38099 -0.113)
(47.4418 2.49642 0.00342785)
(48.1794 -0.563843 -0.083106)
(124.04 5.26163 210.534)
(-93.8223 -28.7705 -72.0525)
(114.432 -9.10707 -8.50473)
(9.98513 -2.40803 5.32187)
(88.9229 11.6601 11.9001)
(25.0643 0.146704 3.81844)
(64.166 11.4472 3.78149)
(33.6768 6.53299 -1.36681)
(53.6088 15.6169 -0.843133)
(41.3833 13.8411 -1.90181)
(50.7036 16.402 -0.516193)
(45.0206 13.9387 -0.0906884)
(47.8203 13.0615 1.29995)
(44.6569 10.7113 0.953071)
(45.5148 9.60966 0.507111)
(44.9674 8.0717 0.0747419)
(46.6252 7.00643 -0.265681)
(46.7946 4.34549 -0.300838)
(49.0984 1.40829 -0.190006)
(50.0933 -0.678195 -0.204608)
(148.31 47.7907 -161.721)
(-45.5585 96.9631 -17.421)
(103.193 38.1363 -30.702)
(5.18272 26.7137 -5.11544)
(84.4242 20.285 -2.70213)
(28.0895 6.15195 -1.78605)
(64.9371 12.6904 4.05208)
(36.0583 7.24963 0.419781)
(53.8968 13.8926 0.840989)
(42.4945 12.0189 -0.975167)
(51.9222 14.5582 0.0137561)
(47.3785 13.5047 0.14319)
(51.1293 13.6996 0.98007)
(49.1103 12.2787 0.561304)
(50.7754 11.1003 0.141236)
(50.5112 8.95093 -0.378558)
(52.8928 7.63454 -0.528235)
(54.0119 5.36803 -0.660268)
(57.0649 2.36216 -0.570344)
(58.2155 -0.0187196 -0.468227)
(-5.55249 9.47621 -47.3478)
(-164.554 -44.1746 -25.9563)
(27.6754 -23.5728 -12.2027)
(-65.7631 -8.94129 -0.25371)
(65.9464 11.2827 0.263006)
(-6.57187 5.65667 -3.58891)
(54.4812 17.9903 0.946194)
(19.4768 11.3417 -2.00438)
(49.2096 15.8319 -0.530863)
(36.2326 12.9402 -1.35512)
(51.055 14.0451 0.02523)
(47.8827 13.1197 0.104881)
(54.827 12.9985 0.860621)
(54.5535 11.5823 0.464316)
(58.499 9.84536 -0.0742921)
(59.5768 6.94745 -1.0868)
(63.0453 4.7412 -1.52233)
(64.2828 2.56055 -1.80499)
(66.4728 0.706053 -2.07297)
(67.4411 -0.277175 -1.73245)
(266.825 271.262 35.7194)
(35.198 85.942 61.4015)
(140.742 -16.6535 1.43149)
(8.74847 -28.6199 -6.40843)
(74.1471 -20.1602 -2.75412)
(8.63033 -4.79208 -0.866146)
(59.7375 -1.98482 4.02434)
(30.8547 2.78134 2.34956)
(58.1367 3.9201 4.23344)
(48.3384 6.31506 4.04259)
(62.6393 7.12637 5.20283)
(61.7227 9.67004 5.62664)
(71.4285 10.8773 6.27715)
(74.4822 11.6103 5.97209)
(83.1788 10.9245 5.58555)
(87.4491 9.23344 4.15209)
(93.3729 8.69183 3.0932)
(98.1601 9.88256 1.82719)
(105.803 7.60744 0.636291)
(108.719 3.56535 0.656196)
(23.9377 44.406 -96.3638)
(7.60592 -4.53425 7.17309)
(137.046 18.2777 -3.77146)
(68.2478 12.1289 -1.53777)
(126.47 8.14664 6.15332)
(96.377 -1.04972 3.22315)
(111.366 -1.2106 6.00532)
(100.115 -3.98827 3.76017)
(101.598 0.142918 3.75949)
(91.8285 3.49564 2.46437)
(86.9761 5.82815 3.35193)
(76.9938 4.49909 3.90033)
(74.6526 1.66667 4.34789)
(72.9486 -0.837714 4.44871)
(74.1595 -2.1823 4.87264)
(76.9517 -2.45027 4.98263)
(79.9456 -2.48266 4.40105)
(84.9024 -1.7592 3.71761)
(88.7272 -1.43403 2.40083)
(96.1793 -0.821178 1.97743)
(162.056 -22.134 -168.098)
(-77.3098 -43.4266 -36.5694)
(107.018 -90.4165 -39.5197)
(9.95307 -39.3298 -10.6905)
(84.4559 -30.7015 -5.9524)
(41.0429 -10.5028 -6.47451)
(64.0683 -0.3768 -2.9741)
(46.8391 4.43907 -4.71941)
(55.657 5.38633 -2.77306)
(51.4547 3.36359 -3.23925)
(56.0225 2.45456 -1.56918)
(55.8579 1.82078 -1.12838)
(58.1017 0.387986 -0.884266)
(57.8803 -1.62994 -0.444667)
(59.4307 -2.3483 0.0957383)
(60.461 -2.38835 -0.190998)
(61.3183 -2.58464 -0.541289)
(62.0203 -2.15259 -0.857545)
(63.8981 -2.17013 -1.02709)
(67.5531 -1.60961 -0.669693)
(337.088 111.12 23.2682)
(216.28 -8.44988 -22.7021)
(208.881 -63.8182 -58.3711)
(122.188 -24.971 -31.9646)
(123.231 -17.711 -11.2103)
(79.6666 -7.01596 -8.7074)
(82.5328 -2.86676 -4.45362)
(63.6016 1.61979 -4.59221)
(65.532 2.94358 0.415742)
(59.2266 4.20266 2.92069)
(61.5599 3.94659 4.18037)
(58.4373 3.74107 2.61641)
(57.7483 2.03968 2.08527)
(56.0094 0.78743 1.92447)
(56.6489 0.097006 1.36689)
(56.6979 -0.316296 0.852363)
(57.121 -0.984459 0.50394)
(57.0888 -1.07581 0.285437)
(58.5767 -1.6053 0.267736)
(61.2966 -1.55077 0.446029)
(126.816 -162.311 60.9489)
(66.5681 -113.029 17.7502)
(130.056 -35.308 -7.64026)
(55.9711 -11.1239 -5.40622)
(88.9674 1.70073 -1.82646)
(52.3469 2.55947 -3.92005)
(68.5413 8.4065 0.15565)
(52.2401 8.97979 -0.971683)
(58.6261 12.0437 3.03376)
(53.7542 13.1926 3.21636)
(56.7427 12.3699 3.36525)
(54.0522 10.006 2.19113)
(55.069 6.41622 1.33502)
(53.4652 3.20554 0.971741)
(54.18 0.164305 0.735574)
(54.0971 -0.971654 0.630722)
(54.3452 -1.5558 0.448342)
(54.1463 -1.42302 0.333657)
(55.5567 -1.79214 0.418946)
(57.9038 -1.76008 0.462918)
(134.392 -113.571 -121.662)
(15.3939 -86.7833 4.03283)
(116.702 -39.0312 -5.3543)
(42.0003 -24.0023 2.62741)
(81.3387 -6.26143 2.51737)
(47.362 -1.45725 1.72323)
(65.5892 1.92201 3.133)
(49.4061 7.628 1.20885)
(56.1782 8.9976 1.90132)
(50.7108 11.547 0.939064)
(54.2301 9.82835 0.987741)
(52.0862 8.31097 0.115285)
(53.6663 4.75707 0.251179)
(52.3174 2.81826 0.823505)
(53.2808 0.758412 1.58238)
(53.4427 0.315775 1.69976)
(53.724 -0.503001 1.00555)
(53.0591 -0.657629 0.484084)
(54.1092 -1.16924 0.393144)
(56.0613 -1.51454 0.378543)
(161.931 -41.6107 -136.648)
(-26.6208 -51.142 -4.66887)
(98.8567 -16.6005 -18.9236)
(-4.50837 -6.03631 1.02803)
(68.5311 8.39111 3.3654)
(25.7592 12.5479 0.911216)
(55.8564 13.7622 3.15766)
(42.3069 15.0995 0.360347)
(50.3734 14.0935 0.609369)
(46.2315 14.1089 -0.217927)
(48.3059 11.7032 0.255438)
(46.0372 8.74241 0.510603)
(47.2729 5.27395 1.00011)
(47.3578 3.63377 1.33033)
(48.2586 1.97689 1.00765)
(48.4291 1.34028 0.524061)
(48.6764 0.11816 0.305074)
(48.8803 -0.306602 0.250442)
(50.5974 -1.07935 0.210427)
(53.4516 -1.61142 0.340981)
(137.326 -43.0108 33.7953)
(-23.399 -19.0453 -22.2246)
(93.4949 -50.5563 -19.8799)
(-1.67873 -18.5762 -4.97377)
(69.3846 -13.5711 3.32985)
(27.1511 5.46354 4.12659)
(52.8103 -5.71192 3.56995)
(36.367 10.9592 1.73377)
(44.5498 7.22842 0.927855)
(38.9882 11.9923 -0.0482719)
(42.6669 9.15853 0.129142)
(41.4812 8.0945 0.363966)
(44.326 3.8508 0.754667)
(45.0364 2.96688 1.15009)
(47.5919 1.26389 1.10127)
(48.3984 0.215955 0.932896)
(49.18 -1.03972 0.675365)
(49.119 -1.47524 0.35252)
(50.6903 -2.23723 0.186883)
(53.417 -2.55076 0.299208)
(217.096 21.0815 45.5888)
(167.174 -2.60977 -9.71314)
(168.714 2.03159 -27.9062)
(64.3278 -10.4722 -15.9762)
(86.0481 -1.87433 -2.95655)
(43.4971 23.9901 1.36064)
(61.4881 15.4009 6.23527)
(48.4688 17.0659 5.59005)
(46.331 16.596 1.81851)
(41.6112 15.0374 0.0106263)
(43.5669 13.0208 -0.203172)
(45.1782 9.34648 0.368851)
(49.3225 5.99314 1.24873)
(52.8498 3.56737 1.86599)
(51.9065 0.098257 1.9081)
(52.5863 0.645773 1.46732)
(52.2681 0.146397 0.959572)
(51.3698 -0.373152 0.543)
(52.5391 -1.968 -0.070508)
(54.9018 -2.74636 0.099601)
(280.048 -131.952 4.30527)
(29.6016 -40.0489 -52.2083)
(137.273 -1.71817 -11.5263)
(17.315 3.83187 -6.78876)
(75.5728 12.6485 5.96199)
(47.1541 19.5557 4.21358)
(63.4282 19.5033 5.80671)
(51.504 22.2641 2.5409)
(48.6137 20.9841 1.64806)
(47.5099 15.0733 0.408288)
(49.3876 10.5988 0.524082)
(51.648 5.8879 1.09062)
(54.5361 2.39804 2.02324)
(56.8057 1.39421 2.25277)
(56.4533 3.41459 1.23357)
(54.1182 0.952842 1.06515)
(53.9172 1.19706 0.557395)
(53.2513 0.0704647 0.0623848)
(54.4676 -2.98314 -0.327846)
(56.3201 -3.74714 -0.11429)
(294.483 -79.162 47.343)
(71.8061 30.5547 -44.1458)
(123.101 -5.65107 -24.9327)
(48.5215 1.18504 -8.43185)
(77.9458 8.75716 -1.09502)
(49.3326 24.9233 -0.328302)
(59.4283 30.4359 4.88503)
(53.911 25.9989 3.74292)
(55.1065 17.5335 3.03098)
(56.1566 12.075 1.10755)
(55.2998 8.36127 0.711494)
(54.5369 4.76295 0.765557)
(54.9119 1.41961 0.335723)
(55.7447 -0.701868 -0.195233)
(56.4155 -2.431 0.484699)
(54.2655 0.353429 1.27239)
(55.0141 0.835733 0.739209)
(54.65 0.0487395 0.418892)
(56.1778 -2.98967 0.316234)
(56.7825 -3.69399 0.0828312)
(32.304 24.3031 86.2579)
(-118.441 50.3465 13.5177)
(80.183 41.8022 28.5519)
(30.6601 22.608 10.176)
(76.9853 37.2545 5.14119)
(51.6036 24.7381 -4.53928)
(58.8012 26.2515 -2.65249)
(63.8018 26.8757 2.97527)
(62.9389 20.8305 5.90019)
(59.5968 13.8063 0.866263)
(57.77 10.624 1.55377)
(58.3732 6.30596 -0.502806)
(58.978 1.22936 -1.43521)
(58.8187 -2.5104 -0.614238)
(55.1057 -3.51132 1.42076)
(50.6017 -0.311178 1.0665)
(50.9918 0.246443 0.674869)
(50.3367 -0.575773 0.747448)
(51.4697 -2.23595 0.894517)
(51.5128 -2.67347 0.306531)
(200.983 -190.214 -24.4392)
(-62.2008 -42.9036 -7.32328)
(93.0919 12.8104 22.3137)
(-30.4729 18.1405 4.84114)
(52.7447 36.9383 4.82461)
(13.6577 27.178 -2.0857)
(49.3318 23.7166 2.3612)
(55.2511 23.131 5.71052)
(60.6181 23.8037 4.30097)
(59.8561 18.0691 1.20953)
(58.0703 11.212 -1.6087)
(56.8656 5.02969 -2.81478)
(55.9077 0.760635 -2.04649)
(54.0988 -1.63366 -0.493868)
(48.4977 -2.18951 1.84068)
(43.0851 0.562864 1.9485)
(44.3819 0.452533 1.20555)
(43.5147 0.301968 0.761693)
(45.0998 -0.324409 0.458801)
(45.7547 -1.0889 -0.0149557)
(207.403 26.3464 -193.345)
(-11.8622 64.8615 22.4816)
(87.3406 74.9563 24.4683)
(-4.49103 45.1602 7.28743)
(72.5296 41.3514 6.77279)
(30.2538 3.72982 2.18911)
(57.9406 16.9473 4.40665)
(46.1656 19.3885 3.63918)
(56.6124 21.801 3.05339)
(57.3313 17.4813 1.59355)
(60.0372 11.1654 -0.409633)
(55.864 5.85814 -1.28367)
(52.934 2.304 -0.787453)
(48.8673 0.774571 0.46647)
(41.5628 1.45477 2.48534)
(41.7072 1.11274 2.23513)
(40.8446 0.619513 1.09092)
(39.6763 -0.046222 0.510161)
(40.6884 -0.826909 0.116174)
(42.0077 -1.38644 -0.017974)
(26.304 141.563 -29.6803)
(-177.69 18.1032 -32.353)
(50.8926 53.0065 -2.2361)
(-54.9229 27.6656 -2.62157)
(62.0677 24.0574 -0.0739218)
(10.1155 5.58575 -2.66382)
(51.6181 27.0751 2.47898)
(42.8012 8.47277 1.09231)
(56.7638 20.4717 2.67255)
(53.354 12.815 1.25133)
(55.843 14.2763 0.780788)
(51.1374 8.10675 -0.572315)
(49.7984 6.70286 0.0317084)
(45.7073 3.49116 1.00487)
(44.4732 4.96289 2.06411)
(42.68 4.34914 2.53495)
(41.7932 3.70106 1.7751)
(39.4766 1.89941 0.870889)
(40.2975 0.625979 0.369539)
(41.2423 -0.612988 0.0807241)
(63.8626 -202.751 -58.5088)
(-41.0903 10.9058 -32.9568)
(101.446 23.0422 -4.31812)
(4.53181 12.8737 -2.44586)
(77.207 4.29313 5.02294)