/*--------------------------------*- C++ -*----------------------------------*\
  =========                 |
  \\      /  F ield         | OpenFOAM: The Open Source CFD Toolbox
   \\    /   O peration     | Website:  https://openfoam.org
    \\  /    A nd           | Version:  10
     \\/     M anipulation  |
\*---------------------------------------------------------------------------*/
FoamFile
{
    format      ascii;
    class       volScalarField;
    location    "4.7";
    object      k;
}
// * * * * * * * * * * * * * * * * * * * * * * * * * * * * * * * * * * * * * //

dimensions      [0 2 -2 0 0 0 0];

internalField   nonuniform List<scalar> 
12920
(
808.632
650.755
517.563
508.944
500.489
404.602
318.117
276.82
225.227
189.479
158.239
137.945
125.839
117.888
112.107
103.271
94.754
84.0568
79.2386
73.5498
1596.15
1748.38
1210.05
572.737
404.054
366.07
342.543
338.097
320.534
280.7
228.103
199.012
182.302
177.224
174.746
171.825
169.606
166.12
164.377
159.688
2706.68
1978.84
1453.44
716.166
533.656
462.263
389.566
360.489
297.544
261.161
220.712
203.017
188.511
183.507
177.838
173.718
171.782
170.231
170.04
168.034
1036.01
2072.34
1302.15
673.525
537.902
429.345
348.286
297.111
253.901
226.019
203.004
189.358
177.669
169.877
162.944
157.697
155.644
155.951
158.252
161.077
4914.77
3470.68
2234.88
1082.83
692.881
531.189
455.075
362.979
309.777
270.082
237.799
217.593
199.799
185.492
171.412
159.881
153.312
149.803
149.685
151.183
5886.76
3533.18
1980.09
1362.64
909.489
783.796
628.609
536.868
394.996
304.909
259.026
239.422
226.46
213.314
197.091
178.357
160.569
145.499
137.503
135.768
6523.01
3446.62
2110.58
1457.98
927.667
747.095
530.324
409.213
319.479
275.005
272.115
267.788
256.965
240.813
218.204
195.801
171.465
146.999
131.926
121.793
1913.76
2699.51
2317.5
1546.46
904.862
685.951
396.379
234.905
205.736
202.625
203.013
190.102
175.722
160.305
247.881
207.704
182.922
157.602
138.696
119.57
2124.83
1615.96
1109.82
927.764
637.366
390.061
297.761
123.082
108.728
119.649
124.86
118.384
114.289
97.3828
142.997
197.315
185.016
166.958
151.383
123.792
1301.45
1977.44
1902.92
1095.68
588.865
244.735
154.237
95.5487
89.5696
92.073
97.1015
97.9789
90.9327
77.7017
121.726
190.754
178.497
167.422
160.009
137.353
623.873
2286.09
2402.98
2196.48
1531.11
775.623
320.031
125.263
128.527
118.574
115.478
108.963
97.8254
90.164
151.689
205.35
180.923
169.541
163.066
143.298
2824.77
4839.25
3516.26
1796.51
1003.94
552.144
272.967
152.504
152.8
110.825
99.9511
103.401
100.438
92.0827
148.881
193.93
168.122
160.27
157.657
144.737
614.317
2608.23
2455.02
1601.97
946.317
728.323
416.339
306.231
275.057
213.523
195.56
192.938
186.842
168.194
229.874
189.368
164.658
150.665
146.803
137.775
2729.42
3221.59
2079.76
1246.91
907.018
806.364
649.248
602.294
539.683
499.147
446.68
378.157
312.737
258.66
223.338
194.428
173.238
154.382
143.364
130.658
749.332
1310.45
1927.34
1534.02
1124.51
975.874
826.791
763.751
671.17
599.506
508.36
404.816
317.244
250.202
213.616
189.906
173.474
157.428
145.202
129.494
481.541
1237.86
1301.95
1126.99
1038.01
973.707
840.613
775.643
678.91
571.359
440.735
328.537
249.177
194.004
169.019
155.136
149.119
142.009
136.731
126.237
144.681
752.277
883.694
868.991
768.477
680.358
598.83
563.579
514.894
417.193
309.323
230.947
185.929
162.545
147.284
133.525
124.989
120.466
118.918
115.561
86.9183
576.951
885.091
882.3
813.451
742.382
628.068
559.817
511.848
440.675
332.214
239.572
188.575
166.301
149.475
131.824
114.286
103.504
97.8408
96.867
584.197
1209.77
1134.1
867.813
580.122
497.626
435.755
382.522
315.507
260.071
211.32
184.795
179.486
183.204
181.793
166.106
138.41
118.111
103.167
92.6171
207.864
671.9
512.836
415.7
336.898
292.741
238.879
220.895
185.863
164.793
144.936
141.999
143.598
143.659
139.269
124.318
112.701
98.7392
92.5275
79.6491
463.151
986.997
1011.47
1154.36
1186.63
926.224
633.146
530.945
464.416
418.5
355.998
320.653
296.283
284.622
275.701
260.891
246.307
226.535
218.569
201.045
7807.53
4657.26
3231.76
1502.15
1099.32
1030.62
911.432
907.208
797.679
731.845
594.837
567.456
534.948
534.172
528.642
521.409
509.756
502.422
498.654
488.528
2670.53
5185.15
3865.05
1817.34
1435.93
1181.09
968.392
908.027
749.168
703.841
605.863
587.134
551.97
546.499
532.178
524.268
516.221
513.603
512.532
505.39
1748.03
6101.75
3300.63
1591.85
1419
1090.51
892.727
795.194
686.508
627.308
571.145
545.282
517.242
504.465
489.886
482.311
481.175
483.527
491.996
494.81
6920.81
4998.27
2902.03
1861.72
1411.14
1252.92
1046.51
942.938
811.191
727.843
643.918
607.994
561.502
536.416
503.564
483.516
472.954
468.788
468.426
469.026
12128.8
6067.79
2810.31
2402.3
1873.43
1824.56
1472.7
1273.31
959.823
807.973
698.221
655.804
616.191
584.504
545.05
508.253
471.25
440.194
426.328
418.251
7101.05
5775.61
3501.44
2708.62
1809.8
1723.11
1333.92
1044.72
850.687
739.12
713.462
690.764
650.517
615.057
563.699
523.093
475.814
426.173
396.695
375.753
6055.66
7009.59
4101.4
3180.74
1824.92
1621.05
1289.08
1016.94
868.596
799.247
760.726
714.594
655.481
593.741
574.492
525.919
482.048
432.876
396.355
363.031
6827.94
3958.17
2606.2
2368.98
1451.45
1247.09
1167.24
886.799
771.704
743.764
718.797
663.436
592.714
514.191
466.576
495.726
493.22
466.764
422.214
368.654
5866.93
5972.03
4736.32
2380.97
1270.27
945.786
965.928
782.239
662.656
641.782
616.465
504.933
408.963
361.017
365.307
448.719
460.602
463.303
459.021
417.762
969.272
5978.59
6146.46
4814.48
2766.32
1949.66
1254.35
843.632
732.921
674.722
594.181
514.192
480.665
447.263
446.528
469.368
449.038
445.632
444.065
423.925
2953.65
10677.5
8602.74
3880.77
2019.67
1586.76
1304.81
1019.87
852.922
683.058
612.839
581.658
545.356
502.358
482.695
481.443
451.91
439.713
433.425
412.695
2382.6
6692.7
5940.89
3399.09
2184.01
1877.47
1481.77
1218.05
1047.05
857.461
795.222
751.466
696.051
621.969
595.69
518.329
470.602
440.232
425.35
404.074
7945.64
7709.54
5163.63
3045.99
2485.82
2202.38
1777.23
1607.52
1400.79
1279.25
1142.74
1001.04
858.928
737.377
644.231
564.203
503.962
457.009
425.664
396.955
3323.94
4493.24
5750.1
4248.99
3034.62
2545.48
2093.22
1882.48
1617.05
1440.74
1243.17
1054.39
858.241
704.692
619.126
550.795
498.485
458.342
426.068
391.477
352.595
3047.06
3805.62
3198.41
2799.08
2543.19
2172.66
1975.95
1675.95
1410.18
1100.68
849.81
672.548
558.028
510.599
474.08
447.727
424.671
405.84
380.319
254.523
2334.4
2697.68
2573.35
2120.11
1891.61
1582.76
1507.09
1345.21
1092.1
789.363
617.537
525.183
475.555
437.989
405.06
382.019
368.79
360.354
347
104.23
1117.76
2401.14
2586.52
2387.52
2105.12
1755.63
1644.78
1450.5
1186.6
804.383
615.371
531.076
480.321
434.999
390.398
343.33
319.86
304.958
300.427
4552.76
4447.47
3376.59
2325.77
1760.77
1625.84
1394.11
1215.54
887.477
680.039
544.215
521.811
499.871
499.689
500.548
489.41
431.893
356.383
331.339
317.197
2150.69
2600.18
1385
799.091
612.548
568.24
540.898
494.602
419.681
360.208
324.48
306.468
291.142
266.54
234.929
202.271
183.353
180.921
177.89
159.562
1106.36
2164.41
2021.3
1708.33
1536.03
1094.7
718.258
584.976
516.242
471.392
425.998
397.304
375.098
355.136
336.186
312.334
294.02
270.326
260.27
236.682
6361.42
6021.48
4379.34
2238.77
1639.33
1395.99
1206.33
1134.2
969.692
920.765
826.141
816.739
795.644
793.389
780.894
764.789
742.558
722.77
707.793
679.794
2191.23
6873.93
5239.51
2664.51
1984.22
1521.37
1295.46
1140.24
976.72
915.163
840.631
825.738
798.353
790.653
772.471
757.144
740.763
726.09
714.994
692.175
7309.4
10315.6
4759.03
2534.99
2062.94
1512.08
1286.6
1082.35
946.275
855.843
801.537
771.902
747.971
735.263
719.694
709.221
702.396
695.383
691.901
681.367
11713.4
6836.65
3999.73
2440.44
2134.41
1737.07
1464.62
1239.34
1064.73
937.041
853.591
805.725
761.638
735.012
706.023
686.9
674.02
662.755
655.583
647.363
7222.94
6711.68
4119.41
2870.52
2494.44
2215.21
1727.92
1472.62
1179.96
1021.12
921.93
861.919
806.29
760.056
712.878
672.741
639.203
612.034
596.674
584.279
10121.6
8773.68
4714.09
3114.6
2486.37
2185.23
1655.26
1318.88
1130.07
1000.78
955.917
905.873
842.499
787.261
723.668
673.273
624.38
580.973
553.974
533.444
7862.39
8039.88
4909.84
3406.75
2386.66
2053.27
1784.57
1429.9
1210.12
1104.13
1020.39
956.422
868.364
795.85
739.895
685.306
634.966
582.612
546.557
515.147
15099.4
8305.1
4504.95
3130.85
2043.99
1813.22
1704.05
1342.81
1171.78
1091.09
1021.24
920.677
816.998
729.08
679.1
687.922
666.01
617.696
572.817
524.534
8857.26
8228.19
6171.08
3143.74
1926.38
1495.11
1511.65
1220.76
1064.74
1017.03
904.969
687.226
556.307
526.275
560.353
636.932
642.604
637.308
618.052
562.948
7870.24
9396.9
8760.1
5625.74
2960.94
2021.65
1491.96
1210.33
1069.71
993.315
638.76
557.978
633.891
612.759
607.307
619.35
612.336
610.007
602.354
572.769
7390.49
12058.6
11080.5
5266.53
2532.41
1931.45
1719.41
1389.49
1140.65
974.029
880.965
816.356
753.02
689.392
646.106
627.685
606.124
595.718
586.98
565.067
5884.48
8228.13
7576.56
4376.8
2856
2464.24
2037.87
1583.55
1339.17
1148.22
1076.21
997.17
912.606
813.734
748.564
672.476
627.239
598.437
584.321
562.991
7589.34
9386.56
6547.3
3992.53
3341.79
2912.9
2294.31
2006
1711.08
1534.67
1355.34
1191.98
1047.11
918.133
809.683
718.757
658.165
614.203
588.976
563.723
4909.64
8700.96
8083.2
6011.89
4248.45
3431.74
2715.68
2318.66
1924.21
1665
1423.23
1219.71
1047.77
901.231
795.482
711.725
655.957
614.941
587.974
560.412
5183.59
5998.35
6157.95
4970.07
4098.99
3497.33
2846.85
2409.95
1948.23
1591.01
1277.12
1059.06
904.946
784.04
710.137
651.24
613.88
584.154
563.925
541.866
900.265
5058.47
4566.59
3763.64
3106.57
2729.89
2269.8
2071.89
1683.15
1368.06
1054.97
866.048
742.135
663.011
611.343
570.395
543.261
523.175
509.316
494.8
1412.29
4283.8
4402.88
4104.49
3446.74
3036.07
2429.74
2200
1782.02
1436.54
1068.24
846.803
710.697
629.171
573.107
529.156
492.724
469.315
451.84
445.967
4867.31
5834.87
4395.33
2854.01
2335.22
2114.28
1783.25
1516.51
1156.9
936.427
761.51
682.805
619.708
596.143
573.759
548.161
506.929
473.071
448.914
420.676
6780.08
5502.82
1928.3
886.371
797.244
724.274
689.198
579.783
489.841
411.387
361.235
320.592
280.651
234.271
195.488
182.691
183.732
184.942
178.815
143.141
2286.67
2625.79
2353.51
1923.33
1645.24
1116.01
732.544
580.211
520.359
471.93
438.79
408.532
383.23
359.174
337.331
312.801
295.545
271.093
258.936
228.141
11078.1
8377.02
5518.46
2925.92
2100.88
1609.18
1441.74
1236.3
1125.06
1046.57
1008.65
996.244
991.969
987.755
974.321
950.157
923.025
892.094
866.851
827.423
8035.04
12199.8
7644.17
3548.75
2489.59
1766.8
1572.18
1283.64
1173.2
1069.94
1036.43
1006.31
996.81
979.362
963.441
937.4
917.067
890.789
870.197
838.573
41961.1
19733.5
7002.16
3453.57
2619.61
1810.91
1601.75
1265.47
1154.1
1024.31
991.586
947.378
935.24
915.185
904.622
886.384
876.147
858.574
846.727
825.603
8908.82
10241.2
5622.1
3116.98
2784.39
2025.46
1800.42
1406.62
1261.45
1082.27
1025.39
954.67
924.955
889.235
868.19
845.675
832.235
814.152
802.549
787.755
8242.06
7220.73
5216.58
3345.31
3108.78
2418.87
1990.67
1582.64
1352.76
1163.44
1089.18
1002.33
948.544
888.516
843.395
801.785
773.749
748.642
732.993
719.126
24819.5
7923.47
5682.34
3489.43
3178.57
2453.74
1948.94
1515.14
1354.04
1180.21
1137.49
1047.23
978.935
902.288
837.846
782.305
739.018
702.939
680.502
664.628
18195.6
9379.43
6073.79
3700.84
2997.68
2392.3
2067.2
1682.77
1432.34
1309.29
1193.93
1111.59
1002.32
923.368
853.566
791.104
740.584
694.74
665.768
643.766
30119.5
10512.4
6353.18
3635.96
2581.49
2222.03
2058.17
1640.56
1439.39
1330.83
1214.52
1085.24
967.408
884.803
833.532
817.273
772.639
721.249
684.707
651.904
16448.2
10732
7443.94
3748.63
2413.3
1905.43
1886.31
1540.73
1376.27
1285.64
1111.41
871.22
747.685
724.76
754.525
793.879
781.171
753.615
724.615
681.986
15680.9
13634.8
11714.9
6157.18
3203.04
2157.8
1732.14
1478.51
1322.11
1211.1
899.358
761.749
763.512
743.977
744.21
752.423
746.793
736.543
722.931
695.405
10811.4
16196.8
14307.4
6351.35
3066.28
2246.39
1993.23
1585.03
1317.4
1161.6
1052.73
962.734
882.512
810.867
762.083
746.024
732.315
722.167
714.49
694.708
6223.01
10027.4
9303.85
5214.24
3600.88
2959.39
2364.39
1753.82
1495.8
1317.91
1235.84
1129.43
1028.27
916.984
850.569
787.405
753.388
730.66
719.322
699.101
5692.91
11210
8032.28
4701.49
4188.32
3376.92
2638.33
2220.11
1888.27
1677.02
1484.12
1310.44
1161.45
1025.81
917.958
833.263
782.951
747.274
728.344
707.793
4958.01
10781.6
10448.6
7658.8
5469.99
4064.48
3159.29
2541.1
2094.28
1778.27
1532.91
1322.43
1161.69
1017.1
914.129
831.707
782.536
746.925
725.463
705.394
10922.2
9141.62
8618.47
6414.44
5354.43
4121.12
3292.9
2584.99
2079.89
1670.4
1397.37
1185.45
1047.6
927.655
851.342
786.065
748.151
717.65
697.969
681.311
7300.93
10037.3
7042.66
4770.48
4035.88
3233.66
2710.63
2251.6
1807.33
1437.54
1174.94
995.208
884.024
798.896
747.41
702.301
674.648
652.165
636.494
626.112
4815.85
8190.72
6943.97
5029.71
4182.4
3434.75
2808.04
2320.64
1836.63
1430.01
1143.91
953.34
832.446
745.743
690.729
645.529
614.717
593.66
579.645
580.571
13491.9
6492.12
4753.52
3154.16
2935.44
2332.04
2039.01
1539.42
1247.84
995.459
853.088
765.347
708.546
674.582
643.778
610.678
580.833
556.815
532.162
519.287
6514.85
2240.23
1196.4
882.406
942.554
780.704
724.208
562.202
479.794
388.187
335.497
272.698
225.761
190.009
179.094
178.187
176.4
166.689
140.791
121.26
2117
2664.29
2287.02
1836.67
1342.35
870.716
618.869
525.016
473.081
420.738
386.843
353.814
329.38
308.789
289.741
267.1
244.763
218.684
200.717
176.213
15742.9
11841.3
7459.68
3493.49
2783.69
1847.24
1929.04
1423.72
1479.19
1256.74
1321.07
1235.8
1283.83
1238.17
1242.4
1190.27
1163.3
1101.75
1064.78
1007.23
35911.1
27042.1
12040.4
4566.5
3400.46
2109.83
2114.7
1524.59
1558.51
1317.91
1367.41
1268.21
1301.95
1243.52
1244.59
1191.54
1172.36
1122.27
1093.85
1050.39
26476.5
17034.1
9106.01
4332.31
3555.65
2198.07
2167.55
1517.35
1525.7
1268.54
1300.57
1201.06
1222.85
1172.74
1175.99
1137.65
1128.38
1093.61
1074.51
1042.28
21455.5
14154.1
8061.48
4059.91
3869.31
2388.94
2415.11
1675.99
1646.97
1322.59
1331.16
1193.36
1196.75
1127.16
1124
1081.89
1072.44
1040.02
1024.71
1001.76
20822
9049.75
6763.56
3946.19
4224.25
2747.3
2597.9
1809.37
1707.36
1394.6
1375.08
1230.29
1195.32
1100.85
1065.5
1011.38
989.936
958.75
942.544
926.43
18804.6
9210.3
6900
4073.45
4372.18
2793.96
2564.89
1816.55
1748.77
1446.12
1448.18
1277.66
1227.87
1101.11
1045.42
968.085
933.663
895.658
877.975
865.896
23010.9
12133.6
8038.7
4179.64
4098.6
2885.14
2411.66
1929.71
1717.34
1538.23
1431.4
1305.02
1190.99
1087.18
1053.95
971.035
916.717
875.3
852.695
841.143
10040.9
12550.6
8800.59
4200.02
3445.58
2628.17
2458.18
1946.09
1747.63
1596.05
1435.26
1272.02
1144.52
1056.79
1013.89
1005.29
937.22
885.259
860.531
844.419
27765.7
12762.9
8833.69
4185.7
3049.44
2273.57
2267.06
1919.73
1738.14
1559.24
1318.76
1072.05
967.069
952.536
975.454
1007.99
961.006
916.789
888.862
862.605
28821.9
20869.7
15281.4
6215.12
3830.64
2432.09
2094.29
1821.85
1632.55
1434.76
1183.94
987.611
930.697
924.718
934.498
965.988
938.87
913.165
897.884
873.178
36542.6
22296.7
17560.7
6439.01
3728.94
2584.46
2348.45
1828.53
1551.57
1372.72
1235.89
1119.37
1037.99
965.951
931.959
954.856
931.598
914.624
903.122
880.667
6935.06
13927.5
12404.7
5884.01
4954.98
3570.57
2714.28
1972.65
1730.51
1546.05
1453.74
1312.46
1195.29
1068.21
1050.52
989.001
958.599
936.774
921.76
899.089
26594.4
17263.4
9690.16
5128.76
5367.5
3729.34
3129.28
2492.31
2200.52
1927.71
1733.74
1527.4
1366.95
1217.96
1114.03
1035.58
993.312
960.98
940.861
922.598
36745
18564.2
15008.8
8577.51
7098.99
4530.05
3865.67
2818.6
2430.31
2004.17
1775.25
1525.42
1368.53
1214.31
1118.62
1036.27
993.529
959.771
937.396
923.467
26914
12017
11071.4
6885.81
6612.03
4434.42
3856.42
2738.23
2373.52
1848.75
1651.32
1394.34
1282.56
1143.65
1076.53
1002.33
965.973
930.988
906.743
895.898
32422.5
11545.2
9241.83
5324.9
5342.27
3723.46
3392.74
2440.36
2104.59
1559.75
1406.91
1180.76
1111.96
1003.16
963.097
905.266
880.877
853.678
834.942
830.943
9694.95
10937.6
9622.81
5527.92
5182.88
3603.98
3346.72
2368.47
2044.31
1453.63
1337.5
1118.25
1053.83
936.853
893.826
834.41
810.187
788.347
776.723
788.784
6054.7
6843.34
6092.9
3445.91
3958.71
2493.66
2513.96
1607.07
1489.93
1075.09
1049.01
914.14
895.419
826.725
801.952
751.074
731.879
709.012
694.549
710.794
7527.61
2917.79
1218.06
882.475
941.313
730.332
651.778
474.998
394.08
300.212
242.512
198.511
179.377
167.303
167.793
164.96
156.861
141.148
126.93
125.39
950.055
996.009
722.575
1226.49
1123.73
1170.46
891.56
738.614
635.802
489.091
1066.59
879.26
779.143
604.261
720.042
974.201
896.469
1161.14
842.556
1122.87
1033.23
548.767
873.313
815.754
750.217
664.236
1005.3
932.522
146.717
186.166
124.502
884.703
793.293
795.798
747.05
108.004
109.284
90.6128
725.511
651.801
674.204
560.95
114.732
90.5822
93.032
636.908
628.797
551.854
542.045
126.265
92.9371
95.3647
631.416
628.336
539.294
538.741
118.665
98.0311
103.556
619.291
587.148
537.017
502.431
116.305
103.3
96.6829
577.757
535.813
482.897
415.86
100.975
92.8211
81.0828
520.169
463.983
394.292
342.405
72.759
78.115
55.4114
448.262
418.701
329.606
302.019
106.397
185.512
109.963
764.21
704.414
806.486
683.647
88.487
105.426
112.957
638.813
549.581
645.288
599.296
91.6155
116.383
117.758
541.69
529.608
591.078
566.975
95.1443
115.71
112.672
528.137
525.209
560.52
526.592
98.6031
109.89
102.719
519.269
465.261
503.186
441.432
93.915
102.494
100.117
441.965
381.013
427.839
401.305
80.4772
96.998
88.2368
364.839
326.966
394.4
374.65
56.0888
86.2742
71.0331
317.305
297.174
367.975
361.373
140.853
351.145
182.211
1029.66
771.542
1137.53
941.781
126.45
166.297
152.986
709.581
637.387
872.126
748.633
122.903
150.402
121.403
624.321
585.859
714.869
605.899
116.143
110.624
107.56
575.488
542.763
580.176
538.541
110.508
109.461
107.56
523.47
473.642
529.284
505.186
100.946
105.683
101.56
462.12
433.573
497.208
470.568
91.61
100.021
94.9732
424.796
399.579
461.314
434.619
72.5419
93.2769
72.0699
391.597
376.049
425.153
404.092
160.681
254.167
166.411
1074.33
918.532
1033.49
1000.03
153.353
167.409
172.592
869.238
777.579
973.007
877.458
123.922
170.534
146.938
743.443
615.744
832.686
700.384
99.1089
128.81
97.3855
582.363
529.861
649.485
568.272
103.3
96.0744
99.4013
522.292
506.449
561.288
554.855
101.662
102.327
106.261
500.998
480.646
550.362
533.371
94.4676
107.24
103.588
472.409
446.169
522.245
491.76
70.478
104.312
86.8037
435.912
412.529
475.358
451.117
966.3
1009.21
895.659
1585.89
1332.73
1424.44
1243.97
796.809
817.038
689.295
1248.39
1130.83
1158.3
1015
745.317
676.302
660.007
1088.84
1025.8
994.236
960.855
731.431
656.532
649.076
1017.6
980.356
953.543
913.549
676.503
640.947
583.299
959.207
889.178
886.516
772.887
611.784
557.041
476.281
867.842
795.163
732.411
627.216
531.343
451.917
394.508
769.945
700.096
600.097
539.881
474.196
380.745
343.991
682.127
647.484
527.008
506.938
854.088
1002.42
825.34
1385.46
1207.13
1338.15
1150.25
674.615
780.171
714.522
1126.59
994.309
1096.79
999.388
644.36
701.402
668.986
974.834
941.406
977.745
927.543
630.423
661.389
606.495
934.381
881.896
916.211
736.055
535.932
573.817
490.694
843.501
693.821
665.421
522.117
427.211
472.431
443.807
645.41
536.164
496.053
509.875
370.207
439.186
424.505
515.264
485.74
525.266
538.348
335.897
418.29
404.816
480.899
481.109
536.215
530.71
909.141
1388.78
1084.05
1437.08
1188.01
1593.62
1347.07
751.483
1009.67
864.37
1133.45
1023.47
1281.1
1111.91
686.029
823.377
707.553
996.609
933.621
1061.57
941.876
622.155
681.078
629.161
919.54
746.655
913.573
840.808
527.927
616.299
584.392
685.267
583.757
819.631
767.674
487.996
574.409
542.335
576.382
599.291
752.316
706.478
455.873
531.347
499.596
600.844
585.161
691.233
647.888
421.809
488.796
456.186
576.618
553.518
634.007
597.223
1076.1
1328.66
1192.23
1639.09
1389.97
1777.58
1555.63
896.689
1142
1006.52
1321.28
1141
1461.22
1253.71
716.712
954.237
810.74
1084.3
946.669
1193
1037.59
623.698
760.226
682.812
914.016
842.758
993.725
926.045
589.177
673.471
659.716
825.095
781.569
912.251
876.851
555.434
651.953
629.829
768.011
725.615
862.245
820.748
513.958
615.554
578.933
710.661
666.178
802.504
747.365
464.965
559.185
512.645
651.072
607.528
723.736
668.588
1425.61
1548.67
1336.97
1968.87
1653.4
1844.21
1577.6
1218.22
1251.43
1107.04
1573.61
1430.39
1493.71
1348.08
1101.22
1084.57
1045.77
1379.06
1293.82
1321.23
1263.22
1045.75
1036.22
984.13
1276.85
1204.6
1244.06
1155.58
943.968
951.877
825.376
1172.65
1077.54
1111.63
961.967
843.631
782.322
674.111
1049.5
962.784
915.309
806.481
746.724
647.067
589.279
934.515
866.628
781.108
733.637
691.429
577.62
557.814
850.193
813.64
725.985
718.775
1301.35
1437.3
1236.49
1792.95
1544.11
1671.94
1460.48
1085.83
1182.13
1079.44
1465.39
1328.32
1405.18
1292.37
1026.57
1056.2
1000.62
1303.14
1245.97
1265.14
1201.42
1056.84
1004.56
1002.04
1093.05
984.721
1077.25
1076.85
792.56
851.592
825.113
962.734
750.51
904.487
874.642
576.568
465.985
527.439
826.068
719.563
593.796
648.066
529.471
551.209
572.219
700.764
676.053
663.331
677.707
527.917
571.322
564.991
675.719
689.507
678.078
680.64
1262.96
1650.12
1412.64
1665.56
1466.51
1816.6
1579.88
1097.89
1346.32
1172.35
1413.9
1293.67
1505.58
1319.3
1001.64
1121.43
1002.98
1262.43
1188.09
1269.18
1153.71
1002.82
935.837
985.302
1045.95
949.845
889.815
1044.41
818.791
585.675
815.178
543.295
782.377
504.227
853.116
629.186
798.816
749.105
682.194
730.069
911.143
851.869
620.959
732.801
686.822
731.351
718.175
833.639
783.942
588.014
672.296
631.512
711.928
696.193
768.715
728.914
1462.75
1905.9
1632.13
1927.85
1629.82
2178.21
1786.87
1197.97
1528.41
1309.77
1542.3
1332.16
1664.18
1432.96
1006.15
1247.81
1093.68
1276.87
1152.07
1371.78
1226.68
900.365
1052.61
987.095
1120.32
1039.5
1191.73
1128.88
831.769
971.63
930.062
1015.93
951.813
1109.53
1050.53
769.296
913.366
866.381
931.642
873.293
1028.83
968.458
705.327
846.044
786.964
854.395
800.832
944.784
876.057
641.933
762.901
702.708
783.585
736.593
851.171
789.279
1720.97
1937.03
1651.44
2329.15
1941.01
2222.26
1905.89
1491.21
1568.19
1421.8
1853.27
1692.44
1823.76
1671.69
1351.02
1393.41
1326.88
1647.65
1545.31
1637.63
1532.99
1248.92
1303.32
1201.89
1509.82
1397.11
1492.09
1347.8
1114.93
1154.92
1000.84
1358.68
1243.39
1292.15
1125.03
996.037
953.757
846.24
1205.85
1108.89
1076.64
975.932
901.209
821.86
778.276
1080.94
1016.44
955.757
922.16
844.875
771.643
762.55
996.934
948.205
916.171
902.391
1618.25
1744.06
1530.07
2145.96
1873.37
1987.6
1773.88
1403.21
1474.72
1359
1799.54
1658.17
1718.77
1592.39
1309.87
1330.08
1255.33
1623.95
1513.91
1553.53
1433.47
1170.57
1227.93
1006.57
1471.29
1313.93
1386.79
1197.15
923.817
907.12
713.882
1249.12
1058.47
1118.72
930.31
766.18
690.808
697.376
1006.52
909.665
891.126
837.747
724.82
704.991
713.942
894.993
879.694
836.532
842.641
735.268
714.79
716.087
879.333
882.359
844.446
844.686
1532.06
1878.56
1631.02
1975.22
1767.21
2110.84
1818.89
1354.87
1553.17
1363.3
1709.67
1572.32
1729.61
1527.57
1237.9
1313.5
1196.99
1530.37
1405.87
1476.38
1343.87
980.769
1164.67
1070.55
1358.9
1178.51
1303.78
1191.58
773.206
1041.26
964.26
1111.09
958.958
1157.34
1065.45
765.07
941.658
880.305
926.293
876.306
1038.97
976.29
749.348
861.927
812.396
871.275
863.426
959.844
913.908
728.618
797.254
755.946
860.219
847.317
899.173
857.721
1676.81
2267.42
1824.28
2234.28
1846.47
2530.28
1953.87
1371.6
1698.51
1467.71
1742.16
1521.37
1822.58
1599.47
1194.02
1407.06
1265.01
1468.59
1337.85
1541.47
1400.74
1077.64
1231.4
1168.23
1300.09
1201.65
1368.3
1301.33
984.301
1147.42
1082.96
1172.01
1088.5
1275.94
1191.98
901.835
1059.75
995.833
1062.96
999.159
1164.39
1091.12
828.235
971.245
900.145
980.109
925.751
1064.27
985.061
762.669
874.814
811.845
908.305
860.654
959.443
896.957
2037.63
2349.05
2024.68
3031.39
2484.56
2957.96
2636.67
1787.49
1942.09
1787.04
2390.57
2309.51
2546.41
2402.51
1638.44
1750.87
1630.52
2297.53
2142.92
2366.58
2197.3
1474.27
1582.41
1422.47
2078.03
1977.54
2131.37
1940.21
1313.36
1363.84
1190.97
1947.62
1790.79
1874.2
1674.5
1172.27
1141.7
1044.21
1737.85
1654.63
1621.7
1553.77
1078.34
1025.61
993.402
1633.09
1550.07
1540.62
1508.31
1000.92
986.688
965.412
1523.8
1474.23
1500.79
1485.83
1992.52
2097.26
1889.36
2792.34
2616.49
2596.33
2509.53
1775.42
1834.5
1703.13
2544.18
2406.18
2461.03
2324.99
1609.57
1660.41
1518.9
2360.26
2181.9
2267.23
2074.8
1385.8
1465.58
1270.11
2113.01
1900.68
2002.58
1775.95
1124.09
1193.28
1001.12
1824.59
1603.13
1693.05
1471.59
979.151
958.603
901.234
1547.48
1483.4
1422.29
1379.86
953.642
901.195
910.892
1486
1475.74
1399.01
1428.09
947.073
912.463
906.178
1474.28
1471.95
1429.39
1421.92
1880.42
2230.19
1916.4
2640.77
2501.29
2796.89
2481.77
1678.13
1823.24
1616.06
2442.54
2285.14
2376.71
2157.83
1487.84
1563.22
1419.96
2224
2029.29
2096.1
1919.22
1250.44
1375.72
1255.34
1958.2
1749.37
1864.91
1726.31
1024.04
1218.96
1120.77
1679.29
1491.53
1685.31
1569.64
933.826
1093.17
1032.23
1446.99
1404.71
1538.63
1496.04
927.723
1017.65
973.181
1420.24
1437.15
1493.96
1453.62
906.357
958.364
912.28
1433.86
1417.22
1439.89
1401.03
1936.21
2656.87
2022.22
2885.92
2460.54
3145.94
2420.65
1604.61
1890.94
1673.32
2343.57
2119.9
2300.59
2136.14
1413.53
1616.28
1473.24
2065.54
1898.75
2083.87
1918.03
1267.45
1440.5
1371.8
1850.74
1733.25
1887.88
1832.63
1146.09
1344.6
1253.05
1698.38
1593.07
1803.27
1686.25
1056.35
1223.95
1147.7
1564.33
1522.16
1656.25
1584.23
983.481
1119.59
1037.29
1506.54
1453.31
1555.26
1464.55
914.374
1011.4
945.986
1437.41
1403.34
1441.7
1388.99
1016.79
983.946
892.816
1013.21
949.79
1052.4
950.978
1027.31
993.531
943.299
1054.65
961.579
1064.02
948.139
931.498
792.031
834.98
600.168
891.831
795.829
749.885
1124.35
1162.71
1202.95
1208.82
1143.39
1145.85
1184.39
1083.12
1071.47
1170.32
1073.94
1114.74
1013.88
1142.16
1096.76
1107.31
1190.36
1131.35
1129.43
1002.76
1161.68
1005.96
650.217
978.803
1033.35
864.594
811.184
1093.01
711.141
794.899
608.315
784.462
676.065
843.809
636.861
573.884
699.015
560.069
505.549
612.372
679.706
419.553
486.051
497.817
513.199
412.46
543.066
453.158
393.399
848.178
1017.07
1003.61
993.394
955.737
933.225
909.587
765.844
832.123
939.889
756.931
892.825
690.431
829.02
634.764
543.256
865.083
702.97
740.191
464.766
768.531
541.622
447.92
633.147
650.004
505.343
431.488
690.062
947.429
826.665
855.119
609.831
901.839
721.205
895.714
1006.58
979.039
947.682
1028.72
952.811
1035.23
1001.07
972.963
889.997
921.567
946.882
921.694
938.848
973.552
1059.45
1098.8
1101.21
1147.88
947.413
1099.84
1109.52
1001.56
644.254
970.547
998.07
762.916
945.931
1054.78
1055.98
1078.05
1132.6
1092.73
1086.42
1049.27
1100.07
1020.72
992.449
1026.21
1062.68
984.753
1020.52
1063.62
796.002
555.789
739.362
510.469
759.507
508.144
774.647
880.069
860.828
852.514
921.965
835.433
907.447
899.335
856.551
793.971
833.56
858.979
813.678
835.142
878.518
862.882
574.858
689.474
948.891
535.897
899.856
908.402
836.853
546.607
660.819
851.71
538.139
813.687
877.059
921.936
965.94
991.151
979.399
951.353
941.592
959.771
896.351
897.797
907.693
955.221
873.235
918.993
932.218
260.95
378.649
272.777
686.842
698.141
674.83
678.571
217.589
225.374
208.417
666.478
569.838
646.79
624.481
199.706
202.866
205.953
564.816
573.91
598.444
597.664
205.007
215.488
218.863
578.405
571.476
591.189
587.411
195.365
217.542
213.18
566.392
549.347
573.208
552.056
183.477
208.431
202.32
540.039
519.641
532.704
511.52
166.65
192.97
181.564
496.513
477.317
480.523
455.62
131.519
172.581
142.387
445.872
467.697
418.645
431.35
354.163
299.441
271.727
670.568
697.608
617.367
668.288
368.924
227.893
244.865
371.252
371.252
362.067
195.989
295.445
109.16
112.247
318.681
301.101
324.035
98.8603
275.128
109.928
90.3783
288.05
291.671
273.222
91.2771
312.319
124.837
107.176
342.512
355.34
309.138
109.203
311.454
121.184
109.417
360.518
355.493
310.609
110.123
307.704
117.933
114.439
348.232
344.579
311.286
114.348
270.226
109.558
108.299
324.826
312.465
281.908
104.321
223.428
92.2165
90.5716
276.866
268.068
232.112
85.7774
110.425
120.419
90.9466
337.205
364.815
277.263
300.659
224.409
300.292
254.606
556.719
638.273
681.884
706.865
302.23
131.318
147.257
285.754
313.314
282.053
122.02
257.397
89.9077
89.0872
283.204
264.646
266.997
86.3831
267.686
90.6979
90.0586
258.477
259.693
263.001
92.6736
269.896
92.7789
95.7198
260.347
261.869
269.192
96.4015
268.129
98.3756
97.8041
271.155
271.844
269.741
97.9793
247.894
97.275
96.5709
258.375
252.715
251.952
96.1627
218.878
87.4497
91.0983
227.606
218.162
227.065
88.1739
190.836
74.6226
79.2688
191.554
185.4
195.471
76.8952
94.4741
140.622
115.304
268.027
290.031
304.907
330.694
536.509
804.843
567.94
1255.78
1062.72
1290.97
1121.33
427.377
231.048
322.954
478.765
431.354
468.86
232.373
362.328
122.307
130.789
340.636
338.249
361.523
130.05
368.367
128.618
136.955
348.866
347.791
372.575
136.26
323.533
116.769
118.606
325.3
321.589
327.842
116.697
311.053
113.541
116.731
312.145
304.318
317.618
115.425
284.806
107.093
109.815
287.275
281.272
292.865
107.193
255.743
94.9712
98.0831
255.838
248.536
260.454
96.5637
238.705
88.5087
92.0569
234.448
231.184
242.172
90.2287
119.596
153.384
117.749
335.649
357.22
346.601
365.561
422.783
471.94
374.781
1026.86
1011.99
924.118
903.361
413.93
212.692
259.195
445.422
449.823
417.662
199.238
459.551
151.63
150.208
441.895
440.087
442.328
152.902
442.171
149.625
162.91
431.949
415.146
463.628
159.394
296.2
102.459
114.249
317.04
298.47
326.868
101.699
277.974
101.718
93.7384
286.387
286.891
275.332
95.5202
283.493
103.262
100.643
285.54
283.591
283.659
101.015
269.11
98.5925
99.0604
273.075
268.208
274.143
97.1127
243.379
89.849
89.8431
251.386
247.391
248.15
87.7818
114.716
144.112
131.549
351.708
364.029
347.937
322.667
329.352
431.826
325.262
757.617
823.502
769.986
843.537
291.051
289.496
282.93
834.188
820.009
839.043
810.676
245.149
275.845
257.402
775.293
698.742
761.251
711.911
199.253
248.565
240.378
605.443
567.694
649.142
619.648
194.292
239.922
232.43
550.773
543.737
585.156
568.389
191.339
230.489
219.183
528.157
516.013
534.147