/*--------------------------------*- C++ -*----------------------------------*\
  =========                 |
  \\      /  F ield         | OpenFOAM: The Open Source CFD Toolbox
   \\    /   O peration     | Website:  https://openfoam.org
    \\  /    A nd           | Version:  10
     \\/     M anipulation  |
\*---------------------------------------------------------------------------*/
FoamFile
{
    format      ascii;
    class       volScalarField;
    location    "4.7";
    object      k_0;
}
// * * * * * * * * * * * * * * * * * * * * * * * * * * * * * * * * * * * * * //

dimensions      [0 2 -2 0 0 0 0];

internalField   nonuniform List<scalar> 
12920
(
850.04
646.846
519.123
510.851
501.173
402.759
317.775
276.81
225.144
189.396
158.207
137.997
125.962
118.036
112.206
103.293
94.7088
84.0176
79.2423
73.5939
1575.22
1726.58
1202.19
569.267
403.257
366.393
343.481
339.111
321.097
280.567
227.895
198.934
182.355
177.35
174.873
171.94
169.719
166.212
164.453
159.733
2759.35
1968.16
1440.78
711.7
533.707
463.071
390.187
360.977
297.608
261.156
220.695
203.075
188.613
183.636
177.952
173.837
171.918
170.355
170.146
168.097
1028.02
2058.09
1294.87
671.759
538.163
429.477
348.403
297.131
253.887
226.013
203.013
189.395
177.711
169.922
162.985
157.754
155.732
156.058
158.393
161.183
4923.66
3499.63
2245.29
1075.07
691.227
531.695
455.395
362.953
309.748
270.059
237.797
217.604
199.801
185.457
171.354
159.849
153.321
149.855
149.754
151.279
6041.79
3506.78
1982.39
1364.89
909.717
785.437
629.51
536.82
394.299
304.482
259.033
239.6
226.618
213.387
197.058
178.244
160.439
145.409
137.497
135.822
6744.51
3434.67
2121.05
1460.51
927.447
747.225
529.488
408.322
319.22
275.243
272.56
268.204
257.204
240.908
218.189
195.699
171.265
146.808
131.805
121.768
1972.86
2731.03
2329.22
1542.15
901.465
684.866
395.326
234.317
205.457
202.834
203.114
190.167
175.717
160.272
247.767
207.604
182.813
157.427
138.516
119.482
2154.86
1603.77
1109.29
927.321
636.763
388.314
297.345
121.809
108.263
119.8
124.679
118.41
114.251
97.2447
142.978
197.518
185.087
166.884
151.19
123.648
1099.75
1989.61
1906.21
1094.21
588.507
244.261
154.119
94.9836
89.7189
92.1169
97.2139
98.1132
90.9157
77.6408
121.724
190.862
178.563
167.451
159.979
137.158
596.884
2296.16
2414.63
2199.79
1525.1
772.635
317.514
124.841
128.556
118.38
115.414
108.978
97.8049
90.1494
151.708
205.345
180.991
169.604
163.065
143.132
2753.96
4833.26
3498.79
1789.77
1000.26
549.63
271.153
152.162
152.582
110.047
100.102
103.479
100.385
91.9898
148.738
193.777
168.136
160.393
157.733
144.646
655.954
2606.32
2441.68
1589.85
941.357
727.031
415.642
306.579
274.806
213.051
195.633
193.064
186.814
168.047
229.526
189.103
164.513
150.647
146.798
137.751
2777.89
3204.46
2076.96
1247.16
907.501
807.55
650.099
603.353
540.197
499.395
446.481
377.608
312.209
258.284
223.093
194.229
173.081
154.253
143.26
130.614
676.123
1311.95
1935.28
1532.63
1125.16
977.686
828.243
764.734
671.579
599.549
507.748
403.928
316.464
249.725
213.416
189.812
173.395
157.336
145.096
129.454
493.178
1241.96
1303.3
1128.78
1042.09
976.851
842.243
776.63
679.038
570.253
439.678
327.692
248.507
193.636
168.89
155.125
149.142
142.006
136.703
126.242
163.032
761.358
889.236
872.146
769.255
680.969
599.654
564.529
514.777
415.987
308.142
230.205
185.588
162.392
147.173
133.441
124.979
120.494
118.953
115.603
87.6397
585.178
886.253
882.411
813.61
742.791
628.029
559.843
511.834
439.699
330.705
238.493
188.103
166.121
149.297
131.618
114.128
103.426
97.8288
96.8998
551.26
1196.64
1126.27
864.859
578.779
497.961
435.946
382.078
315.17
259.622
210.831
184.676
179.625
183.363
181.77
165.672
138.073
117.9
103.005
92.5429
206.709
662.691
508.442
414.436
337.257
293.006
239.185
221.187
185.979
164.928
145.181
142.383
143.967
143.938
139.346
124.125
112.576
98.6337
92.448
79.6052
466.92
983.959
1008.14
1160.46
1189.81
921.561
631.2
531.011
464.608
418.449
355.821
320.685
296.505
284.922
275.932
260.964
246.267
226.519
218.569
201.061
7479.43
4562.38
3213.72
1495.29
1098.64
1031.93
913.509
909.291
797.966
731.618
594.523
567.606
535.315
534.645
529.046
521.746
510.1
502.727
498.901
488.662
2768
5208.66
3831.7
1804.15
1436.41
1182.21
969.621
909.076
749.27
704.082
605.975
587.456
552.381
546.965
532.588
524.674
516.657
514.005
512.873
505.603
1832.06
6073.09
3266.31
1587.74
1420.49
1091.26
893.254
795.594
686.599
627.393
571.293
545.491
517.478
504.724
490.159
482.628
481.545
483.946
492.419
495.129
6598.11
4966.87
2893.15
1857.1
1413.58
1254.76
1047.29
943.548
811.312
727.813
643.992
608.164
561.623
536.48
503.597
483.631
473.154
469.037
468.679
469.318
12681.3
6048.3
2800
2406.24
1879.59
1829.84
1472.83
1273.17
958.678
807.375
698.391
656.277
616.539
584.694
545.075
508.13
471.072
440.106
426.362
418.401
7224.86
5805.07
3499.54
2707.12
1811.22
1724.58
1332.13
1042.98
850.204
739.701
714.339
691.526
650.97
615.253
563.724
522.971
475.455
425.792
396.477
375.713
6275.15
7069.45
4073.77
3173.96
1822.3
1620.44
1288.19
1016.93
869.039
800.314
761.441
715.284
655.683
593.858
574.467
525.76
481.735
432.469
395.98
362.828
6932.82
3850.71
2609.17
2371.43
1447.98
1246.39
1167.51
885.401
772.353
744.986
719.428
663.947
592.826
514.222
466.912
496.251
493.484
466.354
421.609
368.248
5394.93
5967.99
4739.56
2376.12
1268.97
946.056
966.922
780.424
663.397
642.651
616.768
504.764
409.129
361.094
365.572
449.215
460.93
463.492
458.987
417.142
983.776
6023.48
6180.94
4802.3
2749.07
1942.03
1248.93
841.965
732.866
675.002
594.086
514.685
480.976
447.326
446.605
469.446
449.177
445.812
444.13
423.62
3247.66
10830.4
8599.13
3851.14
2009.36
1582.33
1302.89
1018.94
851.535
682.282
613.213
582.052
545.414
502.221
482.436
481.33
451.947
439.842
433.453
412.509
2357.46
6711.85
5913.87
3365.33
2176.45
1876.41
1480.92
1218.57
1046.76
856.902
795.633
751.713
695.813
621.399
595.023
517.767
470.314
440.12
425.262
404.018
7732.21
7639.76
5154.14
3046.43
2489.68
2207.28
1779.32
1609.37
1401.5
1279.81
1142.67
1000.27
858.034
736.671
643.617
563.653
503.542
456.704
425.446
396.894
2799.9
4511.23
5769.31
4241.82
3032.65
2548.04
2094.74
1883.76
1617.39
1440.86
1242.56
1053.04
856.63
703.747
618.68
550.438
498.269
458.154
425.87
391.417
357.838
3084.44
3812.06
3198.65
2806.07
2550
2175.9
1977.44
1675.38
1408.12
1098.27
847.938
671.058
557.379
510.438
474.011
447.702
424.636
405.779
380.346
248.644
2322.03
2707.62
2580.37
2119.18
1892.45
1583.86
1509.05
1344.63
1088.19
785.932
615.976
524.455
475.229
437.739
404.9
382.009
368.838
360.391
347.076
90.3263
1128.7
2421.38
2598.16
2391.43
2105.04
1755.64
1645.01
1448.85
1180.89
799.426
613.556
530.242
479.733
434.475
389.848
342.962
319.702
304.889
300.471
4378.73
4508.52
3377.33
2324.04
1760.24
1627.47
1394.58
1213.37
883.438
677.188
543.226
521.652
499.928
499.943
500.739
489.189
430.736
355.825
331.341
317.074
1943.68
2553.85
1356.61
794.584
611.973
568.817
541.733
494.686
419.323
360.089
324.649
306.72
291.211
266.418
234.689
202.067
183.394
181.048
177.951
159.352
1154.62
2170.6
2022.85
1712.66
1539.4
1090.93
716.02
585.054
516.57
471.655
426.216
397.603
375.392
355.364
336.297
312.345
293.965
270.293
260.239
236.64
5902.97
5967.85
4366.62
2232.26
1638.39
1396.9
1207.97
1135.48
970.094
921.261
826.765
817.632
796.625
794.351
781.663
765.427
743.097
723.211
708.098
680.024
2262.63
6927.74
5193.87
2648.15
1982.89
1521.43
1296.3
1140.69
977.101
915.763
841.387
826.654
799.289
791.577
773.277
757.881
741.448
726.696
715.474
692.581
7337.36
10126
4696.91
2527.58
2062.94
1511.99
1286.92
1082.42
946.503
856.213
802.13
772.587
748.703
735.983
720.397
709.923
703.095
696.05
692.498
681.883
11102.5
6783.98
3975.36
2439.58
2136.56
1738.32
1465.03
1239.45
1064.78
937.179
853.995
806.22
762.153
735.514
706.516
687.426
674.566
663.282
656.094
647.891
7186.54
6703.27
4100.75
2870.89
2499.36
2217.9
1727.61
1472.57
1179.54
1021.26
922.5
862.514
806.755
760.397
713.127
672.937
639.387
612.276
596.968
584.659
10565.3
8838.82
4700.91
3110.14
2488.28
2185.15
1653.68
1317.79
1130.25
1001.68
956.958
906.675
842.973
787.525
723.777
673.286
624.286
580.923
554.027
533.645
8124.74
8019.44
4894.52
3399.43
2385.68
2052.5
1783.99
1430.71
1210.82
1105.61
1021.37
957.357
868.723
796.134
739.962
685.224
634.75
582.371
546.38
515.169
16209.4
8054.06
4495.11
3125.84
2041.36
1813.41
1704.77
1342.94
1172.85
1092.84
1022.18
921.345
817.249
729.414
679.695
688.462
666.014
617.387
572.409
524.341
8725.13
8249.81
6187.14
3138.92
1923.95
1495.34
1512.84
1219.98
1066.07
1018.52
904.817
686.727
556.644
526.614
561.128
637.594
643.053
637.589
617.883
562.52
7746.52
9469.74
8801.9
5599.5
2939.88
2011.73
1489.17
1209.99
1070.16
994.935
638.318
559.584
634.629
612.987
607.622
619.681
612.727
610.326
602.423
572.595
7795.23
12224.6
11158.2
5221.53
2519.41
1926.98
1719.19
1388.94
1139.84
974.186
881.606
816.903
753.215
689.385
646.084
627.8
606.391
596.003
587.111
565.092
6094.57
8309.1
7573.02
4321.35
2846.04
2462.96
2036.55
1583.15
1339.12
1148.63
1076.94
997.528
912.497
813.307
748.081
672.179
627.235
598.57
584.471
563.165
7248.05
9273.74
6522.31
3991.07
3346.44
2917.32
2295.38
2006.88
1711.22
1534.93
1355.23
1191.52
1046.63
917.603
809.164
718.423
658.054
614.23
589.098
563.955
4872.6
8636.32
8136.31
6011.18
4242.71
3431.41
2714.58
2317.67
1923.13
1664.31
1422.47
1218.88
1046.95
900.574
795.076
711.551
655.98
615.046
588.134
560.675
5268.02
6035.33
6188.32
4969.92
4106.13
3502.4
2847.7
2408.9
1946.02
1588.72
1275.43
1057.97
904.081
783.528
709.939
651.239
614.015
584.332
564.134
542.159
837.727
5054.56
4582.34
3766.36
3106.92
2730.52
2269.57
2071.62
1680.3
1364.45
1052.14
864.493
741.255
662.689
611.227
570.432
543.404
523.36
509.516
495.059
1352
4297.94
4409.08
4108.12
3449.67
3034.72
2428.18
2198.88
1779.05
1431.74
1064.29
844.534
709.367
628.531
572.723
528.916
492.608
469.293
451.891
446.178
4648.16
5890.31
4410.25
2850.52
2334.95
2115.4
1781.96
1514.12
1153.62
934.179
760.089
682.018
619.32
596.052
573.669
547.909
506.556
472.87
448.64
420.417
7236.34
5459.19
1871.02
879.037
797.903
725.503
689.746
579.386
489.426
411.167
361.143
320.454
280.329
233.861
195.279
182.733
183.813
184.906
178.55
142.56
2319.1
2632.56
2355.02
1927.68
1648.49
1113.19
730.521
580.222
520.727
472.308
439.133
408.846
383.478
359.341
337.415
312.824
295.521
271.043
258.843
227.996
10966.5
8225.65
5487.85
2920.15
2098.19
1609.2
1442.27
1236.23
1125.29
1046.9
1009.42
997.047
992.851
988.483
974.848
950.468
923.217
892.145
866.745
827.293
6939.31
12102.5
7513.87
3520.76
2484.26
1765.76
1571.86
1283.06
1173.3
1070.23
1037.14
1007.03
997.6
980.011
963.991
937.79
917.402
891.003
870.269
838.634
43491.7
19178.5
6859.33
3438.26
2616.13
1810.11
1600.81
1264.63
1153.97
1024.47
992.087
947.95
935.879
915.766
905.184
886.853
876.588
858.919
846.956
825.791
9197.68
10270.2
5568.37
3114.2
2783.79
2024.46
1799.46
1405.28
1260.91
1081.95
1025.54
954.875
925.315
889.553
868.573
846.028
832.589
814.459
802.81
788.009
8203.55
7225.71
5214.81
3346.98
3112.27
2417.98
1988.69
1581.09
1352
1163.2
1089.37
1002.38
948.599
888.514
843.415
801.837
773.848
748.785
733.148
719.33
24281.3
7912.41
5675.7
3488.97
3179.55
2450.63
1946.45
1513.8
1353.89
1180.5
1137.9
1047.23
978.819
902.043
837.607
782.086
738.845
702.874
680.524
664.759
18044.7
9400.82
6067.24
3697.16
2996.19
2390.02
2065.73
1683.78
1432.85
1310.46
1194.67
1112.18
1002.53
923.561
853.197
790.66
740.186
694.453
665.59
643.774
28685
10270.6
6335.86
3628.18
2577.46
2221.42
2058.86
1641.19
1440.41
1332.43
1215.37
1085.92
967.871
885.461
834.177
817.119
772.171
720.792
684.297
651.742
16070.8
10826.6
7469.15
3748.51
2409.83
1905.46
1886.9
1540.61
1377.81
1286.97
1111.26
871.162
748.324
725.705
755.634
794.166
781.093
753.372
724.144
681.652
14488.4
13668.2
11761.4
6123.07
3180.08
2148.78
1731.13
1478.63
1322.9
1211.98
899.321
763.37
764.436
744.632
744.864
752.59
746.914
736.527
722.7
695.196
10798
16343.3
14434.4
6325.74
3053.03
2241.28
1993.29
1584.08
1317.29
1162.27
1053.58
963.415
882.937
811.182
762.357
746.049
732.407
722.247
714.451
694.626
6052.55
10013.7
9272.9
5146.72
3587.55
2953.81
2359.67
1752.29
1495.45
1318.31
1236.24
1129.51
1028.04
916.629
849.925
787.032
753.308
730.695
719.352
699.15
5716.11
11076.4
7978.34
4696.59
4192.29
3377.21
2636.25
2217.76
1886.28
1675.52
1482.71
1309.06
1160.22
1024.68
917.079
832.751
782.741
747.238
728.397
707.918
5194.06
10790.3
10502.7
7658.83
5456.92
4055.28
3151.92
2535.02
2090.21
1775.42
1530.82
1320.71
1160.29
1015.97
913.349
831.302
782.4
746.93
725.558
705.557
10584.1
9184.78
8657.71
6426.24
5362.15
4119.94
3288.26
2579.22
2075.14
1666.77
1395.1
1183.73
1046.34
926.758
850.788
785.8
748.088
717.684
698.073
681.486
7288.26
10154.4
7074.79
4764.67
4031.43
3225.88
2704.81
2245.22
1801.77
1433.07
1172.12
993.392
882.924
798.313
747.116
702.18
674.654
652.23
636.601
626.274
5090.77
8226.05
6901.17
5018.71
4178.84
3428.51
2802.76
2314.79
1830.9
1425.29
1140.65
951.241
831.008
744.877
690.198
645.22
614.559
593.608
579.707
580.781
13277
6549.92
4727.08
3155.08
2932.88
2328.97
2034.88
1534.33
1244.26
992.968
851.518
764.274
707.897
674.101
643.385
610.303
580.523
556.531
531.827
519.127
6601.49
2173.48
1189.27
882.509
944.072
780.983
724.167
561.67
479.406
387.909
335.169
272.26
225.397
189.858
179.106
178.198
176.328
166.342
140.308
121.149
2226.82
2682.73
2282.16
1837.28
1340.18
868.255
618.501
525.47
473.553
421.188
387.208
354.163
329.697
309.071
289.943
267.21
244.774
218.655
200.651
176.186
16646.2
11717.8
7407.25
3495.48
2774.67
1852.69
1926.39
1421.1
1476.41
1254.62
1319.23
1234.11
1282.2
1236.31
1240.41
1187.85
1160.84
1099.11
1062
1005.42
35856.2
27245.8
11759.2
4526.49
3383.19
2113.02
2110.85
1521.77
1556.07
1316.21
1365.83
1266.86
1300.51
1241.96
1242.92
1189.6
1170.42
1120.15
1091.61
1049.02
27656.2
16802.6
8973.72
4333.89
3545.47
2203.83
2163.62
1515.43
1523.48
1267.24
1299.26
1200.03
1221.68
1171.53
1174.66
1136.14
1126.85
1091.84
1072.61
1041.14
21561.3
14412.4
8081.5
4072.58
3865.76
2389.7
2412.37
1672.29
1644.73
1320.74
1329.75
1191.97
1195.42
1125.77
1122.64
1080.43
1070.99
1038.41
1023.02
1000.78
20402.2
8860.15
6745.09
3958.39
4223.56
2747.96
2593.67
1805.47
1705.08
1393.05
1373.81
1228.67
1193.73
1099.25
1063.93
1009.92
988.496
957.282
941.025
925.566
18108
9178.69
6893.2
4083.77
4369.33
2791.2
2563.63
1814.2
1748.2
1444.83
1447.25
1275.68
1226.01
1099.16
1043.48
966.391
932.082
894.167
876.522
865.093
23513.6
12184.6
8030.77
4191.82
4098.27
2880.26
2407.29
1928.37
1715.11
1536.46
1428.9
1302.31
1188.19
1084.54
1051.71
968.962
914.87
873.615
851.152
840.329
10375
12551.5
8719.89
4199.89
3438.28
2623.77
2455.84
1944.79
1746.3
1594.67
1433.48
1270.29
1142.97
1055.55
1011.75
1002.94
935.102
883.345
858.821
843.521
27386.5
12822.4
8871.12
4184.22
3052.37
2272.89
2264.92
1917.45
1736.83
1557.44
1316.58
1070.52
966.221
951.925
973.889
1005.96
959.021
914.805
886.974
861.618
30369.9
21066
15308.7
6179.45
3810.5
2422.98
2091.54
1819.41
1630.69
1433.02
1182.33
986.94
930.068
923.898
932.811
964.279
937.233
911.441
896.184
872.276
34659.5
22742.2
17809.1
6443.68
3731.73
2579.99
2345.55
1824.7
1549.5
1371.33
1234.78
1118.29
1036.78
964.793
930.191
953.358
930.246
913.143
901.643
879.916
7204.14
13963.9
12331
5823.28
4941.51
3566.89
2703.13
1967.55
1726.78
1543.14
1450.54
1309.36
1192.09
1065.45
1048.81
987.562
957.318
935.482
920.48
898.497
27744.8
16973.5
9605.01
5126.3
5381.23
3735.59
3129.67
2492.15
2199.05
1926.61
1731.83
1525.53
1364.83
1216.02
1112.22
1034.07
992.017
959.725
939.697
922.106
36910.5
18283.6
15057.3
8584.25
7093.35
4524.1
3857.62
2812.1
2425.69
2001.16
1772.64
1523.17
1366.37
1212.4
1116.94
1034.92
992.384
958.644
936.359
923.074
27254
11918
11074.7
6901.48
6628.48
4436.53
3854.2
2735.2
2370.29
1846.5
1649.18
1392.37
1280.58
1141.93
1074.98
1001.02
964.826
929.848
905.741
895.533
32594.8
11434.9
9262.44
5342.51
5348.75
3717.39
3385.86
2432.87
2098.34
1555.81
1403.97
1178.6
1110.13
1001.73
961.832
904.211
879.925
852.702
834.069
830.667
10000.4
10974
9595.51
5522.89
5184.35
3602.7
3343.87
2362.61
2038.99
1450.11
1334.78
1115.94
1051.66
935.072
892.317
833.179
809.119
787.319
775.912
788.692
6267.86
6781.3
6113.85
3455
3963.73
2493.64
2510.54
1601.68
1486.11
1072.47
1047
912.259
893.72
825.117
800.479
749.791
730.694
707.787
693.428
710.536
7919.92
2866.57
1208.93
882.279
942.316
729.718
651.388
474.707
393.769
299.957
242.291
198.423
179.418
167.394
167.882
164.985
156.73
140.97
126.902
125.495
950.392
997.359
721.672
1228
1123.99
1171.43
890.432
737.952
634.954
489.511
1066.44
878.882
778.521
604.601
719.269
974.512
896.963
1161.13
841.469
1123.52
1033.99
549.849
873.875
816.366
749.655
665.397
1006.1
933.301
145
185.737
123.751
885.461
791.395
796.355
744.937
107.499
108.451
90.637
724.182
652.136
671.828
561.217
114.628
90.6674
93.1521
637.629
630.08
552.608
542.887
126.283
93.0324
95.5327
632.649
629.125
540.128
539.585
118.653
98.2364
103.716
619.886
587.698
537.761
502.636
116.295
103.443
96.6808
578.328
536.06
483.021
415.863
100.818
92.7773
81.0148
520.335
463.964
394.32
342.448
72.6575
78.0515
55.3481
448.31
418.772
329.641
302.124
105.683
185.732
109.718
764.796
702.03
805.263
682.357
88.5542
105.351
113.154
636.8
549.97
644.587
599.519
91.665
116.429
117.603
542.321
530.259
591.221
567.103
95.2494
115.55
112.558
528.812
525.778
560.712
526.37
98.7064
109.665
102.776
519.704
465.217
502.883
441.662
93.9572
102.603
100.136
441.96
381.141
428.216
401.689
80.4077
96.9787
88.2101
364.981
327.042
394.695
374.728
56.0357
86.2615
71.0438
317.361
297.26
368.033
361.464
139.682
348.551
181.231
1023.93
768.33
1132.11
938.645
126.653
165.601
152.717
707.763
637.35
869.666
747.485
122.527
150.046
120.559
624.247
585.822
713.54
604.78
116.131
110.074
107.778
575.596
542.716
579.59
538.731
110.523
109.615
107.557
523.365
473.983
529.578
505.541
100.92
105.695
101.552
462.523
433.861
497.522
470.674
91.6123
99.9865
94.9242
425.009
399.646
461.374
434.587
72.5406
93.2169
71.9645
391.653
376.148
425.097
403.985
159.905
254.725
167.171
1071.21
917.104
1033.68
1000.85
153.208
167.971
172.96
868.226
776.749
973.715
876.937
122.892
170.75
146.492
742.107
614.139
831.72
698.43
99.1173
128.043
97.3434
581.326
530.01
647.51
568.038
103.396
96.1584
99.6925
522.631
506.857
561.385
555.122
101.65
102.597
106.491
501.355
480.749
550.54
533.303
94.3732
107.414
103.627
472.441
446.056
522.02
491.368
70.3696
104.343
86.7457
435.775
412.306
474.867
450.622
964.194
1009.78
893.549
1586.61
1331.87
1425.11
1242.57
797.121
814.89
689.677
1248.31
1131.66
1157.17
1015.89
746.555
677.18
661.078
1089.94
1027.41
995.55
962.468
732.225
657.597
649.949
1019.29
981.411
955.101
914.341
677.002
641.591
583.374
960.147
889.82
886.941
772.732
611.976
557.059
476.286
868.498
795.447
732.277
627.338
531.315
451.973
394.581
770.174
700.273
600.314
540.129
474.305
380.814
344.133
682.392
647.774
527.307
507.515
851.913
1001.18
824.05
1386.15
1205.77
1337.43
1149.36
675.063
779.462
714.75
1125.56
995.15
1096.4
999.876
645.214
701.611
669.291
976.007
942.838
978.336
928.159
631.031
661.733
606.273
935.772
882.31
916.754
735.458
535.717
573.491
490.862
843.45
693.216
664.746
522.085
427.317
472.78
444.303
644.914
536.277
496.405
511.026
370.317
439.592
424.598
515.532
485.978
526.15
538.593
336.001
418.354
404.862
481.127
481.555
536.356
530.877
906.244
1383.33
1081.15
1433.36
1186.81
1590.43
1346.02
751.401
1007.5
863.169
1132.83
1023.65
1280.19
1111.03
686.173
822.067
706.74
996.907
933.966
1060.74
941.808
622.085
680.7
629.356
920.052
746.394
913.729
841.211
528.314
616.615
584.807
685.137
584.539
820.12
768.239
488.409
574.778
542.473
577.359
600.21
752.834
706.731
455.955
531.434
499.574
601.489
585.355
691.425
647.946
421.867
488.743
456.033
576.783
553.71
634.035
597.251
1074.87
1329.55
1193.23
1638.38
1389.38
1777.69
1555.66
895.688
1142.54
1006.29
1320.69
1140.03
1460.93
1253.47
715.444
953.464
809.273
1083.26
946.319
1192.45
1036.98
623.905
758.783
682.962
913.961
843.232
993.347
926.629
589.626
673.821
660.188
825.661
782.13
912.867
877.388
555.562
652.307
629.917
768.514
725.833
862.675
820.866
513.858
615.442
578.616
710.806
666.157
802.464
747.064
464.707
558.756
512.076
651.008
607.437
723.325
668.099
1425.14
1549.68
1335.85
1969.71
1653.72
1845.07
1577.06
1219.11
1250.61
1108.11
1574.36
1431.4
1493.6
1349.51
1102.92
1086.03
1047.49
1380.21
1295.59
1322.93
1265
1046.83
1037.86
984.881
1278.67
1205.6
1245.67
1156.24
944.633
952.251
825.215
1173.63
1078.27
1111.98
961.993
843.942
782.209
674.299
1050.26
963.192
915.419
806.915
746.98
647.349
589.624
934.98
867.135
781.632
734.363
691.755
578.041
558.496
850.821
814.151
726.824
719.9
1300.28
1437.03
1235.82
1793.27
1543.56
1671.92
1460.35
1086.85
1181.92
1080.06
1465.24
1329.71
1405.4
1293.31
1028.13
1056.94
1001.7
1304.76
1247.64
1266.22
1202.59
1057.89
1005.84
1003.36
1094.6
985.768
1078.55
1078.24
791.044
851.094
824.143
962.536
749.15
903.964
873.444
576.748
466.894
528.845
825.887
720
594.933
649.385
529.791
552.235
572.502
701.326
676.781
664.354
678.279
528.474
571.554
565.183
676.526
690.625
678.638
681.348
1262.18
1647.9
1411.92
1664.27
1466.42
1815.52
1579.42
1098.22
1345.64
1171.65
1414.06
1294.35
1505.09
1319.09
1002.41
1120.82
1003.12
1263.25
1189.17
1269.19
1154.3
1003.56
937.001
985.65
1047.25
950.386
890.629
1044.98
819.761
585.646
815.742
544.099
783.18
505.507
853.857
630.29
799.383
749.411
683.855
731.221
911.857
852.367
621.218
733.045
686.935
732.243
718.713
834.089
784.298
588.234
672.384
631.56
712.459
696.835
769.063
729.316
1462.26
1906.19
1631.87
1928.25
1629.15
2176.64
1785.45
1197.12
1527.92
1309.63
1541.57
1331.76
1663
1432.92
1006.06
1247.39
1093.41
1276.7
1152.57
1371.66
1227.04
900.935
1052.54
987.857
1120.96
1040.32
1192.23
1129.85
832.374
972.344
930.664
1016.77
952.555
1110.37
1051.17
769.557
913.843
866.55
932.317
873.726
1029.33
968.704
705.358
846.033
786.722
854.772
801.083
944.867
875.983
641.868
762.557
702.256
783.82
736.883
851.022
789.174
1721.24
1937.88
1650.9
2328.04
1940.28
2220.99
1903.97
1492.1
1568.11
1423.16
1852.81
1691.95
1822.32
1671.38
1352.62
1395.02
1328.49
1647.17
1545.03
1637.45
1532.62
1249.78
1304.73
1202.44
1509.56
1396.39
1491.58
1346.81
1115.58
1155.2
1000.92
1357.96
1242.57
1291.08
1124.16
996.436
953.936
846.743
1205.16
1108.22
1075.95
975.665
901.76
822.462
779.118
1080.37
1016.03
955.633
922.301
845.451
772.594
763.715
996.653
947.996
916.391
902.808
1617.68
1743.81
1529.93
2144.26
1871.46
1986.29
1772.31
1404.54
1474.92
1359.9
1798.1
1657.79
1717.45
1591.64
1311.39
1331.11
1256.69
1623.67
1513.51
1552.88
1432.96
1170.76
1229.12
1005.62
1470.72
1312.8
1386.15
1195.83
923.581
906.549
714.36
1247.9
1057.6
1117.64
930.086
766.697
691.939
698.537
1005.88
909.573
891.178
838.073
725.701
705.969
714.642
895.036
879.977
836.836
842.869
736.45
715.497
716.894
879.68
882.847
844.681
845.043
1531.93
1877.69
1630.34
1973.15
1765.52
2108.26
1816.2
1355.52
1552.51
1363.11
1708.18
1571.38
1727.13
1526.06
1239.21
1313.56
1197.58
1529.58
1405.32
1475.15
1343.26
980.386
1165.33
1071.3
1358.19
1177.57
1303.29
1191.32
774.35
1042.05
965.044
1110.35
958.999
1157.15
1065.36
766.144
942.389
880.848
926.529
876.598
1038.89
976.11
750
862.432
812.83
871.507
863.546
959.634
913.687
729.35
797.687
756.399
860.342
847.582
898.977
857.694
1675.82
2265.41
1822.4
2232.76
1843.35
2524.83
1949.89
1371.23
1696.98
1467.59
1739.37
1519.81
1819.24
1597.99
1194.56
1406.89
1265.4
1467.36
1337.27
1540.07
1399.98
1078.46
1231.92
1169.16
1299.64
1201.43
1367.67
1300.92
985.041
1148.2
1083.52
1171.83
1088.31
1275.37
1191.24
902.308
1060.18
996.046
1062.75
998.829
1163.6
1090.25
828.555
971.31
900.094
979.757
925.397
1063.31
984.161
763.026
874.704
811.803
907.991
860.562
958.579
896.409
2036.18
2346.98
2021.94
3046.11
2502.33
2965.49
2648.46
1786.25
1939.84
1785.77
2405.71
2319.35
2558.23
2413.11
1637.15
1749.69
1628.95
2306.99
2152.64
2376.85
2205.99
1472.6
1580.68
1420.37
2086.45
1984.08
2139.52
1946.58
1311.55
1361.73
1189.14
1953.36
1796.11
1880.07
1679.08
1170.72
1140.06
1043.04
1742.49
1658.38
1626.04
1557.73
1077.05
1024.57
992.604
1636.41
1553.31
1544.44
1511.91
999.823
985.95
964.791
1526.71
1476.14
1504.27
1488.56
1989.8
2095.35
1886.93
2804.09
2627.74
2607.99
2520.4
1774.05
1832.28
1701.36
2555.52
2416.57
2471.65
2334.67
1607.9
1658.68
1517.25
2370.26
2190.47
2276.58
2083.22
1383.64
1463.82
1267.93
2121.04
1906.95
2010.64
1782.41
1122.31
1191.33
1000.06
1830.3
1607.61
1699.1
1476.74
978.204
957.792
900.711
1551.74
1487.42
1427.07
1384.13
952.99
900.642
910.193
1490.11
1479.54
1403.34
1432.16
946.52
911.756
905.547
1477.97
1474.48
1433.35
1425.51
1877.82
2226.85
1912.59
2656.35
2512.32
2810.65
2492.79
1676.18
1819.7
1613.63
2453.07
2294.64
2387.03
2167.38
1486.19
1561.09
1418.36
2233.19
2037.68
2105.26
1927.72
1248.64
1374.26
1254.16
1966.24
1756.07
1873.14
1733.62
1023.18
1217.84
1119.76
1685.63
1496.88
1692.28
1575.7
933.259
1092.19
1031.22
1451.96
1409.09
1544.4
1501.3
926.918
1016.57
972.086
1424.67
1441.3
1499.23
1458.35
905.646
957.292
911.341
1437.87
1420.12
1444.49
1405.29
1931.95
2650.6
2017.39
2907.17
2472.01
3167
2433.09
1602.2
1886.7
1671.01
2354.19
2129.66
2313.87
2147.13
1412.02
1614.01
1471.66
2074.91
1907.52
2094.51
1927.02
1266.3
1438.99
1370.53
1859.3
1740.91
1897.85
1841.18
1144.98
1343.11
1251.44
1705.67
1599.42
1811.64
1693.16
1055.18
1222.26
1145.98
1570.4
1527.75
1663.19
1590.12
982.282
1117.83
1035.6
1511.83
1458.17
1560.97
1469.49
913.408
1009.8
944.641
1442.12
1406.76
1446.62
1393.59
1016.98
984.806
892.404
1013.5
950.085
1053.24
950.337
1027.69
994.565
944.134
1055.68
962.032
1065.11
949.168
930.097
790.67
834.42
599.552
891.286
793.451
749.698
1125.36
1164.28
1204.17
1210.11
1144.68
1147.23
1185.33
1083.31
1071.75
1171.09
1073.49
1115.57
1013.24
1142.44
1097.28
1108.89
1191.64
1132.87
1130.57
1004.31
1162.36
1004.44
649.303
977.156
1032.91
862.051
810.847
1092.31
709.481
794.227
607.014
783.827
674.549
843.137
635.499
571.515
697.493
559.548
504.922
610.995
677.232
419.033
484.383
497.323
513.354
412.902
542.116
452.713
393.231
846.805
1016.88
1003.23
992.486
955.265
932.054
908.542
764.504
831.594
939.439
756.139
892.237
689.31
828.027
632.5
542.513
863.321
703.004
737.6
464.374
767.167
540.099
448.515
632.964
650.439
505.046
431.587
689.277
948.072
826.186
855.543
610.27
902.353
721.394
896.311
1007.05
979.519
948.093
1029.18
953.175
1035.83
1001.6
973.341
890.337
922.014
947.48
921.967
939.286
974.109
1059.94
1099.53
1100.94
1149
947.825
1100.68
1110.05
1001.94
644.534
969.69
998.493
762.763
946.459
1055.05
1056.65
1078.63
1133.35
1093.4
1087.17
1049.89
1100.76
1021.28
993.149
1026.87
1063.39
985.328
1021.17
1064.28
796.85
556.398
740.081
511.986
760.293
509.71
775.339
880.699
861.292
853.127
922.618
835.992
907.995
900.025
857.276
794.703
834.189
859.643
814.327
835.94
879.209
863.807
575.591
689.748
949.505
537.153
900.589
909.166
837.986
548.027
662.146
852.893
539.692
814.813
878.064
922.646
966.688
991.872
980.225
952
942.365
960.556
897.104
898.525
908.473
956.038
874.03
919.759
933.005
260.046
377.298
272.221
686.907
698.255
674.695
678.584
217.227
225.076
208.302
667
569.743
646.745
624.483
199.788
203.002
206.253
565.775
574.823
598.819
598.254
205.161
215.98
219.185
579.481
572.568
591.888
588.073
195.395
217.805
213.415
567.169
549.945
573.576
552.459
183.491
208.683
202.495
540.626
520.036
533.058
511.674
166.616
193.038
181.583
496.758
477.532
480.581
455.549
131.519
172.58
142.431
445.999
467.699
418.65
431.263
353.407
298.081
271.179
670.717
698.003
617.338
669.296
368.616
226.878
244.122
371.014
371.037
362.017
195.203
294.125
108.308
111.403
318.142
300.772
321.941
98.3209
275.7
109.559
90.3148
288.506
292.424
273.303
91.3317
312.867
125.016
107.487
343.988
356.511
309.933
109.383
311.982
121.039
109.543
361.007
355.892
311.006
110.309
308.064
117.98
114.625
348.791
345.18
311.704
114.522
270.193
109.418
108.29
325.06
312.601
281.934
104.293
223.37
92.0803
90.5085
276.939
268.101
232.058
85.7056
110.318
120.447
91.0539
337.507
365.212
277.537
301.098
224.405
300.739
255.076
557.083
639.866
682.896
707.071
301.869
130.986
147.211
286.326
313.106
282.745
121.714
257.235
89.6968
88.7979
281.515
264.148
266.21
86.3141
267.921
90.7976
90.2347
258.923
260.02
263.473
92.7338
269.93
92.8178
95.6849
260.611
262.151
269.234
96.3424
268.333
98.4643
97.828
271.571
272.192
269.943
98.0179
248.289
97.4123
96.7189
258.703
253.046
252.363
96.3118
218.888
87.3985
91.0989
227.664
218.149
227.158
88.1348
190.839
74.5617
79.2219
191.532
185.359
195.463
76.8603
94.5267
140.678
115.302
268.188
290.348
305.011
330.761
533.04
800.777
564.206
1250.93
1056.59
1284.07
1114.58
423.602
228.698
320.245
474.985
427.601
464.94
229.915
362.364
122.27
130.605
339.978
338.137
361.226
130.078
368.02
128.585
136.939
348.944
347.742
372.582
136.125
323.556
116.705
118.395
325.094
321.577
327.555
116.655
311.031
113.435
116.729
311.955
304.2
317.571
115.368
284.805
107.109
109.81
287.447
281.379
292.913
107.167
255.824
94.9638
98.0978
255.863
248.583
260.528
96.5821
238.683
88.4874
92.0252
234.494
231.204
242.183
90.1887
119.571
153.334
117.69
335.724
357.255
346.551
365.525
420.829
471.114
374.975
1023.12
1009.88
923.444
904.186
413.244
211.143
258.327
442.446
447.833
416.282
198.454
460.338
151.504
150.276
441.381
439.903
442.99
153.132
440.271
149.177
162.693
431.281
413.543
462.985
158.876
294.766
102.051
113.197
315.522
297.731
324.6
101.03
278.398
101.87
93.7618
286.653
287.196
275.513
95.7075
283.664
103.324
100.727
285.748
283.757
283.876
101.058
268.9
98.5087
98.9964
273.008
268.09
274.025
97.0067
243.122
89.7552
89.73
251.251
247.239
247.896
87.6798
114.623
143.994
131.429
351.467
363.787
347.31
322.061
329.436
431.14
325.341
756.606
824.601
769.968
844.104
291.219
289.871
283.459
835.207
820.769
839.114
809.728
244.491
276.208
257.527
774.677
697.15
760.376
710.707
199.131
248.712
240.618
604.115
567.306
648.167
618.923
194.402
240.239
232.615
550.83
543.8
584.554
567.804
191.401
230.638
219.143
528.18